Title t= 13160.00000 step= 6580000
29212
    1ASP      N    1   1.760   1.114   1.798
    1ASP    HT1    2   1.837   1.164   1.846
    1ASP    HT2    3   1.680   1.180   1.799
    1ASP    HT3    4   1.792   1.097   1.701
    1ASP     CA    5   1.711   0.990   1.864
    1ASP     HA    6   1.635   0.941   1.805
    1ASP     CB    7   1.830   0.890   1.871
    1ASP    HB1    8   1.802   0.812   1.946
    1ASP    HB2    9   1.922   0.934   1.914
    1ASP     CG   10   1.849   0.828   1.732
    1ASP    OD1   11   1.794   0.880   1.634
    1ASP    OD2   12   1.927   0.734   1.713
    1ASP      C   13   1.665   1.013   2.013
    1ASP      O   14   1.696   1.114   2.074
    2GLY      N   15   1.593   0.911   2.066
    2GLY     HN   16   1.593   0.827   2.012
    2GLY     CA   17   1.520   0.898   2.188
    2GLY    HA1   18   1.596   0.897   2.265
    2GLY    HA2   19   1.457   0.809   2.187
    2GLY      C   20   1.434   1.008   2.227
    2GLY      O   21   1.389   1.091   2.150
    3ASP      N   22   1.397   1.011   2.354
    3ASP     HN   23   1.425   0.935   2.413
    3ASP     CA   24   1.305   1.118   2.398
    3ASP     HA   25   1.232   1.132   2.321
    3ASP     CB   26   1.249   1.086   2.541
    3ASP    HB1   27   1.200   1.170   2.595
    3ASP    HB2   28   1.334   1.048   2.601
    3ASP     CG   29   1.145   0.985   2.544
    3ASP    OD1   30   1.161   0.886   2.619
    3ASP    OD2   31   1.040   0.999   2.477
    3ASP      C   32   1.376   1.253   2.402
    3ASP      O   33   1.488   1.266   2.454
    4GLY      N   34   1.312   1.365   2.357
    4GLY     HN   35   1.220   1.347   2.324
    4GLY     CA   36   1.351   1.505   2.374
    4GLY    HA1   37   1.309   1.566   2.296
    4GLY    HA2   38   1.457   1.513   2.353
    4GLY      C   39   1.315   1.575   2.506
    4GLY      O   40   1.232   1.511   2.573
    5PRO      N   41   1.354   1.703   2.541
    5PRO     CD   42   1.416   1.796   2.440
    5PRO    HD1   43   1.349   1.815   2.354
    5PRO    HD2   44   1.511   1.757   2.397
    5PRO     CA   45   1.329   1.764   2.673
    5PRO     HA   46   1.406   1.720   2.735
    5PRO     CB   47   1.362   1.910   2.643
    5PRO    HB1   48   1.407   1.961   2.731
    5PRO    HB2   49   1.270   1.969   2.621
    5PRO     CG   50   1.445   1.924   2.515
    5PRO    HG1   51   1.422   2.013   2.452
    5PRO    HG2   52   1.552   1.933   2.545
    5PRO      C   53   1.193   1.750   2.739
    5PRO      O   54   1.091   1.786   2.681
    6GLY      N   55   1.192   1.703   2.861
    6GLY     HN   56   1.276   1.685   2.912
    6GLY     CA   57   1.072   1.699   2.946
    6GLY    HA1   58   1.101   1.657   3.042
    6GLY    HA2   59   0.991   1.648   2.896
    6GLY      C   60   1.009   1.822   2.996
    6GLY      O   61   1.056   1.931   2.974
    7ASP      N   62   0.898   1.810   3.072
    7ASP     HN   63   0.854   1.722   3.087
    7ASP     CA   64   0.829   1.925   3.118
    7ASP     HA   65   0.810   1.986   3.030
    7ASP     CB   66   0.692   1.898   3.186
    7ASP    HB1   67   0.646   1.991   3.225
    7ASP    HB2   68   0.699   1.827   3.271
    7ASP     CG   69   0.592   1.834   3.087
    7ASP    OD1   70   0.482   1.788   3.127
    7ASP    OD2   71   0.611   1.854   2.960
    7ASP      C   72   0.905   2.004   3.225
    7ASP      O   73   0.968   1.945   3.313
    8PRO      N   74   0.901   2.139   3.234
    8PRO     CD   75   0.888   2.218   3.115
    8PRO    HD1   76   0.814   2.189   3.038
    8PRO    HD2   77   0.991   2.225   3.073
    8PRO     CA   78   0.930   2.222   3.349
    8PRO     HA   79   1.033   2.201   3.375
    8PRO     CB   80   0.926   2.367   3.300
    8PRO    HB1   81   1.030   2.398   3.275
    8PRO    HB2   82   0.894   2.438   3.379
    8PRO     CG   83   0.851   2.361   3.176
    8PRO    HG1   84   0.741   2.363   3.191
    8PRO    HG2   85   0.878   2.433   3.096
    8PRO      C   86   0.867   2.186   3.478
    8PRO      O   87   0.751   2.153   3.479
    9GLY      N   88   0.952   2.187   3.589
    9GLY     HN   89   1.047   2.213   3.571
    9GLY     CA   90   0.923   2.166   3.734
    9GLY    HA1   91   1.012   2.187   3.790
    9GLY    HA2   92   0.891   2.063   3.742
    9GLY      C   93   0.813   2.247   3.787
    9GLY      O   94   0.778   2.354   3.736
   10ASP      N   95   0.747   2.210   3.896
   10ASP     HN   96   0.758   2.118   3.933
   10ASP     CA   97   0.638   2.276   3.960
   10ASP     HA   98   0.554   2.290   3.893
   10ASP     CB   99   0.583   2.181   4.078
   10ASP    HB1  100   0.500   2.233   4.131
   10ASP    HB2  101   0.666   2.163   4.150
   10ASP     CG  102   0.527   2.049   4.034
   10ASP    OD1  103   0.509   2.018   3.914
   10ASP    OD2  104   0.482   1.975   4.130
   10ASP      C  105   0.659   2.415   4.021
   10ASP      O  106   0.568   2.493   4.008
   11GLY      N  107   0.776   2.448   4.088
   11GLY     HN  108   0.840   2.372   4.101
   11GLY     CA  109   0.811   2.582   4.138
   11GLY    HA1  110   0.758   2.607   4.229
   11GLY    HA2  111   0.797   2.661   4.067
   11GLY      C  112   0.956   2.585   4.183
   11GLY    OT1  113   0.985   2.499   4.265
   11GLY    OT2  114   1.047   2.672   4.148
   12LIT    LIT  115   3.785   5.697   1.496
   13LIT    LIT  116   2.233   3.351   5.737
   14LIT    LIT  117   2.307   0.705   0.924
   15LIT    LIT  118   3.341   1.321   1.954
   16LIT    LIT  119   1.026   2.848   4.058
   17LIT    LIT  120   3.345   6.539   4.399
   18LIT    LIT  121   2.996   3.166   3.354
   19LIT    LIT  122   1.887   6.095   1.067
   20LIT    LIT  123   7.183   2.347   3.466
   21LIT    LIT  124   2.030   0.664   2.270
   22LIT    LIT  125   5.318   3.848   0.007
   23LIT    LIT  126   3.636   4.560   5.870
   24LIT    LIT  127   6.412   4.376   4.680
   25LIT    LIT  128   0.565   1.964   2.819
   26LIT    LIT  129   0.323   2.008   3.865
   27LIT    LIT  130   3.819   1.204   3.354
   28LIT    LIT  131   0.585   5.136   5.836
   29LIT    LIT  132   6.999   3.332   2.776
   30LIT    LIT  133   0.404   2.302   1.549
   31LIT    LIT  134   4.521   0.861   2.309
   32LIT    LIT  135   6.758   2.364   0.190
   33LIT    LIT  136   3.705   3.161   2.578
   34LIT    LIT  137   4.724   1.880   4.268
   35LIT    LIT  138   0.775   1.284   2.631
   36LIT    LIT  139   5.861   5.272   1.660
   37LIT    LIT  140   2.718   4.689   1.068
   38LIT    LIT  141   1.581   2.634   5.750
   39LIT    LIT  142   1.910   0.776   1.510
   40LIT    LIT  143   2.739   6.692   2.885
   41LIT    LIT  144   3.241   1.393   3.142
   42LIT    LIT  145   0.995   0.814   2.535
   43CLA    CLA  146   5.094   0.112   2.938
   44CLA    CLA  147   4.038   1.818   4.107
   45CLA    CLA  148   3.475   3.366   3.335
   46CLA    CLA  149   6.210   2.454   0.484
   47CLA    CLA  150   0.415   1.599   2.572
   48CLA    CLA  151   4.557   5.462   0.473
   49CLA    CLA  152   2.702   6.430   3.787
   50CLA    CLA  153   3.654   3.501   1.433
   51CLA    CLA  154   6.898   1.580   1.650
   52CLA    CLA  155   3.911   4.703   3.739
   53CLA    CLA  156   3.668   1.282   2.617
   54CLA    CLA  157   3.481   0.913   1.329
   55CLA    CLA  158   6.993   3.211   5.586
   56CLA    CLA  159   7.028   0.541   5.035
   57CLA    CLA  160   6.986   2.364   4.194
   58CLA    CLA  161   3.779   3.077   2.386
   59CLA    CLA  162   2.930   6.771   1.500
   60CLA    CLA  163   6.933   6.628   3.381
   61CLA    CLA  164   1.400   0.201   0.619
   62CLA    CLA  165   4.263   6.709   1.025
   63CLA    CLA  166   0.539   1.221   0.453
   64CLA    CLA  167   4.414   4.181   0.415
   65CLA    CLA  168   6.127   5.088   2.358
   66CLA    CLA  169   3.218   0.440   2.736
   67CLA    CLA  170   5.918   1.708   2.307
   68CLA    CLA  171   0.484   2.383   2.033
   69CLA    CLA  172   4.009   4.031   2.226
   70TIP3   OH2  173   6.078   3.144   0.135
   70TIP3    H1  174   6.004   3.199   0.158
   70TIP3    H2  175   6.077   3.141   0.039
   71TIP3   OH2  176   1.088   5.156   4.216
   71TIP3    H1  177   1.040   5.153   4.298
   71TIP3    H2  178   1.049   5.087   4.162
   72TIP3   OH2  179   5.656   4.775   4.457
   72TIP3    H1  180   5.580   4.728   4.492
   72TIP3    H2  181   5.727   4.755   4.518
   73TIP3   OH2  182   3.998   3.082   0.599
   73TIP3    H1  183   4.013   3.120   0.512
   73TIP3    H2  184   4.051   3.137   0.658
   74TIP3   OH2  185   4.716   5.895   4.701
   74TIP3    H1  186   4.801   5.926   4.672
   74TIP3    H2  187   4.720   5.900   4.797
   75TIP3   OH2  188   2.945   3.807   1.974
   75TIP3    H1  189   2.919   3.823   1.883
   75TIP3    H2  190   2.917   3.885   2.021
   76TIP3   OH2  191   2.283   6.464   3.527
   76TIP3    H1  192   2.347   6.478   3.597
   76TIP3    H2  193   2.332   6.482   3.446
   77TIP3   OH2  194   0.243   4.522   5.850
   77TIP3    H1  195   0.222   4.572   5.929
   77TIP3    H2  196   0.236   4.586   5.779
   78TIP3   OH2  197   5.596   1.158   5.877
   78TIP3    H1  198   5.599   1.153   5.973
   78TIP3    H2  199   5.683   1.189   5.853
   79TIP3   OH2  200   1.709   4.415   4.020
   79TIP3    H1  201   1.624   4.372   4.033
   79TIP3    H2  202   1.687   4.498   3.977
   80TIP3   OH2  203   3.292   0.051   0.708
   80TIP3    H1  204   3.374   0.002   0.718
   80TIP3    H2  205   3.244   0.033   0.789
   81TIP3   OH2  206   0.470   3.562   3.362
   81TIP3    H1  207   0.544   3.610   3.323
   81TIP3    H2  208   0.505   3.528   3.444
   82TIP3   OH2  209   3.924   5.030   3.308
   82TIP3    H1  210   3.871   4.979   3.247
   82TIP3    H2  211   3.861   5.062   3.374
   83TIP3   OH2  212   1.107   4.252   1.023
   83TIP3    H1  213   1.016   4.246   1.051
   83TIP3    H2  214   1.106   4.225   0.931
   84TIP3   OH2  215   5.269   1.413   1.839
   84TIP3    H1  216   5.285   1.319   1.837
   84TIP3    H2  217   5.331   1.447   1.904
   85TIP3   OH2  218   6.976   2.058   3.221
   85TIP3    H1  219   6.966   2.066   3.126
   85TIP3    H2  220   6.890   2.032   3.252
   86TIP3   OH2  221   7.086   1.827   3.269
   86TIP3    H1  222   7.025   1.877   3.322
   86TIP3    H2  223   7.052   1.834   3.180
   87TIP3   OH2  224   6.799   6.735   2.072
   87TIP3    H1  225   6.850   6.814   2.091
   87TIP3    H2  226   6.716   6.768   2.038
   88TIP3   OH2  227   1.184   5.450   4.176
   88TIP3    H1  228   1.158   5.446   4.084
   88TIP3    H2  229   1.232   5.369   4.191
   89TIP3   OH2  230   6.512   5.675   3.923
   89TIP3    H1  231   6.597   5.692   3.962
   89TIP3    H2  232   6.530   5.655   3.831
   90TIP3   OH2  233   1.332   5.228   4.761
   90TIP3    H1  234   1.387   5.243   4.684
   90TIP3    H2  235   1.256   5.181   4.728
   91TIP3   OH2  236   2.514   2.604   5.472
   91TIP3    H1  237   2.512   2.654   5.390
   91TIP3    H2  238   2.601   2.565   5.474
   92TIP3   OH2  239   3.127   0.110   0.490
   92TIP3    H1  240   3.151   0.188   0.442
   92TIP3    H2  241   3.168   0.120   0.576
   93TIP3   OH2  242   7.142   5.393   3.811
   93TIP3    H1  243   7.127   5.433   3.725
   93TIP3    H2  244   7.213   5.331   3.795
   94TIP3   OH2  245   3.817   1.442   0.894
   94TIP3    H1  246   3.898   1.412   0.935
   94TIP3    H2  247   3.844   1.478   0.810
   95TIP3   OH2  248   3.564   4.582   5.182
   95TIP3    H1  249   3.494   4.630   5.138
   95TIP3    H2  250   3.544   4.490   5.165
   96TIP3   OH2  251   6.770   6.706   1.594
   96TIP3    H1  252   6.779   6.663   1.680
   96TIP3    H2  253   6.858   6.706   1.558
   97TIP3   OH2  254   5.793   0.027   3.712
   97TIP3    H1  255   5.770   0.073   3.792
   97TIP3    H2  256   5.709  -0.002   3.675
   98TIP3   OH2  257   0.364   1.774   2.018
   98TIP3    H1  258   0.437   1.826   2.050
   98TIP3    H2  259   0.382   1.685   2.050
   99TIP3   OH2  260   1.210   4.931   2.478
   99TIP3    H1  261   1.139   4.994   2.469
   99TIP3    H2  262   1.194   4.889   2.562
  100TIP3   OH2  263   3.283   3.153   0.618
  100TIP3    H1  264   3.368   3.109   0.606
  100TIP3    H2  265   3.294   3.207   0.695
  101TIP3   OH2  266   5.259   1.471   0.882
  101TIP3    H1  267   5.329   1.509   0.830
  101TIP3    H2  268   5.304   1.413   0.944
  102TIP3   OH2  269   2.626   0.795   2.007
  102TIP3    H1  270   2.692   0.811   2.074
  102TIP3    H2  271   2.654   0.713   1.966
  103TIP3   OH2  272   6.827   1.254   1.602
  103TIP3    H1  273   6.862   1.342   1.611
  103TIP3    H2  274   6.893   1.197   1.641
  104TIP3   OH2  275   0.920   6.050  -0.002
  104TIP3    H1  276   0.978   5.982   0.034
  104TIP3    H2  277   0.834   6.029   0.034
  105TIP3   OH2  278   6.520   3.438   2.202
  105TIP3    H1  279   6.448   3.458   2.143
  105TIP3    H2  280   6.599   3.464   2.155
  106TIP3   OH2  281   3.070   2.205   4.556
  106TIP3    H1  282   3.095   2.267   4.488
  106TIP3    H2  283   3.146   2.198   4.613
  107TIP3   OH2  284   5.483   1.907   0.019
  107TIP3    H1  285   5.450   1.907   0.109
  107TIP3    H2  286   5.549   1.976   0.017
  108TIP3   OH2  287   3.684   2.132   2.469
  108TIP3    H1  288   3.748   2.139   2.398
  108TIP3    H2  289   3.614   2.192   2.444
  109TIP3   OH2  290   2.147   6.252   3.438
  109TIP3    H1  291   2.218   6.314   3.457
  109TIP3    H2  292   2.067   6.298   3.463
  110TIP3   OH2  293   1.566   0.707   1.842
  110TIP3    H1  294   1.631   0.655   1.795
  110TIP3    H2  295   1.483   0.664   1.824
  111TIP3   OH2  296   1.692   0.139   0.170
  111TIP3    H1  297   1.628   0.108   0.106
  111TIP3    H2  298   1.753   0.065   0.179
  112TIP3   OH2  299   0.223   1.382   5.742
  112TIP3    H1  300   0.136   1.381   5.701
  112TIP3    H2  301   0.274   1.444   5.689
  113TIP3   OH2  302   1.989   5.862   3.635
  113TIP3    H1  303   2.037   5.786   3.668
  113TIP3    H2  304   1.937   5.828   3.563
  114TIP3   OH2  305   2.690   0.632   4.246
  114TIP3    H1  306   2.626   0.691   4.287
  114TIP3    H2  307   2.747   0.605   4.318
  115TIP3   OH2  308   4.488   1.122   4.266
  115TIP3    H1  309   4.523   1.178   4.335
  115TIP3    H2  310   4.434   1.058   4.313
  116TIP3   OH2  311   3.969   3.462   0.911
  116TIP3    H1  312   3.928   3.407   0.845
  116TIP3    H2  313   4.014   3.400   0.969
  117TIP3   OH2  314   3.450   6.587   1.295
  117TIP3    H1  315   3.383   6.648   1.325
  117TIP3    H2  316   3.402   6.522   1.243
  118TIP3   OH2  317   0.542   5.145   5.052
  118TIP3    H1  318   0.558   5.133   4.958
  118TIP3    H2  319   0.465   5.090   5.069
  119TIP3   OH2  320   2.398   4.001   1.573
  119TIP3    H1  321   2.442   3.922   1.603
  119TIP3    H2  322   2.420   4.007   1.480
  120TIP3   OH2  323   2.639   0.862   2.690
  120TIP3    H1  324   2.651   0.928   2.758
  120TIP3    H2  325   2.641   0.778   2.738
  121TIP3   OH2  326   1.812   6.652   2.994
  121TIP3    H1  327   1.796   6.744   2.974
  121TIP3    H2  328   1.761   6.636   3.074
  122TIP3   OH2  329   6.538   3.656   3.016
  122TIP3    H1  330   6.503   3.742   2.996
  122TIP3    H2  331   6.612   3.645   2.956
  123TIP3   OH2  332   0.199   6.640   3.216
  123TIP3    H1  333   0.256   6.564   3.201
  123TIP3    H2  334   0.210   6.694   3.138
  124TIP3   OH2  335   6.412   0.922   1.058
  124TIP3    H1  336   6.405   0.826   1.051
  124TIP3    H2  337   6.504   0.937   1.081
  125TIP3   OH2  338   4.542   3.506   1.777
  125TIP3    H1  339   4.638   3.504   1.781
  125TIP3    H2  340   4.522   3.589   1.735
  126TIP3   OH2  341   0.788   5.568   3.663
  126TIP3    H1  342   0.703   5.569   3.620
  126TIP3    H2  343   0.769   5.577   3.756
  127TIP3   OH2  344   0.946   1.789   5.439
  127TIP3    H1  345   0.863   1.795   5.391
  127TIP3    H2  346   1.011   1.825   5.379
  128TIP3   OH2  347   3.938   0.532   3.869
  128TIP3    H1  348   3.898   0.446   3.859
  128TIP3    H2  349   3.980   0.549   3.785
  129TIP3   OH2  350   2.316   2.514   4.209
  129TIP3    H1  351   2.347   2.596   4.247
  129TIP3    H2  352   2.226   2.505   4.240
  130TIP3   OH2  353   1.241   4.838   5.222
  130TIP3    H1  354   1.224   4.893   5.145
  130TIP3    H2  355   1.336   4.827   5.224
  131TIP3   OH2  356   6.748   3.632   0.025
  131TIP3    H1  357   6.817   3.641   0.090
  131TIP3    H2  358   6.791   3.587  -0.048
  132TIP3   OH2  359   5.751   3.034   3.925
  132TIP3    H1  360   5.749   3.106   3.988
  132TIP3    H2  361   5.799   2.964   3.970
  133TIP3   OH2  362   0.642   2.671   3.738
  133TIP3    H1  363   0.695   2.592   3.747
  133TIP3    H2  364   0.581   2.652   3.667
  134TIP3   OH2  365   1.744   3.861   1.706
  134TIP3    H1  366   1.808   3.933   1.704
  134TIP3    H2  367   1.687   3.879   1.631
  135TIP3   OH2  368   0.582   5.056   4.813
  135TIP3    H1  369   0.524   5.056   4.736
  135TIP3    H2  370   0.667   5.081   4.778
  136TIP3   OH2  371   3.832   4.358   5.544
  136TIP3    H1  372   3.882   4.418   5.490
  136TIP3    H2  373   3.891   4.336   5.617
  137TIP3   OH2  374   0.778   1.900   0.042
  137TIP3    H1  375   0.703   1.882  -0.015
  137TIP3    H2  376   0.741   1.946   0.117
  138TIP3   OH2  377   4.577   1.220   0.600
  138TIP3    H1  378   4.597   1.207   0.507
  138TIP3    H2  379   4.594   1.134   0.640
  139TIP3   OH2  380   6.595   0.078   3.769
  139TIP3    H1  381   6.557   0.166   3.769
  139TIP3    H2  382   6.607   0.057   3.862
  140TIP3   OH2  383   2.418   1.323   0.328
  140TIP3    H1  384   2.423   1.261   0.255
  140TIP3    H2  385   2.327   1.317   0.358
  141TIP3   OH2  386   6.706   6.608   3.687
  141TIP3    H1  387   6.678   6.700   3.690
  141TIP3    H2  388   6.751   6.594   3.771
  142TIP3   OH2  389   0.913   5.391   3.156
  142TIP3    H1  390   0.967   5.381   3.234
  142TIP3    H2  391   0.948   5.469   3.113
  143TIP3   OH2  392   6.973   6.032   1.658
  143TIP3    H1  393   7.034   5.960   1.644
  143TIP3    H2  394   6.903   5.994   1.712
  144TIP3   OH2  395   1.340   4.550   1.450
  144TIP3    H1  396   1.401   4.522   1.518
  144TIP3    H2  397   1.395   4.590   1.383
  145TIP3   OH2  398   3.583   3.454   2.824
  145TIP3    H1  399   3.510   3.422   2.876
  145TIP3    H2  400   3.646   3.486   2.889
  146TIP3   OH2  401   1.136   3.520   0.408
  146TIP3    H1  402   1.195   3.573   0.354
  146TIP3    H2  403   1.087   3.584   0.459
  147TIP3   OH2  404   2.306   6.100   3.961
  147TIP3    H1  405   2.218   6.122   3.929
  147TIP3    H2  406   2.357   6.179   3.943
  148TIP3   OH2  407   5.702   0.393   2.584
  148TIP3    H1  408   5.681   0.309   2.624
  148TIP3    H2  409   5.629   0.450   2.609
  149TIP3   OH2  410   6.577   2.187   4.190
  149TIP3    H1  411   6.491   2.174   4.230
  149TIP3    H2  412   6.631   2.117   4.226
  150TIP3   OH2  413   0.388   4.632   2.349
  150TIP3    H1  414   0.400   4.709   2.294
  150TIP3    H2  415   0.431   4.561   2.300
  151TIP3   OH2  416   6.281   1.021   3.301
  151TIP3    H1  417   6.199   1.037   3.255
  151TIP3    H2  418   6.259   1.029   3.394
  152TIP3   OH2  419   6.664   5.242   1.155
  152TIP3    H1  420   6.740   5.185   1.146
  152TIP3    H2  421   6.623   5.241   1.068
  153TIP3   OH2  422   2.247   3.629   3.140
  153TIP3    H1  423   2.193   3.695   3.097
  153TIP3    H2  424   2.187   3.558   3.160
  154TIP3   OH2  425   6.753   6.667   2.965
  154TIP3    H1  426   6.794   6.583   2.986
  154TIP3    H2  427   6.788   6.727   3.031
  155TIP3   OH2  428   4.623   5.311   5.420
  155TIP3    H1  429   4.702   5.257   5.413
  155TIP3    H2  430   4.599   5.330   5.329
  156TIP3   OH2  431   4.159   2.424   2.406
  156TIP3    H1  432   4.091   2.483   2.373
  156TIP3    H2  433   4.235   2.441   2.351
  157TIP3   OH2  434   5.744   4.625   5.457
  157TIP3    H1  435   5.747   4.623   5.552
  157TIP3    H2  436   5.679   4.693   5.437
  158TIP3   OH2  437   3.573   0.148   4.024
  158TIP3    H1  438   3.504   0.207   4.055
  158TIP3    H2  439   3.631   0.204   3.974
  159TIP3   OH2  440   6.290   0.121   0.755
  159TIP3    H1  441   6.298   0.026   0.762
  159TIP3    H2  442   6.300   0.152   0.845
  160TIP3   OH2  443   2.885   5.143   0.009
  160TIP3    H1  444   2.926   5.098  -0.065
  160TIP3    H2  445   2.846   5.073   0.061
  161TIP3   OH2  446   6.982   1.708   0.924
  161TIP3    H1  447   7.049   1.766   0.961
  161TIP3    H2  448   6.936   1.673   1.001
  162TIP3   OH2  449   4.390   1.528   3.982
  162TIP3    H1  450   4.436   1.458   3.936
  162TIP3    H2  451   4.415   1.518   4.073
  163TIP3   OH2  452   0.904   5.993   4.819
  163TIP3    H1  453   0.983   5.957   4.778
  163TIP3    H2  454   0.930   6.079   4.852
  164TIP3   OH2  455   5.301   4.668   0.691
  164TIP3    H1  456   5.261   4.698   0.610
  164TIP3    H2  457   5.294   4.742   0.751
  165TIP3   OH2  458   0.416   1.752   5.092
  165TIP3    H1  459   0.467   1.779   5.168
  165TIP3    H2  460   0.383   1.665   5.115
  166TIP3   OH2  461   5.066   6.016   4.390
  166TIP3    H1  462   5.055   6.100   4.345
  166TIP3    H2  463   5.079   5.953   4.320
  167TIP3   OH2  464   5.997   2.940   0.731
  167TIP3    H1  465   5.969   2.936   0.640
  167TIP3    H2  466   5.956   2.865   0.773
  168TIP3   OH2  467   4.026   4.217   1.955
  168TIP3    H1  468   4.039   4.148   2.020
  168TIP3    H2  469   4.038   4.174   1.871
  169TIP3   OH2  470   0.483   4.461   2.898
  169TIP3    H1  471   0.484   4.525   2.969
  169TIP3    H2  472   0.518   4.381   2.938
  170TIP3   OH2  473   6.001   2.212   0.370
  170TIP3    H1  474   5.956   2.170   0.443
  170TIP3    H2  475   6.069   2.266   0.412
  171TIP3   OH2  476   2.408   3.518   4.844
  171TIP3    H1  477   2.336   3.565   4.887
  171TIP3    H2  478   2.365   3.464   4.778
  172TIP3   OH2  479   4.244   2.252   4.819
  172TIP3    H1  480   4.176   2.205   4.867
  172TIP3    H2  481   4.206   2.338   4.802
  173TIP3   OH2  482   6.127   0.296   5.734
  173TIP3    H1  483   6.077   0.250   5.802
  173TIP3    H2  484   6.215   0.304   5.771
  174TIP3   OH2  485   0.342   6.475   3.016
  174TIP3    H1  486   0.363   6.393   3.060
  174TIP3    H2  487   0.288   6.449   2.941
  175TIP3   OH2  488   4.689   6.749   1.224
  175TIP3    H1  489   4.636   6.699   1.287
  175TIP3    H2  490   4.770   6.699   1.216
  176TIP3   OH2  491   4.554   0.345   0.503
  176TIP3    H1  492   4.507   0.286   0.560
  176TIP3    H2  493   4.604   0.289   0.444
  177TIP3   OH2  494   3.650   5.992   4.150
  177TIP3    H1  495   3.601   6.014   4.070
  177TIP3    H2  496   3.613   6.048   4.217
  178TIP3   OH2  497   3.268   3.717   2.520
  178TIP3    H1  498   3.353   3.759   2.530
  178TIP3    H2  499   3.278   3.632   2.562
  179TIP3   OH2  500   6.800   5.834   3.557
  179TIP3    H1  501   6.735   5.868   3.494
  179TIP3    H2  502   6.757   5.758   3.596
  180TIP3   OH2  503   0.666   1.479   2.153
  180TIP3    H1  504   0.697   1.390   2.168
  180TIP3    H2  505   0.701   1.503   2.067
  181TIP3   OH2  506   0.809   0.438   2.996
  181TIP3    H1  507   0.797   0.378   2.922
  181TIP3    H2  508   0.754   0.401   3.065
  182TIP3   OH2  509   0.871   1.285   2.803
  182TIP3    H1  510   0.852   1.337   2.881
  182TIP3    H2  511   0.966   1.289   2.794
  183TIP3   OH2  512   5.420   0.167   3.016
  183TIP3    H1  513   5.332   0.196   2.990
  183TIP3    H2  514   5.405   0.117   3.096
  184TIP3   OH2  515   3.223   0.336   3.014
  184TIP3    H1  516   3.211   0.385   2.933
  184TIP3    H2  517   3.141   0.289   3.026
  185TIP3   OH2  518   2.123   1.320   0.442
  185TIP3    H1  519   2.085   1.367   0.368
  185TIP3    H2  520   2.085   1.233   0.438
  186TIP3   OH2  521   2.866   2.595   2.359
  186TIP3    H1  522   2.885   2.516   2.307
  186TIP3    H2  523   2.810   2.648   2.302
  187TIP3   OH2  524   1.620   4.609   4.240
  187TIP3    H1  525   1.594   4.545   4.174
  187TIP3    H2  526   1.708   4.636   4.214
  188TIP3   OH2  527   0.747   5.466   2.004
  188TIP3    H1  528   0.726   5.468   1.911
  188TIP3    H2  529   0.801   5.388   2.016
  189TIP3   OH2  530   6.786   2.438   4.472
  189TIP3    H1  531   6.845   2.474   4.539
  189TIP3    H2  532   6.817   2.477   4.390
  190TIP3   OH2  533   4.307   3.579   0.333
  190TIP3    H1  534   4.395   3.548   0.355
  190TIP3    H2  535   4.277   3.521   0.264
  191TIP3   OH2  536   2.523   4.420   2.708
  191TIP3    H1  537   2.521   4.506   2.667
  191TIP3    H2  538   2.616   4.396   2.708
  192TIP3   OH2  539   6.905   6.364   1.136
  192TIP3    H1  540   6.849   6.338   1.210
  192TIP3    H2  541   6.850   6.351   1.059
  193TIP3   OH2  542   4.843   1.698   5.068
  193TIP3    H1  543   4.773   1.756   5.096
  193TIP3    H2  544   4.814   1.610   5.094
  194TIP3   OH2  545   0.151   3.956   0.544
  194TIP3    H1  546   0.217   3.891   0.521
  194TIP3    H2  547   0.133   3.941   0.636
  195TIP3   OH2  548   1.571   0.812   1.475
  195TIP3    H1  549   1.617   0.822   1.558
  195TIP3    H2  550   1.492   0.866   1.484
  196TIP3   OH2  551   5.027   2.945   4.201
  196TIP3    H1  552   4.999   2.871   4.147
  196TIP3    H2  553   5.019   2.912   4.291
  197TIP3   OH2  554   4.923   1.937   0.301
  197TIP3    H1  555   4.994   1.931   0.365
  197TIP3    H2  556   4.851   1.977   0.349
  198TIP3   OH2  557   1.687   6.286   3.044
  198TIP3    H1  558   1.682   6.213   2.982
  198TIP3    H2  559   1.780   6.290   3.068
  199TIP3   OH2  560   5.367   1.329   0.357
  199TIP3    H1  561   5.459   1.312   0.379
  199TIP3    H2  562   5.321   1.249   0.382
  200TIP3   OH2  563   4.297   2.032   4.047
  200TIP3    H1  564   4.210   2.049   4.012
  200TIP3    H2  565   4.283   1.970   4.118
  201TIP3   OH2  566   3.498   5.120   3.161
  201TIP3    H1  567   3.506   5.191   3.224
  201TIP3    H2  568   3.579   5.070   3.171
  202TIP3   OH2  569   1.283   1.648   2.038
  202TIP3    H1  570   1.271   1.576   1.977
  202TIP3    H2  571   1.256   1.726   1.990
  203TIP3   OH2  572   0.120   1.831   1.398
  203TIP3    H1  573   0.096   1.920   1.373
  203TIP3    H2  574   0.076   1.817   1.482
  204TIP3   OH2  575   1.043   1.627   2.189
  204TIP3    H1  576   0.971   1.640   2.128
  204TIP3    H2  577   1.122   1.630   2.135
  205TIP3   OH2  578   4.895   2.806   3.075
  205TIP3    H1  579   4.828   2.837   3.014
  205TIP3    H2  580   4.976   2.806   3.023
  206TIP3   OH2  581   1.062   4.297   3.732
  206TIP3    H1  582   1.024   4.225   3.782
  206TIP3    H2  583   1.115   4.255   3.665
  207TIP3   OH2  584   2.756   1.344   4.380
  207TIP3    H1  585   2.845   1.339   4.416
  207TIP3    H2  586   2.741   1.438   4.365
  208TIP3   OH2  587   1.758   3.625   0.384
  208TIP3    H1  588   1.810   3.704   0.370
  208TIP3    H2  589   1.822   3.560   0.414
  209TIP3   OH2  590   6.959   4.291   0.418
  209TIP3    H1  591   6.888   4.336   0.463
  209TIP3    H2  592   6.963   4.333   0.332
  210TIP3   OH2  593   0.332   6.188   4.014
  210TIP3    H1  594   0.300   6.101   4.039
  210TIP3    H2  595   0.294   6.204   3.928
  211TIP3   OH2  596   4.937   1.974   0.866
  211TIP3    H1  597   4.944   1.879   0.865
  211TIP3    H2  598   4.843   1.991   0.861
  212TIP3   OH2  599   0.348   5.094   3.673
  212TIP3    H1  600   0.373   5.160   3.738
  212TIP3    H2  601   0.430   5.049   3.653
  213TIP3   OH2  602   2.118   3.058   4.350
  213TIP3    H1  603   2.036   3.009   4.350
  213TIP3    H2  604   2.095   3.141   4.393
  214TIP3   OH2  605   7.004   2.538   2.573
  214TIP3    H1  606   6.984   2.602   2.641
  214TIP3    H2  607   6.936   2.549   2.507
  215TIP3   OH2  608   4.227   6.540   3.927
  215TIP3    H1  609   4.317   6.515   3.907
  215TIP3    H2  610   4.178   6.517   3.848
  216TIP3   OH2  611   0.146   0.439   3.420
  216TIP3    H1  612   0.070   0.382   3.433
  216TIP3    H2  613   0.120   0.523   3.456
  217TIP3   OH2  614   0.539   0.180   0.416
  217TIP3    H1  615   0.470   0.243   0.396
  217TIP3    H2  616   0.557   0.192   0.509
  218TIP3   OH2  617   2.230   0.742   4.524
  218TIP3    H1  618   2.215   0.656   4.485
  218TIP3    H2  619   2.228   0.802   4.450
  219TIP3   OH2  620   4.342   1.879   1.108
  219TIP3    H1  621   4.388   1.923   1.180
  219TIP3    H2  622   4.401   1.806   1.083
  220TIP3   OH2  623   3.987   4.326   5.756
  220TIP3    H1  624   3.985   4.233   5.776
  220TIP3    H2  625   4.081   4.346   5.748
  221TIP3   OH2  626   6.977   3.893   4.958
  221TIP3    H1  627   6.971   3.798   4.944
  221TIP3    H2  628   7.066   3.916   4.931
  222TIP3   OH2  629   5.784   4.515   2.455
  222TIP3    H1  630   5.803   4.462   2.533
  222TIP3    H2  631   5.862   4.570   2.445
  223TIP3   OH2  632   3.994   1.814   3.094
  223TIP3    H1  633   3.984   1.809   2.999
  223TIP3    H2  634   3.968   1.904   3.115
  224TIP3   OH2  635   2.847   6.277   1.357
  224TIP3    H1  636   2.865   6.270   1.450
  224TIP3    H2  637   2.805   6.194   1.333
  225TIP3   OH2  638   4.515   0.012   5.003
  225TIP3    H1  639   4.538  -0.081   4.997
  225TIP3    H2  640   4.516   0.030   5.097
  226TIP3   OH2  641   5.495   1.519   5.265
  226TIP3    H1  642   5.541   1.453   5.214
  226TIP3    H2  643   5.533   1.513   5.352
  227TIP3   OH2  644   1.195   6.681   0.209
  227TIP3    H1  645   1.135   6.711   0.277
  227TIP3    H2  646   1.256   6.753   0.197
  228TIP3   OH2  647   3.918   4.031   2.513
  228TIP3    H1  648   3.970   4.105   2.544
  228TIP3    H2  649   3.957   4.009   2.428
  229TIP3   OH2  650   2.894   0.124   3.771
  229TIP3    H1  651   2.924   0.068   3.843
  229TIP3    H2  652   2.957   0.197   3.770
  230TIP3   OH2  653   5.118   0.863   2.587
  230TIP3    H1  654   5.049   0.829   2.531
  230TIP3    H2  655   5.077   0.874   2.673
  231TIP3   OH2  656   3.961   0.398   0.740
  231TIP3    H1  657   3.958   0.315   0.694
  231TIP3    H2  658   3.871   0.414   0.768
  232TIP3   OH2  659   6.156   1.800   3.707
  232TIP3    H1  660   6.213   1.751   3.648
  232TIP3    H2  661   6.157   1.889   3.672
  233TIP3   OH2  662   2.121   1.087   5.599
  233TIP3    H1  663   2.100   1.123   5.513
  233TIP3    H2  664   2.066   1.009   5.607
  234TIP3   OH2  665   3.420   2.140   1.713
  234TIP3    H1  666   3.368   2.174   1.786
  234TIP3    H2  667   3.503   2.189   1.718
  235TIP3   OH2  668   4.673   5.844   1.822
  235TIP3    H1  669   4.749   5.855   1.764
  235TIP3    H2  670   4.642   5.755   1.805
  236TIP3   OH2  671   0.899   6.318   3.716
  236TIP3    H1  672   0.855   6.360   3.643
  236TIP3    H2  673   0.849   6.345   3.793
  237TIP3   OH2  674   1.946   5.814   5.728
  237TIP3    H1  675   1.975   5.724   5.713
  237TIP3    H2  676   1.896   5.836   5.649
  238TIP3   OH2  677   5.569   1.721   5.498
  238TIP3    H1  678   5.607   1.750   5.415
  238TIP3    H2  679   5.614   1.772   5.565
  239TIP3   OH2  680   5.775   6.110   0.576
  239TIP3    H1  681   5.712   6.095   0.646
  239TIP3    H2  682   5.729   6.084   0.496
  240TIP3   OH2  683   5.333   2.393   0.988
  240TIP3    H1  684   5.310   2.474   0.941
  240TIP3    H2  685   5.296   2.323   0.934
  241TIP3   OH2  686   2.127   5.241   2.750
  241TIP3    H1  687   2.162   5.168   2.800
  241TIP3    H2  688   2.046   5.265   2.795
  242TIP3   OH2  689   4.168   2.779   4.016
  242TIP3    H1  690   4.090   2.828   4.043
  242TIP3    H2  691   4.241   2.835   4.043
  243TIP3   OH2  692   1.855   3.847   2.969
  243TIP3    H1  693   1.853   3.899   3.049
  243TIP3    H2  694   1.862   3.757   2.999
  244TIP3   OH2  695   0.894   0.622   1.414
  244TIP3    H1  696   0.827   0.605   1.480
  244TIP3    H2  697   0.967   0.566   1.439
  245TIP3   OH2  698   2.691   5.383   3.933
  245TIP3    H1  699   2.615   5.426   3.894
  245TIP3    H2  700   2.661   5.294   3.954
  246TIP3   OH2  701   4.797   3.801   5.759
  246TIP3    H1  702   4.827   3.765   5.842
  246TIP3    H2  703   4.732   3.866   5.782
  247TIP3   OH2  704   5.205   1.661   2.619
  247TIP3    H1  705   5.125   1.678   2.669
  247TIP3    H2  706   5.242   1.747   2.603
  248TIP3   OH2  707   4.446   5.216   4.470
  248TIP3    H1  708   4.448   5.123   4.494
  248TIP3    H2  709   4.378   5.254   4.525
  249TIP3   OH2  710   1.822   2.278   5.790
  249TIP3    H1  711   1.860   2.270   5.877
  249TIP3    H2  712   1.853   2.201   5.743
  250TIP3   OH2  713   4.605   0.750   2.451
  250TIP3    H1  714   4.593   0.740   2.545
  250TIP3    H2  715   4.686   0.703   2.431
  251TIP3   OH2  716   5.912   5.425   1.758
  251TIP3    H1  717   5.950   5.405   1.844
  251TIP3    H2  718   5.926   5.519   1.748
  252TIP3   OH2  719   1.802   0.210   5.527
  252TIP3    H1  720   1.777   0.121   5.552
  252TIP3    H2  721   1.727   0.243   5.478
  253TIP3   OH2  722   2.999   2.687   1.787
  253TIP3    H1  723   3.085   2.647   1.785
  253TIP3    H2  724   3.011   2.769   1.835
  254TIP3   OH2  725   6.564   4.108   0.274
  254TIP3    H1  726   6.559   4.032   0.331
  254TIP3    H2  727   6.521   4.178   0.324
  255TIP3   OH2  728   3.786   4.077   0.774
  255TIP3    H1  729   3.798   3.983   0.784
  255TIP3    H2  730   3.717   4.086   0.709
  256TIP3   OH2  731   4.170   4.643   5.555
  256TIP3    H1  732   4.172   4.732   5.519
  256TIP3    H2  733   4.248   4.601   5.520
  257TIP3   OH2  734   1.643   5.069   0.026
  257TIP3    H1  735   1.649   5.158  -0.009
  257TIP3    H2  736   1.733   5.046   0.049
  258TIP3   OH2  737   5.291   3.606   4.959
  258TIP3    H1  738   5.350   3.662   5.008
  258TIP3    H2  739   5.216   3.662   4.939
  259TIP3   OH2  740   4.978   6.589   2.711
  259TIP3    H1  741   4.999   6.635   2.629
  259TIP3    H2  742   5.020   6.642   2.779
  260TIP3   OH2  743   1.640   3.963   0.525
  260TIP3    H1  744   1.653   3.910   0.603
  260TIP3    H2  745   1.570   4.024   0.548
  261TIP3   OH2  746   1.694   0.357   2.461
  261TIP3    H1  747   1.617   0.299   2.453
  261TIP3    H2  748   1.768   0.296   2.462
  262TIP3   OH2  749   2.718   3.331   5.823
  262TIP3    H1  750   2.683   3.420   5.827
  262TIP3    H2  751   2.803   3.337   5.866
  263TIP3   OH2  752   5.614   0.582   1.604
  263TIP3    H1  753   5.640   0.567   1.695
  263TIP3    H2  754   5.663   0.516   1.554
  264TIP3   OH2  755   2.730   6.382   4.087
  264TIP3    H1  756   2.746   6.383   3.993
  264TIP3    H2  757   2.704   6.471   4.108
  265TIP3   OH2  758   7.101   1.823   1.584
  265TIP3    H1  759   7.054   1.751   1.627
  265TIP3    H2  760   7.034   1.871   1.536
  266TIP3   OH2  761   0.498   1.151   1.319
  266TIP3    H1  762   0.570   1.215   1.320
  266TIP3    H2  763   0.423   1.199   1.354
  267TIP3   OH2  764   3.313   0.373   4.947
  267TIP3    H1  765   3.253   0.318   4.996
  267TIP3    H2  766   3.386   0.388   5.007
  268TIP3   OH2  767   5.566   3.456   2.244
  268TIP3    H1  768   5.517   3.426   2.320
  268TIP3    H2  769   5.557   3.385   2.180
  269TIP3   OH2  770   4.740   1.694   5.693
  269TIP3    H1  771   4.705   1.643   5.620
  269TIP3    H2  772   4.823   1.651   5.716
  270TIP3   OH2  773   4.144   2.803   2.192
  270TIP3    H1  774   4.185   2.852   2.262
  270TIP3    H2  775   4.138   2.865   2.119
  271TIP3   OH2  776   2.249   6.200   2.630
  271TIP3    H1  777   2.220   6.192   2.721
  271TIP3    H2  778   2.170   6.182   2.578
  272TIP3   OH2  779   2.833   6.129   4.667
  272TIP3    H1  780   2.773   6.075   4.616
  272TIP3    H2  781   2.916   6.080   4.666
  273TIP3   OH2  782   1.123   6.049   2.348
  273TIP3    H1  783   1.170   6.127   2.317
  273TIP3    H2  784   1.050   6.083   2.399
  274TIP3   OH2  785   3.601   0.804   4.216
  274TIP3    H1  786   3.666   0.870   4.192
  274TIP3    H2  787   3.540   0.804   4.142
  275TIP3   OH2  788   3.608   4.634   0.543
  275TIP3    H1  789   3.585   4.647   0.451
  275TIP3    H2  790   3.564   4.705   0.589
  276TIP3   OH2  791   0.385   2.760   4.599
  276TIP3    H1  792   0.333   2.829   4.640
  276TIP3    H2  793   0.351   2.679   4.638
  277TIP3   OH2  794   4.358   5.403   5.891
  277TIP3    H1  795   4.406   5.468   5.840
  277TIP3    H2  796   4.285   5.377   5.834
  278TIP3   OH2  797   3.177   5.955   3.358
  278TIP3    H1  798   3.086   5.985   3.358
  278TIP3    H2  799   3.172   5.861   3.375
  279TIP3   OH2  800   4.859   2.390   3.293
  279TIP3    H1  801   4.785   2.332   3.275
  279TIP3    H2  802   4.826   2.477   3.274
  280TIP3   OH2  803   2.010   0.562   5.008
  280TIP3    H1  804   1.944   0.577   5.076
  280TIP3    H2  805   2.042   0.474   5.024
  281TIP3   OH2  806   1.378   0.522   3.812
  281TIP3    H1  807   1.391   0.571   3.893
  281TIP3    H2  808   1.380   0.430   3.840
  282TIP3   OH2  809   4.571   4.278   3.099
  282TIP3    H1  810   4.659   4.279   3.062
  282TIP3    H2  811   4.560   4.190   3.134
  283TIP3   OH2  812   1.988   1.826   1.213
  283TIP3    H1  813   1.907   1.825   1.162
  283TIP3    H2  814   2.016   1.735   1.214
  284TIP3   OH2  815   0.727   3.747   5.080
  284TIP3    H1  816   0.634   3.727   5.091
  284TIP3    H2  817   0.736   3.837   5.112
  285TIP3   OH2  818   0.778   0.407   5.113
  285TIP3    H1  819   0.731   0.451   5.043
  285TIP3    H2  820   0.736   0.439   5.194
  286TIP3   OH2  821   5.506   0.098   4.065
  286TIP3    H1  822   5.528   0.005   4.057
  286TIP3    H2  823   5.489   0.111   4.158
  287TIP3   OH2  824   5.668   2.558   4.291
  287TIP3    H1  825   5.621   2.640   4.302
  287TIP3    H2  826   5.670   2.520   4.379
  288TIP3   OH2  827   5.129   3.174   1.889
  288TIP3    H1  828   5.192   3.236   1.854
  288TIP3    H2  829   5.051   3.226   1.908
  289TIP3   OH2  830   3.416   4.217   0.941
  289TIP3    H1  831   3.490   4.162   0.916
  289TIP3    H2  832   3.396   4.193   1.031
  290TIP3   OH2  833   1.636   6.102   1.622
  290TIP3    H1  834   1.694   6.173   1.594
  290TIP3    H2  835   1.661   6.085   1.712
  291TIP3   OH2  836   6.225   1.477   2.670
  291TIP3    H1  837   6.276   1.435   2.601
  291TIP3    H2  838   6.252   1.568   2.668
  292TIP3   OH2  839   5.775   1.641   4.205
  292TIP3    H1  840   5.775   1.599   4.291
  292TIP3    H2  841   5.783   1.734   4.223
  293TIP3   OH2  842   5.895   2.470   1.825
  293TIP3    H1  843   5.859   2.554   1.797
  293TIP3    H2  844   5.832   2.405   1.792
  294TIP3   OH2  845   0.146   2.332   3.446
  294TIP3    H1  846   0.222   2.369   3.492
  294TIP3    H2  847   0.180   2.310   3.359
  295TIP3   OH2  848   1.974   0.816   3.232
  295TIP3    H1  849   2.006   0.887   3.289
  295TIP3    H2  850   1.950   0.860   3.151
  296TIP3   OH2  851   4.550   4.540   1.500
  296TIP3    H1  852   4.631   4.495   1.479
  296TIP3    H2  853   4.492   4.520   1.427
  297TIP3   OH2  854   3.542   3.010   2.189
  297TIP3    H1  855   3.516   3.079   2.251
  297TIP3    H2  856   3.635   2.997   2.206
  298TIP3   OH2  857   6.350   3.062   2.307
  298TIP3    H1  858   6.299   3.107   2.239
  298TIP3    H2  859   6.289   3.000   2.345
  299TIP3   OH2  860   6.020   4.512   4.381
  299TIP3    H1  861   5.941   4.496   4.331
  299TIP3    H2  862   6.036   4.430   4.428
  300TIP3   OH2  863   0.710   6.262   4.188
  300TIP3    H1  864   0.798   6.231   4.165
  300TIP3    H2  865   0.701   6.346   4.142
  301TIP3   OH2  866   5.639   3.704   5.477
  301TIP3    H1  867   5.564   3.699   5.418
  301TIP3    H2  868   5.714   3.718   5.419
  302TIP3   OH2  869   3.254   3.568   3.298
  302TIP3    H1  870   3.294   3.608   3.221
  302TIP3    H2  871   3.320   3.508   3.331
  303TIP3   OH2  872   2.003   0.694   4.226
  303TIP3    H1  873   1.987   0.627   4.160
  303TIP3    H2  874   2.020   0.644   4.306
  304TIP3   OH2  875   0.738   2.601   4.952
  304TIP3    H1  876   0.647   2.584   4.977
  304TIP3    H2  877   0.737   2.598   4.856
  305TIP3   OH2  878   4.685   3.229   0.058
  305TIP3    H1  879   4.622   3.231   0.130
  305TIP3    H2  880   4.687   3.138   0.030
  306TIP3   OH2  881   3.102   1.028   4.596
  306TIP3    H1  882   3.191   1.022   4.631
  306TIP3    H2  883   3.046   1.000   4.668
  307TIP3   OH2  884   6.651   5.547   4.579
  307TIP3    H1  885   6.698   5.599   4.645
  307TIP3    H2  886   6.559   5.556   4.604
  308TIP3   OH2  887   0.676   3.151   0.110
  308TIP3    H1  888   0.629   3.234   0.109
  308TIP3    H2  889   0.700   3.138   0.202
  309TIP3   OH2  890   3.778   5.507   1.930
  309TIP3    H1  891   3.864   5.483   1.965
  309TIP3    H2  892   3.777   5.467   1.842
  310TIP3   OH2  893   0.237   0.882   2.863
  310TIP3    H1  894   0.309   0.943   2.847
  310TIP3    H2  895   0.203   0.861   2.775
  311TIP3   OH2  896   6.754   0.654   3.075
  311TIP3    H1  897   6.830   0.679   3.127
  311TIP3    H2  898   6.743   0.726   3.012
  312TIP3   OH2  899   3.729   6.055   2.832
  312TIP3    H1  900   3.800   5.994   2.811
  312TIP3    H2  901   3.654   6.022   2.782
  313TIP3   OH2  902   1.814   3.058   4.115
  313TIP3    H1  903   1.741   3.110   4.149
  313TIP3    H2  904   1.857   3.115   4.053
  314TIP3   OH2  905   2.701   0.938   4.598
  314TIP3    H1  906   2.633   0.878   4.628
  314TIP3    H2  907   2.769   0.880   4.563
  315TIP3   OH2  908   4.047   4.946   2.704
  315TIP3    H1  909   4.058   4.851   2.695
  315TIP3    H2  910   4.069   4.981   2.618
  316TIP3   OH2  911   6.067   0.555   4.018
  316TIP3    H1  912   6.101   0.643   4.032
  316TIP3    H2  913   5.972   0.562   4.029
  317TIP3   OH2  914   0.449   6.464   0.232
  317TIP3    H1  915   0.399   6.394   0.189
  317TIP3    H2  916   0.420   6.461   0.323
  318TIP3   OH2  917   1.885   0.774   4.648
  318TIP3    H1  918   1.928   0.804   4.567
  318TIP3    H2  919   1.948   0.713   4.687
  319TIP3   OH2  920   2.541   2.257   1.140
  319TIP3    H1  921   2.570   2.342   1.174
  319TIP3    H2  922   2.583   2.250   1.055
  320TIP3   OH2  923   0.471   2.725   1.103
  320TIP3    H1  924   0.542   2.672   1.067
  320TIP3    H2  925   0.495   2.737   1.196
  321TIP3   OH2  926   4.507   1.584   1.263
  321TIP3    H1  927   4.456   1.550   1.336
  321TIP3    H2  928   4.546   1.664   1.296
  322TIP3   OH2  929   2.649   3.087   4.530
  322TIP3    H1  930   2.706   3.162   4.510
  322TIP3    H2  931   2.571   3.102   4.475
  323TIP3   OH2  932   2.103   6.088   0.732
  323TIP3    H1  933   2.071   6.001   0.708
  323TIP3    H2  934   2.170   6.108   0.667
  324TIP3   OH2  935   0.691   1.588   4.587
  324TIP3    H1  936   0.778   1.628   4.586
  324TIP3    H2  937   0.662   1.592   4.496
  325TIP3   OH2  938   1.741   5.017   3.904
  325TIP3    H1  939   1.790   4.934   3.908
  325TIP3    H2  940   1.753   5.047   3.814
  326TIP3   OH2  941   6.209   6.183   0.320
  326TIP3    H1  942   6.153   6.230   0.383
  326TIP3    H2  943   6.160   6.102   0.302
  327TIP3   OH2  944   6.342   6.485   1.477
  327TIP3    H1  945   6.313   6.574   1.499
  327TIP3    H2  946   6.332   6.436   1.559
  328TIP3   OH2  947   3.580   4.005   4.115
  328TIP3    H1  948   3.564   3.933   4.176
  328TIP3    H2  949   3.672   4.028   4.127
  329TIP3   OH2  950   3.031   0.939   4.329
  329TIP3    H1  951   3.120   0.907   4.315
  329TIP3    H2  952   3.036   0.990   4.410
  330TIP3   OH2  953   3.831   2.308   3.068
  330TIP3    H1  954   3.892   2.242   3.101
  330TIP3    H2  955   3.760   2.258   3.029
  331TIP3   OH2  956   1.296   1.943   3.281
  331TIP3    H1  957   1.327   1.854   3.265
  331TIP3    H2  958   1.206   1.943   3.247
  332TIP3   OH2  959   5.141   1.068   5.487
  332TIP3    H1  960   5.091   0.999   5.530
  332TIP3    H2  961   5.074   1.123   5.445
  333TIP3   OH2  962   6.846   5.926   3.988
  333TIP3    H1  963   6.912   5.881   3.936
  333TIP3    H2  964   6.876   5.916   4.079
  334TIP3   OH2  965   4.952   4.927   2.637
  334TIP3    H1  966   4.999   5.003   2.604
  334TIP3    H2  967   5.003   4.852   2.605
  335TIP3   OH2  968   0.426   0.652   5.207
  335TIP3    H1  969   0.366   0.612   5.270
  335TIP3    H2  970   0.384   0.639   5.122
  336TIP3   OH2  971   1.555   4.198   5.178
  336TIP3    H1  972   1.566   4.166   5.268
  336TIP3    H2  973   1.525   4.288   5.188
  337TIP3   OH2  974   0.804   0.692   2.039
  337TIP3    H1  975   0.760   0.618   2.080
  337TIP3    H2  976   0.734   0.755   2.020
  338TIP3   OH2  977   1.146   4.653   0.922
  338TIP3    H1  978   1.241   4.661   0.935
  338TIP3    H2  979   1.130   4.694   0.838
  339TIP3   OH2  980   3.839   0.469   0.439
  339TIP3    H1  981   3.853   0.552   0.391
  339TIP3    H2  982   3.871   0.487   0.527
  340TIP3   OH2  983   2.694   0.013   5.525
  340TIP3    H1  984   2.687   0.102   5.559
  340TIP3    H2  985   2.779  -0.018   5.558
  341TIP3   OH2  986   1.668   0.329   1.496
  341TIP3    H1  987   1.659   0.245   1.538
  341TIP3    H2  988   1.593   0.335   1.436
  342TIP3   OH2  989   5.193   4.476   4.050
  342TIP3    H1  990   5.164   4.566   4.068
  342TIP3    H2  991   5.279   4.470   4.092
  343TIP3   OH2  992   2.691   4.206   4.798
  343TIP3    H1  993   2.774   4.222   4.842
  343TIP3    H2  994   2.708   4.226   4.706
  344TIP3   OH2  995   5.749   0.109   1.670
  344TIP3    H1  996   5.685   0.055   1.718
  344TIP3    H2  997   5.825   0.052   1.659
  345TIP3   OH2  998   3.135   3.979   4.720
  345TIP3    H1  999   3.230   3.970   4.721
  345TIP3    H2 1000   3.118   4.067   4.752
  346TIP3   OH2 1001   6.935   0.130   3.003
  346TIP3    H1 1002   6.995   0.106   2.932
  346TIP3    H2 1003   6.974   0.093   3.082
  347TIP3   OH2 1004   2.677   5.044   5.841
  347TIP3    H1 1005   2.755   5.017   5.888
  347TIP3    H2 1006   2.608   5.044   5.907
  348TIP3   OH2 1007   5.227   5.876   0.550
  348TIP3    H1 1008   5.183   5.846   0.630
  348TIP3    H2 1009   5.320   5.860   0.566
  349TIP3   OH2 1010   5.542   4.936   1.792
  349TIP3    H1 1011   5.557   4.842   1.777
  349TIP3    H2 1012   5.552   4.947   1.886
  350TIP3   OH2 1013   2.476   3.522   5.123
  350TIP3    H1 1014   2.532   3.597   5.103
  350TIP3    H2 1015   2.394   3.560   5.153
  351TIP3   OH2 1016   5.723   2.248   5.314
  351TIP3    H1 1017   5.671   2.328   5.303
  351TIP3    H2 1018   5.685   2.205   5.390
  352TIP3   OH2 1019   4.369   6.301   3.975
  352TIP3    H1 1020   4.305   6.231   3.962
  352TIP3    H2 1021   4.392   6.330   3.887
  353TIP3   OH2 1022   5.531   3.049   0.970
  353TIP3    H1 1023   5.557   3.127   0.921
  353TIP3    H2 1024   5.535   2.977   0.907
  354TIP3   OH2 1025   4.986   1.514   0.020
  354TIP3    H1 1026   5.049   1.464   0.071
  354TIP3    H2 1027   4.980   1.467  -0.064
  355TIP3   OH2 1028   6.877   0.587   4.756
  355TIP3    H1 1029   6.917   0.507   4.721
  355TIP3    H2 1030   6.907   0.592   4.847
  356TIP3   OH2 1031   3.335   0.901   1.777
  356TIP3    H1 1032   3.293   0.894   1.691
  356TIP3    H2 1033   3.417   0.854   1.768
  357TIP3   OH2 1034   7.113   3.040   4.086
  357TIP3    H1 1035   7.053   3.082   4.024
  357TIP3    H2 1036   7.102   3.090   4.167
  358TIP3   OH2 1037   5.617   1.831   4.433
  358TIP3    H1 1038   5.679   1.873   4.374
  358TIP3    H2 1039   5.643   1.862   4.520
  359TIP3   OH2 1040   2.270   5.917   1.717
  359TIP3    H1 1041   2.309   5.833   1.741
  359TIP3    H2 1042   2.244   5.956   1.800
  360TIP3   OH2 1043   1.847   1.203   3.096
  360TIP3    H1 1044   1.905   1.236   3.165
  360TIP3    H2 1045   1.779   1.270   3.088
  361TIP3   OH2 1046   4.213   3.898   2.519
  361TIP3    H1 1047   4.185   3.989   2.532
  361TIP3    H2 1048   4.306   3.904   2.499
  362TIP3   OH2 1049   6.454   6.635   2.920
  362TIP3    H1 1050   6.479   6.672   2.835
  362TIP3    H2 1051   6.516   6.673   2.982
  363TIP3   OH2 1052   3.931   3.741   5.067
  363TIP3    H1 1053   3.989   3.674   5.103
  363TIP3    H2 1054   3.896   3.702   4.987
  364TIP3   OH2 1055   1.965   3.024   5.484
  364TIP3    H1 1056   1.923   3.083   5.547
  364TIP3    H2 1057   1.896   3.006   5.419
  365TIP3   OH2 1058   2.831   3.805   0.261
  365TIP3    H1 1059   2.749   3.834   0.221
  365TIP3    H2 1060   2.827   3.709   0.259
  366TIP3   OH2 1061   5.369   3.677   2.705
  366TIP3    H1 1062   5.372   3.662   2.610
  366TIP3    H2 1063   5.429   3.750   2.720
  367TIP3   OH2 1064   4.053   5.419   4.972
  367TIP3    H1 1065   3.992   5.479   4.928
  367TIP3    H2 1066   4.059   5.453   5.062
  368TIP3   OH2 1067   6.872   5.758   4.207
  368TIP3    H1 1068   6.917   5.694   4.152
  368TIP3    H2 1069   6.796   5.711   4.240
  369TIP3   OH2 1070   4.310   0.719   3.010
  369TIP3    H1 1071   4.282   0.719   3.102
  369TIP3    H2 1072   4.255   0.785   2.968
  370TIP3   OH2 1073   5.710   0.823   5.044
  370TIP3    H1 1074   5.696   0.769   5.122
  370TIP3    H2 1075   5.780   0.779   4.996
  371TIP3   OH2 1076   0.442   3.135   1.137
  371TIP3    H1 1077   0.529   3.173   1.129
  371TIP3    H2 1078   0.383   3.210   1.147
  372TIP3   OH2 1079   1.241   4.609   0.667
  372TIP3    H1 1080   1.240   4.626   0.573
  372TIP3    H2 1081   1.209   4.520   0.676
  373TIP3   OH2 1082   2.629   1.122   3.505
  373TIP3    H1 1083   2.700   1.175   3.469
  373TIP3    H2 1084   2.573   1.103   3.430
  374TIP3   OH2 1085   6.562   5.248   4.686
  374TIP3    H1 1086   6.474   5.286   4.688
  374TIP3    H2 1087   6.618   5.315   4.724
  375TIP3   OH2 1088   6.053   0.189   2.393
  375TIP3    H1 1089   6.126   0.196   2.333
  375TIP3    H2 1090   5.995   0.124   2.353
  376TIP3   OH2 1091   0.344   5.615   5.875
  376TIP3    H1 1092   0.387   5.583   5.795
  376TIP3    H2 1093   0.415   5.651   5.928
  377TIP3   OH2 1094   3.076   1.796   3.055
  377TIP3    H1 1095   3.006   1.792   2.990
  377TIP3    H2 1096   3.091   1.705   3.081
  378TIP3   OH2 1097   0.747   3.905   3.885
  378TIP3    H1 1098   0.812   3.911   3.955
  378TIP3    H2 1099   0.666   3.882   3.930
  379TIP3   OH2 1100   5.000   3.411   5.636
  379TIP3    H1 1101   5.034   3.353   5.568
  379TIP3    H2 1102   4.927   3.457   5.595
  380TIP3   OH2 1103   6.017   2.876   2.229
  380TIP3    H1 1104   6.006   2.801   2.287
  380TIP3    H2 1105   6.058   2.943   2.283
  381TIP3   OH2 1106   2.594   3.332   3.072
  381TIP3    H1 1107   2.653   3.319   2.998
  381TIP3    H2 1108   2.550   3.416   3.052
  382TIP3   OH2 1109   5.521   3.120   4.483
  382TIP3    H1 1110   5.566   3.052   4.534
  382TIP3    H2 1111   5.453   3.072   4.436
  383TIP3   OH2 1112   6.265   3.945   0.606
  383TIP3    H1 1113   6.241   4.011   0.671
  383TIP3    H2 1114   6.232   3.981   0.523
  384TIP3   OH2 1115   3.370   6.806   2.503
  384TIP3    H1 1116   3.394   6.713   2.496
  384TIP3    H2 1117   3.449   6.852   2.475
  385TIP3   OH2 1118   2.446   0.712   1.051
  385TIP3    H1 1119   2.486   0.796   1.076
  385TIP3    H2 1120   2.488   0.648   1.108
  386TIP3   OH2 1121   4.053   1.733   0.219
  386TIP3    H1 1122   4.146   1.717   0.204
  386TIP3    H2 1123   4.049   1.821   0.256
  387TIP3   OH2 1124   6.712   5.291   2.719
  387TIP3    H1 1125   6.686   5.208   2.758
  387TIP3    H2 1126   6.630   5.332   2.691
  388TIP3   OH2 1127   3.481   4.771   3.046
  388TIP3    H1 1128   3.393   4.735   3.032
  388TIP3    H2 1129   3.479   4.805   3.136
  389TIP3   OH2 1130   0.286   4.274   2.082
  389TIP3    H1 1131   0.311   4.219   2.157
  389TIP3    H2 1132   0.286   4.363   2.116
  390TIP3   OH2 1133   4.733   5.791   3.007
  390TIP3    H1 1134   4.814   5.757   3.044
  390TIP3    H2 1135   4.670   5.720   3.015
  391TIP3   OH2 1136   1.921   2.975   1.303
  391TIP3    H1 1137   2.000   2.976   1.357
  391TIP3    H2 1138   1.954   2.961   1.214
  392TIP3   OH2 1139   0.880   4.691   3.421
  392TIP3    H1 1140   0.871   4.738   3.505
  392TIP3    H2 1141   0.940   4.620   3.440
  393TIP3   OH2 1142   3.259   5.158   5.311
  393TIP3    H1 1143   3.346   5.121   5.326
  393TIP3    H2 1144   3.274   5.227   5.246
  394TIP3   OH2 1145   4.766   1.125   5.578
  394TIP3    H1 1146   4.826   1.161   5.643
  394TIP3    H2 1147   4.710   1.065   5.628
  395TIP3   OH2 1148   6.288   5.374   2.075
  395TIP3    H1 1149   6.276   5.312   2.002
  395TIP3    H2 1150   6.382   5.370   2.095
  396TIP3   OH2 1151   0.545   6.025   4.202
  396TIP3    H1 1152   0.517   6.102   4.153
  396TIP3    H2 1153   0.627   5.998   4.159
  397TIP3   OH2 1154   1.137   2.113   1.707
  397TIP3    H1 1155   1.108   2.201   1.682
  397TIP3    H2 1156   1.129   2.111   1.803
  398TIP3   OH2 1157   2.766   5.292   0.462
  398TIP3    H1 1158   2.838   5.248   0.417
  398TIP3    H2 1159   2.725   5.346   0.394
  399TIP3   OH2 1160   2.543   6.293   1.109
  399TIP3    H1 1161   2.499   6.257   1.186
  399TIP3    H2 1162   2.554   6.386   1.129
  400TIP3   OH2 1163   6.863   5.327   0.822
  400TIP3    H1 1164   6.906   5.360   0.901
  400TIP3    H2 1165   6.912   5.365   0.750
  401TIP3   OH2 1166   0.904   4.718   1.046
  401TIP3    H1 1167   0.990   4.685   1.020
  401TIP3    H2 1168   0.924   4.803   1.086
  402TIP3   OH2 1169   3.647   2.598   1.542
  402TIP3    H1 1170   3.623   2.637   1.458
  402TIP3    H2 1171   3.722   2.648   1.572
  403TIP3   OH2 1172   1.349   3.108   0.430
  403TIP3    H1 1173   1.347   3.082   0.338
  403TIP3    H2 1174   1.344   3.025   0.478
  404TIP3   OH2 1175   0.812   2.980   3.737
  404TIP3    H1 1176   0.771   3.066   3.727
  404TIP3    H2 1177   0.849   2.961   3.651
  405TIP3   OH2 1178   1.917   1.806   3.214
  405TIP3    H1 1179   1.948   1.869   3.280
  405TIP3    H2 1180   1.921   1.854   3.132
  406TIP3   OH2 1181   0.481   2.498   4.933
  406TIP3    H1 1182   0.488   2.402   4.931
  406TIP3    H2 1183   0.524   2.527   4.852
  407TIP3   OH2 1184   5.423   1.776   2.274
  407TIP3    H1 1185   5.372   1.850   2.307
  407TIP3    H2 1186   5.500   1.773   2.330
  408TIP3   OH2 1187   1.123   4.265   2.818
  408TIP3    H1 1188   1.162   4.244   2.733
  408TIP3    H2 1189   1.049   4.321   2.796
  409TIP3   OH2 1190   5.233   2.951   5.226
  409TIP3    H1 1191   5.289   2.874   5.220
  409TIP3    H2 1192   5.293   3.025   5.222
  410TIP3   OH2 1193   6.736   2.796   0.063
  410TIP3    H1 1194   6.666   2.842   0.109
  410TIP3    H2 1195   6.810   2.798   0.123
  411TIP3   OH2 1196   2.950   4.988   0.879
  411TIP3    H1 1197   3.044   5.001   0.871
  411TIP3    H2 1198   2.935   4.899   0.848
  412TIP3   OH2 1199   3.611   0.457   1.139
  412TIP3    H1 1200   3.688   0.423   1.184
  412TIP3    H2 1201   3.626   0.552   1.135
  413TIP3   OH2 1202   3.288   3.444   2.252
  413TIP3    H1 1203   3.274   3.467   2.160
  413TIP3    H2 1204   3.242   3.512   2.301
  414TIP3   OH2 1205   3.435   0.127   2.245
  414TIP3    H1 1206   3.371   0.187   2.283
  414TIP3    H2 1207   3.519   0.154   2.283
  415TIP3   OH2 1208   4.116   2.930   5.863
  415TIP3    H1 1209   4.067   2.850   5.882
  415TIP3    H2 1210   4.195   2.899   5.818
  416TIP3   OH2 1211   5.208   2.532   1.277
  416TIP3    H1 1212   5.151   2.470   1.231
  416TIP3    H2 1213   5.162   2.552   1.358
  417TIP3   OH2 1214   2.374   5.488   1.254
  417TIP3    H1 1215   2.410   5.516   1.170
  417TIP3    H2 1216   2.303   5.428   1.231
  418TIP3   OH2 1217   6.511   3.066   4.387
  418TIP3    H1 1218   6.588   3.012   4.400
  418TIP3    H2 1219   6.441   3.020   4.433
  419TIP3   OH2 1220   5.463   5.445   0.872
  419TIP3    H1 1221   5.427   5.376   0.816
  419TIP3    H2 1222   5.386   5.483   0.915
  420TIP3   OH2 1223   5.000   2.197   4.276
  420TIP3    H1 1224   4.933   2.233   4.219
  420TIP3    H2 1225   5.062   2.155   4.216
  421TIP3   OH2 1226   2.439   2.185   3.252
  421TIP3    H1 1227   2.475   2.273   3.250
  421TIP3    H2 1228   2.354   2.194   3.296
  422TIP3   OH2 1229   5.239   2.800   5.730
  422TIP3    H1 1230   5.215   2.789   5.822
  422TIP3    H2 1231   5.203   2.886   5.706
  423TIP3   OH2 1232   7.098   0.843   1.375
  423TIP3    H1 1233   7.081   0.819   1.466
  423TIP3    H2 1234   7.100   0.938   1.374
  424TIP3   OH2 1235   6.100   4.005   2.386
  424TIP3    H1 1236   6.107   3.913   2.410
  424TIP3    H2 1237   6.172   4.047   2.433
  425TIP3   OH2 1238   0.730   3.699   3.322
  425TIP3    H1 1239   0.773   3.739   3.397
  425TIP3    H2 1240   0.749   3.758   3.249
  426TIP3   OH2 1241   3.483   0.019   4.353
  426TIP3    H1 1242   3.494  -0.042   4.426
  426TIP3    H2 1243   3.405   0.070   4.376
  427TIP3   OH2 1244   0.276   0.815   0.687
  427TIP3    H1 1245   0.200   0.775   0.730
  427TIP3    H2 1246   0.334   0.740   0.668
  428TIP3   OH2 1247   1.626   6.068   2.211
  428TIP3    H1 1248   1.676   6.007   2.265
  428TIP3    H2 1249   1.539   6.029   2.204
  429TIP3   OH2 1250   6.206   2.439   2.135
  429TIP3    H1 1251   6.188   2.510   2.197
  429TIP3    H2 1252   6.136   2.375   2.151
  430TIP3   OH2 1253   4.324   0.057   4.085
  430TIP3    H1 1254   4.304   0.029   3.996
  430TIP3    H2 1255   4.416   0.033   4.098
  431TIP3   OH2 1256   0.902   4.052   1.593
  431TIP3    H1 1257   0.984   4.009   1.569
  431TIP3    H2 1258   0.912   4.142   1.562
  432TIP3   OH2 1259   0.456   2.113   2.195
  432TIP3    H1 1260   0.523   2.060   2.151
  432TIP3    H2 1261   0.467   2.201   2.159
  433TIP3   OH2 1262   3.925   0.235   0.527
  433TIP3    H1 1263   3.875   0.292   0.469
  433TIP3    H2 1264   3.989   0.192   0.470
  434TIP3   OH2 1265   5.084   6.722   4.436
  434TIP3    H1 1266   5.069   6.638   4.479
  434TIP3    H2 1267   5.142   6.701   4.363
  435TIP3   OH2 1268   2.869   4.138   5.291
  435TIP3    H1 1269   2.944   4.078   5.286
  435TIP3    H2 1270   2.896   4.205   5.354
  436TIP3   OH2 1271   5.008   3.855   0.515
  436TIP3    H1 1272   4.921   3.893   0.529
  436TIP3    H2 1273   4.994   3.787   0.450
  437TIP3   OH2 1274   2.710   2.070   2.773
  437TIP3    H1 1275   2.629   2.023   2.790
  437TIP3    H2 1276   2.684   2.143   2.717
  438TIP3   OH2 1277   2.908   0.337   1.123
  438TIP3    H1 1278   2.986   0.322   1.177
  438TIP3    H2 1279   2.926   0.289   1.042
  439TIP3   OH2 1280   0.544   5.407   5.106
  439TIP3    H1 1281   0.549   5.455   5.023
  439TIP3    H2 1282   0.554   5.315   5.082
  440TIP3   OH2 1283   6.642   5.632   4.262
  440TIP3    H1 1284   6.620   5.606   4.351
  440TIP3    H2 1285   6.568   5.686   4.234
  441TIP3   OH2 1286   4.537   3.238   4.704
  441TIP3    H1 1287   4.519   3.298   4.777
  441TIP3    H2 1288   4.627   3.210   4.718
  442TIP3   OH2 1289   0.945   6.225   4.475
  442TIP3    H1 1290   0.927   6.309   4.433
  442TIP3    H2 1291   1.017   6.187   4.425
  443TIP3   OH2 1292   4.770   3.874   3.890
  443TIP3    H1 1293   4.748   3.810   3.822
  443TIP3    H2 1294   4.838   3.929   3.851
  444TIP3   OH2 1295   6.557   0.878   3.271
  444TIP3    H1 1296   6.468   0.868   3.237
  444TIP3    H2 1297   6.601   0.933   3.206
  445TIP3   OH2 1298   5.068   4.240   4.318
  445TIP3    H1 1299   4.989   4.187   4.328
  445TIP3    H2 1300   5.039   4.319   4.272
  446TIP3   OH2 1301   6.406   2.270   4.530
  446TIP3    H1 1302   6.381   2.225   4.450
  446TIP3    H2 1303   6.501   2.256   4.537
  447TIP3   OH2 1304   5.115   2.626   4.777
  447TIP3    H1 1305   5.153   2.667   4.700
  447TIP3    H2 1306   5.024   2.657   4.778
  448TIP3   OH2 1307   4.654   5.432   2.351
  448TIP3    H1 1308   4.659   5.498   2.420
  448TIP3    H2 1309   4.717   5.365   2.378
  449TIP3   OH2 1310   6.800   6.766   5.749
  449TIP3    H1 1311   6.862   6.838   5.742
  449TIP3    H2 1312   6.833   6.700   5.689
  450TIP3   OH2 1313   6.657   3.944   3.091
  450TIP3    H1 1314   6.682   4.036   3.101
  450TIP3    H2 1315   6.740   3.896   3.086
  451TIP3   OH2 1316   3.720   0.746   1.199
  451TIP3    H1 1317   3.657   0.804   1.242
  451TIP3    H2 1318   3.746   0.684   1.267
  452TIP3   OH2 1319   2.988   0.956   3.449
  452TIP3    H1 1320   3.030   0.974   3.534
  452TIP3    H2 1321   2.896   0.940   3.471
  453TIP3   OH2 1322   4.275   0.322   2.746
  453TIP3    H1 1323   4.321   0.239   2.735
  453TIP3    H2 1324   4.215   0.327   2.672
  454TIP3   OH2 1325   2.886   5.105   2.807
  454TIP3    H1 1326   2.792   5.112   2.791
  454TIP3    H2 1327   2.897   5.020   2.849
  455TIP3   OH2 1328   2.597   5.270   5.516
  455TIP3    H1 1329   2.605   5.283   5.611
  455TIP3    H2 1330   2.614   5.177   5.504
  456TIP3   OH2 1331   5.166   0.943   3.905
  456TIP3    H1 1332   5.125   0.967   3.822
  456TIP3    H2 1333   5.093   0.913   3.959
  457TIP3   OH2 1334   1.317   4.367   0.181
  457TIP3    H1 1335   1.307   4.278   0.146
  457TIP3    H2 1336   1.293   4.424   0.108
  458TIP3   OH2 1337   3.435   3.830   0.764
  458TIP3    H1 1338   3.351   3.869   0.789
  458TIP3    H2 1339   3.455   3.870   0.679
  459TIP3   OH2 1340   0.427   0.503   1.533
  459TIP3    H1 1341   0.367   0.541   1.468
  459TIP3    H2 1342   0.373   0.489   1.611
  460TIP3   OH2 1343   2.711   4.868   3.954
  460TIP3    H1 1344   2.785   4.888   4.012
  460TIP3    H2 1345   2.666   4.795   3.997
  461TIP3   OH2 1346   5.286   5.336   5.746
  461TIP3    H1 1347   5.382   5.333   5.740
  461TIP3    H2 1348   5.268   5.380   5.829
  462TIP3   OH2 1349   6.129   1.144   5.855
  462TIP3    H1 1350   6.210   1.191   5.833
  462TIP3    H2 1351   6.130   1.067   5.798
  463TIP3   OH2 1352   5.603   2.944   2.903
  463TIP3    H1 1353   5.617   2.856   2.938
  463TIP3    H2 1354   5.524   2.936   2.849
  464TIP3   OH2 1355   2.654   5.668   2.911
  464TIP3    H1 1356   2.597   5.742   2.932
  464TIP3    H2 1357   2.725   5.705   2.858
  465TIP3   OH2 1358   5.227   5.589   4.052
  465TIP3    H1 1359   5.312   5.626   4.076
  465TIP3    H2 1360   5.249   5.505   4.012
  466TIP3   OH2 1361   5.005   0.576   4.108
  466TIP3    H1 1362   5.059   0.499   4.089
  466TIP3    H2 1363   5.008   0.628   4.027
  467TIP3   OH2 1364   3.473   4.885   5.751
  467TIP3    H1 1365   3.422   4.862   5.673
  467TIP3    H2 1366   3.444   4.973   5.775
  468TIP3   OH2 1367   2.486   1.637   3.472
  468TIP3    H1 1368   2.552   1.622   3.404
  468TIP3    H2 1369   2.536   1.657   3.551
  469TIP3   OH2 1370   5.640   6.429   5.553
  469TIP3    H1 1371   5.665   6.517   5.525
  469TIP3    H2 1372   5.696   6.411   5.629
  470TIP3   OH2 1373   1.428   6.732   2.881
  470TIP3    H1 1374   1.388   6.645   2.886
  470TIP3    H2 1375   1.459   6.749   2.969
  471TIP3   OH2 1376   6.484   1.286   3.110
  471TIP3    H1 1377   6.540   1.212   3.135
  471TIP3    H2 1378   6.543   1.346   3.065
  472TIP3   OH2 1379   5.920   6.798   5.721
  472TIP3    H1 1380   5.929   6.707   5.693
  472TIP3    H2 1381   6.009   6.828   5.736
  473TIP3   OH2 1382   7.065   0.239   0.161
  473TIP3    H1 1383   7.138   0.185   0.189
  473TIP3    H2 1384   7.017   0.259   0.241
  474TIP3   OH2 1385   6.215   4.449   4.621
  474TIP3    H1 1386   6.124   4.423   4.613
  474TIP3    H2 1387   6.226   4.521   4.559
  475TIP3   OH2 1388   0.222   6.413   5.671
  475TIP3    H1 1389   0.188   6.493   5.629
  475TIP3    H2 1390   0.289   6.382   5.611
  476TIP3   OH2 1391   0.473   1.285   4.432
  476TIP3    H1 1392   0.533   1.331   4.373
  476TIP3    H2 1393   0.449   1.206   4.385
  477TIP3   OH2 1394   5.285   3.979   2.596
  477TIP3    H1 1395   5.378   3.971   2.620
  477TIP3    H2 1396   5.239   3.927   2.662
  478TIP3   OH2 1397   0.764   6.783   2.479
  478TIP3    H1 1398   0.728   6.856   2.529
  478TIP3    H2 1399   0.740   6.802   2.388
  479TIP3   OH2 1400   1.279   6.390   3.471
  479TIP3    H1 1401   1.349   6.347   3.521
  479TIP3    H2 1402   1.212   6.410   3.536
  480TIP3   OH2 1403   2.133   1.005   2.055
  480TIP3    H1 1404   2.222   0.985   2.024
  480TIP3    H2 1405   2.135   1.097   2.078
  481TIP3   OH2 1406   3.018   0.816   1.781
  481TIP3    H1 1407   3.032   0.898   1.828
  481TIP3    H2 1408   3.101   0.799   1.737
  482TIP3   OH2 1409   0.502   3.378   2.668
  482TIP3    H1 1410   0.495   3.294   2.626
  482TIP3    H2 1411   0.570   3.367   2.735
  483TIP3   OH2 1412   5.431   6.535   4.439
  483TIP3    H1 1413   5.380   6.557   4.517
  483TIP3    H2 1414   5.520   6.565   4.460
  484TIP3   OH2 1415   6.940   2.955   1.759
  484TIP3    H1 1416   7.004   2.931   1.825
  484TIP3    H2 1417   6.978   3.031   1.715
  485TIP3   OH2 1418   7.201   0.215   0.564
  485TIP3    H1 1419   7.263   0.286   0.572
  485TIP3    H2 1420   7.221   0.175   0.479
  486TIP3   OH2 1421   6.414   3.075   0.887
  486TIP3    H1 1422   6.427   3.135   0.814
  486TIP3    H2 1423   6.320   3.080   0.905
  487TIP3   OH2 1424   0.684   6.161   0.661
  487TIP3    H1 1425   0.732   6.236   0.695
  487TIP3    H2 1426   0.594   6.191   0.653
  488TIP3   OH2 1427   3.419   3.071   3.663
  488TIP3    H1 1428   3.342   3.121   3.690
  488TIP3    H2 1429   3.488   3.137   3.654
  489TIP3   OH2 1430   6.474   1.928   5.828
  489TIP3    H1 1431   6.468   1.915   5.734
  489TIP3    H2 1432   6.465   2.022   5.840
  490TIP3   OH2 1433   4.019   6.663   0.379
  490TIP3    H1 1434   4.027   6.673   0.284
  490TIP3    H2 1435   4.026   6.568   0.394
  491TIP3   OH2 1436   1.012   0.617   2.886
  491TIP3    H1 1437   1.064   0.641   2.963
  491TIP3    H2 1438   0.959   0.543   2.915
  492TIP3   OH2 1439   2.666   4.767   1.816
  492TIP3    H1 1440   2.670   4.860   1.796
  492TIP3    H2 1441   2.754   4.734   1.797
  493TIP3   OH2 1442   2.156   2.035   5.471
  493TIP3    H1 1443   2.222   2.038   5.540
  493TIP3    H2 1444   2.202   2.061   5.392
  494TIP3   OH2 1445   3.150   1.991   1.720
  494TIP3    H1 1446   3.208   2.014   1.647
  494TIP3    H2 1447   3.081   1.938   1.680
  495TIP3   OH2 1448   1.468   1.305   2.724
  495TIP3    H1 1449   1.472   1.277   2.633
  495TIP3    H2 1450   1.516   1.388   2.726
  496TIP3   OH2 1451   5.956   4.669   3.224
  496TIP3    H1 1452   5.938   4.753   3.266
  496TIP3    H2 1453   5.869   4.633   3.205
  497TIP3   OH2 1454   5.671   4.527   3.763
  497TIP3    H1 1455   5.767   4.537   3.768
  497TIP3    H2 1456   5.647   4.570   3.681
  498TIP3   OH2 1457   5.013   6.726   2.959
  498TIP3    H1 1458   4.958   6.765   3.028
  498TIP3    H2 1459   5.039   6.641   2.994
  499TIP3   OH2 1460   1.684   6.465   5.652
  499TIP3    H1 1461   1.690   6.561   5.648
  499TIP3    H2 1462   1.760   6.439   5.704
  500TIP3   OH2 1463   1.764   2.157   5.066
  500TIP3    H1 1464   1.815   2.214   5.008
  500TIP3    H2 1465   1.673   2.171   5.038
  501TIP3   OH2 1466   3.186   1.779   5.779
  501TIP3    H1 1467   3.150   1.866   5.795
  501TIP3    H2 1468   3.112   1.720   5.786
  502TIP3   OH2 1469   1.428   6.535   4.322
  502TIP3    H1 1470   1.366   6.557   4.390
  502TIP3    H2 1471   1.444   6.441   4.333
  503TIP3   OH2 1472   2.578   2.923   2.347
  503TIP3    H1 1473   2.496   2.957   2.382
  503TIP3    H2 1474   2.570   2.934   2.252
  504TIP3   OH2 1475   7.081   0.386   5.832
  504TIP3    H1 1476   7.075   0.480   5.815
  504TIP3    H2 1477   6.995   0.363   5.869
  505TIP3   OH2 1478   5.892   6.658   1.674
  505TIP3    H1 1479   5.955   6.664   1.602
  505TIP3    H2 1480   5.863   6.748   1.687
  506TIP3   OH2 1481   1.643   2.427   3.006
  506TIP3    H1 1482   1.663   2.520   3.002
  506TIP3    H2 1483   1.671   2.391   2.922
  507TIP3   OH2 1484   2.854   0.173   4.232
  507TIP3    H1 1485   2.789   0.104   4.218
  507TIP3    H2 1486   2.937   0.134   4.205
  508TIP3   OH2 1487   0.347   0.303   2.237
  508TIP3    H1 1488   0.323   0.373   2.176
  508TIP3    H2 1489   0.389   0.347   2.310
  509TIP3   OH2 1490   2.903   5.908   1.313
  509TIP3    H1 1491   2.963   5.925   1.386
  509TIP3    H2 1492   2.959   5.879   1.241
  510TIP3   OH2 1493   3.892   4.452   4.550
  510TIP3    H1 1494   3.892   4.482   4.459
  510TIP3    H2 1495   3.985   4.445   4.572
  511TIP3   OH2 1496   4.117   1.947   2.171
  511TIP3    H1 1497   4.161   1.868   2.203
  511TIP3    H2 1498   4.149   2.017   2.227
  512TIP3   OH2 1499   2.764   2.527   0.457
  512TIP3    H1 1500   2.788   2.467   0.527
  512TIP3    H2 1501   2.668   2.533   0.462
  513TIP3   OH2 1502   5.666   0.845   4.033
  513TIP3    H1 1503   5.576   0.817   4.020
  513TIP3    H2 1504   5.661   0.941   4.037
  514TIP3   OH2 1505   6.146   3.353   4.501
  514TIP3    H1 1506   6.180   3.363   4.590
  514TIP3    H2 1507   6.212   3.299   4.457
  515TIP3   OH2 1508   1.051   1.340   2.267
  515TIP3    H1 1509   1.078   1.280   2.198
  515TIP3    H2 1510   1.015   1.416   2.221
  516TIP3   OH2 1511   1.198   6.362   1.754
  516TIP3    H1 1512   1.263   6.376   1.686
  516TIP3    H2 1513   1.199   6.443   1.805
  517TIP3   OH2 1514   5.984   1.032   5.514
  517TIP3    H1 1515   5.984   1.120   5.549
  517TIP3    H2 1516   5.972   1.044   5.419
  518TIP3   OH2 1517   7.135   4.792   2.078
  518TIP3    H1 1518   7.085   4.843   2.015
  518TIP3    H2 1519   7.099   4.816   2.163
  519TIP3   OH2 1520   3.874   1.644   3.889
  519TIP3    H1 1521   3.926   1.690   3.955
  519TIP3    H2 1522   3.813   1.709   3.856
  520TIP3   OH2 1523   6.088   6.152   5.305
  520TIP3    H1 1524   6.045   6.196   5.232
  520TIP3    H2 1525   6.123   6.223   5.359
  521TIP3   OH2 1526   0.558   2.717   3.017
  521TIP3    H1 1527   0.523   2.766   3.091
  521TIP3    H2 1528   0.603   2.782   2.964
  522TIP3   OH2 1529   6.161   1.124   2.395
  522TIP3    H1 1530   6.073   1.104   2.365
  522TIP3    H2 1531   6.175   1.066   2.470
  523TIP3   OH2 1532   0.342   6.699   1.527
  523TIP3    H1 1533   0.329   6.664   1.440
  523TIP3    H2 1534   0.424   6.749   1.521
  524TIP3   OH2 1535   4.594   6.045   0.111
  524TIP3    H1 1536   4.667   6.049   0.173
  524TIP3    H2 1537   4.624   5.986   0.043
  525TIP3   OH2 1538   0.154   1.956   5.425
  525TIP3    H1 1539   0.183   2.036   5.381
  525TIP3    H2 1540   0.061   1.949   5.405
  526TIP3   OH2 1541   3.650   1.382   4.629
  526TIP3    H1 1542   3.701   1.423   4.558
  526TIP3    H2 1543   3.639   1.452   4.694
  527TIP3   OH2 1544   1.788   3.580   2.136
  527TIP3    H1 1545   1.702   3.591   2.176
  527TIP3    H2 1546   1.781   3.622   2.051
  528TIP3   OH2 1547   4.162   3.752   2.288
  528TIP3    H1 1548   4.118   3.833   2.263
  528TIP3    H2 1549   4.188   3.765   2.379
  529TIP3   OH2 1550   5.008   3.867   4.646
  529TIP3    H1 1551   5.076   3.904   4.589
  529TIP3    H2 1552   4.935   3.849   4.587
  530TIP3   OH2 1553   4.222   5.357   4.562
  530TIP3    H1 1554   4.194   5.365   4.471
  530TIP3    H2 1555   4.160   5.412   4.611
  531TIP3   OH2 1556   2.325   2.615   0.887
  531TIP3    H1 1557   2.402   2.637   0.834
  531TIP3    H2 1558   2.273   2.556   0.832
  532TIP3   OH2 1559   3.874   3.666   5.546
  532TIP3    H1 1560   3.807   3.660   5.477
  532TIP3    H2 1561   3.957   3.670   5.499
  533TIP3   OH2 1562   3.464   0.831   0.970
  533TIP3    H1 1563   3.452   0.908   0.914
  533TIP3    H2 1564   3.509   0.865   1.047
  534TIP3   OH2 1565   4.439   0.377   5.051
  534TIP3    H1 1566   4.424   0.469   5.072
  534TIP3    H2 1567   4.406   0.367   4.961
  535TIP3   OH2 1568   4.272   5.806   2.591
  535TIP3    H1 1569   4.317   5.750   2.655
  535TIP3    H2 1570   4.343   5.855   2.549
  536TIP3   OH2 1571   4.510   5.770   1.432
  536TIP3    H1 1572   4.590   5.782   1.380
  536TIP3    H2 1573   4.530   5.697   1.490
  537TIP3   OH2 1574   6.211   3.840   5.839
  537TIP3    H1 1575   6.302   3.864   5.825
  537TIP3    H2 1576   6.215   3.764   5.898
  538TIP3   OH2 1577   2.749   6.391   1.966
  538TIP3    H1 1578   2.809   6.335   2.016
  538TIP3    H2 1579   2.693   6.331   1.918
  539TIP3   OH2 1580   4.858   1.072   2.283
  539TIP3    H1 1581   4.835   1.164   2.301
  539TIP3    H2 1582   4.948   1.077   2.249
  540TIP3   OH2 1583   3.974   0.844   3.212
  540TIP3    H1 1584   3.887   0.850   3.173
  540TIP3    H2 1585   4.034   0.845   3.137
  541TIP3   OH2 1586   3.751   5.166   5.353
  541TIP3    H1 1587   3.828   5.114   5.377
  541TIP3    H2 1588   3.778   5.215   5.276
  542TIP3   OH2 1589   5.119   5.121   2.282
  542TIP3    H1 1590   5.117   5.027   2.264
  542TIP3    H2 1591   5.118   5.162   2.195
  543TIP3   OH2 1592   0.363   2.342   0.693
  543TIP3    H1 1593   0.344   2.323   0.785
  543TIP3    H2 1594   0.390   2.434   0.692
  544TIP3   OH2 1595   0.758   2.998   5.861
  544TIP3    H1 1596   0.761   2.987   5.766
  544TIP3    H2 1597   0.743   3.092   5.874
  545TIP3   OH2 1598   7.218   5.132   4.963
  545TIP3    H1 1599   7.234   5.126   5.057
  545TIP3    H2 1600   7.140   5.187   4.955
  546TIP3   OH2 1601   4.951   3.783   3.427
  546TIP3    H1 1602   4.957   3.713   3.492
  546TIP3    H2 1603   5.013   3.758   3.359
  547TIP3   OH2 1604   5.528   0.967   4.917
  547TIP3    H1 1605   5.585   0.904   4.961
  547TIP3    H2 1606   5.481   1.011   4.988
  548TIP3   OH2 1607   4.355   5.929   5.900
  548TIP3    H1 1608   4.346   5.964   5.811
  548TIP3    H2 1609   4.432   5.873   5.896
  549TIP3   OH2 1610   6.341   5.219   4.350
  549TIP3    H1 1611   6.292   5.295   4.319
  549TIP3    H2 1612   6.433   5.246   4.342
  550TIP3   OH2 1613   6.869   6.454   3.074
  550TIP3    H1 1614   6.888   6.507   3.151
  550TIP3    H2 1615   6.906   6.368   3.093
  551TIP3   OH2 1616   0.456   3.039   1.960
  551TIP3    H1 1617   0.475   3.039   1.866
  551TIP3    H2 1618   0.542   3.032   2.002
  552TIP3   OH2 1619   6.407   6.286   1.988
  552TIP3    H1 1620   6.399   6.211   2.047
  552TIP3    H2 1621   6.464   6.348   2.035
  553TIP3   OH2 1622   1.003   4.320   5.788
  553TIP3    H1 1623   0.939   4.388   5.804
  553TIP3    H2 1624   0.965   4.265   5.720
  554TIP3   OH2 1625   4.711   1.571   5.425
  554TIP3    H1 1626   4.700   1.477   5.438
  554TIP3    H2 1627   4.732   1.580   5.332
  555TIP3   OH2 1628   4.711   4.709   4.336
  555TIP3    H1 1629   4.777   4.644   4.358
  555TIP3    H2 1630   4.733   4.785   4.390
  556TIP3   OH2 1631   1.114   4.642   2.633
  556TIP3    H1 1632   1.205   4.644   2.601
  556TIP3    H2 1633   1.106   4.721   2.686
  557TIP3   OH2 1634   1.500   5.166   5.000
  557TIP3    H1 1635   1.487   5.157   4.905
  557TIP3    H2 1636   1.569   5.231   5.009
  558TIP3   OH2 1637   7.090   0.788   3.848
  558TIP3    H1 1638   7.072   0.844   3.923
  558TIP3    H2 1639   7.172   0.822   3.812
  559TIP3   OH2 1640   3.043   6.774   0.619
  559TIP3    H1 1641   3.018   6.846   0.562
  559TIP3    H2 1642   3.129   6.748   0.588
  560TIP3   OH2 1643   3.107   4.710   2.077
  560TIP3    H1 1644   3.067   4.635   2.033
  560TIP3    H2 1645   3.158   4.672   2.148
  561TIP3   OH2 1646   2.789   5.522   3.548
  561TIP3    H1 1647   2.871   5.571   3.554
  561TIP3    H2 1648   2.812   5.434   3.578
  562TIP3   OH2 1649   4.751   3.055   2.402
  562TIP3    H1 1650   4.666   3.049   2.358
  562TIP3    H2 1651   4.731   3.088   2.490
  563TIP3   OH2 1652   0.679   4.870   2.078
  563TIP3    H1 1653   0.675   4.938   2.010
  563TIP3    H2 1654   0.732   4.909   2.147
  564TIP3   OH2 1655   1.672   6.158   0.095
  564TIP3    H1 1656   1.590   6.143   0.049
  564TIP3    H2 1657   1.682   6.253   0.098
  565TIP3   OH2 1658   3.368   5.438   2.255
  565TIP3    H1 1659   3.442   5.411   2.201
  565TIP3    H2 1660   3.393   5.414   2.344
  566TIP3   OH2 1661   5.366   0.059   1.166
  566TIP3    H1 1662   5.413   0.026   1.242
  566TIP3    H2 1663   5.378   0.154   1.170
  567TIP3   OH2 1664   5.855   4.030   5.863
  567TIP3    H1 1665   5.795   3.965   5.827
  567TIP3    H2 1666   5.920   4.044   5.795
  568TIP3   OH2 1667   3.095   2.240   1.864
  568TIP3    H1 1668   3.056   2.210   1.782
  568TIP3    H2 1669   3.131   2.161   1.904
  569TIP3   OH2 1670   6.273   5.978   3.010
  569TIP3    H1 1671   6.361   5.950   2.983
  569TIP3    H2 1672   6.221   5.898   3.009
  570TIP3   OH2 1673   0.542   0.891   3.772
  570TIP3    H1 1674   0.519   0.799   3.782
  570TIP3    H2 1675   0.620   0.891   3.717
  571TIP3   OH2 1676   1.865   1.399   0.795
  571TIP3    H1 1677   1.874   1.475   0.852
  571TIP3    H2 1678   1.817   1.431   0.719
  572TIP3   OH2 1679   3.259   5.782   3.705
  572TIP3    H1 1680   3.291   5.849   3.765
  572TIP3    H2 1681   3.255   5.825   3.619
  573TIP3   OH2 1682   0.269   2.003   5.883
  573TIP3    H1 1683   0.220   1.960   5.953
  573TIP3    H2 1684   0.268   1.939   5.811
  574TIP3   OH2 1685   6.514   6.173   0.346
  574TIP3    H1 1686   6.420   6.185   0.333
  574TIP3    H2 1687   6.523   6.154   0.439
  575TIP3   OH2 1688   4.872   3.895   0.124
  575TIP3    H1 1689   4.793   3.841   0.123
  575TIP3    H2 1690   4.841   3.981   0.096
  576TIP3   OH2 1691   1.253   0.432   0.785
  576TIP3    H1 1692   1.310   0.368   0.743
  576TIP3    H2 1693   1.312   0.487   0.837
  577TIP3   OH2 1694   6.088   4.190   3.405
  577TIP3    H1 1695   6.011   4.221   3.357
  577TIP3    H2 1696   6.162   4.232   3.362
  578TIP3   OH2 1697   6.320   5.382   5.214
  578TIP3    H1 1698   6.292   5.461   5.167
  578TIP3    H2 1699   6.364   5.415   5.292
  579TIP3   OH2 1700   3.331   2.747   1.156
  579TIP3    H1 1701   3.302   2.656   1.163
  579TIP3    H2 1702   3.419   2.747   1.193
  580TIP3   OH2 1703   2.103   4.507   2.017
  580TIP3    H1 1704   2.159   4.442   2.060
  580TIP3    H2 1705   2.093   4.476   1.927
  581TIP3   OH2 1706   4.988   4.992   1.735
  581TIP3    H1 1707   5.049   5.039   1.792
  581TIP3    H2 1708   5.028   4.907   1.721
  582TIP3   OH2 1709   4.288   5.903   5.021
  582TIP3    H1 1710   4.292   5.810   4.999
  582TIP3    H2 1711   4.367   5.941   4.983
  583TIP3   OH2 1712   4.905   2.514   0.624
  583TIP3    H1 1713   4.815   2.546   0.624
  583TIP3    H2 1714   4.950   2.569   0.560
  584TIP3   OH2 1715   2.731   1.104   2.170
  584TIP3    H1 1716   2.731   1.009   2.158
  584TIP3    H2 1717   2.727   1.116   2.265
  585TIP3   OH2 1718   2.590   5.028   0.025
  585TIP3    H1 1719   2.624   5.040  -0.064
  585TIP3    H2 1720   2.629   4.946   0.055
  586TIP3   OH2 1721   2.943   0.185   0.910
  586TIP3    H1 1722   3.006   0.113   0.903
  586TIP3    H2 1723   2.858   0.142   0.913
  587TIP3   OH2 1724   3.769   0.100   2.676
  587TIP3    H1 1725   3.810   0.042   2.740
  587TIP3    H2 1726   3.727   0.168   2.728
  588TIP3   OH2 1727   6.750   4.684   0.462
  588TIP3    H1 1728   6.661   4.649   0.450
  588TIP3    H2 1729   6.741   4.778   0.451
  589TIP3   OH2 1730   4.551   3.101   2.636
  589TIP3    H1 1731   4.541   3.054   2.719
  589TIP3    H2 1732   4.527   3.192   2.657
  590TIP3   OH2 1733   5.543   6.061   0.795
  590TIP3    H1 1734   5.456   6.045   0.833
  590TIP3    H2 1735   5.558   6.155   0.807
  591TIP3   OH2 1736   4.805   2.658   1.980
  591TIP3    H1 1737   4.799   2.588   2.045
  591TIP3    H2 1738   4.838   2.734   2.029
  592TIP3   OH2 1739   0.207   5.307   4.155
  592TIP3    H1 1740   0.284   5.363   4.162
  592TIP3    H2 1741   0.217   5.244   4.227
  593TIP3   OH2 1742   3.643   1.550   2.774
  593TIP3    H1 1743   3.673   1.629   2.730
  593TIP3    H2 1744   3.658   1.480   2.711
  594TIP3   OH2 1745   7.006   2.069   1.838
  594TIP3    H1 1746   6.990   1.976   1.848
  594TIP3    H2 1747   6.928   2.111   1.874
  595TIP3   OH2 1748   4.452   4.783   5.640
  595TIP3    H1 1749   4.443   4.791   5.545
  595TIP3    H2 1750   4.470   4.872   5.670
  596TIP3   OH2 1751   2.221   1.143   4.077
  596TIP3    H1 1752   2.163   1.213   4.106
  596TIP3    H2 1753   2.298   1.189   4.041
  597TIP3   OH2 1754   3.878   0.500   1.589
  597TIP3    H1 1755   3.924   0.543   1.662
  597TIP3    H2 1756   3.793   0.476   1.626
  598TIP3   OH2 1757   6.775   4.176   3.459
  598TIP3    H1 1758   6.717   4.197   3.532
  598TIP3    H2 1759   6.795   4.083   3.471
  599TIP3   OH2 1760   6.262   2.964   4.503
  599TIP3    H1 1761   6.202   2.979   4.575
  599TIP3    H2 1762   6.207   2.964   4.425
  600TIP3   OH2 1763   2.348   5.705   3.575
  600TIP3    H1 1764   2.379   5.795   3.577
  600TIP3    H2 1765   2.350   5.681   3.482
  601TIP3   OH2 1766   0.779   1.233   0.920
  601TIP3    H1 1767   0.687   1.221   0.944
  601TIP3    H2 1768   0.786   1.327   0.902
  602TIP3   OH2 1769   3.402   0.106   3.184
  602TIP3    H1 1770   3.364   0.021   3.163
  602TIP3    H2 1771   3.333   0.152   3.231
  603TIP3   OH2 1772   5.802   3.681   3.682
  603TIP3    H1 1773   5.876   3.664   3.624
  603TIP3    H2 1774   5.787   3.776   3.674
  604TIP3   OH2 1775   6.407   1.999   3.950
  604TIP3    H1 1776   6.482   2.042   3.990
  604TIP3    H2 1777   6.422   2.006   3.856
  605TIP3   OH2 1778   5.171   3.672   5.607
  605TIP3    H1 1779   5.153   3.604   5.542
  605TIP3    H2 1780   5.265   3.664   5.624
  606TIP3   OH2 1781   2.055   5.120   0.355
  606TIP3    H1 1782   2.147   5.091   0.359
  606TIP3    H2 1783   2.025   5.114   0.446
  607TIP3   OH2 1784   6.882   6.151   4.423
  607TIP3    H1 1785   6.925   6.112   4.347
  607TIP3    H2 1786   6.862   6.241   4.395
  608TIP3   OH2 1787   2.892   4.111   2.988
  608TIP3    H1 1788   2.980   4.147   2.985
  608TIP3    H2 1789   2.893   4.050   3.062
  609TIP3   OH2 1790   3.755   5.391   5.616
  609TIP3    H1 1791   3.696   5.460   5.644
  609TIP3    H2 1792   3.711   5.310   5.642
  610TIP3   OH2 1793   4.521   2.082   2.348
  610TIP3    H1 1794   4.514   2.041   2.434
  610TIP3    H2 1795   4.449   2.045   2.297
  611TIP3   OH2 1796   7.178   4.358   3.211
  611TIP3    H1 1797   7.117   4.339   3.140
  611TIP3    H2 1798   7.264   4.337   3.175
  612TIP3   OH2 1799   1.731   1.687   4.901
  612TIP3    H1 1800   1.717   1.719   4.812
  612TIP3    H2 1801   1.687   1.751   4.957
  613TIP3   OH2 1802   3.100   2.099   3.206
  613TIP3    H1 1803   3.131   2.020   3.250
  613TIP3    H2 1804   3.027   2.071   3.152
  614TIP3   OH2 1805   2.071   5.032   1.230
  614TIP3    H1 1806   2.005   5.045   1.299
  614TIP3    H2 1807   2.047   4.948   1.190
  615TIP3   OH2 1808   6.190   4.171   0.790
  615TIP3    H1 1809   6.284   4.179   0.773
  615TIP3    H2 1810   6.153   4.254   0.760
  616TIP3   OH2 1811   2.022   4.741   5.708
  616TIP3    H1 1812   1.993   4.828   5.683
  616TIP3    H2 1813   1.990   4.683   5.638
  617TIP3   OH2 1814   0.059   3.151   5.623
  617TIP3    H1 1815  -0.034   3.155   5.601
  617TIP3    H2 1816   0.092   3.239   5.607
  618TIP3   OH2 1817   1.364   0.161   4.547
  618TIP3    H1 1818   1.280   0.142   4.506
  618TIP3    H2 1819   1.344   0.226   4.615
  619TIP3   OH2 1820   2.132   2.495   2.470
  619TIP3    H1 1821   2.074   2.439   2.521
  619TIP3    H2 1822   2.099   2.584   2.487
  620TIP3   OH2 1823   2.024   2.589   3.713
  620TIP3    H1 1824   1.956   2.654   3.699
  620TIP3    H2 1825   2.021   2.569   3.807
  621TIP3   OH2 1826   3.319   3.487   0.067
  621TIP3    H1 1827   3.318   3.470  -0.027
  621TIP3    H2 1828   3.306   3.582   0.074
  622TIP3   OH2 1829   4.576   3.991   2.092
  622TIP3    H1 1830   4.647   4.007   2.155
  622TIP3    H2 1831   4.496   3.994   2.145
  623TIP3   OH2 1832   5.753   2.002   2.622
  623TIP3    H1 1833   5.727   1.963   2.705
  623TIP3    H2 1834   5.847   1.984   2.615
  624TIP3   OH2 1835   4.701   4.049   2.632
  624TIP3    H1 1836   4.710   4.144   2.629
  624TIP3    H2 1837   4.788   4.016   2.610
  625TIP3   OH2 1838   4.209   3.829   0.263
  625TIP3    H1 1839   4.161   3.873   0.333
  625TIP3    H2 1840   4.214   3.737   0.291
  626TIP3   OH2 1841   4.394   6.684   5.794
  626TIP3    H1 1842   4.441   6.754   5.749
  626TIP3    H2 1843   4.345   6.640   5.725
  627TIP3   OH2 1844   3.193   2.861   4.550
  627TIP3    H1 1845   3.239   2.905   4.479
  627TIP3    H2 1846   3.124   2.922   4.575
  628TIP3   OH2 1847   5.740   3.720   0.287
  628TIP3    H1 1848   5.794   3.794   0.310
  628TIP3    H2 1849   5.799   3.644   0.291
  629TIP3   OH2 1850   2.776   0.509   4.019
  629TIP3    H1 1851   2.736   0.533   4.102
  629TIP3    H2 1852   2.755   0.416   4.008
  630TIP3   OH2 1853   1.068   3.177   3.671
  630TIP3    H1 1854   1.021   3.108   3.625
  630TIP3    H2 1855   1.149   3.135   3.702
  631TIP3   OH2 1856   4.466   5.341   2.887
  631TIP3    H1 1857   4.504   5.366   2.971
  631TIP3    H2 1858   4.375   5.320   2.906
  632TIP3   OH2 1859   3.366   3.941   1.243
  632TIP3    H1 1860   3.442   3.936   1.186
  632TIP3    H2 1861   3.383   3.877   1.312
  633TIP3   OH2 1862   6.299   5.146   5.380
  633TIP3    H1 1863   6.394   5.136   5.370
  633TIP3    H2 1864   6.273   5.206   5.310
  634TIP3   OH2 1865   2.987   2.702   4.739
  634TIP3    H1 1866   3.007   2.787   4.700
  634TIP3    H2 1867   2.967   2.645   4.665
  635TIP3   OH2 1868   3.272   4.290   3.611
  635TIP3    H1 1869   3.345   4.247   3.656
  635TIP3    H2 1870   3.273   4.252   3.523
  636TIP3   OH2 1871   4.486   2.621   4.731
  636TIP3    H1 1872   4.476   2.544   4.787
  636TIP3    H2 1873   4.442   2.691   4.780
  637TIP3   OH2 1874   3.900   3.876   0.106
  637TIP3    H1 1875   3.894   3.966   0.074
  637TIP3    H2 1876   3.950   3.829   0.039
  638TIP3   OH2 1877   1.993   2.404   3.960
  638TIP3    H1 1878   1.962   2.314   3.946
  638TIP3    H2 1879   2.023   2.405   4.051
  639TIP3   OH2 1880   5.315   2.192   5.391
  639TIP3    H1 1881   5.348   2.194   5.301
  639TIP3    H2 1882   5.227   2.230   5.384
  640TIP3   OH2 1883   6.657   0.352   3.504
  640TIP3    H1 1884   6.726   0.339   3.439
  640TIP3    H2 1885   6.705   0.383   3.582
  641TIP3   OH2 1886   0.453   3.523   1.481
  641TIP3    H1 1887   0.485   3.605   1.519
  641TIP3    H2 1888   0.525   3.491   1.427
  642TIP3   OH2 1889   6.091   2.540   1.172
  642TIP3    H1 1890   5.998   2.540   1.195
  642TIP3    H2 1891   6.118   2.449   1.183
  643TIP3   OH2 1892   0.667   1.953   0.881
  643TIP3    H1 1893   0.580   1.945   0.920
  643TIP3    H2 1894   0.715   2.010   0.941
  644TIP3   OH2 1895   0.495   5.691   3.560
  644TIP3    H1 1896   0.512   5.606   3.601
  644TIP3    H2 1897   0.407   5.715   3.590
  645TIP3   OH2 1898   6.454   6.320   2.673
  645TIP3    H1 1899   6.381   6.378   2.651
  645TIP3    H2 1900   6.413   6.236   2.694
  646TIP3   OH2 1901   6.312   4.419   1.090
  646TIP3    H1 1902   6.224   4.387   1.108
  646TIP3    H2 1903   6.328   4.484   1.158
  647TIP3   OH2 1904   4.529   5.213   0.305
  647TIP3    H1 1905   4.536   5.283   0.370
  647TIP3    H2 1906   4.527   5.132   0.356
  648TIP3   OH2 1907   4.493   0.632   0.666
  648TIP3    H1 1908   4.553   0.651   0.594
  648TIP3    H2 1909   4.446   0.554   0.636
  649TIP3   OH2 1910   1.676   4.285   5.708
  649TIP3    H1 1911   1.766   4.264   5.684
  649TIP3    H2 1912   1.662   4.240   5.792
  650TIP3   OH2 1913   3.453   3.477   0.441
  650TIP3    H1 1914   3.528   3.534   0.458
  650TIP3    H2 1915   3.380   3.521   0.485
  651TIP3   OH2 1916   3.271   1.243   3.033
  651TIP3    H1 1917   3.349   1.245   2.977
  651TIP3    H2 1918   3.245   1.151   3.035
  652TIP3   OH2 1919   4.125   2.709   1.818
  652TIP3    H1 1920   4.073   2.779   1.857
  652TIP3    H2 1921   4.164   2.748   1.740
  653TIP3   OH2 1922   0.289   6.040   5.486
  653TIP3    H1 1923   0.279   6.105   5.416
  653TIP3    H2 1924   0.219   6.062   5.549
  654TIP3   OH2 1925   7.180   4.203   2.825
  654TIP3    H1 1926   7.121   4.255   2.880
  654TIP3    H2 1927   7.208   4.131   2.881
  655TIP3   OH2 1928   2.892   3.453   0.917
  655TIP3    H1 1929   2.949   3.529   0.931
  655TIP3    H2 1930   2.952   3.381   0.898
  656TIP3   OH2 1931   5.137   6.569   2.048
  656TIP3    H1 1932   5.073   6.639   2.058
  656TIP3    H2 1933   5.088   6.499   2.004
  657TIP3   OH2 1934   5.632   6.037   5.627
  657TIP3    H1 1935   5.681   6.054   5.708
  657TIP3    H2 1936   5.698   6.008   5.564
  658TIP3   OH2 1937   5.514   0.677   5.645
  658TIP3    H1 1938   5.590   0.714   5.601
  658TIP3    H2 1939   5.507   0.726   5.727
  659TIP3   OH2 1940   5.306   6.380   2.473
  659TIP3    H1 1941   5.378   6.331   2.434
  659TIP3    H2 1942   5.273   6.324   2.543
  660TIP3   OH2 1943   2.159   2.728   4.519
  660TIP3    H1 1944   2.070   2.719   4.485
  660TIP3    H2 1945   2.184   2.639   4.546
  661TIP3   OH2 1946   6.768   4.242   0.153
  661TIP3    H1 1947   6.729   4.329   0.152
  661TIP3    H2 1948   6.704   4.187   0.199
  662TIP3   OH2 1949   4.616   3.110   1.233
  662TIP3    H1 1950   4.691   3.060   1.202
  662TIP3    H2 1951   4.635   3.125   1.326
  663TIP3   OH2 1952   0.923   6.210   1.532
  663TIP3    H1 1953   1.005   6.224   1.485
  663TIP3    H2 1954   0.920   6.281   1.596
  664TIP3   OH2 1955   2.609   4.219   0.279
  664TIP3    H1 1956   2.528   4.169   0.269
  664TIP3    H2 1957   2.627   4.254   0.192
  665TIP3   OH2 1958   3.701   1.316   3.255
  665TIP3    H1 1959   3.707   1.369   3.175
  665TIP3    H2 1960   3.622   1.263   3.242
  666TIP3   OH2 1961   5.962   3.524   1.395
  666TIP3    H1 1962   5.937   3.432   1.387
  666TIP3    H2 1963   5.990   3.549   1.307
  667TIP3   OH2 1964   4.275   6.498   4.188
  667TIP3    H1 1965   4.195   6.474   4.234
  667TIP3    H2 1966   4.246   6.527   4.102
  668TIP3   OH2 1967   2.923   6.471   1.609
  668TIP3    H1 1968   2.852   6.479   1.672
  668TIP3    H2 1969   2.916   6.549   1.554
  669TIP3   OH2 1970   4.094   4.718   1.460
  669TIP3    H1 1971   4.096   4.814   1.460
  669TIP3    H2 1972   4.148   4.693   1.536
  670TIP3   OH2 1973   4.592   4.328   1.180
  670TIP3    H1 1974   4.597   4.329   1.085
  670TIP3    H2 1975   4.564   4.417   1.203
  671TIP3   OH2 1976   5.381   2.567   2.946
  671TIP3    H1 1977   5.316   2.609   2.890
  671TIP3    H2 1978   5.396   2.630   3.017
  672TIP3   OH2 1979   4.544   2.967   3.269
  672TIP3    H1 1980   4.491   2.901   3.226
  672TIP3    H2 1981   4.531   2.952   3.362
  673TIP3   OH2 1982   0.730   3.280   1.622
  673TIP3    H1 1983   0.676   3.276   1.544
  673TIP3    H2 1984   0.820   3.271   1.590
  674TIP3   OH2 1985   5.558   4.157   3.672
  674TIP3    H1 1986   5.608   4.087   3.630
  674TIP3    H2 1987   5.467   4.139   3.649
  675TIP3   OH2 1988   5.366   5.216   0.729
  675TIP3    H1 1989   5.378   5.145   0.667
  675TIP3    H2 1990   5.271   5.228   0.735
  676TIP3   OH2 1991   2.666   6.778   2.540
  676TIP3    H1 1992   2.597   6.721   2.574
  676TIP3    H2 1993   2.634   6.867   2.559
  677TIP3   OH2 1994   7.092   5.749   2.578
  677TIP3    H1 1995   7.034   5.824   2.566
  677TIP3    H2 1996   7.172   5.786   2.616
  678TIP3   OH2 1997   2.813   3.714   5.539
  678TIP3    H1 1998   2.773   3.730   5.625
  678TIP3    H2 1999   2.885   3.777   5.534
  679TIP3   OH2 2000   0.584   4.798   4.945
  679TIP3    H1 2001   0.591   4.828   5.036
  679TIP3    H2 2002   0.571   4.879   4.895
  680TIP3   OH2 2003   6.446   3.917   2.915
  680TIP3    H1 2004   6.364   3.958   2.943
  680TIP3    H2 2005   6.506   3.931   2.989
  681TIP3   OH2 2006   4.698   2.104   1.012
  681TIP3    H1 2007   4.715   2.148   0.928
  681TIP3    H2 2008   4.622   2.150   1.047
  682TIP3   OH2 2009   4.331   3.149   3.095
  682TIP3    H1 2010   4.268   3.148   3.166
  682TIP3    H2 2011   4.416   3.136   3.138
  683TIP3   OH2 2012   0.241   4.565   2.112
  683TIP3    H1 2013   0.196   4.574   2.196
  683TIP3    H2 2014   0.291   4.646   2.103
  684TIP3   OH2 2015   0.291   3.215   0.075
  684TIP3    H1 2016   0.316   3.232   0.166
  684TIP3    H2 2017   0.301   3.299   0.031
  685TIP3   OH2 2018   5.788   5.908   3.933
  685TIP3    H1 2019   5.755   5.996   3.950
  685TIP3    H2 2020   5.766   5.892   3.841
  686TIP3   OH2 2021   0.269   0.141   0.594
  686TIP3    H1 2022   0.235   0.173   0.510
  686TIP3    H2 2023   0.203   0.078   0.624
  687TIP3   OH2 2024   5.140   3.366   4.478
  687TIP3    H1 2025   5.113   3.286   4.525
  687TIP3    H2 2026   5.101   3.357   4.392
  688TIP3   OH2 2027   4.465   6.232   2.325
  688TIP3    H1 2028   4.373   6.248   2.303
  688TIP3    H2 2029   4.475   6.269   2.413
  689TIP3   OH2 2030   2.216   5.606   0.407
  689TIP3    H1 2031   2.155   5.549   0.361
  689TIP3    H2 2032   2.230   5.680   0.348
  690TIP3   OH2 2033   4.600   1.654   3.318
  690TIP3    H1 2034   4.668   1.588   3.310
  690TIP3    H2 2035   4.618   1.717   3.249
  691TIP3   OH2 2036   2.814   3.851   2.353
  691TIP3    H1 2037   2.740   3.797   2.323
  691TIP3    H2 2038   2.819   3.834   2.447
  692TIP3   OH2 2039   6.737   5.543   3.551
  692TIP3    H1 2040   6.710   5.454   3.570
  692TIP3    H2 2041   6.697   5.563   3.466
  693TIP3   OH2 2042   5.920   5.296   3.568
  693TIP3    H1 2043   5.981   5.241   3.618
  693TIP3    H2 2044   5.946   5.385   3.590
  694TIP3   OH2 2045   1.179   1.354   4.191
  694TIP3    H1 2046   1.102   1.304   4.165
  694TIP3    H2 2047   1.253   1.303   4.158
  695TIP3   OH2 2048   6.818   1.016   5.467
  695TIP3    H1 2049   6.771   0.943   5.508
  695TIP3    H2 2050   6.910   1.000   5.486
  696TIP3   OH2 2051   4.071   3.427   0.200
  696TIP3    H1 2052   4.031   3.511   0.221
  696TIP3    H2 2053   4.025   3.397   0.122
  697TIP3   OH2 2054   2.186   1.279   1.514
  697TIP3    H1 2055   2.211   1.255   1.424
  697TIP3    H2 2056   2.269   1.291   1.560
  698TIP3   OH2 2057   6.222   0.246   0.515
  698TIP3    H1 2058   6.129   0.263   0.503
  698TIP3    H2 2059   6.233   0.237   0.610
  699TIP3   OH2 2060   6.471   5.714   3.627
  699TIP3    H1 2061   6.467   5.648   3.558
  699TIP3    H2 2062   6.442   5.795   3.585
  700TIP3   OH2 2063   6.717   3.231   2.941
  700TIP3    H1 2064   6.770   3.151   2.940
  700TIP3    H2 2065   6.681   3.235   3.030
  701TIP3   OH2 2066   3.291   3.447   2.570
  701TIP3    H1 2067   3.266   3.362   2.605
  701TIP3    H2 2068   3.373   3.431   2.524
  702TIP3   OH2 2069   0.094   3.218   4.652
  702TIP3    H1 2070   0.048   3.276   4.712
  702TIP3    H2 2071   0.027   3.191   4.589
  703TIP3   OH2 2072   3.056   1.786   1.265
  703TIP3    H1 2073   3.035   1.726   1.194
  703TIP3    H2 2074   3.150   1.780   1.276
  704TIP3   OH2 2075   2.597   5.756   0.223
  704TIP3    H1 2076   2.619   5.849   0.217
  704TIP3    H2 2077   2.550   5.737   0.142
  705TIP3   OH2 2078   5.096   1.558   3.425
  705TIP3    H1 2079   5.053   1.597   3.501
  705TIP3    H2 2080   5.173   1.613   3.410
  706TIP3   OH2 2081   1.136   6.573   1.024
  706TIP3    H1 2082   1.065   6.535   1.076
  706TIP3    H2 2083   1.112   6.665   1.014
  707TIP3   OH2 2084   3.151   4.017   1.079
  707TIP3    H1 2085   3.167   4.111   1.090
  707TIP3    H2 2086   3.223   3.975   1.125
  708TIP3   OH2 2087   0.516   4.256   0.788
  708TIP3    H1 2088   0.590   4.265   0.849
  708TIP3    H2 2089   0.482   4.345   0.779
  709TIP3   OH2 2090   5.906   2.683   3.819
  709TIP3    H1 2091   5.856   2.652   3.744
  709TIP3    H2 2092   5.996   2.686   3.788
  710TIP3   OH2 2093   1.800   4.248   1.213
  710TIP3    H1 2094   1.823   4.157   1.234
  710TIP3    H2 2095   1.862   4.273   1.144
  711TIP3   OH2 2096   4.133   5.573   1.453
  711TIP3    H1 2097   4.143   5.589   1.360
  711TIP3    H2 2098   4.186   5.641   1.495
  712TIP3   OH2 2099   3.951   4.806   5.829
  712TIP3    H1 2100   3.900   4.781   5.752
  712TIP3    H2 2101   4.034   4.837   5.793
  713TIP3   OH2 2102   1.304   5.966   5.386
  713TIP3    H1 2103   1.378   5.978   5.327
  713TIP3    H2 2104   1.227   5.968   5.329
  714TIP3   OH2 2105   4.640   0.830   1.492
  714TIP3    H1 2106   4.730   0.860   1.490
  714TIP3    H2 2107   4.621   0.804   1.401
  715TIP3   OH2 2108   2.306   2.566   3.389
  715TIP3    H1 2109   2.269   2.528   3.309
  715TIP3    H2 2110   2.336   2.653   3.362
  716TIP3   OH2 2111   2.991   2.058   2.792
  716TIP3    H1 2112   2.900   2.076   2.771
  716TIP3    H2 2113   3.025   2.012   2.715
  717TIP3   OH2 2114   2.177   5.721   1.262
  717TIP3    H1 2115   2.126   5.739   1.182
  717TIP3    H2 2116   2.112   5.721   1.332
  718TIP3   OH2 2117   3.592   6.806   1.783
  718TIP3    H1 2118   3.667   6.789   1.840
  718TIP3    H2 2119   3.552   6.720   1.769
  719TIP3   OH2 2120   6.381   6.598   4.172
  719TIP3    H1 2121   6.367   6.505   4.191
  719TIP3    H2 2122   6.394   6.601   4.077
  720TIP3   OH2 2123   4.043   5.891   1.016
  720TIP3    H1 2124   4.075   5.801   1.024
  720TIP3    H2 2125   4.081   5.936   1.091
  721TIP3   OH2 2126   4.347   0.601   5.224
  721TIP3    H1 2127   4.427   0.625   5.269
  721TIP3    H2 2128   4.277   0.622   5.286
  722TIP3   OH2 2129   4.932   3.587   2.301
  722TIP3    H1 2130   4.896   3.506   2.266
  722TIP3    H2 2131   5.026   3.580   2.288
  723TIP3   OH2 2132   3.062   1.603   1.042
  723TIP3    H1 2133   3.126   1.637   0.980
  723TIP3    H2 2134   3.106   1.528   1.083
  724TIP3   OH2 2135   5.338   4.194   1.704
  724TIP3    H1 2136   5.336   4.192   1.608
  724TIP3    H2 2137   5.426   4.165   1.727
  725TIP3   OH2 2138   2.746   4.878   1.081
  725TIP3    H1 2139   2.750   4.922   0.996
  725TIP3    H2 2140   2.822   4.911   1.128
  726TIP3   OH2 2141   6.943   3.863   4.420
  726TIP3    H1 2142   6.870   3.830   4.473
  726TIP3    H2 2143   6.910   3.863   4.330
  727TIP3   OH2 2144   4.533   0.834   4.138
  727TIP3    H1 2145   4.519   0.745   4.169
  727TIP3    H2 2146   4.496   0.890   4.207
  728TIP3   OH2 2147   1.916   2.586   4.447
  728TIP3    H1 2148   1.898   2.535   4.526
  728TIP3    H2 2149   1.831   2.621   4.421
  729TIP3   OH2 2150   4.301   5.196   5.171
  729TIP3    H1 2151   4.221   5.142   5.169
  729TIP3    H2 2152   4.313   5.215   5.264
  730TIP3   OH2 2153   0.543   5.373   2.792
  730TIP3    H1 2154   0.496   5.456   2.798
  730TIP3    H2 2155   0.543   5.339   2.882
  731TIP3   OH2 2156   2.479   0.782   4.363
  731TIP3    H1 2157   2.468   0.874   4.339
  731TIP3    H2 2158   2.432   0.733   4.295
  732TIP3   OH2 2159   2.878   2.096   1.089
  732TIP3    H1 2160   2.797   2.046   1.095
  732TIP3    H2 2161   2.861   2.160   1.020
  733TIP3   OH2 2162   4.400   6.296   4.335
  733TIP3    H1 2163   4.391   6.369   4.274
  733TIP3    H2 2164   4.325   6.305   4.395
  734TIP3   OH2 2165   4.676   5.653   2.553
  734TIP3    H1 2166   4.754   5.666   2.608
  734TIP3    H2 2167   4.605   5.639   2.616
  735TIP3   OH2 2168   4.142   3.892   5.266
  735TIP3    H1 2169   4.231   3.920   5.286
  735TIP3    H2 2170   4.115   3.946   5.192
  736TIP3   OH2 2171   6.348   2.793   1.887
  736TIP3    H1 2172   6.306   2.733   1.825
  736TIP3    H2 2173   6.275   2.839   1.928
  737TIP3   OH2 2174   2.410   2.891   0.379
  737TIP3    H1 2175   2.358   2.972   0.388
  737TIP3    H2 2176   2.435   2.890   0.287
  738TIP3   OH2 2177   2.061   1.878   1.568
  738TIP3    H1 2178   2.119   1.951   1.586
  738TIP3    H2 2179   2.027   1.895   1.480
  739TIP3   OH2 2180   2.831   3.006   2.438
  739TIP3    H1 2181   2.755   2.970   2.392
  739TIP3    H2 2182   2.906   2.977   2.386
  740TIP3   OH2 2183   1.595   4.883   1.867
  740TIP3    H1 2184   1.677   4.896   1.916
  740TIP3    H2 2185   1.535   4.846   1.932
  741TIP3   OH2 2186   7.075   1.738   2.698
  741TIP3    H1 2187   6.993   1.757   2.652
  741TIP3    H2 2188   7.137   1.716   2.629
  742TIP3   OH2 2189   5.553   4.306   3.392
  742TIP3    H1 2190   5.612   4.309   3.466
  742TIP3    H2 2191   5.465   4.302   3.431
  743TIP3   OH2 2192   2.856   5.273   5.033
  743TIP3    H1 2193   2.851   5.311   5.121
  743TIP3    H2 2194   2.929   5.211   5.037
  744TIP3   OH2 2195   6.228   6.449   0.744
  744TIP3    H1 2196   6.266   6.361   0.750
  744TIP3    H2 2197   6.190   6.452   0.656
  745TIP3   OH2 2198   0.190   1.058   0.610
  745TIP3    H1 2199   0.221   0.977   0.651
  745TIP3    H2 2200   0.240   1.127   0.653
  746TIP3   OH2 2201   6.001   5.981   4.750
  746TIP3    H1 2202   6.070   6.005   4.813
  746TIP3    H2 2203   5.920   5.983   4.802
  747TIP3   OH2 2204   5.172   0.217   3.580
  747TIP3    H1 2205   5.233   0.178   3.642
  747TIP3    H2 2206   5.217   0.213   3.496
  748TIP3   OH2 2207   3.983   6.035   2.020
  748TIP3    H1 2208   3.917   6.001   2.081
  748TIP3    H2 2209   3.952   6.123   1.998
  749TIP3   OH2 2210   6.324   5.667   3.195
  749TIP3    H1 2211   6.265   5.604   3.153
  749TIP3    H2 2212   6.386   5.692   3.126
  750TIP3   OH2 2213   5.102   5.973   2.251
  750TIP3    H1 2214   5.128   6.065   2.264
  750TIP3    H2 2215   5.011   5.977   2.223
  751TIP3   OH2 2216   6.196   0.508   0.873
  751TIP3    H1 2217   6.241   0.569   0.930
  751TIP3    H2 2218   6.103   0.519   0.893
  752TIP3   OH2 2219   4.945   1.959   4.642
  752TIP3    H1 2220   5.040   1.974   4.638
  752TIP3    H2 2221   4.916   1.969   4.551
  753TIP3   OH2 2222   1.587   1.452   3.811
  753TIP3    H1 2223   1.535   1.377   3.842
  753TIP3    H2 2224   1.560   1.464   3.720
  754TIP3   OH2 2225   2.353   4.035   4.873
  754TIP3    H1 2226   2.362   4.059   4.965
  754TIP3    H2 2227   2.389   3.946   4.868
  755TIP3   OH2 2228   0.497   4.257   4.444
  755TIP3    H1 2229   0.479   4.325   4.379
  755TIP3    H2 2230   0.587   4.229   4.427
  756TIP3   OH2 2231   4.307   5.403   3.246
  756TIP3    H1 2232   4.345   5.321   3.277
  756TIP3    H2 2233   4.360   5.472   3.287
  757TIP3   OH2 2234   7.077   5.516   5.696
  757TIP3    H1 2235   7.146   5.523   5.631
  757TIP3    H2 2236   7.057   5.422   5.699
  758TIP3   OH2 2237   6.635   1.741   5.551
  758TIP3    H1 2238   6.602   1.652   5.540
  758TIP3    H2 2239   6.567   1.797   5.513
  759TIP3   OH2 2240   3.583   4.847   1.159
  759TIP3    H1 2241   3.529   4.770   1.144
  759TIP3    H2 2242   3.642   4.851   1.083
  760TIP3   OH2 2243   5.599   0.344   5.347
  760TIP3    H1 2244   5.508   0.324   5.368
  760TIP3    H2 2245   5.596   0.423   5.294
  761TIP3   OH2 2246   1.386   1.751   1.515
  761TIP3    H1 2247   1.374   1.846   1.507
  761TIP3    H2 2248   1.427   1.740   1.601
  762TIP3   OH2 2249   4.093   1.997   0.320
  762TIP3    H1 2250   4.073   2.079   0.364
  762TIP3    H2 2251   4.185   1.980   0.342
  763TIP3   OH2 2252   2.905   5.316   4.127
  763TIP3    H1 2253   2.873   5.350   4.044
  763TIP3    H2 2254   2.977   5.375   4.152
  764TIP3   OH2 2255   6.694   2.753   2.345
  764TIP3    H1 2256   6.613   2.791   2.312
  764TIP3    H2 2257   6.764   2.805   2.306
  765TIP3   OH2 2258   6.538   0.674   0.396
  765TIP3    H1 2259   6.602   0.696   0.463
  765TIP3    H2 2260   6.563   0.728   0.321
  766TIP3   OH2 2261   4.341   3.135   3.463
  766TIP3    H1 2262   4.278   3.094   3.523
  766TIP3    H2 2263   4.288   3.161   3.388
  767TIP3   OH2 2264   3.447   1.742   3.290
  767TIP3    H1 2265   3.480   1.791   3.214
  767TIP3    H2 2266   3.525   1.720   3.341
  768TIP3   OH2 2267   3.734   0.036   0.565
  768TIP3    H1 2268   3.754   0.128   0.549
  768TIP3    H2 2269   3.662   0.016   0.506
  769TIP3   OH2 2270   6.654   2.080   5.645
  769TIP3    H1 2271   6.582   2.077   5.582
  769TIP3    H2 2272   6.619   2.129   5.719
  770TIP3   OH2 2273   6.921   2.240   0.555
  770TIP3    H1 2274   6.987   2.309   0.566
  770TIP3    H2 2275   6.861   2.273   0.489
  771TIP3   OH2 2276   6.476   0.488   4.728
  771TIP3    H1 2277   6.484   0.429   4.803
  771TIP3    H2 2278   6.549   0.464   4.670
  772TIP3   OH2 2279   4.421   5.727   4.009
  772TIP3    H1 2280   4.454   5.775   4.085
  772TIP3    H2 2281   4.497   5.677   3.978
  773TIP3   OH2 2282   3.028   1.999   5.826
  773TIP3    H1 2283   2.951   2.031   5.778
  773TIP3    H2 2284   2.996   1.983   5.915
  774TIP3   OH2 2285   7.112   0.214   0.818
  774TIP3    H1 2286   7.157   0.193   0.736
  774TIP3    H2 2287   7.021   0.228   0.792
  775TIP3   OH2 2288   3.173   6.196   4.705
  775TIP3    H1 2289   3.132   6.136   4.642
  775TIP3    H2 2290   3.230   6.139   4.758
  776TIP3   OH2 2291   3.142   5.824   1.992
  776TIP3    H1 2292   3.112   5.762   2.058
  776TIP3    H2 2293   3.229   5.792   1.967
  777TIP3   OH2 2294   0.624   2.555   4.704
  777TIP3    H1 2295   0.576   2.478   4.673
  777TIP3    H2 2296   0.630   2.612   4.627
  778TIP3   OH2 2297   5.884   5.556   5.616
  778TIP3    H1 2298   5.890   5.638   5.665
  778TIP3    H2 2299   5.975   5.533   5.597
  779TIP3   OH2 2300   1.034   4.000   2.845
  779TIP3    H1 2301   1.079   4.081   2.819
  779TIP3    H2 2302   1.102   3.948   2.888
  780TIP3   OH2 2303   5.824   4.558   0.753
  780TIP3    H1 2304   5.803   4.651   0.741
  780TIP3    H2 2305   5.782   4.535   0.836
  781TIP3   OH2 2306   5.941   5.800   1.256
  781TIP3    H1 2307   5.993   5.770   1.181
  781TIP3    H2 2308   5.944   5.727   1.318
  782TIP3   OH2 2309   3.587   0.453   2.328
  782TIP3    H1 2310   3.646   0.378   2.327
  782TIP3    H2 2311   3.528   0.436   2.402
  783TIP3   OH2 2312   1.121   0.095   1.691
  783TIP3    H1 2313   1.165   0.152   1.628
  783TIP3    H2 2314   1.144   0.132   1.776
  784TIP3   OH2 2315   2.143   3.825   2.971
  784TIP3    H1 2316   2.052   3.851   2.957
  784TIP3    H2 2317   2.189   3.907   2.989
  785TIP3   OH2 2318   0.056   3.069   2.733
  785TIP3    H1 2319   0.020   3.153   2.702
  785TIP3    H2 2320   0.037   3.068   2.827
  786TIP3   OH2 2321   3.157   3.896   0.820
  786TIP3    H1 2322   3.143   3.921   0.912
  786TIP3    H2 2323   3.076   3.922   0.776
  787TIP3   OH2 2324   4.573   5.614   5.125
  787TIP3    H1 2325   4.635   5.648   5.190
  787TIP3    H2 2326   4.576   5.519   5.136
  788TIP3   OH2 2327   6.336   1.948   0.779
  788TIP3    H1 2328   6.377   1.999   0.709
  788TIP3    H2 2329   6.293   2.014   0.834
  789TIP3   OH2 2330   0.842   0.662   5.543
  789TIP3    H1 2331   0.909   0.731   5.538
  789TIP3    H2 2332   0.872   0.605   5.614
  790TIP3   OH2 2333   5.800   1.741   5.844
  790TIP3    H1 2334   5.754   1.657   5.853
  790TIP3    H2 2335   5.866   1.725   5.776
  791TIP3   OH2 2336   0.957   4.345   4.587
  791TIP3    H1 2337   0.878   4.392   4.562
  791TIP3    H2 2338   0.974   4.373   4.677
  792TIP3   OH2 2339   4.583   2.289   2.178
  792TIP3    H1 2340   4.589   2.214   2.237
  792TIP3    H2 2341   4.492   2.319   2.186
  793TIP3   OH2 2342   0.804   4.963   4.393
  793TIP3    H1 2343   0.892   4.937   4.367
  793TIP3    H2 2344   0.780   5.034   4.333
  794TIP3   OH2 2345   1.801   3.780   5.181
  794TIP3    H1 2346   1.826   3.871   5.195
  794TIP3    H2 2347   1.743   3.782   5.105
  795TIP3   OH2 2348   5.805   5.933   5.414
  795TIP3    H1 2349   5.758   5.867   5.363
  795TIP3    H2 2350   5.802   6.012   5.360
  796TIP3   OH2 2351   0.215   5.438   1.272
  796TIP3    H1 2352   0.249   5.375   1.209
  796TIP3    H2 2353   0.201   5.518   1.222
  797TIP3   OH2 2354   5.937   1.616   2.636
  797TIP3    H1 2355   6.032   1.603   2.628
  797TIP3    H2 2356   5.914   1.668   2.558
  798TIP3   OH2 2357   6.153   2.160   5.455
  798TIP3    H1 2358   6.119   2.250   5.455
  798TIP3    H2 2359   6.179   2.145   5.364
  799TIP3   OH2 2360   1.847   4.971   5.677
  799TIP3    H1 2361   1.805   4.884   5.671
  799TIP3    H2 2362   1.840   4.993   5.770
  800TIP3   OH2 2363   0.889   4.849   5.060
  800TIP3    H1 2364   0.945   4.845   5.137
  800TIP3    H2 2365   0.803   4.819   5.091
  801TIP3   OH2 2366   0.807   5.875   5.290
  801TIP3    H1 2367   0.723   5.916   5.272
  801TIP3    H2 2368   0.786   5.787   5.319
  802TIP3   OH2 2369   4.516   3.189   3.825
  802TIP3    H1 2370   4.516   3.259   3.759
  802TIP3    H2 2371   4.467   3.118   3.784
  803TIP3   OH2 2372   3.111   5.889   5.214
  803TIP3    H1 2373   3.126   5.899   5.308
  803TIP3    H2 2374   3.047   5.958   5.193
  804TIP3   OH2 2375   6.072   2.141   2.246
  804TIP3    H1 2376   6.107   2.066   2.199
  804TIP3    H2 2377   5.977   2.130   2.241
  805TIP3   OH2 2378   4.502   1.545   0.366
  805TIP3    H1 2379   4.545   1.569   0.448
  805TIP3    H2 2380   4.572   1.509   0.311
  806TIP3   OH2 2381   2.869   4.943   2.048
  806TIP3    H1 2382   2.948   4.925   1.998
  806TIP3    H2 2383   2.892   4.919   2.138
  807TIP3   OH2 2384   4.806   4.046   2.245
  807TIP3    H1 2385   4.848   4.123   2.283
  807TIP3    H2 2386   4.878   3.991   2.215
  808TIP3   OH2 2387   3.779   5.539   2.296
  808TIP3    H1 2388   3.865   5.574   2.319
  808TIP3    H2 2389   3.796   5.453   2.258
  809TIP3   OH2 2390   6.442   0.604   3.058
  809TIP3    H1 2391   6.390   0.656   3.120
  809TIP3    H2 2392   6.513   0.663   3.032
  810TIP3   OH2 2393   1.427   3.817   1.161
  810TIP3    H1 2394   1.374   3.826   1.081
  810TIP3    H2 2395   1.485   3.893   1.160
  811TIP3   OH2 2396   1.644   6.530   4.581
  811TIP3    H1 2397   1.687   6.446   4.561
  811TIP3    H2 2398   1.667   6.548   4.672
  812TIP3   OH2 2399   7.102   3.200   4.944
  812TIP3    H1 2400   7.042   3.233   4.878
  812TIP3    H2 2401   7.119   3.110   4.917
  813TIP3   OH2 2402   1.420   0.991   1.124
  813TIP3    H1 2403   1.438   0.910   1.171
  813TIP3    H2 2404   1.385   0.963   1.039
  814TIP3   OH2 2405   2.453   3.564   0.571
  814TIP3    H1 2406   2.439   3.496   0.506
  814TIP3    H2 2407   2.534   3.540   0.615
  815TIP3   OH2 2408   6.537   2.828   5.444
  815TIP3    H1 2409   6.566   2.784   5.365
  815TIP3    H2 2410   6.555   2.920   5.429
  816TIP3   OH2 2411   6.738   2.466   2.763
  816TIP3    H1 2412   6.772   2.391   2.713
  816TIP3    H2 2413   6.723   2.534   2.698
  817TIP3   OH2 2414   4.653   1.834   4.447
  817TIP3    H1 2415   4.562   1.845   4.475
  817TIP3    H2 2416   4.691   1.776   4.514
  818TIP3   OH2 2417   1.231   0.651   0.039
  818TIP3    H1 2418   1.201   0.562   0.059
  818TIP3    H2 2419   1.150   0.703   0.031
  819TIP3   OH2 2420   6.871   5.389   3.803
  819TIP3    H1 2421   6.880   5.341   3.720
  819TIP3    H2 2422   6.961   5.404   3.831
  820TIP3   OH2 2423   4.494   4.038   0.131
  820TIP3    H1 2424   4.477   3.945   0.121
  820TIP3    H2 2425   4.479   4.056   0.224
  821TIP3   OH2 2426   6.040   1.711   4.440
  821TIP3    H1 2427   6.027   1.740   4.350
  821TIP3    H2 2428   6.030   1.789   4.493
  822TIP3   OH2 2429   3.802   1.560   1.715
  822TIP3    H1 2430   3.802   1.468   1.740
  822TIP3    H2 2431   3.880   1.571   1.661
  823TIP3   OH2 2432   3.305   4.665   5.084
  823TIP3    H1 2433   3.335   4.748   5.047
  823TIP3    H2 2434   3.244   4.630   5.019
  824TIP3   OH2 2435   4.340   3.791   2.035
  824TIP3    H1 2436   4.270   3.805   2.099
  824TIP3    H2 2437   4.325   3.856   1.967
  825TIP3   OH2 2438   0.300   6.452   1.276
  825TIP3    H1 2439   0.347   6.382   1.321
  825TIP3    H2 2440   0.365   6.488   1.215
  826TIP3   OH2 2441   4.805   5.069   3.437
  826TIP3    H1 2442   4.896   5.088   3.463
  826TIP3    H2 2443   4.790   5.125   3.361
  827TIP3   OH2 2444   2.710   0.417   2.776
  827TIP3    H1 2445   2.671   0.495   2.815
  827TIP3    H2 2446   2.802   0.438   2.765
  828TIP3   OH2 2447   2.759   5.954   0.825
  828TIP3    H1 2448   2.783   6.026   0.883
  828TIP3    H2 2449   2.670   5.973   0.798
  829TIP3   OH2 2450   5.195   1.208   2.631
  829TIP3    H1 2451   5.243   1.126   2.636
  829TIP3    H2 2452   5.118   1.194   2.687
  830TIP3   OH2 2453   7.150   4.387   5.127
  830TIP3    H1 2454   7.202   4.466   5.111
  830TIP3    H2 2455   7.070   4.420   5.168
  831TIP3   OH2 2456   3.418   3.544   5.204
  831TIP3    H1 2457   3.347   3.569   5.263
  831TIP3    H2 2458   3.410   3.449   5.197
  832TIP3   OH2 2459   4.576   4.122   1.361
  832TIP3    H1 2460   4.577   4.199   1.305
  832TIP3    H2 2461   4.526   4.057   1.312
  833TIP3   OH2 2462   6.103   6.200   0.992
  833TIP3    H1 2463   6.049   6.264   0.946
  833TIP3    H2 2464   6.144   6.249   1.063
  834TIP3   OH2 2465   5.604   3.614   1.754
  834TIP3    H1 2466   5.669   3.680   1.729
  834TIP3    H2 2467   5.612   3.607   1.849
  835TIP3   OH2 2468   6.728   3.725   2.325
  835TIP3    H1 2469   6.812   3.702   2.285
  835TIP3    H2 2470   6.673   3.648   2.313
  836TIP3   OH2 2471   0.936   6.639   2.008
  836TIP3    H1 2472   0.881   6.561   2.001
  836TIP3    H2 2473   0.967   6.639   2.098
  837TIP3   OH2 2474   2.265   3.125   0.327
  837TIP3    H1 2475   2.256   3.151   0.235
  837TIP3    H2 2476   2.177   3.097   0.353
  838TIP3   OH2 2477   1.133   6.716   0.715
  838TIP3    H1 2478   1.212   6.769   0.713
  838TIP3    H2 2479   1.156   6.641   0.769
  839TIP3   OH2 2480   3.601   2.713   1.283
  839TIP3    H1 2481   3.624   2.805   1.270
  839TIP3    H2 2482   3.659   2.666   1.223
  840TIP3   OH2 2483   6.193   5.734   2.157
  840TIP3    H1 2484   6.155   5.820   2.178
  840TIP3    H2 2485   6.238   5.708   2.237
  841TIP3   OH2 2486   2.920   4.709   0.737
  841TIP3    H1 2487   2.971   4.656   0.675
  841TIP3    H2 2488   2.846   4.741   0.686
  842TIP3   OH2 2489   0.487   5.980   1.343
  842TIP3    H1 2490   0.524   5.913   1.285
  842TIP3    H2 2491   0.561   6.009   1.397
  843TIP3   OH2 2492   6.791   0.778   3.723
  843TIP3    H1 2493   6.852   0.847   3.748
  843TIP3    H2 2494   6.777   0.792   3.629
  844TIP3   OH2 2495   3.660   2.370   5.192
  844TIP3    H1 2496   3.591   2.415   5.144
  844TIP3    H2 2497   3.741   2.395   5.147
  845TIP3   OH2 2498   3.466   6.530   3.992
  845TIP3    H1 2499   3.396   6.542   3.928
  845TIP3    H2 2500   3.505   6.617   4.001
  846TIP3   OH2 2501   2.753   0.828   1.681
  846TIP3    H1 2502   2.702   0.748   1.697
  846TIP3    H2 2503   2.844   0.802   1.695
  847TIP3   OH2 2504   6.918   5.093   5.100
  847TIP3    H1 2505   6.911   5.187   5.115
  847TIP3    H2 2506   6.935   5.056   5.187
  848TIP3   OH2 2507   0.151   4.860   1.970
  848TIP3    H1 2508   0.082   4.832   2.031
  848TIP3    H2 2509   0.209   4.915   2.023
  849TIP3   OH2 2510   1.593   3.915   4.297
  849TIP3    H1 2511   1.640   3.941   4.376
  849TIP3    H2 2512   1.516   3.868   4.329
  850TIP3   OH2 2513   5.735   0.378   1.831
  850TIP3    H1 2514   5.768   0.358   1.919
  850TIP3    H2 2515   5.727   0.293   1.788
  851TIP3   OH2 2516   1.071   4.133   0.772
  851TIP3    H1 2517   0.995   4.134   0.714
  851TIP3    H2 2518   1.117   4.051   0.750
  852TIP3   OH2 2519   0.183   2.137   2.184
  852TIP3    H1 2520   0.158   2.155   2.275
  852TIP3    H2 2521   0.278   2.126   2.187
  853TIP3   OH2 2522   3.008   0.830   5.798
  853TIP3    H1 2523   2.971   0.916   5.780
  853TIP3    H2 2524   3.091   0.848   5.843
  854TIP3   OH2 2525   6.160   5.509   3.012
  854TIP3    H1 2526   6.193   5.480   2.927
  854TIP3    H2 2527   6.111   5.434   3.046
  855TIP3   OH2 2528   0.819   5.742   2.095
  855TIP3    H1 2529   0.905   5.739   2.053
  855TIP3    H2 2530   0.762   5.692   2.037
  856TIP3   OH2 2531   3.410   6.780   0.567
  856TIP3    H1 2532   3.435   6.691   0.593
  856TIP3    H2 2533   3.369   6.770   0.482
  857TIP3   OH2 2534   5.317   4.427   0.535
  857TIP3    H1 2535   5.285   4.346   0.575
  857TIP3    H2 2536   5.322   4.490   0.607
  858TIP3   OH2 2537   3.236   4.361   0.794
  858TIP3    H1 2538   3.237   4.449   0.831
  858TIP3    H2 2539   3.298   4.312   0.848
  859TIP3   OH2 2540   1.234   1.500   4.692
  859TIP3    H1 2541   1.231   1.586   4.650
  859TIP3    H2 2542   1.231   1.438   4.619
  860TIP3   OH2 2543   0.990   4.592   4.374
  860TIP3    H1 2544   1.018   4.619   4.461
  860TIP3    H2 2545   1.056   4.528   4.347
  861TIP3   OH2 2546   1.731   5.298   3.584
  861TIP3    H1 2547   1.768   5.386   3.586
  861TIP3    H2 2548   1.650   5.307   3.533
  862TIP3   OH2 2549   3.425   0.904   2.227
  862TIP3    H1 2550   3.408   0.822   2.179
  862TIP3    H2 2551   3.518   0.900   2.248
  863TIP3   OH2 2552   4.734   5.284   2.774
  863TIP3    H1 2553   4.678   5.290   2.851
  863TIP3    H2 2554   4.789   5.363   2.778
  864TIP3   OH2 2555   1.276   1.770   0.988
  864TIP3    H1 2556   1.297   1.679   0.970
  864TIP3    H2 2557   1.285   1.778   1.083
  865TIP3   OH2 2558   7.195   6.479   4.286
  865TIP3    H1 2559   7.233   6.433   4.212
  865TIP3    H2 2560   7.144   6.550   4.247
  866TIP3   OH2 2561   7.223   1.515   4.597
  866TIP3    H1 2562   7.196   1.508   4.505
  866TIP3    H2 2563   7.203   1.429   4.634
  867TIP3   OH2 2564   6.921   2.234   1.631
  867TIP3    H1 2565   6.893   2.207   1.543
  867TIP3    H2 2566   6.953   2.154   1.672
  868TIP3   OH2 2567   4.838   6.555   3.288
  868TIP3    H1 2568   4.822   6.549   3.382
  868TIP3    H2 2569   4.768   6.504   3.248
  869TIP3   OH2 2570   1.026   0.350   1.212
  869TIP3    H1 2571   1.036   0.312   1.125
  869TIP3    H2 2572   0.977   0.283   1.261
  870TIP3   OH2 2573   6.791   3.540   2.124
  870TIP3    H1 2574   6.778   3.470   2.059
  870TIP3    H2 2575   6.843   3.606   2.077
  871TIP3   OH2 2576   5.572   1.118   2.273
  871TIP3    H1 2577   5.616   1.102   2.190
  871TIP3    H2 2578   5.503   1.182   2.251
  872TIP3   OH2 2579   7.078   6.303   0.818
  872TIP3    H1 2580   7.143   6.338   0.879
  872TIP3    H2 2581   7.028   6.240   0.869
  873TIP3   OH2 2582   2.513   0.318   0.651
  873TIP3    H1 2583   2.579   0.382   0.679
  873TIP3    H2 2584   2.465   0.296   0.731
  874TIP3   OH2 2585   5.765   1.481   3.108
  874TIP3    H1 2586   5.784   1.523   3.024
  874TIP3    H2 2587   5.753   1.554   3.169
  875TIP3   OH2 2588   5.902   3.892   0.455
  875TIP3    H1 2589   5.866   3.964   0.508
  875TIP3    H2 2590   5.945   3.835   0.519
  876TIP3   OH2 2591   1.111   0.434   3.896
  876TIP3    H1 2592   1.202   0.461   3.892
  876TIP3    H2 2593   1.106   0.355   3.842
  877TIP3   OH2 2594   3.574   2.952   0.961
  877TIP3    H1 2595   3.515   2.930   0.889
  877TIP3    H2 2596   3.661   2.929   0.929
  878TIP3   OH2 2597   6.132   0.628   2.993
  878TIP3    H1 2598   6.122   0.549   2.939
  878TIP3    H2 2599   6.152   0.594   3.081
  879TIP3   OH2 2600   6.673   6.281   0.653
  879TIP3    H1 2601   6.587   6.241   0.652
  879TIP3    H2 2602   6.657   6.374   0.635
  880TIP3   OH2 2603   3.718   2.393   3.839
  880TIP3    H1 2604   3.736   2.299   3.826
  880TIP3    H2 2605   3.684   2.422   3.754
  881TIP3   OH2 2606   3.955   2.084   3.191
  881TIP3    H1 2607   3.933   2.040   3.273
  881TIP3    H2 2608   4.044   2.117   3.205
  882TIP3   OH2 2609   5.520   2.804   3.941
  882TIP3    H1 2610   5.584   2.874   3.926
  882TIP3    H2 2611   5.450   2.847   3.991
  883TIP3   OH2 2612   3.958   0.587   4.126
  883TIP3    H1 2613   3.981   0.599   4.034
  883TIP3    H2 2614   4.037   0.611   4.174
  884TIP3   OH2 2615   0.098   1.812   0.376
  884TIP3    H1 2616   0.184   1.845   0.351
  884TIP3    H2 2617   0.116   1.736   0.432
  885TIP3   OH2 2618   2.350   3.564   2.015
  885TIP3    H1 2619   2.294   3.601   2.083
  885TIP3    H2 2620   2.374   3.478   2.047
  886TIP3   OH2 2621   2.951   1.582   2.420
  886TIP3    H1 2622   3.046   1.597   2.426
  886TIP3    H2 2623   2.937   1.558   2.329
  887TIP3   OH2 2624   2.833   2.227   0.624
  887TIP3    H1 2625   2.743   2.255   0.609
  887TIP3    H2 2626   2.855   2.176   0.546
  888TIP3   OH2 2627   1.469   4.850   1.047
  888TIP3    H1 2628   1.410   4.849   0.971
  888TIP3    H2 2629   1.483   4.943   1.065
  889TIP3   OH2 2630   6.627   0.931   5.248
  889TIP3    H1 2631   6.697   0.869   5.270
  889TIP3    H2 2632   6.666   1.017   5.264
  890TIP3   OH2 2633   6.024   0.756   5.902
  890TIP3    H1 2634   6.057   0.668   5.914
  890TIP3    H2 2635   6.061   0.785   5.818
  891TIP3   OH2 2636   4.685   6.203   2.711
  891TIP3    H1 2637   4.614   6.251   2.669
  891TIP3    H2 2638   4.765   6.245   2.678
  892TIP3   OH2 2639   3.865   0.270   5.534
  892TIP3    H1 2640   3.892   0.226   5.453
  892TIP3    H2 2641   3.943   0.320   5.560
  893TIP3   OH2 2642   0.454   5.361   4.279
  893TIP3    H1 2643   0.545   5.331   4.281
  893TIP3    H2 2644   0.455   5.440   4.224
  894TIP3   OH2 2645   0.261   3.008   4.704
  894TIP3    H1 2646   0.216   3.087   4.672
  894TIP3    H2 2647   0.195   2.961   4.754
  895TIP3   OH2 2648   1.085   2.918   2.794
  895TIP3    H1 2649   1.155   2.970   2.832
  895TIP3    H2 2650   1.078   2.948   2.703
  896TIP3   OH2 2651   5.612   4.267   2.470
  896TIP3    H1 2652   5.651   4.181   2.487
  896TIP3    H2 2653   5.684   4.319   2.434
  897TIP3   OH2 2654   0.026   1.374   3.777
  897TIP3    H1 2655  -0.027   1.388   3.699
  897TIP3    H2 2656   0.115   1.395   3.749
  898TIP3   OH2 2657   4.988   4.768   1.193
  898TIP3    H1 2658   4.937   4.722   1.126
  898TIP3    H2 2659   4.939   4.755   1.274
  899TIP3   OH2 2660   3.282   2.750   1.699
  899TIP3    H1 2661   3.273   2.658   1.723
  899TIP3    H2 2662   3.296   2.795   1.782
  900TIP3   OH2 2663   5.249   6.547   1.137
  900TIP3    H1 2664   5.189   6.554   1.063
  900TIP3    H2 2665   5.228   6.621   1.193
  901TIP3   OH2 2666   5.214   1.766   2.942
  901TIP3    H1 2667   5.130   1.752   2.899
  901TIP3    H2 2668   5.261   1.684   2.930
  902TIP3   OH2 2669   1.368   0.841   2.956
  902TIP3    H1 2670   1.401   0.910   2.899
  902TIP3    H2 2671   1.446   0.804   2.998
  903TIP3   OH2 2672   1.272   2.138   0.221
  903TIP3    H1 2673   1.245   2.053   0.186
  903TIP3    H2 2674   1.216   2.151   0.298
  904TIP3   OH2 2675   4.002   5.141   4.899
  904TIP3    H1 2676   3.908   5.149   4.916
  904TIP3    H2 2677   4.032   5.232   4.894
  905TIP3   OH2 2678   2.959   3.984   3.252
  905TIP3    H1 2679   3.027   3.924   3.221
  905TIP3    H2 2680   2.999   4.029   3.327
  906TIP3   OH2 2681   1.801   5.763   1.534
  906TIP3    H1 2682   1.893   5.791   1.536
  906TIP3    H2 2683   1.777   5.768   1.441
  907TIP3   OH2 2684   3.902   1.100   1.057
  907TIP3    H1 2685   3.885   1.126   1.148
  907TIP3    H2 2686   3.955   1.171   1.021
  908TIP3   OH2 2687   4.266   5.244   3.859
  908TIP3    H1 2688   4.179   5.204   3.852
  908TIP3    H2 2689   4.273   5.299   3.781
  909TIP3   OH2 2690   6.757   5.771   2.479
  909TIP3    H1 2691   6.786   5.838   2.540
  909TIP3    H2 2692   6.704   5.819   2.415
  910TIP3   OH2 2693   6.347   1.027   5.220
  910TIP3    H1 2694   6.362   1.120   5.201
  910TIP3    H2 2695   6.434   0.993   5.239
  911TIP3   OH2 2696   6.454   3.757   3.774
  911TIP3    H1 2697   6.431   3.748   3.681
  911TIP3    H2 2698   6.526   3.821   3.774
  912TIP3   OH2 2699   0.027   0.243   4.002
  912TIP3    H1 2700  -0.002   0.174   4.060
  912TIP3    H2 2701  -0.022   0.321   4.031
  913TIP3   OH2 2702   0.048   2.840   2.591
  913TIP3    H1 2703  -0.043   2.825   2.563
  913TIP3    H2 2704   0.047   2.929   2.626
  914TIP3   OH2 2705   5.910   1.014   2.215
  914TIP3    H1 2706   5.858   1.056   2.146
  914TIP3    H2 2707   5.857   0.939   2.242
  915TIP3   OH2 2708   5.890   1.821   3.003
  915TIP3    H1 2709   5.958   1.864   3.055
  915TIP3    H2 2710   5.938   1.758   2.949
  916TIP3   OH2 2711   2.029   0.237   2.044
  916TIP3    H1 2712   1.948   0.282   2.020
  916TIP3    H2 2713   2.068   0.291   2.112
  917TIP3   OH2 2714   1.432   6.244   4.422
  917TIP3    H1 2715   1.417   6.290   4.504
  917TIP3    H2 2716   1.481   6.165   4.447
  918TIP3   OH2 2717   4.120   6.178   5.841
  918TIP3    H1 2718   4.161   6.164   5.926
  918TIP3    H2 2719   4.047   6.116   5.840
  919TIP3   OH2 2720   1.022   0.028   4.200
  919TIP3    H1 2721   0.960   0.096   4.226
  919TIP3    H2 2722   1.011   0.021   4.105
  920TIP3   OH2 2723   5.945   3.466   4.768
  920TIP3    H1 2724   5.926   3.480   4.675
  920TIP3    H2 2725   6.036   3.493   4.778
  921TIP3   OH2 2726   5.504   6.047   2.915
  921TIP3    H1 2727   5.489   5.997   2.995
  921TIP3    H2 2728   5.557   5.989   2.860
  922TIP3   OH2 2729   2.136   4.600   1.466
  922TIP3    H1 2730   2.048   4.626   1.439
  922TIP3    H2 2731   2.141   4.626   1.558
  923TIP3   OH2 2732   2.218   1.368   3.674
  923TIP3    H1 2733   2.127   1.342   3.658
  923TIP3    H2 2734   2.214   1.424   3.751
  924TIP3   OH2 2735   6.856   2.970   0.291
  924TIP3    H1 2736   6.818   3.023   0.361
  924TIP3    H2 2737   6.919   3.030   0.249
  925TIP3   OH2 2738   4.321   6.354   0.371
  925TIP3    H1 2739   4.228   6.376   0.379
  925TIP3    H2 2740   4.360   6.430   0.328
  926TIP3   OH2 2741   5.988   3.749   0.067
  926TIP3    H1 2742   5.934   3.672   0.087
  926TIP3    H2 2743   6.025   3.731  -0.019
  927TIP3   OH2 2744   0.545   1.174   1.047
  927TIP3    H1 2745   0.546   1.161   1.142
  927TIP3    H2 2746   0.474   1.237   1.033
  928TIP3   OH2 2747   0.694   1.463   2.597
  928TIP3    H1 2748   0.611   1.496   2.564
  928TIP3    H2 2749   0.750   1.541   2.602
  929TIP3   OH2 2750   2.972   5.166   0.310
  929TIP3    H1 2751   2.940   5.147   0.221
  929TIP3    H2 2752   3.067   5.164   0.301
  930TIP3   OH2 2753   5.181   3.487   0.177
  930TIP3    H1 2754   5.220   3.469   0.262
  930TIP3    H2 2755   5.090   3.509   0.196
  931TIP3   OH2 2756   5.516   3.684   4.472
  931TIP3    H1 2757   5.605   3.661   4.499
  931TIP3    H2 2758   5.491   3.614   4.413
  932TIP3   OH2 2759   3.192   3.103   4.246
  932TIP3    H1 2760   3.147   3.023   4.273
  932TIP3    H2 2761   3.207   3.092   4.153
  933TIP3   OH2 2762   2.339   3.870   4.470
  933TIP3    H1 2763   2.251   3.877   4.507
  933TIP3    H2 2764   2.392   3.931   4.521
  934TIP3   OH2 2765   0.949   0.565   3.235
  934TIP3    H1 2766   0.895   0.519   3.170
  934TIP3    H2 2767   0.887   0.621   3.282
  935TIP3   OH2 2768   2.796   0.793   0.304
  935TIP3    H1 2769   2.841   0.855   0.361
  935TIP3    H2 2770   2.768   0.723   0.363
  936TIP3   OH2 2771   4.511   5.276   3.967
  936TIP3    H1 2772   4.497   5.278   4.061
  936TIP3    H2 2773   4.424   5.258   3.930
  937TIP3   OH2 2774   6.231   4.678   1.870
  937TIP3    H1 2775   6.309   4.636   1.835
  937TIP3    H2 2776   6.264   4.744   1.930
  938TIP3   OH2 2777   0.941   2.078   2.756
  938TIP3    H1 2778   0.951   1.988   2.728
  938TIP3    H2 2779   1.024   2.100   2.798
  939TIP3   OH2 2780   2.692   2.485   1.772
  939TIP3    H1 2781   2.732   2.411   1.819
  939TIP3    H2 2782   2.646   2.444   1.698
  940TIP3   OH2 2783   7.184   6.329   1.175
  940TIP3    H1 2784   7.180   6.254   1.235
  940TIP3    H2 2785   7.093   6.348   1.155
  941TIP3   OH2 2786   3.000   0.546   3.866
  941TIP3    H1 2787   2.990   0.605   3.791
  941TIP3    H2 2788   2.916   0.548   3.910
  942TIP3   OH2 2789   2.692   0.707   3.817
  942TIP3    H1 2790   2.636   0.649   3.766
  942TIP3    H2 2791   2.724   0.653   3.889
  943TIP3   OH2 2792   2.292   4.781   0.198
  943TIP3    H1 2793   2.213   4.757   0.246
  943TIP3    H2 2794   2.260   4.837   0.126
  944TIP3   OH2 2795   6.996   0.986   1.947
  944TIP3    H1 2796   7.071   0.929   1.925
  944TIP3    H2 2797   7.008   1.006   2.039
  945TIP3   OH2 2798   1.275   5.045   1.215
  945TIP3    H1 2799   1.292   4.956   1.246
  945TIP3    H2 2800   1.311   5.101   1.283
  946TIP3   OH2 2801   0.597   0.411   3.480
  946TIP3    H1 2802   0.551   0.359   3.545
  946TIP3    H2 2803   0.535   0.482   3.458
  947TIP3   OH2 2804   1.071   5.677   1.350
  947TIP3    H1 2805   1.124   5.604   1.321
  947TIP3    H2 2806   1.129   5.753   1.344
  948TIP3   OH2 2807   2.905   1.464   5.283
  948TIP3    H1 2808   2.809   1.463   5.291
  948TIP3    H2 2809   2.930   1.372   5.278
  949TIP3   OH2 2810   0.552   0.072   2.151
  949TIP3    H1 2811   0.514   0.005   2.207
  949TIP3    H2 2812   0.491   0.146   2.155
  950TIP3   OH2 2813   4.345   2.173   0.152
  950TIP3    H1 2814   4.378   2.109   0.088
  950TIP3    H2 2815   4.424   2.207   0.194
  951TIP3   OH2 2816   4.896   1.786   3.869
  951TIP3    H1 2817   4.922   1.747   3.785
  951TIP3    H2 2818   4.901   1.880   3.854
  952TIP3   OH2 2819   1.085   2.949   0.478
  952TIP3    H1 2820   1.096   3.043   0.468
  952TIP3    H2 2821   1.045   2.920   0.396
  953TIP3   OH2 2822   6.539   4.396   4.280
  953TIP3    H1 2823   6.572   4.375   4.192
  953TIP3    H2 2824   6.456   4.349   4.285
  954TIP3   OH2 2825   2.671   2.412   4.520
  954TIP3    H1 2826   2.695   2.384   4.431
  954TIP3    H2 2827   2.742   2.470   4.547
  955TIP3   OH2 2828   3.053   0.845   2.599
  955TIP3    H1 2829   3.102   0.850   2.517
  955TIP3    H2 2830   3.105   0.895   2.662
  956TIP3   OH2 2831   5.106   3.337   1.464
  956TIP3    H1 2832   5.163   3.412   1.450
  956TIP3    H2 2833   5.063   3.323   1.379
  957TIP3   OH2 2834   7.141   3.674   4.449
  957TIP3    H1 2835   7.067   3.734   4.444
  957TIP3    H2 2836   7.213   3.727   4.484
  958TIP3   OH2 2837   5.115   4.639   4.903
  958TIP3    H1 2838   5.053   4.661   4.973
  958TIP3    H2 2839   5.087   4.691   4.828
  959TIP3   OH2 2840   0.005   0.440   0.981
  959TIP3    H1 2841   0.003   0.359   0.929
  959TIP3    H2 2842  -0.069   0.490   0.949
  960TIP3   OH2 2843   5.984   6.803   0.594
  960TIP3    H1 2844   6.069   6.846   0.583
  960TIP3    H2 2845   5.922   6.875   0.603
  961TIP3   OH2 2846   3.208   5.669   4.488
  961TIP3    H1 2847   3.120   5.645   4.459
  961TIP3    H2 2848   3.255   5.693   4.408
  962TIP3   OH2 2849   6.792   0.795   1.625
  962TIP3    H1 2850   6.769   0.851   1.699
  962TIP3    H2 2851   6.747   0.832   1.550
  963TIP3   OH2 2852   0.151   1.555   0.851
  963TIP3    H1 2853   0.073   1.502   0.864
  963TIP3    H2 2854   0.118   1.640   0.821
  964TIP3   OH2 2855   5.969   2.627   4.269
  964TIP3    H1 2856   6.036   2.563   4.291
  964TIP3    H2 2857   5.887   2.586   4.294
  965TIP3   OH2 2858   3.716   2.425   4.877
  965TIP3    H1 2859   3.769   2.428   4.797
  965TIP3    H2 2860   3.639   2.477   4.857
  966TIP3   OH2 2861   6.618   6.781   1.369
  966TIP3    H1 2862   6.624   6.800   1.462
  966TIP3    H2 2863   6.622   6.685   1.364
  967TIP3   OH2 2864   3.872   4.649   2.166
  967TIP3    H1 2865   3.885   4.557   2.145
  967TIP3    H2 2866   3.824   4.683   2.091
  968TIP3   OH2 2867   3.433   4.298   5.157
  968TIP3    H1 2868   3.415   4.214   5.199
  968TIP3    H2 2869   3.355   4.351   5.176
  969TIP3   OH2 2870   5.477   1.665   4.264
  969TIP3    H1 2871   5.489   1.728   4.335
  969TIP3    H2 2872   5.503   1.581   4.301
  970TIP3   OH2 2873   0.980   5.717   4.263
  970TIP3    H1 2874   1.039   5.743   4.192
  970TIP3    H2 2875   0.973   5.795   4.318
  971TIP3   OH2 2876   3.588   6.644   4.776
  971TIP3    H1 2877   3.499   6.645   4.811
  971TIP3    H2 2878   3.626   6.727   4.803
  972TIP3   OH2 2879   0.212   6.250   5.293
  972TIP3    H1 2880   0.159   6.288   5.363
  972TIP3    H2 2881   0.152   6.242   5.219
  973TIP3   OH2 2882   5.176   1.373   1.340
  973TIP3    H1 2883   5.117   1.303   1.367
  973TIP3    H2 2884   5.223   1.337   1.264
  974TIP3   OH2 2885   5.462   2.831   2.167
  974TIP3    H1 2886   5.459   2.903   2.103
  974TIP3    H2 2887   5.470   2.752   2.114
  975TIP3   OH2 2888   0.973   3.396   2.760
  975TIP3    H1 2889   0.960   3.394   2.854
  975TIP3    H2 2890   1.068   3.391   2.748
  976TIP3   OH2 2891   5.100   2.964   2.520
  976TIP3    H1 2892   5.048   3.022   2.575
  976TIP3    H2 2893   5.042   2.890   2.502
  977TIP3   OH2 2894   0.467   3.608   5.062
  977TIP3    H1 2895   0.417   3.688   5.048
  977TIP3    H2 2896   0.406   3.538   5.038
  978TIP3   OH2 2897   7.072   0.534   3.541
  978TIP3    H1 2898   6.984   0.562   3.567
  978TIP3    H2 2899   7.129   0.605   3.570
  979TIP3   OH2 2900   1.555   2.542   0.653
  979TIP3    H1 2901   1.591   2.488   0.723
  979TIP3    H2 2902   1.531   2.480   0.585
  980TIP3   OH2 2903   4.525   0.993   5.216
  980TIP3    H1 2904   4.491   1.072   5.258
  980TIP3    H2 2905   4.616   0.989   5.246
  981TIP3   OH2 2906   2.514   3.264   5.231
  981TIP3    H1 2907   2.498   3.347   5.186
  981TIP3    H2 2908   2.483   3.197   5.171
  982TIP3   OH2 2909   3.710   3.936   0.405
  982TIP3    H1 2910   3.787   3.981   0.440
  982TIP3    H2 2911   3.747   3.866   0.350
  983TIP3   OH2 2912   0.952   6.504   1.230
  983TIP3    H1 2913   0.882   6.567   1.249
  983TIP3    H2 2914   1.001   6.498   1.313
  984TIP3   OH2 2915   4.583   1.969   3.173
  984TIP3    H1 2916   4.495   1.960   3.209
  984TIP3    H2 2917   4.571   1.967   3.078
  985TIP3   OH2 2918   2.736   3.564   0.150
  985TIP3    H1 2919   2.775   3.505   0.085
  985TIP3    H2 2920   2.655   3.594   0.109
  986TIP3   OH2 2921   6.343   4.094   0.065
  986TIP3    H1 2922   6.420   4.102   0.122
  986TIP3    H2 2923   6.351   4.008   0.026
  987TIP3   OH2 2924   4.853   2.198   0.033
  987TIP3    H1 2925   4.816   2.165  -0.049
  987TIP3    H2 2926   4.937   2.237   0.008
  988TIP3   OH2 2927   6.034   1.774   5.226
  988TIP3    H1 2928   5.986   1.694   5.204
  988TIP3    H2 2929   5.966   1.834   5.258
  989TIP3   OH2 2930   5.048   2.291   1.858
  989TIP3    H1 2931   4.978   2.264   1.797
  989TIP3    H2 2932   5.045   2.385   1.857
  990TIP3   OH2 2933   1.300   5.032   1.898
  990TIP3    H1 2934   1.248   4.954   1.881
  990TIP3    H2 2935   1.391   5.000   1.901
  991TIP3   OH2 2936   1.051   1.196   5.745
  991TIP3    H1 2937   1.089   1.237   5.668
  991TIP3    H2 2938   0.980   1.142   5.711
  992TIP3   OH2 2939   2.656   0.094   3.278
  992TIP3    H1 2940   2.750   0.074   3.279
  992TIP3    H2 2941   2.613   0.008   3.282
  993TIP3   OH2 2942   2.783   1.815   1.350
  993TIP3    H1 2943   2.729   1.869   1.293
  993TIP3    H2 2944   2.865   1.803   1.301
  994TIP3   OH2 2945   6.289   1.769   5.347
  994TIP3    H1 2946   6.200   1.789   5.319
  994TIP3    H2 2947   6.284   1.678   5.378
  995TIP3   OH2 2948   3.433   1.702   3.837
  995TIP3    H1 2949   3.366   1.769   3.841
  995TIP3    H2 2950   3.516   1.750   3.837
  996TIP3   OH2 2951   5.512   3.587   0.267
  996TIP3    H1 2952   5.451   3.631   0.327
  996TIP3    H2 2953   5.595   3.634   0.278
  997TIP3   OH2 2954   2.269   2.447   5.519
  997TIP3    H1 2955   2.195   2.414   5.468
  997TIP3    H2 2956   2.343   2.442   5.459
  998TIP3   OH2 2957   0.095   0.353   4.612
  998TIP3    H1 2958   0.084   0.282   4.548
  998TIP3    H2 2959   0.185   0.344   4.643
  999TIP3   OH2 2960   5.706   5.430   1.010
  999TIP3    H1 2961   5.626   5.440   0.958
  999TIP3    H2 2962   5.754   5.511   0.994
 1000TIP3   OH2 2963   2.245   2.372   3.573
 1000TIP3    H1 2964   2.244   2.404   3.664
 1000TIP3    H2 2965   2.250   2.451   3.520
 1001TIP3   OH2 2966   7.176   4.518   2.036
 1001TIP3    H1 2967   7.263   4.491   2.064
 1001TIP3    H2 2968   7.173   4.613   2.053
 1002TIP3   OH2 2969   7.185   0.908   4.696
 1002TIP3    H1 2970   7.209   0.816   4.684
 1002TIP3    H2 2971   7.116   0.923   4.631
 1003TIP3   OH2 2972   3.647   0.277   4.447
 1003TIP3    H1 2973   3.603   0.192   4.450
 1003TIP3    H2 2974   3.613   0.324   4.523
 1004TIP3   OH2 2975   3.850   0.012   5.899
 1004TIP3    H1 2976   3.912   0.079   5.927
 1004TIP3    H2 2977   3.786   0.059   5.846
 1005TIP3   OH2 2978   0.834   3.820   4.806
 1005TIP3    H1 2979   0.881   3.780   4.879
 1005TIP3    H2 2980   0.875   3.906   4.795
 1006TIP3   OH2 2981   2.747   3.177   5.410
 1006TIP3    H1 2982   2.670   3.188   5.354
 1006TIP3    H2 2983   2.716   3.123   5.482
 1007TIP3   OH2 2984   4.781   4.819   0.554
 1007TIP3    H1 2985   4.788   4.730   0.589
 1007TIP3    H2 2986   4.816   4.875   0.623
 1008TIP3   OH2 2987   2.810   1.993   0.389
 1008TIP3    H1 2988   2.827   1.902   0.415
 1008TIP3    H2 2989   2.722   2.012   0.422
 1009TIP3   OH2 2990   4.000   6.350   3.065
 1009TIP3    H1 2991   4.042   6.430   3.095
 1009TIP3    H2 2992   4.052   6.322   2.989
 1010TIP3   OH2 2993   5.694   6.658   3.256
 1010TIP3    H1 2994   5.654   6.724   3.199
 1010TIP3    H2 2995   5.622   6.622   3.307
 1011TIP3   OH2 2996   6.641   5.820   5.077
 1011TIP3    H1 2997   6.587   5.811   5.155
 1011TIP3    H2 2998   6.730   5.828   5.110
 1012TIP3   OH2 2999   6.885   5.505   2.727
 1012TIP3    H1 3000   6.882   5.546   2.813
 1012TIP3    H2 3001   6.831   5.427   2.736
 1013TIP3   OH2 3002   0.933   0.254   4.580
 1013TIP3    H1 3003   0.937   0.349   4.568
 1013TIP3    H2 3004   0.843   0.231   4.556
 1014TIP3   OH2 3005   6.701   4.479   1.463
 1014TIP3    H1 3006   6.767   4.461   1.531
 1014TIP3    H2 3007   6.687   4.395   1.420
 1015TIP3   OH2 3008   6.825   0.375   1.444
 1015TIP3    H1 3009   6.808   0.283   1.462
 1015TIP3    H2 3010   6.921   0.381   1.437
 1016TIP3   OH2 3011   4.415   2.770   3.122
 1016TIP3    H1 3012   4.339   2.796   3.174
 1016TIP3    H2 3013   4.387   2.691   3.076
 1017TIP3   OH2 3014   6.966   4.024   2.793
 1017TIP3    H1 3015   7.036   4.083   2.766
 1017TIP3    H2 3016   7.000   3.937   2.774
 1018TIP3   OH2 3017   2.518   6.232   1.876
 1018TIP3    H1 3018   2.448   6.286   1.838
 1018TIP3    H2 3019   2.506   6.241   1.971
 1019TIP3   OH2 3020   5.895   1.174   0.900
 1019TIP3    H1 3021   5.849   1.152   0.819
 1019TIP3    H2 3022   5.930   1.090   0.931
 1020TIP3   OH2 3023   0.432   2.957   0.944
 1020TIP3    H1 3024   0.473   3.031   0.990
 1020TIP3    H2 3025   0.430   2.887   1.009
 1021TIP3   OH2 3026   5.164   2.884   1.810
 1021TIP3    H1 3027   5.257   2.906   1.817
 1021TIP3    H2 3028   5.119   2.968   1.821
 1022TIP3   OH2 3029   3.476   1.127   1.554
 1022TIP3    H1 3030   3.396   1.176   1.535
 1022TIP3    H2 3031   3.475   1.054   1.492
 1023TIP3   OH2 3032   3.465   5.526   2.627
 1023TIP3    H1 3033   3.502   5.459   2.684
 1023TIP3    H2 3034   3.482   5.608   2.674
 1024TIP3   OH2 3035   1.110   1.810   5.787
 1024TIP3    H1 3036   1.193   1.776   5.821
 1024TIP3    H2 3037   1.136   1.884   5.732
 1025TIP3   OH2 3038   2.424   4.285   1.573
 1025TIP3    H1 3039   2.424   4.308   1.480
 1025TIP3    H2 3040   2.442   4.191   1.574
 1026TIP3   OH2 3041   2.384   1.602   4.096
 1026TIP3    H1 3042   2.355   1.662   4.027
 1026TIP3    H2 3043   2.308   1.546   4.113
 1027TIP3   OH2 3044   1.722   2.661   0.930
 1027TIP3    H1 3045   1.705   2.567   0.936
 1027TIP3    H2 3046   1.799   2.668   0.873
 1028TIP3   OH2 3047   2.645   1.649   3.734
 1028TIP3    H1 3048   2.678   1.655   3.824
 1028TIP3    H2 3049   2.690   1.720   3.688
 1029TIP3   OH2 3050   1.158   5.872   3.682
 1029TIP3    H1 3051   1.200   5.915   3.607
 1029TIP3    H2 3052   1.072   5.915   3.689
 1030TIP3   OH2 3053   6.505   3.951   2.631
 1030TIP3    H1 3054   6.595   3.981   2.643
 1030TIP3    H2 3055   6.476   3.926   2.719
 1031TIP3   OH2 3056   0.580   6.066   2.885
 1031TIP3    H1 3057   0.541   6.091   2.801
 1031TIP3    H2 3058   0.538   6.124   2.949
 1032TIP3   OH2 3059   4.412   4.727   1.825
 1032TIP3    H1 3060   4.415   4.782   1.904
 1032TIP3    H2 3061   4.426   4.638   1.858
 1033TIP3   OH2 3062   1.200   5.562   3.388
 1033TIP3    H1 3063   1.107   5.538   3.388
 1033TIP3    H2 3064   1.246   5.478   3.390
 1034TIP3   OH2 3065   6.966   0.606   5.458
 1034TIP3    H1 3066   6.915   0.615   5.378
 1034TIP3    H2 3067   6.947   0.517   5.489
 1035TIP3   OH2 3068   4.834   1.774   1.813
 1035TIP3    H1 3069   4.860   1.682   1.820
 1035TIP3    H2 3070   4.902   1.821   1.862
 1036TIP3   OH2 3071   2.260   3.328   4.330
 1036TIP3    H1 3072   2.202   3.315   4.254
 1036TIP3    H2 3073   2.203   3.367   4.396
 1037TIP3   OH2 3074   0.751   1.491   0.933
 1037TIP3    H1 3075   0.701   1.548   0.992
 1037TIP3    H2 3076   0.738   1.529   0.846
 1038TIP3   OH2 3077   0.357   2.758   3.564
 1038TIP3    H1 3078   0.338   2.726   3.652
 1038TIP3    H2 3079   0.413   2.835   3.578
 1039TIP3   OH2 3080   6.067   2.900   3.681
 1039TIP3    H1 3081   6.157   2.881   3.711
 1039TIP3    H2 3082   6.038   2.818   3.642
 1040TIP3   OH2 3083   3.317   6.616   4.824
 1040TIP3    H1 3084   3.222   6.621   4.825
 1040TIP3    H2 3085   3.338   6.545   4.885
 1041TIP3   OH2 3086   4.726   4.086   1.840
 1041TIP3    H1 3087   4.679   4.011   1.803
 1041TIP3    H2 3088   4.699   4.088   1.932
 1042TIP3   OH2 3089   0.921   5.018   1.720
 1042TIP3    H1 3090   0.852   4.953   1.729
 1042TIP3    H2 3091   0.880   5.091   1.674
 1043TIP3   OH2 3092   0.907   0.965   3.332
 1043TIP3    H1 3093   0.937   0.883   3.371
 1043TIP3    H2 3094   0.895   0.944   3.239
 1044TIP3   OH2 3095   0.182   0.322   5.173
 1044TIP3    H1 3096   0.122   0.331   5.247
 1044TIP3    H2 3097   0.140   0.371   5.103
 1045TIP3   OH2 3098   6.267   2.920   0.627
 1045TIP3    H1 3099   6.185   2.880   0.598
 1045TIP3    H2 3100   6.291   2.872   0.706
 1046TIP3   OH2 3101   1.409   2.591   1.205
 1046TIP3    H1 3102   1.426   2.497   1.192
 1046TIP3    H2 3103   1.389   2.599   1.298
 1047TIP3   OH2 3104   7.137   4.254   1.843
 1047TIP3    H1 3105   7.150   4.215   1.929
 1047TIP3    H2 3106   7.111   4.344   1.860
 1048TIP3   OH2 3107   4.844   0.672   4.971
 1048TIP3    H1 3108   4.820   0.646   4.882
 1048TIP3    H2 3109   4.760   0.687   5.015
 1049TIP3   OH2 3110   3.546   5.671   2.383
 1049TIP3    H1 3111   3.513   5.639   2.467
 1049TIP3    H2 3112   3.633   5.630   2.374
 1050TIP3   OH2 3113   0.610   2.980   2.901
 1050TIP3    H1 3114   0.532   3.036   2.892
 1050TIP3    H2 3115   0.647   2.977   2.813
 1051TIP3   OH2 3116   2.801   4.345   1.315
 1051TIP3    H1 3117   2.787   4.346   1.409
 1051TIP3    H2 3118   2.765   4.260   1.287
 1052TIP3   OH2 3119   5.452   5.633   3.007
 1052TIP3    H1 3120   5.492   5.565   3.062
 1052TIP3    H2 3121   5.500   5.713   3.029
 1053TIP3   OH2 3122   6.205   0.069   3.993
 1053TIP3    H1 3123   6.115   0.051   4.022
 1053TIP3    H2 3124   6.198   0.151   3.945
 1054TIP3   OH2 3125   4.428   3.112   2.192
 1054TIP3    H1 3126   4.425   3.204   2.219
 1054TIP3    H2 3127   4.420   3.062   2.274
 1055TIP3   OH2 3128   3.640   1.765   4.080
 1055TIP3    H1 3129   3.716   1.785   4.133
 1055TIP3    H2 3130   3.594   1.848   4.072
 1056TIP3   OH2 3131   1.462   1.584   2.931
 1056TIP3    H1 3132   1.525   1.549   2.868
 1056TIP3    H2 3133   1.458   1.518   3.000
 1057TIP3   OH2 3134   6.089   5.835   3.370
 1057TIP3    H1 3135   6.094   5.930   3.359
 1057TIP3    H2 3136   6.143   5.800   3.299
 1058TIP3   OH2 3137   3.173   6.465   2.103
 1058TIP3    H1 3138   3.079   6.483   2.108
 1058TIP3    H2 3139   3.191   6.455   2.009
 1059TIP3   OH2 3140   0.285   0.126   1.486
 1059TIP3    H1 3141   0.228   0.050   1.502
 1059TIP3    H2 3142   0.225   0.196   1.461
 1060TIP3   OH2 3143   1.974   5.841   2.511
 1060TIP3    H1 3144   1.944   5.783   2.582
 1060TIP3    H2 3145   2.068   5.848   2.524
 1061TIP3   OH2 3146   5.109   0.419   1.212
 1061TIP3    H1 3147   5.135   0.383   1.297
 1061TIP3    H2 3148   5.015   0.434   1.220
 1062TIP3   OH2 3149   1.423   1.095   0.023
 1062TIP3    H1 3150   1.489   1.151   0.066
 1062TIP3    H2 3151   1.475   1.029  -0.024
 1063TIP3   OH2 3152   2.069   4.486   0.366
 1063TIP3    H1 3153   2.115   4.448   0.292
 1063TIP3    H2 3154   2.065   4.580   0.346
 1064TIP3   OH2 3155   1.764   1.365   0.526
 1064TIP3    H1 3156   1.676   1.396   0.547
 1064TIP3    H2 3157   1.792   1.422   0.455
 1065TIP3   OH2 3158   7.036   5.704   3.852
 1065TIP3    H1 3159   7.112   5.760   3.870
 1065TIP3    H2 3160   7.033   5.642   3.925
 1066TIP3   OH2 3161   0.723   3.592   3.857
 1066TIP3    H1 3162   0.759   3.679   3.871
 1066TIP3    H2 3163   0.788   3.548   3.802
 1067TIP3   OH2 3164   5.429   1.735   5.110
 1067TIP3    H1 3165   5.454   1.819   5.149
 1067TIP3    H2 3166   5.419   1.676   5.185
 1068TIP3   OH2 3167   1.033   6.625   2.250
 1068TIP3    H1 3168   1.112   6.584   2.287
 1068TIP3    H2 3169   1.035   6.714   2.283
 1069TIP3   OH2 3170   4.548   4.351   3.742
 1069TIP3    H1 3171   4.519   4.267   3.776
 1069TIP3    H2 3172   4.643   4.353   3.759
 1070TIP3   OH2 3173   2.452   0.294   3.790
 1070TIP3    H1 3174   2.415   0.312   3.877
 1070TIP3    H2 3175   2.435   0.201   3.775
 1071TIP3   OH2 3176   2.754   3.345   2.148
 1071TIP3    H1 3177   2.798   3.298   2.218
 1071TIP3    H2 3178   2.824   3.394   2.104
 1072TIP3   OH2 3179   6.485   0.002   4.356
 1072TIP3    H1 3180   6.529   0.082   4.385
 1072TIP3    H2 3181   6.503  -0.002   4.262
 1073TIP3   OH2 3182   2.264   1.160   4.433
 1073TIP3    H1 3183   2.348   1.170   4.478
 1073TIP3    H2 3184   2.270   1.076   4.389
 1074TIP3   OH2 3185   3.906   2.454   5.433
 1074TIP3    H1 3186   3.834   2.493   5.481
 1074TIP3    H2 3187   3.928   2.519   5.366
 1075TIP3   OH2 3188   0.392   4.768   3.642
 1075TIP3    H1 3189   0.396   4.797   3.733
 1075TIP3    H2 3190   0.462   4.817   3.598
 1076TIP3   OH2 3191   3.176   2.412   4.375
 1076TIP3    H1 3192   3.205   2.344   4.314
 1076TIP3    H2 3193   3.239   2.482   4.363
 1077TIP3   OH2 3194   7.145   2.171   3.402
 1077TIP3    H1 3195   7.211   2.103   3.416
 1077TIP3    H2 3196   7.102   2.145   3.321
 1078TIP3   OH2 3197   4.387   2.753   4.504
 1078TIP3    H1 3198   4.408   2.670   4.547
 1078TIP3    H2 3199   4.356   2.809   4.574
 1079TIP3   OH2 3200   2.250   3.578   5.488
 1079TIP3    H1 3201   2.247   3.570   5.393
 1079TIP3    H2 3202   2.159   3.597   5.513
 1080TIP3   OH2 3203   1.376   0.470   2.931
 1080TIP3    H1 3204   1.412   0.544   2.982
 1080TIP3    H2 3205   1.313   0.430   2.989
 1081TIP3   OH2 3206   2.144   0.545   1.238
 1081TIP3    H1 3207   2.136   0.545   1.333
 1081TIP3    H2 3208   2.160   0.454   1.215
 1082TIP3   OH2 3209   0.524   6.523   0.668
 1082TIP3    H1 3210   0.533   6.443   0.720
 1082TIP3    H2 3211   0.491   6.589   0.729
 1083TIP3   OH2 3212   3.537   1.536   2.467
 1083TIP3    H1 3213   3.593   1.461   2.487
 1083TIP3    H2 3214   3.470   1.534   2.535
 1084TIP3   OH2 3215   4.015   5.381   2.281
 1084TIP3    H1 3216   4.100   5.389   2.237
 1084TIP3    H2 3217   4.035   5.337   2.364
 1085TIP3   OH2 3218   0.891   6.336   4.749
 1085TIP3    H1 3219   0.941   6.297   4.821
 1085TIP3    H2 3220   0.930   6.300   4.670
 1086TIP3   OH2 3221   5.434   5.556   1.479
 1086TIP3    H1 3222   5.434   5.475   1.529
 1086TIP3    H2 3223   5.416   5.624   1.544
 1087TIP3   OH2 3224   2.681   0.259   3.934
 1087TIP3    H1 3225   2.733   0.226   3.860
 1087TIP3    H2 3226   2.595   0.276   3.897
 1088TIP3   OH2 3227   3.560   5.946   1.984
 1088TIP3    H1 3228   3.623   5.946   1.911
 1088TIP3    H2 3229   3.591   5.877   2.042
 1089TIP3   OH2 3230   6.740   4.121   4.287
 1089TIP3    H1 3231   6.804   4.069   4.238
 1089TIP3    H2 3232   6.792   4.190   4.328
 1090TIP3   OH2 3233   3.802   2.850   0.848
 1090TIP3    H1 3234   3.851   2.814   0.774
 1090TIP3    H2 3235   3.775   2.772   0.898
 1091TIP3   OH2 3236   5.335   2.117   2.914
 1091TIP3    H1 3237   5.427   2.140   2.910
 1091TIP3    H2 3238   5.307   2.116   2.822
 1092TIP3   OH2 3239   0.902   2.719   2.819
 1092TIP3    H1 3240   0.962   2.647   2.837
 1092TIP3    H2 3241   0.958   2.795   2.809
 1093TIP3   OH2 3242   5.337   2.898   4.112
 1093TIP3    H1 3243   5.293   2.814   4.125
 1093TIP3    H2 3244   5.266   2.960   4.098
 1094TIP3   OH2 3245   4.582   0.061   3.108
 1094TIP3    H1 3246   4.519  -0.006   3.081
 1094TIP3    H2 3247   4.656   0.012   3.144
 1095TIP3   OH2 3248   6.788   4.412   5.436
 1095TIP3    H1 3249   6.850   4.350   5.397
 1095TIP3    H2 3250   6.713   4.358   5.461
 1096TIP3   OH2 3251   3.838   0.132   4.213
 1096TIP3    H1 3252   3.767   0.077   4.180
 1096TIP3    H2 3253   3.871   0.086   4.290
 1097TIP3   OH2 3254   4.328   2.610   1.179
 1097TIP3    H1 3255   4.403   2.668   1.177
 1097TIP3    H2 3256   4.252   2.667   1.167
 1098TIP3   OH2 3257   5.524   5.006   2.045
 1098TIP3    H1 3258   5.583   5.034   2.115
 1098TIP3    H2 3259   5.469   4.939   2.085
 1099TIP3   OH2 3260   6.821   0.134   1.376
 1099TIP3    H1 3261   6.879   0.153   1.302
 1099TIP3    H2 3262   6.849   0.048   1.408
 1100TIP3   OH2 3263   0.426   4.783   1.835
 1100TIP3    H1 3264   0.359   4.807   1.898
 1100TIP3    H2 3265   0.406   4.835   1.757
 1101TIP3   OH2 3266   4.341   3.390   4.017
 1101TIP3    H1 3267   4.422   3.341   4.001
 1101TIP3    H2 3268   4.346   3.464   3.957
 1102TIP3   OH2 3269   6.340   1.029   4.613
 1102TIP3    H1 3270   6.394   0.966   4.566
 1102TIP3    H2 3271   6.369   1.020   4.704
 1103TIP3   OH2 3272   5.013   2.317   2.353
 1103TIP3    H1 3273   5.107   2.299   2.350
 1103TIP3    H2 3274   4.994   2.328   2.446
 1104TIP3   OH2 3275   4.433   6.575   0.218
 1104TIP3    H1 3276   4.522   6.540   0.209
 1104TIP3    H2 3277   4.441   6.667   0.190
 1105TIP3   OH2 3278   3.130   4.756   5.379
 1105TIP3    H1 3279   3.071   4.829   5.399
 1105TIP3    H2 3280   3.074   4.679   5.377
 1106TIP3   OH2 3281   2.511   1.362   3.181
 1106TIP3    H1 3282   2.422   1.356   3.148
 1106TIP3    H2 3283   2.530   1.456   3.183
 1107TIP3   OH2 3284   6.973   4.144   1.331
 1107TIP3    H1 3285   7.030   4.099   1.269
 1107TIP3    H2 3286   6.993   4.104   1.415
 1108TIP3   OH2 3287   6.304   5.815   4.690
 1108TIP3    H1 3288   6.356   5.791   4.767
 1108TIP3    H2 3289   6.220   5.844   4.725
 1109TIP3   OH2 3290   1.144   2.469   0.753
 1109TIP3    H1 3291   1.208   2.398   0.767
 1109TIP3    H2 3292   1.191   2.549   0.774
 1110TIP3   OH2 3293   3.542   2.008   5.369
 1110TIP3    H1 3294   3.517   2.011   5.277
 1110TIP3    H2 3295   3.580   2.095   5.387
 1111TIP3   OH2 3296   3.474   0.429   1.395
 1111TIP3    H1 3297   3.542   0.378   1.350
 1111TIP3    H2 3298   3.451   0.375   1.471
 1112TIP3   OH2 3299   0.873   5.146   3.031
 1112TIP3    H1 3300   0.883   5.236   3.063
 1112TIP3    H2 3301   0.903   5.091   3.103
 1113TIP3   OH2 3302   3.706   2.654   0.265
 1113TIP3    H1 3303   3.614   2.630   0.254
 1113TIP3    H2 3304   3.705   2.725   0.330
 1114TIP3   OH2 3305   2.761   6.534   3.365
 1114TIP3    H1 3306   2.689   6.486   3.325
 1114TIP3    H2 3307   2.737   6.626   3.355
 1115TIP3   OH2 3308   2.739   2.780   0.142
 1115TIP3    H1 3309   2.777   2.793   0.229
 1115TIP3    H2 3310   2.647   2.759   0.158
 1116TIP3   OH2 3311   0.521   6.302   1.391
 1116TIP3    H1 3312   0.610   6.332   1.374
 1116TIP3    H2 3313   0.522   6.209   1.370
 1117TIP3   OH2 3314   5.912   3.125   5.572
 1117TIP3    H1 3315   5.824   3.160   5.560
 1117TIP3    H2 3316   5.961   3.195   5.616
 1118TIP3   OH2 3317   2.249   6.577   4.347
 1118TIP3    H1 3318   2.197   6.645   4.304
 1118TIP3    H2 3319   2.228   6.586   4.440
 1119TIP3   OH2 3320   3.583   2.365   1.337
 1119TIP3    H1 3321   3.656   2.339   1.281
 1119TIP3    H2 3322   3.624   2.410   1.411
 1120TIP3   OH2 3323   5.882   1.311   4.609
 1120TIP3    H1 3324   5.874   1.379   4.542
 1120TIP3    H2 3325   5.974   1.315   4.635
 1121TIP3   OH2 3326   3.670   0.184   0.217
 1121TIP3    H1 3327   3.749   0.236   0.198
 1121TIP3    H2 3328   3.645   0.210   0.305
 1122TIP3   OH2 3329   0.772   3.255   4.498
 1122TIP3    H1 3330   0.758   3.256   4.404
 1122TIP3    H2 3331   0.839   3.188   4.512
 1123TIP3   OH2 3332   4.051   5.845   4.676
 1123TIP3    H1 3333   4.144   5.848   4.657
 1123TIP3    H2 3334   4.042   5.893   4.758
 1124TIP3   OH2 3335   5.801   1.493   5.518
 1124TIP3    H1 3336   5.719   1.458   5.553
 1124TIP3    H2 3337   5.810   1.578   5.560
 1125TIP3   OH2 3338   0.714   6.616   1.277
 1125TIP3    H1 3339   0.642   6.596   1.218
 1125TIP3    H2 3340   0.674   6.665   1.348
 1126TIP3   OH2 3341   4.302   0.384   3.990
 1126TIP3    H1 3342   4.226   0.370   4.047
 1126TIP3    H2 3343   4.336   0.296   3.974
 1127TIP3   OH2 3344   3.230   4.621   5.730
 1127TIP3    H1 3345   3.296   4.677   5.690
 1127TIP3    H2 3346   3.262   4.532   5.718
 1128TIP3   OH2 3347   6.694   0.384   0.513
 1128TIP3    H1 3348   6.658   0.467   0.482
 1128TIP3    H2 3349   6.617   0.329   0.532
 1129TIP3   OH2 3350   6.332   5.527   0.305
 1129TIP3    H1 3351   6.358   5.453   0.360
 1129TIP3    H2 3352   6.391   5.522   0.230
 1130TIP3   OH2 3353   6.744   3.842   5.257
 1130TIP3    H1 3354   6.722   3.864   5.348
 1130TIP3    H2 3355   6.659   3.834   5.214
 1131TIP3   OH2 3356   3.849   1.563   3.624
 1131TIP3    H1 3357   3.849   1.570   3.719
 1131TIP3    H2 3358   3.941   1.562   3.600
 1132TIP3   OH2 3359   6.236   4.032   3.042
 1132TIP3    H1 3360   6.161   4.005   3.095
 1132TIP3    H2 3361   6.284   4.093   3.098
 1133TIP3   OH2 3362   0.962   0.957   4.938
 1133TIP3    H1 3363   0.984   1.049   4.953
 1133TIP3    H2 3364   0.866   0.954   4.943
 1134TIP3   OH2 3365   4.927   1.941   2.561
 1134TIP3    H1 3366   4.883   1.879   2.620
 1134TIP3    H2 3367   5.014   1.905   2.550
 1135TIP3   OH2 3368   5.467   6.210   2.051
 1135TIP3    H1 3369   5.489   6.303   2.049
 1135TIP3    H2 3370   5.515   6.173   1.977
 1136TIP3   OH2 3371   6.668   3.374   1.935
 1136TIP3    H1 3372   6.578   3.356   1.908
 1136TIP3    H2 3373   6.711   3.288   1.935
 1137TIP3   OH2 3374   3.323   3.233   4.959
 1137TIP3    H1 3375   3.360   3.218   4.872
 1137TIP3    H2 3376   3.255   3.167   4.968
 1138TIP3   OH2 3377   1.963   3.219   1.134
 1138TIP3    H1 3378   1.946   3.190   1.224
 1138TIP3    H2 3379   1.937   3.144   1.080
 1139TIP3   OH2 3380   1.037   3.814   0.871
 1139TIP3    H1 3381   1.070   3.861   0.795
 1139TIP3    H2 3382   1.049   3.874   0.945
 1140TIP3   OH2 3383   7.011   1.056   4.821
 1140TIP3    H1 3384   6.920   1.024   4.822
 1140TIP3    H2 3385   7.060   0.984   4.782
 1141TIP3   OH2 3386   6.602   4.934   3.612
 1141TIP3    H1 3387   6.694   4.924   3.636
 1141TIP3    H2 3388   6.554   4.929   3.695
 1142TIP3   OH2 3389   4.571   0.021   5.279
 1142TIP3    H1 3390   4.597  -0.066   5.307
 1142TIP3    H2 3391   4.631   0.080   5.325
 1143TIP3   OH2 3392   0.739   3.218   3.552
 1143TIP3    H1 3393   0.816   3.271   3.573
 1143TIP3    H2 3394   0.665   3.269   3.583
 1144TIP3   OH2 3395   5.376   2.444   3.243
 1144TIP3    H1 3396   5.427   2.436   3.163
 1144TIP3    H2 3397   5.285   2.441   3.214
 1145TIP3   OH2 3398   6.476   0.792   5.038
 1145TIP3    H1 3399   6.544   0.820   5.099
 1145TIP3    H2 3400   6.465   0.699   5.053
 1146TIP3   OH2 3401   1.449   5.615   4.492
 1146TIP3    H1 3402   1.501   5.542   4.527
 1146TIP3    H2 3403   1.482   5.692   4.538
 1147TIP3   OH2 3404   6.251   1.449   1.968
 1147TIP3    H1 3405   6.208   1.371   2.003
 1147TIP3    H2 3406   6.200   1.472   1.891
 1148TIP3   OH2 3407   2.821   5.624   5.363
 1148TIP3    H1 3408   2.824   5.690   5.432
 1148TIP3    H2 3409   2.779   5.669   5.289
 1149TIP3   OH2 3410   4.810   1.056   0.792
 1149TIP3    H1 3411   4.771   0.969   0.792
 1149TIP3    H2 3412   4.811   1.081   0.885
 1150TIP3   OH2 3413   5.566   1.585   3.644
 1150TIP3    H1 3414   5.655   1.585   3.677
 1150TIP3    H2 3415   5.511   1.577   3.722
 1151TIP3   OH2 3416   3.496   2.990   0.568
 1151TIP3    H1 3417   3.513   2.953   0.481
 1151TIP3    H2 3418   3.456   2.920   0.618
 1152TIP3   OH2 3419   3.374   5.683   5.472
 1152TIP3    H1 3420   3.285   5.668   5.506
 1152TIP3    H2 3421   3.362   5.694   5.378
 1153TIP3   OH2 3422   5.648   5.579   5.036
 1153TIP3    H1 3423   5.651   5.639   4.962
 1153TIP3    H2 3424   5.684   5.497   5.002
 1154TIP3   OH2 3425   1.398   4.260   3.948
 1154TIP3    H1 3426   1.445   4.204   4.010
 1154TIP3    H2 3427   1.399   4.212   3.866
 1155TIP3   OH2 3428   3.217   3.553   5.415
 1155TIP3    H1 3429   3.135   3.561   5.366
 1155TIP3    H2 3430   3.189   3.527   5.503
 1156TIP3   OH2 3431   0.313   6.096   2.797
 1156TIP3    H1 3432   0.305   6.175   2.850
 1156TIP3    H2 3433   0.376   6.119   2.729
 1157TIP3   OH2 3434   6.247   6.291   1.208
 1157TIP3    H1 3435   6.229   6.229   1.278
 1157TIP3    H2 3436   6.326   6.337   1.237
 1158TIP3   OH2 3437   2.040   1.497   1.244
 1158TIP3    H1 3438   2.046   1.402   1.252
 1158TIP3    H2 3439   2.092   1.531   1.317
 1159TIP3   OH2 3440   0.597   5.658   5.669
 1159TIP3    H1 3441   0.624   5.749   5.662
 1159TIP3    H2 3442   0.649   5.623   5.742
 1160TIP3   OH2 3443   5.548   0.153   4.611
 1160TIP3    H1 3444   5.637   0.176   4.635
 1160TIP3    H2 3445   5.528   0.076   4.665
 1161TIP3   OH2 3446   0.778   5.520   2.756
 1161TIP3    H1 3447   0.802   5.606   2.722
 1161TIP3    H2 3448   0.683   5.523   2.767
 1162TIP3   OH2 3449   7.132   2.013   0.843
 1162TIP3    H1 3450   7.203   2.007   0.907
 1162TIP3    H2 3451   7.152   1.944   0.779
 1163TIP3   OH2 3452   2.629   5.049   1.535
 1163TIP3    H1 3453   2.564   5.030   1.602
 1163TIP3    H2 3454   2.579   5.094   1.466
 1164TIP3   OH2 3455   3.998   6.396   0.728
 1164TIP3    H1 3456   4.022   6.351   0.809
 1164TIP3    H2 3457   4.079   6.400   0.677
 1165TIP3   OH2 3458   2.973   5.809   5.775
 1165TIP3    H1 3459   2.978   5.898   5.809
 1165TIP3    H2 3460   2.975   5.753   5.853
 1166TIP3   OH2 3461   5.482   5.760   0.523
 1166TIP3    H1 3462   5.493   5.685   0.581
 1166TIP3    H2 3463   5.570   5.798   0.516
 1167TIP3   OH2 3464   5.192   3.365   3.251
 1167TIP3    H1 3465   5.100   3.386   3.236
 1167TIP3    H2 3466   5.192   3.273   3.278
 1168TIP3   OH2 3467   6.663   2.646   5.257
 1168TIP3    H1 3468   6.708   2.596   5.325
 1168TIP3    H2 3469   6.729   2.656   5.187
 1169TIP3   OH2 3470   6.061   2.450   5.209
 1169TIP3    H1 3471   6.150   2.430   5.179
 1169TIP3    H2 3472   6.073   2.508   5.284
 1170TIP3   OH2 3473   2.781   5.252   3.072
 1170TIP3    H1 3474   2.715   5.186   3.049
 1170TIP3    H2 3475   2.798   5.298   2.990
 1171TIP3   OH2 3476   1.329   3.656   2.842
 1171TIP3    H1 3477   1.312   3.699   2.758
 1171TIP3    H2 3478   1.271   3.581   2.842
 1172TIP3   OH2 3479   4.654   0.743   3.909
 1172TIP3    H1 3480   4.621   0.661   3.875
 1172TIP3    H2 3481   4.603   0.760   3.988
 1173TIP3   OH2 3482   4.875   4.421   4.959
 1173TIP3    H1 3483   4.942   4.365   4.998
 1173TIP3    H2 3484   4.868   4.391   4.868
 1174TIP3   OH2 3485   4.441   0.110   2.364
 1174TIP3    H1 3486   4.378   0.042   2.338
 1174TIP3    H2 3487   4.456   0.094   2.457
 1175TIP3   OH2 3488   1.234   1.357   4.468
 1175TIP3    H1 3489   1.307   1.297   4.485
 1175TIP3    H2 3490   1.235   1.370   4.373
 1176TIP3   OH2 3491   4.821   0.978   0.494
 1176TIP3    H1 3492   4.777   1.053   0.454
 1176TIP3    H2 3493   4.861   1.014   0.573
 1177TIP3   OH2 3494   0.245   4.451   0.924
 1177TIP3    H1 3495   0.150   4.463   0.924
 1177TIP3    H2 3496   0.268   4.440   0.831
 1178TIP3   OH2 3497   2.888   4.127   0.080
 1178TIP3    H1 3498   2.928   4.184   0.146
 1178TIP3    H2 3499   2.821   4.078   0.129
 1179TIP3   OH2 3500   1.866   2.653   3.278
 1179TIP3    H1 3501   1.910   2.671   3.361
 1179TIP3    H2 3502   1.908   2.711   3.215
 1180TIP3   OH2 3503   0.164   6.496   1.716
 1180TIP3    H1 3504   0.233   6.553   1.682
 1180TIP3    H2 3505   0.172   6.415   1.666
 1181TIP3   OH2 3506   4.051   4.218   3.435
 1181TIP3    H1 3507   4.128   4.266   3.465
 1181TIP3    H2 3508   3.986   4.234   3.503
 1182TIP3   OH2 3509   5.196   5.713   1.234
 1182TIP3    H1 3510   5.154   5.646   1.288
 1182TIP3    H2 3511   5.137   5.789   1.241
 1183TIP3   OH2 3512   0.702   3.881   3.122
 1183TIP3    H1 3513   0.796   3.863   3.117
 1183TIP3    H2 3514   0.696   3.963   3.171
 1184TIP3   OH2 3515   0.009   2.776   4.091
 1184TIP3    H1 3516  -0.037   2.845   4.137
 1184TIP3    H2 3517  -0.013   2.697   4.140
 1185TIP3   OH2 3518   2.557   0.872   0.136
 1185TIP3    H1 3519   2.574   0.822   0.215
 1185TIP3    H2 3520   2.529   0.807   0.072
 1186TIP3   OH2 3521   0.059   5.876   0.906
 1186TIP3    H1 3522   0.008   5.914   0.977
 1186TIP3    H2 3523   0.066   5.784   0.927
 1187TIP3   OH2 3524   4.611   0.584   0.985
 1187TIP3    H1 3525   4.660   0.530   0.924
 1187TIP3    H2 3526   4.532   0.610   0.937
 1188TIP3   OH2 3527   3.292   0.696   1.180
 1188TIP3    H1 3528   3.203   0.730   1.188
 1188TIP3    H2 3529   3.348   0.765   1.216
 1189TIP3   OH2 3530   6.447   6.587   1.744
 1189TIP3    H1 3531   6.429   6.494   1.758
 1189TIP3    H2 3532   6.363   6.623   1.714
 1190TIP3   OH2 3533   5.410   6.056   4.768
 1190TIP3    H1 3534   5.335   6.010   4.731
 1190TIP3    H2 3535   5.374   6.136   4.804
 1191TIP3   OH2 3536   0.006   2.881   1.712
 1191TIP3    H1 3537   0.033   2.944   1.779
 1191TIP3    H2 3538  -0.021   2.804   1.761
 1192TIP3   OH2 3539   0.556   5.099   0.372
 1192TIP3    H1 3540   0.472   5.062   0.396
 1192TIP3    H2 3541   0.537   5.191   0.352
 1193TIP3   OH2 3542   4.690   5.806   0.733
 1193TIP3    H1 3543   4.709   5.897   0.753
 1193TIP3    H2 3544   4.733   5.790   0.649
 1194TIP3   OH2 3545   5.634   0.497   0.688
 1194TIP3    H1 3546   5.652   0.553   0.763
 1194TIP3    H2 3547   5.641   0.408   0.723
 1195TIP3   OH2 3548   6.784   2.621   1.309
 1195TIP3    H1 3549   6.755   2.539   1.348
 1195TIP3    H2 3550   6.811   2.674   1.384
 1196TIP3   OH2 3551   0.415   4.969   2.950
 1196TIP3    H1 3552   0.491   4.912   2.937
 1196TIP3    H2 3553   0.411   5.021   2.870
 1197TIP3   OH2 3554   3.717   1.687   1.957
 1197TIP3    H1 3555   3.755   1.640   1.883
 1197TIP3    H2 3556   3.781   1.755   1.977
 1198TIP3   OH2 3557   2.961   4.547   5.317
 1198TIP3    H1 3558   2.904   4.551   5.394
 1198TIP3    H2 3559   2.914   4.491   5.256
 1199TIP3   OH2 3560   5.169   2.748   0.974
 1199TIP3    H1 3561   5.129   2.825   0.933
 1199TIP3    H2 3562   5.151   2.676   0.914
 1200TIP3   OH2 3563   2.115   0.337   0.757
 1200TIP3    H1 3564   2.096   0.246   0.736
 1200TIP3    H2 3565   2.201   0.336   0.798
 1201TIP3   OH2 3566   4.278   6.519   2.355
 1201TIP3    H1 3567   4.203   6.578   2.345
 1201TIP3    H2 3568   4.343   6.571   2.404
 1202TIP3   OH2 3569   0.916   5.419   4.757
 1202TIP3    H1 3570   0.878   5.489   4.703
 1202TIP3    H2 3571   0.883   5.338   4.718
 1203TIP3   OH2 3572   4.107   0.011   0.976
 1203TIP3    H1 3573   4.081   0.056   1.057
 1203TIP3    H2 3574   4.163  -0.061   1.005
 1204TIP3   OH2 3575   7.186   1.924   2.329
 1204TIP3    H1 3576   7.177   1.842   2.377
 1204TIP3    H2 3577   7.237   1.981   2.387
 1205TIP3   OH2 3578   2.496   0.993   1.177
 1205TIP3    H1 3579   2.572   0.937   1.177
 1205TIP3    H2 3580   2.496   1.035   1.091
 1206TIP3   OH2 3581   3.183   5.429   3.314
 1206TIP3    H1 3582   3.167   5.339   3.343
 1206TIP3    H2 3583   3.097   5.470   3.309
 1207TIP3   OH2 3584   3.067   2.028   4.111
 1207TIP3    H1 3585   3.087   2.113   4.148
 1207TIP3    H2 3586   3.039   1.974   4.185
 1208TIP3   OH2 3587   6.438   1.643   2.304
 1208TIP3    H1 3588   6.353   1.608   2.330
 1208TIP3    H2 3589   6.422   1.689   2.222
 1209TIP3   OH2 3590   2.550   6.004   5.672
 1209TIP3    H1 3591   2.471   5.999   5.618
 1209TIP3    H2 3592   2.585   6.092   5.656
 1210TIP3   OH2 3593   3.713   5.240   2.945
 1210TIP3    H1 3594   3.629   5.195   2.959
 1210TIP3    H2 3595   3.745   5.206   2.861
 1211TIP3   OH2 3596   7.072   4.545   1.402
 1211TIP3    H1 3597   7.097   4.484   1.332
 1211TIP3    H2 3598   7.048   4.489   1.476
 1212TIP3   OH2 3599   6.952   1.091   3.741
 1212TIP3    H1 3600   6.885   1.160   3.748
 1212TIP3    H2 3601   6.936   1.035   3.817
 1213TIP3   OH2 3602   7.061   0.025   2.754
 1213TIP3    H1 3603   7.073   0.116   2.728
 1213TIP3    H2 3604   7.131  -0.023   2.709
 1214TIP3   OH2 3605   6.520   2.019   4.824
 1214TIP3    H1 3606   6.502   1.979   4.909
 1214TIP3    H2 3607   6.570   1.952   4.777
 1215TIP3   OH2 3608   4.372   5.982   1.288
 1215TIP3    H1 3609   4.441   5.916   1.296
 1215TIP3    H2 3610   4.397   6.051   1.350
 1216TIP3   OH2 3611   1.591   5.122   0.976
 1216TIP3    H1 3612   1.651   5.071   1.030
 1216TIP3    H2 3613   1.593   5.079   0.891
 1217TIP3   OH2 3614   6.787   6.393   3.534
 1217TIP3    H1 3615   6.857   6.438   3.486
 1217TIP3    H2 3616   6.753   6.459   3.594
 1218TIP3   OH2 3617   1.979   2.206   2.333
 1218TIP3    H1 3618   1.920   2.133   2.351
 1218TIP3    H2 3619   1.939   2.282   2.375
 1219TIP3   OH2 3620   4.160   0.131   0.356
 1219TIP3    H1 3621   4.217   0.126   0.279
 1219TIP3    H2 3622   4.175   0.049   0.402
 1220TIP3   OH2 3623   1.595   2.188   1.491
 1220TIP3    H1 3624   1.646   2.108   1.500
 1220TIP3    H2 3625   1.571   2.191   1.398
 1221TIP3   OH2 3626   6.180   1.007   2.641
 1221TIP3    H1 3627   6.182   0.954   2.721
 1221TIP3    H2 3628   6.145   1.091   2.669
 1222TIP3   OH2 3629   2.015   2.518   1.664
 1222TIP3    H1 3630   1.936   2.518   1.610
 1222TIP3    H2 3631   1.983   2.530   1.753
 1223TIP3   OH2 3632   5.680   3.990   4.581
 1223TIP3    H1 3633   5.738   4.039   4.639
 1223TIP3    H2 3634   5.607   3.962   4.637
 1224TIP3   OH2 3635   2.264   5.776   2.528
 1224TIP3    H1 3636   2.346   5.727   2.530
 1224TIP3    H2 3637   2.242   5.790   2.620
 1225TIP3   OH2 3638   5.820   3.560   0.873
 1225TIP3    H1 3639   5.887   3.515   0.820
 1225TIP3    H2 3640   5.755   3.589   0.809
 1226TIP3   OH2 3641   5.082   2.942   1.344
 1226TIP3    H1 3642   5.104   3.026   1.385
 1226TIP3    H2 3643   5.166   2.902   1.325
 1227TIP3   OH2 3644   4.795   6.704   0.863
 1227TIP3    H1 3645   4.716   6.665   0.901
 1227TIP3    H2 3646   4.803   6.790   0.906
 1228TIP3   OH2 3647   0.643   0.471   4.877
 1228TIP3    H1 3648   0.605   0.389   4.848
 1228TIP3    H2 3649   0.632   0.531   4.803
 1229TIP3   OH2 3650   2.813   0.159   0.544
 1229TIP3    H1 3651   2.879   0.100   0.508
 1229TIP3    H2 3652   2.830   0.243   0.502
 1230TIP3   OH2 3653   2.048   0.760   5.375
 1230TIP3    H1 3654   2.038   0.746   5.469
 1230TIP3    H2 3655   1.970   0.808   5.349
 1231TIP3   OH2 3656   6.319   2.464   3.332
 1231TIP3    H1 3657   6.411   2.440   3.322
 1231TIP3    H2 3658   6.287   2.405   3.401
 1232TIP3   OH2 3659   5.329   0.223   2.092
 1232TIP3    H1 3660   5.344   0.170   2.014
 1232TIP3    H2 3661   5.415   0.258   2.115
 1233TIP3   OH2 3662   2.365   6.043   4.862
 1233TIP3    H1 3663   2.414   6.120   4.890
 1233TIP3    H2 3664   2.377   6.040   4.768
 1234TIP3   OH2 3665   0.295   0.010   4.095
 1234TIP3    H1 3666   0.206   0.035   4.121
 1234TIP3    H2 3667   0.326  -0.047   4.166
 1235TIP3   OH2 3668   2.119   1.223   2.269
 1235TIP3    H1 3669   2.186   1.283   2.234
 1235TIP3    H2 3670   2.168   1.164   2.327
 1236TIP3   OH2 3671   6.710   0.155   5.404
 1236TIP3    H1 3672   6.786   0.210   5.426
 1236TIP3    H2 3673   6.710   0.152   5.309
 1237TIP3   OH2 3674   1.661   0.580   3.562
 1237TIP3    H1 3675   1.692   0.664   3.527
 1237TIP3    H2 3676   1.567   0.580   3.546
 1238TIP3   OH2 3677   1.330   1.848   5.011
 1238TIP3    H1 3678   1.290   1.828   4.926
 1238TIP3    H2 3679   1.419   1.874   4.990
 1239TIP3   OH2 3680   5.105   4.030   1.926
 1239TIP3    H1 3681   5.059   3.975   1.862
 1239TIP3    H2 3682   5.193   4.040   1.889
 1240TIP3   OH2 3683   5.066   5.014   0.538
 1240TIP3    H1 3684   5.063   5.102   0.500
 1240TIP3    H2 3685   5.009   5.019   0.615
 1241TIP3   OH2 3686   7.039   3.268   1.847
 1241TIP3    H1 3687   7.106   3.199   1.848
 1241TIP3    H2 3688   6.983   3.248   1.922
 1242TIP3   OH2 3689   0.662   5.021   3.284
 1242TIP3    H1 3690   0.628   4.986   3.201
 1242TIP3    H2 3691   0.748   4.979   3.294
 1243TIP3   OH2 3692   2.836   1.477   1.753
 1243TIP3    H1 3693   2.910   1.494   1.695
 1243TIP3    H2 3694   2.842   1.383   1.773
 1244TIP3   OH2 3695   0.031   0.549   1.213
 1244TIP3    H1 3696   0.034   0.493   1.136
 1244TIP3    H2 3697   0.020   0.638   1.179
 1245TIP3   OH2 3698   6.008   6.136   4.096
 1245TIP3    H1 3699   6.011   6.042   4.113
 1245TIP3    H2 3700   5.953   6.144   4.018
 1246TIP3   OH2 3701   3.151   4.157   2.880
 1246TIP3    H1 3702   3.210   4.182   2.809
 1246TIP3    H2 3703   3.120   4.070   2.856
 1247TIP3   OH2 3704   4.431   5.363   0.950
 1247TIP3    H1 3705   4.405   5.395   0.864
 1247TIP3    H2 3706   4.512   5.315   0.935
 1248TIP3   OH2 3707   2.378   1.082   5.570
 1248TIP3    H1 3708   2.383   1.158   5.512
 1248TIP3    H2 3709   2.288   1.082   5.602
 1249TIP3   OH2 3710   6.044   0.927   0.896
 1249TIP3    H1 3711   6.125   0.921   0.845
 1249TIP3    H2 3712   5.997   0.845   0.876
 1250TIP3   OH2 3713   2.190   1.303   1.920
 1250TIP3    H1 3714   2.095   1.302   1.908
 1250TIP3    H2 3715   2.203   1.339   2.007
 1251TIP3   OH2 3716   5.417   2.693   1.066
 1251TIP3    H1 3717   5.322   2.693   1.067
 1251TIP3    H2 3718   5.440   2.702   0.974
 1252TIP3   OH2 3719   3.057   0.730   4.633
 1252TIP3    H1 3720   3.118   0.797   4.603
 1252TIP3    H2 3721   3.027   0.761   4.719
 1253TIP3   OH2 3722   6.909   5.077   0.694
 1253TIP3    H1 3723   6.897   5.097   0.601
 1253TIP3    H2 3724   6.878   5.156   0.739
 1254TIP3   OH2 3725   3.295   4.765   2.532
 1254TIP3    H1 3726   3.261   4.839   2.583
 1254TIP3    H2 3727   3.377   4.797   2.495
 1255TIP3   OH2 3728   6.532   3.395   0.388
 1255TIP3    H1 3729   6.618   3.426   0.359
 1255TIP3    H2 3730   6.501   3.339   0.317
 1256TIP3   OH2 3731   2.392   4.344   1.297
 1256TIP3    H1 3732   2.314   4.301   1.261
 1256TIP3    H2 3733   2.372   4.438   1.289
 1257TIP3   OH2 3734   6.327   2.667   5.518
 1257TIP3    H1 3735   6.251   2.665   5.459
 1257TIP3    H2 3736   6.393   2.717   5.470
 1258TIP3   OH2 3737   4.776   6.225   4.638
 1258TIP3    H1 3738   4.724   6.162   4.588
 1258TIP3    H2 3739   4.848   6.174   4.675
 1259TIP3   OH2 3740   6.077   4.301   3.665
 1259TIP3    H1 3741   6.135   4.359   3.616
 1259TIP3    H2 3742   6.028   4.253   3.598
 1260TIP3   OH2 3743   7.035   6.706   1.485
 1260TIP3    H1 3744   7.112   6.650   1.478
 1260TIP3    H2 3745   7.069   6.795   1.479
 1261TIP3   OH2 3746   5.713   0.734   0.214
 1261TIP3    H1 3747   5.765   0.814   0.220
 1261TIP3    H2 3748   5.646   0.753   0.149
 1262TIP3   OH2 3749   3.194   1.675   1.835
 1262TIP3    H1 3750   3.196   1.757   1.884
 1262TIP3    H2 3751   3.280   1.669   1.794
 1263TIP3   OH2 3752   3.720   5.519   1.450
 1263TIP3    H1 3753   3.752   5.491   1.364
 1263TIP3    H2 3754   3.675   5.442   1.485
 1264TIP3   OH2 3755   5.981   0.088   5.462
 1264TIP3    H1 3756   5.980   0.033   5.540
 1264TIP3    H2 3757   6.071   0.120   5.455
 1265TIP3   OH2 3758   0.392   3.151   3.312
 1265TIP3    H1 3759   0.372   3.105   3.231
 1265TIP3    H2 3760   0.472   3.110   3.344
 1266TIP3   OH2 3761   0.447   5.966   0.135
 1266TIP3    H1 3762   0.409   5.936   0.217
 1266TIP3    H2 3763   0.541   5.971   0.152
 1267TIP3   OH2 3764   6.490   5.207   1.647
 1267TIP3    H1 3765   6.504   5.157   1.567
 1267TIP3    H2 3766   6.406   5.251   1.634
 1268TIP3   OH2 3767   0.196   3.260   3.485
 1268TIP3    H1 3768   0.246   3.302   3.555
 1268TIP3    H2 3769   0.262   3.230   3.422
 1269TIP3   OH2 3770   2.911   1.398   4.914
 1269TIP3    H1 3771   2.996   1.377   4.953
 1269TIP3    H2 3772   2.895   1.325   4.854
 1270TIP3   OH2 3773   2.569   5.338   4.592
 1270TIP3    H1 3774   2.551   5.258   4.543
 1270TIP3    H2 3775   2.553   5.315   4.683
 1271TIP3   OH2 3776   4.140   3.450   1.645
 1271TIP3    H1 3777   4.144   3.526   1.703
 1271TIP3    H2 3778   4.216   3.397   1.669
 1272TIP3   OH2 3779   1.308   1.018   5.021
 1272TIP3    H1 3780   1.356   0.947   4.978
 1272TIP3    H2 3781   1.362   1.096   5.006
 1273TIP3   OH2 3782   2.086   4.190   5.840
 1273TIP3    H1 3783   2.103   4.256   5.773
 1273TIP3    H2 3784   2.063   4.111   5.792
 1274TIP3   OH2 3785   6.645   1.163   2.861
 1274TIP3    H1 3786   6.639   1.232   2.795
 1274TIP3    H2 3787   6.710   1.195   2.924
 1275TIP3   OH2 3788   3.398   1.253   4.571
 1275TIP3    H1 3789   3.492   1.266   4.582
 1275TIP3    H2 3790   3.380   1.276   4.480
 1276TIP3   OH2 3791   4.877   0.676   2.470
 1276TIP3    H1 3792   4.907   0.627   2.393
 1276TIP3    H2 3793   4.898   0.620   2.544
 1277TIP3   OH2 3794   5.298   4.960   1.693
 1277TIP3    H1 3795   5.295   4.959   1.789
 1277TIP3    H2 3796   5.389   4.979   1.672
 1278TIP3   OH2 3797   1.368   5.646   4.209
 1278TIP3    H1 3798   1.308   5.573   4.193
 1278TIP3    H2 3799   1.404   5.628   4.297
 1279TIP3   OH2 3800   0.558   0.759   4.431
 1279TIP3    H1 3801   0.475   0.772   4.386
 1279TIP3    H2 3802   0.624   0.777   4.364
 1280TIP3   OH2 3803   6.641   6.655   4.639
 1280TIP3    H1 3804   6.584   6.699   4.702
 1280TIP3    H2 3805   6.684   6.587   4.691
 1281TIP3   OH2 3806   2.017   6.105   3.827
 1281TIP3    H1 3807   1.967   6.083   3.905
 1281TIP3    H2 3808   2.014   6.026   3.773
 1282TIP3   OH2 3809   3.810   3.375   4.796
 1282TIP3    H1 3810   3.727   3.420   4.779
 1282TIP3    H2 3811   3.856   3.378   4.713
 1283TIP3   OH2 3812   4.872   4.576   0.101
 1283TIP3    H1 3813   4.868   4.644   0.168
 1283TIP3    H2 3814   4.788   4.531   0.106
 1284TIP3   OH2 3815   1.040   4.245   3.075
 1284TIP3    H1 3816   1.075   4.331   3.100
 1284TIP3    H2 3817   1.076   4.230   2.988
 1285TIP3   OH2 3818   5.450   2.951   1.792
 1285TIP3    H1 3819   5.541   2.937   1.818
 1285TIP3    H2 3820   5.448   3.043   1.763
 1286TIP3   OH2 3821   2.715   5.596   4.390
 1286TIP3    H1 3822   2.797   5.547   4.394
 1286TIP3    H2 3823   2.741   5.685   4.367
 1287TIP3   OH2 3824   4.660   1.946   3.635
 1287TIP3    H1 3825   4.659   1.954   3.730
 1287TIP3    H2 3826   4.582   1.992   3.606
 1288TIP3   OH2 3827   6.465   2.314   2.677
 1288TIP3    H1 3828   6.437   2.315   2.768
 1288TIP3    H2 3829   6.557   2.339   2.680
 1289TIP3   OH2 3830   0.868   0.968   1.691
 1289TIP3    H1 3831   0.894   0.918   1.768
 1289TIP3    H2 3832   0.804   0.913   1.646
 1290TIP3   OH2 3833   4.063   1.746   3.378
 1290TIP3    H1 3834   4.045   1.689   3.303
 1290TIP3    H2 3835   4.123   1.696   3.433
 1291TIP3   OH2 3836   7.219   3.129   5.885
 1291TIP3    H1 3837   7.236   3.133   5.791
 1291TIP3    H2 3838   7.185   3.215   5.907
 1292TIP3   OH2 3839   2.097   1.193   2.852
 1292TIP3    H1 3840   2.005   1.218   2.845
 1292TIP3    H2 3841   2.122   1.167   2.764
 1293TIP3   OH2 3842   1.403   5.830   2.101
 1293TIP3    H1 3843   1.472   5.764   2.097
 1293TIP3    H2 3844   1.384   5.851   2.009
 1294TIP3   OH2 3845   4.698   4.729   4.048
 1294TIP3    H1 3846   4.680   4.709   4.140
 1294TIP3    H2 3847   4.690   4.825   4.043
 1295TIP3   OH2 3848   6.810   5.270   4.522
 1295TIP3    H1 3849   6.737   5.332   4.517
 1295TIP3    H2 3850   6.768   5.185   4.536
 1296TIP3   OH2 3851   6.628   5.782   2.016
 1296TIP3    H1 3852   6.551   5.787   1.959
 1296TIP3    H2 3853   6.627   5.864   2.065
 1297TIP3   OH2 3854   4.517   6.323   1.061
 1297TIP3    H1 3855   4.608   6.348   1.048
 1297TIP3    H2 3856   4.492   6.365   1.144
 1298TIP3   OH2 3857   6.046   5.152   4.888
 1298TIP3    H1 3858   6.027   5.218   4.955
 1298TIP3    H2 3859   5.977   5.087   4.899
 1299TIP3   OH2 3860   5.578   5.452   5.477
 1299TIP3    H1 3861   5.663   5.410   5.490
 1299TIP3    H2 3862   5.533   5.395   5.416
 1300TIP3   OH2 3863   1.815   6.603   1.149
 1300TIP3    H1 3864   1.754   6.535   1.120
 1300TIP3    H2 3865   1.780   6.633   1.232
 1301TIP3   OH2 3866   1.988   4.914   4.666
 1301TIP3    H1 3867   2.008   4.841   4.608
 1301TIP3    H2 3868   1.895   4.903   4.688
 1302TIP3   OH2 3869   1.554   1.442   1.474
 1302TIP3    H1 3870   1.513   1.359   1.449
 1302TIP3    H2 3871   1.575   1.484   1.390
 1303TIP3   OH2 3872   6.353   1.700   1.988
 1303TIP3    H1 3873   6.369   1.606   2.000
 1303TIP3    H2 3874   6.272   1.705   1.939
 1304TIP3   OH2 3875   4.695   1.303   5.395
 1304TIP3    H1 3876   4.706   1.239   5.466
 1304TIP3    H2 3877   4.609   1.283   5.358
 1305TIP3   OH2 3878   1.109   3.302   4.558
 1305TIP3    H1 3879   1.179   3.245   4.590
 1305TIP3    H2 3880   1.031   3.247   4.557
 1306TIP3   OH2 3881   1.999   4.702   4.466
 1306TIP3    H1 3882   2.057   4.638   4.426
 1306TIP3    H2 3883   1.948   4.738   4.393
 1307TIP3   OH2 3884   2.862   6.311   2.864
 1307TIP3    H1 3885   2.767   6.321   2.868
 1307TIP3    H2 3886   2.876   6.217   2.880
 1308TIP3   OH2 3887   4.322   1.741   0.283
 1308TIP3    H1 3888   4.380   1.666   0.282
 1308TIP3    H2 3889   4.252   1.717   0.343
 1309TIP3   OH2 3890   3.044   5.782   1.117
 1309TIP3    H1 3891   3.112   5.841   1.085
 1309TIP3    H2 3892   3.010   5.740   1.038
 1310TIP3   OH2 3893   0.008   5.147   2.562
 1310TIP3    H1 3894  -0.086   5.133   2.549
 1310TIP3    H2 3895   0.016   5.169   2.654
 1311TIP3   OH2 3896   6.030   4.439   1.184
 1311TIP3    H1 3897   6.056   4.455   1.275
 1311TIP3    H2 3898   5.987   4.520   1.156
 1312TIP3   OH2 3899   0.814   6.273   5.687
 1312TIP3    H1 3900   0.766   6.268   5.604
 1312TIP3    H2 3901   0.826   6.182   5.712
 1313TIP3   OH2 3902   2.681   1.724   5.057
 1313TIP3    H1 3903   2.638   1.643   5.084
 1313TIP3    H2 3904   2.636   1.749   4.976
 1314TIP3   OH2 3905   5.070   6.479   3.088
 1314TIP3    H1 3906   5.159   6.506   3.110
 1314TIP3    H2 3907   5.027   6.466   3.173
 1315TIP3   OH2 3908   6.751   0.603   1.282
 1315TIP3    H1 3909   6.673   0.549   1.269
 1315TIP3    H2 3910   6.781   0.581   1.370
 1316TIP3   OH2 3911   0.721   2.628   0.970
 1316TIP3    H1 3912   0.711   2.706   0.917
 1316TIP3    H2 3913   0.813   2.627   0.994
 1317TIP3   OH2 3914   3.655   5.723   2.115
 1317TIP3    H1 3915   3.709   5.669   2.058
 1317TIP3    H2 3916   3.650   5.674   2.197
 1318TIP3   OH2 3917   5.148   6.407   3.508
 1318TIP3    H1 3918   5.122   6.490   3.549
 1318TIP3    H2 3919   5.071   6.351   3.516
 1319TIP3   OH2 3920   5.839   2.969   0.527
 1319TIP3    H1 3921   5.790   2.930   0.454
 1319TIP3    H2 3922   5.772   3.001   0.587
 1320TIP3   OH2 3923   2.813   1.453   0.521
 1320TIP3    H1 3924   2.840   1.405   0.600
 1320TIP3    H2 3925   2.836   1.394   0.449
 1321TIP3   OH2 3926   5.132   1.126   3.678
 1321TIP3    H1 3927   5.162   1.079   3.600
 1321TIP3    H2 3928   5.210   1.167   3.713
 1322TIP3   OH2 3929   3.613   3.810   3.675
 1322TIP3    H1 3930   3.692   3.764   3.704
 1322TIP3    H2 3931   3.590   3.866   3.749
 1323TIP3   OH2 3932   3.996   4.402   2.470
 1323TIP3    H1 3933   4.031   4.387   2.382
 1323TIP3    H2 3934   3.975   4.495   2.471
 1324TIP3   OH2 3935   1.870   6.437   2.835
 1324TIP3    H1 3936   1.825   6.481   2.908
 1324TIP3    H2 3937   1.799   6.411   2.776
 1325TIP3   OH2 3938   6.242   1.903   0.007
 1325TIP3    H1 3939   6.277   1.991  -0.010
 1325TIP3    H2 3940   6.267   1.885   0.097
 1326TIP3   OH2 3941   1.954   5.757   1.023
 1326TIP3    H1 3942   2.008   5.832   0.997
 1326TIP3    H2 3943   1.931   5.715   0.940
 1327TIP3   OH2 3944   1.848   0.937   4.300
 1327TIP3    H1 3945   1.763   0.910   4.264
 1327TIP3    H2 3946   1.909   0.871   4.268
 1328TIP3   OH2 3947   5.711   2.760   3.102
 1328TIP3    H1 3948   5.752   2.676   3.084
 1328TIP3    H2 3949   5.782   2.815   3.134
 1329TIP3   OH2 3950   0.336   2.118   4.812
 1329TIP3    H1 3951   0.260   2.103   4.869
 1329TIP3    H2 3952   0.332   2.047   4.748
 1330TIP3   OH2 3953   3.242   6.551   3.821
 1330TIP3    H1 3954   3.211   6.461   3.833
 1330TIP3    H2 3955   3.259   6.559   3.727
 1331TIP3   OH2 3956   0.163   2.898   1.312
 1331TIP3    H1 3957   0.137   2.918   1.222
 1331TIP3    H2 3958   0.232   2.832   1.303
 1332TIP3   OH2 3959   3.413   4.706   1.688
 1332TIP3    H1 3960   3.439   4.670   1.772
 1332TIP3    H2 3961   3.334   4.657   1.664
 1333TIP3   OH2 3962   5.751   2.870   4.854
 1333TIP3    H1 3963   5.843   2.891   4.868
 1333TIP3    H2 3964   5.745   2.775   4.870
 1334TIP3   OH2 3965   1.826   2.792   3.820
 1334TIP3    H1 3966   1.767   2.865   3.803
 1334TIP3    H2 3967   1.902   2.832   3.863
 1335TIP3   OH2 3968   4.892   4.068   5.823
 1335TIP3    H1 3969   4.939   3.986   5.808
 1335TIP3    H2 3970   4.800   4.044   5.819
 1336TIP3   OH2 3971   4.253   0.156   3.169
 1336TIP3    H1 3972   4.235   0.072   3.210
 1336TIP3    H2 3973   4.217   0.148   3.080
 1337TIP3   OH2 3974   1.452   4.516   3.440
 1337TIP3    H1 3975   1.492   4.453   3.380
 1337TIP3    H2 3976   1.444   4.468   3.523
 1338TIP3   OH2 3977   3.372   5.190   2.636
 1338TIP3    H1 3978   3.448   5.151   2.593
 1338TIP3    H2 3979   3.403   5.215   2.723
 1339TIP3   OH2 3980   2.799   4.991   3.674
 1339TIP3    H1 3981   2.876   5.037   3.706
 1339TIP3    H2 3982   2.769   4.939   3.749
 1340TIP3   OH2 3983   5.899   6.757   2.898
 1340TIP3    H1 3984   5.984   6.782   2.933
 1340TIP3    H2 3985   5.878   6.674   2.941
 1341TIP3   OH2 3986   7.177   1.125   0.157
 1341TIP3    H1 3987   7.136   1.162   0.235
 1341TIP3    H2 3988   7.103   1.105   0.099
 1342TIP3   OH2 3989   2.117   1.053   3.269
 1342TIP3    H1 3990   2.080   1.141   3.273
 1342TIP3    H2 3991   2.142   1.034   3.359
 1343TIP3   OH2 3992   2.703   6.072   0.545
 1343TIP3    H1 3993   2.767   6.128   0.500
 1343TIP3    H2 3994   2.733   5.983   0.528
 1344TIP3   OH2 3995   4.160   3.694   1.777
 1344TIP3    H1 3996   4.068   3.694   1.801
 1344TIP3    H2 3997   4.197   3.772   1.820
 1345TIP3   OH2 3998   1.241   5.085   4.532
 1345TIP3    H1 3999   1.321   5.130   4.505
 1345TIP3    H2 4000   1.172   5.149   4.516
 1346TIP3   OH2 4001   1.203   1.337   4.884
 1346TIP3    H1 4002   1.217   1.397   4.811
 1346TIP3    H2 4003   1.197   1.393   4.961
 1347TIP3   OH2 4004   1.077   1.044   0.001
 1347TIP3    H1 4005   1.063   0.949  -0.003
 1347TIP3    H2 4006   1.005   1.076   0.056
 1348TIP3   OH2 4007   0.566   3.469   3.624
 1348TIP3    H1 4008   0.490   3.420   3.656
 1348TIP3    H2 4009   0.580   3.537   3.689
 1349TIP3   OH2 4010   3.623   0.361   1.733
 1349TIP3    H1 4011   3.532   0.355   1.762
 1349TIP3    H2 4012   3.667   0.289   1.779
 1350TIP3   OH2 4013   2.054   3.137   3.679
 1350TIP3    H1 4014   2.114   3.212   3.683
 1350TIP3    H2 4015   1.967   3.176   3.667
 1351TIP3   OH2 4016   2.291   3.876   5.756
 1351TIP3    H1 4017   2.336   3.890   5.839
 1351TIP3    H2 4018   2.316   3.951   5.702
 1352TIP3   OH2 4019   4.616   4.004   5.873
 1352TIP3    H1 4020   4.594   4.089   5.911
 1352TIP3    H2 4021   4.547   3.946   5.904
 1353TIP3   OH2 4022   0.974   6.227   0.954
 1353TIP3    H1 4023   1.037   6.165   0.992
 1353TIP3    H2 4024   1.010   6.248   0.868
 1354TIP3   OH2 4025   1.139   3.226   5.454
 1354TIP3    H1 4026   1.211   3.163   5.462
 1354TIP3    H2 4027   1.128   3.260   5.543
 1355TIP3   OH2 4028   4.543   1.947   2.596
 1355TIP3    H1 4029   4.550   1.853   2.612
 1355TIP3    H2 4030   4.455   1.970   2.628
 1356TIP3   OH2 4031   7.118   6.698   2.255
 1356TIP3    H1 4032   7.099   6.606   2.277
 1356TIP3    H2 4033   7.168   6.693   2.173
 1357TIP3   OH2 4034   6.781   2.591   4.211
 1357TIP3    H1 4035   6.819   2.666   4.165
 1357TIP3    H2 4036   6.842   2.519   4.193
 1358TIP3   OH2 4037   0.440   4.250   4.084
 1358TIP3    H1 4038   0.448   4.311   4.158
 1358TIP3    H2 4039   0.385   4.179   4.118
 1359TIP3   OH2 4040   3.479   0.911   3.104
 1359TIP3    H1 4041   3.528   0.956   3.036
 1359TIP3    H2 4042   3.430   0.843   3.058
 1360TIP3   OH2 4043   3.714   0.702   2.028
 1360TIP3    H1 4044   3.697   0.795   2.042
 1360TIP3    H2 4045   3.631   0.659   2.047
 1361TIP3   OH2 4046   3.506   1.621   1.659
 1361TIP3    H1 4047   3.600   1.631   1.668
 1361TIP3    H2 4048   3.471   1.710   1.671
 1362TIP3   OH2 4049   3.773   4.435   3.849
 1362TIP3    H1 4050   3.818   4.511   3.811
 1362TIP3    H2 4051   3.703   4.415   3.786
 1363TIP3   OH2 4052   1.264   0.327   4.754
 1363TIP3    H1 4053   1.270   0.422   4.765
 1363TIP3    H2 4054   1.173   0.307   4.776
 1364TIP3   OH2 4055   3.820   0.030   1.084
 1364TIP3    H1 4056   3.882   0.070   1.144
 1364TIP3    H2 4057   3.855  -0.058   1.068
 1365TIP3   OH2 4058   1.407   0.398   1.025
 1365TIP3    H1 4059   1.374   0.309   1.015
 1365TIP3    H2 4060   1.497   0.395   0.993
 1366TIP3   OH2 4061   4.592   5.822   5.871
 1366TIP3    H1 4062   4.636   5.900   5.838
 1366TIP3    H2 4063   4.658   5.752   5.862
 1367TIP3   OH2 4064   4.636   6.468   1.658
 1367TIP3    H1 4065   4.606   6.381   1.687
 1367TIP3    H2 4066   4.710   6.450   1.600
 1368TIP3   OH2 4067   2.531   1.451   0.557
 1368TIP3    H1 4068   2.491   1.406   0.483
 1368TIP3    H2 4069   2.624   1.454   0.536
 1369TIP3   OH2 4070   3.444   5.403   1.445
 1369TIP3    H1 4071   3.376   5.376   1.383
 1369TIP3    H2 4072   3.509   5.333   1.441
 1370TIP3   OH2 4073   5.848   3.692   2.139
 1370TIP3    H1 4074   5.912   3.667   2.072
 1370TIP3    H2 4075   5.763   3.678   2.097
 1371TIP3   OH2 4076   5.644   4.172   2.086
 1371TIP3    H1 4077   5.587   4.106   2.126
 1371TIP3    H2 4078   5.619   4.172   1.994
 1372TIP3   OH2 4079   2.923   1.703   2.789
 1372TIP3    H1 4080   3.014   1.708   2.759
 1372TIP3    H2 4081   2.893   1.616   2.762
 1373TIP3   OH2 4082   0.596   0.473   4.511
 1373TIP3    H1 4083   0.687   0.491   4.535
 1373TIP3    H2 4084   0.558   0.559   4.496
 1374TIP3   OH2 4085   0.530   5.692   0.346
 1374TIP3    H1 4086   0.535   5.662   0.256
 1374TIP3    H2 4087   0.621   5.704   0.373
 1375TIP3   OH2 4088   7.168   4.043   3.682
 1375TIP3    H1 4089   7.176   4.074   3.591
 1375TIP3    H2 4090   7.113   3.965   3.675
 1376TIP3   OH2 4091   3.283   2.772   5.746
 1376TIP3    H1 4092   3.223   2.773   5.820
 1376TIP3    H2 4093   3.228   2.788   5.670
 1377TIP3   OH2 4094   2.549   5.933   3.015
 1377TIP3    H1 4095   2.564   5.960   2.924
 1377TIP3    H2 4096   2.573   6.010   3.067
 1378TIP3   OH2 4097   1.456   1.670   0.682
 1378TIP3    H1 4098   1.544   1.668   0.721
 1378TIP3    H2 4099   1.446   1.760   0.650
 1379TIP3   OH2 4100   6.328   4.655   0.137
 1379TIP3    H1 4101   6.283   4.681   0.056
 1379TIP3    H2 4102   6.258   4.627   0.195
 1380TIP3   OH2 4103   0.293   5.274   3.207
 1380TIP3    H1 4104   0.358   5.289   3.275
 1380TIP3    H2 4105   0.271   5.361   3.174
 1381TIP3   OH2 4106   6.322   1.336   5.506
 1381TIP3    H1 4107   6.342   1.333   5.600
 1381TIP3    H2 4108   6.255   1.404   5.498
 1382TIP3   OH2 4109   6.056   2.981   2.742
 1382TIP3    H1 4110   5.962   2.998   2.744
 1382TIP3    H2 4111   6.075   2.944   2.829
 1383TIP3   OH2 4112   2.606   4.737   2.981
 1383TIP3    H1 4113   2.680   4.688   2.945
 1383TIP3    H2 4114   2.583   4.691   3.061
 1384TIP3   OH2 4115   1.165   1.226   0.222
 1384TIP3    H1 4116   1.240   1.260   0.270
 1384TIP3    H2 4117   1.125   1.163   0.282
 1385TIP3   OH2 4118   2.140   3.405   1.029
 1385TIP3    H1 4119   2.198   3.331   1.013
 1385TIP3    H2 4120   2.052   3.368   1.022
 1386TIP3   OH2 4121   3.345   2.232   0.811
 1386TIP3    H1 4122   3.360   2.139   0.831
 1386TIP3    H2 4123   3.250   2.238   0.797
 1387TIP3   OH2 4124   5.179   6.651   1.437
 1387TIP3    H1 4125   5.168   6.581   1.501
 1387TIP3    H2 4126   5.095   6.655   1.391
 1388TIP3   OH2 4127   0.377   6.797   2.316
 1388TIP3    H1 4128   0.358   6.705   2.335
 1388TIP3    H2 4129   0.390   6.837   2.402
 1389TIP3   OH2 4130   2.287   3.169   1.050
 1389TIP3    H1 4131   2.374   3.147   1.083
 1389TIP3    H2 4132   2.290   3.141   0.958
 1390TIP3   OH2 4133   4.526   4.250   5.566
 1390TIP3    H1 4134   4.565   4.230   5.480
 1390TIP3    H2 4135   4.581   4.320   5.601
 1391TIP3   OH2 4136   3.912   5.863   3.632
 1391TIP3    H1 4137   3.867   5.947   3.628
 1391TIP3    H2 4138   3.879   5.814   3.557
 1392TIP3   OH2 4139   0.846   6.253   1.185
 1392TIP3    H1 4140   0.854   6.340   1.223
 1392TIP3    H2 4141   0.895   6.258   1.103
 1393TIP3   OH2 4142   0.753   4.530   0.257
 1393TIP3    H1 4143   0.665   4.493   0.261
 1393TIP3    H2 4144   0.750   4.603   0.320
 1394TIP3   OH2 4145   5.672   0.467   3.338
 1394TIP3    H1 4146   5.629   0.382   3.344
 1394TIP3    H2 4147   5.617   0.518   3.278
 1395TIP3   OH2 4148   5.461   2.005   3.533
 1395TIP3    H1 4149   5.533   1.943   3.524
 1395TIP3    H2 4150   5.488   2.081   3.481
 1396TIP3   OH2 4151   2.903   3.786   2.609
 1396TIP3    H1 4152   2.912   3.691   2.616
 1396TIP3    H2 4153   2.905   3.817   2.699
 1397TIP3   OH2 4154   4.921   1.185   1.294
 1397TIP3    H1 4155   4.872   1.184   1.212
 1397TIP3    H2 4156   4.927   1.094   1.320
 1398TIP3   OH2 4157   6.102   1.957   1.152
 1398TIP3    H1 4158   6.191   1.926   1.171
 1398TIP3    H2 4159   6.048   1.878   1.160
 1399TIP3   OH2 4160   6.567   1.785   0.858
 1399TIP3    H1 4161   6.648   1.828   0.885
 1399TIP3    H2 4162   6.507   1.857   0.839
 1400TIP3   OH2 4163   5.871   5.576   3.695
 1400TIP3    H1 4164   5.887   5.576   3.789
 1400TIP3    H2 4165   5.955   5.602   3.656
 1401TIP3   OH2 4166   6.605   6.003   3.386
 1401TIP3    H1 4167   6.513   5.978   3.396
 1401TIP3    H2 4168   6.605   6.066   3.314
 1402TIP3   OH2 4169   1.694   6.339   2.467
 1402TIP3    H1 4170   1.623   6.280   2.443
 1402TIP3    H2 4171   1.717   6.383   2.385
 1403TIP3   OH2 4172   3.784   0.921   4.037
 1403TIP3    H1 4173   3.869   0.953   4.008
 1403TIP3    H2 4174   3.780   0.831   4.003
 1404TIP3   OH2 4175   5.672   0.323   4.369
 1404TIP3    H1 4176   5.676   0.313   4.464
 1404TIP3    H2 4177   5.699   0.414   4.354
 1405TIP3   OH2 4178   0.115   6.755   1.700
 1405TIP3    H1 4179   0.182   6.757   1.631
 1405TIP3    H2 4180   0.083   6.664   1.698
 1406TIP3   OH2 4181   4.921   1.576   2.393
 1406TIP3    H1 4182   4.944   1.576   2.300
 1406TIP3    H2 4183   5.005   1.583   2.439
 1407TIP3   OH2 4184   0.179   3.551   0.674
 1407TIP3    H1 4185   0.223   3.628   0.638
 1407TIP3    H2 4186   0.108   3.533   0.612
 1408TIP3   OH2 4187   0.170   6.138   0.498
 1408TIP3    H1 4188   0.262   6.134   0.470
 1408TIP3    H2 4189   0.175   6.170   0.588
 1409TIP3   OH2 4190   1.370   5.412   3.732
 1409TIP3    H1 4191   1.422   5.445   3.805
 1409TIP3    H2 4192   1.296   5.472   3.726
 1410TIP3   OH2 4193   3.783   5.953   1.798
 1410TIP3    H1 4194   3.790   6.045   1.775
 1410TIP3    H2 4195   3.868   5.915   1.773
 1411TIP3   OH2 4196   2.891   2.181   3.673
 1411TIP3    H1 4197   2.921   2.176   3.583
 1411TIP3    H2 4198   2.800   2.211   3.668
 1412TIP3   OH2 4199   0.549   4.412   1.313
 1412TIP3    H1 4200   0.607   4.456   1.251
 1412TIP3    H2 4201   0.470   4.391   1.262
 1413TIP3   OH2 4202   3.244   0.195   4.423
 1413TIP3    H1 4203   3.275   0.277   4.384
 1413TIP3    H2 4204   3.244   0.212   4.517
 1414TIP3   OH2 4205   2.804   0.415   4.483
 1414TIP3    H1 4206   2.867   0.441   4.417
 1414TIP3    H2 4207   2.748   0.492   4.494
 1415TIP3   OH2 4208   5.505   0.789   1.457
 1415TIP3    H1 4209   5.536   0.735   1.530
 1415TIP3    H2 4210   5.585   0.818   1.413
 1416TIP3   OH2 4211   5.067   4.843   2.171
 1416TIP3    H1 4212   5.083   4.751   2.152
 1416TIP3    H2 4213   4.996   4.868   2.110
 1417TIP3   OH2 4214   0.998   2.073   5.051
 1417TIP3    H1 4215   0.967   2.148   5.000
 1417TIP3    H2 4216   1.012   2.109   5.139
 1418TIP3   OH2 4217   4.200   5.817   5.322
 1418TIP3    H1 4218   4.128   5.855   5.272
 1418TIP3    H2 4219   4.180   5.839   5.413
 1419TIP3   OH2 4220   2.785   4.016   1.631
 1419TIP3    H1 4221   2.845   3.945   1.651
 1419TIP3    H2 4222   2.726   4.021   1.706
 1420TIP3   OH2 4223   5.507   1.145   4.342
 1420TIP3    H1 4224   5.438   1.099   4.389
 1420TIP3    H2 4225   5.461   1.209   4.288
 1421TIP3   OH2 4226   2.488   6.548   1.550
 1421TIP3    H1 4227   2.540   6.610   1.499
 1421TIP3    H2 4228   2.545   6.471   1.559
 1422TIP3   OH2 4229   0.765   4.992   5.620
 1422TIP3    H1 4230   0.817   4.913   5.606
 1422TIP3    H2 4231   0.758   5.031   5.532
 1423TIP3   OH2 4232   2.945   0.007   4.785
 1423TIP3    H1 4233   2.893   0.041   4.713
 1423TIP3    H2 4234   2.888   0.012   4.861
 1424TIP3   OH2 4235   0.216   0.979   3.143
 1424TIP3    H1 4236   0.148   1.044   3.156
 1424TIP3    H2 4237   0.209   0.953   3.052
 1425TIP3   OH2 4238   6.184   2.672   3.847
 1425TIP3    H1 4239   6.232   2.648   3.768
 1425TIP3    H2 4240   6.244   2.726   3.898
 1426TIP3   OH2 4241   7.162   5.602   1.446
 1426TIP3    H1 4242   7.099   5.565   1.508
 1426TIP3    H2 4243   7.155   5.697   1.458
 1427TIP3   OH2 4244   5.285   0.140   5.087
 1427TIP3    H1 4245   5.275   0.197   5.011
 1427TIP3    H2 4246   5.376   0.112   5.085
 1428TIP3   OH2 4247   4.177   4.500   2.044
 1428TIP3    H1 4248   4.262   4.506   2.089
 1428TIP3    H2 4249   4.148   4.410   2.061
 1429TIP3   OH2 4250   6.960   5.513   0.141
 1429TIP3    H1 4251   7.024   5.569   0.184
 1429TIP3    H2 4252   6.889   5.572   0.116
 1430TIP3   OH2 4253   0.881   4.846   4.765
 1430TIP3    H1 4254   0.790   4.857   4.735
 1430TIP3    H2 4255   0.873   4.829   4.858
 1431TIP3   OH2 4256   1.268   6.109   5.623
 1431TIP3    H1 4257   1.266   6.100   5.528
 1431TIP3    H2 4258   1.293   6.200   5.639
 1432TIP3   OH2 4259   7.199   1.122   3.087
 1432TIP3    H1 4260   7.148   1.203   3.095
 1432TIP3    H2 4261   7.135   1.056   3.060
 1433TIP3   OH2 4262   6.422   2.437   1.328
 1433TIP3    H1 4263   6.391   2.431   1.238
 1433TIP3    H2 4264   6.383   2.518   1.361
 1434TIP3   OH2 4265   4.713   4.009   3.492
 1434TIP3    H1 4266   4.762   3.946   3.544
 1434TIP3    H2 4267   4.750   4.094   3.517
 1435TIP3   OH2 4268   3.398   0.763   5.045
 1435TIP3    H1 4269   3.493   0.758   5.056
 1435TIP3    H2 4270   3.382   0.852   5.016
 1436TIP3   OH2 4271   4.216   5.340   5.403
 1436TIP3    H1 4272   4.253   5.423   5.371
 1436TIP3    H2 4273   4.124   5.359   5.419
 1437TIP3   OH2 4274   4.148   1.403   2.147
 1437TIP3    H1 4275   4.169   1.319   2.105
 1437TIP3    H2 4276   4.110   1.456   2.077
 1438TIP3   OH2 4277   3.050   6.324   0.626
 1438TIP3    H1 4278   3.029   6.411   0.661
 1438TIP3    H2 4279   3.009   6.263   0.688
 1439TIP3   OH2 4280   2.744   2.757   3.938
 1439TIP3    H1 4281   2.696   2.674   3.928
 1439TIP3    H2 4282   2.676   2.824   3.941
 1440TIP3   OH2 4283   4.316   5.755   4.668
 1440TIP3    H1 4284   4.322   5.730   4.760
 1440TIP3    H2 4285   4.362   5.685   4.621
 1441TIP3   OH2 4286   7.119   3.532   1.937
 1441TIP3    H1 4287   7.079   3.454   1.899
 1441TIP3    H2 4288   7.069   3.605   1.901
 1442TIP3   OH2 4289   2.163   6.336   0.992
 1442TIP3    H1 4290   2.206   6.266   1.042
 1442TIP3    H2 4291   2.225   6.355   0.921
 1443TIP3   OH2 4292   2.182   6.627   1.589
 1443TIP3    H1 4293   2.185   6.719   1.616
 1443TIP3    H2 4294   2.274   6.600   1.586
 1444TIP3   OH2 4295   1.225   0.275   4.302
 1444TIP3    H1 4296   1.274   0.196   4.324
 1444TIP3    H2 4297   1.144   0.268   4.353
 1445TIP3   OH2 4298   6.427   4.454   5.503
 1445TIP3    H1 4299   6.443   4.503   5.584
 1445TIP3    H2 4300   6.434   4.520   5.434
 1446TIP3   OH2 4301   5.739   4.355   1.796
 1446TIP3    H1 4302   5.769   4.409   1.722
 1446TIP3    H2 4303   5.808   4.363   1.861
 1447TIP3   OH2 4304   0.695   3.913   0.552
 1447TIP3    H1 4305   0.709   3.824   0.585
 1447TIP3    H2 4306   0.604   3.915   0.525
 1448TIP3   OH2 4307   1.290   4.552   5.012
 1448TIP3    H1 4308   1.324   4.530   5.099
 1448TIP3    H2 4309   1.367   4.548   4.955
 1449TIP3   OH2 4310   2.671   2.015   1.226
 1449TIP3    H1 4311   2.576   2.021   1.225
 1449TIP3    H2 4312   2.702   2.104   1.245
 1450TIP3   OH2 4313   0.581   2.271   5.602
 1450TIP3    H1 4314   0.616   2.359   5.617
 1450TIP3    H2 4315   0.501   2.268   5.656
 1451TIP3   OH2 4316   2.246   0.232   3.262
 1451TIP3    H1 4317   2.218   0.304   3.319
 1451TIP3    H2 4318   2.281   0.276   3.184
 1452TIP3   OH2 4319   0.337   6.223   0.096
 1452TIP3    H1 4320   0.385   6.157   0.146
 1452TIP3    H2 4321   0.245   6.205   0.113
 1453TIP3   OH2 4322   4.790   6.133   2.364
 1453TIP3    H1 4323   4.739   6.075   2.421
 1453TIP3    H2 4324   4.822   6.076   2.294
 1454TIP3   OH2 4325   5.960   6.508   5.655
 1454TIP3    H1 4326   5.981   6.499   5.748
 1454TIP3    H2 4327   6.043   6.537   5.615
 1455TIP3   OH2 4328   5.247   3.122   3.911
 1455TIP3    H1 4329   5.182   3.113   3.841
 1455TIP3    H2 4330   5.332   3.115   3.867
 1456TIP3   OH2 4331   3.950   6.658   3.700
 1456TIP3    H1 4332   4.009   6.714   3.750
 1456TIP3    H2 4333   3.997   6.576   3.688
 1457TIP3   OH2 4334   6.822   5.080   3.220
 1457TIP3    H1 4335   6.872   5.036   3.289
 1457TIP3    H2 4336   6.871   5.062   3.140
 1458TIP3   OH2 4337   0.099   3.881   5.571
 1458TIP3    H1 4338   0.169   3.877   5.635
 1458TIP3    H2 4339   0.113   3.804   5.515
 1459TIP3   OH2 4340   6.631   4.718   2.598
 1459TIP3    H1 4341   6.563   4.670   2.644
 1459TIP3    H2 4342   6.703   4.656   2.589
 1460TIP3   OH2 4343   5.046   4.206   2.145
 1460TIP3    H1 4344   5.124   4.184   2.196
 1460TIP3    H2 4345   5.065   4.171   2.058
 1461TIP3   OH2 4346   4.714   6.148   3.338
 1461TIP3    H1 4347   4.692   6.071   3.286
 1461TIP3    H2 4348   4.657   6.217   3.304
 1462TIP3   OH2 4349   5.568   2.497   4.039
 1462TIP3    H1 4350   5.590   2.528   4.127
 1462TIP3    H2 4351   5.559   2.579   3.988
 1463TIP3   OH2 4352   6.256   1.364   3.565
 1463TIP3    H1 4353   6.168   1.346   3.532
 1463TIP3    H2 4354   6.266   1.305   3.639
 1464TIP3   OH2 4355   6.992   3.785   1.638
 1464TIP3    H1 4356   7.037   3.778   1.554
 1464TIP3    H2 4357   7.051   3.838   1.693
 1465TIP3   OH2 4358   0.092   0.922   3.763
 1465TIP3    H1 4359   0.153   0.978   3.714
 1465TIP3    H2 4360   0.046   0.982   3.822
 1466TIP3   OH2 4361   4.049   2.129   3.621
 1466TIP3    H1 4362   4.103   2.053   3.641
 1466TIP3    H2 4363   4.111   2.200   3.607
 1467TIP3   OH2 4364   1.859   0.615   1.420
 1467TIP3    H1 4365   1.777   0.586   1.380
 1467TIP3    H2 4366   1.914   0.538   1.421
 1468TIP3   OH2 4367   5.078   2.199   1.547
 1468TIP3    H1 4368   5.098   2.292   1.551
 1468TIP3    H2 4369   4.988   2.192   1.579
 1469TIP3   OH2 4370   4.429   5.557   4.325
 1469TIP3    H1 4371   4.370   5.494   4.283
 1469TIP3    H2 4372   4.383   5.640   4.321
 1470TIP3   OH2 4373   6.034   4.802   4.645
 1470TIP3    H1 4374   6.040   4.823   4.552
 1470TIP3    H2 4375   6.008   4.885   4.687
 1471TIP3   OH2 4376   4.584   3.556   0.927
 1471TIP3    H1 4377   4.601   3.635   0.877
 1471TIP3    H2 4378   4.524   3.583   0.996
 1472TIP3   OH2 4379   3.230   0.010   4.823
 1472TIP3    H1 4380   3.137   0.026   4.837
 1472TIP3    H2 4381   3.256   0.075   4.757
 1473TIP3   OH2 4382   5.258   3.887   1.666
 1473TIP3    H1 4383   5.261   3.983   1.672
 1473TIP3    H2 4384   5.208   3.869   1.587
 1474TIP3   OH2 4385   5.128   4.998   5.619
 1474TIP3    H1 4386   5.191   4.990   5.690
 1474TIP3    H2 4387   5.071   5.070   5.645
 1475TIP3   OH2 4388   0.935   1.717   4.591
 1475TIP3    H1 4389   0.999   1.692   4.656
 1475TIP3    H2 4390   0.974   1.793   4.547
 1476TIP3   OH2 4391   5.205   5.732   0.797
 1476TIP3    H1 4392   5.202   5.671   0.871
 1476TIP3    H2 4393   5.250   5.809   0.832
 1477TIP3   OH2 4394   3.635   1.503   3.055
 1477TIP3    H1 4395   3.642   1.507   2.960
 1477TIP3    H2 4396   3.654   1.592   3.084
 1478TIP3   OH2 4397   6.590   0.138   2.238
 1478TIP3    H1 4398   6.653   0.101   2.175
 1478TIP3    H2 4399   6.624   0.225   2.258
 1479TIP3   OH2 4400   4.007   0.510   3.437
 1479TIP3    H1 4401   3.993   0.601   3.412
 1479TIP3    H2 4402   4.086   0.512   3.490
 1480TIP3   OH2 4403   0.161   1.285   0.162
 1480TIP3    H1 4404   0.251   1.261   0.186
 1480TIP3    H2 4405   0.108   1.213   0.195
 1481TIP3   OH2 4406   6.007   0.178   1.223
 1481TIP3    H1 4407   6.078   0.219   1.273
 1481TIP3    H2 4408   6.032   0.086   1.218
 1482TIP3   OH2 4409   1.970   5.700   3.044
 1482TIP3    H1 4410   1.996   5.617   3.004
 1482TIP3    H2 4411   2.051   5.750   3.048
 1483TIP3   OH2 4412   6.669   5.743   1.271
 1483TIP3    H1 4413   6.650   5.758   1.364
 1483TIP3    H2 4414   6.600   5.790   1.224
 1484TIP3   OH2 4415   3.184   6.101   5.748
 1484TIP3    H1 4416   3.259   6.160   5.757
 1484TIP3    H2 4417   3.156   6.085   5.838
 1485TIP3   OH2 4418   6.284   6.087   4.089
 1485TIP3    H1 4419   6.196   6.125   4.086
 1485TIP3    H2 4420   6.281   6.027   4.164
 1486TIP3   OH2 4421   6.777   5.545   1.824
 1486TIP3    H1 4422   6.685   5.561   1.802
 1486TIP3    H2 4423   6.782   5.450   1.837
 1487TIP3   OH2 4424   5.874   4.916   4.827
 1487TIP3    H1 4425   5.918   4.876   4.902
 1487TIP3    H2 4426   5.782   4.892   4.837
 1488TIP3   OH2 4427   2.615   5.872   5.893
 1488TIP3    H1 4428   2.633   5.779   5.875
 1488TIP3    H2 4429   2.606   5.911   5.806
 1489TIP3   OH2 4430   3.676   1.248   1.714
 1489TIP3    H1 4431   3.631   1.189   1.652
 1489TIP3    H2 4432   3.722   1.189   1.774
 1490TIP3   OH2 4433   0.905   3.462   3.372
 1490TIP3    H1 4434   0.950   3.546   3.373
 1490TIP3    H2 4435   0.817   3.482   3.341
 1491TIP3   OH2 4436   5.370   3.778   1.957
 1491TIP3    H1 4437   5.314   3.701   1.955
 1491TIP3    H2 4438   5.356   3.820   1.872
 1492TIP3   OH2 4439   1.821   3.840   4.536
 1492TIP3    H1 4440   1.774   3.777   4.589
 1492TIP3    H2 4441   1.767   3.919   4.538
 1493TIP3   OH2 4442   0.419   3.717   1.089
 1493TIP3    H1 4443   0.484   3.647   1.082
 1493TIP3    H2 4444   0.336   3.675   1.065
 1494TIP3   OH2 4445   0.720   6.560   0.075
 1494TIP3    H1 4446   0.653   6.542   0.140
 1494TIP3    H2 4447   0.685   6.523  -0.006
 1495TIP3   OH2 4448   5.537   6.323   0.661
 1495TIP3    H1 4449   5.593   6.377   0.606
 1495TIP3    H2 4450   5.464   6.299   0.604
 1496TIP3   OH2 4451   6.254   1.552   4.185
 1496TIP3    H1 4452   6.159   1.544   4.188
 1496TIP3    H2 4453   6.271   1.615   4.115
 1497TIP3   OH2 4454   0.325   3.128   0.611
 1497TIP3    H1 4455   0.290   3.062   0.672
 1497TIP3    H2 4456   0.409   3.091   0.583
 1498TIP3   OH2 4457   7.143   1.545   4.338
 1498TIP3    H1 4458   7.184   1.504   4.262
 1498TIP3    H2 4459   7.056   1.570   4.307
 1499TIP3   OH2 4460   1.945   1.830   1.824
 1499TIP3    H1 4461   1.981   1.891   1.759
 1499TIP3    H2 4462   1.983   1.745   1.802
 1500TIP3   OH2 4463   1.974   6.787   4.497
 1500TIP3    H1 4464   1.916   6.772   4.423
 1500TIP3    H2 4465   1.944   6.871   4.533
 1501TIP3   OH2 4466   0.415   1.715   4.121
 1501TIP3    H1 4467   0.407   1.811   4.114
 1501TIP3    H2 4468   0.363   1.682   4.048
 1502TIP3   OH2 4469   1.433   0.970   4.270
 1502TIP3    H1 4470   1.495   0.975   4.198
 1502TIP3    H2 4471   1.432   0.877   4.294
 1503TIP3   OH2 4472   2.036   4.325   1.527
 1503TIP3    H1 4473   2.092   4.401   1.507
 1503TIP3    H2 4474   2.082   4.280   1.598
 1504TIP3   OH2 4475   6.785   3.700   4.173
 1504TIP3    H1 4476   6.837   3.622   4.154
 1504TIP3    H2 4477   6.694   3.670   4.171
 1505TIP3   OH2 4478   3.380   5.737   4.699
 1505TIP3    H1 4479   3.300   5.714   4.651
 1505TIP3    H2 4480   3.444   5.759   4.631
 1506TIP3   OH2 4481   5.747   1.298   4.226
 1506TIP3    H1 4482   5.741   1.286   4.321
 1506TIP3    H2 4483   5.671   1.352   4.204
 1507TIP3   OH2 4484   5.128   3.104   3.644
 1507TIP3    H1 4485   5.187   3.164   3.598
 1507TIP3    H2 4486   5.051   3.157   3.665
 1508TIP3   OH2 4487   1.805   6.375   1.713
 1508TIP3    H1 4488   1.814   6.346   1.622
 1508TIP3    H2 4489   1.872   6.326   1.761
 1509TIP3   OH2 4490   4.116   0.865   3.440
 1509TIP3    H1 4491   4.041   0.835   3.387
 1509TIP3    H2 4492   4.149   0.941   3.392
 1510TIP3   OH2 4493   3.670   2.582   0.964
 1510TIP3    H1 4494   3.707   2.543   0.885
 1510TIP3    H2 4495   3.578   2.554   0.963
 1511TIP3   OH2 4496   5.199   3.585   1.925
 1511TIP3    H1 4497   5.109   3.607   1.900
 1511TIP3    H2 4498   5.213   3.497   1.889
 1512TIP3   OH2 4499   5.975   3.960   3.801
 1512TIP3    H1 4500   6.022   3.957   3.884
 1512TIP3    H2 4501   5.944   3.870   3.788
 1513TIP3   OH2 4502   0.358   1.193   2.579
 1513TIP3    H1 4503   0.274   1.150   2.594
 1513TIP3    H2 4504   0.338   1.268   2.523
 1514TIP3   OH2 4505   2.586   3.910   0.151
 1514TIP3    H1 4506   2.588   3.914   0.055
 1514TIP3    H2 4507   2.500   3.942   0.175
 1515TIP3   OH2 4508   1.259   1.754   4.488
 1515TIP3    H1 4509   1.192   1.788   4.428
 1515TIP3    H2 4510   1.338   1.747   4.435
 1516TIP3   OH2 4511   6.070   1.481   1.420
 1516TIP3    H1 4512   6.095   1.562   1.375
 1516TIP3    H2 4513   6.147   1.424   1.411
 1517TIP3   OH2 4514   6.172   4.988   3.935
 1517TIP3    H1 4515   6.150   5.077   3.909
 1517TIP3    H2 4516   6.193   4.995   4.028
 1518TIP3   OH2 4517   3.787   5.399   3.415
 1518TIP3    H1 4518   3.877   5.385   3.385
 1518TIP3    H2 4519   3.744   5.444   3.342
 1519TIP3   OH2 4520   2.531   6.569   5.377
 1519TIP3    H1 4521   2.545   6.476   5.359
 1519TIP3    H2 4522   2.616   6.610   5.361
 1520TIP3   OH2 4523   0.708   6.239   2.489
 1520TIP3    H1 4524   0.753   6.225   2.406
 1520TIP3    H2 4525   0.759   6.308   2.532
 1521TIP3   OH2 4526   3.053   0.934   3.998
 1521TIP3    H1 4527   3.050   0.983   4.080
 1521TIP3    H2 4528   2.972   0.958   3.953
 1522TIP3   OH2 4529   5.364   3.839   3.416
 1522TIP3    H1 4530   5.290   3.779   3.423
 1522TIP3    H2 4531   5.441   3.781   3.414
 1523TIP3   OH2 4532   0.948   3.071   4.600
 1523TIP3    H1 4533   1.001   2.991   4.598
 1523TIP3    H2 4534   0.919   3.078   4.691
 1524TIP3   OH2 4535   1.521   2.674   4.141
 1524TIP3    H1 4536   1.441   2.628   4.169
 1524TIP3    H2 4537   1.589   2.607   4.144
 1525TIP3   OH2 4538   3.382   6.752   0.886
 1525TIP3    H1 4539   3.464   6.750   0.936
 1525TIP3    H2 4540   3.373   6.663   0.852
 1526TIP3   OH2 4541   6.471   3.565   0.088
 1526TIP3    H1 4542   6.561   3.593   0.071
 1526TIP3    H2 4543   6.433   3.635   0.140
 1527TIP3   OH2 4544   5.129   2.490   0.060
 1527TIP3    H1 4545   5.132   2.447  -0.025
 1527TIP3    H2 4546   5.221   2.505   0.083
 1528TIP3   OH2 4547   6.442   1.202   3.745
 1528TIP3    H1 4548   6.474   1.187   3.656
 1528TIP3    H2 4549   6.467   1.124   3.794
 1529TIP3   OH2 4550   3.615   5.407   0.345
 1529TIP3    H1 4551   3.614   5.464   0.423
 1529TIP3    H2 4552   3.704   5.416   0.310
 1530TIP3   OH2 4553   3.141   5.085   4.254
 1530TIP3    H1 4554   3.160   5.012   4.195
 1530TIP3    H2 4555   3.212   5.148   4.239
 1531TIP3   OH2 4556   2.512   3.968   1.329
 1531TIP3    H1 4557   2.456   3.996   1.255
 1531TIP3    H2 4558   2.577   4.038   1.336
 1532TIP3   OH2 4559   4.234   1.732   3.032
 1532TIP3    H1 4560   4.159   1.743   3.090
 1532TIP3    H2 4561   4.195   1.698   2.951
 1533TIP3   OH2 4562   0.789   2.497   1.643
 1533TIP3    H1 4563   0.777   2.558   1.569
 1533TIP3    H2 4564   0.747   2.543   1.716
 1534TIP3   OH2 4565   1.418   6.611   3.242
 1534TIP3    H1 4566   1.338   6.646   3.202
 1534TIP3    H2 4567   1.418   6.518   3.219
 1535TIP3   OH2 4568   0.052   1.136   2.357
 1535TIP3    H1 4569   0.037   1.229   2.337
 1535TIP3    H2 4570   0.052   1.132   2.453
 1536TIP3   OH2 4571   1.459   1.762   0.012
 1536TIP3    H1 4572   1.540   1.727   0.048
 1536TIP3    H2 4573   1.391   1.702   0.043
 1537TIP3   OH2 4574   6.885   1.617   3.225
 1537TIP3    H1 4575   6.964   1.564   3.218
 1537TIP3    H2 4576   6.916   1.701   3.260
 1538TIP3   OH2 4577   4.699   6.678   4.556
 1538TIP3    H1 4578   4.720   6.598   4.508
 1538TIP3    H2 4579   4.617   6.659   4.600
 1539TIP3   OH2 4580   2.299   6.054   1.457
 1539TIP3    H1 4581   2.374   6.113   1.465
 1539TIP3    H2 4582   2.292   6.013   1.543
 1540TIP3   OH2 4583   0.406   1.562   2.192
 1540TIP3    H1 4584   0.361   1.489   2.235
 1540TIP3    H2 4585   0.498   1.536   2.192
 1541TIP3   OH2 4586   1.603   4.640   2.789
 1541TIP3    H1 4587   1.596   4.727   2.751
 1541TIP3    H2 4588   1.646   4.654   2.874
 1542TIP3   OH2 4589   3.978   5.745   0.385
 1542TIP3    H1 4590   4.018   5.823   0.349
 1542TIP3    H2 4591   4.042   5.711   0.447
 1543TIP3   OH2 4592   2.181   5.821   0.228
 1543TIP3    H1 4593   2.239   5.893   0.201
 1543TIP3    H2 4594   2.098   5.865   0.249
 1544TIP3   OH2 4595   0.854   2.014   1.931
 1544TIP3    H1 4596   0.911   2.087   1.906
 1544TIP3    H2 4597   0.893   1.978   2.010
 1545TIP3   OH2 4598   4.370   0.896   4.338
 1545TIP3    H1 4599   4.279   0.868   4.341
 1545TIP3    H2 4600   4.420   0.822   4.372
 1546TIP3   OH2 4601   3.981   1.631   5.674
 1546TIP3    H1 4602   3.912   1.681   5.718
 1546TIP3    H2 4603   4.056   1.636   5.734
 1547TIP3   OH2 4604   6.561   5.452   5.873
 1547TIP3    H1 4605   6.544   5.542   5.846
 1547TIP3    H2 4606   6.571   5.457   5.968
 1548TIP3   OH2 4607   3.137   5.952   2.334
 1548TIP3    H1 4608   3.157   5.915   2.420
 1548TIP3    H2 4609   3.196   5.906   2.274
 1549TIP3   OH2 4610   0.032   2.167   4.679
 1549TIP3    H1 4611  -0.022   2.231   4.632
 1549TIP3    H2 4612  -0.027   2.095   4.699
 1550TIP3   OH2 4613   4.756   6.368   0.951
 1550TIP3    H1 4614   4.705   6.428   0.897
 1550TIP3    H2 4615   4.833   6.348   0.898
 1551TIP3   OH2 4616   4.043   0.820   1.074
 1551TIP3    H1 4617   3.989   0.763   1.128
 1551TIP3    H2 4618   3.986   0.894   1.052
 1552TIP3   OH2 4619   2.751   5.393   2.850
 1552TIP3    H1 4620   2.710   5.475   2.877
 1552TIP3    H2 4621   2.844   5.413   2.843
 1553TIP3   OH2 4622   4.317   2.501   3.092
 1553TIP3    H1 4623   4.305   2.490   3.187
 1553TIP3    H2 4624   4.237   2.464   3.054
 1554TIP3   OH2 4625   5.434   1.371   2.427
 1554TIP3    H1 4626   5.441   1.366   2.332
 1554TIP3    H2 4627   5.370   1.440   2.444
 1555TIP3   OH2 4628   4.710   3.133   0.620
 1555TIP3    H1 4629   4.716   3.076   0.696
 1555TIP3    H2 4630   4.628   3.181   0.631
 1556TIP3   OH2 4631   4.783   4.312   0.734
 1556TIP3    H1 4632   4.804   4.289   0.825
 1556TIP3    H2 4633   4.847   4.263   0.682
 1557TIP3   OH2 4634   2.606   2.173   1.724
 1557TIP3    H1 4635   2.549   2.120   1.780
 1557TIP3    H2 4636   2.692   2.132   1.732
 1558TIP3   OH2 4637   3.240   5.036   0.766
 1558TIP3    H1 4638   3.269   5.127   0.770
 1558TIP3    H2 4639   3.239   5.016   0.672
 1559TIP3   OH2 4640   0.567   1.858   4.868
 1559TIP3    H1 4641   0.510   1.893   4.936
 1559TIP3    H2 4642   0.519   1.872   4.787
 1560TIP3   OH2 4643   5.215   3.836   1.393
 1560TIP3    H1 4644   5.169   3.756   1.367
 1560TIP3    H2 4645   5.284   3.846   1.328
 1561TIP3   OH2 4646   1.640   6.788   5.539
 1561TIP3    H1 4647   1.625   6.788   5.633
 1561TIP3    H2 4648   1.734   6.768   5.530
 1562TIP3   OH2 4649   4.083   2.295   1.084
 1562TIP3    H1 4650   4.062   2.205   1.105
 1562TIP3    H2 4651   4.160   2.315   1.137
 1563TIP3   OH2 4652   1.314   6.227   0.278
 1563TIP3    H1 4653   1.370   6.304   0.269
 1563TIP3    H2 4654   1.227   6.256   0.248
 1564TIP3   OH2 4655   1.253   5.870   4.813
 1564TIP3    H1 4656   1.290   5.944   4.862
 1564TIP3    H2 4657   1.243   5.904   4.724
 1565TIP3   OH2 4658   2.406   4.499   3.286
 1565TIP3    H1 4659   2.497   4.519   3.265
 1565TIP3    H2 4660   2.361   4.501   3.202
 1566TIP3   OH2 4661   6.407   4.326   4.868
 1566TIP3    H1 4662   6.483   4.350   4.921
 1566TIP3    H2 4663   6.338   4.306   4.931
 1567TIP3   OH2 4664   2.268   2.304   2.790
 1567TIP3    H1 4665   2.221   2.251   2.725
 1567TIP3    H2 4666   2.315   2.240   2.843
 1568TIP3   OH2 4667   5.002   4.977   4.800
 1568TIP3    H1 4668   5.026   4.887   4.775
 1568TIP3    H2 4669   4.912   4.988   4.769
 1569TIP3   OH2 4670   2.594   0.544   2.531
 1569TIP3    H1 4671   2.684   0.538   2.499
 1569TIP3    H2 4672   2.600   0.532   2.625
 1570TIP3   OH2 4673   5.838   3.447   2.973
 1570TIP3    H1 4674   5.872   3.399   3.049
 1570TIP3    H2 4675   5.759   3.491   3.007
 1571TIP3   OH2 4676   1.608   5.212   2.591
 1571TIP3    H1 4677   1.592   5.177   2.678
 1571TIP3    H2 4678   1.556   5.156   2.533
 1572TIP3   OH2 4679   1.164   1.700   4.145
 1572TIP3    H1 4680   1.158   1.632   4.078
 1572TIP3    H2 4681   1.185   1.780   4.096
 1573TIP3   OH2 4682   6.923   0.784   1.151
 1573TIP3    H1 4683   6.855   0.736   1.198
 1573TIP3    H2 4684   6.986   0.809   1.219
 1574TIP3   OH2 4685   6.104   1.307   5.294
 1574TIP3    H1 4686   6.191   1.335   5.267
 1574TIP3    H2 4687   6.090   1.224   5.249
 1575TIP3   OH2 4688   0.981   2.803   1.282
 1575TIP3    H1 4689   0.885   2.805   1.286
 1575TIP3    H2 4690   1.006   2.735   1.344
 1576TIP3   OH2 4691   6.735   5.886   4.413
 1576TIP3    H1 4692   6.797   5.838   4.358
 1576TIP3    H2 4693   6.770   5.879   4.502
 1577TIP3   OH2 4694   1.727   0.041   3.822
 1577TIP3    H1 4695   1.702  -0.041   3.864
 1577TIP3    H2 4696   1.717   0.108   3.890
 1578TIP3   OH2 4697   6.786   3.866   1.907
 1578TIP3    H1 4698   6.861   3.808   1.905
 1578TIP3    H2 4699   6.816   3.944   1.953
 1579TIP3   OH2 4700   3.897   1.086   5.534
 1579TIP3    H1 4701   3.824   1.024   5.522
 1579TIP3    H2 4702   3.961   1.061   5.467
 1580TIP3   OH2 4703   5.068   5.012   1.472
 1580TIP3    H1 4704   5.016   5.066   1.412
 1580TIP3    H2 4705   5.024   5.021   1.556
 1581TIP3   OH2 4706   5.790   0.898   5.629
 1581TIP3    H1 4707   5.862   0.953   5.598
 1581TIP3    H2 4708   5.759   0.852   5.551
 1582TIP3   OH2 4709   1.906   4.076   1.769
 1582TIP3    H1 4710   1.914   4.145   1.835
 1582TIP3    H2 4711   1.993   4.070   1.730
 1583TIP3   OH2 4712   4.868   5.150   1.308
 1583TIP3    H1 4713   4.895   5.106   1.228
 1583TIP3    H2 4714   4.842   5.238   1.279
 1584TIP3   OH2 4715   6.301   6.278   3.243
 1584TIP3    H1 4716   6.286   6.356   3.297
 1584TIP3    H2 4717   6.344   6.313   3.164
 1585TIP3   OH2 4718   0.200   5.475   2.950
 1585TIP3    H1 4719   0.137   5.426   2.897
 1585TIP3    H2 4720   0.267   5.503   2.888
 1586TIP3   OH2 4721   6.253   6.167   2.526
 1586TIP3    H1 4722   6.236   6.097   2.589
 1586TIP3    H2 4723   6.197   6.239   2.553
 1587TIP3   OH2 4724   7.126   3.377   3.559
 1587TIP3    H1 4725   7.105   3.470   3.572
 1587TIP3    H2 4726   7.202   3.378   3.501
 1588TIP3   OH2 4727   5.061   5.952   2.821
 1588TIP3    H1 4728   5.038   6.033   2.865
 1588TIP3    H2 4729   5.149   5.968   2.786
 1589TIP3   OH2 4730   0.245   6.637   0.219
 1589TIP3    H1 4731   0.261   6.568   0.282
 1589TIP3    H2 4732   0.325   6.641   0.166
 1590TIP3   OH2 4733   5.248   1.028   5.765
 1590TIP3    H1 4734   5.200   0.957   5.723
 1590TIP3    H2 4735   5.335   1.024   5.728
 1591TIP3   OH2 4736   4.826   5.785   2.747
 1591TIP3    H1 4737   4.804   5.781   2.840
 1591TIP3    H2 4738   4.907   5.836   2.744
 1592TIP3   OH2 4739   2.374   6.610   0.462
 1592TIP3    H1 4740   2.470   6.607   0.454
 1592TIP3    H2 4741   2.358   6.668   0.536
 1593TIP3   OH2 4742   2.894   5.768   0.055
 1593TIP3    H1 4743   2.811   5.726   0.079
 1593TIP3    H2 4744   2.961   5.717   0.101
 1594TIP3   OH2 4745   6.828   2.252   1.251
 1594TIP3    H1 4746   6.891   2.293   1.192
 1594TIP3    H2 4747   6.805   2.169   1.208
 1595TIP3   OH2 4748   1.371   6.473   2.866
 1595TIP3    H1 4749   1.430   6.421   2.812
 1595TIP3    H2 4750   1.299   6.496   2.808
 1596TIP3   OH2 4751   0.314   3.385   4.559
 1596TIP3    H1 4752   0.389   3.333   4.589
 1596TIP3    H2 4753   0.238   3.342   4.597
 1597TIP3   OH2 4754   5.880   4.778   1.723
 1597TIP3    H1 4755   5.896   4.703   1.780
 1597TIP3    H2 4756   5.855   4.848   1.782
 1598TIP3   OH2 4757   6.634   0.885   0.190
 1598TIP3    H1 4758   6.611   0.964   0.238
 1598TIP3    H2 4759   6.727   0.873   0.206
 1599TIP3   OH2 4760   0.419   4.070   3.182
 1599TIP3    H1 4761   0.474   4.050   3.258
 1599TIP3    H2 4762   0.407   3.986   3.138
 1600TIP3   OH2 4763   1.511   1.904   5.629
 1600TIP3    H1 4764   1.543   1.845   5.698
 1600TIP3    H2 4765   1.586   1.916   5.572
 1601TIP3   OH2 4766   0.115   2.474   4.481
 1601TIP3    H1 4767   0.166   2.507   4.555
 1601TIP3    H2 4768   0.028   2.457   4.518
 1602TIP3   OH2 4769   6.752   1.823   5.774
 1602TIP3    H1 4770   6.738   1.774   5.693
 1602TIP3    H2 4771   6.668   1.866   5.791
 1603TIP3   OH2 4772   4.681   0.546   0.338
 1603TIP3    H1 4773   4.677   0.505   0.252
 1603TIP3    H2 4774   4.618   0.497   0.391
 1604TIP3   OH2 4775   4.190   2.873   4.376
 1604TIP3    H1 4776   4.275   2.847   4.413
 1604TIP3    H2 4777   4.130   2.804   4.402
 1605TIP3   OH2 4778   0.908   5.096   5.823
 1605TIP3    H1 4779   0.878   5.074   5.735
 1605TIP3    H2 4780   0.997   5.129   5.811
 1606TIP3   OH2 4781   3.676   1.993   1.657
 1606TIP3    H1 4782   3.591   1.950   1.653
 1606TIP3    H2 4783   3.658   2.078   1.699
 1607TIP3   OH2 4784   1.146   4.838   1.368
 1607TIP3    H1 4785   1.074   4.887   1.328
 1607TIP3    H2 4786   1.156   4.760   1.313
 1608TIP3   OH2 4787   6.303   4.358   2.346
 1608TIP3    H1 4788   6.295   4.423   2.276
 1608TIP3    H2 4789   6.354   4.287   2.307
 1609TIP3   OH2 4790   3.450   2.551   0.168
 1609TIP3    H1 4791   3.451   2.543   0.072
 1609TIP3    H2 4792   3.361   2.579   0.189
 1610TIP3   OH2 4793   2.258   4.343   2.177
 1610TIP3    H1 4794   2.294   4.262   2.212
 1610TIP3    H2 4795   2.315   4.412   2.209
 1611TIP3   OH2 4796   3.161   1.687   0.055
 1611TIP3    H1 4797   3.185   1.595   0.041
 1611TIP3    H2 4798   3.168   1.700   0.150
 1612TIP3   OH2 4799   5.249   2.536   5.324
 1612TIP3    H1 4800   5.192   2.468   5.290
 1612TIP3    H2 4801   5.231   2.538   5.418
 1613TIP3   OH2 4802   0.506   0.486   2.402
 1613TIP3    H1 4803   0.470   0.572   2.385
 1613TIP3    H2 4804   0.601   0.498   2.402
 1614TIP3   OH2 4805   0.130   1.877   1.683
 1614TIP3    H1 4806   0.044   1.856   1.647
 1614TIP3    H2 4807   0.113   1.948   1.745
 1615TIP3   OH2 4808   2.208   0.789   2.760
 1615TIP3    H1 4809   2.199   0.858   2.828
 1615TIP3    H2 4810   2.177   0.832   2.680
 1616TIP3   OH2 4811   1.369   0.947   0.490
 1616TIP3    H1 4812   1.311   0.974   0.562
 1616TIP3    H2 4813   1.375   1.026   0.435
 1617TIP3   OH2 4814   4.910   1.167   2.714
 1617TIP3    H1 4815   4.855   1.134   2.643
 1617TIP3    H2 4816   4.917   1.094   2.776
 1618TIP3   OH2 4817   5.617   3.544   3.103
 1618TIP3    H1 4818   5.567   3.620   3.073
 1618TIP3    H2 4819   5.551   3.478   3.122
 1619TIP3   OH2 4820   1.704   5.405   4.070
 1619TIP3    H1 4821   1.775   5.381   4.011
 1619TIP3    H2 4822   1.636   5.442   4.012
 1620TIP3   OH2 4823   0.741   1.943   5.092
 1620TIP3    H1 4824   0.680   1.950   5.018
 1620TIP3    H2 4825   0.817   1.995   5.065
 1621TIP3   OH2 4826   4.970   1.567   4.056
 1621TIP3    H1 4827   4.957   1.643   4.000
 1621TIP3    H2 4828   5.060   1.575   4.087
 1622TIP3   OH2 4829   3.892   3.525   2.063
 1622TIP3    H1 4830   3.968   3.576   2.089
 1622TIP3    H2 4831   3.869   3.557   1.976
 1623TIP3   OH2 4832   4.198   3.799   4.840
 1623TIP3    H1 4833   4.259   3.868   4.812
 1623TIP3    H2 4834   4.238   3.761   4.918
 1624TIP3   OH2 4835   4.499   1.505   4.239
 1624TIP3    H1 4836   4.504   1.416   4.275
 1624TIP3    H2 4837   4.484   1.561   4.315
 1625TIP3   OH2 4838   3.905   4.226   0.584
 1625TIP3    H1 4839   3.832   4.285   0.568
 1625TIP3    H2 4840   3.883   4.182   0.667
 1626TIP3   OH2 4841   1.868   0.079   0.880
 1626TIP3    H1 4842   1.801   0.092   0.947
 1626TIP3    H2 4843   1.946   0.051   0.928
 1627TIP3   OH2 4844   1.507   2.957   1.331
 1627TIP3    H1 4845   1.533   2.937   1.241
 1627TIP3    H2 4846   1.432   3.016   1.320
 1628TIP3   OH2 4847   4.150   4.374   3.136
 1628TIP3    H1 4848   4.159   4.430   3.212
 1628TIP3    H2 4849   4.221   4.401   3.077
 1629TIP3   OH2 4850   0.863   0.086   2.841
 1629TIP3    H1 4851   0.930   0.018   2.849
 1629TIP3    H2 4852   0.908   0.167   2.866
 1630TIP3   OH2 4853   5.926   2.820   4.494
 1630TIP3    H1 4854   5.968   2.899   4.460
 1630TIP3    H2 4855   5.945   2.753   4.429
 1631TIP3   OH2 4856   4.936   3.982   0.930
 1631TIP3    H1 4857   4.966   3.943   1.012
 1631TIP3    H2 4858   4.899   3.909   0.880
 1632TIP3   OH2 4859   5.645   1.523   2.199
 1632TIP3    H1 4860   5.675   1.576   2.273
 1632TIP3    H2 4861   5.721   1.520   2.140
 1633TIP3   OH2 4862   4.064   5.844   1.828
 1633TIP3    H1 4863   4.029   5.891   1.904
 1633TIP3    H2 4864   4.137   5.897   1.798
 1634TIP3   OH2 4865   1.475   3.594   5.330
 1634TIP3    H1 4866   1.552   3.607   5.386
 1634TIP3    H2 4867   1.509   3.544   5.255
 1635TIP3   OH2 4868   6.532   6.182   3.661
 1635TIP3    H1 4869   6.525   6.106   3.719
 1635TIP3    H2 4870   6.561   6.145   3.578
 1636TIP3   OH2 4871   6.954   1.026   2.949
 1636TIP3    H1 4872   6.960   0.952   2.889
 1636TIP3    H2 4873   6.945   1.102   2.892
 1637TIP3   OH2 4874   2.468   3.777   2.628
 1637TIP3    H1 4875   2.513   3.857   2.601
 1637TIP3    H2 4876   2.416   3.753   2.551
 1638TIP3   OH2 4877   1.992   0.457   0.083
 1638TIP3    H1 4878   1.960   0.498   0.164
 1638TIP3    H2 4879   1.918   0.408   0.050
 1639TIP3   OH2 4880   3.507   0.855   2.515
 1639TIP3    H1 4881   3.460   0.935   2.541
 1639TIP3    H2 4882   3.446   0.785   2.533
 1640TIP3   OH2 4883   4.036   0.977   2.448
 1640TIP3    H1 4884   3.943   0.986   2.469
 1640TIP3    H2 4885   4.061   0.891   2.482
 1641TIP3   OH2 4886   6.200   0.800   4.887
 1641TIP3    H1 4887   6.287   0.818   4.924
 1641TIP3    H2 4888   6.218   0.750   4.807
 1642TIP3   OH2 4889   1.064   0.647   4.369
 1642TIP3    H1 4890   1.080   0.721   4.311
 1642TIP3    H2 4891   1.058   0.571   4.311
 1643TIP3   OH2 4892   6.618   1.384   2.681
 1643TIP3    H1 4893   6.588   1.454   2.624
 1643TIP3    H2 4894   6.646   1.315   2.622
 1644TIP3   OH2 4895   3.683   6.548   0.900
 1644TIP3    H1 4896   3.721   6.503   0.976
 1644TIP3    H2 4897   3.757   6.597   0.863
 1645TIP3   OH2 4898   1.371   4.314   3.032
 1645TIP3    H1 4899   1.289   4.364   3.025
 1645TIP3    H2 4900   1.427   4.350   2.963
 1646TIP3   OH2 4901   3.896   1.756   5.236
 1646TIP3    H1 4902   3.866   1.688   5.296
 1646TIP3    H2 4903   3.839   1.747   5.160
 1647TIP3   OH2 4904   0.405   6.796   2.668
 1647TIP3    H1 4905   0.336   6.861   2.687
 1647TIP3    H2 4906   0.486   6.841   2.691
 1648TIP3   OH2 4907   4.565   0.788   4.639
 1648TIP3    H1 4908   4.476   0.786   4.675
 1648TIP3    H2 4909   4.559   0.732   4.561
 1649TIP3   OH2 4910   6.431   2.109   0.595
 1649TIP3    H1 4911   6.377   2.116   0.515
 1649TIP3    H2 4912   6.514   2.074   0.564
 1650TIP3   OH2 4913   1.594   2.826   0.644
 1650TIP3    H1 4914   1.514   2.845   0.594
 1650TIP3    H2 4915   1.589   2.732   0.663
 1651TIP3   OH2 4916   6.480   3.324   4.456
 1651TIP3    H1 4917   6.487   3.230   4.441
 1651TIP3    H2 4918   6.520   3.363   4.378
 1652TIP3   OH2 4919   7.222   5.514   4.650
 1652TIP3    H1 4920   7.241   5.564   4.730
 1652TIP3    H2 4921   7.184   5.432   4.682
 1653TIP3   OH2 4922   3.629   1.514   5.728
 1653TIP3    H1 4923   3.557   1.563   5.689
 1653TIP3    H2 4924   3.681   1.580   5.774
 1654TIP3   OH2 4925   6.479   6.011   4.628
 1654TIP3    H1 4926   6.418   5.938   4.639
 1654TIP3    H2 4927   6.517   6.025   4.715
 1655TIP3   OH2 4928   5.166   4.828   3.393
 1655TIP3    H1 4929   5.095   4.802   3.452
 1655TIP3    H2 4930   5.131   4.901   3.343
 1656TIP3   OH2 4931   3.417   0.210   3.477
 1656TIP3    H1 4932   3.494   0.239   3.428
 1656TIP3    H2 4933   3.453   0.165   3.554
 1657TIP3   OH2 4934   3.822   1.197   4.313
 1657TIP3    H1 4935   3.775   1.209   4.231
 1657TIP3    H2 4936   3.913   1.219   4.292
 1658TIP3   OH2 4937   3.670   3.145   4.926
 1658TIP3    H1 4938   3.753   3.119   4.966
 1658TIP3    H2 4939   3.690   3.226   4.879
 1659TIP3   OH2 4940   5.608   1.967   0.423
 1659TIP3    H1 4941   5.691   1.969   0.375
 1659TIP3    H2 4942   5.543   1.943   0.357
 1660TIP3   OH2 4943   0.201   3.531   2.651
 1660TIP3    H1 4944   0.290   3.512   2.623
 1660TIP3    H2 4945   0.177   3.611   2.604
 1661TIP3   OH2 4946   1.024   1.733   1.572
 1661TIP3    H1 4947   1.028   1.732   1.476
 1661TIP3    H2 4948   0.954   1.795   1.592
 1662TIP3   OH2 4949   7.222   5.254   0.907
 1662TIP3    H1 4950   7.284   5.188   0.939
 1662TIP3    H2 4951   7.185   5.215   0.827
 1663TIP3   OH2 4952   0.632   0.106   1.719
 1663TIP3    H1 4953   0.636   0.052   1.639
 1663TIP3    H2 4954   0.637   0.196   1.687
 1664TIP3   OH2 4955   3.828   3.149   2.754
 1664TIP3    H1 4956   3.840   3.201   2.834
 1664TIP3    H2 4957   3.813   3.060   2.785
 1665TIP3   OH2 4958   6.877   3.067   3.942
 1665TIP3    H1 4959   6.911   3.088   3.855
 1665TIP3    H2 4960   6.782   3.062   3.930
 1666TIP3   OH2 4961   1.350   3.382   2.566
 1666TIP3    H1 4962   1.277   3.431   2.606
 1666TIP3    H2 4963   1.315   3.352   2.482
 1667TIP3   OH2 4964   5.997   4.266   0.136
 1667TIP3    H1 4965   5.922   4.245   0.191
 1667TIP3    H2 4966   6.042   4.182   0.124
 1668TIP3   OH2 4967   6.266   5.261   3.898
 1668TIP3    H1 4968   6.349   5.216   3.878
 1668TIP3    H2 4969   6.252   5.319   3.824
 1669TIP3   OH2 4970   2.376   2.527   1.152
 1669TIP3    H1 4971   2.344   2.555   1.067
 1669TIP3    H2 4972   2.313   2.461   1.181
 1670TIP3   OH2 4973   5.579   2.242   4.900
 1670TIP3    H1 4974   5.512   2.235   4.831
 1670TIP3    H2 4975   5.535   2.288   4.971
 1671TIP3   OH2 4976   6.392   4.900   3.795
 1671TIP3    H1 4977   6.408   4.833   3.862
 1671TIP3    H2 4978   6.329   4.960   3.836
 1672TIP3   OH2 4979   0.858   4.586   1.345
 1672TIP3    H1 4980   0.951   4.572   1.329
 1672TIP3    H2 4981   0.827   4.633   1.267
 1673TIP3   OH2 4982   2.588   5.026   2.991
 1673TIP3    H1 4983   2.577   4.931   2.994
 1673TIP3    H2 4984   2.591   5.047   2.897
 1674TIP3   OH2 4985   1.248   3.978   3.859
 1674TIP3    H1 4986   1.217   4.036   3.929
 1674TIP3    H2 4987   1.277   3.899   3.905
 1675TIP3   OH2 4988   3.973   5.984   4.311
 1675TIP3    H1 4989   3.955   5.958   4.220
 1675TIP3    H2 4990   4.012   5.907   4.351
 1676TIP3   OH2 4991   2.395   4.568   2.201
 1676TIP3    H1 4992   2.481   4.533   2.178
 1676TIP3    H2 4993   2.375   4.630   2.131
 1677TIP3   OH2 4994   6.106   1.604   4.822
 1677TIP3    H1 4995   6.135   1.602   4.731
 1677TIP3    H2 4996   6.042   1.534   4.829
 1678TIP3   OH2 4997   3.873   1.933   3.427
 1678TIP3    H1 4998   3.910   1.847   3.406
 1678TIP3    H2 4999   3.915   1.957   3.510
 1679TIP3   OH2 5000   3.111   2.398   3.123
 1679TIP3    H1 5001   3.205   2.415   3.128
 1679TIP3    H2 5002   3.102   2.306   3.142
 1680TIP3   OH2 5003   0.601   2.727   4.463
 1680TIP3    H1 5004   0.515   2.738   4.504
 1680TIP3    H2 5005   0.602   2.793   4.394
 1681TIP3   OH2 5006   6.279   0.194   1.716
 1681TIP3    H1 5007   6.189   0.223   1.726
 1681TIP3    H2 5008   6.332   0.270   1.744
 1682TIP3   OH2 5009   6.330   0.588   0.238
 1682TIP3    H1 5010   6.373   0.604   0.322
 1682TIP3    H2 5011   6.242   0.624   0.249
 1683TIP3   OH2 5012   0.220   5.844   0.027
 1683TIP3    H1 5013   0.246   5.782  -0.041
 1683TIP3    H2 5014   0.302   5.870   0.069
 1684TIP3   OH2 5015   0.606   1.033   5.071
 1684TIP3    H1 5016   0.536   0.975   5.039
 1684TIP3    H2 5017   0.666   0.974   5.117
 1685TIP3   OH2 5018   0.022   2.330   2.350
 1685TIP3    H1 5019   0.064   2.408   2.387
 1685TIP3    H2 5020   0.059   2.257   2.400
 1686TIP3   OH2 5021   6.453   2.818   2.257
 1686TIP3    H1 5022   6.365   2.799   2.223
 1686TIP3    H2 5023   6.452   2.911   2.278
 1687TIP3   OH2 5024   6.274   6.657   3.568
 1687TIP3    H1 5025   6.328   6.727   3.531
 1687TIP3    H2 5026   6.333   6.582   3.574
 1688TIP3   OH2 5027   5.304   2.490   2.382
 1688TIP3    H1 5028   5.400   2.493   2.380
 1688TIP3    H2 5029   5.282   2.397   2.382
 1689TIP3   OH2 5030   3.510   1.746   2.265
 1689TIP3    H1 5031   3.490   1.823   2.318
 1689TIP3    H2 5032   3.496   1.672   2.324
 1690TIP3   OH2 5033   5.345   1.047   2.881
 1690TIP3    H1 5034   5.353   1.141   2.894
 1690TIP3    H2 5035   5.409   1.008   2.941
 1691TIP3   OH2 5036   6.452   3.504   2.460
 1691TIP3    H1 5037   6.403   3.441   2.512
 1691TIP3    H2 5038   6.483   3.454   2.385
 1692TIP3   OH2 5039   5.071   0.213   4.714
 1692TIP3    H1 5040   4.988   0.203   4.760
 1692TIP3    H2 5041   5.135   0.233   4.783
 1693TIP3   OH2 5042   0.256   0.997   0.963
 1693TIP3    H1 5043   0.294   1.059   0.900
 1693TIP3    H2 5044   0.295   0.913   0.940
 1694TIP3   OH2 5045   1.023   5.519   1.003
 1694TIP3    H1 5046   1.072   5.477   1.074
 1694TIP3    H2 5047   1.088   5.573   0.958
 1695TIP3   OH2 5048   3.552   6.261   4.038
 1695TIP3    H1 5049   3.517   6.347   4.017
 1695TIP3    H2 5050   3.643   6.264   4.007
 1696TIP3   OH2 5051   6.705   4.000   4.817
 1696TIP3    H1 5052   6.717   3.906   4.807
 1696TIP3    H2 5053   6.756   4.023   4.894
 1697TIP3   OH2 5054   4.508   5.051   5.014
 1697TIP3    H1 5055   4.480   5.093   5.095
 1697TIP3    H2 5056   4.526   5.124   4.955
 1698TIP3   OH2 5057   0.008   5.773   3.401
 1698TIP3    H1 5058  -0.029   5.810   3.482
 1698TIP3    H2 5059  -0.067   5.730   3.359
 1699TIP3   OH2 5060   5.509   6.790   1.930
 1699TIP3    H1 5061   5.486   6.832   1.847
 1699TIP3    H2 5062   5.442   6.820   1.992
 1700TIP3   OH2 5063   2.331   4.045   1.130
 1700TIP3    H1 5064   2.349   4.123   1.077
 1700TIP3    H2 5065   2.244   4.062   1.169
 1701TIP3   OH2 5066   3.252   3.756   0.114
 1701TIP3    H1 5067   3.235   3.739   0.207
 1701TIP3    H2 5068   3.195   3.829   0.092
 1702TIP3   OH2 5069   5.147   4.783   0.191
 1702TIP3    H1 5070   5.123   4.782   0.098
 1702TIP3    H2 5071   5.064   4.798   0.236
 1703TIP3   OH2 5072   4.515   2.380   5.459
 1703TIP3    H1 5073   4.541   2.295   5.494
 1703TIP3    H2 5074   4.544   2.377   5.368
 1704TIP3   OH2 5075   6.185   2.171   3.138
 1704TIP3    H1 5076   6.124   2.100   3.124
 1704TIP3    H2 5077   6.266   2.143   3.095
 1705TIP3   OH2 5078   6.537   6.783   5.631
 1705TIP3    H1 5079   6.456   6.765   5.681
 1705TIP3    H2 5080   6.607   6.777   5.696
 1706TIP3   OH2 5081   3.649   1.774   5.452
 1706TIP3    H1 5082   3.602   1.852   5.422
 1706TIP3    H2 5083   3.740   1.804   5.461
 1707TIP3   OH2 5084   2.227   6.304   5.667
 1707TIP3    H1 5085   2.300   6.365   5.680
 1707TIP3    H2 5086   2.194   6.324   5.579
 1708TIP3   OH2 5087   0.332   4.969   5.079
 1708TIP3    H1 5088   0.270   4.954   5.008
 1708TIP3    H2 5089   0.342   4.884   5.122
 1709TIP3   OH2 5090   4.625   4.012   3.232
 1709TIP3    H1 5091   4.602   3.927   3.194
 1709TIP3    H2 5092   4.626   3.996   3.326
 1710TIP3   OH2 5093   4.511   5.562   5.601
 1710TIP3    H1 5094   4.438   5.603   5.555
 1710TIP3    H2 5095   4.503   5.469   5.581
 1711TIP3   OH2 5096   7.044   1.638   1.325
 1711TIP3    H1 5097   7.113   1.571   1.324
 1711TIP3    H2 5098   7.007   1.633   1.413
 1712TIP3   OH2 5099   3.434   2.567   2.767
 1712TIP3    H1 5100   3.458   2.639   2.826
 1712TIP3    H2 5101   3.338   2.572   2.762
 1713TIP3   OH2 5102   2.532   6.207   1.429
 1713TIP3    H1 5103   2.573   6.127   1.398
 1713TIP3    H2 5104   2.588   6.238   1.500
 1714TIP3   OH2 5105   2.242   3.283   1.971
 1714TIP3    H1 5106   2.300   3.283   2.047
 1714TIP3    H2 5107   2.256   3.198   1.929
 1715TIP3   OH2 5108   4.304   1.858   4.260
 1715TIP3    H1 5109   4.220   1.867   4.214
 1715TIP3    H2 5110   4.290   1.788   4.323
 1716TIP3   OH2 5111   1.686   2.442   4.130
 1716TIP3    H1 5112   1.769   2.436   4.083
 1716TIP3    H2 5113   1.703   2.400   4.214
 1717TIP3   OH2 5114   6.673   1.163   2.548
 1717TIP3    H1 5115   6.641   1.084   2.591
 1717TIP3    H2 5116   6.677   1.140   2.455
 1718TIP3   OH2 5117   5.460   4.385   1.265
 1718TIP3    H1 5118   5.456   4.361   1.173
 1718TIP3    H2 5119   5.524   4.457   1.268
 1719TIP3   OH2 5120   3.753   5.554   0.939
 1719TIP3    H1 5121   3.675   5.595   0.902
 1719TIP3    H2 5122   3.757   5.468   0.897
 1720TIP3   OH2 5123   0.246   0.060   5.026
 1720TIP3    H1 5124   0.156   0.038   5.052
 1720TIP3    H2 5125   0.255   0.152   5.050
 1721TIP3   OH2 5126   2.183   6.733   3.446
 1721TIP3    H1 5127   2.211   6.818   3.412
 1721TIP3    H2 5128   2.258   6.676   3.430
 1722TIP3   OH2 5129   6.710   2.356   3.942
 1722TIP3    H1 5130   6.694   2.263   3.928
 1722TIP3    H2 5131   6.743   2.362   4.031
 1723TIP3   OH2 5132   3.720   5.557   3.168
 1723TIP3    H1 5133   3.758   5.562   3.081
 1723TIP3    H2 5134   3.646   5.618   3.165
 1724TIP3   OH2 5135   4.680   1.680   4.699
 1724TIP3    H1 5136   4.610   1.644   4.644
 1724TIP3    H2 5137   4.740   1.607   4.713
 1725TIP3   OH2 5138   6.089   0.582   1.982
 1725TIP3    H1 5139   6.122   0.607   1.896
 1725TIP3    H2 5140   6.134   0.640   2.044
 1726TIP3   OH2 5141   3.183   0.682   4.172
 1726TIP3    H1 5142   3.169   0.772   4.143
 1726TIP3    H2 5143   3.152   0.628   4.100
 1727TIP3   OH2 5144   6.452   0.167   1.335
 1727TIP3    H1 5145   6.524   0.210   1.288
 1727TIP3    H2 5146   6.452   0.078   1.300
 1728TIP3   OH2 5147   4.895   3.596   4.296
 1728TIP3    H1 5148   4.975   3.574   4.249
 1728TIP3    H2 5149   4.904   3.689   4.316
 1729TIP3   OH2 5150   5.560   6.505   2.926
 1729TIP3    H1 5151   5.639   6.555   2.948
 1729TIP3    H2 5152   5.574   6.419   2.966
 1730TIP3   OH2 5153   0.599   3.587   2.318
 1730TIP3    H1 5154   0.547   3.513   2.350
 1730TIP3    H2 5155   0.667   3.599   2.384
 1731TIP3   OH2 5156   4.643   1.824   1.093
 1731TIP3    H1 5157   4.693   1.773   1.157
 1731TIP3    H2 5158   4.681   1.911   1.097
 1732TIP3   OH2 5159   3.850   1.075   0.530
 1732TIP3    H1 5160   3.875   1.164   0.553
 1732TIP3    H2 5161   3.755   1.075   0.531
 1733TIP3   OH2 5162   0.693   4.137   5.482
 1733TIP3    H1 5163   0.637   4.060   5.469
 1733TIP3    H2 5164   0.640   4.196   5.535
 1734TIP3   OH2 5165   6.375   2.592   5.067
 1734TIP3    H1 5166   6.388   2.677   5.109
 1734TIP3    H2 5167   6.428   2.596   4.988
 1735TIP3   OH2 5168   6.373   4.570   5.256
 1735TIP3    H1 5169   6.288   4.544   5.291
 1735TIP3    H2 5170   6.352   4.617   5.175
 1736TIP3   OH2 5171   4.304   3.183   0.029
 1736TIP3    H1 5172   4.351   3.258  -0.008
 1736TIP3    H2 5173   4.329   3.109  -0.025
 1737TIP3   OH2 5174   0.045   6.524   2.501
 1737TIP3    H1 5175  -0.021   6.593   2.509
 1737TIP3    H2 5176   0.123   6.561   2.542
 1738TIP3   OH2 5177   3.959   5.972   5.340
 1738TIP3    H1 5178   3.905   6.051   5.352
 1738TIP3    H2 5179   4.007   5.963   5.423
 1739TIP3   OH2 5180   3.182   1.271   0.456
 1739TIP3    H1 5181   3.154   1.296   0.544
 1739TIP3    H2 5182   3.251   1.206   0.470
 1740TIP3   OH2 5183   6.539   6.216   4.435
 1740TIP3    H1 5184   6.515   6.141   4.491
 1740TIP3    H2 5185   6.635   6.214   4.435
 1741TIP3   OH2 5186   5.089   0.395   4.518
 1741TIP3    H1 5187   5.176   0.402   4.479
 1741TIP3    H2 5188   5.096   0.321   4.579
 1742TIP3   OH2 5189   1.932   1.417   3.882
 1742TIP3    H1 5190   1.951   1.393   3.791
 1742TIP3    H2 5191   1.947   1.336   3.931
 1743TIP3   OH2 5192   1.213   1.529   1.648
 1743TIP3    H1 5193   1.154   1.603   1.658
 1743TIP3    H2 5194   1.288   1.564   1.600
 1744TIP3   OH2 5195   1.827   5.902   0.722
 1744TIP3    H1 5196   1.816   5.890   0.628
 1744TIP3    H2 5197   1.844   5.814   0.756
 1745TIP3   OH2 5198   2.975   3.461   0.555
 1745TIP3    H1 5199   2.951   3.408   0.479
 1745TIP3    H2 5200   2.903   3.524   0.564
 1746TIP3   OH2 5201   2.311   3.743   0.739
 1746TIP3    H1 5202   2.301   3.820   0.684
 1746TIP3    H2 5203   2.355   3.679   0.683
 1747TIP3   OH2 5204   0.583   3.101   1.410
 1747TIP3    H1 5205   0.574   3.081   1.317
 1747TIP3    H2 5206   0.494   3.120   1.439
 1748TIP3   OH2 5207   5.354   0.278   3.379
 1748TIP3    H1 5208   5.448   0.285   3.367
 1748TIP3    H2 5209   5.326   0.365   3.405
 1749TIP3   OH2 5210   1.793   4.315   1.909
 1749TIP3    H1 5211   1.789   4.380   1.838
 1749TIP3    H2 5212   1.713   4.263   1.898
 1750TIP3   OH2 5213   4.984   0.447   2.301
 1750TIP3    H1 5214   4.950   0.360   2.283
 1750TIP3    H2 5215   5.049   0.462   2.232
 1751TIP3   OH2 5216   1.810   3.212   0.099
 1751TIP3    H1 5217   1.766   3.288   0.138
 1751TIP3    H2 5218   1.864   3.248   0.029
 1752TIP3   OH2 5219   6.249   6.152   0.771
 1752TIP3    H1 5220   6.192   6.101   0.714
 1752TIP3    H2 5221   6.200   6.161   0.853
 1753TIP3   OH2 5222   2.427   2.566   4.515
 1753TIP3    H1 5223   2.361   2.542   4.580
 1753TIP3    H2 5224   2.497   2.501   4.527
 1754TIP3   OH2 5225   4.935   4.058   4.825
 1754TIP3    H1 5226   4.918   3.995   4.895
 1754TIP3    H2 5227   4.956   4.005   4.748
 1755TIP3   OH2 5228   6.637   0.138   1.576
 1755TIP3    H1 5229   6.551   0.097   1.583
 1755TIP3    H2 5230   6.643   0.167   1.485
 1756TIP3   OH2 5231   5.769   4.465   1.017
 1756TIP3    H1 5232   5.799   4.437   1.103
 1756TIP3    H2 5233   5.690   4.413   1.001
 1757TIP3   OH2 5234   2.957   5.364   1.398
 1757TIP3    H1 5235   2.938   5.330   1.485
 1757TIP3    H2 5236   2.871   5.387   1.362
 1758TIP3   OH2 5237   5.090   1.932   0.050
 1758TIP3    H1 5238   5.106   2.011  -0.001
 1758TIP3    H2 5239   5.043   1.963   0.128
 1759TIP3   OH2 5240   6.669   6.029   2.111
 1759TIP3    H1 5241   6.698   6.101   2.055
 1759TIP3    H2 5242   6.694   6.056   2.200
 1760TIP3   OH2 5243   0.624   5.161   2.619
 1760TIP3    H1 5244   0.590   5.236   2.667
 1760TIP3    H2 5245   0.705   5.192   2.579
 1761TIP3   OH2 5246   7.153   5.302   4.188
 1761TIP3    H1 5247   7.244   5.325   4.173
 1761TIP3    H2 5248   7.144   5.214   4.151
 1762TIP3   OH2 5249   4.320   0.291   1.305
 1762TIP3    H1 5250   4.349   0.201   1.316
 1762TIP3    H2 5251   4.240   0.296   1.357
 1763TIP3   OH2 5252   1.042   4.712   0.175
 1763TIP3    H1 5253   1.033   4.619   0.196
 1763TIP3    H2 5254   1.041   4.716   0.079
 1764TIP3   OH2 5255   1.915   4.585   4.190
 1764TIP3    H1 5256   1.964   4.530   4.251
 1764TIP3    H2 5257   1.972   4.595   4.114
 1765TIP3   OH2 5258   2.163   6.777   4.176
 1765TIP3    H1 5259   2.223   6.765   4.102
 1765TIP3    H2 5260   2.198   6.853   4.223
 1766TIP3   OH2 5261   0.840   3.546   4.212
 1766TIP3    H1 5262   0.834   3.572   4.304
 1766TIP3    H2 5263   0.875   3.457   4.213
 1767TIP3   OH2 5264   4.856   3.389   2.848
 1767TIP3    H1 5265   4.934   3.359   2.896
 1767TIP3    H2 5266   4.788   3.326   2.871
 1768TIP3   OH2 5267   0.840   5.732   0.849
 1768TIP3    H1 5268   0.865   5.770   0.933
 1768TIP3    H2 5269   0.853   5.803   0.786
 1769TIP3   OH2 5270   5.167   4.528   4.522
 1769TIP3    H1 5271   5.208   4.480   4.595
 1769TIP3    H2 5272   5.241   4.556   4.467
 1770TIP3   OH2 5273   5.445   3.076   0.025
 1770TIP3    H1 5274   5.483   3.140   0.085
 1770TIP3    H2 5275   5.356   3.109   0.008
 1771TIP3   OH2 5276   0.423   0.429   0.914
 1771TIP3    H1 5277   0.471   0.432   0.996
 1771TIP3    H2 5278   0.340   0.386   0.936
 1772TIP3   OH2 5279   2.636   4.727   5.086
 1772TIP3    H1 5280   2.608   4.644   5.049
 1772TIP3    H2 5281   2.564   4.754   5.144
 1773TIP3   OH2 5282   5.291   1.438   4.717
 1773TIP3    H1 5283   5.259   1.525   4.693
 1773TIP3    H2 5284   5.347   1.453   4.793
 1774TIP3   OH2 5285   4.169   0.653   0.572
 1774TIP3    H1 5286   4.085   0.697   0.573
 1774TIP3    H2 5287   4.200   0.659   0.663
 1775TIP3   OH2 5288   5.144   6.545   1.693
 1775TIP3    H1 5289   5.128   6.579   1.781
 1775TIP3    H2 5290   5.226   6.496   1.700
 1776TIP3   OH2 5291   6.514   2.738   0.368
 1776TIP3    H1 5292   6.445   2.781   0.419
 1776TIP3    H2 5293   6.467   2.676   0.312
 1777TIP3   OH2 5294   3.109   0.877   4.859
 1777TIP3    H1 5295   3.192   0.855   4.903
 1777TIP3    H2 5296   3.063   0.933   4.922
 1778TIP3   OH2 5297   3.441   1.634   5.046
 1778TIP3    H1 5298   3.445   1.613   5.140
 1778TIP3    H2 5299   3.361   1.590   5.015
 1779TIP3   OH2 5300   4.371   4.795   3.076
 1779TIP3    H1 5301   4.324   4.851   3.014
 1779TIP3    H2 5302   4.453   4.774   3.032
 1780TIP3   OH2 5303   1.042   5.694   5.531
 1780TIP3    H1 5304   1.088   5.622   5.488
 1780TIP3    H2 5305   1.024   5.662   5.619
 1781TIP3   OH2 5306   5.956   2.247   3.482
 1781TIP3    H1 5307   5.892   2.276   3.548
 1781TIP3    H2 5308   5.981   2.329   3.438
 1782TIP3   OH2 5309   3.198   4.583   1.407
 1782TIP3    H1 5310   3.197   4.536   1.490
 1782TIP3    H2 5311   3.114   4.629   1.404
 1783TIP3   OH2 5312   5.415   1.069   3.673
 1783TIP3    H1 5313   5.452   0.992   3.716
 1783TIP3    H2 5314   5.375   1.036   3.593
 1784TIP3   OH2 5315   5.751   3.195   1.536
 1784TIP3    H1 5316   5.675   3.147   1.504
 1784TIP3    H2 5317   5.813   3.194   1.463
 1785TIP3   OH2 5318   3.360   6.364   4.957
 1785TIP3    H1 5319   3.355   6.287   5.013
 1785TIP3    H2 5320   3.272   6.373   4.921
 1786TIP3   OH2 5321   3.365   2.601   3.857
 1786TIP3    H1 5322   3.353   2.562   3.770
 1786TIP3    H2 5323   3.417   2.680   3.841
 1787TIP3   OH2 5324   5.370   3.219   4.738
 1787TIP3    H1 5325   5.431   3.145   4.741
 1787TIP3    H2 5326   5.283   3.179   4.737
 1788TIP3   OH2 5327   1.963   0.396   3.337
 1788TIP3    H1 5328   1.988   0.469   3.281
 1788TIP3    H2 5329   2.037   0.384   3.396
 1789TIP3   OH2 5330   4.071   1.013   4.606
 1789TIP3    H1 5331   3.998   1.066   4.574
 1789TIP3    H2 5332   4.113   1.067   4.673
 1790TIP3   OH2 5333   5.648   6.218   3.309
 1790TIP3    H1 5334   5.696   6.278   3.366
 1790TIP3    H2 5335   5.565   6.204   3.354
 1791TIP3   OH2 5336   6.506   5.828   2.915
 1791TIP3    H1 5337   6.601   5.831   2.929
 1791TIP3    H2 5338   6.495   5.830   2.820
 1792TIP3   OH2 5339   1.221   0.597   4.786
 1792TIP3    H1 5340   1.127   0.599   4.807
 1792TIP3    H2 5341   1.230   0.654   4.710
 1793TIP3   OH2 5342   5.306   4.354   5.624
 1793TIP3    H1 5343   5.354   4.431   5.594
 1793TIP3    H2 5344   5.293   4.370   5.718
 1794TIP3   OH2 5345   4.445   2.444   3.765
 1794TIP3    H1 5346   4.427   2.510   3.832
 1794TIP3    H2 5347   4.496   2.378   3.810
 1795TIP3   OH2 5348   6.500   0.609   2.365
 1795TIP3    H1 5349   6.501   0.641   2.455
 1795TIP3    H2 5350   6.432   0.660   2.322
 1796TIP3   OH2 5351   5.493   1.001   3.159
 1796TIP3    H1 5352   5.562   1.032   3.217
 1796TIP3    H2 5353   5.412   1.016   3.208
 1797TIP3   OH2 5354   5.303   6.049   1.140
 1797TIP3    H1 5355   5.380   6.064   1.195
 1797TIP3    H2 5356   5.287   5.955   1.146
 1798TIP3   OH2 5357   5.243   1.742   1.751
 1798TIP3    H1 5358   5.197   1.664   1.781
 1798TIP3    H2 5359   5.192   1.773   1.676
 1799TIP3   OH2 5360   3.847   1.301   3.520
 1799TIP3    H1 5361   3.910   1.294   3.592
 1799TIP3    H2 5362   3.803   1.385   3.536
 1800TIP3   OH2 5363   4.513   1.700   1.621
 1800TIP3    H1 5364   4.500   1.726   1.712
 1800TIP3    H2 5365   4.581   1.633   1.625
 1801TIP3   OH2 5366   5.150   2.245   3.405
 1801TIP3    H1 5367   5.214   2.305   3.442
 1801TIP3    H2 5368   5.181   2.229   3.316
 1802TIP3   OH2 5369   1.310   1.444   5.723
 1802TIP3    H1 5370   1.372   1.381   5.760
 1802TIP3    H2 5371   1.268   1.398   5.651
 1803TIP3   OH2 5372   1.620   3.174   1.687
 1803TIP3    H1 5373   1.687   3.227   1.731
 1803TIP3    H2 5374   1.668   3.107   1.641
 1804TIP3   OH2 5375   1.102   6.693   4.120
 1804TIP3    H1 5376   1.078   6.726   4.207
 1804TIP3    H2 5377   1.129   6.771   4.071
 1805TIP3   OH2 5378   4.876   4.229   1.677
 1805TIP3    H1 5379   4.845   4.317   1.657
 1805TIP3    H2 5380   4.824   4.202   1.752
 1806TIP3   OH2 5381   1.653   0.204   4.528
 1806TIP3    H1 5382   1.643   0.297   4.507
 1806TIP3    H2 5383   1.573   0.164   4.495
 1807TIP3   OH2 5384   3.172   1.661   4.544
 1807TIP3    H1 5385   3.126   1.663   4.460
 1807TIP3    H2 5386   3.193   1.568   4.557
 1808TIP3   OH2 5387   4.349   4.491   2.505
 1808TIP3    H1 5388   4.321   4.582   2.507
 1808TIP3    H2 5389   4.343   4.466   2.413
 1809TIP3   OH2 5390   0.607   4.218   1.979
 1809TIP3    H1 5391   0.667   4.178   2.042
 1809TIP3    H2 5392   0.550   4.273   2.034
 1810TIP3   OH2 5393   6.873   1.240   4.266
 1810TIP3    H1 5394   6.797   1.283   4.226
 1810TIP3    H2 5395   6.919   1.198   4.193
 1811TIP3   OH2 5396   5.724   1.926   0.172
 1811TIP3    H1 5397   5.733   1.877   0.091
 1811TIP3    H2 5398   5.791   1.994   0.167
 1812TIP3   OH2 5399   3.267   2.125   5.758
 1812TIP3    H1 5400   3.322   2.079   5.695
 1812TIP3    H2 5401   3.187   2.072   5.765
 1813TIP3   OH2 5402   3.161   4.657   3.977
 1813TIP3    H1 5403   3.240   4.604   3.964
 1813TIP3    H2 5404   3.089   4.593   3.976
 1814TIP3   OH2 5405   7.140   3.984   1.779
 1814TIP3    H1 5406   7.153   4.078   1.791
 1814TIP3    H2 5407   7.222   3.944   1.809
 1815TIP3   OH2 5408   6.812   3.155   4.542
 1815TIP3    H1 5409   6.790   3.207   4.465
 1815TIP3    H2 5410   6.843   3.072   4.507
 1816TIP3   OH2 5411   2.267   5.233   3.692
 1816TIP3    H1 5412   2.344   5.290   3.689
 1816TIP3    H2 5413   2.292   5.163   3.752
 1817TIP3   OH2 5414   2.199   3.174   0.057
 1817TIP3    H1 5415   2.119   3.207   0.015
 1817TIP3    H2 5416   2.269   3.228   0.020
 1818TIP3   OH2 5417   5.735   5.252   1.235
 1818TIP3    H1 5418   5.740   5.316   1.164
 1818TIP3    H2 5419   5.648   5.213   1.226
 1819TIP3   OH2 5420   6.140   2.436   4.502
 1819TIP3    H1 5421   6.213   2.424   4.563
 1819TIP3    H2 5422   6.181   2.470   4.423
 1820TIP3   OH2 5423   6.322   3.020   3.315
 1820TIP3    H1 5424   6.355   3.109   3.331
 1820TIP3    H2 5425   6.229   3.025   3.337
 1821TIP3   OH2 5426   0.110   4.785   2.508
 1821TIP3    H1 5427   0.193   4.808   2.467
 1821TIP3    H2 5428   0.134   4.762   2.598
 1822TIP3   OH2 5429   5.999   1.288   1.616
 1822TIP3    H1 5430   6.036   1.374   1.597
 1822TIP3    H2 5431   6.014   1.238   1.536
 1823TIP3   OH2 5432   3.400   6.336   3.317
 1823TIP3    H1 5433   3.409   6.381   3.233
 1823TIP3    H2 5434   3.306   6.321   3.327
 1824TIP3   OH2 5435   4.304   3.707   3.655
 1824TIP3    H1 5436   4.346   3.741   3.576
 1824TIP3    H2 5437   4.282   3.785   3.705
 1825TIP3   OH2 5438   3.969   5.506   4.105
 1825TIP3    H1 5439   3.925   5.590   4.092
 1825TIP3    H2 5440   4.052   5.514   4.059
 1826TIP3   OH2 5441   5.659   4.922   5.694
 1826TIP3    H1 5442   5.648   4.887   5.782
 1826TIP3    H2 5443   5.753   4.916   5.677
 1827TIP3   OH2 5444   7.197   6.365   4.537
 1827TIP3    H1 5445   7.244   6.282   4.526
 1827TIP3    H2 5446   7.185   6.398   4.448
 1828TIP3   OH2 5447   4.950   2.952   1.066
 1828TIP3    H1 5448   4.976   3.034   1.107
 1828TIP3    H2 5449   5.016   2.888   1.095
 1829TIP3   OH2 5450   6.667   4.362   3.747
 1829TIP3    H1 5451   6.654   4.440   3.801
 1829TIP3    H2 5452   6.762   4.350   3.744
 1830TIP3   OH2 5453   1.771   3.483   4.797
 1830TIP3    H1 5454   1.857   3.508   4.762
 1830TIP3    H2 5455   1.788   3.404   4.848
 1831TIP3   OH2 5456   4.601   4.650   2.983
 1831TIP3    H1 5457   4.645   4.664   2.899
 1831TIP3    H2 5458   4.636   4.568   3.015
 1832TIP3   OH2 5459   1.273   3.304   2.326
 1832TIP3    H1 5460   1.259   3.345   2.240
 1832TIP3    H2 5461   1.281   3.211   2.306
 1833TIP3   OH2 5462   3.981   4.796   5.159
 1833TIP3    H1 5463   3.933   4.715   5.139
 1833TIP3    H2 5464   4.071   4.768   5.175
 1834TIP3   OH2 5465   6.110   4.050   0.376
 1834TIP3    H1 5466   6.029   4.006   0.401
 1834TIP3    H2 5467   6.108   4.050   0.280
 1835TIP3   OH2 5468   3.719   2.708   5.846
 1835TIP3    H1 5469   3.653   2.716   5.914
 1835TIP3    H2 5470   3.703   2.781   5.787
 1836TIP3   OH2 5471   4.440   6.011   4.648
 1836TIP3    H1 5472   4.391   5.929   4.644
 1836TIP3    H2 5473   4.525   5.986   4.685
 1837TIP3   OH2 5474   7.031   0.681   0.378
 1837TIP3    H1 5475   7.010   0.648   0.465
 1837TIP3    H2 5476   7.122   0.710   0.383
 1838TIP3   OH2 5477   1.741   5.201   0.296
 1838TIP3    H1 5478   1.732   5.163   0.384
 1838TIP3    H2 5479   1.780   5.131   0.244
 1839TIP3   OH2 5480   3.874   3.543   4.576
 1839TIP3    H1 5481   3.825   3.622   4.599
 1839TIP3    H2 5482   3.966   3.570   4.583
 1840TIP3   OH2 5483   1.637   6.749   3.629
 1840TIP3    H1 5484   1.588   6.712   3.702
 1840TIP3    H2 5485   1.587   6.827   3.603
 1841TIP3   OH2 5486   7.171   4.780   4.875
 1841TIP3    H1 5487   7.266   4.789   4.882
 1841TIP3    H2 5488   7.142   4.863   4.837
 1842TIP3   OH2 5489   7.020   6.560   5.123
 1842TIP3    H1 5490   6.955   6.509   5.171
 1842TIP3    H2 5491   7.078   6.495   5.084
 1843TIP3   OH2 5492   3.391   6.562   2.222
 1843TIP3    H1 5493   3.303   6.545   2.188
 1843TIP3    H2 5494   3.410   6.486   2.277
 1844TIP3   OH2 5495   3.417   0.529   0.440
 1844TIP3    H1 5496   3.489   0.571   0.487
 1844TIP3    H2 5497   3.451   0.516   0.351
 1845TIP3   OH2 5498   6.203   3.800   1.004
 1845TIP3    H1 5499   6.264   3.763   1.067
 1845TIP3    H2 5500   6.238   3.774   0.918
 1846TIP3   OH2 5501   4.628   1.516   0.597
 1846TIP3    H1 5502   4.591   1.514   0.685
 1846TIP3    H2 5503   4.636   1.424   0.572
 1847TIP3   OH2 5504   6.846   4.876   0.117
 1847TIP3    H1 5505   6.763   4.844   0.082
 1847TIP3    H2 5506   6.864   4.956   0.068
 1848TIP3   OH2 5507   2.583   0.657   2.878
 1848TIP3    H1 5508   2.515   0.592   2.856
 1848TIP3    H2 5509   2.542   0.714   2.943
 1849TIP3   OH2 5510   2.697   3.639   2.772
 1849TIP3    H1 5511   2.656   3.692   2.704
 1849TIP3    H2 5512   2.662   3.674   2.854
 1850TIP3   OH2 5513   2.107   5.750   2.185
 1850TIP3    H1 5514   2.038   5.706   2.235
 1850TIP3    H2 5515   2.085   5.843   2.190
 1851TIP3   OH2 5516   0.996   3.336   1.823
 1851TIP3    H1 5517   0.911   3.369   1.794
 1851TIP3    H2 5518   1.009   3.374   1.910
 1852TIP3   OH2 5519   2.622   1.721   5.457
 1852TIP3    H1 5520   2.583   1.786   5.515
 1852TIP3    H2 5521   2.699   1.764   5.420
 1853TIP3   OH2 5522   2.863   6.463   5.790
 1853TIP3    H1 5523   2.871   6.485   5.698
 1853TIP3    H2 5524   2.815   6.537   5.828
 1854TIP3   OH2 5525   1.930   6.752   0.208
 1854TIP3    H1 5526   1.988   6.682   0.177
 1854TIP3    H2 5527   1.913   6.731   0.300
 1855TIP3   OH2 5528   2.496   5.026   5.374
 1855TIP3    H1 5529   2.582   5.001   5.342
 1855TIP3    H2 5530   2.451   5.061   5.297
 1856TIP3   OH2 5531   6.936   1.272   1.953
 1856TIP3    H1 5532   6.937   1.177   1.951
 1856TIP3    H2 5533   6.844   1.295   1.952
 1857TIP3   OH2 5534   6.016   6.418   4.947
 1857TIP3    H1 5535   5.995   6.503   4.985
 1857TIP3    H2 5536   5.991   6.355   5.015
 1858TIP3   OH2 5537   2.456   5.882   3.338
 1858TIP3    H1 5538   2.508   5.814   3.379
 1858TIP3    H2 5539   2.512   5.918   3.269
 1859TIP3   OH2 5540   1.751   1.576   5.558
 1859TIP3    H1 5541   1.847   1.574   5.563
 1859TIP3    H2 5542   1.725   1.486   5.579
 1860TIP3   OH2 5543   3.196   2.644   4.885
 1860TIP3    H1 5544   3.249   2.720   4.862
 1860TIP3    H2 5545   3.109   2.664   4.851
 1861TIP3   OH2 5546   0.832   4.347   0.721
 1861TIP3    H1 5547   0.853   4.294   0.644
 1861TIP3    H2 5548   0.797   4.284   0.784
 1862TIP3   OH2 5549   1.138   2.635   0.512
 1862TIP3    H1 5550   1.082   2.711   0.527
 1862TIP3    H2 5551   1.109   2.571   0.577
 1863TIP3   OH2 5552   2.493   5.905   4.267
 1863TIP3    H1 5553   2.480   5.875   4.177
 1863TIP3    H2 5554   2.495   6.000   4.261
 1864TIP3   OH2 5555   1.009   5.350   3.396
 1864TIP3    H1 5556   1.062   5.272   3.410
 1864TIP3    H2 5557   0.939   5.345   3.461
 1865TIP3   OH2 5558   5.026   5.917   1.185
 1865TIP3    H1 5559   4.957   5.968   1.228
 1865TIP3    H2 5560   4.999   5.913   1.093
 1866TIP3   OH2 5561   5.851   1.944   5.343
 1866TIP3    H1 5562   5.854   2.016   5.406
 1866TIP3    H2 5563   5.788   1.972   5.277
 1867TIP3   OH2 5564   5.989   5.122   5.461
 1867TIP3    H1 5565   6.063   5.076   5.423
 1867TIP3    H2 5566   5.920   5.116   5.395
 1868TIP3   OH2 5567   2.664   2.600   5.735
 1868TIP3    H1 5568   2.671   2.617   5.829
 1868TIP3    H2 5569   2.717   2.668   5.694
 1869TIP3   OH2 5570   4.580   1.349   3.908
 1869TIP3    H1 5571   4.591   1.256   3.927
 1869TIP3    H2 5572   4.655   1.391   3.950
 1870TIP3   OH2 5573   4.298   2.291   0.513
 1870TIP3    H1 5574   4.252   2.321   0.434
 1870TIP3    H2 5575   4.309   2.197   0.500
 1871TIP3   OH2 5576   0.621   2.990   3.407
 1871TIP3    H1 5577   0.639   3.019   3.497
 1871TIP3    H2 5578   0.685   2.922   3.391
 1872TIP3   OH2 5579   3.091   4.270   2.275
 1872TIP3    H1 5580   3.053   4.187   2.303
 1872TIP3    H2 5581   3.079   4.329   2.350
 1873TIP3   OH2 5582   6.106   6.213   2.978
 1873TIP3    H1 5583   6.159   6.291   2.963
 1873TIP3    H2 5584   6.169   6.142   2.989
 1874TIP3   OH2 5585   2.563   1.732   0.414
 1874TIP3    H1 5586   2.618   1.696   0.345
 1874TIP3    H2 5587   2.530   1.656   0.461
 1875TIP3   OH2 5588   5.978   5.409   5.033
 1875TIP3    H1 5589   5.918   5.463   5.086
 1875TIP3    H2 5590   5.927   5.384   4.956
 1876TIP3   OH2 5591   1.761   5.019   3.269
 1876TIP3    H1 5592   1.830   4.973   3.317
 1876TIP3    H2 5593   1.778   5.112   3.287
 1877TIP3   OH2 5594   4.343   0.162   5.202
 1877TIP3    H1 5595   4.394   0.221   5.146
 1877TIP3    H2 5596   4.409   0.106   5.243
 1878TIP3   OH2 5597   6.178   2.292   0.120
 1878TIP3    H1 5598   6.204   2.370   0.071
 1878TIP3    H2 5599   6.144   2.326   0.203
 1879TIP3   OH2 5600   2.974   3.598   3.328
 1879TIP3    H1 5601   2.954   3.681   3.284
 1879TIP3    H2 5602   3.057   3.569   3.289
 1880TIP3   OH2 5603   2.047   2.803   4.144
 1880TIP3    H1 5604   2.049   2.864   4.070
 1880TIP3    H2 5605   1.970   2.829   4.194
 1881TIP3   OH2 5606   6.090   4.841   0.718
 1881TIP3    H1 5607   6.108   4.934   0.729
 1881TIP3    H2 5608   5.996   4.838   0.699
 1882TIP3   OH2 5609   6.318   0.274   4.529
 1882TIP3    H1 5610   6.324   0.348   4.589
 1882TIP3    H2 5611   6.394   0.284   4.471
 1883TIP3   OH2 5612   5.383   1.471   1.563
 1883TIP3    H1 5613   5.357   1.488   1.653
 1883TIP3    H2 5614   5.310   1.422   1.525
 1884TIP3   OH2 5615   3.663   2.836   3.269
 1884TIP3    H1 5616   3.695   2.818   3.358
 1884TIP3    H2 5617   3.692   2.760   3.218
 1885TIP3   OH2 5618   4.790   2.579   4.267
 1885TIP3    H1 5619   4.745   2.516   4.211
 1885TIP3    H2 5620   4.738   2.659   4.258
 1886TIP3   OH2 5621   7.057   5.838   3.016
 1886TIP3    H1 5622   7.116   5.762   3.011
 1886TIP3    H2 5623   7.114   5.910   3.044
 1887TIP3   OH2 5624   6.648   2.752   1.094
 1887TIP3    H1 5625   6.674   2.705   1.174
 1887TIP3    H2 5626   6.556   2.731   1.082
 1888TIP3   OH2 5627   3.326   2.121   3.433
 1888TIP3    H1 5628   3.404   2.120   3.377
 1888TIP3    H2 5629   3.294   2.031   3.432
 1889TIP3   OH2 5630   6.602   2.714   1.932
 1889TIP3    H1 5631   6.509   2.727   1.912
 1889TIP3    H2 5632   6.625   2.786   1.990
 1890TIP3   OH2 5633   1.013   5.286   1.450
 1890TIP3    H1 5634   1.103   5.282   1.482
 1890TIP3    H2 5635   0.959   5.284   1.529
 1891TIP3   OH2 5636   0.046   5.158   5.819
 1891TIP3    H1 5637   0.022   5.121   5.904
 1891TIP3    H2 5638   0.120   5.216   5.838
 1892TIP3   OH2 5639   4.185   5.266   2.896
 1892TIP3    H1 5640   4.112   5.245   2.954
 1892TIP3    H2 5641   4.158   5.232   2.810
 1893TIP3   OH2 5642   1.892   6.702   0.483
 1893TIP3    H1 5643   1.964   6.729   0.539
 1893TIP3    H2 5644   1.914   6.613   0.455
 1894TIP3   OH2 5645   1.021   1.835   2.436
 1894TIP3    H1 5646   1.025   1.746   2.401
 1894TIP3    H2 5647   1.054   1.827   2.526
 1895TIP3   OH2 5648   6.356   4.030   5.016
 1895TIP3    H1 5649   6.275   4.082   5.012
 1895TIP3    H2 5650   6.384   4.023   4.925
 1896TIP3   OH2 5651   2.159   3.250   1.321
 1896TIP3    H1 5652   2.247   3.288   1.323
 1896TIP3    H2 5653   2.134   3.252   1.229
 1897TIP3   OH2 5654   6.488   3.203   5.826
 1897TIP3    H1 5655   6.459   3.290   5.802
 1897TIP3    H2 5656   6.565   3.186   5.771
 1898TIP3   OH2 5657   2.665   0.735   5.620
 1898TIP3    H1 5658   2.574   0.765   5.608
 1898TIP3    H2 5659   2.673   0.658   5.565
 1899TIP3   OH2 5660   2.217   4.980   4.169
 1899TIP3    H1 5661   2.279   5.032   4.221
 1899TIP3    H2 5662   2.157   5.044   4.131
 1900TIP3   OH2 5663   2.719   4.618   0.420
 1900TIP3    H1 5664   2.790   4.566   0.456
 1900TIP3    H2 5665   2.639   4.571   0.447
 1901TIP3   OH2 5666   4.547   3.537   4.845
 1901TIP3    H1 5667   4.544   3.577   4.932
 1901TIP3    H2 5668   4.633   3.495   4.841
 1902TIP3   OH2 5669   3.780   0.986   1.838
 1902TIP3    H1 5670   3.845   0.947   1.895
 1902TIP3    H2 5671   3.747   0.913   1.785
 1903TIP3   OH2 5672   0.578   0.859   1.983
 1903TIP3    H1 5673   0.593   0.932   1.922
 1903TIP3    H2 5674   0.488   0.832   1.967
 1904TIP3   OH2 5675   6.025   3.820   1.230
 1904TIP3    H1 5676   6.091   3.832   1.299
 1904TIP3    H2 5677   6.058   3.872   1.156
 1905TIP3   OH2 5678   0.073   1.217   4.287
 1905TIP3    H1 5679  -0.011   1.246   4.321
 1905TIP3    H2 5680   0.106   1.155   4.352
 1906TIP3   OH2 5681   4.911   0.524   5.249
 1906TIP3    H1 5682   4.979   0.591   5.242
 1906TIP3    H2 5683   4.957   0.441   5.236
 1907TIP3   OH2 5684   0.278   0.291   3.920
 1907TIP3    H1 5685   0.183   0.289   3.927
 1907TIP3    H2 5686   0.305   0.202   3.941
 1908TIP3   OH2 5687   0.917   3.695   2.996
 1908TIP3    H1 5688   0.970   3.616   2.991
 1908TIP3    H2 5689   0.958   3.747   3.066
 1909TIP3   OH2 5690   6.468   6.449   3.631
 1909TIP3    H1 5691   6.543   6.504   3.653
 1909TIP3    H2 5692   6.499   6.359   3.643
 1910TIP3   OH2 5693   1.004   6.057   3.101
 1910TIP3    H1 5694   1.076   6.099   3.147
 1910TIP3    H2 5695   0.973   5.989   3.161
 1911TIP3   OH2 5696   1.687   0.484   3.251
 1911TIP3    H1 5697   1.731   0.404   3.225
 1911TIP3    H2 5698   1.732   0.512   3.331
 1912TIP3   OH2 5699   1.741   4.730   5.787
 1912TIP3    H1 5700   1.804   4.707   5.855
 1912TIP3    H2 5701   1.681   4.791   5.829
 1913TIP3   OH2 5702   0.813   6.240   0.422
 1913TIP3    H1 5703   0.762   6.253   0.502
 1913TIP3    H2 5704   0.833   6.328   0.391
 1914TIP3   OH2 5705   7.026   5.613   4.968
 1914TIP3    H1 5706   7.088   5.683   4.948
 1914TIP3    H2 5707   7.015   5.616   5.063
 1915TIP3   OH2 5708   6.058   2.645   3.542
 1915TIP3    H1 5709   6.149   2.677   3.546
 1915TIP3    H2 5710   6.048   2.610   3.454
 1916TIP3   OH2 5711   5.627   5.407   3.667
 1916TIP3    H1 5712   5.595   5.495   3.688
 1916TIP3    H2 5713   5.722   5.414   3.670
 1917TIP3   OH2 5714   0.730   5.810   3.163
 1917TIP3    H1 5715   0.759   5.900   3.175
 1917TIP3    H2 5716   0.710   5.803   3.070
 1918TIP3   OH2 5717   5.438   3.817   3.928
 1918TIP3    H1 5718   5.470   3.762   3.856
 1918TIP3    H2 5719   5.509   3.816   3.992
 1919TIP3   OH2 5720   3.244   3.800   2.869
 1919TIP3    H1 5721   3.207   3.761   2.790
 1919TIP3    H2 5722   3.292   3.877   2.837
 1920TIP3   OH2 5723   6.255   3.075   5.348
 1920TIP3    H1 5724   6.336   3.123   5.330
 1920TIP3    H2 5725   6.265   3.046   5.439
 1921TIP3   OH2 5726   4.099   4.885   0.556
 1921TIP3    H1 5727   4.153   4.836   0.618
 1921TIP3    H2 5728   4.070   4.819   0.493
 1922TIP3   OH2 5729   4.397   5.360   0.104
 1922TIP3    H1 5730   4.452   5.324   0.035
 1922TIP3    H2 5731   4.437   5.331   0.185
 1923TIP3   OH2 5732   0.078   6.093   4.787
 1923TIP3    H1 5733   0.080   6.026   4.855
 1923TIP3    H2 5734   0.162   6.138   4.795
 1924TIP3   OH2 5735   5.038   0.785   0.444
 1924TIP3    H1 5736   4.964   0.843   0.461
 1924TIP3    H2 5737   5.043   0.729   0.522
 1925TIP3   OH2 5738   6.713   6.763   5.020
 1925TIP3    H1 5739   6.699   6.673   5.051
 1925TIP3    H2 5740   6.626   6.794   4.995
 1926TIP3   OH2 5741   6.112   4.672   5.660
 1926TIP3    H1 5742   6.059   4.733   5.711
 1926TIP3    H2 5743   6.202   4.701   5.673
 1927TIP3   OH2 5744   4.139   0.817   4.027
 1927TIP3    H1 5745   4.119   0.910   4.022
 1927TIP3    H2 5746   4.156   0.801   4.120
 1928TIP3   OH2 5747   5.002   1.098   5.104
 1928TIP3    H1 5748   5.034   1.011   5.083
 1928TIP3    H2 5749   5.003   1.145   5.021
 1929TIP3   OH2 5750   0.115   5.876   2.653
 1929TIP3    H1 5751   0.108   5.966   2.684
 1929TIP3    H2 5752   0.190   5.840   2.702
 1930TIP3   OH2 5753   2.703   2.554   2.559
 1930TIP3    H1 5754   2.620   2.559   2.511
 1930TIP3    H2 5755   2.770   2.556   2.491
 1931TIP3   OH2 5756   5.275   0.648   1.893
 1931TIP3    H1 5757   5.251   0.634   1.802
 1931TIP3    H2 5758   5.366   0.620   1.899
 1932TIP3   OH2 5759   3.246   4.604   0.890
 1932TIP3    H1 5760   3.242   4.580   0.983
 1932TIP3    H2 5761   3.237   4.700   0.890
 1933TIP3   OH2 5762   5.693   2.580   5.625
 1933TIP3    H1 5763   5.738   2.565   5.708
 1933TIP3    H2 5764   5.632   2.507   5.617
 1934TIP3   OH2 5765   1.425   3.448   0.237
 1934TIP3    H1 5766   1.362   3.515   0.210
 1934TIP3    H2 5767   1.427   3.387   0.164
 1935TIP3   OH2 5768   0.285   4.082   1.286
 1935TIP3    H1 5769   0.374   4.068   1.320
 1935TIP3    H2 5770   0.292   4.164   1.235
 1936TIP3   OH2 5771   0.102   5.488   1.937
 1936TIP3    H1 5772   0.150   5.569   1.955
 1936TIP3    H2 5773   0.010   5.512   1.952
 1937TIP3   OH2 5774   6.335   5.939   3.538
 1937TIP3    H1 5775   6.296   5.959   3.453
 1937TIP3    H2 5776   6.300   6.005   3.597
 1938TIP3   OH2 5777   7.178   0.222   3.262
 1938TIP3    H1 5778   7.221   0.139   3.242
 1938TIP3    H2 5779   7.185   0.272   3.180
 1939TIP3   OH2 5780   6.966   6.446   1.586
 1939TIP3    H1 5781   6.994   6.520   1.640
 1939TIP3    H2 5782   6.871   6.445   1.594
 1940TIP3   OH2 5783   2.003   0.858   3.962
 1940TIP3    H1 5784   1.936   0.816   4.017
 1940TIP3    H2 5785   2.086   0.835   4.004
 1941TIP3   OH2 5786   5.187   0.435   5.618
 1941TIP3    H1 5787   5.248   0.460   5.687
 1941TIP3    H2 5788   5.110   0.490   5.634
 1942TIP3   OH2 5789   1.052   1.032   0.407
 1942TIP3    H1 5790   0.959   1.042   0.425
 1942TIP3    H2 5791   1.095   1.081   0.478
 1943TIP3   OH2 5792   3.149   4.132   1.900
 1943TIP3    H1 5793   3.161   4.065   1.967
 1943TIP3    H2 5794   3.174   4.214   1.943
 1944TIP3   OH2 5795   6.888   2.178   5.562
 1944TIP3    H1 5796   6.907   2.109   5.498
 1944TIP3    H2 5797   6.815   2.144   5.614
 1945TIP3   OH2 5798   0.013   6.105   2.768
 1945TIP3    H1 5799  -0.075   6.140   2.777
 1945TIP3    H2 5800   0.021   6.040   2.839
 1946TIP3   OH2 5801   1.759   2.558   5.810
 1946TIP3    H1 5802   1.777   2.470   5.775
 1946TIP3    H2 5803   1.834   2.610   5.783
 1947TIP3   OH2 5804   0.504   2.104   3.629
 1947TIP3    H1 5805   0.588   2.121   3.586
 1947TIP3    H2 5806   0.528   2.062   3.712
 1948TIP3   OH2 5807   6.941   0.778   4.520
 1948TIP3    H1 5808   6.909   0.725   4.448
 1948TIP3    H2 5809   6.898   0.743   4.598
 1949TIP3   OH2 5810   1.341   0.469   5.071
 1949TIP3    H1 5811   1.354   0.550   5.120
 1949TIP3    H2 5812   1.266   0.486   5.015
 1950TIP3   OH2 5813   2.672   4.247   3.521
 1950TIP3    H1 5814   2.687   4.156   3.496
 1950TIP3    H2 5815   2.578   4.252   3.537
 1951TIP3   OH2 5816   5.940   5.311   0.035
 1951TIP3    H1 5817   5.990   5.323   0.116
 1951TIP3    H2 5818   5.874   5.380   0.036
 1952TIP3   OH2 5819   5.923   2.584   2.987
 1952TIP3    H1 5820   5.930   2.541   2.901
 1952TIP3    H2 5821   5.960   2.520   3.048
 1953TIP3   OH2 5822   3.204   5.431   0.278
 1953TIP3    H1 5823   3.292   5.393   0.277
 1953TIP3    H2 5824   3.163   5.400   0.197
 1954TIP3   OH2 5825   6.430   4.891   4.536
 1954TIP3    H1 5826   6.398   4.981   4.525
 1954TIP3    H2 5827   6.517   4.901   4.576
 1955TIP3   OH2 5828   6.703   2.676   2.605
 1955TIP3    H1 5829   6.633   2.707   2.663
 1955TIP3    H2 5830   6.688   2.722   2.522
 1956TIP3   OH2 5831   5.129   5.263   2.052
 1956TIP3    H1 5832   5.175   5.318   1.989
 1956TIP3    H2 5833   5.037   5.266   2.025
 1957TIP3   OH2 5834   3.741   3.886   1.477
 1957TIP3    H1 5835   3.752   3.975   1.510
 1957TIP3    H2 5836   3.657   3.857   1.514
 1958TIP3   OH2 5837   3.052   5.069   3.869
 1958TIP3    H1 5838   3.075   5.161   3.859
 1958TIP3    H2 5839   3.043   5.056   3.964
 1959TIP3   OH2 5840   5.545   5.983   1.592
 1959TIP3    H1 5841   5.513   6.061   1.546
 1959TIP3    H2 5842   5.484   5.914   1.566
 1960TIP3   OH2 5843   2.334   4.537   3.801
 1960TIP3    H1 5844   2.355   4.509   3.712
 1960TIP3    H2 5845   2.353   4.460   3.855
 1961TIP3   OH2 5846   3.214   6.454   1.787
 1961TIP3    H1 5847   3.178   6.428   1.702
 1961TIP3    H2 5848   3.188   6.545   1.798
 1962TIP3   OH2 5849   3.731   2.535   5.615
 1962TIP3    H1 5850   3.642   2.532   5.581
 1962TIP3    H2 5851   3.732   2.607   5.677
 1963TIP3   OH2 5852   0.559   6.647   1.766
 1963TIP3    H1 5853   0.525   6.560   1.746
 1963TIP3    H2 5854   0.599   6.637   1.853
 1964TIP3   OH2 5855   1.634   6.431   1.056
 1964TIP3    H1 5856   1.544   6.459   1.044
 1964TIP3    H2 5857   1.664   6.408   0.968
 1965TIP3   OH2 5858   1.675   4.386   3.678
 1965TIP3    H1 5859   1.600   4.331   3.699
 1965TIP3    H2 5860   1.687   4.374   3.584
 1966TIP3   OH2 5861   2.927   4.238   4.942
 1966TIP3    H1 5862   2.939   4.149   4.975
 1966TIP3    H2 5863   3.009   4.257   4.896
 1967TIP3   OH2 5864   0.763   4.459   3.204
 1967TIP3    H1 5865   0.744   4.385   3.147
 1967TIP3    H2 5866   0.794   4.528   3.145
 1968TIP3   OH2 5867   3.614   5.481   1.170
 1968TIP3    H1 5868   3.672   5.462   1.096
 1968TIP3    H2 5869   3.528   5.453   1.141
 1969TIP3   OH2 5870   1.710   5.251   1.264
 1969TIP3    H1 5871   1.763   5.302   1.203
 1969TIP3    H2 5872   1.755   5.167   1.272
 1970TIP3   OH2 5873   4.947   2.868   0.709
 1970TIP3    H1 5874   5.010   2.881   0.638
 1970TIP3    H2 5875   4.942   2.953   0.752
 1971TIP3   OH2 5876   4.662   4.974   1.162
 1971TIP3    H1 5877   4.609   5.014   1.232
 1971TIP3    H2 5878   4.648   5.031   1.086
 1972TIP3   OH2 5879   2.151   2.225   5.111
 1972TIP3    H1 5880   2.226   2.185   5.155
 1972TIP3    H2 5881   2.107   2.275   5.180
 1973TIP3   OH2 5882   3.677   0.618   3.936
 1973TIP3    H1 5883   3.761   0.597   3.895
 1973TIP3    H2 5884   3.683   0.579   4.023
 1974TIP3   OH2 5885   2.446   0.804   3.065
 1974TIP3    H1 5886   2.380   0.870   3.044
 1974TIP3    H2 5887   2.416   0.765   3.147
 1975TIP3   OH2 5888   3.385   5.139   4.649
 1975TIP3    H1 5889   3.340   5.062   4.616
 1975TIP3    H2 5890   3.336   5.164   4.728
 1976TIP3   OH2 5891   0.300   1.400   4.765
 1976TIP3    H1 5892   0.318   1.493   4.762
 1976TIP3    H2 5893   0.386   1.359   4.772
 1977TIP3   OH2 5894   3.787   6.317   4.444
 1977TIP3    H1 5895   3.840   6.358   4.375
 1977TIP3    H2 5896   3.781   6.384   4.512
 1978TIP3   OH2 5897   7.196   2.687   5.331
 1978TIP3    H1 5898   7.286   2.665   5.356
 1978TIP3    H2 5899   7.142   2.651   5.402
 1979TIP3   OH2 5900   2.098   3.290   4.121
 1979TIP3    H1 5901   2.150   3.230   4.068
 1979TIP3    H2 5902   2.009   3.282   4.086
 1980TIP3   OH2 5903   3.407   1.732   2.888
 1980TIP3    H1 5904   3.396   1.826   2.903
 1980TIP3    H2 5905   3.497   1.714   2.912
 1981TIP3   OH2 5906   6.247   6.128   5.600
 1981TIP3    H1 5907   6.172   6.068   5.599
 1981TIP3    H2 5908   6.280   6.128   5.510
 1982TIP3   OH2 5909   2.417   0.147   2.580
 1982TIP3    H1 5910   2.497   0.135   2.630
 1982TIP3    H2 5911   2.356   0.082   2.615
 1983TIP3   OH2 5912   0.813   2.927   1.830
 1983TIP3    H1 5913   0.796   2.850   1.884
 1983TIP3    H2 5914   0.745   2.989   1.855
 1984TIP3   OH2 5915   4.601   3.745   1.962
 1984TIP3    H1 5916   4.513   3.725   1.994
 1984TIP3    H2 5917   4.619   3.834   1.994
 1985TIP3   OH2 5918   5.568   2.435   4.517
 1985TIP3    H1 5919   5.654   2.415   4.553
 1985TIP3    H2 5920   5.508   2.381   4.568
 1986TIP3   OH2 5921   0.759   5.939   4.048
 1986TIP3    H1 5922   0.728   5.944   3.957
 1986TIP3    H2 5923   0.853   5.955   4.042
 1987TIP3   OH2 5924   0.879   4.317   5.008
 1987TIP3    H1 5925   0.849   4.367   5.084
 1987TIP3    H2 5926   0.824   4.347   4.936
 1988TIP3   OH2 5927   0.430   1.159   5.488
 1988TIP3    H1 5928   0.452   1.099   5.418
 1988TIP3    H2 5929   0.343   1.133   5.517
 1989TIP3   OH2 5930   4.585   2.528   5.809
 1989TIP3    H1 5931   4.570   2.568   5.895
 1989TIP3    H2 5932   4.624   2.443   5.829
 1990TIP3   OH2 5933   6.507   3.856   5.683
 1990TIP3    H1 5934   6.532   3.817   5.600
 1990TIP3    H2 5935   6.579   3.836   5.743
 1991TIP3   OH2 5936   4.641   3.101   2.012
 1991TIP3    H1 5937   4.653   3.009   1.988
 1991TIP3    H2 5938   4.565   3.101   2.070
 1992TIP3   OH2 5939   4.272   6.551   0.751
 1992TIP3    H1 5940   4.257   6.634   0.706
 1992TIP3    H2 5941   4.270   6.574   0.844
 1993TIP3   OH2 5942   5.478   3.121   1.456
 1993TIP3    H1 5943   5.392   3.082   1.469
 1993TIP3    H2 5944   5.473   3.161   1.369
 1994TIP3   OH2 5945   4.799   4.174   4.388
 1994TIP3    H1 5946   4.816   4.083   4.410
 1994TIP3    H2 5947   4.744   4.170   4.310
 1995TIP3   OH2 5948   3.968   5.791   2.294
 1995TIP3    H1 5949   4.033   5.859   2.314
 1995TIP3    H2 5950   4.001   5.748   2.215
 1996TIP3   OH2 5951   1.620   3.981   2.163
 1996TIP3    H1 5952   1.642   3.927   2.087
 1996TIP3    H2 5953   1.705   3.999   2.204
 1997TIP3   OH2 5954   6.040   4.323   5.352
 1997TIP3    H1 5955   5.995   4.331   5.435
 1997TIP3    H2 5956   6.048   4.412   5.319
 1998TIP3   OH2 5957   4.290   6.030   4.355
 1998TIP3    H1 5958   4.245   6.088   4.293
 1998TIP3    H2 5959   4.283   6.076   4.439
 1999TIP3   OH2 5960   5.444   5.865   4.383
 1999TIP3    H1 5961   5.499   5.931   4.426
 1999TIP3    H2 5962   5.474   5.782   4.419
 2000TIP3   OH2 5963   2.262   5.562   3.982
 2000TIP3    H1 5964   2.348   5.525   4.000
 2000TIP3    H2 5965   2.203   5.515   4.040
 2001TIP3   OH2 5966   6.317   6.564   2.579
 2001TIP3    H1 5967   6.335   6.594   2.490
 2001TIP3    H2 5968   6.270   6.637   2.620
 2002TIP3   OH2 5969   3.857   2.593   1.161
 2002TIP3    H1 5970   3.863   2.508   1.205
 2002TIP3    H2 5971   3.806   2.575   1.082
 2003TIP3   OH2 5972   1.066   0.822   5.863
 2003TIP3    H1 5973   1.118   0.814   5.783
 2003TIP3    H2 5974   0.980   0.853   5.833
 2004TIP3   OH2 5975   2.008   1.441   5.346
 2004TIP3    H1 5976   1.989   1.348   5.356
 2004TIP3    H2 5977   2.023   1.472   5.435
 2005TIP3   OH2 5978   5.603   6.482   2.291
 2005TIP3    H1 5979   5.511   6.482   2.319
 2005TIP3    H2 5980   5.599   6.494   2.196
 2006TIP3   OH2 5981   0.211   0.224   2.761
 2006TIP3    H1 5982   0.190   0.147   2.814
 2006TIP3    H2 5983   0.290   0.200   2.714
 2007TIP3   OH2 5984   6.992   0.114   3.846
 2007TIP3    H1 5985   6.932   0.090   3.917
 2007TIP3    H2 5986   6.990   0.209   3.844
 2008TIP3   OH2 5987   3.819   4.469   0.031
 2008TIP3    H1 5988   3.811   4.408   0.104
 2008TIP3    H2 5989   3.837   4.413  -0.045
 2009TIP3   OH2 5990   5.359   3.641   0.501
 2009TIP3    H1 5991   5.276   3.620   0.544
 2009TIP3    H2 5992   5.350   3.734   0.476
 2010TIP3   OH2 5993   6.976   1.307   0.738
 2010TIP3    H1 5994   7.029   1.299   0.817
 2010TIP3    H2 5995   6.990   1.224   0.691
 2011TIP3   OH2 5996   1.361   5.840   1.831
 2011TIP3    H1 5997   1.277   5.862   1.791
 2011TIP3    H2 5998   1.369   5.745   1.819
 2012TIP3   OH2 5999   7.119   6.105   0.418
 2012TIP3    H1 6000   7.142   6.041   0.349
 2012TIP3    H2 6001   7.203   6.142   0.445
 2013TIP3   OH2 6002   7.138   3.178   0.543
 2013TIP3    H1 6003   7.082   3.106   0.573
 2013TIP3    H2 6004   7.100   3.256   0.582
 2014TIP3   OH2 6005   6.570   6.081   1.633
 2014TIP3    H1 6006   6.480   6.114   1.625
 2014TIP3    H2 6007   6.565   6.015   1.702
 2015TIP3   OH2 6008   0.431   1.186   0.185
 2015TIP3    H1 6009   0.482   1.179   0.265
 2015TIP3    H2 6010   0.495   1.180   0.114
 2016TIP3   OH2 6011   5.819   1.469   0.666
 2016TIP3    H1 6012   5.873   1.546   0.651
 2016TIP3    H2 6013   5.874   1.395   0.642
 2017TIP3   OH2 6014   1.116   5.451   4.951
 2017TIP3    H1 6015   1.051   5.481   4.888
 2017TIP3    H2 6016   1.092   5.360   4.968
 2018TIP3   OH2 6017   4.853   5.212   4.996
 2018TIP3    H1 6018   4.858   5.146   4.927
 2018TIP3    H2 6019   4.901   5.287   4.961
 2019TIP3   OH2 6020   3.766   1.387   5.033
 2019TIP3    H1 6021   3.697   1.398   4.968
 2019TIP3    H2 6022   3.720   1.387   5.117
 2020TIP3   OH2 6023   2.364   6.471   2.367
 2020TIP3    H1 6024   2.388   6.497   2.278
 2020TIP3    H2 6025   2.270   6.485   2.372
 2021TIP3   OH2 6026   0.128   0.677   5.316
 2021TIP3    H1 6027   0.099   0.677   5.225
 2021TIP3    H2 6028   0.170   0.762   5.328
 2022TIP3   OH2 6029   6.966   2.413   2.014
 2022TIP3    H1 6030   7.037   2.349   2.014
 2022TIP3    H2 6031   6.944   2.424   1.921
 2023TIP3   OH2 6032   5.377   6.039   5.093
 2023TIP3    H1 6033   5.445   6.066   5.031
 2023TIP3    H2 6034   5.397   6.088   5.173
 2024TIP3   OH2 6035   1.428   2.488   3.716
 2024TIP3    H1 6036   1.480   2.559   3.754
 2024TIP3    H2 6037   1.414   2.428   3.789
 2025TIP3   OH2 6038   3.848   1.550   5.404
 2025TIP3    H1 6039   3.829   1.559   5.497
 2025TIP3    H2 6040   3.916   1.483   5.399
 2026TIP3   OH2 6041   3.914   1.002   4.881
 2026TIP3    H1 6042   3.974   1.021   4.809
 2026TIP3    H2 6043   3.851   0.940   4.844
 2027TIP3   OH2 6044   2.332   2.121   5.275
 2027TIP3    H1 6045   2.383   2.194   5.311
 2027TIP3    H2 6046   2.399   2.060   5.242
 2028TIP3   OH2 6047   3.768   0.500   3.146
 2028TIP3    H1 6048   3.677   0.493   3.115
 2028TIP3    H2 6049   3.791   0.592   3.128
 2029TIP3   OH2 6050   4.612   0.085   0.427
 2029TIP3    H1 6051   4.695   0.086   0.473
 2029TIP3    H2 6052   4.620   0.014   0.364
 2030TIP3   OH2 6053   5.233   0.260   0.370
 2030TIP3    H1 6054   5.170   0.201   0.328
 2030TIP3    H2 6055   5.192   0.345   0.365
 2031TIP3   OH2 6056   0.982   4.985   1.108
 2031TIP3    H1 6057   1.063   5.010   1.064
 2031TIP3    H2 6058   0.936   5.067   1.124
 2032TIP3   OH2 6059   2.507   4.007   4.633
 2032TIP3    H1 6060   2.601   4.021   4.642
 2032TIP3    H2 6061   2.471   4.031   4.718
 2033TIP3   OH2 6062   0.841   5.680   1.153
 2033TIP3    H1 6063   0.883   5.676   1.239
 2033TIP3    H2 6064   0.881   5.608   1.104
 2034TIP3   OH2 6065   6.099   2.317   0.923
 2034TIP3    H1 6066   6.127   2.326   1.014
 2034TIP3    H2 6067   6.175   2.344   0.872
 2035TIP3   OH2 6068   1.622   5.462   0.617
 2035TIP3    H1 6069   1.603   5.512   0.538
 2035TIP3    H2 6070   1.569   5.504   0.685
 2036TIP3   OH2 6071   6.764   6.289   5.774
 2036TIP3    H1 6072   6.809   6.306   5.857
 2036TIP3    H2 6073   6.696   6.226   5.797
 2037TIP3   OH2 6074   1.911   2.500   0.432
 2037TIP3    H1 6075   1.922   2.587   0.395
 2037TIP3    H2 6076   1.840   2.461   0.381
 2038TIP3   OH2 6077   7.055   1.239   4.062
 2038TIP3    H1 6078   7.097   1.157   4.034
 2038TIP3    H2 6079   7.128   1.297   4.082
 2039TIP3   OH2 6080   0.281   5.905   4.209
 2039TIP3    H1 6081   0.376   5.914   4.208
 2039TIP3    H2 6082   0.266   5.821   4.252
 2040TIP3   OH2 6083   5.009   3.084   5.316
 2040TIP3    H1 6084   5.081   3.039   5.273
 2040TIP3    H2 6085   4.971   3.019   5.375
 2041TIP3   OH2 6086   5.038   3.055   5.698
 2041TIP3    H1 6087   4.985   3.115   5.750
 2041TIP3    H2 6088   4.974   3.008   5.644
 2042TIP3   OH2 6089   2.269   0.949   0.299
 2042TIP3    H1 6090   2.333   0.886   0.334
 2042TIP3    H2 6091   2.303   0.970   0.212
 2043TIP3   OH2 6092   0.133   2.018   4.965
 2043TIP3    H1 6093   0.094   2.058   5.043
 2043TIP3    H2 6094   0.063   1.962   4.930
 2044TIP3   OH2 6095   2.287   0.211   1.543
 2044TIP3    H1 6096   2.380   0.201   1.563
 2044TIP3    H2 6097   2.249   0.249   1.623
 2045TIP3   OH2 6098   1.804   5.744   1.243
 2045TIP3    H1 6099   1.861   5.761   1.168
 2045TIP3    H2 6100   1.723   5.711   1.204
 2046TIP3   OH2 6101   1.541   3.173   4.375
 2046TIP3    H1 6102   1.617   3.211   4.331
 2046TIP3    H2 6103   1.470   3.182   4.312
 2047TIP3   OH2 6104   0.543   5.081   4.101
 2047TIP3    H1 6105   0.448   5.092   4.089
 2047TIP3    H2 6106   0.552   5.036   4.185
 2048TIP3   OH2 6107   3.017   5.185   1.893
 2048TIP3    H1 6108   3.054   5.097   1.903
 2048TIP3    H2 6109   3.072   5.241   1.947
 2049TIP3   OH2 6110   2.005   1.270   4.569
 2049TIP3    H1 6111   2.098   1.265   4.544
 2049TIP3    H2 6112   1.996   1.206   4.639
 2050TIP3   OH2 6113   7.197   2.384   1.544
 2050TIP3    H1 6114   7.180   2.411   1.634
 2050TIP3    H2 6115   7.134   2.312   1.528
 2051TIP3   OH2 6116   4.880   4.106   3.226
 2051TIP3    H1 6117   4.793   4.068   3.220
 2051TIP3    H2 6118   4.866   4.198   3.246
 2052TIP3   OH2 6119   4.756   3.797   4.839
 2052TIP3    H1 6120   4.825   3.733   4.858
 2052TIP3    H2 6121   4.741   3.842   4.922
 2053TIP3   OH2 6122   6.628   4.926   0.398
 2053TIP3    H1 6123   6.541   4.911   0.363
 2053TIP3    H2 6124   6.674   4.975   0.330
 2054TIP3   OH2 6125   1.416   3.686   2.441
 2054TIP3    H1 6126   1.346   3.650   2.495
 2054TIP3    H2 6127   1.372   3.751   2.386
 2055TIP3   OH2 6128   0.916   1.980   4.178
 2055TIP3    H1 6129   0.946   1.958   4.090
 2055TIP3    H2 6130   0.918   2.076   4.181
 2056TIP3   OH2 6131   6.707   5.483   0.388
 2056TIP3    H1 6132   6.738   5.468   0.298
 2056TIP3    H2 6133   6.715   5.578   0.400
 2057TIP3   OH2 6134   3.577   6.763   2.220
 2057TIP3    H1 6135   3.522   6.685   2.224
 2057TIP3    H2 6136   3.642   6.742   2.153
 2058TIP3   OH2 6137   3.327   5.402   4.540
 2058TIP3    H1 6138   3.350   5.489   4.570
 2058TIP3    H2 6139   3.385   5.343   4.589
 2059TIP3   OH2 6140   6.927   0.360   0.363
 2059TIP3    H1 6141   6.981   0.409   0.425
 2059TIP3    H2 6142   6.837   0.374   0.392
 2060TIP3   OH2 6143   6.240   1.512   5.057
 2060TIP3    H1 6144   6.325   1.508   5.012
 2060TIP3    H2 6145   6.200   1.592   5.025
 2061TIP3   OH2 6146   5.531   3.404   3.844
 2061TIP3    H1 6147   5.574   3.474   3.892
 2061TIP3    H2 6148   5.437   3.421   3.852
 2062TIP3   OH2 6149   2.729   5.535   0.308
 2062TIP3    H1 6150   2.789   5.534   0.234
 2062TIP3    H2 6151   2.672   5.611   0.291
 2063TIP3   OH2 6152   0.737   2.029   0.284
 2063TIP3    H1 6153   0.709   2.100   0.342
 2063TIP3    H2 6154   0.818   1.997   0.322
 2064TIP3   OH2 6155   6.920   0.884   5.752
 2064TIP3    H1 6156   6.920   0.841   5.838
 2064TIP3    H2 6157   6.973   0.963   5.765
 2065TIP3   OH2 6158   4.889   5.518   0.663
 2065TIP3    H1 6159   4.810   5.542   0.614
 2065TIP3    H2 6160   4.959   5.569   0.621
 2066TIP3   OH2 6161   7.094   4.931   4.415
 2066TIP3    H1 6162   7.189   4.925   4.430
 2066TIP3    H2 6163   7.068   5.011   4.460
 2067TIP3   OH2 6164   1.914   6.276   1.001
 2067TIP3    H1 6165   2.001   6.302   0.972
 2067TIP3    H2 6166   1.854   6.324   0.943
 2068TIP3   OH2 6167   2.848   6.618   3.043
 2068TIP3    H1 6168   2.916   6.551   3.053
 2068TIP3    H2 6169   2.874   6.688   3.103
 2069TIP3   OH2 6170   2.379   4.427   2.438
 2069TIP3    H1 6171   2.333   4.475   2.369
 2069TIP3    H2 6172   2.429   4.493   2.484
 2070TIP3   OH2 6173   2.487   2.112   0.793
 2070TIP3    H1 6174   2.513   2.197   0.758
 2070TIP3    H2 6175   2.517   2.049   0.727
 2071TIP3   OH2 6176   6.694   2.827   3.591
 2071TIP3    H1 6177   6.626   2.893   3.581
 2071TIP3    H2 6178   6.647   2.744   3.596
 2072TIP3   OH2 6179   2.574   0.666   1.308
 2072TIP3    H1 6180   2.557   0.631   1.395
 2072TIP3    H2 6181   2.659   0.710   1.316
 2073TIP3   OH2 6182   0.677   2.729   0.582
 2073TIP3    H1 6183   0.768   2.717   0.610
 2073TIP3    H2 6184   0.644   2.640   0.571
 2074TIP3   OH2 6185   3.711   6.764   2.769
 2074TIP3    H1 6186   3.649   6.836   2.762
 2074TIP3    H2 6187   3.786   6.791   2.717
 2075TIP3   OH2 6188   0.432   5.227   0.643
 2075TIP3    H1 6189   0.468   5.283   0.575
 2075TIP3    H2 6190   0.454   5.271   0.725
 2076TIP3   OH2 6191   6.909   1.056   3.352
 2076TIP3    H1 6192   6.984   1.013   3.392
 2076TIP3    H2 6193   6.945   1.137   3.316
 2077TIP3   OH2 6194   1.280   5.369   5.629
 2077TIP3    H1 6195   1.256   5.395   5.540
 2077TIP3    H2 6196   1.309   5.450   5.671
 2078TIP3   OH2 6197   0.154   3.520   1.828
 2078TIP3    H1 6198   0.116   3.546   1.744
 2078TIP3    H2 6199   0.080   3.492   1.881
 2079TIP3   OH2 6200   6.088   3.690   3.610
 2079TIP3    H1 6201   6.125   3.648   3.533
 2079TIP3    H2 6202   6.114   3.782   3.602
 2080TIP3   OH2 6203   4.827   5.680   2.265
 2080TIP3    H1 6204   4.832   5.643   2.353
 2080TIP3    H2 6205   4.733   5.692   2.249
 2081TIP3   OH2 6206   1.930   4.248   2.503
 2081TIP3    H1 6207   1.844   4.248   2.545
 2081TIP3    H2 6208   1.929   4.173   2.445
 2082TIP3   OH2 6209   2.027   3.894   5.423
 2082TIP3    H1 6210   1.936   3.892   5.396
 2082TIP3    H2 6211   2.025   3.871   5.516
 2083TIP3   OH2 6212   5.788   0.139   2.007
 2083TIP3    H1 6213   5.858   0.076   2.021
 2083TIP3    H2 6214   5.828   0.224   2.027
 2084TIP3   OH2 6215   6.889   4.101   2.045
 2084TIP3    H1 6216   6.981   4.127   2.057
 2084TIP3    H2 6217   6.848   4.119   2.130
 2085TIP3   OH2 6218   0.254   6.592   3.694
 2085TIP3    H1 6219   0.212   6.612   3.611
 2085TIP3    H2 6220   0.252   6.675   3.742
 2086TIP3   OH2 6221   4.415   5.730   1.090
 2086TIP3    H1 6222   4.413   5.759   0.998
 2086TIP3    H2 6223   4.354   5.790   1.134
 2087TIP3   OH2 6224   0.121   3.429   2.335
 2087TIP3    H1 6225   0.054   3.414   2.269
 2087TIP3    H2 6226   0.118   3.351   2.391
 2088TIP3   OH2 6227   1.227   0.854   5.234
 2088TIP3    H1 6228   1.308   0.811   5.263
 2088TIP3    H2 6229   1.246   0.883   5.145
 2089TIP3   OH2 6230   5.985   6.061   1.195
 2089TIP3    H1 6231   5.988   5.969   1.169
 2089TIP3    H2 6232   6.023   6.108   1.122
 2090TIP3   OH2 6233   6.894   0.371   5.590
 2090TIP3    H1 6234   6.962   0.315   5.554
 2090TIP3    H2 6235   6.868   0.329   5.672
 2091TIP3   OH2 6236   3.609   4.976   1.401
 2091TIP3    H1 6237   3.524   4.954   1.439
 2091TIP3    H2 6238   3.608   4.933   1.315
 2092TIP3   OH2 6239   1.511   5.852   4.983
 2092TIP3    H1 6240   1.575   5.781   4.993
 2092TIP3    H2 6241   1.533   5.891   4.898
 2093TIP3   OH2 6242   5.797   1.520   3.786
 2093TIP3    H1 6243   5.847   1.570   3.722
 2093TIP3    H2 6244   5.801   1.573   3.866
 2094TIP3   OH2 6245   2.836   3.223   1.145
 2094TIP3    H1 6246   2.877   3.291   1.092
 2094TIP3    H2 6247   2.898   3.206   1.216
 2095TIP3   OH2 6248   1.993   0.582   5.620
 2095TIP3    H1 6249   1.899   0.571   5.630
 2095TIP3    H2 6250   2.026   0.586   5.710
 2096TIP3   OH2 6251   0.732   6.361   5.288
 2096TIP3    H1 6252   0.737   6.382   5.195
 2096TIP3    H2 6253   0.765   6.440   5.332
 2097TIP3   OH2 6254   4.173   2.212   0.749
 2097TIP3    H1 6255   4.103   2.273   0.773
 2097TIP3    H2 6256   4.209   2.247   0.668
 2098TIP3   OH2 6257   1.847   6.423   0.389
 2098TIP3    H1 6258   1.780   6.423   0.458
 2098TIP3    H2 6259   1.797   6.428   0.307
 2099TIP3   OH2 6260   4.201   1.700   0.855
 2099TIP3    H1 6261   4.248   1.628   0.898
 2099TIP3    H2 6262   4.181   1.761   0.925
 2100TIP3   OH2 6263   2.990   1.213   2.442
 2100TIP3    H1 6264   2.904   1.238   2.407
 2100TIP3    H2 6265   3.039   1.185   2.365
 2101TIP3   OH2 6266   2.581   4.237   2.472
 2101TIP3    H1 6267   2.583   4.308   2.536
 2101TIP3    H2 6268   2.501   4.252   2.422
 2102TIP3   OH2 6269   3.537   2.496   0.638
 2102TIP3    H1 6270   3.511   2.475   0.728
 2102TIP3    H2 6271   3.599   2.428   0.614
 2103TIP3   OH2 6272   7.199   2.214   2.053
 2103TIP3    H1 6273   7.276   2.191   2.105
 2103TIP3    H2 6274   7.157   2.131   2.032
 2104TIP3   OH2 6275   2.439   3.335   1.256
 2104TIP3    H1 6276   2.459   3.396   1.185
 2104TIP3    H2 6277   2.503   3.264   1.245
 2105TIP3   OH2 6278   1.674   0.605   2.386
 2105TIP3    H1 6279   1.581   0.588   2.375
 2105TIP3    H2 6280   1.709   0.526   2.429
 2106TIP3   OH2 6281   0.455   0.972   5.295
 2106TIP3    H1 6282   0.504   1.022   5.230
 2106TIP3    H2 6283   0.517   0.906   5.326
 2107TIP3   OH2 6284   6.848   2.755   4.587
 2107TIP3    H1 6285   6.890   2.694   4.648
 2107TIP3    H2 6286   6.854   2.840   4.630
 2108TIP3   OH2 6287   3.758   4.134   2.813
 2108TIP3    H1 6288   3.749   4.046   2.777
 2108TIP3    H2 6289   3.748   4.123   2.908
 2109TIP3   OH2 6290   4.694   3.881   5.101
 2109TIP3    H1 6291   4.739   3.918   5.177
 2109TIP3    H2 6292   4.672   3.792   5.127
 2110TIP3   OH2 6293   3.919   3.004   4.979
 2110TIP3    H1 6294   3.955   2.965   4.899
 2110TIP3    H2 6295   3.927   2.934   5.045
 2111TIP3   OH2 6296   4.861   3.349   1.589
 2111TIP3    H1 6297   4.861   3.305   1.674
 2111TIP3    H2 6298   4.947   3.329   1.552
 2112TIP3   OH2 6299   3.446   2.582   2.096
 2112TIP3    H1 6300   3.443   2.588   2.001
 2112TIP3    H2 6301   3.403   2.664   2.125
 2113TIP3   OH2 6302   2.708   5.921   1.689
 2113TIP3    H1 6303   2.749   5.856   1.632
 2113TIP3    H2 6304   2.616   5.895   1.693
 2114TIP3   OH2 6305   4.968   3.879   2.107
 2114TIP3    H1 6306   4.960   3.799   2.056
 2114TIP3    H2 6307   5.028   3.934   2.056
 2115TIP3   OH2 6308   1.797   2.489   1.268
 2115TIP3    H1 6309   1.881   2.523   1.297
 2115TIP3    H2 6310   1.748   2.565   1.240
 2116TIP3   OH2 6311   1.098   2.216   0.886
 2116TIP3    H1 6312   1.062   2.303   0.872
 2116TIP3    H2 6313   1.031   2.156   0.851
 2117TIP3   OH2 6314   3.251   4.111   0.535
 2117TIP3    H1 6315   3.224   4.203   0.535
 2117TIP3    H2 6316   3.172   4.062   0.559
 2118TIP3   OH2 6317   5.912   2.309   1.414
 2118TIP3    H1 6318   5.862   2.359   1.350
 2118TIP3    H2 6319   5.848   2.247   1.450
 2119TIP3   OH2 6320   5.162   2.674   3.333
 2119TIP3    H1 6321   5.143   2.701   3.243
 2119TIP3    H2 6322   5.169   2.756   3.382
 2120TIP3   OH2 6323   4.303   3.932   4.403
 2120TIP3    H1 6324   4.211   3.905   4.397
 2120TIP3    H2 6325   4.350   3.871   4.347
 2121TIP3   OH2 6326   6.481   1.374   3.399
 2121TIP3    H1 6327   6.417   1.377   3.470
 2121TIP3    H2 6328   6.436   1.329   3.327
 2122TIP3   OH2 6329   4.487   2.694   5.589
 2122TIP3    H1 6330   4.483   2.764   5.654
 2122TIP3    H2 6331   4.531   2.622   5.634
 2123TIP3   OH2 6332   0.689   2.893   4.752
 2123TIP3    H1 6333   0.665   2.985   4.766
 2123TIP3    H2 6334   0.637   2.845   4.816
 2124TIP3   OH2 6335   4.950   0.271   3.874
 2124TIP3    H1 6336   4.970   0.178   3.880
 2124TIP3    H2 6337   4.860   0.279   3.906
 2125TIP3   OH2 6338   2.372   6.701   4.027
 2125TIP3    H1 6339   2.450   6.756   4.018
 2125TIP3    H2 6340   2.352   6.675   3.937
 2126TIP3   OH2 6341   1.566   5.621   0.838
 2126TIP3    H1 6342   1.592   5.549   0.896
 2126TIP3    H2 6343   1.476   5.641   0.864
 2127TIP3   OH2 6344   2.051   3.901   1.475
 2127TIP3    H1 6345   2.079   3.954   1.550
 2127TIP3    H2 6346   2.111   3.826   1.475
 2128TIP3   OH2 6347   0.099   2.128   3.044
 2128TIP3    H1 6348   0.112   2.038   3.073
 2128TIP3    H2 6349   0.098   2.123   2.949
 2129TIP3   OH2 6350   1.728   4.097   5.003
 2129TIP3    H1 6351   1.666   4.148   5.055
 2129TIP3    H2 6352   1.813   4.132   5.026
 2130TIP3   OH2 6353   2.205   0.235   1.258
 2130TIP3    H1 6354   2.111   0.215   1.259
 2130TIP3    H2 6355   2.231   0.236   1.350
 2131TIP3   OH2 6356   4.584   1.085   3.119
 2131TIP3    H1 6357   4.636   1.106   3.197
 2131TIP3    H2 6358   4.593   1.162   3.063
 2132TIP3   OH2 6359   2.971   0.748   0.115
 2132TIP3    H1 6360   3.060   0.755   0.149
 2132TIP3    H2 6361   2.915   0.781   0.185
 2133TIP3   OH2 6362   3.364   5.423   1.063
 2133TIP3    H1 6363   3.364   5.370   0.984
 2133TIP3    H2 6364   3.285   5.396   1.110
 2134TIP3   OH2 6365   4.537   1.682   2.744
 2134TIP3    H1 6366   4.611   1.652   2.692
 2134TIP3    H2 6367   4.464   1.625   2.718
 2135TIP3   OH2 6368   4.739   6.570   2.553
 2135TIP3    H1 6369   4.735   6.521   2.470
 2135TIP3    H2 6370   4.830   6.600   2.558
 2136TIP3   OH2 6371   1.595   1.696   4.629
 2136TIP3    H1 6372   1.569   1.604   4.631
 2136TIP3    H2 6373   1.513   1.744   4.644
 2137TIP3   OH2 6374   1.485   5.454   5.224
 2137TIP3    H1 6375   1.526   5.437   5.139
 2137TIP3    H2 6376   1.478   5.549   5.227
 2138TIP3   OH2 6377   5.392   4.414   2.564
 2138TIP3    H1 6378   5.346   4.454   2.490
 2138TIP3    H2 6379   5.449   4.348   2.524
 2139TIP3   OH2 6380   4.370   2.079   0.903
 2139TIP3    H1 6381   4.352   2.002   0.957
 2139TIP3    H2 6382   4.283   2.114   0.882
 2140TIP3   OH2 6383   1.787   1.753   5.347
 2140TIP3    H1 6384   1.802   1.682   5.409
 2140TIP3    H2 6385   1.766   1.829   5.402
 2141TIP3   OH2 6386   4.173   5.698   0.605
 2141TIP3    H1 6387   4.198   5.787   0.630
 2141TIP3    H2 6388   4.113   5.670   0.674
 2142TIP3   OH2 6389   5.078   6.404   2.323
 2142TIP3    H1 6390   5.144   6.413   2.392
 2142TIP3    H2 6391   5.120   6.351   2.256
 2143TIP3   OH2 6392   5.877   0.273   4.969
 2143TIP3    H1 6393   5.832   0.229   5.042
 2143TIP3    H2 6394   5.922   0.346   5.011
 2144TIP3   OH2 6395   0.431   5.426   4.575
 2144TIP3    H1 6396   0.467   5.510   4.547
 2144TIP3    H2 6397   0.414   5.379   4.493
 2145TIP3   OH2 6398   1.028   5.611   0.691
 2145TIP3    H1 6399   0.979   5.631   0.611
 2145TIP3    H2 6400   0.974   5.647   0.762
 2146TIP3   OH2 6401   6.490   2.733   2.777
 2146TIP3    H1 6402   6.423   2.786   2.819
 2146TIP3    H2 6403   6.482   2.647   2.817
 2147TIP3   OH2 6404   4.428   1.604   5.587
 2147TIP3    H1 6405   4.374   1.602   5.508
 2147TIP3    H2 6406   4.464   1.515   5.593
 2148TIP3   OH2 6407   4.823   5.440   3.417
 2148TIP3    H1 6408   4.855   5.529   3.404
 2148TIP3    H2 6409   4.851   5.392   3.339
 2149TIP3   OH2 6410   0.281   5.463   4.802
 2149TIP3    H1 6411   0.285   5.508   4.718
 2149TIP3    H2 6412   0.367   5.423   4.813
 2150TIP3   OH2 6413   4.937   6.109   5.218
 2150TIP3    H1 6414   4.995   6.038   5.191
 2150TIP3    H2 6415   4.931   6.099   5.313
 2151TIP3   OH2 6416   5.543   3.428   5.391
 2151TIP3    H1 6417   5.598   3.482   5.335
 2151TIP3    H2 6418   5.460   3.475   5.395
 2152TIP3   OH2 6419   6.228   1.061   1.965
 2152TIP3    H1 6420   6.150   1.110   1.989
 2152TIP3    H2 6421   6.246   1.088   1.874
 2153TIP3   OH2 6422   3.976   3.841   2.728
 2153TIP3    H1 6423   4.071   3.842   2.720
 2153TIP3    H2 6424   3.946   3.887   2.650
 2154TIP3   OH2 6425   3.067   4.089   3.477
 2154TIP3    H1 6426   3.160   4.089   3.452
 2154TIP3    H2 6427   3.047   4.180   3.497
 2155TIP3   OH2 6428   5.407   0.716   0.845
 2155TIP3    H1 6429   5.385   0.624   0.854
 2155TIP3    H2 6430   5.424   0.746   0.934
 2156TIP3   OH2 6431   3.727   5.288   4.318
 2156TIP3    H1 6432   3.724   5.206   4.367
 2156TIP3    H2 6433   3.765   5.264   4.233
 2157TIP3   OH2 6434   1.463   0.831   3.314
 2157TIP3    H1 6435   1.552   0.855   3.290
 2157TIP3    H2 6436   1.412   0.911   3.304
 2158TIP3   OH2 6437   6.634   6.751   2.736
 2158TIP3    H1 6438   6.685   6.732   2.815
 2158TIP3    H2 6439   6.625   6.846   2.736
 2159TIP3   OH2 6440   6.974   4.243   5.361
 2159TIP3    H1 6441   7.033   4.222   5.433
 2159TIP3    H2 6442   6.983   4.170   5.300
 2160TIP3   OH2 6443   3.758   5.735   4.168
 2160TIP3    H1 6444   3.842   5.780   4.183
 2160TIP3    H2 6445   3.693   5.805   4.167
 2161TIP3   OH2 6446   3.018   1.072   1.888
 2161TIP3    H1 6447   2.941   1.126   1.905
 2161TIP3    H2 6448   3.051   1.105   1.804
 2162TIP3   OH2 6449   4.748   4.492   3.941
 2162TIP3    H1 6450   4.757   4.577   3.984
 2162TIP3    H2 6451   4.668   4.500   3.889
 2163TIP3   OH2 6452   7.057   3.213   5.295
 2163TIP3    H1 6453   7.102   3.131   5.274
 2163TIP3    H2 6454   7.015   3.195   5.379
 2164TIP3   OH2 6455   4.906   6.504   1.206
 2164TIP3    H1 6456   4.947   6.435   1.258
 2164TIP3    H2 6457   4.849   6.458   1.145
 2165TIP3   OH2 6458   4.580   0.419   0.115
 2165TIP3    H1 6459   4.594   0.444   0.024
 2165TIP3    H2 6460   4.590   0.322   0.114
 2166TIP3   OH2 6461   2.248   2.621   0.280
 2166TIP3    H1 6462   2.162   2.600   0.242
 2166TIP3    H2 6463   2.250   2.717   0.281
 2167TIP3   OH2 6464   6.252   5.376   1.645
 2167TIP3    H1 6465   6.212   5.425   1.716
 2167TIP3    H2 6466   6.193   5.388   1.571
 2168TIP3   OH2 6467   2.451   1.018   0.534
 2168TIP3    H1 6468   2.458   0.930   0.498
 2168TIP3    H2 6469   2.374   1.055   0.491
 2169TIP3   OH2 6470   1.260   1.242   1.147
 2169TIP3    H1 6471   1.327   1.187   1.186
 2169TIP3    H2 6472   1.181   1.187   1.146
 2170TIP3   OH2 6473   0.926   3.400   2.135
 2170TIP3    H1 6474   0.840   3.399   2.177
 2170TIP3    H2 6475   0.965   3.316   2.159
 2171TIP3   OH2 6476   4.143   2.214   2.587
 2171TIP3    H1 6477   4.137   2.299   2.543
 2171TIP3    H2 6478   4.054   2.195   2.616
 2172TIP3   OH2 6479   0.120   0.490   0.575
 2172TIP3    H1 6480   0.215   0.500   0.568
 2172TIP3    H2 6481   0.090   0.576   0.609
 2173TIP3   OH2 6482   0.564   0.417   1.145
 2173TIP3    H1 6483   0.612   0.497   1.127
 2173TIP3    H2 6484   0.630   0.348   1.147
 2174TIP3   OH2 6485   7.078   3.618   2.432
 2174TIP3    H1 6486   7.172   3.632   2.442
 2174TIP3    H2 6487   7.056   3.664   2.350
 2175TIP3   OH2 6488   4.515   2.081   5.550
 2175TIP3    H1 6489   4.544   2.018   5.484
 2175TIP3    H2 6490   4.432   2.046   5.583
 2176TIP3   OH2 6491   2.211   1.720   5.622
 2176TIP3    H1 6492   2.282   1.746   5.682
 2176TIP3    H2 6493   2.255   1.706   5.538
 2177TIP3   OH2 6494   3.257   4.479   5.263
 2177TIP3    H1 6495   3.272   4.552   5.202
 2177TIP3    H2 6496   3.165   4.485   5.286
 2178TIP3   OH2 6497   4.044   3.835   4.232
 2178TIP3    H1 6498   4.093   3.911   4.200
 2178TIP3    H2 6499   4.110   3.770   4.253
 2179TIP3   OH2 6500   4.152   0.511   1.184
 2179TIP3    H1 6501   4.179   0.499   1.093
 2179TIP3    H2 6502   4.170   0.427   1.227
 2180TIP3   OH2 6503   0.986   3.781   3.503
 2180TIP3    H1 6504   1.068   3.736   3.523
 2180TIP3    H2 6505   0.978   3.847   3.573
 2181TIP3   OH2 6506   1.596   3.886   1.434
 2181TIP3    H1 6507   1.536   3.825   1.390
 2181TIP3    H2 6508   1.564   3.973   1.409
 2182TIP3   OH2 6509   0.738   6.337   5.001
 2182TIP3    H1 6510   0.689   6.413   4.971
 2182TIP3    H2 6511   0.807   6.325   4.935
 2183TIP3   OH2 6512   6.395   3.666   1.202
 2183TIP3    H1 6513   6.395   3.627   1.289
 2183TIP3    H2 6514   6.467   3.622   1.156
 2184TIP3   OH2 6515   2.642   6.677   0.435
 2184TIP3    H1 6516   2.692   6.676   0.353
 2184TIP3    H2 6517   2.584   6.752   0.426
 2185TIP3   OH2 6518   2.466   6.195   3.396
 2185TIP3    H1 6519   2.402   6.208   3.326
 2185TIP3    H2 6520   2.428   6.127   3.451
 2186TIP3   OH2 6521   0.003   6.248   1.832
 2186TIP3    H1 6522  -0.004   6.333   1.874
 2186TIP3    H2 6523  -0.045   6.258   1.750
 2187TIP3   OH2 6524   2.102   0.273   4.523
 2187TIP3    H1 6525   2.129   0.230   4.605
 2187TIP3    H2 6526   2.025   0.224   4.494
 2188TIP3   OH2 6527   3.473   0.863   0.144
 2188TIP3    H1 6528   3.525   0.855   0.224
 2188TIP3    H2 6529   3.529   0.828   0.075
 2189TIP3   OH2 6530   3.265   3.029   3.947
 2189TIP3    H1 6531   3.196   2.974   3.910
 2189TIP3    H2 6532   3.260   3.111   3.897
 2190TIP3   OH2 6533   0.146   3.613   2.914
 2190TIP3    H1 6534   0.190   3.582   2.993
 2190TIP3    H2 6535   0.165   3.547   2.848
 2191TIP3   OH2 6536   4.332   5.356   1.522
 2191TIP3    H1 6537   4.260   5.417   1.502
 2191TIP3    H2 6538   4.385   5.356   1.442
 2192TIP3   OH2 6539   6.111   5.803   1.541
 2192TIP3    H1 6540   6.131   5.892   1.571
 2192TIP3    H2 6541   6.160   5.793   1.459
 2193TIP3   OH2 6542   3.993   2.668   4.406
 2193TIP3    H1 6543   3.972   2.653   4.313
 2193TIP3    H2 6544   4.036   2.588   4.434
 2194TIP3   OH2 6545   6.438   5.131   2.376
 2194TIP3    H1 6546   6.343   5.130   2.381
 2194TIP3    H2 6547   6.457   5.145   2.283
 2195TIP3   OH2 6548   0.092   6.324   4.100
 2195TIP3    H1 6549   0.102   6.266   4.176
 2195TIP3    H2 6550   0.160   6.296   4.039
 2196TIP3   OH2 6551   0.691   4.412   5.655
 2196TIP3    H1 6552   0.603   4.406   5.692
 2196TIP3    H2 6553   0.677   4.445   5.566
 2197TIP3   OH2 6554   0.038   3.092   1.905
 2197TIP3    H1 6555   0.096   3.110   1.831
 2197TIP3    H2 6556   0.096   3.084   1.981
 2198TIP3   OH2 6557   1.840   4.699   2.557
 2198TIP3    H1 6558   1.794   4.762   2.614
 2198TIP3    H2 6559   1.796   4.707   2.472
 2199TIP3   OH2 6560   2.659   5.680   0.995
 2199TIP3    H1 6561   2.727   5.715   0.936
 2199TIP3    H2 6562   2.605   5.625   0.939
 2200TIP3   OH2 6563   6.810   3.019   3.235
 2200TIP3    H1 6564   6.871   3.072   3.286
 2200TIP3    H2 6565   6.727   3.068   3.239
 2201TIP3   OH2 6566   6.879   0.474   2.167
 2201TIP3    H1 6567   6.783   0.469   2.164
 2201TIP3    H2 6568   6.909   0.421   2.093
 2202TIP3   OH2 6569   7.137   2.057   5.774
 2202TIP3    H1 6570   7.083   2.103   5.839
 2202TIP3    H2 6571   7.213   2.026   5.823
 2203TIP3   OH2 6572   4.904   2.329   5.508
 2203TIP3    H1 6573   4.844   2.298   5.576
 2203TIP3    H2 6574   4.920   2.252   5.453
 2204TIP3   OH2 6575   3.571   1.367   0.799
 2204TIP3    H1 6576   3.649   1.372   0.853
 2204TIP3    H2 6577   3.574   1.446   0.744
 2205TIP3   OH2 6578   0.575   4.960   3.542
 2205TIP3    H1 6579   0.663   4.941   3.576
 2205TIP3    H2 6580   0.589   4.978   3.449
 2206TIP3   OH2 6581   3.452   5.799   1.745
 2206TIP3    H1 6582   3.485   5.800   1.835
 2206TIP3    H2 6583   3.457   5.707   1.719
 2207TIP3   OH2 6584   3.999   2.701   1.410
 2207TIP3    H1 6585   3.947   2.638   1.359
 2207TIP3    H2 6586   3.942   2.724   1.483
 2208TIP3   OH2 6587   1.103   3.679   4.357
 2208TIP3    H1 6588   1.038   3.747   4.337
 2208TIP3    H2 6589   1.075   3.603   4.307
 2209TIP3   OH2 6590   6.352   1.982   3.379
 2209TIP3    H1 6591   6.415   1.910   3.384
 2209TIP3    H2 6592   6.363   2.017   3.290
 2210TIP3   OH2 6593   3.911   2.678   4.804
 2210TIP3    H1 6594   3.822   2.666   4.769
 2210TIP3    H2 6595   3.898   2.689   4.898
 2211TIP3   OH2 6596   0.587   1.220   3.952
 2211TIP3    H1 6597   0.591   1.296   4.011
 2211TIP3    H2 6598   0.539   1.154   4.002
 2212TIP3   OH2 6599   2.439   3.513   3.803
 2212TIP3    H1 6600   2.523   3.467   3.806
 2212TIP3    H2 6601   2.408   3.511   3.893
 2213TIP3   OH2 6602   1.161   1.935   0.564
 2213TIP3    H1 6603   1.253   1.959   0.567
 2213TIP3    H2 6604   1.149   1.874   0.637
 2214TIP3   OH2 6605   2.716   4.330   1.618
 2214TIP3    H1 6606   2.725   4.273   1.694
 2214TIP3    H2 6607   2.625   4.359   1.620
 2215TIP3   OH2 6608   3.713   1.749   2.604
 2215TIP3    H1 6609   3.688   1.715   2.518
 2215TIP3    H2 6610   3.808   1.760   2.598
 2216TIP3   OH2 6611   7.193   0.841   1.801
 2216TIP3    H1 6612   7.141   0.775   1.754
 2216TIP3    H2 6613   7.212   0.801   1.886
 2217TIP3   OH2 6614   2.191   2.499   5.775
 2217TIP3    H1 6615   2.097   2.484   5.762
 2217TIP3    H2 6616   2.231   2.473   5.692
 2218TIP3   OH2 6617   5.837   4.130   4.774
 2218TIP3    H1 6618   5.814   4.133   4.867
 2218TIP3    H2 6619   5.932   4.125   4.772
 2219TIP3   OH2 6620   1.949   1.604   0.975
 2219TIP3    H1 6621   2.012   1.660   0.930
 2219TIP3    H2 6622   2.002   1.531   1.009
 2220TIP3   OH2 6623   2.064   2.985   3.908
 2220TIP3    H1 6624   2.153   2.967   3.878
 2220TIP3    H2 6625   2.036   3.061   3.856
 2221TIP3   OH2 6626   5.849   6.494   3.965
 2221TIP3    H1 6627   5.932   6.517   4.006
 2221TIP3    H2 6628   5.832   6.404   3.994
 2222TIP3   OH2 6629   4.261   1.556   5.385
 2222TIP3    H1 6630   4.219   1.483   5.431
 2222TIP3    H2 6631   4.192   1.591   5.329
 2223TIP3   OH2 6632   3.085   3.180   0.447
 2223TIP3    H1 6633   3.020   3.178   0.518
 2223TIP3    H2 6634   3.168   3.167   0.491
 2224TIP3   OH2 6635   6.247   4.494   3.576
 2224TIP3    H1 6636   6.237   4.526   3.665
 2224TIP3    H2 6637   6.292   4.564   3.530
 2225TIP3   OH2 6638   1.392   3.663   2.055
 2225TIP3    H1 6639   1.404   3.605   1.980
 2225TIP3    H2 6640   1.382   3.750   2.016
 2226TIP3   OH2 6641   6.934   5.741   1.202
 2226TIP3    H1 6642   6.852   5.740   1.251
 2226TIP3    H2 6643   6.980   5.662   1.231
 2227TIP3   OH2 6644   1.168   4.424   5.319
 2227TIP3    H1 6645   1.226   4.348   5.318
 2227TIP3    H2 6646   1.170   4.457   5.229
 2228TIP3   OH2 6647   0.205   5.546   5.098
 2228TIP3    H1 6648   0.274   5.599   5.140
 2228TIP3    H2 6649   0.221   5.556   5.004
 2229TIP3   OH2 6650   1.376   5.996   2.321
 2229TIP3    H1 6651   1.380   5.931   2.250
 2229TIP3    H2 6652   1.286   5.992   2.352
 2230TIP3   OH2 6653   4.126   5.959   5.555
 2230TIP3    H1 6654   4.065   5.990   5.623
 2230TIP3    H2 6655   4.212   5.968   5.595
 2231TIP3   OH2 6656   3.953   1.524   0.444
 2231TIP3    H1 6657   3.860   1.504   0.445
 2231TIP3    H2 6658   3.965   1.582   0.368
 2232TIP3   OH2 6659   7.059   6.581   3.966
 2232TIP3    H1 6660   7.080   6.579   3.873
 2232TIP3    H2 6661   7.068   6.490   3.995
 2233TIP3   OH2 6662   2.755   3.641   3.125
 2233TIP3    H1 6663   2.749   3.722   3.176
 2233TIP3    H2 6664   2.665   3.614   3.111
 2234TIP3   OH2 6665   6.376   1.304   2.482
 2234TIP3    H1 6666   6.440   1.250   2.530
 2234TIP3    H2 6667   6.311   1.241   2.450
 2235TIP3   OH2 6668   5.598   4.110   1.807
 2235TIP3    H1 6669   5.667   4.171   1.781
 2235TIP3    H2 6670   5.645   4.034   1.842
 2236TIP3   OH2 6671   1.516   1.900   2.959
 2236TIP3    H1 6672   1.599   1.871   2.920
 2236TIP3    H2 6673   1.473   1.820   2.987
 2237TIP3   OH2 6674   4.295   5.971   1.734
 2237TIP3    H1 6675   4.322   5.998   1.647
 2237TIP3    H2 6676   4.287   6.053   1.784
 2238TIP3   OH2 6677   6.261   5.622   5.085
 2238TIP3    H1 6678   6.171   5.621   5.053
 2238TIP3    H2 6679   6.312   5.657   5.012
 2239TIP3   OH2 6680   6.224   0.791   2.429
 2239TIP3    H1 6681   6.155   0.845   2.469
 2239TIP3    H2 6682   6.274   0.758   2.504
 2240TIP3   OH2 6683   3.603   1.120   4.818
 2240TIP3    H1 6684   3.667   1.138   4.749
 2240TIP3    H2 6685   3.588   1.026   4.813
 2241TIP3   OH2 6686   3.006   4.454   4.493
 2241TIP3    H1 6687   2.992   4.548   4.489
 2241TIP3    H2 6688   3.089   4.444   4.539
 2242TIP3   OH2 6689   5.928   4.544   3.691
 2242TIP3    H1 6690   5.952   4.635   3.710
 2242TIP3    H2 6691   6.012   4.497   3.694
 2243TIP3   OH2 6692   0.314   4.193   2.536
 2243TIP3    H1 6693   0.338   4.126   2.600
 2243TIP3    H2 6694   0.342   4.276   2.577
 2244TIP3   OH2 6695   2.105   6.377   1.682
 2244TIP3    H1 6696   2.102   6.468   1.652
 2244TIP3    H2 6697   2.101   6.325   1.602
 2245TIP3   OH2 6698   2.186   0.632   2.389
 2245TIP3    H1 6699   2.204   0.553   2.440
 2245TIP3    H2 6700   2.271   0.660   2.356
 2246TIP3   OH2 6701   4.712   4.214   4.795
 2246TIP3    H1 6702   4.796   4.187   4.830
 2246TIP3    H2 6703   4.652   4.212   4.869
 2247TIP3   OH2 6704   6.158   0.874   2.897
 2247TIP3    H1 6705   6.109   0.942   2.943
 2247TIP3    H2 6706   6.130   0.792   2.938
 2248TIP3   OH2 6707   6.208   3.821   1.893
 2248TIP3    H1 6708   6.290   3.858   1.862
 2248TIP3    H2 6709   6.151   3.897   1.905
 2249TIP3   OH2 6710   4.032   6.485   5.833
 2249TIP3    H1 6711   4.077   6.534   5.902
 2249TIP3    H2 6712   4.070   6.398   5.836
 2250TIP3   OH2 6713   2.292   5.852   5.205
 2250TIP3    H1 6714   2.292   5.823   5.114
 2250TIP3    H2 6715   2.319   5.944   5.201
 2251TIP3   OH2 6716   5.837   0.358   2.341
 2251TIP3    H1 6717   5.819   0.410   2.420
 2251TIP3    H2 6718   5.910   0.302   2.366
 2252TIP3   OH2 6719   2.435   0.740   0.376
 2252TIP3    H1 6720   2.378   0.671   0.344
 2252TIP3    H2 6721   2.503   0.694   0.425
 2253TIP3   OH2 6722   1.340   3.491   1.420
 2253TIP3    H1 6723   1.435   3.500   1.428
 2253TIP3    H2 6724   1.326   3.396   1.414
 2254TIP3   OH2 6725   2.953   3.318   4.746
 2254TIP3    H1 6726   2.900   3.263   4.804
 2254TIP3    H2 6727   2.997   3.380   4.805
 2255TIP3   OH2 6728   7.105   2.270   4.470
 2255TIP3    H1 6729   7.121   2.178   4.450
 2255TIP3    H2 6730   7.039   2.298   4.406
 2256TIP3   OH2 6731   6.180   0.403   3.483
 2256TIP3    H1 6732   6.247   0.342   3.452
 2256TIP3    H2 6733   6.144   0.361   3.561
 2257TIP3   OH2 6734   4.137   5.467   0.164
 2257TIP3    H1 6735   4.206   5.418   0.119
 2257TIP3    H2 6736   4.183   5.536   0.212
 2258TIP3   OH2 6737   5.464   4.388   4.125
 2258TIP3    H1 6738   5.420   4.308   4.154
 2258TIP3    H2 6739   5.505   4.363   4.042
 2259TIP3   OH2 6740   0.519   2.444   3.058
 2259TIP3    H1 6741   0.426   2.467   3.055
 2259TIP3    H2 6742   0.564   2.522   3.024
 2260TIP3   OH2 6743   0.329   6.474   0.474
 2260TIP3    H1 6744   0.240   6.484   0.509
 2260TIP3    H2 6745   0.385   6.473   0.552
 2261TIP3   OH2 6746   4.451   2.793   4.229
 2261TIP3    H1 6747   4.536   2.825   4.257
 2261TIP3    H2 6748   4.412   2.755   4.307
 2262TIP3   OH2 6749   3.574   6.786   3.089
 2262TIP3    H1 6750   3.629   6.849   3.134
 2262TIP3    H2 6751   3.489   6.792   3.132
 2263TIP3   OH2 6752   3.385   3.143   1.890
 2263TIP3    H1 6753   3.349   3.214   1.838
 2263TIP3    H2 6754   3.480   3.152   1.881
 2264TIP3   OH2 6755   3.070   3.297   0.095
 2264TIP3    H1 6756   2.998   3.325   0.039
 2264TIP3    H2 6757   3.079   3.367   0.159
 2265TIP3   OH2 6758   5.834   0.618   0.460
 2265TIP3    H1 6759   5.883   0.699   0.481
 2265TIP3    H2 6760   5.783   0.641   0.382
 2266TIP3   OH2 6761   3.803   4.657   3.176
 2266TIP3    H1 6762   3.791   4.640   3.269
 2266TIP3    H2 6763   3.888   4.700   3.170
 2267TIP3   OH2 6764   5.582   4.633   3.545
 2267TIP3    H1 6765   5.562   4.713   3.497
 2267TIP3    H2 6766   5.616   4.573   3.479
 2268TIP3   OH2 6767   2.044   3.693   0.543
 2268TIP3    H1 6768   2.059   3.609   0.498
 2268TIP3    H2 6769   2.053   3.672   0.636
 2269TIP3   OH2 6770   6.425   5.076   1.873
 2269TIP3    H1 6771   6.426   4.999   1.816
 2269TIP3    H2 6772   6.432   5.150   1.812
 2270TIP3   OH2 6773   5.719   2.937   1.178
 2270TIP3    H1 6774   5.731   3.005   1.244
 2270TIP3    H2 6775   5.644   2.966   1.126
 2271TIP3   OH2 6776   6.318   4.114   2.522
 2271TIP3    H1 6777   6.396   4.058   2.526
 2271TIP3    H2 6778   6.350   4.196   2.482
 2272TIP3   OH2 6779   5.986   5.427   2.058
 2272TIP3    H1 6780   6.074   5.409   2.090
 2272TIP3    H2 6781   5.930   5.363   2.103
 2273TIP3   OH2 6782   1.408   0.534   3.543
 2273TIP3    H1 6783   1.322   0.530   3.502
 2273TIP3    H2 6784   1.391   0.516   3.636
 2274TIP3   OH2 6785   6.537   4.469   3.299
 2274TIP3    H1 6786   6.507   4.526   3.370
 2274TIP3    H2 6787   6.628   4.495   3.285
 2275TIP3   OH2 6788   3.113   4.423   4.237
 2275TIP3    H1 6789   3.067   4.411   4.320
 2275TIP3    H2 6790   3.185   4.360   4.240
 2276TIP3   OH2 6791   0.945   3.782   4.124
 2276TIP3    H1 6792   0.912   3.841   4.192
 2276TIP3    H2 6793   0.885   3.707   4.125
 2277TIP3   OH2 6794   0.535   4.106   1.381
 2277TIP3    H1 6795   0.554   4.079   1.471
 2277TIP3    H2 6796   0.567   4.196   1.375
 2278TIP3   OH2 6797   3.665   4.093   2.548
 2278TIP3    H1 6798   3.667   4.185   2.574
 2278TIP3    H2 6799   3.756   4.064   2.556
 2279TIP3   OH2 6800   6.488   2.340   5.150
 2279TIP3    H1 6801   6.462   2.428   5.122
 2279TIP3    H2 6802   6.534   2.304   5.074
 2280TIP3   OH2 6803   2.286   1.455   4.405
 2280TIP3    H1 6804   2.305   1.417   4.491
 2280TIP3    H2 6805   2.315   1.388   4.343
 2281TIP3   OH2 6806   1.296   3.695   0.212
 2281TIP3    H1 6807   1.391   3.693   0.204
 2281TIP3    H2 6808   1.269   3.774   0.167
 2282TIP3   OH2 6809   4.000   1.343   3.070
 2282TIP3    H1 6810   3.951   1.321   2.991
 2282TIP3    H2 6811   4.014   1.259   3.114
 2283TIP3   OH2 6812   0.871   2.430   0.568
 2283TIP3    H1 6813   0.965   2.430   0.587
 2283TIP3    H2 6814   0.829   2.418   0.653
 2284TIP3   OH2 6815   4.557   2.648   2.155
 2284TIP3    H1 6816   4.567   2.666   2.062
 2284TIP3    H2 6817   4.640   2.609   2.181
 2285TIP3   OH2 6818   2.267   4.786   2.352
 2285TIP3    H1 6819   2.342   4.732   2.331
 2285TIP3    H2 6820   2.213   4.786   2.273
 2286TIP3   OH2 6821   0.914   6.680   3.670
 2286TIP3    H1 6822   0.960   6.762   3.687
 2286TIP3    H2 6823   0.870   6.659   3.752
 2287TIP3   OH2 6824   4.449   0.957   0.165
 2287TIP3    H1 6825   4.450   0.947   0.069
 2287TIP3    H2 6826   4.456   0.867   0.197
 2288TIP3   OH2 6827   6.135   5.679   5.488
 2288TIP3    H1 6828   6.124   5.765   5.446
 2288TIP3    H2 6829   6.155   5.700   5.579
 2289TIP3   OH2 6830   6.478   4.559   2.762
 2289TIP3    H1 6831   6.415   4.629   2.779
 2289TIP3    H2 6832   6.518   4.542   2.847
 2290TIP3   OH2 6833   0.746   6.529   2.574
 2290TIP3    H1 6834   0.755   6.608   2.521
 2290TIP3    H2 6835   0.711   6.560   2.658
 2291TIP3   OH2 6836   0.420   0.032   4.626
 2291TIP3    H1 6837   0.491  -0.032   4.616
 2291TIP3    H2 6838   0.348  -0.005   4.574
 2292TIP3   OH2 6839   2.499   2.320   5.382
 2292TIP3    H1 6840   2.528   2.328   5.473
 2292TIP3    H2 6841   2.574   2.351   5.330
 2293TIP3   OH2 6842   3.987   3.095   4.374
 2293TIP3    H1 6843   4.076   3.079   4.405
 2293TIP3    H2 6844   3.932   3.079   4.451
 2294TIP3   OH2 6845   3.907   3.662   0.562
 2294TIP3    H1 6846   3.903   3.736   0.623
 2294TIP3    H2 6847   3.902   3.585   0.618
 2295TIP3   OH2 6848   6.119   1.662   3.942
 2295TIP3    H1 6849   6.143   1.698   3.857
 2295TIP3    H2 6850   6.023   1.667   3.944
 2296TIP3   OH2 6851   6.454   5.541   3.408
 2296TIP3    H1 6852   6.439   5.450   3.380
 2296TIP3    H2 6853   6.421   5.594   3.336
 2297TIP3   OH2 6854   4.025   4.902   3.535
 2297TIP3    H1 6855   3.962   4.909   3.464
 2297TIP3    H2 6856   3.976   4.860   3.606
 2298TIP3   OH2 6857   1.640   6.090   4.165
 2298TIP3    H1 6858   1.659   6.065   4.256
 2298TIP3    H2 6859   1.626   6.184   4.169
 2299TIP3   OH2 6860   5.495   2.236   2.082
 2299TIP3    H1 6861   5.541   2.154   2.065
 2299TIP3    H2 6862   5.420   2.234   2.022
 2300TIP3   OH2 6863   5.422   6.200   5.296
 2300TIP3    H1 6864   5.413   6.150   5.377
 2300TIP3    H2 6865   5.484   6.269   5.317
 2301TIP3   OH2 6866   1.402   5.655   0.153
 2301TIP3    H1 6867   1.318   5.618   0.179
 2301TIP3    H2 6868   1.380   5.728   0.096
 2302TIP3   OH2 6869   3.844   4.074   4.203
 2302TIP3    H1 6870   3.848   4.098   4.295
 2302TIP3    H2 6871   3.887   3.988   4.198
 2303TIP3   OH2 6872   0.437   3.200   5.770
 2303TIP3    H1 6873   0.523   3.215   5.809
 2303TIP3    H2 6874   0.431   3.266   5.701
 2304TIP3   OH2 6875   5.119   0.143   1.098
 2304TIP3    H1 6876   5.207   0.111   1.117
 2304TIP3    H2 6877   5.104   0.212   1.162
 2305TIP3   OH2 6878   1.968   1.772   4.607
 2305TIP3    H1 6879   1.987   1.773   4.700
 2305TIP3    H2 6880   1.921   1.690   4.592
 2306TIP3   OH2 6881   1.069   4.703   4.626
 2306TIP3    H1 6882   1.067   4.768   4.556
 2306TIP3    H2 6883   0.992   4.723   4.680
 2307TIP3   OH2 6884   5.101   2.015   5.501
 2307TIP3    H1 6885   5.097   1.926   5.536
 2307TIP3    H2 6886   5.186   2.021   5.457
 2308TIP3   OH2 6887   5.670   6.514   3.726
 2308TIP3    H1 6888   5.758   6.513   3.762
 2308TIP3    H2 6889   5.683   6.514   3.631
 2309TIP3   OH2 6890   6.991   4.580   2.297
 2309TIP3    H1 6891   7.049   4.508   2.270
 2309TIP3    H2 6892   7.016   4.653   2.240
 2310TIP3   OH2 6893   6.409   3.991   1.771
 2310TIP3    H1 6894   6.367   4.077   1.761
 2310TIP3    H2 6895   6.502   4.008   1.762
 2311TIP3   OH2 6896   5.096   5.282   5.552
 2311TIP3    H1 6897   5.024   5.315   5.606
 2311TIP3    H2 6898   5.175   5.299   5.604
 2312TIP3   OH2 6899   2.614   1.647   4.701
 2312TIP3    H1 6900   2.673   1.640   4.626
 2312TIP3    H2 6901   2.608   1.558   4.736
 2313TIP3   OH2 6902   6.322   3.757   4.541
 2313TIP3    H1 6903   6.369   3.752   4.458
 2313TIP3    H2 6904   6.371   3.700   4.600
 2314TIP3   OH2 6905   5.195   2.644   4.186
 2314TIP3    H1 6906   5.125   2.662   4.248
 2314TIP3    H2 6907   5.234   2.562   4.216
 2315TIP3   OH2 6908   6.643   4.403   0.818
 2315TIP3    H1 6909   6.561   4.450   0.826
 2315TIP3    H2 6910   6.700   4.442   0.884
 2316TIP3   OH2 6911   4.053   4.069   0.965
 2316TIP3    H1 6912   4.005   4.035   1.040
 2316TIP3    H2 6913   4.024   4.160   0.958
 2317TIP3   OH2 6914   6.994   6.348   5.645
 2317TIP3    H1 6915   6.919   6.289   5.651
 2317TIP3    H2 6916   7.035   6.343   5.731
 2318TIP3   OH2 6917   2.227   5.093   2.277
 2318TIP3    H1 6918   2.205   5.002   2.299
 2318TIP3    H2 6919   2.212   5.141   2.358
 2319TIP3   OH2 6920   0.595   0.738   2.250
 2319TIP3    H1 6921   0.582   0.674   2.179
 2319TIP3    H2 6922   0.548   0.816   2.222
 2320TIP3   OH2 6923   2.890   1.724   0.103
 2320TIP3    H1 6924   2.978   1.707   0.070
 2320TIP3    H2 6925   2.875   1.817   0.083
 2321TIP3   OH2 6926   2.368   0.518   2.784
 2321TIP3    H1 6927   2.334   0.608   2.780
 2321TIP3    H2 6928   2.298   0.464   2.746
 2322TIP3   OH2 6929   0.081   2.610   3.309
 2322TIP3    H1 6930   0.041   2.532   3.271
 2322TIP3    H2 6931   0.061   2.605   3.402
 2323TIP3   OH2 6932   2.053   5.542   5.387
 2323TIP3    H1 6933   2.074   5.633   5.405
 2323TIP3    H2 6934   2.121   5.492   5.431
 2324TIP3   OH2 6935   6.851   2.142   2.980
 2324TIP3    H1 6936   6.835   2.088   2.902
 2324TIP3    H2 6937   6.894   2.221   2.946
 2325TIP3   OH2 6938   5.684   2.110   0.925
 2325TIP3    H1 6939   5.663   2.047   0.857
 2325TIP3    H2 6940   5.780   2.107   0.931
 2326TIP3   OH2 6941   2.604   6.436   3.166
 2326TIP3    H1 6942   2.512   6.412   3.178
 2326TIP3    H2 6943   2.606   6.483   3.083
 2327TIP3   OH2 6944   6.042   2.732   0.512
 2327TIP3    H1 6945   5.948   2.719   0.505
 2327TIP3    H2 6946   6.079   2.644   0.504
 2328TIP3   OH2 6947   6.548   1.757   4.737
 2328TIP3    H1 6948   6.536   1.755   4.642
 2328TIP3    H2 6949   6.463   1.781   4.772
 2329TIP3   OH2 6950   4.544   4.533   5.743
 2329TIP3    H1 6951   4.535   4.563   5.834
 2329TIP3    H2 6952   4.503   4.602   5.691
 2330TIP3   OH2 6953   4.473   6.413   2.114
 2330TIP3    H1 6954   4.493   6.343   2.176
 2330TIP3    H2 6955   4.416   6.472   2.162
 2331TIP3   OH2 6956   0.752   4.209   0.934
 2331TIP3    H1 6957   0.763   4.159   1.015
 2331TIP3    H2 6958   0.752   4.301   0.962
 2332TIP3   OH2 6959   2.468   4.644   1.601
 2332TIP3    H1 6960   2.394   4.583   1.591
 2332TIP3    H2 6961   2.502   4.654   1.512
 2333TIP3   OH2 6962   4.069   0.727   2.201
 2333TIP3    H1 6963   4.094   0.722   2.293
 2333TIP3    H2 6964   4.015   0.649   2.186
 2334TIP3   OH2 6965   0.867   4.285   2.185
 2334TIP3    H1 6966   0.818   4.335   2.119
 2334TIP3    H2 6967   0.945   4.254   2.138
 2335TIP3   OH2 6968   2.257   1.882   4.219
 2335TIP3    H1 6969   2.332   1.849   4.169
 2335TIP3    H2 6970   2.255   1.976   4.199
 2336TIP3   OH2 6971   1.388   4.114   0.598
 2336TIP3    H1 6972   1.334   4.072   0.665
 2336TIP3    H2 6973   1.330   4.122   0.522
 2337TIP3   OH2 6974   5.503   4.383   2.812
 2337TIP3    H1 6975   5.472   4.401   2.724
 2337TIP3    H2 6976   5.566   4.452   2.830
 2338TIP3   OH2 6977   5.764   5.570   4.333
 2338TIP3    H1 6978   5.771   5.662   4.309
 2338TIP3    H2 6979   5.851   5.546   4.363
 2339TIP3   OH2 6980   4.168   2.183   1.406
 2339TIP3    H1 6981   4.235   2.230   1.357
 2339TIP3    H2 6982   4.122   2.131   1.339
 2340TIP3   OH2 6983   4.750   2.869   2.853
 2340TIP3    H1 6984   4.658   2.896   2.853
 2340TIP3    H2 6985   4.755   2.802   2.785
 2341TIP3   OH2 6986   2.398   4.900   5.803
 2341TIP3    H1 6987   2.428   4.960   5.871
 2341TIP3    H2 6988   2.344   4.836   5.849
 2342TIP3   OH2 6989   5.030   6.381   4.024
 2342TIP3    H1 6990   4.964   6.332   3.975
 2342TIP3    H2 6991   5.042   6.331   4.105
 2343TIP3   OH2 6992   5.957   1.708   0.602
 2343TIP3    H1 6993   5.912   1.745   0.678
 2343TIP3    H2 6994   6.048   1.700   0.629
 2344TIP3   OH2 6995   0.141   4.924   3.801
 2344TIP3    H1 6996   0.208   4.918   3.733
 2344TIP3    H2 6997   0.106   4.836   3.809
 2345TIP3   OH2 6998   6.881   5.177   0.412
 2345TIP3    H1 6999   6.823   5.187   0.336
 2345TIP3    H2 7000   6.954   5.236   0.394
 2346TIP3   OH2 7001   4.359   3.329   1.737
 2346TIP3    H1 7002   4.361   3.273   1.815
 2346TIP3    H2 7003   4.430   3.391   1.751
 2347TIP3   OH2 7004   5.816   0.598   4.038
 2347TIP3    H1 7005   5.769   0.681   4.035
 2347TIP3    H2 7006   5.763   0.538   3.985
 2348TIP3   OH2 7007   0.918   0.378   3.631
 2348TIP3    H1 7008   0.870   0.295   3.630
 2348TIP3    H2 7009   0.948   0.390   3.541
 2349TIP3   OH2 7010   0.548   5.444   3.678
 2349TIP3    H1 7011   0.522   5.411   3.764
 2349TIP3    H2 7012   0.507   5.384   3.616
 2350TIP3   OH2 7013   3.413   1.970   5.616
 2350TIP3    H1 7014   3.486   1.965   5.678
 2350TIP3    H2 7015   3.451   1.944   5.532
 2351TIP3   OH2 7016   5.471   2.952   4.852
 2351TIP3    H1 7017   5.552   2.905   4.873
 2351TIP3    H2 7018   5.403   2.886   4.863
 2352TIP3   OH2 7019   5.797   4.126   0.591
 2352TIP3    H1 7020   5.729   4.122   0.659
 2352TIP3    H2 7021   5.840   4.210   0.606
 2353TIP3   OH2 7022   0.605   6.352   4.426
 2353TIP3    H1 7023   0.520   6.369   4.385
 2353TIP3    H2 7024   0.657   6.309   4.358
 2354TIP3   OH2 7025   5.734   4.855   1.491
 2354TIP3    H1 7026   5.785   4.875   1.570
 2354TIP3    H2 7027   5.695   4.769   1.510
 2355TIP3   OH2 7028   4.994   2.516   3.527
 2355TIP3    H1 7029   4.966   2.469   3.450
 2355TIP3    H2 7030   5.059   2.580   3.494
 2356TIP3   OH2 7031   4.191   4.980   1.463
 2356TIP3    H1 7032   4.265   5.038   1.481
 2356TIP3    H2 7033   4.116   5.039   1.452
 2357TIP3   OH2 7034   1.677   2.492   5.308
 2357TIP3    H1 7035   1.600   2.542   5.279
 2357TIP3    H2 7036   1.746   2.517   5.247
 2358TIP3   OH2 7037   0.099   0.724   3.521
 2358TIP3    H1 7038   0.124   0.773   3.599
 2358TIP3    H2 7039   0.159   0.753   3.453
 2359TIP3   OH2 7040   2.481   6.281   2.154
 2359TIP3    H1 7041   2.538   6.313   2.223
 2359TIP3    H2 7042   2.436   6.205   2.192
 2360TIP3   OH2 7043   2.932   4.182   0.336
 2360TIP3    H1 7044   2.948   4.094   0.368
 2360TIP3    H2 7045   2.856   4.212   0.385
 2361TIP3   OH2 7046   6.260   4.485   2.091
 2361TIP3    H1 7047   6.288   4.402   2.052
 2361TIP3    H2 7048   6.260   4.546   2.017
 2362TIP3   OH2 7049   5.014   6.125   1.492
 2362TIP3    H1 7050   5.069   6.151   1.566
 2362TIP3    H2 7051   5.036   6.188   1.422
 2363TIP3   OH2 7052   0.387   3.105   2.633
 2363TIP3    H1 7053   0.349   3.018   2.623
 2363TIP3    H2 7054   0.400   3.115   2.727
 2364TIP3   OH2 7055   4.720   6.048   5.773
 2364TIP3    H1 7056   4.813   6.033   5.755
 2364TIP3    H2 7057   4.719   6.132   5.820
 2365TIP3   OH2 7058   3.247   1.277   1.487
 2365TIP3    H1 7059   3.214   1.266   1.398
 2365TIP3    H2 7060   3.247   1.372   1.500
 2366TIP3   OH2 7061   7.033   0.653   0.907
 2366TIP3    H1 7062   6.951   0.641   0.860
 2366TIP3    H2 7063   7.010   0.706   0.983
 2367TIP3   OH2 7064   4.369   0.367   4.513
 2367TIP3    H1 7065   4.455   0.381   4.474
 2367TIP3    H2 7066   4.324   0.308   4.452
 2368TIP3   OH2 7067   4.884   3.526   0.807
 2368TIP3    H1 7068   4.874   3.492   0.896
 2368TIP3    H2 7069   4.905   3.449   0.755
 2369TIP3   OH2 7070   2.791   6.122   1.040
 2369TIP3    H1 7071   2.710   6.173   1.034
 2369TIP3    H2 7072   2.783   6.075   1.123
 2370TIP3   OH2 7073   0.769   1.740   0.714
 2370TIP3    H1 7074   0.749   1.788   0.795
 2370TIP3    H2 7075   0.684   1.726   0.674
 2371TIP3   OH2 7076   1.401   3.460   4.479
 2371TIP3    H1 7077   1.463   3.437   4.549
 2371TIP3    H2 7078   1.329   3.503   4.523
 2372TIP3   OH2 7079   0.365   6.572   4.763
 2372TIP3    H1 7080   0.447   6.533   4.794
 2372TIP3    H2 7081   0.366   6.560   4.668
 2373TIP3   OH2 7082   3.937   1.732   1.174
 2373TIP3    H1 7083   4.001   1.782   1.224
 2373TIP3    H2 7084   3.884   1.688   1.240
 2374TIP3   OH2 7085   1.009   4.425   0.290
 2374TIP3    H1 7086   0.995   4.339   0.331
 2374TIP3    H2 7087   0.921   4.456   0.270
 2375TIP3   OH2 7088   4.009   2.925   4.702
 2375TIP3    H1 7089   3.967   2.839   4.715
 2375TIP3    H2 7090   3.948   2.973   4.645
 2376TIP3   OH2 7091   1.796   4.618   0.465
 2376TIP3    H1 7092   1.856   4.543   0.463
 2376TIP3    H2 7093   1.785   4.642   0.373
 2377TIP3   OH2 7094   5.831   5.680   0.997
 2377TIP3    H1 7095   5.875   5.696   0.914
 2377TIP3    H2 7096   5.781   5.761   1.014
 2378TIP3   OH2 7097   4.951   3.519   3.201
 2378TIP3    H1 7098   4.869   3.506   3.154
 2378TIP3    H2 7099   4.993   3.592   3.155
 2379TIP3   OH2 7100   2.973   0.323   5.549
 2379TIP3    H1 7101   2.908   0.340   5.618
 2379TIP3    H2 7102   2.964   0.396   5.489
 2380TIP3   OH2 7103   3.023   3.059   4.635
 2380TIP3    H1 7104   2.959   3.099   4.577
 2380TIP3    H2 7105   2.988   3.075   4.723
 2381TIP3   OH2 7106   2.480   6.269   5.098
 2381TIP3    H1 7107   2.524   6.278   5.183
 2381TIP3    H2 7108   2.463   6.359   5.070
 2382TIP3   OH2 7109   6.346   4.250   1.985
 2382TIP3    H1 7110   6.363   4.171   2.035
 2382TIP3    H2 7111   6.433   4.281   1.958
 2383TIP3   OH2 7112   5.196   2.405   4.930
 2383TIP3    H1 7113   5.156   2.482   4.888
 2383TIP3    H2 7114   5.122   2.359   4.969
 2384TIP3   OH2 7115   6.113   5.401   1.414
 2384TIP3    H1 7116   6.191   5.402   1.359
 2384TIP3    H2 7117   6.041   5.384   1.354
 2385TIP3   OH2 7118   1.041   5.952   1.889
 2385TIP3    H1 7119   1.031   6.047   1.888
 2385TIP3    H2 7120   1.068   5.932   1.978
 2386TIP3   OH2 7121   0.565   1.978   1.765
 2386TIP3    H1 7122   0.513   1.899   1.775
 2386TIP3    H2 7123   0.502   2.050   1.765
 2387TIP3   OH2 7124   0.843   4.994   2.249
 2387TIP3    H1 7125   0.910   5.006   2.182
 2387TIP3    H2 7126   0.892   4.996   2.332
 2388TIP3   OH2 7127   4.608   2.189   5.235
 2388TIP3    H1 7128   4.651   2.120   5.285
 2388TIP3    H2 7129   4.680   2.243   5.202
 2389TIP3   OH2 7130   1.930   5.656   2.746
 2389TIP3    H1 7131   1.888   5.587   2.695
 2389TIP3    H2 7132   2.002   5.612   2.792
 2390TIP3   OH2 7133   0.525   4.892   4.298
 2390TIP3    H1 7134   0.581   4.858   4.229
 2390TIP3    H2 7135   0.527   4.824   4.366
 2391TIP3   OH2 7136   4.238   4.834   4.283
 2391TIP3    H1 7137   4.172   4.884   4.330
 2391TIP3    H2 7138   4.190   4.788   4.214
 2392TIP3   OH2 7139   7.204   0.619   4.640
 2392TIP3    H1 7140   7.127   0.577   4.678
 2392TIP3    H2 7141   7.266   0.547   4.628
 2393TIP3   OH2 7142   4.471   6.440   2.902
 2393TIP3    H1 7143   4.559   6.476   2.911
 2393TIP3    H2 7144   4.426   6.500   2.844
 2394TIP3   OH2 7145   3.497   5.916   1.353
 2394TIP3    H1 7146   3.449   5.991   1.319
 2394TIP3    H2 7147   3.429   5.849   1.366
 2395TIP3   OH2 7148   5.246   4.126   5.540
 2395TIP3    H1 7149   5.277   4.211   5.573
 2395TIP3    H2 7150   5.223   4.076   5.618
 2396TIP3   OH2 7151   1.330   3.755   3.963
 2396TIP3    H1 7152   1.284   3.714   4.036
 2396TIP3    H2 7153   1.408   3.700   3.950
 2397TIP3   OH2 7154   3.353   4.548   3.543
 2397TIP3    H1 7155   3.346   4.467   3.593
 2397TIP3    H2 7156   3.419   4.531   3.477
 2398TIP3   OH2 7157   4.381   6.496   4.705
 2398TIP3    H1 7158   4.351   6.418   4.658
 2398TIP3    H2 7159   4.322   6.565   4.676
 2399TIP3   OH2 7160   5.786   3.936   1.942
 2399TIP3    H1 7161   5.873   3.976   1.946
 2399TIP3    H2 7162   5.761   3.925   2.034
 2400TIP3   OH2 7163   7.079   5.289   0.030
 2400TIP3    H1 7164   7.055   5.378   0.058
 2400TIP3    H2 7165   7.027   5.274  -0.049
 2401TIP3   OH2 7166   1.443   2.021   3.515
 2401TIP3    H1 7167   1.416   2.112   3.513
 2401TIP3    H2 7168   1.386   1.977   3.452
 2402TIP3   OH2 7169   1.641   3.362   0.697
 2402TIP3    H1 7170   1.632   3.327   0.786
 2402TIP3    H2 7171   1.552   3.360   0.662
 2403TIP3   OH2 7172   0.541   5.651   2.000
 2403TIP3    H1 7173   0.470   5.625   2.057
 2403TIP3    H2 7174   0.596   5.573   1.992
 2404TIP3   OH2 7175   3.265   4.423   4.601
 2404TIP3    H1 7176   3.335   4.399   4.539
 2404TIP3    H2 7177   3.296   4.504   4.642
 2405TIP3   OH2 7178   4.431   0.627   1.471
 2405TIP3    H1 7179   4.376   0.674   1.409
 2405TIP3    H2 7180   4.503   0.687   1.490
 2406TIP3   OH2 7181   7.137   1.131   1.653
 2406TIP3    H1 7182   7.117   1.068   1.722
 2406TIP3    H2 7183   7.156   1.213   1.700
 2407TIP3   OH2 7184   0.410   3.030   4.405
 2407TIP3    H1 7185   0.430   2.986   4.488
 2407TIP3    H2 7186   0.484   3.010   4.348
 2408TIP3   OH2 7187   6.841   6.338   3.804
 2408TIP3    H1 7188   6.765   6.345   3.746
 2408TIP3    H2 7189   6.893   6.267   3.765
 2409TIP3   OH2 7190   2.485   4.597   5.386
 2409TIP3    H1 7191   2.505   4.682   5.426
 2409TIP3    H2 7192   2.571   4.558   5.369
 2410TIP3   OH2 7193   0.700   0.854   5.384
 2410TIP3    H1 7194   0.733   0.818   5.467
 2410TIP3    H2 7195   0.736   0.943   5.381
 2411TIP3   OH2 7196   0.392   1.203   0.737
 2411TIP3    H1 7197   0.440   1.246   0.666
 2411TIP3    H2 7198   0.402   1.263   0.812
 2412TIP3   OH2 7199   4.220   3.960   0.530
 2412TIP3    H1 7200   4.241   3.932   0.619
 2412TIP3    H2 7201   4.283   4.030   0.511
 2413TIP3   OH2 7202   7.138   4.165   2.117
 2413TIP3    H1 7203   7.210   4.107   2.141
 2413TIP3    H2 7204   7.140   4.235   2.183
 2414TIP3   OH2 7205   4.062   2.435   2.977
 2414TIP3    H1 7206   4.071   2.469   2.888
 2414TIP3    H2 7207   3.974   2.398   2.980
 2415TIP3   OH2 7208   6.910   3.417   2.928
 2415TIP3    H1 7209   6.949   3.426   3.015
 2415TIP3    H2 7210   6.820   3.391   2.944
 2416TIP3   OH2 7211   6.406   3.734   0.770
 2416TIP3    H1 7212   6.492   3.776   0.760
 2416TIP3    H2 7213   6.357   3.762   0.692
 2417TIP3   OH2 7214   5.535   5.350   3.426
 2417TIP3    H1 7215   5.506   5.259   3.424
 2417TIP3    H2 7216   5.564   5.363   3.517
 2418TIP3   OH2 7217   5.902   5.624   3.967
 2418TIP3    H1 7218   5.823   5.586   4.005
 2418TIP3    H2 7219   5.881   5.716   3.954
 2419TIP3   OH2 7220   3.552   1.882   0.569
 2419TIP3    H1 7221   3.557   1.864   0.475
 2419TIP3    H2 7222   3.497   1.960   0.574
 2420TIP3   OH2 7223   0.182   4.783   0.361
 2420TIP3    H1 7224   0.276   4.768   0.376
 2420TIP3    H2 7225   0.141   4.759   0.444
 2421TIP3   OH2 7226   3.342   3.497   4.893
 2421TIP3    H1 7227   3.365   3.409   4.925
 2421TIP3    H2 7228   3.246   3.498   4.894
 2422TIP3   OH2 7229   0.904   6.505   4.369
 2422TIP3    H1 7230   0.825   6.539   4.328
 2422TIP3    H2 7231   0.896   6.530   4.461
 2423TIP3   OH2 7232   0.527   0.419   0.300
 2423TIP3    H1 7233   0.599   0.373   0.344
 2423TIP3    H2 7234   0.566   0.456   0.221
 2424TIP3   OH2 7235   4.389   2.210   3.059
 2424TIP3    H1 7236   4.400   2.118   3.036
 2424TIP3    H2 7237   4.425   2.259   2.985
 2425TIP3   OH2 7238   3.168   1.616   2.204
 2425TIP3    H1 7239   3.100   1.626   2.137
 2425TIP3    H2 7240   3.172   1.522   2.219
 2426TIP3   OH2 7241   1.486   1.054   2.819
 2426TIP3    H1 7242   1.563   1.009   2.783
 2426TIP3    H2 7243   1.495   1.144   2.787
 2427TIP3   OH2 7244   2.811   6.215   2.564
 2427TIP3    H1 7245   2.842   6.304   2.579
 2427TIP3    H2 7246   2.716   6.222   2.572
 2428TIP3   OH2 7247   3.014   6.430   5.519
 2428TIP3    H1 7248   3.071   6.447   5.443
 2428TIP3    H2 7249   3.075   6.425   5.593
 2429TIP3   OH2 7250   1.130   5.480   1.987
 2429TIP3    H1 7251   1.161   5.533   2.060
 2429TIP3    H2 7252   1.066   5.420   2.026
 2430TIP3   OH2 7253   5.686   3.794   5.814
 2430TIP3    H1 7254   5.628   3.748   5.753
 2430TIP3    H2 7255   5.740   3.725   5.853
 2431TIP3   OH2 7256   4.929   4.724   1.451
 2431TIP3    H1 7257   4.999   4.778   1.487
 2431TIP3    H2 7258   4.849   4.774   1.468
 2432TIP3   OH2 7259   0.089   3.348   4.101
 2432TIP3    H1 7260   0.069   3.417   4.164
 2432TIP3    H2 7261   0.016   3.350   4.039
 2433TIP3   OH2 7262   4.281   2.947   2.419
 2433TIP3    H1 7263   4.254   3.028   2.463
 2433TIP3    H2 7264   4.315   2.891   2.489
 2434TIP3   OH2 7265   6.009   1.312   5.580
 2434TIP3    H1 7266   5.936   1.365   5.548
 2434TIP3    H2 7267   6.064   1.297   5.503
 2435TIP3   OH2 7268   2.804   1.756   3.016
 2435TIP3    H1 7269   2.709   1.749   3.015
 2435TIP3    H2 7270   2.829   1.753   2.923
 2436TIP3   OH2 7271   6.921   2.489   4.718
 2436TIP3    H1 7272   7.013   2.506   4.738
 2436TIP3    H2 7273   6.881   2.471   4.803
 2437TIP3   OH2 7274   2.290   4.002   3.510
 2437TIP3    H1 7275   2.219   3.990   3.573
 2437TIP3    H2 7276   2.304   3.915   3.473
 2438TIP3   OH2 7277   3.547   5.761   4.463
 2438TIP3    H1 7278   3.479   5.749   4.397
 2438TIP3    H2 7279   3.613   5.694   4.442
 2439TIP3   OH2 7280   4.280   6.406   1.542
 2439TIP3    H1 7281   4.222   6.426   1.468
 2439TIP3    H2 7282   4.280   6.485   1.596
 2440TIP3   OH2 7283   4.650   2.963   5.296
 2440TIP3    H1 7284   4.563   2.932   5.267
 2440TIP3    H2 7285   4.676   3.026   5.229
 2441TIP3   OH2 7286   3.932   3.647   0.292
 2441TIP3    H1 7287   3.912   3.626   0.383
 2441TIP3    H2 7288   3.917   3.742   0.286
 2442TIP3   OH2 7289   2.255   2.580   4.989
 2442TIP3    H1 7290   2.256   2.573   5.084
 2442TIP3    H2 7291   2.172   2.623   4.969
 2443TIP3   OH2 7292   6.850   1.964   5.231
 2443TIP3    H1 7293   6.882   1.915   5.307
 2443TIP3    H2 7294   6.768   2.003   5.260
 2444TIP3   OH2 7295   0.145   1.674   4.914
 2444TIP3    H1 7296   0.215   1.716   4.962
 2444TIP3    H2 7297   0.169   1.685   4.822
 2445TIP3   OH2 7298   5.372   2.614   0.601
 2445TIP3    H1 7299   5.291   2.566   0.620
 2445TIP3    H2 7300   5.417   2.560   0.535
 2446TIP3   OH2 7301   3.551   5.570   5.677
 2446TIP3    H1 7302   3.513   5.638   5.622
 2446TIP3    H2 7303   3.483   5.548   5.739
 2447TIP3   OH2 7304   5.585   4.672   2.362
 2447TIP3    H1 7305   5.552   4.696   2.449
 2447TIP3    H2 7306   5.669   4.630   2.380
 2448TIP3   OH2 7307   3.415   6.316   5.694
 2448TIP3    H1 7308   3.481   6.363   5.643
 2448TIP3    H2 7309   3.337   6.372   5.690
 2449TIP3   OH2 7310   1.345   4.465   3.736
 2449TIP3    H1 7311   1.252   4.465   3.755
 2449TIP3    H2 7312   1.381   4.393   3.788
 2450TIP3   OH2 7313   3.260   5.963   4.852
 2450TIP3    H1 7314   3.315   5.894   4.814
 2450TIP3    H2 7315   3.180   5.962   4.798
 2451TIP3   OH2 7316   2.057   3.965   4.242
 2451TIP3    H1 7317   2.115   4.026   4.286
 2451TIP3    H2 7318   2.053   3.889   4.301
 2452TIP3   OH2 7319   4.291   3.568   2.660
 2452TIP3    H1 7320   4.306   3.633   2.729
 2452TIP3    H2 7321   4.198   3.579   2.638
 2453TIP3   OH2 7322   0.489   3.953   3.434
 2453TIP3    H1 7323   0.564   3.894   3.430
 2453TIP3    H2 7324   0.519   4.028   3.485
 2454TIP3   OH2 7325   0.517   4.776   5.546
 2454TIP3    H1 7326   0.487   4.840   5.482
 2454TIP3    H2 7327   0.598   4.741   5.510
 2455TIP3   OH2 7328   2.490   2.051   4.081
 2455TIP3    H1 7329   2.470   2.026   3.990
 2455TIP3    H2 7330   2.576   2.092   4.075
 2456TIP3   OH2 7331   5.125   5.474   3.047
 2456TIP3    H1 7332   5.143   5.401   3.105
 2456TIP3    H2 7333   5.150   5.443   2.960
 2457TIP3   OH2 7334   0.236   0.562   4.409
 2457TIP3    H1 7335   0.275   0.513   4.481
 2457TIP3    H2 7336   0.244   0.504   4.333
 2458TIP3   OH2 7337   0.013   5.023   0.054
 2458TIP3    H1 7338  -0.062   5.065   0.013
 2458TIP3    H2 7339  -0.024   4.971   0.125
 2459TIP3   OH2 7340   3.239   3.787   1.505
 2459TIP3    H1 7341   3.161   3.768   1.453
 2459TIP3    H2 7342   3.227   3.878   1.532
 2460TIP3   OH2 7343   5.192   3.050   4.915
 2460TIP3    H1 7344   5.247   3.097   4.978
 2460TIP3    H2 7345   5.242   2.971   4.894
 2461TIP3   OH2 7346   2.688   0.529   0.213
 2461TIP3    H1 7347   2.710   0.615   0.179
 2461TIP3    H2 7348   2.635   0.489   0.143
 2462TIP3   OH2 7349   1.146   3.217   3.988
 2462TIP3    H1 7350   1.155   3.286   3.925
 2462TIP3    H2 7351   1.173   3.138   3.941
 2463TIP3   OH2 7352   2.033   0.917   5.052
 2463TIP3    H1 7353   2.061   0.984   5.115
 2463TIP3    H2 7354   2.098   0.847   5.060
 2464TIP3   OH2 7355   2.741   3.578   1.562
 2464TIP3    H1 7356   2.772   3.495   1.526
 2464TIP3    H2 7357   2.723   3.633   1.485
 2465TIP3   OH2 7358   6.896   0.821   5.038
 2465TIP3    H1 7359   6.932   0.734   5.055
 2465TIP3    H2 7360   6.973   0.877   5.025
 2466TIP3   OH2 7361   3.445   0.115   2.556
 2466TIP3    H1 7362   3.365   0.065   2.539
 2466TIP3    H2 7363   3.458   0.107   2.650
 2467TIP3   OH2 7364   3.043   2.566   5.292
 2467TIP3    H1 7365   3.060   2.478   5.257
 2467TIP3    H2 7366   2.949   2.569   5.307
 2468TIP3   OH2 7367   2.424   4.619   1.912
 2468TIP3    H1 7368   2.467   4.536   1.891
 2468TIP3    H2 7369   2.466   4.683   1.854
 2469TIP3   OH2 7370   2.389   0.259   0.409
 2469TIP3    H1 7371   2.428   0.173   0.397
 2469TIP3    H2 7372   2.430   0.293   0.489
 2470TIP3   OH2 7373   0.042   4.621   1.114
 2470TIP3    H1 7374   0.039   4.543   1.170
 2470TIP3    H2 7375   0.108   4.677   1.156
 2471TIP3   OH2 7376   4.067   6.013   3.811
 2471TIP3    H1 7377   4.155   5.979   3.795
 2471TIP3    H2 7378   4.010   5.957   3.759
 2472TIP3   OH2 7379   0.691   3.240   1.144
 2472TIP3    H1 7380   0.724   3.216   1.058
 2472TIP3    H2 7381   0.745   3.189   1.205
 2473TIP3   OH2 7382   5.560   4.198   5.407
 2473TIP3    H1 7383   5.602   4.254   5.473
 2473TIP3    H2 7384   5.547   4.114   5.452
 2474TIP3   OH2 7385   1.292   1.097   3.817
 2474TIP3    H1 7386   1.216   1.129   3.768
 2474TIP3    H2 7387   1.274   1.004   3.831
 2475TIP3   OH2 7388   4.872   1.493   4.811
 2475TIP3    H1 7389   4.928   1.542   4.751
 2475TIP3    H2 7390   4.876   1.543   4.893
 2476TIP3   OH2 7391   2.714   3.939   5.882
 2476TIP3    H1 7392   2.725   4.023   5.838
 2476TIP3    H2 7393   2.657   3.889   5.824
 2477TIP3   OH2 7394   6.635   6.686   0.175
 2477TIP3    H1 7395   6.646   6.643   0.260
 2477TIP3    H2 7396   6.620   6.614   0.114
 2478TIP3   OH2 7397   6.743   2.088   3.779
 2478TIP3    H1 7398   6.812   2.106   3.715
 2478TIP3    H2 7399   6.789   2.050   3.854
 2479TIP3   OH2 7400   6.990   3.369   0.690
 2479TIP3    H1 7401   7.027   3.418   0.764
 2479TIP3    H2 7402   6.895   3.377   0.700
 2480TIP3   OH2 7403   7.219   2.584   1.274
 2480TIP3    H1 7404   7.177   2.615   1.354
 2480TIP3    H2 7405   7.305   2.626   1.274
 2481TIP3   OH2 7406   6.646   6.009   5.678
 2481TIP3    H1 7407   6.737   6.037   5.675
 2481TIP3    H2 7408   6.633   5.959   5.598
 2482TIP3   OH2 7409   6.392   1.101   2.876
 2482TIP3    H1 7410   6.475   1.148   2.887
 2482TIP3    H2 7411   6.330   1.150   2.931
 2483TIP3   OH2 7412   0.252   5.466   0.526
 2483TIP3    H1 7413   0.177   5.519   0.500
 2483TIP3    H2 7414   0.233   5.438   0.615
 2484TIP3   OH2 7415   1.543   6.241   3.358
 2484TIP3    H1 7416   1.630   6.279   3.371
 2484TIP3    H2 7417   1.509   6.283   3.279
 2485TIP3   OH2 7418   5.239   5.669   2.093
 2485TIP3    H1 7419   5.299   5.677   2.019
 2485TIP3    H2 7420   5.270   5.734   2.156
 2486TIP3   OH2 7421   0.283   2.582   1.321
 2486TIP3    H1 7422   0.378   2.587   1.334
 2486TIP3    H2 7423   0.247   2.573   1.410
 2487TIP3   OH2 7424   0.603   4.538   4.038
 2487TIP3    H1 7425   0.592   4.546   3.943
 2487TIP3    H2 7426   0.694   4.511   4.050
 2488TIP3   OH2 7427   6.240   5.639   2.587
 2488TIP3    H1 7428   6.167   5.598   2.634
 2488TIP3    H2 7429   6.247   5.590   2.505
 2489TIP3   OH2 7430   5.302   5.907   3.738
 2489TIP3    H1 7431   5.339   5.918   3.825
 2489TIP3    H2 7432   5.368   5.941   3.679
 2490TIP3   OH2 7433   7.218   4.780   4.088
 2490TIP3    H1 7434   7.230   4.875   4.082
 2490TIP3    H2 7435   7.182   4.765   4.175
 2491TIP3   OH2 7436   2.263   1.089   5.159
 2491TIP3    H1 7437   2.314   1.169   5.156
 2491TIP3    H2 7438   2.329   1.019   5.161
 2492TIP3   OH2 7439   1.121   5.286   1.190
 2492TIP3    H1 7440   1.168   5.203   1.182
 2492TIP3    H2 7441   1.094   5.290   1.281
 2493TIP3   OH2 7442   5.147   4.725   5.548
 2493TIP3    H1 7443   5.232   4.695   5.582
 2493TIP3    H2 7444   5.157   4.820   5.539
 2494TIP3   OH2 7445   3.985   2.788   0.139
 2494TIP3    H1 7446   3.954   2.727   0.206
 2494TIP3    H2 7447   3.987   2.736   0.059
 2495TIP3   OH2 7448   0.654   1.946   1.358
 2495TIP3    H1 7449   0.648   2.006   1.432
 2495TIP3    H2 7450   0.747   1.944   1.336
 2496TIP3   OH2 7451   6.874   6.431   4.315
 2496TIP3    H1 7452   6.940   6.500   4.303
 2496TIP3    H2 7453   6.835   6.420   4.228
 2497TIP3   OH2 7454   3.420   6.692   2.887
 2497TIP3    H1 7455   3.481   6.737   2.945
 2497TIP3    H2 7456   3.474   6.666   2.812
 2498TIP3   OH2 7457   7.033   4.349   4.258
 2498TIP3    H1 7458   6.957   4.362   4.315
 2498TIP3    H2 7459   7.005   4.382   4.172
 2499TIP3   OH2 7460   1.142   1.371   2.783
 2499TIP3    H1 7461   1.184   1.453   2.811
 2499TIP3    H2 7462   1.178   1.355   2.696
 2500TIP3   OH2 7463   5.154   6.640   0.855
 2500TIP3    H1 7464   5.172   6.734   0.856
 2500TIP3    H2 7465   5.143   6.619   0.762
 2501TIP3   OH2 7466   6.256   2.125   5.698
 2501TIP3    H1 7467   6.179   2.155   5.746
 2501TIP3    H2 7468   6.235   2.143   5.606
 2502TIP3   OH2 7469   4.443   4.873   1.598
 2502TIP3    H1 7470   4.354   4.878   1.564
 2502TIP3    H2 7471   4.437   4.812   1.672
 2503TIP3   OH2 7472   3.695   2.805   3.927
 2503TIP3    H1 7473   3.753   2.878   3.941
 2503TIP3    H2 7474   3.751   2.737   3.891
 2504TIP3   OH2 7475   2.138   3.649   1.173
 2504TIP3    H1 7476   2.205   3.632   1.239
 2504TIP3    H2 7477   2.123   3.565   1.131
 2505TIP3   OH2 7478   6.716   3.516   2.597
 2505TIP3    H1 7479   6.681   3.529   2.685
 2505TIP3    H2 7480   6.644   3.540   2.539
 2506TIP3   OH2 7481   5.109   4.739   1.725
 2506TIP3    H1 7482   5.069   4.691   1.797
 2506TIP3    H2 7483   5.190   4.773   1.761
 2507TIP3   OH2 7484   3.582   4.539   2.525
 2507TIP3    H1 7485   3.607   4.631   2.519
 2507TIP3    H2 7486   3.660   4.494   2.558
 2508TIP3   OH2 7487   6.967   3.231   0.994
 2508TIP3    H1 7488   6.979   3.200   1.084
 2508TIP3    H2 7489   6.908   3.306   1.002
 2509TIP3   OH2 7490   1.550   0.490   4.673
 2509TIP3    H1 7491   1.645   0.486   4.688
 2509TIP3    H2 7492   1.535   0.577   4.636
 2510TIP3   OH2 7493   1.000   5.894   3.965
 2510TIP3    H1 7494   1.054   5.896   4.044
 2510TIP3    H2 7495   1.062   5.897   3.892
 2511TIP3   OH2 7496   2.010   6.402   1.229
 2511TIP3    H1 7497   2.049   6.358   1.153
 2511TIP3    H2 7498   1.943   6.459   1.192
 2512TIP3   OH2 7499   1.190   3.062   4.366
 2512TIP3    H1 7500   1.233   3.050   4.451
 2512TIP3    H2 7501   1.223   3.146   4.335
 2513TIP3   OH2 7502   7.068   5.414   2.232
 2513TIP3    H1 7503   7.146   5.391   2.283
 2513TIP3    H2 7504   7.015   5.467   2.292
 2514TIP3   OH2 7505   1.345   6.195   1.237
 2514TIP3    H1 7506   1.377   6.143   1.164
 2514TIP3    H2 7507   1.304   6.132   1.296
 2515TIP3   OH2 7508   5.534   5.091   1.139
 2515TIP3    H1 7509   5.590   5.060   1.068
 2515TIP3    H2 7510   5.554   5.034   1.213
 2516TIP3   OH2 7511   2.407   6.060   4.605
 2516TIP3    H1 7512   2.361   6.098   4.530
 2516TIP3    H2 7513   2.453   5.984   4.568
 2517TIP3   OH2 7514   4.122   6.018   0.496
 2517TIP3    H1 7515   4.151   5.972   0.417
 2517TIP3    H2 7516   4.029   6.036   0.481
 2518TIP3   OH2 7517   4.319   3.695   5.062
 2518TIP3    H1 7518   4.385   3.649   5.114
 2518TIP3    H2 7519   4.242   3.637   5.064
 2519TIP3   OH2 7520   0.168   4.796   3.410
 2519TIP3    H1 7521   0.143   4.826   3.323
 2519TIP3    H2 7522   0.262   4.775   3.402
 2520TIP3   OH2 7523   3.420   4.042   4.767
 2520TIP3    H1 7524   3.494   4.009   4.818
 2520TIP3    H2 7525   3.394   4.123   4.812
 2521TIP3   OH2 7526   6.921   3.399   2.320
 2521TIP3    H1 7527   7.002   3.440   2.349
 2521TIP3    H2 7528   6.875   3.467   2.272
 2522TIP3   OH2 7529   0.730   2.395   0.787
 2522TIP3    H1 7530   0.756   2.459   0.852
 2522TIP3    H2 7531   0.636   2.380   0.803
 2523TIP3   OH2 7532   5.947   5.879   5.117
 2523TIP3    H1 7533   5.994   5.813   5.066
 2523TIP3    H2 7534   5.864   5.836   5.141
 2524TIP3   OH2 7535   2.537   2.753   1.591
 2524TIP3    H1 7536   2.625   2.714   1.589
 2524TIP3    H2 7537   2.505   2.738   1.679
 2525TIP3   OH2 7538   4.373   6.656   1.335
 2525TIP3    H1 7539   4.336   6.648   1.247
 2525TIP3    H2 7540   4.299   6.638   1.393
 2526TIP3   OH2 7541   2.358   6.655   3.767
 2526TIP3    H1 7542   2.319   6.739   3.741
 2526TIP3    H2 7543   2.451   6.664   3.747
 2527TIP3   OH2 7544   1.758   3.127   5.667
 2527TIP3    H1 7545   1.669   3.094   5.663
 2527TIP3    H2 7546   1.778   3.132   5.760
 2528TIP3   OH2 7547   2.183   5.547   2.362
 2528TIP3    H1 7548   2.257   5.592   2.322
 2528TIP3    H2 7549   2.177   5.585   2.450
 2529TIP3   OH2 7550   5.706   1.062   2.916
 2529TIP3    H1 7551   5.769   1.117   2.963
 2529TIP3    H2 7552   5.651   1.024   2.985
 2530TIP3   OH2 7553   6.474   2.378   3.776
 2530TIP3    H1 7554   6.548   2.377   3.837
 2530TIP3    H2 7555   6.396   2.381   3.832
 2531TIP3   OH2 7556   1.420   2.355   0.315
 2531TIP3    H1 7557   1.412   2.268   0.275
 2531TIP3    H2 7558   1.336   2.397   0.297
 2532TIP3   OH2 7559   6.515   4.158   5.554
 2532TIP3    H1 7560   6.487   4.071   5.583
 2532TIP3    H2 7561   6.439   4.195   5.510
 2533TIP3   OH2 7562   6.802   6.410   5.270
 2533TIP3    H1 7563   6.736   6.383   5.334
 2533TIP3    H2 7564   6.750   6.437   5.193
 2534TIP3   OH2 7565   5.699   3.828   2.941
 2534TIP3    H1 7566   5.794   3.823   2.940
 2534TIP3    H2 7567   5.678   3.896   2.877
 2535TIP3   OH2 7568   6.792   0.088   4.071
 2535TIP3    H1 7569   6.776   0.180   4.090
 2535TIP3    H2 7570   6.840   0.055   4.147
 2536TIP3   OH2 7571   4.437   3.072   1.621
 2536TIP3    H1 7572   4.344   3.092   1.619
 2536TIP3    H2 7573   4.477   3.138   1.564
 2537TIP3   OH2 7574   3.860   2.743   1.636
 2537TIP3    H1 7575   3.912   2.733   1.715
 2537TIP3    H2 7576   3.818   2.828   1.645
 2538TIP3   OH2 7577   2.202   5.830   4.924
 2538TIP3    H1 7578   2.192   5.796   4.835
 2538TIP3    H2 7579   2.240   5.917   4.913
 2539TIP3   OH2 7580   2.998   4.447   2.499
 2539TIP3    H1 7581   2.932   4.502   2.455
 2539TIP3    H2 7582   2.947   4.388   2.555
 2540TIP3   OH2 7583   0.445   4.833   3.912
 2540TIP3    H1 7584   0.383   4.779   3.960
 2540TIP3    H2 7585   0.514   4.852   3.975
 2541TIP3   OH2 7586   0.695   4.152   4.066
 2541TIP3    H1 7587   0.683   4.069   4.113
 2541TIP3    H2 7588   0.607   4.188   4.059
 2542TIP3   OH2 7589   0.920   3.001   3.500
 2542TIP3    H1 7590   0.940   2.966   3.413
 2542TIP3    H2 7591   0.860   3.074   3.483
 2543TIP3   OH2 7592   2.029   3.710   4.337
 2543TIP3    H1 7593   2.101   3.682   4.394
 2543TIP3    H2 7594   2.040   3.659   4.257
 2544TIP3   OH2 7595   4.038   2.758   2.921
 2544TIP3    H1 7596   4.107   2.706   2.879
 2544TIP3    H2 7597   4.082   2.840   2.945
 2545TIP3   OH2 7598   4.226   6.753   0.561
 2545TIP3    H1 7599   4.300   6.786   0.511
 2545TIP3    H2 7600   4.169   6.713   0.496
 2546TIP3   OH2 7601   1.895   2.294   4.609
 2546TIP3    H1 7602   1.952   2.217   4.603
 2546TIP3    H2 7603   1.847   2.295   4.526
 2547TIP3   OH2 7604   4.194   0.243   1.907
 2547TIP3    H1 7605   4.122   0.187   1.933
 2547TIP3    H2 7606   4.207   0.225   1.814
 2548TIP3   OH2 7607   1.950   2.063   5.667
 2548TIP3    H1 7608   1.956   1.979   5.712
 2548TIP3    H2 7609   2.020   2.060   5.602
 2549TIP3   OH2 7610   3.274   5.535   4.930
 2549TIP3    H1 7611   3.309   5.573   4.850
 2549TIP3    H2 7612   3.182   5.516   4.910
 2550TIP3   OH2 7613   1.610   4.318   3.380
 2550TIP3    H1 7614   1.563   4.235   3.385
 2550TIP3    H2 7615   1.673   4.306   3.309
 2551TIP3   OH2 7616   3.987   3.986   2.963
 2551TIP3    H1 7617   3.970   3.960   2.873
 2551TIP3    H2 7618   4.077   4.018   2.963
 2552TIP3   OH2 7619   1.190   0.667   2.071
 2552TIP3    H1 7620   1.238   0.591   2.038
 2552TIP3    H2 7621   1.142   0.700   1.995
 2553TIP3   OH2 7622   6.910   2.168   0.829
 2553TIP3    H1 7623   6.992   2.123   0.852
 2553TIP3    H2 7624   6.914   2.177   0.734
 2554TIP3   OH2 7625   3.357   4.900   1.489
 2554TIP3    H1 7626   3.373   4.833   1.555
 2554TIP3    H2 7627   3.305   4.966   1.534
 2555TIP3   OH2 7628   0.745   0.502   1.780
 2555TIP3    H1 7629   0.656   0.490   1.748
 2555TIP3    H2 7630   0.798   0.444   1.724
 2556TIP3   OH2 7631   5.397   0.742   4.748
 2556TIP3    H1 7632   5.389   0.822   4.800
 2556TIP3    H2 7633   5.307   0.710   4.740
 2557TIP3   OH2 7634   6.176   6.788   1.212
 2557TIP3    H1 7635   6.127   6.713   1.247
 2557TIP3    H2 7636   6.123   6.818   1.138
 2558TIP3   OH2 7637   0.966   5.625   1.821
 2558TIP3    H1 7638   1.015   5.593   1.897
 2558TIP3    H2 7639   0.998   5.572   1.748
 2559TIP3   OH2 7640   5.250   6.810   3.502
 2559TIP3    H1 7641   5.183   6.771   3.558
 2559TIP3    H2 7642   5.201   6.866   3.441
 2560TIP3   OH2 7643   1.951   4.961   0.897
 2560TIP3    H1 7644   1.925   4.893   0.835
 2560TIP3    H2 7645   2.031   4.999   0.859
 2561TIP3   OH2 7646   0.797   2.633   5.888
 2561TIP3    H1 7647   0.718   2.687   5.891
 2561TIP3    H2 7648   0.818   2.615   5.979
 2562TIP3   OH2 7649   2.256   4.829   0.827
 2562TIP3    H1 7650   2.227   4.806   0.738
 2562TIP3    H2 7651   2.326   4.893   0.813
 2563TIP3   OH2 7652   3.462   2.169   3.156
 2563TIP3    H1 7653   3.427   2.255   3.178
 2563TIP3    H2 7654   3.519   2.184   3.081
 2564TIP3   OH2 7655   6.766   2.495   5.458
 2564TIP3    H1 7656   6.756   2.401   5.444
 2564TIP3    H2 7657   6.719   2.513   5.539
 2565TIP3   OH2 7658   2.449   5.494   0.860
 2565TIP3    H1 7659   2.448   5.460   0.771
 2565TIP3    H2 7660   2.357   5.511   0.880
 2566TIP3   OH2 7661   0.769   0.474   0.436
 2566TIP3    H1 7662   0.725   0.556   0.457
 2566TIP3    H2 7663   0.816   0.492   0.354
 2567TIP3   OH2 7664   7.088   1.340   3.515
 2567TIP3    H1 7665   7.145   1.264   3.523
 2567TIP3    H2 7666   7.008   1.314   3.560
 2568TIP3   OH2 7667   6.652   0.197   0.240
 2568TIP3    H1 7668   6.711   0.202   0.316
 2568TIP3    H2 7669   6.569   0.233   0.272
 2569TIP3   OH2 7670   1.048   4.369   2.537
 2569TIP3    H1 7671   1.136   4.390   2.508
 2569TIP3    H2 7672   1.010   4.453   2.564
 2570TIP3   OH2 7673   3.155   6.634   3.301
 2570TIP3    H1 7674   3.130   6.581   3.225
 2570TIP3    H2 7675   3.081   6.624   3.362
 2571TIP3   OH2 7676   5.785   3.950   0.071
 2571TIP3    H1 7677   5.805   4.031   0.119
 2571TIP3    H2 7678   5.869   3.903   0.067
 2572TIP3   OH2 7679   4.197   5.701   3.625
 2572TIP3    H1 7680   4.130   5.756   3.585
 2572TIP3    H2 7681   4.240   5.758   3.689
 2573TIP3   OH2 7682   2.412   6.603   5.129
 2573TIP3    H1 7683   2.439   6.589   5.219
 2573TIP3    H2 7684   2.464   6.676   5.098
 2574TIP3   OH2 7685   1.769   2.794   2.534
 2574TIP3    H1 7686   1.786   2.885   2.507
 2574TIP3    H2 7687   1.699   2.802   2.599
 2575TIP3   OH2 7688   3.721   3.329   4.513
 2575TIP3    H1 7689   3.638   3.357   4.551
 2575TIP3    H2 7690   3.776   3.408   4.514
 2576TIP3   OH2 7691   0.944   1.238   4.948
 2576TIP3    H1 7692   0.879   1.309   4.945
 2576TIP3    H2 7693   1.023   1.276   4.909
 2577TIP3   OH2 7694   3.250   0.569   3.285
 2577TIP3    H1 7695   3.317   0.544   3.222
 2577TIP3    H2 7696   3.214   0.651   3.251
 2578TIP3   OH2 7697   3.569   5.907   5.317
 2578TIP3    H1 7698   3.488   5.880   5.274
 2578TIP3    H2 7699   3.543   5.980   5.373
 2579TIP3   OH2 7700   2.579   3.566   4.266
 2579TIP3    H1 7701   2.671   3.546   4.246
 2579TIP3    H2 7702   2.583   3.623   4.342
 2580TIP3   OH2 7703   6.894   4.847   2.211
 2580TIP3    H1 7704   6.843   4.905   2.155
 2580TIP3    H2 7705   6.844   4.842   2.293
 2581TIP3   OH2 7706   1.203   0.775   1.762
 2581TIP3    H1 7707   1.109   0.763   1.776
 2581TIP3    H2 7708   1.239   0.687   1.768
 2582TIP3   OH2 7709   5.833   4.802   4.240
 2582TIP3    H1 7710   5.802   4.756   4.162
 2582TIP3    H2 7711   5.757   4.803   4.298
 2583TIP3   OH2 7712   6.911   2.381   4.980
 2583TIP3    H1 7713   6.850   2.314   4.951
 2583TIP3    H2 7714   6.988   2.333   5.011
 2584TIP3   OH2 7715   3.116   3.424   4.542
 2584TIP3    H1 7716   3.205   3.454   4.558
 2584TIP3    H2 7717   3.109   3.342   4.591
 2585TIP3   OH2 7718   6.870   3.876   2.542
 2585TIP3    H1 7719   6.801   3.930   2.580
 2585TIP3    H2 7720   6.825   3.820   2.479
 2586TIP3   OH2 7721   3.801   6.755   2.058
 2586TIP3    H1 7722   3.842   6.825   2.108
 2586TIP3    H2 7723   3.873   6.700   2.028
 2587TIP3   OH2 7724   7.032   3.857   5.723
 2587TIP3    H1 7725   7.093   3.811   5.666
 2587TIP3    H2 7726   7.001   3.930   5.671
 2588TIP3   OH2 7727   2.585   0.531   3.641
 2588TIP3    H1 7728   2.555   0.572   3.560
 2588TIP3    H2 7729   2.560   0.439   3.631
 2589TIP3   OH2 7730   6.072   4.576   2.447
 2589TIP3    H1 7731   6.124   4.512   2.494
 2589TIP3    H2 7732   6.136   4.635   2.407
 2590TIP3   OH2 7733   5.270   2.049   3.743
 2590TIP3    H1 7734   5.193   2.050   3.686
 2590TIP3    H2 7735   5.343   2.028   3.683
 2591TIP3   OH2 7736   1.317   0.024   4.263
 2591TIP3    H1 7737   1.307  -0.058   4.312
 2591TIP3    H2 7738   1.238   0.030   4.210
 2592TIP3   OH2 7739   0.052   3.147   3.264
 2592TIP3    H1 7740   0.063   3.054   3.285
 2592TIP3    H2 7741   0.092   3.193   3.338
 2593TIP3   OH2 7742   6.711   1.144   0.851
 2593TIP3    H1 7743   6.681   1.224   0.895
 2593TIP3    H2 7744   6.782   1.112   0.906
 2594TIP3   OH2 7745   5.647   3.624   1.099
 2594TIP3    H1 7746   5.694   3.606   1.018
 2594TIP3    H2 7747   5.663   3.717   1.116
 2595TIP3   OH2 7748   3.420   4.507   5.487
 2595TIP3    H1 7749   3.408   4.498   5.392
 2595TIP3    H2 7750   3.388   4.595   5.507
 2596TIP3   OH2 7751   2.851   1.474   2.641
 2596TIP3    H1 7752   2.765   1.449   2.605
 2596TIP3    H2 7753   2.892   1.524   2.570
 2597TIP3   OH2 7754   3.855   5.842   3.060
 2597TIP3    H1 7755   3.889   5.921   3.019
 2597TIP3    H2 7756   3.929   5.804   3.106
 2598TIP3   OH2 7757   3.625   1.927   4.765
 2598TIP3    H1 7758   3.596   1.939   4.674
 2598TIP3    H2 7759   3.544   1.931   4.816
 2599TIP3   OH2 7760   0.283   4.178   0.440
 2599TIP3    H1 7761   0.210   4.121   0.464
 2599TIP3    H2 7762   0.313   4.215   0.523
 2600TIP3   OH2 7763   5.670   0.789   0.746
 2600TIP3    H1 7764   5.677   0.875   0.790
 2600TIP3    H2 7765   5.580   0.761   0.764
 2601TIP3   OH2 7766   0.031   4.259   4.381
 2601TIP3    H1 7767  -0.046   4.269   4.324
 2601TIP3    H2 7768   0.011   4.184   4.436
 2602TIP3   OH2 7769   2.531   1.625   2.116
 2602TIP3    H1 7770   2.556   1.643   2.206
 2602TIP3    H2 7771   2.602   1.571   2.081
 2603TIP3   OH2 7772   4.841   5.074   5.820
 2603TIP3    H1 7773   4.820   5.036   5.905
 2603TIP3    H2 7774   4.875   5.001   5.768
 2604TIP3   OH2 7775   4.383   4.456   0.266
 2604TIP3    H1 7776   4.322   4.500   0.325
 2604TIP3    H2 7777   4.399   4.371   0.308
 2605TIP3   OH2 7778   5.432   5.395   2.877
 2605TIP3    H1 7779   5.339   5.397   2.853
 2605TIP3    H2 7780   5.447   5.478   2.922
 2606TIP3   OH2 7781   3.256   2.982   0.267
 2606TIP3    H1 7782   3.272   3.071   0.299
 2606TIP3    H2 7783   3.193   2.993   0.196
 2607TIP3   OH2 7784   1.723   3.040   2.134
 2607TIP3    H1 7785   1.777   3.035   2.212
 2607TIP3    H2 7786   1.687   3.128   2.135
 2608TIP3   OH2 7787   7.161   0.395   5.268
 2608TIP3    H1 7788   7.164   0.470   5.327
 2608TIP3    H2 7789   7.109   0.425   5.194
 2609TIP3   OH2 7790   0.018   2.092   1.407
 2609TIP3    H1 7791  -0.076   2.075   1.411
 2609TIP3    H2 7792   0.025   2.177   1.362
 2610TIP3   OH2 7793   2.720   1.106   2.814
 2610TIP3    H1 7794   2.716   1.126   2.907
 2610TIP3    H2 7795   2.812   1.118   2.791
 2611TIP3   OH2 7796   4.563   4.344   0.901
 2611TIP3    H1 7797   4.522   4.335   0.815
 2611TIP3    H2 7798   4.624   4.270   0.906
 2612TIP3   OH2 7799   0.113   4.201   1.065
 2612TIP3    H1 7800   0.112   4.265   0.994
 2612TIP3    H2 7801   0.184   4.140   1.041
 2613TIP3   OH2 7802   0.319   2.192   5.680
 2613TIP3    H1 7803   0.233   2.194   5.638
 2613TIP3    H2 7804   0.304   2.145   5.762
 2614TIP3   OH2 7805   0.790   2.562   2.626
 2614TIP3    H1 7806   0.844   2.485   2.630
 2614TIP3    H2 7807   0.807   2.608   2.709
 2615TIP3   OH2 7808   0.898   3.889   0.240
 2615TIP3    H1 7809   0.928   3.824   0.177
 2615TIP3    H2 7810   0.922   3.854   0.325
 2616TIP3   OH2 7811   6.911   4.287   5.813
 2616TIP3    H1 7812   6.991   4.235   5.809
 2616TIP3    H2 7813   6.936   4.371   5.775
 2617TIP3   OH2 7814   6.926   0.283   3.373
 2617TIP3    H1 7815   6.908   0.212   3.433
 2617TIP3    H2 7816   7.005   0.255   3.325
 2618TIP3   OH2 7817   3.937   2.908   1.844
 2618TIP3    H1 7818   3.988   2.988   1.847
 2618TIP3    H2 7819   3.850   2.934   1.873
 2619TIP3   OH2 7820   6.418   0.841   2.943
 2619TIP3    H1 7821   6.332   0.799   2.950
 2619TIP3    H2 7822   6.399   0.934   2.931
 2620TIP3   OH2 7823   0.830   1.031   1.138
 2620TIP3    H1 7824   0.773   1.072   1.073
 2620TIP3    H2 7825   0.858   0.949   1.097
 2621TIP3   OH2 7826   5.673   2.908   4.571
 2621TIP3    H1 7827   5.750   2.870   4.529
 2621TIP3    H2 7828   5.694   2.910   4.664
 2622TIP3   OH2 7829   0.625   2.466   1.193
 2622TIP3    H1 7830   0.640   2.499   1.104
 2622TIP3    H2 7831   0.693   2.400   1.205
 2623TIP3   OH2 7832   1.537   4.001   2.459
 2623TIP3    H1 7833   1.475   3.945   2.506
 2623TIP3    H2 7834   1.505   4.001   2.368
 2624TIP3   OH2 7835   2.961   0.556   3.165
 2624TIP3    H1 7836   2.921   0.635   3.130
 2624TIP3    H2 7837   3.051   0.581   3.185
 2625TIP3   OH2 7838   5.932   6.798   3.925
 2625TIP3    H1 7839   5.993   6.848   3.871
 2625TIP3    H2 7840   5.979   6.718   3.947
 2626TIP3   OH2 7841   2.521   0.696   1.772
 2626TIP3    H1 7842   2.462   0.743   1.713
 2626TIP3    H2 7843   2.528   0.752   1.849
 2627TIP3   OH2 7844   0.545   5.830   1.752
 2627TIP3    H1 7845   0.641   5.830   1.751
 2627TIP3    H2 7846   0.523   5.770   1.824
 2628TIP3   OH2 7847   4.850   0.890   4.670
 2628TIP3    H1 7848   4.865   0.975   4.629
 2628TIP3    H2 7849   4.761   0.866   4.643
 2629TIP3   OH2 7850   1.966   5.980   0.213
 2629TIP3    H1 7851   1.982   6.041   0.142
 2629TIP3    H2 7852   1.955   6.035   0.291
 2630TIP3   OH2 7853   2.128   2.298   4.859
 2630TIP3    H1 7854   2.158   2.216   4.819
 2630TIP3    H2 7855   2.157   2.293   4.950
 2631TIP3   OH2 7856   1.304   6.027   0.980
 2631TIP3    H1 7857   1.287   5.956   1.042
 2631TIP3    H2 7858   1.277   5.993   0.895
 2632TIP3   OH2 7859   5.793   4.035   3.306
 2632TIP3    H1 7860   5.784   4.128   3.328
 2632TIP3    H2 7861   5.717   4.017   3.250
 2633TIP3   OH2 7862   6.289   0.032   4.795
 2633TIP3    H1 7863   6.292   0.091   4.720
 2633TIP3    H2 7864   6.198   0.033   4.823
 2634TIP3   OH2 7865   4.412   5.226   5.590
 2634TIP3    H1 7866   4.479   5.243   5.523
 2634TIP3    H2 7867   4.331   5.260   5.552
 2635TIP3   OH2 7868   2.474   2.948   0.103
 2635TIP3    H1 7869   2.461   2.967   0.010
 2635TIP3    H2 7870   2.510   3.028   0.139
 2636TIP3   OH2 7871   6.237   0.927   3.649
 2636TIP3    H1 7872   6.235   1.002   3.709
 2636TIP3    H2 7873   6.323   0.887   3.665
 2637TIP3   OH2 7874   3.676   0.867   3.680
 2637TIP3    H1 7875   3.764   0.888   3.712
 2637TIP3    H2 7876   3.618   0.918   3.736
 2638TIP3   OH2 7877   3.480   4.595   0.312
 2638TIP3    H1 7878   3.492   4.502   0.292
 2638TIP3    H2 7879   3.500   4.640   0.230
 2639TIP3   OH2 7880   2.532   2.635   3.798
 2639TIP3    H1 7881   2.529   2.730   3.809
 2639TIP3    H2 7882   2.441   2.607   3.801
 2640TIP3   OH2 7883   2.346   6.799   5.649
 2640TIP3    H1 7884   2.303   6.766   5.728
 2640TIP3    H2 7885   2.435   6.763   5.654
 2641TIP3   OH2 7886   1.613   0.594   5.406
 2641TIP3    H1 7887   1.676   0.570   5.338
 2641TIP3    H2 7888   1.656   0.569   5.488
 2642TIP3   OH2 7889   1.007   3.131   2.130
 2642TIP3    H1 7890   0.963   3.047   2.113
 2642TIP3    H2 7891   1.083   3.130   2.072
 2643TIP3   OH2 7892   3.910   0.046   2.272
 2643TIP3    H1 7893   3.918  -0.048   2.253
 2643TIP3    H2 7894   3.955   0.057   2.356
 2644TIP3   OH2 7895   6.615   5.229   0.881
 2644TIP3    H1 7896   6.684   5.285   0.847
 2644TIP3    H2 7897   6.594   5.170   0.809
 2645TIP3   OH2 7898   5.050   1.588   2.116
 2645TIP3    H1 7899   5.036   1.589   2.022
 2645TIP3    H2 7900   5.108   1.513   2.131
 2646TIP3   OH2 7901   4.344   0.849   1.079
 2646TIP3    H1 7902   4.301   0.799   1.009
 2646TIP3    H2 7903   4.277   0.861   1.146
 2647TIP3   OH2 7904   6.221   6.782   5.776
 2647TIP3    H1 7905   6.283   6.747   5.840
 2647TIP3    H2 7906   6.209   6.873   5.802
 2648TIP3   OH2 7907   5.887   4.696   1.215
 2648TIP3    H1 7908   5.906   4.753   1.289
 2648TIP3    H2 7909   5.934   4.737   1.141
 2649TIP3   OH2 7910   4.480   6.679   2.487
 2649TIP3    H1 7911   4.435   6.752   2.531
 2649TIP3    H2 7912   4.558   6.664   2.540
 2650TIP3   OH2 7913   6.513   6.587   5.438
 2650TIP3    H1 7914   6.504   6.668   5.487
 2650TIP3    H2 7915   6.446   6.592   5.369
 2651TIP3   OH2 7916   0.554   0.116   3.983
 2651TIP3    H1 7917   0.595   0.039   3.944
 2651TIP3    H2 7918   0.501   0.082   4.054
 2652TIP3   OH2 7919   4.811   5.223   2.476
 2652TIP3    H1 7920   4.789   5.276   2.552
 2652TIP3    H2 7921   4.905   5.209   2.483
 2653TIP3   OH2 7922   0.117   6.503   0.707
 2653TIP3    H1 7923   0.114   6.473   0.797
 2653TIP3    H2 7924   0.026   6.518   0.683
 2654TIP3   OH2 7925   3.108   6.526   0.401
 2654TIP3    H1 7926   3.196   6.489   0.410
 2654TIP3    H2 7927   3.049   6.454   0.426
 2655TIP3   OH2 7928   6.005   2.282   2.498
 2655TIP3    H1 7929   5.937   2.349   2.504
 2655TIP3    H2 7930   6.011   2.262   2.405
 2656TIP3   OH2 7931   6.966   1.418   0.062
 2656TIP3    H1 7932   6.924   1.503   0.075
 2656TIP3    H2 7933   6.933   1.387  -0.022
 2657TIP3   OH2 7934   0.993   3.666   0.055
 2657TIP3    H1 7935   0.901   3.647   0.037
 2657TIP3    H2 7936   1.041   3.598   0.007
 2658TIP3   OH2 7937   1.681   0.512   5.672
 2658TIP3    H1 7938   1.661   0.429   5.714
 2658TIP3    H2 7939   1.672   0.577   5.741
 2659TIP3   OH2 7940   6.615  -0.001   3.212
 2659TIP3    H1 7941   6.580   0.078   3.171
 2659TIP3    H2 7942   6.611   0.018   3.306
 2660TIP3   OH2 7943   2.219   1.927   0.588
 2660TIP3    H1 7944   2.172   1.927   0.505
 2660TIP3    H2 7945   2.246   1.836   0.600
 2661TIP3   OH2 7946   7.189   0.041   5.040
 2661TIP3    H1 7947   7.127   0.025   5.111
 2661TIP3    H2 7948   7.151   0.114   4.991
 2662TIP3   OH2 7949   6.147   3.809   4.766
 2662TIP3    H1 7950   6.202   3.783   4.692
 2662TIP3    H2 7951   6.059   3.816   4.730
 2663TIP3   OH2 7952   5.474   3.773   3.058
 2663TIP3    H1 7953   5.412   3.842   3.083
 2663TIP3    H2 7954   5.555   3.820   3.037
 2664TIP3   OH2 7955   7.046   5.587   5.236
 2664TIP3    H1 7956   7.069   5.640   5.311
 2664TIP3    H2 7957   7.122   5.532   5.220
 2665TIP3   OH2 7958   6.398   2.404   1.045
 2665TIP3    H1 7959   6.433   2.423   0.958
 2665TIP3    H2 7960   6.398   2.489   1.089
 2666TIP3   OH2 7961   2.783   5.212   0.931
 2666TIP3    H1 7962   2.837   5.134   0.926
 2666TIP3    H2 7963   2.846   5.284   0.938
 2667TIP3   OH2 7964   2.138   6.204   5.398
 2667TIP3    H1 7965   2.069   6.137   5.405
 2667TIP3    H2 7966   2.185   6.181   5.319
 2668TIP3   OH2 7967   1.427   2.408   4.022
 2668TIP3    H1 7968   1.367   2.467   4.069
 2668TIP3    H2 7969   1.514   2.440   4.045
 2669TIP3   OH2 7970   1.590   4.656   0.881
 2669TIP3    H1 7971   1.574   4.620   0.794
 2669TIP3    H2 7972   1.530   4.731   0.887
 2670TIP3   OH2 7973   3.098   1.974   2.536
 2670TIP3    H1 7974   3.136   1.904   2.484
 2670TIP3    H2 7975   3.170   2.035   2.552
 2671TIP3   OH2 7976   4.664   0.337   4.574
 2671TIP3    H1 7977   4.634   0.279   4.644
 2671TIP3    H2 7978   4.693   0.416   4.620
 2672TIP3   OH2 7979   6.709   1.582   0.044
 2672TIP3    H1 7980   6.634   1.564   0.100
 2672TIP3    H2 7981   6.747   1.663   0.079
 2673TIP3   OH2 7982   3.618   2.948   1.680
 2673TIP3    H1 7983   3.631   3.025   1.626
 2673TIP3    H2 7984   3.540   2.906   1.643
 2674TIP3   OH2 7985   4.185   2.199   3.284
 2674TIP3    H1 7986   4.214   2.280   3.327
 2674TIP3    H2 7987   4.260   2.173   3.230
 2675TIP3   OH2 7988   5.629   3.964   5.256
 2675TIP3    H1 7989   5.720   3.947   5.278
 2675TIP3    H2 7990   5.624   4.058   5.242
 2676TIP3   OH2 7991   1.877   0.780   2.297
 2676TIP3    H1 7992   1.798   0.726   2.307
 2676TIP3    H2 7993   1.844   0.866   2.271
 2677TIP3   OH2 7994   6.152   4.490   1.433
 2677TIP3    H1 7995   6.232   4.449   1.400
 2677TIP3    H2 7996   6.150   4.470   1.526
 2678TIP3   OH2 7997   1.150   5.577   3.705
 2678TIP3    H1 7998   1.109   5.570   3.619
 2678TIP3    H2 7999   1.162   5.671   3.718
 2679TIP3   OH2 8000   2.571   6.290   5.354
 2679TIP3    H1 8001   2.659   6.274   5.386
 2679TIP3    H2 8002   2.525   6.207   5.365
 2680TIP3   OH2 8003   0.908   0.692   4.999
 2680TIP3    H1 8004   0.937   0.783   5.004
 2680TIP3    H2 8005   0.813   0.696   5.007
 2681TIP3   OH2 8006   2.841   6.153   1.625
 2681TIP3    H1 8007   2.924   6.169   1.672
 2681TIP3    H2 8008   2.812   6.068   1.657
 2682TIP3   OH2 8009   0.415   5.018   2.674
 2682TIP3    H1 8010   0.441   4.926   2.668
 2682TIP3    H2 8011   0.493   5.066   2.646
 2683TIP3   OH2 8012   0.049   0.500   2.011
 2683TIP3    H1 8013   0.028   0.592   2.025
 2683TIP3    H2 8014   0.125   0.485   2.068
 2684TIP3   OH2 8015   6.191   0.909   5.665
 2684TIP3    H1 8016   6.132   0.947   5.600
 2684TIP3    H2 8017   6.217   0.825   5.628
 2685TIP3   OH2 8018   3.815   5.971   4.537
 2685TIP3    H1 8019   3.835   5.992   4.446
 2685TIP3    H2 8020   3.897   5.940   4.573
 2686TIP3   OH2 8021   1.771   1.856   0.335
 2686TIP3    H1 8022   1.731   1.941   0.318
 2686TIP3    H2 8023   1.798   1.859   0.426
 2687TIP3   OH2 8024   1.261   6.751   3.473
 2687TIP3    H1 8025   1.315   6.703   3.411
 2687TIP3    H2 8026   1.171   6.729   3.449
 2688TIP3   OH2 8027   0.660   2.865   3.948
 2688TIP3    H1 8028   0.741   2.909   3.920
 2688TIP3    H2 8029   0.668   2.777   3.914
 2689TIP3   OH2 8030   4.332   1.467   4.999
 2689TIP3    H1 8031   4.299   1.394   5.051
 2689TIP3    H2 8032   4.285   1.543   5.033
 2690TIP3   OH2 8033   3.065   5.520   4.229
 2690TIP3    H1 8034   3.024   5.589   4.177
 2690TIP3    H2 8035   3.146   5.499   4.182
 2691TIP3   OH2 8036   4.045   1.868   4.924
 2691TIP3    H1 8037   4.007   1.943   4.879
 2691TIP3    H2 8038   3.989   1.794   4.900
 2692TIP3   OH2 8039   1.246   3.057   0.822
 2692TIP3    H1 8040   1.300   3.120   0.869
 2692TIP3    H2 8041   1.235   3.095   0.735
 2693TIP3   OH2 8042   2.906   1.792   5.445
 2693TIP3    H1 8043   2.952   1.859   5.394
 2693TIP3    H2 8044   2.963   1.715   5.440
 2694TIP3   OH2 8045   6.498   4.833   5.457
 2694TIP3    H1 8046   6.509   4.830   5.362
 2694TIP3    H2 8047   6.546   4.756   5.489
 2695TIP3   OH2 8048   2.050   0.071   3.703
 2695TIP3    H1 8049   2.022   0.003   3.765
 2695TIP3    H2 8050   2.029   0.034   3.617
 2696TIP3   OH2 8051   3.148   1.357   1.113
 2696TIP3    H1 8052   3.181   1.376   1.025
 2696TIP3    H2 8053   3.216   1.302   1.152
 2697TIP3   OH2 8054   2.342   4.761   2.876
 2697TIP3    H1 8055   2.426   4.744   2.919
 2697TIP3    H2 8056   2.329   4.686   2.818
 2698TIP3   OH2 8057   2.048   2.333   5.345
 2698TIP3    H1 8058   2.020   2.256   5.395
 2698TIP3    H2 8059   1.969   2.388   5.341
 2699TIP3   OH2 8060   6.147   5.349   5.617
 2699TIP3    H1 8061   6.238   5.320   5.618
 2699TIP3    H2 8062   6.103   5.290   5.556
 2700TIP3   OH2 8063   2.985   4.216   3.971
 2700TIP3    H1 8064   3.047   4.282   3.940
 2700TIP3    H2 8065   3.038   4.137   3.983
 2701TIP3   OH2 8066   2.308   3.237   3.961
 2701TIP3    H1 8067   2.382   3.286   3.995
 2701TIP3    H2 8068   2.315   3.152   4.005
 2702TIP3   OH2 8069   7.185   2.674   1.878
 2702TIP3    H1 8070   7.141   2.599   1.840
 2702TIP3    H2 8071   7.218   2.643   1.962
 2703TIP3   OH2 8072   4.147   1.508   3.273
 2703TIP3    H1 8073   4.102   1.468   3.199
 2703TIP3    H2 8074   4.239   1.512   3.245
 2704TIP3   OH2 8075   1.686   6.702   5.803
 2704TIP3    H1 8076   1.744   6.667   5.870
 2704TIP3    H2 8077   1.621   6.753   5.852
 2705TIP3   OH2 8078   6.831   3.432   4.377
 2705TIP3    H1 8079   6.905   3.466   4.326
 2705TIP3    H2 8080   6.828   3.489   4.454
 2706TIP3   OH2 8081   0.154   1.979   3.970
 2706TIP3    H1 8082   0.107   2.050   4.015
 2706TIP3    H2 8083   0.109   1.899   3.998
 2707TIP3   OH2 8084   5.476   4.290   4.478
 2707TIP3    H1 8085   5.537   4.267   4.548
 2707TIP3    H2 8086   5.389   4.269   4.513
 2708TIP3   OH2 8087   0.096   1.551   2.142
 2708TIP3    H1 8088   0.050   1.633   2.158
 2708TIP3    H2 8089   0.029   1.483   2.155
 2709TIP3   OH2 8090   3.623   5.502   4.092
 2709TIP3    H1 8091   3.675   5.576   4.123
 2709TIP3    H2 8092   3.562   5.485   4.163
 2710TIP3   OH2 8093   0.800   1.425   3.925
 2710TIP3    H1 8094   0.763   1.349   3.881
 2710TIP3    H2 8095   0.851   1.470   3.857
 2711TIP3   OH2 8096   1.702   6.662   3.239
 2711TIP3    H1 8097   1.711   6.594   3.305
 2711TIP3    H2 8098   1.608   6.682   3.237
 2712TIP3   OH2 8099   4.681   5.477   3.895
 2712TIP3    H1 8100   4.629   5.396   3.892
 2712TIP3    H2 8101   4.702   5.490   3.987
 2713TIP3   OH2 8102   0.721   5.845   2.888
 2713TIP3    H1 8103   0.660   5.915   2.912
 2713TIP3    H2 8104   0.742   5.861   2.796
 2714TIP3   OH2 8105   7.130   4.758   3.559
 2714TIP3    H1 8106   7.214   4.772   3.516
 2714TIP3    H2 8107   7.152   4.729   3.647
 2715TIP3   OH2 8108   5.710   3.317   2.710
 2715TIP3    H1 8109   5.628   3.355   2.739
 2715TIP3    H2 8110   5.776   3.383   2.730
 2716TIP3   OH2 8111   2.715   3.073   0.604
 2716TIP3    H1 8112   2.633   3.023   0.599
 2716TIP3    H2 8113   2.777   3.011   0.644
 2717TIP3   OH2 8114   5.281   4.881   2.797
 2717TIP3    H1 8115   5.217   4.859   2.865
 2717TIP3    H2 8116   5.260   4.972   2.774
 2718TIP3   OH2 8117   4.713   6.072   3.010
 2718TIP3    H1 8118   4.760   5.997   3.044
 2718TIP3    H2 8119   4.779   6.125   2.966
 2719TIP3   OH2 8120   5.670   0.427   3.837
 2719TIP3    H1 8121   5.729   0.432   3.762
 2719TIP3    H2 8122   5.681   0.337   3.870
 2720TIP3   OH2 8123   0.823   2.116   1.061
 2720TIP3    H1 8124   0.845   2.181   1.129
 2720TIP3    H2 8125   0.855   2.033   1.096
 2721TIP3   OH2 8126   3.443   1.088   0.814
 2721TIP3    H1 8127   3.424   1.095   0.720
 2721TIP3    H2 8128   3.498   1.164   0.833
 2722TIP3   OH2 8129   1.815   3.969   2.404
 2722TIP3    H1 8130   1.865   3.930   2.476
 2722TIP3    H2 8131   1.724   3.969   2.435
 2723TIP3   OH2 8132   6.322   6.046   1.302
 2723TIP3    H1 8133   6.252   5.983   1.283
 2723TIP3    H2 8134   6.399   6.012   1.257
 2724TIP3   OH2 8135   4.378   5.484   2.309
 2724TIP3    H1 8136   4.373   5.579   2.305
 2724TIP3    H2 8137   4.471   5.465   2.301
 2725TIP3   OH2 8138   0.195   1.217   3.466
 2725TIP3    H1 8139   0.258   1.152   3.435
 2725TIP3    H2 8140   0.133   1.167   3.518
 2726TIP3   OH2 8141   3.440   2.299   1.962
 2726TIP3    H1 8142   3.416   2.377   2.013
 2726TIP3    H2 8143   3.532   2.284   1.985
 2727TIP3   OH2 8144   2.745   4.126   5.704
 2727TIP3    H1 8145   2.803   4.085   5.640
 2727TIP3    H2 8146   2.763   4.220   5.698
 2728TIP3   OH2 8147   3.888   3.983   3.329
 2728TIP3    H1 8148   3.818   3.976   3.264
 2728TIP3    H2 8149   3.910   4.077   3.330
 2729TIP3   OH2 8150   4.828   1.949   2.282
 2729TIP3    H1 8151   4.845   1.953   2.376
 2729TIP3    H2 8152   4.859   2.034   2.249
 2730TIP3   OH2 8153   3.182   1.095   2.192
 2730TIP3    H1 8154   3.207   1.188   2.194
 2730TIP3    H2 8155   3.195   1.069   2.101
 2731TIP3   OH2 8156   0.276   1.453   3.676
 2731TIP3    H1 8157   0.320   1.374   3.644
 2731TIP3    H2 8158   0.261   1.506   3.597
 2732TIP3   OH2 8159   1.648   4.966   2.217
 2732TIP3    H1 8160   1.720   4.909   2.190
 2732TIP3    H2 8161   1.675   5.054   2.190
 2733TIP3   OH2 8162   5.889   6.113   2.390
 2733TIP3    H1 8163   5.814   6.139   2.336
 2733TIP3    H2 8164   5.949   6.187   2.383
 2734TIP3   OH2 8165   0.685   5.610   3.353
 2734TIP3    H1 8166   0.714   5.659   3.276
 2734TIP3    H2 8167   0.622   5.669   3.396
 2735TIP3   OH2 8168   6.802   2.077   4.330
 2735TIP3    H1 8169   6.832   2.035   4.411
 2735TIP3    H2 8170   6.824   2.170   4.342
 2736TIP3   OH2 8171   3.556   3.058   2.682
 2736TIP3    H1 8172   3.466   3.079   2.657
 2736TIP3    H2 8173   3.555   2.963   2.696
 2737TIP3   OH2 8174   2.865   1.237   0.994
 2737TIP3    H1 8175   2.947   1.199   1.026
 2737TIP3    H2 8176   2.844   1.304   1.059
 2738TIP3   OH2 8177   2.357   3.499   5.742
 2738TIP3    H1 8178   2.447   3.506   5.774
 2738TIP3    H2 8179   2.354   3.556   5.665
 2739TIP3   OH2 8180   5.555   2.352   2.982
 2739TIP3    H1 8181   5.604   2.337   2.901
 2739TIP3    H2 8182   5.497   2.427   2.961
 2740TIP3   OH2 8183   1.293   3.536   4.164
 2740TIP3    H1 8184   1.383   3.567   4.168
 2740TIP3    H2 8185   1.271   3.513   4.254
 2741TIP3   OH2 8186   5.616   5.789   2.652
 2741TIP3    H1 8187   5.641   5.826   2.567
 2741TIP3    H2 8188   5.525   5.817   2.663
 2742TIP3   OH2 8189   4.866   0.214   2.218
 2742TIP3    H1 8190   4.777   0.178   2.220
 2742TIP3    H2 8191   4.922   0.139   2.198
 2743TIP3   OH2 8192   2.868   5.790   2.746
 2743TIP3    H1 8193   2.964   5.791   2.752
 2743TIP3    H2 8194   2.850   5.757   2.658
 2744TIP3   OH2 8195   0.839   6.293   2.239
 2744TIP3    H1 8196   0.793   6.368   2.201
 2744TIP3    H2 8197   0.932   6.312   2.227
 2745TIP3   OH2 8198   2.326   5.593   5.272
 2745TIP3    H1 8199   2.246   5.563   5.230
 2745TIP3    H2 8200   2.330   5.687   5.252
 2746TIP3   OH2 8201   1.495   1.209   5.462
 2746TIP3    H1 8202   1.545   1.277   5.415
 2746TIP3    H2 8203   1.408   1.214   5.423
 2747TIP3   OH2 8204   3.501   4.717   2.145
 2747TIP3    H1 8205   3.556   4.710   2.067
 2747TIP3    H2 8206   3.494   4.627   2.177
 2748TIP3   OH2 8207   1.116   4.843   1.832
 2748TIP3    H1 8208   1.041   4.892   1.799
 2748TIP3    H2 8209   1.078   4.764   1.871
 2749TIP3   OH2 8210   6.967   2.500   1.162
 2749TIP3    H1 8211   6.906   2.551   1.215
 2749TIP3    H2 8212   7.053   2.519   1.199
 2750TIP3   OH2 8213   5.537   5.026   4.497
 2750TIP3    H1 8214   5.442   5.015   4.505
 2750TIP3    H2 8215   5.565   4.952   4.442
 2751TIP3   OH2 8216   6.526   6.768   1.944
 2751TIP3    H1 8217   6.528   6.689   1.889
 2751TIP3    H2 8218   6.434   6.792   1.948
 2752TIP3   OH2 8219   0.523   3.793   4.396
 2752TIP3    H1 8220   0.469   3.729   4.350
 2752TIP3    H2 8221   0.460   3.849   4.442
 2753TIP3   OH2 8222   7.223   0.783   2.066
 2753TIP3    H1 8223   7.299   0.822   2.108
 2753TIP3    H2 8224   7.158   0.774   2.135
 2754TIP3   OH2 8225   1.114   6.641   1.500
 2754TIP3    H1 8226   1.078   6.709   1.444
 2754TIP3    H2 8227   1.202   6.625   1.465
 2755TIP3   OH2 8228   5.191   4.505   2.388
 2755TIP3    H1 8229   5.190   4.522   2.293
 2755TIP3    H2 8230   5.114   4.450   2.402
 2756TIP3   OH2 8231   6.548   5.142   3.863
 2756TIP3    H1 8232   6.562   5.057   3.905
 2756TIP3    H2 8233   6.605   5.202   3.911
 2757TIP3   OH2 8234   1.327   0.019   2.989
 2757TIP3    H1 8235   1.390   0.073   2.941
 2757TIP3    H2 8236   1.372  -0.003   3.071
 2758TIP3   OH2 8237   5.335   1.859   3.943
 2758TIP3    H1 8238   5.423   1.875   3.977
 2758TIP3    H2 8239   5.331   1.910   3.862
 2759TIP3   OH2 8240   4.982   5.717   5.530
 2759TIP3    H1 8241   5.030   5.676   5.458
 2759TIP3    H2 8242   4.924   5.648   5.563
 2760TIP3   OH2 8243   4.028   4.940   5.465
 2760TIP3    H1 8244   4.028   5.008   5.533
 2760TIP3    H2 8245   3.978   4.868   5.504
 2761TIP3   OH2 8246   2.318   6.397   3.154
 2761TIP3    H1 8247   2.319   6.319   3.098
 2761TIP3    H2 8248   2.229   6.431   3.146
 2762TIP3   OH2 8249   2.589   6.263   4.823
 2762TIP3    H1 8250   2.656   6.202   4.793
 2762TIP3    H2 8251   2.578   6.243   4.916
 2763TIP3   OH2 8252   3.335   2.834   2.184
 2763TIP3    H1 8253   3.419   2.877   2.200
 2763TIP3    H2 8254   3.303   2.876   2.104
 2764TIP3   OH2 8255   5.542   3.925   2.709
 2764TIP3    H1 8256   5.515   3.977   2.784
 2764TIP3    H2 8257   5.611   3.978   2.667
 2765TIP3   OH2 8258   2.277   3.606   1.747
 2765TIP3    H1 8259   2.222   3.528   1.753
 2765TIP3    H2 8260   2.293   3.632   1.837
 2766TIP3   OH2 8261   5.009   2.718   4.377
 2766TIP3    H1 8262   4.962   2.771   4.441
 2766TIP3    H2 8263   4.947   2.648   4.354
 2767TIP3   OH2 8264   1.410   5.461   2.825
 2767TIP3    H1 8265   1.322   5.458   2.864
 2767TIP3    H2 8266   1.424   5.553   2.805
 2768TIP3   OH2 8267   2.455   1.320   1.666
 2768TIP3    H1 8268   2.516   1.351   1.600
 2768TIP3    H2 8269   2.510   1.294   1.740
 2769TIP3   OH2 8270   0.574   6.335   2.747
 2769TIP3    H1 8271   0.509   6.403   2.726
 2769TIP3    H2 8272   0.652   6.362   2.699
 2770TIP3   OH2 8273   6.409   6.620   3.876
 2770TIP3    H1 8274   6.444   6.536   3.847
 2770TIP3    H2 8275   6.338   6.639   3.815
 2771TIP3   OH2 8276   1.068   4.777   5.701
 2771TIP3    H1 8277   1.101   4.722   5.773
 2771TIP3    H2 8278   1.128   4.760   5.629
 2772TIP3   OH2 8279   6.040   6.487   1.305
 2772TIP3    H1 8280   5.965   6.442   1.342
 2772TIP3    H2 8281   6.101   6.417   1.282
 2773TIP3   OH2 8282   2.636   4.808   4.806
 2773TIP3    H1 8283   2.646   4.811   4.901
 2773TIP3    H2 8284   2.550   4.846   4.789
 2774TIP3   OH2 8285   0.520   4.264   3.424
 2774TIP3    H1 8286   0.513   4.257   3.519
 2774TIP3    H2 8287   0.543   4.355   3.407
 2775TIP3   OH2 8288   4.260   4.587   0.498
 2775TIP3    H1 8289   4.207   4.527   0.551
 2775TIP3    H2 8290   4.329   4.617   0.557
 2776TIP3   OH2 8291   6.403   4.322   0.388
 2776TIP3    H1 8292   6.424   4.364   0.471
 2776TIP3    H2 8293   6.307   4.325   0.383
 2777TIP3   OH2 8294   6.758   2.839   0.863
 2777TIP3    H1 8295   6.712   2.791   0.794
 2777TIP3    H2 8296   6.704   2.827   0.941
 2778TIP3   OH2 8297   5.077   5.202   2.534
 2778TIP3    H1 8298   5.122   5.287   2.536
 2778TIP3    H2 8299   5.088   5.172   2.444
 2779TIP3   OH2 8300   0.556   1.337   4.680
 2779TIP3    H1 8301   0.522   1.303   4.597
 2779TIP3    H2 8302   0.599   1.419   4.658
 2780TIP3   OH2 8303   1.230   0.615   0.348
 2780TIP3    H1 8304   1.176   0.681   0.392
 2780TIP3    H2 8305   1.319   0.651   0.351
 2781TIP3   OH2 8306   5.706   3.396   3.624
 2781TIP3    H1 8307   5.637   3.382   3.689
 2781TIP3    H2 8308   5.738   3.484   3.642
 2782TIP3   OH2 8309   0.484   6.203   3.133
 2782TIP3    H1 8310   0.560   6.172   3.183
 2782TIP3    H2 8311   0.422   6.232   3.200
 2783TIP3   OH2 8312   3.122   4.286   1.415
 2783TIP3    H1 8313   3.211   4.256   1.398
 2783TIP3    H2 8314   3.100   4.340   1.339
 2784TIP3   OH2 8315   6.395   6.410   5.867
 2784TIP3    H1 8316   6.314   6.395   5.818
 2784TIP3    H2 8317   6.379   6.369   5.952
 2785TIP3   OH2 8318   1.501   3.109   2.563
 2785TIP3    H1 8319   1.472   3.103   2.472
 2785TIP3    H2 8320   1.454   3.185   2.598
 2786TIP3   OH2 8321   7.215   4.203   0.440
 2786TIP3    H1 8322   7.254   4.290   0.431
 2786TIP3    H2 8323   7.122   4.217   0.419
 2787TIP3   OH2 8324   5.103   1.003   0.293
 2787TIP3    H1 8325   5.022   0.958   0.316
 2787TIP3    H2 8326   5.171   0.935   0.297
 2788TIP3   OH2 8327   7.197   3.188   0.859
 2788TIP3    H1 8328   7.171   3.152   0.774
 2788TIP3    H2 8329   7.115   3.196   0.908
 2789TIP3   OH2 8330   1.287   5.197   3.985
 2789TIP3    H1 8331   1.269   5.188   4.079
 2789TIP3    H2 8332   1.207   5.237   3.950
 2790TIP3   OH2 8333   5.478   1.834   3.024
 2790TIP3    H1 8334   5.506   1.894   3.093
 2790TIP3    H2 8335   5.383   1.842   3.022
 2791TIP3   OH2 8336   6.231   0.305   5.091
 2791TIP3    H1 8337   6.241   0.347   5.176
 2791TIP3    H2 8338   6.159   0.243   5.103
 2792TIP3   OH2 8339   6.601   4.461   5.008
 2792TIP3    H1 8340   6.628   4.544   4.970
 2792TIP3    H2 8341   6.577   4.482   5.098
 2793TIP3   OH2 8342   5.047   1.618   4.575
 2793TIP3    H1 8343   5.041   1.623   4.480
 2793TIP3    H2 8344   5.116   1.681   4.598
 2794TIP3   OH2 8345   4.947   6.801   3.230
 2794TIP3    H1 8346   4.923   6.721   3.277
 2794TIP3    H2 8347   4.973   6.862   3.299
 2795TIP3   OH2 8348   5.099   1.037   2.121
 2795TIP3    H1 8349   5.161   0.970   2.094
 2795TIP3    H2 8350   5.130   1.066   2.207
 2796TIP3   OH2 8351   3.024   4.895   2.983
 2796TIP3    H1 8352   3.110   4.937   2.987
 2796TIP3    H2 8353   2.995   4.892   3.074
 2797TIP3   OH2 8354   6.249   5.453   4.264
 2797TIP3    H1 8355   6.230   5.545   4.282
 2797TIP3    H2 8356   6.210   5.437   4.178
 2798TIP3   OH2 8357   0.960   3.874   3.219
 2798TIP3    H1 8358   0.971   3.819   3.296
 2798TIP3    H2 8359   0.980   3.963   3.250
 2799TIP3   OH2 8360   0.023   3.683   3.717
 2799TIP3    H1 8361  -0.058   3.720   3.682
 2799TIP3    H2 8362   0.063   3.639   3.642
 2800TIP3   OH2 8363   3.914   2.370   5.748
 2800TIP3    H1 8364   3.876   2.421   5.677
 2800TIP3    H2 8365   3.981   2.317   5.705
 2801TIP3   OH2 8366   1.981   4.227   5.149
 2801TIP3    H1 8367   1.955   4.302   5.201
 2801TIP3    H2 8368   2.054   4.258   5.096
 2802TIP3   OH2 8369   0.194   4.514   3.883
 2802TIP3    H1 8370   0.218   4.571   3.956
 2802TIP3    H2 8371   0.267   4.453   3.875
 2803TIP3   OH2 8372   3.249   3.296   1.135
 2803TIP3    H1 8373   3.257   3.201   1.137
 2803TIP3    H2 8374   3.339   3.328   1.128
 2804TIP3   OH2 8375   3.947   2.329   3.412
 2804TIP3    H1 8376   3.875   2.269   3.433
 2804TIP3    H2 8377   4.018   2.271   3.384
 2805TIP3   OH2 8378   5.488   1.968   5.230
 2805TIP3    H1 8379   5.564   1.956   5.173
 2805TIP3    H2 8380   5.519   2.026   5.299
 2806TIP3   OH2 8381   5.605   5.805   0.859
 2806TIP3    H1 8382   5.565   5.801   0.946
 2806TIP3    H2 8383   5.584   5.892   0.827
 2807TIP3   OH2 8384   3.915   2.350   1.651
 2807TIP3    H1 8385   3.924   2.423   1.713
 2807TIP3    H2 8386   4.001   2.309   1.650
 2808TIP3   OH2 8387   1.567   2.464   5.619
 2808TIP3    H1 8388   1.543   2.379   5.656
 2808TIP3    H2 8389   1.599   2.443   5.531
 2809TIP3   OH2 8390   6.802   3.447   3.840
 2809TIP3    H1 8391   6.721   3.411   3.874
 2809TIP3    H2 8392   6.820   3.395   3.761
 2810TIP3   OH2 8393   3.714   1.987   2.723
 2810TIP3    H1 8394   3.708   1.903   2.677
 2810TIP3    H2 8395   3.699   2.053   2.655
 2811TIP3   OH2 8396   0.179   5.063   1.513
 2811TIP3    H1 8397   0.143   5.151   1.526
 2811TIP3    H2 8398   0.114   5.005   1.552
 2812TIP3   OH2 8399   2.829   2.070   4.263
 2812TIP3    H1 8400   2.825   2.112   4.177
 2812TIP3    H2 8401   2.817   2.142   4.325
 2813TIP3   OH2 8402   1.091   2.886   4.867
 2813TIP3    H1 8403   1.110   2.868   4.959
 2813TIP3    H2 8404   1.044   2.969   4.867
 2814TIP3   OH2 8405   3.030   0.454   4.631
 2814TIP3    H1 8406   2.939   0.437   4.605
 2814TIP3    H2 8407   3.032   0.547   4.654
 2815TIP3   OH2 8408   1.031   3.361   4.882
 2815TIP3    H1 8409   0.997   3.424   4.819
 2815TIP3    H2 8410   0.988   3.384   4.964
 2816TIP3   OH2 8411   1.100   2.413   1.710
 2816TIP3    H1 8412   1.026   2.444   1.762
 2816TIP3    H2 8413   1.173   2.470   1.735
 2817TIP3   OH2 8414   0.245   1.750   2.353
 2817TIP3    H1 8415   0.288   1.696   2.287
 2817TIP3    H2 8416   0.308   1.755   2.425
 2818TIP3   OH2 8417   7.024   5.550   4.089
 2818TIP3    H1 8418   7.042   5.458   4.109
 2818TIP3    H2 8419   7.086   5.599   4.143
 2819TIP3   OH2 8420   2.897   6.024   2.883
 2819TIP3    H1 8421   2.841   5.947   2.889
 2819TIP3    H2 8422   2.943   6.014   2.800
 2820TIP3   OH2 8423   1.267   0.266   1.519
 2820TIP3    H1 8424   1.341   0.253   1.459
 2820TIP3    H2 8425   1.215   0.336   1.477
 2821TIP3   OH2 8426   4.075   1.428   1.856
 2821TIP3    H1 8427   4.104   1.406   1.768
 2821TIP3    H2 8428   4.056   1.522   1.853
 2822TIP3   OH2 8429   3.657   5.632   3.609
 2822TIP3    H1 8430   3.727   5.599   3.553
 2822TIP3    H2 8431   3.588   5.660   3.548
 2823TIP3   OH2 8432   5.161   3.902   0.115
 2823TIP3    H1 8433   5.163   3.968   0.184
 2823TIP3    H2 8434   5.070   3.873   0.112
 2824TIP3   OH2 8435   6.141   4.297   0.510
 2824TIP3    H1 8436   6.134   4.204   0.491
 2824TIP3    H2 8437   6.053   4.332   0.494
 2825TIP3   OH2 8438   7.121   5.911   1.111
 2825TIP3    H1 8439   7.129   5.969   1.187
 2825TIP3    H2 8440   7.060   5.843   1.140
 2826TIP3   OH2 8441   6.518   2.713   3.143
 2826TIP3    H1 8442   6.433   2.679   3.114
 2826TIP3    H2 8443   6.509   2.808   3.137
 2827TIP3   OH2 8444   5.119   1.328   2.330
 2827TIP3    H1 8445   5.120   1.259   2.396
 2827TIP3    H2 8446   5.149   1.406   2.377
 2828TIP3   OH2 8447   5.957   3.436   5.693
 2828TIP3    H1 8448   5.864   3.457   5.705
 2828TIP3    H2 8449   6.000   3.522   5.693
 2829TIP3   OH2 8450   5.951   5.574   5.276
 2829TIP3    H1 8451   6.045   5.558   5.269
 2829TIP3    H2 8452   5.931   5.560   5.368
 2830TIP3   OH2 8453   0.522   3.677   0.760
 2830TIP3    H1 8454   0.485   3.590   0.746
 2830TIP3    H2 8455   0.602   3.661   0.810
 2831TIP3   OH2 8456   6.114   1.233   2.969
 2831TIP3    H1 8457   6.086   1.227   2.878
 2831TIP3    H2 8458   6.036   1.208   3.019
 2832TIP3   OH2 8459   2.381   3.150   0.800
 2832TIP3    H1 8460   2.427   3.075   0.763
 2832TIP3    H2 8461   2.446   3.220   0.800
 2833TIP3   OH2 8462   4.652   1.838   1.407
 2833TIP3    H1 8463   4.571   1.889   1.395
 2833TIP3    H2 8464   4.635   1.784   1.485
 2834TIP3   OH2 8465   1.719   4.094   3.059
 2834TIP3    H1 8466   1.755   4.156   3.123
 2834TIP3    H2 8467   1.767   4.113   2.978
 2835TIP3   OH2 8468   6.702   6.289   2.867
 2835TIP3    H1 8469   6.667   6.359   2.922
 2835TIP3    H2 8470   6.647   6.292   2.788
 2836TIP3   OH2 8471   3.933   3.213   0.356
 2836TIP3    H1 8472   3.986   3.291   0.338
 2836TIP3    H2 8473   3.842   3.244   0.353
 2837TIP3   OH2 8474   1.570   5.609   0.376
 2837TIP3    H1 8475   1.500   5.640   0.318
 2837TIP3    H2 8476   1.618   5.545   0.323
 2838TIP3   OH2 8477   4.344   2.473   3.366
 2838TIP3    H1 8478   4.324   2.536   3.436
 2838TIP3    H2 8479   4.406   2.411   3.407
 2839TIP3   OH2 8480   4.225   2.714   3.539
 2839TIP3    H1 8481   4.220   2.694   3.632
 2839TIP3    H2 8482   4.159   2.784   3.526
 2840TIP3   OH2 8483   3.097   3.898   2.311
 2840TIP3    H1 8484   3.132   3.830   2.368
 2840TIP3    H2 8485   3.004   3.876   2.301
 2841TIP3   OH2 8486   6.884   2.977   2.989
 2841TIP3    H1 8487   6.860   2.984   3.081
 2841TIP3    H2 8488   6.837   2.901   2.956
 2842TIP3   OH2 8489   0.791   1.458   5.042
 2842TIP3    H1 8490   0.749   1.470   5.128
 2842TIP3    H2 8491   0.740   1.513   4.982
 2843TIP3   OH2 8492   0.661   5.734   4.276
 2843TIP3    H1 8493   0.756   5.723   4.280
 2843TIP3    H2 8494   0.648   5.813   4.223
 2844TIP3   OH2 8495   6.200   6.369   4.440
 2844TIP3    H1 8496   6.282   6.391   4.485
 2844TIP3    H2 8497   6.173   6.286   4.480
 2845TIP3   OH2 8498   3.976   1.547   1.497
 2845TIP3    H1 8499   3.904   1.553   1.434
 2845TIP3    H2 8500   4.027   1.471   1.468
 2846TIP3   OH2 8501   2.009   1.704   3.760
 2846TIP3    H1 8502   1.915   1.709   3.741
 2846TIP3    H2 8503   2.014   1.683   3.853
 2847TIP3   OH2 8504   4.891   3.431   5.886
 2847TIP3    H1 8505   4.826   3.500   5.879
 2847TIP3    H2 8506   4.913   3.408   5.795
 2848TIP3   OH2 8507   4.083   0.397   5.637
 2848TIP3    H1 8508   4.125   0.406   5.723
 2848TIP3    H2 8509   4.112   0.312   5.605
 2849TIP3   OH2 8510   5.379   4.427   0.844
 2849TIP3    H1 8511   5.287   4.414   0.868
 2849TIP3    H2 8512   5.378   4.504   0.787
 2850TIP3   OH2 8513   1.857   3.893   0.853
 2850TIP3    H1 8514   1.926   3.897   0.919
 2850TIP3    H2 8515   1.876   3.812   0.804
 2851TIP3   OH2 8516   3.836   1.565   4.531
 2851TIP3    H1 8517   3.802   1.653   4.546
 2851TIP3    H2 8518   3.859   1.564   4.438
 2852TIP3   OH2 8519   1.589   5.375   2.050
 2852TIP3    H1 8520   1.557   5.397   1.963
 2852TIP3    H2 8521   1.524   5.313   2.084
 2853TIP3   OH2 8522   2.288   1.215   2.584
 2853TIP3    H1 8523   2.310   1.226   2.676
 2853TIP3    H2 8524   2.323   1.129   2.561
 2854TIP3   OH2 8525   1.573   6.332   4.883
 2854TIP3    H1 8526   1.601   6.342   4.974
 2854TIP3    H2 8527   1.654   6.329   4.833
 2855TIP3   OH2 8528   6.569   3.760   1.567
 2855TIP3    H1 8529   6.554   3.667   1.548
 2855TIP3    H2 8530   6.528   3.806   1.494
 2856TIP3   OH2 8531   0.747   6.590   0.531
 2856TIP3    H1 8532   0.668   6.548   0.565
 2856TIP3    H2 8533   0.732   6.683   0.546
 2857TIP3   OH2 8534   1.574   5.869   1.079
 2857TIP3    H1 8535   1.568   5.920   1.160
 2857TIP3    H2 8536   1.566   5.778   1.106
 2858TIP3   OH2 8537   0.108   1.198   2.032
 2858TIP3    H1 8538   0.140   1.127   2.087
 2858TIP3    H2 8539   0.058   1.254   2.092
 2859TIP3   OH2 8540   2.600   1.587   2.903
 2859TIP3    H1 8541   2.532   1.571   2.969
 2859TIP3    H2 8542   2.682   1.570   2.950
 2860TIP3   OH2 8543   2.374   2.969   2.851
 2860TIP3    H1 8544   2.416   3.007   2.774
 2860TIP3    H2 8545   2.438   2.907   2.885
 2861TIP3   OH2 8546   2.952   1.386   2.916
 2861TIP3    H1 8547   2.939   1.356   2.826
 2861TIP3    H2 8548   2.916   1.315   2.970
 2862TIP3   OH2 8549   3.747   2.177   4.073
 2862TIP3    H1 8550   3.659   2.140   4.076
 2862TIP3    H2 8551   3.796   2.116   4.017
 2863TIP3   OH2 8552   2.913   4.574   3.710
 2863TIP3    H1 8553   2.943   4.664   3.721
 2863TIP3    H2 8554   2.828   4.572   3.753
 2864TIP3   OH2 8555   0.304   1.729   5.415
 2864TIP3    H1 8556   0.233   1.683   5.370
 2864TIP3    H2 8557   0.279   1.821   5.410
 2865TIP3   OH2 8558   1.254   1.470   0.977
 2865TIP3    H1 8559   1.183   1.459   0.913
 2865TIP3    H2 8560   1.265   1.383   1.016
 2866TIP3   OH2 8561   5.995   1.223   4.088
 2866TIP3    H1 8562   5.978   1.206   3.996
 2866TIP3    H2 8563   5.911   1.257   4.122
 2867TIP3   OH2 8564   3.485   2.018   3.904
 2867TIP3    H1 8565   3.403   1.971   3.921
 2867TIP3    H2 8566   3.459   2.108   3.887
 2868TIP3   OH2 8567   3.460   1.598   4.569
 2868TIP3    H1 8568   3.469   1.658   4.495
 2868TIP3    H2 8569   3.368   1.603   4.594
 2869TIP3   OH2 8570   1.493   0.303   2.191
 2869TIP3    H1 8571   1.441   0.246   2.248
 2869TIP3    H2 8572   1.508   0.382   2.242
 2870TIP3   OH2 8573   6.960   3.135   2.753
 2870TIP3    H1 8574   6.966   3.091   2.838
 2870TIP3    H2 8575   6.914   3.073   2.697
 2871TIP3   OH2 8576   0.504   3.002   1.679
 2871TIP3    H1 8577   0.419   3.011   1.635
 2871TIP3    H2 8578   0.568   3.003   1.608
 2872TIP3   OH2 8579   0.478   1.455   3.224
 2872TIP3    H1 8580   0.459   1.544   3.194
 2872TIP3    H2 8581   0.545   1.466   3.291
 2873TIP3   OH2 8582   6.029   1.364   3.372
 2873TIP3    H1 8583   6.084   1.399   3.301
 2873TIP3    H2 8584   5.992   1.284   3.335
 2874TIP3   OH2 8585   2.099   4.740   2.118
 2874TIP3    H1 8586   2.111   4.799   2.044
 2874TIP3    H2 8587   2.080   4.655   2.079
 2875TIP3   OH2 8588   0.804   5.158   1.329
 2875TIP3    H1 8589   0.871   5.214   1.368
 2875TIP3    H2 8590   0.752   5.126   1.403
 2876TIP3   OH2 8591   1.197   3.649   1.721
 2876TIP3    H1 8592   1.101   3.648   1.717
 2876TIP3    H2 8593   1.223   3.566   1.682
 2877TIP3   OH2 8594   5.356   0.344   4.527
 2877TIP3    H1 8595   5.379   0.260   4.566
 2877TIP3    H2 8596   5.421   0.405   4.564
 2878TIP3   OH2 8597   4.584   0.332   3.089
 2878TIP3    H1 8598   4.586   0.242   3.061
 2878TIP3    H2 8599   4.502   0.368   3.055
 2879TIP3   OH2 8600   0.202   0.575   1.721
 2879TIP3    H1 8601   0.182   0.649   1.777
 2879TIP3    H2 8602   0.158   0.594   1.638
 2880TIP3   OH2 8603   3.341   3.733   3.846
 2880TIP3    H1 8604   3.325   3.678   3.770
 2880TIP3    H2 8605   3.389   3.809   3.812
 2881TIP3   OH2 8606   6.600   3.412   4.221
 2881TIP3    H1 8607   6.693   3.404   4.244
 2881TIP3    H2 8608   6.600   3.467   4.143
 2882TIP3   OH2 8609   1.700   1.928   3.819
 2882TIP3    H1 8610   1.626   1.981   3.848
 2882TIP3    H2 8611   1.749   1.985   3.759
 2883TIP3   OH2 8612   3.223   4.767   3.291
 2883TIP3    H1 8613   3.128   4.754   3.281
 2883TIP3    H2 8614   3.236   4.772   3.385
 2884TIP3   OH2 8615   1.412   4.995   4.312
 2884TIP3    H1 8616   1.384   4.925   4.253
 2884TIP3    H2 8617   1.499   5.019   4.281
 2885TIP3   OH2 8618   5.047   3.702   5.215
 2885TIP3    H1 8619   5.070   3.745   5.133
 2885TIP3    H2 8620   4.959   3.734   5.235
 2886TIP3   OH2 8621   4.622   4.883   4.581
 2886TIP3    H1 8622   4.618   4.800   4.629
 2886TIP3    H2 8623   4.530   4.906   4.567
 2887TIP3   OH2 8624   0.034   4.131   3.430
 2887TIP3    H1 8625  -0.018   4.150   3.352
 2887TIP3    H2 8626   0.113   4.184   3.420
 2888TIP3   OH2 8627   6.333   2.096   0.321
 2888TIP3    H1 8628   6.317   2.003   0.303
 2888TIP3    H2 8629   6.289   2.142   0.249
 2889TIP3   OH2 8630   4.270   4.851   2.127
 2889TIP3    H1 8631   4.195   4.815   2.174
 2889TIP3    H2 8632   4.342   4.848   2.191
 2890TIP3   OH2 8633   3.988   2.148   4.940
 2890TIP3    H1 8634   3.951   2.097   5.012
 2890TIP3    H2 8635   4.039   2.217   4.982
 2891TIP3   OH2 8636   1.574   2.150   3.935
 2891TIP3    H1 8637   1.501   2.201   3.969
 2891TIP3    H2 8638   1.632   2.215   3.895
 2892TIP3   OH2 8639   6.115   2.029   1.874
 2892TIP3    H1 8640   6.110   2.068   1.787
 2892TIP3    H2 8641   6.030   2.049   1.914
 2893TIP3   OH2 8642   1.186   5.709   5.040
 2893TIP3    H1 8643   1.237   5.751   4.971
 2893TIP3    H2 8644   1.180   5.617   5.014
 2894TIP3   OH2 8645   4.029   5.194   3.105
 2894TIP3    H1 8646   4.085   5.188   3.182
 2894TIP3    H2 8647   3.977   5.114   3.106
 2895TIP3   OH2 8648   3.723   5.052   0.748
 2895TIP3    H1 8649   3.705   5.111   0.675
 2895TIP3    H2 8650   3.818   5.036   0.743
 2896TIP3   OH2 8651   5.540   1.364   5.579
 2896TIP3    H1 8652   5.559   1.273   5.557
 2896TIP3    H2 8653   5.450   1.378   5.546
 2897TIP3   OH2 8654   4.300   4.101   2.136
 2897TIP3    H1 8655   4.210   4.089   2.167
 2897TIP3    H2 8656   4.293   4.100   2.041
 2898TIP3   OH2 8657   1.493   4.394   2.794
 2898TIP3    H1 8658   1.529   4.328   2.735
 2898TIP3    H2 8659   1.543   4.473   2.775
 2899TIP3   OH2 8660   6.487   3.554   4.626
 2899TIP3    H1 8661   6.583   3.561   4.631
 2899TIP3    H2 8662   6.471   3.485   4.562
 2900TIP3   OH2 8663   5.002   4.971   5.074
 2900TIP3    H1 8664   4.969   4.883   5.094
 2900TIP3    H2 8665   4.999   4.977   4.978
 2901TIP3   OH2 8666   1.315   0.413   1.990
 2901TIP3    H1 8667   1.374   0.377   2.057
 2901TIP3    H2 8668   1.270   0.337   1.954
 2902TIP3   OH2 8669   5.912   4.084   5.259
 2902TIP3    H1 8670   5.987   4.028   5.279
 2902TIP3    H2 8671   5.943   4.172   5.278
 2903TIP3   OH2 8672   0.359   0.318   4.590
 2903TIP3    H1 8673   0.446   0.360   4.587
 2903TIP3    H2 8674   0.378   0.225   4.590
 2904TIP3   OH2 8675   0.046   2.755   0.951
 2904TIP3    H1 8676  -0.047   2.760   0.931
 2904TIP3    H2 8677   0.065   2.832   1.004
 2905TIP3   OH2 8678   1.267   5.905   1.454
 2905TIP3    H1 8679   1.288   5.815   1.477
 2905TIP3    H2 8680   1.205   5.933   1.522
 2906TIP3   OH2 8681   2.939   3.562   2.130
 2906TIP3    H1 8682   2.920   3.626   2.061
 2906TIP3    H2 8683   2.944   3.614   2.210
 2907TIP3   OH2 8684   2.276   5.411   5.566
 2907TIP3    H1 8685   2.311   5.324   5.581
 2907TIP3    H2 8686   2.326   5.468   5.625
 2908TIP3   OH2 8687   2.312   1.949   4.684
 2908TIP3    H1 8688   2.297   1.874   4.626
 2908TIP3    H2 8689   2.297   2.026   4.629
 2909TIP3   OH2 8690   4.833   1.167   1.619
 2909TIP3    H1 8691   4.763   1.152   1.683
 2909TIP3    H2 8692   4.844   1.083   1.575
 2910TIP3   OH2 8693   2.766   4.808   5.737
 2910TIP3    H1 8694   2.691   4.863   5.760
 2910TIP3    H2 8695   2.796   4.772   5.820
 2911TIP3   OH2 8696   6.671   6.414   1.706
 2911TIP3    H1 8697   6.644   6.336   1.658
 2911TIP3    H2 8698   6.612   6.483   1.676
 2912TIP3   OH2 8699   0.927   1.577   2.434
 2912TIP3    H1 8700   0.953   1.603   2.346
 2912TIP3    H2 8701   0.965   1.490   2.445
 2913TIP3   OH2 8702   1.554   5.093   0.690
 2913TIP3    H1 8703   1.477   5.144   0.662
 2913TIP3    H2 8704   1.575   5.038   0.615
 2914TIP3   OH2 8705   3.454   3.622   0.943
 2914TIP3    H1 8706   3.435   3.685   0.873
 2914TIP3    H2 8707   3.549   3.624   0.952
 2915TIP3   OH2 8708   1.524   4.335   0.554
 2915TIP3    H1 8709   1.478   4.254   0.579
 2915TIP3    H2 8710   1.587   4.350   0.624
 2916TIP3   OH2 8711   2.930   1.154   3.087
 2916TIP3    H1 8712   3.025   1.154   3.074
 2916TIP3    H2 8713   2.919   1.168   3.181
 2917TIP3   OH2 8714   2.728   3.444   1.849
 2917TIP3    H1 8715   2.727   3.506   1.776
 2917TIP3    H2 8716   2.682   3.490   1.919
 2918TIP3   OH2 8717   2.061   6.442   5.303
 2918TIP3    H1 8718   2.095   6.353   5.312
 2918TIP3    H2 8719   2.119   6.496   5.358
 2919TIP3   OH2 8720   1.960   0.031   3.215
 2919TIP3    H1 8721   2.016  -0.025   3.269
 2919TIP3    H2 8722   2.018   0.102   3.186
 2920TIP3   OH2 8723   2.401   2.396   2.563
 2920TIP3    H1 8724   2.342   2.352   2.626
 2920TIP3    H2 8725   2.346   2.409   2.485
 2921TIP3   OH2 8726   6.946   1.810   3.997
 2921TIP3    H1 8727   7.041   1.797   3.992
 2921TIP3    H2 8728   6.932   1.897   3.960
 2922TIP3   OH2 8729   2.940   4.701   1.431
 2922TIP3    H1 8730   2.860   4.694   1.379
 2922TIP3    H2 8731   2.941   4.793   1.460
 2923TIP3   OH2 8732   2.364   5.970   0.982
 2923TIP3    H1 8733   2.328   5.882   0.970
 2923TIP3    H2 8734   2.401   5.993   0.897
 2924TIP3   OH2 8735   4.931   6.451   1.900
 2924TIP3    H1 8736   4.885   6.426   1.820
 2924TIP3    H2 8737   4.895   6.394   1.967
 2925TIP3   OH2 8738   0.204   6.352   0.926
 2925TIP3    H1 8739   0.197   6.334   1.020
 2925TIP3    H2 8740   0.211   6.265   0.886
 2926TIP3   OH2 8741   3.070   3.648   0.974
 2926TIP3    H1 8742   3.120   3.705   0.916
 2926TIP3    H2 8743   3.131   3.622   1.043
 2927TIP3   OH2 8744   2.530   6.289   2.877
 2927TIP3    H1 8745   2.554   6.214   2.823
 2927TIP3    H2 8746   2.448   6.262   2.919
 2928TIP3   OH2 8747   3.760   4.466   2.955
 2928TIP3    H1 8748   3.785   4.510   3.036
 2928TIP3    H2 8749   3.842   4.433   2.918
 2929TIP3   OH2 8750   0.360   1.039   3.352
 2929TIP3    H1 8751   0.440   1.087   3.326
 2929TIP3    H2 8752   0.317   1.019   3.269
 2930TIP3   OH2 8753   5.000   2.556   5.610
 2930TIP3    H1 8754   4.919   2.581   5.655
 2930TIP3    H2 8755   4.981   2.470   5.574
 2931TIP3   OH2 8756   4.306   0.409   2.387
 2931TIP3    H1 8757   4.257   0.383   2.310
 2931TIP3    H2 8758   4.366   0.335   2.403
 2932TIP3   OH2 8759   2.397   4.971   2.600
 2932TIP3    H1 8760   2.387   5.002   2.510
 2932TIP3    H2 8761   2.351   4.887   2.601
 2933TIP3   OH2 8762   6.720   1.894   1.674
 2933TIP3    H1 8763   6.704   1.860   1.761
 2933TIP3    H2 8764   6.762   1.823   1.627
 2934TIP3   OH2 8765   4.878   2.919   5.523
 2934TIP3    H1 8766   4.863   2.851   5.588
 2934TIP3    H2 8767   4.802   2.916   5.465
 2935TIP3   OH2 8768   6.455   2.005   3.089
 2935TIP3    H1 8769   6.514   2.010   3.014
 2935TIP3    H2 8770   6.510   1.970   3.160
 2936TIP3   OH2 8771   0.216   6.195   3.777
 2936TIP3    H1 8772   0.131   6.156   3.794
 2936TIP3    H2 8773   0.210   6.231   3.688
 2937TIP3   OH2 8774   0.131   1.489   1.849
 2937TIP3    H1 8775   0.148   1.520   1.938
 2937TIP3    H2 8776   0.037   1.471   1.847
 2938TIP3   OH2 8777   4.667   4.360   2.744
 2938TIP3    H1 8778   4.669   4.307   2.823
 2938TIP3    H2 8779   4.575   4.362   2.718
 2939TIP3   OH2 8780   1.628   4.676   4.758
 2939TIP3    H1 8781   1.545   4.677   4.710
 2939TIP3    H2 8782   1.655   4.768   4.762
 2940TIP3   OH2 8783   1.631   4.221   2.583
 2940TIP3    H1 8784   1.646   4.256   2.496
 2940TIP3    H2 8785   1.592   4.135   2.568
 2941TIP3   OH2 8786   5.373   4.879   4.067
 2941TIP3    H1 8787   5.414   4.792   4.070
 2941TIP3    H2 8788   5.443   4.940   4.092
 2942TIP3   OH2 8789   6.866   6.600   5.531
 2942TIP3    H1 8790   6.789   6.602   5.475
 2942TIP3    H2 8791   6.891   6.508   5.537
 2943TIP3   OH2 8792   2.060   6.280   2.329
 2943TIP3    H1 8793   2.025   6.287   2.241
 2943TIP3    H2 8794   2.133   6.218   2.321
 2944TIP3   OH2 8795   6.146   5.666   5.760
 2944TIP3    H1 8796   6.138   5.723   5.837
 2944TIP3    H2 8797   6.176   5.582   5.795
 2945TIP3   OH2 8798   0.192   5.495   0.228
 2945TIP3    H1 8799   0.214   5.456   0.313
 2945TIP3    H2 8800   0.115   5.549   0.246
 2946TIP3   OH2 8801   2.477   3.744   1.623
 2946TIP3    H1 8802   2.495   3.679   1.556
 2946TIP3    H2 8803   2.414   3.702   1.681
 2947TIP3   OH2 8804   1.661   3.639   4.616
 2947TIP3    H1 8805   1.720   3.597   4.679
 2947TIP3    H2 8806   1.575   3.634   4.657
 2948TIP3   OH2 8807   3.435   4.728   4.308
 2948TIP3    H1 8808   3.503   4.668   4.339
 2948TIP3    H2 8809   3.464   4.754   4.221
 2949TIP3   OH2 8810   2.261   0.526   1.540
 2949TIP3    H1 8811   2.325   0.457   1.521
 2949TIP3    H2 8812   2.266   0.538   1.635
 2950TIP3   OH2 8813   5.387   6.219   0.466
 2950TIP3    H1 8814   5.336   6.138   0.462
 2950TIP3    H2 8815   5.358   6.269   0.389
 2951TIP3   OH2 8816   1.143   5.212   2.266
 2951TIP3    H1 8817   1.212   5.243   2.326
 2951TIP3    H2 8818   1.169   5.123   2.244
 2952TIP3   OH2 8819   2.799   4.689   4.592
 2952TIP3    H1 8820   2.866   4.755   4.572
 2952TIP3    H2 8821   2.754   4.723   4.669
 2953TIP3   OH2 8822   1.458   0.700   4.348
 2953TIP3    H1 8823   1.533   0.734   4.398
 2953TIP3    H2 8824   1.426   0.627   4.401
 2954TIP3   OH2 8825   5.641   2.105   5.550
 2954TIP3    H1 8826   5.631   2.022   5.597
 2954TIP3    H2 8827   5.568   2.159   5.583
 2955TIP3   OH2 8828   2.650   3.724   5.152
 2955TIP3    H1 8829   2.645   3.803   5.099
 2955TIP3    H2 8830   2.617   3.750   5.238
 2956TIP3   OH2 8831   3.689   4.645   1.366
 2956TIP3    H1 8832   3.629   4.621   1.295
 2956TIP3    H2 8833   3.761   4.689   1.322
 2957TIP3   OH2 8834   3.194   0.339   4.071
 2957TIP3    H1 8835   3.158   0.292   3.996
 2957TIP3    H2 8836   3.287   0.348   4.051
 2958TIP3   OH2 8837   1.648   1.945   1.886
 2958TIP3    H1 8838   1.710   1.873   1.889
 2958TIP3    H2 8839   1.684   2.005   1.821
 2959TIP3   OH2 8840   4.033   6.368   3.369
 2959TIP3    H1 8841   3.980   6.448   3.367
 2959TIP3    H2 8842   4.014   6.325   3.285
 2960TIP3   OH2 8843   3.499   5.519   1.753
 2960TIP3    H1 8844   3.583   5.473   1.743
 2960TIP3    H2 8845   3.463   5.522   1.665
 2961TIP3   OH2 8846   0.568   0.515   2.076
 2961TIP3    H1 8847   0.483   0.492   2.039
 2961TIP3    H2 8848   0.622   0.436   2.063
 2962TIP3   OH2 8849   0.363   0.168   1.233
 2962TIP3    H1 8850   0.395   0.258   1.234
 2962TIP3    H2 8851   0.343   0.148   1.324
 2963TIP3   OH2 8852   1.336   2.714   2.748
 2963TIP3    H1 8853   1.362   2.648   2.812
 2963TIP3    H2 8854   1.284   2.777   2.798
 2964TIP3   OH2 8855   1.064   5.826   5.863
 2964TIP3    H1 8856   1.067   5.864   5.776
 2964TIP3    H2 8857   1.137   5.868   5.910
 2965TIP3   OH2 8858   3.716   0.123   1.845
 2965TIP3    H1 8859   3.810   0.120   1.863
 2965TIP3    H2 8860   3.698   0.045   1.793
 2966TIP3   OH2 8861   1.932   2.658   0.772
 2966TIP3    H1 8862   1.927   2.702   0.687
 2966TIP3    H2 8863   1.991   2.585   0.758
 2967TIP3   OH2 8864   0.715   0.046   4.618
 2967TIP3    H1 8865   0.740  -0.038   4.656
 2967TIP3    H2 8866   0.683   0.025   4.531
 2968TIP3   OH2 8867   4.285   5.452   3.657
 2968TIP3    H1 8868   4.379   5.452   3.643
 2968TIP3    H2 8869   4.259   5.544   3.650
 2969TIP3   OH2 8870   5.654   3.259   4.236
 2969TIP3    H1 8871   5.562   3.245   4.260
 2969TIP3    H2 8872   5.695   3.174   4.251
 2970TIP3   OH2 8873   1.302   4.434   1.102
 2970TIP3    H1 8874   1.343   4.425   1.016
 2970TIP3    H2 8875   1.238   4.363   1.107
 2971TIP3   OH2 8876   4.041   5.418   1.913
 2971TIP3    H1 8877   4.095   5.393   1.988
 2971TIP3    H2 8878   4.096   5.401   1.837
 2972TIP3   OH2 8879   6.162   1.528   1.713
 2972TIP3    H1 8880   6.108   1.602   1.684
 2972TIP3    H2 8881   6.246   1.541   1.671
 2973TIP3   OH2 8882   4.385   4.267   0.020
 2973TIP3    H1 8883   4.436   4.191   0.049
 2973TIP3    H2 8884   4.337   4.294   0.098
 2974TIP3   OH2 8885   5.998   2.411   2.741
 2974TIP3    H1 8886   6.011   2.369   2.656
 2974TIP3    H2 8887   5.982   2.339   2.802
 2975TIP3   OH2 8888   6.403   3.564   4.976
 2975TIP3    H1 8889   6.427   3.536   5.065
 2975TIP3    H2 8890   6.332   3.627   4.989
 2976TIP3   OH2 8891   1.765   4.371   0.732
 2976TIP3    H1 8892   1.798   4.286   0.703
 2976TIP3    H2 8893   1.838   4.431   0.717
 2977TIP3   OH2 8894   2.108   4.659   3.968
 2977TIP3    H1 8895   2.183   4.635   4.022
 2977TIP3    H2 8896   2.146   4.692   3.886
 2978TIP3   OH2 8897   3.423   5.303   0.142
 2978TIP3    H1 8898   3.466   5.279   0.060
 2978TIP3    H2 8899   3.491   5.345   0.194
 2979TIP3   OH2 8900   6.511   4.585   3.027
 2979TIP3    H1 8901   6.503   4.537   3.110
 2979TIP3    H2 8902   6.603   4.613   3.025
 2980TIP3   OH2 8903   3.377   5.716   0.131
 2980TIP3    H1 8904   3.451   5.720   0.070
 2980TIP3    H2 8905   3.402   5.774   0.203
 2981TIP3   OH2 8906   0.555   5.889   0.784
 2981TIP3    H1 8907   0.615   5.898   0.858
 2981TIP3    H2 8908   0.599   5.935   0.712
 2982TIP3   OH2 8909   2.721   3.077   3.727
 2982TIP3    H1 8910   2.769   2.994   3.727
 2982TIP3    H2 8911   2.786   3.141   3.698
 2983TIP3   OH2 8912   0.903   0.686   0.269
 2983TIP3    H1 8913   0.815   0.717   0.290
 2983TIP3    H2 8914   0.949   0.689   0.353
 2984TIP3   OH2 8915   6.046   4.753   1.478
 2984TIP3    H1 8916   5.972   4.755   1.538
 2984TIP3    H2 8917   6.044   4.665   1.440
 2985TIP3   OH2 8918   7.169   6.538   2.885
 2985TIP3    H1 8919   7.138   6.593   2.957
 2985TIP3    H2 8920   7.090   6.516   2.835
 2986TIP3   OH2 8921   5.072   0.242   4.188
 2986TIP3    H1 8922   4.990   0.249   4.139
 2986TIP3    H2 8923   5.122   0.318   4.159
 2987TIP3   OH2 8924   0.220   1.674   4.639
 2987TIP3    H1 8925   0.279   1.652   4.567
 2987TIP3    H2 8926   0.134   1.644   4.609
 2988TIP3   OH2 8927   6.734   0.393   3.165
 2988TIP3    H1 8928   6.810   0.363   3.214
 2988TIP3    H2 8929   6.761   0.477   3.128
 2989TIP3   OH2 8930   4.558   0.735   1.217
 2989TIP3    H1 8931   4.587   0.672   1.151
 2989TIP3    H2 8932   4.484   0.780   1.176
 2990TIP3   OH2 8933   1.149   2.795   0.824
 2990TIP3    H1 8934   1.184   2.884   0.824
 2990TIP3    H2 8935   1.226   2.739   0.809
 2991TIP3   OH2 8936   6.890   2.832   4.084
 2991TIP3    H1 8937   6.866   2.855   4.174
 2991TIP3    H2 8938   6.861   2.908   4.032
 2992TIP3   OH2 8939   5.639   3.879   0.561
 2992TIP3    H1 8940   5.556   3.896   0.516
 2992TIP3    H2 8941   5.695   3.841   0.494
 2993TIP3   OH2 8942   2.408   5.189   4.279
 2993TIP3    H1 8943   2.499   5.164   4.289
 2993TIP3    H2 8944   2.411   5.278   4.243
 2994TIP3   OH2 8945   3.412   5.743   2.869
 2994TIP3    H1 8946   3.318   5.760   2.857
 2994TIP3    H2 8947   3.434   5.787   2.951
 2995TIP3   OH2 8948   3.340   3.798   4.507
 2995TIP3    H1 8949   3.370   3.888   4.516
 2995TIP3    H2 8950   3.256   3.804   4.462
 2996TIP3   OH2 8951   4.304   6.553   2.706
 2996TIP3    H1 8952   4.305   6.648   2.691
 2996TIP3    H2 8953   4.212   6.529   2.693
 2997TIP3   OH2 8954   5.606   3.624   2.022
 2997TIP3    H1 8955   5.590   3.577   2.104
 2997TIP3    H2 8956   5.528   3.679   2.010
 2998TIP3   OH2 8957   6.582   4.638   1.933
 2998TIP3    H1 8958   6.552   4.567   1.876
 2998TIP3    H2 8959   6.617   4.594   2.010
 2999TIP3   OH2 8960   3.964   2.601   2.257
 2999TIP3    H1 8961   4.025   2.673   2.239
 2999TIP3    H2 8962   3.895   2.611   2.192
 3000TIP3   OH2 8963   4.185   1.124   1.556
 3000TIP3    H1 8964   4.187   1.072   1.637
 3000TIP3    H2 8965   4.266   1.101   1.511
 3001TIP3   OH2 8966   5.687   2.352   2.228
 3001TIP3    H1 8967   5.708   2.284   2.291
 3001TIP3    H2 8968   5.597   2.332   2.200
 3002TIP3   OH2 8969   3.176   2.868   2.411
 3002TIP3    H1 8970   3.216   2.781   2.415
 3002TIP3    H2 8971   3.208   2.905   2.329
 3003TIP3   OH2 8972   7.208   3.365   5.106
 3003TIP3    H1 8973   7.175   3.302   5.041
 3003TIP3    H2 8974   7.142   3.365   5.175
 3004TIP3   OH2 8975   1.759   4.635   1.996
 3004TIP3    H1 8976   1.806   4.696   1.939
 3004TIP3    H2 8977   1.761   4.552   1.950
 3005TIP3   OH2 8978   3.920   0.286   0.174
 3005TIP3    H1 8979   3.976   0.364   0.166
 3005TIP3    H2 8980   3.973   0.224   0.224
 3006TIP3   OH2 8981   5.656   4.999   3.182
 3006TIP3    H1 8982   5.600   4.959   3.115
 3006TIP3    H2 8983   5.743   5.005   3.141
 3007TIP3   OH2 8984   2.799   2.581   5.428
 3007TIP3    H1 8985   2.798   2.495   5.471
 3007TIP3    H2 8986   2.833   2.640   5.495
 3008TIP3   OH2 8987   0.220   0.630   2.994
 3008TIP3    H1 8988   0.279   0.565   2.956
 3008TIP3    H2 8989   0.244   0.712   2.952
 3009TIP3   OH2 8990   0.725   6.075   0.203
 3009TIP3    H1 8991   0.723   5.988   0.244
 3009TIP3    H2 8992   0.743   6.135   0.275
 3010TIP3   OH2 8993   4.782   6.770   5.856
 3010TIP3    H1 8994   4.802   6.855   5.894
 3010TIP3    H2 8995   4.846   6.710   5.894
 3011TIP3   OH2 8996   2.263   1.740   4.503
 3011TIP3    H1 8997   2.250   1.646   4.490
 3011TIP3    H2 8998   2.238   1.780   4.419
 3012TIP3   OH2 8999   6.916   4.363   3.320
 3012TIP3    H1 9000   7.010   4.364   3.340
 3012TIP3    H2 9001   6.880   4.295   3.376
 3013TIP3   OH2 9002   4.237   6.678   4.560
 3013TIP3    H1 9003   4.211   6.592   4.526
 3013TIP3    H2 9004   4.164   6.735   4.539
 3014TIP3   OH2 9005   5.572   0.367   4.822
 3014TIP3    H1 9006   5.634   0.297   4.802
 3014TIP3    H2 9007   5.582   0.429   4.750
 3015TIP3   OH2 9008   1.311   2.621   1.453
 3015TIP3    H1 9009   1.375   2.558   1.487
 3015TIP3    H2 9010   1.301   2.685   1.523
 3016TIP3   OH2 9011   1.163   6.330   3.201
 3016TIP3    H1 9012   1.194   6.358   3.287
 3016TIP3    H2 9013   1.241   6.301   3.155
 3017TIP3   OH2 9014   6.117   2.441   3.118
 3017TIP3    H1 9015   6.104   2.345   3.115
 3017TIP3    H2 9016   6.149   2.457   3.206
 3018TIP3   OH2 9017   2.577   0.777   4.788
 3018TIP3    H1 9018   2.593   0.703   4.729
 3018TIP3    H2 9019   2.656   0.783   4.842
 3019TIP3   OH2 9020   3.976   4.940   2.991
 3019TIP3    H1 9021   4.027   4.882   3.048
 3019TIP3    H2 9022   4.012   4.925   2.904
 3020TIP3   OH2 9023   5.954   6.277   1.462
 3020TIP3    H1 9024   5.975   6.243   1.550
 3020TIP3    H2 9025   5.872   6.232   1.439
 3021TIP3   OH2 9026   1.219   4.604   0.392
 3021TIP3    H1 9027   1.163   4.527   0.397
 3021TIP3    H2 9028   1.239   4.614   0.299
 3022TIP3   OH2 9029   5.416   0.512   3.874
 3022TIP3    H1 9030   5.397   0.530   3.782
 3022TIP3    H2 9031   5.511   0.508   3.878
 3023TIP3   OH2 9032   3.210   0.982   3.031
 3023TIP3    H1 9033   3.257   0.919   3.086
 3023TIP3    H2 9034   3.129   0.938   3.007
 3024TIP3   OH2 9035   0.885   5.587   5.097
 3024TIP3    H1 9036   0.968   5.631   5.077
 3024TIP3    H2 9037   0.827   5.611   5.025
 3025TIP3   OH2 9038   6.650   1.480   4.900
 3025TIP3    H1 9039   6.667   1.386   4.904
 3025TIP3    H2 9040   6.629   1.496   4.808
 3026TIP3   OH2 9041   3.879   0.523   1.318
 3026TIP3    H1 9042   3.975   0.529   1.315
 3026TIP3    H2 9043   3.859   0.512   1.411
 3027TIP3   OH2 9044   5.002   1.275   2.042
 3027TIP3    H1 9045   5.033   1.186   2.058
 3027TIP3    H2 9046   5.013   1.320   2.126
 3028TIP3   OH2 9047   7.004   5.259   1.474
 3028TIP3    H1 9048   7.004   5.208   1.393
 3028TIP3    H2 9049   6.915   5.293   1.481
 3029TIP3   OH2 9050   5.044   3.699   1.102
 3029TIP3    H1 9051   4.968   3.641   1.098
 3029TIP3    H2 9052   5.013   3.779   1.145
 3030TIP3   OH2 9053   1.487   4.641   3.876
 3030TIP3    H1 9054   1.575   4.647   3.837
 3030TIP3    H2 9055   1.434   4.598   3.809
 3031TIP3   OH2 9056   1.387   0.191   2.688
 3031TIP3    H1 9057   1.438   0.190   2.769
 3031TIP3    H2 9058   1.297   0.206   2.717
 3032TIP3   OH2 9059   5.014   4.663   4.147
 3032TIP3    H1 9060   4.963   4.743   4.132
 3032TIP3    H2 9061   4.973   4.622   4.223
 3033TIP3   OH2 9062   3.089   0.275   1.941
 3033TIP3    H1 9063   3.016   0.247   1.995
 3033TIP3    H2 9064   3.133   0.194   1.916
 3034TIP3   OH2 9065   4.879   0.699   2.154
 3034TIP3    H1 9066   4.888   0.747   2.071
 3034TIP3    H2 9067   4.968   0.694   2.188
 3035TIP3   OH2 9068   3.154   4.891   4.838
 3035TIP3    H1 9069   3.089   4.906   4.906
 3035TIP3    H2 9070   3.238   4.887   4.884
 3036TIP3   OH2 9071   5.880   0.206   4.182
 3036TIP3    H1 9072   5.952   0.219   4.243
 3036TIP3    H2 9073   5.801   0.229   4.232
 3037TIP3   OH2 9074   2.545   6.721   4.809
 3037TIP3    H1 9075   2.571   6.726   4.901
 3037TIP3    H2 9076   2.628   6.714   4.761
 3038TIP3   OH2 9077   5.942   0.217   0.502
 3038TIP3    H1 9078   5.853   0.245   0.479
 3038TIP3    H2 9079   5.933   0.124   0.522
 3039TIP3   OH2 9080   3.512   4.001   3.845
 3039TIP3    H1 9081   3.527   3.993   3.939
 3039TIP3    H2 9082   3.459   4.080   3.836
 3040TIP3   OH2 9083   5.059   3.210   4.259
 3040TIP3    H1 9084   4.970   3.237   4.281
 3040TIP3    H2 9085   5.050   3.121   4.225
 3041TIP3   OH2 9086   1.910   1.474   4.924
 3041TIP3    H1 9087   1.834   1.533   4.922
 3041TIP3    H2 9088   1.935   1.469   5.016
 3042TIP3   OH2 9089   0.876   2.369   4.481
 3042TIP3    H1 9090   0.934   2.412   4.418
 3042TIP3    H2 9091   0.788   2.399   4.457
 3043TIP3   OH2 9092   4.424   4.271   2.630
 3043TIP3    H1 9093   4.432   4.349   2.575
 3043TIP3    H2 9094   4.366   4.213   2.581
 3044TIP3   OH2 9095   3.337   3.393   0.810
 3044TIP3    H1 9096   3.374   3.457   0.871
 3044TIP3    H2 9097   3.409   3.331   0.795
 3045TIP3   OH2 9098   6.902   1.548   1.122
 3045TIP3    H1 9099   6.927   1.580   1.208
 3045TIP3    H2 9100   6.890   1.454   1.134
 3046TIP3   OH2 9101   2.395   4.967   1.914
 3046TIP3    H1 9102   2.392   4.958   1.818
 3046TIP3    H2 9103   2.488   4.956   1.936
 3047TIP3   OH2 9104   0.583   6.244   1.987
 3047TIP3    H1 9105   0.493   6.244   1.953
 3047TIP3    H2 9106   0.596   6.156   2.022
 3048TIP3   OH2 9107   2.394   3.233   1.627
 3048TIP3    H1 9108   2.371   3.206   1.716
 3048TIP3    H2 9109   2.423   3.152   1.584
 3049TIP3   OH2 9110   1.516   1.691   3.228
 3049TIP3    H1 9111   1.582   1.691   3.158
 3049TIP3    H2 9112   1.567   1.689   3.309
 3050TIP3   OH2 9113   1.317   4.031   0.986
 3050TIP3    H1 9114   1.259   4.107   0.993
 3050TIP3    H2 9115   1.404   4.066   1.003
 3051TIP3   OH2 9116   2.721   2.576   0.991
 3051TIP3    H1 9117   2.742   2.627   0.913
 3051TIP3    H2 9118   2.645   2.620   1.029
 3052TIP3   OH2 9119   4.478   3.987   2.835
 3052TIP3    H1 9120   4.530   4.051   2.786
 3052TIP3    H2 9121   4.514   3.902   2.809
 3053TIP3   OH2 9122   6.944   2.772   2.774
 3053TIP3    H1 9123   6.860   2.771   2.821
 3053TIP3    H2 9124   6.924   2.812   2.690
 3054TIP3   OH2 9125   6.939   4.703   5.032
 3054TIP3    H1 9126   6.999   4.732   4.963
 3054TIP3    H2 9127   6.855   4.693   4.987
 3055TIP3   OH2 9128   0.151   6.203   2.547
 3055TIP3    H1 9129   0.106   6.165   2.622
 3055TIP3    H2 9130   0.192   6.283   2.581
 3056TIP3   OH2 9131   4.993   5.537   2.465
 3056TIP3    H1 9132   5.050   5.593   2.518
 3056TIP3    H2 9133   5.040   5.526   2.382
 3057TIP3   OH2 9134   6.918   1.661   4.247
 3057TIP3    H1 9135   6.828   1.675   4.276
 3057TIP3    H2 9136   6.920   1.696   4.158
 3058TIP3   OH2 9137   6.105   4.458   0.787
 3058TIP3    H1 9138   6.142   4.527   0.842
 3058TIP3    H2 9139   6.010   4.466   0.800
 3059TIP3   OH2 9140   1.868   6.349   5.016
 3059TIP3    H1 9141   1.930   6.407   4.973
 3059TIP3    H2 9142   1.831   6.402   5.087
 3060TIP3   OH2 9143   4.190   0.432   0.927
 3060TIP3    H1 9144   4.118   0.414   0.866
 3060TIP3    H2 9145   4.256   0.367   0.904
 3061TIP3   OH2 9146   7.216   3.044   2.992
 3061TIP3    H1 9147   7.181   2.957   3.015
 3061TIP3    H2 9148   7.204   3.097   3.071
 3062TIP3   OH2 9149   4.985   1.849   2.064
 3062TIP3    H1 9150   5.018   1.769   2.106
 3062TIP3    H2 9151   4.914   1.878   2.122
 3063TIP3   OH2 9152   3.064   1.987   5.332
 3063TIP3    H1 9153   3.106   2.051   5.390
 3063TIP3    H2 9154   3.107   2.000   5.247
 3064TIP3   OH2 9155   5.480   1.597   0.630
 3064TIP3    H1 9156   5.464   1.650   0.708
 3064TIP3    H2 9157   5.534   1.524   0.661
 3065TIP3   OH2 9158   0.621   4.250   2.999
 3065TIP3    H1 9159   0.692   4.188   2.984
 3065TIP3    H2 9160   0.568   4.210   3.067
 3066TIP3   OH2 9161   7.149   1.281   4.724
 3066TIP3    H1 9162   7.108   1.200   4.753
 3066TIP3    H2 9163   7.174   1.326   4.805
 3067TIP3   OH2 9164   0.709   1.838   4.272
 3067TIP3    H1 9165   0.629   1.883   4.244
 3067TIP3    H2 9166   0.780   1.898   4.248
 3068TIP3   OH2 9167   2.900   3.062   0.872
 3068TIP3    H1 9168   2.830   3.128   0.868
 3068TIP3    H2 9169   2.973   3.107   0.914
 3069TIP3   OH2 9170   3.016   4.244   5.557
 3069TIP3    H1 9171   2.970   4.319   5.594
 3069TIP3    H2 9172   3.104   4.248   5.593
 3070TIP3   OH2 9173   2.901   1.333   3.984
 3070TIP3    H1 9174   2.867   1.423   3.977
 3070TIP3    H2 9175   2.851   1.294   4.055
 3071TIP3   OH2 9176   3.341   5.508   3.670
 3071TIP3    H1 9177   3.333   5.602   3.688
 3071TIP3    H2 9178   3.396   5.503   3.592
 3072TIP3   OH2 9179   2.697   3.762   1.351
 3072TIP3    H1 9180   2.680   3.704   1.277
 3072TIP3    H2 9181   2.622   3.821   1.354
 3073TIP3   OH2 9182   3.822   1.279   5.745
 3073TIP3    H1 9183   3.818   1.227   5.665
 3073TIP3    H2 9184   3.766   1.355   5.727
 3074TIP3   OH2 9185   1.273   4.890   0.254
 3074TIP3    H1 9186   1.206   4.821   0.248
 3074TIP3    H2 9187   1.235   4.954   0.314
 3075TIP3   OH2 9188   1.644   2.783   2.019
 3075TIP3    H1 9189   1.619   2.785   1.927
 3075TIP3    H2 9190   1.642   2.874   2.046
 3076TIP3   OH2 9191   0.523   0.134   5.640
 3076TIP3    H1 9192   0.558   0.163   5.724
 3076TIP3    H2 9193   0.563   0.193   5.576
 3077TIP3   OH2 9194   4.136   0.885   5.594
 3077TIP3    H1 9195   4.050   0.866   5.556
 3077TIP3    H2 9196   4.144   0.824   5.668
 3078TIP3   OH2 9197   5.823   6.616   4.352
 3078TIP3    H1 9198   5.916   6.613   4.374
 3078TIP3    H2 9199   5.814   6.696   4.300
 3079TIP3   OH2 9200   0.046   1.964   2.804
 3079TIP3    H1 9201  -0.034   1.962   2.753
 3079TIP3    H2 9202   0.094   1.885   2.777
 3080TIP3   OH2 9203   0.353   2.320   4.364
 3080TIP3    H1 9204   0.331   2.393   4.307
 3080TIP3    H2 9205   0.300   2.334   4.443
 3081TIP3   OH2 9206   3.529   4.077   3.128
 3081TIP3    H1 9207   3.563   4.165   3.111
 3081TIP3    H2 9208   3.443   4.076   3.087
 3082TIP3   OH2 9209   3.310   4.931   4.488
 3082TIP3    H1 9210   3.372   4.868   4.452
 3082TIP3    H2 9211   3.271   4.972   4.411
 3083TIP3   OH2 9212   4.196   5.911   0.217
 3083TIP3    H1 9213   4.246   5.993   0.221
 3083TIP3    H2 9214   4.163   5.907   0.128
 3084TIP3   OH2 9215   5.656   6.254   2.999
 3084TIP3    H1 9216   5.586   6.194   2.973
 3084TIP3    H2 9217   5.661   6.245   3.094
 3085TIP3   OH2 9218   3.293   0.304   0.361
 3085TIP3    H1 9219   3.354   0.257   0.304
 3085TIP3    H2 9220   3.341   0.381   0.389
 3086TIP3   OH2 9221   4.930   0.636   4.511
 3086TIP3    H1 9222   4.985   0.559   4.526
 3086TIP3    H2 9223   4.993   0.708   4.503
 3087TIP3   OH2 9224   0.430   1.773   3.386
 3087TIP3    H1 9225   0.405   1.863   3.404
 3087TIP3    H2 9226   0.440   1.769   3.291
 3088TIP3   OH2 9227   2.311   0.609   4.214
 3088TIP3    H1 9228   2.227   0.566   4.229
 3088TIP3    H2 9229   2.305   0.644   4.125
 3089TIP3   OH2 9230   2.001   6.472   4.828
 3089TIP3    H1 9231   2.018   6.529   4.753
 3089TIP3    H2 9232   2.075   6.488   4.887
 3090TIP3   OH2 9233   1.122   4.566   1.288
 3090TIP3    H1 9234   1.166   4.524   1.214
 3090TIP3    H2 9235   1.180   4.550   1.362
 3091TIP3   OH2 9236   4.498   2.078   1.586
 3091TIP3    H1 9237   4.475   2.170   1.595
 3091TIP3    H2 9238   4.578   2.068   1.637
 3092TIP3   OH2 9239   5.416   3.130   5.081
 3092TIP3    H1 9240   5.468   3.107   5.004
 3092TIP3    H2 9241   5.481   3.162   5.144
 3093TIP3   OH2 9242   2.489   5.352   0.209
 3093TIP3    H1 9243   2.518   5.416   0.275
 3093TIP3    H2 9244   2.514   5.267   0.245
 3094TIP3   OH2 9245   4.982   5.691   3.096
 3094TIP3    H1 9246   5.048   5.760   3.106
 3094TIP3    H2 9247   5.032   5.611   3.086
 3095TIP3   OH2 9248   2.762   5.164   2.212
 3095TIP3    H1 9249   2.674   5.127   2.204
 3095TIP3    H2 9250   2.807   5.136   2.132
 3096TIP3   OH2 9251   4.728   6.577   2.124
 3096TIP3    H1 9252   4.640   6.566   2.087
 3096TIP3    H2 9253   4.743   6.496   2.173
 3097TIP3   OH2 9254   3.834   4.589   4.799
 3097TIP3    H1 9255   3.741   4.587   4.778
 3097TIP3    H2 9256   3.878   4.558   4.720
 3098TIP3   OH2 9257   1.827   3.346   5.183
 3098TIP3    H1 9258   1.811   3.307   5.269
 3098TIP3    H2 9259   1.741   3.375   5.153
 3099TIP3   OH2 9260   3.790   2.577   2.817
 3099TIP3    H1 9261   3.803   2.497   2.765
 3099TIP3    H2 9262   3.866   2.631   2.800
 3100TIP3   OH2 9263   7.097   3.940   2.411
 3100TIP3    H1 9264   7.116   4.028   2.444
 3100TIP3    H2 9265   7.018   3.913   2.457
 3101TIP3   OH2 9266   3.453   0.594   4.791
 3101TIP3    H1 9267   3.437   0.557   4.704
 3101TIP3    H2 9268   3.388   0.551   4.847
 3102TIP3   OH2 9269   6.412   4.021   3.281
 3102TIP3    H1 9270   6.490   4.060   3.240
 3102TIP3    H2 9271   6.360   4.097   3.310
 3103TIP3   OH2 9272   5.045   4.630   3.806
 3103TIP3    H1 9273   5.138   4.613   3.797
 3103TIP3    H2 9274   5.037   4.682   3.886
 3104TIP3   OH2 9275   4.233   6.016   3.485
 3104TIP3    H1 9276   4.183   5.935   3.480
 3104TIP3    H2 9277   4.324   5.988   3.495
 3105TIP3   OH2 9278   0.081   0.467   2.408
 3105TIP3    H1 9279  -0.014   0.477   2.407
 3105TIP3    H2 9280   0.105   0.473   2.501
 3106TIP3   OH2 9281   6.007   5.434   1.117
 3106TIP3    H1 9282   5.993   5.466   1.028
 3106TIP3    H2 9283   6.095   5.466   1.140
 3107TIP3   OH2 9284   2.464   1.419   1.360
 3107TIP3    H1 9285   2.462   1.515   1.360
 3107TIP3    H2 9286   2.556   1.397   1.380
 3108TIP3   OH2 9287   1.464   4.417   0.889
 3108TIP3    H1 9288   1.423   4.439   0.805
 3108TIP3    H2 9289   1.511   4.496   0.914
 3109TIP3   OH2 9290   0.468   6.193   0.960
 3109TIP3    H1 9291   0.392   6.207   1.016
 3109TIP3    H2 9292   0.508   6.113   0.994
 3110TIP3   OH2 9293   4.698   5.799   4.435
 3110TIP3    H1 9294   4.695   5.822   4.528
 3110TIP3    H2 9295   4.705   5.704   4.434
 3111TIP3   OH2 9296   3.964   0.544   4.790
 3111TIP3    H1 9297   3.875   0.513   4.772
 3111TIP3    H2 9298   3.991   0.496   4.868
 3112TIP3   OH2 9299   6.106   3.161   0.538
 3112TIP3    H1 9300   6.030   3.123   0.581
 3112TIP3    H2 9301   6.176   3.097   0.552
 3113TIP3   OH2 9302   0.598   1.812   2.361
 3113TIP3    H1 9303   0.573   1.812   2.269
 3113TIP3    H2 9304   0.579   1.724   2.392
 3114TIP3   OH2 9305   6.455   3.302   1.385
 3114TIP3    H1 9306   6.526   3.357   1.418
 3114TIP3    H2 9307   6.468   3.301   1.290
 3115TIP3   OH2 9308   6.692   0.687   1.016
 3115TIP3    H1 9309   6.722   0.776   1.017
 3115TIP3    H2 9310   6.733   0.646   1.092
 3116TIP3   OH2 9311   0.625   2.151   2.809
 3116TIP3    H1 9312   0.576   2.224   2.771
 3116TIP3    H2 9313   0.716   2.170   2.788
 3117TIP3   OH2 9314   5.487   0.153   0.410
 3117TIP3    H1 9315   5.403   0.181   0.373
 3117TIP3    H2 9316   5.508   0.221   0.475
 3118TIP3   OH2 9317   4.515   1.988   0.642
 3118TIP3    H1 9318   4.569   1.925   0.690
 3118TIP3    H2 9319   4.471   2.038   0.711
 3119TIP3   OH2 9320   5.814   1.728   3.958
 3119TIP3    H1 9321   5.809   1.822   3.976
 3119TIP3    H2 9322   5.781   1.686   4.037
 3120TIP3   OH2 9323   5.048   2.615   3.953
 3120TIP3    H1 9324   5.064   2.685   3.889
 3120TIP3    H2 9325   5.106   2.635   4.025
 3121TIP3   OH2 9326   6.128   3.099   3.904
 3121TIP3    H1 9327   6.124   3.119   3.997
 3121TIP3    H2 9328   6.050   3.047   3.886
 3122TIP3   OH2 9329   2.777   3.165   1.868
 3122TIP3    H1 9330   2.775   3.253   1.902
 3122TIP3    H2 9331   2.761   3.173   1.774
 3123TIP3   OH2 9332   5.116   1.816   4.321
 3123TIP3    H1 9333   5.148   1.757   4.254
 3123TIP3    H2 9334   5.170   1.895   4.312
 3124TIP3   OH2 9335   0.112   0.179   2.294
 3124TIP3    H1 9336   0.131   0.195   2.386
 3124TIP3    H2 9337   0.184   0.221   2.247
 3125TIP3   OH2 9338   5.634   0.493   1.261
 3125TIP3    H1 9339   5.642   0.577   1.308
 3125TIP3    H2 9340   5.668   0.429   1.323
 3126TIP3   OH2 9341   2.891   5.000   4.103
 3126TIP3    H1 9342   2.877   4.945   4.181
 3126TIP3    H2 9343   2.887   5.089   4.135
 3127TIP3   OH2 9344   1.139   0.231   2.809
 3127TIP3    H1 9345   1.137   0.325   2.790
 3127TIP3    H2 9346   1.163   0.226   2.902
 3128TIP3   OH2 9347   1.808   3.525   3.946
 3128TIP3    H1 9348   1.842   3.575   4.020
 3128TIP3    H2 9349   1.741   3.582   3.908
 3129TIP3   OH2 9350   0.949   4.214   5.515
 3129TIP3    H1 9351   0.941   4.310   5.511
 3129TIP3    H2 9352   0.861   4.183   5.492
 3130TIP3   OH2 9353   4.780   1.934   3.381
 3130TIP3    H1 9354   4.738   1.964   3.301
 3130TIP3    H2 9355   4.709   1.931   3.446
 3131TIP3   OH2 9356   3.636   3.757   1.253
 3131TIP3    H1 9357   3.684   3.823   1.304
 3131TIP3    H2 9358   3.623   3.685   1.315
 3132TIP3   OH2 9359   3.193   6.479   5.704
 3132TIP3    H1 9360   3.197   6.572   5.680
 3132TIP3    H2 9361   3.127   6.475   5.773
 3133TIP3   OH2 9362   5.991   2.220   5.800
 3133TIP3    H1 9363   5.906   2.258   5.779
 3133TIP3    H2 9364   5.974   2.161   5.873
 3134TIP3   OH2 9365   7.118   5.226   2.845
 3134TIP3    H1 9366   7.033   5.255   2.879
 3134TIP3    H2 9367   7.176   5.229   2.920
 3135TIP3   OH2 9368   0.699   3.066   2.125
 3135TIP3    H1 9369   0.697   3.062   2.221
 3135TIP3    H2 9370   0.709   2.975   2.098
 3136TIP3   OH2 9371   4.336   1.281   2.877
 3136TIP3    H1 9372   4.298   1.350   2.931
 3136TIP3    H2 9373   4.430   1.294   2.882
 3137TIP3   OH2 9374   0.413   4.939   1.616
 3137TIP3    H1 9375   0.487   4.978   1.569
 3137TIP3    H2 9376   0.338   4.993   1.590
 3138TIP3   OH2 9377   5.501   5.756   1.093
 3138TIP3    H1 9378   5.489   5.806   1.174
 3138TIP3    H2 9379   5.433   5.690   1.096
 3139TIP3   OH2 9380   6.689   5.356   4.002
 3139TIP3    H1 9381   6.747   5.349   3.926
 3139TIP3    H2 9382   6.659   5.447   4.001
 3140TIP3   OH2 9383   0.846   2.561   5.627
 3140TIP3    H1 9384   0.833   2.580   5.720
 3140TIP3    H2 9385   0.905   2.630   5.597
 3141TIP3   OH2 9386   1.890   3.818   3.264
 3141TIP3    H1 9387   1.931   3.769   3.335
 3141TIP3    H2 9388   1.961   3.838   3.203
 3142TIP3   OH2 9389   5.198   4.455   5.137
 3142TIP3    H1 9390   5.150   4.484   5.059
 3142TIP3    H2 9391   5.144   4.484   5.210
 3143TIP3   OH2 9392   6.040   2.845   2.993
 3143TIP3    H1 9393   6.015   2.858   3.084
 3143TIP3    H2 9394   5.976   2.784   2.958
 3144TIP3   OH2 9395   4.175   2.851   0.855
 3144TIP3    H1 9396   4.139   2.928   0.811
 3144TIP3    H2 9397   4.207   2.884   0.939
 3145TIP3   OH2 9398   7.046   1.125   1.397
 3145TIP3    H1 9399   7.045   1.218   1.375
 3145TIP3    H2 9400   7.080   1.121   1.486
 3146TIP3   OH2 9401   1.589   2.812   1.737
 3146TIP3    H1 9402   1.640   2.883   1.696
 3146TIP3    H2 9403   1.503   2.817   1.694
 3147TIP3   OH2 9404   0.368   3.692   1.854
 3147TIP3    H1 9405   0.384   3.694   1.948
 3147TIP3    H2 9406   0.307   3.619   1.841
 3148TIP3   OH2 9407   3.446   6.036   4.513
 3148TIP3    H1 9408   3.494   6.119   4.514
 3148TIP3    H2 9409   3.514   5.970   4.499
 3149TIP3   OH2 9410   0.076   3.602   4.222
 3149TIP3    H1 9411  -0.006   3.598   4.272
 3149TIP3    H2 9412   0.127   3.670   4.265
 3150TIP3   OH2 9413   6.775   3.368   3.333
 3150TIP3    H1 9414   6.859   3.394   3.298
 3150TIP3    H2 9415   6.795   3.299   3.396
 3151TIP3   OH2 9416   3.394   1.208   3.894
 3151TIP3    H1 9417   3.459   1.279   3.890
 3151TIP3    H2 9418   3.313   1.248   3.865
 3152TIP3   OH2 9419   1.336   5.525   1.795
 3152TIP3    H1 9420   1.408   5.461   1.789
 3152TIP3    H2 9421   1.286   5.497   1.871
 3153TIP3   OH2 9422   2.732   0.859   1.090
 3153TIP3    H1 9423   2.717   0.770   1.059
 3153TIP3    H2 9424   2.797   0.850   1.159
 3154TIP3   OH2 9425   1.391   2.200   3.217
 3154TIP3    H1 9426   1.381   2.108   3.240
 3154TIP3    H2 9427   1.394   2.246   3.301
 3155TIP3   OH2 9428   4.971   1.442   5.590
 3155TIP3    H1 9429   5.031   1.398   5.651
 3155TIP3    H2 9430   5.024   1.513   5.552
 3156TIP3   OH2 9431   6.295   4.746   2.816
 3156TIP3    H1 9432   6.202   4.752   2.838
 3156TIP3    H2 9433   6.314   4.829   2.772
 3157TIP3   OH2 9434   1.065   3.659   1.130
 3157TIP3    H1 9435   1.046   3.705   1.212
 3157TIP3    H2 9436   0.994   3.686   1.071
 3158TIP3   OH2 9437   7.107   1.405   1.787
 3158TIP3    H1 9438   7.072   1.359   1.864
 3158TIP3    H2 9439   7.040   1.470   1.765
 3159TIP3   OH2 9440   2.782   6.124   3.828
 3159TIP3    H1 9441   2.751   6.073   3.753
 3159TIP3    H2 9442   2.742   6.210   3.817
 3160TIP3   OH2 9443   3.690   6.403   2.221
 3160TIP3    H1 9444   3.635   6.387   2.144
 3160TIP3    H2 9445   3.629   6.429   2.290
 3161TIP3   OH2 9446   4.114   3.528   3.729
 3161TIP3    H1 9447   4.154   3.609   3.700
 3161TIP3    H2 9448   4.051   3.554   3.796
 3162TIP3   OH2 9449   6.159   1.688   1.252
 3162TIP3    H1 9450   6.118   1.660   1.170
 3162TIP3    H2 9451   6.242   1.728   1.225
 3163TIP3   OH2 9452   0.884   3.452   5.129
 3163TIP3    H1 9453   0.899   3.390   5.201
 3163TIP3    H2 9454   0.900   3.538   5.168
 3164TIP3   OH2 9455   2.252   2.434   4.661
 3164TIP3    H1 9456   2.265   2.348   4.622
 3164TIP3    H2 9457   2.196   2.418   4.737
 3165TIP3   OH2 9458   0.283   2.734   4.932
 3165TIP3    H1 9459   0.363   2.760   4.979
 3165TIP3    H2 9460   0.290   2.638   4.926
 3166TIP3   OH2 9461   3.677   4.756   5.865
 3166TIP3    H1 9462   3.613   4.827   5.860
 3166TIP3    H2 9463   3.757   4.798   5.896
 3167TIP3   OH2 9464   3.671   5.101   4.675
 3167TIP3    H1 9465   3.697   5.063   4.592
 3167TIP3    H2 9466   3.605   5.167   4.652
 3168TIP3   OH2 9467   1.123   1.312   3.234
 3168TIP3    H1 9468   1.106   1.255   3.159
 3168TIP3    H2 9469   1.202   1.360   3.210
 3169TIP3   OH2 9470   1.800   4.472   1.690
 3169TIP3    H1 9471   1.855   4.461   1.612
 3169TIP3    H2 9472   1.736   4.539   1.665
 3170TIP3   OH2 9473   2.513   0.331   1.706
 3170TIP3    H1 9474   2.543   0.265   1.769
 3170TIP3    H2 9475   2.445   0.378   1.754
 3171TIP3   OH2 9476   0.340   2.593   1.828
 3171TIP3    H1 9477   0.399   2.540   1.882
 3171TIP3    H2 9478   0.271   2.621   1.888
 3172TIP3   OH2 9479   4.985   4.313   4.711
 3172TIP3    H1 9480   4.970   4.227   4.750
 3172TIP3    H2 9481   4.908   4.328   4.656
 3173TIP3   OH2 9482   4.417   3.449   1.183
 3173TIP3    H1 9483   4.369   3.521   1.225
 3173TIP3    H2 9484   4.441   3.391   1.256
 3174TIP3   OH2 9485   2.215   0.975   2.986
 3174TIP3    H1 9486   2.129   0.968   3.028
 3174TIP3    H2 9487   2.228   1.068   2.972
 3175TIP3   OH2 9488   1.460   0.232   1.321
 3175TIP3    H1 9489   1.451   0.140   1.297
 3175TIP3    H2 9490   1.520   0.268   1.256
 3176TIP3   OH2 9491   7.203   4.552   4.449
 3176TIP3    H1 9492   7.218   4.469   4.403
 3176TIP3    H2 9493   7.122   4.539   4.498
 3177TIP3   OH2 9494   7.181   6.054   2.279
 3177TIP3    H1 9495   7.181   6.093   2.366
 3177TIP3    H2 9496   7.120   5.981   2.284
 3178TIP3   OH2 9497   5.706   0.788   2.279
 3178TIP3    H1 9498   5.761   0.749   2.211
 3178TIP3    H2 9499   5.636   0.724   2.293
 3179TIP3   OH2 9500   0.887   5.260   3.882
 3179TIP3    H1 9501   0.804   5.270   3.929
 3179TIP3    H2 9502   0.909   5.168   3.890
 3180TIP3   OH2 9503   2.769   4.991   2.454
 3180TIP3    H1 9504   2.752   5.074   2.408
 3180TIP3    H2 9505   2.858   4.968   2.429
 3181TIP3   OH2 9506   6.539   4.477   0.150
 3181TIP3    H1 9507   6.459   4.530   0.148
 3181TIP3    H2 9508   6.555   4.455   0.058
 3182TIP3   OH2 9509   0.213   5.214   4.461
 3182TIP3    H1 9510   0.173   5.261   4.535
 3182TIP3    H2 9511   0.165   5.131   4.457
 3183TIP3   OH2 9512   6.475   5.724   5.256
 3183TIP3    H1 9513   6.425   5.688   5.182
 3183TIP3    H2 9514   6.430   5.690   5.334
 3184TIP3   OH2 9515   2.569   5.116   0.288
 3184TIP3    H1 9516   2.575   5.081   0.199
 3184TIP3    H2 9517   2.641   5.073   0.335
 3185TIP3   OH2 9518   3.214   2.812   0.565
 3185TIP3    H1 9519   3.249   2.895   0.529
 3185TIP3    H2 9520   3.255   2.744   0.513
 3186TIP3   OH2 9521   6.324   2.727   3.621
 3186TIP3    H1 9522   6.383   2.657   3.591
 3186TIP3    H2 9523   6.379   2.805   3.623
 3187TIP3   OH2 9524   1.352   5.266   0.984
 3187TIP3    H1 9525   1.421   5.203   0.966
 3187TIP3    H2 9526   1.271   5.216   0.973
 3188TIP3   OH2 9527   6.288   2.648   3.026
 3188TIP3    H1 9528   6.216   2.594   3.059
 3188TIP3    H2 9529   6.267   2.661   2.934
 3189TIP3   OH2 9530   5.209   5.088   4.016
 3189TIP3    H1 9531   5.164   5.072   3.933
 3189TIP3    H2 9532   5.253   5.005   4.035
 3190TIP3   OH2 9533   2.389   3.756   1.113
 3190TIP3    H1 9534   2.299   3.723   1.107
 3190TIP3    H2 9535   2.381   3.849   1.092
 3191TIP3   OH2 9536   3.964   3.976   0.464
 3191TIP3    H1 9537   4.055   3.954   0.485
 3191TIP3    H2 9538   3.950   4.062   0.505
 3192TIP3   OH2 9539   0.311   3.983   1.030
 3192TIP3    H1 9540   0.319   4.012   1.120
 3192TIP3    H2 9541   0.345   3.893   1.031
 3193TIP3   OH2 9542   6.477   2.580   4.824
 3193TIP3    H1 9543   6.547   2.644   4.837
 3193TIP3    H2 9544   6.491   2.548   4.734
 3194TIP3   OH2 9545   4.704   6.374   5.509
 3194TIP3    H1 9546   4.672   6.332   5.430
 3194TIP3    H2 9547   4.638   6.353   5.576
 3195TIP3   OH2 9548   5.113   2.782   2.879
 3195TIP3    H1 9549   5.132   2.843   2.808
 3195TIP3    H2 9550   5.082   2.703   2.835
 3196TIP3   OH2 9551   5.504   0.668   4.380
 3196TIP3    H1 9552   5.567   0.626   4.321
 3196TIP3    H2 9553   5.423   0.672   4.330
 3197TIP3   OH2 9554   3.504   4.565   1.141
 3197TIP3    H1 9555   3.549   4.480   1.132
 3197TIP3    H2 9556   3.411   4.543   1.139
 3198TIP3   OH2 9557   6.852   2.572   3.779
 3198TIP3    H1 9558   6.781   2.514   3.807
 3198TIP3    H2 9559   6.885   2.532   3.698
 3199TIP3   OH2 9560   4.808   3.341   4.394
 3199TIP3    H1 9561   4.814   3.434   4.370
 3199TIP3    H2 9562   4.819   3.340   4.489
 3200TIP3   OH2 9563   4.613   3.209   5.454
 3200TIP3    H1 9564   4.601   3.128   5.503
 3200TIP3    H2 9565   4.684   3.189   5.392
 3201TIP3   OH2 9566   6.815   1.433   3.023
 3201TIP3    H1 9567   6.805   1.509   3.081
 3201TIP3    H2 9568   6.869   1.464   2.951
 3202TIP3   OH2 9569   5.363   4.796   4.972
 3202TIP3    H1 9570   5.352   4.833   5.060
 3202TIP3    H2 9571   5.289   4.735   4.963
 3203TIP3   OH2 9572   7.194   3.477   5.519
 3203TIP3    H1 9573   7.153   3.547   5.469
 3203TIP3    H2 9574   7.126   3.410   5.528
 3204TIP3   OH2 9575   0.425   1.327   1.824
 3204TIP3    H1 9576   0.428   1.332   1.729
 3204TIP3    H2 9577   0.354   1.386   1.849
 3205TIP3   OH2 9578   0.004   2.359   3.182
 3205TIP3    H1 9579  -0.091   2.351   3.171
 3205TIP3    H2 9580   0.040   2.285   3.134
 3206TIP3   OH2 9581   4.774   1.342   2.346
 3206TIP3    H1 9582   4.679   1.348   2.357
 3206TIP3    H2 9583   4.809   1.417   2.394
 3207TIP3   OH2 9584   6.730   3.153   0.440
 3207TIP3    H1 9585   6.781   3.123   0.515
 3207TIP3    H2 9586   6.639   3.152   0.470
 3208TIP3   OH2 9587   1.412   1.326   0.323
 3208TIP3    H1 9588   1.501   1.308   0.292
 3208TIP3    H2 9589   1.420   1.330   0.418
 3209TIP3   OH2 9590   1.895   1.508   4.556
 3209TIP3    H1 9591   1.945   1.428   4.574
 3209TIP3    H2 9592   1.804   1.482   4.564
 3210TIP3   OH2 9593   4.743   5.053   4.767
 3210TIP3    H1 9594   4.708   5.005   4.693
 3210TIP3    H2 9595   4.670   5.108   4.797
 3211TIP3   OH2 9596   5.945   5.457   0.350
 3211TIP3    H1 9597   6.002   5.527   0.318
 3211TIP3    H2 9598   5.914   5.488   0.435
 3212TIP3   OH2 9599   1.292   3.777   0.492
 3212TIP3    H1 9600   1.282   3.766   0.398
 3212TIP3    H2 9601   1.369   3.726   0.515
 3213TIP3   OH2 9602   4.189   5.252   1.760
 3213TIP3    H1 9603   4.280   5.283   1.753
 3213TIP3    H2 9604   4.151   5.271   1.675
 3214TIP3   OH2 9605   4.198   6.236   1.751
 3214TIP3    H1 9606   4.191   6.307   1.815
 3214TIP3    H2 9607   4.220   6.280   1.669
 3215TIP3   OH2 9608   2.245   0.164   2.317
 3215TIP3    H1 9609   2.251   0.069   2.308
 3215TIP3    H2 9610   2.327   0.190   2.358
 3216TIP3   OH2 9611   1.465   2.439   2.193
 3216TIP3    H1 9612   1.507   2.410   2.112
 3216TIP3    H2 9613   1.507   2.522   2.214
 3217TIP3   OH2 9614   1.811   0.936   5.338
 3217TIP3    H1 9615   1.825   1.021   5.297
 3217TIP3    H2 9616   1.728   0.945   5.384
 3218TIP3   OH2 9617   2.043   3.903   1.088
 3218TIP3    H1 9618   1.998   3.928   1.169
 3218TIP3    H2 9619   2.071   3.812   1.103
 3219TIP3   OH2 9620   4.149   0.032   4.663
 3219TIP3    H1 9621   4.157  -0.051   4.710
 3219TIP3    H2 9622   4.121   0.007   4.575
 3220TIP3   OH2 9623   6.105   6.621   4.433
 3220TIP3    H1 9624   6.080   6.641   4.524
 3220TIP3    H2 9625   6.144   6.534   4.438
 3221TIP3   OH2 9626   3.333   2.665   4.341
 3221TIP3    H1 9627   3.360   2.756   4.331
 3221TIP3    H2 9628   3.302   2.639   4.254
 3222TIP3   OH2 9629   4.141   2.516   2.731
 3222TIP3    H1 9630   4.192   2.597   2.730
 3222TIP3    H2 9631   4.073   2.531   2.666
 3223TIP3   OH2 9632   1.864   6.421   3.884
 3223TIP3    H1 9633   1.942   6.470   3.856
 3223TIP3    H2 9634   1.895   6.331   3.892
 3224TIP3   OH2 9635   4.023   3.822   3.881
 3224TIP3    H1 9636   4.027   3.776   3.964
 3224TIP3    H2 9637   4.068   3.905   3.897
 3225TIP3   OH2 9638   1.941   1.520   3.438
 3225TIP3    H1 9639   2.018   1.567   3.471
 3225TIP3    H2 9640   1.879   1.588   3.413
 3226TIP3   OH2 9641   1.558   2.676   3.870
 3226TIP3    H1 9642   1.642   2.717   3.847
 3226TIP3    H2 9643   1.546   2.697   3.962
 3227TIP3   OH2 9644   3.521   3.502   2.380
 3227TIP3    H1 9645   3.444   3.475   2.329
 3227TIP3    H2 9646   3.596   3.469   2.330
 3228TIP3   OH2 9647   4.030   5.935   4.923
 3228TIP3    H1 9648   4.115   5.922   4.966
 3228TIP3    H2 9649   3.997   6.017   4.958
 3229TIP3   OH2 9650   4.223   3.921   0.812
 3229TIP3    H1 9651   4.228   3.843   0.868
 3229TIP3    H2 9652   4.154   3.974   0.851
 3230TIP3   OH2 9653   7.002   4.486   4.637
 3230TIP3    H1 9654   6.961   4.439   4.710
 3230TIP3    H2 9655   6.937   4.482   4.567
 3231TIP3   OH2 9656   3.471   1.533   0.151
 3231TIP3    H1 9657   3.523   1.523   0.231
 3231TIP3    H2 9658   3.382   1.511   0.177
 3232TIP3   OH2 9659   6.700   1.038   4.201
 3232TIP3    H1 9660   6.780   1.035   4.254
 3232TIP3    H2 9661   6.635   1.079   4.257
 3233TIP3   OH2 9662   5.194   5.570   5.040
 3233TIP3    H1 9663   5.130   5.537   5.103
 3233TIP3    H2 9664   5.266   5.603   5.094
 3234TIP3   OH2 9665   4.941   3.904   2.598
 3234TIP3    H1 9666   5.003   3.895   2.670
 3234TIP3    H2 9667   4.995   3.902   2.519
 3235TIP3   OH2 9668   1.196   5.854   4.126
 3235TIP3    H1 9669   1.259   5.889   4.062
 3235TIP3    H2 9670   1.240   5.779   4.164
 3236TIP3   OH2 9671   1.620   3.477   3.247
 3236TIP3    H1 9672   1.616   3.561   3.293
 3236TIP3    H2 9673   1.597   3.498   3.156
 3237TIP3   OH2 9674   5.291   6.074   2.716
 3237TIP3    H1 9675   5.229   6.146   2.726
 3237TIP3    H2 9676   5.362   6.095   2.776
 3238TIP3   OH2 9677   6.384   1.314   5.239
 3238TIP3    H1 9678   6.459   1.373   5.239
 3238TIP3    H2 9679   6.368   1.295   5.332
 3239TIP3   OH2 9680   3.501   2.144   0.544
 3239TIP3    H1 9681   3.561   2.219   0.552
 3239TIP3    H2 9682   3.442   2.168   0.473
 3240TIP3   OH2 9683   1.869   0.302   4.184
 3240TIP3    H1 9684   1.824   0.366   4.239
 3240TIP3    H2 9685   1.954   0.289   4.226
 3241TIP3   OH2 9686   3.547   4.403   4.534
 3241TIP3    H1 9687   3.612   4.353   4.583
 3241TIP3    H2 9688   3.575   4.396   4.443
 3242TIP3   OH2 9689   4.363   5.476   0.713
 3242TIP3    H1 9690   4.334   5.564   0.734
 3242TIP3    H2 9691   4.420   5.486   0.637
 3243TIP3   OH2 9692   2.774   6.641   0.180
 3243TIP3    H1 9693   2.766   6.545   0.180
 3243TIP3    H2 9694   2.700   6.671   0.127
 3244TIP3   OH2 9695   2.607   0.162   2.773
 3244TIP3    H1 9696   2.620   0.149   2.867
 3244TIP3    H2 9697   2.651   0.243   2.753
 3245TIP3   OH2 9698   3.430   1.702   4.265
 3245TIP3    H1 9699   3.517   1.710   4.225
 3245TIP3    H2 9700   3.389   1.629   4.219
 3246TIP3   OH2 9701   6.375   6.036   5.135
 3246TIP3    H1 9702   6.333   5.979   5.200
 3246TIP3    H2 9703   6.445   6.079   5.183
 3247TIP3   OH2 9704   5.976   3.545   5.217
 3247TIP3    H1 9705   6.057   3.495   5.216
 3247TIP3    H2 9706   5.929   3.517   5.139
 3248TIP3   OH2 9707   6.800   4.436   4.378
 3248TIP3    H1 9708   6.825   4.522   4.343
 3248TIP3    H2 9709   6.713   4.420   4.343
 3249TIP3   OH2 9710   4.228   2.119   2.331
 3249TIP3    H1 9711   4.207   2.169   2.409
 3249TIP3    H2 9712   4.283   2.178   2.278
 3250TIP3   OH2 9713   1.666   3.780   3.929
 3250TIP3    H1 9714   1.680   3.853   3.869
 3250TIP3    H2 9715   1.702   3.809   4.012
 3251TIP3   OH2 9716   1.383   2.318   0.895
 3251TIP3    H1 9717   1.380   2.330   0.990
 3251TIP3    H2 9718   1.333   2.238   0.880
 3252TIP3   OH2 9719   2.214   4.983   3.131
 3252TIP3    H1 9720   2.286   5.038   3.162
 3252TIP3    H2 9721   2.173   5.036   3.062
 3253TIP3   OH2 9722   0.193   6.102   0.796
 3253TIP3    H1 9723   0.113   6.056   0.822
 3253TIP3    H2 9724   0.252   6.032   0.767
 3254TIP3   OH2 9725   1.922   5.245   4.628
 3254TIP3    H1 9726   1.994   5.190   4.596
 3254TIP3    H2 9727   1.949   5.334   4.606
 3255TIP3   OH2 9728   6.224   4.375   5.065
 3255TIP3    H1 9729   6.300   4.434   5.065
 3255TIP3    H2 9730   6.152   4.429   5.033
 3256TIP3   OH2 9731   3.295   2.894   5.444
 3256TIP3    H1 9732   3.301   2.840   5.366
 3256TIP3    H2 9733   3.353   2.968   5.426
 3257TIP3   OH2 9734   2.700   3.630   3.728
 3257TIP3    H1 9735   2.650   3.702   3.768
 3257TIP3    H2 9736   2.730   3.666   3.645
 3258TIP3   OH2 9737   1.329   0.484   4.124
 3258TIP3    H1 9738   1.398   0.524   4.176
 3258TIP3    H2 9739   1.273   0.439   4.187
 3259TIP3   OH2 9740   0.715   3.625   0.075
 3259TIP3    H1 9741   0.632   3.579   0.079
 3259TIP3    H2 9742   0.710   3.676  -0.006
 3260TIP3   OH2 9743   6.924   2.260   0.196
 3260TIP3    H1 9744   6.937   2.171   0.225
 3260TIP3    H2 9745   7.003   2.306   0.225
 3261TIP3   OH2 9746   2.141   0.868   0.009
 3261TIP3    H1 9747   2.097   0.891   0.090
 3261TIP3    H2 9748   2.113   0.935  -0.054
 3262TIP3   OH2 9749   4.433   4.649   4.424
 3262TIP3    H1 9750   4.525   4.659   4.400
 3262TIP3    H2 9751   4.385   4.694   4.355
 3263TIP3   OH2 9752   6.773   6.728   3.934
 3263TIP3    H1 9753   6.721   6.761   4.007
 3263TIP3    H2 9754   6.837   6.669   3.974
 3264TIP3   OH2 9755   3.571   3.792   4.365
 3264TIP3    H1 9756   3.480   3.766   4.380
 3264TIP3    H2 9757   3.589   3.857   4.433
 3265TIP3   OH2 9758   3.957   2.806   0.601
 3265TIP3    H1 9759   3.955   2.901   0.611
 3265TIP3    H2 9760   4.050   2.784   0.591
 3266TIP3   OH2 9761   3.178   4.538   1.697
 3266TIP3    H1 9762   3.091   4.497   1.702
 3266TIP3    H2 9763   3.239   4.469   1.723
 3267TIP3   OH2 9764   7.058   3.144   0.220
 3267TIP3    H1 9765   7.114   3.067   0.230
 3267TIP3    H2 9766   7.118   3.218   0.225
 3268TIP3   OH2 9767   6.644   3.367   5.479
 3268TIP3    H1 9768   6.695   3.331   5.406
 3268TIP3    H2 9769   6.662   3.309   5.553
 3269TIP3   OH2 9770   0.519   1.420   4.160
 3269TIP3    H1 9771   0.562   1.485   4.216
 3269TIP3    H2 9772   0.482   1.471   4.089
 3270TIP3   OH2 9773   3.068   5.304   4.628
 3270TIP3    H1 9774   3.101   5.257   4.705
 3270TIP3    H2 9775   3.147   5.329   4.580
 3271TIP3   OH2 9776   6.650   4.840   3.924
 3271TIP3    H1 9777   6.676   4.757   3.884
 3271TIP3    H2 9778   6.641   4.820   4.017
 3272TIP3   OH2 9779   3.059   2.293   5.711
 3272TIP3    H1 9780   3.134   2.235   5.725
 3272TIP3    H2 9781   3.098   2.379   5.697
 3273TIP3   OH2 9782   2.287   5.598   1.511
 3273TIP3    H1 9783   2.207   5.649   1.505
 3273TIP3    H2 9784   2.299   5.560   1.424
 3274TIP3   OH2 9785   0.284   6.330   3.308
 3274TIP3    H1 9786   0.266   6.327   3.401
 3274TIP3    H2 9787   0.198   6.323   3.266
 3275TIP3   OH2 9788   0.405   6.114   1.773
 3275TIP3    H1 9789   0.450   6.029   1.768
 3275TIP3    H2 9790   0.312   6.091   1.774
 3276TIP3   OH2 9791   2.229   0.741   5.011
 3276TIP3    H1 9792   2.237   0.751   4.916
 3276TIP3    H2 9793   2.184   0.658   5.023
 3277TIP3   OH2 9794   6.714   6.414   0.925
 3277TIP3    H1 9795   6.707   6.501   0.964
 3277TIP3    H2 9796   6.628   6.375   0.941
 3278TIP3   OH2 9797   0.556   1.785   0.333
 3278TIP3    H1 9798   0.593   1.865   0.295
 3278TIP3    H2 9799   0.562   1.720   0.262
 3279TIP3   OH2 9800   1.912   4.295   2.157
 3279TIP3    H1 9801   1.868   4.303   2.072
 3279TIP3    H2 9802   1.954   4.380   2.169
 3280TIP3   OH2 9803   1.361   3.152   3.127
 3280TIP3    H1 9804   1.372   3.225   3.066
 3280TIP3    H2 9805   1.282   3.107   3.098
 3281TIP3   OH2 9806   5.382   6.088   4.215
 3281TIP3    H1 9807   5.393   5.997   4.243
 3281TIP3    H2 9808   5.414   6.140   4.288
 3282TIP3   OH2 9809   0.339   1.848   3.735
 3282TIP3    H1 9810   0.413   1.788   3.746
 3282TIP3    H2 9811   0.286   1.809   3.667
 3283TIP3   OH2 9812   5.981   4.306   4.538
 3283TIP3    H1 9813   5.910   4.259   4.495
 3283TIP3    H2 9814   6.044   4.238   4.562
 3284TIP3   OH2 9815   2.035   5.105   3.998
 3284TIP3    H1 9816   2.114   5.091   3.947
 3284TIP3    H2 9817   1.964   5.101   3.934
 3285TIP3   OH2 9818   6.709   0.275   5.799
 3285TIP3    H1 9819   6.719   0.224   5.718
 3285TIP3    H2 9820   6.744   0.217   5.867
 3286TIP3   OH2 9821   2.828   4.037   2.109
 3286TIP3    H1 9822   2.745   3.990   2.104
 3286TIP3    H2 9823   2.825   4.081   2.194
 3287TIP3   OH2 9824   2.267   2.858   2.090
 3287TIP3    H1 9825   2.307   2.832   2.008
 3287TIP3    H2 9826   2.323   2.928   2.124
 3288TIP3   OH2 9827   1.001   4.623   2.933
 3288TIP3    H1 9828   1.083   4.601   2.890
 3288TIP3    H2 9829   0.941   4.552   2.910
 3289TIP3   OH2 9830   4.619   2.693   0.529
 3289TIP3    H1 9831   4.581   2.780   0.540
 3289TIP3    H2 9832   4.661   2.674   0.613
 3290TIP3   OH2 9833   0.346   3.329   3.725
 3290TIP3    H1 9834   0.302   3.385   3.789
 3290TIP3    H2 9835   0.367   3.250   3.774
 3291TIP3   OH2 9836   3.177   3.743   4.076
 3291TIP3    H1 9837   3.209   3.731   3.986
 3291TIP3    H2 9838   3.204   3.664   4.122
 3292TIP3   OH2 9839   2.535   4.342   0.509
 3292TIP3    H1 9840   2.553   4.253   0.540
 3292TIP3    H2 9841   2.540   4.335   0.413
 3293TIP3   OH2 9842   7.144   1.808   5.661
 3293TIP3    H1 9843   7.216   1.786   5.719
 3293TIP3    H2 9844   7.110   1.891   5.695
 3294TIP3   OH2 9845   2.930   4.850   3.462
 3294TIP3    H1 9846   3.020   4.858   3.493
 3294TIP3    H2 9847   2.877   4.890   3.532
 3295TIP3   OH2 9848   5.820   3.289   0.026
 3295TIP3    H1 9849   5.791   3.228  -0.041
 3295TIP3    H2 9850   5.740   3.311   0.074
 3296TIP3   OH2 9851   6.727   4.239   1.251
 3296TIP3    H1 9852   6.704   4.157   1.208
 3296TIP3    H2 9853   6.820   4.232   1.270
 3297TIP3   OH2 9854   4.060   6.085   1.547
 3297TIP3    H1 9855   3.981   6.134   1.567
 3297TIP3    H2 9856   4.112   6.090   1.627
 3298TIP3   OH2 9857   6.729   5.649   0.645
 3298TIP3    H1 9858   6.702   5.557   0.648
 3298TIP3    H2 9859   6.820   5.647   0.617
 3299TIP3   OH2 9860   1.248   2.223   2.567
 3299TIP3    H1 9861   1.246   2.234   2.662
 3299TIP3    H2 9862   1.162   2.252   2.538
 3300TIP3   OH2 9863   1.929   2.701   5.642
 3300TIP3    H1 9864   1.957   2.773   5.698
 3300TIP3    H2 9865   1.991   2.702   5.569
 3301TIP3   OH2 9866   6.977   3.624   1.039
 3301TIP3    H1 9867   6.999   3.543   1.084
 3301TIP3    H2 9868   6.900   3.657   1.086
 3302TIP3   OH2 9869   6.199   4.605   0.421
 3302TIP3    H1 9870   6.154   4.535   0.375
 3302TIP3    H2 9871   6.129   4.665   0.448
 3303TIP3   OH2 9872   0.441   0.304   5.227
 3303TIP3    H1 9873   0.474   0.353   5.152
 3303TIP3    H2 9874   0.345   0.304   5.216
 3304TIP3   OH2 9875   1.296   3.707   5.548
 3304TIP3    H1 9876   1.347   3.673   5.475
 3304TIP3    H2 9877   1.269   3.629   5.597
 3305TIP3   OH2 9878   6.767   2.510   0.073
 3305TIP3    H1 9879   6.737   2.487  -0.015
 3305TIP3    H2 9880   6.757   2.606   0.077
 3306TIP3   OH2 9881   5.186   1.971   0.434
 3306TIP3    H1 9882   5.187   2.065   0.416
 3306TIP3    H2 9883   5.193   1.965   0.529
 3307TIP3   OH2 9884   1.541   1.667   2.129
 3307TIP3    H1 9885   1.447   1.657   2.115
 3307TIP3    H2 9886   1.580   1.592   2.083
 3308TIP3   OH2 9887   6.024   5.992   0.641
 3308TIP3    H1 9888   5.939   6.025   0.669
 3308TIP3    H2 9889   6.023   5.999   0.546
 3309TIP3   OH2 9890   1.973   0.727   1.149
 3309TIP3    H1 9891   2.035   0.657   1.171
 3309TIP3    H2 9892   1.888   0.693   1.175
 3310TIP3   OH2 9893   5.705   6.117   4.278
 3310TIP3    H1 9894   5.614   6.147   4.279
 3310TIP3    H2 9895   5.751   6.178   4.335
 3311TIP3   OH2 9896   5.472   2.486   1.295
 3311TIP3    H1 9897   5.377   2.488   1.283
 3311TIP3    H2 9898   5.507   2.510   1.210
 3312TIP3   OH2 9899   2.742   2.308   0.945
 3312TIP3    H1 9900   2.725   2.402   0.943
 3312TIP3    H2 9901   2.766   2.286   0.855
 3313TIP3   OH2 9902   5.128   6.541   5.809
 3313TIP3    H1 9903   5.120   6.554   5.715
 3313TIP3    H2 9904   5.156   6.449   5.819
 3314TIP3   OH2 9905   6.005   1.709   1.603
 3314TIP3    H1 9906   6.061   1.768   1.552
 3314TIP3    H2 9907   5.924   1.704   1.552
 3315TIP3   OH2 9908   5.994   3.655   1.923
 3315TIP3    H1 9909   6.065   3.719   1.920
 3315TIP3    H2 9910   5.968   3.644   1.832
 3316TIP3   OH2 9911   4.808   3.659   1.627
 3316TIP3    H1 9912   4.775   3.711   1.554
 3316TIP3    H2 9913   4.874   3.601   1.588
 3317TIP3   OH2 9914   0.262   1.405   2.384
 3317TIP3    H1 9915   0.166   1.410   2.383
 3317TIP3    H2 9916   0.289   1.472   2.448
 3318TIP3   OH2 9917   3.222   6.793   1.360
 3318TIP3    H1 9918   3.267   6.877   1.357
 3318TIP3    H2 9919   3.158   6.803   1.430
 3319TIP3   OH2 9920   0.696   2.880   0.874
 3319TIP3    H1 9921   0.608   2.917   0.867
 3319TIP3    H2 9922   0.731   2.883   0.785
 3320TIP3   OH2 9923   3.762   4.166   1.347
 3320TIP3    H1 9924   3.832   4.118   1.391
 3320TIP3    H2 9925   3.765   4.136   1.256
 3321TIP3   OH2 9926   1.477   3.251   2.861
 3321TIP3    H1 9927   1.534   3.297   2.799
 3321TIP3    H2 9928   1.536   3.220   2.929
 3322TIP3   OH2 9929   0.615   0.268   2.871
 3322TIP3    H1 9930   0.586   0.182   2.900
 3322TIP3    H2 9931   0.678   0.250   2.801
 3323TIP3   OH2 9932   7.067   2.486   0.628
 3323TIP3    H1 9933   7.079   2.486   0.723
 3323TIP3    H2 9934   7.113   2.564   0.598
 3324TIP3   OH2 9935   1.767   5.247   2.218
 3324TIP3    H1 9936   1.718   5.304   2.159
 3324TIP3    H2 9937   1.855   5.243   2.181
 3325TIP3   OH2 9938   5.086   2.815   0.208
 3325TIP3    H1 9939   5.089   2.908   0.233
 3325TIP3    H2 9940   5.046   2.816   0.121
 3326TIP3   OH2 9941   0.759   0.010   0.317
 3326TIP3    H1 9942   0.692   0.075   0.338
 3326TIP3    H2 9943   0.842   0.058   0.322
 3327TIP3   OH2 9944   0.821   6.384   0.703
 3327TIP3    H1 9945   0.792   6.461   0.655
 3327TIP3    H2 9946   0.917   6.390   0.702
 3328TIP3   OH2 9947   1.198   2.948   5.670
 3328TIP3    H1 9948   1.120   2.905   5.634
 3328TIP3    H2 9949   1.246   2.978   5.593
 3329TIP3   OH2 9950   4.318   1.482   0.089
 3329TIP3    H1 9951   4.361   1.397   0.099
 3329TIP3    H2 9952   4.280   1.500   0.176
 3330TIP3   OH2 9953   5.886   5.572   0.587
 3330TIP3    H1 9954   5.803   5.547   0.626
 3330TIP3    H2 9955   5.889   5.668   0.596
 3331TIP3   OH2 9956   5.842   3.571   3.390
 3331TIP3    H1 9957   5.853   3.641   3.326
 3331TIP3    H2 9958   5.931   3.556   3.424
 3332TIP3   OH2 9959   4.458   0.070   2.649
 3332TIP3    H1 9960   4.444  -0.019   2.680
 3332TIP3    H2 9961   4.547   0.092   2.679
 3333TIP3   OH2 9962   5.746   3.325   1.109
 3333TIP3    H1 9963   5.703   3.291   1.030
 3333TIP3    H2 9964   5.710   3.413   1.119
 3334TIP3   OH2 9965   4.942   2.244   0.565
 3334TIP3    H1 9966   4.962   2.332   0.595
 3334TIP3    H2 9967   5.001   2.230   0.491
 3335TIP3   OH2 9968   5.766   6.511   5.079
 3335TIP3    H1 9969   5.821   6.531   5.155
 3335TIP3    H2 9970   5.777   6.586   5.021
 3336TIP3   OH2 9971   2.589   0.104   2.176
 3336TIP3    H1 9972   2.552   0.149   2.252
 3336TIP3    H2 9973   2.662   0.053   2.211
 3337TIP3   OH2 9974   6.524   1.353   0.564
 3337TIP3    H1 9975   6.507   1.438   0.523
 3337TIP3    H2 9976   6.546   1.373   0.655
 3338TIP3   OH2 9977   5.478   2.273   2.632
 3338TIP3    H1 9978   5.519   2.330   2.697
 3338TIP3    H2 9979   5.384   2.279   2.652
 3339TIP3   OH2 9980   2.998   1.534   3.425
 3339TIP3    H1 9981   2.986   1.627   3.406
 3339TIP3    H2 9982   2.986   1.527   3.519
 3340TIP3   OH2 9983   6.318   4.240   5.390
 3340TIP3    H1 9984   6.237   4.260   5.343
 3340TIP3    H2 9985   6.350   4.325   5.420
 3341TIP3   OH2 9986   2.764   2.434   1.222
 3341TIP3    H1 9987   2.811   2.405   1.144
 3341TIP3    H2 9988   2.829   2.429   1.292
 3342TIP3   OH2 9989   6.362   5.822   1.914
 3342TIP3    H1 9990   6.306   5.878   1.860
 3342TIP3    H2 9991   6.301   5.775   1.971
 3343TIP3   OH2 9992   1.932   0.449   0.562
 3343TIP3    H1 9993   1.969   0.424   0.647
 3343TIP3    H2 9994   1.897   0.367   0.527
 3344TIP3   OH2 9995   4.915   3.119   3.270
 3344TIP3    H1 9996   4.931   3.137   3.177
 3344TIP3    H2 9997   4.992   3.069   3.298
 3345TIP3   OH2 9998   1.011   0.532   2.223
 3345TIP3    H1 9999   1.086   0.579   2.188
 3345TIP3    H210000   0.936   0.566   2.174
 3346TIP3   OH210001   7.163   4.981   0.699
 3346TIP3    H110002   7.153   4.936   0.783
 3346TIP3    H210003   7.074   5.009   0.677
 3347TIP3   OH210004   4.761   0.302   4.105
 3347TIP3    H110005   4.737   0.394   4.105
 3347TIP3    H210006   4.743   0.273   4.195
 3348TIP3   OH210007   7.088   3.627   5.029
 3348TIP3    H110008   7.153   3.566   4.995
 3348TIP3    H210009   7.055   3.585   5.109
 3349TIP3   OH210010   1.449   5.009   3.861
 3349TIP3    H110011   1.540   5.025   3.885
 3349TIP3    H210012   1.402   5.086   3.893
 3350TIP3   OH210013   1.223   5.908   4.562
 3350TIP3    H110014   1.214   5.984   4.504
 3350TIP3    H210015   1.161   5.844   4.527
 3351TIP3   OH210016   0.723   3.283   5.768
 3351TIP3    H110017   0.797   3.327   5.811
 3351TIP3    H210018   0.723   3.319   5.679
 3352TIP3   OH210019   7.157   2.326   3.661
 3352TIP3    H110020   7.166   2.393   3.729
 3352TIP3    H210021   7.094   2.264   3.697
 3353TIP3   OH210022   5.385   2.926   2.736
 3353TIP3    H110023   5.367   3.020   2.737
 3353TIP3    H210024   5.302   2.886   2.713
 3354TIP3   OH210025   0.469   1.752   4.417
 3354TIP3    H110026   0.431   1.664   4.411
 3354TIP3    H210027   0.501   1.770   4.328
 3355TIP3   OH210028   3.515   3.671   5.884
 3355TIP3    H110029   3.588   3.677   5.823
 3355TIP3    H210030   3.523   3.749   5.939
 3356TIP3   OH210031   3.779   0.987   2.528
 3356TIP3    H110032   3.755   1.074   2.559
 3356TIP3    H210033   3.712   0.929   2.564
 3357TIP3   OH210034   5.238   4.000   5.062
 3357TIP3    H110035   5.268   3.982   5.152
 3357TIP3    H210036   5.319   4.015   5.013
 3358TIP3   OH210037   2.693   1.929   5.896
 3358TIP3    H110038   2.725   1.938   5.807
 3358TIP3    H210039   2.725   1.844   5.926
 3359TIP3   OH210040   4.856   4.192   2.925
 3359TIP3    H110041   4.907   4.176   3.005
 3359TIP3    H210042   4.819   4.107   2.903
 3360TIP3   OH210043   0.156   1.416   1.589
 3360TIP3    H110044   0.145   1.442   1.681
 3360TIP3    H210045   0.223   1.476   1.555
 3361TIP3   OH210046   6.612   5.258   3.133
 3361TIP3    H110047   6.538   5.205   3.159
 3361TIP3    H210048   6.689   5.210   3.163
 3362TIP3   OH210049   6.766   1.845   0.148
 3362TIP3    H110050   6.832   1.888   0.094
 3362TIP3    H210051   6.752   1.905   0.221
 3363TIP3   OH210052   0.815   1.343   0.287
 3363TIP3    H110053   0.864   1.325   0.367
 3363TIP3    H210054   0.724   1.325   0.309
 3364TIP3   OH210055   0.567   3.326   4.670
 3364TIP3    H110056   0.612   3.354   4.750
 3364TIP3    H210057   0.637   3.302   4.610
 3365TIP3   OH210058   0.215   4.506   4.932
 3365TIP3    H110059   0.141   4.491   4.874
 3365TIP3    H210060   0.176   4.545   5.011
 3366TIP3   OH210061   4.828   5.081   0.307
 3366TIP3    H110062   4.794   5.144   0.242
 3366TIP3    H210063   4.811   5.123   0.391
 3367TIP3   OH210064   5.449   4.349   5.205
 3367TIP3    H110065   5.361   4.386   5.202
 3367TIP3    H210066   5.448   4.290   5.281
 3368TIP3   OH210067   2.158   5.781   5.460
 3368TIP3    H110068   2.096   5.853   5.452
 3368TIP3    H210069   2.244   5.824   5.459
 3369TIP3   OH210070   0.484   1.078   2.914
 3369TIP3    H110071   0.445   1.164   2.932
 3369TIP3    H210072   0.564   1.078   2.966
 3370TIP3   OH210073   4.222   2.074   5.791
 3370TIP3    H110074   4.239   1.995   5.740
 3370TIP3    H210075   4.206   2.142   5.726
 3371TIP3   OH210076   4.706   0.213   5.487
 3371TIP3    H110077   4.735   0.142   5.544
 3371TIP3    H210078   4.737   0.293   5.530
 3372TIP3   OH210079   2.663   2.708   4.570
 3372TIP3    H110080   2.675   2.669   4.656
 3372TIP3    H210081   2.609   2.645   4.522
 3373TIP3   OH210082   3.093   6.641   4.056
 3373TIP3    H110083   3.111   6.565   4.111
 3373TIP3    H210084   3.147   6.629   3.978
 3374TIP3   OH210085   6.553   4.317   5.777
 3374TIP3    H110086   6.552   4.299   5.683
 3374TIP3    H210087   6.606   4.396   5.787
 3375TIP3   OH210088   4.339   4.157   1.047
 3375TIP3    H110089   4.369   4.241   1.012
 3375TIP3    H210090   4.263   4.134   0.994
 3376TIP3   OH210091   6.634   3.848   3.372
 3376TIP3    H110092   6.634   3.755   3.348
 3376TIP3    H210093   6.606   3.893   3.292
 3377TIP3   OH210094   3.840   2.179   1.235
 3377TIP3    H110095   3.761   2.139   1.197
 3377TIP3    H210096   3.881   2.108   1.284
 3378TIP3   OH210097   3.798   1.735   5.815
 3378TIP3    H110098   3.811   1.745   5.909
 3378TIP3    H210099   3.778   1.823   5.784
 3379TIP3   OH210100   6.818   5.991   1.153
 3379TIP3    H110101   6.825   5.898   1.133
 3379TIP3    H210102   6.833   5.996   1.248
 3380TIP3   OH210103   2.833   0.954   3.840
 3380TIP3    H110104   2.763   1.009   3.875
 3380TIP3    H210105   2.794   0.866   3.834
 3381TIP3   OH210106   6.538   2.481   4.224
 3381TIP3    H110107   6.614   2.536   4.203
 3381TIP3    H210108   6.568   2.392   4.207
 3382TIP3   OH210109   2.263   1.564   1.772
 3382TIP3    H110110   2.278   1.470   1.783
 3382TIP3    H210111   2.337   1.605   1.817
 3383TIP3   OH210112   2.700   6.500   2.390
 3383TIP3    H110113   2.790   6.466   2.383
 3383TIP3    H210114   2.705   6.589   2.355
 3384TIP3   OH210115   4.893   6.497   1.570
 3384TIP3    H110116   4.898   6.593   1.566
 3384TIP3    H210117   4.981   6.469   1.595
 3385TIP3   OH210118   0.041   5.128   5.307
 3385TIP3    H110119   0.016   5.036   5.299
 3385TIP3    H210120   0.076   5.136   5.396
 3386TIP3   OH210121   3.325   0.067   5.435
 3386TIP3    H110122   3.280   0.140   5.392
 3386TIP3    H210123   3.261   0.033   5.497
 3387TIP3   OH210124   5.583   6.001   4.571
 3387TIP3    H110125   5.599   6.095   4.569
 3387TIP3    H210126   5.537   5.986   4.653
 3388TIP3   OH210127   0.610   6.759   3.942
 3388TIP3    H110128   0.648   6.790   4.025
 3388TIP3    H210129   0.676   6.699   3.907
 3389TIP3   OH210130   0.149   0.944   4.885
 3389TIP3    H110131   0.094   0.958   4.809
 3389TIP3    H210132   0.172   1.032   4.915
 3390TIP3   OH210133   4.802   0.027   0.079
 3390TIP3    H110134   4.756  -0.037   0.132
 3390TIP3    H210135   4.736   0.094   0.060
 3391TIP3   OH210136   6.785   5.677   4.774
 3391TIP3    H110137   6.758   5.651   4.862
 3391TIP3    H210138   6.847   5.749   4.788
 3392TIP3   OH210139   3.821   4.573   5.104
 3392TIP3    H110140   3.730   4.579   5.132
 3392TIP3    H210141   3.817   4.584   5.009
 3393TIP3   OH210142   4.769   0.614   4.273
 3393TIP3    H110143   4.838   0.632   4.208
 3393TIP3    H210144   4.818   0.594   4.353
 3394TIP3   OH210145   0.198   1.417   3.252
 3394TIP3    H110146   0.179   1.347   3.314
 3394TIP3    H210147   0.293   1.418   3.246
 3395TIP3   OH210148   6.550   0.884   4.489
 3395TIP3    H110149   6.600   0.833   4.552
 3395TIP3    H210150   6.528   0.821   4.419
 3396TIP3   OH210151   6.964   4.420   3.784
 3396TIP3    H110152   7.007   4.434   3.700
 3396TIP3    H210153   7.021   4.359   3.830
 3397TIP3   OH210154   4.869   5.386   0.890
 3397TIP3    H110155   4.808   5.434   0.945
 3397TIP3    H210156   4.873   5.437   0.809
 3398TIP3   OH210157   3.974   0.845   3.799
 3398TIP3    H110158   3.998   0.766   3.753
 3398TIP3    H210159   4.006   0.832   3.888
 3399TIP3   OH210160   3.033   1.216   1.662
 3399TIP3    H110161   2.985   1.150   1.611
 3399TIP3    H210162   3.119   1.220   1.620
 3400TIP3   OH210163   2.325   1.484   2.552
 3400TIP3    H110164   2.325   1.389   2.536
 3400TIP3    H210165   2.307   1.523   2.466
 3401TIP3   OH210166   1.615   3.244   0.939
 3401TIP3    H110167   1.681   3.240   1.008
 3401TIP3    H210168   1.611   3.155   0.905
 3402TIP3   OH210169   5.198   0.456   2.131
 3402TIP3    H110170   5.223   0.365   2.114
 3402TIP3    H210171   5.228   0.503   2.054
 3403TIP3   OH210172   6.681   0.780   5.566
 3403TIP3    H110173   6.644   0.748   5.484
 3403TIP3    H210174   6.716   0.701   5.609
 3404TIP3   OH210175   4.832   5.807   0.502
 3404TIP3    H110176   4.899   5.852   0.451
 3404TIP3    H210177   4.779   5.761   0.436
 3405TIP3   OH210178   2.053   3.634   0.831
 3405TIP3    H110179   2.137   3.678   0.818
 3405TIP3    H210180   2.069   3.572   0.902
 3406TIP3   OH210181   1.264   4.915   3.670
 3406TIP3    H110182   1.322   4.870   3.608
 3406TIP3    H210183   1.323   4.949   3.738
 3407TIP3   OH210184   7.200   4.657   3.811
 3407TIP3    H110185   7.196   4.686   3.902
 3407TIP3    H210186   7.247   4.574   3.814
 3408TIP3   OH210187   7.210   1.776   1.070
 3408TIP3    H110188   7.203   1.789   1.165
 3408TIP3    H210189   7.304   1.781   1.053
 3409TIP3   OH210190   4.219   1.121   4.787
 3409TIP3    H110191   4.239   1.081   4.872
 3409TIP3    H210192   4.304   1.132   4.745
 3410TIP3   OH210193   3.331   1.107   4.175
 3410TIP3    H110194   3.373   1.079   4.094
 3410TIP3    H210195   3.363   1.046   4.242
 3411TIP3   OH210196   1.376   6.492   1.147
 3411TIP3    H110197   1.299   6.522   1.100
 3411TIP3    H210198   1.364   6.397   1.156
 3412TIP3   OH210199   6.710   1.611   2.062
 3412TIP3    H110200   6.643   1.543   2.062
 3412TIP3    H210201   6.672   1.683   2.012
 3413TIP3   OH210202   1.597   1.090   0.364
 3413TIP3    H110203   1.625   1.137   0.286
 3413TIP3    H210204   1.607   0.997   0.341
 3414TIP3   OH210205   6.840   3.075   0.720
 3414TIP3    H110206   6.872   3.103   0.806
 3414TIP3    H210207   6.836   2.979   0.726
 3415TIP3   OH210208   3.194   6.638   4.330
 3415TIP3    H110209   3.116   6.584   4.334
 3415TIP3    H210210   3.161   6.728   4.323
 3416TIP3   OH210211   0.171   2.934   5.500
 3416TIP3    H110212   0.163   3.023   5.535
 3416TIP3    H210213   0.123   2.879   5.561
 3417TIP3   OH210214   6.520   4.410   2.525
 3417TIP3    H110215   6.438   4.395   2.478
 3417TIP3    H210216   6.493   4.426   2.616
 3418TIP3   OH210217   7.067   4.577   0.641
 3418TIP3    H110218   6.986   4.532   0.618
 3418TIP3    H210219   7.075   4.566   0.736
 3419TIP3   OH210220   5.387   3.378   1.148
 3419TIP3    H110221   5.400   3.284   1.144
 3419TIP3    H210222   5.417   3.403   1.235
 3420TIP3   OH210223   3.112   0.245   5.110
 3420TIP3    H110224   3.134   0.166   5.061
 3420TIP3    H210225   3.105   0.215   5.201
 3421TIP3   OH210226   5.530   0.572   1.971
 3421TIP3    H110227   5.573   0.488   1.960
 3421TIP3    H210228   5.600   0.637   1.959
 3422TIP3   OH210229   5.487   6.599   4.881
 3422TIP3    H110230   5.569   6.637   4.910
 3422TIP3    H210231   5.420   6.657   4.915
 3423TIP3   OH210232   2.123   0.739   2.117
 3423TIP3    H110233   2.149   0.827   2.089
 3423TIP3    H210234   2.097   0.695   2.036
 3424TIP3   OH210235   1.172   4.003   1.571
 3424TIP3    H110236   1.217   3.968   1.495
 3424TIP3    H210237   1.169   4.097   1.557
 3425TIP3   OH210238   2.811   2.135   3.990
 3425TIP3    H110239   2.901   2.128   3.958
 3425TIP3    H210240   2.758   2.139   3.910
 3426TIP3   OH210241   5.638   1.547   5.893
 3426TIP3    H110242   5.565   1.520   5.837
 3426TIP3    H210243   5.605   1.537   5.982
 3427TIP3   OH210244   6.106   4.790   3.048
 3427TIP3    H110245   6.086   4.760   3.136
 3427TIP3    H210246   6.199   4.811   3.050
 3428TIP3   OH210247   4.705   5.260   4.360
 3428TIP3    H110248   4.766   5.235   4.430
 3428TIP3    H210249   4.618   5.247   4.397
 3429TIP3   OH210250   1.604   3.022   4.962
 3429TIP3    H110251   1.537   2.995   4.899
 3429TIP3    H210252   1.558   3.026   5.046
 3430TIP3   OH210253   2.066   6.586   2.699
 3430TIP3    H110254   2.132   6.554   2.761
 3430TIP3    H210255   1.986   6.538   2.722
 3431TIP3   OH210256   3.764   4.088   1.076
 3431TIP3    H110257   3.764   4.104   0.982
 3431TIP3    H210258   3.770   3.993   1.084
 3432TIP3   OH210259   3.020   2.624   3.339
 3432TIP3    H110260   2.944   2.566   3.339
 3432TIP3    H210261   3.075   2.591   3.268
 3433TIP3   OH210262   6.548   3.335   4.849
 3433TIP3    H110263   6.479   3.393   4.882
 3433TIP3    H210264   6.620   3.345   4.911
 3434TIP3   OH210265   4.904   0.986   3.525
 3434TIP3    H110266   4.970   0.946   3.581
 3434TIP3    H210267   4.823   0.982   3.575
 3435TIP3   OH210268   4.413   0.031   2.012
 3435TIP3    H110269   4.491   0.086   2.021
 3435TIP3    H210270   4.341   0.087   2.038
 3436TIP3   OH210271   4.083   4.333   1.597
 3436TIP3    H110272   4.166   4.379   1.606
 3436TIP3    H210273   4.023   4.381   1.655
 3437TIP3   OH210274   2.056   4.755   0.316
 3437TIP3    H110275   1.977   4.791   0.276
 3437TIP3    H210276   2.043   4.768   0.410
 3438TIP3   OH210277   4.575   5.916   3.222
 3438TIP3    H110278   4.518   5.964   3.161
 3438TIP3    H210279   4.626   5.858   3.166
 3439TIP3   OH210280   7.096   6.239   3.562
 3439TIP3    H110281   7.137   6.197   3.638
 3439TIP3    H210282   7.025   6.180   3.538
 3440TIP3   OH210283   6.541   6.411   3.047
 3440TIP3    H110284   6.547   6.450   3.134
 3440TIP3    H210285   6.504   6.481   2.992
 3441TIP3   OH210286   3.969   1.534   4.793
 3441TIP3    H110287   3.911   1.492   4.856
 3441TIP3    H210288   3.911   1.562   4.722
 3442TIP3   OH210289   5.204   5.988   1.856
 3442TIP3    H110290   5.155   5.909   1.831
 3442TIP3    H210291   5.236   6.024   1.773
 3443TIP3   OH210292   5.336   3.247   4.179
 3443TIP3    H110293   5.244   3.273   4.178
 3443TIP3    H210294   5.363   3.250   4.088
 3444TIP3   OH210295   2.886   1.218   3.702
 3444TIP3    H110296   2.883   1.224   3.797
 3444TIP3    H210297   2.898   1.125   3.685
 3445TIP3   OH210298   0.743   4.595   2.063
 3445TIP3    H110299   0.719   4.687   2.067
 3445TIP3    H210300   0.689   4.558   1.993
 3446TIP3   OH210301   5.565   3.170   3.366
 3446TIP3    H110302   5.642   3.226   3.372
 3446TIP3    H210303   5.585   3.110   3.294
 3447TIP3   OH210304   4.739   1.916   4.808
 3447TIP3    H110305   4.713   1.830   4.774
 3447TIP3    H210306   4.825   1.932   4.767
 3448TIP3   OH210307   4.470   5.873   3.475
 3448TIP3    H110308   4.508   5.903   3.393
 3448TIP3    H210309   4.546   5.854   3.531
 3449TIP3   OH210310   5.983   3.643   1.641
 3449TIP3    H110311   5.900   3.687   1.656
 3449TIP3    H210312   5.973   3.602   1.555
 3450TIP3   OH210313   4.201   0.287   5.405
 3450TIP3    H110314   4.232   0.255   5.320
 3450TIP3    H210315   4.279   0.324   5.445
 3451TIP3   OH210316   5.694   3.579   5.209
 3451TIP3    H110317   5.789   3.583   5.222
 3451TIP3    H210318   5.681   3.612   5.120
 3452TIP3   OH210319   0.569   2.589   2.265
 3452TIP3    H110320   0.514   2.581   2.344
 3452TIP3    H210321   0.548   2.513   2.213
 3453TIP3   OH210322   3.406   4.296   4.881
 3453TIP3    H110323   3.415   4.333   4.969
 3453TIP3    H210324   3.493   4.308   4.842
 3454TIP3   OH210325   0.784   1.147   3.770
 3454TIP3    H110326   0.764   1.118   3.680
 3454TIP3    H210327   0.703   1.134   3.818
 3455TIP3   OH210328   5.316   3.212   2.701
 3455TIP3    H110329   5.384   3.273   2.730
 3455TIP3    H210330   5.281   3.174   2.781
 3456TIP3   OH210331   6.002   2.860   4.966
 3456TIP3    H110332   5.989   2.792   5.032
 3456TIP3    H210333   6.028   2.938   5.016
 3457TIP3   OH210334   2.459   6.160   4.215
 3457TIP3    H110335   2.393   6.141   4.149
 3457TIP3    H210336   2.414   6.216   4.278
 3458TIP3   OH210337   6.663   3.193   1.056
 3458TIP3    H110338   6.635   3.156   0.972
 3458TIP3    H210339   6.721   3.127   1.094
 3459TIP3   OH210340   2.703   6.062   4.119
 3459TIP3    H110341   2.660   6.140   4.156
 3459TIP3    H210342   2.694   6.073   4.024
 3460TIP3   OH210343   0.317   5.844   2.907
 3460TIP3    H110344   0.237   5.866   2.955
 3460TIP3    H210345   0.336   5.922   2.855
 3461TIP3   OH210346   4.837   4.444   2.054
 3461TIP3    H110347   4.798   4.492   2.126
 3461TIP3    H210348   4.885   4.372   2.095
 3462TIP3   OH210349   3.009   3.645  -0.003
 3462TIP3    H110350   2.976   3.606   0.078
 3462TIP3    H210351   3.100   3.667   0.016
 3463TIP3   OH210352   4.784   3.778   0.826
 3463TIP3    H110353   4.758   3.804   0.738
 3463TIP3    H210354   4.824   3.692   0.814
 3464TIP3   OH210355   5.669   1.379   5.109
 3464TIP3    H110356   5.704   1.325   5.038
 3464TIP3    H210357   5.746   1.419   5.149
 3465TIP3   OH210358   2.094   3.571   4.074
 3465TIP3    H110359   2.083   3.476   4.077
 3465TIP3    H210360   2.189   3.584   4.070
 3466TIP3   OH210361   1.185   6.500   4.789
 3466TIP3    H110362   1.103   6.532   4.828
 3466TIP3    H210363   1.251   6.513   4.857
 3467TIP3   OH210364   5.926   2.185   4.588
 3467TIP3    H110365   5.946   2.180   4.681
 3467TIP3    H210366   5.931   2.278   4.567
 3468TIP3   OH210367   0.277   0.189   3.373
 3468TIP3    H110368   0.244   0.272   3.408
 3468TIP3    H210369   0.283   0.204   3.279
 3469TIP3   OH210370   2.018   6.473   0.721
 3469TIP3    H110371   2.056   6.556   0.694
 3469TIP3    H210372   2.081   6.407   0.693
 3470TIP3   OH210373   5.552   6.665   4.149
 3470TIP3    H110374   5.530   6.689   4.059
 3470TIP3    H210375   5.619   6.598   4.141
 3471TIP3   OH210376   4.583   4.987   0.449
 3471TIP3    H110377   4.527   4.910   0.461
 3471TIP3    H210378   4.666   4.952   0.418
 3472TIP3   OH210379   6.664   3.132   5.617
 3472TIP3    H110380   6.754   3.107   5.635
 3472TIP3    H210381   6.650   3.108   5.526
 3473TIP3   OH210382   2.368   1.357   3.961
 3473TIP3    H110383   2.406   1.335   3.876
 3473TIP3    H210384   2.393   1.448   3.975
 3474TIP3   OH210385   1.223   0.162   1.960
 3474TIP3    H110386   1.242   0.068   1.955
 3474TIP3    H210387   1.176   0.172   2.043
 3475TIP3   OH210388   0.205   2.914   0.768
 3475TIP3    H110389   0.144   2.850   0.804
 3475TIP3    H210390   0.282   2.909   0.824
 3476TIP3   OH210391   3.906   5.198   3.575
 3476TIP3    H110392   3.837   5.131   3.569
 3476TIP3    H210393   3.861   5.280   3.553
 3477TIP3   OH210394   4.528   3.973   5.614
 3477TIP3    H110395   4.582   3.999   5.689
 3477TIP3    H210396   4.494   4.055   5.579
 3478TIP3   OH210397   1.699   1.728   3.441
 3478TIP3    H110398   1.735   1.707   3.526
 3478TIP3    H210399   1.717   1.822   3.429
 3479TIP3   OH210400   1.915   6.292   3.588
 3479TIP3    H110401   1.892   6.349   3.661
 3479TIP3    H210402   1.939   6.209   3.630
 3480TIP3   OH210403   4.216   1.911   3.689
 3480TIP3    H110404   4.249   1.871   3.769
 3480TIP3    H210405   4.178   1.839   3.639
 3481TIP3   OH210406   1.738   0.562   1.138
 3481TIP3    H110407   1.711   0.470   1.148
 3481TIP3    H210408   1.731   0.578   1.043
 3482TIP3   OH210409   3.838   6.533   3.277
 3482TIP3    H110410   3.863   6.618   3.241
 3482TIP3    H210411   3.776   6.497   3.214
 3483TIP3   OH210412   6.947   2.840   2.099
 3483TIP3    H110413   6.888   2.803   2.033
 3483TIP3    H210414   6.935   2.935   2.090
 3484TIP3   OH210415   0.016   0.032   4.192
 3484TIP3    H110416   0.023   0.078   4.276
 3484TIP3    H210417  -0.050  -0.035   4.208
 3485TIP3   OH210418   0.247   2.192   5.232
 3485TIP3    H110419   0.266   2.267   5.289
 3485TIP3    H210420   0.152   2.197   5.217
 3486TIP3   OH210421   0.257   2.145   1.535
 3486TIP3    H110422   0.249   2.098   1.618
 3486TIP3    H210423   0.176   2.126   1.488
 3487TIP3   OH210424   5.499   5.238   5.286
 3487TIP3    H110425   5.509   5.242   5.191
 3487TIP3    H210426   5.440   5.164   5.300
 3488TIP3   OH210427   6.089   3.380   0.921
 3488TIP3    H110428   6.173   3.345   0.951
 3488TIP3    H210429   6.059   3.436   0.993
 3489TIP3   OH210430   5.315   2.105   1.627
 3489TIP3    H110431   5.316   2.108   1.723
 3489TIP3    H210432   5.234   2.150   1.603
 3490TIP3   OH210433   4.474   6.222   3.065
 3490TIP3    H110434   4.557   6.192   3.029
 3490TIP3    H210435   4.455   6.303   3.017
 3491TIP3   OH210436   5.694   5.002   2.271
 3491TIP3    H110437   5.612   4.985   2.318
 3491TIP3    H210438   5.762   4.977   2.333
 3492TIP3   OH210439   2.207   4.385   5.245
 3492TIP3    H110440   2.259   4.409   5.322
 3492TIP3    H210441   2.117   4.403   5.271
 3493TIP3   OH210442   1.390   0.627   5.596
 3493TIP3    H110443   1.415   0.550   5.647
 3493TIP3    H210444   1.437   0.617   5.513
 3494TIP3   OH210445   4.048   5.681   2.060
 3494TIP3    H110446   4.034   5.594   2.024
 3494TIP3    H210447   4.086   5.731   1.987
 3495TIP3   OH210448   4.499   1.286   2.357
 3495TIP3    H110449   4.459   1.282   2.270
 3495TIP3    H210450   4.451   1.356   2.402
 3496TIP3   OH210451   4.288   1.412   2.448
 3496TIP3    H110452   4.256   1.397   2.359
 3496TIP3    H210453   4.279   1.327   2.491
 3497TIP3   OH210454   4.678   6.034   0.949
 3497TIP3    H110455   4.688   6.068   0.860
 3497TIP3    H210456   4.589   6.058   0.974
 3498TIP3   OH210457   6.601   5.298   3.586
 3498TIP3    H110458   6.620   5.238   3.515
 3498TIP3    H210459   6.574   5.242   3.659
 3499TIP3   OH210460   6.087   4.940   0.193
 3499TIP3    H110461   6.116   4.912   0.106
 3499TIP3    H210462   5.997   4.908   0.199
 3500TIP3   OH210463   2.114   0.098   5.423
 3500TIP3    H110464   2.128   0.048   5.503
 3500TIP3    H210465   2.060   0.172   5.450
 3501TIP3   OH210466   4.544   3.765   3.137
 3501TIP3    H110467   4.572   3.694   3.079
 3501TIP3    H210468   4.455   3.786   3.109
 3502TIP3   OH210469   4.590   6.752   3.221
 3502TIP3    H110470   4.520   6.699   3.182
 3502TIP3    H210471   4.650   6.688   3.259
 3503TIP3   OH210472   4.852   3.407   2.549
 3503TIP3    H110473   4.835   3.455   2.630
 3503TIP3    H210474   4.838   3.470   2.480
 3504TIP3   OH210475   3.256   1.701   0.842
 3504TIP3    H110476   3.222   1.754   0.771
 3504TIP3    H210477   3.351   1.714   0.839
 3505TIP3   OH210478   2.383   4.903   4.696
 3505TIP3    H110479   2.352   4.992   4.680
 3505TIP3    H210480   2.306   4.856   4.730
 3506TIP3   OH210481   5.191   4.319   1.371
 3506TIP3    H110482   5.166   4.361   1.453
 3506TIP3    H210483   5.284   4.338   1.361
 3507TIP3   OH210484   0.627   4.060   1.637
 3507TIP3    H110485   0.638   4.144   1.680
 3507TIP3    H210486   0.712   4.043   1.595
 3508TIP3   OH210487   6.979   6.664   4.223
 3508TIP3    H110488   6.893   6.693   4.254
 3508TIP3    H210489   6.968   6.655   4.128
 3509TIP3   OH210490   0.086   1.950   3.447
 3509TIP3    H110491   0.054   1.897   3.374
 3509TIP3    H210492   0.178   1.965   3.427
 3510TIP3   OH210493   5.575   5.165   5.033
 3510TIP3    H110494   5.486   5.136   5.014
 3510TIP3    H210495   5.600   5.217   4.956
 3511TIP3   OH210496   5.824   5.216   0.848
 3511TIP3    H110497   5.802   5.284   0.911
 3511TIP3    H210498   5.904   5.176   0.884
 3512TIP3   OH210499   4.721   4.892   1.821
 3512TIP3    H110500   4.723   4.810   1.772
 3512TIP3    H210501   4.787   4.947   1.777
 3513TIP3   OH210502   1.031   6.197   4.927
 3513TIP3    H110503   1.081   6.188   5.009
 3513TIP3    H210504   1.096   6.229   4.864
 3514TIP3   OH210505   1.580   1.930   4.920
 3514TIP3    H110506   1.629   1.928   5.002
 3514TIP3    H210507   1.589   2.019   4.888
 3515TIP3   OH210508   4.083   1.622   2.818
 3515TIP3    H110509   4.028   1.550   2.787
 3515TIP3    H210510   4.031   1.701   2.801
 3516TIP3   OH210511   4.612   1.384   0.850
 3516TIP3    H110512   4.629   1.417   0.938
 3516TIP3    H210513   4.696   1.388   0.805
 3517TIP3   OH210514   5.683   6.588   0.939
 3517TIP3    H110515   5.599   6.633   0.926
 3517TIP3    H210516   5.743   6.658   0.963
 3518TIP3   OH210517   4.000   6.282   5.346
 3518TIP3    H110518   4.007   6.278   5.441
 3518TIP3    H210519   4.079   6.328   5.318
 3519TIP3   OH210520   6.011   1.705   0.350
 3519TIP3    H110521   5.934   1.657   0.319
 3519TIP3    H210522   5.996   1.716   0.444
 3520TIP3   OH210523   4.640   1.028   2.722
 3520TIP3    H110524   4.663   0.964   2.790
 3520TIP3    H210525   4.703   1.012   2.652
 3521TIP3   OH210526   0.815   0.332   0.144
 3521TIP3    H110527   0.869   0.263   0.184
 3521TIP3    H210528   0.878   0.393   0.107
 3522TIP3   OH210529   2.824   4.180   1.879
 3522TIP3    H110530   2.826   4.154   1.970
 3522TIP3    H210531   2.909   4.222   1.864
 3523TIP3   OH210532   6.493   1.425   2.106
 3523TIP3    H110533   6.411   1.460   2.072
 3523TIP3    H210534   6.498   1.456   2.196
 3524TIP3   OH210535   6.522   2.101   2.216
 3524TIP3    H110536   6.471   2.090   2.135
 3524TIP3    H210537   6.476   2.048   2.281
 3525TIP3   OH210538   6.914   5.862   5.892
 3525TIP3    H110539   6.886   5.780   5.932
 3525TIP3    H210540   6.946   5.915   5.965
 3526TIP3   OH210541   6.888   4.417   4.039
 3526TIP3    H110542   6.804   4.371   4.034
 3526TIP3    H210543   6.919   4.419   3.948
 3527TIP3   OH210544   6.881   4.856   5.611
 3527TIP3    H110545   6.928   4.906   5.678
 3527TIP3    H210546   6.831   4.791   5.661
 3528TIP3   OH210547   1.452   2.293   3.486
 3528TIP3    H110548   1.544   2.322   3.489
 3528TIP3    H210549   1.405   2.359   3.536
 3529TIP3   OH210550   4.353   0.821   2.260
 3529TIP3    H110551   4.308   0.761   2.320
 3529TIP3    H210552   4.294   0.829   2.185
 3530TIP3   OH210553   5.735   0.177   3.929
 3530TIP3    H110554   5.802   0.201   3.993
 3530TIP3    H210555   5.655   0.169   3.980
 3531TIP3   OH210556   6.236   2.898   1.331
 3531TIP3    H110557   6.143   2.890   1.309
 3531TIP3    H210558   6.253   2.993   1.325
 3532TIP3   OH210559   0.300   2.648   0.911
 3532TIP3    H110560   0.218   2.679   0.950
 3532TIP3    H210561   0.368   2.683   0.968
 3533TIP3   OH210562   3.775   1.964   0.761
 3533TIP3    H110563   3.723   1.993   0.835
 3533TIP3    H210564   3.715   1.968   0.686
 3534TIP3   OH210565   3.739   2.424   0.096
 3534TIP3    H110566   3.749   2.516   0.122
 3534TIP3    H210567   3.783   2.376   0.166
 3535TIP3   OH210568   6.524   5.035   2.846
 3535TIP3    H110569   6.613   5.008   2.820
 3535TIP3    H210570   6.468   5.005   2.774
 3536TIP3   OH210571   6.739   0.396   0.056
 3536TIP3    H110572   6.789   0.454   0.112
 3536TIP3    H210573   6.734   0.314   0.106
 3537TIP3   OH210574   4.844   0.149   5.262
 3537TIP3    H110575   4.813   0.217   5.202
 3537TIP3    H210576   4.810   0.175   5.348
 3538TIP3   OH210577   4.981   4.689   3.548
 3538TIP3    H110578   5.014   4.647   3.628
 3538TIP3    H210579   4.888   4.665   3.546
 3539TIP3   OH210580   1.364   2.708   5.699
 3539TIP3    H110581   1.295   2.775   5.697
 3539TIP3    H210582   1.320   2.627   5.673
 3540TIP3   OH210583   5.137   4.290   0.721
 3540TIP3    H110584   5.207   4.225   0.717
 3540TIP3    H210585   5.079   4.267   0.648
 3541TIP3   OH210586   6.930   4.063   1.597
 3541TIP3    H110587   6.995   4.034   1.662
 3541TIP3    H210588   6.854   4.007   1.613
 3542TIP3   OH210589   6.730   1.552   4.580
 3542TIP3    H110590   6.802   1.616   4.577
 3542TIP3    H210591   6.715   1.528   4.489
 3543TIP3   OH210592   6.542   6.390   3.931
 3543TIP3    H110593   6.543   6.313   3.874
 3543TIP3    H210594   6.522   6.355   4.017
 3544TIP3   OH210595   7.165   2.804   4.371
 3544TIP3    H110596   7.245   2.856   4.377
 3544TIP3    H210597   7.191   2.724   4.325
 3545TIP3   OH210598   3.452   5.305   3.361
 3545TIP3    H110599   3.506   5.308   3.441
 3545TIP3    H210600   3.370   5.348   3.385
 3546TIP3   OH210601   4.994   2.378   1.158
 3546TIP3    H110602   4.951   2.319   1.219
 3546TIP3    H210603   4.922   2.417   1.108
 3547TIP3   OH210604   4.790   4.201   0.989
 3547TIP3    H110605   4.761   4.181   1.078
 3547TIP3    H210606   4.858   4.136   0.971
 3548TIP3   OH210607   2.879   2.171   1.645
 3548TIP3    H110608   2.903   2.078   1.651
 3548TIP3    H210609   2.823   2.176   1.567
 3549TIP3   OH210610   4.575   2.831   3.862
 3549TIP3    H110611   4.481   2.845   3.869
 3549TIP3    H210612   4.606   2.904   3.808
 3550TIP3   OH210613   7.113   1.401   1.489
 3550TIP3    H110614   7.059   1.460   1.541
 3550TIP3    H210615   7.192   1.389   1.542
 3551TIP3   OH210616   2.025   1.501   5.606
 3551TIP3    H110617   2.089   1.568   5.633
 3551TIP3    H210618   2.045   1.426   5.662
 3552TIP3   OH210619   4.574   2.584   3.560
 3552TIP3    H110620   4.551   2.541   3.643
 3552TIP3    H210621   4.588   2.512   3.499
 3553TIP3   OH210622   4.303   1.835   4.829
 3553TIP3    H110623   4.221   1.838   4.877
 3553TIP3    H210624   4.353   1.765   4.871
 3554TIP3   OH210625   6.808   3.202   2.473
 3554TIP3    H110626   6.714   3.188   2.484
 3554TIP3    H210627   6.817   3.295   2.453
 3555TIP3   OH210628   6.106   0.210   4.376
 3555TIP3    H110629   6.125   0.259   4.296
 3555TIP3    H210630   6.174   0.235   4.438
 3556TIP3   OH210631   2.781   3.867   4.708
 3556TIP3    H110632   2.843   3.897   4.775
 3556TIP3    H210633   2.815   3.903   4.626
 3557TIP3   OH210634   4.164   1.163   1.977
 3557TIP3    H110635   4.100   1.123   2.036
 3557TIP3    H210636   4.117   1.237   1.938
 3558TIP3   OH210637   7.210   5.073   0.447
 3558TIP3    H110638   7.224   5.016   0.522
 3558TIP3    H210639   7.171   5.017   0.380
 3559TIP3   OH210640   3.984   2.651   2.559
 3559TIP3    H110641   3.982   2.648   2.464
 3559TIP3    H210642   3.984   2.744   2.580
 3560TIP3   OH210643   7.005   6.681   1.837
 3560TIP3    H110644   6.927   6.679   1.892
 3560TIP3    H210645   7.014   6.773   1.812
 3561TIP3   OH210646   6.341   1.639   3.244
 3561TIP3    H110647   6.323   1.684   3.161
 3561TIP3    H210648   6.303   1.552   3.233
 3562TIP3   OH210649   5.721   6.052   4.877
 3562TIP3    H110650   5.656   6.123   4.876
 3562TIP3    H210651   5.800   6.093   4.913
 3563TIP3   OH210652   5.481   2.221   3.360
 3563TIP3    H110653   5.416   2.284   3.329
 3563TIP3    H210654   5.565   2.266   3.351
 3564TIP3   OH210655   1.720   2.857   0.348
 3564TIP3    H110656   1.707   2.763   0.335
 3564TIP3    H210657   1.721   2.867   0.443
 3565TIP3   OH210658   4.148   6.311   5.601
 3565TIP3    H110659   4.126   6.257   5.677
 3565TIP3    H210660   4.093   6.389   5.611
 3566TIP3   OH210661   0.090   3.924   0.812
 3566TIP3    H110662   0.012   3.891   0.857
 3566TIP3    H210663   0.161   3.914   0.876
 3567TIP3   OH210664   1.516   4.550   4.491
 3567TIP3    H110665   1.493   4.640   4.515
 3567TIP3    H210666   1.563   4.558   4.408
 3568TIP3   OH210667   5.221   6.604   4.246
 3568TIP3    H110668   5.203   6.525   4.195
 3568TIP3    H210669   5.308   6.589   4.283
 3569TIP3   OH210670   2.231   4.138   1.918
 3569TIP3    H110671   2.213   4.173   2.006
 3569TIP3    H210672   2.324   4.114   1.921
 3570TIP3   OH210673   6.681   1.400   4.162
 3570TIP3    H110674   6.606   1.355   4.124
 3570TIP3    H210675   6.643   1.476   4.206
 3571TIP3   OH210676   0.579   5.925   3.476
 3571TIP3    H110677   0.506   5.943   3.418
 3571TIP3    H210678   0.564   5.836   3.507
 3572TIP3   OH210679   4.156   6.773   4.068
 3572TIP3    H110680   4.170   6.694   4.016
 3572TIP3    H210681   4.243   6.811   4.077
 3573TIP3   OH210682   4.749   1.299   0.055
 3573TIP3    H110683   4.811   1.247   0.105
 3573TIP3    H210684   4.741   1.381   0.103
 3574TIP3   OH210685   6.500   6.208   0.929
 3574TIP3    H110686   6.425   6.182   0.876
 3574TIP3    H210687   6.572   6.152   0.899
 3575TIP3   OH210688   5.995   5.307   3.020
 3575TIP3    H110689   5.946   5.306   3.102
 3575TIP3    H210690   5.928   5.314   2.952
 3576TIP3   OH210691   4.044   6.750   2.313
 3576TIP3    H110692   4.103   6.810   2.268
 3576TIP3    H210693   3.963   6.800   2.324
 3577TIP3   OH210694   0.685   1.624   4.857
 3577TIP3    H110695   0.710   1.620   4.765
 3577TIP3    H210696   0.646   1.711   4.868
 3578TIP3   OH210697   1.498   0.161   2.450
 3578TIP3    H110698   1.421   0.119   2.412
 3578TIP3    H210699   1.469   0.190   2.537
 3579TIP3   OH210700   5.259   4.706   1.182
 3579TIP3    H110701   5.285   4.695   1.273
 3579TIP3    H210702   5.167   4.731   1.186
 3580TIP3   OH210703   1.617   1.349   1.734
 3580TIP3    H110704   1.590   1.423   1.788
 3580TIP3    H210705   1.596   1.376   1.644
 3581TIP3   OH210706   7.224   1.391   2.505
 3581TIP3    H110707   7.250   1.343   2.584
 3581TIP3    H210708   7.131   1.369   2.493
 3582TIP3   OH210709   5.642   1.369   1.573
 3582TIP3    H110710   5.648   1.424   1.652
 3582TIP3    H210711   5.548   1.363   1.555
 3583TIP3   OH210712   4.809   5.742   1.367
 3583TIP3    H110713   4.867   5.665   1.359
 3583TIP3    H210714   4.780   5.759   1.277
 3584TIP3   OH210715   5.925   0.704   0.820
 3584TIP3    H110716   5.832   0.707   0.797
 3584TIP3    H210717   5.970   0.720   0.737
 3585TIP3   OH210718   5.961   5.275   0.606
 3585TIP3    H110719   5.952   5.370   0.604
 3585TIP3    H210720   5.911   5.247   0.683
 3586TIP3   OH210721   3.537   0.009   5.570
 3586TIP3    H110722   3.446   0.034   5.555
 3586TIP3    H210723   3.562  -0.036   5.489
 3587TIP3   OH210724   3.182   2.588   2.478
 3587TIP3    H110725   3.152   2.522   2.416
 3587TIP3    H210726   3.274   2.566   2.493
 3588TIP3   OH210727   4.538   0.621   4.419
 3588TIP3    H110728   4.611   0.622   4.357
 3588TIP3    H210729   4.465   0.584   4.369
 3589TIP3   OH210730   3.137   1.150   0.822
 3589TIP3    H110731   3.196   1.218   0.854
 3589TIP3    H210732   3.063   1.199   0.785
 3590TIP3   OH210733   1.253   5.053   5.462
 3590TIP3    H110734   1.295   5.104   5.393
 3590TIP3    H210735   1.326   5.020   5.515
 3591TIP3   OH210736   5.815   2.690   1.420
 3591TIP3    H110737   5.808   2.674   1.325
 3591TIP3    H210738   5.730   2.724   1.445
 3592TIP3   OH210739   6.217   2.386   4.976
 3592TIP3    H110740   6.267   2.467   4.991
 3592TIP3    H210741   6.267   2.340   4.908
 3593TIP3   OH210742   5.282   2.018   1.064
 3593TIP3    H110743   5.250   2.050   1.149
 3593TIP3    H210744   5.224   1.945   1.043
 3594TIP3   OH210745   0.555   5.729   3.950
 3594TIP3    H110746   0.643   5.698   3.925
 3594TIP3    H210747   0.557   5.823   3.932
 3595TIP3   OH210748   5.244   6.805   5.856
 3595TIP3    H110749   5.217   6.716   5.833
 3595TIP3    H210750   5.255   6.849   5.772
 3596TIP3   OH210751   2.254   3.276   5.550
 3596TIP3    H110752   2.185   3.260   5.485
 3596TIP3    H210753   2.331   3.230   5.515
 3597TIP3   OH210754   4.783   5.513   5.579
 3597TIP3    H110755   4.696   5.509   5.618
 3597TIP3    H210756   4.831   5.440   5.620
 3598TIP3   OH210757   4.911   5.509   5.185
 3598TIP3    H110758   4.879   5.575   5.246
 3598TIP3    H210759   4.845   5.505   5.116
 3599TIP3   OH210760   3.003   3.446   1.883
 3599TIP3    H110761   2.910   3.445   1.859
 3599TIP3    H210762   3.006   3.497   1.964
 3600TIP3   OH210763   3.678   1.468   4.061
 3600TIP3    H110764   3.701   1.376   4.050
 3600TIP3    H210765   3.662   1.499   3.971
 3601TIP3   OH210766   5.754   3.984   2.533
 3601TIP3    H110767   5.703   3.927   2.476
 3601TIP3    H210768   5.834   3.936   2.551
 3602TIP3   OH210769   2.676   2.989   4.798
 3602TIP3    H110770   2.730   3.066   4.817
 3602TIP3    H210771   2.648   3.001   4.707
 3603TIP3   OH210772   4.670   2.199   4.815
 3603TIP3    H110773   4.676   2.223   4.723
 3603TIP3    H210774   4.658   2.104   4.815
 3604TIP3   OH210775   0.314   5.000   1.294
 3604TIP3    H110776   0.355   5.084   1.271
 3604TIP3    H210777   0.282   5.013   1.383
 3605TIP3   OH210778   6.140   6.145   4.575
 3605TIP3    H110779   6.061   6.094   4.592
 3605TIP3    H210780   6.153   6.195   4.655
 3606TIP3   OH210781   1.924   6.284   3.198
 3606TIP3    H110782   1.987   6.228   3.243
 3606TIP3    H210783   1.949   6.373   3.222
 3607TIP3   OH210784   3.001   4.803   0.061
 3607TIP3    H110785   3.029   4.819   0.152
 3607TIP3    H210786   3.052   4.728   0.033
 3608TIP3   OH210787   0.175   5.041   0.953
 3608TIP3    H110788   0.269   5.022   0.951
 3608TIP3    H210789   0.135   4.970   0.905
 3609TIP3   OH210790   1.966   1.604   4.276
 3609TIP3    H110791   1.978   1.584   4.368
 3609TIP3    H210792   1.911   1.683   4.275
 3610TIP3   OH210793   3.539   5.116   1.114
 3610TIP3    H110794   3.445   5.129   1.128
 3610TIP3    H210795   3.552   5.022   1.120
 3611TIP3   OH210796   2.289   0.368   2.131
 3611TIP3    H110797   2.381   0.393   2.129
 3611TIP3    H210798   2.284   0.299   2.198
 3612TIP3   OH210799   7.206   6.541   0.368
 3612TIP3    H110800   7.248   6.612   0.416
 3612TIP3    H210801   7.164   6.487   0.436
 3613TIP3   OH210802   1.246   1.857   5.499
 3613TIP3    H110803   1.280   1.857   5.410
 3613TIP3    H210804   1.324   1.862   5.554
 3614TIP3   OH210805   0.848   1.853   5.700
 3614TIP3    H110806   0.928   1.814   5.738
 3614TIP3    H210807   0.862   1.847   5.605
 3615TIP3   OH210808   5.002   6.089   4.795
 3615TIP3    H110809   5.062   6.022   4.764
 3615TIP3    H210810   5.019   6.094   4.889
 3616TIP3   OH210811   5.670   6.275   4.600
 3616TIP3    H110812   5.599   6.299   4.658
 3616TIP3    H210813   5.746   6.324   4.633
 3617TIP3   OH210814   0.916   1.386   1.139
 3617TIP3    H110815   0.930   1.301   1.098
 3617TIP3    H210816   0.898   1.445   1.066
 3618TIP3   OH210817   0.273   4.994   3.200
 3618TIP3    H110818   0.259   5.089   3.207
 3618TIP3    H210819   0.328   4.984   3.122
 3619TIP3   OH210820   6.802   2.548   1.635
 3619TIP3    H110821   6.752   2.539   1.716
 3619TIP3    H210822   6.765   2.483   1.576
 3620TIP3   OH210823   1.960   1.788   5.716
 3620TIP3    H110824   2.008   1.742   5.784
 3620TIP3    H210825   2.010   1.770   5.636
 3621TIP3   OH210826   1.880   5.087   2.462
 3621TIP3    H110827   1.790   5.083   2.494
 3621TIP3    H210828   1.879   5.156   2.395
 3622TIP3   OH210829   5.328   2.657   0.256
 3622TIP3    H110830   5.246   2.705   0.263
 3622TIP3    H210831   5.375   2.701   0.185
 3623TIP3   OH210832   3.240   1.498   0.292
 3623TIP3    H110833   3.241   1.588   0.325
 3623TIP3    H210834   3.220   1.445   0.369
 3624TIP3   OH210835   6.740   0.995   3.926
 3624TIP3    H110836   6.658   0.944   3.926
 3624TIP3    H210837   6.749   1.024   4.017
 3625TIP3   OH210838   6.834   3.587   5.475
 3625TIP3    H110839   6.808   3.662   5.421
 3625TIP3    H210840   6.759   3.527   5.470
 3626TIP3   OH210841   3.631   4.867   4.835
 3626TIP3    H110842   3.718   4.869   4.874
 3626TIP3    H210843   3.635   4.932   4.765
 3627TIP3   OH210844   2.958   3.254   4.198
 3627TIP3    H110845   2.938   3.215   4.113
 3627TIP3    H210846   3.028   3.199   4.234
 3628TIP3   OH210847   4.789   1.360   4.138
 3628TIP3    H110848   4.826   1.363   4.226
 3628TIP3    H210849   4.856   1.400   4.082
 3629TIP3   OH210850   6.333   4.596   3.820
 3629TIP3    H110851   6.381   4.642   3.889
 3629TIP3    H210852   6.250   4.644   3.813
 3630TIP3   OH210853   3.730   5.395   0.058
 3630TIP3    H110854   3.808   5.440   0.091
 3630TIP3    H210855   3.759   5.305   0.044
 3631TIP3   OH210856   5.234   6.687   2.296
 3631TIP3    H110857   5.216   6.651   2.384
 3631TIP3    H210858   5.185   6.630   2.237
 3632TIP3   OH210859   4.149   3.199   3.293
 3632TIP3    H110860   4.103   3.282   3.307
 3632TIP3    H210861   4.082   3.139   3.263
 3633TIP3   OH210862   2.468   3.000   1.457
 3633TIP3    H110863   2.498   2.921   1.502
 3633TIP3    H210864   2.535   3.018   1.391
 3634TIP3   OH210865   3.056   2.207   1.274
 3634TIP3    H110866   2.993   2.155   1.223
 3634TIP3    H210867   3.095   2.266   1.210
 3635TIP3   OH210868   0.741   2.956   3.137
 3635TIP3    H110869   0.660   2.982   3.180
 3635TIP3    H210870   0.715   2.933   3.048
 3636TIP3   OH210871   5.400   1.882   0.267
 3636TIP3    H110872   5.410   1.787   0.276
 3636TIP3    H210873   5.314   1.900   0.306
 3637TIP3   OH210874   3.909   3.031   3.275
 3637TIP3    H110875   3.846   2.965   3.247
 3637TIP3    H210876   3.862   3.114   3.267
 3638TIP3   OH210877   6.297   6.024   4.359
 3638TIP3    H110878   6.235   6.042   4.429
 3638TIP3    H210879   6.384   6.032   4.400
 3639TIP3   OH210880   5.815   6.539   3.043
 3639TIP3    H110881   5.777   6.594   3.111
 3639TIP3    H210882   5.861   6.470   3.090
 3640TIP3   OH210883   5.967   2.890   1.713
 3640TIP3    H110884   5.979   2.976   1.673
 3640TIP3    H210885   5.963   2.829   1.639
 3641TIP3   OH210886   4.746   2.162   5.661
 3641TIP3    H110887   4.667   2.128   5.619
 3641TIP3    H210888   4.794   2.084   5.689
 3642TIP3   OH210889   1.202   3.001   2.528
 3642TIP3    H110890   1.124   3.048   2.499
 3642TIP3    H210891   1.259   2.999   2.451
 3643TIP3   OH210892   5.498   2.223   0.377
 3643TIP3    H110893   5.551   2.152   0.412
 3643TIP3    H210894   5.464   2.269   0.454
 3644TIP3   OH210895   2.307   3.044   1.799
 3644TIP3    H110896   2.376   3.008   1.854
 3644TIP3    H210897   2.256   2.968   1.771
 3645TIP3   OH210898   3.462   4.916   3.927
 3645TIP3    H110899   3.484   4.985   3.864
 3645TIP3    H210900   3.472   4.834   3.878
 3646TIP3   OH210901   4.322   2.352   1.247
 3646TIP3    H110902   4.309   2.447   1.243
 3646TIP3    H210903   4.392   2.335   1.183
 3647TIP3   OH210904   7.054   3.118   1.244
 3647TIP3    H110905   7.094   3.077   1.321
 3647TIP3    H210906   6.981   3.061   1.222
 3648TIP3   OH210907   3.820   6.769   0.528
 3648TIP3    H110908   3.894   6.740   0.476
 3648TIP3    H210909   3.828   6.865   0.531
 3649TIP3   OH210910   1.755   6.606   4.814
 3649TIP3    H110911   1.710   6.589   4.897
 3649TIP3    H210912   1.830   6.547   4.815
 3650TIP3   OH210913   5.740   0.442   5.557
 3650TIP3    H110914   5.698   0.393   5.486
 3650TIP3    H210915   5.666   0.476   5.609
 3651TIP3   OH210916   3.034   3.158   1.330
 3651TIP3    H110917   3.032   3.064   1.309
 3651TIP3    H210918   3.122   3.172   1.365
 3652TIP3   OH210919   4.712   4.740   5.200
 3652TIP3    H110920   4.686   4.713   5.288
 3652TIP3    H210921   4.696   4.835   5.199
 3653TIP3   OH210922   6.828   1.816   4.837
 3653TIP3    H110923   6.740   1.794   4.807
 3653TIP3    H210924   6.883   1.743   4.808
 3654TIP3   OH210925   0.553   2.873   4.215
 3654TIP3    H110926   0.465   2.880   4.180
 3654TIP3    H210927   0.607   2.844   4.141
 3655TIP3   OH210928   3.862   5.695   3.860
 3655TIP3    H110929   3.857   5.723   3.769
 3655TIP3    H210930   3.783   5.643   3.874
 3656TIP3   OH210931   3.133   3.413   3.913
 3656TIP3    H110932   3.148   3.420   4.007
 3656TIP3    H210933   3.052   3.463   3.898
 3657TIP3   OH210934   6.742   0.362   4.091
 3657TIP3    H110935   6.699   0.424   4.034
 3657TIP3    H210936   6.828   0.401   4.110
 3658TIP3   OH210937   1.981   1.528   2.700
 3658TIP3    H110938   2.075   1.535   2.713
 3658TIP3    H210939   1.971   1.475   2.621
 3659TIP3   OH210940   0.654   6.600   2.810
 3659TIP3    H110941   0.621   6.547   2.883
 3659TIP3    H210942   0.647   6.691   2.841
 3660TIP3   OH210943   0.390   0.906   1.374
 3660TIP3    H110944   0.345   0.906   1.458
 3660TIP3    H210945   0.413   0.998   1.359
 3661TIP3   OH210946   4.594   5.189   0.658
 3661TIP3    H110947   4.579   5.275   0.618
 3661TIP3    H210948   4.578   5.126   0.589
 3662TIP3   OH210949   4.914   2.873   2.142
 3662TIP3    H110950   4.937   2.965   2.141
 3662TIP3    H210951   4.996   2.827   2.161
 3663TIP3   OH210952   6.440   6.325   4.193
 3663TIP3    H110953   6.503   6.324   4.265
 3663TIP3    H210954   6.401   6.237   4.193
 3664TIP3   OH210955   1.499   0.113   5.108
 3664TIP3    H110956   1.573   0.169   5.131
 3664TIP3    H210957   1.491   0.120   5.013
 3665TIP3   OH210958   1.058   0.756   0.486
 3665TIP3    H110959   1.048   0.848   0.461
 3665TIP3    H210960   1.034   0.753   0.578
 3666TIP3   OH210961   3.754   0.924   5.292
 3666TIP3    H110962   3.702   0.968   5.225
 3666TIP3    H210963   3.689   0.889   5.353
 3667TIP3   OH210964   2.270   0.505   0.310
 3667TIP3    H110965   2.319   0.431   0.347
 3667TIP3    H210966   2.215   0.466   0.242
 3668TIP3   OH210967   3.982   1.561   0.707
 3668TIP3    H110968   4.009   1.576   0.616
 3668TIP3    H210969   4.049   1.604   0.760
 3669TIP3   OH210970   2.582   2.664   1.259
 3669TIP3    H110971   2.508   2.633   1.208
 3669TIP3    H210972   2.649   2.597   1.248
 3670TIP3   OH210973   2.910   1.777   3.329
 3670TIP3    H110974   2.908   1.790   3.234
 3670TIP3    H210975   2.960   1.852   3.363
 3671TIP3   OH210976   3.486   5.166   2.271
 3671TIP3    H110977   3.448   5.097   2.216
 3671TIP3    H210978   3.577   5.139   2.283
 3672TIP3   OH210979   1.624   0.960   4.078
 3672TIP3    H110980   1.664   0.908   4.008
 3672TIP3    H210981   1.627   1.049   4.046
 3673TIP3   OH210982   6.355   1.105   0.465
 3673TIP3    H110983   6.393   1.141   0.545
 3673TIP3    H210984   6.352   1.011   0.481
 3674TIP3   OH210985   6.914   6.474   2.754
 3674TIP3    H110986   6.844   6.489   2.692
 3674TIP3    H210987   6.881   6.407   2.813
 3675TIP3   OH210988   3.730   0.312   4.953
 3675TIP3    H110989   3.718   0.333   4.860
 3675TIP3    H210990   3.823   0.288   4.960
 3676TIP3   OH210991   3.349   2.217   1.118
 3676TIP3    H110992   3.279   2.251   1.061
 3676TIP3    H210993   3.377   2.293   1.169
 3677TIP3   OH210994   0.900   5.248   0.993
 3677TIP3    H110995   0.977   5.223   1.044
 3677TIP3    H210996   0.918   5.338   0.964
 3678TIP3   OH210997   5.287   5.030   1.051
 3678TIP3    H110998   5.302   4.945   1.092
 3678TIP3    H210999   5.359   5.084   1.083
 3679TIP3   OH211000   1.228   3.458   5.645
 3679TIP3    H111001   1.168   3.403   5.696
 3679TIP3    H211002   1.314   3.420   5.659
 3680TIP3   OH211003   3.130   5.766   2.848
 3680TIP3    H111004   3.104   5.773   2.939
 3680TIP3    H211005   3.116   5.674   2.826
 3681TIP3   OH211006   6.182   6.624   5.543
 3681TIP3    H111007   6.202   6.695   5.481
 3681TIP3    H211008   6.218   6.654   5.626
 3682TIP3   OH211009   2.329   2.963   4.113
 3682TIP3    H111010   2.368   2.991   4.195
 3682TIP3    H211011   2.300   2.873   4.129
 3683TIP3   OH211012   3.752   2.336   0.543
 3683TIP3    H111013   3.811   2.356   0.470
 3683TIP3    H211014   3.810   2.311   0.615
 3684TIP3   OH211015   5.734   2.840   5.485
 3684TIP3    H111016   5.661   2.893   5.453
 3684TIP3    H211017   5.700   2.797   5.563
 3685TIP3   OH211018   2.476   1.876   3.051
 3685TIP3    H111019   2.412   1.947   3.046
 3685TIP3    H211020   2.514   1.884   3.139
 3686TIP3   OH211021   0.898   0.147   5.694
 3686TIP3    H111022   0.983   0.104   5.708
 3686TIP3    H211023   0.919   0.226   5.644
 3687TIP3   OH211024   2.821   5.754   1.528
 3687TIP3    H111025   2.885   5.820   1.502
 3687TIP3    H211026   2.790   5.717   1.446
 3688TIP3   OH211027   6.622   0.188   1.102
 3688TIP3    H111028   6.711   0.218   1.081
 3688TIP3    H211029   6.620   0.097   1.071
 3689TIP3   OH211030   4.105   2.101   2.899
 3689TIP3    H111031   4.185   2.058   2.931
 3689TIP3    H211032   4.126   2.194   2.899
 3690TIP3   OH211033   1.261   4.204   4.722
 3690TIP3    H111034   1.193   4.272   4.724
 3690TIP3    H211035   1.339   4.250   4.690
 3691TIP3   OH211036   7.123   0.870   3.384
 3691TIP3    H111037   7.166   0.799   3.435
 3691TIP3    H211038   7.098   0.827   3.303
 3692TIP3   OH211039   5.775   2.918   3.477
 3692TIP3    H111040   5.777   3.003   3.519
 3692TIP3    H211041   5.698   2.922   3.420
 3693TIP3   OH211042   1.098   6.361   0.217
 3693TIP3    H111043   1.021   6.404   0.252
 3693TIP3    H211044   1.087   6.365   0.122
 3694TIP3   OH211045   4.210   2.283   1.739
 3694TIP3    H111046   4.186   2.191   1.732
 3694TIP3    H211047   4.278   2.295   1.672
 3695TIP3   OH211048   6.371   5.560   5.442
 3695TIP3    H111049   6.378   5.500   5.517
 3695TIP3    H211050   6.281   5.592   5.446
 3696TIP3   OH211051   3.410   1.667   5.657
 3696TIP3    H111052   3.380   1.698   5.572
 3696TIP3    H211053   3.359   1.717   5.720
 3697TIP3   OH211054   3.027   4.849   4.576
 3697TIP3    H111055   3.061   4.882   4.659
 3697TIP3    H211056   3.103   4.850   4.517
 3698TIP3   OH211057   5.676   1.602   4.730
 3698TIP3    H111058   5.671   1.509   4.754
 3698TIP3    H211059   5.594   1.639   4.761
 3699TIP3   OH211060   6.397   4.569   1.624
 3699TIP3    H111061   6.347   4.487   1.626
 3699TIP3    H211062   6.439   4.569   1.538
 3700TIP3   OH211063   2.566   4.742   3.756
 3700TIP3    H111064   2.555   4.680   3.827
 3700TIP3    H211065   2.599   4.821   3.798
 3701TIP3   OH211066   3.176   3.174   3.429
 3701TIP3    H111067   3.256   3.186   3.377
 3701TIP3    H211068   3.180   3.246   3.494
 3702TIP3   OH211069   3.809   0.480   2.692
 3702TIP3    H111070   3.863   0.421   2.744
 3702TIP3    H211071   3.723   0.477   2.733
 3703TIP3   OH211072   6.939   2.926   5.628
 3703TIP3    H111073   7.007   2.906   5.692
 3703TIP3    H211074   6.967   3.009   5.589
 3704TIP3   OH211075   3.298   1.922   4.319
 3704TIP3    H111076   3.360   1.987   4.351
 3704TIP3    H211077   3.352   1.849   4.291
 3705TIP3   OH211078   5.827   5.868   4.532
 3705TIP3    H111079   5.755   5.930   4.528
 3705TIP3    H211080   5.896   5.915   4.580
 3706TIP3   OH211081   6.166   0.525   4.459
 3706TIP3    H111082   6.123   0.602   4.421
 3706TIP3    H211083   6.200   0.477   4.383
 3707TIP3   OH211084   1.425   5.712   5.217
 3707TIP3    H111085   1.330   5.709   5.227
 3707TIP3    H211086   1.439   5.760   5.135
 3708TIP3   OH211087   3.406   3.174   4.711
 3708TIP3    H111088   3.492   3.132   4.708
 3708TIP3    H211089   3.378   3.177   4.619
 3709TIP3   OH211090   4.251   0.490   1.632
 3709TIP3    H111091   4.258   0.530   1.719
 3709TIP3    H211092   4.309   0.542   1.577
 3710TIP3   OH211093   4.150   0.386   2.135
 3710TIP3    H111094   4.152   0.335   2.054
 3710TIP3    H211095   4.058   0.410   2.146
 3711TIP3   OH211096   6.576   1.511   2.925
 3711TIP3    H111097   6.585   1.444   2.858
 3711TIP3    H211098   6.661   1.512   2.970
 3712TIP3   OH211099   2.497   0.213   5.886
 3712TIP3    H111100   2.523   0.139   5.941
 3712TIP3    H211101   2.427   0.256   5.936
 3713TIP3   OH211102   2.130   3.983   3.725
 3713TIP3    H111103   2.063   3.934   3.773
 3713TIP3    H211104   2.212   3.961   3.769
 3714TIP3   OH211105   2.098   3.817   1.971
 3714TIP3    H111106   2.100   3.774   1.886
 3714TIP3    H211107   2.088   3.910   1.951
 3715TIP3   OH211108   4.692   2.343   4.470
 3715TIP3    H111109   4.686   2.413   4.405
 3715TIP3    H211110   4.642   2.270   4.432
 3716TIP3   OH211111   3.275   3.783   3.482
 3716TIP3    H111112   3.273   3.708   3.423
 3716TIP3    H211113   3.358   3.827   3.463
 3717TIP3   OH211114   0.954   2.796   2.548
 3717TIP3    H111115   0.955   2.812   2.453
 3717TIP3    H211116   0.932   2.704   2.557
 3718TIP3   OH211117   3.150   1.688   4.107
 3718TIP3    H111118   3.115   1.618   4.163
 3718TIP3    H211119   3.193   1.748   4.168
 3719TIP3   OH211120   3.294   1.091   3.477
 3719TIP3    H111121   3.346   1.060   3.551
 3719TIP3    H211122   3.217   1.132   3.516
 3720TIP3   OH211123   6.025   6.262   0.504
 3720TIP3    H111124   5.951   6.209   0.534
 3720TIP3    H211125   5.993   6.352   0.505
 3721TIP3   OH211126   5.329   1.341   4.245
 3721TIP3    H111127   5.251   1.340   4.190
 3721TIP3    H211128   5.398   1.375   4.188
 3722TIP3   OH211129   6.982   4.610   0.032
 3722TIP3    H111130   6.935   4.683   0.071
 3722TIP3    H211131   7.068   4.646   0.008
 3723TIP3   OH211132   3.415   5.234   2.912
 3723TIP3    H111133   3.437   5.206   3.001
 3723TIP3    H211134   3.434   5.328   2.911
 3724TIP3   OH211135   1.561   1.545   1.226
 3724TIP3    H111136   1.586   1.485   1.155
 3724TIP3    H211137   1.478   1.583   1.196
 3725TIP3   OH211138   1.291   5.247   0.609
 3725TIP3    H111139   1.204   5.260   0.647
 3725TIP3    H211140   1.313   5.331   0.569
 3726TIP3   OH211141   1.518   6.646   4.107
 3726TIP3    H111142   1.501   6.613   4.195
 3726TIP3    H211143   1.606   6.684   4.112
 3727TIP3   OH211144   0.413   1.480   5.122
 3727TIP3    H111145   0.450   1.413   5.065
 3727TIP3    H211146   0.490   1.528   5.154
 3728TIP3   OH211147   6.329   4.730   3.245
 3728TIP3    H111148   6.394   4.771   3.188
 3728TIP3    H211149   6.366   4.737   3.333
 3729TIP3   OH211150   2.380   1.269   0.715
 3729TIP3    H111151   2.415   1.352   0.682
 3729TIP3    H211152   2.413   1.203   0.654
 3730TIP3   OH211153   6.189   3.151   4.933
 3730TIP3    H111154   6.271   3.109   4.958
 3730TIP3    H211155   6.129   3.131   5.004
 3731TIP3   OH211156   1.618   3.555   3.703
 3731TIP3    H111157   1.596   3.645   3.680
 3731TIP3    H211158   1.569   3.501   3.640
 3732TIP3   OH211159   4.533   4.103   3.888
 3732TIP3    H111160   4.622   4.121   3.919
 3732TIP3    H211161   4.502   4.031   3.943
 3733TIP3   OH211162   4.285   4.861   5.026
 3733TIP3    H111163   4.261   4.936   5.080
 3733TIP3    H211164   4.361   4.891   4.976
 3734TIP3   OH211165   1.982   2.372   3.527
 3734TIP3    H111166   2.073   2.348   3.543
 3734TIP3    H211167   1.973   2.460   3.564
 3735TIP3   OH211168   4.781   3.527   3.438
 3735TIP3    H111169   4.824   3.520   3.353
 3735TIP3    H211170   4.780   3.621   3.456
 3736TIP3   OH211171   6.979   2.361   2.885
 3736TIP3    H111172   7.050   2.351   2.822
 3736TIP3    H211173   6.915   2.418   2.842
 3737TIP3   OH211174   3.950   6.143   0.006
 3737TIP3    H111175   3.859   6.161   0.027
 3737TIP3    H211176   4.000   6.203   0.061
 3738TIP3   OH211177   2.634   3.360   4.897
 3738TIP3    H111178   2.560   3.408   4.934
 3738TIP3    H211179   2.637   3.388   4.805
 3739TIP3   OH211180   6.372   5.809   0.402
 3739TIP3    H111181   6.454   5.846   0.370
 3739TIP3    H211182   6.347   5.744   0.337
 3740TIP3   OH211183   2.959   6.458   2.477
 3740TIP3    H111184   2.998   6.531   2.526
 3740TIP3    H211185   3.032   6.398   2.461
 3741TIP3   OH211186   4.162   6.016   2.331
 3741TIP3    H111187   4.149   6.103   2.293
 3741TIP3    H211188   4.168   6.032   2.425
 3742TIP3   OH211189   6.682   4.946   2.431
 3742TIP3    H111190   6.596   4.988   2.432
 3742TIP3    H211191   6.666   4.858   2.466
 3743TIP3   OH211192   4.212   5.116   0.166
 3743TIP3    H111193   4.200   5.024   0.145
 3743TIP3    H211194   4.304   5.133   0.146
 3744TIP3   OH211195   5.249   3.109   3.269
 3744TIP3    H111196   5.340   3.095   3.293
 3744TIP3    H211197   5.224   3.031   3.220
 3745TIP3   OH211198   6.416   0.993   1.544
 3745TIP3    H111199   6.409   1.057   1.614
 3745TIP3    H211200   6.508   0.996   1.517
 3746TIP3   OH211201   0.789   0.786   3.694
 3746TIP3    H111202   0.791   0.745   3.607
 3746TIP3    H211203   0.881   0.796   3.718
 3747TIP3   OH211204   1.245   5.837   1.186
 3747TIP3    H111205   1.288   5.868   1.265
 3747TIP3    H211206   1.297   5.761   1.158
 3748TIP3   OH211207   1.699   4.653   5.216
 3748TIP3    H111208   1.722   4.642   5.309
 3748TIP3    H211209   1.696   4.748   5.204
 3749TIP3   OH211210   5.718   6.757   4.938
 3749TIP3    H111211   5.674   6.786   5.017
 3749TIP3    H211212   5.758   6.836   4.902
 3750TIP3   OH211213   2.327   1.356   5.484
 3750TIP3    H111214   2.350   1.417   5.414
 3750TIP3    H211215   2.277   1.408   5.546
 3751TIP3   OH211216   2.827   5.264   3.348
 3751TIP3    H111217   2.908   5.213   3.357
 3751TIP3    H211218   2.793   5.239   3.262
 3752TIP3   OH211219   2.274   5.779   5.741
 3752TIP3    H111220   2.280   5.858   5.794
 3752TIP3    H211221   2.185   5.781   5.705
 3753TIP3   OH211222   0.079   2.354   5.873
 3753TIP3    H111223   0.089   2.318   5.785
 3753TIP3    H211224   0.013   2.422   5.864
 3754TIP3   OH211225   6.734   6.035   1.414
 3754TIP3    H111226   6.810   6.023   1.471
 3754TIP3    H211227   6.668   6.076   1.470
 3755TIP3   OH211228   2.680   5.034   4.609
 3755TIP3    H111229   2.639   4.980   4.676
 3755TIP3    H211230   2.769   5.049   4.641
 3756TIP3   OH211231   2.685   0.272   5.688
 3756TIP3    H111232   2.754   0.247   5.749
 3756TIP3    H211233   2.603   0.258   5.736
 3757TIP3   OH211234   5.564   3.781   2.328
 3757TIP3    H111235   5.658   3.786   2.312
 3757TIP3    H211236   5.527   3.854   2.277
 3758TIP3   OH211237   4.169   0.686   4.275
 3758TIP3    H111238   4.177   0.632   4.353
 3758TIP3    H211239   4.107   0.755   4.299
 3759TIP3   OH211240   3.089   5.506   5.386
 3759TIP3    H111241   3.017   5.558   5.350
 3759TIP3    H211242   3.110   5.549   5.469
 3760TIP3   OH211243   0.405   4.733   5.235
 3760TIP3    H111244   0.493   4.738   5.273
 3760TIP3    H211245   0.372   4.648   5.264
 3761TIP3   OH211246   0.036   1.283   2.800
 3761TIP3    H111247   0.056   1.232   2.879
 3761TIP3    H211248   0.119   1.325   2.777
 3762TIP3   OH211249   0.055   6.032   3.064
 3762TIP3    H111250   0.055   6.114   3.113
 3762TIP3    H211251   0.115   5.975   3.111
 3763TIP3   OH211252   4.463   6.269   1.885
 3763TIP3    H111253   4.467   6.325   1.963
 3763TIP3    H211254   4.370   6.259   1.869
 3764TIP3   OH211255   7.004   1.239   2.783
 3764TIP3    H111256   7.087   1.281   2.805
 3764TIP3    H211257   6.967   1.294   2.714
 3765TIP3   OH211258   5.698   2.029   4.779
 3765TIP3    H111259   5.663   2.118   4.792
 3765TIP3    H211260   5.789   2.043   4.752
 3766TIP3   OH211261   2.663   0.457   1.084
 3766TIP3    H111262   2.598   0.393   1.112
 3766TIP3    H211263   2.747   0.421   1.110
 3767TIP3   OH211264   0.535   5.453   1.271
 3767TIP3    H111265   0.579   5.396   1.207
 3767TIP3    H211266   0.470   5.500   1.221
 3768TIP3   OH211267   0.115   3.023   1.042
 3768TIP3    H111268   0.202   3.049   1.012
 3768TIP3    H211269   0.056   3.082   0.995
 3769TIP3   OH211270   1.725   0.188   3.154
 3769TIP3    H111271   1.805   0.155   3.196
 3769TIP3    H211272   1.655   0.133   3.188
 3770TIP3   OH211273   0.046   6.763   0.540
 3770TIP3    H111274  -0.047   6.785   0.537
 3770TIP3    H211275   0.083   6.806   0.463
 3771TIP3   OH211276   1.166   6.480   5.187
 3771TIP3    H111277   1.127   6.552   5.136
 3771TIP3    H211278   1.239   6.450   5.134
 3772TIP3   OH211279   5.297   3.457   3.597
 3772TIP3    H111280   5.332   3.368   3.595
 3772TIP3    H211281   5.261   3.467   3.685
 3773TIP3   OH211282   3.954   2.631   0.372
 3773TIP3    H111283   3.924   2.651   0.460
 3773TIP3    H211284   3.876   2.602   0.325
 3774TIP3   OH211285   1.451   1.340   2.021
 3774TIP3    H111286   1.464   1.246   2.036
 3774TIP3    H211287   1.363   1.346   1.984
 3775TIP3   OH211288   5.965   4.819   5.813
 3775TIP3    H111289   5.935   4.889   5.871
 3775TIP3    H211290   5.943   4.738   5.859
 3776TIP3   OH211291   3.323   5.740   5.198
 3776TIP3    H111292   3.328   5.672   5.131
 3776TIP3    H211293   3.243   5.789   5.177
 3777TIP3   OH211294   7.137   6.071   0.685
 3777TIP3    H111295   7.116   6.084   0.592
 3777TIP3    H211296   7.163   6.158   0.716
 3778TIP3   OH211297   3.747   6.102   3.591
 3778TIP3    H111298   3.754   6.068   3.502
 3778TIP3    H211299   3.669   6.158   3.588
 3779TIP3   OH211300   4.512   4.481   3.320
 3779TIP3    H111301   4.515   4.436   3.236
 3779TIP3    H211302   4.538   4.414   3.384
 3780TIP3   OH211303   4.481   3.924   2.421
 3780TIP3    H111304   4.538   3.849   2.404
 3780TIP3    H211305   4.542   3.997   2.432
 3781TIP3   OH211306   2.547   2.888   1.022
 3781TIP3    H111307   2.555   2.977   1.053
 3781TIP3    H211308   2.470   2.854   1.067
 3782TIP3   OH211309   7.136   2.794   4.812
 3782TIP3    H111310   7.195   2.853   4.859
 3782TIP3    H211311   7.050   2.833   4.823
 3783TIP3   OH211312   5.622   5.434   2.004
 3783TIP3    H111313   5.696   5.494   2.003
 3783TIP3    H211314   5.629   5.388   2.088
 3784TIP3   OH211315   2.868   6.231   4.910
 3784TIP3    H111316   2.899   6.145   4.938
 3784TIP3    H211317   2.868   6.227   4.815
 3785TIP3   OH211318   2.960   5.222   5.754
 3785TIP3    H111319   2.873   5.262   5.754
 3785TIP3    H211320   2.993   5.235   5.665
 3786TIP3   OH211321   0.800   0.259   3.969
 3786TIP3    H111322   0.857   0.219   3.903
 3786TIP3    H211323   0.713   0.222   3.950
 3787TIP3   OH211324   5.693   0.336   1.483
 3787TIP3    H111325   5.724   0.270   1.545
 3787TIP3    H211326   5.709   0.298   1.396
 3788TIP3   OH211327   5.682   4.430   5.110
 3788TIP3    H111328   5.599   4.390   5.135
 3788TIP3    H211329   5.666   4.524   5.113
 3789TIP3   OH211330   6.625   5.956   0.884
 3789TIP3    H111331   6.583   5.900   0.819
 3789TIP3    H211332   6.715   5.965   0.854
 3790TIP3   OH211333   0.852   2.301   1.266
 3790TIP3    H111334   0.796   2.279   1.340
 3790TIP3    H211335   0.933   2.332   1.307
 3791TIP3   OH211336   0.876   4.421   5.264
 3791TIP3    H111337   0.924   4.484   5.209
 3791TIP3    H211338   0.944   4.373   5.311
 3792TIP3   OH211339   5.863   6.465   2.743
 3792TIP3    H111340   5.844   6.447   2.835
 3792TIP3    H211341   5.792   6.422   2.695
 3793TIP3   OH211342   2.628   1.299   4.145
 3793TIP3    H111343   2.552   1.242   4.139
 3793TIP3    H211344   2.654   1.295   4.237
 3794TIP3   OH211345   5.618   0.905   4.485
 3794TIP3    H111346   5.570   0.827   4.459
 3794TIP3    H211347   5.603   0.967   4.414
 3795TIP3   OH211348   0.879   1.110   0.158
 3795TIP3    H111349   0.900   1.196   0.194
 3795TIP3    H211350   0.839   1.062   0.232
 3796TIP3   OH211351   5.947   2.149   2.863
 3796TIP3    H111352   5.870   2.112   2.906
 3796TIP3    H211353   5.999   2.073   2.837
 3797TIP3   OH211354   6.659   4.193   3.206
 3797TIP3    H111355   6.737   4.189   3.262
 3797TIP3    H211356   6.616   4.275   3.230
 3798TIP3   OH211357   1.368   2.542   0.091
 3798TIP3    H111358   1.357   2.462   0.040
 3798TIP3    H211359   1.322   2.525   0.173
 3799TIP3   OH211360   2.044   6.509   0.136
 3799TIP3    H111361   2.088   6.451   0.074
 3799TIP3    H211362   1.981   6.454   0.181
 3800TIP3   OH211363   2.725   4.789   0.083
 3800TIP3    H111364   2.819   4.776   0.066
 3800TIP3    H211365   2.682   4.760   0.003
 3801TIP3   OH211366   5.213   3.662   0.854
 3801TIP3    H111367   5.291   3.715   0.870
 3801TIP3    H211368   5.146   3.700   0.911
 3802TIP3   OH211369   6.029   5.497   0.855
 3802TIP3    H111370   6.053   5.431   0.790
 3802TIP3    H211371   6.015   5.577   0.804
 3803TIP3   OH211372   6.661   0.713   4.668
 3803TIP3    H111373   6.597   0.644   4.685
 3803TIP3    H211374   6.744   0.676   4.698
 3804TIP3   OH211375   6.592   3.247   3.542
 3804TIP3    H111376   6.532   3.321   3.530
 3804TIP3    H211377   6.620   3.253   3.634
 3805TIP3   OH211378   3.963   0.819   5.140
 3805TIP3    H111379   3.948   0.870   5.060
 3805TIP3    H211380   3.900   0.854   5.202
 3806TIP3   OH211381   6.947   4.569   5.763
 3806TIP3    H111382   6.970   4.598   5.675
 3806TIP3    H211383   7.021   4.597   5.818
 3807TIP3   OH211384   2.828   2.516   0.187
 3807TIP3    H111385   2.777   2.595   0.168
 3807TIP3    H211386   2.797   2.487   0.273
 3808TIP3   OH211387   6.031   1.267   0.634
 3808TIP3    H111388   6.112   1.299   0.672
 3808TIP3    H211389   5.979   1.239   0.709
 3809TIP3   OH211390   4.511   6.580   3.953
 3809TIP3    H111391   4.527   6.593   3.860
 3809TIP3    H211392   4.583   6.524   3.982
 3810TIP3   OH211393   0.151   4.443   1.519
 3810TIP3    H111394   0.210   4.517   1.533
 3810TIP3    H211395   0.146   4.400   1.604
 3811TIP3   OH211396   3.091   0.973   3.705
 3811TIP3    H111397   3.181   0.983   3.734
 3811TIP3    H211398   3.043   0.946   3.783
 3812TIP3   OH211399   4.900   5.246   3.202
 3812TIP3    H111400   4.994   5.263   3.209
 3812TIP3    H211401   4.892   5.191   3.124
 3813TIP3   OH211402   5.216   6.286   5.811
 3813TIP3    H111403   5.194   6.255   5.898
 3813TIP3    H211404   5.251   6.209   5.766
 3814TIP3   OH211405   2.206   1.598   2.328
 3814TIP3    H111406   2.174   1.580   2.239
 3814TIP3    H211407   2.243   1.686   2.322
 3815TIP3   OH211408   5.258   5.616   4.325
 3815TIP3    H111409   5.235   5.693   4.273
 3815TIP3    H211410   5.258   5.544   4.263
 3816TIP3   OH211411   0.105   2.969   0.496
 3816TIP3    H111412   0.131   2.929   0.579
 3816TIP3    H211413   0.084   3.060   0.519
 3817TIP3   OH211414   1.742   6.445   3.424
 3817TIP3    H111415   1.682   6.495   3.479
 3817TIP3    H211416   1.812   6.417   3.483
 3818TIP3   OH211417   5.463   5.344   4.551
 3818TIP3    H111418   5.369   5.335   4.566
 3818TIP3    H211419   5.498   5.376   4.634
 3819TIP3   OH211420   5.281   2.796   4.928
 3819TIP3    H111421   5.265   2.768   5.018
 3819TIP3    H211422   5.229   2.736   4.875
 3820TIP3   OH211423   6.597   4.218   1.509
 3820TIP3    H111424   6.625   4.187   1.423
 3820TIP3    H211425   6.642   4.160   1.571
 3821TIP3   OH211426   3.967   0.156   2.026
 3821TIP3    H111427   3.966   0.150   2.121
 3821TIP3    H211428   3.984   0.066   1.996
 3822TIP3   OH211429   5.388   3.317   5.706
 3822TIP3    H111430   5.405   3.223   5.707
 3822TIP3    H211431   5.311   3.327   5.763
 3823TIP3   OH211432   1.539   3.534   2.226
 3823TIP3    H111433   1.486   3.588   2.167
 3823TIP3    H211434   1.501   3.549   2.313
 3824TIP3   OH211435   1.669   6.605   2.667
 3824TIP3    H111436   1.630   6.617   2.753
 3824TIP3    H211437   1.692   6.693   2.638
 3825TIP3   OH211438   3.812   1.296   2.318
 3825TIP3    H111439   3.764   1.363   2.268
 3825TIP3    H211440   3.745   1.250   2.367
 3826TIP3   OH211441   3.977   0.900   2.007
 3826TIP3    H111442   3.941   0.968   2.064
 3826TIP3    H211443   4.022   0.840   2.066
 3827TIP3   OH211444   5.257   3.975   4.060
 3827TIP3    H111445   5.312   3.919   4.005
 3827TIP3    H211446   5.312   4.050   4.080
 3828TIP3   OH211447   2.299   2.818   3.154
 3828TIP3    H111448   2.384   2.821   3.111
 3828TIP3    H211449   2.320   2.815   3.248
 3829TIP3   OH211450   2.502   0.292   2.354
 3829TIP3    H111451   2.506   0.283   2.450
 3829TIP3    H211452   2.518   0.385   2.337
 3830TIP3   OH211453   4.866   5.880   1.613
 3830TIP3    H111454   4.933   5.938   1.576
 3830TIP3    H211455   4.820   5.844   1.538
 3831TIP3   OH211456   4.589   4.144   5.303
 3831TIP3    H111457   4.561   4.177   5.217
 3831TIP3    H211458   4.579   4.049   5.297
 3832TIP3   OH211459   2.865   1.667   4.555
 3832TIP3    H111460   2.895   1.735   4.495
 3832TIP3    H211461   2.930   1.665   4.624
 3833TIP3   OH211462   3.827   1.167   4.605
 3833TIP3    H111463   3.790   1.185   4.518
 3833TIP3    H211464   3.823   1.250   4.651
 3834TIP3   OH211465   0.947   5.373   5.243
 3834TIP3    H111466   0.959   5.316   5.167
 3834TIP3    H211467   0.917   5.456   5.205
 3835TIP3   OH211468   1.507   5.185   4.546
 3835TIP3    H111469   1.577   5.250   4.551
 3835TIP3    H211470   1.551   5.103   4.524
 3836TIP3   OH211471   2.990   6.368   3.696
 3836TIP3    H111472   3.008   6.276   3.718
 3836TIP3    H211473   2.896   6.370   3.679
 3837TIP3   OH211474   6.855   1.937   2.782
 3837TIP3    H111475   6.837   1.861   2.728
 3837TIP3    H211476   6.932   1.978   2.741
 3838TIP3   OH211477   4.811   4.355   5.425
 3838TIP3    H111478   4.863   4.290   5.473
 3838TIP3    H211479   4.805   4.320   5.336
 3839TIP3   OH211480   5.271   3.464   3.876
 3839TIP3    H111481   5.180   3.436   3.872
 3839TIP3    H211482   5.269   3.544   3.930
 3840TIP3   OH211483   3.829   3.892   5.310
 3840TIP3    H111484   3.876   3.845   5.241
 3840TIP3    H211485   3.894   3.952   5.346
 3841TIP3   OH211486   3.191   1.750   3.610
 3841TIP3    H111487   3.120   1.789   3.662
 3841TIP3    H211488   3.172   1.656   3.611
 3842TIP3   OH211489   1.308   6.416   0.784
 3842TIP3    H111490   1.274   6.455   0.864
 3842TIP3    H211491   1.365   6.346   0.814
 3843TIP3   OH211492   6.059   1.940   3.259
 3843TIP3    H111493   6.093   1.872   3.201
 3843TIP3    H211494   6.108   1.928   3.341
 3844TIP3   OH211495   0.295   0.263   3.072
 3844TIP3    H111496   0.202   0.262   3.050
 3844TIP3    H211497   0.328   0.342   3.027
 3845TIP3   OH211498   0.866   1.902   3.912
 3845TIP3    H111499   0.817   1.837   3.962
 3845TIP3    H211500   0.861   1.872   3.821
 3846TIP3   OH211501   2.415   5.318   2.912
 3846TIP3    H111502   2.362   5.238   2.904
 3846TIP3    H211503   2.494   5.300   2.861
 3847TIP3   OH211504   1.517   6.640   0.893
 3847TIP3    H111505   1.576   6.577   0.851
 3847TIP3    H211506   1.575   6.708   0.928
 3848TIP3   OH211507   6.270   5.946   2.363
 3848TIP3    H111508   6.279   6.026   2.414
 3848TIP3    H211509   6.203   5.896   2.409
 3849TIP3   OH211510   5.179   1.575   3.710
 3849TIP3    H111511   5.270   1.580   3.682
 3849TIP3    H211512   5.165   1.482   3.728
 3850TIP3   OH211513   6.096   6.381   4.169
 3850TIP3    H111514   6.068   6.290   4.155
 3850TIP3    H211515   6.138   6.380   4.255
 3851TIP3   OH211516   2.650   1.472   5.330
 3851TIP3    H111517   2.645   1.407   5.400
 3851TIP3    H211518   2.655   1.556   5.376
 3852TIP3   OH211519   3.495   3.816   1.565
 3852TIP3    H111520   3.409   3.826   1.526
 3852TIP3    H211521   3.480   3.764   1.644
 3853TIP3   OH211522   0.405   3.786   2.501
 3853TIP3    H111523   0.479   3.729   2.480
 3853TIP3    H211524   0.343   3.770   2.430
 3854TIP3   OH211525   3.626   4.017   2.008
 3854TIP3    H111526   3.574   4.075   1.952
 3854TIP3    H211527   3.660   4.074   2.076
 3855TIP3   OH211528   1.775   0.854   4.928
 3855TIP3    H111529   1.790   0.843   4.834
 3855TIP3    H211530   1.861   0.874   4.964
 3856TIP3   OH211531   1.105   4.331   4.348
 3856TIP3    H111532   1.168   4.259   4.343
 3856TIP3    H211533   1.051   4.311   4.424
 3857TIP3   OH211534   4.695   1.456   1.105
 3857TIP3    H111535   4.627   1.492   1.162
 3857TIP3    H211536   4.772   1.511   1.121
 3858TIP3   OH211537   6.327   3.448   3.050
 3858TIP3    H111538   6.403   3.506   3.046
 3858TIP3    H211539   6.258   3.495   3.002
 3859TIP3   OH211540   1.464   3.298   3.555
 3859TIP3    H111541   1.427   3.361   3.492
 3859TIP3    H211542   1.523   3.244   3.503
 3860TIP3   OH211543   3.985   1.449   0.067
 3860TIP3    H111544   4.050   1.456  -0.003
 3860TIP3    H211545   3.955   1.538   0.082
 3861TIP3   OH211546   4.577   0.179   3.367
 3861TIP3    H111547   4.632   0.255   3.351
 3861TIP3    H211548   4.560   0.142   3.281
 3862TIP3   OH211549   0.308   3.078   1.506
 3862TIP3    H111550   0.245   3.103   1.574
 3862TIP3    H211551   0.254   3.039   1.438
 3863TIP3   OH211552   3.900   0.286   3.319
 3863TIP3    H111553   3.953   0.350   3.368
 3863TIP3    H211554   3.837   0.341   3.271
 3864TIP3   OH211555   3.164   1.520   2.997
 3864TIP3    H111556   3.188   1.570   2.919
 3864TIP3    H211557   3.095   1.461   2.967
 3865TIP3   OH211558   1.725   2.299   4.369
 3865TIP3    H111559   1.661   2.349   4.419
 3865TIP3    H211560   1.683   2.214   4.353
 3866TIP3   OH211561   5.022   4.167   0.022
 3866TIP3    H111562   5.050   4.185  -0.068
 3866TIP3    H211563   5.048   4.077   0.038
 3867TIP3   OH211564   6.980   4.365   1.628
 3867TIP3    H111565   7.007   4.273   1.623
 3867TIP3    H211566   6.930   4.371   1.709
 3868TIP3   OH211567   3.142   0.015   0.942
 3868TIP3    H111568   3.172  -0.076   0.938
 3868TIP3    H211569   3.168   0.045   1.029
 3869TIP3   OH211570   4.266   3.794   3.122
 3869TIP3    H111571   4.269   3.850   3.200
 3869TIP3    H211572   4.184   3.745   3.131
 3870TIP3   OH211573   7.200   3.338   2.123
 3870TIP3    H111574   7.121   3.321   2.071
 3870TIP3    H211575   7.262   3.272   2.095
 3871TIP3   OH211576   1.936   4.376   5.359
 3871TIP3    H111577   1.979   4.450   5.401
 3871TIP3    H211578   1.907   4.319   5.431
 3872TIP3   OH211579   2.572   2.612   2.035
 3872TIP3    H111580   2.654   2.609   1.985
 3872TIP3    H211581   2.582   2.543   2.101
 3873TIP3   OH211582   4.114   2.422   4.488
 3873TIP3    H111583   4.186   2.430   4.552
 3873TIP3    H211584   4.108   2.328   4.470
 3874TIP3   OH211585   3.523   5.819   0.581
 3874TIP3    H111586   3.559   5.731   0.567
 3874TIP3    H211587   3.600   5.875   0.589
 3875TIP3   OH211588   0.606   2.878   0.098
 3875TIP3    H111589   0.640   2.968   0.104
 3875TIP3    H211590   0.567   2.874   0.010
 3876TIP3   OH211591   4.715   3.451   1.346
 3876TIP3    H111592   4.645   3.478   1.405
 3876TIP3    H211593   4.761   3.381   1.393
 3877TIP3   OH211594   0.089   3.733   1.054
 3877TIP3    H111595   0.047   3.665   1.106
 3877TIP3    H211596   0.063   3.815   1.096
 3878TIP3   OH211597   2.728   5.778   5.165
 3878TIP3    H111598   2.804   5.739   5.122
 3878TIP3    H211599   2.665   5.794   5.094
 3879TIP3   OH211600   5.892   4.674   0.008
 3879TIP3    H111601   5.938   4.697  -0.073
 3879TIP3    H211602   5.813   4.728   0.007
 3880TIP3   OH211603   2.632   6.762   1.397
 3880TIP3    H111604   2.616   6.819   1.321
 3880TIP3    H211605   2.711   6.798   1.437
 3881TIP3   OH211606   2.165   6.694   1.326
 3881TIP3    H111607   2.176   6.662   1.415
 3881TIP3    H211608   2.171   6.616   1.271
 3882TIP3   OH211609   3.760   5.003   3.805
 3882TIP3    H111610   3.729   5.030   3.718
 3882TIP3    H211611   3.801   4.918   3.791
 3883TIP3   OH211612   1.600   0.574   4.959
 3883TIP3    H111613   1.539   0.568   5.032
 3883TIP3    H211614   1.592   0.489   4.915
 3884TIP3   OH211615   0.273   0.974   0.308
 3884TIP3    H111616   0.274   1.008   0.398
 3884TIP3    H211617   0.322   1.039   0.258
 3885TIP3   OH211618   2.512   4.380   4.399
 3885TIP3    H111619   2.536   4.393   4.490
 3885TIP3    H211620   2.567   4.441   4.350
 3886TIP3   OH211621   1.499   0.880   5.736
 3886TIP3    H111622   1.441   0.805   5.723
 3886TIP3    H211623   1.540   0.893   5.651
 3887TIP3   OH211624   4.547   5.953   2.067
 3887TIP3    H111625   4.581   5.930   1.980
 3887TIP3    H211626   4.456   5.977   2.051
 3888TIP3   OH211627   7.011   1.589   2.921
 3888TIP3    H111628   7.053   1.602   2.836
 3888TIP3    H211629   7.044   1.661   2.975
 3889TIP3   OH211630   5.111   3.325   5.397
 3889TIP3    H111631   5.093   3.239   5.359
 3889TIP3    H211632   5.148   3.376   5.325
 3890TIP3   OH211633   3.035   2.858   3.900
 3890TIP3    H111634   2.943   2.842   3.921
 3890TIP3    H211635   3.051   2.808   3.820
 3891TIP3   OH211636   5.063   0.725   3.716
 3891TIP3    H111637   5.050   0.631   3.699
 3891TIP3    H211638   5.010   0.742   3.794
 3892TIP3   OH211639   4.136   0.651   3.636
 3892TIP3    H111640   4.183   0.720   3.590
 3892TIP3    H211641   4.203   0.607   3.688
 3893TIP3   OH211642   4.231   1.631   3.580
 3893TIP3    H111643   4.321   1.661   3.565
 3893TIP3    H211644   4.221   1.631   3.675
 3894TIP3   OH211645   7.118   4.065   4.498
 3894TIP3    H111646   7.061   3.996   4.464
 3894TIP3    H211647   7.077   4.093   4.579
 3895TIP3   OH211648   6.144   4.503   4.066
 3895TIP3    H111649   6.100   4.538   4.143
 3895TIP3    H211650   6.223   4.557   4.057
 3896TIP3   OH211651   6.814   4.467   0.587
 3896TIP3    H111652   6.744   4.437   0.644
 3896TIP3    H211653   6.779   4.545   0.545
 3897TIP3   OH211654   2.561   3.242   0.116
 3897TIP3    H111655   2.581   3.239   0.210
 3897TIP3    H211656   2.632   3.194   0.075
 3898TIP3   OH211657   5.094   1.780   5.640
 3898TIP3    H111658   5.057   1.736   5.717
 3898TIP3    H211659   5.184   1.750   5.635
 3899TIP3   OH211660   2.851   2.787   5.637
 3899TIP3    H111661   2.944   2.778   5.615
 3899TIP3    H211662   2.844   2.874   5.675
 3900TIP3   OH211663   1.490   1.748   1.757
 3900TIP3    H111664   1.515   1.816   1.820
 3900TIP3    H211665   1.548   1.675   1.776
 3901TIP3   OH211666   1.320   4.821   1.642
 3901TIP3    H111667   1.256   4.816   1.713
 3901TIP3    H211668   1.289   4.758   1.577
 3902TIP3   OH211669   0.301   0.627   3.707
 3902TIP3    H111670   0.307   0.714   3.747
 3902TIP3    H211671   0.277   0.569   3.779
 3903TIP3   OH211672   5.457   3.974   2.160
 3903TIP3    H111673   5.387   4.021   2.206
 3903TIP3    H211674   5.414   3.935   2.084
 3904TIP3   OH211675   1.249   2.727   2.491
 3904TIP3    H111676   1.263   2.688   2.577
 3904TIP3    H211677   1.205   2.810   2.510
 3905TIP3   OH211678   4.180   4.195   0.210
 3905TIP3    H111679   4.101   4.193   0.265
 3905TIP3    H211680   4.252   4.200   0.273
 3906TIP3   OH211681   3.033   1.229   5.350
 3906TIP3    H111682   3.126   1.220   5.329
 3906TIP3    H211683   3.004   1.141   5.371
 3907TIP3   OH211684   4.587   3.367   3.550
 3907TIP3    H111685   4.629   3.427   3.489
 3907TIP3    H211686   4.617   3.280   3.522
 3908TIP3   OH211687   6.357   4.923   0.942
 3908TIP3    H111688   6.394   4.911   1.029
 3908TIP3    H211689   6.431   4.912   0.882
 3909TIP3   OH211690   1.123   1.390   3.867
 3909TIP3    H111691   1.116   1.333   3.790
 3909TIP3    H211692   1.091   1.336   3.939
 3910TIP3   OH211693   5.863   3.484   4.502
 3910TIP3    H111694   5.807   3.504   4.427
 3910TIP3    H211695   5.899   3.397   4.482
 3911TIP3   OH211696   1.639   1.260   0.123
 3911TIP3    H111697   1.602   1.312   0.053
 3911TIP3    H211698   1.699   1.200   0.078
 3912TIP3   OH211699   3.985   4.967   0.793
 3912TIP3    H111700   3.995   4.948   0.699
 3912TIP3    H211701   4.067   4.936   0.832
 3913TIP3   OH211702   5.486   5.739   3.382
 3913TIP3    H111703   5.564   5.699   3.422
 3913TIP3    H211704   5.423   5.667   3.377
 3914TIP3   OH211705   0.035   2.571   0.205
 3914TIP3    H111706  -0.033   2.604   0.146
 3914TIP3    H211707   0.115   2.574   0.153
 3915TIP3   OH211708   5.174   1.311   5.717
 3915TIP3    H111709   5.219   1.370   5.778
 3915TIP3    H211710   5.233   1.237   5.707
 3916TIP3   OH211711   4.736   2.684   3.285
 3916TIP3    H111712   4.773   2.727   3.208
 3916TIP3    H211713   4.724   2.753   3.349
 3917TIP3   OH211714   5.595   3.349   4.604
 3917TIP3    H111715   5.517   3.347   4.660
 3917TIP3    H211716   5.573   3.292   4.530
 3918TIP3   OH211717   5.586   3.943   5.580
 3918TIP3    H111718   5.675   3.976   5.592
 3918TIP3    H211719   5.598   3.851   5.555
 3919TIP3   OH211720   2.607   1.763   2.688
 3919TIP3    H111721   2.699   1.782   2.668
 3919TIP3    H211722   2.609   1.726   2.776
 3920TIP3   OH211723   6.480   6.782   4.850
 3920TIP3    H111724   6.468   6.873   4.823
 3920TIP3    H211725   6.392   6.751   4.869
 3921TIP3   OH211726   2.931   1.878   1.615
 3921TIP3    H111727   2.889   1.848   1.534
 3921TIP3    H211728   2.871   1.850   1.684
 3922TIP3   OH211729   0.556   2.293   1.659
 3922TIP3    H111730   0.534   2.266   1.749
 3922TIP3    H211731   0.641   2.336   1.668
 3923TIP3   OH211732   2.445   1.340   5.190
 3923TIP3    H111733   2.495   1.413   5.226
 3923TIP3    H211734   2.473   1.264   5.241
 3924TIP3   OH211735   6.410   0.444  -0.002
 3924TIP3    H111736   6.368   0.487   0.073
 3924TIP3    H211737   6.500   0.428   0.026
 3925TIP3   OH211738   1.700   4.949   0.432
 3925TIP3    H111739   1.745   4.877   0.476
 3925TIP3    H211740   1.692   4.920   0.341
 3926TIP3   OH211741   5.084   5.136   0.199
 3926TIP3    H111742   5.110   5.174   0.283
 3926TIP3    H211743   4.993   5.110   0.212
 3927TIP3   OH211744   3.367   3.654   3.072
 3927TIP3    H111745   3.452   3.661   3.028
 3927TIP3    H211746   3.303   3.663   3.002
 3928TIP3   OH211747   3.439   4.185   2.250
 3928TIP3    H111748   3.383   4.111   2.228
 3928TIP3    H211749   3.527   4.158   2.223
 3929TIP3   OH211750   4.826   2.253   1.672
 3929TIP3    H111751   4.772   2.325   1.704
 3929TIP3    H211752   4.773   2.175   1.691
 3930TIP3   OH211753   6.258   3.146   3.661
 3930TIP3    H111754   6.279   3.231   3.699
 3930TIP3    H211755   6.194   3.107   3.721
 3931TIP3   OH211756   6.282   0.806   0.512
 3931TIP3    H111757   6.272   0.799   0.417
 3931TIP3    H211758   6.368   0.769   0.531
 3932TIP3   OH211759   2.427   1.135   0.950
 3932TIP3    H111760   2.348   1.086   0.972
 3932TIP3    H211761   2.404   1.184   0.871
 3933TIP3   OH211762   5.451   1.739   1.289
 3933TIP3    H111763   5.473   1.804   1.356
 3933TIP3    H211764   5.529   1.685   1.281
 3934TIP3   OH211765   3.281   1.570   1.484
 3934TIP3    H111766   3.359   1.585   1.537
 3934TIP3    H211767   3.310   1.587   1.394
 3935TIP3   OH211768   1.165   1.547   5.091
 3935TIP3    H111769   1.088   1.595   5.060
 3935TIP3    H211770   1.188   1.590   5.173
 3936TIP3   OH211771   2.069   1.623   5.148
 3936TIP3    H111772   2.039   1.551   5.203
 3936TIP3    H211773   2.072   1.699   5.207
 3937TIP3   OH211774   3.205   5.430   1.286
 3937TIP3    H111775   3.218   5.524   1.299
 3937TIP3    H211776   3.127   5.410   1.337
 3938TIP3   OH211777   1.213   3.625   4.623
 3938TIP3    H111778   1.171   3.669   4.549
 3938TIP3    H211779   1.140   3.585   4.671
 3939TIP3   OH211780   6.155   3.481   0.645
 3939TIP3    H111781   6.229   3.494   0.585
 3939TIP3    H211782   6.129   3.390   0.632
 3940TIP3   OH211783   0.878   5.010   2.533
 3940TIP3    H111784   0.878   4.973   2.621
 3940TIP3    H211785   0.873   5.105   2.547
 3941TIP3   OH211786   3.141   1.294   5.001
 3941TIP3    H111787   3.223   1.289   4.951
 3941TIP3    H211788   3.160   1.355   5.073
 3942TIP3   OH211789   6.779   6.456   4.062
 3942TIP3    H111790   6.803   6.406   3.984
 3942TIP3    H211791   6.686   6.479   4.048
 3943TIP3   OH211792   5.398   0.326   1.196
 3943TIP3    H111793   5.329   0.368   1.247
 3943TIP3    H211794   5.479   0.354   1.239
 3944TIP3   OH211795   1.877   4.060   4.779
 3944TIP3    H111796   1.823   4.070   4.858
 3944TIP3    H211797   1.887   4.149   4.746
 3945TIP3   OH211798   5.679   3.522   4.281
 3945TIP3    H111799   5.664   3.427   4.283
 3945TIP3    H211800   5.601   3.558   4.239
 3946TIP3   OH211801   0.317   6.591   0.915
 3946TIP3    H111802   0.258   6.516   0.906
 3946TIP3    H211803   0.288   6.652   0.846
 3947TIP3   OH211804   1.521   0.211   2.943
 3947TIP3    H111805   1.501   0.304   2.951
 3947TIP3    H211806   1.590   0.196   3.008
 3948TIP3   OH211807   5.986   6.373   3.170
 3948TIP3    H111808   6.037   6.311   3.119
 3948TIP3    H211809   6.044   6.399   3.241
 3949TIP3   OH211810   6.816   4.802   1.909
 3949TIP3    H111811   6.743   4.742   1.919
 3949TIP3    H211812   6.783   4.885   1.945
 3950TIP3   OH211813   6.203   3.673   3.914
 3950TIP3    H111814   6.175   3.625   3.836
 3950TIP3    H211815   6.281   3.721   3.885
 3951TIP3   OH211816   0.711   4.633   1.565
 3951TIP3    H111817   0.625   4.590   1.562
 3951TIP3    H211818   0.750   4.612   1.480
 3952TIP3   OH211819   4.501   0.029   3.691
 3952TIP3    H111820   4.522   0.017   3.598
 3952TIP3    H211821   4.431  -0.033   3.708
 3953TIP3   OH211822   5.580   4.053   0.781
 3953TIP3    H111823   5.597   4.003   0.702
 3953TIP3    H211824   5.652   4.029   0.841
 3954TIP3   OH211825   3.332   5.778   2.205
 3954TIP3    H111826   3.358   5.728   2.282
 3954TIP3    H211827   3.377   5.735   2.132
 3955TIP3   OH211828   2.889   6.646   4.840
 3955TIP3    H111829   2.876   6.695   4.759
 3955TIP3    H211830   2.947   6.574   4.815
 3956TIP3   OH211831   4.927   1.184   0.238
 3956TIP3    H111832   5.005   1.143   0.276
 3956TIP3    H211833   4.883   1.225   0.313
 3957TIP3   OH211834   5.397   2.325   4.676
 3957TIP3    H111835   5.320   2.269   4.678
 3957TIP3    H211836   5.367   2.410   4.708
 3958TIP3   OH211837   5.648   3.066   3.134
 3958TIP3    H111838   5.711   3.137   3.140
 3958TIP3    H211839   5.644   3.044   3.041
 3959TIP3   OH211840   4.392   2.875   5.814
 3959TIP3    H111841   4.434   2.823   5.882
 3959TIP3    H211842   4.410   2.966   5.838
 3960TIP3   OH211843   2.276   4.490   5.002
 3960TIP3    H111844   2.256   4.424   5.068
 3960TIP3    H211845   2.242   4.572   5.039
 3961TIP3   OH211846   6.870   5.288   3.009
 3961TIP3    H111847   6.776   5.286   2.992
 3961TIP3    H211848   6.877   5.288   3.104
 3962TIP3   OH211849   0.917   2.298   0.200
 3962TIP3    H111850   0.923   2.229   0.134
 3962TIP3    H211851   0.999   2.291   0.250
 3963TIP3   OH211852   6.750   2.414   0.374
 3963TIP3    H111853   6.676   2.396   0.431
 3963TIP3    H211854   6.763   2.509   0.382
 3964TIP3   OH211855   0.946   0.237   3.300
 3964TIP3    H111856   0.913   0.168   3.242
 3964TIP3    H211857   0.976   0.190   3.378
 3965TIP3   OH211858   2.061   4.527   3.699
 3965TIP3    H111859   2.124   4.471   3.743
 3965TIP3    H211860   2.111   4.603   3.670
 3966TIP3   OH211861   3.860   1.587   4.243
 3966TIP3    H111862   3.807   1.541   4.178
 3966TIP3    H211863   3.912   1.649   4.192
 3967TIP3   OH211864   4.422   3.365   2.320
 3967TIP3    H111865   4.352   3.420   2.286
 3967TIP3    H211866   4.444   3.404   2.404
 3968TIP3   OH211867   3.835   5.786   5.207
 3968TIP3    H111868   3.750   5.829   5.200
 3968TIP3    H211869   3.886   5.843   5.265
 3969TIP3   OH211870   1.615   1.428   4.899
 3969TIP3    H111871   1.637   1.520   4.884
 3969TIP3    H211872   1.697   1.388   4.929
 3970TIP3   OH211873   0.878   2.775   5.096
 3970TIP3    H111874   0.817   2.842   5.129
 3970TIP3    H211875   0.822   2.713   5.049
 3971TIP3   OH211876   5.240   5.066   3.166
 3971TIP3    H111877   5.188   4.999   3.122
 3971TIP3    H211878   5.310   5.087   3.105
 3972TIP3   OH211879   4.118   0.516   4.535
 3972TIP3    H111880   4.059   0.524   4.610
 3972TIP3    H211881   4.195   0.470   4.570
 3973TIP3   OH211882   1.086   0.240   2.188
 3973TIP3    H111883   1.011   0.183   2.210
 3973TIP3    H211884   1.047   0.326   2.174
 3974TIP3   OH211885   4.248   1.781   2.464
 3974TIP3    H111886   4.265   1.696   2.506
 3974TIP3    H211887   4.283   1.771   2.375
 3975TIP3   OH211888   0.364   1.957   2.830
 3975TIP3    H111889   0.342   1.928   2.919
 3975TIP3    H211890   0.292   1.923   2.777
 3976TIP3   OH211891   5.858   2.484   4.513
 3976TIP3    H111892   5.951   2.480   4.492
 3976TIP3    H211893   5.854   2.535   4.594
 3977TIP3   OH211894   2.223   4.679   4.264
 3977TIP3    H111895   2.305   4.681   4.313
 3977TIP3    H211896   2.217   4.767   4.225
 3978TIP3   OH211897   0.649   2.288   2.487
 3978TIP3    H111898   0.605   2.203   2.496
 3978TIP3    H211899   0.733   2.266   2.447
 3979TIP3   OH211900   4.474   1.302   2.084
 3979TIP3    H111901   4.431   1.225   2.047
 3979TIP3    H211902   4.558   1.307   2.039
 3980TIP3   OH211903   5.525   2.784   4.322
 3980TIP3    H111904   5.522   2.819   4.411
 3980TIP3    H211905   5.554   2.858   4.269
 3981TIP3   OH211906   1.173   1.324   5.532
 3981TIP3    H111907   1.129   1.408   5.520
 3981TIP3    H211908   1.190   1.293   5.443
 3982TIP3   OH211909   6.779   5.814   2.944
 3982TIP3    H111910   6.862   5.849   2.975
 3982TIP3    H211911   6.797   5.722   2.924
 3983TIP3   OH211912   0.147   3.302   3.005
 3983TIP3    H111913   0.212   3.366   3.035
 3983TIP3    H211914   0.128   3.249   3.082
 3984TIP3   OH211915   5.754   5.805   0.518
 3984TIP3    H111916   5.762   5.741   0.448
 3984TIP3    H211917   5.756   5.890   0.474
 3985TIP3   OH211918   5.189   3.443   4.734
 3985TIP3    H111919   5.264   3.437   4.794
 3985TIP3    H211920   5.200   3.369   4.674
 3986TIP3   OH211921   0.868   6.357   3.353
 3986TIP3    H111922   0.929   6.425   3.322
 3986TIP3    H211923   0.825   6.396   3.429
 3987TIP3   OH211924   0.061   2.797   3.827
 3987TIP3    H111925  -0.031   2.781   3.806
 3987TIP3    H211926   0.066   2.789   3.923
 3988TIP3   OH211927   2.119   5.667   3.751
 3988TIP3    H111928   2.141   5.624   3.833
 3988TIP3    H211929   2.202   5.701   3.718
 3989TIP3   OH211930   2.983   2.895   1.371
 3989TIP3    H111931   3.011   2.804   1.360
 3989TIP3    H211932   2.887   2.891   1.366
 3990TIP3   OH211933   0.964   1.366   3.464
 3990TIP3    H111934   0.899   1.397   3.401
 3990TIP3    H211935   1.036   1.334   3.410
 3991TIP3   OH211936   5.315   4.332   0.254
 3991TIP3    H111937   5.319   4.384   0.335
 3991TIP3    H211938   5.304   4.396   0.184
 3992TIP3   OH211939   2.633   6.040   2.771
 3992TIP3    H111940   2.708   6.074   2.722
 3992TIP3    H211941   2.563   6.034   2.706
 3993TIP3   OH211942   2.511   1.023   4.089
 3993TIP3    H111943   2.521   1.045   3.996
 3993TIP3    H211944   2.594   0.983   4.114
 3994TIP3   OH211945   4.157   4.533   0.939
 3994TIP3    H111946   4.203   4.591   1.000
 3994TIP3    H211947   4.130   4.590   0.867
 3995TIP3   OH211948   7.154   1.339   2.184
 3995TIP3    H111949   7.113   1.253   2.199
 3995TIP3    H211950   7.080   1.399   2.174
 3996TIP3   OH211951   0.619   0.921   2.727
 3996TIP3    H111952   0.621   0.991   2.662
 3996TIP3    H211953   0.557   0.951   2.793
 3997TIP3   OH211954   1.498   3.468   4.869
 3997TIP3    H111955   1.593   3.478   4.857
 3997TIP3    H211956   1.462   3.552   4.842
 3998TIP3   OH211957   1.589   6.754   4.407
 3998TIP3    H111958   1.569   6.679   4.462
 3998TIP3    H211959   1.658   6.723   4.348
 3999TIP3   OH211960   6.385   2.335   2.943
 3999TIP3    H111961   6.326   2.359   3.014
 3999TIP3    H211962   6.472   2.361   2.974
 4000TIP3   OH211963   5.329   0.580   1.601
 4000TIP3    H111964   5.320   0.628   1.518
 4000TIP3    H211965   5.423   0.566   1.611
 4001TIP3   OH211966   6.250   6.731   1.571
 4001TIP3    H111967   6.318   6.788   1.606
 4001TIP3    H211968   6.197   6.788   1.515
 4002TIP3   OH211969   0.986   0.166   0.272
 4002TIP3    H111970   1.050   0.211   0.327
 4002TIP3    H211971   1.033   0.146   0.191
 4003TIP3   OH211972   4.551   3.318   5.046
 4003TIP3    H111973   4.496   3.396   5.048
 4003TIP3    H211974   4.494   3.250   5.011
 4004TIP3   OH211975   5.745   3.303   3.996
 4004TIP3    H111976   5.668   3.332   3.947
 4004TIP3    H211977   5.726   3.327   4.087
 4005TIP3   OH211978   3.972   4.560   5.383
 4005TIP3    H111979   4.015   4.610   5.452
 4005TIP3    H211980   3.911   4.622   5.342
 4006TIP3   OH211981   4.704   3.406   5.640
 4006TIP3    H111982   4.619   3.424   5.681
 4006TIP3    H211983   4.686   3.334   5.579
 4007TIP3   OH211984   4.217   2.594   0.325
 4007TIP3    H111985   4.241   2.523   0.265
 4007TIP3    H211986   4.121   2.595   0.322
 4008TIP3   OH211987   0.731   3.617   4.441
 4008TIP3    H111988   0.716   3.592   4.532
 4008TIP3    H211989   0.673   3.692   4.427
 4009TIP3   OH211990   4.892   4.900   4.483
 4009TIP3    H111991   4.930   4.945   4.408
 4009TIP3    H211992   4.802   4.934   4.489
 4010TIP3   OH211993   3.894   3.013   3.869
 4010TIP3    H111994   3.942   3.036   3.789
 4010TIP3    H211995   3.835   3.086   3.884
 4011TIP3   OH211996   1.256   6.438   4.125
 4011TIP3    H111997   1.325   6.474   4.180
 4011TIP3    H211998   1.209   6.515   4.093
 4012TIP3   OH211999   5.479   4.642   4.205
 4012TIP3    H112000   5.473   4.549   4.181
 4012TIP3    H212001   5.443   4.646   4.293
 4013TIP3   OH212002   3.981   5.711   4.351
 4013TIP3    H112003   3.973   5.637   4.411
 4013TIP3    H212004   4.069   5.704   4.315
 4014TIP3   OH212005   6.320   6.320   5.053
 4014TIP3    H112006   6.297   6.254   5.119
 4014TIP3    H212007   6.288   6.283   4.971
 4015TIP3   OH212008   1.367   1.713   5.825
 4015TIP3    H112009   1.341   1.626   5.795
 4015TIP3    H212010   1.460   1.720   5.801
 4016TIP3   OH212011   5.124   5.729   2.641
 4016TIP3    H112012   5.201   5.762   2.594
 4016TIP3    H212013   5.114   5.788   2.716
 4017TIP3   OH212014   2.871   3.311   3.382
 4017TIP3    H112015   2.785   3.316   3.424
 4017TIP3    H212016   2.887   3.398   3.347
 4018TIP3   OH212017   2.112   0.736   1.493
 4018TIP3    H112018   2.170   0.792   1.443
 4018TIP3    H212019   2.164   0.659   1.514
 4019TIP3   OH212020   0.164   5.498   3.923
 4019TIP3    H112021   0.137   5.549   3.846
 4019TIP3    H212022   0.082   5.458   3.954
 4020TIP3   OH212023   0.922   4.827   5.405
 4020TIP3    H112024   1.007   4.793   5.434
 4020TIP3    H212025   0.943   4.910   5.362
 4021TIP3   OH212026   1.240   1.410   3.552
 4021TIP3    H112027   1.163   1.369   3.591
 4021TIP3    H212028   1.234   1.502   3.578
 4022TIP3   OH212029   2.688   0.089   0.995
 4022TIP3    H112030   2.603   0.129   1.012
 4022TIP3    H212031   2.675   0.036   0.916
 4023TIP3   OH212032   5.810   1.537   3.431
 4023TIP3    H112033   5.873   1.468   3.415
 4023TIP3    H212034   5.860   1.607   3.473
 4024TIP3   OH212035   6.430   1.295   4.076
 4024TIP3    H112036   6.440   1.284   3.981
 4024TIP3    H212037   6.344   1.336   4.086
 4025TIP3   OH212038   3.607   5.521   0.624
 4025TIP3    H112039   3.672   5.590   0.629
 4025TIP3    H212040   3.642   5.450   0.679
 4026TIP3   OH212041   0.347   0.201   1.751
 4026TIP3    H112042   0.432   0.158   1.759
 4026TIP3    H212043   0.306   0.159   1.675
 4027TIP3   OH212044   6.645   2.685   0.638
 4027TIP3    H112045   6.562   2.700   0.593
 4027TIP3    H212046   6.710   2.681   0.567
 4028TIP3   OH212047   5.486   1.953   1.480
 4028TIP3    H112048   5.566   2.006   1.475
 4028TIP3    H212049   5.429   2.001   1.541
 4029TIP3   OH212050   4.554   1.961   4.212
 4029TIP3    H112051   4.539   2.044   4.256
 4029TIP3    H212052   4.473   1.911   4.225
 4030TIP3   OH212053   1.383   2.665   0.806
 4030TIP3    H112054   1.439   2.615   0.747
 4030TIP3    H212055   1.443   2.718   0.857
 4031TIP3   OH212056   6.506   2.001   3.691
 4031TIP3    H112057   6.594   2.013   3.725
 4031TIP3    H212058   6.502   1.909   3.665
 4032TIP3   OH212059   1.026   3.201   0.357
 4032TIP3    H112060   1.035   3.283   0.406
 4032TIP3    H212061   1.074   3.217   0.276
 4033TIP3   OH212062   6.432   0.309   0.347
 4033TIP3    H112063   6.397   0.396   0.326
 4033TIP3    H212064   6.360   0.263   0.392
 4034TIP3   OH212065   3.600   2.588   2.546
 4034TIP3    H112066   3.627   2.680   2.553
 4034TIP3    H212067   3.536   2.577   2.617
 4035TIP3   OH212068   3.170   4.000   3.949
 4035TIP3    H112069   3.202   3.922   3.995
 4035TIP3    H212070   3.189   3.983   3.857
 4036TIP3   OH212071   7.043   6.319   4.054
 4036TIP3    H112072   6.993   6.243   4.085
 4036TIP3    H212073   7.134   6.294   4.068
 4037TIP3   OH212074   7.120   6.228   1.553
 4037TIP3    H112075   7.071   6.310   1.559
 4037TIP3    H212076   7.059   6.161   1.583
 4038TIP3   OH212077   2.599   3.322   3.897
 4038TIP3    H112078   2.628   3.230   3.898
 4038TIP3    H212079   2.579   3.342   3.988
 4039TIP3   OH212080   2.499   5.777   1.547
 4039TIP3    H112081   2.517   5.776   1.453
 4039TIP3    H212082   2.408   5.747   1.554
 4040TIP3   OH212083   0.157   3.899   1.883
 4040TIP3    H112084   0.230   3.960   1.874
 4040TIP3    H212085   0.196   3.812   1.874
 4041TIP3   OH212086   5.105   1.311   0.699
 4041TIP3    H112087   5.141   1.246   0.639
 4041TIP3    H212088   5.180   1.337   0.753
 4042TIP3   OH212089   2.179   5.798   0.638
 4042TIP3    H112090   2.184   5.739   0.563
 4042TIP3    H212091   2.244   5.867   0.619
 4043TIP3   OH212092   1.732   1.686   3.715
 4043TIP3    H112093   1.692   1.612   3.760
 4043TIP3    H212094   1.706   1.763   3.766
 4044TIP3   OH212095   5.268   5.305   4.268
 4044TIP3    H112096   5.287   5.298   4.174
 4044TIP3    H212097   5.318   5.233   4.307
 4045TIP3   OH212098   0.384   3.003   5.275
 4045TIP3    H112099   0.442   3.065   5.319
 4045TIP3    H212100   0.360   2.940   5.342
 4046TIP3   OH212101   0.572   2.217   4.949
 4046TIP3    H112102   0.495   2.188   4.900
 4046TIP3    H212103   0.639   2.232   4.883
 4047TIP3   OH212104   2.501   5.995   5.361
 4047TIP3    H112105   2.492   5.909   5.400
 4047TIP3    H212106   2.584   5.992   5.313
 4048TIP3   OH212107   2.348   3.705   3.374
 4048TIP3    H112108   2.299   3.680   3.296
 4048TIP3    H212109   2.432   3.660   3.367
 4049TIP3   OH212110   3.432   0.203   0.073
 4049TIP3    H112111   3.522   0.182   0.100
 4049TIP3    H212112   3.398   0.120   0.039
 4050TIP3   OH212113   6.348   3.311   3.313
 4050TIP3    H112114   6.300   3.363   3.249
 4050TIP3    H212115   6.378   3.374   3.378
 4051TIP3   OH212116   7.092   5.861   4.560
 4051TIP3    H112117   7.021   5.915   4.594
 4051TIP3    H212118   7.098   5.788   4.622
 4052TIP3   OH212119   7.131   4.032   1.150
 4052TIP3    H112120   7.149   4.115   1.106
 4052TIP3    H212121   7.199   4.025   1.217
 4053TIP3   OH212122   7.128   0.975   5.122
 4053TIP3    H112123   7.140   0.937   5.208
 4053TIP3    H212124   7.217   0.991   5.090
 4054TIP3   OH212125   1.826   2.107   1.680
 4054TIP3    H112126   1.819   2.028   1.626
 4054TIP3    H212127   1.833   2.179   1.617
 4055TIP3   OH212128   1.025   4.602   5.095
 4055TIP3    H112129   0.972   4.672   5.057
 4055TIP3    H212130   1.114   4.619   5.064
 4056TIP3   OH212131   5.157   2.227   0.371
 4056TIP3    H112132   5.100   2.259   0.300
 4056TIP3    H212133   5.214   2.302   0.391
 4057TIP3   OH212134   2.949   5.498   2.194
 4057TIP3    H112135   2.963   5.593   2.186
 4057TIP3    H212136   2.854   5.487   2.185
 4058TIP3   OH212137   3.605   5.466   5.370
 4058TIP3    H112138   3.627   5.387   5.419
 4058TIP3    H212139   3.575   5.528   5.437
 4059TIP3   OH212140   5.097   5.220   5.156
 4059TIP3    H112141   5.044   5.298   5.173
 4059TIP3    H212142   5.034   5.155   5.124
 4060TIP3   OH212143   0.428   0.443   2.936
 4060TIP3    H112144   0.458   0.470   3.022
 4060TIP3    H212145   0.490   0.375   2.909
 4061TIP3   OH212146   0.652   0.739   4.758
 4061TIP3    H112147   0.726   0.729   4.699
 4061TIP3    H212148   0.643   0.834   4.770
 4062TIP3   OH212149   3.804   4.635   3.450
 4062TIP3    H112150   3.857   4.654   3.527
 4062TIP3    H212151   3.791   4.541   3.452
 4063TIP3   OH212152   7.014   2.718   0.872
 4063TIP3    H112153   6.943   2.781   0.880
 4063TIP3    H212154   6.978   2.637   0.908
 4064TIP3   OH212155   2.322   0.882   1.374
 4064TIP3    H112156   2.366   0.957   1.332
 4064TIP3    H212157   2.370   0.806   1.343
 4065TIP3   OH212158   4.078   2.434   0.054
 4065TIP3    H112159   4.091   2.378  -0.022
 4065TIP3    H212160   4.027   2.508   0.021
 4066TIP3   OH212161   6.149   4.143   4.731
 4066TIP3    H112162   6.097   4.107   4.803
 4066TIP3    H212163   6.231   4.094   4.734
 4067TIP3   OH212164   0.358   2.192   1.139
 4067TIP3    H112165   0.343   2.279   1.100
 4067TIP3    H212166   0.302   2.134   1.089
 4068TIP3   OH212167   6.770   1.605   0.345
 4068TIP3    H112168   6.683   1.598   0.305
 4068TIP3    H212169   6.757   1.664   0.419
 4069TIP3   OH212170   1.839   4.026   5.765
 4069TIP3    H112171   1.855   3.932   5.778
 4069TIP3    H212172   1.774   4.048   5.832
 4070TIP3   OH212173   2.716   2.861   1.368
 4070TIP3    H112174   2.748   2.803   1.436
 4070TIP3    H212175   2.643   2.812   1.328
 4071TIP3   OH212176   1.058   2.008   1.451
 4071TIP3    H112177   1.084   2.022   1.542
 4071TIP3    H212178   1.130   2.042   1.399
 4072TIP3   OH212179   6.338   1.963   2.406
 4072TIP3    H112180   6.271   2.017   2.447
 4072TIP3    H212181   6.295   1.923   2.331
 4073TIP3   OH212182   0.407   0.041   2.692
 4073TIP3    H112183   0.432  -0.028   2.632
 4073TIP3    H212184   0.438   0.011   2.778
 4074TIP3   OH212185   1.954   1.505   3.013
 4074TIP3    H112186   1.948   1.409   3.010
 4074TIP3    H212187   1.972   1.531   2.923
 4075TIP3   OH212188   6.760   4.979   4.585
 4075TIP3    H112189   6.824   4.910   4.605
 4075TIP3    H212190   6.732   5.012   4.670
 4076TIP3   OH212191   2.305   0.757   5.587
 4076TIP3    H112192   2.307   0.843   5.544
 4076TIP3    H212193   2.281   0.696   5.518
 4077TIP3   OH212194   3.273   3.614   1.145
 4077TIP3    H112195   3.354   3.620   1.094
 4077TIP3    H212196   3.302   3.590   1.233
 4078TIP3   OH212197   2.043   5.698   4.661
 4078TIP3    H112198   1.983   5.654   4.601
 4078TIP3    H212199   2.071   5.777   4.614
 4079TIP3   OH212200   2.911   1.232   0.385
 4079TIP3    H112201   3.006   1.232   0.379
 4079TIP3    H212202   2.886   1.140   0.369
 4080TIP3   OH212203   0.641   2.602   0.129
 4080TIP3    H112204   0.642   2.698   0.131
 4080TIP3    H212205   0.707   2.577   0.194
 4081TIP3   OH212206   0.683   0.319   3.213
 4081TIP3    H112207   0.734   0.321   3.294
 4081TIP3    H212208   0.597   0.352   3.239
 4082TIP3   OH212209   0.800   5.622   4.637
 4082TIP3    H112210   0.890   5.652   4.647
 4082TIP3    H212211   0.748   5.702   4.636
 4083TIP3   OH212212   2.581   1.372   5.867
 4083TIP3    H112213   2.499   1.419   5.854
 4083TIP3    H212214   2.555   1.288   5.904
 4084TIP3   OH212215   2.718   1.200   5.115
 4084TIP3    H112216   2.678   1.132   5.059
 4084TIP3    H212217   2.683   1.282   5.081
 4085TIP3   OH212218   6.239   5.159   0.174
 4085TIP3    H112219   6.165   5.101   0.192
 4085TIP3    H212220   6.254   5.204   0.257
 4086TIP3   OH212221   7.109   2.580   5.799
 4086TIP3    H112222   7.048   2.508   5.788
 4086TIP3    H212223   7.094   2.612   5.888
 4087TIP3   OH212224   5.158   1.557   5.333
 4087TIP3    H112225   5.173   1.526   5.244
 4087TIP3    H212226   5.117   1.643   5.322
 4088TIP3   OH212227   0.104   0.033   3.811
 4088TIP3    H112228   0.037   0.099   3.828
 4088TIP3    H212229   0.102  -0.024   3.887
 4089TIP3   OH212230   0.175   3.201   2.483
 4089TIP3    H112231   0.169   3.114   2.443
 4089TIP3    H212232   0.214   3.185   2.569
 4090TIP3   OH212233   3.698   5.818   1.101
 4090TIP3    H112234   3.742   5.754   1.046
 4090TIP3    H212235   3.606   5.792   1.099
 4091TIP3   OH212236   2.864   0.151   4.518
 4091TIP3    H112237   2.843   0.244   4.518
 4091TIP3    H212238   2.897   0.134   4.429
 4092TIP3   OH212239   2.625   6.682   3.607
 4092TIP3    H112240   2.645   6.609   3.666
 4092TIP3    H212241   2.706   6.694   3.557
 4093TIP3   OH212242   1.631   5.318   4.324
 4093TIP3    H112243   1.673   5.368   4.254
 4093TIP3    H212244   1.636   5.227   4.295
 4094TIP3   OH212245   5.575   6.274   1.188
 4094TIP3    H112246   5.669   6.283   1.202
 4094TIP3    H212247   5.565   6.276   1.092
 4095TIP3   OH212248   0.637   3.186   5.024
 4095TIP3    H112249   0.599   3.272   5.042
 4095TIP3    H212250   0.576   3.144   4.963
 4096TIP3   OH212251   4.683   5.848   1.167
 4096TIP3    H112252   4.685   5.931   1.120
 4096TIP3    H212253   4.605   5.803   1.134
 4097TIP3   OH212254   1.461   1.964   0.876
 4097TIP3    H112255   1.522   2.014   0.931
 4097TIP3    H212256   1.410   1.913   0.939
 4098TIP3   OH212257   5.275   6.361   3.834
 4098TIP3    H112258   5.208   6.350   3.902
 4098TIP3    H212259   5.230   6.405   3.763
 4099TIP3   OH212260   3.269   0.609   5.751
 4099TIP3    H112261   3.260   0.702   5.774
 4099TIP3    H212262   3.312   0.570   5.827
 4100TIP3   OH212263   5.936   6.172   5.058
 4100TIP3    H112264   5.948   6.077   5.059
 4100TIP3    H212265   5.876   6.190   5.130
 4101TIP3   OH212266   7.180   4.587   1.727
 4101TIP3    H112267   7.247   4.545   1.673
 4101TIP3    H212268   7.186   4.543   1.812
 4102TIP3   OH212269   2.825   2.323   5.861
 4102TIP3    H112270   2.771   2.381   5.808
 4102TIP3    H212271   2.909   2.319   5.815
 4103TIP3   OH212272   3.802   2.772   5.334
 4103TIP3    H112273   3.879   2.813   5.372
 4103TIP3    H212274   3.728   2.813   5.379
 4104TIP3   OH212275   7.106   1.719   3.569
 4104TIP3    H112276   7.018   1.696   3.599
 4104TIP3    H212277   7.124   1.804   3.609
 4105TIP3   OH212278   1.123   0.927   2.874
 4105TIP3    H112279   1.113   0.914   2.780
 4105TIP3    H212280   1.215   0.911   2.891
 4106TIP3   OH212281   2.106   5.153   4.441
 4106TIP3    H112282   2.189   5.132   4.484
 4106TIP3    H212283   2.113   5.247   4.420
 4107TIP3   OH212284   7.171   5.847   4.970
 4107TIP3    H112285   7.133   5.902   5.038
 4107TIP3    H212286   7.264   5.842   4.991
 4108TIP3   OH212287   6.366   2.805   0.878
 4108TIP3    H112288   6.397   2.895   0.870
 4108TIP3    H212289   6.331   2.798   0.966
 4109TIP3   OH212290   7.002   5.229   5.390
 4109TIP3    H112291   7.008   5.231   5.486
 4109TIP3    H212292   7.091   5.211   5.360
 4110TIP3   OH212293   3.347   2.047   0.235
 4110TIP3    H112294   3.380   2.137   0.226
 4110TIP3    H212295   3.268   2.045   0.181
 4111TIP3   OH212296   3.925   5.987   5.748
 4111TIP3    H112297   3.873   5.961   5.824
 4111TIP3    H212298   3.882   5.944   5.673
 4112TIP3   OH212299   2.063   0.674   0.657
 4112TIP3    H112300   1.997   0.743   0.654
 4112TIP3    H212301   2.028   0.605   0.599
 4113TIP3   OH212302   5.816   2.066   3.302
 4113TIP3    H112303   5.880   2.000   3.276
 4113TIP3    H212304   5.863   2.123   3.363
 4114TIP3   OH212305   2.633   2.186   4.698
 4114TIP3    H112306   2.715   2.175   4.746
 4114TIP3    H212307   2.654   2.247   4.627
 4115TIP3   OH212308   6.546   4.381   1.825
 4115TIP3    H112309   6.522   4.364   1.734
 4115TIP3    H212310   6.640   4.360   1.828
 4116TIP3   OH212311   2.239   6.657   0.224
 4116TIP3    H112312   2.171   6.591   0.206
 4116TIP3    H212313   2.284   6.623   0.301
 4117TIP3   OH212314   5.930   2.236   5.143
 4117TIP3    H112315   5.981   2.315   5.160
 4117TIP3    H212316   5.857   2.240   5.205
 4118TIP3   OH212317   0.671   1.066   4.751
 4118TIP3    H112318   0.631   1.153   4.750
 4118TIP3    H212319   0.730   1.066   4.675
 4119TIP3   OH212320   1.891   3.252   3.917
 4119TIP3    H112321   1.894   3.343   3.947
 4119TIP3    H212322   1.874   3.259   3.823
 4120TIP3   OH212323   6.006   6.565   3.657
 4120TIP3    H112324   6.067   6.492   3.653
 4120TIP3    H212325   6.055   6.640   3.621
 4121TIP3   OH212326   4.156   4.343   4.481
 4121TIP3    H112327   4.174   4.358   4.388
 4121TIP3    H212328   4.101   4.264   4.482
 4122TIP3   OH212329   0.229   5.642   4.242
 4122TIP3    H112330   0.177   5.590   4.303
 4122TIP3    H212331   0.258   5.580   4.175
 4123TIP3   OH212332   0.688   3.770   1.338
 4123TIP3    H112333   0.701   3.806   1.251
 4123TIP3    H212334   0.727   3.682   1.334
 4124TIP3   OH212335   2.755   2.811   0.852
 4124TIP3    H112336   2.685   2.844   0.908
 4124TIP3    H212337   2.819   2.881   0.849
 4125TIP3   OH212338   5.807   1.270   1.857
 4125TIP3    H112339   5.749   1.344   1.840
 4125TIP3    H212340   5.858   1.260   1.777
 4126TIP3   OH212341   5.375   5.390   0.207
 4126TIP3    H112342   5.327   5.470   0.228
 4126TIP3    H212343   5.424   5.369   0.287
 4127TIP3   OH212344   3.510   0.485   2.850
 4127TIP3    H112345   3.433   0.463   2.797
 4127TIP3    H212346   3.513   0.581   2.848
 4128TIP3   OH212347   6.021   6.467   0.211
 4128TIP3    H112348   6.104   6.485   0.166
 4128TIP3    H212349   6.023   6.522   0.289
 4129TIP3   OH212350   3.858   2.624   3.788
 4129TIP3    H112351   3.881   2.620   3.695
 4129TIP3    H212352   3.795   2.553   3.800
 4130TIP3   OH212353   5.704   4.704   4.013
 4130TIP3    H112354   5.653   4.686   4.092
 4130TIP3    H212355   5.688   4.628   3.956
 4131TIP3   OH212356   1.164   6.278   1.442
 4131TIP3    H112357   1.227   6.286   1.370
 4131TIP3    H212358   1.217   6.251   1.517
 4132TIP3   OH212359   6.361   4.965   2.638
 4132TIP3    H112360   6.356   5.044   2.584
 4132TIP3    H212361   6.361   4.893   2.574
 4133TIP3   OH212362   2.797   4.629   2.288
 4133TIP3    H112363   2.779   4.683   2.364
 4133TIP3    H212364   2.875   4.668   2.248
 4134TIP3   OH212365   3.256   6.439   5.374
 4134TIP3    H112366   3.280   6.358   5.329
 4134TIP3    H212367   3.306   6.437   5.456
 4135TIP3   OH212368   5.558   0.600   5.268
 4135TIP3    H112369   5.552   0.621   5.174
 4135TIP3    H212370   5.475   0.558   5.288
 4136TIP3   OH212371   2.495   4.375   0.043
 4136TIP3    H112372   2.579   4.345   0.010
 4136TIP3    H212373   2.502   4.470   0.045
 4137TIP3   OH212374   0.391   5.517   4.061
 4137TIP3    H112375   0.450   5.587   4.033
 4137TIP3    H212376   0.318   5.521   3.999
 4138TIP3   OH212377   7.079   0.956   4.088
 4138TIP3    H112378   7.039   0.935   4.172
 4138TIP3    H212379   7.169   0.924   4.095
 4139TIP3   OH212380   3.662   4.276   4.779
 4139TIP3    H112381   3.735   4.236   4.731
 4139TIP3    H212382   3.696   4.359   4.810
 4140TIP3   OH212383   1.904   3.289   3.018
 4140TIP3    H112384   1.822   3.245   3.038
 4140TIP3    H212385   1.954   3.224   2.968
 4141TIP3   OH212386   3.930   6.663   5.626
 4141TIP3    H112387   3.978   6.618   5.695
 4141TIP3    H212388   3.985   6.738   5.603
 4142TIP3   OH212389   1.363   3.056   1.716
 4142TIP3    H112390   1.307   3.115   1.766
 4142TIP3    H212391   1.448   3.100   1.715
 4143TIP3   OH212392   6.591   1.163   4.616
 4143TIP3    H112393   6.617   1.080   4.575
 4143TIP3    H212394   6.505   1.182   4.578
 4144TIP3   OH212395   3.028   6.190   3.965
 4144TIP3    H112396   2.938   6.179   3.933
 4144TIP3    H212397   3.080   6.132   3.909
 4145TIP3   OH212398   2.174   0.863   0.945
 4145TIP3    H112399   2.165   0.959   0.939
 4145TIP3    H212400   2.084   0.831   0.949
 4146TIP3   OH212401   2.135   5.263   0.034
 4146TIP3    H112402   2.052   5.252  -0.013
 4146TIP3    H212403   2.116   5.328   0.101
 4147TIP3   OH212404   5.551   0.727   2.911
 4147TIP3    H112405   5.582   0.769   2.831
 4147TIP3    H212406   5.616   0.658   2.928
 4148TIP3   OH212407   4.430   6.060   5.649
 4148TIP3    H112408   4.411   6.144   5.607
 4148TIP3    H212409   4.506   6.078   5.704
 4149TIP3   OH212410   5.303   0.761   3.265
 4149TIP3    H112411   5.390   0.733   3.237
 4149TIP3    H212412   5.287   0.842   3.217
 4150TIP3   OH212413   0.223   3.704   5.430
 4150TIP3    H112414   0.194   3.650   5.357
 4150TIP3    H212415   0.318   3.693   5.432
 4151TIP3   OH212416   1.476   0.329   0.348
 4151TIP3    H112417   1.403   0.292   0.299
 4151TIP3    H212418   1.466   0.295   0.437
 4152TIP3   OH212419   2.453   2.381   4.919
 4152TIP3    H112420   2.455   2.369   4.824
 4152TIP3    H212421   2.380   2.442   4.934
 4153TIP3   OH212422   5.577   4.315   3.903
 4153TIP3    H112423   5.620   4.387   3.858
 4153TIP3    H212424   5.579   4.243   3.840
 4154TIP3   OH212425   5.563   6.592   0.157
 4154TIP3    H112426   5.650   6.553   0.159
 4154TIP3    H212427   5.570   6.667   0.217
 4155TIP3   OH212428   5.641   1.599   1.007
 4155TIP3    H112429   5.617   1.690   0.990
 4155TIP3    H212430   5.737   1.599   1.005
 4156TIP3   OH212431   5.687   1.747   3.169
 4156TIP3    H112432   5.758   1.774   3.111
 4156TIP3    H212433   5.611   1.741   3.112
 4157TIP3   OH212434   4.686   3.665   0.153
 4157TIP3    H112435   4.690   3.624   0.239
 4157TIP3    H212436   4.593   3.687   0.142
 4158TIP3   OH212437   2.664   5.755   3.450
 4158TIP3    H112438   2.729   5.768   3.381
 4158TIP3    H212439   2.690   5.673   3.492
 4159TIP3   OH212440   0.785   3.240   2.575
 4159TIP3    H112441   0.779   3.156   2.618
 4159TIP3    H212442   0.833   3.296   2.637
 4160TIP3   OH212443   0.594   3.696   4.757
 4160TIP3    H112444   0.682   3.725   4.778
 4160TIP3    H212445   0.583   3.615   4.808
 4161TIP3   OH212446   0.549   6.476   3.289
 4161TIP3    H112447   0.458   6.449   3.278
 4161TIP3    H212448   0.591   6.455   3.206
 4162TIP3   OH212449   6.171   4.396   5.666
 4162TIP3    H112450   6.142   4.486   5.653
 4162TIP3    H212451   6.255   4.391   5.620
 4163TIP3   OH212452   5.394   2.734   5.204
 4163TIP3    H112453   5.485   2.704   5.199
 4163TIP3    H212454   5.348   2.662   5.248
 4164TIP3   OH212455   3.706   3.180   1.527
 4164TIP3    H112456   3.661   3.262   1.504
 4164TIP3    H212457   3.771   3.205   1.592
 4165TIP3   OH212458   2.317   5.594   3.302
 4165TIP3    H112459   2.394   5.562   3.349
 4165TIP3    H212460   2.349   5.607   3.212
 4166TIP3   OH212461   5.102   6.478   0.067
 4166TIP3    H112462   5.111   6.565   0.107
 4166TIP3    H212463   5.108   6.494  -0.027
 4167TIP3   OH212464   1.745   4.937   4.781
 4167TIP3    H112465   1.733   4.962   4.690
 4167TIP3    H212466   1.726   5.017   4.831
 4168TIP3   OH212467   1.392   0.523   2.378
 4168TIP3    H112468   1.308   0.479   2.374
 4168TIP3    H212469   1.370   0.613   2.407
 4169TIP3   OH212470   6.148   5.886   5.324
 4169TIP3    H112471   6.141   5.981   5.329
 4169TIP3    H212472   6.071   5.858   5.275
 4170TIP3   OH212473   5.741   0.225   1.242
 4170TIP3    H112474   5.831   0.195   1.229
 4170TIP3    H212475   5.702   0.221   1.155
 4171TIP3   OH212476   3.175   2.276   2.823
 4171TIP3    H112477   3.116   2.203   2.842
 4171TIP3    H212478   3.134   2.351   2.865
 4172TIP3   OH212479   5.090   0.815   1.601
 4172TIP3    H112480   5.081   0.734   1.651
 4172TIP3    H212481   5.131   0.877   1.662
 4173TIP3   OH212482   1.685   2.011   4.336
 4173TIP3    H112483   1.636   1.930   4.319
 4173TIP3    H212484   1.767   1.982   4.375
 4174TIP3   OH212485   6.349   3.599   0.450
 4174TIP3    H112486   6.329   3.637   0.364
 4174TIP3    H212487   6.404   3.523   0.430
 4175TIP3   OH212488   4.725   1.337   1.989
 4175TIP3    H112489   4.808   1.302   2.022
 4175TIP3    H212490   4.729   1.431   2.009
 4176TIP3   OH212491   7.073   2.324   5.399
 4176TIP3    H112492   6.998   2.293   5.451
 4176TIP3    H212493   7.111   2.395   5.451
 4177TIP3   OH212494   1.280   6.422   2.126
 4177TIP3    H112495   1.357   6.375   2.092
 4177TIP3    H212496   1.307   6.452   2.213
 4178TIP3   OH212497   6.159   6.487   2.030
 4178TIP3    H112498   6.231   6.433   1.998
 4178TIP3    H212499   6.101   6.425   2.075
 4179TIP3   OH212500   1.579   4.165   0.878
 4179TIP3    H112501   1.518   4.239   0.888
 4179TIP3    H212502   1.660   4.204   0.845
 4180TIP3   OH212503   1.762   5.575   2.193
 4180TIP3    H112504   1.689   5.526   2.154
 4180TIP3    H212505   1.722   5.629   2.260
 4181TIP3   OH212506   0.665   2.576   1.870
 4181TIP3    H112507   0.610   2.506   1.906
 4181TIP3    H212508   0.645   2.653   1.923
 4182TIP3   OH212509   4.471   4.599   0.801
 4182TIP3    H112510   4.447   4.597   0.893
 4182TIP3    H212511   4.446   4.512   0.768
 4183TIP3   OH212512   0.729   2.892   5.589
 4183TIP3    H112513   0.655   2.835   5.565
 4183TIP3    H212514   0.791   2.883   5.516
 4184TIP3   OH212515   6.172   5.226   1.849
 4184TIP3    H112516   6.199   5.260   1.763
 4184TIP3    H212517   6.208   5.137   1.852
 4185TIP3   OH212518   4.908   5.514   2.708
 4185TIP3    H112519   4.922   5.606   2.730
 4185TIP3    H212520   4.911   5.511   2.613
 4186TIP3   OH212521   7.058   0.623   5.723
 4186TIP3    H112522   7.035   0.579   5.641
 4186TIP3    H212523   7.021   0.710   5.715
 4187TIP3   OH212524   1.752   2.560   3.610
 4187TIP3    H112525   1.683   2.625   3.591
 4187TIP3    H212526   1.726   2.483   3.560
 4188TIP3   OH212527   7.076   6.036   4.200
 4188TIP3    H112528   7.160   6.082   4.202
 4188TIP3    H212529   7.097   5.948   4.233
 4189TIP3   OH212530   1.236   3.344   2.808
 4189TIP3    H112531   1.320   3.298   2.803
 4189TIP3    H212532   1.185   3.294   2.872
 4190TIP3   OH212533   5.946   3.789   2.614
 4190TIP3    H112534   5.994   3.746   2.544
 4190TIP3    H212535   5.862   3.743   2.619
 4191TIP3   OH212536   1.189   0.785   5.615
 4191TIP3    H112537   1.253   0.730   5.569
 4191TIP3    H212538   1.136   0.824   5.546
 4192TIP3   OH212539   4.211   4.898   0.013
 4192TIP3    H112540   4.135   4.932  -0.034
 4192TIP3    H212541   4.236   4.819  -0.036
 4193TIP3   OH212542   4.771   2.345   5.877
 4193TIP3    H112543   4.865   2.346   5.897
 4193TIP3    H212544   4.765   2.298   5.794
 4194TIP3   OH212545   4.267   4.335   3.554
 4194TIP3    H112546   4.361   4.324   3.538
 4194TIP3    H212547   4.258   4.428   3.577
 4195TIP3   OH212548   0.148   6.136   4.297
 4195TIP3    H112549   0.108   6.112   4.381
 4195TIP3    H212550   0.185   6.054   4.264
 4196TIP3   OH212551   5.241   1.658   4.113
 4196TIP3    H112552   5.269   1.738   4.069
 4196TIP3    H212553   5.322   1.616   4.141
 4197TIP3   OH212554   4.488   2.917   2.912
 4197TIP3    H112555   4.425   2.984   2.938
 4197TIP3    H212556   4.481   2.850   2.979
 4198TIP3   OH212557   7.124   2.849   3.579
 4198TIP3    H112558   7.180   2.773   3.599
 4198TIP3    H212559   7.168   2.923   3.622
 4199TIP3   OH212560   4.677   0.743   0.522
 4199TIP3    H112561   4.734   0.814   0.489
 4199TIP3    H212562   4.667   0.684   0.448
 4200TIP3   OH212563   2.030   4.052   3.152
 4200TIP3    H112564   2.108   4.080   3.199
 4200TIP3    H212565   2.029   4.105   3.072
 4201TIP3   OH212566   6.309   2.210   4.773
 4201TIP3    H112567   6.372   2.144   4.802
 4201TIP3    H212568   6.344   2.241   4.689
 4202TIP3   OH212569   6.574   6.031   4.901
 4202TIP3    H112570   6.502   6.010   4.960
 4202TIP3    H212571   6.637   5.960   4.914
 4203TIP3   OH212572   5.585   2.222   1.811
 4203TIP3    H112573   5.491   2.218   1.829
 4203TIP3    H212574   5.609   2.314   1.825
 4204TIP3   OH212575   6.776   4.341   2.568
 4204TIP3    H112576   6.805   4.432   2.568
 4204TIP3    H212577   6.681   4.346   2.558
 4205TIP3   OH212578   4.416   5.790   0.828
 4205TIP3    H112579   4.499   5.777   0.782
 4205TIP3    H212580   4.379   5.869   0.788
 4206TIP3   OH212581   3.892   0.743   4.449
 4206TIP3    H112582   3.863   0.652   4.439
 4206TIP3    H212583   3.855   0.789   4.374
 4207TIP3   OH212584   0.900   3.889   5.582
 4207TIP3    H112585   0.861   3.939   5.654
 4207TIP3    H212586   0.994   3.906   5.589
 4208TIP3   OH212587   5.888   3.496   0.505
 4208TIP3    H112588   5.973   3.518   0.543
 4208TIP3    H212589   5.908   3.460   0.419
 4209TIP3   OH212590   4.657   5.030   4.039
 4209TIP3    H112591   4.634   5.122   4.022
 4209TIP3    H212592   4.585   4.980   4.000
 4210TIP3   OH212593   3.059   2.941   2.661
 4210TIP3    H112594   3.094   2.926   2.574
 4210TIP3    H212595   3.009   2.862   2.681
 4211TIP3   OH212596   6.135   3.823   4.316
 4211TIP3    H112597   6.145   3.918   4.322
 4211TIP3    H212598   6.155   3.791   4.404
 4212TIP3   OH212599   3.763   5.870   2.457
 4212TIP3    H112600   3.693   5.814   2.422
 4212TIP3    H212601   3.841   5.846   2.407
 4213TIP3   OH212602   4.076   1.410   3.996
 4213TIP3    H112603   4.167   1.439   4.002
 4213TIP3    H212604   4.025   1.491   3.993
 4214TIP3   OH212605   6.511   3.958   0.497
 4214TIP3    H112606   6.564   3.921   0.567
 4214TIP3    H212607   6.425   3.973   0.537
 4215TIP3   OH212608   6.586   4.930   5.756
 4215TIP3    H112609   6.669   4.944   5.803
 4215TIP3    H212610   6.604   4.958   5.666
 4216TIP3   OH212611   1.583   5.427   1.767
 4216TIP3    H112612   1.588   5.366   1.694
 4216TIP3    H212613   1.663   5.480   1.760
 4217TIP3   OH212614   4.547   3.642   4.288
 4217TIP3    H112615   4.630   3.628   4.333
 4217TIP3    H212616   4.568   3.637   4.195
 4218TIP3   OH212617   4.341   5.592   5.299
 4218TIP3    H112618   4.428   5.624   5.276
 4218TIP3    H212619   4.285   5.670   5.298
 4219TIP3   OH212620   5.779   6.239   5.336
 4219TIP3    H112621   5.706   6.298   5.318
 4219TIP3    H212622   5.800   6.253   5.428
 4220TIP3   OH212623   4.991   1.707   2.794
 4220TIP3    H112624   4.965   1.615   2.781
 4220TIP3    H212625   4.941   1.736   2.870
 4221TIP3   OH212626   7.227   0.325   3.016
 4221TIP3    H112627   7.208   0.293   2.928
 4221TIP3    H212628   7.182   0.409   3.021
 4222TIP3   OH212629   4.423   0.868   3.670
 4222TIP3    H112630   4.342   0.920   3.677
 4222TIP3    H212631   4.411   0.795   3.729
 4223TIP3   OH212632   4.923   5.352   5.753
 4223TIP3    H112633   4.977   5.393   5.821
 4223TIP3    H212634   4.899   5.267   5.790
 4224TIP3   OH212635   4.987   4.274   5.643
 4224TIP3    H112636   4.973   4.203   5.705
 4224TIP3    H212637   5.079   4.297   5.653
 4225TIP3   OH212638   2.344   3.323   4.662
 4225TIP3    H112639   2.439   3.326   4.655
 4225TIP3    H212640   2.320   3.237   4.628
 4226TIP3   OH212641   2.065   2.129   1.066
 4226TIP3    H112642   2.041   2.036   1.070
 4226TIP3    H212643   2.140   2.137   1.125
 4227TIP3   OH212644   3.206   5.800   2.563
 4227TIP3    H112645   3.197   5.705   2.562
 4227TIP3    H212646   3.186   5.826   2.653
 4228TIP3   OH212647   1.861   3.340   1.557
 4228TIP3    H112648   1.947   3.298   1.562
 4228TIP3    H212649   1.880   3.431   1.533
 4229TIP3   OH212650   3.071   5.982   0.278
 4229TIP3    H112651   3.032   5.894   0.275
 4229TIP3    H212652   3.151   5.971   0.330
 4230TIP3   OH212653   4.078   5.620   1.097
 4230TIP3    H112654   3.996   5.586   1.133
 4230TIP3    H212655   4.137   5.546   1.097
 4231TIP3   OH212656   5.645   1.771   2.434
 4231TIP3    H112657   5.670   1.829   2.505
 4231TIP3    H212658   5.728   1.749   2.391
 4232TIP3   OH212659   1.460   4.043   2.981
 4232TIP3    H112660   1.426   4.132   2.986
 4232TIP3    H212661   1.555   4.052   2.990
 4233TIP3   OH212662   2.363   2.523   2.941
 4233TIP3    H112663   2.347   2.435   2.910
 4233TIP3    H212664   2.294   2.539   3.006
 4234TIP3   OH212665   1.296   0.086   2.273
 4234TIP3    H112666   1.228   0.147   2.244
 4234TIP3    H212667   1.247   0.015   2.316
 4235TIP3   OH212668   3.889   4.642   4.343
 4235TIP3    H112669   3.919   4.700   4.412
 4235TIP3    H212670   3.968   4.616   4.297
 4236TIP3   OH212671   1.389   2.995   2.844
 4236TIP3    H112672   1.453   2.952   2.788
 4236TIP3    H212673   1.399   3.088   2.824
 4237TIP3   OH212674   3.316   2.025   2.725
 4237TIP3    H112675   3.274   2.037   2.810
 4237TIP3    H212676   3.376   2.099   2.717
 4238TIP3   OH212677   1.350   2.877   4.756
 4238TIP3    H112678   1.327   2.958   4.711
 4238TIP3    H212679   1.273   2.857   4.810
 4239TIP3   OH212680   7.137   3.336   3.876
 4239TIP3    H112681   7.196   3.261   3.882
 4239TIP3    H212682   7.099   3.329   3.789
 4240TIP3   OH212683   1.477   1.793   3.636
 4240TIP3    H112684   1.532   1.737   3.582
 4240TIP3    H212685   1.481   1.879   3.593
 4241TIP3   OH212686   5.149   6.540   4.892
 4241TIP3    H112687   5.061   6.577   4.884
 4241TIP3    H212688   5.193   6.598   4.955
 4242TIP3   OH212689   2.381   4.835   5.075
 4242TIP3    H112690   2.385   4.927   5.102
 4242TIP3    H212691   2.288   4.821   5.056
 4243TIP3   OH212692   3.392   2.927   4.355
 4243TIP3    H112693   3.464   2.926   4.292
 4243TIP3    H212694   3.362   3.018   4.356
 4244TIP3   OH212695   4.879   4.376   2.470
 4244TIP3    H112696   4.860   4.469   2.477
 4244TIP3    H212697   4.923   4.354   2.552
 4245TIP3   OH212698   5.878   4.313   3.265
 4245TIP3    H112699   5.876   4.374   3.339
 4245TIP3    H212700   5.878   4.370   3.188
 4246TIP3   OH212701   3.967   6.219   5.047
 4246TIP3    H112702   3.997   6.300   5.005
 4246TIP3    H212703   3.980   6.235   5.141
 4247TIP3   OH212704   3.112   2.116   3.814
 4247TIP3    H112705   3.098   2.022   3.812
 4247TIP3    H212706   3.039   2.153   3.763
 4248TIP3   OH212707   4.105   5.934   1.285
 4248TIP3    H112708   4.198   5.948   1.267
 4248TIP3    H212709   4.098   5.942   1.380
 4249TIP3   OH212710   5.232   0.742   0.069
 4249TIP3    H112711   5.218   0.648   0.077
 4249TIP3    H212712   5.243   0.772   0.160
 4250TIP3   OH212713   0.693   3.922   0.842
 4250TIP3    H112714   0.625   3.913   0.776
 4250TIP3    H212715   0.723   4.012   0.832
 4251TIP3   OH212716   4.899   1.042   4.292
 4251TIP3    H112717   4.845   1.103   4.343
 4251TIP3    H212718   4.863   1.046   4.204
 4252TIP3   OH212719   6.718   2.207   3.331
 4252TIP3    H112720   6.684   2.181   3.417
 4252TIP3    H212721   6.645   2.253   3.291
 4253TIP3   OH212722   4.837   5.954   2.150
 4253TIP3    H112723   4.847   5.866   2.186
 4253TIP3    H212724   4.748   5.957   2.117
 4254TIP3   OH212725   2.590   1.899   4.792
 4254TIP3    H112726   2.580   1.813   4.751
 4254TIP3    H212727   2.563   1.961   4.725
 4255TIP3   OH212728   3.972   5.512   5.473
 4255TIP3    H112729   3.894   5.460   5.493
 4255TIP3    H212730   3.964   5.530   5.379
 4256TIP3   OH212731   2.488   4.640   0.074
 4256TIP3    H112732   2.564   4.687   0.109
 4256TIP3    H212733   2.415   4.667   0.129
 4257TIP3   OH212734   5.680   4.839   0.055
 4257TIP3    H112735   5.715   4.910   0.110
 4257TIP3    H212736   5.596   4.873   0.025
 4258TIP3   OH212737   1.777   3.273   0.492
 4258TIP3    H112738   1.741   3.301   0.408
 4258TIP3    H212739   1.712   3.303   0.557
 4259TIP3   OH212740   2.714   6.743   0.703
 4259TIP3    H112741   2.665   6.724   0.623
 4259TIP3    H212742   2.770   6.666   0.715
 4260TIP3   OH212743   2.320   2.240   1.800
 4260TIP3    H112744   2.293   2.302   1.867
 4260TIP3    H212745   2.358   2.167   1.848
 4261TIP3   OH212746   5.222   6.323   5.138
 4261TIP3    H112747   5.289   6.284   5.193
 4261TIP3    H212748   5.218   6.415   5.166
 4262TIP3   OH212749   2.137   5.974   3.409
 4262TIP3    H112750   2.057   5.922   3.414
 4262TIP3    H212751   2.112   6.061   3.438
 4263TIP3   OH212752   1.067   0.638   2.495
 4263TIP3    H112753   1.105   0.598   2.572
 4263TIP3    H212754   1.072   0.571   2.427
 4264TIP3   OH212755   4.856   2.132   1.239
 4264TIP3    H112756   4.898   2.053   1.273
 4264TIP3    H212757   4.830   2.110   1.150
 4265TIP3   OH212758   2.529   1.179   4.522
 4265TIP3    H112759   2.563   1.148   4.606
 4265TIP3    H212760   2.607   1.196   4.469
 4266TIP3   OH212761   5.278   0.482   0.075
 4266TIP3    H112762   5.252   0.390   0.080
 4266TIP3    H212763   5.360   0.486   0.125
 4267TIP3   OH212764   0.250   1.634   0.570
 4267TIP3    H112765   0.272   1.571   0.502
 4267TIP3    H212766   0.165   1.604   0.604
 4268TIP3   OH212767   4.986   5.849   5.786
 4268TIP3    H112768   4.954   5.804   5.708
 4268TIP3    H212769   5.064   5.801   5.811
 4269TIP3   OH212770   5.380   0.883   0.412
 4269TIP3    H112771   5.382   0.786   0.421
 4269TIP3    H212772   5.373   0.914   0.502
 4270TIP3   OH212773   3.771   4.185   4.463
 4270TIP3    H112774   3.841   4.185   4.528
 4270TIP3    H212775   3.762   4.277   4.437
 4271TIP3   OH212776   6.983   0.265   4.360
 4271TIP3    H112777   6.914   0.199   4.367
 4271TIP3    H212778   7.064   0.217   4.379
 4272TIP3   OH212779   0.765   4.422   2.438
 4272TIP3    H112780   0.772   4.357   2.507
 4272TIP3    H212781   0.835   4.400   2.377
 4273TIP3   OH212782   4.120   1.229   4.194
 4273TIP3    H112783   4.176   1.269   4.260
 4273TIP3    H212784   4.089   1.302   4.141
 4274TIP3   OH212785   0.792   5.385   4.468
 4274TIP3    H112786   0.830   5.408   4.384
 4274TIP3    H212787   0.742   5.462   4.494
 4275TIP3   OH212788   2.925   6.116   2.316
 4275TIP3    H112789   3.007   6.067   2.316
 4275TIP3    H212790   2.914   6.144   2.407
 4276TIP3   OH212791   2.938   6.235   0.022
 4276TIP3    H112792   3.001   6.307   0.025
 4276TIP3    H212793   2.862   6.271  -0.022
 4277TIP3   OH212794   1.618   0.483   2.771
 4277TIP3    H112795   1.568   0.440   2.702
 4277TIP3    H212796   1.565   0.472   2.850
 4278TIP3   OH212797   0.719   2.883   1.545
 4278TIP3    H112798   0.791   2.894   1.607
 4278TIP3    H212799   0.720   2.963   1.492
 4279TIP3   OH212800   3.910   2.485   5.045
 4279TIP3    H112801   3.847   2.432   4.996
 4279TIP3    H212802   3.978   2.424   5.071
 4280TIP3   OH212803   4.765   0.289   1.488
 4280TIP3    H112804   4.729   0.365   1.443
 4280TIP3    H212805   4.827   0.253   1.425
 4281TIP3   OH212806   4.372   1.876   1.830
 4281TIP3    H112807   4.432   1.950   1.819
 4281TIP3    H212808   4.302   1.893   1.766
 4282TIP3   OH212809   1.908   3.663   3.685
 4282TIP3    H112810   1.825   3.616   3.701
 4282TIP3    H212811   1.932   3.699   3.770
 4283TIP3   OH212812   6.484   4.054   5.256
 4283TIP3    H112813   6.439   4.118   5.312
 4283TIP3    H212814   6.429   4.047   5.178
 4284TIP3   OH212815   3.289   3.983   2.115
 4284TIP3    H112816   3.337   3.901   2.105
 4284TIP3    H212817   3.218   3.962   2.176
 4285TIP3   OH212818   3.193   3.711   1.896
 4285TIP3    H112819   3.105   3.734   1.926
 4285TIP3    H212820   3.246   3.788   1.917
 4286TIP3   OH212821   5.353   0.703   3.646
 4286TIP3    H112822   5.279   0.751   3.683
 4286TIP3    H212823   5.316   0.653   3.574
 4287TIP3   OH212824   3.668   2.242   1.730
 4287TIP3    H112825   3.755   2.268   1.700
 4287TIP3    H212826   3.667   2.266   1.823
 4288TIP3   OH212827   1.914   0.928   0.193
 4288TIP3    H112828   1.902   0.957   0.283
 4288TIP3    H212829   1.852   0.855   0.183
 4289TIP3   OH212830   4.068   0.094   1.239
 4289TIP3    H112831   4.162   0.111   1.236
 4289TIP3    H212832   4.042   0.118   1.329
 4290TIP3   OH212833   5.629   6.318   0.278
 4290TIP3    H112834   5.535   6.317   0.262
 4290TIP3    H212835   5.640   6.370   0.358
 4291TIP3   OH212836   3.929   5.200   0.150
 4291TIP3    H112837   3.974   5.267   0.200
 4291TIP3    H212838   3.987   5.181   0.077
 4292TIP3   OH212839   0.066   6.738   3.978
 4292TIP3    H112840   0.001   6.759   3.910
 4292TIP3    H212841   0.019   6.683   4.040
 4293TIP3   OH212842   4.423   2.040   3.536
 4293TIP3    H112843   4.361   2.003   3.599
 4293TIP3    H212844   4.393   2.009   3.451
 4294TIP3   OH212845   5.724   3.617   2.607
 4294TIP3    H112846   5.736   3.570   2.525
 4294TIP3    H212847   5.629   3.630   2.613
 4295TIP3   OH212848   3.714   0.413   4.139
 4295TIP3    H112849   3.791   0.469   4.138
 4295TIP3    H212850   3.722   0.362   4.219
 4296TIP3   OH212851   2.965   4.969   1.239
 4296TIP3    H112852   2.970   5.040   1.174
 4296TIP3    H212853   3.052   4.930   1.237
 4297TIP3   OH212854   0.861   0.331   1.571
 4297TIP3    H112855   0.771   0.326   1.540
 4297TIP3    H212856   0.907   0.262   1.523
 4298TIP3   OH212857   3.106   4.924   1.905
 4298TIP3    H112858   3.175   4.912   1.840
 4298TIP3    H212859   3.122   4.855   1.970
 4299TIP3   OH212860   2.158   2.934   1.440
 4299TIP3    H112861   2.237   2.988   1.446
 4299TIP3    H212862   2.133   2.918   1.531
 4300TIP3   OH212863   1.590   3.097   4.637
 4300TIP3    H112864   1.592   3.125   4.545
 4300TIP3    H212865   1.670   3.133   4.675
 4301TIP3   OH212866   6.018   5.996   5.574
 4301TIP3    H112867   5.992   5.964   5.488
 4301TIP3    H212868   5.969   6.077   5.587
 4302TIP3   OH212869   4.654   2.068   2.851
 4302TIP3    H112870   4.733   2.123   2.848
 4302TIP3    H212871   4.630   2.054   2.760
 4303TIP3   OH212872   1.704   5.638   3.050
 4303TIP3    H112873   1.797   5.660   3.046
 4303TIP3    H212874   1.673   5.648   2.961
 4304TIP3   OH212875   1.041   0.891   5.419
 4304TIP3    H112876   1.102   0.891   5.345
 4304TIP3    H212877   0.969   0.947   5.390
 4305TIP3   OH212878   3.784   3.387   0.632
 4305TIP3    H112879   3.750   3.343   0.554
 4305TIP3    H212880   3.732   3.352   0.704
 4306TIP3   OH212881   1.671   2.835   4.463
 4306TIP3    H112882   1.624   2.905   4.508
 4306TIP3    H212883   1.603   2.774   4.436
 4307TIP3   OH212884   1.966   1.998   3.447
 4307TIP3    H112885   2.044   1.962   3.490
 4307TIP3    H212886   1.918   2.042   3.517
 4308TIP3   OH212887   0.032   3.958   4.972
 4308TIP3    H112888   0.058   3.939   5.062
 4308TIP3    H212889   0.103   4.011   4.937
 4309TIP3   OH212890   2.302   2.145   1.201
 4309TIP3    H112891   2.386   2.178   1.168
 4309TIP3    H212892   2.267   2.218   1.252
 4310TIP3   OH212893   1.655   0.279   1.144
 4310TIP3    H112894   1.741   0.259   1.181
 4310TIP3    H212895   1.638   0.208   1.083
 4311TIP3   OH212896   5.052   1.652   0.346
 4311TIP3    H112897   5.146   1.654   0.364
 4311TIP3    H212898   5.035   1.731   0.295
 4312TIP3   OH212899   4.791   6.558   3.716
 4312TIP3    H112900   4.700   6.581   3.700
 4312TIP3    H212901   4.805   6.576   3.809
 4313TIP3   OH212902   2.904   0.314   3.015
 4313TIP3    H112903   2.929   0.391   3.066
 4313TIP3    H212904   2.814   0.296   3.041
 4314TIP3   OH212905   0.646   1.554   5.270
 4314TIP3    H112906   0.646   1.646   5.297
 4314TIP3    H212907   0.645   1.505   5.351
 4315TIP3   OH212908   6.071   4.867   4.354
 4315TIP3    H112909   6.016   4.940   4.384
 4315TIP3    H212910   6.011   4.807   4.312
 4316TIP3   OH212911   5.983   4.323   1.993
 4316TIP3    H112912   5.919   4.321   2.065
 4316TIP3    H212913   5.977   4.412   1.957
 4317TIP3   OH212914   5.512   2.339   5.592
 4317TIP3    H112915   5.443   2.376   5.647
 4317TIP3    H212916   5.471   2.332   5.505
 4318TIP3   OH212917   3.539   0.894   0.629
 4318TIP3    H112918   3.559   0.987   0.642
 4318TIP3    H212919   3.445   0.887   0.645
 4319TIP3   OH212920   3.787   4.379   2.630
 4319TIP3    H112921   3.855   4.380   2.563
 4319TIP3    H212922   3.832   4.353   2.710
 4320TIP3   OH212923   0.001   6.795   0.878
 4320TIP3    H112924   0.002   6.713   0.927
 4320TIP3    H212925   0.010   6.769   0.786
 4321TIP3   OH212926   5.267   5.397   2.517
 4321TIP3    H112927   5.345   5.452   2.525
 4321TIP3    H212928   5.245   5.400   2.424
 4322TIP3   OH212929   1.020   2.768   1.700
 4322TIP3    H112930   1.002   2.688   1.749
 4322TIP3    H212931   0.969   2.835   1.744
 4323TIP3   OH212932   3.075   1.019   1.078
 4323TIP3    H112933   3.043   0.931   1.094
 4323TIP3    H212934   3.108   1.016   0.988
 4324TIP3   OH212935   1.242   5.684   2.640
 4324TIP3    H112936   1.176   5.633   2.686
 4324TIP3    H212937   1.259   5.759   2.697
 4325TIP3   OH212938   6.282   4.657   5.000
 4325TIP3    H112939   6.345   4.684   4.933
 4325TIP3    H212940   6.196   4.677   4.961
 4326TIP3   OH212941   4.966   5.420   0.269
 4326TIP3    H112942   4.877   5.452   0.254
 4326TIP3    H212943   4.979   5.353   0.201
 4327TIP3   OH212944   3.917   2.042   1.782
 4327TIP3    H112945   3.909   1.981   1.855
 4327TIP3    H212946   3.853   2.011   1.718
 4328TIP3   OH212947   3.721   2.149   5.765
 4328TIP3    H112948   3.747   2.238   5.745
 4328TIP3    H212949   3.648   2.158   5.826
 4329TIP3   OH212950   5.624   0.867   3.403
 4329TIP3    H112951   5.683   0.792   3.414
 4329TIP3    H212952   5.572   0.868   3.483
 4330TIP3   OH212953   0.060   3.479   4.774
 4330TIP3    H112954  -0.021   3.522   4.746
 4330TIP3    H212955   0.101   3.541   4.834
 4331TIP3   OH212956   5.803   4.775   2.132
 4331TIP3    H112957   5.750   4.810   2.204
 4331TIP3    H212958   5.880   4.738   2.175
 4332TIP3   OH212959   3.776   1.906   4.263
 4332TIP3    H112960   3.848   1.877   4.207
 4332TIP3    H212961   3.816   1.919   4.349
 4333TIP3   OH212962   5.188   6.775   0.287
 4333TIP3    H112963   5.251   6.826   0.338
 4333TIP3    H212964   5.226   6.770   0.199
 4334TIP3   OH212965   6.198   5.112   0.809
 4334TIP3    H112966   6.254   5.043   0.846
 4334TIP3    H212967   6.204   5.183   0.872
 4335TIP3   OH212968   3.074   2.477   3.580
 4335TIP3    H112969   3.035   2.512   3.500
 4335TIP3    H212970   3.049   2.385   3.580
 4336TIP3   OH212971   3.293   1.123   1.225
 4336TIP3    H112972   3.225   1.069   1.183
 4336TIP3    H212973   3.361   1.060   1.248
 4337TIP3   OH212974   4.155   1.654   5.121
 4337TIP3    H112975   4.085   1.623   5.063
 4337TIP3    H212976   4.124   1.739   5.152
 4338TIP3   OH212977   1.197   3.651   3.672
 4338TIP3    H112978   1.221   3.719   3.735
 4338TIP3    H212979   1.222   3.569   3.714
 4339TIP3   OH212980   2.193   2.437   0.496
 4339TIP3    H112981   2.105   2.463   0.468
 4339TIP3    H212982   2.250   2.461   0.423
 4340TIP3   OH212983   5.500   1.812   4.834
 4340TIP3    H112984   5.480   1.797   4.927
 4340TIP3    H212985   5.570   1.877   4.836
 4341TIP3   OH212986   5.913   1.506   5.265
 4341TIP3    H112987   5.978   1.437   5.253
 4341TIP3    H212988   5.876   1.489   5.352
 4342TIP3   OH212989   2.685   3.340   0.604
 4342TIP3    H112990   2.771   3.377   0.587
 4342TIP3    H212991   2.697   3.246   0.595
 4343TIP3   OH212992   5.535   2.507   1.786
 4343TIP3    H112993   5.523   2.466   1.700
 4343TIP3    H212994   5.587   2.585   1.767
 4344TIP3   OH212995   0.986   1.561   4.285
 4344TIP3    H112996   1.043   1.638   4.281
 4344TIP3    H212997   1.039   1.490   4.247
 4345TIP3   OH212998   7.198   3.394   0.182
 4345TIP3    H112999   7.280   3.440   0.202
 4345TIP3    H213000   7.136   3.427   0.247
 4346TIP3   OH213001   5.097   2.284   4.545
 4346TIP3    H113002   5.048   2.350   4.593
 4346TIP3    H213003   5.065   2.291   4.455
 4347TIP3   OH213004   5.608   1.828   2.800
 4347TIP3    H113005   5.555   1.855   2.876
 4347TIP3    H213006   5.646   1.745   2.826
 4348TIP3   OH213007   3.786   4.724   1.923
 4348TIP3    H113008   3.750   4.723   1.834
 4348TIP3    H213009   3.875   4.690   1.912
 4349TIP3   OH213010   1.176   3.207   5.724
 4349TIP3    H113011   1.204   3.219   5.815
 4349TIP3    H213012   1.194   3.115   5.706
 4350TIP3   OH213013   5.441   6.204   1.442
 4350TIP3    H113014   5.485   6.200   1.357
 4350TIP3    H213015   5.456   6.293   1.473
 4351TIP3   OH213016   0.733   0.293   2.021
 4351TIP3    H113017   0.698   0.207   2.043
 4351TIP3    H213018   0.733   0.294   1.925
 4352TIP3   OH213019   2.920   3.629   4.529
 4352TIP3    H113020   2.987   3.698   4.526
 4352TIP3    H213021   2.970   3.548   4.540
 4353TIP3   OH213022   0.408   1.551   1.236
 4353TIP3    H113023   0.363   1.550   1.321
 4353TIP3    H213024   0.343   1.586   1.175
 4354TIP3   OH213025   2.955   4.341   0.880
 4354TIP3    H113026   2.876   4.305   0.838
 4354TIP3    H213027   3.023   4.335   0.812
 4355TIP3   OH213028   6.560   5.696   5.719
 4355TIP3    H113029   6.647   5.660   5.699
 4355TIP3    H213030   6.551   5.769   5.658
 4356TIP3   OH213031   0.509   2.189   3.131
 4356TIP3    H113032   0.590   2.143   3.110
 4356TIP3    H213033   0.524   2.279   3.101
 4357TIP3   OH213034   0.625   2.443   4.420
 4357TIP3    H113035   0.629   2.538   4.414
 4357TIP3    H213036   0.536   2.421   4.391
 4358TIP3   OH213037   5.024   4.634   2.867
 4358TIP3    H113038   5.042   4.635   2.773
 4358TIP3    H213039   5.110   4.640   2.909
 4359TIP3   OH213040   5.034   6.006   0.395
 4359TIP3    H113041   5.081   6.018   0.312
 4359TIP3    H213042   5.101   5.971   0.455
 4360TIP3   OH213043   1.832   6.047   1.248
 4360TIP3    H113044   1.749   6.092   1.265
 4360TIP3    H213045   1.819   5.959   1.284
 4361TIP3   OH213046   1.865   3.013   1.900
 4361TIP3    H113047   1.905   3.100   1.906
 4361TIP3    H213048   1.794   3.015   1.964
 4362TIP3   OH213049   5.152   3.136   0.887
 4362TIP3    H113050   5.216   3.206   0.874
 4362TIP3    H213051   5.155   3.084   0.806
 4363TIP3   OH213052   1.295   5.580   5.767
 4363TIP3    H113053   1.296   5.594   5.862
 4363TIP3    H213054   1.305   5.668   5.730
 4364TIP3   OH213055   3.889   4.542   0.674
 4364TIP3    H113056   3.835   4.517   0.749
 4364TIP3    H213057   3.830   4.595   0.619
 4365TIP3   OH213058   3.008   5.645   3.675
 4365TIP3    H113059   2.962   5.717   3.719
 4365TIP3    H213060   3.101   5.665   3.686
 4366TIP3   OH213061   4.397   1.929   2.154
 4366TIP3    H113062   4.416   1.836   2.165
 4366TIP3    H213063   4.350   1.934   2.071
 4367TIP3   OH213064   1.115   0.805   1.390
 4367TIP3    H113065   1.139   0.746   1.318
 4367TIP3    H213066   1.040   0.762   1.431
 4368TIP3   OH213067   6.725   0.944   1.844
 4368TIP3    H113068   6.680   0.899   1.916
 4368TIP3    H213069   6.810   0.970   1.880
 4369TIP3   OH213070   4.199   0.149   4.959
 4369TIP3    H113071   4.264   0.088   4.926
 4369TIP3    H213072   4.234   0.179   5.043
 4370TIP3   OH213073   3.989   6.788   0.097
 4370TIP3    H113074   4.020   6.866   0.145
 4370TIP3    H213075   3.988   6.815   0.006
 4371TIP3   OH213076   5.718   2.599   4.895
 4371TIP3    H113077   5.628   2.570   4.908
 4371TIP3    H213078   5.766   2.520   4.869
 4372TIP3   OH213079   3.977   4.839   4.512
 4372TIP3    H113080   3.903   4.899   4.522
 4372TIP3    H213081   4.029   4.852   4.592
 4373TIP3   OH213082   5.515   5.320   0.429
 4373TIP3    H113083   5.499   5.310   0.523
 4373TIP3    H213084   5.520   5.230   0.396
 4374TIP3   OH213085   6.730   4.148   0.749
 4374TIP3    H113086   6.825   4.150   0.759
 4374TIP3    H213087   6.702   4.236   0.770
 4375TIP3   OH213088   3.368   0.980   4.644
 4375TIP3    H113089   3.444   0.950   4.694
 4375TIP3    H213090   3.392   1.068   4.615
 4376TIP3   OH213091   6.897   1.081   0.096
 4376TIP3    H113092   6.900   1.002   0.150
 4376TIP3    H213093   6.821   1.129   0.127
 4377TIP3   OH213094   4.790   1.529   0.235
 4377TIP3    H113095   4.863   1.536   0.174
 4377TIP3    H213096   4.829   1.496   0.316
 4378TIP3   OH213097   6.409   4.271   3.623
 4378TIP3    H113098   6.490   4.296   3.667
 4378TIP3    H213099   6.364   4.354   3.605
 4379TIP3   OH213100   6.170   5.549   3.988
 4379TIP3    H113101   6.220   5.630   3.978
 4379TIP3    H213102   6.079   5.574   3.970
 4380TIP3   OH213103   4.891   0.498   2.808
 4380TIP3    H113104   4.879   0.424   2.749
 4380TIP3    H213105   4.981   0.490   2.838
 4381TIP3   OH213106   4.707   6.278   5.213
 4381TIP3    H113107   4.687   6.295   5.120
 4381TIP3    H213108   4.782   6.220   5.211
 4382TIP3   OH213109   2.295   3.647   2.796
 4382TIP3    H113110   2.243   3.705   2.852
 4382TIP3    H213111   2.353   3.706   2.748
 4383TIP3   OH213112   2.506   2.911   3.830
 4383TIP3    H113113   2.411   2.924   3.822
 4383TIP3    H213114   2.541   3.000   3.843
 4384TIP3   OH213115   0.275   4.557   3.171
 4384TIP3    H113116   0.200   4.523   3.219
 4384TIP3    H213117   0.334   4.592   3.239
 4385TIP3   OH213118   4.384   2.339   5.155
 4385TIP3    H113119   4.429   2.272   5.207
 4385TIP3    H213120   4.446   2.362   5.086
 4386TIP3   OH213121   2.043   3.362   5.763
 4386TIP3    H113122   1.981   3.395   5.698
 4386TIP3    H213123   2.004   3.384   5.848
 4387TIP3   OH213124   2.331   0.710   0.728
 4387TIP3    H113125   2.388   0.649   0.681
 4387TIP3    H213126   2.252   0.716   0.675
 4388TIP3   OH213127   5.720   4.430   2.132
 4388TIP3    H113128   5.705   4.336   2.143
 4388TIP3    H213129   5.753   4.459   2.217
 4389TIP3   OH213130   2.323   3.816   4.181
 4389TIP3    H113131   2.256   3.882   4.160
 4389TIP3    H213132   2.345   3.834   4.273
 4390TIP3   OH213133   3.949   0.138   5.044
 4390TIP3    H113134   3.979   0.125   5.133
 4390TIP3    H213135   4.027   0.124   4.990
 4391TIP3   OH213136   1.211   0.770   4.569
 4391TIP3    H113137   1.182   0.718   4.495
 4391TIP3    H213138   1.137   0.827   4.589
 4392TIP3   OH213139   5.176   4.290   3.844
 4392TIP3    H113140   5.200   4.376   3.878
 4392TIP3    H213141   5.113   4.256   3.907
 4393TIP3   OH213142   5.697   0.354   0.445
 4393TIP3    H113143   5.675   0.393   0.529
 4393TIP3    H213144   5.747   0.421   0.399
 4394TIP3   OH213145   5.221   0.432   4.037
 4394TIP3    H113146   5.295   0.394   4.083
 4394TIP3    H213147   5.256   0.454   3.951
 4395TIP3   OH213148   3.817   6.742   4.415
 4395TIP3    H113149   3.770   6.822   4.393
 4395TIP3    H213150   3.908   6.761   4.392
 4396TIP3   OH213151   4.451   5.458   1.222
 4396TIP3    H113152   4.475   5.548   1.198
 4396TIP3    H213153   4.402   5.426   1.146
 4397TIP3   OH213154   7.100   3.807   0.541
 4397TIP3    H113155   7.066   3.887   0.583
 4397TIP3    H213156   7.159   3.839   0.473
 4398TIP3   OH213157   5.076   1.657   5.889
 4398TIP3    H113158   4.988   1.632   5.915
 4398TIP3    H213159   5.133   1.592   5.931
 4399TIP3   OH213160   5.797   5.290   5.576
 4399TIP3    H113161   5.828   5.380   5.586
 4399TIP3    H213162   5.876   5.240   5.554
 4400TIP3   OH213163   2.473   3.798   4.852
 4400TIP3    H113164   2.456   3.704   4.857
 4400TIP3    H213165   2.519   3.809   4.769
 4401TIP3   OH213166   6.631   3.101   1.563
 4401TIP3    H113167   6.613   3.032   1.498
 4401TIP3    H213168   6.547   3.112   1.608
 4402TIP3   OH213169   0.443   0.694   4.122
 4402TIP3    H113170   0.456   0.636   4.047
 4402TIP3    H213171   0.409   0.637   4.191
 4403TIP3   OH213172   7.027   1.705   0.169
 4403TIP3    H113173   6.986   1.747   0.244
 4403TIP3    H213174   7.020   1.768   0.098
 4404TIP3   OH213175   2.688   0.473   1.560
 4404TIP3    H113176   2.762   0.416   1.581
 4404TIP3    H213177   2.612   0.429   1.599
 4405TIP3   OH213178   3.702   2.762   4.460
 4405TIP3    H113179   3.676   2.779   4.369
 4405TIP3    H213180   3.795   2.738   4.454
 4406TIP3   OH213181   2.896   6.165   2.059
 4406TIP3    H113182   2.908   6.176   2.153
 4406TIP3    H213183   2.849   6.083   2.050
 4407TIP3   OH213184   5.710   1.657   1.326
 4407TIP3    H113185   5.766   1.707   1.384
 4407TIP3    H213186   5.747   1.569   1.326
 4408TIP3   OH213187   6.303   3.783   3.235
 4408TIP3    H113188   6.219   3.808   3.197
 4408TIP3    H213189   6.355   3.864   3.234
 4409TIP3   OH213190   0.232   1.235   4.064
 4409TIP3    H113191   0.311   1.183   4.076
 4409TIP3    H213192   0.180   1.219   4.143
 4410TIP3   OH213193   3.645   3.651   0.501
 4410TIP3    H113194   3.625   3.743   0.521
 4410TIP3    H213195   3.734   3.638   0.536
 4411TIP3   OH213196   0.788   5.777   2.366
 4411TIP3    H113197   0.792   5.777   2.271
 4411TIP3    H213198   0.795   5.869   2.391
 4412TIP3   OH213199   1.919   0.922   1.362
 4412TIP3    H113200   1.862   0.991   1.331
 4412TIP3    H213201   1.951   0.878   1.283
 4413TIP3   OH213202   4.014   1.501   2.376
 4413TIP3    H113203   3.947   1.433   2.368
 4413TIP3    H213204   4.077   1.479   2.307
 4414TIP3   OH213205   1.580   5.255   1.559
 4414TIP3    H113206   1.612   5.271   1.471
 4414TIP3    H213207   1.494   5.214   1.546
 4415TIP3   OH213208   6.125   4.764   3.748
 4415TIP3    H113209   6.155   4.829   3.812
 4415TIP3    H213210   6.127   4.810   3.665
 4416TIP3   OH213211   6.650   0.960   5.774
 4416TIP3    H113212   6.745   0.957   5.776
 4416TIP3    H213213   6.625   0.898   5.707
 4417TIP3   OH213214   6.945   4.051   0.535
 4417TIP3    H113215   6.966   4.133   0.490
 4417TIP3    H213216   6.971   4.066   0.626
 4418TIP3   OH213217   5.748   2.802   2.609
 4418TIP3    H113218   5.669   2.829   2.563
 4418TIP3    H213219   5.784   2.884   2.644
 4419TIP3   OH213220   1.484   5.039   2.417
 4419TIP3    H113221   1.537   5.014   2.341
 4419TIP3    H213222   1.398   5.002   2.399
 4420TIP3   OH213223   7.149   5.627   0.640
 4420TIP3    H113224   7.218   5.694   0.638
 4420TIP3    H213225   7.094   5.651   0.714
 4421TIP3   OH213226   3.807   5.202   1.073
 4421TIP3    H113227   3.853   5.118   1.070
 4421TIP3    H213228   3.716   5.179   1.092
 4422TIP3   OH213229   0.356   5.905   0.387
 4422TIP3    H113230   0.425   5.843   0.410
 4422TIP3    H213231   0.274   5.859   0.406
 4423TIP3   OH213232   5.219   4.402   4.805
 4423TIP3    H113233   5.126   4.379   4.805
 4423TIP3    H213234   5.221   4.491   4.841
 4424TIP3   OH213235   5.954   2.769   5.660
 4424TIP3    H113236   5.882   2.786   5.601
 4424TIP3    H213237   5.972   2.675   5.649
 4425TIP3   OH213238   1.790   0.216   2.778
 4425TIP3    H113239   1.872   0.236   2.824
 4425TIP3    H213240   1.737   0.295   2.789
 4426TIP3   OH213241   3.187   2.646   0.177
 4426TIP3    H113242   3.147   2.582   0.236
 4426TIP3    H213243   3.114   2.678   0.123
 4427TIP3   OH213244   1.387   0.453   4.445
 4427TIP3    H113245   1.323   0.398   4.401
 4427TIP3    H213246   1.414   0.402   4.522
 4428TIP3   OH213247   0.243   5.090   2.441
 4428TIP3    H113248   0.152   5.089   2.470
 4428TIP3    H213249   0.293   5.068   2.520
 4429TIP3   OH213250   4.169   0.424   0.134
 4429TIP3    H113251   4.202   0.398   0.219
 4429TIP3    H213252   4.164   0.342   0.083
 4430TIP3   OH213253   1.482   5.878   4.588
 4430TIP3    H113254   1.389   5.899   4.593
 4430TIP3    H213255   1.509   5.868   4.679
 4431TIP3   OH213256   3.471   2.832   0.345
 4431TIP3    H113257   3.395   2.889   0.334
 4431TIP3    H213258   3.435   2.744   0.352
 4432TIP3   OH213259   4.051   0.299   4.155
 4432TIP3    H113260   4.013   0.387   4.149
 4432TIP3    H213261   3.977   0.243   4.182
 4433TIP3   OH213262   5.297   2.173   0.788
 4433TIP3    H113263   5.337   2.114   0.852
 4433TIP3    H213264   5.215   2.200   0.829
 4434TIP3   OH213265   4.533   3.697   5.637
 4434TIP3    H113266   4.528   3.788   5.606
 4434TIP3    H213267   4.626   3.677   5.638
 4435TIP3   OH213268   2.026   1.338   4.183
 4435TIP3    H113269   1.976   1.290   4.250
 4435TIP3    H213270   2.029   1.428   4.216
 4436TIP3   OH213271   0.837   6.574   5.407
 4436TIP3    H113272   0.802   6.631   5.476
 4436TIP3    H213273   0.929   6.563   5.430
 4437TIP3   OH213274   3.589   2.512   3.055
 4437TIP3    H113275   3.652   2.460   3.005
 4437TIP3    H213276   3.573   2.589   3.001
 4438TIP3   OH213277   6.872   3.602   1.843
 4438TIP3    H113278   6.863   3.645   1.758
 4438TIP3    H213279   6.811   3.528   1.839
 4439TIP3   OH213280   3.609   5.094   2.565
 4439TIP3    H113281   3.635   5.030   2.631
 4439TIP3    H213282   3.688   5.146   2.549
 4440TIP3   OH213283   2.301   6.170   2.996
 4440TIP3    H113284   2.213   6.186   2.964
 4440TIP3    H213285   2.294   6.092   3.051
 4441TIP3   OH213286   3.959   4.318   5.122
 4441TIP3    H113287   3.880   4.271   5.093
 4441TIP3    H213288   3.931   4.409   5.131
 4442TIP3   OH213289   6.014   4.583   2.176
 4442TIP3    H113290   6.013   4.545   2.264
 4442TIP3    H213291   6.088   4.541   2.133
 4443TIP3   OH213292   4.516   0.359   1.652
 4443TIP3    H113293   4.493   0.428   1.590
 4443TIP3    H213294   4.529   0.404   1.735
 4444TIP3   OH213295   3.900   5.438   5.888
 4444TIP3    H113296   3.847   5.441   5.808
 4444TIP3    H213297   3.912   5.345   5.905
 4445TIP3   OH213298   6.796   3.954   5.517
 4445TIP3    H113299   6.767   3.910   5.597
 4445TIP3    H213300   6.724   4.014   5.496
 4446TIP3   OH213301   3.816   2.921   0.330
 4446TIP3    H113302   3.847   2.997   0.380
 4446TIP3    H213303   3.896   2.878   0.298
 4447TIP3   OH213304   3.104   2.748   3.668
 4447TIP3    H113305   3.160   2.789   3.602
 4447TIP3    H213306   3.116   2.654   3.654
 4448TIP3   OH213307   3.123   5.680   0.244
 4448TIP3    H113308   3.136   5.587   0.263
 4448TIP3    H213309   3.195   5.703   0.185
 4449TIP3   OH213310   1.907   5.257   2.932
 4449TIP3    H113311   1.814   5.279   2.924
 4449TIP3    H213312   1.907   5.174   2.981
 4450TIP3   OH213313   3.325   1.334   4.331
 4450TIP3    H113314   3.334   1.248   4.290
 4450TIP3    H213315   3.369   1.394   4.269
 4451TIP3   OH213316   5.192   1.649   1.265
 4451TIP3    H113317   5.284   1.675   1.270
 4451TIP3    H213318   5.192   1.558   1.294
 4452TIP3   OH213319   5.303   5.174   4.998
 4452TIP3    H113320   5.242   5.218   5.056
 4452TIP3    H213321   5.268   5.190   4.910
 4453TIP3   OH213322   5.996   3.431   3.957
 4453TIP3    H113323   5.908   3.394   3.949
 4453TIP3    H213324   5.984   3.513   4.004
 4454TIP3   OH213325   1.454   2.193   5.697
 4454TIP3    H113326   1.400   2.206   5.619
 4454TIP3    H213327   1.467   2.098   5.701
 4455TIP3   OH213328   2.681   5.459   2.272
 4455TIP3    H113329   2.688   5.369   2.243
 4455TIP3    H213330   2.732   5.463   2.353
 4456TIP3   OH213331   0.382   2.902   0.301
 4456TIP3    H113332   0.418   2.928   0.386
 4456TIP3    H213333   0.458   2.893   0.245
 4457TIP3   OH213334   0.149   6.480   2.185
 4457TIP3    H113335   0.106   6.486   2.100
 4457TIP3    H213336   0.084   6.437   2.242
 4458TIP3   OH213337   6.159   1.878   2.198
 4458TIP3    H113338   6.186   1.848   2.112
 4458TIP3    H213339   6.081   1.826   2.218
 4459TIP3   OH213340   0.459   0.679   3.460
 4459TIP3    H113341   0.388   0.729   3.420
 4459TIP3    H213342   0.421   0.643   3.540
 4460TIP3   OH213343   4.218   1.172   2.535
 4460TIP3    H113344   4.150   1.121   2.491
 4460TIP3    H213345   4.280   1.106   2.567
 4461TIP3   OH213346   4.788   6.348   0.394
 4461TIP3    H113347   4.757   6.263   0.361
 4461TIP3    H213348   4.830   6.328   0.477
 4462TIP3   OH213349   5.258   5.539   1.040
 4462TIP3    H113350   5.241   5.615   1.095
 4462TIP3    H213351   5.271   5.467   1.102
 4463TIP3   OH213352   3.674   1.493   0.336
 4463TIP3    H113353   3.708   1.412   0.298
 4463TIP3    H213354   3.711   1.562   0.282
 4464TIP3   OH213355   3.489   6.373   2.393
 4464TIP3    H113356   3.561   6.369   2.456
 4464TIP3    H213357   3.470   6.281   2.373
 4465TIP3   OH213358   1.884   2.523   5.150
 4465TIP3    H113359   1.881   2.610   5.110
 4465TIP3    H213360   1.880   2.462   5.076
 4466TIP3   OH213361   1.797   4.730   0.204
 4466TIP3    H113362   1.845   4.726   0.121
 4466TIP3    H213363   1.707   4.752   0.178
 4467TIP3   OH213364   1.184   3.893   0.028
 4467TIP3    H113365   1.185   3.902  -0.067
 4467TIP3    H213366   1.093   3.876   0.050
 4468TIP3   OH213367   3.713   0.993   2.955
 4468TIP3    H113368   3.766   0.916   2.939
 4468TIP3    H213369   3.773   1.067   2.940
 4469TIP3   OH213370   4.853   1.329   0.737
 4469TIP3    H113371   4.838   1.234   0.740
 4469TIP3    H213372   4.947   1.339   0.753
 4470TIP3   OH213373   1.645   5.919   0.204
 4470TIP3    H113374   1.595   5.881   0.131
 4470TIP3    H213375   1.689   5.994   0.166
 4471TIP3   OH213376   2.676   3.961   5.020
 4471TIP3    H113377   2.649   3.968   4.929
 4471TIP3    H213378   2.771   3.966   5.018
 4472TIP3   OH213379   3.387   1.890   4.914
 4472TIP3    H113380   3.333   1.895   4.836
 4472TIP3    H213381   3.380   1.798   4.942
 4473TIP3   OH213382   5.862   6.412   2.102
 4473TIP3    H113383   5.898   6.416   2.191
 4473TIP3    H213384   5.804   6.488   2.096
 4474TIP3   OH213385   6.860   4.598   2.539
 4474TIP3    H113386   6.893   4.578   2.452
 4474TIP3    H213387   6.936   4.631   2.587
 4475TIP3   OH213388   6.397   0.651   1.029
 4475TIP3    H113389   6.365   0.586   1.091
 4475TIP3    H213390   6.484   0.618   1.005
 4476TIP3   OH213391   5.641   1.515   1.817
 4476TIP3    H113392   5.703   1.575   1.858
 4476TIP3    H213393   5.575   1.499   1.885
 4477TIP3   OH213394   7.000   0.530   3.204
 4477TIP3    H113395   7.007   0.473   3.281
 4477TIP3    H213396   7.046   0.610   3.230
 4478TIP3   OH213397   2.390   3.302   3.481
 4478TIP3    H113398   2.343   3.331   3.559
 4478TIP3    H213399   2.401   3.207   3.493
 4479TIP3   OH213400   1.256   3.019   3.790
 4479TIP3    H113401   1.278   2.926   3.782
 4479TIP3    H213402   1.341   3.062   3.805
 4480TIP3   OH213403   4.107   3.343   2.313
 4480TIP3    H113404   4.155   3.395   2.249
 4480TIP3    H213405   4.072   3.269   2.263
 4481TIP3   OH213406   0.004   1.758   4.030
 4481TIP3    H113407   0.027   1.669   4.002
 4481TIP3    H213408   0.038   1.765   4.119
 4482TIP3   OH213409   5.572   5.734   5.775
 4482TIP3    H113410   5.600   5.820   5.742
 4482TIP3    H213411   5.505   5.705   5.714
 4483TIP3   OH213412   4.173   3.308   1.389
 4483TIP3    H113413   4.095   3.253   1.394
 4483TIP3    H213414   4.168   3.365   1.467
 4484TIP3   OH213415   1.742   1.715   0.100
 4484TIP3    H113416   1.740   1.784   0.166
 4484TIP3    H213417   1.784   1.756   0.024
 4485TIP3   OH213418   5.441   4.633   5.596
 4485TIP3    H113419   5.531   4.640   5.628
 4485TIP3    H213420   5.441   4.678   5.512
 4486TIP3   OH213421   1.359   1.033   0.851
 4486TIP3    H113422   1.319   1.074   0.775
 4486TIP3    H213423   1.286   0.997   0.901
 4487TIP3   OH213424   3.408   6.020   3.991
 4487TIP3    H113425   3.452   6.102   4.014
 4487TIP3    H213426   3.420   6.011   3.897
 4488TIP3   OH213427   4.929   6.498   5.265
 4488TIP3    H113428   4.882   6.419   5.291
 4488TIP3    H213429   4.954   6.482   5.174
 4489TIP3   OH213430   4.677   1.620   1.999
 4489TIP3    H113431   4.669   1.659   2.087
 4489TIP3    H213432   4.706   1.693   1.944
 4490TIP3   OH213433   4.406   1.541   3.136
 4490TIP3    H113434   4.347   1.600   3.089
 4490TIP3    H213435   4.494   1.569   3.110
 4491TIP3   OH213436   0.130   0.133   0.337
 4491TIP3    H113437   0.156   0.206   0.281
 4491TIP3    H213438   0.185   0.060   0.307
 4492TIP3   OH213439   0.446   5.613   2.886
 4492TIP3    H113440   0.498   5.606   2.966
 4492TIP3    H213441   0.411   5.702   2.887
 4493TIP3   OH213442   1.382   5.344   2.443
 4493TIP3    H113443   1.389   5.439   2.439
 4493TIP3    H213444   1.471   5.312   2.432
 4494TIP3   OH213445   5.312   5.972   0.315
 4494TIP3    H113446   5.406   5.979   0.331
 4494TIP3    H213447   5.277   5.934   0.395
 4495TIP3   OH213448   2.911   3.815   3.907
 4495TIP3    H113449   2.940   3.905   3.890
 4495TIP3    H213450   2.991   3.763   3.902
 4496TIP3   OH213451   2.504   6.556   4.215
 4496TIP3    H113452   2.420   6.542   4.258
 4496TIP3    H213453   2.482   6.582   4.126
 4497TIP3   OH213454   4.287   4.763   2.450
 4497TIP3    H113455   4.228   4.835   2.471
 4497TIP3    H213456   4.374   4.795   2.474
 4498TIP3   OH213457   3.634   1.965   3.262
 4498TIP3    H113458   3.583   2.040   3.231
 4498TIP3    H213459   3.684   2.000   3.336
 4499TIP3   OH213460   0.723   4.641   4.319
 4499TIP3    H113461   0.818   4.640   4.323
 4499TIP3    H213462   0.703   4.660   4.227
 4500TIP3   OH213463   3.026   0.768   2.974
 4500TIP3    H113464   3.009   0.740   2.884
 4500TIP3    H213465   2.939   0.793   3.007
 4501TIP3   OH213466   2.841   2.845   3.611
 4501TIP3    H113467   2.776   2.776   3.600
 4501TIP3    H213468   2.916   2.802   3.653
 4502TIP3   OH213469   3.020   5.477   4.860
 4502TIP3    H113470   3.000   5.440   4.774
 4502TIP3    H213471   2.962   5.430   4.921
 4503TIP3   OH213472   5.220   6.455   0.633
 4503TIP3    H113473   5.148   6.457   0.570
 4503TIP3    H213474   5.195   6.388   0.697
 4504TIP3   OH213475   2.508   1.144   0.117
 4504TIP3    H113476   2.541   1.055   0.125
 4504TIP3    H213477   2.465   1.147   0.032
 4505TIP3   OH213478   0.324   0.910   5.819
 4505TIP3    H113479   0.294   0.867   5.739
 4505TIP3    H213480   0.390   0.851   5.855
 4506TIP3   OH213481   4.517   5.723   2.289
 4506TIP3    H113482   4.563   5.721   2.373
 4506TIP3    H213483   4.522   5.814   2.261
 4507TIP3   OH213484   6.283   4.116   1.171
 4507TIP3    H113485   6.339   4.147   1.101
 4507TIP3    H213486   6.199   4.098   1.128
 4508TIP3   OH213487   5.847   6.294   1.150
 4508TIP3    H113488   5.860   6.310   1.057
 4508TIP3    H213489   5.907   6.223   1.171
 4509TIP3   OH213490   2.014   3.412   0.453
 4509TIP3    H113491   2.078   3.348   0.423
 4509TIP3    H213492   1.931   3.365   0.454
 4510TIP3   OH213493   1.066   3.861   2.401
 4510TIP3    H113494   1.016   3.840   2.481
 4510TIP3    H213495   1.004   3.910   2.347
 4511TIP3   OH213496   3.740   6.533   3.543
 4511TIP3    H113497   3.789   6.526   3.461
 4511TIP3    H213498   3.801   6.575   3.603
 4512TIP3   OH213499   3.711   4.948   2.167
 4512TIP3    H113500   3.658   4.987   2.098
 4512TIP3    H213501   3.680   4.858   2.173
 4513TIP3   OH213502   6.573   3.847   0.054
 4513TIP3    H113503   6.639   3.783   0.029
 4513TIP3    H213504   6.556   3.829   0.147
 4514TIP3   OH213505   2.669   2.872   4.276
 4514TIP3    H113506   2.751   2.854   4.322
 4514TIP3    H213507   2.607   2.893   4.346
 4515TIP3   OH213508   0.413   2.626   0.667
 4515TIP3    H113509   0.346   2.589   0.609
 4515TIP3    H213510   0.373   2.625   0.754
 4516TIP3   OH213511   1.699   0.602   0.887
 4516TIP3    H113512   1.721   0.676   0.831
 4516TIP3    H213513   1.660   0.538   0.828
 4517TIP3   OH213514   2.917   4.377   3.514
 4517TIP3    H113515   2.828   4.348   3.533
 4517TIP3    H213516   2.921   4.466   3.551
 4518TIP3   OH213517   5.951   0.641   1.448
 4518TIP3    H113518   5.991   0.569   1.496
 4518TIP3    H213519   5.942   0.713   1.512
 4519TIP3   OH213520   4.039   3.486   2.994
 4519TIP3    H113521   4.019   3.518   2.906
 4519TIP3    H213522   4.027   3.562   3.050
 4520TIP3   OH213523   5.645   2.865   5.751
 4520TIP3    H113524   5.668   2.785   5.798
 4520TIP3    H213525   5.714   2.927   5.775
 4521TIP3   OH213526   3.218   3.978   2.642
 4521TIP3    H113527   3.216   3.911   2.574
 4521TIP3    H213528   3.250   4.057   2.597
 4522TIP3   OH213529   1.945   3.876   2.676
 4522TIP3    H113530   1.940   3.924   2.759
 4522TIP3    H213531   1.861   3.830   2.670
 4523TIP3   OH213532   2.363   4.054   0.264
 4523TIP3    H113533   2.339   4.005   0.343
 4523TIP3    H213534   2.280   4.076   0.222
 4524TIP3   OH213535   4.551   1.424   3.636
 4524TIP3    H113536   4.563   1.404   3.728
 4524TIP3    H213537   4.507   1.509   3.635
 4525TIP3   OH213538   3.750   5.338   1.714
 4525TIP3    H113539   3.725   5.245   1.712
 4525TIP3    H213540   3.834   5.342   1.669
 4526TIP3   OH213541   4.302   0.423   3.311
 4526TIP3    H113542   4.350   0.393   3.233
 4526TIP3    H213543   4.305   0.518   3.305
 4527TIP3   OH213544   3.228   3.202   2.734
 4527TIP3    H113545   3.153   3.144   2.747
 4527TIP3    H213546   3.281   3.158   2.668
 4528TIP3   OH213547   5.097   5.106   3.519
 4528TIP3    H113548   5.186   5.078   3.538
 4528TIP3    H213549   5.060   5.131   3.603
 4529TIP3   OH213550   0.615   4.731   5.815
 4529TIP3    H113551   0.604   4.776   5.731
 4529TIP3    H213552   0.695   4.680   5.804
 4530TIP3   OH213553   3.280   5.472   4.076
 4530TIP3    H113554   3.339   5.436   4.143
 4530TIP3    H213555   3.298   5.421   3.998
 4531TIP3   OH213556   1.333   2.381   5.357
 4531TIP3    H113557   1.342   2.295   5.317
 4531TIP3    H213558   1.389   2.438   5.304
 4532TIP3   OH213559   1.954   4.463   2.978
 4532TIP3    H113560   1.918   4.452   2.890
 4532TIP3    H213561   2.046   4.437   2.969
 4533TIP3   OH213562   5.465   4.045   1.225
 4533TIP3    H113563   5.478   4.086   1.310
 4533TIP3    H213564   5.372   4.055   1.207
 4534TIP3   OH213565   1.441   3.761   1.648
 4534TIP3    H113566   1.347   3.748   1.661
 4534TIP3    H213567   1.448   3.800   1.561
 4535TIP3   OH213568   0.495   2.800   5.083
 4535TIP3    H113569   0.513   2.751   5.163
 4535TIP3    H213570   0.481   2.890   5.111
 4536TIP3   OH213571   3.516   4.280   2.725
 4536TIP3    H113572   3.608   4.269   2.750
 4536TIP3    H213573   3.513   4.368   2.686
 4537TIP3   OH213574   0.114   5.183   2.989
 4537TIP3    H113575   0.167   5.230   3.054
 4537TIP3    H213576   0.158   5.199   2.906
 4538TIP3   OH213577   3.831   5.594   2.709
 4538TIP3    H113578   3.918   5.598   2.670
 4538TIP3    H213579   3.832   5.516   2.764
 4539TIP3   OH213580   6.264   2.723   5.794
 4539TIP3    H113581   6.265   2.728   5.699
 4539TIP3    H213582   6.207   2.794   5.822
 4540TIP3   OH213583   3.655   4.123   0.122
 4540TIP3    H113584   3.594   4.166   0.062
 4540TIP3    H213585   3.658   4.032   0.091
 4541TIP3   OH213586   2.483   1.773   5.706
 4541TIP3    H113587   2.523   1.855   5.735
 4541TIP3    H213588   2.551   1.707   5.722
 4542TIP3   OH213589   6.743   5.318   1.545
 4542TIP3    H113590   6.736   5.369   1.465
 4542TIP3    H213591   6.652   5.307   1.574
 4543TIP3   OH213592   5.056   1.258   4.869
 4543TIP3    H113593   5.135   1.284   4.822
 4543TIP3    H213594   4.991   1.324   4.844
 4544TIP3   OH213595   5.172   3.615   4.354
 4544TIP3    H113596   5.157   3.531   4.399
 4544TIP3    H213597   5.222   3.667   4.416
 4545TIP3   OH213598   2.243   1.793   3.936
 4545TIP3    H113599   2.192   1.874   3.927
 4545TIP3    H213600   2.177   1.724   3.943
 4546TIP3   OH213601   6.639   2.263   4.922
 4546TIP3    H113602   6.635   2.183   4.869
 4546TIP3    H213603   6.630   2.334   4.858
 4547TIP3   OH213604   2.738   2.748   1.806
 4547TIP3    H113605   2.830   2.730   1.790
 4547TIP3    H213606   2.696   2.661   1.801
 4548TIP3   OH213607   3.828   3.028   5.778
 4548TIP3    H113608   3.924   3.031   5.780
 4548TIP3    H213609   3.802   3.046   5.868
 4549TIP3   OH213610   4.228   6.183   3.202
 4549TIP3    H113611   4.299   6.220   3.150
 4549TIP3    H213612   4.257   6.190   3.292
 4550TIP3   OH213613   7.171   1.516   0.320
 4550TIP3    H113614   7.118   1.578   0.270
 4550TIP3    H213615   7.146   1.431   0.286
 4551TIP3   OH213616   1.450   3.298   5.755
 4551TIP3    H113617   1.420   3.316   5.844
 4551TIP3    H213618   1.474   3.205   5.756
 4552TIP3   OH213619   2.308   6.048   5.815
 4552TIP3    H113620   2.399   6.045   5.784
 4552TIP3    H213621   2.267   6.116   5.762
 4553TIP3   OH213622   2.623   2.743   4.969
 4553TIP3    H113623   2.658   2.816   4.919
 4553TIP3    H213624   2.650   2.665   4.921
 4554TIP3   OH213625   4.504   3.798   1.694
 4554TIP3    H113626   4.561   3.755   1.758
 4554TIP3    H213627   4.537   3.770   1.609
 4555TIP3   OH213628   4.700   5.972   2.566
 4555TIP3    H113629   4.715   5.885   2.604
 4555TIP3    H213630   4.692   6.030   2.641
 4556TIP3   OH213631   4.219   0.656   2.427
 4556TIP3    H113632   4.269   0.683   2.504
 4556TIP3    H213633   4.254   0.569   2.405
 4557TIP3   OH213634   4.126   6.294   0.144
 4557TIP3    H113635   4.178   6.221   0.179
 4557TIP3    H213636   4.191   6.356   0.112
 4558TIP3   OH213637   5.430   0.122   0.028
 4558TIP3    H113638   5.460   0.171   0.105
 4558TIP3    H213639   5.439   0.030   0.054
 4559TIP3   OH213640   5.729   0.155   5.624
 4559TIP3    H113641   5.800   0.164   5.561
 4559TIP3    H213642   5.699   0.245   5.640
 4560TIP3   OH213643   5.887   6.246   5.616
 4560TIP3    H113644   5.838   6.238   5.698
 4560TIP3    H213645   5.924   6.334   5.619
 4561TIP3   OH213646   6.979   3.962   3.069
 4561TIP3    H113647   7.074   3.963   3.056
 4561TIP3    H213648   6.943   3.987   2.984
 4562TIP3   OH213649   5.907   2.650   5.132
 4562TIP3    H113650   5.957   2.575   5.163
 4562TIP3    H213651   5.871   2.623   5.048
 4563TIP3   OH213652   4.153   2.857   3.235
 4563TIP3    H113653   4.067   2.893   3.215
 4563TIP3    H213654   4.152   2.841   3.329
 4564TIP3   OH213655   1.139   5.123   0.902
 4564TIP3    H113656   1.083   5.187   0.858
 4564TIP3    H213657   1.174   5.068   0.832
 4565TIP3   OH213658   0.572   0.026   1.447
 4565TIP3    H113659   0.638  -0.021   1.396
 4565TIP3    H213660   0.493  -0.028   1.441
 4566TIP3   OH213661   3.126   5.595   1.503
 4566TIP3    H113662   3.047   5.542   1.513
 4566TIP3    H213663   3.116   5.665   1.567
 4567TIP3   OH213664   1.400   6.338   4.665
 4567TIP3    H113665   1.360   6.425   4.673
 4567TIP3    H213666   1.440   6.323   4.751
 4568TIP3   OH213667   0.819   2.356   1.996
 4568TIP3    H113668   0.825   2.430   1.936
 4568TIP3    H213669   0.728   2.325   1.988
 4569TIP3   OH213670   7.100   5.369   4.868
 4569TIP3    H113671   7.081   5.442   4.927
 4569TIP3    H213672   7.014   5.346   4.831
 4570TIP3   OH213673   6.634   2.267   5.383
 4570TIP3    H113674   6.629   2.177   5.350
 4570TIP3    H213675   6.591   2.320   5.316
 4571TIP3   OH213676   1.028   4.255   1.764
 4571TIP3    H113677   0.937   4.269   1.737
 4571TIP3    H213678   1.026   4.172   1.811
 4572TIP3   OH213679   1.455   3.286   5.395
 4572TIP3    H113680   1.541   3.305   5.434
 4572TIP3    H213681   1.394   3.339   5.446
 4573TIP3   OH213682   5.714   0.145   2.715
 4573TIP3    H113683   5.748   0.086   2.648
 4573TIP3    H213684   5.651   0.091   2.764
 4574TIP3   OH213685   5.054   6.306   4.302
 4574TIP3    H113686   4.962   6.278   4.302
 4574TIP3    H213687   5.090   6.271   4.384
 4575TIP3   OH213688   0.292   4.515   3.593
 4575TIP3    H113689   0.240   4.512   3.674
 4575TIP3    H213690   0.323   4.606   3.589
 4576TIP3   OH213691   0.412   4.808   2.149
 4576TIP3    H113692   0.374   4.896   2.155
 4576TIP3    H213693   0.503   4.823   2.123
 4577TIP3   OH213694   6.122   0.449   1.547
 4577TIP3    H113695   6.158   0.383   1.487
 4577TIP3    H213696   6.085   0.397   1.619
 4578TIP3   OH213697   6.793   3.412   4.976
 4578TIP3    H113698   6.797   3.372   5.063
 4578TIP3    H213699   6.806   3.506   4.993
 4579TIP3   OH213700   6.121   2.923   1.990
 4579TIP3    H113701   6.079   2.864   2.053
 4579TIP3    H213702   6.051   2.949   1.931
 4580TIP3   OH213703   5.142   4.485   1.583
 4580TIP3    H113704   5.146   4.427   1.659
 4580TIP3    H213705   5.121   4.571   1.619
 4581TIP3   OH213706   5.815   2.571   2.073
 4581TIP3    H113707   5.858   2.525   2.001
 4581TIP3    H213708   5.757   2.505   2.112
 4582TIP3   OH213709   4.887   6.778   1.538
 4582TIP3    H113710   4.852   6.760   1.625
 4582TIP3    H213711   4.811   6.774   1.480
 4583TIP3   OH213712   0.998   2.657   1.045
 4583TIP3    H113713   1.067   2.701   0.994
 4583TIP3    H213714   0.984   2.714   1.120
 4584TIP3   OH213715   0.392   5.650   1.092
 4584TIP3    H113716   0.428   5.723   1.142
 4584TIP3    H213717   0.302   5.677   1.072
 4585TIP3   OH213718   0.364   4.741   0.659
 4585TIP3    H113719   0.269   4.738   0.668
 4585TIP3    H213720   0.384   4.832   0.639
 4586TIP3   OH213721   5.950   0.698   5.352
 4586TIP3    H113722   5.863   0.729   5.376
 4586TIP3    H213723   5.975   0.753   5.277
 4587TIP3   OH213724   3.509   4.857   0.673
 4587TIP3    H113725   3.486   4.949   0.663
 4587TIP3    H213726   3.574   4.856   0.743
 4588TIP3   OH213727   2.628   4.818   2.082
 4588TIP3    H113728   2.593   4.777   2.003
 4588TIP3    H213729   2.718   4.841   2.059
 4589TIP3   OH213730   6.276   1.320   1.385
 4589TIP3    H113731   6.348   1.328   1.447
 4589TIP3    H213732   6.300   1.245   1.330
 4590TIP3   OH213733   3.426   1.091   2.594
 4590TIP3    H113734   3.500   1.147   2.615
 4590TIP3    H213735   3.364   1.149   2.550
 4591TIP3   OH213736   2.188   1.064   1.713
 4591TIP3    H113737   2.163   1.134   1.653
 4591TIP3    H213738   2.181   1.103   1.800
 4592TIP3   OH213739   5.708   2.377   2.768
 4592TIP3    H113740   5.801   2.374   2.745
 4592TIP3    H213741   5.668   2.431   2.700
 4593TIP3   OH213742   4.271   6.297   3.494
 4593TIP3    H113743   4.186   6.333   3.470
 4593TIP3    H213744   4.252   6.205   3.516
 4594TIP3   OH213745   1.672   5.099   2.843
 4594TIP3    H113746   1.657   5.050   2.924
 4594TIP3    H213747   1.741   5.049   2.798
 4595TIP3   OH213748   0.744   0.490   4.112
 4595TIP3    H113749   0.702   0.533   4.037
 4595TIP3    H213750   0.777   0.408   4.076
 4596TIP3   OH213751   5.102   2.260   5.723
 4596TIP3    H113752   5.109   2.238   5.630
 4596TIP3    H213753   5.133   2.181   5.768
 4597TIP3   OH213754   3.240   3.737   0.414
 4597TIP3    H113755   3.234   3.683   0.493
 4597TIP3    H213756   3.312   3.798   0.432
 4598TIP3   OH213757   2.079   4.793   0.584
 4598TIP3    H113758   2.051   4.882   0.564
 4598TIP3    H213759   2.003   4.753   0.628
 4599TIP3   OH213760   3.680   6.525   0.566
 4599TIP3    H113761   3.745   6.594   0.581
 4599TIP3    H213762   3.692   6.499   0.475
 4600TIP3   OH213763   2.971   6.460   4.431
 4600TIP3    H113764   2.959   6.374   4.391
 4600TIP3    H213765   2.887   6.505   4.418
 4601TIP3   OH213766   1.186   0.679   3.077
 4601TIP3    H113767   1.245   0.753   3.081
 4601TIP3    H213768   1.137   0.681   3.159
 4602TIP3   OH213769   2.623   4.564   1.174
 4602TIP3    H113770   2.545   4.600   1.218
 4602TIP3    H213771   2.655   4.497   1.234
 4603TIP3   OH213772   0.032   2.977   5.266
 4603TIP3    H113773   0.101   2.940   5.321
 4603TIP3    H213774  -0.023   2.901   5.243
 4604TIP3   OH213775   1.564   4.656   2.388
 4604TIP3    H113776   1.497   4.616   2.333
 4604TIP3    H213777   1.631   4.685   2.327
 4605TIP3   OH213778   5.458   4.101   0.265
 4605TIP3    H113779   5.399   4.173   0.288
 4605TIP3    H213780   5.545   4.132   0.290
 4606TIP3   OH213781   0.961   2.804   3.882
 4606TIP3    H113782   1.004   2.735   3.832
 4606TIP3    H213783   0.915   2.856   3.816
 4607TIP3   OH213784   3.608   5.430   3.839
 4607TIP3    H113785   3.609   5.511   3.789
 4607TIP3    H213786   3.598   5.457   3.930
 4608TIP3   OH213787   2.862   3.314   2.442
 4608TIP3    H113788   2.826   3.243   2.495
 4608TIP3    H213789   2.899   3.270   2.365
 4609TIP3   OH213790   6.805   4.659   3.758
 4609TIP3    H113791   6.881   4.606   3.783
 4609TIP3    H213792   6.798   4.647   3.664
 4610TIP3   OH213793   3.926   5.163   5.633
 4610TIP3    H113794   3.862   5.228   5.604
 4610TIP3    H213795   3.919   5.165   5.729
 4611TIP3   OH213796   3.224   5.022   3.149
 4611TIP3    H113797   3.240   4.961   3.222
 4611TIP3    H213798   3.306   5.071   3.142
 4612TIP3   OH213799   5.443   6.039   3.934
 4612TIP3    H113800   5.426   6.075   4.022
 4612TIP3    H213801   5.479   6.113   3.886
 4613TIP3   OH213802   1.040   1.899   4.405
 4613TIP3    H113803   1.057   1.989   4.435
 4613TIP3    H213804   1.011   1.911   4.314
 4614TIP3   OH213805   0.635   5.518   2.291
 4614TIP3    H113806   0.568   5.453   2.269
 4614TIP3    H213807   0.671   5.545   2.206
 4615TIP3   OH213808   0.850   4.426   3.637
 4615TIP3    H113809   0.935   4.391   3.663
 4615TIP3    H213810   0.794   4.349   3.626
 4616TIP3   OH213811   6.417   2.510   2.324
 4616TIP3    H113812   6.433   2.599   2.358
 4616TIP3    H213813   6.366   2.526   2.244
 4617TIP3   OH213814   7.196   4.706   2.835
 4617TIP3    H113815   7.227   4.623   2.873
 4617TIP3    H213816   7.260   4.771   2.863
 4618TIP3   OH213817   6.993   5.403   0.597
 4618TIP3    H113818   7.064   5.467   0.600
 4618TIP3    H213819   6.980   5.385   0.504
 4619TIP3   OH213820   1.768   1.659   1.466
 4619TIP3    H113821   1.834   1.589   1.463
 4619TIP3    H213822   1.685   1.612   1.472
 4620TIP3   OH213823   4.616   2.565   0.271
 4620TIP3    H113824   4.631   2.587   0.363
 4620TIP3    H213825   4.703   2.565   0.232
 4621TIP3   OH213826   2.847   3.122   2.696
 4621TIP3    H113827   2.830   3.069   2.618
 4621TIP3    H213828   2.918   3.076   2.740
 4622TIP3   OH213829   3.096   6.701   1.764
 4622TIP3    H113830   3.032   6.698   1.835
 4622TIP3    H213831   3.042   6.708   1.684
 4623TIP3   OH213832   2.539   2.740   2.896
 4623TIP3    H113833   2.624   2.696   2.900
 4623TIP3    H213834   2.475   2.670   2.902
 4624TIP3   OH213835   2.684   1.537   4.022
 4624TIP3    H113836   2.614   1.575   4.076
 4624TIP3    H213837   2.662   1.444   4.015
 4625TIP3   OH213838   2.051   6.203   2.852
 4625TIP3    H113839   2.011   6.168   2.773
 4625TIP3    H213840   1.998   6.279   2.875
 4626TIP3   OH213841   2.291   0.390   3.040
 4626TIP3    H113842   2.280   0.470   2.991
 4626TIP3    H213843   2.324   0.416   3.125
 4627TIP3   OH213844   6.624   6.416   3.317
 4627TIP3    H113845   6.644   6.334   3.273
 4627TIP3    H213846   6.675   6.414   3.398
 4628TIP3   OH213847   0.834   6.571   0.950
 4628TIP3    H113848   0.849   6.489   0.903
 4628TIP3    H213849   0.818   6.544   1.040
 4629TIP3   OH213850   5.571   4.117   2.904
 4629TIP3    H113851   5.663   4.110   2.881
 4629TIP3    H213852   5.544   4.203   2.873
 4630TIP3   OH213853   6.262   3.726   0.184
 4630TIP3    H113854   6.254   3.807   0.134
 4630TIP3    H213855   6.183   3.724   0.238
 4631TIP3   OH213856   7.031   0.789   3.123
 4631TIP3    H113857   7.058   0.722   3.061
 4631TIP3    H213858   7.013   0.866   3.069
 4632TIP3   OH213859   2.075   3.419   1.775
 4632TIP3    H113860   2.050   3.344   1.721
 4632TIP3    H213861   2.135   3.383   1.840
 4633TIP3   OH213862   1.106   6.474   3.675
 4633TIP3    H113863   1.052   6.550   3.656
 4633TIP3    H213864   1.046   6.400   3.672
 4634TIP3   OH213865   5.261   5.693   0.229
 4634TIP3    H113866   5.282   5.779   0.266
 4634TIP3    H213867   5.276   5.703   0.135
 4635TIP3   OH213868   3.910   2.014   3.888
 4635TIP3    H113869   3.991   2.062   3.872
 4635TIP3    H213870   3.937   1.942   3.945
 4636TIP3   OH213871   4.143   5.290   5.741
 4636TIP3    H113872   4.129   5.376   5.700
 4636TIP3    H213873   4.105   5.228   5.678
 4637TIP3   OH213874   2.845   6.489   5.054
 4637TIP3    H113875   2.821   6.406   5.013
 4637TIP3    H213876   2.861   6.548   4.980
 4638TIP3   OH213877   7.089   0.150   1.745
 4638TIP3    H113878   7.155   0.085   1.771
 4638TIP3    H213879   7.140   0.218   1.701
 4639TIP3   OH213880   6.485   3.835   5.429
 4639TIP3    H113881   6.495   3.910   5.371
 4639TIP3    H213882   6.407   3.789   5.397
 4640TIP3   OH213883   2.043   5.553   5.695
 4640TIP3    H113884   2.121   5.504   5.669
 4640TIP3    H213885   1.973   5.487   5.695
 4641TIP3   OH213886   3.636   3.835   3.188
 4641TIP3    H113887   3.613   3.769   3.122
 4641TIP3    H213888   3.593   3.915   3.158
 4642TIP3   OH213889   4.368   2.607   2.483
 4642TIP3    H113890   4.280   2.569   2.480
 4642TIP3    H213891   4.426   2.531   2.478
 4643TIP3   OH213892   5.475   6.251   4.409
 4643TIP3    H113893   5.558   6.263   4.455
 4643TIP3    H213894   5.447   6.340   4.387
 4644TIP3   OH213895   3.485   1.823   1.998
 4644TIP3    H113896   3.566   1.780   1.968
 4644TIP3    H213897   3.472   1.790   2.087
 4645TIP3   OH213898   3.317   4.852   0.957
 4645TIP3    H113899   3.400   4.823   0.918
 4645TIP3    H213900   3.284   4.917   0.896
 4646TIP3   OH213901   1.903   5.703   0.066
 4646TIP3    H113902   1.814   5.668   0.063
 4646TIP3    H213903   1.900   5.771   0.134
 4647TIP3   OH213904   0.818   0.388   2.372
 4647TIP3    H113905   0.813   0.296   2.347
 4647TIP3    H213906   0.884   0.424   2.314
 4648TIP3   OH213907   6.654   1.261   1.950
 4648TIP3    H113908   6.603   1.186   1.920
 4648TIP3    H213909   6.593   1.309   2.006
 4649TIP3   OH213910   2.436   0.953   2.527
 4649TIP3    H113911   2.509   0.931   2.586
 4649TIP3    H213912   2.437   0.882   2.462
 4650TIP3   OH213913   3.305   4.698   4.702
 4650TIP3    H113914   3.234   4.660   4.753
 4650TIP3    H213915   3.270   4.782   4.671
 4651TIP3   OH213916   4.955   3.161   2.632
 4651TIP3    H113917   4.928   3.143   2.722
 4651TIP3    H213918   4.895   3.230   2.603
 4652TIP3   OH213919   4.029   6.514   4.967
 4652TIP3    H113920   3.982   6.570   5.029
 4652TIP3    H213921   4.116   6.554   4.959
 4653TIP3   OH213922   0.716   4.854   1.765
 4653TIP3    H113923   0.726   4.765   1.730
 4653TIP3    H213924   0.621   4.867   1.770
 4654TIP3   OH213925   0.767   5.417   0.616
 4654TIP3    H113926   0.685   5.465   0.606
 4654TIP3    H213927   0.763   5.382   0.705
 4655TIP3   OH213928   5.341   3.102   2.430
 4655TIP3    H113929   5.350   3.153   2.510
 4655TIP3    H213930   5.275   3.035   2.451
 4656TIP3   OH213931   6.428   5.613   0.899
 4656TIP3    H113932   6.409   5.536   0.846
 4656TIP3    H213933   6.415   5.687   0.840
 4657TIP3   OH213934   3.951   2.415   4.000
 4657TIP3    H113935   3.879   2.398   3.940
 4657TIP3    H213936   3.938   2.505   4.029
 4658TIP3   OH213937   6.824   2.951   4.827
 4658TIP3    H113938   6.816   2.982   4.917
 4658TIP3    H213939   6.756   2.998   4.779
 4659TIP3   OH213940   3.813   4.348   3.367
 4659TIP3    H113941   3.857   4.314   3.289
 4659TIP3    H213942   3.878   4.338   3.437
 4660TIP3   OH213943   5.250   4.244   2.754
 4660TIP3    H113944   5.251   4.239   2.659
 4660TIP3    H213945   5.331   4.289   2.777
 4661TIP3   OH213946   5.781   0.998   2.480
 4661TIP3    H113947   5.754   1.081   2.441
 4661TIP3    H213948   5.746   0.931   2.421
 4662TIP3   OH213949   3.620   0.589   0.608
 4662TIP3    H113950   3.619   0.520   0.674
 4662TIP3    H213951   3.613   0.670   0.658
 4663TIP3   OH213952   6.543   0.442   1.189
 4663TIP3    H113953   6.521   0.365   1.135
 4663TIP3    H213954   6.514   0.417   1.277
 4664TIP3   OH213955   4.387   4.360   2.210
 4664TIP3    H113956   4.342   4.276   2.195
 4664TIP3    H213957   4.474   4.335   2.241
 4665TIP3   OH213958   6.940   4.679   4.109
 4665TIP3    H113959   6.920   4.684   4.203
 4665TIP3    H213960   6.922   4.588   4.085
 4666TIP3   OH213961   6.120   0.480   2.734
 4666TIP3    H113962   6.082   0.391   2.742
 4666TIP3    H213963   6.044   0.536   2.722
 4667TIP3   OH213964   3.684   4.068   5.478
 4667TIP3    H113965   3.644   4.005   5.418
 4667TIP3    H213966   3.777   4.046   5.478
 4668TIP3   OH213967   1.809   5.595   1.754
 4668TIP3    H113968   1.811   5.674   1.700
 4668TIP3    H213969   1.894   5.593   1.797
 4669TIP3   OH213970   5.511   1.085   1.717
 4669TIP3    H113971   5.528   1.084   1.622
 4669TIP3    H213972   5.586   1.039   1.756
 4670TIP3   OH213973   4.146   1.183   0.178
 4670TIP3    H113974   4.203   1.197   0.254
 4670TIP3    H213975   4.097   1.266   0.170
 4671TIP3   OH213976   4.076   1.376   5.700
 4671TIP3    H113977   4.012   1.304   5.703
 4671TIP3    H213978   4.023   1.454   5.683
 4672TIP3   OH213979   6.504   1.709   3.689
 4672TIP3    H113980   6.510   1.631   3.745
 4672TIP3    H213981   6.424   1.697   3.639
 4673TIP3   OH213982   2.743   1.747   1.805
 4673TIP3    H113983   2.742   1.653   1.788
 4673TIP3    H213984   2.792   1.756   1.886
 4674TIP3   OH213985   7.169   1.174   0.546
 4674TIP3    H113986   7.262   1.152   0.538
 4674TIP3    H213987   7.149   1.223   0.467
 4675TIP3   OH213988   1.013   2.597   1.930
 4675TIP3    H113989   1.101   2.628   1.947
 4675TIP3    H213990   0.973   2.587   2.017
 4676TIP3   OH213991   0.991   6.227   1.878
 4676TIP3    H113992   1.058   6.260   1.818
 4676TIP3    H213993   0.916   6.284   1.864
 4677TIP3   OH213994   5.514   1.850   1.048
 4677TIP3    H113995   5.459   1.928   1.040
 4677TIP3    H213996   5.492   1.813   1.133
 4678TIP3   OH213997   6.631   4.272   4.077
 4678TIP3    H113998   6.659   4.203   4.137
 4678TIP3    H213999   6.597   4.226   4.001
 4679TIP3   OH214000   1.563   1.229   0.841
 4679TIP3    H114001   1.498   1.160   0.853
 4679TIP3    H214002   1.620   1.195   0.771
 4680TIP3   OH214003   5.814   6.728   1.258
 4680TIP3    H114004   5.869   6.652   1.277
 4680TIP3    H214005   5.822   6.741   1.164
 4681TIP3   OH214006   1.935   6.150   0.443
 4681TIP3    H114007   1.902   6.235   0.417
 4681TIP3    H214008   1.945   6.155   0.538
 4682TIP3   OH214009   0.468   2.047   2.497
 4682TIP3    H114010   0.448   2.036   2.404
 4682TIP3    H214011   0.530   1.976   2.516
 4683TIP3   OH214012   4.142   5.027   4.707
 4683TIP3    H114013   4.098   5.078   4.774
 4683TIP3    H214014   4.137   4.937   4.738
 4684TIP3   OH214015   5.703   5.612   1.488
 4684TIP3    H114016   5.613   5.582   1.471
 4684TIP3    H214017   5.742   5.621   1.402
 4685TIP3   OH214018   1.864   5.724   4.251
 4685TIP3    H114019   1.784   5.733   4.200
 4685TIP3    H214020   1.927   5.783   4.207
 4686TIP3   OH214021   1.138   5.839   3.286
 4686TIP3    H114022   1.200   5.911   3.297
 4686TIP3    H214023   1.157   5.780   3.359
 4687TIP3   OH214024   7.061   6.245   2.076
 4687TIP3    H114025   7.123   6.236   2.004
 4687TIP3    H214026   7.095   6.186   2.144
 4688TIP3   OH214027   3.670   3.572   5.328
 4688TIP3    H114028   3.593   3.581   5.271
 4688TIP3    H214029   3.689   3.478   5.326
 4689TIP3   OH214030   2.356   4.255   0.954
 4689TIP3    H114031   2.316   4.211   0.879
 4689TIP3    H214032   2.313   4.341   0.957
 4690TIP3   OH214033   3.737   3.623   1.001
 4690TIP3    H114034   3.744   3.627   1.097
 4690TIP3    H214035   3.808   3.564   0.975
 4691TIP3   OH214036   2.350   4.041   3.001
 4691TIP3    H114037   2.409   4.090   3.058
 4691TIP3    H214038   2.335   4.100   2.927
 4692TIP3   OH214039   1.142   2.264   5.801
 4692TIP3    H114040   1.108   2.207   5.732
 4692TIP3    H214041   1.232   2.234   5.813
 4693TIP3   OH214042   0.468   6.451   2.405
 4693TIP3    H114043   0.520   6.375   2.434
 4693TIP3    H214044   0.455   6.437   2.312
 4694TIP3   OH214045   0.263   4.150   5.422
 4694TIP3    H114046   0.315   4.086   5.471
 4694TIP3    H214047   0.312   4.163   5.340
 4695TIP3   OH214048   2.053   3.688   3.434
 4695TIP3    H114049   2.023   3.654   3.518
 4695TIP3    H214050   2.147   3.669   3.432
 4696TIP3   OH214051   5.398   1.799   0.779
 4696TIP3    H114052   5.363   1.819   0.866
 4696TIP3    H214053   5.325   1.816   0.719
 4697TIP3   OH214054   3.342   5.341   5.113
 4697TIP3    H114055   3.433   5.370   5.105
 4697TIP3    H214056   3.290   5.417   5.089
 4698TIP3   OH214057   0.367   2.586   0.177
 4698TIP3    H114058   0.445   2.617   0.131
 4698TIP3    H214059   0.303   2.572   0.107
 4699TIP3   OH214060   1.771   0.373   1.993
 4699TIP3    H114061   1.808   0.444   1.941
 4699TIP3    H214062   1.770   0.298   1.933
 4700TIP3   OH214063   4.902   1.896   1.335
 4700TIP3    H114064   4.813   1.881   1.365
 4700TIP3    H214065   4.957   1.871   1.409
 4701TIP3   OH214066   2.753   5.505   1.663
 4701TIP3    H114067   2.822   5.449   1.627
 4701TIP3    H214068   2.783   5.594   1.647
 4702TIP3   OH214069   3.538   1.398   1.369
 4702TIP3    H114070   3.525   1.348   1.450
 4702TIP3    H214071   3.529   1.333   1.299
 4703TIP3   OH214072   6.024   1.255   2.022
 4703TIP3    H114073   5.978   1.309   2.086
 4703TIP3    H214074   5.969   1.260   1.943
 4704TIP3   OH214075   1.243   2.852   1.191
 4704TIP3    H114076   1.294   2.803   1.255
 4704TIP3    H214077   1.154   2.851   1.225
 4705TIP3   OH214078   5.955   0.239   2.814
 4705TIP3    H114079   5.938   0.242   2.908
 4705TIP3    H214080   5.868   0.234   2.774
 4706TIP3   OH214081   3.947   4.260   4.028
 4706TIP3    H114082   3.876   4.323   4.025
 4706TIP3    H214083   3.916   4.191   4.086
 4707TIP3   OH214084   5.713   1.064   2.023
 4707TIP3    H114085   5.729   0.991   1.963
 4707TIP3    H214086   5.735   1.141   1.972
 4708TIP3   OH214087   4.518   2.878   0.923
 4708TIP3    H114088   4.601   2.919   0.895
 4708TIP3    H214089   4.452   2.946   0.907
 4709TIP3   OH214090   4.860   6.237   2.114
 4709TIP3    H114091   4.793   6.254   2.180
 4709TIP3    H214092   4.858   6.143   2.100
 4710TIP3   OH214093   0.253   3.173   1.759
 4710TIP3    H114094   0.306   3.136   1.830
 4710TIP3    H214095   0.314   3.230   1.711
 4711TIP3   OH214096   4.781   2.875   1.331
 4711TIP3    H114097   4.876   2.876   1.341
 4711TIP3    H214098   4.749   2.933   1.399
 4712TIP3   OH214099   1.751   5.031   4.528
 4712TIP3    H114100   1.752   4.982   4.446
 4712TIP3    H214101   1.825   5.091   4.521
 4713TIP3   OH214102   0.590   0.204   4.815
 4713TIP3    H114103   0.514   0.148   4.829
 4713TIP3    H214104   0.630   0.171   4.734
 4714TIP3   OH214105   1.432   4.801   4.532
 4714TIP3    H114106   1.410   4.874   4.473
 4714TIP3    H214107   1.375   4.814   4.608
 4715TIP3   OH214108   7.058   3.864   0.947
 4715TIP3    H114109   7.092   3.904   1.027
 4715TIP3    H214110   7.035   3.775   0.973
 4716TIP3   OH214111   4.302   5.878   3.791
 4716TIP3    H114112   4.328   5.832   3.871
 4716TIP3    H214113   4.375   5.936   3.772
 4717TIP3   OH214114   5.371   6.424   1.740
 4717TIP3    H114115   5.421   6.447   1.818
 4717TIP3    H214116   5.433   6.436   1.668
 4718TIP3   OH214117   4.911   4.795   5.734
 4718TIP3    H114118   4.933   4.710   5.773
 4718TIP3    H214119   4.990   4.823   5.690
 4719TIP3   OH214120   6.484   3.131   0.543
 4719TIP3    H114121   6.433   3.061   0.583
 4719TIP3    H214122   6.422   3.174   0.483
 4720TIP3   OH214123   6.816   4.570   0.975
 4720TIP3    H114124   6.784   4.600   1.060
 4720TIP3    H214125   6.858   4.646   0.937
 4721TIP3   OH214126   0.445   4.455   4.806
 4721TIP3    H114127   0.374   4.479   4.865
 4721TIP3    H214128   0.403   4.445   4.720
 4722TIP3   OH214129   5.391   5.622   5.594
 4722TIP3    H114130   5.469   5.580   5.557
 4722TIP3    H214131   5.318   5.573   5.555
 4723TIP3   OH214132   4.278   0.546   1.900
 4723TIP3    H114133   4.287   0.578   1.990
 4723TIP3    H214134   4.246   0.457   1.910
 4724TIP3   OH214135   2.747   2.354   3.394
 4724TIP3    H114136   2.668   2.359   3.340
 4724TIP3    H214137   2.714   2.338   3.482
 4725TIP3   OH214138   6.056   3.898   3.226
 4725TIP3    H114139   5.981   3.843   3.201
 4725TIP3    H214140   6.028   3.941   3.306
 4726TIP3   OH214141   7.129   2.794   2.988
 4726TIP3    H114142   7.079   2.759   3.062
 4726TIP3    H214143   7.068   2.795   2.915
 4727TIP3   OH214144   1.223   4.049   1.277
 4727TIP3    H114145   1.151   4.032   1.217
 4727TIP3    H214146   1.302   4.037   1.225
 4728TIP3   OH214147   2.512   6.057   0.755
 4728TIP3    H114148   2.424   6.069   0.720
 4728TIP3    H214149   2.570   6.082   0.683
 4729TIP3   OH214150   3.973   0.187   1.678
 4729TIP3    H114151   3.943   0.120   1.617
 4729TIP3    H214152   4.068   0.177   1.680
 4730TIP3   OH214153   5.495   1.050   4.664
 4730TIP3    H114154   5.555   1.009   4.602
 4730TIP3    H214155   5.521   1.015   4.749
 4731TIP3   OH214156   6.830   0.027   4.371
 4731TIP3    H114157   6.765  -0.034   4.406
 4731TIP3    H214158   6.901  -0.029   4.339
 4732TIP3   OH214159   5.782   0.464   3.606
 4732TIP3    H114160   5.732   0.444   3.527
 4732TIP3    H214161   5.861   0.411   3.598
 4733TIP3   OH214162   4.426   1.055   1.942
 4733TIP3    H114163   4.338   1.089   1.929
 4733TIP3    H214164   4.418   0.961   1.930
 4734TIP3   OH214165   3.960   0.309   3.735
 4734TIP3    H114166   3.924   0.258   3.662
 4734TIP3    H214167   4.054   0.309   3.720
 4735TIP3   OH214168   1.393   6.155   1.526
 4735TIP3    H114169   1.477   6.136   1.567
 4735TIP3    H214170   1.359   6.069   1.499
 4736TIP3   OH214171   6.678   0.877   2.899
 4736TIP3    H114172   6.670   0.970   2.883
 4736TIP3    H214173   6.592   0.850   2.930
 4737TIP3   OH214174   6.198   5.113   3.117
 4737TIP3    H114175   6.133   5.161   3.065
 4737TIP3    H214176   6.165   5.118   3.206
 4738TIP3   OH214177   1.516   0.007   3.242
 4738TIP3    H114178   1.565  -0.062   3.197
 4738TIP3    H214179   1.522  -0.016   3.334
 4739TIP3   OH214180   3.049   1.576   5.487
 4739TIP3    H114181   3.011   1.518   5.421
 4739TIP3    H214182   3.065   1.520   5.563
 4740TIP3   OH214183   2.152   2.134   2.136
 4740TIP3    H114184   2.094   2.178   2.197
 4740TIP3    H214185   2.096   2.071   2.091
 4741TIP3   OH214186   6.901   1.980   1.460
 4741TIP3    H114187   6.875   1.980   1.368
 4741TIP3    H214188   6.819   1.978   1.508
 4742TIP3   OH214189   4.051   5.447   3.376
 4742TIP3    H114190   4.108   5.428   3.301
 4742TIP3    H214191   4.112   5.462   3.449
 4743TIP3   OH214192   4.866   3.257   1.862
 4743TIP3    H114193   4.835   3.344   1.888
 4743TIP3    H214194   4.801   3.197   1.898
 4744TIP3   OH214195   3.495   0.832   3.938
 4744TIP3    H114196   3.406   0.799   3.925
 4744TIP3    H214197   3.551   0.758   3.919
 4745TIP3   OH214198   2.261   4.520   3.051
 4745TIP3    H114199   2.211   4.602   3.054
 4745TIP3    H214200   2.278   4.506   2.958
 4746TIP3   OH214201   6.638   3.721   0.999
 4746TIP3    H114202   6.703   3.651   0.988
 4746TIP3    H214203   6.554   3.678   0.980
 4747TIP3   OH214204   5.205   0.197   0.857
 4747TIP3    H114205   5.199   0.118   0.804
 4747TIP3    H214206   5.165   0.174   0.941
 4748TIP3   OH214207   4.884   5.257   4.546
 4748TIP3    H114208   4.950   5.283   4.482
 4748TIP3    H214209   4.917   5.289   4.630
 4749TIP3   OH214210   4.478   1.690   5.841
 4749TIP3    H114211   4.557   1.669   5.790
 4749TIP3    H214212   4.406   1.675   5.781
 4750TIP3   OH214213   4.406   4.966   0.814
 4750TIP3    H114214   4.384   5.058   0.799
 4750TIP3    H214215   4.492   4.968   0.857
 4751TIP3   OH214216   1.995   5.048   0.609
 4751TIP3    H114217   1.921   5.109   0.617
 4751TIP3    H214218   2.067   5.092   0.652
 4752TIP3   OH214219   2.308   3.403   2.617
 4752TIP3    H114220   2.241   3.433   2.556
 4752TIP3    H214221   2.325   3.479   2.674
 4753TIP3   OH214222   5.965   4.780   0.398
 4753TIP3    H114223   5.958   4.874   0.416
 4753TIP3    H214224   5.904   4.739   0.460
 4754TIP3   OH214225   5.316   6.766   4.983
 4754TIP3    H114226   5.341   6.797   5.070
 4754TIP3    H214227   5.228   6.800   4.970
 4755TIP3   OH214228   4.497   3.866   4.008
 4755TIP3    H114229   4.535   3.831   4.089
 4755TIP3    H214230   4.562   3.845   3.940
 4756TIP3   OH214231   0.489   3.405   0.719
 4756TIP3    H114232   0.424   3.348   0.760
 4756TIP3    H214233   0.553   3.345   0.681
 4757TIP3   OH214234   2.067   0.456   3.694
 4757TIP3    H114235   2.087   0.398   3.768
 4757TIP3    H214236   1.973   0.473   3.702
 4758TIP3   OH214237   6.302   2.818   4.871
 4758TIP3    H114238   6.363   2.745   4.859
 4758TIP3    H214239   6.217   2.783   4.843
 4759TIP3   OH214240   6.282   6.017   3.285
 4759TIP3    H114241   6.258   5.983   3.199
 4759TIP3    H214242   6.300   6.110   3.271
 4760TIP3   OH214243   5.674   5.879   0.150
 4760TIP3    H114244   5.629   5.797   0.173
 4760TIP3    H214245   5.730   5.855   0.077
 4761TIP3   OH214246   0.517   1.288   4.979
 4761TIP3    H114247   0.560   1.208   5.008
 4761TIP3    H214248   0.548   1.301   4.890
 4762TIP3   OH214249   0.418   6.280   0.711
 4762TIP3    H114250   0.341   6.337   0.716
 4762TIP3    H214251   0.408   6.220   0.785
 4763TIP3   OH214252   6.989   5.348   3.246
 4763TIP3    H114253   6.988   5.308   3.333
 4763TIP3    H214254   7.081   5.349   3.221
 4764TIP3   OH214255   1.764   4.681   5.507
 4764TIP3    H114256   1.682   4.725   5.483
 4764TIP3    H214257   1.748   4.647   5.595
 4765TIP3   OH214258   0.886   0.153   1.359
 4765TIP3    H114259   0.936   0.073   1.346
 4765TIP3    H214260   0.815   0.148   1.295
 4766TIP3   OH214261   4.631   2.848   1.900
 4766TIP3    H114262   4.577   2.816   1.828
 4766TIP3    H214263   4.705   2.786   1.903
 4767TIP3   OH214264   0.603   1.668   1.070
 4767TIP3    H114265   0.523   1.642   1.115
 4767TIP3    H214266   0.618   1.758   1.098
 4768TIP3   OH214267   0.639   0.008   4.364
 4768TIP3    H114268   0.636  -0.049   4.288
 4768TIP3    H214269   0.605   0.092   4.332
 4769TIP3   OH214270   1.543   6.333   5.431
 4769TIP3    H114271   1.554   6.247   5.472
 4769TIP3    H214272   1.604   6.390   5.477
 4770TIP3   OH214273   1.823   4.318   4.624
 4770TIP3    H114274   1.884   4.377   4.668
 4770TIP3    H214275   1.824   4.347   4.532
 4771TIP3   OH214276   2.906   1.275   5.584
 4771TIP3    H114277   2.814   1.300   5.576
 4771TIP3    H214278   2.944   1.294   5.498
 4772TIP3   OH214279   2.857   5.860   3.838
 4772TIP3    H114280   2.781   5.839   3.892
 4772TIP3    H214281   2.846   5.952   3.814
 4773TIP3   OH214282   0.111   3.898   0.057
 4773TIP3    H114283   0.153   3.909  -0.028
 4773TIP3    H214284   0.183   3.878   0.117
 4774TIP3   OH214285   2.212   2.112   1.525
 4774TIP3    H114286   2.194   2.161   1.605
 4774TIP3    H214287   2.286   2.159   1.485
 4775TIP3   OH214288   0.146   6.691   5.255
 4775TIP3    H114289   0.057   6.712   5.283
 4775TIP3    H214290   0.142   6.696   5.159
 4776TIP3   OH214291   1.381   6.553   4.994
 4776TIP3    H114292   1.474   6.546   5.018
 4776TIP3    H214293   1.365   6.647   4.989
 4777TIP3   OH214294   1.813   5.922   5.168
 4777TIP3    H114295   1.804   5.977   5.090
 4777TIP3    H214296   1.890   5.867   5.150
 4778TIP3   OH214297   5.849   2.266   4.144
 4778TIP3    H114298   5.911   2.326   4.103
 4778TIP3    H214299   5.776   2.262   4.082
 4779TIP3   OH214300   1.726   0.317   3.484
 4779TIP3    H114301   1.698   0.400   3.523
 4779TIP3    H214302   1.805   0.340   3.436
 4780TIP3   OH214303   1.899   6.686   3.524
 4780TIP3    H114304   1.906   6.771   3.479
 4780TIP3    H214305   1.815   6.692   3.571
 4781TIP3   OH214306   1.216   6.049   0.566
 4781TIP3    H114307   1.138   6.035   0.512
 4781TIP3    H214308   1.278   6.092   0.506
 4782TIP3   OH214309   2.153   1.864   3.603
 4782TIP3    H114310   2.106   1.819   3.673
 4782TIP3    H214311   2.207   1.796   3.563
 4783TIP3   OH214312   0.825   4.167   1.208
 4783TIP3    H114313   0.733   4.152   1.226
 4783TIP3    H214314   0.859   4.204   1.289
 4784TIP3   OH214315   0.561   2.816   2.512
 4784TIP3    H114316   0.466   2.819   2.511
 4784TIP3    H214317   0.580   2.722   2.518
 4785TIP3   OH214318   5.950   0.056   4.560
 4785TIP3    H114319   5.917   0.124   4.618
 4785TIP3    H214320   6.006   0.102   4.498
 4786TIP3   OH214321   0.004   2.159   4.113
 4786TIP3    H114322   0.074   2.224   4.106
 4786TIP3    H214323  -0.073   2.209   4.141
 4787TIP3   OH214324   0.298   2.856   2.488
 4787TIP3    H114325   0.279   2.888   2.400
 4787TIP3    H214326   0.212   2.844   2.528
 4788TIP3   OH214327   5.773   1.125   0.642
 4788TIP3    H114328   5.747   1.043   0.599
 4788TIP3    H214329   5.751   1.193   0.578
 4789TIP3   OH214330   5.693   5.432   4.049
 4789TIP3    H114331   5.696   5.360   3.987
 4789TIP3    H214332   5.680   5.391   4.134
 4790TIP3   OH214333   5.301   2.195   1.893
 4790TIP3    H114334   5.285   2.108   1.931
 4790TIP3    H214335   5.213   2.231   1.879
 4791TIP3   OH214336   2.517   2.444   4.051
 4791TIP3    H114337   2.450   2.438   4.119
 4791TIP3    H214338   2.515   2.536   4.025
 4792TIP3   OH214339   0.419   6.438   2.132
 4792TIP3    H114340   0.435   6.362   2.077
 4792TIP3    H214341   0.324   6.452   2.127
 4793TIP3   OH214342   6.886   3.722   0.754
 4793TIP3    H114343   6.973   3.735   0.718
 4793TIP3    H214344   6.898   3.663   0.828
 4794TIP3   OH214345   1.431   4.509   2.207
 4794TIP3    H114346   1.393   4.522   2.121
 4794TIP3    H214347   1.436   4.413   2.217
 4795TIP3   OH214348   6.889   5.356   5.157
 4795TIP3    H114349   6.954   5.362   5.228
 4795TIP3    H214350   6.856   5.445   5.147
 4796TIP3   OH214351   7.113   1.969   0.273
 4796TIP3    H114352   7.181   1.934   0.330
 4796TIP3    H214353   7.148   2.052   0.241
 4797TIP3   OH214354   6.637   4.013   1.111
 4797TIP3    H114355   6.635   3.944   1.044
 4797TIP3    H214356   6.582   4.083   1.076
 4798TIP3   OH214357   6.751   6.349   2.386
 4798TIP3    H114358   6.736   6.402   2.464
 4798TIP3    H214359   6.696   6.389   2.319
 4799TIP3   OH214360   1.268   1.576   3.189
 4799TIP3    H114361   1.231   1.573   3.278
 4799TIP3    H214362   1.355   1.615   3.201
 4800TIP3   OH214363   3.265   1.396   0.870
 4800TIP3    H114364   3.358   1.382   0.852
 4800TIP3    H214365   3.249   1.487   0.843
 4801TIP3   OH214366   1.463   2.935   4.089
 4801TIP3    H114367   1.487   2.850   4.128
 4801TIP3    H214368   1.533   2.953   4.026
 4802TIP3   OH214369   4.817   1.943   4.094
 4802TIP3    H114370   4.810   1.858   4.050
 4802TIP3    H214371   4.869   1.996   4.033
 4803TIP3   OH214372   0.192   2.564   5.473
 4803TIP3    H114373   0.227   2.511   5.545
 4803TIP3    H214374   0.249   2.545   5.399
 4804TIP3   OH214375   5.798   3.159   3.591
 4804TIP3    H114376   5.797   3.255   3.592
 4804TIP3    H214377   5.816   3.134   3.682
 4805TIP3   OH214378   2.881   0.988   5.414
 4805TIP3    H114379   2.851   0.932   5.342
 4805TIP3    H214380   2.818   0.972   5.484
 4806TIP3   OH214381   6.073   0.090   5.170
 4806TIP3    H114382   6.011   0.133   5.230
 4806TIP3    H214383   6.107   0.016   5.219
 4807TIP3   OH214384   2.959   4.162   2.635
 4807TIP3    H114385   2.964   4.069   2.653
 4807TIP3    H214386   3.051   4.190   2.628
 4808TIP3   OH214387   0.653   5.604   5.264
 4808TIP3    H114388   0.737   5.585   5.224
 4808TIP3    H214389   0.596   5.532   5.237
 4809TIP3   OH214390   4.868   1.810   3.019
 4809TIP3    H114391   4.887   1.754   3.094
 4809TIP3    H214392   4.885   1.899   3.051
 4810TIP3   OH214393   3.871   6.789   3.163
 4810TIP3    H114394   3.823   6.868   3.139
 4810TIP3    H214395   3.897   6.751   3.079
 4811TIP3   OH214396   1.654   2.987   3.890
 4811TIP3    H114397   1.614   3.065   3.849
 4811TIP3    H214398   1.721   3.023   3.948
 4812TIP3   OH214399   3.272   2.500   5.726
 4812TIP3    H114400   3.291   2.592   5.745
 4812TIP3    H214401   3.328   2.479   5.651
 4813TIP3   OH214402   6.153   2.238   3.798
 4813TIP3    H114403   6.086   2.174   3.771
 4813TIP3    H214404   6.200   2.195   3.869
 4814TIP3   OH214405   2.400   4.366   5.518
 4814TIP3    H114406   2.388   4.394   5.608
 4814TIP3    H214407   2.433   4.443   5.472
 4815TIP3   OH214408   6.964   3.438   2.625
 4815TIP3    H114409   6.871   3.446   2.602
 4815TIP3    H214410   7.009   3.492   2.560
 4816TIP3   OH214411   3.322   0.733   2.878
 4816TIP3    H114412   3.237   0.749   2.920
 4816TIP3    H214413   3.302   0.674   2.805
 4817TIP3   OH214414   2.802   2.821   0.417
 4817TIP3    H114415   2.851   2.844   0.495
 4817TIP3    H214416   2.800   2.725   0.417
 4818TIP3   OH214417   6.819   3.560   0.494
 4818TIP3    H114418   6.830   3.632   0.555
 4818TIP3    H214419   6.734   3.521   0.517
 4819TIP3   OH214420   1.753   6.414   0.820
 4819TIP3    H114421   1.716   6.385   0.736
 4819TIP3    H214422   1.846   6.428   0.802
 4820TIP3   OH214423   4.082   0.342   2.552
 4820TIP3    H114424   4.123   0.414   2.504
 4820TIP3    H214425   3.990   0.368   2.559
 4821TIP3   OH214426   4.525   2.444   4.203
 4821TIP3    H114427   4.439   2.403   4.200
 4821TIP3    H214428   4.536   2.483   4.116
 4822TIP3   OH214429   0.666   1.368   1.308
 4822TIP3    H114430   0.594   1.430   1.295
 4822TIP3    H214431   0.727   1.387   1.237
 4823TIP3   OH214432   1.451   4.193   2.190
 4823TIP3    H114433   1.358   4.171   2.179
 4823TIP3    H214434   1.498   4.113   2.166
 4824TIP3   OH214435   3.492   0.591   4.475
 4824TIP3    H114436   3.399   0.579   4.458
 4824TIP3    H214437   3.531   0.600   4.388
 4825TIP3   OH214438   4.102   5.164   0.951
 4825TIP3    H114439   4.168   5.151   0.883
 4825TIP3    H214440   4.021   5.129   0.913
 4826TIP3   OH214441   1.273   3.116   4.643
 4826TIP3    H114442   1.367   3.137   4.637
 4826TIP3    H214443   1.246   3.152   4.727
 4827TIP3   OH214444   4.919   4.234   0.515
 4827TIP3    H114445   4.970   4.260   0.438
 4827TIP3    H214446   4.842   4.189   0.479
 4828TIP3   OH214447   3.439   3.360   3.018
 4828TIP3    H114448   3.355   3.406   3.022
 4828TIP3    H214449   3.472   3.362   3.107
 4829TIP3   OH214450   2.721   5.688   1.261
 4829TIP3    H114451   2.699   5.672   1.169
 4829TIP3    H214452   2.748   5.780   1.263
 4830TIP3   OH214453   1.534   1.203   3.926
 4830TIP3    H114454   1.497   1.230   4.010
 4830TIP3    H214455   1.463   1.157   3.882
 4831TIP3   OH214456   2.974   3.164   2.242
 4831TIP3    H114457   3.039   3.186   2.175
 4831TIP3    H214458   2.934   3.082   2.211
 4832TIP3   OH214459   4.711   2.033   1.765
 4832TIP3    H114460   4.731   1.940   1.757
 4832TIP3    H214461   4.692   2.046   1.858
 4833TIP3   OH214462   4.688   0.551   5.733
 4833TIP3    H114463   4.653   0.532   5.646
 4833TIP3    H214464   4.612   0.584   5.781
 4834TIP3   OH214465   0.408   5.300   3.866
 4834TIP3    H114466   0.457   5.234   3.914
 4834TIP3    H214467   0.389   5.368   3.931
 4835TIP3   OH214468   3.124   5.265   2.914
 4835TIP3    H114469   3.081   5.209   2.851
 4835TIP3    H214470   3.192   5.210   2.953
 4836TIP3   OH214471   0.486   2.966   3.671
 4836TIP3    H114472   0.566   2.922   3.700
 4836TIP3    H214473   0.426   2.957   3.745
 4837TIP3   OH214474   5.671   4.610   2.832
 4837TIP3    H114475   5.617   4.661   2.773
 4837TIP3    H214476   5.758   4.611   2.793
 4838TIP3   OH214477   0.514   3.685   2.081
 4838TIP3    H114478   0.536   3.605   2.033
 4838TIP3    H214479   0.568   3.680   2.160
 4839TIP3   OH214480   6.127   6.623   4.030
 4839TIP3    H114481   6.192   6.682   4.067
 4839TIP3    H214482   6.143   6.539   4.073
 4840TIP3   OH214483   1.513   3.979   1.834
 4840TIP3    H114484   1.434   3.945   1.791
 4840TIP3    H214485   1.585   3.938   1.787
 4841TIP3   OH214486   2.548   6.786   0.948
 4841TIP3    H114487   2.609   6.802   0.877
 4841TIP3    H214488   2.581   6.838   1.021
 4842TIP3   OH214489   6.542   5.890   4.193
 4842TIP3    H114490   6.613   5.877   4.256
 4842TIP3    H214491   6.546   5.983   4.171
 4843TIP3   OH214492   1.064   5.459   3.936
 4843TIP3    H114493   1.097   5.490   3.852
 4843TIP3    H214494   0.998   5.393   3.913
 4844TIP3   OH214495   4.917   0.128   3.602
 4844TIP3    H114496   4.943   0.042   3.636
 4844TIP3    H214497   4.999   0.176   3.592
 4845TIP3   OH214498   2.978   6.605   3.528
 4845TIP3    H114499   3.007   6.519   3.559
 4845TIP3    H214500   2.899   6.586   3.477
 4846TIP3   OH214501   1.406   4.991   2.788
 4846TIP3    H114502   1.472   5.028   2.846
 4846TIP3    H214503   1.367   5.066   2.744
 4847TIP3   OH214504   2.777   1.691   0.990
 4847TIP3    H114505   2.868   1.660   0.988
 4847TIP3    H214506   2.725   1.612   0.984
 4848TIP3   OH214507   0.568   5.205   5.650
 4848TIP3    H114508   0.533   5.287   5.615
 4848TIP3    H214509   0.610   5.163   5.575
 4849TIP3   OH214510   6.887   4.772   2.898
 4849TIP3    H114511   6.908   4.855   2.939
 4849TIP3    H214512   6.972   4.732   2.879
 4850TIP3   OH214513   6.270   3.400   2.692
 4850TIP3    H114514   6.269   3.305   2.700
 4850TIP3    H214515   6.177   3.424   2.691
 4851TIP3   OH214516   6.385   1.915   5.543
 4851TIP3    H114517   6.333   1.892   5.466
 4851TIP3    H214518   6.340   1.991   5.581
 4852TIP3   OH214519   6.970   6.260   4.662
 4852TIP3    H114520   6.941   6.214   4.583
 4852TIP3    H214521   7.053   6.300   4.639
 4853TIP3   OH214522   6.527   5.908   5.452
 4853TIP3    H114523   6.480   5.851   5.390
 4853TIP3    H214524   6.530   5.993   5.409
 4854TIP3   OH214525   0.356   3.852   5.737
 4854TIP3    H114526   0.412   3.863   5.813
 4854TIP3    H214527   0.350   3.757   5.725
 4855TIP3   OH214528   2.572   3.791   5.658
 4855TIP3    H114529   2.484   3.826   5.667
 4855TIP3    H214530   2.593   3.801   5.565
 4856TIP3   OH214531   2.471   0.334   5.053
 4856TIP3    H114532   2.414   0.382   4.993
 4856TIP3    H214533   2.411   0.292   5.115
 4857TIP3   OH214534   3.978   3.907   1.199
 4857TIP3    H114535   3.962   3.814   1.214
 4857TIP3    H214536   3.985   3.945   1.287
 4858TIP3   OH214537   5.288   5.536   3.384
 4858TIP3    H114538   5.278   5.494   3.470
 4858TIP3    H214539   5.253   5.472   3.322
 4859TIP3   OH214540   0.511   3.262   2.158
 4859TIP3    H114541   0.517   3.293   2.248
 4859TIP3    H214542   0.575   3.192   2.151
 4860TIP3   OH214543   0.265   5.382   5.606
 4860TIP3    H114544   0.193   5.444   5.591
 4860TIP3    H214545   0.341   5.424   5.567
 4861TIP3   OH214546   4.022   2.918   2.611
 4861TIP3    H114547   3.967   2.967   2.672
 4861TIP3    H214548   4.031   2.977   2.535
 4862TIP3   OH214549   5.814   3.950   2.261
 4862TIP3    H114550   5.829   4.042   2.242
 4862TIP3    H214551   5.901   3.910   2.255
 4863TIP3   OH214552   1.196   2.508   0.294
 4863TIP3    H114553   1.134   2.541   0.228
 4863TIP3    H214554   1.183   2.565   0.369
 4864TIP3   OH214555   1.901   0.025   4.196
 4864TIP3    H114556   1.832   0.091   4.187
 4864TIP3    H214557   1.867  -0.037   4.260
 4865TIP3   OH214558   0.588   4.548   1.840
 4865TIP3    H114559   0.569   4.517   1.752
 4865TIP3    H214560   0.514   4.605   1.862
 4866TIP3   OH214561   4.111   4.407   0.630
 4866TIP3    H114562   4.038   4.467   0.642
 4866TIP3    H214563   4.070   4.326   0.598
 4867TIP3   OH214564   3.662   5.083   0.205
 4867TIP3    H114565   3.629   5.142   0.273
 4867TIP3    H214566   3.729   5.134   0.159
 4868TIP3   OH214567   3.471   3.792   2.051
 4868TIP3    H114568   3.549   3.738   2.057
 4868TIP3    H214569   3.501   3.874   2.011
 4869TIP3   OH214570   4.443   2.608   3.999
 4869TIP3    H114571   4.428   2.633   4.090
 4869TIP3    H214572   4.511   2.668   3.968
 4870TIP3   OH214573   4.764   4.923   0.033
 4870TIP3    H114574   4.772   4.893   0.123
 4870TIP3    H214575   4.752   5.018   0.040
 4871TIP3   OH214576   2.049   4.054   2.249
 4871TIP3    H114577   1.976   4.004   2.285
 4871TIP3    H214578   2.007   4.130   2.207
 4872TIP3   OH214579   6.540   1.295   1.021
 4872TIP3    H114580   6.456   1.249   1.020
 4872TIP3    H214581   6.518   1.383   1.051
 4873TIP3   OH214582   4.116   6.447   3.698
 4873TIP3    H114583   4.052   6.377   3.714
 4873TIP3    H214584   4.191   6.403   3.660
 4874TIP3   OH214585   1.158   3.924   5.617
 4874TIP3    H114586   1.205   3.851   5.576
 4874TIP3    H214587   1.174   3.998   5.558
 4875TIP3   OH214588   5.315   3.645   5.899
 4875TIP3    H114589   5.251   3.574   5.903
 4875TIP3    H214590   5.368   3.624   5.822
 4876TIP3   OH214591   1.617   0.569   0.374
 4876TIP3    H114592   1.568   0.594   0.452
 4876TIP3    H214593   1.589   0.480   0.355
 4877TIP3   OH214594   1.431   1.250   4.175
 4877TIP3    H114595   1.416   1.182   4.240
 4877TIP3    H214596   1.471   1.322   4.223
 4878TIP3   OH214597   5.749   5.127   1.747
 4878TIP3    H114598   5.659   5.093   1.738
 4878TIP3    H214599   5.788   5.072   1.815
 4879TIP3   OH214600   6.579   5.093   0.594
 4879TIP3    H114601   6.615   5.044   0.521
 4879TIP3    H214602   6.518   5.032   0.636
 4880TIP3   OH214603   1.023   6.732   2.876
 4880TIP3    H114604   0.989   6.821   2.870
 4880TIP3    H214605   0.961   6.686   2.933
 4881TIP3   OH214606   0.939   3.397   3.776
 4881TIP3    H114607   1.018   3.443   3.806
 4881TIP3    H214608   0.972   3.323   3.726
 4882TIP3   OH214609   3.194   5.995   4.183
 4882TIP3    H114610   3.123   6.037   4.134
 4882TIP3    H214611   3.260   5.975   4.116
 4883TIP3   OH214612   5.204   4.508   3.351
 4883TIP3    H114613   5.205   4.467   3.437
 4883TIP3    H214614   5.178   4.599   3.368
 4884TIP3   OH214615   1.181   0.513   2.717
 4884TIP3    H114616   1.237   0.498   2.794
 4884TIP3    H214617   1.099   0.546   2.753
 4885TIP3   OH214618   2.141   6.546   5.063
 4885TIP3    H114619   2.233   6.556   5.083
 4885TIP3    H214620   2.102   6.508   5.142
 4886TIP3   OH214621   1.199   1.827   1.843
 4886TIP3    H114622   1.206   1.843   1.749
 4886TIP3    H214623   1.257   1.891   1.883
 4887TIP3   OH214624   6.103   2.630   2.352
 4887TIP3    H114625   6.174   2.654   2.412
 4887TIP3    H214626   6.039   2.587   2.408
 4888TIP3   OH214627   6.262   5.324   2.802
 4888TIP3    H114628   6.309   5.268   2.864
 4888TIP3    H214629   6.329   5.356   2.743
 4889TIP3   OH214630   0.829   5.659   3.924
 4889TIP3    H114631   0.882   5.735   3.946
 4889TIP3    H214632   0.888   5.584   3.935
 4890TIP3   OH214633   6.531   0.196   0.606
 4890TIP3    H114634   6.449   0.159   0.641
 4890TIP3    H214635   6.574   0.121   0.565
 4891TIP3   OH214636   1.790   3.152   4.814
 4891TIP3    H114637   1.714   3.104   4.847
 4891TIP3    H214638   1.862   3.128   4.873
 4892TIP3   OH214639   3.382   6.461   3.081
 4892TIP3    H114640   3.338   6.389   3.036
 4892TIP3    H214641   3.367   6.537   3.025
 4893TIP3   OH214642   2.249   2.402   3.850
 4893TIP3    H114643   2.164   2.397   3.894
 4893TIP3    H214644   2.312   2.383   3.919
 4894TIP3   OH214645   3.537   4.831   2.442
 4894TIP3    H114646   3.549   4.926   2.444
 4894TIP3    H214647   3.563   4.805   2.354
 4895TIP3   OH214648   5.711   5.354   0.221
 4895TIP3    H114649   5.641   5.359   0.286
 4895TIP3    H214650   5.785   5.401   0.262
 4896TIP3   OH214651   2.706   1.171   2.448
 4896TIP3    H114652   2.742   1.085   2.469
 4896TIP3    H214653   2.710   1.220   2.529
 4897TIP3   OH214654   4.298   4.083   1.506
 4897TIP3    H114655   4.362   4.130   1.561
 4897TIP3    H214656   4.328   3.992   1.509
 4898TIP3   OH214657   5.658   0.246   0.188
 4898TIP3    H114658   5.727   0.311   0.201
 4898TIP3    H214659   5.611   0.243   0.272
 4899TIP3   OH214660   3.361   4.473   4.000
 4899TIP3    H114661   3.442   4.485   4.049
 4899TIP3    H214662   3.353   4.378   3.990
 4900TIP3   OH214663   5.623   5.304   4.323
 4900TIP3    H114664   5.583   5.299   4.410
 4900TIP3    H214665   5.671   5.387   4.324
 4901TIP3   OH214666   4.703   5.159   1.678
 4901TIP3    H114667   4.697   5.188   1.769
 4901TIP3    H214668   4.669   5.070   1.680
 4902TIP3   OH214669   0.099   5.727   2.181
 4902TIP3    H114670   0.129   5.772   2.260
 4902TIP3    H214671   0.095   5.635   2.206
 4903TIP3   OH214672   2.834   1.923   5.161
 4903TIP3    H114673   2.928   1.907   5.167
 4903TIP3    H214674   2.799   1.844   5.121
 4904TIP3   OH214675   0.570   2.207   0.110
 4904TIP3    H114676   0.528   2.277   0.160
 4904TIP3    H214677   0.633   2.168   0.170
 4905TIP3   OH214678   5.378   0.106   3.776
 4905TIP3    H114679   5.342   0.039   3.835
 4905TIP3    H214680   5.442   0.153   3.830
 4906TIP3   OH214681   3.394   5.182   5.815
 4906TIP3    H114682   3.349   5.225   5.742
 4906TIP3    H214683   3.337   5.198   5.890
 4907TIP3   OH214684   6.785   6.225   1.967
 4907TIP3    H114685   6.872   6.252   1.994
 4907TIP3    H214686   6.763   6.285   1.895
 4908TIP3   OH214687   6.308   6.610   2.261
 4908TIP3    H114688   6.324   6.672   2.190
 4908TIP3    H214689   6.247   6.547   2.224
 4909TIP3   OH214690   0.443   5.028   0.849
 4909TIP3    H114691   0.513   4.968   0.822
 4909TIP3    H214692   0.462   5.110   0.804
 4910TIP3   OH214693   4.829   0.030   0.598
 4910TIP3    H114694   4.875   0.113   0.586
 4910TIP3    H214695   4.795   0.033   0.688
 4911TIP3   OH214696   0.153   2.978   4.369
 4911TIP3    H114697   0.100   3.058   4.363
 4911TIP3    H214698   0.243   3.010   4.378
 4912TIP3   OH214699   5.952   6.724   3.299
 4912TIP3    H114700   5.871   6.699   3.256
 4912TIP3    H214701   5.925   6.773   3.377
 4913TIP3   OH214702   5.183   1.388   0.142
 4913TIP3    H114703   5.268   1.390   0.097
 4913TIP3    H214704   5.199   1.336   0.221
 4914TIP3   OH214705   6.189   5.514   0.549
 4914TIP3    H114706   6.159   5.423   0.544
 4914TIP3    H214707   6.207   5.539   0.459
 4915TIP3   OH214708   0.344   4.333   1.152
 4915TIP3    H114709   0.291   4.392   1.205
 4915TIP3    H214710   0.326   4.358   1.061
 4916TIP3   OH214711   5.369   2.451   4.281
 4916TIP3    H114712   5.436   2.397   4.239
 4916TIP3    H214713   5.418   2.523   4.321
 4917TIP3   OH214714   2.898   2.422   4.042
 4917TIP3    H114715   2.894   2.467   3.957
 4917TIP3    H214716   2.989   2.394   4.050
 4918TIP3   OH214717   6.095   4.113   1.666
 4918TIP3    H114718   6.136   4.046   1.610
 4918TIP3    H214719   6.018   4.141   1.616
 4919TIP3   OH214720   2.465   3.143   2.663
 4919TIP3    H114721   2.493   3.105   2.579
 4919TIP3    H214722   2.389   3.196   2.641
 4920TIP3   OH214723   4.063   4.421   4.210
 4920TIP3    H114724   4.032   4.365   4.139
 4920TIP3    H214725   4.127   4.480   4.169
 4921TIP3   OH214726   1.175   0.866   0.983
 4921TIP3    H114727   1.081   0.866   0.966
 4921TIP3    H214728   1.185   0.816   1.064
 4922TIP3   OH214729   6.214   2.990   5.603
 4922TIP3    H114730   6.138   2.938   5.577
 4922TIP3    H214731   6.204   3.002   5.698
 4923TIP3   OH214732   2.294   2.124   0.300
 4923TIP3    H114733   2.199   2.134   0.290
 4923TIP3    H214734   2.312   2.037   0.264
 4924TIP3   OH214735   3.913   5.481   0.346
 4924TIP3    H114736   3.996   5.478   0.298
 4924TIP3    H214737   3.909   5.570   0.381
 4925TIP3   OH214738   1.445   6.535   0.272
 4925TIP3    H114739   1.367   6.558   0.222
 4925TIP3    H214740   1.419   6.549   0.363
 4926TIP3   OH214741   3.776   5.340   0.767
 4926TIP3    H114742   3.777   5.255   0.810
 4926TIP3    H214743   3.828   5.327   0.687
 4927TIP3   OH214744   6.257   1.190   1.698
 4927TIP3    H114745   6.328   1.250   1.677
 4927TIP3    H214746   6.177   1.239   1.680
 4928TIP3   OH214747   2.991   0.076   2.883
 4928TIP3    H114748   2.958   0.153   2.929
 4928TIP3    H214749   3.043   0.111   2.811
 4929TIP3   OH214750   0.910   3.418   0.896
 4929TIP3    H114751   0.957   3.395   0.975
 4929TIP3    H214752   0.975   3.462   0.841
 4930TIP3   OH214753   7.001   1.163   5.735
 4930TIP3    H114754   7.043   1.127   5.657
 4930TIP3    H214755   7.008   1.258   5.725
 4931TIP3   OH214756   6.307   2.898   2.877
 4931TIP3    H114757   6.228   2.883   2.930
 4931TIP3    H214758   6.351   2.970   2.921
 4932TIP3   OH214759   1.173   4.476   3.154
 4932TIP3    H114760   1.154   4.529   3.232
 4932TIP3    H214761   1.161   4.536   3.081
 4933TIP3   OH214762   4.866   0.322   4.824
 4933TIP3    H114763   4.827   0.394   4.774
 4933TIP3    H214764   4.801   0.303   4.892
 4934TIP3   OH214765   0.815   3.255   3.092
 4934TIP3    H114766   0.758   3.286   3.162
 4934TIP3    H214767   0.803   3.160   3.093
 4935TIP3   OH214768   3.249   0.456   4.342
 4935TIP3    H114769   3.159   0.435   4.368
 4935TIP3    H214770   3.241   0.533   4.285
 4936TIP3   OH214771   2.239   5.790   2.974
 4936TIP3    H114772   2.298   5.722   3.006
 4936TIP3    H214773   2.257   5.866   3.029
 4937TIP3   OH214774   3.092   5.816   3.110
 4937TIP3    H114775   3.149   5.892   3.126
 4937TIP3    H214776   3.145   5.741   3.137
 4938TIP3   OH214777   1.185   1.261   1.568
 4938TIP3    H114778   1.093   1.244   1.585
 4938TIP3    H214779   1.195   1.355   1.585
 4939TIP3   OH214780   2.586   4.703   0.899
 4939TIP3    H114781   2.602   4.743   0.813
 4939TIP3    H214782   2.537   4.624   0.879
 4940TIP3   OH214783   3.876   6.202   2.341
 4940TIP3    H114784   3.860   6.118   2.297
 4940TIP3    H214785   3.840   6.268   2.281
 4941TIP3   OH214786   1.742   3.295   3.414
 4941TIP3    H114787   1.726   3.365   3.352
 4941TIP3    H214788   1.691   3.220   3.382
 4942TIP3   OH214789   4.115   2.240   5.596
 4942TIP3    H114790   4.139   2.195   5.516
 4942TIP3    H214791   4.157   2.326   5.590
 4943TIP3   OH214792   5.902   2.964   5.845
 4943TIP3    H114793   5.935   3.045   5.807
 4943TIP3    H214794   5.926   2.896   5.782
 4944TIP3   OH214795   4.133   0.284   4.749
 4944TIP3    H114796   4.157   0.215   4.688
 4944TIP3    H214797   4.156   0.249   4.835
 4945TIP3   OH214798   3.018   2.275   3.419
 4945TIP3    H114799   2.927   2.304   3.415
 4945TIP3    H214800   3.032   2.228   3.337
 4946TIP3   OH214801   0.266   0.833   4.426
 4946TIP3    H114802   0.278   0.898   4.495
 4946TIP3    H214803   0.230   0.757   4.471
 4947TIP3   OH214804   4.933   2.042   3.840
 4947TIP3    H114805   4.911   2.072   3.751
 4947TIP3    H214806   4.970   2.119   3.883
 4948TIP3   OH214807   2.888   1.526   1.403
 4948TIP3    H114808   2.938   1.564   1.476
 4948TIP3    H214809   2.834   1.599   1.371
 4949TIP3   OH214810   6.065   3.188   2.973
 4949TIP3    H114811   6.069   3.260   2.909
 4949TIP3    H214812   6.026   3.115   2.925
 4950TIP3   OH214813   2.499   0.726   2.343
 4950TIP3    H114814   2.524   0.656   2.403
 4950TIP3    H214815   2.504   0.687   2.256
 4951TIP3   OH214816   5.806   4.533   1.505
 4951TIP3    H114817   5.737   4.546   1.440
 4951TIP3    H214818   5.782   4.591   1.578
 4952TIP3   OH214819   6.135   3.360   5.463
 4952TIP3    H114820   6.113   3.399   5.379
 4952TIP3    H214821   6.065   3.390   5.522
 4953TIP3   OH214822   0.232   1.217   1.416
 4953TIP3    H114823   0.189   1.264   1.487
 4953TIP3    H214824   0.226   1.125   1.441
 4954TIP3   OH214825   6.277   1.059   1.302
 4954TIP3    H114826   6.317   1.016   1.226
 4954TIP3    H214827   6.321   1.018   1.377
 4955TIP3   OH214828   1.197   4.419   4.076
 4955TIP3    H114829   1.274   4.366   4.053
 4955TIP3    H214830   1.206   4.433   4.170
 4956TIP3   OH214831   3.638   2.190   2.928
 4956TIP3    H114832   3.582   2.236   2.866
 4956TIP3    H214833   3.671   2.114   2.880
 4957TIP3   OH214834   2.314   1.192   1.264
 4957TIP3    H114835   2.378   1.258   1.291
 4957TIP3    H214836   2.346   1.162   1.179
 4958TIP3   OH214837   3.698   3.136   5.345
 4958TIP3    H114838   3.643   3.063   5.373
 4958TIP3    H214839   3.644   3.183   5.281
 4959TIP3   OH214840   3.313   0.613   5.250
 4959TIP3    H114841   3.228   0.655   5.265
 4959TIP3    H214842   3.344   0.651   5.168
 4960TIP3   OH214843   1.623   5.650   2.427
 4960TIP3    H114844   1.661   5.594   2.495
 4960TIP3    H214845   1.529   5.651   2.446
 4961TIP3   OH214846   2.595   3.453   4.637
 4961TIP3    H114847   2.687   3.456   4.611
 4961TIP3    H214848   2.561   3.540   4.617
 4962TIP3   OH214849   5.188   1.036   2.372
 4962TIP3    H114850   5.272   0.996   2.349
 4962TIP3    H214851   5.169   1.004   2.460
 4963TIP3   OH214852   2.299   3.063   5.154
 4963TIP3    H114853   2.303   3.084   5.061
 4963TIP3    H214854   2.328   2.971   5.158
 4964TIP3   OH214855   0.895   5.634   2.980
 4964TIP3    H114856   0.856   5.720   2.962
 4964TIP3    H214857   0.865   5.579   2.907
 4965TIP3   OH214858   2.616   5.122   4.053
 4965TIP3    H114859   2.673   5.050   4.025
 4965TIP3    H214860   2.640   5.137   4.144
 4966TIP3   OH214861   2.132   4.977   1.958
 4966TIP3    H114862   2.226   4.962   1.955
 4966TIP3    H214863   2.121   5.050   2.018
 4967TIP3   OH214864   4.705   0.785   0.815
 4967TIP3    H114865   4.661   0.740   0.743
 4967TIP3    H214866   4.727   0.716   0.877
 4968TIP3   OH214867   3.811   4.797   5.589
 4968TIP3    H114868   3.781   4.796   5.498
 4968TIP3    H214869   3.749   4.740   5.635
 4969TIP3   OH214870   4.712   4.121   0.363
 4969TIP3    H114871   4.728   4.183   0.292
 4969TIP3    H214872   4.618   4.127   0.379
 4970TIP3   OH214873   1.670   4.780   3.598
 4970TIP3    H114874   1.721   4.720   3.652
 4970TIP3    H214875   1.707   4.866   3.616
 4971TIP3   OH214876   0.855   1.523   3.284
 4971TIP3    H114877   0.927   1.562   3.334
 4971TIP3    H214878   0.776   1.560   3.323
 4972TIP3   OH214879   0.575   5.549   0.120
 4972TIP3    H114880   0.511   5.515   0.057
 4972TIP3    H214881   0.649   5.488   0.116
 4973TIP3   OH214882   2.798   0.899   2.462
 4973TIP3    H114883   2.874   0.886   2.517
 4973TIP3    H214884   2.724   0.868   2.515
 4974TIP3   OH214885   6.365   5.581   4.549
 4974TIP3    H114886   6.335   5.607   4.462
 4974TIP3    H214887   6.336   5.652   4.607
 4975TIP3   OH214888   2.939   2.516   4.467
 4975TIP3    H114889   3.030   2.488   4.458
 4975TIP3    H214890   2.923   2.569   4.389
 4976TIP3   OH214891   6.450   0.449   3.326
 4976TIP3    H114892   6.491   0.414   3.406
 4976TIP3    H214893   6.521   0.489   3.278
 4977TIP3   OH214894   6.219   6.671   4.868
 4977TIP3    H114895   6.151   6.695   4.805
 4977TIP3    H214896   6.171   6.636   4.942
 4978TIP3   OH214897   5.487   4.788   5.393
 4978TIP3    H114898   5.424   4.785   5.321
 4978TIP3    H214899   5.519   4.878   5.392
 4979TIP3   OH214900   4.199   1.018   3.685
 4979TIP3    H114901   4.186   0.990   3.594
 4979TIP3    H214902   4.128   0.975   3.733
 4980TIP3   OH214903   1.883   4.683   4.978
 4980TIP3    H114904   1.904   4.648   4.892
 4980TIP3    H214905   1.788   4.677   4.985
 4981TIP3   OH214906   5.065   5.297   1.746
 4981TIP3    H114907   4.993   5.348   1.709
 4981TIP3    H214908   5.050   5.208   1.714
 4982TIP3   OH214909   2.053   5.017   3.730
 4982TIP3    H114910   2.086   4.929   3.710
 4982TIP3    H214911   2.119   5.076   3.695
 4983TIP3   OH214912   3.276   6.192   0.545
 4983TIP3    H114913   3.317   6.274   0.518
 4983TIP3    H214914   3.194   6.218   0.586
 4984TIP3   OH214915   2.756   1.949   0.877
 4984TIP3    H114916   2.742   1.862   0.914
 4984TIP3    H214917   2.672   1.994   0.886
 4985TIP3   OH214918   5.874   4.880   3.356
 4985TIP3    H114919   5.884   4.928   3.274
 4985TIP3    H214920   5.814   4.933   3.408
 4986TIP3   OH214921   4.632   5.673   0.030
 4986TIP3    H114922   4.661   5.748  -0.023
 4986TIP3    H214923   4.543   5.697   0.058
 4987TIP3   OH214924   4.822   0.924   1.935
 4987TIP3    H114925   4.887   0.855   1.923
 4987TIP3    H214926   4.873   1.004   1.948
 4988TIP3   OH214927   2.706   3.926   3.218
 4988TIP3    H114928   2.798   3.943   3.238
 4988TIP3    H214929   2.660   3.938   3.301
 4989TIP3   OH214930   3.427   3.314   4.135
 4989TIP3    H114931   3.470   3.229   4.144
 4989TIP3    H214932   3.452   3.344   4.048
 4990TIP3   OH214933   5.416   1.990   2.614
 4990TIP3    H114934   5.454   1.942   2.688
 4990TIP3    H214935   5.489   2.042   2.580
 4991TIP3   OH214936   3.324   6.054   2.766
 4991TIP3    H114937   3.401   6.061   2.710
 4991TIP3    H214938   3.251   6.042   2.704
 4992TIP3   OH214939   1.086   5.994   1.621
 4992TIP3    H114940   1.030   6.070   1.604
 4992TIP3    H214941   1.046   5.952   1.697
 4993TIP3   OH214942   1.685   4.474   1.315
 4993TIP3    H114943   1.597   4.439   1.327
 4993TIP3    H214944   1.739   4.398   1.292
 4994TIP3   OH214945   4.348   6.069   5.268
 4994TIP3    H114946   4.340   6.034   5.179
 4994TIP3    H214947   4.320   5.998   5.325
 4995TIP3   OH214948   0.343   2.038   3.417
 4995TIP3    H114949   0.337   2.095   3.341
 4995TIP3    H214950   0.388   2.091   3.483
 4996TIP3   OH214951   5.534   4.225   1.475
 4996TIP3    H114952   5.518   4.275   1.395
 4996TIP3    H214953   5.622   4.250   1.502
 4997TIP3   OH214954   5.702   2.656   0.052
 4997TIP3    H114955   5.669   2.574   0.015
 4997TIP3    H214956   5.797   2.643   0.060
 4998TIP3   OH214957   3.604   2.718   4.203
 4998TIP3    H114958   3.568   2.665   4.132
 4998TIP3    H214959   3.605   2.807   4.169
 4999TIP3   OH214960   2.552   2.347   5.681
 4999TIP3    H114961   2.579   2.291   5.753
 4999TIP3    H214962   2.587   2.433   5.703
 5000TIP3   OH214963   3.876   3.804   0.786
 5000TIP3    H114964   3.824   3.740   0.835
 5000TIP3    H214965   3.964   3.796   0.823
 5001TIP3   OH214966   3.018   0.759   1.114
 5001TIP3    H114967   2.996   0.693   1.180
 5001TIP3    H214968   2.983   0.724   1.032
 5002TIP3   OH214969   3.860   3.359   1.232
 5002TIP3    H114970   3.873   3.273   1.270
 5002TIP3    H214971   3.839   3.416   1.306
 5003TIP3   OH214972   6.361   3.238   0.227
 5003TIP3    H114973   6.317   3.280   0.153
 5003TIP3    H214974   6.363   3.145   0.204
 5004TIP3   OH214975   0.050   5.842   0.582
 5004TIP3    H114976  -0.009   5.913   0.607
 5004TIP3    H214977   0.136   5.870   0.616
 5005TIP3   OH214978   6.988   0.446   2.421
 5005TIP3    H114979   6.945   0.375   2.467
 5005TIP3    H214980   6.952   0.442   2.332
 5006TIP3   OH214981   5.276   0.084   1.830
 5006TIP3    H114982   5.313   0.057   1.745
 5006TIP3    H214983   5.215   0.015   1.853
 5007TIP3   OH214984   3.553   5.064   1.963
 5007TIP3    H114985   3.606   5.074   1.884
 5007TIP3    H214986   3.499   5.143   1.966
 5008TIP3   OH214987   2.654   4.761   1.453
 5008TIP3    H114988   2.648   4.853   1.427
 5008TIP3    H214989   2.664   4.762   1.548
 5009TIP3   OH214990   0.973   3.963   4.328
 5009TIP3    H114991   1.009   3.970   4.240
 5009TIP3    H214992   1.048   3.945   4.384
 5010TIP3   OH214993   6.764   0.811   3.438
 5010TIP3    H114994   6.679   0.811   3.393
 5010TIP3    H214995   6.815   0.878   3.393
 5011TIP3   OH214996   6.341   0.532   5.609
 5011TIP3    H114997   6.290   0.592   5.554
 5011TIP3    H214998   6.277   0.497   5.671
 5012TIP3   OH214999   6.481   5.810   1.093
 5012TIP3    H115000   6.543   5.869   1.051
 5012TIP3    H215001   6.488   5.729   1.043
 5013TIP3   OH215002   2.487   5.219   1.335
 5013TIP3    H115003   2.536   5.237   1.255
 5013TIP3    H215004   2.488   5.302   1.383
 5014TIP3   OH215005   2.010   4.488   0.678
 5014TIP3    H115006   2.065   4.507   0.602
 5014TIP3    H215007   2.071   4.486   0.752
 5015TIP3   OH215008   2.185   2.859   0.719
 5015TIP3    H115009   2.110   2.815   0.679
 5015TIP3    H215010   2.164   2.862   0.812
 5016TIP3   OH215011   0.665   5.835   4.936
 5016TIP3    H115012   0.747   5.878   4.913
 5016TIP3    H215013   0.640   5.874   5.019
 5017TIP3   OH215014   0.597   4.187   4.976
 5017TIP3    H115015   0.527   4.252   4.973
 5017TIP3    H215016   0.650   4.206   4.898
 5018TIP3   OH215017   6.948   2.865   5.344
 5018TIP3    H115018   7.034   2.823   5.350
 5018TIP3    H215019   6.905   2.845   5.427
 5019TIP3   OH215020   0.137   6.703   5.839
 5019TIP3    H115021   0.048   6.710   5.874
 5019TIP3    H215022   0.125   6.679   5.747
 5020TIP3   OH215023   2.262   6.105   5.132
 5020TIP3    H115024   2.342   6.156   5.137
 5020TIP3    H215025   2.221   6.133   5.050
 5021TIP3   OH215026   5.746   1.583   2.819
 5021TIP3    H115027   5.695   1.509   2.784
 5021TIP3    H215028   5.826   1.584   2.768
 5022TIP3   OH215029   1.979   2.686   0.227
 5022TIP3    H115030   1.971   2.768   0.178
 5022TIP3    H215031   1.961   2.618   0.162
 5023TIP3   OH215032   5.619   5.596   4.719
 5023TIP3    H115033   5.592   5.680   4.756
 5023TIP3    H215034   5.598   5.602   4.626
 5024TIP3   OH215035   3.438   3.902   0.490
 5024TIP3    H115036   3.514   3.920   0.435
 5024TIP3    H215037   3.407   3.989   0.518
 5025TIP3   OH215038   4.535   6.687   3.700
 5025TIP3    H115039   4.490   6.723   3.624
 5025TIP3    H215040   4.564   6.763   3.750
 5026TIP3   OH215041   6.713   4.072   5.797
 5026TIP3    H115042   6.635   4.117   5.767
 5026TIP3    H215043   6.768   4.140   5.835
 5027TIP3   OH215044   3.197   0.347   3.552
 5027TIP3    H115045   3.277   0.301   3.526
 5027TIP3    H215046   3.128   0.305   3.502
 5028TIP3   OH215047   6.994   2.076   3.639
 5028TIP3    H115048   7.013   2.090   3.546
 5028TIP3    H215049   7.071   2.029   3.672
 5029TIP3   OH215050   0.355   1.303   2.993
 5029TIP3    H115051   0.329   1.335   2.907
 5029TIP3    H215052   0.360   1.381   3.048
 5030TIP3   OH215053   0.977   4.144   3.319
 5030TIP3    H115054   1.037   4.186   3.381
 5030TIP3    H215055   1.003   4.178   3.234
 5031TIP3   OH215056   1.994   5.412   2.570
 5031TIP3    H115057   2.032   5.334   2.610
 5031TIP3    H215058   2.042   5.423   2.487
 5032TIP3   OH215059   3.187   2.046   5.105
 5032TIP3    H115060   3.251   2.106   5.070
 5032TIP3    H215061   3.183   1.974   5.042
 5033TIP3   OH215062   3.533   2.944   4.584
 5033TIP3    H115063   3.607   2.891   4.554
 5033TIP3    H215064   3.469   2.937   4.514
 5034TIP3   OH215065   3.994   4.068   1.442
 5034TIP3    H115066   4.029   4.136   1.500
 5034TIP3    H215067   4.000   3.987   1.494
 5035TIP3   OH215068   0.676   0.521   5.368
 5035TIP3    H115069   0.582   0.519   5.384
 5035TIP3    H215070   0.700   0.613   5.377
 5036TIP3   OH215071   5.230   4.346   3.584
 5036TIP3    H115072   5.271   4.259   3.589
 5036TIP3    H215073   5.195   4.361   3.671
 5037TIP3   OH215074   6.570   4.779   0.820
 5037TIP3    H115075   6.533   4.704   0.868
 5037TIP3    H215076   6.517   4.785   0.741
 5038TIP3   OH215077   3.915   1.874   1.997
 5038TIP3    H115078   3.941   1.903   2.085
 5038TIP3    H215079   3.979   1.807   1.975
 5039TIP3   OH215080   4.187   0.112   0.725
 5039TIP3    H115081   4.113   0.086   0.780
 5039TIP3    H215082   4.173   0.065   0.643
 5040TIP3   OH215083   0.861   4.420   2.802
 5040TIP3    H115084   0.779   4.371   2.796
 5040TIP3    H215085   0.845   4.501   2.753
 5041TIP3   OH215086   2.525   5.779   4.980
 5041TIP3    H115087   2.524   5.720   4.905
 5041TIP3    H215088   2.460   5.846   4.960
 5042TIP3   OH215089   6.860   1.287   1.234
 5042TIP3    H115090   6.776   1.305   1.276
 5042TIP3    H215091   6.881   1.197   1.259
 5043TIP3   OH215092   5.983   4.640   2.851
 5043TIP3    H115093   6.021   4.676   2.931
 5043TIP3    H215094   6.035   4.561   2.834
 5044TIP3   OH215095   5.898   4.979   3.096
 5044TIP3    H115096   5.887   5.039   3.022
 5044TIP3    H215097   5.974   4.926   3.073
 5045TIP3   OH215098   6.391   6.083   2.165
 5045TIP3    H115099   6.480   6.048   2.166
 5045TIP3    H215100   6.345   6.033   2.233
 5046TIP3   OH215101   4.793   3.339   2.226
 5046TIP3    H115102   4.789   3.345   2.322
 5046TIP3    H215103   4.771   3.248   2.207
 5047TIP3   OH215104   1.447   4.794   2.098
 5047TIP3    H115105   1.482   4.707   2.117
 5047TIP3    H215106   1.488   4.851   2.164
 5048TIP3   OH215107   2.258   2.956   3.706
 5048TIP3    H115108   2.184   3.011   3.680
 5048TIP3    H215109   2.257   2.883   3.644
 5049TIP3   OH215110   5.043   2.589   1.828
 5049TIP3    H115111   5.098   2.664   1.852
 5049TIP3    H215112   4.956   2.612   1.860
 5050TIP3   OH215113   3.540   6.618   2.606
 5050TIP3    H115114   3.603   6.661   2.664
 5050TIP3    H215115   3.586   6.541   2.573
 5051TIP3   OH215116   2.730   6.343   0.287
 5051TIP3    H115117   2.696   6.327   0.375
 5051TIP3    H215118   2.817   6.303   0.287
 5052TIP3   OH215119   6.885   2.644   5.068
 5052TIP3    H115120   6.980   2.654   5.078
 5052TIP3    H215121   6.873   2.553   5.040
 5053TIP3   OH215122   5.160   0.441   2.674
 5053TIP3    H115123   5.173   0.521   2.725
 5053TIP3    H215124   5.209   0.374   2.722
 5054TIP3   OH215125   2.621   2.139   0.035
 5054TIP3    H115126   2.703   2.093   0.055
 5054TIP3    H215127   2.619   2.211   0.098
 5055TIP3   OH215128   6.016   5.459   4.417
 5055TIP3    H115129   6.007   5.418   4.503
 5055TIP3    H215130   6.071   5.398   4.368
 5056TIP3   OH215131   2.348   0.052   4.304
 5056TIP3    H115132   2.424   0.022   4.354
 5056TIP3    H215133   2.284  -0.018   4.312
 5057TIP3   OH215134   5.867   3.950   1.441
 5057TIP3    H115135   5.957   3.920   1.426
 5057TIP3    H215136   5.868   4.042   1.414
 5058TIP3   OH215137   5.750   1.093   1.220
 5058TIP3    H115138   5.843   1.072   1.219
 5058TIP3    H215139   5.747   1.187   1.236
 5059TIP3   OH215140   6.701   6.162   3.164
 5059TIP3    H115141   6.796   6.162   3.164
 5059TIP3    H215142   6.677   6.201   3.079
 5060TIP3   OH215143   2.383   3.564   4.072
 5060TIP3    H115144   2.443   3.541   4.143
 5060TIP3    H215145   2.372   3.659   4.080
 5061TIP3   OH215146   4.870   6.353   5.715
 5061TIP3    H115147   4.945   6.408   5.691
 5061TIP3    H215148   4.817   6.349   5.636
 5062TIP3   OH215149   3.603   0.283   0.467
 5062TIP3    H115150   3.653   0.363   0.447
 5062TIP3    H215151   3.537   0.312   0.530
 5063TIP3   OH215152   1.850   4.751   0.728
 5063TIP3    H115153   1.773   4.745   0.784
 5063TIP3    H215154   1.828   4.697   0.652
 5064TIP3   OH215155   3.717   2.462   3.310
 5064TIP3    H115156   3.660   2.500   3.243
 5064TIP3    H215157   3.763   2.391   3.265
 5065TIP3   OH215158   0.071   4.191   0.707
 5065TIP3    H115159   0.023   4.219   0.629
 5065TIP3    H215160   0.081   4.096   0.696
 5066TIP3   OH215161   3.522   3.881   3.429
 5066TIP3    H115162   3.583   3.858   3.359
 5066TIP3    H215163   3.572   3.869   3.510
 5067TIP3   OH215164   3.714   5.005   3.536
 5067TIP3    H115165   3.642   4.942   3.533
 5067TIP3    H215166   3.672   5.091   3.536
 5068TIP3   OH215167   5.594   5.027   4.187
 5068TIP3    H115168   5.616   5.118   4.204
 5068TIP3    H215169   5.678   4.982   4.186
 5069TIP3   OH215170   1.496   4.160   3.715
 5069TIP3    H115171   1.578   4.120   3.686
 5069TIP3    H215172   1.430   4.093   3.700
 5070TIP3   OH215173   0.169   2.129   0.940
 5070TIP3    H115174   0.123   2.204   0.903
 5070TIP3    H215175   0.226   2.099   0.869
 5071TIP3   OH215176   5.507   2.409   5.216
 5071TIP3    H115177   5.563   2.486   5.210
 5071TIP3    H215178   5.421   2.440   5.189
 5072TIP3   OH215179   1.909   5.927   2.877
 5072TIP3    H115180   1.916   5.834   2.896
 5072TIP3    H215181   1.877   5.966   2.958
 5073TIP3   OH215182   4.604   2.729   2.413
 5073TIP3    H115183   4.646   2.704   2.330
 5073TIP3    H215184   4.512   2.707   2.401
 5074TIP3   OH215185   2.186   4.429   4.160
 5074TIP3    H115186   2.218   4.509   4.202
 5074TIP3    H215187   2.179   4.365   4.231
 5075TIP3   OH215188   1.693   5.640   3.751
 5075TIP3    H115189   1.704   5.662   3.658
 5075TIP3    H215190   1.614   5.686   3.777
 5076TIP3   OH215191   3.416   6.090   5.045
 5076TIP3    H115192   3.505   6.071   5.017
 5076TIP3    H215193   3.360   6.042   4.984
 5077TIP3   OH215194   0.783   3.948   5.827
 5077TIP3    H115195   0.793   4.042   5.843
 5077TIP3    H215196   0.691   3.930   5.846
 5078TIP3   OH215197   2.993   3.530   2.553
 5078TIP3    H115198   3.086   3.510   2.561
 5078TIP3    H215199   2.959   3.463   2.495
 5079TIP3   OH215200   0.196   1.104   5.641
 5079TIP3    H115201   0.183   1.192   5.675
 5079TIP3    H215202   0.151   1.047   5.703
 5080TIP3   OH215203   0.710   3.876   3.579
 5080TIP3    H115204   0.805   3.877   3.590
 5080TIP3    H215205   0.676   3.871   3.669
 5081TIP3   OH215206   2.383   4.654   1.313
 5081TIP3    H115207   2.321   4.675   1.244
 5081TIP3    H215208   2.328   4.635   1.390
 5082TIP3   OH215209   6.896   5.148   1.885
 5082TIP3    H115210   6.926   5.134   1.975
 5082TIP3    H215211   6.973   5.129   1.831
 5083TIP3   OH215212   4.670   2.496   1.241
 5083TIP3    H115213   4.706   2.472   1.156
 5083TIP3    H215214   4.624   2.578   1.226
 5084TIP3   OH215215   6.584   1.147   1.690
 5084TIP3    H115216   6.622   1.080   1.747
 5084TIP3    H215217   6.660   1.195   1.657
 5085TIP3   OH215218   3.852   2.085   2.210
 5085TIP3    H115219   3.915   2.132   2.157
 5085TIP3    H215220   3.904   2.042   2.278
 5086TIP3   OH215221   5.098   2.387   3.145
 5086TIP3    H115222   5.014   2.372   3.189
 5086TIP3    H215223   5.074   2.429   3.062
 5087TIP3   OH215224   5.142   4.559   2.115
 5087TIP3    H115225   5.236   4.570   2.103
 5087TIP3    H215226   5.117   4.492   2.052
 5088TIP3   OH215227   4.375   1.546   1.987
 5088TIP3    H115228   4.459   1.568   1.946
 5088TIP3    H215229   4.391   1.461   2.029
 5089TIP3   OH215230   6.285   2.547   4.305
 5089TIP3    H115231   6.365   2.498   4.321
 5089TIP3    H215232   6.310   2.639   4.316
 5090TIP3   OH215233   4.835   4.491   3.045
 5090TIP3    H115234   4.884   4.430   2.990
 5090TIP3    H215235   4.851   4.577   3.006
 5091TIP3   OH215236   1.010   0.167   4.812
 5091TIP3    H115237   0.975   0.182   4.724
 5091TIP3    H215238   0.984   0.244   4.862
 5092TIP3   OH215239   2.226   6.600   5.419
 5092TIP3    H115240   2.195   6.640   5.500
 5092TIP3    H215241   2.321   6.597   5.429
 5093TIP3   OH215242   4.770   2.688   5.697
 5093TIP3    H115243   4.782   2.753   5.766
 5093TIP3    H215244   4.701   2.630   5.729
 5094TIP3   OH215245   1.242   4.259   3.300
 5094TIP3    H115246   1.235   4.338   3.245
 5094TIP3    H215247   1.313   4.209   3.260
 5095TIP3   OH215248   4.098   6.455   1.059
 5095TIP3    H115249   4.148   6.531   1.029
 5095TIP3    H215250   4.123   6.384   1.000
 5096TIP3   OH215251   1.893   0.170   1.205
 5096TIP3    H115252   1.951   0.134   1.138
 5096TIP3    H215253   1.856   0.094   1.248
 5097TIP3   OH215254   6.735   1.554   1.415
 5097TIP3    H115255   6.749   1.459   1.407
 5097TIP3    H215256   6.748   1.573   1.508
 5098TIP3   OH215257   1.049   1.601   0.293
 5098TIP3    H115258   1.143   1.602   0.274
 5098TIP3    H215259   1.016   1.524   0.248
 5099TIP3   OH215260   5.557   5.281   5.748
 5099TIP3    H115261   5.564   5.197   5.793
 5099TIP3    H215262   5.634   5.286   5.692
 5100TIP3   OH215263   3.116   0.253   3.271
 5100TIP3    H115264   3.026   0.281   3.289
 5100TIP3    H215265   3.143   0.306   3.196
 5101TIP3   OH215266   3.576   0.858   5.475
 5101TIP3    H115267   3.510   0.921   5.505
 5101TIP3    H215268   3.539   0.772   5.494
 5102TIP3   OH215269   0.229   0.500   2.700
 5102TIP3    H115270   0.318   0.532   2.706
 5102TIP3    H215271   0.231   0.414   2.745
 5103TIP3   OH215272   4.419   0.541   4.203
 5103TIP3    H115273   4.332   0.554   4.165
 5103TIP3    H215274   4.445   0.454   4.175
 5104TIP3   OH215275   5.684   0.168   3.052
 5104TIP3    H115276   5.658   0.080   3.078
 5104TIP3    H215277   5.602   0.213   3.033
 5105TIP3   OH215278   2.152   5.932   2.757
 5105TIP3    H115279   2.070   5.945   2.806
 5105TIP3    H215280   2.210   5.889   2.820
 5106TIP3   OH215281   6.239   1.389   3.156
 5106TIP3    H115282   6.332   1.367   3.144
 5106TIP3    H215283   6.193   1.341   3.088
 5107TIP3   OH215284   0.373   1.732   0.837
 5107TIP3    H115285   0.439   1.664   0.847
 5107TIP3    H215286   0.303   1.691   0.786
 5108TIP3   OH215287   2.389   5.427   2.524
 5108TIP3    H115288   2.485   5.425   2.525
 5108TIP3    H215289   2.366   5.446   2.433
 5109TIP3   OH215290   6.512   3.439   5.196
 5109TIP3    H115291   6.484   3.485   5.275
 5109TIP3    H215292   6.605   3.420   5.211
 5110TIP3   OH215293   1.186   0.829   3.936
 5110TIP3    H115294   1.125   0.763   3.901
 5110TIP3    H215295   1.270   0.784   3.940
 5111TIP3   OH215296   5.711   2.040   2.955
 5111TIP3    H115297   5.732   1.948   2.941
 5111TIP3    H215298   5.644   2.039   3.023
 5112TIP3   OH215299   0.568   4.825   1.200
 5112TIP3    H115300   0.608   4.824   1.114
 5112TIP3    H215301   0.488   4.773   1.191
 5113TIP3   OH215302   0.324   0.703   0.287
 5113TIP3    H115303   0.304   0.796   0.287
 5113TIP3    H215304   0.354   0.684   0.198
 5114TIP3   OH215305   6.835   2.786   1.540
 5114TIP3    H115306   6.844   2.702   1.586
 5114TIP3    H215307   6.901   2.843   1.580
 5115TIP3   OH215308   5.291   4.871   5.814
 5115TIP3    H115309   5.371   4.828   5.784
 5115TIP3    H215310   5.266   4.824   5.893
 5116TIP3   OH215311   6.119   1.698   5.738
 5116TIP3    H115312   6.206   1.705   5.776
 5116TIP3    H215313   6.079   1.624   5.782
 5117TIP3   OH215314   3.045   5.200   1.136
 5117TIP3    H115315   3.060   5.250   1.217
 5117TIP3    H215316   3.089   5.251   1.068
 5118TIP3   OH215317   7.069   2.863   0.643
 5118TIP3    H115318   7.040   2.794   0.703
 5118TIP3    H215319   7.100   2.817   0.566
 5119TIP3   OH215320   0.108   0.863   4.139
 5119TIP3    H115321   0.188   0.913   4.120
 5119TIP3    H215322   0.110   0.852   4.234
 5120TIP3   OH215323   0.828   1.862   1.711
 5120TIP3    H115324   0.736   1.882   1.691
 5120TIP3    H215325   0.845   1.906   1.794
 5121TIP3   OH215326   3.325   2.275   3.823
 5121TIP3    H115327   3.367   2.282   3.738
 5121TIP3    H215328   3.241   2.231   3.806
 5122TIP3   OH215329   7.203   5.939   2.041
 5122TIP3    H115330   7.237   5.854   2.070
 5122TIP3    H215331   7.198   5.991   2.121
 5123TIP3   OH215332   4.307   1.479   0.959
 5123TIP3    H115333   4.373   1.491   1.027
 5123TIP3    H215334   4.338   1.403   0.909
 5124TIP3   OH215335   1.514   6.343   5.814
 5124TIP3    H115336   1.568   6.408   5.770
 5124TIP3    H215337   1.433   6.340   5.762
 5125TIP3   OH215338   2.947   3.569   2.914
 5125TIP3    H115339   2.894   3.599   2.840
 5125TIP3    H215340   2.899   3.598   2.991
 5126TIP3   OH215341   1.961   5.509   1.256
 5126TIP3    H115342   1.926   5.597   1.252
 5126TIP3    H215343   1.949   5.483   1.347
 5127TIP3   OH215344   3.843   6.225   1.725
 5127TIP3    H115345   3.748   6.225   1.718
 5127TIP3    H215346   3.861   6.254   1.814
 5128TIP3   OH215347   1.328   2.848   0.552
 5128TIP3    H115348   1.237   2.876   0.550
 5128TIP3    H215349   1.324   2.756   0.580
 5129TIP3   OH215350   0.878   2.369   5.030
 5129TIP3    H115351   0.945   2.356   4.963
 5129TIP3    H215352   0.805   2.409   4.982
 5130TIP3   OH215353   3.160   3.866   5.780
 5130TIP3    H115354   3.250   3.886   5.754
 5130TIP3    H215355   3.113   3.857   5.696
 5131TIP3   OH215356   3.359   1.979   1.290
 5131TIP3    H115357   3.287   1.975   1.352
 5131TIP3    H215358   3.352   2.066   1.249
 5132TIP3   OH215359   7.135   1.740   2.127
 5132TIP3    H115360   7.135   1.795   2.205
 5132TIP3    H215361   7.192   1.785   2.065
 5133TIP3   OH215362   3.394   0.371   2.483
 5133TIP3    H115363   3.339   0.394   2.559
 5133TIP3    H215364   3.403   0.276   2.488
 5134TIP3   OH215365   0.625   3.916   1.908
 5134TIP3    H115366   0.563   3.846   1.887
 5134TIP3    H215367   0.640   3.961   1.825
 5135TIP3   OH215368   0.150   6.329   2.852
 5135TIP3    H115369   0.095   6.407   2.853
 5135TIP3    H215370   0.092   6.259   2.824
 5136TIP3   OH215371   6.976   0.487   0.591
 5136TIP3    H115372   7.032   0.439   0.651
 5136TIP3    H215373   6.902   0.516   0.645
 5137TIP3   OH215374   0.636   1.856   2.053
 5137TIP3    H115375   0.689   1.777   2.037
 5137TIP3    H215376   0.673   1.922   1.995
 5138TIP3   OH215377   0.963   2.781   5.703
 5138TIP3    H115378   0.871   2.770   5.725
 5138TIP3    H215379   1.009   2.720   5.760
 5139TIP3   OH215380   0.099   2.638   3.603
 5139TIP3    H115381   0.113   2.653   3.696
 5139TIP3    H215382   0.185   2.655   3.563
 5140TIP3   OH215383   3.960   1.750   2.491
 5140TIP3    H115384   3.955   1.662   2.454
 5140TIP3    H215385   4.053   1.773   2.489
 5141TIP3   OH215386   5.560   5.872   3.113
 5141TIP3    H115387   5.533   5.834   3.197
 5141TIP3    H215388   5.641   5.919   3.133
 5142TIP3   OH215389   2.507   3.589   3.033
 5142TIP3    H115390   2.411   3.579   3.034
 5142TIP3    H215391   2.520   3.684   3.028
 5143TIP3   OH215392   0.453   4.741   2.599
 5143TIP3    H115393   0.399   4.673   2.640
 5143TIP3    H215394   0.433   4.735   2.506
 5144TIP3   OH215395   2.337   6.424   4.820
 5144TIP3    H115396   2.426   6.393   4.839
 5144TIP3    H215397   2.338   6.516   4.849
 5145TIP3   OH215398   1.934   0.236   2.333
 5145TIP3    H115399   1.864   0.186   2.289
 5145TIP3    H215400   1.990   0.169   2.372
 5146TIP3   OH215401   7.162   0.615   2.942
 5146TIP3    H115402   7.139   0.610   2.849
 5146TIP3    H215403   7.258   0.622   2.942
 5147TIP3   OH215404   5.308   0.895   2.012
 5147TIP3    H115405   5.316   0.807   1.976
 5147TIP3    H215406   5.370   0.897   2.085
 5148TIP3   OH215407   1.762   3.340   1.907
 5148TIP3    H115408   1.844   3.388   1.901
 5148TIP3    H215409   1.709   3.374   1.835
 5149TIP3   OH215410   1.306   6.719   1.693
 5149TIP3    H115411   1.236   6.676   1.644
 5149TIP3    H215412   1.312   6.670   1.775
 5150TIP3   OH215413   4.091   0.934   4.307
 5150TIP3    H115414   4.070   0.922   4.399
 5150TIP3    H215415   4.095   1.029   4.295
 5151TIP3   OH215416   2.408   1.848   1.144
 5151TIP3    H115417   2.383   1.940   1.155
 5151TIP3    H215418   2.369   1.822   1.060
 5152TIP3   OH215419   3.299   1.062   0.229
 5152TIP3    H115420   3.313   1.100   0.317
 5152TIP3    H215421   3.351   0.983   0.228
 5153TIP3   OH215422   4.225   1.331   4.434
 5153TIP3    H115423   4.190   1.330   4.523
 5153TIP3    H215424   4.317   1.309   4.445
 5154TIP3   OH215425   0.331   0.785   2.555
 5154TIP3    H115426   0.384   0.849   2.506
 5154TIP3    H215427   0.396   0.727   2.595
 5155TIP3   OH215428   2.249   1.685   2.749
 5155TIP3    H115429   2.298   1.635   2.683
 5155TIP3    H215430   2.218   1.762   2.702
 5156TIP3   OH215431   5.127   0.712   2.263
 5156TIP3    H115432   5.187   0.638   2.254
 5156TIP3    H215433   5.183   0.789   2.271
 5157TIP3   OH215434   3.698   0.414   0.853
 5157TIP3    H115435   3.710   0.507   0.877
 5157TIP3    H215436   3.707   0.367   0.935
 5158TIP3   OH215437   5.093   5.948   5.087
 5158TIP3    H115438   5.111   5.866   5.041
 5158TIP3    H215439   5.179   5.985   5.106
 5159TIP3   OH215440   4.468   3.770   3.419
 5159TIP3    H115441   4.523   3.771   3.341
 5159TIP3    H215442   4.426   3.856   3.419
 5160TIP3   OH215443   3.435   5.700   1.091
 5160TIP3    H115444   3.476   5.615   1.075
 5160TIP3    H215445   3.388   5.689   1.174
 5161TIP3   OH215446   1.398   4.628   2.604
 5161TIP3    H115447   1.447   4.653   2.526
 5161TIP3    H215448   1.466   4.611   2.670
 5162TIP3   OH215449   5.835   4.127   2.895
 5162TIP3    H115450   5.875   4.171   2.970
 5162TIP3    H215451   5.908   4.088   2.848
 5163TIP3   OH215452   5.570   2.009   3.940
 5163TIP3    H115453   5.580   2.103   3.924
 5163TIP3    H215454   5.655   1.982   3.976
 5164TIP3   OH215455   3.696   0.188   2.356
 5164TIP3    H115456   3.690   0.147   2.443
 5164TIP3    H215457   3.776   0.153   2.318
 5165TIP3   OH215458   7.071   4.755   2.611
 5165TIP3    H115459   7.085   4.727   2.702
 5165TIP3    H215460   7.154   4.795   2.586
 5166TIP3   OH215461   6.459   1.549   1.038
 5166TIP3    H115462   6.501   1.621   0.989
 5166TIP3    H215463   6.477   1.569   1.130
 5167TIP3   OH215464   0.662   0.867   1.277
 5167TIP3    H115465   0.699   0.942   1.230
 5167TIP3    H215466   0.569   0.885   1.281
 5168TIP3   OH215467   2.167   6.681   0.983
 5168TIP3    H115468   2.243   6.647   0.935
 5168TIP3    H215469   2.097   6.617   0.966
 5169TIP3   OH215470   2.439   1.974   2.685
 5169TIP3    H115471   2.467   1.887   2.711
 5169TIP3    H215472   2.370   1.997   2.748
 5170TIP3   OH215473   1.801   5.191   4.849
 5170TIP3    H115474   1.852   5.219   4.773
 5170TIP3    H215475   1.781   5.273   4.895
 5171TIP3   OH215476   6.636   2.212   0.886
 5171TIP3    H115477   6.618   2.305   0.875
 5171TIP3    H215478   6.726   2.202   0.853
 5172TIP3   OH215479   0.254   5.242   2.762
 5172TIP3    H115480   0.284   5.319   2.714
 5172TIP3    H215481   0.293   5.168   2.716
 5173TIP3   OH215482   1.825   2.220   1.190
 5173TIP3    H115483   1.829   2.316   1.191
 5173TIP3    H215484   1.910   2.193   1.156
 5174TIP3   OH215485   4.507   1.189   4.736
 5174TIP3    H115486   4.585   1.139   4.758
 5174TIP3    H215487   4.525   1.277   4.769
 5175TIP3   OH215488   6.708   5.536   4.999
 5175TIP3    H115489   6.698   5.447   5.032
 5175TIP3    H215490   6.720   5.590   5.078
 5176TIP3   OH215491   5.994   5.273   4.600
 5176TIP3    H115492   5.942   5.215   4.545
 5176TIP3    H215493   5.999   5.228   4.685
 5177TIP3   OH215494   4.888   0.931   1.421
 5177TIP3    H115495   4.946   0.882   1.480
 5177TIP3    H215496   4.913   0.901   1.334
 5178TIP3   OH215497   1.790   6.322   1.452
 5178TIP3    H115498   1.881   6.298   1.437
 5178TIP3    H215499   1.744   6.295   1.373
 5179TIP3   OH215500   5.759   1.975   3.640
 5179TIP3    H115501   5.705   1.940   3.711
 5179TIP3    H215502   5.745   1.914   3.567
 5180TIP3   OH215503   5.490   5.564   2.500
 5180TIP3    H115504   5.558   5.611   2.451
 5180TIP3    H215505   5.473   5.619   2.577
 5181TIP3   OH215506   6.186   0.868   1.556
 5181TIP3    H115507   6.238   0.942   1.590
 5181TIP3    H215508   6.249   0.815   1.508
 5182TIP3   OH215509   5.136   4.146   2.992
 5182TIP3    H115510   5.116   4.217   3.054
 5182TIP3    H215511   5.177   4.191   2.917
 5183TIP3   OH215512   6.517   1.545   0.231
 5183TIP3    H115513   6.490   1.588   0.313
 5183TIP3    H215514   6.438   1.501   0.201
 5184TIP3   OH215515   0.811   1.405   3.040
 5184TIP3    H115516   0.796   1.493   3.003
 5184TIP3    H215517   0.822   1.420   3.133
 5185TIP3   OH215518   1.902   4.542   0.998
 5185TIP3    H115519   1.950   4.616   0.961
 5185TIP3    H215520   1.813   4.552   0.964
 5186TIP3   OH215521   1.597   6.470   1.887
 5186TIP3    H115522   1.597   6.416   1.966
 5186TIP3    H215523   1.672   6.441   1.837
 5187TIP3   OH215524   2.452   1.076   3.312
 5187TIP3    H115525   2.447   1.098   3.219
 5187TIP3    H215526   2.395   1.140   3.355
 5188TIP3   OH215527   4.803   3.092   0.369
 5188TIP3    H115528   4.787   3.095   0.463
 5188TIP3    H215529   4.740   3.028   0.336
 5189TIP3   OH215530   5.809   4.130   4.365
 5189TIP3    H115531   5.775   4.116   4.276
 5189TIP3    H215532   5.761   4.066   4.419
 5190TIP3   OH215533   5.979   1.407   4.976
 5190TIP3    H115534   6.064   1.418   5.017
 5190TIP3    H215535   5.977   1.316   4.946
 5191TIP3   OH215536   4.903   6.745   0.627
 5191TIP3    H115537   4.874   6.716   0.714
 5191TIP3    H215538   4.822   6.765   0.580
 5192TIP3   OH215539   3.997   6.777   1.661
 5192TIP3    H115540   3.944   6.727   1.599
 5192TIP3    H215541   3.938   6.846   1.692
 5193TIP3   OH215542   7.222   4.515   4.774
 5193TIP3    H115543   7.206   4.601   4.813
 5193TIP3    H215544   7.172   4.515   4.693
 5194TIP3   OH215545   3.607   4.619   0.068
 5194TIP3    H115546   3.691   4.573   0.066
 5194TIP3    H215547   3.571   4.608  -0.020
 5195TIP3   OH215548   1.246   2.204   3.999
 5195TIP3    H115549   1.324   2.259   4.006
 5195TIP3    H215550   1.182   2.259   3.953
 5196TIP3   OH215551   6.352   6.559   0.477
 5196TIP3    H115552   6.345   6.654   0.472
 5196TIP3    H215553   6.404   6.543   0.556
 5197TIP3   OH215554   5.917   1.712   3.635
 5197TIP3    H115555   6.009   1.727   3.661
 5197TIP3    H215556   5.880   1.800   3.628
 5198TIP3   OH215557   0.420   0.871   4.961
 5198TIP3    H115558   0.433   0.778   4.941
 5198TIP3    H215559   0.343   0.896   4.909
 5199TIP3   OH215560   1.048   5.828   0.167
 5199TIP3    H115561   1.067   5.735   0.157
 5199TIP3    H215562   1.134   5.870   0.170
 5200TIP3   OH215563   4.732   2.998   3.640
 5200TIP3    H115564   4.786   2.927   3.608
 5200TIP3    H215565   4.647   2.985   3.599
 5201TIP3   OH215566   6.573   2.295   0.157
 5201TIP3    H115567   6.508   2.365   0.164
 5201TIP3    H215568   6.522   2.216   0.139
 5202TIP3   OH215569   2.383   1.563   0.179
 5202TIP3    H115570   2.477   1.558   0.165
 5202TIP3    H215571   2.362   1.485   0.230
 5203TIP3   OH215572   1.532   2.731   3.513
 5203TIP3    H115573   1.551   2.825   3.516
 5203TIP3    H215574   1.549   2.705   3.422
 5204TIP3   OH215575   6.498   2.235   3.520
 5204TIP3    H115576   6.471   2.145   3.538
 5204TIP3    H215577   6.499   2.278   3.605
 5205TIP3   OH215578   5.363   5.123   3.632
 5205TIP3    H115579   5.409   5.049   3.673
 5205TIP3    H215580   5.403   5.129   3.545
 5206TIP3   OH215581   5.199   0.226   1.405
 5206TIP3    H115582   5.268   0.163   1.428
 5206TIP3    H215583   5.131   0.212   1.471
 5207TIP3   OH215584   4.214   4.593   4.973
 5207TIP3    H115585   4.213   4.539   5.052
 5207TIP3    H215586   4.247   4.678   5.003
 5208TIP3   OH215587   4.286   2.688   4.946
 5208TIP3    H115588   4.305   2.606   4.991
 5208TIP3    H215589   4.208   2.721   4.989
 5209TIP3   OH215590   5.416   1.555   2.033
 5209TIP3    H115591   5.445   1.643   2.009
 5209TIP3    H215592   5.460   1.538   2.117
 5210TIP3   OH215593   3.161   4.263   4.793
 5210TIP3    H115594   3.241   4.274   4.844
 5210TIP3    H215595   3.179   4.309   4.711
 5211TIP3   OH215596   3.023   0.273   0.259
 5211TIP3    H115597   3.039   0.276   0.164
 5211TIP3    H215598   3.111   0.273   0.297
 5212TIP3   OH215599   1.676   5.449   4.557
 5212TIP3    H115600   1.673   5.405   4.471
 5212TIP3    H215601   1.765   5.483   4.562
 5213TIP3   OH215602   5.859   6.194   1.936
 5213TIP3    H115603   5.861   6.274   1.988
 5213TIP3    H215604   5.767   6.170   1.931
 5214TIP3   OH215605   1.796   0.492   3.761
 5214TIP3    H115606   1.749   0.531   3.687
 5214TIP3    H215607   1.762   0.403   3.768
 5215TIP3   OH215608   4.871   0.167   3.288
 5215TIP3    H115609   4.826   0.252   3.281
 5215TIP3    H215610   4.894   0.159   3.380
 5216TIP3   OH215611   6.206   6.493   2.946
 5216TIP3    H115612   6.151   6.556   2.991
 5216TIP3    H215613   6.290   6.538   2.935
 5217TIP3   OH215614   0.272   2.783   4.197
 5217TIP3    H115615   0.267   2.852   4.262
 5217TIP3    H215616   0.181   2.761   4.177
 5218TIP3   OH215617   2.303   1.859   2.376
 5218TIP3    H115618   2.385   1.810   2.371
 5218TIP3    H215619   2.313   1.930   2.313
 5219TIP3   OH215620   2.584   4.090   0.617
 5219TIP3    H115621   2.545   4.053   0.697
 5219TIP3    H215622   2.556   4.030   0.548
 5220TIP3   OH215623   1.465   5.111   5.688
 5220TIP3    H115624   1.538   5.149   5.639
 5220TIP3    H215625   1.440   5.179   5.750
 5221TIP3   OH215626   3.271   2.092   2.081
 5221TIP3    H115627   3.349   2.147   2.072
 5221TIP3    H215628   3.280   2.053   2.168
 5222TIP3   OH215629   4.577   0.148   4.755
 5222TIP3    H115630   4.654   0.098   4.728
 5222TIP3    H215631   4.548   0.106   4.836
 5223TIP3   OH215632   1.518   0.659   3.095
 5223TIP3    H115633   1.473   0.706   3.165
 5223TIP3    H215634   1.591   0.615   3.139
 5224TIP3   OH215635   5.660   2.656   5.279
 5224TIP3    H115636   5.672   2.702   5.362
 5224TIP3    H215637   5.749   2.647   5.244
 5225TIP3   OH215638   6.581   0.514   5.773
 5225TIP3    H115639   6.647   0.449   5.800
 5225TIP3    H215640   6.581   0.510   5.678
 5226TIP3   OH215641   2.302   3.199   5.831
 5226TIP3    H115642   2.299   3.174   5.924
 5226TIP3    H215643   2.355   3.130   5.790
 5227TIP3   OH215644   2.403   2.746   1.827
 5227TIP3    H115645   2.336   2.681   1.850
 5227TIP3    H215646   2.480   2.720   1.878
 5228TIP3   OH215647   1.663   5.337   5.468
 5228TIP3    H115648   1.598   5.347   5.399
 5228TIP3    H215649   1.704   5.423   5.475
 5229TIP3   OH215650   0.161   6.284   1.549
 5229TIP3    H115651   0.185   6.192   1.539
 5229TIP3    H215652   0.070   6.288   1.521
 5230TIP3   OH215653   4.580   2.974   4.626
 5230TIP3    H115654   4.523   2.930   4.690
 5230TIP3    H215655   4.541   3.061   4.616
 5231TIP3   OH215656   3.370   2.372   3.544
 5231TIP3    H115657   3.287   2.411   3.520
 5231TIP3    H215658   3.363   2.280   3.515
 5232TIP3   OH215659   4.437   5.046   5.783
 5232TIP3    H115660   4.430   5.124   5.728
 5232TIP3    H215661   4.486   5.075   5.860
 5233TIP3   OH215662   2.044   2.610   1.314
 5233TIP3    H115663   2.102   2.657   1.373
 5233TIP3    H215664   2.028   2.670   1.242
 5234TIP3   OH215665   3.413   4.378   1.579
 5234TIP3    H115666   3.411   4.454   1.521
 5234TIP3    H215667   3.507   4.363   1.594
 5235TIP3   OH215668   6.238   3.080   5.857
 5235TIP3    H115669   6.155   3.127   5.848
 5235TIP3    H215670   6.305   3.147   5.846
 5236TIP3   OH215671   4.266   5.787   1.529
 5236TIP3    H115672   4.285   5.814   1.619
 5236TIP3    H215673   4.352   5.774   1.490
 5237TIP3   OH215674   4.488   1.623   5.263
 5237TIP3    H115675   4.556   1.602   5.327
 5237TIP3    H215676   4.406   1.596   5.306
 5238TIP3   OH215677   6.151   4.944   2.063
 5238TIP3    H115678   6.153   4.989   2.148
 5238TIP3    H215679   6.232   4.893   2.061
 5239TIP3   OH215680   2.126   2.450   0.772
 5239TIP3    H115681   2.140   2.358   0.793
 5239TIP3    H215682   2.150   2.457   0.680
 5240TIP3   OH215683   6.252   4.482   2.953
 5240TIP3    H115684   6.342   4.513   2.967
 5240TIP3    H215685   6.230   4.436   3.034
 5241TIP3   OH215686   4.194   6.372   1.993
 5241TIP3    H115687   4.217   6.464   2.009
 5241TIP3    H215688   4.210   6.329   2.077
 5242TIP3   OH215689   6.404   3.400   1.862
 5242TIP3    H115690   6.339   3.416   1.793
 5242TIP3    H215691   6.381   3.462   1.931
 5243TIP3   OH215692   6.016   2.922   1.158
 5243TIP3    H115693   5.924   2.895   1.155
 5243TIP3    H215694   6.033   2.960   1.072
 5244TIP3   OH215695   3.010   0.360   1.568
 5244TIP3    H115696   3.072   0.312   1.515
 5244TIP3    H215697   3.051   0.365   1.655
 5245TIP3   OH215698   6.820   0.149   1.804
 5245TIP3    H115699   6.909   0.134   1.770
 5245TIP3    H215700   6.766   0.160   1.725
 5246TIP3   OH215701   3.762   6.174   5.452
 5246TIP3    H115702   3.791   6.242   5.392
 5246TIP3    H215703   3.792   6.203   5.538
 5247TIP3   OH215704   1.574   4.904   5.223
 5247TIP3    H115705   1.542   4.979   5.172
 5247TIP3    H215706   1.619   4.944   5.298
 5248TIP3   OH215707   3.805   5.968   0.898
 5248TIP3    H115708   3.761   5.937   0.977
 5248TIP3    H215709   3.894   5.935   0.906
 5249TIP3   OH215710   3.761   3.241   5.585
 5249TIP3    H115711   3.818   3.179   5.631
 5249TIP3    H215712   3.758   3.209   5.495
 5250TIP3   OH215713   5.538   0.061   5.127
 5250TIP3    H115714   5.522  -0.003   5.195
 5250TIP3    H215715   5.617   0.107   5.154
 5251TIP3   OH215716   0.634   3.927   0.129
 5251TIP3    H115717   0.694   3.909   0.202
 5251TIP3    H215718   0.550   3.946   0.171
 5252TIP3   OH215719   6.167   1.566   5.474
 5252TIP3    H115720   6.160   1.616   5.556
 5252TIP3    H215721   6.078   1.568   5.438
 5253TIP3   OH215722   2.073   5.482   2.909
 5253TIP3    H115723   2.163   5.461   2.884
 5253TIP3    H215724   2.038   5.401   2.946
 5254TIP3   OH215725   2.277   6.286   4.379
 5254TIP3    H115726   2.201   6.232   4.357
 5254TIP3    H215727   2.246   6.376   4.370
 5255TIP3   OH215728   0.435   4.433   2.604
 5255TIP3    H115729   0.512   4.423   2.549
 5255TIP3    H215730   0.469   4.461   2.689
 5256TIP3   OH215731   0.905   5.988   3.385
 5256TIP3    H115732   0.917   5.903   3.427
 5256TIP3    H215733   0.991   6.010   3.350
 5257TIP3   OH215734   4.769   5.409   4.150
 5257TIP3    H115735   4.720   5.350   4.207
 5257TIP3    H215736   4.788   5.486   4.204
 5258TIP3   OH215737   1.691   2.159   4.756
 5258TIP3    H115738   1.734   2.215   4.691
 5258TIP3    H215739   1.762   2.107   4.793
 5259TIP3   OH215740   3.825   6.473   1.116
 5259TIP3    H115741   3.909   6.489   1.072
 5259TIP3    H215742   3.843   6.403   1.179
 5260TIP3   OH215743   5.146   6.322   2.775
 5260TIP3    H115744   5.095   6.305   2.854
 5260TIP3    H215745   5.128   6.414   2.755
 5261TIP3   OH215746   4.825   1.101   4.025
 5261TIP3    H115747   4.773   1.166   4.071
 5261TIP3    H215748   4.846   1.143   3.941
 5262TIP3   OH215749   4.177   2.322   0.277
 5262TIP3    H115750   4.235   2.262   0.228
 5262TIP3    H215751   4.123   2.363   0.210
 5263TIP3   OH215752   0.656   1.443   0.607
 5263TIP3    H115753   0.614   1.388   0.542
 5263TIP3    H215754   0.615   1.529   0.597
 5264TIP3   OH215755   0.313   3.390   4.963
 5264TIP3    H115756   0.263   3.328   5.016
 5264TIP3    H215757   0.247   3.434   4.910
 5265TIP3   OH215758   5.091   4.318   1.796
 5265TIP3    H115759   5.022   4.276   1.744
 5265TIP3    H215760   5.154   4.248   1.813
 5266TIP3   OH215761   1.114   4.458   4.789
 5266TIP3    H115762   1.078   4.545   4.770
 5266TIP3    H215763   1.164   4.471   4.870
 5267TIP3   OH215764   0.476   2.333   5.354
 5267TIP3    H115765   0.514   2.271   5.292
 5267TIP3    H215766   0.533   2.329   5.430
 5268TIP3   OH215767   0.083   6.623   3.496
 5268TIP3    H115768   0.040   6.704   3.469
 5268TIP3    H215769   0.039   6.555   3.445
 5269TIP3   OH215770   6.378   2.817   4.238
 5269TIP3    H115771   6.448   2.754   4.221
 5269TIP3    H215772   6.411   2.870   4.310
 5270TIP3   OH215773   1.682   6.449   0.157
 5270TIP3    H115774   1.598   6.480   0.191
 5270TIP3    H215775   1.691   6.493   0.072
 5271TIP3   OH215776   5.660   0.440   0.978
 5271TIP3    H115777   5.609   0.463   1.056
 5271TIP3    H215778   5.745   0.411   1.012
 5272TIP3   OH215779   3.187   4.761   3.553
 5272TIP3    H115780   3.240   4.681   3.547
 5272TIP3    H215781   3.140   4.752   3.636
 5273TIP3   OH215782   6.997   0.372   1.959
 5273TIP3    H115783   7.018   0.308   1.892
 5273TIP3    H215784   7.081   0.411   1.982
 5274TIP3   OH215785   1.766   2.362   3.800
 5274TIP3    H115786   1.852   2.387   3.835
 5274TIP3    H215787   1.736   2.440   3.753
 5275TIP3   OH215788   2.636   3.870   1.844
 5275TIP3    H115789   2.664   3.794   1.896
 5275TIP3    H215790   2.589   3.833   1.770
 5276TIP3   OH215791   4.244   4.457   2.784
 5276TIP3    H115792   4.303   4.474   2.857
 5276TIP3    H215793   4.288   4.390   2.732
 5277TIP3   OH215794   6.744   3.464   0.952
 5277TIP3    H115795   6.714   3.432   0.867
 5277TIP3    H215796   6.720   3.395   1.014
 5278TIP3   OH215797   2.881   4.567   2.944
 5278TIP3    H115798   2.937   4.601   2.875
 5278TIP3    H215799   2.893   4.628   3.017
 5279TIP3   OH215800   5.216   6.577   5.234
 5279TIP3    H115801   5.127   6.604   5.259
 5279TIP3    H215802   5.271   6.606   5.307
 5280TIP3   OH215803   1.045   3.069   1.815
 5280TIP3    H115804   0.953   3.044   1.808
 5280TIP3    H215805   1.043   3.166   1.809
 5281TIP3   OH215806   6.125   3.091   0.917
 5281TIP3    H115807   6.094   3.061   0.831
 5281TIP3    H215808   6.077   3.172   0.932
 5282TIP3   OH215809   2.611   4.484   4.618
 5282TIP3    H115810   2.671   4.558   4.612
 5282TIP3    H215811   2.532   4.521   4.658
 5283TIP3   OH215812   2.044   6.034   2.153
 5283TIP3    H115813   2.091   6.033   2.235
 5283TIP3    H215814   1.969   6.091   2.169
 5284TIP3   OH215815   5.867   6.364   0.905
 5284TIP3    H115816   5.878   6.370   0.810
 5284TIP3    H215817   5.804   6.432   0.927
 5285TIP3   OH215818   1.106   2.283   4.851
 5285TIP3    H115819   1.134   2.228   4.777
 5285TIP3    H215820   1.070   2.362   4.809
 5286TIP3   OH215821   2.881   4.672   3.215
 5286TIP3    H115822   2.846   4.732   3.281
 5286TIP3    H215823   2.937   4.612   3.263
 5287TIP3   OH215824   3.839   2.381   4.616
 5287TIP3    H115825   3.899   2.431   4.561
 5287TIP3    H215826   3.872   2.291   4.611
 5288TIP3   OH215827   1.881   2.699   2.132
 5288TIP3    H115828   1.915   2.786   2.150
 5288TIP3    H215829   1.794   2.714   2.096
 5289TIP3   OH215830   1.261   5.916   2.934
 5289TIP3    H115831   1.216   5.833   2.954
 5289TIP3    H215832   1.196   5.983   2.951
 5290TIP3   OH215833   3.707   5.202   4.936
 5290TIP3    H115834   3.680   5.173   4.849
 5290TIP3    H215835   3.667   5.288   4.947
 5291TIP3   OH215836   6.586   6.487   2.209
 5291TIP3    H115837   6.531   6.556   2.247
 5291TIP3    H215838   6.662   6.534   2.173
 5292TIP3   OH215839   5.626   6.554   0.487
 5292TIP3    H115840   5.601   6.606   0.411
 5292TIP3    H215841   5.584   6.597   0.561
 5293TIP3   OH215842   7.087   5.185   4.438
 5293TIP3    H115843   7.135   5.218   4.362
 5293TIP3    H215844   7.000   5.222   4.429
 5294TIP3   OH215845   4.458   1.924   0.092
 5294TIP3    H115846   4.412   1.866   0.152
 5294TIP3    H215847   4.547   1.928   0.126
 5295TIP3   OH215848   5.813   3.519   2.357
 5295TIP3    H115849   5.855   3.577   2.294
 5295TIP3    H215850   5.728   3.499   2.319
 5296TIP3   OH215851   2.938   5.133   4.428
 5296TIP3    H115852   3.023   5.126   4.384
 5296TIP3    H215853   2.957   5.175   4.512
 5297TIP3   OH215854   1.031   3.295   0.091
 5297TIP3    H115855   0.953   3.301   0.146
 5297TIP3    H215856   1.014   3.220   0.033
 5298TIP3   OH215857   3.234   2.610   4.086
 5298TIP3    H115858   3.167   2.672   4.056
 5298TIP3    H215859   3.292   2.600   4.011
 5299TIP3   OH215860   2.132   1.463   0.676
 5299TIP3    H115861   2.152   1.415   0.596
 5299TIP3    H215862   2.053   1.422   0.710
 5300TIP3   OH215863   5.345   6.001   3.460
 5300TIP3    H115864   5.399   5.923   3.446
 5300TIP3    H215865   5.260   5.979   3.422
 5301TIP3   OH215866   2.077   6.536   2.435
 5301TIP3    H115867   2.065   6.441   2.434
 5301TIP3    H215868   2.084   6.558   2.528
 5302TIP3   OH215869   4.957   2.860   4.924
 5302TIP3    H115870   4.992   2.933   4.974
 5302TIP3    H215871   4.887   2.824   4.979
 5303TIP3   OH215872   3.247   1.605   4.853
 5303TIP3    H115873   3.229   1.530   4.796
 5303TIP3    H215874   3.179   1.669   4.830
 5304TIP3   OH215875   4.910   2.755   2.461
 5304TIP3    H115876   4.820   2.780   2.482
 5304TIP3    H215877   4.921   2.779   2.369
 5305TIP3   OH215878   2.772   1.838   4.104
 5305TIP3    H115879   2.738   1.785   4.175
 5305TIP3    H215880   2.796   1.921   4.145
 5306TIP3   OH215881   3.556   1.355   5.199
 5306TIP3    H115882   3.533   1.388   5.286
 5306TIP3    H215883   3.580   1.263   5.214
 5307TIP3   OH215884   4.261   5.974   0.721
 5307TIP3    H115885   4.204   6.011   0.654
 5307TIP3    H215886   4.280   6.047   0.780
 5308TIP3   OH215887   4.941   3.964   1.653
 5308TIP3    H115888   4.885   4.035   1.684
 5308TIP3    H215889   4.938   3.970   1.558
 5309TIP3   OH215890   5.330   2.512   5.720
 5309TIP3    H115891   5.236   2.511   5.705
 5309TIP3    H215892   5.356   2.603   5.708
 5310TIP3   OH215893   2.836   6.773   2.287
 5310TIP3    H115894   2.804   6.793   2.375
 5310TIP3    H215895   2.931   6.784   2.293
 5311TIP3   OH215896   3.537   6.320   0.288
 5311TIP3    H115897   3.471   6.250   0.288
 5311TIP3    H215898   3.522   6.366   0.206
 5312TIP3   OH215899   0.383   3.120   2.914
 5312TIP3    H115900   0.389   3.084   3.003
 5312TIP3    H215901   0.303   3.173   2.916
 5313TIP3   OH215902   7.073   5.781   1.859
 5313TIP3    H115903   7.064   5.693   1.895
 5313TIP3    H215904   7.102   5.835   1.932
 5314TIP3   OH215905   1.090   2.227   1.965
 5314TIP3    H115906   1.004   2.257   1.995
 5314TIP3    H215907   1.153   2.272   2.023
 5315TIP3   OH215908   1.959   4.956   4.315
 5315TIP3    H115909   2.034   4.921   4.268
 5315TIP3    H215910   1.990   5.040   4.351
 5316TIP3   OH215911   5.317   6.354   0.248
 5316TIP3    H115912   5.366   6.434   0.227
 5316TIP3    H215913   5.226   6.376   0.227
 5317TIP3   OH215914   0.587   0.279   4.294
 5317TIP3    H115915   0.590   0.334   4.216
 5317TIP3    H215916   0.585   0.340   4.367
 5318TIP3   OH215917   4.024   5.567   5.204
 5318TIP3    H115918   4.084   5.640   5.215
 5318TIP3    H215919   3.940   5.607   5.181
 5319TIP3   OH215920   2.529   1.351   3.721
 5319TIP3    H115921   2.532   1.446   3.720
 5319TIP3    H215922   2.515   1.327   3.629
 5320TIP3   OH215923   1.610   5.841   3.527
 5320TIP3    H115924   1.619   5.777   3.457
 5320TIP3    H215925   1.594   5.924   3.481
 5321TIP3   OH215926   2.888   4.625   1.675
 5321TIP3    H115927   2.913   4.539   1.641
 5321TIP3    H215928   2.906   4.686   1.603
 5322TIP3   OH215929   7.014   0.969   4.353
 5322TIP3    H115930   7.031   1.051   4.399
 5322TIP3    H215931   6.992   0.907   4.422
 5323TIP3   OH215932   0.518   3.818   1.550
 5323TIP3    H115933   0.535   3.899   1.597
 5323TIP3    H215934   0.573   3.823   1.472
 5324TIP3   OH215935   2.343   5.518   5.798
 5324TIP3    H115936   2.420   5.486   5.844
 5324TIP3    H215937   2.344   5.613   5.810
 5325TIP3   OH215938   5.071   4.048   3.474
 5325TIP3    H115939   5.049   3.956   3.489
 5325TIP3    H215940   5.022   4.073   3.395
 5326TIP3   OH215941   2.996   6.445   3.183
 5326TIP3    H115942   2.970   6.364   3.140
 5326TIP3    H215943   2.922   6.469   3.237
 5327TIP3   OH215944   3.729   5.034   4.089
 5327TIP3    H115945   3.712   5.002   4.000
 5327TIP3    H215946   3.763   5.122   4.076
 5328TIP3   OH215947   1.635   2.607   0.243
 5328TIP3    H115948   1.551   2.571   0.214
 5328TIP3    H215949   1.697   2.535   0.234
 5329TIP3   OH215950   5.095   0.227   1.663
 5329TIP3    H115951   5.019   0.263   1.708
 5329TIP3    H215952   5.141   0.178   1.731
 5330TIP3   OH215953   3.492   0.457   3.129
 5330TIP3    H115954   3.430   0.386   3.113
 5330TIP3    H215955   3.510   0.492   3.042
 5331TIP3   OH215956   3.103   1.905   1.981
 5331TIP3    H115957   3.112   1.940   1.893
 5331TIP3    H215958   3.161   1.960   2.034
 5332TIP3   OH215959   4.052   0.835   2.742
 5332TIP3    H115960   4.142   0.799   2.740
 5332TIP3    H215961   4.010   0.795   2.665
 5333TIP3   OH215962   4.359   5.268   4.215
 5333TIP3    H115963   4.402   5.261   4.301
 5333TIP3    H215964   4.385   5.188   4.169
 5334TIP3   OH215965   4.706   5.475   4.685
 5334TIP3    H115966   4.745   5.523   4.612
 5334TIP3    H215967   4.611   5.480   4.668
 5335TIP3   OH215968   4.790   1.408   3.368
 5335TIP3    H115969   4.807   1.390   3.460
 5335TIP3    H215970   4.798   1.323   3.324
 5336TIP3   OH215971   3.437   2.447   1.630
 5336TIP3    H115972   3.505   2.506   1.596
 5336TIP3    H215973   3.472   2.359   1.617
 5337TIP3   OH215974   5.104   4.358   3.146
 5337TIP3    H115975   5.176   4.406   3.188
 5337TIP3    H215976   5.028   4.375   3.201
 5338TIP3   OH215977   3.706   0.772   3.230
 5338TIP3    H115978   3.668   0.742   3.312
 5338TIP3    H215979   3.634   0.817   3.185
 5339TIP3   OH215980   3.567   6.778   4.098
 5339TIP3    H115981   3.528   6.861   4.126
 5339TIP3    H215982   3.549   6.717   4.170
 5340TIP3   OH215983   1.307   1.627   0.203
 5340TIP3    H115984   1.334   1.552   0.256
 5340TIP3    H215985   1.359   1.700   0.237
 5341TIP3   OH215986   0.187   4.932   4.381
 5341TIP3    H115987   0.233   4.848   4.390
 5341TIP3    H215988   0.250   4.989   4.336
 5342TIP3   OH215989   2.278   0.770   5.867
 5342TIP3    H115990   2.256   0.759   5.774
 5342TIP3    H215991   2.208   0.723   5.913
 5343TIP3   OH215992   6.329   3.579   2.055
 5343TIP3    H115993   6.248   3.625   2.034
 5343TIP3    H215994   6.397   3.630   2.011
 5344TIP3   OH215995   4.131   2.513   4.784
 5344TIP3    H115996   4.043   2.545   4.804
 5344TIP3    H215997   4.186   2.592   4.788
 5345TIP3   OH215998   1.089   3.098   3.053
 5345TIP3    H115999   1.061   3.176   3.101
 5345TIP3    H216000   1.062   3.023   3.108
 5346TIP3   OH216001   1.434   5.028   3.390
 5346TIP3    H116002   1.526   5.029   3.364
 5346TIP3    H216003   1.420   4.939   3.424
 5347TIP3   OH216004   4.623   2.212   0.216
 5347TIP3    H116005   4.661   2.210   0.304
 5347TIP3    H216006   4.696   2.187   0.158
 5348TIP3   OH216007   5.510   0.421   5.775
 5348TIP3    H116008   5.465   0.491   5.728
 5348TIP3    H216009   5.527   0.457   5.862
 5349TIP3   OH216010   0.334   0.404   1.950
 5349TIP3    H116011   0.317   0.337   1.885
 5349TIP3    H216012   0.291   0.483   1.916
 5350TIP3   OH216013   0.340   6.527   2.654
 5350TIP3    H116014   0.383   6.508   2.570
 5350TIP3    H216015   0.362   6.619   2.670
 5351TIP3   OH216016   0.308   0.367   4.209
 5351TIP3    H116017   0.358   0.313   4.270
 5351TIP3    H216018   0.331   0.334   4.123
 5352TIP3   OH216019   2.277   3.218   3.217
 5352TIP3    H116020   2.367   3.227   3.248
 5352TIP3    H216021   2.281   3.239   3.124
 5353TIP3   OH216022   4.202   1.202   3.397
 5353TIP3    H116023   4.167   1.282   3.436
 5353TIP3    H216024   4.297   1.212   3.403
 5354TIP3   OH216025   0.917   0.930   3.057
 5354TIP3    H116026   0.864   0.860   3.019
 5354TIP3    H216027   0.999   0.927   3.009
 5355TIP3   OH216028   1.262   3.844   3.014
 5355TIP3    H116029   1.330   3.911   3.011
 5355TIP3    H216030   1.285   3.783   2.944
 5356TIP3   OH216031   2.602   6.805   2.148
 5356TIP3    H116032   2.692   6.797   2.179
 5356TIP3    H216033   2.559   6.726   2.179
 5357TIP3   OH216034   4.835   3.426   5.356
 5357TIP3    H116035   4.883   3.345   5.342
 5357TIP3    H216036   4.743   3.399   5.362
 5358TIP3   OH216037   2.093   5.599   1.775
 5358TIP3    H116038   2.154   5.641   1.836
 5358TIP3    H216039   2.095   5.506   1.799
 5359TIP3   OH216040   2.225   3.036   4.635
 5359TIP3    H116041   2.162   3.025   4.564
 5359TIP3    H216042   2.249   2.946   4.659
 5360TIP3   OH216043   4.724   0.118   2.692
 5360TIP3    H116044   4.762   0.033   2.670
 5360TIP3    H216045   4.800   0.176   2.701
 5361TIP3   OH216046   6.193   0.705   5.463
 5361TIP3    H116047   6.206   0.737   5.374
 5361TIP3    H216048   6.102   0.677   5.466
 5362TIP3   OH216049   0.206   0.920   5.391
 5362TIP3    H116050   0.184   0.994   5.447
 5362TIP3    H216051   0.288   0.945   5.348
 5363TIP3   OH216052   6.946   5.558   2.434
 5363TIP3    H116053   6.860   5.599   2.435
 5363TIP3    H216054   6.997   5.608   2.498
 5364TIP3   OH216055   6.486   4.590   0.428
 5364TIP3    H116056   6.504   4.528   0.358
 5364TIP3    H216057   6.402   4.630   0.404
 5365TIP3   OH216058   5.205   1.703  -0.003
 5365TIP3    H116059   5.130   1.652   0.026
 5365TIP3    H216060   5.188   1.792   0.028
 5366TIP3   OH216061   5.529   2.223   4.319
 5366TIP3    H116062   5.529   2.285   4.392
 5366TIP3    H216063   5.604   2.166   4.336
 5367TIP3   OH216064   5.749   1.098   5.033
 5367TIP3    H116065   5.696   1.018   5.025
 5367TIP3    H216066   5.741   1.140   4.948
 5368TIP3   OH216067   4.291   0.663   5.847
 5368TIP3    H116068   4.341   0.708   5.915
 5368TIP3    H216069   4.236   0.601   5.895
 5369TIP3   OH216070   4.534   4.265   5.040
 5369TIP3    H116071   4.566   4.355   5.053
 5369TIP3    H216072   4.459   4.275   4.981
 5370TIP3   OH216073   1.482   1.376   0.601
 5370TIP3    H116074   1.449   1.455   0.645
 5370TIP3    H216075   1.503   1.316   0.672
 5371TIP3   OH216076   0.614   5.078   5.384
 5371TIP3    H116077   0.623   5.141   5.312
 5371TIP3    H216078   0.521   5.081   5.406
 5372TIP3   OH216079   2.433   6.347   3.971
 5372TIP3    H116080   2.499   6.329   4.038
 5372TIP3    H216081   2.477   6.405   3.909
 5373TIP3   OH216082   0.275   2.243   3.240
 5373TIP3    H116083   0.363   2.237   3.204
 5373TIP3    H216084   0.218   2.228   3.165
 5374TIP3   OH216085   5.859   4.002   5.530
 5374TIP3    H116086   5.941   4.026   5.573
 5374TIP3    H216087   5.873   4.024   5.438
 5375TIP3   OH216088   0.829   5.265   1.665
 5375TIP3    H116089   0.858   5.349   1.700
 5375TIP3    H216090   0.734   5.267   1.674
 5376TIP3   OH216091   0.534   2.545   2.551
 5376TIP3    H116092   0.621   2.554   2.590
 5376TIP3    H216093   0.529   2.453   2.523
 5377TIP3   OH216094   6.058   3.109   5.161
 5377TIP3    H116095   5.979   3.061   5.188
 5377TIP3    H216096   6.112   3.113   5.240
 5378TIP3   OH216097   1.463   5.318   3.487
 5378TIP3    H116098   1.444   5.224   3.489
 5378TIP3    H216099   1.418   5.354   3.563
 5379TIP3   OH216100   7.020   3.372   3.200
 5379TIP3    H116101   7.085   3.419   3.148
 5379TIP3    H216102   7.072   3.312   3.256
 5380TIP3   OH216103   6.566   5.367   2.110
 5380TIP3    H116104   6.607   5.308   2.174
 5380TIP3    H216105   6.621   5.359   2.032
 5381TIP3   OH216106   4.658   1.002   4.855
 5381TIP3    H116107   4.740   0.965   4.821
 5381TIP3    H216108   4.601   0.926   4.867
 5382TIP3   OH216109   3.112   5.176   3.365
 5382TIP3    H116110   3.110   5.105   3.301
 5382TIP3    H216111   3.138   5.134   3.447
 5383TIP3   OH216112   0.748   5.185   4.247
 5383TIP3    H116113   0.662   5.180   4.205
 5383TIP3    H216114   0.776   5.275   4.234
 5384TIP3   OH216115   2.904   5.360   2.433
 5384TIP3    H116116   2.950   5.380   2.351
 5384TIP3    H216117   2.956   5.292   2.474
 5385TIP3   OH216118   5.215   3.095   1.539
 5385TIP3    H116119   5.166   3.065   1.615
 5385TIP3    H216120   5.189   3.188   1.529
 5386TIP3   OH216121   0.550   6.670   2.053
 5386TIP3    H116122   0.489   6.598   2.070
 5386TIP3    H216123   0.494   6.747   2.042
 5387TIP3   OH216124   3.812   3.488   5.031
 5387TIP3    H116125   3.895   3.464   5.072
 5387TIP3    H216126   3.799   3.421   4.963
 5388TIP3   OH216127   5.666   6.610   4.572
 5388TIP3    H116128   5.728   6.614   4.500
 5388TIP3    H216129   5.706   6.549   4.634
 5389TIP3   OH216130   6.274   2.610   1.682
 5389TIP3    H116131   6.270   2.534   1.740
 5389TIP3    H216132   6.189   2.613   1.638
 5390TIP3   OH216133   2.842   6.700   3.955
 5390TIP3    H116134   2.920   6.672   4.003
 5390TIP3    H216135   2.820   6.625   3.899
 5391TIP3   OH216136   6.146   5.137   3.640
 5391TIP3    H116137   6.174   5.046   3.632
 5391TIP3    H216138   6.227   5.187   3.646
 5392TIP3   OH216139   0.810   5.316   3.569
 5392TIP3    H116140   0.814   5.245   3.633
 5392TIP3    H216141   0.797   5.395   3.621
 5393TIP3   OH216142   2.671   2.210   1.442
 5393TIP3    H116143   2.646   2.293   1.403
 5393TIP3    H216144   2.624   2.207   1.525
 5394TIP3   OH216145   1.880   2.293   1.495
 5394TIP3    H116146   1.901   2.218   1.441
 5394TIP3    H216147   1.836   2.354   1.436
 5395TIP3   OH216148   0.842   3.839   2.043
 5395TIP3    H116149   0.750   3.846   2.017
 5395TIP3    H216150   0.846   3.876   2.131
 5396TIP3   OH216151   6.311   6.690   0.867
 5396TIP3    H116152   6.251   6.652   0.802
 5396TIP3    H216153   6.397   6.688   0.824
 5397TIP3   OH216154   5.496   2.391   1.541
 5397TIP3    H116155   5.492   2.378   1.446
 5397TIP3    H216156   5.476   2.306   1.579
 5398TIP3   OH216157   2.650   3.865   3.874
 5398TIP3    H116158   2.664   3.959   3.882
 5398TIP3    H216159   2.734   3.826   3.895
 5399TIP3   OH216160   3.534   4.436   3.347
 5399TIP3    H116161   3.471   4.402   3.284
 5399TIP3    H216162   3.619   4.401   3.319
 5400TIP3   OH216163   1.736   2.396   0.131
 5400TIP3    H116164   1.681   2.363   0.060
 5400TIP3    H216165   1.814   2.430   0.087
 5401TIP3   OH216166   0.500   5.682   4.500
 5401TIP3    H116167   0.560   5.678   4.426
 5401TIP3    H216168   0.434   5.747   4.474
 5402TIP3   OH216169   0.366   4.441   5.301
 5402TIP3    H116170   0.438   4.378   5.299
 5402TIP3    H216171   0.300   4.405   5.241
 5403TIP3   OH216172   1.740   6.491   2.229
 5403TIP3    H116173   1.779   6.430   2.168
 5403TIP3    H216174   1.803   6.563   2.236
 5404TIP3   OH216175   1.092   5.602   2.237
 5404TIP3    H116176   1.040   5.679   2.215
 5404TIP3    H216177   1.030   5.543   2.281
 5405TIP3   OH216178   2.781   0.324   2.110
 5405TIP3    H116179   2.703   0.281   2.074
 5405TIP3    H216180   2.807   0.388   2.044
 5406TIP3   OH216181   5.496   3.958   4.770
 5406TIP3    H116182   5.476   4.048   4.796
 5406TIP3    H216183   5.479   3.906   4.849
 5407TIP3   OH216184   2.142   6.622   4.649
 5407TIP3    H116185   2.234   6.649   4.657
 5407TIP3    H216186   2.098   6.698   4.612
 5408TIP3   OH216187   1.044   0.012   1.004
 5408TIP3    H116188   1.131   0.029   0.969
 5408TIP3    H216189   0.994   0.091   0.985
 5409TIP3   OH216190   5.046   3.115   2.241
 5409TIP3    H116191   5.074   3.207   2.235
 5409TIP3    H216192   4.995   3.111   2.322
 5410TIP3   OH216193   2.997   1.056   1.429
 5410TIP3    H116194   2.954   0.979   1.392
 5410TIP3    H216195   2.995   1.121   1.359
 5411TIP3   OH216196   6.480   2.031   0.054
 5411TIP3    H116197   6.526   2.049  -0.027
 5411TIP3    H216198   6.537   1.969   0.101
 5412TIP3   OH216199   2.542   1.712   2.406
 5412TIP3    H116200   2.554   1.749   2.493
 5412TIP3    H216201   2.548   1.618   2.419
 5413TIP3   OH216202   4.563   2.759   1.183
 5413TIP3    H116203   4.647   2.786   1.219
 5413TIP3    H216204   4.542   2.826   1.118
 5414TIP3   OH216205   1.868   2.188   2.993
 5414TIP3    H116206   1.857   2.207   3.086
 5414TIP3    H216207   1.938   2.247   2.965
 5415TIP3   OH216208   7.000   0.727   2.218
 5415TIP3    H116209   6.980   0.637   2.190
 5415TIP3    H216210   6.915   0.763   2.242
 5416TIP3   OH216211   7.201   4.269   3.825
 5416TIP3    H116212   7.283   4.241   3.866
 5416TIP3    H216213   7.177   4.196   3.768
 5417TIP3   OH216214   1.520   4.898   5.851
 5417TIP3    H116215   1.501   4.974   5.796
 5417TIP3    H216216   1.494   4.925   5.939
 5418TIP3   OH216217   5.644   5.859   2.382
 5418TIP3    H116218   5.692   5.826   2.305
 5418TIP3    H216219   5.553   5.862   2.354
 5419TIP3   OH216220   2.596   1.143   5.346
 5419TIP3    H116221   2.573   1.052   5.329
 5419TIP3    H216222   2.649   1.168   5.270
 5420TIP3   OH216223   5.926   3.233   2.468
 5420TIP3    H116224   5.934   3.316   2.420
 5420TIP3    H216225   5.832   3.222   2.483
 5421TIP3   OH216226   3.411   6.352   1.143
 5421TIP3    H116227   3.350   6.319   1.076
 5421TIP3    H216228   3.495   6.359   1.098
 5422TIP3   OH216229   0.397   1.047   4.278
 5422TIP3    H116230   0.417   1.002   4.196
 5422TIP3    H216231   0.343   0.984   4.327
 5423TIP3   OH216232   3.707   6.465   4.198
 5423TIP3    H116233   3.682   6.425   4.115
 5423TIP3    H216234   3.780   6.523   4.176
 5424TIP3   OH216235   3.328   3.117   2.512
 5424TIP3    H116236   3.333   3.136   2.418
 5424TIP3    H216237   3.294   3.028   2.517
 5425TIP3   OH216238   0.985   2.909   3.252
 5425TIP3    H116239   1.040   2.842   3.211
 5425TIP3    H216240   0.911   2.919   3.193
 5426TIP3   OH216241   6.073   4.011   0.107
 5426TIP3    H116242   6.058   3.921   0.077
 5426TIP3    H216243   6.157   4.034   0.069
 5427TIP3   OH216244   4.368   2.463   2.189
 5427TIP3    H116245   4.320   2.506   2.118
 5427TIP3    H216246   4.443   2.520   2.206
 5428TIP3   OH216247   2.881   2.605   2.068
 5428TIP3    H116248   2.872   2.513   2.041
 5428TIP3    H216249   2.940   2.643   2.003
 5429TIP3   OH216250   3.535   6.620   4.342
 5429TIP3    H116251   3.610   6.580   4.298
 5429TIP3    H216252   3.570   6.650   4.426
 5430TIP3   OH216253   6.910   4.720   5.293
 5430TIP3    H116254   6.818   4.732   5.319
 5430TIP3    H216255   6.909   4.729   5.198
 5431TIP3   OH216256   0.064   0.215   1.966
 5431TIP3    H116257   0.034   0.273   2.035
 5431TIP3    H216258   0.094   0.273   1.897
 5432TIP3   OH216259   4.662   3.190   3.346
 5432TIP3    H116260   4.756   3.178   3.343
 5432TIP3    H216261   4.625   3.108   3.313
 5433TIP3   OH216262   6.914   5.529   1.584
 5433TIP3    H116263   6.889   5.570   1.667
 5433TIP3    H216264   6.869   5.444   1.585
 5434TIP3   OH216265   0.209   4.269   3.120
 5434TIP3    H116266   0.212   4.278   3.215
 5434TIP3    H216267   0.280   4.208   3.099
 5435TIP3   OH216268   6.507   2.962   3.116
 5435TIP3    H116269   6.520   3.049   3.080
 5435TIP3    H216270   6.472   2.977   3.204
 5436TIP3   OH216271   1.355   1.978   2.012
 5436TIP3    H116272   1.442   1.967   2.052
 5436TIP3    H216273   1.307   2.034   2.074
 5437TIP3   OH216274   2.653   5.333   1.891
 5437TIP3    H116275   2.669   5.425   1.870
 5437TIP3    H216276   2.559   5.326   1.902
 5438TIP3   OH216277   0.584   4.449   2.247
 5438TIP3    H116278   0.641   4.508   2.197
 5438TIP3    H216279   0.639   4.418   2.319
 5439TIP3   OH216280   1.072   0.101   3.511
 5439TIP3    H116281   1.008   0.117   3.580
 5439TIP3    H216282   1.157   0.111   3.554
 5440TIP3   OH216283   6.216   0.769   4.066
 5440TIP3    H116284   6.158   0.837   4.102
 5440TIP3    H216285   6.302   0.789   4.102
 5441TIP3   OH216286   6.025   6.023   2.087
 5441TIP3    H116287   6.087   6.073   2.140
 5441TIP3    H216288   5.974   6.090   2.040
 5442TIP3   OH216289   1.353   6.043   3.967
 5442TIP3    H116290   1.420   6.112   3.974
 5442TIP3    H216291   1.288   6.079   3.906
 5443TIP3   OH216292   2.280   0.853   4.764
 5443TIP3    H116293   2.267   0.821   4.674
 5443TIP3    H216294   2.374   0.839   4.780
 5444TIP3   OH216295   1.899   2.928   0.158
 5444TIP3    H116296   1.914   3.023   0.158
 5444TIP3    H216297   1.818   2.917   0.208
 5445TIP3   OH216298   2.065   6.522   3.658
 5445TIP3    H116299   2.139   6.492   3.606
 5445TIP3    H216300   2.023   6.589   3.605
 5446TIP3   OH216301   4.758   5.520   1.898
 5446TIP3    H116302   4.695   5.520   1.970
 5446TIP3    H216303   4.838   5.554   1.937
 5447TIP3   OH216304   4.380   4.047   3.434
 5447TIP3    H116305   4.340   4.079   3.515
 5447TIP3    H216306   4.453   4.106   3.417
 5448TIP3   OH216307   2.901   0.969   0.466
 5448TIP3    H116308   2.996   0.980   0.470
 5448TIP3    H216309   2.868   1.016   0.541
 5449TIP3   OH216310   5.072   4.509   5.388
 5449TIP3    H116311   4.991   4.474   5.424
 5449TIP3    H216312   5.093   4.584   5.444
 5450TIP3   OH216313   6.304   1.965   4.606
 5450TIP3    H116314   6.278   1.918   4.686
 5450TIP3    H216315   6.362   2.035   4.637
 5451TIP3   OH216316   1.680   0.228   4.013
 5451TIP3    H116317   1.753   0.279   4.049
 5451TIP3    H216318   1.649   0.175   4.086
 5452TIP3   OH216319   5.610   5.015   5.447
 5452TIP3    H116320   5.623   5.109   5.461
 5452TIP3    H216321   5.635   4.975   5.530
 5453TIP3   OH216322   0.681   6.063   1.529
 5453TIP3    H116323   0.758   6.119   1.540
 5453TIP3    H216324   0.659   6.035   1.617
 5454TIP3   OH216325   1.841   2.157   4.008
 5454TIP3    H116326   1.746   2.150   4.020
 5454TIP3    H216327   1.876   2.075   4.044
 5455TIP3   OH216328   1.817   5.044   3.604
 5455TIP3    H116329   1.909   5.039   3.630
 5455TIP3    H216330   1.796   5.137   3.609
 5456TIP3   OH216331   1.845   4.096   0.672
 5456TIP3    H116332   1.859   4.040   0.748
 5456TIP3    H216333   1.807   4.038   0.606
 5457TIP3   OH216334   2.943   4.470   0.554
 5457TIP3    H116335   2.874   4.409   0.580
 5457TIP3    H216336   3.020   4.414   0.537
 5458TIP3   OH216337   2.349   2.418   2.290
 5458TIP3    H116338   2.273   2.462   2.328
 5458TIP3    H216339   2.421   2.481   2.301
 5459TIP3   OH216340   3.712   0.434   4.718
 5459TIP3    H116341   3.626   0.452   4.755
 5459TIP3    H216342   3.722   0.499   4.648
 5460TIP3   OH216343   7.002   3.576   0.280
 5460TIP3    H116344   6.935   3.568   0.348
 5460TIP3    H216345   7.014   3.670   0.269
 5461TIP3   OH216346   6.452   1.427   1.564
 5461TIP3    H116347   6.427   1.519   1.552
 5461TIP3    H216348   6.501   1.427   1.646
 5462TIP3   OH216349   2.884   2.995   3.383
 5462TIP3    H116350   2.846   2.967   3.466
 5462TIP3    H216351   2.873   2.920   3.325
 5463TIP3   OH216352   1.974   2.041   4.531
 5463TIP3    H116353   1.995   2.000   4.615
 5463TIP3    H216354   1.961   1.968   4.471
 5464TIP3   OH216355   4.209   5.549   5.625
 5464TIP3    H116356   4.145   5.554   5.554
 5464TIP3    H216357   4.165   5.590   5.699
 5465TIP3   OH216358   0.555   1.756   3.865
 5465TIP3    H116359   0.614   1.721   3.932
 5465TIP3    H216360   0.546   1.849   3.887
 5466TIP3   OH216361   2.678   5.111   0.660
 5466TIP3    H116362   2.700   5.169   0.587
 5466TIP3    H216363   2.706   5.159   0.738
 5467TIP3   OH216364   4.476   5.630   2.750
 5467TIP3    H116365   4.487   5.536   2.765
 5467TIP3    H216366   4.449   5.665   2.835
 5468TIP3   OH216367   4.095   1.394   3.676
 5468TIP3    H116368   4.149   1.350   3.741
 5468TIP3    H216369   4.153   1.459   3.636
 5469TIP3   OH216370   5.826   2.476   1.203
 5469TIP3    H116371   5.769   2.536   1.157
 5469TIP3    H216372   5.791   2.389   1.182
 5470TIP3   OH216373   6.927   1.843   5.474
 5470TIP3    H116374   6.993   1.836   5.542
 5470TIP3    H216375   6.850   1.799   5.510
 5471TIP3   OH216376   4.024   4.741   0.347
 5471TIP3    H116377   3.956   4.788   0.299
 5471TIP3    H216378   4.003   4.648   0.335
 5472TIP3   OH216379   5.072   0.838   4.991
 5472TIP3    H116380   4.995   0.782   4.989
 5472TIP3    H216381   5.109   0.832   4.903
 5473TIP3   OH216382   0.449   0.342   0.666
 5473TIP3    H116383   0.420   0.395   0.741
 5473TIP3    H216384   0.390   0.268   0.664
 5474TIP3   OH216385   1.137   2.707   3.102
 5474TIP3    H116386   1.165   2.634   3.156
 5474TIP3    H216387   1.101   2.666   3.023
 5475TIP3   OH216388   0.923   1.013   2.245
 5475TIP3    H116389   0.987   1.026   2.315
 5475TIP3    H216390   0.967   1.042   2.165
 5476TIP3   OH216391   4.866   5.863   4.241
 5476TIP3    H116392   4.808   5.863   4.318
 5476TIP3    H216393   4.910   5.778   4.244
 5477TIP3   OH216394   0.062   6.563   0.029
 5477TIP3    H116395   0.017   6.647   0.021
 5477TIP3    H216396   0.120   6.573   0.105
 5478TIP3   OH216397   4.646   6.658   4.246
 5478TIP3    H116398   4.571   6.630   4.194
 5478TIP3    H216399   4.685   6.577   4.278
 5479TIP3   OH216400   3.639   0.403   3.414
 5479TIP3    H116401   3.574   0.465   3.382
 5479TIP3    H216402   3.720   0.454   3.419
 5480TIP3   OH216403   5.548   5.987   1.243
 5480TIP3    H116404   5.623   5.969   1.301
 5480TIP3    H216405   5.579   6.057   1.185
 5481TIP3   OH216406   5.238   2.069   1.339
 5481TIP3    H116407   5.258   1.997   1.400
 5481TIP3    H216408   5.175   2.123   1.387
 5482TIP3   OH216409   6.509   0.243   3.109
 5482TIP3    H116410   6.585   0.294   3.135
 5482TIP3    H216411   6.438   0.306   3.103
 5483TIP3   OH216412   4.779   0.273   5.780
 5483TIP3    H116413   4.712   0.204   5.775
 5483TIP3    H216414   4.731   0.351   5.808
 5484TIP3   OH216415   7.016   2.598   5.501
 5484TIP3    H116416   7.015   2.586   5.596
 5484TIP3    H216417   6.930   2.566   5.472
 5485TIP3   OH216418   4.581   3.682   1.445
 5485TIP3    H116419   4.613   3.748   1.383
 5485TIP3    H216420   4.492   3.664   1.417
 5486TIP3   OH216421   5.606   4.541   4.708
 5486TIP3    H116422   5.601   4.454   4.748
 5486TIP3    H216423   5.700   4.560   4.704
 5487TIP3   OH216424   4.430   4.585   3.814
 5487TIP3    H116425   4.496   4.629   3.760
 5487TIP3    H216426   4.414   4.502   3.769
 5488TIP3   OH216427   4.679   1.922   5.082
 5488TIP3    H116428   4.707   1.917   4.991
 5488TIP3    H216429   4.628   2.004   5.087
 5489TIP3   OH216430   3.529   6.389   5.437
 5489TIP3    H116431   3.516   6.337   5.358
 5489TIP3    H216432   3.589   6.459   5.410
 5490TIP3   OH216433   3.598   1.841   1.322
 5490TIP3    H116434   3.669   1.904   1.338
 5490TIP3    H216435   3.523   1.895   1.300
 5491TIP3   OH216436   1.874   6.048   4.059
 5491TIP3    H116437   1.781   6.059   4.080
 5491TIP3    H216438   1.881   5.957   4.030
 5492TIP3   OH216439   4.769   0.017   4.649
 5492TIP3    H116440   4.824   0.046   4.576
 5492TIP3    H216441   4.828  -0.034   4.705
 5493TIP3   OH216442   3.172   1.682   2.745
 5493TIP3    H116443   3.195   1.705   2.655
 5493TIP3    H216444   3.233   1.733   2.799
 5494TIP3   OH216445   2.518   5.812   4.523
 5494TIP3    H116446   2.460   5.735   4.524
 5494TIP3    H216447   2.528   5.832   4.430
 5495TIP3   OH216448   6.395   3.459   5.741
 5495TIP3    H116449   6.467   3.520   5.725
 5495TIP3    H216450   6.328   3.512   5.785
 5496TIP3   OH216451   5.228   0.556   3.447
 5496TIP3    H116452   5.268   0.599   3.372
 5496TIP3    H216453   5.136   0.585   3.445
 5497TIP3   OH216454   4.845   5.290   0.508
 5497TIP3    H116455   4.888   5.350   0.569
 5497TIP3    H216456   4.755   5.322   0.502
 5498TIP3   OH216457   0.565   1.223   2.090
 5498TIP3    H116458   0.521   1.159   2.035
 5498TIP3    H216459   0.536   1.308   2.057
 5499TIP3   OH216460   3.325   6.376   4.503
 5499TIP3    H116461   3.366   6.302   4.459
 5499TIP3    H216462   3.283   6.338   4.580
 5500TIP3   OH216463   1.646   5.803   5.378
 5500TIP3    H116464   1.565   5.761   5.348
 5500TIP3    H216465   1.696   5.817   5.297
 5501TIP3   OH216466   0.905   0.083   3.740
 5501TIP3    H116467   0.961   0.013   3.773
 5501TIP3    H216468   0.818   0.043   3.732
 5502TIP3   OH216469   3.966   0.096   3.918
 5502TIP3    H116470   3.990   0.166   3.857
 5502TIP3    H216471   3.985   0.133   4.004
 5503TIP3   OH216472   4.551   4.664   4.754
 5503TIP3    H116473   4.494   4.600   4.712
 5503TIP3    H216474   4.572   4.626   4.839
 5504TIP3   OH216475   3.984   4.364   2.848
 5504TIP3    H116476   4.006   4.297   2.914
 5504TIP3    H216477   4.066   4.408   2.829
 5505TIP3   OH216478   0.446   1.237   3.691
 5505TIP3    H116479   0.459   1.153   3.648
 5505TIP3    H216480   0.506   1.236   3.765
 5506TIP3   OH216481   2.265   4.720   1.075
 5506TIP3    H116482   2.293   4.744   0.987
 5506TIP3    H216483   2.233   4.803   1.112
 5507TIP3   OH216484   6.251   5.994   4.892
 5507TIP3    H116485   6.272   6.077   4.849
 5507TIP3    H216486   6.288   6.003   4.980
 5508TIP3   OH216487   1.555   4.090   4.097
 5508TIP3    H116488   1.644   4.106   4.066
 5508TIP3    H216489   1.563   4.014   4.155
 5509TIP3   OH216490   2.191   4.505   0.893
 5509TIP3    H116491   2.203   4.575   0.957
 5509TIP3    H216492   2.274   4.503   0.844
 5510TIP3   OH216493   5.396   0.865   2.281
 5510TIP3    H116494   5.440   0.786   2.313
 5510TIP3    H216495   5.464   0.933   2.284
 5511TIP3   OH216496   6.453   3.022   4.960
 5511TIP3    H116497   6.516   3.065   4.902
 5511TIP3    H216498   6.420   2.948   4.908
 5512TIP3   OH216499   2.220   3.348   3.737
 5512TIP3    H116500   2.251   3.437   3.751
 5512TIP3    H216501   2.261   3.297   3.807
 5513TIP3   OH216502   1.757   1.573   4.049
 5513TIP3    H116503   1.833   1.521   4.023
 5513TIP3    H216504   1.685   1.538   3.997
 5514TIP3   OH216505   6.310   6.536   0.122
 5514TIP3    H116506   6.323   6.553   0.215
 5514TIP3    H216507   6.394   6.500   0.092
 5515TIP3   OH216508   4.594   2.502   3.134
 5515TIP3    H116509   4.620   2.580   3.184
 5515TIP3    H216510   4.499   2.503   3.136
 5516TIP3   OH216511   0.765   1.678   4.024
 5516TIP3    H116512   0.775   1.694   4.118
 5516TIP3    H216513   0.761   1.582   4.017
 5517TIP3   OH216514   0.356   2.602   3.830
 5517TIP3    H116515   0.309   2.674   3.874
 5517TIP3    H216516   0.435   2.591   3.882
 5518TIP3   OH216517   1.664   2.095   0.195
 5518TIP3    H116518   1.582   2.078   0.149
 5518TIP3    H216519   1.710   2.159   0.140
 5519TIP3   OH216520   2.956   2.993   5.787
 5519TIP3    H116521   3.034   2.998   5.733
 5519TIP3    H216522   2.983   2.944   5.864
 5520TIP3   OH216523   2.651   2.302   2.652
 5520TIP3    H116524   2.715   2.367   2.625
 5520TIP3    H216525   2.567   2.336   2.620
 5521TIP3   OH216526   1.917   4.464   2.717
 5521TIP3    H116527   1.894   4.485   2.627
 5521TIP3    H216528   1.988   4.525   2.739
 5522TIP3   OH216529   2.795   4.406   5.677
 5522TIP3    H116530   2.725   4.411   5.743
 5522TIP3    H216531   2.787   4.487   5.627
 5523TIP3   OH216532   3.866   2.280   0.278
 5523TIP3    H116533   3.831   2.194   0.301
 5523TIP3    H216534   3.958   2.264   0.256
 5524TIP3   OH216535   0.427   0.956   4.021
 5524TIP3    H116536   0.450   0.952   3.928
 5524TIP3    H216537   0.435   0.866   4.052
 5525TIP3   OH216538   4.824   3.896   4.438
 5525TIP3    H116539   4.774   3.883   4.357
 5525TIP3    H216540   4.757   3.898   4.507
 5526TIP3   OH216541   6.860   0.607   0.198
 5526TIP3    H116542   6.915   0.630   0.273
 5526TIP3    H216543   6.902   0.650   0.123
 5527TIP3   OH216544   4.470   5.033   0.015
 5527TIP3    H116545   4.416   4.956  -0.002
 5527TIP3    H216546   4.549   4.998   0.057
 5528TIP3   OH216547   1.449   1.180   4.509
 5528TIP3    H116548   1.476   1.117   4.443
 5528TIP3    H216549   1.423   1.127   4.584
 5529TIP3   OH216550   4.607   6.684   1.485
 5529TIP3    H116551   4.514   6.693   1.467
 5529TIP3    H216552   4.611   6.627   1.562
 5530TIP3   OH216553   2.489   3.065   3.563
 5530TIP3    H116554   2.415   3.009   3.589
 5530TIP3    H216555   2.561   3.039   3.621
 5531TIP3   OH216556   4.130   4.897   3.841
 5531TIP3    H116557   4.098   4.988   3.837
 5531TIP3    H216558   4.069   4.848   3.786
 5532TIP3   OH216559   1.223   3.119   3.426
 5532TIP3    H116560   1.169   3.181   3.376
 5532TIP3    H216561   1.250   3.169   3.503
 5533TIP3   OH216562   1.388   3.217   4.167
 5533TIP3    H116563   1.436   3.139   4.137
 5533TIP3    H216564   1.317   3.226   4.105
 5534TIP3   OH216565   2.703   6.178   3.147
 5534TIP3    H116566   2.667   6.266   3.154
 5534TIP3    H216567   2.792   6.190   3.116
 5535TIP3   OH216568   4.731   2.867   4.225
 5535TIP3    H116569   4.771   2.891   4.141
 5535TIP3    H216570   4.688   2.947   4.255
 5536TIP3   OH216571   2.620   3.876   4.217
 5536TIP3    H116572   2.575   3.809   4.166
 5536TIP3    H216573   2.713   3.851   4.213
 5537TIP3   OH216574   5.157   3.985   0.751
 5537TIP3    H116575   5.109   3.942   0.680
 5537TIP3    H216576   5.089   4.021   0.807
 5538TIP3   OH216577   5.878   4.394   2.668
 5538TIP3    H116578   5.965   4.415   2.703
 5538TIP3    H216579   5.855   4.311   2.710
 5539TIP3   OH216580   4.746   6.226   1.497
 5539TIP3    H116581   4.831   6.186   1.478
 5539TIP3    H216582   4.725   6.195   1.586
 5540TIP3   OH216583   6.138   3.976   5.341
 5540TIP3    H116584   6.184   3.895   5.364
 5540TIP3    H216585   6.182   4.044   5.394
 5541TIP3   OH216586   5.234   3.264   0.020
 5541TIP3    H116587   5.249   3.321   0.095
 5541TIP3    H216588   5.147   3.289  -0.012
 5542TIP3   OH216589   7.136   1.068   5.527
 5542TIP3    H116590   7.184   1.124   5.465
 5542TIP3    H216591   7.132   0.983   5.484
 5543TIP3   OH216592   3.639   0.453   5.683
 5543TIP3    H116593   3.590   0.534   5.669
 5543TIP3    H216594   3.662   0.423   5.595
 5544TIP3   OH216595   0.647   3.272   3.305
 5544TIP3    H116596   0.556   3.285   3.333
 5544TIP3    H216597   0.690   3.229   3.379
 5545TIP3   OH216598   2.841   2.691   1.534
 5545TIP3    H116599   2.899   2.687   1.609
 5545TIP3    H216600   2.845   2.604   1.495
 5546TIP3   OH216601   4.731   1.699   4.164
 5546TIP3    H116602   4.801   1.650   4.122
 5546TIP3    H216603   4.668   1.633   4.192
 5547TIP3   OH216604   2.638   4.151   3.824
 5547TIP3    H116605   2.545   4.173   3.833
 5547TIP3    H216606   2.661   4.181   3.736
 5548TIP3   OH216607   1.346   3.031   5.462
 5548TIP3    H116608   1.412   3.078   5.410
 5548TIP3    H216609   1.331   2.950   5.414
 5549TIP3   OH216610   0.392   3.420   2.402
 5549TIP3    H116611   0.314   3.386   2.358
 5549TIP3    H216612   0.384   3.389   2.493
 5550TIP3   OH216613   5.577   2.575   2.617
 5550TIP3    H116614   5.632   2.645   2.651
 5550TIP3    H216615   5.575   2.589   2.522
 5551TIP3   OH216616   3.504   5.399   4.827
 5551TIP3    H116617   3.588   5.396   4.782
 5551TIP3    H216618   3.509   5.477   4.882
 5552TIP3   OH216619   4.770   6.082   0.354
 5552TIP3    H116620   4.732   5.997   0.376
 5552TIP3    H216621   4.864   6.071   0.368
 5553TIP3   OH216622   0.742   0.559   2.579
 5553TIP3    H116623   0.790   0.523   2.505
 5553TIP3    H216624   0.781   0.647   2.592
 5554TIP3   OH216625   1.605   2.377   1.960
 5554TIP3    H116626   1.681   2.323   1.940
 5554TIP3    H216627   1.618   2.456   1.906
 5555TIP3   OH216628   5.705   6.692   5.426
 5555TIP3    H116629   5.744   6.767   5.381
 5555TIP3    H216630   5.661   6.730   5.502
 5556TIP3   OH216631   1.892   2.904   4.338
 5556TIP3    H116632   1.874   2.983   4.287
 5556TIP3    H216633   1.812   2.889   4.387
 5557TIP3   OH216634   2.072   5.397   4.060
 5557TIP3    H116635   1.980   5.417   4.039
 5557TIP3    H216636   2.087   5.311   4.020
 5558TIP3   OH216637   3.920   4.214   3.133
 5558TIP3    H116638   3.936   4.125   3.102
 5558TIP3    H216639   4.006   4.257   3.129
 5559TIP3   OH216640   0.245   5.373   1.723
 5559TIP3    H116641   0.212   5.418   1.801
 5559TIP3    H216642   0.167   5.356   1.670
 5560TIP3   OH216643   1.085   4.378   0.567
 5560TIP3    H116644   1.055   4.325   0.641
 5560TIP3    H216645   1.139   4.319   0.515
 5561TIP3   OH216646   6.566   6.134   4.001
 5561TIP3    H116647   6.593   6.061   3.946
 5561TIP3    H216648   6.471   6.124   4.009
 5562TIP3   OH216649   3.732   3.670   2.515
 5562TIP3    H116650   3.819   3.638   2.490
 5562TIP3    H216651   3.673   3.626   2.454
 5563TIP3   OH216652   3.086   2.913   0.027
 5563TIP3    H116653   3.031   2.957   0.092
 5563TIP3    H216654   3.026   2.852  -0.018
 5564TIP3   OH216655   7.034   4.134   0.196
 5564TIP3    H116656   7.058   4.226   0.208
 5564TIP3    H216657   6.938   4.135   0.198
 5565TIP3   OH216658   5.612   5.232   2.685
 5565TIP3    H116659   5.587   5.263   2.771
 5565TIP3    H216660   5.556   5.280   2.624
 5566TIP3   OH216661   6.505   4.935   1.155
 5566TIP3    H116662   6.576   4.897   1.207
 5566TIP3    H216663   6.536   5.023   1.134
 5567TIP3   OH216664   5.448   0.129   2.371
 5567TIP3    H116665   5.531   0.169   2.345
 5567TIP3    H216666   5.387   0.202   2.377
 5568TIP3   OH216667   7.203   4.807   0.894
 5568TIP3    H116668   7.118   4.771   0.919
 5568TIP3    H216669   7.267   4.759   0.948
 5569TIP3   OH216670   1.614   6.158   0.371
 5569TIP3    H116671   1.689   6.149   0.312
 5569TIP3    H216672   1.538   6.163   0.312
 5570TIP3   OH216673   2.193   3.584   5.231
 5570TIP3    H116674   2.170   3.675   5.252
 5570TIP3    H216675   2.135   3.561   5.158
 5571TIP3   OH216676   2.576   1.374   2.616
 5571TIP3    H116677   2.502   1.426   2.585
 5571TIP3    H216678   2.582   1.394   2.709
 5572TIP3   OH216679   2.844   2.162   5.309
 5572TIP3    H116680   2.864   2.074   5.280
 5572TIP3    H216681   2.820   2.210   5.230
 5573TIP3   OH216682   2.142   4.219   1.255
 5573TIP3    H116683   2.091   4.244   1.178
 5573TIP3    H216684   2.080   4.225   1.328
 5574TIP3   OH216685   5.584   4.276   4.769
 5574TIP3    H116686   5.676   4.251   4.778
 5574TIP3    H216687   5.540   4.230   4.840
 5575TIP3   OH216688   1.704   6.007   4.732
 5575TIP3    H116689   1.706   6.085   4.787
 5575TIP3    H216690   1.753   5.941   4.781
 5576TIP3   OH216691   2.578   1.041   4.928
 5576TIP3    H116692   2.579   0.959   4.880
 5576TIP3    H216693   2.498   1.085   4.899
 5577TIP3   OH216694   3.779   6.270   0.568
 5577TIP3    H116695   3.708   6.332   0.551
 5577TIP3    H216696   3.836   6.316   0.630
 5578TIP3   OH216697   6.002   5.993   0.337
 5578TIP3    H116698   5.971   6.067   0.285
 5578TIP3    H216699   6.042   5.933   0.274
 5579TIP3   OH216700   2.548   1.906   3.306
 5579TIP3    H116701   2.543   2.001   3.299
 5579TIP3    H216702   2.562   1.889   3.399
 5580TIP3   OH216703   2.695   1.333   0.204
 5580TIP3    H116704   2.629   1.272   0.170
 5580TIP3    H216705   2.759   1.277   0.248
 5581TIP3   OH216706   2.379   6.588   0.831
 5581TIP3    H116707   2.426   6.659   0.874
 5581TIP3    H216708   2.440   6.514   0.832
 5582TIP3   OH216709   4.613   3.831   4.591
 5582TIP3    H116710   4.642   3.798   4.676
 5582TIP3    H216711   4.521   3.855   4.605
 5583TIP3   OH216712   2.192   4.522   5.752
 5583TIP3    H116713   2.145   4.604   5.743
 5583TIP3    H216714   2.161   4.486   5.835
 5584TIP3   OH216715   1.821   0.700   2.629
 5584TIP3    H116716   1.776   0.709   2.544
 5584TIP3    H216717   1.837   0.605   2.638
 5585TIP3   OH216718   3.150   5.084   2.280
 5585TIP3    H116719   3.218   5.027   2.245
 5585TIP3    H216720   3.149   5.160   2.222
 5586TIP3   OH216721   2.088   6.104   4.245
 5586TIP3    H116722   1.993   6.092   4.246
 5586TIP3    H216723   2.115   6.083   4.156
 5587TIP3   OH216724   3.434   2.292   2.756
 5587TIP3    H116725   3.443   2.387   2.747
 5587TIP3    H216726   3.343   2.278   2.781
 5588TIP3   OH216727   6.164   1.811   3.033
 5588TIP3    H116728   6.189   1.729   2.991
 5588TIP3    H216729   6.168   1.876   2.963
 5589TIP3   OH216730   2.217   4.233   0.102
 5589TIP3    H116731   2.191   4.322   0.125
 5589TIP3    H216732   2.313   4.236   0.102
 5590TIP3   OH216733   6.807   5.260   0.152
 5590TIP3    H116734   6.843   5.348   0.148
 5590TIP3    H216735   6.844   5.215   0.076
 5591TIP3   OH216736   1.031   5.255   4.497
 5591TIP3    H116737   1.055   5.348   4.498
 5591TIP3    H216738   0.937   5.255   4.512
 5592TIP3   OH216739   0.891   1.518   3.683
 5592TIP3    H116740   0.796   1.519   3.669
 5592TIP3    H216741   0.927   1.484   3.601
 5593TIP3   OH216742   5.748   2.323   5.756
 5593TIP3    H116743   5.691   2.290   5.687
 5593TIP3    H216744   5.688   2.357   5.823
 5594TIP3   OH216745   6.531   3.178   2.477
 5594TIP3    H116746   6.488   3.131   2.406
 5594TIP3    H216747   6.470   3.171   2.551
 5595TIP3   OH216748   3.979   3.264   5.125
 5595TIP3    H116749   3.989   3.219   5.041
 5595TIP3    H216750   3.965   3.193   5.188
 5596TIP3   OH216751   5.759   5.355   4.843
 5596TIP3    H116752   5.730   5.437   4.803
 5596TIP3    H216753   5.708   5.287   4.798
 5597TIP3   OH216754   6.825   5.017   5.370
 5597TIP3    H116755   6.895   5.082   5.371
 5597TIP3    H216756   6.846   4.957   5.442
 5598TIP3   OH216757   0.480   4.469   0.280
 5598TIP3    H116758   0.414   4.447   0.215
 5598TIP3    H216759   0.484   4.392   0.337
 5599TIP3   OH216760   6.469   0.296   4.934
 5599TIP3    H116761   6.490   0.203   4.926
 5599TIP3    H216762   6.385   0.298   4.979
 5600TIP3   OH216763   2.411   4.318   3.970
 5600TIP3    H116764   2.357   4.351   4.042
 5600TIP3    H216765   2.461   4.246   4.009
 5601TIP3   OH216766   4.858   1.235   3.757
 5601TIP3    H116767   4.844   1.327   3.735
 5601TIP3    H216768   4.938   1.211   3.710
 5602TIP3   OH216769   2.515   4.127   4.185
 5602TIP3    H116770   2.570   4.191   4.230
 5602TIP3    H216771   2.565   4.045   4.189
 5603TIP3   OH216772   2.080   4.319   4.423
 5603TIP3    H116773   2.158   4.264   4.418
 5603TIP3    H216774   2.085   4.359   4.510
 5604TIP3   OH216775   0.927   5.750   2.635
 5604TIP3    H116776   0.950   5.718   2.548
 5604TIP3    H216777   0.887   5.836   2.619
 5605TIP3   OH216778   5.847   0.786   4.647
 5605TIP3    H116779   5.927   0.837   4.631
 5605TIP3    H216780   5.782   0.826   4.589
 5606TIP3   OH216781   3.200   1.410   4.642
 5606TIP3    H116782   3.116   1.365   4.628
 5606TIP3    H216783   3.264   1.358   4.594
 5607TIP3   OH216784   2.165   0.758   1.822
 5607TIP3    H116785   2.088   0.760   1.765
 5607TIP3    H216786   2.232   0.807   1.775
 5608TIP3   OH216787   2.097   2.885   1.693
 5608TIP3    H116788   2.114   2.790   1.692
 5608TIP3    H216789   2.012   2.893   1.735
 5609TIP3   OH216790   4.675   3.123   4.260
 5609TIP3    H116791   4.657   3.155   4.171
 5609TIP3    H216792   4.721   3.196   4.302
 5610TIP3   OH216793   5.349   6.595   3.062
 5610TIP3    H116794   5.389   6.545   3.133
 5610TIP3    H216795   5.384   6.557   2.982
 5611TIP3   OH216796   0.327   2.545   5.202
 5611TIP3    H116797   0.392   2.610   5.231
 5611TIP3    H216798   0.376   2.463   5.198
 5612TIP3   OH216799   3.808   5.278   4.047
 5612TIP3    H116800   3.863   5.355   4.060
 5612TIP3    H216801   3.721   5.312   4.032
 5613TIP3   OH216802   6.048   4.058   2.724
 5613TIP3    H116803   6.124   4.066   2.666
 5613TIP3    H216804   6.044   3.965   2.745
 5614TIP3   OH216805   6.835   6.056   0.716
 5614TIP3    H116806   6.923   6.073   0.751
 5614TIP3    H216807   6.797   6.143   0.705
 5615TIP3   OH216808   3.220   5.472   1.761
 5615TIP3    H116809   3.200   5.552   1.809
 5615TIP3    H216810   3.305   5.444   1.795
 5616TIP3   OH216811   5.629   4.688   0.390
 5616TIP3    H116812   5.633   4.748   0.465
 5616TIP3    H216813   5.605   4.743   0.316
 5617TIP3   OH216814   6.384   2.915   1.638
 5617TIP3    H116815   6.408   2.841   1.582
 5617TIP3    H216816   6.382   2.878   1.727
 5618TIP3   OH216817   2.728   0.240   0.232
 5618TIP3    H116818   2.692   0.328   0.221
 5618TIP3    H216819   2.818   0.246   0.198
 5619TIP3   OH216820   2.646   3.730   4.488
 5619TIP3    H116821   2.726   3.714   4.539
 5619TIP3    H216822   2.659   3.816   4.449
 5620TIP3   OH216823   5.062   1.345   3.241
 5620TIP3    H116824   5.065   1.424   3.294
 5620TIP3    H216825   5.130   1.288   3.277
 5621TIP3   OH216826   4.595   3.269   1.012
 5621TIP3    H116827   4.560   3.354   1.038
 5621TIP3    H216828   4.596   3.218   1.093
 5622TIP3   OH216829   6.676   5.014   1.984
 5622TIP3    H116830   6.595   5.054   1.953
 5622TIP3    H216831   6.744   5.080   1.969
 5623TIP3   OH216832   6.515   2.388   0.531
 5623TIP3    H116833   6.430   2.413   0.495
 5623TIP3    H216834   6.495   2.322   0.597
 5624TIP3   OH216835   0.741   3.803   1.079
 5624TIP3    H116836   0.704   3.857   1.009
 5624TIP3    H216837   0.709   3.715   1.060
 5625TIP3   OH216838   7.023   6.046   2.517
 5625TIP3    H116839   6.954   6.038   2.583
 5625TIP3    H216840   7.042   6.140   2.515
 5626TIP3   OH216841   3.101   3.940   5.270
 5626TIP3    H116842   3.093   3.853   5.233
 5626TIP3    H216843   3.196   3.957   5.271
 5627TIP3   OH216844   2.015   3.801   5.696
 5627TIP3    H116845   2.108   3.810   5.717
 5627TIP3    H216846   1.973   3.787   5.781
 5628TIP3   OH216847   5.018   5.959   0.730
 5628TIP3    H116848   4.991   5.888   0.672
 5628TIP3    H216849   5.018   5.919   0.818
 5629TIP3   OH216850   2.343   1.732   4.844
 5629TIP3    H116851   2.363   1.672   4.771
 5629TIP3    H216852   2.320   1.814   4.801
 5630TIP3   OH216853   7.014   1.100   2.206
 5630TIP3    H116854   7.078   1.083   2.276
 5630TIP3    H216855   6.938   1.047   2.230
 5631TIP3   OH216856   3.860   2.702   3.137
 5631TIP3    H116857   3.864   2.610   3.161
 5631TIP3    H216858   3.929   2.712   3.071
 5632TIP3   OH216859   5.518   6.324   0.933
 5632TIP3    H116860   5.536   6.415   0.959
 5632TIP3    H216861   5.515   6.327   0.838
 5633TIP3   OH216862   5.142   3.378   2.557
 5633TIP3    H116863   5.076   3.316   2.588
 5633TIP3    H216864   5.217   3.364   2.615
 5634TIP3   OH216865   1.615   3.284   2.115
 5634TIP3    H116866   1.595   3.366   2.159
 5634TIP3    H216867   1.683   3.307   2.051
 5635TIP3   OH216868   2.345   1.378   2.157
 5635TIP3    H116869   2.381   1.450   2.209
 5635TIP3    H216870   2.408   1.307   2.168
 5636TIP3   OH216871   4.774   4.596   0.727
 5636TIP3    H116872   4.679   4.607   0.726
 5636TIP3    H216873   4.788   4.504   0.705
 5637TIP3   OH216874   4.434   3.194   0.557
 5637TIP3    H116875   4.361   3.210   0.498
 5637TIP3    H216876   4.428   3.265   0.622
 5638TIP3   OH216877   2.075   1.060   0.423
 5638TIP3    H116878   2.139   1.013   0.370
 5638TIP3    H216879   2.030   0.991   0.472
 5639TIP3   OH216880   6.261   2.853   5.175
 5639TIP3    H116881   6.261   2.926   5.236
 5639TIP3    H216882   6.290   2.891   5.092
 5640TIP3   OH216883   5.121   4.274   1.017
 5640TIP3    H116884   5.130   4.241   0.928
 5640TIP3    H216885   5.126   4.369   1.008
 5641TIP3   OH216886   4.025   6.003   2.889
 5641TIP3    H116887   4.066   6.087   2.869
 5641TIP3    H216888   3.996   5.969   2.805
 5642TIP3   OH216889   6.679   4.635   5.547
 5642TIP3    H116890   6.744   4.574   5.513
 5642TIP3    H216891   6.681   4.621   5.642
 5643TIP3   OH216892   0.681   6.354   3.903
 5643TIP3    H116893   0.635   6.270   3.898
 5643TIP3    H216894   0.612   6.420   3.893
 5644TIP3   OH216895   1.930   2.003   0.699
 5644TIP3    H116896   1.921   2.093   0.667
 5644TIP3    H216897   2.016   1.974   0.667
 5645TIP3   OH216898   0.280   5.027   2.171
 5645TIP3    H116899   0.268   5.038   2.265
 5645TIP3    H216900   0.221   5.091   2.132
 5646TIP3   OH216901   6.356   4.134   3.850
 5646TIP3    H116902   6.378   4.167   3.763
 5646TIP3    H216903   6.285   4.190   3.880
 5647TIP3   OH216904   1.921   2.535   1.921
 5647TIP3    H116905   1.945   2.444   1.941
 5647TIP3    H216906   1.920   2.578   2.007
 5648TIP3   OH216907   6.482   4.214   0.986
 5648TIP3    H116908   6.508   4.239   0.897
 5648TIP3    H216909   6.452   4.296   1.026
 5649TIP3   OH216910   3.776   3.262   3.264
 5649TIP3    H116911   3.836   3.320   3.311
 5649TIP3    H216912   3.693   3.310   3.262
 5650TIP3   OH216913   5.880   4.263   1.515
 5650TIP3    H116914   5.856   4.262   1.422
 5650TIP3    H216915   5.876   4.356   1.540
 5651TIP3   OH216916   3.040   0.202   2.593
 5651TIP3    H116917   2.970   0.237   2.539
 5651TIP3    H216918   3.088   0.279   2.623
 5652TIP3   OH216919   4.861   4.952   0.782
 5652TIP3    H116920   4.915   4.962   0.861
 5652TIP3    H216921   4.785   5.007   0.800
 5653TIP3   OH216922   6.274   0.763   3.264
 5653TIP3    H116923   6.198   0.723   3.307
 5653TIP3    H216924   6.261   0.857   3.273
 5654TIP3   OH216925   0.928   2.811   0.294
 5654TIP3    H116926   0.874   2.736   0.269
 5654TIP3    H216927   1.000   2.812   0.231
 5655TIP3   OH216928   1.963   6.149   2.568
 5655TIP3    H116929   1.917   6.200   2.501
 5655TIP3    H216930   1.949   6.058   2.543
 5656TIP3   OH216931   1.216   3.942   4.773
 5656TIP3    H116932   1.129   3.963   4.807
 5656TIP3    H216933   1.259   4.027   4.763
 5657TIP3   OH216934   1.653   3.774   4.945
 5657TIP3    H116935   1.616   3.843   5.000
 5657TIP3    H216936   1.581   3.747   4.888
 5658TIP3   OH216937   3.908   6.628   4.026
 5658TIP3    H116938   3.876   6.718   4.023
 5658TIP3    H216939   4.002   6.636   4.040
 5659TIP3   OH216940   4.377   5.726   1.900
 5659TIP3    H116941   4.299   5.741   1.846
 5659TIP3    H216942   4.378   5.800   1.961
 5660TIP3   OH216943   6.425   4.553   0.894
 5660TIP3    H116944   6.377   4.529   0.815
 5660TIP3    H216945   6.365   4.536   0.966
 5661TIP3   OH216946   1.684   3.436   0.207
 5661TIP3    H116947   1.725   3.508   0.255
 5661TIP3    H216948   1.590   3.451   0.218
 5662TIP3   OH216949   4.832   4.332   3.732
 5662TIP3    H116950   4.856   4.400   3.796
 5662TIP3    H216951   4.900   4.337   3.665
 5663TIP3   OH216952   6.990   3.511   4.143
 5663TIP3    H116953   6.979   3.440   4.080
 5663TIP3    H216954   7.058   3.566   4.106
 5664TIP3   OH216955   7.186   2.532   4.818
 5664TIP3    H116956   7.196   2.550   4.912
 5664TIP3    H216957   7.194   2.619   4.777
 5665TIP3   OH216958   1.907   4.177   5.546
 5665TIP3    H116959   1.904   4.119   5.622
 5665TIP3    H216960   1.926   4.120   5.472
 5666TIP3   OH216961   1.561   0.299   5.788
 5666TIP3    H116962   1.506   0.298   5.709
 5666TIP3    H216963   1.524   0.231   5.844
 5667TIP3   OH216964   5.987   0.239   3.619
 5667TIP3    H116965   6.057   0.175   3.612
 5667TIP3    H216966   5.908   0.188   3.638
 5668TIP3   OH216967   1.835   1.217   4.379
 5668TIP3    H116968   1.868   1.215   4.469
 5668TIP3    H216969   1.862   1.133   4.342
 5669TIP3   OH216970   1.189   4.717   5.470
 5669TIP3    H116971   1.213   4.764   5.389
 5669TIP3    H216972   1.217   4.627   5.455
 5670TIP3   OH216973   0.831   5.862   1.732
 5670TIP3    H116974   0.884   5.783   1.719
 5670TIP3    H216975   0.879   5.912   1.799
 5671TIP3   OH216976   4.688   0.382   2.585
 5671TIP3    H116977   4.694   0.299   2.633
 5671TIP3    H216978   4.682   0.357   2.493
 5672TIP3   OH216979   4.610   2.907   4.912
 5672TIP3    H116980   4.667   2.839   4.946
 5672TIP3    H216981   4.550   2.926   4.985
 5673TIP3   OH216982   6.089   6.351   2.629
 5673TIP3    H116983   6.004   6.376   2.665
 5673TIP3    H216984   6.149   6.419   2.660
 5674TIP3   OH216985   3.538   4.341   3.070
 5674TIP3    H116986   3.478   4.399   3.024
 5674TIP3    H216987   3.624   4.381   3.060
 5675TIP3   OH216988   1.605   6.304   5.145
 5675TIP3    H116989   1.534   6.249   5.178
 5675TIP3    H216990   1.638   6.350   5.222
 5676TIP3   OH216991   1.448   6.082   1.924
 5676TIP3    H116992   1.511   6.105   1.855
 5676TIP3    H216993   1.408   6.001   1.893
 5677TIP3   OH216994   4.799   1.024   5.286
 5677TIP3    H116995   4.864   1.063   5.227
 5677TIP3    H216996   4.813   1.068   5.370
 5678TIP3   OH216997   0.555   5.961   2.100
 5678TIP3    H116998   0.628   5.950   2.161
 5678TIP3    H216999   0.568   5.892   2.035
 5679TIP3   OH217000   5.915   2.370   5.491
 5679TIP3    H117001   5.919   2.319   5.572
 5679TIP3    H217002   5.862   2.317   5.432
 5680TIP3   OH217003   0.680   1.072   2.298
 5680TIP3    H117004   0.773   1.059   2.281
 5680TIP3    H217005   0.647   1.110   2.216
 5681TIP3   OH217006   6.228   5.757   0.668
 5681TIP3    H117007   6.214   5.673   0.625
 5681TIP3    H217008   6.262   5.815   0.599
 5682TIP3   OH217009   0.679   3.542   1.004
 5682TIP3    H117010   0.743   3.489   0.958
 5682TIP3    H217011   0.600   3.488   1.006
 5683TIP3   OH217012   5.114   1.347   2.964
 5683TIP3    H117013   5.135   1.333   3.056
 5683TIP3    H217014   5.198   1.342   2.919
 5684TIP3   OH217015   4.062   4.655   2.715
 5684TIP3    H117016   4.136   4.597   2.730
 5684TIP3    H217017   3.986   4.597   2.717
 5685TIP3   OH217018   6.153   3.469   2.266
 5685TIP3    H117019   6.166   3.374   2.262
 5685TIP3    H217020   6.219   3.505   2.206
 5686TIP3   OH217021   6.746   1.076   3.143
 5686TIP3    H117022   6.795   1.067   3.224
 5686TIP3    H217023   6.806   1.045   3.075
 5687TIP3   OH217024   3.515   2.041   5.100
 5687TIP3    H117025   3.473   1.994   5.027
 5687TIP3    H217026   3.484   2.131   5.092
 5688TIP3   OH217027   2.881   0.258   5.880
 5688TIP3    H117028   2.831   0.194   5.931
 5688TIP3    H217029   2.960   0.211   5.854
 5689TIP3   OH217030   4.015   5.692   5.766
 5689TIP3    H117031   3.961   5.632   5.818
 5689TIP3    H217032   3.975   5.690   5.679
 5690TIP3   OH217033   5.532   4.853   1.291
 5690TIP3    H117034   5.589   4.878   1.363
 5690TIP3    H217035   5.444   4.877   1.321
 5691TIP3   OH217036   7.063   5.082   3.768
 5691TIP3    H117037   7.034   5.036   3.847
 5691TIP3    H217038   7.154   5.105   3.785
 5692TIP3   OH217039   7.111   1.548   3.364
 5692TIP3    H117040   7.098   1.609   3.436
 5692TIP3    H217041   7.104   1.461   3.403
 5693TIP3   OH217042   1.249   3.369   1.668
 5693TIP3    H117043   1.164   3.349   1.707
 5693TIP3    H217044   1.243   3.335   1.579
 5694TIP3   OH217045   5.740   5.623   3.425
 5694TIP3    H117046   5.771   5.538   3.394
 5694TIP3    H217047   5.793   5.640   3.503
 5695TIP3   OH217048   4.872   4.813   0.282
 5695TIP3    H117049   4.864   4.909   0.288
 5695TIP3    H217050   4.861   4.783   0.372
 5696TIP3   OH217051   6.515   1.643   5.071
 5696TIP3    H117052   6.522   1.589   5.150
 5696TIP3    H217053   6.559   1.592   5.003
 5697TIP3   OH217054   6.761   3.805   5.766
 5697TIP3    H117055   6.856   3.800   5.767
 5697TIP3    H217056   6.741   3.891   5.802
 5698TIP3   OH217057   2.029   4.376   3.412
 5698TIP3    H117058   2.082   4.408   3.485
 5698TIP3    H217059   2.090   4.327   3.357
 5699TIP3   OH217060   4.233   4.784   0.809
 5699TIP3    H117061   4.297   4.851   0.781
 5699TIP3    H217062   4.284   4.725   0.864
 5700TIP3   OH217063   5.146   5.423   4.692
 5700TIP3    H117064   5.117   5.449   4.780
 5700TIP3    H217065   5.187   5.338   4.704
 5701TIP3   OH217066   1.332   0.099   3.731
 5701TIP3    H117067   1.406   0.085   3.672
 5701TIP3    H217068   1.360   0.168   3.791
 5702TIP3   OH217069   1.777   6.660   4.224
 5702TIP3    H117070   1.828   6.712   4.161
 5702TIP3    H217071   1.831   6.582   4.238
 5703TIP3   OH217072   0.516   0.909   0.508
 5703TIP3    H117073   0.452   0.894   0.577
 5703TIP3    H217074   0.482   0.983   0.458
 5704TIP3   OH217075   3.880   6.493   1.584
 5704TIP3    H117076   3.866   6.415   1.638
 5704TIP3    H217077   3.805   6.495   1.525
 5705TIP3   OH217078   6.746   4.947   2.730
 5705TIP3    H117079   6.707   4.876   2.679
 5705TIP3    H217080   6.819   4.905   2.777
 5706TIP3   OH217081   1.084   6.520   5.453
 5706TIP3    H117082   1.121   6.432   5.458
 5706TIP3    H217083   1.128   6.560   5.378
 5707TIP3   OH217084   0.790   4.772   0.420
 5707TIP3    H117085   0.733   4.797   0.493
 5707TIP3    H217086   0.859   4.720   0.461
 5708TIP3   OH217087   1.279   3.276   4.863
 5708TIP3    H117088   1.203   3.330   4.886
 5708TIP3    H217089   1.351   3.338   4.857
 5709TIP3   OH217090   3.644   3.920   4.868
 5709TIP3    H117091   3.735   3.901   4.847
 5709TIP3    H217092   3.624   3.862   4.941
 5710TIP3   OH217093   1.384   3.146   2.026
 5710TIP3    H117094   1.333   3.227   2.025
 5710TIP3    H217095   1.475   3.174   2.025
 5711TIP3   OH217096   3.040   5.057   5.104
 5711TIP3    H117097   3.062   5.082   5.193
 5711TIP3    H217098   2.999   4.970   5.113
 5712TIP3   OH217099   4.666   6.467   4.738
 5712TIP3    H117100   4.571   6.471   4.724
 5712TIP3    H217101   4.700   6.422   4.661
 5713TIP3   OH217102   3.246   1.876   3.942
 5713TIP3    H117103   3.196   1.947   3.981
 5713TIP3    H217104   3.224   1.799   3.995
 5714TIP3   OH217105   1.827   4.254   0.128
 5714TIP3    H117106   1.843   4.324   0.065
 5714TIP3    H217107   1.784   4.298   0.202
 5715TIP3   OH217108   4.551   5.864   5.487
 5715TIP3    H117109   4.545   5.798   5.556
 5715TIP3    H217110   4.546   5.947   5.533
 5716TIP3   OH217111   1.095   6.230   5.825
 5716TIP3    H117112   1.127   6.143   5.805
 5716TIP3    H217113   1.004   6.217   5.855
 5717TIP3   OH217114   7.180   3.653   3.978
 5717TIP3    H117115   7.255   3.607   4.016
 5717TIP3    H217116   7.211   3.681   3.892
 5718TIP3   OH217117   0.992   3.149   2.426
 5718TIP3    H117118   0.995   3.137   2.331
 5718TIP3    H217119   0.900   3.169   2.444
 5719TIP3   OH217120   2.658   5.264   3.559
 5719TIP3    H117121   2.672   5.175   3.591
 5719TIP3    H217122   2.716   5.272   3.483
 5720TIP3   OH217123   4.735   1.164   1.086
 5720TIP3    H117124   4.658   1.112   1.110
 5720TIP3    H217125   4.700   1.252   1.072
 5721TIP3   OH217126   6.465   5.825   2.550
 5721TIP3    H117127   6.425   5.886   2.488
 5721TIP3    H217128   6.391   5.776   2.586
 5722TIP3   OH217129   4.174   4.118   4.797
 5722TIP3    H117130   4.224   4.194   4.829
 5722TIP3    H217131   4.142   4.076   4.877
 5723TIP3   OH217132   2.345   4.455   3.541
 5723TIP3    H117133   2.325   4.363   3.557
 5723TIP3    H217134   2.373   4.458   3.450
 5724TIP3   OH217135   4.969   6.287   5.018
 5724TIP3    H117136   5.050   6.337   5.022
 5724TIP3    H217137   4.973   6.228   5.093
 5725TIP3   OH217138   1.644   0.824   0.264
 5725TIP3    H117139   1.563   0.830   0.213
 5725TIP3    H217140   1.631   0.747   0.320
 5726TIP3   OH217141   6.197   6.278   4.805
 5726TIP3    H117142   6.130   6.336   4.843
 5726TIP3    H217143   6.275   6.333   4.798
 5727TIP3   OH217144   0.156   1.217   4.605
 5727TIP3    H117145   0.082   1.264   4.643
 5727TIP3    H217146   0.229   1.279   4.608
 5728TIP3   OH217147   6.926   1.185   5.059
 5728TIP3    H117148   6.907   1.202   4.967
 5728TIP3    H217149   6.982   1.108   5.058
 5729TIP3   OH217150   1.871   2.371   4.918
 5729TIP3    H117151   1.954   2.342   4.880
 5729TIP3    H217152   1.824   2.410   4.844
 5730TIP3   OH217153   0.241   0.233   0.992
 5730TIP3    H117154   0.284   0.194   1.069
 5730TIP3    H217155   0.148   0.233   1.014
 5731TIP3   OH217156   6.973   5.206   3.554
 5731TIP3    H117157   6.929   5.136   3.505
 5731TIP3    H217158   7.016   5.161   3.627
 5732TIP3   OH217159   6.913   1.014   0.973
 5732TIP3    H117160   6.903   0.945   1.039
 5732TIP3    H217161   7.003   1.005   0.942
 5733TIP3   OH217162   4.434   1.260   5.312
 5733TIP3    H117163   4.361   1.266   5.250
 5733TIP3    H217164   4.405   1.197   5.378
 5734TIP3   OH217165   6.316   2.691   1.136
 5734TIP3    H117166   6.243   2.628   1.125
 5734TIP3    H217167   6.283   2.756   1.198
 5735TIP3   OH217168   2.264   2.424   1.596
 5735TIP3    H117169   2.194   2.472   1.642
 5735TIP3    H217170   2.303   2.370   1.663
 5736TIP3   OH217171   6.606   2.008   5.308
 5736TIP3    H117172   6.579   1.986   5.219
 5736TIP3    H217173   6.549   1.955   5.364
 5737TIP3   OH217174   0.071   3.646   2.145
 5737TIP3    H117175   0.120   3.584   2.197
 5737TIP3    H217176   0.025   3.593   2.080
 5738TIP3   OH217177   5.084   4.894   2.998
 5738TIP3    H117178   5.025   4.970   2.993
 5738TIP3    H217179   5.025   4.819   3.005
 5739TIP3   OH217180   3.851   3.473   3.861
 5739TIP3    H117181   3.769   3.449   3.905
 5739TIP3    H217182   3.917   3.416   3.901
 5740TIP3   OH217183   0.507   0.604   2.703
 5740TIP3    H117184   0.587   0.592   2.651
 5740TIP3    H217185   0.499   0.523   2.753
 5741TIP3   OH217186   1.729   4.018   3.396
 5741TIP3    H117187   1.783   4.081   3.445
 5741TIP3    H217188   1.792   3.968   3.344
 5742TIP3   OH217189   5.179   3.565   1.288
 5742TIP3    H117190   5.123   3.600   1.219
 5742TIP3    H217191   5.267   3.564   1.250
 5743TIP3   OH217192   5.903   2.493   3.341
 5743TIP3    H117193   5.820   2.451   3.316
 5743TIP3    H217194   5.932   2.538   3.262
 5744TIP3   OH217195   1.611   0.017   1.066
 5744TIP3    H117196   1.576  -0.045   1.003
 5744TIP3    H217197   1.559   0.004   1.145
 5745TIP3   OH217198   5.041   4.204   5.078
 5745TIP3    H117199   5.074   4.222   5.166
 5745TIP3    H217200   5.076   4.117   5.056
 5746TIP3   OH217201   4.186   0.763   1.599
 5746TIP3    H117202   4.246   0.717   1.541
 5746TIP3    H217203   4.116   0.794   1.541
 5747TIP3   OH217204   5.498   1.422   3.176
 5747TIP3    H117205   5.471   1.491   3.237
 5747TIP3    H217206   5.585   1.450   3.146
 5748TIP3   OH217207   4.602   0.641   3.480
 5748TIP3    H117208   4.596   0.727   3.440
 5748TIP3    H217209   4.675   0.648   3.542
 5749TIP3   OH217210   7.164   5.602   0.329
 5749TIP3    H117211   7.151   5.616   0.423
 5749TIP3    H217212   7.151   5.508   0.317
 5750TIP3   OH217213   5.459   4.563   4.484
 5750TIP3    H117214   5.465   4.470   4.466
 5750TIP3    H217215   5.509   4.575   4.565
 5751TIP3   OH217216   4.689   5.419   1.547
 5751TIP3    H117217   4.690   5.336   1.595
 5751TIP3    H217218   4.616   5.468   1.584
 5752TIP3   OH217219   2.341   1.672   0.680
 5752TIP3    H117220   2.417   1.616   0.664
 5752TIP3    H217221   2.266   1.613   0.680
 5753TIP3   OH217222   0.245   4.304   3.394
 5753TIP3    H117223   0.239   4.382   3.450
 5753TIP3    H217224   0.338   4.281   3.394
 5754TIP3   OH217225   3.629   4.521   4.089
 5754TIP3    H117226   3.652   4.613   4.104
 5754TIP3    H217227   3.668   4.500   4.005
 5755TIP3   OH217228   5.559   2.888   2.428
 5755TIP3    H117229   5.504   2.959   2.460
 5755TIP3    H217230   5.553   2.894   2.332
 5756TIP3   OH217231   2.944   2.411   1.439
 5756TIP3    H117232   2.935   2.384   1.530
 5756TIP3    H217233   3.015   2.357   1.404
 5757TIP3   OH217234   4.818   6.159   4.244
 5757TIP3    H117235   4.732   6.141   4.207
 5757TIP3    H217236   4.864   6.075   4.241
 5758TIP3   OH217237   3.962   1.884   2.805
 5758TIP3    H117238   3.879   1.918   2.771
 5758TIP3    H217239   4.015   1.962   2.822
 5759TIP3   OH217240   2.430   2.142   2.453
 5759TIP3    H117241   2.424   2.214   2.516
 5759TIP3    H217242   2.455   2.066   2.505
 5760TIP3   OH217243   2.827   4.199   4.223
 5760TIP3    H117244   2.837   4.293   4.238
 5760TIP3    H217245   2.894   4.177   4.158
 5761TIP3   OH217246   1.964   3.510   5.485
 5761TIP3    H117247   1.886   3.563   5.495
 5761TIP3    H217248   1.947   3.457   5.407
 5762TIP3   OH217249   6.914   0.125   1.044
 5762TIP3    H117250   6.834   0.072   1.046
 5762TIP3    H217251   6.936   0.131   0.951
 5763TIP3   OH217252   3.362   6.454   0.491
 5763TIP3    H117253   3.439   6.436   0.437
 5763TIP3    H217254   3.398   6.476   0.577
 5764TIP3   OH217255   4.844   4.516   5.724
 5764TIP3    H117256   4.751   4.494   5.723
 5764TIP3    H217257   4.880   4.472   5.647
 5765TIP3   OH217258   5.117   0.883   2.892
 5765TIP3    H117259   5.198   0.931   2.871
 5765TIP3    H217260   5.142   0.791   2.884
 5766TIP3   OH217261   4.928   3.666   1.882
 5766TIP3    H117262   4.876   3.713   1.817
 5766TIP3    H217263   4.877   3.588   1.903
 5767TIP3   OH217264   7.031   6.551   3.686
 5767TIP3    H117265   6.990   6.465   3.678
 5767TIP3    H217266   7.035   6.584   3.596
 5768TIP3   OH217267   3.234   3.547   0.612
 5768TIP3    H117268   3.262   3.497   0.688
 5768TIP3    H217269   3.138   3.539   0.613
 5769TIP3   OH217270   1.110   5.871   2.128
 5769TIP3    H117271   1.205   5.859   2.136
 5769TIP3    H217272   1.088   5.933   2.198
 5770TIP3   OH217273   3.067   2.638   1.324
 5770TIP3    H117274   3.015   2.569   1.365
 5770TIP3    H217275   3.156   2.605   1.326
 5771TIP3   OH217276   5.950   0.397   1.036
 5771TIP3    H117277   5.948   0.316   1.087
 5771TIP3    H217278   5.970   0.368   0.947
 5772TIP3   OH217279   4.426   2.665   5.331
 5772TIP3    H117280   4.395   2.575   5.317
 5772TIP3    H217281   4.429   2.674   5.426
 5773TIP3   OH217282   6.590   5.340   4.263
 5773TIP3    H117283   6.608   5.328   4.169
 5773TIP3    H217284   6.566   5.432   4.271
 5774TIP3   OH217285   1.316   2.858   3.305
 5774TIP3    H117286   1.348   2.841   3.393
 5774TIP3    H217287   1.261   2.936   3.314
 5775TIP3   OH217288   5.367   4.678   1.850
 5775TIP3    H117289   5.432   4.675   1.920
 5775TIP3    H217290   5.350   4.587   1.829
 5776TIP3   OH217291   6.160   6.485   3.356
 5776TIP3    H117292   6.112   6.568   3.358
 5776TIP3    H217293   6.156   6.453   3.446
 5777TIP3   OH217294   4.258   5.978   2.037
 5777TIP3    H117295   4.249   5.985   2.132
 5777TIP3    H217296   4.184   6.027   2.002
 5778TIP3   OH217297   0.258   6.777   4.199
 5778TIP3    H117298   0.211   6.782   4.116
 5778TIP3    H217299   0.191   6.757   4.264
 5779TIP3   OH217300   3.875   2.407   1.378
 5779TIP3    H117301   3.917   2.332   1.338
 5779TIP3    H217302   3.876   2.388   1.472
 5780TIP3   OH217303   6.680   5.754   1.557
 5780TIP3    H117304   6.727   5.795   1.630
 5780TIP3    H217305   6.734   5.678   1.534
 5781TIP3   OH217306   4.709   3.008   1.551
 5781TIP3    H117307   4.778   2.968   1.604
 5781TIP3    H217308   4.640   3.030   1.613
 5782TIP3   OH217309   1.774   3.062   2.441
 5782TIP3    H117310   1.681   3.082   2.440
 5782TIP3    H217311   1.816   3.141   2.472
 5783TIP3   OH217312   2.697   5.410   1.324
 5783TIP3    H117313   2.691   5.505   1.324
 5783TIP3    H217314   2.660   5.383   1.240
 5784TIP3   OH217315   2.786   4.338   2.778
 5784TIP3    H117316   2.847   4.271   2.747
 5784TIP3    H217317   2.838   4.392   2.838
 5785TIP3   OH217318   0.317   3.357   1.273
 5785TIP3    H117319   0.347   3.411   1.346
 5785TIP3    H217320   0.237   3.315   1.304
 5786TIP3   OH217321   6.160   1.138   4.270
 5786TIP3    H117322   6.159   1.203   4.341
 5786TIP3    H217323   6.092   1.168   4.209
 5787TIP3   OH217324   0.192   2.957   0.076
 5787TIP3    H117325   0.214   3.051   0.076
 5787TIP3    H217326   0.261   2.917   0.130
 5788TIP3   OH217327   0.350   4.967   5.391
 5788TIP3    H117328   0.274   5.019   5.365
 5788TIP3    H217329   0.353   4.896   5.327
 5789TIP3   OH217330   1.091   4.716   3.654
 5789TIP3    H117331   1.101   4.668   3.736
 5789TIP3    H217332   1.171   4.768   3.647
 5790TIP3   OH217333   1.489   4.270   1.422
 5790TIP3    H117334   1.572   4.233   1.452
 5790TIP3    H217335   1.443   4.294   1.502
 5791TIP3   OH217336   4.275   1.335   5.863
 5791TIP3    H117337   4.205   1.341   5.797
 5791TIP3    H217338   4.253   1.257   5.914
 5792TIP3   OH217339   1.363   3.745   5.113
 5792TIP3    H117340   1.418   3.715   5.185
 5792TIP3    H217341   1.394   3.834   5.095
 5793TIP3   OH217342   0.446   4.252   5.670
 5793TIP3    H117343   0.370   4.279   5.617
 5793TIP3    H217344   0.407   4.205   5.744
 5794TIP3   OH217345   2.852   2.981   5.233
 5794TIP3    H117346   2.886   3.042   5.298
 5794TIP3    H217347   2.765   2.957   5.266
 5795TIP3   OH217348   2.074   0.188   2.803
 5795TIP3    H117349   2.101   0.142   2.723
 5795TIP3    H217350   2.131   0.153   2.871
 5796TIP3   OH217351   1.508   2.194   4.996
 5796TIP3    H117352   1.467   2.277   5.021
 5796TIP3    H217353   1.457   2.164   4.920
 5797TIP3   OH217354   4.408   0.462   3.584
 5797TIP3    H117355   4.491   0.510   3.575
 5797TIP3    H217356   4.379   0.447   3.494
 5798TIP3   OH217357   2.347   4.666   0.591
 5798TIP3    H117358   2.382   4.712   0.515
 5798TIP3    H217359   2.252   4.681   0.586
 5799TIP3   OH217360   1.838   1.052   2.302
 5799TIP3    H117361   1.927   1.085   2.292
 5799TIP3    H217362   1.791   1.086   2.226
 5800TIP3   OH217363   6.632   1.477   1.748
 5800TIP3    H117364   6.660   1.421   1.820
 5800TIP3    H217365   6.713   1.514   1.712
 5801TIP3   OH217366   3.369   0.905   4.359
 5801TIP3    H117367   3.462   0.883   4.358
 5801TIP3    H217368   3.344   0.898   4.451
 5802TIP3   OH217369   4.457   5.607   3.400
 5802TIP3    H117370   4.436   5.697   3.422
 5802TIP3    H217371   4.488   5.568   3.481
 5803TIP3   OH217372   3.570   5.397   2.068
 5803TIP3    H117373   3.621   5.433   1.995
 5803TIP3    H217374   3.632   5.341   2.115
 5804TIP3   OH217375   0.346   2.169   1.814
 5804TIP3    H117376   0.354   2.237   1.880
 5804TIP3    H217377   0.253   2.148   1.812
 5805TIP3   OH217378   2.470   6.538   2.115
 5805TIP3    H117379   2.446   6.567   2.027
 5805TIP3    H217380   2.472   6.442   2.108
 5806TIP3   OH217381   1.825   6.258   2.109
 5806TIP3    H117382   1.827   6.214   2.024
 5806TIP3    H217383   1.740   6.234   2.146
 5807TIP3   OH217384   2.979   4.353   1.646
 5807TIP3    H117385   2.888   4.329   1.632
 5807TIP3    H217386   3.024   4.324   1.566
 5808TIP3   OH217387   3.150   2.996   4.952
 5808TIP3    H117388   3.089   2.934   4.990
 5808TIP3    H217389   3.211   2.943   4.901
 5809TIP3   OH217390   4.616   4.698   1.103
 5809TIP3    H117391   4.641   4.782   1.141
 5809TIP3    H217392   4.698   4.663   1.066
 5810TIP3   OH217393   0.987   0.911   4.673
 5810TIP3    H117394   0.949   0.993   4.641
 5810TIP3    H217395   0.967   0.911   4.766
 5811TIP3   OH217396   6.412   3.787   2.434
 5811TIP3    H117397   6.439   3.817   2.520
 5811TIP3    H217398   6.433   3.694   2.433
 5812TIP3   OH217399   6.582   0.050   2.909
 5812TIP3    H117400   6.665   0.050   2.956
 5812TIP3    H217401   6.533   0.124   2.946
 5813TIP3   OH217402   2.295   0.487   1.839
 5813TIP3    H117403   2.282   0.444   1.924
 5813TIP3    H217404   2.301   0.580   1.860
 5814TIP3   OH217405   7.193   6.097   1.333
 5814TIP3    H117406   7.157   6.129   1.415
 5814TIP3    H217407   7.280   6.062   1.356
 5815TIP3   OH217408   6.542   0.576   5.414
 5815TIP3    H117409   6.486   0.560   5.338
 5815TIP3    H217410   6.486   0.562   5.490
 5816TIP3   OH217411   6.566   1.747   3.368
 5816TIP3    H117412   6.485   1.703   3.342
 5816TIP3    H217413   6.630   1.677   3.376
 5817TIP3   OH217414   6.367   4.165   4.264
 5817TIP3    H117415   6.291   4.160   4.206
 5817TIP3    H217416   6.434   4.113   4.219
 5818TIP3   OH217417   3.609   3.271   3.611
 5818TIP3    H117418   3.592   3.296   3.520
 5818TIP3    H217419   3.704   3.260   3.614
 5819TIP3   OH217420   5.500   0.603   2.307
 5819TIP3    H117421   5.491   0.562   2.393
 5819TIP3    H217422   5.482   0.533   2.244
 5820TIP3   OH217423   2.898   2.650   4.211
 5820TIP3    H117424   2.821   2.705   4.198
 5820TIP3    H217425   2.893   2.584   4.141
 5821TIP3   OH217426   2.825   5.557   0.657
 5821TIP3    H117427   2.787   5.484   0.609
 5821TIP3    H217428   2.786   5.635   0.619
 5822TIP3   OH217429   1.900   2.259   1.944
 5822TIP3    H117430   1.945   2.210   2.013
 5822TIP3    H217431   1.899   2.199   1.869
 5823TIP3   OH217432   5.813   2.469   2.479
 5823TIP3    H117433   5.756   2.437   2.409
 5823TIP3    H217434   5.787   2.560   2.491
 5824TIP3   OH217435   3.170   0.249   1.238
 5824TIP3    H117436   3.221   0.315   1.192
 5824TIP3    H217437   3.231   0.212   1.301
 5825TIP3   OH217438   2.955   2.087   2.301
 5825TIP3    H117439   2.964   2.073   2.395
 5825TIP3    H217440   2.916   2.006   2.268
 5826TIP3   OH217441   2.373   3.746   2.367
 5826TIP3    H117442   2.364   3.819   2.306
 5826TIP3    H217443   2.288   3.703   2.364
 5827TIP3   OH217444   5.410   0.769   3.966
 5827TIP3    H117445   5.365   0.684   3.971
 5827TIP3    H217446   5.342   0.830   3.937
 5828TIP3   OH217447   3.023   3.049   1.605
 5828TIP3    H117448   3.016   3.001   1.522
 5828TIP3    H217449   3.109   3.090   1.602
 5829TIP3   OH217450   6.042   4.050   1.939
 5829TIP3    H117451   6.065   4.077   1.850
 5829TIP3    H217452   6.076   4.121   1.994
 5830TIP3   OH217453   5.890   0.961   1.572
 5830TIP3    H117454   5.868   0.956   1.479
 5830TIP3    H217455   5.984   0.947   1.575
 5831TIP3   OH217456   2.688   0.509   5.481
 5831TIP3    H117457   2.663   0.437   5.539
 5831TIP3    H217458   2.772   0.483   5.444
 5832TIP3   OH217459   6.262   1.830   4.838
 5832TIP3    H117460   6.196   1.762   4.851
 5832TIP3    H217461   6.254   1.886   4.915
 5833TIP3   OH217462   5.722   2.103   1.607
 5833TIP3    H117463   5.768   2.039   1.660
 5833TIP3    H217464   5.646   2.129   1.660
 5834TIP3   OH217465   0.127   5.237   3.791
 5834TIP3    H117466   0.195   5.299   3.820
 5834TIP3    H217467   0.176   5.166   3.750
 5835TIP3   OH217468   1.043   1.681   3.404
 5835TIP3    H117469   1.033   1.769   3.367
 5835TIP3    H217470   1.107   1.692   3.475
 5836TIP3   OH217471   6.333   4.283   1.385
 5836TIP3    H117472   6.416   4.251   1.420
 5836TIP3    H217473   6.308   4.217   1.319
 5837TIP3   OH217474   3.791   5.030   4.417
 5837TIP3    H117475   3.877   5.054   4.384
 5837TIP3    H217476   3.763   4.958   4.360
 5838TIP3   OH217477   4.557   6.539   0.742
 5838TIP3    H117478   4.565   6.593   0.821
 5838TIP3    H217479   4.464   6.544   0.719
 5839TIP3   OH217480   3.258   0.716   0.608
 5839TIP3    H117481   3.260   0.671   0.692
 5839TIP3    H217482   3.291   0.651   0.546
 5840TIP3   OH217483   2.862   4.573   4.907
 5840TIP3    H117484   2.798   4.585   4.837
 5840TIP3    H217485   2.848   4.483   4.937
 5841TIP3   OH217486   7.064   1.825   4.448
 5841TIP3    H117487   7.144   1.867   4.417
 5841TIP3    H217488   7.031   1.778   4.371
 5842TIP3   OH217489   4.671   3.172   2.986
 5842TIP3    H117490   4.576   3.180   2.971
 5842TIP3    H217491   4.684   3.214   3.071
 5843TIP3   OH217492   4.232   4.105   2.908
 5843TIP3    H117493   4.316   4.073   2.876
 5843TIP3    H217494   4.237   4.095   3.003
 5844TIP3   OH217495   6.220   5.975   2.708
 5844TIP3    H117496   6.148   5.926   2.669
 5844TIP3    H217497   6.198   5.980   2.801
 5845TIP3   OH217498   0.770   3.322   3.959
 5845TIP3    H117499   0.714   3.400   3.960
 5845TIP3    H217500   0.839   3.344   3.896
 5846TIP3   OH217501   3.725   4.954   3.123
 5846TIP3    H117502   3.783   4.964   3.048
 5846TIP3    H217503   3.718   4.859   3.136
 5847TIP3   OH217504   2.360   1.647   5.398
 5847TIP3    H117505   2.356   1.691   5.313
 5847TIP3    H217506   2.448   1.667   5.431
 5848TIP3   OH217507   6.812   1.689   3.619
 5848TIP3    H117508   6.757   1.626   3.571
 5848TIP3    H217509   6.755   1.722   3.688
 5849TIP3   OH217510   0.215   6.155   1.152
 5849TIP3    H117511   0.141   6.202   1.193
 5849TIP3    H217512   0.246   6.096   1.221
 5850TIP3   OH217513   2.586   1.034   5.729
 5850TIP3    H117514   2.553   0.999   5.812
 5850TIP3    H217515   2.508   1.042   5.674
 5851TIP3   OH217516   4.033   2.011   0.908
 5851TIP3    H117517   3.974   1.954   0.858
 5851TIP3    H217518   4.037   2.091   0.857
 5852TIP3   OH217519   2.597   1.460   0.964
 5852TIP3    H117520   2.512   1.490   0.995
 5852TIP3    H217521   2.579   1.375   0.924
 5853TIP3   OH217522   1.986   6.200   1.835
 5853TIP3    H117523   2.056   6.142   1.865
 5853TIP3    H217524   2.029   6.263   1.779
 5854TIP3   OH217525   3.825   1.229   2.885
 5854TIP3    H117526   3.905   1.203   2.841
 5854TIP3    H217527   3.770   1.266   2.816
 5855TIP3   OH217528   2.761   2.076   4.931
 5855TIP3    H117529   2.707   2.012   4.884
 5855TIP3    H217530   2.799   2.026   5.004
 5856TIP3   OH217531   0.021   0.034   3.521
 5856TIP3    H117532   0.011   0.036   3.616
 5856TIP3    H217533  -0.019   0.116   3.491
 5857TIP3   OH217534   3.454   1.364   2.135
 5857TIP3    H117535   3.512   1.302   2.179
 5857TIP3    H217536   3.510   1.439   2.114
 5858TIP3   OH217537   4.587   2.204   1.247
 5858TIP3    H117538   4.584   2.293   1.281
 5858TIP3    H217539   4.678   2.177   1.257
 5859TIP3   OH217540   3.146   1.377   0.035
 5859TIP3    H117541   3.155   1.390   0.129
 5859TIP3    H217542   3.183   1.290   0.019
 5860TIP3   OH217543   2.395   2.084   5.615
 5860TIP3    H117544   2.415   2.155   5.676
 5860TIP3    H217545   2.476   2.072   5.566
 5861TIP3   OH217546   4.365   6.122   0.217
 5861TIP3    H117547   4.382   6.195   0.277
 5861TIP3    H217548   4.448   6.111   0.169
 5862TIP3   OH217549   6.768   0.875   2.322
 5862TIP3    H117550   6.709   0.951   2.321
 5862TIP3    H217551   6.762   0.842   2.412
 5863TIP3   OH217552   2.643   3.919   3.527
 5863TIP3    H117553   2.692   3.935   3.608
 5863TIP3    H217554   2.627   3.825   3.527
 5864TIP3   OH217555   0.914   6.017   1.299
 5864TIP3    H117556   0.929   6.064   1.381
 5864TIP3    H217557   0.870   6.080   1.242
 5865TIP3   OH217558   5.189   1.116   0.531
 5865TIP3    H117559   5.165   1.076   0.448
 5865TIP3    H217560   5.230   1.045   0.581
 5866TIP3   OH217561   5.211   4.211   4.549
 5866TIP3    H117562   5.153   4.228   4.623
 5866TIP3    H217563   5.163   4.241   4.473
 5867TIP3   OH217564   6.906   2.998   3.666
 5867TIP3    H117565   6.832   2.938   3.664
 5867TIP3    H217566   6.982   2.943   3.646
 5868TIP3   OH217567   0.521   4.389   1.584
 5868TIP3    H117568   0.512   4.419   1.493
 5868TIP3    H217569   0.449   4.327   1.596
 5869TIP3   OH217570   5.318   3.891   0.439
 5869TIP3    H117571   5.224   3.900   0.425
 5869TIP3    H217572   5.355   3.975   0.412
 5870TIP3   OH217573   4.340   3.089   1.907
 5870TIP3    H117574   4.372   3.123   1.991
 5870TIP3    H217575   4.387   3.007   1.894
 5871TIP3   OH217576   1.693   0.535   1.684
 5871TIP3    H117577   1.754   0.580   1.625
 5871TIP3    H217578   1.673   0.453   1.639
 5872TIP3   OH217579   1.758   0.707   5.162
 5872TIP3    H117580   1.796   0.787   5.197
 5872TIP3    H217581   1.748   0.723   5.069
 5873TIP3   OH217582   7.142   3.138   4.356
 5873TIP3    H117583   7.073   3.108   4.415
 5873TIP3    H217584   7.146   3.233   4.371
 5874TIP3   OH217585   5.562   6.437   5.291
 5874TIP3    H117586   5.548   6.505   5.357
 5874TIP3    H217587   5.571   6.486   5.209
 5875TIP3   OH217588   3.182   5.057   1.650
 5875TIP3    H117589   3.106   5.038   1.595
 5875TIP3    H217590   3.159   5.137   1.696
 5876TIP3   OH217591   3.916   5.403   1.276
 5876TIP3    H117592   3.893   5.315   1.248
 5876TIP3    H217593   4.009   5.412   1.255
 5877TIP3   OH217594   4.222   4.797   5.336
 5877TIP3    H117595   4.176   4.876   5.366
 5877TIP3    H217596   4.315   4.821   5.341
 5878TIP3   OH217597   3.586   0.273   2.044
 5878TIP3    H117598   3.548   0.206   2.099
 5878TIP3    H217599   3.654   0.229   1.993
 5879TIP3   OH217600   7.119   2.526   2.211
 5879TIP3    H117601   7.155   2.453   2.261
 5879TIP3    H217602   7.071   2.484   2.139
 5880TIP3   OH217603   6.581   2.475   3.254
 5880TIP3    H117604   6.622   2.448   3.172
 5880TIP3    H217605   6.551   2.565   3.238
 5881TIP3   OH217606   0.270   2.442   1.085
 5881TIP3    H117607   0.263   2.468   1.177
 5881TIP3    H217608   0.307   2.519   1.041
 5882TIP3   OH217609   5.360   0.255   2.686
 5882TIP3    H117610   5.441   0.217   2.653
 5882TIP3    H217611   5.334   0.197   2.758
 5883TIP3   OH217612   3.265   6.039   3.029
 5883TIP3    H117613   3.346   6.056   3.077
 5883TIP3    H217614   3.293   6.005   2.945
 5884TIP3   OH217615   3.560   4.660   0.902
 5884TIP3    H117616   3.539   4.630   0.991
 5884TIP3    H217617   3.582   4.580   0.855
 5885TIP3   OH217618   1.917   1.324   1.897
 5885TIP3    H117619   1.837   1.356   1.939
 5885TIP3    H217620   1.945   1.397   1.842
 5886TIP3   OH217621   0.247   3.245   5.236
 5886TIP3    H117622   0.275   3.154   5.225
 5886TIP3    H217623   0.152   3.242   5.229
 5887TIP3   OH217624   0.751   3.210   4.226
 5887TIP3    H117625   0.663   3.175   4.218
 5887TIP3    H217626   0.762   3.266   4.150
 5888TIP3   OH217627   2.332   1.851   0.879
 5888TIP3    H117628   2.326   1.932   0.828
 5888TIP3    H217629   2.361   1.786   0.816
 5889TIP3   OH217630   1.360   5.481   4.874
 5889TIP3    H117631   1.276   5.479   4.920
 5889TIP3    H217632   1.359   5.402   4.819
 5890TIP3   OH217633   6.430   1.485   3.825
 5890TIP3    H117634   6.454   1.394   3.809
 5890TIP3    H217635   6.353   1.479   3.883
 5891TIP3   OH217636   6.474   0.328   3.841
 5891TIP3    H117637   6.382   0.354   3.837
 5891TIP3    H217638   6.521   0.408   3.867
 5892TIP3   OH217639   7.201   2.908   0.237
 5892TIP3    H117640   7.244   2.898   0.322
 5892TIP3    H217641   7.273   2.909   0.174
 5893TIP3   OH217642   0.549   1.682   0.076
 5893TIP3    H117643   0.543   1.726  -0.009
 5893TIP3    H217644   0.609   1.609   0.062
 5894TIP3   OH217645   6.399   4.857   0.631
 5894TIP3    H117646   6.387   4.873   0.537
 5894TIP3    H217647   6.314   4.825   0.661
 5895TIP3   OH217648   5.553   5.627   0.135
 5895TIP3    H117649   5.524   5.538   0.154
 5895TIP3    H217650   5.576   5.625   0.042
 5896TIP3   OH217651   2.857   2.497   3.779
 5896TIP3    H117652   2.948   2.497   3.747
 5896TIP3    H217653   2.808   2.545   3.712
 5897TIP3   OH217654   2.028   6.406   4.486
 5897TIP3    H117655   2.063   6.478   4.538
 5897TIP3    H217656   1.997   6.447   4.406
 5898TIP3   OH217657   6.364   6.325   1.722
 5898TIP3    H117658   6.363   6.295   1.813
 5898TIP3    H217659   6.326   6.252   1.673
 5899TIP3   OH217660   5.697   4.238   5.760
 5899TIP3    H117661   5.641   4.292   5.815
 5899TIP3    H217662   5.720   4.162   5.815
 5900TIP3   OH217663   2.815   1.464   2.087
 5900TIP3    H117664   2.791   1.391   2.029
 5900TIP3    H217665   2.885   1.509   2.040
 5901TIP3   OH217666   1.107   4.306   2.031
 5901TIP3    H117667   1.105   4.290   1.937
 5901TIP3    H217668   1.095   4.400   2.040
 5902TIP3   OH217669   5.709   6.057   2.609
 5902TIP3    H117670   5.772   6.062   2.537
 5902TIP3    H217671   5.758   6.084   2.686
 5903TIP3   OH217672   4.349   0.430   4.795
 5903TIP3    H117673   4.258   0.406   4.778
 5903TIP3    H217674   4.399   0.390   4.724
 5904TIP3   OH217675   4.343   1.235   0.445
 5904TIP3    H117676   4.407   1.221   0.514
 5904TIP3    H217677   4.272   1.174   0.466
 5905TIP3   OH217678   0.146   5.432   0.772
 5905TIP3    H117679   0.079   5.489   0.810
 5905TIP3    H217680   0.127   5.346   0.809
 5906TIP3   OH217681   1.417   4.829   4.100
 5906TIP3    H117682   1.437   4.748   4.052
 5906TIP3    H217683   1.433   4.899   4.037
 5907TIP3   OH217684   2.674   6.547   0.944
 5907TIP3    H117685   2.652   6.640   0.951
 5907TIP3    H217686   2.723   6.528   1.023
 5908TIP3   OH217687   6.105   0.666   3.452
 5908TIP3    H117688   6.142   0.580   3.470
 5908TIP3    H217689   6.136   0.720   3.524
 5909TIP3   OH217690   5.296   5.082   5.383
 5909TIP3    H117691   5.247   5.164   5.391
 5909TIP3    H217692   5.284   5.039   5.467
 5910TIP3   OH217693   5.620   0.212   3.376
 5910TIP3    H117694   5.615   0.156   3.452
 5910TIP3    H217695   5.675   0.164   3.314
 5911TIP3   OH217696   5.852   6.147   2.839
 5911TIP3    H117697   5.926   6.177   2.891
 5911TIP3    H217698   5.775   6.174   2.888
 5912TIP3   OH217699   5.385   5.085   2.334
 5912TIP3    H117700   5.431   5.165   2.360
 5912TIP3    H217701   5.297   5.114   2.308
 5913TIP3   OH217702   5.766   0.559   2.980
 5913TIP3    H117703   5.813   0.554   2.896
 5913TIP3    H217704   5.811   0.496   3.036
 5914TIP3   OH217705   5.574   3.184   5.290
 5914TIP3    H117706   5.540   3.252   5.348
 5914TIP3    H217707   5.547   3.102   5.330
 5915TIP3   OH217708   1.813   0.422   4.694
 5915TIP3    H117709   1.891   0.457   4.737
 5915TIP3    H217710   1.825   0.327   4.698
 5916TIP3   OH217711   2.494   2.737   4.113
 5916TIP3    H117712   2.529   2.782   4.190
 5916TIP3    H217713   2.432   2.799   4.075
 5917TIP3   OH217714   5.296   6.284   4.875
 5917TIP3    H117715   5.301   6.282   4.971
 5917TIP3    H217716   5.277   6.376   4.854
 5918TIP3   OH217717   5.149   3.173   0.587
 5918TIP3    H117718   5.227   3.219   0.558
 5918TIP3    H217719   5.160   3.084   0.553
 5919TIP3   OH217720   3.720   2.349   2.029
 5919TIP3    H117721   3.804   2.303   2.030
 5919TIP3    H217722   3.735   2.428   2.081
 5920TIP3   OH217723   4.022   1.082   3.970
 5920TIP3    H117724   4.085   1.137   4.017
 5920TIP3    H217725   4.003   1.131   3.890
 5921TIP3   OH217726   5.532   1.054   5.644
 5921TIP3    H117727   5.525   1.085   5.734
 5921TIP3    H217728   5.612   1.001   5.643
 5922TIP3   OH217729   6.672   3.166   0.144
 5922TIP3    H117730   6.721   3.168   0.226
 5922TIP3    H217731   6.599   3.107   0.160
 5923TIP3   OH217732   3.886   4.264   3.631
 5923TIP3    H117733   3.884   4.308   3.716
 5923TIP3    H217734   3.880   4.171   3.652
 5924TIP3   OH217735   2.668   0.170   4.705
 5924TIP3    H117736   2.737   0.162   4.639
 5924TIP3    H217737   2.703   0.232   4.769
 5925TIP3   OH217738   4.214   1.247   5.137
 5925TIP3    H117739   4.235   1.153   5.140
 5925TIP3    H217740   4.119   1.249   5.126
 5926TIP3   OH217741   6.145   3.582   3.345
 5926TIP3    H117742   6.110   3.503   3.303
 5926TIP3    H217743   6.191   3.628   3.275
 5927TIP3   OH217744   6.009   5.331   4.052
 5927TIP3    H117745   5.985   5.421   4.076
 5927TIP3    H217746   6.088   5.340   4.000
 5928TIP3   OH217747   4.879   6.017   5.462
 5928TIP3    H117748   4.926   5.940   5.493
 5928TIP3    H217749   4.793   5.983   5.436
 5929TIP3   OH217750   7.153   3.548   0.524
 5929TIP3    H117751   7.089   3.504   0.581
 5929TIP3    H217752   7.143   3.641   0.545
 5930TIP3   OH217753   4.253   4.639   3.355
 5930TIP3    H117754   4.330   4.611   3.405
 5930TIP3    H217755   4.181   4.634   3.418
 5931TIP3   OH217756   5.151   3.427   2.942
 5931TIP3    H117757   5.154   3.467   3.029
 5931TIP3    H217758   5.121   3.497   2.884
 5932TIP3   OH217759   7.109   3.744   5.384
 5932TIP3    H117760   7.202   3.725   5.377
 5932TIP3    H217761   7.102   3.837   5.367
 5933TIP3   OH217762   3.536   3.815   5.495
 5933TIP3    H117763   3.629   3.812   5.520
 5933TIP3    H217764   3.519   3.730   5.455
 5934TIP3   OH217765   3.188   0.839   3.272
 5934TIP3    H117766   3.104   0.864   3.311
 5934TIP3    H217767   3.254   0.888   3.321
 5935TIP3   OH217768   5.339   1.826   5.833
 5935TIP3    H117769   5.262   1.883   5.830
 5935TIP3    H217770   5.309   1.743   5.794
 5936TIP3   OH217771   6.448   1.741   4.049
 5936TIP3    H117772   6.421   1.831   4.031
 5936TIP3    H217773   6.485   1.709   3.967
 5937TIP3   OH217774   3.743   1.592   1.346
 5937TIP3    H117775   3.674   1.525   1.347
 5937TIP3    H217776   3.698   1.672   1.374
 5938TIP3   OH217777   1.503   1.755   4.368
 5938TIP3    H117778   1.562   1.713   4.430
 5938TIP3    H217779   1.490   1.690   4.299
 5939TIP3   OH217780   1.968   1.299   3.616
 5939TIP3    H117781   1.886   1.253   3.599
 5939TIP3    H217782   1.970   1.370   3.553
 5940TIP3   OH217783   4.701   0.164   4.353
 5940TIP3    H117784   4.769   0.103   4.381
 5940TIP3    H217785   4.688   0.222   4.428
 5941TIP3   OH217786   0.715   4.226   5.877
 5941TIP3    H117787   0.623   4.222   5.903
 5941TIP3    H217788   0.712   4.262   5.788
 5942TIP3   OH217789   0.221   0.973   1.597
 5942TIP3    H117790   0.131   0.970   1.631
 5942TIP3    H217791   0.272   1.011   1.668
 5943TIP3   OH217792   2.566   1.739   4.307
 5943TIP3    H117793   2.478   1.711   4.281
 5943TIP3    H217794   2.562   1.742   4.403
 5944TIP3   OH217795   1.979   6.543   3.307
 5944TIP3    H117796   1.898   6.529   3.356
 5944TIP3    H217797   2.015   6.623   3.344
 5945TIP3   OH217798   6.302   0.181   2.245
 5945TIP3    H117799   6.396   0.192   2.234
 5945TIP3    H217800   6.263   0.235   2.176
 5946TIP3   OH217801   2.975   3.960   5.509
 5946TIP3    H117802   3.025   3.932   5.432
 5946TIP3    H217803   2.973   4.055   5.503
 5947TIP3   OH217804   3.558   3.570   3.961
 5947TIP3    H117805   3.516   3.654   3.943
 5947TIP3    H217806   3.600   3.581   4.046
 5948TIP3   OH217807   3.188   3.727   5.051
 5948TIP3    H117808   3.273   3.689   5.069
 5948TIP3    H217809   3.132   3.652   5.031
 5949TIP3   OH217810   5.809   0.868   2.734
 5949TIP3    H117811   5.782   0.940   2.792
 5949TIP3    H217812   5.825   0.912   2.650
 5950TIP3   OH217813   5.848   4.116   3.586
 5950TIP3    H117814   5.893   4.073   3.659
 5950TIP3    H217815   5.827   4.045   3.526
 5951TIP3   OH217816   2.338   2.174  -0.000
 5951TIP3    H117817   2.333   2.167   0.095
 5951TIP3    H217818   2.417   2.126  -0.024
 5952TIP3   OH217819   0.001   1.458   4.056
 5952TIP3    H117820   0.090   1.425   4.071
 5952TIP3    H217821  -0.003   1.473   3.962
 5953TIP3   OH217822   4.763   3.387   0.364
 5953TIP3    H117823   4.777   3.293   0.362
 5953TIP3    H217824   4.674   3.398   0.397
 5954TIP3   OH217825   7.158   6.270   0.028
 5954TIP3    H117826   7.212   6.208   0.076
 5954TIP3    H217827   7.207   6.353   0.033
 5955TIP3   OH217828   1.781   4.988   1.093
 5955TIP3    H117829   1.811   4.916   1.149
 5955TIP3    H217830   1.857   5.009   1.039
 5956TIP3   OH217831   0.974   1.354   4.516
 5956TIP3    H117832   1.066   1.338   4.495
 5956TIP3    H217833   0.964   1.449   4.510
 5957TIP3   OH217834   6.584   2.793   4.503
 5957TIP3    H117835   6.546   2.709   4.529
 5957TIP3    H217836   6.677   2.784   4.524
 5958TIP3   OH217837   1.110   2.165   0.430
 5958TIP3    H117838   1.141   2.086   0.474
 5958TIP3    H217839   1.042   2.200   0.488
 5959TIP3   OH217840   6.853   0.900   0.346
 5959TIP3    H117841   6.851   0.912   0.441
 5959TIP3    H217842   6.909   0.822   0.333
 5960TIP3   OH217843   4.168   4.427   5.254
 5960TIP3    H117844   4.117   4.488   5.307
 5960TIP3    H217845   4.104   4.387   5.196
 5961TIP3   OH217846   4.037   6.714   1.225
 5961TIP3    H117847   4.111   6.734   1.168
 5961TIP3    H217848   4.067   6.638   1.276
 5962TIP3   OH217849   2.964   3.082   0.230
 5962TIP3    H117850   2.985   3.105   0.321
 5962TIP3    H217851   3.001   3.153   0.178
 5963TIP3   OH217852   1.223   3.387   2.064
 5963TIP3    H117853   1.288   3.436   2.015
 5963TIP3    H217854   1.171   3.453   2.110
 5964TIP3   OH217855   6.625   1.108   2.295
 5964TIP3    H117856   6.666   1.195   2.289
 5964TIP3    H217857   6.538   1.121   2.258
 5965TIP3   OH217858   3.929   6.657   0.821
 5965TIP3    H117859   3.951   6.568   0.794
 5965TIP3    H217860   4.009   6.691   0.860
 5966TIP3   OH217861   3.068   0.800   5.217
 5966TIP3    H117862   3.053   0.727   5.157
 5966TIP3    H217863   3.071   0.877   5.160
 5967TIP3   OH217864   4.773   2.642   4.708
 5967TIP3    H117865   4.783   2.723   4.658
 5967TIP3    H217866   4.678   2.630   4.715
 5968TIP3   OH217867   0.509   6.095   2.598
 5968TIP3    H117868   0.469   6.086   2.511
 5968TIP3    H217869   0.548   6.183   2.596
 5969TIP3   OH217870   1.163   0.421   3.419
 5969TIP3    H117871   1.243   0.370   3.411
 5969TIP3    H217872   1.101   0.381   3.359
 5970TIP3   OH217873   3.186   1.340   3.585
 5970TIP3    H117874   3.124   1.397   3.630
 5970TIP3    H217875   3.262   1.396   3.568
 5971TIP3   OH217876   3.366   4.787   5.509
 5971TIP3    H117877   3.416   4.856   5.465
 5971TIP3    H217878   3.290   4.773   5.452
 5972TIP3   OH217879   6.851   6.725   2.395
 5972TIP3    H117880   6.755   6.725   2.398
 5972TIP3    H217881   6.873   6.701   2.305
 5973TIP3   OH217882   0.925   1.002   4.314
 5973TIP3    H117883   1.013   0.966   4.309
 5973TIP3    H217884   0.868   0.925   4.309
 5974TIP3   OH217885   1.172   0.087   5.075
 5974TIP3    H117886   1.250   0.126   5.114
 5974TIP3    H217887   1.171   0.121   4.985
 5975TIP3   OH217888   2.366   2.807   5.242
 5975TIP3    H117889   2.323   2.746   5.182
 5975TIP3    H217890   2.459   2.792   5.229
 5976TIP3   OH217891   4.648   3.600   5.099
 5976TIP3    H117892   4.687   3.599   5.186
 5976TIP3    H217893   4.703   3.542   5.047
 5977TIP3   OH217894   1.485   1.326   5.864
 5977TIP3    H117895   1.494   1.232   5.880
 5977TIP3    H217896   1.485   1.366   5.951
 5978TIP3   OH217897   2.550   1.988   0.553
 5978TIP3    H117898   2.456   1.991   0.567
 5978TIP3    H217899   2.568   1.896   0.532
 5979TIP3   OH217900   6.261   0.409   4.235
 5979TIP3    H117901   6.322   0.341   4.208
 5979TIP3    H217902   6.220   0.438   4.154
 5980TIP3   OH217903   7.024   3.664   4.770
 5980TIP3    H117904   6.956   3.731   4.774
 5980TIP3    H217905   7.035   3.636   4.860
 5981TIP3   OH217906   5.107   0.708   5.257
 5981TIP3    H117907   5.142   0.758   5.183
 5981TIP3    H217908   5.174   0.716   5.325
 5982TIP3   OH217909   5.313   6.506   4.670
 5982TIP3    H117910   5.388   6.495   4.728
 5982TIP3    H217911   5.242   6.534   4.727
 5983TIP3   OH217912   5.232   2.402   3.647
 5983TIP3    H117913   5.249   2.382   3.739
 5983TIP3    H217914   5.138   2.418   3.643
 5984TIP3   OH217915   4.677   2.664   2.695
 5984TIP3    H117916   4.653   2.722   2.623
 5984TIP3    H217917   4.613   2.592   2.689
 5985TIP3   OH217918   4.349   4.698   1.063
 5985TIP3    H117919   4.436   4.698   1.104
 5985TIP3    H217920   4.312   4.784   1.084
 5986TIP3   OH217921   1.314   0.295   5.287
 5986TIP3    H117922   1.315   0.354   5.212
 5986TIP3    H217923   1.275   0.348   5.357
 5987TIP3   OH217924   4.117   2.676   5.659
 5987TIP3    H117925   4.041   2.652   5.713
 5987TIP3    H217926   4.170   2.596   5.656
 5988TIP3   OH217927   3.234   4.917   4.057
 5988TIP3    H117928   3.192   4.833   4.042
 5988TIP3    H217929   3.317   4.912   4.009
 5989TIP3   OH217930   5.642   0.206   0.710
 5989TIP3    H117931   5.558   0.181   0.672
 5989TIP3    H217932   5.696   0.127   0.702
 5990TIP3   OH217933   1.317   2.492   3.260
 5990TIP3    H117934   1.387   2.549   3.292
 5990TIP3    H217935   1.348   2.461   3.175
 5991TIP3   OH217936   1.077   0.495   0.175
 5991TIP3    H117937   1.149   0.520   0.232
 5991TIP3    H217938   1.005   0.553   0.200
 5992TIP3   OH217939   1.475   3.184   3.798
 5992TIP3    H117940   1.498   3.260   3.851
 5992TIP3    H217941   1.460   3.219   3.710
 5993TIP3   OH217942   6.747   2.102   1.920
 5993TIP3    H117943   6.717   2.179   1.968
 5993TIP3    H217944   6.695   2.102   1.839
 5994TIP3   OH217945   1.072   0.130   2.565
 5994TIP3    H117946   1.075   0.154   2.657
 5994TIP3    H217947   1.000   0.067   2.559
 5995TIP3   OH217948   0.424   3.401   5.522
 5995TIP3    H117949   0.450   3.444   5.441
 5995TIP3    H217950   0.336   3.434   5.539
 5996TIP3   OH217951   1.394   1.154   1.454
 5996TIP3    H117952   1.389   1.064   1.487
 5996TIP3    H217953   1.318   1.198   1.491
 5997TIP3   OH217954   4.078   3.605   1.210
 5997TIP3    H117955   4.061   3.512   1.192
 5997TIP3    H217956   4.043   3.620   1.297
 5998TIP3   OH217957   6.986   6.471   2.259
 5998TIP3    H117958   6.909   6.440   2.305
 5998TIP3    H217959   6.976   6.438   2.169
 5999TIP3   OH217960   4.873   6.330   3.525
 5999TIP3    H117961   4.823   6.397   3.570
 5999TIP3    H217962   4.807   6.275   3.482
 6000TIP3   OH217963   0.141   3.453   5.756
 6000TIP3    H117964   0.074   3.420   5.816
 6000TIP3    H217965   0.095   3.463   5.673
 6001TIP3   OH217966   6.588   4.818   4.193
 6001TIP3    H117967   6.613   4.755   4.261
 6001TIP3    H217968   6.597   4.903   4.235
 6002TIP3   OH217969   1.583   5.596   1.163
 6002TIP3    H117970   1.625   5.519   1.123
 6002TIP3    H217971   1.537   5.560   1.239
 6003TIP3   OH217972   3.543   2.486   4.044
 6003TIP3    H117973   3.618   2.468   3.988
 6003TIP3    H217974   3.467   2.477   3.986
 6004TIP3   OH217975   2.268   2.365   2.046
 6004TIP3    H117976   2.309   2.384   2.131
 6004TIP3    H217977   2.210   2.292   2.063
 6005TIP3   OH217978   6.820   2.489   2.343
 6005TIP3    H117979   6.778   2.554   2.286
 6005TIP3    H217980   6.748   2.431   2.370
 6006TIP3   OH217981   6.954   4.304   3.017
 6006TIP3    H117982   6.886   4.368   3.036
 6006TIP3    H217983   6.911   4.239   2.961
 6007TIP3   OH217984   3.257   0.871   1.518
 6007TIP3    H117985   3.175   0.913   1.492
 6007TIP3    H217986   3.323   0.908   1.459
 6008TIP3   OH217987   5.670   3.591   4.940
 6008TIP3    H117988   5.609   3.521   4.965
 6008TIP3    H217989   5.706   3.562   4.856
 6009TIP3   OH217990   6.365   4.884   0.360
 6009TIP3    H117991   6.302   4.940   0.314
 6009TIP3    H217992   6.361   4.801   0.313
 6010TIP3   OH217993   1.737   1.486   0.256
 6010TIP3    H117994   1.706   1.415   0.200
 6010TIP3    H217995   1.719   1.565   0.205
 6011TIP3   OH217996   0.900   5.927   4.431
 6011TIP3    H117997   0.832   5.897   4.491
 6011TIP3    H217998   0.896   6.022   4.436
 6012TIP3   OH217999   6.425   1.624   0.467
 6012TIP3    H118000   6.358   1.672   0.515
 6012TIP3    H218001   6.507   1.652   0.508
 6013TIP3   OH218002   4.301   6.655   1.650
 6013TIP3    H118003   4.362   6.690   1.714
 6013TIP3    H218004   4.227   6.717   1.651
 6014TIP3   OH218005   0.719   2.235   4.718
 6014TIP3    H118006   0.776   2.284   4.659
 6014TIP3    H218007   0.635   2.232   4.673
 6015TIP3   OH218008   3.057   3.224   5.138
 6015TIP3    H118009   3.077   3.134   5.111
 6015TIP3    H218010   3.034   3.217   5.230
 6016TIP3   OH218011   0.211   3.248   0.370
 6016TIP3    H118012   0.263   3.242   0.450
 6016TIP3    H218013   0.157   3.169   0.370
 6017TIP3   OH218014   5.883   4.552   4.726
 6017TIP3    H118015   5.915   4.484   4.667
 6017TIP3    H218016   5.933   4.630   4.701
 6018TIP3   OH218017   6.961   6.207   5.391
 6018TIP3    H118018   6.949   6.194   5.485
 6018TIP3    H218019   6.937   6.299   5.376
 6019TIP3   OH218020   2.310   6.076   0.554
 6019TIP3    H118021   2.322   6.158   0.506
 6019TIP3    H218022   2.367   6.013   0.510
 6020TIP3   OH218023   6.639   3.053   5.328
 6020TIP3    H118024   6.565   3.108   5.303
 6020TIP3    H218025   6.662   3.007   5.247
 6021TIP3   OH218026   3.865   0.438   5.181
 6021TIP3    H118027   3.946   0.483   5.154
 6021TIP3    H218028   3.880   0.346   5.160
 6022TIP3   OH218029   4.291   2.490   1.917
 6022TIP3    H118030   4.261   2.418   1.862
 6022TIP3    H218031   4.232   2.562   1.897
 6023TIP3   OH218032   2.185   1.636   1.453
 6023TIP3    H118033   2.254   1.645   1.519
 6023TIP3    H218034   2.112   1.687   1.488
 6024TIP3   OH218035   3.707   0.729   2.347
 6024TIP3    H118036   3.662   0.778   2.417
 6024TIP3    H218037   3.665   0.643   2.348
 6025TIP3   OH218038   4.375   2.031   0.412
 6025TIP3    H118039   4.437   2.010   0.483
 6025TIP3    H218040   4.400   1.972   0.341
 6026TIP3   OH218041   3.794   0.890   5.785
 6026TIP3    H118042   3.840   0.846   5.857
 6026TIP3    H218043   3.709   0.913   5.821
 6027TIP3   OH218044   4.779   2.833   4.504
 6027TIP3    H118045   4.745   2.856   4.418
 6027TIP3    H218046   4.725   2.882   4.566
 6028TIP3   OH218047   2.421   3.120   4.376
 6028TIP3    H118048   2.364   3.197   4.375
 6028TIP3    H218049   2.363   3.048   4.399
 6029TIP3   OH218050   0.841   1.792   3.663
 6029TIP3    H118051   0.900   1.802   3.588
 6029TIP3    H218052   0.857   1.704   3.695
 6030TIP3   OH218053   4.023   1.288   1.392
 6030TIP3    H118054   4.100   1.248   1.433
 6030TIP3    H218055   3.949   1.235   1.422
 6031TIP3   OH218056   3.535   2.966   4.091
 6031TIP3    H118057   3.599   2.950   4.022
 6031TIP3    H218058   3.452   2.977   4.044
 6032TIP3   OH218059   0.974   5.960   5.511
 6032TIP3    H118060   1.009   5.873   5.525
 6032TIP3    H218061   0.917   5.951   5.434
 6033TIP3   OH218062   6.319   4.282   3.286
 6033TIP3    H118063   6.403   4.319   3.313
 6033TIP3    H218064   6.268   4.357   3.258
 6034TIP3   OH218065   5.669   0.967   1.003
 6034TIP3    H118066   5.632   0.881   1.023
 6034TIP3    H218067   5.719   0.990   1.081
 6035TIP3   OH218068   6.246   5.530   1.149
 6035TIP3    H118069   6.289   5.541   1.064
 6035TIP3    H218070   6.312   5.486   1.203
 6036TIP3   OH218071   1.041   5.200   4.963
 6036TIP3    H118072   1.048   5.147   4.884
 6036TIP3    H218073   0.976   5.155   5.017
 6037TIP3   OH218074   2.605   0.291   4.199
 6037TIP3    H118075   2.624   0.282   4.105
 6037TIP3    H218076   2.686   0.264   4.242
 6038TIP3   OH218077   4.165   0.988   0.769
 6038TIP3    H118078   4.165   0.912   0.828
 6038TIP3    H218079   4.255   0.993   0.735
 6039TIP3   OH218080   5.144   0.215   0.034
 6039TIP3    H118081   5.073   0.175  -0.016
 6039TIP3    H218082   5.220   0.161   0.016
 6040TIP3   OH218083   1.694   4.771   1.611
 6040TIP3    H118084   1.657   4.831   1.545
 6040TIP3    H218085   1.652   4.798   1.693
 6041TIP3   OH218086   0.248   4.129   4.266
 6041TIP3    H118087   0.282   4.111   4.353
 6041TIP3    H218088   0.186   4.201   4.277
 6042TIP3   OH218089   6.655   5.059   4.307
 6042TIP3    H118090   6.714   5.057   4.383
 6042TIP3    H218091   6.655   5.150   4.279
 6043TIP3   OH218092   6.928   5.899   4.835
 6043TIP3    H118093   6.951   5.986   4.867
 6043TIP3    H218094   7.000   5.843   4.863
 6044TIP3   OH218095   4.406   0.673   0.276
 6044TIP3    H118096   4.335   0.614   0.251
 6044TIP3    H218097   4.486   0.623   0.261
 6045TIP3   OH218098   6.648   1.194   4.876
 6045TIP3    H118099   6.623   1.216   4.786
 6045TIP3    H218100   6.687   1.107   4.869
 6046TIP3   OH218101   5.586   1.383   0.781
 6046TIP3    H118102   5.585   1.454   0.845
 6046TIP3    H218103   5.675   1.381   0.747
 6047TIP3   OH218104   0.544   0.464   5.744
 6047TIP3    H118105   0.605   0.522   5.789
 6047TIP3    H218106   0.549   0.382   5.793
 6048TIP3   OH218107   1.225   3.959   4.498
 6048TIP3    H118108   1.293   3.892   4.501
 6048TIP3    H218109   1.201   3.972   4.590
 6049TIP3   OH218110   2.503   4.064   1.980
 6049TIP3    H118111   2.515   4.024   2.066
 6049TIP3    H218112   2.548   4.005   1.920
 6050TIP3   OH218113   2.121   5.317   1.165
 6050TIP3    H118114   2.108   5.233   1.210
 6050TIP3    H218115   2.055   5.375   1.204
 6051TIP3   OH218116   3.151   0.074   2.218
 6051TIP3    H118117   3.095   0.012   2.171
 6051TIP3    H218118   3.236   0.067   2.175
 6052TIP3   OH218119   0.554   2.986   0.511
 6052TIP3    H118120   0.562   2.903   0.559
 6052TIP3    H218121   0.638   2.995   0.465
 6053TIP3   OH218122   6.164   6.335   3.897
 6053TIP3    H118123   6.129   6.366   3.981
 6053TIP3    H218124   6.166   6.413   3.842
 6054TIP3   OH218125   0.055   0.786   0.367
 6054TIP3    H118126   0.071   0.880   0.351
 6054TIP3    H218127   0.143   0.748   0.371
 6055TIP3   OH218128   5.132   1.901   0.686
 6055TIP3    H118129   5.075   1.823   0.685
 6055TIP3    H218130   5.087   1.963   0.743
 6056TIP3   OH218131   1.198   4.126   2.590
 6056TIP3    H118132   1.122   4.106   2.535
 6056TIP3    H218133   1.243   4.197   2.544
 6057TIP3   OH218134   2.427   2.825   3.393
 6057TIP3    H118135   2.510   2.777   3.398
 6057TIP3    H218136   2.452   2.913   3.364
 6058TIP3   OH218137   6.668   4.854   5.202
 6058TIP3    H118138   6.733   4.907   5.249
 6058TIP3    H218139   6.615   4.918   5.154
 6059TIP3   OH218140   3.560   2.040   4.412
 6059TIP3    H118141   3.554   2.135   4.422
 6059TIP3    H218142   3.646   2.025   4.375
 6060TIP3   OH218143   4.913   3.137   3.974
 6060TIP3    H118144   4.860   3.068   3.935
 6060TIP3    H218145   4.979   3.090   4.026
 6061TIP3   OH218146   4.143   1.031   0.477
 6061TIP3    H118147   4.130   1.010   0.570
 6061TIP3    H218148   4.059   1.067   0.449
 6062TIP3   OH218149   4.462   3.752   5.352
 6062TIP3    H118150   4.453   3.809   5.428
 6062TIP3    H218151   4.555   3.726   5.352
 6063TIP3   OH218152   6.745   5.462   1.303
 6063TIP3    H118153   6.712   5.389   1.250
 6063TIP3    H218154   6.705   5.540   1.264
 6064TIP3   OH218155   3.395   2.881   1.479
 6064TIP3    H118156   3.410   2.819   1.408
 6064TIP3    H218157   3.359   2.828   1.550
 6065TIP3   OH218158   4.254   1.759   0.552
 6065TIP3    H118159   4.328   1.819   0.547
 6065TIP3    H218160   4.229   1.758   0.644
 6066TIP3   OH218161   3.558   3.351   1.914
 6066TIP3    H118162   3.509   3.408   1.973
 6066TIP3    H218163   3.588   3.409   1.844
 6067TIP3   OH218164   2.112   0.015   1.067
 6067TIP3    H118165   2.133  -0.062   1.119
 6067TIP3    H218166   2.194   0.065   1.063
 6068TIP3   OH218167   0.494   6.591   1.121
 6068TIP3    H118168   0.502   6.684   1.144
 6068TIP3    H218169   0.436   6.590   1.045
 6069TIP3   OH218170   5.175   1.918   2.468
 6069TIP3    H118171   5.131   1.992   2.425
 6069TIP3    H218172   5.260   1.954   2.494
 6070TIP3   OH218173   1.625   6.247   1.241
 6070TIP3    H118174   1.534   6.233   1.268
 6070TIP3    H218175   1.620   6.317   1.176
 6071TIP3   OH218176   3.319   0.431   1.099
 6071TIP3    H118177   3.413   0.411   1.099
 6071TIP3    H218178   3.311   0.513   1.147
 6072TIP3   OH218179   5.865   0.805   3.127
 6072TIP3    H118180   5.849   0.723   3.080
 6072TIP3    H218181   5.828   0.791   3.213
 6073TIP3   OH218182   3.497   0.044   1.023
 6073TIP3    H118183   3.448   0.121   0.995
 6073TIP3    H218184   3.582   0.053   0.980
 6074TIP3   OH218185   3.052   2.348   0.116
 6074TIP3    H118186   2.961   2.374   0.101
 6074TIP3    H218187   3.091   2.348   0.028
 6075TIP3   OH218188   1.245   6.322   2.552
 6075TIP3    H118189   1.291   6.277   2.624
 6075TIP3    H218190   1.158   6.340   2.587
 6076TIP3   OH218191   4.238   5.210   0.733
 6076TIP3    H118192   4.186   5.210   0.653
 6076TIP3    H218193   4.288   5.292   0.729
 6077TIP3   OH218194   2.515   5.497   3.743
 6077TIP3    H118195   2.455   5.544   3.685
 6077TIP3    H218196   2.584   5.464   3.685
 6078TIP3   OH218197   5.894   4.394   0.548
 6078TIP3    H118198   5.892   4.449   0.626
 6078TIP3    H218199   5.844   4.443   0.483
 6079TIP3   OH218200   1.532   4.097   1.184
 6079TIP3    H118201   1.589   4.132   1.115
 6079TIP3    H218202   1.556   4.147   1.262
 6080TIP3   OH218203   6.359   1.081   2.211
 6080TIP3    H118204   6.285   1.082   2.272
 6080TIP3    H218205   6.319   1.080   2.124
 6081TIP3   OH218206   3.698   3.332   0.367
 6081TIP3    H118207   3.687   3.326   0.273
 6081TIP3    H218208   3.615   3.369   0.399
 6082TIP3   OH218209   4.399   6.295   0.637
 6082TIP3    H118210   4.356   6.374   0.669
 6082TIP3    H218211   4.378   6.293   0.543
 6083TIP3   OH218212   0.976   4.477   5.510
 6083TIP3    H118213   1.062   4.484   5.467
 6083TIP3    H218214   0.951   4.568   5.529
 6084TIP3   OH218215   6.929   3.328   4.758
 6084TIP3    H118216   6.872   3.266   4.712
 6084TIP3    H218217   6.870   3.376   4.816
 6085TIP3   OH218218   4.372   3.120   4.982
 6085TIP3    H118219   4.283   3.129   4.947
 6085TIP3    H218220   4.370   3.038   5.032
 6086TIP3   OH218221   1.349   6.166   2.751
 6086TIP3    H118222   1.291   6.137   2.821
 6086TIP3    H218223   1.424   6.205   2.796
 6087TIP3   OH218224   3.507   3.184   5.729
 6087TIP3    H118225   3.588   3.201   5.682
 6087TIP3    H218226   3.475   3.271   5.755
 6088TIP3   OH218227   5.370   5.853   2.290
 6088TIP3    H118228   5.403   5.874   2.203
 6088TIP3    H218229   5.275   5.862   2.282
 6089TIP3   OH218230   2.174   5.288   5.877
 6089TIP3    H118231   2.139   5.254   5.794
 6089TIP3    H218232   2.238   5.354   5.851
 6090TIP3   OH218233   0.696   6.121   3.279
 6090TIP3    H118234   0.752   6.050   3.311
 6090TIP3    H218235   0.745   6.201   3.300
 6091TIP3   OH218236   1.053   5.272   0.180
 6091TIP3    H118237   1.109   5.209   0.226
 6091TIP3    H218238   1.019   5.224   0.105
 6092TIP3   OH218239   4.892   1.392   0.463
 6092TIP3    H118240   4.988   1.391   0.464
 6092TIP3    H218241   4.868   1.386   0.556
 6093TIP3   OH218242   1.277   2.378   5.052
 6093TIP3    H118243   1.211   2.432   5.097
 6093TIP3    H218244   1.227   2.327   4.988
 6094TIP3   OH218245   2.526   3.482   3.345
 6094TIP3    H118246   2.473   3.414   3.386
 6094TIP3    H218247   2.553   3.446   3.261
 6095TIP3   OH218248   1.580   4.542   5.672
 6095TIP3    H118249   1.638   4.593   5.729
 6095TIP3    H218250   1.610   4.452   5.683
 6096TIP3   OH218251   2.760   4.963   5.296
 6096TIP3    H118252   2.810   4.960   5.214
 6096TIP3    H218253   2.820   4.931   5.362
 6097TIP3   OH218254   0.556   5.953   5.392
 6097TIP3    H118255   0.586   6.037   5.427
 6097TIP3    H218256   0.489   5.924   5.454
 6098TIP3   OH218257   2.642   5.951   3.630
 6098TIP3    H118258   2.643   5.880   3.565
 6098TIP3    H218259   2.549   5.973   3.639
 6099TIP3   OH218260   3.955   2.214   2.004
 6099TIP3    H118261   3.955   2.171   1.918
 6099TIP3    H218262   4.042   2.252   2.012
 6100TIP3   OH218263   2.880   3.870   2.871
 6100TIP3    H118264   2.892   3.965   2.880
 6100TIP3    H218265   2.794   3.853   2.908
 6101TIP3   OH218266   3.960   2.239   4.219
 6101TIP3    H118267   3.870   2.211   4.203
 6101TIP3    H218268   3.974   2.310   4.157
 6102TIP3   OH218269   5.966   4.502   5.000
 6102TIP3    H118270   5.894   4.462   5.049
 6102TIP3    H218271   5.925   4.533   4.919
 6103TIP3   OH218272   3.427   5.412   4.284
 6103TIP3    H118273   3.463   5.324   4.290
 6103TIP3    H218274   3.382   5.425   4.368
 6104TIP3   OH218275   6.482   1.102   0.709
 6104TIP3    H118276   6.575   1.122   0.718
 6104TIP3    H218277   6.451   1.090   0.800
 6105TIP3   OH218278   3.269   1.707   2.464
 6105TIP3    H118279   3.255   1.671   2.376
 6105TIP3    H218280   3.349   1.758   2.456
 6106TIP3   OH218281   6.860   5.300   2.493
 6106TIP3    H118282   6.911   5.381   2.492
 6106TIP3    H218283   6.808   5.305   2.573
 6107TIP3   OH218284   5.535   5.638   3.799
 6107TIP3    H118285   5.487   5.670   3.875
 6107TIP3    H218286   5.568   5.718   3.757
 6108TIP3   OH218287   2.175   0.572   0.940
 6108TIP3    H118288   2.123   0.543   0.865
 6108TIP3    H218289   2.129   0.539   1.017
 6109TIP3   OH218290   6.075   5.173   3.357
 6109TIP3    H118291   6.088   5.161   3.451
 6109TIP3    H218292   5.985   5.206   3.349
 6110TIP3   OH218293   5.302   1.357   3.529
 6110TIP3    H118294   5.314   1.439   3.482
 6110TIP3    H218295   5.359   1.295   3.484
 6111TIP3   OH218296   1.547   4.895   0.206
 6111TIP3    H118297   1.456   4.915   0.229
 6111TIP3    H218298   1.564   4.946   0.127
 6112TIP3   OH218299   2.512   5.457   3.410
 6112TIP3    H118300   2.592   5.417   3.445
 6112TIP3    H218301   2.481   5.394   3.345
 6113TIP3   OH218302   1.644   1.377   5.271
 6113TIP3    H118303   1.689   1.445   5.322
 6113TIP3    H218304   1.568   1.423   5.233
 6114TIP3   OH218305   3.035   4.805   3.777
 6114TIP3    H118306   3.021   4.893   3.812
 6114TIP3    H218307   3.089   4.761   3.844
 6115TIP3   OH218308   3.197   4.857   1.208
 6115TIP3    H118309   3.229   4.839   1.120
 6115TIP3    H218310   3.265   4.824   1.266
 6116TIP3   OH218311   5.746   6.180   3.974
 6116TIP3    H118312   5.683   6.227   3.919
 6116TIP3    H218313   5.707   6.182   4.061
 6117TIP3   OH218314   5.682   3.903   3.571
 6117TIP3    H118315   5.681   3.861   3.484
 6117TIP3    H218316   5.611   3.860   3.619
 6118TIP3   OH218317   3.277   1.707   5.416
 6118TIP3    H118318   3.194   1.678   5.454
 6118TIP3    H218319   3.257   1.794   5.380
 6119TIP3   OH218320   1.543   5.906   1.353
 6119TIP3    H118321   1.539   5.827   1.407
 6119TIP3    H218322   1.519   5.977   1.413
 6120TIP3   OH218323   2.114   0.181   0.411
 6120TIP3    H118324   2.187   0.242   0.403
 6120TIP3    H218325   2.141   0.118   0.478
 6121TIP3   OH218326   4.520   3.540   2.499
 6121TIP3    H118327   4.432   3.560   2.533
 6121TIP3    H218328   4.568   3.623   2.506
 6122TIP3   OH218329   1.716   0.873   2.850
 6122TIP3    H118330   1.790   0.864   2.911
 6122TIP3    H218331   1.736   0.812   2.779
 6123TIP3   OH218332   7.152   5.321   0.320
 6123TIP3    H118333   7.192   5.253   0.374
 6123TIP3    H218334   7.175   5.296   0.230
 6124TIP3   OH218335   5.301   3.353   0.390
 6124TIP3    H118336   5.378   3.321   0.343
 6124TIP3    H218337   5.337   3.405   0.462
 6125TIP3   OH218338   0.108   2.394   0.829
 6125TIP3    H118339   0.180   2.457   0.831
 6125TIP3    H218340   0.031   2.444   0.852
 6126TIP3   OH218341   5.479   0.759   1.120
 6126TIP3    H118342   5.389   0.732   1.140
 6126TIP3    H218343   5.523   0.760   1.206
 6127TIP3   OH218344   1.389   0.035   5.351
 6127TIP3    H118345   1.446   0.054   5.277
 6127TIP3    H218346   1.304   0.071   5.327
 6128TIP3   OH218347   3.302   3.106   3.041
 6128TIP3    H118348   3.334   3.195   3.027
 6128TIP3    H218349   3.360   3.069   3.108
 6129TIP3   OH218350   1.436   1.157   3.062
 6129TIP3    H118351   1.440   1.134   2.969
 6129TIP3    H218352   1.344   1.150   3.085
 6130TIP3   OH218353   2.819   0.759   4.911
 6130TIP3    H118354   2.906   0.773   4.947
 6130TIP3    H218355   2.781   0.689   4.964
 6131TIP3   OH218356   4.447   1.337   3.407
 6131TIP3    H118357   4.479   1.397   3.340
 6131TIP3    H218358   4.490   1.365   3.488
 6132TIP3   OH218359   5.990   6.734   4.690
 6132TIP3    H118360   5.922   6.776   4.742
 6132TIP3    H218361   5.991   6.783   4.607
 6133TIP3   OH218362   0.190   5.741   1.432
 6133TIP3    H118363   0.263   5.690   1.467
 6133TIP3    H218364   0.118   5.678   1.425
 6134TIP3   OH218365   3.067   0.661   2.256
 6134TIP3    H118366   3.146   0.637   2.207
 6134TIP3    H218367   3.101   0.706   2.334
 6135TIP3   OH218368   1.043   2.562   0.053
 6135TIP3    H118369   1.075   2.539  -0.034
 6135TIP3    H218370   0.957   2.520   0.058
 6136TIP3   OH218371   5.201   5.155   4.734
 6136TIP3    H118372   5.230   5.095   4.665
 6136TIP3    H218373   5.115   5.122   4.760
 6137TIP3   OH218374   6.321   5.429   3.667
 6137TIP3    H118375   6.386   5.398   3.604
 6137TIP3    H218376   6.361   5.505   3.707
 6138TIP3   OH218377   0.046   2.122   1.788
 6138TIP3    H118378  -0.046   2.101   1.772
 6138TIP3    H218379   0.044   2.189   1.857
 6139TIP3   OH218380   3.409   1.478   4.110
 6139TIP3    H118381   3.503   1.466   4.093
 6139TIP3    H218382   3.366   1.436   4.036
 6140TIP3   OH218383   5.736   0.775   1.292
 6140TIP3    H118384   5.811   0.720   1.314
 6140TIP3    H218385   5.760   0.817   1.210
 6141TIP3   OH218386   3.287   5.683   0.631
 6141TIP3    H118387   3.347   5.757   0.623
 6141TIP3    H218388   3.343   5.606   0.620
 6142TIP3   OH218389   3.152   3.375   2.951
 6142TIP3    H118390   3.179   3.338   2.867
 6142TIP3    H218391   3.099   3.452   2.929
 6143TIP3   OH218392   7.186   2.127   5.200
 6143TIP3    H118393   7.111   2.099   5.148
 6143TIP3    H218394   7.161   2.213   5.234
 6144TIP3   OH218395   0.616   5.623   2.563
 6144TIP3    H118396   0.650   5.673   2.488
 6144TIP3    H218397   0.553   5.562   2.524
 6145TIP3   OH218398   0.616   4.921   0.595
 6145TIP3    H118399   0.696   4.953   0.637
 6145TIP3    H218400   0.597   4.985   0.527
 6146TIP3   OH218401   5.325   0.415   5.382
 6146TIP3    H118402   5.276   0.432   5.462
 6146TIP3    H218403   5.260   0.376   5.323
 6147TIP3   OH218404   1.014   2.255   4.196
 6147TIP3    H118405   1.037   2.347   4.200
 6147TIP3    H218406   1.075   2.218   4.133
 6148TIP3   OH218407   5.280   5.342   3.977
 6148TIP3    H118408   5.370   5.335   3.945
 6148TIP3    H218409   5.257   5.252   4.001
 6149TIP3   OH218410   1.348   2.780   3.724
 6149TIP3    H118411   1.362   2.718   3.652
 6149TIP3    H218412   1.431   2.780   3.771
 6150TIP3   OH218413   3.817   6.311   2.826
 6150TIP3    H118414   3.853   6.306   2.914
 6150TIP3    H218415   3.833   6.224   2.789
 6151TIP3   OH218416   7.086   5.040   4.145
 6151TIP3    H118417   7.016   5.000   4.093
 6151TIP3    H218418   7.084   4.994   4.229
 6152TIP3   OH218419   6.480   3.010   3.639
 6152TIP3    H118420   6.507   3.075   3.574
 6152TIP3    H218421   6.397   3.043   3.672
 6153TIP3   OH218422   0.011   1.552   5.584
 6153TIP3    H118423  -0.040   1.633   5.587
 6153TIP3    H218424   0.041   1.547   5.493
 6154TIP3   OH218425   2.193   2.356   1.335
 6154TIP3    H118426   2.133   2.418   1.293
 6154TIP3    H218427   2.184   2.374   1.429
 6155TIP3   OH218428   2.952   6.152   3.396
 6155TIP3    H118429   2.910   6.133   3.312
 6155TIP3    H218430   2.881   6.186   3.450
 6156TIP3   OH218431   3.126   2.416   0.357
 6156TIP3    H118432   3.100   2.376   0.275
 6156TIP3    H218433   3.044   2.434   0.403
 6157TIP3   OH218434   4.528   4.847   2.555
 6157TIP3    H118435   4.548   4.769   2.606
 6157TIP3    H218436   4.568   4.919   2.602
 6158TIP3   OH218437   1.170   4.281   1.455
 6158TIP3    H118438   1.232   4.353   1.459
 6158TIP3    H218439   1.209   4.219   1.392
 6159TIP3   OH218440   4.763   4.893   5.513
 6159TIP3    H118441   4.721   4.818   5.471
 6159TIP3    H218442   4.790   4.860   5.599
 6160TIP3   OH218443   4.729   2.215   0.736
 6160TIP3    H118444   4.815   2.199   0.698
 6160TIP3    H218445   4.696   2.292   0.689
 6161TIP3   OH218446   0.681   6.428   3.528
 6161TIP3    H118447   0.651   6.489   3.595
 6161TIP3    H218448   0.634   6.454   3.449
 6162TIP3   OH218449   4.712   0.329   5.048
 6162TIP3    H118450   4.618   0.313   5.041
 6162TIP3    H218451   4.719   0.421   5.073
 6163TIP3   OH218452   4.224   4.310   5.600
 6163TIP3    H118453   4.183   4.288   5.517
 6163TIP3    H218454   4.291   4.242   5.612
 6164TIP3   OH218455   6.932   1.534   2.180
 6164TIP3    H118456   6.862   1.559   2.119
 6164TIP3    H218457   7.006   1.590   2.155
 6165TIP3   OH218458   5.926   6.204   0.193
 6165TIP3    H118459   5.992   6.271   0.214
 6165TIP3    H218460   5.843   6.252   0.194
 6166TIP3   OH218461   6.108   2.694   5.331
 6166TIP3    H118462   6.043   2.764   5.346
 6166TIP3    H218463   6.156   2.722   5.253
 6167TIP3   OH218464   3.367   3.203   2.257
 6167TIP3    H118465   3.345   3.296   2.267
 6167TIP3    H218466   3.354   3.186   2.163
 6168TIP3   OH218467   2.312   4.116   5.161
 6168TIP3    H118468   2.398   4.148   5.189
 6168TIP3    H218469   2.252   4.187   5.185
 6169TIP3   OH218470   1.023   0.690   3.751
 6169TIP3    H118471   1.061   0.706   3.664
 6169TIP3    H218472   1.013   0.594   3.754
 6170TIP3   OH218473   6.728   4.992   4.879
 6170TIP3    H118474   6.662   5.032   4.936
 6170TIP3    H218475   6.811   5.028   4.911
 6171TIP3   OH218476   5.781   5.580   2.425
 6171TIP3    H118477   5.847   5.512   2.439
 6171TIP3    H218478   5.816   5.657   2.468
 6172TIP3   OH218479   2.618   6.383   0.559
 6172TIP3    H118480   2.665   6.350   0.636
 6172TIP3    H218481   2.667   6.461   0.533
 6173TIP3   OH218482   3.076   6.396   4.134
 6173TIP3    H118483   3.059   6.331   4.067
 6173TIP3    H218484   3.056   6.351   4.217
 6174TIP3   OH218485   4.575   6.650   1.854
 6174TIP3    H118486   4.646   6.706   1.823
 6174TIP3    H218487   4.585   6.569   1.803
 6175TIP3   OH218488   2.454   6.019   2.564
 6175TIP3    H118489   2.397   5.960   2.515
 6175TIP3    H218490   2.405   6.102   2.567
 6176TIP3   OH218491   1.906   6.723   5.430
 6176TIP3    H118492   1.941   6.669   5.359
 6176TIP3    H218493   1.970   6.714   5.501
 6177TIP3   OH218494   4.688   2.029   2.023
 6177TIP3    H118495   4.628   1.985   2.083
 6177TIP3    H218496   4.761   2.058   2.079
 6178TIP3   OH218497   4.075   5.060   5.166
 6178TIP3    H118498   4.052   4.970   5.191
 6178TIP3    H218499   4.044   5.067   5.075
 6179TIP3   OH218500   4.020   6.652   1.914
 6179TIP3    H118501   4.113   6.631   1.909
 6179TIP3    H218502   3.998   6.686   1.827
 6180TIP3   OH218503   5.938   0.698   4.895
 6180TIP3    H118504   6.032   0.715   4.886
 6180TIP3    H218505   5.902   0.713   4.808
 6181TIP3   OH218506   6.951   0.587   4.111
 6181TIP3    H118507   6.944   0.650   4.040
 6181TIP3    H218508   7.042   0.557   4.108
 6182TIP3   OH218509   3.275   5.903   1.006
 6182TIP3    H118510   3.346   5.844   1.033
 6182TIP3    H218511   3.307   5.944   0.926
 6183TIP3   OH218512   6.470   0.146   5.574
 6183TIP3    H118513   6.386   0.172   5.535
 6183TIP3    H218514   6.536   0.173   5.511
 6184TIP3   OH218515   1.283   3.223   5.170
 6184TIP3    H118516   1.275   3.240   5.076
 6184TIP3    H218517   1.265   3.307   5.212
 6185TIP3   OH218518   2.831   0.830   2.192
 6185TIP3    H118519   2.799   0.817   2.281
 6185TIP3    H218520   2.925   0.809   2.197
 6186TIP3   OH218521   1.448   2.597   5.152
 6186TIP3    H118522   1.383   2.539   5.112
 6186TIP3    H218523   1.500   2.630   5.078
 6187TIP3   OH218524   3.370   1.469   2.723
 6187TIP3    H118525   3.309   1.542   2.732
 6187TIP3    H218526   3.440   1.488   2.785
 6188TIP3   OH218527   6.050   5.886   3.829
 6188TIP3    H118528   5.975   5.900   3.888
 6188TIP3    H218529   6.122   5.865   3.888
 6189TIP3   OH218530   3.478   4.216   5.584
 6189TIP3    H118531   3.553   4.172   5.546
 6189TIP3    H218532   3.487   4.308   5.558
 6190TIP3   OH218533   7.035   0.397   4.656
 6190TIP3    H118534   7.067   0.331   4.717
 6190TIP3    H218535   7.075   0.374   4.572
 6191TIP3   OH218536   1.489   2.457   1.594
 6191TIP3    H118537   1.511   2.368   1.568
 6191TIP3    H218538   1.569   2.490   1.636
 6192TIP3   OH218539   7.024   2.438   0.908
 6192TIP3    H118540   6.980   2.359   0.876
 6192TIP3    H218541   6.994   2.447   0.999
 6193TIP3   OH218542   0.621   3.996   2.201
 6193TIP3    H118543   0.585   3.952   2.124
 6193TIP3    H218544   0.546   4.008   2.260
 6194TIP3   OH218545   3.327   2.434   4.812
 6194TIP3    H118546   3.363   2.479   4.736
 6194TIP3    H218547   3.301   2.504   4.872
 6195TIP3   OH218548   1.305   4.133   4.317
 6195TIP3    H118549   1.384   4.098   4.276
 6195TIP3    H218550   1.284   4.070   4.386
 6196TIP3   OH218551   1.552   6.605   2.419
 6196TIP3    H118552   1.604   6.561   2.351
 6196TIP3    H218553   1.598   6.585   2.501
 6197TIP3   OH218554   3.224   0.763   3.874
 6197TIP3    H118555   3.167   0.687   3.864
 6197TIP3    H218556   3.166   0.832   3.905
 6198TIP3   OH218557   4.930   4.686   1.933
 6198TIP3    H118558   4.927   4.595   1.964
 6198TIP3    H218559   4.880   4.685   1.851
 6199TIP3   OH218560   7.021   3.754   2.210
 6199TIP3    H118561   7.031   3.837   2.255
 6199TIP3    H218562   7.108   3.736   2.173
 6200TIP3   OH218563   1.117   5.564   0.233
 6200TIP3    H118564   1.071   5.586   0.314
 6200TIP3    H218565   1.128   5.469   0.236
 6201TIP3   OH218566   2.237   0.068   5.673
 6201TIP3    H118567   2.300  -0.001   5.650
 6201TIP3    H218568   2.284   0.123   5.735
 6202TIP3   OH218569   7.184   4.964   2.327
 6202TIP3    H118570   7.241   4.912   2.383
 6202TIP3    H218571   7.108   4.984   2.383
 6203TIP3   OH218572   5.368   5.833   2.563
 6203TIP3    H118573   5.388   5.848   2.470
 6203TIP3    H218574   5.348   5.920   2.598
 6204TIP3   OH218575   5.972   3.745   2.900
 6204TIP3    H118576   5.935   3.725   2.815
 6204TIP3    H218577   6.067   3.735   2.889
 6205TIP3   OH218578   4.553   6.038   4.942
 6205TIP3    H118579   4.634   5.996   4.973
 6205TIP3    H218580   4.579   6.128   4.923
 6206TIP3   OH218581   4.650   4.276   2.322
 6206TIP3    H118582   4.672   4.197   2.273
 6206TIP3    H218583   4.729   4.296   2.372
 6207TIP3   OH218584   3.136   5.334   0.544
 6207TIP3    H118585   3.047   5.300   0.543
 6207TIP3    H218586   3.149   5.370   0.456
 6208TIP3   OH218587   6.145   3.990   3.593
 6208TIP3    H118588   6.099   3.998   3.676
 6208TIP3    H218589   6.124   4.070   3.545
 6209TIP3   OH218590   0.442   5.823   2.606
 6209TIP3    H118591   0.521   5.770   2.616
 6209TIP3    H218592   0.470   5.913   2.625
 6210TIP3   OH218593   0.721   4.171   2.580
 6210TIP3    H118594   0.731   4.131   2.666
 6210TIP3    H218595   0.770   4.114   2.521
 6211TIP3   OH218596   4.501   6.374   3.740
 6211TIP3    H118597   4.544   6.312   3.681
 6211TIP3    H218598   4.499   6.456   3.689
 6212TIP3   OH218599   5.080   3.111   4.588
 6212TIP3    H118600   5.006   3.079   4.641
 6212TIP3    H218601   5.133   3.033   4.571
 6213TIP3   OH218602   4.841   1.208   4.640
 6213TIP3    H118603   4.937   1.210   4.645
 6213TIP3    H218604   4.812   1.248   4.721
 6214TIP3   OH218605   5.537   6.298   3.842
 6214TIP3    H118606   5.458   6.349   3.861
 6214TIP3    H218607   5.573   6.337   3.762
 6215TIP3   OH218608   0.129   3.656   4.947
 6215TIP3    H118609   0.186   3.683   5.019
 6215TIP3    H218610   0.094   3.737   4.911
 6216TIP3   OH218611   2.714   2.550   4.781
 6216TIP3    H118612   2.802   2.558   4.817
 6216TIP3    H218613   2.705   2.457   4.758
 6217TIP3   OH218614   1.467   5.531   3.964
 6217TIP3    H118615   1.424   5.602   3.916
 6217TIP3    H218616   1.455   5.554   4.056
 6218TIP3   OH218617   1.336   2.022   1.554
 6218TIP3    H118618   1.420   2.066   1.562
 6218TIP3    H218619   1.279   2.067   1.616
 6219TIP3   OH218620   5.280   5.873   1.559
 6219TIP3    H118621   5.236   5.833   1.634
 6219TIP3    H218622   5.211   5.890   1.496
 6220TIP3   OH218623   4.276   4.539   1.636
 6220TIP3    H118624   4.362   4.533   1.593
 6220TIP3    H218625   4.290   4.600   1.708
 6221TIP3   OH218626   2.028   2.859   3.191
 6221TIP3    H118627   2.020   2.931   3.253
 6221TIP3    H218628   2.122   2.845   3.181
 6222TIP3   OH218629   4.108   3.503   5.146
 6222TIP3    H118630   4.093   3.509   5.241
 6222TIP3    H218631   4.087   3.413   5.124
 6223TIP3   OH218632   5.710   1.950   5.075
 6223TIP3    H118633   5.715   2.035   5.031
 6223TIP3    H218634   5.766   1.893   5.024
 6224TIP3   OH218635   4.220   3.281   0.419
 6224TIP3    H118636   4.220   3.204   0.362
 6224TIP3    H218637   4.152   3.337   0.382
 6225TIP3   OH218638   3.997   0.032   5.281
 6225TIP3    H118639   4.071   0.050   5.338
 6225TIP3    H218640   3.925   0.010   5.340
 6226TIP3   OH218641   1.203   1.408   1.909
 6226TIP3    H118642   1.194   1.442   1.820
 6226TIP3    H218643   1.114   1.382   1.933
 6227TIP3   OH218644   0.236   0.191   5.661
 6227TIP3    H118645   0.325   0.182   5.627
 6227TIP3    H218646   0.207   0.277   5.632
 6228TIP3   OH218647   0.783   3.053   0.359
 6228TIP3    H118648   0.813   2.964   0.341
 6228TIP3    H218649   0.863   3.106   0.357
 6229TIP3   OH218650   5.297   5.435   1.821
 6229TIP3    H118651   5.355   5.358   1.818
 6229TIP3    H218652   5.213   5.404   1.788
 6230TIP3   OH218653   5.225   1.272   5.190
 6230TIP3    H118654   5.147   1.221   5.210
 6230TIP3    H218655   5.192   1.357   5.161
 6231TIP3   OH218656   4.920   3.980   5.289
 6231TIP3    H118657   4.951   3.921   5.358
 6231TIP3    H218658   4.955   4.066   5.313
 6232TIP3   OH218659   4.118   3.638   5.413
 6232TIP3    H118660   4.171   3.625   5.492
 6232TIP3    H218661   4.161   3.710   5.366
 6233TIP3   OH218662   2.261   3.868   5.286
 6233TIP3    H118663   2.187   3.900   5.338
 6233TIP3    H218664   2.271   3.932   5.216
 6234TIP3   OH218665   0.088   3.128   3.913
 6234TIP3    H118666   0.020   3.078   3.957
 6234TIP3    H218667   0.164   3.124   3.971
 6235TIP3   OH218668   5.972   6.143   1.690
 6235TIP3    H118669   5.943   6.181   1.773
 6235TIP3    H218670   6.001   6.054   1.712
 6236TIP3   OH218671   4.850   4.681   2.362
 6236TIP3    H118672   4.932   4.714   2.327
 6236TIP3    H218673   4.804   4.759   2.393
 6237TIP3   OH218674   4.893   0.535   3.080
 6237TIP3    H118675   4.873   0.549   2.987
 6237TIP3    H218676   4.812   0.498   3.116
 6238TIP3   OH218677   3.676   5.076   1.683
 6238TIP3    H118678   3.753   5.029   1.713
 6238TIP3    H218679   3.674   5.062   1.588
 6239TIP3   OH218680   4.779   0.423   0.817
 6239TIP3    H118681   4.873   0.406   0.831
 6239TIP3    H218682   4.759   0.374   0.737
 6240TIP3   OH218683   1.284   0.168   0.234
 6240TIP3    H118684   1.337   0.090   0.221
 6240TIP3    H218685   1.271   0.204   0.146
 6241TIP3   OH218686   1.627   5.673   3.317
 6241TIP3    H118687   1.571   5.596   3.320
 6241TIP3    H218688   1.666   5.671   3.229
 6242TIP3   OH218689   4.091   6.215   0.911
 6242TIP3    H118690   4.027   6.144   0.906
 6242TIP3    H218691   4.173   6.172   0.934
 6243TIP3   OH218692   2.076   1.822   0.393
 6243TIP3    H118693   2.056   1.814   0.300
 6243TIP3    H218694   1.999   1.787   0.437
 6244TIP3   OH218695   5.626   6.028   0.356
 6244TIP3    H118696   5.657   5.970   0.287
 6244TIP3    H218697   5.620   6.114   0.315
 6245TIP3   OH218698   6.611   6.618   1.051
 6245TIP3    H118699   6.561   6.693   1.083
 6245TIP3    H218700   6.625   6.564   1.129
 6246TIP3   OH218701   4.794   2.486   2.932
 6246TIP3    H118702   4.773   2.564   2.880
 6246TIP3    H218703   4.726   2.484   3.000
 6247TIP3   OH218704   3.484   0.101   3.754
 6247TIP3    H118705   3.493   0.148   3.837
 6247TIP3    H218706   3.559   0.041   3.752
 6248TIP3   OH218707   0.256   0.764   5.607
 6248TIP3    H118708   0.221   0.807   5.529
 6248TIP3    H218709   0.310   0.693   5.574
 6249TIP3   OH218710   0.851   0.778   2.382
 6249TIP3    H118711   0.768   0.739   2.355
 6249TIP3    H218712   0.873   0.839   2.312
 6250TIP3   OH218713   7.092   4.417   0.211
 6250TIP3    H118714   7.057   4.464   0.136
 6250TIP3    H218715   7.094   4.483   0.281
 6251TIP3   OH218716   7.221   3.605   1.590
 6251TIP3    H118717   7.152   3.638   1.533
 6251TIP3    H218718   7.302   3.629   1.545
 6252TIP3   OH218719   0.692   4.786   4.568
 6252TIP3    H118720   0.717   4.697   4.544
 6252TIP3    H218721   0.746   4.842   4.511
 6253TIP3   OH218722   5.217   6.728   3.796
 6253TIP3    H118723   5.159   6.688   3.731
 6253TIP3    H218724   5.160   6.788   3.844
 6254TIP3   OH218725   1.005   2.400   2.468
 6254TIP3    H118726   1.043   2.466   2.410
 6254TIP3    H218727   0.947   2.349   2.411
 6255TIP3   OH218728   1.736   1.950   1.470
 6255TIP3    H118729   1.815   1.951   1.416
 6255TIP3    H218730   1.719   1.858   1.487
 6256TIP3   OH218731   4.077   1.791   5.483
 6256TIP3    H118732   4.057   1.755   5.397
 6256TIP3    H218733   4.015   1.749   5.542
 6257TIP3   OH218734   4.602   1.700   3.021
 6257TIP3    H118735   4.690   1.734   3.035
 6257TIP3    H218736   4.590   1.704   2.926
 6258TIP3   OH218737   4.443   1.183   0.857
 6258TIP3    H118738   4.504   1.243   0.814
 6258TIP3    H218739   4.483   1.097   0.847
 6259TIP3   OH218740   0.255   2.685   0.425
 6259TIP3    H118741   0.275   2.635   0.345
 6259TIP3    H218742   0.293   2.771   0.409
 6260TIP3   OH218743   5.387   5.091   0.079
 6260TIP3    H118744   5.432   5.091   0.163
 6260TIP3    H218745   5.294   5.098   0.102
 6261TIP3   OH218746   1.629   5.344   2.958
 6261TIP3    H118747   1.626   5.276   2.890
 6261TIP3    H218748   1.568   5.411   2.927
 6262TIP3   OH218749   0.253   3.723   1.500
 6262TIP3    H118750   0.301   3.655   1.453
 6262TIP3    H218751   0.320   3.774   1.545
 6263TIP3   OH218752   2.256   5.981   3.168
 6263TIP3    H118753   2.322   5.949   3.230
 6263TIP3    H218754   2.173   5.958   3.208
 6264TIP3   OH218755   5.440   4.802   3.393
 6264TIP3    H118756   5.462   4.891   3.364
 6264TIP3    H218757   5.344   4.800   3.395
 6265TIP3   OH218758   2.585   4.805   2.350
 6265TIP3    H118759   2.609   4.823   2.259
 6265TIP3    H218760   2.631   4.872   2.401
 6266TIP3   OH218761   1.894   5.819   3.918
 6266TIP3    H118762   1.892   5.810   3.823
 6266TIP3    H218763   1.828   5.756   3.949
 6267TIP3   OH218764   7.072   0.951   0.693
 6267TIP3    H118765   6.985   0.988   0.681
 6267TIP3    H218766   7.126   0.995   0.628
 6268TIP3   OH218767   2.229   0.377   2.533
 6268TIP3    H118768   2.193   0.315   2.469
 6268TIP3    H218769   2.315   0.340   2.556
 6269TIP3   OH218770   6.385   0.297   5.784
 6269TIP3    H118771   6.431   0.381   5.784
 6269TIP3    H218772   6.430   0.244   5.718
 6270TIP3   OH218773   0.667   0.719   0.394
 6270TIP3    H118774   0.613   0.763   0.458
 6270TIP3    H218775   0.615   0.720   0.313
 6271TIP3   OH218776   3.112   6.684   5.339
 6271TIP3    H118777   3.188   6.626   5.333
 6271TIP3    H218778   3.103   6.701   5.433
 6272TIP3   OH218779   0.978   5.529   1.556
 6272TIP3    H118780   0.882   5.525   1.558
 6272TIP3    H218781   0.998   5.580   1.477
 6273TIP3   OH218782   0.462   4.729   0.361
 6273TIP3    H118783   0.476   4.743   0.455
 6273TIP3    H218784   0.482   4.636   0.348
 6274TIP3   OH218785   7.195   3.570   3.130
 6274TIP3    H118786   7.228   3.617   3.053
 6274TIP3    H218787   7.197   3.635   3.200
 6275TIP3   OH218788   0.557   1.199   3.265
 6275TIP3    H118789   0.523   1.281   3.229
 6275TIP3    H218790   0.621   1.169   3.201
 6276TIP3   OH218791   2.436   4.484   0.771
 6276TIP3    H118792   2.483   4.412   0.730
 6276TIP3    H218793   2.435   4.553   0.704
 6277TIP3   OH218794   1.155   2.431   3.615
 6277TIP3    H118795   1.216   2.435   3.541
 6277TIP3    H218796   1.092   2.501   3.598
 6278TIP3   OH218797   2.700   6.540   4.412
 6278TIP3    H118798   2.631   6.539   4.346
 6278TIP3    H218799   2.662   6.495   4.487
 6279TIP3   OH218800   5.514   5.228   1.871
 6279TIP3    H118801   5.567   5.299   1.908
 6279TIP3    H218802   5.514   5.160   1.939
 6280TIP3   OH218803   2.015   3.548   4.683
 6280TIP3    H118804   1.998   3.612   4.614
 6280TIP3    H218805   2.077   3.592   4.741
 6281TIP3   OH218806   4.713   5.524   0.221
 6281TIP3    H118807   4.647   5.485   0.279
 6281TIP3    H218808   4.662   5.580   0.161
 6282TIP3   OH218809   4.901   6.303   0.158
 6282TIP3    H118810   4.975   6.358   0.133
 6282TIP3    H218811   4.884   6.326   0.250
 6283TIP3   OH218812   1.261   2.689   2.053
 6283TIP3    H118813   1.238   2.771   2.009
 6283TIP3    H218814   1.330   2.651   1.998
 6284TIP3   OH218815   5.320   1.627   5.615
 6284TIP3    H118816   5.262   1.576   5.559
 6284TIP3    H218817   5.403   1.631   5.567
 6285TIP3   OH218818   6.415   5.354   5.667
 6285TIP3    H118819   6.451   5.401   5.742
 6285TIP3    H218820   6.491   5.313   5.625
 6286TIP3   OH218821   5.673   2.168   2.438
 6286TIP3    H118822   5.612   2.221   2.489
 6286TIP3    H218823   5.730   2.128   2.504
 6287TIP3   OH218824   6.772   5.316   5.728
 6287TIP3    H118825   6.694   5.349   5.773
 6287TIP3    H218826   6.842   5.324   5.792
 6288TIP3   OH218827   6.870   6.159   0.167
 6288TIP3    H118828   6.811   6.169   0.241
 6288TIP3    H218829   6.954   6.194   0.198
 6289TIP3   OH218830   6.802   4.435   2.118
 6289TIP3    H118831   6.843   4.507   2.165
 6289TIP3    H218832   6.814   4.359   2.175
 6290TIP3   OH218833   1.920   5.495   5.099
 6290TIP3    H118834   1.934   5.446   5.180
 6290TIP3    H218835   1.924   5.587   5.126
 6291TIP3   OH218836   7.214   2.560   4.243
 6291TIP3    H118837   7.137   2.511   4.215
 6291TIP3    H218838   7.249   2.510   4.317
 6292TIP3   OH218839   1.660   0.692   5.857
 6292TIP3    H118840   1.606   0.760   5.817
 6292TIP3    H218841   1.698   0.735   5.934
 6293TIP3   OH218842   4.443   4.901   3.331
 6293TIP3    H118843   4.413   4.859   3.250
 6293TIP3    H218844   4.362   4.926   3.376
 6294TIP3   OH218845   2.423   1.168   2.848
 6294TIP3    H118846   2.469   1.151   2.930
 6294TIP3    H218847   2.492   1.177   2.783
 6295TIP3   OH218848   1.737   4.175   1.505
 6295TIP3    H118849   1.750   4.177   1.600
 6295TIP3    H218850   1.825   4.181   1.468
 6296TIP3   OH218851   1.915   5.026   0.100
 6296TIP3    H118852   1.979   5.020   0.171
 6296TIP3    H218853   1.967   5.053   0.023
 6297TIP3   OH218854   5.805   1.101   3.396
 6297TIP3    H118855   5.753   1.020   3.393
 6297TIP3    H218856   5.765   1.153   3.465
 6298TIP3   OH218857   0.216   3.660   3.525
 6298TIP3    H118858   0.272   3.613   3.463
 6298TIP3    H218859   0.196   3.742   3.480
 6299TIP3   OH218860   4.777   1.521   1.683
 6299TIP3    H118861   4.709   1.455   1.670
 6299TIP3    H218862   4.827   1.520   1.601
 6300TIP3   OH218863   5.770   2.108   4.375
 6300TIP3    H118864   5.827   2.125   4.451
 6300TIP3    H218865   5.809   2.161   4.305
 6301TIP3   OH218866   6.674   4.735   1.545
 6301TIP3    H118867   6.657   4.650   1.505
 6301TIP3    H218868   6.762   4.727   1.583
 6302TIP3   OH218869   3.894   5.643   4.875
 6302TIP3    H118870   3.904   5.729   4.916
 6302TIP3    H218871   3.835   5.660   4.801
 6303TIP3   OH218872   4.751   1.565   2.601
 6303TIP3    H118873   4.799   1.503   2.656
 6303TIP3    H218874   4.801   1.567   2.518
 6304TIP3   OH218875   0.984   2.661   3.594
 6304TIP3    H118876   1.012   2.750   3.569
 6304TIP3    H218877   0.890   2.661   3.575
 6305TIP3   OH218878   2.719   5.381   5.301
 6305TIP3    H118879   2.700   5.319   5.372
 6305TIP3    H218880   2.768   5.452   5.344
 6306TIP3   OH218881   0.651   6.152   3.624
 6306TIP3    H118882   0.633   6.077   3.568
 6306TIP3    H218883   0.666   6.225   3.563
 6307TIP3   OH218884   3.715   5.372   4.634
 6307TIP3    H118885   3.776   5.301   4.615
 6307TIP3    H218886   3.717   5.427   4.556
 6308TIP3   OH218887   3.455   5.123   4.188
 6308TIP3    H118888   3.450   5.027   4.183
 6308TIP3    H218889   3.503   5.148   4.109
 6309TIP3   OH218890   3.617   5.284   3.583
 6309TIP3    H118891   3.684   5.325   3.529
 6309TIP3    H218892   3.627   5.326   3.669
 6310TIP3   OH218893   0.684   3.485   4.906
 6310TIP3    H118894   0.616   3.494   4.972
 6310TIP3    H218895   0.763   3.463   4.955
 6311TIP3   OH218896   4.358   4.818   3.956
 6311TIP3    H118897   4.285   4.847   3.902
 6311TIP3    H218898   4.395   4.744   3.908
 6312TIP3   OH218899   4.019   2.904   3.507
 6312TIP3    H118900   3.983   2.980   3.462
 6312TIP3    H218901   3.944   2.844   3.517
 6313TIP3   OH218902   3.149   5.992   5.476
 6313TIP3    H118903   3.167   6.068   5.420
 6313TIP3    H218904   3.139   6.028   5.564
 6314TIP3   OH218905   0.929   3.607   1.941
 6314TIP3    H118906   0.896   3.688   1.981
 6314TIP3    H218907   0.925   3.543   2.012
 6315TIP3   OH218908   6.528   3.723   1.894
 6315TIP3    H118909   6.530   3.740   1.799
 6315TIP3    H218910   6.619   3.733   1.922
 6316TIP3   OH218911   6.118   1.109   0.137
 6316TIP3    H118912   6.102   1.118   0.043
 6316TIP3    H218913   6.037   1.138   0.179
 6317TIP3   OH218914   5.944   2.856   3.248
 6317TIP3    H118915   6.015   2.794   3.262
 6317TIP3    H218916   5.921   2.887   3.336
 6318TIP3   OH218917   4.974   6.514   4.584
 6318TIP3    H118918   5.020   6.433   4.606
 6318TIP3    H218919   4.944   6.548   4.669
 6319TIP3   OH218920   0.975   6.404   2.667
 6319TIP3    H118921   1.028   6.450   2.732
 6319TIP3    H218922   0.910   6.468   2.638
 6320TIP3   OH218923   5.617   1.953   0.699
 6320TIP3    H118924   5.609   1.954   0.604
 6320TIP3    H218925   5.546   1.896   0.728
 6321TIP3   OH218926   5.284   3.089   2.113
 6321TIP3    H118927   5.220   3.107   2.044
 6321TIP3    H218928   5.231   3.078   2.192
 6322TIP3   OH218929   1.823   1.165   5.182
 6322TIP3    H118930   1.798   1.149   5.091
 6322TIP3    H218931   1.780   1.247   5.205
 6323TIP3   OH218932   5.402   5.905   2.019
 6323TIP3    H118933   5.345   5.963   1.968
 6323TIP3    H218934   5.435   5.841   1.956
 6324TIP3   OH218935   4.880   3.226   3.646
 6324TIP3    H118936   4.824   3.149   3.657
 6324TIP3    H218937   4.829   3.284   3.589
 6325TIP3   OH218938   5.083   5.760   1.722
 6325TIP3    H118939   4.994   5.790   1.702
 6325TIP3    H218940   5.075   5.665   1.732
 6326TIP3   OH218941   2.656   6.010   1.327
 6326TIP3    H118942   2.589   5.948   1.299
 6326TIP3    H218943   2.739   5.965   1.310
 6327TIP3   OH218944   6.863   6.135   3.473
 6327TIP3    H118945   6.802   6.075   3.431
 6327TIP3    H218946   6.813   6.215   3.487
 6328TIP3   OH218947   6.416   2.730   1.442
 6328TIP3    H118948   6.380   2.671   1.508
 6328TIP3    H218949   6.341   2.783   1.414
 6329TIP3   OH218950   0.492   3.553   0.449
 6329TIP3    H118951   0.484   3.644   0.477
 6329TIP3    H218952   0.478   3.502   0.529
 6330TIP3   OH218953   4.118   2.320   5.125
 6330TIP3    H118954   4.104   2.270   5.206
 6330TIP3    H218955   4.212   2.332   5.120
 6331TIP3   OH218956   1.620   3.463   1.463
 6331TIP3    H118957   1.688   3.451   1.397
 6331TIP3    H218958   1.662   3.443   1.546
 6332TIP3   OH218959   1.329   0.903   1.534
 6332TIP3    H118960   1.245   0.875   1.499
 6332TIP3    H218961   1.329   0.873   1.625
 6333TIP3   OH218962   3.711   0.123   0.852
 6333TIP3    H118963   3.771   0.121   0.778
 6333TIP3    H218964   3.767   0.111   0.929
 6334TIP3   OH218965   4.389   5.168   1.177
 6334TIP3    H118966   4.403   5.206   1.090
 6334TIP3    H218967   4.465   5.194   1.228
 6335TIP3   OH218968   0.866   2.124   0.743
 6335TIP3    H118969   0.805   2.051   0.755
 6335TIP3    H218970   0.820   2.200   0.778
 6336TIP3   OH218971   0.990   1.884   0.359
 6336TIP3    H118972   1.003   1.790   0.358
 6336TIP3    H218973   1.025   1.913   0.443
 6337TIP3   OH218974   2.454   5.734   2.319
 6337TIP3    H118975   2.479   5.666   2.257
 6337TIP3    H218976   2.472   5.816   2.273
 6338TIP3   OH218977   3.566   6.291   3.546
 6338TIP3    H118978   3.607   6.378   3.545
 6338TIP3    H218979   3.509   6.291   3.469
 6339TIP3   OH218980   5.503   2.786   0.760
 6339TIP3    H118981   5.457   2.713   0.721
 6339TIP3    H218982   5.563   2.817   0.692
 6340TIP3   OH218983   3.004   1.991   0.719
 6340TIP3    H118984   3.065   2.035   0.779
 6340TIP3    H218985   2.920   1.993   0.765
 6341TIP3   OH218986   0.354   2.407   3.628
 6341TIP3    H118987   0.332   2.431   3.718
 6341TIP3    H218988   0.444   2.440   3.616
 6342TIP3   OH218989   5.586   5.319   2.400
 6342TIP3    H118990   5.557   5.409   2.388
 6342TIP3    H218991   5.668   5.326   2.448
 6343TIP3   OH218992   0.278   6.186   2.023
 6343TIP3    H118993   0.251   6.197   2.114
 6343TIP3    H218994   0.267   6.093   2.005
 6344TIP3   OH218995   3.221   6.309   2.910
 6344TIP3    H118996   3.150   6.263   2.955
 6344TIP3    H218997   3.275   6.239   2.873
 6345TIP3   OH218998   1.193   6.626   2.689
 6345TIP3    H118999   1.236   6.691   2.635
 6345TIP3    H219000   1.135   6.676   2.746
 6346TIP3   OH219001   6.565   2.005   2.548
 6346TIP3    H119002   6.480   2.019   2.506
 6346TIP3    H219003   6.628   2.014   2.476
 6347TIP3   OH219004   1.466   1.236   4.831
 6347TIP3    H119005   1.374   1.252   4.809
 6347TIP3    H219006   1.504   1.324   4.839
 6348TIP3   OH219007   0.918   3.663   1.679
 6348TIP3    H119008   0.924   3.627   1.768
 6348TIP3    H219009   0.829   3.698   1.673
 6349TIP3   OH219010   1.930   1.136   1.554
 6349TIP3    H119011   1.889   1.083   1.486
 6349TIP3    H219012   2.008   1.173   1.512
 6350TIP3   OH219013   6.423   0.694   1.395
 6350TIP3    H119014   6.341   0.694   1.346
 6350TIP3    H219015   6.452   0.603   1.394
 6351TIP3   OH219016   0.793   6.368   1.739
 6351TIP3    H119017   0.834   6.445   1.699
 6351TIP3    H219018   0.699   6.381   1.724
 6352TIP3   OH219019   0.867   2.270   2.278
 6352TIP3    H119020   0.859   2.174   2.281
 6352TIP3    H219021   0.847   2.292   2.187
 6353TIP3   OH219022   6.631   1.286   1.409
 6353TIP3    H119023   6.569   1.323   1.471
 6353TIP3    H219024   6.705   1.257   1.462
 6354TIP3   OH219025   5.044   6.588   0.436
 6354TIP3    H119026   4.997   6.630   0.508
 6354TIP3    H219027   5.093   6.659   0.395
 6355TIP3   OH219028   4.382   6.611   3.147
 6355TIP3    H119029   4.335   6.688   3.181
 6355TIP3    H219030   4.329   6.582   3.073
 6356TIP3   OH219031   5.235   2.852   3.573
 6356TIP3    H119032   5.220   2.947   3.578
 6356TIP3    H219033   5.324   2.841   3.608
 6357TIP3   OH219034   5.265   2.767   4.522
 6357TIP3    H119035   5.290   2.849   4.480
 6357TIP3    H219036   5.239   2.710   4.449
 6358TIP3   OH219037   1.241   3.489   3.890
 6358TIP3    H119038   1.322   3.450   3.922
 6358TIP3    H219039   1.187   3.500   3.968
 6359TIP3   OH219040   4.433   5.511   4.606
 6359TIP3    H119041   4.460   5.502   4.515
 6359TIP3    H219042   4.364   5.445   4.618
 6360TIP3   OH219043   0.738   3.730   2.787
 6360TIP3    H119044   0.746   3.648   2.739
 6360TIP3    H219045   0.807   3.725   2.854
 6361TIP3   OH219046   0.887   4.586   0.590
 6361TIP3    H119047   0.860   4.523   0.656
 6361TIP3    H219048   0.965   4.547   0.551
 6362TIP3   OH219049   0.449   0.487   3.957
 6362TIP3    H119050   0.416   0.401   3.927
 6362TIP3    H219051   0.484   0.526   3.878
 6363TIP3   OH219052   5.049   3.992   3.866
 6363TIP3    H119053   5.101   4.009   3.787
 6363TIP3    H219054   5.109   4.010   3.938
 6364TIP3   OH219055   3.625   6.409   4.930
 6364TIP3    H119056   3.632   6.485   4.873
 6364TIP3    H219057   3.531   6.396   4.941
 6365TIP3   OH219058   4.891   4.285   0.229
 6365TIP3    H119059   4.821   4.348   0.211
 6365TIP3    H219060   4.911   4.247   0.143
 6366TIP3   OH219061   5.163   6.276   1.318
 6366TIP3    H119062   5.192   6.349   1.264
 6366TIP3    H219063   5.242   6.245   1.362
 6367TIP3   OH219064   4.743   4.998   2.327
 6367TIP3    H119065   4.813   4.991   2.262
 6367TIP3    H219066   4.754   5.086   2.364
 6368TIP3   OH219067   1.988   1.898   4.292
 6368TIP3    H119068   1.941   1.876   4.212
 6368TIP3    H219069   2.080   1.895   4.266
 6369TIP3   OH219070   1.228   6.744   5.316
 6369TIP3    H119071   1.318   6.709   5.316
 6369TIP3    H219072   1.215   6.773   5.226
 6370TIP3   OH219073   0.974   6.439   2.996
 6370TIP3    H119074   0.908   6.372   2.982
 6370TIP3    H219075   1.023   6.410   3.073
 6371TIP3   OH219076   6.418   1.940   1.544
 6371TIP3    H119077   6.488   1.936   1.609
 6371TIP3    H219078   6.432   2.023   1.498
 6372TIP3   OH219079   6.908   4.699   4.366
 6372TIP3    H119080   6.991   4.746   4.374
 6372TIP3    H219081   6.870   4.702   4.454
 6373TIP3   OH219082   5.304   6.615   2.600
 6373TIP3    H119083   5.311   6.536   2.547
 6373TIP3    H219084   5.391   6.625   2.639
 6374TIP3   OH219085   5.465   2.812   0.056
 6374TIP3    H119086   5.482   2.901   0.027
 6374TIP3    H219087   5.544   2.764   0.035
 6375TIP3   OH219088   3.907   0.384   1.885
 6375TIP3    H119089   3.915   0.350   1.796
 6375TIP3    H219090   3.945   0.315   1.940
 6376TIP3   OH219091   5.595   3.698   3.377
 6376TIP3    H119092   5.671   3.641   3.394
 6376TIP3    H219093   5.589   3.702   3.282
 6377TIP3   OH219094   0.989   4.059   4.884
 6377TIP3    H119095   0.983   4.030   4.975
 6377TIP3    H219096   0.956   4.149   4.886
 6378TIP3   OH219097   4.636   1.154   1.792
 6378TIP3    H119098   4.560   1.105   1.824
 6378TIP3    H219099   4.656   1.216   1.862
 6379TIP3   OH219100   2.851   3.283   4.491
 6379TIP3    H119101   2.902   3.313   4.416
 6379TIP3    H219102   2.908   3.300   4.566
 6380TIP3   OH219103   0.351   2.937   5.727
 6380TIP3    H119104   0.381   3.028   5.723
 6380TIP3    H219105   0.257   2.942   5.710
 6381TIP3   OH219106   0.835   0.326   2.693
 6381TIP3    H119107   0.857   0.276   2.614
 6381TIP3    H219108   0.810   0.411   2.660
 6382TIP3   OH219109   4.451   1.992   1.321
 6382TIP3    H119110   4.431   1.983   1.414
 6382TIP3    H219111   4.501   2.074   1.315
 6383TIP3   OH219112   1.047   4.726   2.304
 6383TIP3    H119113   0.958   4.725   2.339
 6383TIP3    H219114   1.103   4.721   2.381
 6384TIP3   OH219115   1.359   6.564   1.403
 6384TIP3    H119116   1.385   6.544   1.313
 6384TIP3    H219117   1.417   6.510   1.457
 6385TIP3   OH219118   3.219   1.030   2.748
 6385TIP3    H119119   3.252   0.995   2.831
 6385TIP3    H219120   3.297   1.044   2.694
 6386TIP3   OH219121   6.859   5.948   0.476
 6386TIP3    H119122   6.854   5.977   0.567
 6386TIP3    H219123   6.939   5.987   0.443
 6387TIP3   OH219124   6.295   3.381   3.987
 6387TIP3    H119125   6.258   3.424   3.909
 6387TIP3    H219126   6.227   3.391   4.054
 6388TIP3   OH219127   6.668   2.207   4.607
 6388TIP3    H119128   6.716   2.288   4.597
 6388TIP3    H219129   6.734   2.138   4.597
 6389TIP3   OH219130   0.182   4.284   5.119
 6389TIP3    H119131   0.222   4.225   5.055
 6389TIP3    H219132   0.090   4.288   5.093
 6390TIP3   OH219133   5.557   3.217   0.356
 6390TIP3    H119134   5.589   3.286   0.414
 6390TIP3    H219135   5.573   3.136   0.403
 6391TIP3   OH219136   1.885   4.281   3.878
 6391TIP3    H119137   1.881   4.300   3.784
 6391TIP3    H219138   1.837   4.353   3.919
 6392TIP3   OH219139   3.017   1.663   5.121
 6392TIP3    H119140   3.000   1.662   5.027
 6392TIP3    H219141   2.966   1.590   5.155
 6393TIP3   OH219142   1.956   0.169   1.650
 6393TIP3    H119143   2.024   0.208   1.705
 6393TIP3    H219144   1.968   0.075   1.660
 6394TIP3   OH219145   1.659   6.054   4.438
 6394TIP3    H119146   1.591   6.002   4.481
 6394TIP3    H219147   1.724   6.069   4.507
 6395TIP3   OH219148   6.385   6.592   5.190
 6395TIP3    H119149   6.304   6.564   5.148
 6395TIP3    H219150   6.412   6.670   5.142
 6396TIP3   OH219151   4.185   5.174   0.438
 6396TIP3    H119152   4.183   5.084   0.469
 6396TIP3    H219153   4.222   5.169   0.350
 6397TIP3   OH219154   1.909   2.855   5.087
 6397TIP3    H119155   1.975   2.812   5.032
 6397TIP3    H219156   1.929   2.948   5.080
 6398TIP3   OH219157   4.352   3.691   1.305
 6398TIP3    H119158   4.261   3.713   1.324
 6398TIP3    H219159   4.386   3.768   1.259
 6399TIP3   OH219160   4.260   3.621   5.683
 6399TIP3    H119161   4.200   3.695   5.695
 6399TIP3    H219162   4.347   3.660   5.682
 6400TIP3   OH219163   1.997   3.210   2.084
 6400TIP3    H119164   2.081   3.255   2.076
 6400TIP3    H219165   2.016   3.131   2.134
 6401TIP3   OH219166   3.869   4.042   5.699
 6401TIP3    H119167   3.831   4.001   5.777
 6401TIP3    H219168   3.793   4.069   5.647
 6402TIP3   OH219169   6.557   6.492   1.293
 6402TIP3    H119170   6.474   6.491   1.342
 6402TIP3    H219171   6.585   6.401   1.293
 6403TIP3   OH219172   6.855   4.944   1.117
 6403TIP3    H119173   6.835   4.890   1.041
 6403TIP3    H219174   6.864   4.881   1.189
 6404TIP3   OH219175   7.197   0.987   0.926
 6404TIP3    H119176   7.291   1.007   0.924
 6404TIP3    H219177   7.174   0.976   0.834
 6405TIP3   OH219178   2.538   2.663   0.744
 6405TIP3    H119179   2.539   2.690   0.652
 6405TIP3    H219180   2.614   2.706   0.782
 6406TIP3   OH219181   0.495   3.816   3.972
 6406TIP3    H119182   0.418   3.834   4.026
 6406TIP3    H219183   0.468   3.745   3.915
 6407TIP3   OH219184   5.248   3.930   3.128
 6407TIP3    H119185   5.217   4.010   3.086
 6407TIP3    H219186   5.274   3.958   3.216
 6408TIP3   OH219187   2.678   6.256   5.729
 6408TIP3    H119188   2.672   6.321   5.799
 6408TIP3    H219189   2.649   6.302   5.651
 6409TIP3   OH219190   6.950   4.545   3.525
 6409TIP3    H119191   7.013   4.615   3.537
 6409TIP3    H219192   6.915   4.559   3.436
 6410TIP3   OH219193   5.875   0.589   2.739
 6410TIP3    H119194   5.812   0.529   2.699
 6410TIP3    H219195   5.826   0.671   2.749
 6411TIP3   OH219196   5.724   5.822   4.189
 6411TIP3    H119197   5.763   5.849   4.106
 6411TIP3    H219198   5.709   5.904   4.236
 6412TIP3   OH219199   2.929   1.292   1.272
 6412TIP3    H119200   2.925   1.374   1.321
 6412TIP3    H219201   3.003   1.303   1.212
 6413TIP3   OH219202   1.451   2.199   4.390
 6413TIP3    H119203   1.389   2.169   4.456
 6413TIP3    H219204   1.473   2.120   4.341
 6414TIP3   OH219205   2.166   5.188   4.945
 6414TIP3    H119206   2.132   5.275   4.924
 6414TIP3    H219207   2.087   5.135   4.961
 6415TIP3   OH219208   6.086   1.363   0.365
 6415TIP3    H119209   6.103   1.343   0.457
 6415TIP3    H219210   5.990   1.372   0.359
 6416TIP3   OH219211   0.755   6.721   5.173
 6416TIP3    H119212   0.803   6.646   5.207
 6416TIP3    H219213   0.744   6.780   5.248
 6417TIP3   OH219214   3.399   4.619   2.756
 6417TIP3    H119215   3.352   4.625   2.673
 6417TIP3    H219216   3.489   4.641   2.735
 6418TIP3   OH219217   5.904   1.410   2.231
 6418TIP3    H119218   5.849   1.362   2.293
 6418TIP3    H219219   5.917   1.496   2.272
 6419TIP3   OH219220   0.860   5.527   0.392
 6419TIP3    H119221   0.847   5.477   0.472
 6419TIP3    H219222   0.854   5.463   0.321
 6420TIP3   OH219223   5.988   0.484   5.098
 6420TIP3    H119224   5.938   0.565   5.089
 6420TIP3    H219225   6.065   0.497   5.043
 6421TIP3   OH219226   2.169   1.408   0.962
 6421TIP3    H119227   2.236   1.454   1.014
 6421TIP3    H219228   2.201   1.414   0.872
 6422TIP3   OH219229   0.459   6.133   5.761
 6422TIP3    H119230   0.514   6.152   5.685
 6422TIP3    H219231   0.511   6.161   5.836
 6423TIP3   OH219232   3.812   5.701   0.605
 6423TIP3    H119233   3.849   5.739   0.526
 6423TIP3    H219234   3.872   5.728   0.675
 6424TIP3   OH219235   5.808   2.041   2.196
 6424TIP3    H119236   5.714   2.035   2.211
 6424TIP3    H219237   5.833   1.955   2.164
 6425TIP3   OH219238   5.407   1.612   3.864
 6425TIP3    H119239   5.318   1.578   3.856
 6425TIP3    H219240   5.398   1.691   3.916
 6426TIP3   OH219241   2.166   4.256   4.889
 6426TIP3    H119242   2.222   4.179   4.878
 6426TIP3    H219243   2.225   4.324   4.920
 6427TIP3   OH219244   7.142   5.023   4.716
 6427TIP3    H119245   7.116   5.109   4.684
 6427TIP3    H219246   7.197   5.041   4.792
 6428TIP3   OH219247   3.519   6.719   3.512
 6428TIP3    H119248   3.494   6.773   3.586
 6428TIP3    H219249   3.599   6.675   3.540
 6429TIP3   OH219250   2.747   0.887   3.530
 6429TIP3    H119251   2.702   0.821   3.582
 6429TIP3    H219252   2.693   0.966   3.538
 6430TIP3   OH219253   2.026   6.479   4.218
 6430TIP3    H119254   2.023   6.395   4.173
 6430TIP3    H219255   2.069   6.538   4.156
 6431TIP3   OH219256   2.882   0.384   0.755
 6431TIP3    H119257   2.913   0.326   0.824
 6431TIP3    H219258   2.891   0.332   0.674
 6432TIP3   OH219259   4.290   5.603   0.388
 6432TIP3    H119260   4.241   5.617   0.469
 6432TIP3    H219261   4.372   5.563   0.416
 6433TIP3   OH219262   0.418   2.125   0.545
 6433TIP3    H119263   0.506   2.140   0.513
 6433TIP3    H219264   0.396   2.204   0.595
 6434TIP3   OH219265   5.723   4.209   0.334
 6434TIP3    H119266   5.777   4.171   0.404
 6434TIP3    H219267   5.691   4.292   0.371
 6435TIP3   OH219268   6.364   1.742   4.464
 6435TIP3    H119269   6.313   1.769   4.388
 6435TIP3    H219270   6.353   1.813   4.527
 6436TIP3   OH219271   0.014   2.795   2.151
 6436TIP3    H119272  -0.057   2.811   2.089
 6436TIP3    H219273  -0.010   2.713   2.195
 6437TIP3   OH219274   6.428   1.768   2.657
 6437TIP3    H119275   6.467   1.815   2.583
 6437TIP3    H219276   6.375   1.834   2.702
 6438TIP3   OH219277   3.814   2.438   2.425
 6438TIP3    H119278   3.842   2.490   2.351
 6438TIP3    H219279   3.748   2.490   2.470
 6439TIP3   OH219280   4.969   2.652   0.383
 6439TIP3    H119281   4.917   2.605   0.318
 6439TIP3    H219282   5.025   2.710   0.332
 6440TIP3   OH219283   2.611   1.081   1.735
 6440TIP3    H119284   2.650   0.996   1.717
 6440TIP3    H219285   2.528   1.080   1.686
 6441TIP3   OH219286   6.126   3.431   4.212
 6441TIP3    H119287   6.051   3.490   4.201
 6441TIP3    H219288   6.145   3.435   4.306
 6442TIP3   OH219289   2.436   5.458   4.179
 6442TIP3    H119290   2.424   5.503   4.263
 6442TIP3    H219291   2.529   5.437   4.177
 6443TIP3   OH219292   0.473   3.359   1.703
 6443TIP3    H119293   0.458   3.406   1.621
 6443TIP3    H219294   0.563   3.327   1.697
 6444TIP3   OH219295   5.960   0.398   0.743
 6444TIP3    H119296   5.929   0.479   0.700
 6444TIP3    H219297   5.936   0.328   0.683
 6445TIP3   OH219298   4.821   3.488   4.936
 6445TIP3    H119299   4.878   3.536   4.875
 6445TIP3    H219300   4.871   3.410   4.959
 6446TIP3   OH219301   0.106   3.710   2.484
 6446TIP3    H119302   0.161   3.687   2.408
 6446TIP3    H219303   0.094   3.804   2.477
 6447TIP3   OH219304   3.436   4.126   1.822
 6447TIP3    H119305   3.362   4.103   1.877
 6447TIP3    H219306   3.398   4.171   1.747
 6448TIP3   OH219307   5.389   3.715   1.158
 6448TIP3    H119308   5.461   3.654   1.140
 6448TIP3    H219309   5.361   3.745   1.071
 6449TIP3   OH219310   1.682   5.383   0.999
 6449TIP3    H119311   1.645   5.295   1.009
 6449TIP3    H219312   1.773   5.368   0.975
 6450TIP3   OH219313   0.508   3.095   4.817
 6450TIP3    H119314   0.504   3.173   4.761
 6450TIP3    H219315   0.422   3.054   4.808
 6451TIP3   OH219316   6.353   5.327   1.301
 6451TIP3    H119317   6.329   5.242   1.336
 6451TIP3    H219318   6.434   5.349   1.346
 6452TIP3   OH219319   4.713   6.286   4.947
 6452TIP3    H119320   4.804   6.269   4.970
 6452TIP3    H219321   4.718   6.333   4.864
 6453TIP3   OH219322   3.754   6.393   3.938
 6453TIP3    H119323   3.809   6.348   3.874
 6453TIP3    H219324   3.772   6.486   3.925
 6454TIP3   OH219325   3.838   3.139   0.862
 6454TIP3    H119326   3.930   3.145   0.840
 6454TIP3    H219327   3.814   3.048   0.842
 6455TIP3   OH219328   6.431   4.176   0.682
 6455TIP3    H119329   6.523   4.152   0.685
 6455TIP3    H219330   6.431   4.269   0.664
 6456TIP3   OH219331   0.357   6.790   3.030
 6456TIP3    H119332   0.377   6.697   3.015
 6456TIP3    H219333   0.404   6.836   2.961
 6457TIP3   OH219334   1.631  -0.002   0.504
 6457TIP3    H119335   1.644   0.057   0.429
 6457TIP3    H219336   1.579   0.050   0.566
 6458TIP3   OH219337   3.455   1.537   0.515
 6458TIP3    H119338   3.533   1.550   0.461
 6458TIP3    H219339   3.464   1.600   0.586
 6459TIP3   OH219340   0.823   6.699   3.064
 6459TIP3    H119341   0.761   6.705   3.137
 6459TIP3    H219342   0.798   6.619   3.018
 6460TIP3   OH219343   3.921   6.243   3.776
 6460TIP3    H119344   3.949   6.162   3.819
 6460TIP3    H219345   3.875   6.214   3.698
 6461TIP3   OH219346   0.300   0.816   1.920
 6461TIP3    H119347   0.250   0.826   2.001
 6461TIP3    H219348   0.276   0.891   1.868
 6462TIP3   OH219349   1.212   2.929   1.964
 6462TIP3    H119350   1.274   3.002   1.955
 6462TIP3    H219351   1.140   2.951   1.905
 6463TIP3   OH219352   5.414   5.561   5.219
 6463TIP3    H119353   5.460   5.569   5.135
 6463TIP3    H219354   5.482   5.536   5.281
 6464TIP3   OH219355   4.730   3.029   0.890
 6464TIP3    H119356   4.665   3.085   0.931
 6464TIP3    H219357   4.810   3.043   0.942
 6465TIP3   OH219358   2.513   0.136   1.912
 6465TIP3    H119359   2.551   0.127   1.999
 6465TIP3    H219360   2.505   0.046   1.880
 6466TIP3   OH219361   2.593   3.144   1.108
 6466TIP3    H119362   2.588   3.196   1.028
 6466TIP3    H219363   2.682   3.158   1.140
 6467TIP3   OH219364   3.349   5.738   4.269
 6467TIP3    H119365   3.317   5.828   4.258
 6467TIP3    H219366   3.320   5.693   4.190
 6468TIP3   OH219367   1.492   3.400   3.968
 6468TIP3    H119368   1.496   3.407   4.063
 6468TIP3    H219369   1.549   3.470   3.936
 6469TIP3   OH219370   3.422   5.649   1.987
 6469TIP3    H119371   3.454   5.602   1.910
 6469TIP3    H219372   3.482   5.624   2.057
 6470TIP3   OH219373   6.947   2.384   3.183
 6470TIP3    H119374   6.930   2.396   3.090
 6470TIP3    H219375   6.892   2.309   3.207
 6471TIP3   OH219376   3.865   4.918   0.198
 6471TIP3    H119377   3.786   4.962   0.228
 6471TIP3    H219378   3.924   4.989   0.173
 6472TIP3   OH219379   5.109   0.811   5.703
 6472TIP3    H119380   5.158   0.759   5.640
 6472TIP3    H219381   5.030   0.761   5.720
 6473TIP3   OH219382   0.080   4.737   0.614
 6473TIP3    H119383  -0.006   4.699   0.633
 6473TIP3    H219384   0.086   4.812   0.672
 6474TIP3   OH219385   5.682   3.608   1.395
 6474TIP3    H119386   5.774   3.609   1.419
 6474TIP3    H219387   5.682   3.603   1.299
 6475TIP3   OH219388   2.341   5.074   0.490
 6475TIP3    H119389   2.349   4.981   0.473
 6475TIP3    H219390   2.402   5.115   0.428
 6476TIP3   OH219391   4.605   4.277   3.463
 6476TIP3    H119392   4.681   4.278   3.405
 6476TIP3    H219393   4.640   4.299   3.549
 6477TIP3   OH219394   3.152   6.741   5.621
 6477TIP3    H119395   3.208   6.819   5.624
 6477TIP3    H219396   3.064   6.776   5.633
 6478TIP3   OH219397   2.716   6.222   4.387
 6478TIP3    H119398   2.680   6.266   4.464
 6478TIP3    H219399   2.693   6.280   4.314
 6479TIP3   OH219400   6.470   1.906   5.068
 6479TIP3    H119401   6.397   1.897   5.129
 6479TIP3    H219402   6.500   1.816   5.053
 6480TIP3   OH219403   3.388   3.414   5.807
 6480TIP3    H119404   3.422   3.502   5.822
 6480TIP3    H219405   3.325   3.425   5.735
 6481TIP3   OH219406   1.836   1.839   4.049
 6481TIP3    H119407   1.781   1.878   3.980
 6481TIP3    H219408   1.820   1.745   4.042
 6482TIP3   OH219409   3.240   4.409   0.534
 6482TIP3    H119410   3.245   4.504   0.525
 6482TIP3    H219411   3.255   4.392   0.627
 6483TIP3   OH219412   1.419   0.945   4.642
 6483TIP3    H119413   1.345   0.887   4.624
 6483TIP3    H219414   1.418   0.957   4.737
 6484TIP3   OH219415   1.617   3.760   3.335
 6484TIP3    H119416   1.614   3.799   3.423
 6484TIP3    H219417   1.706   3.775   3.304
 6485TIP3   OH219418   5.145   4.696   2.597
 6485TIP3    H119419   5.151   4.655   2.511
 6485TIP3    H219420   5.224   4.667   2.644
 6486TIP3   OH219421   2.038   0.614   2.860
 6486TIP3    H119422   2.009   0.571   2.780
 6486TIP3    H219423   2.097   0.684   2.830
 6487TIP3   OH219424   1.434   3.011   5.183
 6487TIP3    H119425   1.407   3.101   5.202
 6487TIP3    H219426   1.354   2.968   5.152
 6488TIP3   OH219427   7.011   4.088   0.806
 6488TIP3    H119428   7.063   4.141   0.866
 6488TIP3    H219429   7.006   4.002   0.847
 6489TIP3   OH219430   2.913   5.759   2.174
 6489TIP3    H119431   2.878   5.796   2.093
 6489TIP3    H219432   2.966   5.829   2.211
 6490TIP3   OH219433   1.153   0.875   4.225
 6490TIP3    H119434   1.239   0.900   4.259
 6490TIP3    H219435   1.170   0.847   4.135
 6491TIP3   OH219436   1.880   2.011   4.860
 6491TIP3    H119437   1.973   2.002   4.882
 6491TIP3    H219438   1.842   1.925   4.882
 6492TIP3   OH219439   3.262   2.910   3.520
 6492TIP3    H119440   3.222   2.966   3.453
 6492TIP3    H219441   3.313   2.970   3.574
 6493TIP3   OH219442   1.717   5.056   4.195
 6493TIP3    H119443   1.791   5.022   4.245
 6493TIP3    H219444   1.726   5.015   4.109
 6494TIP3   OH219445   0.290   6.791   0.734
 6494TIP3    H119446   0.359   6.840   0.689
 6494TIP3    H219447   0.219   6.786   0.670
 6495TIP3   OH219448   6.745   5.587   5.255
 6495TIP3    H119449   6.683   5.656   5.277
 6495TIP3    H219450   6.748   5.532   5.333
 6496TIP3   OH219451   0.227   4.782   5.690
 6496TIP3    H119452   0.170   4.742   5.624
 6496TIP3    H219453   0.298   4.822   5.640
 6497TIP3   OH219454   6.532   3.819   5.092
 6497TIP3    H119455   6.451   3.769   5.082
 6497TIP3    H219456   6.503   3.910   5.096
 6498TIP3   OH219457   3.056   3.793   3.075
 6498TIP3    H119458   3.149   3.801   3.054
 6498TIP3    H219459   3.012   3.795   2.990
 6499TIP3   OH219460   0.073   5.554   5.510
 6499TIP3    H119461   0.036   5.517   5.430
 6499TIP3    H219462   0.115   5.635   5.483
 6500TIP3   OH219463   0.031   5.505   4.388
 6500TIP3    H119464  -0.033   5.438   4.364
 6500TIP3    H219465   0.022   5.514   4.483
 6501TIP3   OH219466   0.019   2.036   4.374
 6501TIP3    H119467   0.114   2.044   4.369
 6501TIP3    H219468  -0.013   2.072   4.292
 6502TIP3   OH219469   4.485   1.095   3.984
 6502TIP3    H119470   4.508   1.003   3.994
 6502TIP3    H219471   4.450   1.121   4.069
 6503TIP3   OH219472   0.407   1.769   1.765
 6503TIP3    H119473   0.402   1.761   1.860
 6503TIP3    H219474   0.319   1.797   1.738
 6504TIP3   OH219475   2.540   0.505   2.164
 6504TIP3    H119476   2.558   0.544   2.078
 6504TIP3    H219477   2.619   0.454   2.183
 6505TIP3   OH219478   2.366   0.581   3.818
 6505TIP3    H119479   2.443   0.544   3.775
 6505TIP3    H219480   2.309   0.505   3.833
 6506TIP3   OH219481   0.565   4.546   3.743
 6506TIP3    H119482   0.493   4.586   3.694
 6506TIP3    H219483   0.598   4.477   3.686
 6507TIP3   OH219484   1.725   3.660   5.418
 6507TIP3    H119485   1.767   3.679   5.335
 6507TIP3    H219486   1.749   3.733   5.475
 6508TIP3   OH219487   5.164   3.424   5.151
 6508TIP3    H119488   5.204   3.443   5.066
 6508TIP3    H219489   5.108   3.499   5.169
 6509TIP3   OH219490   5.780   3.809   1.693
 6509TIP3    H119491   5.783   3.885   1.635
 6509TIP3    H219492   5.760   3.846   1.779
 6510TIP3   OH219493   7.200   0.304   4.882
 6510TIP3    H119494   7.150   0.362   4.940
 6510TIP3    H219495   7.258   0.364   4.834
 6511TIP3   OH219496   2.311   2.839   1.176
 6511TIP3    H119497   2.323   2.786   1.255
 6511TIP3    H219498   2.260   2.914   1.205
 6512TIP3   OH219499   2.888   3.514   3.882
 6512TIP3    H119500   2.872   3.426   3.847
 6512TIP3    H219501   2.814   3.566   3.853
 6513TIP3   OH219502   4.649   6.159   3.605
 6513TIP3    H119503   4.668   6.124   3.518
 6513TIP3    H219504   4.646   6.082   3.662
 6514TIP3   OH219505   5.415   2.288   0.123
 6514TIP3    H119506   5.493   2.263   0.072
 6514TIP3    H219507   5.439   2.266   0.213
 6515TIP3   OH219508   4.945   4.289   1.260
 6515TIP3    H119509   4.958   4.309   1.167
 6515TIP3    H219510   5.034   4.288   1.296
 6516TIP3   OH219511   3.331   3.261   0.294
 6516TIP3    H119512   3.338   3.338   0.350
 6516TIP3    H219513   3.290   3.293   0.214
 6517TIP3   OH219514   6.003   0.941   4.151
 6517TIP3    H119515   5.953   0.970   4.075
 6517TIP3    H219516   6.019   1.021   4.201
 6518TIP3   OH219517   3.035   4.721   0.326
 6518TIP3    H119518   3.119   4.731   0.370
 6518TIP3    H219519   3.015   4.628   0.332
 6519TIP3   OH219520   2.955   2.915   0.635
 6519TIP3    H119521   2.965   2.970   0.713
 6519TIP3    H219522   3.042   2.877   0.623
 6520TIP3   OH219523   0.639   6.419   3.016
 6520TIP3    H119524   0.698   6.346   2.995
 6520TIP3    H219525   0.551   6.382   3.007
 6521TIP3   OH219526   5.242   4.993   4.522
 6521TIP3    H119527   5.197   4.920   4.564
 6521TIP3    H219528   5.251   4.966   4.431
 6522TIP3   OH219529   5.387   2.336   0.606
 6522TIP3    H119530   5.459   2.376   0.653
 6522TIP3    H219531   5.366   2.257   0.656
 6523TIP3   OH219532   4.750   0.559   4.718
 6523TIP3    H119533   4.828   0.606   4.691
 6523TIP3    H219534   4.678   0.605   4.676
 6524TIP3   OH219535   6.560   6.668   3.216
 6524TIP3    H119536   6.640   6.721   3.220
 6524TIP3    H219537   6.579   6.591   3.269
 6525TIP3   OH219538   2.372   4.918   1.629
 6525TIP3    H119539   2.328   4.943   1.548
 6525TIP3    H219540   2.390   4.824   1.619
 6526TIP3   OH219541   0.892   5.462   2.390
 6526TIP3    H119542   0.871   5.386   2.336
 6526TIP3    H219543   0.809   5.508   2.401
 6527TIP3   OH219544   7.000   6.646   4.851
 6527TIP3    H119545   6.975   6.645   4.944
 6527TIP3    H219546   7.036   6.734   4.837
 6528TIP3   OH219547   2.893   5.509   0.097
 6528TIP3    H119548   2.970   5.456   0.076
 6528TIP3    H219549   2.823   5.474   0.041
 6529TIP3   OH219550   1.203   3.507   5.157
 6529TIP3    H119551   1.113   3.542   5.158
 6529TIP3    H219552   1.257   3.580   5.128
 6530TIP3   OH219553   1.224   1.910   3.958
 6530TIP3    H119554   1.151   1.914   3.897
 6530TIP3    H219555   1.245   2.001   3.978
 6531TIP3   OH219556   6.010   5.182   1.578
 6531TIP3    H119557   6.039   5.124   1.648
 6531TIP3    H219558   6.079   5.177   1.512
 6532TIP3   OH219559   7.037   2.788   2.370
 6532TIP3    H119560   7.038   2.694   2.347
 6532TIP3    H219561   7.033   2.832   2.286
 6533TIP3   OH219562   2.158   4.754   5.343
 6533TIP3    H119563   2.245   4.792   5.343
 6533TIP3    H219564   2.099   4.829   5.356
 6534TIP3   OH219565   1.798   3.542   4.386
 6534TIP3    H119566   1.848   3.623   4.398
 6534TIP3    H219567   1.750   3.532   4.468
 6535TIP3   OH219568   5.230   2.310   2.713
 6535TIP3    H119569   5.145   2.275   2.687
 6535TIP3    H219570   5.210   2.395   2.753
 6536TIP3   OH219571   1.068   5.043   0.351
 6536TIP3    H119572   1.006   4.994   0.296
 6536TIP3    H219573   1.013   5.089   0.415
 6537TIP3   OH219574   2.485   2.648   2.376
 6537TIP3    H119575   2.518   2.731   2.342
 6537TIP3    H219576   2.422   2.674   2.444
 6538TIP3   OH219577   7.050   3.852   0.249
 6538TIP3    H119578   7.132   3.842   0.202
 6538TIP3    H219579   7.022   3.941   0.228
 6539TIP3   OH219580   1.727   5.851   0.454
 6539TIP3    H119581   1.703   5.911   0.383
 6539TIP3    H219582   1.677   5.772   0.436
 6540TIP3   OH219583   0.591   0.280   1.515
 6540TIP3    H119584   0.556   0.201   1.474
 6540TIP3    H219585   0.519   0.342   1.511
 6541TIP3   OH219586   0.763   2.113   5.331
 6541TIP3    H119587   0.688   2.094   5.274
 6541TIP3    H219588   0.837   2.123   5.271
 6542TIP3   OH219589   6.072   4.870   1.064
 6542TIP3    H119590   6.144   4.865   1.002
 6542TIP3    H219591   6.046   4.962   1.064
 6543TIP3   OH219592   1.669   2.338   0.841
 6543TIP3    H119593   1.737   2.303   0.898
 6543TIP3    H219594   1.589   2.293   0.869
 6544TIP3   OH219595   5.109   3.694   3.032
 6544TIP3    H119596   5.189   3.741   3.058
 6544TIP3    H219597   5.089   3.728   2.945
 6545TIP3   OH219598   2.799   0.023   5.015
 6545TIP3    H119599   2.723  -0.034   5.002
 6545TIP3    H219600   2.829   0.004   5.104
 6546TIP3   OH219601   2.657   0.055   3.649
 6546TIP3    H119602   2.685  -0.010   3.585
 6546TIP3    H219603   2.737   0.078   3.696
 6547TIP3   OH219604   7.098   0.817   2.466
 6547TIP3    H119605   7.062   0.771   2.390
 6547TIP3    H219606   7.021   0.858   2.507
 6548TIP3   OH219607   1.980   1.135   3.971
 6548TIP3    H119608   2.070   1.167   3.975
 6548TIP3    H219609   1.986   1.041   3.989
 6549TIP3   OH219610   7.008   0.384   3.851
 6549TIP3    H119611   6.941   0.426   3.796
 6549TIP3    H219612   7.066   0.456   3.876
 6550TIP3   OH219613   2.207   2.602   1.935
 6550TIP3    H119614   2.237   2.522   1.977
 6550TIP3    H219615   2.149   2.643   2.000
 6551TIP3   OH219616   6.505   5.104   0.033
 6551TIP3    H119617   6.577   5.167   0.045
 6551TIP3    H219618   6.436   5.136   0.091
 6552TIP3   OH219619   4.003   6.239   4.050
 6552TIP3    H119620   3.972   6.295   3.979
 6552TIP3    H219621   3.930   6.178   4.066
 6553TIP3   OH219622   6.500   5.556   1.520
 6553TIP3    H119623   6.545   5.641   1.523
 6553TIP3    H219624   6.426   5.566   1.580
 6554TIP3   OH219625   4.792   2.470   2.195
 6554TIP3    H119626   4.838   2.451   2.277
 6554TIP3    H219627   4.724   2.405   2.190
 6555TIP3   OH219628   6.062   3.321   3.241
 6555TIP3    H119629   6.053   3.255   3.309
 6555TIP3    H219630   6.058   3.272   3.159
 6556TIP3   OH219631   7.008   5.660   3.305
 6556TIP3    H119632   7.045   5.590   3.250
 6556TIP3    H219633   6.913   5.648   3.298
 6557TIP3   OH219634   2.146   3.217   5.291
 6557TIP3    H119635   2.065   3.208   5.241
 6557TIP3    H219636   2.214   3.183   5.233
 6558TIP3   OH219637   2.867   0.352   3.315
 6558TIP3    H119638   2.775   0.326   3.311
 6558TIP3    H219639   2.866   0.444   3.290
 6559TIP3   OH219640   5.209   2.053   4.583
 6559TIP3    H119641   5.178   2.142   4.566
 6559TIP3    H219642   5.257   2.029   4.503
 6560TIP3   OH219643   3.208   5.044   3.585
 6560TIP3    H119644   3.238   4.956   3.608
 6560TIP3    H219645   3.172   5.079   3.667
 6561TIP3   OH219646   0.579   6.670   3.654
 6561TIP3    H119647   0.527   6.634   3.726
 6561TIP3    H219648   0.590   6.763   3.677
 6562TIP3   OH219649   5.783   6.018   3.204
 6562TIP3    H119650   5.874   6.048   3.208
 6562TIP3    H219651   5.731   6.095   3.228
 6563TIP3   OH219652   1.013   2.220   5.275
 6563TIP3    H119653   1.026   2.213   5.370
 6563TIP3    H219654   1.038   2.310   5.254
 6564TIP3   OH219655   6.026   5.701   4.912
 6564TIP3    H119656   5.956   5.741   4.861
 6564TIP3    H219657   6.073   5.645   4.850
 6565TIP3   OH219658   4.546   2.760   1.628
 6565TIP3    H119659   4.593   2.823   1.572
 6565TIP3    H219660   4.454   2.771   1.601
 6566TIP3   OH219661   3.096   3.175   5.419
 6566TIP3    H119662   3.037   3.231   5.468
 6566TIP3    H219663   3.133   3.115   5.484
 6567TIP3   OH219664   1.342   3.957   3.456
 6567TIP3    H119665   1.393   4.010   3.394
 6567TIP3    H219666   1.300   3.890   3.402
 6568TIP3   OH219667   7.032   0.183   2.241
 6568TIP3    H119668   7.123   0.159   2.221
 6568TIP3    H219669   7.037   0.226   2.326
 6569TIP3   OH219670   5.798   5.882   2.156
 6569TIP3    H119671   5.880   5.931   2.159
 6569TIP3    H219672   5.814   5.813   2.091
 6570TIP3   OH219673   0.467   0.691   0.969
 6570TIP3    H119674   0.445   0.610   0.923
 6570TIP3    H219675   0.402   0.697   1.039
 6571TIP3   OH219676   4.460   4.944   5.347
 6571TIP3    H119677   4.545   4.951   5.304
 6571TIP3    H219678   4.446   5.030   5.387
 6572TIP3   OH219679   3.507   5.101   5.119
 6572TIP3    H119680   3.591   5.120   5.075
 6572TIP3    H219681   3.461   5.185   5.118
 6573TIP3   OH219682   5.581   1.136   1.440
 6573TIP3    H119683   5.608   1.224   1.465
 6573TIP3    H219684   5.644   1.109   1.374
 6574TIP3   OH219685   6.402   4.055   2.177
 6574TIP3    H119686   6.491   4.058   2.211
 6574TIP3    H219687   6.359   3.985   2.226
 6575TIP3   OH219688   2.109   5.907   4.456
 6575TIP3    H119689   2.138   5.930   4.368
 6575TIP3    H219690   2.095   5.991   4.500
 6576TIP3   OH219691   3.876   0.463   5.814
 6576TIP3    H119692   3.798   0.457   5.760
 6576TIP3    H219693   3.948   0.477   5.752
 6577TIP3   OH219694   3.367   2.277   5.035
 6577TIP3    H119695   3.362   2.322   4.950
 6577TIP3    H219696   3.379   2.346   5.099
 6578TIP3   OH219697   4.926   1.764   3.562
 6578TIP3    H119698   5.011   1.806   3.574
 6578TIP3    H219699   4.871   1.831   3.522
 6579TIP3   OH219700   1.654   1.708   5.775
 6579TIP3    H119701   1.741   1.732   5.807
 6579TIP3    H219702   1.671   1.660   5.694
 6580TIP3   OH219703   1.588   2.110   1.188
 6580TIP3    H119704   1.666   2.160   1.212
 6580TIP3    H219705   1.618   2.020   1.182
 6581TIP3   OH219706   3.877   6.620   2.940
 6581TIP3    H119707   3.832   6.663   2.868
 6581TIP3    H219708   3.813   6.558   2.975
 6582TIP3   OH219709   4.867   1.446   3.041
 6582TIP3    H119710   4.834   1.422   3.128
 6582TIP3    H219711   4.962   1.439   3.048
 6583TIP3   OH219712   1.890   4.604   4.702
 6583TIP3    H119713   1.796   4.622   4.700
 6583TIP3    H219714   1.924   4.644   4.622
 6584TIP3   OH219715   2.279   5.021   0.027
 6584TIP3    H119716   2.251   5.113   0.033
 6584TIP3    H219717   2.370   5.022   0.057
 6585TIP3   OH219718   3.983   4.352   1.029
 6585TIP3    H119719   3.963   4.372   1.120
 6585TIP3    H219720   4.054   4.411   1.005
 6586TIP3   OH219721   7.155   1.848   4.887
 6586TIP3    H119722   7.075   1.803   4.860
 6586TIP3    H219723   7.212   1.779   4.919
 6587TIP3   OH219724   2.577   4.028   2.655
 6587TIP3    H119725   2.626   4.096   2.609
 6587TIP3    H219726   2.531   4.075   2.725
 6588TIP3   OH219727   4.326   0.647   3.856
 6588TIP3    H119728   4.267   0.713   3.893
 6588TIP3    H219729   4.318   0.572   3.915
 6589TIP3   OH219730   2.002   3.470   2.738
 6589TIP3    H119731   1.966   3.540   2.793
 6589TIP3    H219732   2.085   3.447   2.780
 6590TIP3   OH219733   6.072   5.771   2.985
 6590TIP3    H119734   5.999   5.765   3.047
 6590TIP3    H219735   6.104   5.681   2.976
 6591TIP3   OH219736   6.293   5.810   3.940
 6591TIP3    H119737   6.383   5.778   3.940
 6591TIP3    H219738   6.268   5.811   3.847
 6592TIP3   OH219739   6.743   1.361   2.268
 6592TIP3    H119740   6.798   1.416   2.212
 6592TIP3    H219741   6.714   1.419   2.338
 6593TIP3   OH219742   4.277   6.475   0.013
 6593TIP3    H119743   4.331   6.514   0.082
 6593TIP3    H219744   4.339   6.432  -0.045
 6594TIP3   OH219745   5.104   5.253   0.766
 6594TIP3    H119746   5.110   5.302   0.849
 6594TIP3    H219747   5.010   5.254   0.746
 6595TIP3   OH219748   6.206   0.441   3.210
 6595TIP3    H119749   6.139   0.454   3.277
 6595TIP3    H219750   6.289   0.454   3.255
 6596TIP3   OH219751   1.399   4.331   1.680
 6596TIP3    H119752   1.418   4.267   1.748
 6596TIP3    H219753   1.324   4.381   1.713
 6597TIP3   OH219754   2.612   3.298   0.897
 6597TIP3    H119755   2.597   3.384   0.937
 6597TIP3    H219756   2.658   3.318   0.815
 6598TIP3   OH219757   5.820   1.379   1.364
 6598TIP3    H119758   5.912   1.400   1.379
 6598TIP3    H219759   5.787   1.353   1.450
 6599TIP3   OH219760   4.030   4.126   4.580
 6599TIP3    H119761   4.005   4.034   4.570
 6599TIP3    H219762   4.089   4.127   4.655
 6600TIP3   OH219763   1.318   3.029   0.165
 6600TIP3    H119764   1.395   2.983   0.131
 6600TIP3    H219765   1.243   2.979   0.131
 6601TIP3   OH219766   5.046   0.562   1.724
 6601TIP3    H119767   5.124   0.526   1.683
 6601TIP3    H219768   4.987   0.488   1.733
 6602TIP3   OH219769   6.702   5.670   3.283
 6602TIP3    H119770   6.656   5.751   3.261
 6602TIP3    H219771   6.676   5.609   3.214
 6603TIP3   OH219772   4.856   3.048   4.745
 6603TIP3    H119773   4.900   2.965   4.764
 6603TIP3    H219774   4.764   3.030   4.761
 6604TIP3   OH219775   2.339   2.786   4.778
 6604TIP3    H119776   2.360   2.724   4.848
 6604TIP3    H219777   2.404   2.770   4.710
 6605TIP3   OH219778   4.406   3.394   5.463
 6605TIP3    H119779   4.425   3.487   5.463
 6605TIP3    H219780   4.492   3.352   5.452
 6606TIP3   OH219781   6.724   5.653   0.136
 6606TIP3    H119782   6.706   5.735   0.183
 6606TIP3    H219783   6.646   5.639   0.083
 6607TIP3   OH219784   0.544   3.446   4.145
 6607TIP3    H119785   0.500   3.461   4.229
 6607TIP3    H219786   0.608   3.517   4.139
 6608TIP3   OH219787   2.502   2.604   0.104
 6608TIP3    H119788   2.522   2.555   0.024
 6608TIP3    H219789   2.407   2.618   0.101
 6609TIP3   OH219790   0.207   6.735   1.255
 6609TIP3    H119791   0.219   6.790   1.177
 6609TIP3    H219792   0.212   6.645   1.222
 6610TIP3   OH219793   2.023   5.153   1.778
 6610TIP3    H119794   2.074   5.074   1.791
 6610TIP3    H219795   1.938   5.122   1.746
 6611TIP3   OH219796   1.807   0.278   0.400
 6611TIP3    H119797   1.874   0.226   0.356
 6611TIP3    H219798   1.731   0.273   0.341
 6612TIP3   OH219799   4.669   2.233   3.180
 6612TIP3    H119800   4.604   2.170   3.148
 6612TIP3    H219801   4.630   2.319   3.162
 6613TIP3   OH219802   2.155   5.177   0.789
 6613TIP3    H119803   2.238   5.179   0.837
 6613TIP3    H219804   2.175   5.221   0.706
 6614TIP3   OH219805   5.070   4.207   5.363
 6614TIP3    H119806   5.146   4.160   5.397
 6614TIP3    H219807   5.085   4.298   5.387
 6615TIP3   OH219808   2.997   3.951   4.981
 6615TIP3    H119809   3.056   3.978   5.051
 6615TIP3    H219810   3.049   3.890   4.928
 6616TIP3   OH219811   3.254   3.957   4.265
 6616TIP3    H119812   3.230   3.892   4.198
 6616TIP3    H219813   3.186   3.948   4.332
 6617TIP3   OH219814   1.142   4.890   2.745
 6617TIP3    H119815   1.077   4.957   2.764
 6617TIP3    H219816   1.223   4.924   2.782
 6618TIP3   OH219817   5.055   3.901   4.222
 6618TIP3    H119818   5.076   3.905   4.315
 6618TIP3    H219819   5.122   3.955   4.180
 6619TIP3   OH219820   7.004   0.817   2.779
 6619TIP3    H119821   6.980   0.732   2.742
 6619TIP3    H219822   7.097   0.826   2.760
 6620TIP3   OH219823   4.749   0.900   5.803
 6620TIP3    H119824   4.827   0.954   5.794
 6620TIP3    H219825   4.773   0.833   5.867
 6621TIP3   OH219826   5.307   4.568   2.930
 6621TIP3    H119827   5.354   4.640   2.973
 6621TIP3    H219828   5.364   4.492   2.943
 6622TIP3   OH219829   3.517   4.553   1.876
 6622TIP3    H119830   3.495   4.512   1.960
 6622TIP3    H219831   3.591   4.502   1.844
 6623TIP3   OH219832   1.973   3.043   2.673
 6623TIP3    H119833   1.983   3.069   2.765
 6623TIP3    H219834   1.927   3.117   2.632
 6624TIP3   OH219835   2.774   0.528   5.063
 6624TIP3    H119836   2.726   0.457   5.021
 6624TIP3    H219837   2.771   0.507   5.156
 6625TIP3   OH219838   0.350   1.952   0.355
 6625TIP3    H119839   0.424   1.891   0.355
 6625TIP3    H219840   0.370   2.013   0.427
 6626TIP3   OH219841   5.012   1.786   5.265
 6626TIP3    H119842   4.933   1.753   5.224
 6626TIP3    H219843   5.039   1.861   5.211
 6627TIP3   OH219844   6.431   2.354   5.623
 6627TIP3    H119845   6.496   2.424   5.627
 6627TIP3    H219846   6.468   2.291   5.561
 6628TIP3   OH219847   2.474   3.952   0.832
 6628TIP3    H119848   2.446   3.864   0.807
 6628TIP3    H219849   2.532   3.939   0.906
 6629TIP3   OH219850   0.293   4.353   0.113
 6629TIP3    H119851   0.331   4.388   0.032
 6629TIP3    H219852   0.216   4.304   0.084
 6630TIP3   OH219853   6.596   1.676   4.304
 6630TIP3    H119854   6.565   1.671   4.214
 6630TIP3    H219855   6.519   1.700   4.355
 6631TIP3   OH219856   6.772   1.290   5.881
 6631TIP3    H119857   6.739   1.262   5.796
 6631TIP3    H219858   6.849   1.343   5.860
 6632TIP3   OH219859   2.856   6.664   2.738
 6632TIP3    H119860   2.950   6.675   2.724
 6632TIP3    H219861   2.816   6.688   2.654
 6633TIP3   OH219862   2.152   2.707   5.472
 6633TIP3    H119863   2.183   2.797   5.459
 6633TIP3    H219864   2.229   2.660   5.503
 6634TIP3   OH219865   1.681   4.290   2.306
 6634TIP3    H119866   1.611   4.256   2.250
 6634TIP3    H219867   1.760   4.282   2.253
 6635TIP3   OH219868   3.703   0.641   5.196
 6635TIP3    H119869   3.763   0.578   5.156
 6635TIP3    H219870   3.758   0.714   5.223
 6636TIP3   OH219871   4.388   4.507   1.286
 6636TIP3    H119872   4.320   4.439   1.288
 6636TIP3    H219873   4.355   4.571   1.223
 6637TIP3   OH219874   2.067   3.427   3.191
 6637TIP3    H119875   2.144   3.385   3.229
 6637TIP3    H219876   2.035   3.364   3.127
 6638TIP3   OH219877   2.653   0.883   3.280
 6638TIP3    H119878   2.698   0.887   3.364
 6638TIP3    H219879   2.577   0.941   3.291
 6639TIP3   OH219880   5.499   6.647   3.518
 6639TIP3    H119881   5.434   6.710   3.486
 6639TIP3    H219882   5.540   6.691   3.593
 6640TIP3   OH219883   5.232   2.868   3.112
 6640TIP3    H119884   5.298   2.804   3.139
 6640TIP3    H219885   5.205   2.840   3.025
 6641TIP3   OH219886   6.724   0.413   5.079
 6641TIP3    H119887   6.751   0.321   5.079
 6641TIP3    H219888   6.806   0.462   5.075
 6642TIP3   OH219889   5.796   4.377   3.529
 6642TIP3    H119890   5.819   4.447   3.590
 6642TIP3    H219891   5.823   4.297   3.573
 6643TIP3   OH219892   1.192   4.496   1.728
 6643TIP3    H119893   1.127   4.555   1.691
 6643TIP3    H219894   1.150   4.410   1.728
 6644TIP3   OH219895   7.102   6.319   2.538
 6644TIP3    H119896   7.196   6.331   2.525
 6644TIP3    H219897   7.064   6.405   2.520
 6645TIP3   OH219898   1.661   6.758   1.890
 6645TIP3    H119899   1.749   6.749   1.853
 6645TIP3    H219900   1.621   6.672   1.878
 6646TIP3   OH219901   6.281   5.724   4.352
 6646TIP3    H119902   6.337   5.800   4.338
 6646TIP3    H219903   6.193   5.756   4.332
 6647TIP3   OH219904   4.167   1.705   1.945
 6647TIP3    H119905   4.214   1.787   1.959
 6647TIP3    H219906   4.232   1.637   1.960
 6648TIP3   OH219907   5.855   1.776   4.906
 6648TIP3    H119908   5.808   1.712   4.852
 6648TIP3    H219909   5.946   1.769   4.877
 6649TIP3   OH219910   4.071   6.511   1.399
 6649TIP3    H119911   4.009   6.506   1.472
 6649TIP3    H219912   4.043   6.442   1.339
 6650TIP3   OH219913   3.368   4.411   2.459
 6650TIP3    H119914   3.447   4.462   2.477
 6650TIP3    H219915   3.396   4.343   2.397
 6651TIP3   OH219916   6.958   5.012   2.969
 6651TIP3    H119917   7.040   5.001   3.017
 6651TIP3    H219918   6.980   5.073   2.898
 6652TIP3   OH219919   7.040   0.544   2.702
 6652TIP3    H119920   6.990   0.490   2.763
 6652TIP3    H219921   6.997   0.531   2.617
 6653TIP3   OH219922   0.270   2.173   3.784
 6653TIP3    H119923   0.228   2.253   3.816
 6653TIP3    H219924   0.294   2.193   3.693
 6654TIP3   OH219925   4.390   0.152   5.639
 6654TIP3    H119926   4.371   0.105   5.557
 6654TIP3    H219927   4.425   0.236   5.610
 6655TIP3   OH219928   1.823   5.649   0.764
 6655TIP3    H119929   1.738   5.635   0.806
 6655TIP3    H219930   1.844   5.566   0.723
 6656TIP3   OH219931   3.093   1.454   4.258
 6656TIP3    H119932   3.178   1.410   4.254
 6656TIP3    H219933   3.055   1.425   4.340
 6657TIP3   OH219934   6.474   2.186   1.438
 6657TIP3    H119935   6.532   2.170   1.363
 6657TIP3    H219936   6.418   2.258   1.410
 6658TIP3   OH219937   4.984   0.668   3.317
 6658TIP3    H119938   4.902   0.651   3.363
 6658TIP3    H219939   4.969   0.634   3.229
 6659TIP3   OH219940   4.672   1.801   0.838
 6659TIP3    H119941   4.628   1.817   0.922
 6659TIP3    H219942   4.720   1.720   0.852
 6660TIP3   OH219943   2.571   6.325   2.544
 6660TIP3    H119944   2.477   6.328   2.558
 6660TIP3    H219945   2.590   6.397   2.484
 6661TIP3   OH219946   6.223   2.398   3.569
 6661TIP3    H119947   6.199   2.341   3.642
 6661TIP3    H219948   6.191   2.486   3.596
 6662TIP3   OH219949   5.743   6.202   5.835
 6662TIP3    H119950   5.756   6.148   5.913
 6662TIP3    H219951   5.654   6.236   5.845
 6663TIP3   OH219952   5.339   1.264   2.183
 6663TIP3    H119953   5.258   1.298   2.219
 6663TIP3    H219954   5.318   1.242   2.092
 6664TIP3   OH219955   3.758   3.736   5.792
 6664TIP3    H119956   3.827   3.764   5.851
 6664TIP3    H219957   3.803   3.717   5.710
 6665TIP3   OH219958   7.084   3.795   2.723
 6665TIP3    H119959   7.178   3.801   2.710
 6665TIP3    H219960   7.048   3.791   2.634
 6666TIP3   OH219961   1.727   2.755   1.212
 6666TIP3    H119962   1.707   2.740   1.119
 6666TIP3    H219963   1.782   2.832   1.212
 6667TIP3   OH219964   6.837   5.930   2.695
 6667TIP3    H119965   6.754   5.976   2.682
 6667TIP3    H219966   6.819   5.867   2.765
 6668TIP3   OH219967   2.280   0.102   2.957
 6668TIP3    H119968   2.303   0.029   3.015
 6668TIP3    H219969   2.339   0.173   2.982
 6669TIP3   OH219970   2.151   3.115   0.655
 6669TIP3    H119971   2.165   3.023   0.680
 6669TIP3    H219972   2.225   3.161   0.693
 6670TIP3   OH219973   0.631   3.329   0.287
 6670TIP3    H119974   0.718   3.355   0.317
 6670TIP3    H219975   0.572   3.395   0.324
 6671TIP3   OH219976   6.427   2.975   0.176
 6671TIP3    H119977   6.404   2.950   0.086
 6671TIP3    H219978   6.355   2.940   0.229
 6672TIP3   OH219979   0.293   3.888   4.137
 6672TIP3    H119980   0.276   3.977   4.169
 6672TIP3    H219981   0.240   3.832   4.193
 6673TIP3   OH219982   1.473   2.819   1.031
 6673TIP3    H119983   1.464   2.742   1.086
 6673TIP3    H219984   1.418   2.886   1.073
 6674TIP3   OH219985   5.041   2.479   2.883
 6674TIP3    H119986   5.047   2.529   2.802
 6674TIP3    H219987   4.947   2.473   2.901
 6675TIP3   OH219988   4.839   0.339   1.730
 6675TIP3    H119989   4.771   0.380   1.784
 6675TIP3    H219990   4.794   0.312   1.650
 6676TIP3   OH219991   3.101   1.937   0.990
 6676TIP3    H119992   3.026   1.980   1.032
 6676TIP3    H219993   3.066   1.854   0.957
 6677TIP3   OH219994   0.695   0.118   0.695
 6677TIP3    H119995   0.765   0.182   0.683
 6677TIP3    H219996   0.704   0.059   0.620
 6678TIP3   OH219997   2.345   0.243   0.105
 6678TIP3    H119998   2.271   0.193   0.072
 6678TIP3    H219999   2.382   0.189   0.174
 6679TIP3   OH220000   0.307   3.671   2.276
 6679TIP3    H120001   0.373   3.689   2.209
 6679TIP3    H220002   0.335   3.590   2.318
 6680TIP3   OH220003   5.587   3.924   4.303
 6680TIP3    H120004   5.569   3.833   4.324
 6680TIP3    H220005   5.570   3.972   4.384
 6681TIP3   OH220006   5.886   5.715   0.021
 6681TIP3    H120007   5.825   5.652  -0.017
 6681TIP3    H220008   5.910   5.678   0.105
 6682TIP3   OH220009   4.527   5.577   2.056
 6682TIP3    H120010   4.481   5.636   1.997
 6682TIP3    H220011   4.517   5.617   2.143
 6683TIP3   OH220012   1.584   0.056   4.178
 6683TIP3    H120013   1.502   0.080   4.222
 6683TIP3    H220014   1.597  -0.036   4.201
 6684TIP3   OH220015   5.831   5.906   5.793
 6684TIP3    H120016   5.910   5.914   5.739
 6684TIP3    H220017   5.839   5.820   5.834
 6685TIP3   OH220018   3.157   4.047   1.624
 6685TIP3    H120019   3.085   4.076   1.568
 6685TIP3    H220020   3.146   4.096   1.705
 6686TIP3   OH220021   2.060   2.749   4.880
 6686TIP3    H120022   2.132   2.789   4.830
 6686TIP3    H220023   1.985   2.752   4.820
 6687TIP3   OH220024   4.935   5.536   1.660
 6687TIP3    H120025   4.842   5.512   1.658
 6687TIP3    H220026   4.957   5.553   1.569
 6688TIP3   OH220027   1.003   5.107   2.804
 6688TIP3    H120028   1.001   5.140   2.894
 6688TIP3    H220029   0.965   5.179   2.752
 6689TIP3   OH220030   1.079   5.663   4.684
 6689TIP3    H120031   1.153   5.711   4.720
 6689TIP3    H220032   1.118   5.597   4.627
 6690TIP3   OH220033   4.518   1.483   4.804
 6690TIP3    H120034   4.575   1.555   4.832
 6690TIP3    H220035   4.456   1.473   4.876
 6691TIP3   OH220036   2.280   1.269   3.089
 6691TIP3    H120037   2.189   1.244   3.107
 6691TIP3    H220038   2.283   1.277   2.993
 6692TIP3   OH220039   2.542   0.653   3.380
 6692TIP3    H120040   2.450   0.678   3.373
 6692TIP3    H220041   2.590   0.730   3.349
 6693TIP3   OH220042   6.844   2.697   0.388
 6693TIP3    H120043   6.832   2.786   0.361
 6693TIP3    H220044   6.923   2.668   0.342
 6694TIP3   OH220045   1.682   1.332   5.676
 6694TIP3    H120046   1.612   1.351   5.739
 6694TIP3    H220047   1.671   1.240   5.655
 6695TIP3   OH220048   3.964   1.405   2.648
 6695TIP3    H120049   3.890   1.346   2.643
 6695TIP3    H220050   3.987   1.423   2.557
 6696TIP3   OH220051   3.857   0.144   3.079
 6696TIP3    H120052   3.919   0.175   3.145
 6696TIP3    H220053   3.790   0.097   3.129
 6697TIP3   OH220054   6.721   3.773   4.591
 6697TIP3    H120055   6.692   3.733   4.673
 6697TIP3    H220056   6.644   3.818   4.557
 6698TIP3   OH220057   5.773   6.418   1.632
 6698TIP3    H120058   5.825   6.490   1.669
 6698TIP3    H220059   5.836   6.364   1.584
 6699TIP3   OH220060   0.862   6.489   0.303
 6699TIP3    H120061   0.831   6.540   0.229
 6699TIP3    H220062   0.835   6.539   0.380
 6700TIP3   OH220063   3.270   0.627   0.890
 6700TIP3    H120064   3.313   0.706   0.923
 6700TIP3    H220065   3.275   0.565   0.963
 6701TIP3   OH220066   5.794   3.055   2.755
 6701TIP3    H120067   5.776   3.147   2.734
 6701TIP3    H220068   5.721   3.029   2.811
 6702TIP3   OH220069   0.940   3.827   2.635
 6702TIP3    H120070   0.965   3.854   2.724
 6702TIP3    H220071   0.845   3.819   2.638
 6703TIP3   OH220072   4.713   6.408   4.091
 6703TIP3    H120073   4.724   6.353   4.169
 6703TIP3    H220074   4.699   6.345   4.020
 6704TIP3   OH220075   2.164   2.784   2.921
 6704TIP3    H120076   2.232   2.843   2.888
 6704TIP3    H220077   2.185   2.775   3.014
 6705TIP3   OH220078   0.286   1.776   1.086
 6705TIP3    H120079   0.308   1.772   0.993
 6705TIP3    H220080   0.350   1.837   1.123
 6706TIP3   OH220081   5.611   1.117   4.072
 6706TIP3    H120082   5.631   1.157   4.156
 6706TIP3    H220083   5.540   1.170   4.037
 6707TIP3   OH220084   4.971   6.189   2.984
 6707TIP3    H120085   5.032   6.123   3.018
 6707TIP3    H220086   4.982   6.264   3.042
 6708TIP3   OH220087   4.632   0.129   2.170
 6708TIP3    H120088   4.580   0.100   2.245
 6708TIP3    H220089   4.586   0.208   2.139
 6709TIP3   OH220090   1.299   4.787   4.764
 6709TIP3    H120091   1.220   4.755   4.721
 6709TIP3    H220092   1.269   4.818   4.849
 6710TIP3   OH220093   7.017   4.959   3.396
 6710TIP3    H120094   7.027   4.921   3.483
 6710TIP3    H220095   7.091   5.019   3.388
 6711TIP3   OH220096   6.009   1.951   2.548
 6711TIP3    H120097   6.018   1.895   2.470
 6711TIP3    H220098   6.081   2.014   2.540
 6712TIP3   OH220099   5.460   2.515   4.958
 6712TIP3    H120100   5.377   2.468   4.951
 6712TIP3    H220101   5.444   2.598   4.913
 6713TIP3   OH220102   0.786   5.767   1.424
 6713TIP3    H120103   0.827   5.803   1.345
 6713TIP3    H220104   0.784   5.840   1.486
 6714TIP3   OH220105   3.625   6.682   0.336
 6714TIP3    H120106   3.548   6.737   0.325
 6714TIP3    H220107   3.666   6.713   0.416
 6715TIP3   OH220108   0.749   5.898   5.652
 6715TIP3    H120109   0.794   5.824   5.694
 6715TIP3    H220110   0.810   5.928   5.585
 6716TIP3   OH220111   4.302   3.779   2.833
 6716TIP3    H120112   4.270   3.796   2.922
 6716TIP3    H220113   4.362   3.852   2.816
 6717TIP3   OH220114   0.657   1.480   1.879
 6717TIP3    H120115   0.701   1.501   1.796
 6717TIP3    H220116   0.583   1.425   1.854
 6718TIP3   OH220117   3.828   1.982   1.413
 6718TIP3    H120118   3.775   1.999   1.490
 6718TIP3    H220119   3.890   1.914   1.440
 6719TIP3   OH220120   3.180   4.382   2.039
 6719TIP3    H120121   3.154   4.348   2.125
 6719TIP3    H220122   3.099   4.418   2.003
 6720TIP3   OH220123   2.753   1.572   5.669
 6720TIP3    H120124   2.698   1.494   5.678
 6720TIP3    H220125   2.706   1.628   5.607
 6721TIP3   OH220126   0.986   4.954   4.051
 6721TIP3    H120127   1.027   4.881   4.098
 6721TIP3    H220128   1.018   4.946   3.961
 6722TIP3   OH220129   3.776   6.530   4.615
 6722TIP3    H120130   3.794   6.610   4.567
 6722TIP3    H220131   3.714   6.555   4.683
 6723TIP3   OH220132   1.226   3.912   0.700
 6723TIP3    H120133   1.238   3.865   0.617
 6723TIP3    H220134   1.303   3.891   0.751
 6724TIP3   OH220135   3.468   2.770   0.744
 6724TIP3    H120136   3.516   2.688   0.734
 6724TIP3    H220137   3.380   2.743   0.768
 6725TIP3   OH220138   4.325   3.156   5.564
 6725TIP3    H120139   4.360   3.222   5.505
 6725TIP3    H220140   4.365   3.074   5.535
 6726TIP3   OH220141   4.495   0.960   0.689
 6726TIP3    H120142   4.453   0.928   0.609
 6726TIP3    H220143   4.550   0.887   0.718
 6727TIP3   OH220144   1.523   5.926   2.632
 6727TIP3    H120145   1.494   5.953   2.545
 6727TIP3    H220146   1.458   5.964   2.692
 6728TIP3   OH220147   0.216   1.823   5.673
 6728TIP3    H120148   0.176   1.884   5.612
 6728TIP3    H220149   0.253   1.754   5.618
 6729TIP3   OH220150   0.904   4.029   1.873
 6729TIP3    H120151   0.856   4.026   1.790
 6729TIP3    H220152   0.880   3.947   1.917
 6730TIP3   OH220153   3.726   5.706   5.873
 6730TIP3    H120154   3.674   5.660   5.807
 6730TIP3    H220155   3.704   5.663   5.955
 6731TIP3   OH220156   5.391   1.321   2.949
 6731TIP3    H120157   5.370   1.383   2.880
 6731TIP3    H220158   5.426   1.375   3.020
 6732TIP3   OH220159   1.722   3.214   5.404
 6732TIP3    H120160   1.765   3.182   5.483
 6732TIP3    H220161   1.698   3.135   5.355
 6733TIP3   OH220162   2.206   4.284   2.607
 6733TIP3    H120163   2.114   4.294   2.583
 6733TIP3    H220164   2.254   4.296   2.524
 6734TIP3   OH220165   2.965   4.509   1.942
 6734TIP3    H120166   2.935   4.518   1.852
 6734TIP3    H220167   2.899   4.455   1.985
 6735TIP3   OH220168   2.863   2.048   3.074
 6735TIP3    H120169   2.878   1.955   3.056
 6735TIP3    H220170   2.809   2.079   3.001
 6736TIP3   OH220171   6.197   6.120   3.734
 6736TIP3    H120172   6.134   6.054   3.762
 6736TIP3    H220173   6.199   6.183   3.805
 6737TIP3   OH220174   6.082   2.000   4.456
 6737TIP3    H120175   6.154   1.992   4.519
 6737TIP3    H220176   6.029   2.072   4.490
 6738TIP3   OH220177   2.598   1.111   3.827
 6738TIP3    H120178   2.583   1.200   3.797
 6738TIP3    H220179   2.607   1.060   3.747
 6739TIP3   OH220180   0.888   5.920   0.650
 6739TIP3    H120181   0.936   5.937   0.569
 6739TIP3    H220182   0.830   5.995   0.661
 6740TIP3   OH220183   0.016   0.707   0.742
 6740TIP3    H120184  -0.042   0.778   0.717
 6740TIP3    H220185  -0.022   0.673   0.824
 6741TIP3   OH220186   2.930   5.353   3.708
 6741TIP3    H120187   3.016   5.372   3.746
 6741TIP3    H220188   2.867   5.384   3.773
 6742TIP3   OH220189   4.036   5.553   4.619
 6742TIP3    H120190   4.064   5.642   4.641
 6742TIP3    H220191   3.953   5.541   4.666
 6743TIP3   OH220192   6.246   1.638   3.521
 6743TIP3    H120193   6.258   1.545   3.538
 6743TIP3    H220194   6.284   1.652   3.434
 6744TIP3   OH220195   1.635   1.405   4.323
 6744TIP3    H120196   1.673   1.461   4.255
 6744TIP3    H220197   1.705   1.343   4.345
 6745TIP3   OH220198   5.302   2.574   2.639
 6745TIP3    H120199   5.275   2.539   2.554
 6745TIP3    H220200   5.397   2.562   2.641
 6746TIP3   OH220201   1.549   3.724   0.142
 6746TIP3    H120202   1.571   3.689   0.056
 6746TIP3    H220203   1.630   3.763   0.174
 6747TIP3   OH220204   1.717   0.307   5.064
 6747TIP3    H120205   1.675   0.294   4.979
 6747TIP3    H220206   1.810   0.320   5.043
 6748TIP3   OH220207   4.087   4.980   2.431
 6748TIP3    H120208   4.052   4.962   2.344
 6748TIP3    H220209   4.147   5.053   2.418
 6749TIP3   OH220210   1.289   1.859   4.727
 6749TIP3    H120211   1.280   1.825   4.638
 6749TIP3    H220212   1.199   1.875   4.756
 6750TIP3   OH220213   2.982   0.605   1.351
 6750TIP3    H120214   2.925   0.531   1.368
 6750TIP3    H220215   3.059   0.590   1.406
 6751TIP3   OH220216   5.064   3.082   0.266
 6751TIP3    H120217   4.970   3.081   0.284
 6751TIP3    H220218   5.096   3.159   0.314
 6752TIP3   OH220219   0.787   6.770   5.660
 6752TIP3    H120220   0.788   6.831   5.733
 6752TIP3    H220221   0.825   6.689   5.695
 6753TIP3   OH220222   4.387   4.456   4.624
 6753TIP3    H120223   4.298   4.435   4.593
 6753TIP3    H220224   4.414   4.530   4.570
 6754TIP3   OH220225   4.646   1.248   4.989
 6754TIP3    H120226   4.552   1.235   5.001
 6754TIP3    H220227   4.681   1.160   4.974
 6755TIP3   OH220228   5.036   2.601   2.654
 6755TIP3    H120229   5.124   2.611   2.617
 6755TIP3    H220230   4.977   2.602   2.578
 6756TIP3   OH220231   5.315   6.683   5.483
 6756TIP3    H120232   5.338   6.605   5.533
 6756TIP3    H220233   5.366   6.753   5.522
 6757TIP3   OH220234   2.114   1.767   0.122
 6757TIP3    H120235   2.108   1.840   0.060
 6757TIP3    H220236   2.198   1.780   0.166
 6758TIP3   OH220237   1.069   1.334   0.518
 6758TIP3    H120238   1.001   1.372   0.573
 6758TIP3    H220239   1.120   1.409   0.487
 6759TIP3   OH220240   1.775   4.622   3.796
 6759TIP3    H120241   1.871   4.621   3.801
 6759TIP3    H220242   1.753   4.538   3.754
 6760TIP3   OH220243   0.403   5.667   1.591
 6760TIP3    H120244   0.435   5.748   1.631
 6760TIP3    H220245   0.482   5.616   1.574
 6761TIP3   OH220246   2.013   2.224   4.340
 6761TIP3    H120247   1.989   2.151   4.398
 6761TIP3    H220248   1.933   2.275   4.331
 6762TIP3   OH220249   5.201   5.958   4.642
 6762TIP3    H120250   5.219   5.873   4.604
 6762TIP3    H220251   5.181   6.015   4.568
 6763TIP3   OH220252   1.967   3.253   4.547
 6763TIP3    H120253   1.923   3.201   4.614
 6763TIP3    H220254   1.969   3.342   4.582
 6764TIP3   OH220255   4.567   2.405   2.559
 6764TIP3    H120256   4.560   2.375   2.650
 6764TIP3    H220257   4.569   2.324   2.508
 6765TIP3   OH220258   4.672   0.895   2.187
 6765TIP3    H120259   4.703   0.877   2.098
 6765TIP3    H220260   4.731   0.962   2.221
 6766TIP3   OH220261   6.405   3.468   3.546
 6766TIP3    H120262   6.324   3.482   3.596
 6766TIP3    H220263   6.448   3.553   3.547
 6767TIP3   OH220264   4.164   3.760   1.509
 6767TIP3    H120265   4.194   3.732   1.596
 6767TIP3    H220266   4.092   3.702   1.489
 6768TIP3   OH220267   0.578   4.579   0.703
 6768TIP3    H120268   0.509   4.627   0.657
 6768TIP3    H220269   0.657   4.596   0.652
 6769TIP3   OH220270   6.150   0.215   3.088
 6769TIP3    H120271   6.180   0.233   2.999
 6769TIP3    H220272   6.175   0.292   3.138
 6770TIP3   OH220273   0.741   0.636   1.173
 6770TIP3    H120274   0.720   0.725   1.200
 6770TIP3    H220275   0.798   0.603   1.243
 6771TIP3   OH220276   4.229   4.103   3.200
 6771TIP3    H120277   4.168   4.176   3.212
 6771TIP3    H220278   4.270   4.092   3.286
 6772TIP3   OH220279   5.560   4.296   0.991
 6772TIP3    H120280   5.491   4.339   0.940
 6772TIP3    H220281   5.594   4.227   0.933
 6773TIP3   OH220282   4.249   0.190   4.317
 6773TIP3    H120283   4.281   0.151   4.235
 6773TIP3    H220284   4.163   0.225   4.295
 6774TIP3   OH220285   4.519   6.794   5.186
 6774TIP3    H120286   4.437   6.811   5.233
 6774TIP3    H220287   4.519   6.700   5.170
 6775TIP3   OH220288   6.614   3.054   3.869
 6775TIP3    H120289   6.544   3.060   3.934
 6775TIP3    H220290   6.574   3.011   3.794
 6776TIP3   OH220291   2.824   1.172   4.727
 6776TIP3    H120292   2.747   1.229   4.733
 6776TIP3    H220293   2.788   1.083   4.727
 6777TIP3   OH220294   4.585   1.880   5.367
 6777TIP3    H120295   4.614   1.795   5.402
 6777TIP3    H220296   4.529   1.857   5.292
 6778TIP3   OH220297   6.953   1.800   1.905
 6778TIP3    H120298   6.914   1.720   1.868
 6778TIP3    H220299   7.005   1.769   1.979
 6779TIP3   OH220300   1.345   5.297   4.341
 6779TIP3    H120301   1.437   5.287   4.368
 6779TIP3    H220302   1.319   5.210   4.313
 6780TIP3   OH220303   2.067   2.977   2.278
 6780TIP3    H120304   2.114   2.910   2.229
 6780TIP3    H220305   2.066   2.947   2.368
 6781TIP3   OH220306   1.562   4.607   0.607
 6781TIP3    H120307   1.529   4.529   0.563
 6781TIP3    H220308   1.640   4.631   0.557
 6782TIP3   OH220309   4.386   4.001   1.880
 6782TIP3    H120310   4.400   3.969   1.791
 6782TIP3    H220311   4.472   3.994   1.922
 6783TIP3   OH220312   4.966   1.146   5.790
 6783TIP3    H120313   5.050   1.178   5.757
 6783TIP3    H220314   4.919   1.225   5.817
 6784TIP3   OH220315   5.953   2.100   0.921
 6784TIP3    H120316   6.013   2.043   0.968
 6784TIP3    H220317   5.990   2.188   0.930
 6785TIP3   OH220318   1.661   2.980   0.893
 6785TIP3    H120319   1.594   2.927   0.937
 6785TIP3    H220320   1.675   2.936   0.809
 6786TIP3   OH220321   5.643   0.167   1.001
 6786TIP3    H120322   5.671   0.078   0.978
 6786TIP3    H220323   5.653   0.218   0.921
 6787TIP3   OH220324   0.180   0.953   2.195
 6787TIP3    H120325   0.128   1.002   2.258
 6787TIP3    H220326   0.267   0.947   2.234
 6788TIP3   OH220327   5.532   6.441   1.515
 6788TIP3    H120328   5.615   6.428   1.561
 6788TIP3    H220329   5.541   6.527   1.474
 6789TIP3   OH220330   3.171   5.500   2.584
 6789TIP3    H120331   3.144   5.444   2.511
 6789TIP3    H220332   3.264   5.483   2.595
 6790TIP3   OH220333   2.283   0.089   4.868
 6790TIP3    H120334   2.355   0.149   4.848
 6790TIP3    H220335   2.253   0.116   4.955
 6791TIP3   OH220336   1.945   1.424   1.499
 6791TIP3    H120337   2.036   1.394   1.501
 6791TIP3    H220338   1.897   1.351   1.459
 6792TIP3   OH220339   1.369   5.777   3.867
 6792TIP3    H120340   1.395   5.867   3.889
 6792TIP3    H220341   1.318   5.786   3.786
 6793TIP3   OH220342   1.332   0.546   1.739
 6793TIP3    H120343   1.327   0.500   1.823
 6793TIP3    H220344   1.285   0.489   1.678
 6794TIP3   OH220345   2.352   6.000   3.591
 6794TIP3    H120346   2.296   6.012   3.667
 6794TIP3    H220347   2.291   5.980   3.519
 6795TIP3   OH220348   6.371   0.655   2.630
 6795TIP3    H120349   6.362   0.559   2.623
 6795TIP3    H220350   6.355   0.674   2.722
 6796TIP3   OH220351   1.215   6.583   1.911
 6796TIP3    H120352   1.131   6.617   1.941
 6796TIP3    H220353   1.241   6.520   1.979
 6797TIP3   OH220354   0.822   2.519   0.319
 6797TIP3    H120355   0.844   2.434   0.281
 6797TIP3    H220356   0.816   2.502   0.413
 6798TIP3   OH220357   2.711   0.809   5.263
 6798TIP3    H120358   2.686   0.753   5.337
 6798TIP3    H220359   2.628   0.828   5.219
 6799TIP3   OH220360   4.677   5.040   3.691
 6799TIP3    H120361   4.587   5.073   3.686
 6799TIP3    H220362   4.707   5.039   3.600
 6800TIP3   OH220363   2.136   1.037   3.571
 6800TIP3    H120364   2.041   1.035   3.559
 6800TIP3    H220365   2.147   1.054   3.664
 6801TIP3   OH220366   1.089   2.836   0.049
 6801TIP3    H120367   1.076   2.877  -0.037
 6801TIP3    H220368   1.088   2.742   0.031
 6802TIP3   OH220369   1.763   5.067   1.704
 6802TIP3    H120370   1.702   5.140   1.695
 6802TIP3    H220371   1.717   5.004   1.759
 6803TIP3   OH220372   3.730   2.981   1.290
 6803TIP3    H120373   3.721   3.036   1.212
 6803TIP3    H220374   3.691   3.033   1.360
 6804TIP3   OH220375   0.000   1.206   5.326
 6804TIP3    H120376  -0.053   1.262   5.269
 6804TIP3    H220377   0.084   1.251   5.335
 6805TIP3   OH220378   1.519   0.703   0.578
 6805TIP3    H120379   1.467   0.693   0.658
 6805TIP3    H220380   1.472   0.771   0.529
 6806TIP3   OH220381   5.736   5.756   5.232
 6806TIP3    H120382   5.821   5.713   5.245
 6806TIP3    H220383   5.688   5.697   5.174
 6807TIP3   OH220384   1.937   2.540   2.746
 6807TIP3    H120385   1.903   2.630   2.748
 6807TIP3    H220386   1.860   2.485   2.736
 6808TIP3   OH220387   5.435   3.037   5.727
 6808TIP3    H120388   5.513   2.981   5.729
 6808TIP3    H220389   5.375   2.992   5.668
 6809TIP3   OH220390   5.273   5.994   0.858
 6809TIP3    H120391   5.253   6.016   0.949
 6809TIP3    H220392   5.206   6.039   0.807
 6810TIP3   OH220393   1.195   3.628   2.587
 6810TIP3    H120394   1.131   3.558   2.574
 6810TIP3    H220395   1.142   3.704   2.611
 6811TIP3   OH220396   5.044   1.274   1.748
 6811TIP3    H120397   4.956   1.250   1.719
 6811TIP3    H220398   5.034   1.294   1.841
 6812TIP3   OH220399   1.267   1.308   5.286
 6812TIP3    H120400   1.184   1.284   5.243
 6812TIP3    H220401   1.315   1.357   5.219
 6813TIP3   OH220402   4.347   3.082   1.113
 6813TIP3    H120403   4.430   3.095   1.160
 6813TIP3    H220404   4.372   3.080   1.021
 6814TIP3   OH220405   1.998   4.266   1.029
 6814TIP3    H120406   2.013   4.233   0.941
 6814TIP3    H220407   1.987   4.361   1.018
 6815TIP3   OH220408   4.865   0.179   1.244
 6815TIP3    H120409   4.791   0.123   1.224
 6815TIP3    H220410   4.884   0.225   1.162
 6816TIP3   OH220411   6.578   0.548   3.958
 6816TIP3    H120412   6.613   0.624   4.005
 6816TIP3    H220413   6.509   0.584   3.903
 6817TIP3   OH220414   4.757   0.014   1.916
 6817TIP3    H120415   4.742   0.092   1.864
 6817TIP3    H220416   4.731   0.039   2.005
 6818TIP3   OH220417   3.619   1.687   3.505
 6818TIP3    H120418   3.630   1.761   3.565
 6818TIP3    H220419   3.683   1.622   3.536
 6819TIP3   OH220420   0.208   5.836   3.192
 6819TIP3    H120421   0.166   5.838   3.278
 6819TIP3    H220422   0.229   5.743   3.177
 6820TIP3   OH220423   6.794   1.907   3.366
 6820TIP3    H120424   6.811   1.874   3.455
 6820TIP3    H220425   6.701   1.889   3.352
 6821TIP3   OH220426   5.434   1.072   2.527
 6821TIP3    H120427   5.509   1.047   2.473
 6821TIP3    H220428   5.406   1.156   2.490
 6822TIP3   OH220429   6.940   2.674   3.149
 6822TIP3    H120430   6.866   2.681   3.089
 6822TIP3    H220431   6.900   2.670   3.236
 6823TIP3   OH220432   5.666   3.858   4.067
 6823TIP3    H120433   5.723   3.931   4.042
 6823TIP3    H220434   5.626   3.885   4.149
 6824TIP3   OH220435   0.793   1.047   0.416
 6824TIP3    H120436   0.759   0.968   0.457
 6824TIP3    H220437   0.726   1.114   0.432
 6825TIP3   OH220438   2.758   4.390   3.905
 6825TIP3    H120439   2.830   4.333   3.931
 6825TIP3    H220440   2.683   4.332   3.893
 6826TIP3   OH220441   1.151   2.601   2.271
 6826TIP3    H120442   1.205   2.632   2.343
 6826TIP3    H220443   1.186   2.643   2.193
 6827TIP3   OH220444   5.282   3.377   1.764
 6827TIP3    H120445   5.373   3.361   1.786
 6827TIP3    H220446   5.285   3.446   1.697
 6828TIP3   OH220447   2.057   6.025   1.006
 6828TIP3    H120448   2.138   6.024   1.057
 6828TIP3    H220449   2.077   6.081   0.931
 6829TIP3   OH220450   4.523   6.355   3.386
 6829TIP3    H120451   4.482   6.408   3.317
 6829TIP3    H220452   4.451   6.306   3.424
 6830TIP3   OH220453   0.221   3.200   2.066
 6830TIP3    H120454   0.239   3.289   2.034
 6830TIP3    H220455   0.303   3.153   2.051
 6831TIP3   OH220456   6.663   4.019   2.262
 6831TIP3    H120457   6.670   3.924   2.255
 6831TIP3    H220458   6.741   4.045   2.311
 6832TIP3   OH220459   4.419   6.150   1.518
 6832TIP3    H120460   4.509   6.175   1.538
 6832TIP3    H220461   4.368   6.229   1.531
 6833TIP3   OH220462   3.760   4.971   2.769
 6833TIP3    H120463   3.732   4.888   2.808
 6833TIP3    H220464   3.855   4.966   2.768
 6834TIP3   OH220465   1.244   4.035   2.069
 6834TIP3    H120466   1.220   3.985   1.991
 6834TIP3    H220467   1.211   4.123   2.052
 6835TIP3   OH220468   3.212   1.487   5.169
 6835TIP3    H120469   3.159   1.566   5.174
 6835TIP3    H220470   3.251   1.479   5.257
 6836TIP3   OH220471   1.699   1.908   5.157
 6836TIP3    H120472   1.743   1.852   5.222
 6836TIP3    H220473   1.754   1.986   5.152
 6837TIP3   OH220474   0.903   4.161   0.297
 6837TIP3    H120475   0.905   4.192   0.207
 6837TIP3    H220476   0.920   4.067   0.291
 6838TIP3   OH220477   6.168   0.654   1.751
 6838TIP3    H120478   6.168   0.740   1.709
 6838TIP3    H220479   6.171   0.592   1.678
 6839TIP3   OH220480   4.572   0.702   5.005
 6839TIP3    H120481   4.496   0.725   4.951
 6839TIP3    H220482   4.542   0.714   5.095
 6840TIP3   OH220483   2.652   0.602   0.542
 6840TIP3    H120484   2.671   0.623   0.633
 6840TIP3    H220485   2.704   0.523   0.524
 6841TIP3   OH220486   1.816   4.741   2.231
 6841TIP3    H120487   1.799   4.687   2.154
 6841TIP3    H220488   1.909   4.765   2.224
 6842TIP3   OH220489   0.591   3.084   2.391
 6842TIP3    H120490   0.514   3.039   2.425
 6842TIP3    H220491   0.644   3.102   2.468
 6843TIP3   OH220492   0.435   3.833   0.558
 6843TIP3    H120493   0.458   3.767   0.623
 6843TIP3    H220494   0.381   3.896   0.606
 6844TIP3   OH220495   1.069   4.856   3.077
 6844TIP3    H120496   1.048   4.773   3.033
 6844TIP3    H220497   1.106   4.911   3.008
 6845TIP3   OH220498   6.394   6.092   0.007
 6845TIP3    H120499   6.408   6.070   0.099
 6845TIP3    H220500   6.302   6.121   0.003
 6846TIP3   OH220501   5.622   6.317   4.921
 6846TIP3    H120502   5.691   6.344   4.982
 6846TIP3    H220503   5.560   6.389   4.921
 6847TIP3   OH220504   5.851   4.911   3.888
 6847TIP3    H120505   5.908   4.861   3.829
 6847TIP3    H220506   5.806   4.844   3.940
 6848TIP3   OH220507   5.007   0.032   3.985
 6848TIP3    H120508   5.095  -0.003   3.968
 6848TIP3    H220509   5.013   0.072   4.072
 6849TIP3   OH220510   2.867   1.721   0.445
 6849TIP3    H120511   2.843   1.644   0.497
 6849TIP3    H220512   2.898   1.685   0.362
 6850TIP3   OH220513   7.221   5.171   3.332
 6850TIP3    H120514   7.279   5.138   3.400
 6850TIP3    H220515   7.211   5.264   3.352
 6851TIP3   OH220516   5.980   1.864   4.228
 6851TIP3    H120517   6.042   1.875   4.156
 6851TIP3    H220518   6.011   1.924   4.296
 6852TIP3   OH220519   5.890   5.042   0.449
 6852TIP3    H120520   5.924   5.129   0.469
 6852TIP3    H220521   5.835   5.054   0.372
 6853TIP3   OH220522   0.310   4.427   4.576
 6853TIP3    H120523   0.372   4.374   4.526
 6853TIP3    H220524   0.224   4.394   4.552
 6854TIP3   OH220525   7.024   1.426   5.740
 6854TIP3    H120526   7.070   1.460   5.663
 6854TIP3    H220527   7.043   1.490   5.809
 6855TIP3   OH220528   2.030   4.073   0.209
 6855TIP3    H120529   1.952   4.127   0.192
 6855TIP3    H220530   2.101   4.119   0.163
 6856TIP3   OH220531   2.660   4.651   4.297
 6856TIP3    H120532   2.741   4.672   4.344
 6856TIP3    H220533   2.590   4.680   4.355
 6857TIP3   OH220534   3.368   6.001   0.703
 6857TIP3    H120535   3.424   5.951   0.645
 6857TIP3    H220536   3.310   6.051   0.645
 6858TIP3   OH220537   0.622   1.571   3.439
 6858TIP3    H120538   0.570   1.649   3.421
 6858TIP3    H220539   0.598   1.546   3.528
 6859TIP3   OH220540   0.853   0.107   2.268
 6859TIP3    H120541   0.761   0.111   2.240
 6859TIP3    H220542   0.853   0.042   2.339
 6860TIP3   OH220543   7.044   4.574   5.491
 6860TIP3    H120544   6.999   4.490   5.500
 6860TIP3    H220545   6.994   4.621   5.423
 6861TIP3   OH220546   2.598   6.793   5.071
 6861TIP3    H120547   2.543   6.849   5.127
 6861TIP3    H220548   2.686   6.830   5.080
 6862TIP3   OH220549   0.852   5.351   5.518
 6862TIP3    H120550   0.919   5.287   5.542
 6862TIP3    H220551   0.858   5.356   5.422
 6863TIP3   OH220552   5.653   5.909   3.683
 6863TIP3    H120553   5.713   5.888   3.611
 6863TIP3    H220554   5.622   5.997   3.663
 6864TIP3   OH220555   0.446   2.365   2.758
 6864TIP3    H120556   0.476   2.443   2.712
 6864TIP3    H220557   0.443   2.390   2.850
 6865TIP3   OH220558   2.242   3.625   4.496
 6865TIP3    H120559   2.301   3.689   4.457
 6865TIP3    H220560   2.299   3.558   4.533
 6866TIP3   OH220561   3.057   0.684   3.627
 6866TIP3    H120562   3.096   0.763   3.665
 6866TIP3    H220563   3.072   0.693   3.533
 6867TIP3   OH220564   0.409   2.437   5.708
 6867TIP3    H120565   0.372   2.349   5.702
 6867TIP3    H220566   0.449   2.439   5.795
 6868TIP3   OH220567   4.813   6.205   1.192
 6868TIP3    H120568   4.759   6.261   1.248
 6868TIP3    H220569   4.809   6.246   1.105
 6869TIP3   OH220570   1.692   2.335   0.398
 6869TIP3    H120571   1.598   2.339   0.386
 6869TIP3    H220572   1.728   2.329   0.310
 6870TIP3   OH220573   2.260   6.341   1.919
 6870TIP3    H120574   2.322   6.413   1.910
 6870TIP3    H220575   2.202   6.350   1.843
 6871TIP3   OH220576   5.235   0.663   1.156
 6871TIP3    H120577   5.215   0.571   1.174
 6871TIP3    H220578   5.155   0.710   1.181
 6872TIP3   OH220579   2.823   5.706   2.493
 6872TIP3    H120580   2.887   5.659   2.439
 6872TIP3    H220581   2.738   5.682   2.456
 6873TIP3   OH220582   3.044   0.548   5.082
 6873TIP3    H120583   2.959   0.529   5.043
 6873TIP3    H220584   3.094   0.466   5.072
 6874TIP3   OH220585   0.854   6.624   1.637
 6874TIP3    H120586   0.812   6.693   1.585
 6874TIP3    H220587   0.945   6.626   1.609
 6875TIP3   OH220588   5.832   2.112   1.931
 6875TIP3    H120589   5.757   2.158   1.894
 6875TIP3    H220590   5.817   2.113   2.025
 6876TIP3   OH220591   5.936   3.772   4.591
 6876TIP3    H120592   5.908   3.691   4.549
 6876TIP3    H220593   5.868   3.835   4.570
 6877TIP3   OH220594   4.606   0.480   3.809
 6877TIP3    H120595   4.517   0.490   3.775
 6877TIP3    H220596   4.651   0.428   3.743
 6878TIP3   OH220597   4.767   2.580   5.361
 6878TIP3    H120598   4.687   2.574   5.413
 6878TIP3    H220599   4.837   2.586   5.427
 6879TIP3   OH220600   2.701   2.610   3.575
 6879TIP3    H120601   2.672   2.582   3.488
 6879TIP3    H220602   2.620   2.617   3.625
 6880TIP3   OH220603   4.778   5.539   4.411
 6880TIP3    H120604   4.869   5.520   4.391
 6880TIP3    H220605   4.737   5.453   4.422
 6881TIP3   OH220606   2.952   0.517   5.340
 6881TIP3    H120607   2.992   0.548   5.259
 6881TIP3    H220608   2.982   0.579   5.407
 6882TIP3   OH220609   2.064   4.129   2.859
 6882TIP3    H120610   2.105   4.180   2.789
 6882TIP3    H220611   1.982   4.098   2.821
 6883TIP3   OH220612   6.039   3.086   4.703
 6883TIP3    H120613   6.090   3.119   4.777
 6883TIP3    H220614   5.961   3.142   4.700
 6884TIP3   OH220615   4.383   2.912   5.414
 6884TIP3    H120616   4.439   2.890   5.489
 6884TIP3    H220617   4.419   2.861   5.342
 6885TIP3   OH220618   6.653   1.652   0.632
 6885TIP3    H120619   6.742   1.631   0.658
 6885TIP3    H220620   6.609   1.676   0.713
 6886TIP3   OH220621   2.337   3.560   0.276
 6886TIP3    H120622   2.367   3.475   0.309
 6886TIP3    H220623   2.376   3.568   0.189
 6887TIP3   OH220624   6.578   1.481   5.568
 6887TIP3    H120625   6.494   1.442   5.544
 6887TIP3    H220626   6.636   1.406   5.580
 6888TIP3   OH220627   4.994   0.836   1.186
 6888TIP3    H120628   5.022   0.825   1.096
 6888TIP3    H220629   4.922   0.774   1.197
 6889TIP3   OH220630   6.685   3.944   3.872
 6889TIP3    H120631   6.677   3.990   3.789
 6889TIP3    H220632   6.747   3.872   3.855
 6890TIP3   OH220633   6.982   6.592   0.189
 6890TIP3    H120634   6.994   6.587   0.094
 6890TIP3    H220635   7.061   6.553   0.225
 6891TIP3   OH220636  -0.003   2.663   0.479
 6891TIP3    H120637   0.085   2.700   0.485
 6891TIP3    H220638  -0.012   2.635   0.388
 6892TIP3   OH220639   4.158   4.589   3.607
 6892TIP3    H120640   4.073   4.573   3.648
 6892TIP3    H220641   4.195   4.662   3.656
 6893TIP3   OH220642   5.910   3.513   0.177
 6893TIP3    H120643   5.981   3.454   0.203
 6893TIP3    H220644   5.847   3.457   0.132
 6894TIP3   OH220645   2.402   6.294   0.867
 6894TIP3    H120646   2.440   6.278   0.954
 6894TIP3    H220647   2.447   6.232   0.810
 6895TIP3   OH220648   4.637   6.696   0.484
 6895TIP3    H120649   4.624   6.623   0.544
 6895TIP3    H220650   4.617   6.660   0.397
 6896TIP3   OH220651   4.575   0.063   5.873
 6896TIP3    H120652   4.536  -0.019   5.901
 6896TIP3    H220653   4.650   0.076   5.932
 6897TIP3   OH220654   7.141   4.333   2.342
 6897TIP3    H120655   7.177   4.284   2.415
 6897TIP3    H220656   7.183   4.419   2.347
 6898TIP3   OH220657   3.375   1.273   4.845
 6898TIP3    H120658   3.465   1.242   4.849
 6898TIP3    H220659   3.364   1.304   4.755
 6899TIP3   OH220660   5.158   0.414   3.050
 6899TIP3    H120661   5.148   0.319   3.037
 6899TIP3    H220662   5.070   0.444   3.075
 6900TIP3   OH220663   4.028   6.476   2.708
 6900TIP3    H120664   4.009   6.407   2.645
 6900TIP3    H220665   3.959   6.468   2.774
 6901TIP3   OH220666   5.790   1.463   0.060
 6901TIP3    H120667   5.803   1.423  -0.026
 6901TIP3    H220668   5.796   1.557   0.042
 6902TIP3   OH220669   3.971   2.927   4.139
 6902TIP3    H120670   3.962   2.988   4.212
 6902TIP3    H220671   3.977   2.983   4.061
 6903TIP3   OH220672   3.531   3.312   3.863
 6903TIP3    H120673   3.565   3.310   3.774
 6903TIP3    H220674   3.535   3.404   3.888
 6904TIP3   OH220675   2.070   5.766   1.562
 6904TIP3    H120676   2.061   5.692   1.621
 6904TIP3    H220677   2.117   5.832   1.613
 6905TIP3   OH220678   4.734   3.695   5.346
 6905TIP3    H120679   4.757   3.611   5.386
 6905TIP3    H220680   4.797   3.757   5.383
 6906TIP3   OH220681   1.230   3.199   1.462
 6906TIP3    H120682   1.279   3.134   1.513
 6906TIP3    H220683   1.276   3.206   1.379
 6907TIP3   OH220684   2.470   6.002   2.229
 6907TIP3    H120685   2.480   5.956   2.145
 6907TIP3    H220686   2.555   5.992   2.272
 6908TIP3   OH220687   3.066   6.558   1.302
 6908TIP3    H120688   2.991   6.593   1.350
 6908TIP3    H220689   3.134   6.625   1.313
 6909TIP3   OH220690   7.190   6.139   3.834
 6909TIP3    H120691   7.146   6.063   3.871
 6909TIP3    H220692   7.126   6.210   3.843
 6910TIP3   OH220693   7.187   6.571   1.035
 6910TIP3    H120694   7.205   6.483   1.068
 6910TIP3    H220695   7.116   6.604   1.091
 6911TIP3   OH220696   2.635   3.644   2.309
 6911TIP3    H120697   2.540   3.641   2.302
 6911TIP3    H220698   2.652   3.623   2.401
 6912TIP3   OH220699   1.228   5.658   1.594
 6912TIP3    H120700   1.141   5.622   1.578
 6912TIP3    H220701   1.263   5.605   1.667
 6913TIP3   OH220702   6.242   6.801   0.072
 6913TIP3    H120703   6.267   6.840  -0.011
 6913TIP3    H220704   6.271   6.710   0.064
 6914TIP3   OH220705   4.227   0.745   1.325
 6914TIP3    H120706   4.159   0.812   1.330
 6914TIP3    H220707   4.189   0.679   1.266
 6915TIP3   OH220708   6.508   2.157   1.128
 6915TIP3    H120709   6.444   2.227   1.112
 6915TIP3    H220710   6.563   2.157   1.049
 6916TIP3   OH220711   2.166   3.693   2.197
 6916TIP3    H120712   2.139   3.764   2.140
 6916TIP3    H220713   2.092   3.678   2.255
 6917TIP3   OH220714   0.050   5.316   1.536
 6917TIP3    H120715  -0.045   5.321   1.544
 6917TIP3    H220716   0.067   5.336   1.444
 6918TIP3   OH220717   5.748   2.978   5.217
 6918TIP3    H120718   5.792   2.963   5.301
 6918TIP3    H220719   5.682   3.044   5.237
 6919TIP3   OH220720   5.764   2.641   3.592
 6919TIP3    H120721   5.824   2.637   3.518
 6919TIP3    H220722   5.721   2.727   3.583
 6920TIP3   OH220723   5.559   2.602   2.331
 6920TIP3    H120724   5.541   2.694   2.316
 6920TIP3    H220725   5.558   2.564   2.243
 6921TIP3   OH220726   3.951   5.120   1.384
 6921TIP3    H120727   3.866   5.162   1.388
 6921TIP3    H220728   3.954   5.080   1.297
 6922TIP3   OH220729   0.362   3.479   0.029
 6922TIP3    H120730   0.355   3.535   0.107
 6922TIP3    H220731   0.323   3.531  -0.041
 6923TIP3   OH220732   0.093   2.928   4.960
 6923TIP3    H120733   0.153   2.854   4.952
 6923TIP3    H220734   0.120   2.971   5.041
 6924TIP3   OH220735   6.221   3.425   4.791
 6924TIP3    H120736   6.291   3.480   4.826
 6924TIP3    H220737   6.234   3.340   4.832
 6925TIP3   OH220738   1.900   0.098   4.521
 6925TIP3    H120739   1.813   0.134   4.506
 6925TIP3    H220740   1.885   0.007   4.547
 6926TIP3   OH220741   6.429   3.764   4.284
 6926TIP3    H120742   6.498   3.741   4.221
 6926TIP3    H220743   6.354   3.786   4.229
 6927TIP3   OH220744   1.758   5.724   4.507
 6927TIP3    H120745   1.779   5.720   4.413
 6927TIP3    H220746   1.701   5.800   4.515
 6928TIP3   OH220747   0.600   5.819   1.168
 6928TIP3    H120748   0.665   5.763   1.210
 6928TIP3    H220749   0.650   5.875   1.109
 6929TIP3   OH220750   2.234   6.055   1.954
 6929TIP3    H120751   2.153   6.063   2.004
 6929TIP3    H220752   2.279   6.139   1.965
 6930TIP3   OH220753   1.818   5.803   4.853
 6930TIP3    H120754   1.755   5.733   4.832
 6930TIP3    H220755   1.902   5.769   4.822
 6931TIP3   OH220756   5.556   1.941   2.111
 6931TIP3    H120757   5.541   1.894   2.029
 6931TIP3    H220758   5.498   1.899   2.174
 6932TIP3   OH220759   3.076   2.279   0.749
 6932TIP3    H120760   2.995   2.256   0.702
 6932TIP3    H220761   3.105   2.359   0.708
 6933TIP3   OH220762   6.316   2.371   0.750
 6933TIP3    H120763   6.277   2.387   0.664
 6933TIP3    H220764   6.333   2.277   0.751
 6934TIP3   OH220765   2.928   0.555   2.689
 6934TIP3    H120766   2.943   0.564   2.595
 6934TIP3    H220767   3.013   0.528   2.724
 6935TIP3   OH220768   3.290   4.226   4.234
 6935TIP3    H120769   3.278   4.132   4.221
 6935TIP3    H220770   3.383   4.235   4.258
 6936TIP3   OH220771   3.820   3.577   0.070
 6936TIP3    H120772   3.725   3.584   0.084
 6936TIP3    H220773   3.858   3.621   0.146
 6937TIP3   OH220774   0.896   1.507   0.681
 6937TIP3    H120775   0.819   1.458   0.653
 6937TIP3    H220776   0.864   1.595   0.698
 6938TIP3   OH220777   6.482   0.993   2.637
 6938TIP3    H120778   6.407   0.936   2.623
 6938TIP3    H220779   6.463   1.038   2.719
 6939TIP3   OH220780   0.020   6.523   1.426
 6939TIP3    H120781  -0.028   6.476   1.358
 6939TIP3    H220782   0.112   6.502   1.408
 6940TIP3   OH220783   3.566   2.281   4.564
 6940TIP3    H120784   3.647   2.306   4.608
 6940TIP3    H220785   3.548   2.353   4.504
 6941TIP3   OH220786   0.913   3.702   0.455
 6941TIP3    H120787   0.900   3.710   0.549
 6941TIP3    H220788   0.871   3.618   0.432
 6942TIP3   OH220789   4.058   5.641   2.544
 6942TIP3    H120790   4.135   5.694   2.565
 6942TIP3    H220791   4.033   5.669   2.456
 6943TIP3   OH220792   3.278   4.670   0.053
 6943TIP3    H120793   3.321   4.754   0.071
 6943TIP3    H220794   3.334   4.628  -0.013
 6944TIP3   OH220795   5.876   4.989   1.960
 6944TIP3    H120796   5.853   4.917   2.019
 6944TIP3    H220797   5.971   4.997   1.969
 6945TIP3   OH220798   4.628   0.071   1.652
 6945TIP3    H120799   4.702   0.098   1.597
 6945TIP3    H220800   4.571   0.148   1.654
 6946TIP3   OH220801   6.962   2.213   2.362
 6946TIP3    H120802   6.935   2.303   2.384
 6946TIP3    H220803   7.057   2.217   2.361
 6947TIP3   OH220804   5.666   3.054   1.950
 6947TIP3    H120805   5.702   2.972   1.984
 6947TIP3    H220806   5.740   3.114   1.949
 6948TIP3   OH220807   3.228   4.149   0.257
 6948TIP3    H120808   3.245   4.115   0.344
 6948TIP3    H220809   3.158   4.214   0.270
 6949TIP3   OH220810   5.976   0.553   5.654
 6949TIP3    H120811   5.888   0.576   5.623
 6949TIP3    H220812   6.000   0.477   5.603
 6950TIP3   OH220813   6.998   2.722   0.151
 6950TIP3    H120814   7.029   2.808   0.182
 6950TIP3    H220815   7.026   2.719   0.060
 6951TIP3   OH220816   2.092   4.413   4.673
 6951TIP3    H120817   2.068   4.500   4.706
 6951TIP3    H220818   2.124   4.367   4.750
 6952TIP3   OH220819   1.516   3.633   0.523
 6952TIP3    H120820   1.589   3.673   0.475
 6952TIP3    H220821   1.535   3.539   0.522
 6953TIP3   OH220822   4.164   6.277   2.862
 6953TIP3    H120823   4.253   6.245   2.851
 6953TIP3    H220824   4.167   6.368   2.832
 6954TIP3   OH220825   4.007   5.003   2.162
 6954TIP3    H120826   4.000   4.960   2.077
 6954TIP3    H220827   3.917   5.025   2.185
 6955TIP3   OH220828   1.414   0.228   5.578
 6955TIP3    H120829   1.329   0.271   5.580
 6955TIP3    H220830   1.411   0.172   5.500
 6956TIP3   OH220831   3.860   3.702   3.698
 6956TIP3    H120832   3.850   3.612   3.730
 6956TIP3    H220833   3.930   3.739   3.752
 6957TIP3   OH220834   0.260   5.051   4.039
 6957TIP3    H120835   0.210   5.009   3.970
 6957TIP3    H220836   0.217   5.136   4.051
 6958TIP3   OH220837   5.576   0.834   3.728
 6958TIP3    H120838   5.497   0.781   3.720
 6958TIP3    H220839   5.646   0.770   3.739
 6959TIP3   OH220840   0.255   4.699   1.519
 6959TIP3    H120841   0.319   4.764   1.546
 6959TIP3    H220842   0.170   4.740   1.535
 6960TIP3   OH220843   1.851   1.033   3.567
 6960TIP3    H120844   1.779   1.080   3.525
 6960TIP3    H220845   1.828   1.031   3.660
 6961TIP3   OH220846   6.531   2.515   4.567
 6961TIP3    H120847   6.615   2.493   4.526
 6961TIP3    H220848   6.469   2.452   4.531
 6962TIP3   OH220849   4.872   2.293   3.757
 6962TIP3    H120850   4.861   2.361   3.690
 6962TIP3    H220851   4.955   2.315   3.800
 6963TIP3   OH220852   2.875   6.074   5.785
 6963TIP3    H120853   2.790   6.118   5.789
 6963TIP3    H220854   2.909   6.097   5.699
 6964TIP3   OH220855   4.487   4.925   2.289
 6964TIP3    H120856   4.510   4.935   2.381
 6964TIP3    H220857   4.570   4.929   2.243
 6965TIP3   OH220858   1.074   4.877   4.393
 6965TIP3    H120859   1.137   4.947   4.406
 6965TIP3    H220860   1.112   4.822   4.324
 6966TIP3   OH220861   5.533   1.430   4.087
 6966TIP3    H120862   5.515   1.413   3.995
 6966TIP3    H220863   5.580   1.513   4.088
 6967TIP3   OH220864   0.915   5.702   3.469
 6967TIP3    H120865   0.861   5.674   3.395
 6967TIP3    H220866   0.888   5.644   3.541
 6968TIP3   OH220867   5.832   3.242   4.669
 6968TIP3    H120868   5.755   3.290   4.638
 6968TIP3    H220869   5.883   3.307   4.719
 6969TIP3   OH220870   5.122   0.715   4.723
 6969TIP3    H120871   5.092   0.780   4.658
 6969TIP3    H220872   5.075   0.635   4.701
 6970TIP3   OH220873   5.500   2.891   3.415
 6970TIP3    H120874   5.518   2.840   3.493
 6970TIP3    H220875   5.512   2.982   3.442
 6971TIP3   OH220876   0.806   6.228   2.970
 6971TIP3    H120877   0.743   6.183   2.914
 6971TIP3    H220878   0.828   6.164   3.038
 6972TIP3   OH220879   3.557   2.449   4.341
 6972TIP3    H120880   3.553   2.545   4.339
 6972TIP3    H220881   3.541   2.423   4.251
 6973TIP3   OH220882   3.132   5.217   2.516
 6973TIP3    H120883   3.148   5.158   2.442
 6973TIP3    H220884   3.214   5.216   2.565
 6974TIP3   OH220885   2.498   2.436   3.247
 6974TIP3    H120886   2.421   2.427   3.191
 6974TIP3    H220887   2.469   2.490   3.320
 6975TIP3   OH220888   6.915   5.827   5.221
 6975TIP3    H120889   6.970   5.856   5.294
 6975TIP3    H220890   6.936   5.734   5.211
 6976TIP3   OH220891   0.529   5.362   3.396
 6976TIP3    H120892   0.603   5.302   3.408
 6976TIP3    H220893   0.568   5.449   3.401
 6977TIP3   OH220894   1.893   5.457   1.503
 6977TIP3    H120895   1.935   5.386   1.551
 6977TIP3    H220896   1.859   5.516   1.570
 6978TIP3   OH220897   1.960   0.363   1.437
 6978TIP3    H120898   1.989   0.305   1.508
 6978TIP3    H220899   1.883   0.319   1.400
 6979TIP3   OH220900   1.931   4.769   1.793
 6979TIP3    H120901   2.022   4.775   1.763
 6979TIP3    H220902   1.881   4.752   1.713
 6980TIP3   OH220903   1.881   3.277   2.579
 6980TIP3    H120904   1.917   3.345   2.636
 6980TIP3    H220905   1.908   3.304   2.491
 6981TIP3   OH220906   0.222   2.490   4.736
 6981TIP3    H120907   0.135   2.508   4.772
 6981TIP3    H220908   0.224   2.394   4.728
 6982TIP3   OH220909   6.766   3.654   2.836
 6982TIP3    H120910   6.838   3.593   2.822
 6982TIP3    H220911   6.808   3.740   2.837
 6983TIP3   OH220912   6.036   0.995   3.214
 6983TIP3    H120913   5.977   0.927   3.181
 6983TIP3    H220914   5.979   1.069   3.234
 6984TIP3   OH220915   5.822   0.684   3.386
 6984TIP3    H120916   5.917   0.677   3.400
 6984TIP3    H220917   5.793   0.595   3.370
 6985TIP3   OH220918   4.733   4.579   3.517
 6985TIP3    H120919   4.657   4.601   3.462
 6985TIP3    H220920   4.722   4.633   3.595
 6986TIP3   OH220921   1.933   5.540   4.458
 6986TIP3    H120922   2.019   5.510   4.429
 6986TIP3    H220923   1.909   5.609   4.396
 6987TIP3   OH220924   3.555   0.671   1.516
 6987TIP3    H120925   3.520   0.587   1.489
 6987TIP3    H220926   3.510   0.735   1.461
 6988TIP3   OH220927   0.654   4.920   1.466
 6988TIP3    H120928   0.657   4.832   1.503
 6988TIP3    H220929   0.637   4.907   1.373
 6989TIP3   OH220930   1.768   1.054   3.829
 6989TIP3    H120931   1.703   1.121   3.852
 6989TIP3    H220932   1.845   1.077   3.882
 6990TIP3   OH220933   1.226   6.777   3.103
 6990TIP3    H120934   1.191   6.785   3.014
 6990TIP3    H220935   1.179   6.843   3.154
 6991TIP3   OH220936   5.453   2.732   3.169
 6991TIP3    H120937   5.542   2.739   3.135
 6991TIP3    H220938   5.460   2.763   3.260
 6992TIP3   OH220939   0.658   4.518   3.453
 6992TIP3    H120940   0.731   4.514   3.514
 6992TIP3    H220941   0.695   4.492   3.368
 6993TIP3   OH220942   4.507   6.483   5.188
 6993TIP3    H120943   4.559   6.419   5.237
 6993TIP3    H220944   4.552   6.490   5.104
 6994TIP3   OH220945   4.461   3.150   5.800
 6994TIP3    H120946   4.482   3.244   5.801
 6994TIP3    H220947   4.385   3.143   5.742
 6995TIP3   OH220948   3.663   2.048   1.058
 6995TIP3    H120949   3.681   1.954   1.071
 6995TIP3    H220950   3.571   2.052   1.032
 6996TIP3   OH220951   0.854   0.530   4.527
 6996TIP3    H120952   0.896   0.597   4.473
 6996TIP3    H220953   0.884   0.548   4.616
 6997TIP3   OH220954   3.627   3.853   0.025
 6997TIP3    H120955   3.593   3.764   0.035
 6997TIP3    H220956   3.714   3.850   0.066
 6998TIP3   OH220957   0.954   5.308   2.118
 6998TIP3    H120958   0.872   5.296   2.166
 6998TIP3    H220959   1.016   5.250   2.162
 6999TIP3   OH220960   4.743   1.118   3.353
 6999TIP3    H120961   4.690   1.141   3.429
 6999TIP3    H220962   4.809   1.058   3.386
 7000TIP3   OH220963   6.765   1.961   0.919
 7000TIP3    H120964   6.855   1.981   0.893
 7000TIP3    H220965   6.717   2.042   0.900
 7001TIP3   OH220966   1.319   4.658   5.782
 7001TIP3    H120967   1.364   4.737   5.812
 7001TIP3    H220968   1.387   4.605   5.740
 7002TIP3   OH220969   0.349   5.224   1.093
 7002TIP3    H120970   0.401   5.164   1.040
 7002TIP3    H220971   0.258   5.205   1.068
 7003TIP3   OH220972   5.237   0.963   3.473
 7003TIP3    H120973   5.201   1.009   3.397
 7003TIP3    H220974   5.285   0.889   3.435
 7004TIP3   OH220975   4.165   6.280   2.277
 7004TIP3    H120976   4.086   6.326   2.251
 7004TIP3    H220977   4.220   6.348   2.317
 7005TIP3   OH220978   3.029   6.158   0.842
 7005TIP3    H120979   3.018   6.077   0.792
 7005TIP3    H220980   2.967   6.149   0.915
 7006TIP3   OH220981   2.503   6.790   4.386
 7006TIP3    H120982   2.500   6.704   4.344
 7006TIP3    H220983   2.586   6.827   4.358
 7007TIP3   OH220984   2.466   3.412   2.395
 7007TIP3    H120985   2.422   3.364   2.465
 7007TIP3    H220986   2.546   3.447   2.435
 7008TIP3   OH220987   6.869   2.088   4.050
 7008TIP3    H120988   6.925   2.165   4.063
 7008TIP3    H220989   6.844   2.062   4.139
 7009TIP3   OH220990   0.752   3.006   5.276
 7009TIP3    H120991   0.757   3.101   5.286
 7009TIP3    H220992   0.658   2.988   5.271
 7010TIP3   OH220993   2.412   2.207   4.294
 7010TIP3    H120994   2.424   2.128   4.241
 7010TIP3    H220995   2.478   2.268   4.262
 7011TIP3   OH220996   5.889   5.879   3.570
 7011TIP3    H120997   5.945   5.859   3.645
 7011TIP3    H220998   5.939   5.847   3.494
 7012TIP3   OH220999   3.542   0.425   5.111
 7012TIP3    H121000   3.620   0.388   5.069
 7012TIP3    H221001   3.571   0.509   5.146
 7013TIP3   OH221002   3.528   3.837   2.588
 7013TIP3    H121003   3.546   3.929   2.566
 7013TIP3    H221004   3.604   3.789   2.555
 7014TIP3   OH221005   4.648   2.260   3.890
 7014TIP3    H121006   4.721   2.273   3.830
 7014TIP3    H221007   4.636   2.166   3.893
 7015TIP3   OH221008   1.153   4.596   3.416
 7015TIP3    H121009   1.126   4.641   3.496
 7015TIP3    H221010   1.236   4.554   3.438
 7016TIP3   OH221011   5.871   2.825   4.065
 7016TIP3    H121012   5.916   2.781   4.137
 7016TIP3    H221013   5.882   2.766   3.990
 7017TIP3   OH221014   4.250   0.286   3.716
 7017TIP3    H121015   4.285   0.220   3.656
 7017TIP3    H221016   4.302   0.364   3.699
 7018TIP3   OH221017   6.411   4.651   1.232
 7018TIP3    H121018   6.506   4.658   1.223
 7018TIP3    H221019   6.380   4.741   1.223
 7019TIP3   OH221020   0.065   4.405   1.258
 7019TIP3    H121021   0.068   4.311   1.237
 7019TIP3    H221022   0.069   4.408   1.354
 7020TIP3   OH221023   1.421   0.289   3.923
 7020TIP3    H121024   1.394   0.325   4.007
 7020TIP3    H221025   1.513   0.265   3.935
 7021TIP3   OH221026   4.989   1.470   0.997
 7021TIP3    H121027   5.080   1.458   0.969
 7021TIP3    H221028   4.957   1.382   1.014
 7022TIP3   OH221029   3.010   6.624   1.022
 7022TIP3    H121030   2.981   6.707   1.060
 7022TIP3    H221031   3.033   6.570   1.098
 7023TIP3   OH221032   0.030   1.143   3.906
 7023TIP3    H121033   0.101   1.167   3.966
 7023TIP3    H221034   0.014   1.222   3.855
 7024TIP3   OH221035   2.689   1.332   1.487
 7024TIP3    H121036   2.710   1.239   1.491
 7024TIP3    H221037   2.774   1.375   1.477
 7025TIP3   OH221038   4.370   1.031   2.738
 7025TIP3    H121039   4.342   1.108   2.788
 7025TIP3    H221040   4.466   1.033   2.742
 7026TIP3   OH221041   5.747   0.920   1.789
 7026TIP3    H121042   5.771   0.828   1.801
 7026TIP3    H221043   5.793   0.947   1.709
 7027TIP3   OH221044   5.099   0.854   4.455
 7027TIP3    H121045   5.181   0.891   4.421
 7027TIP3    H221046   5.032   0.885   4.394
 7028TIP3   OH221047   1.045   1.804   4.847
 7028TIP3    H121048   1.019   1.799   4.939
 7028TIP3    H221049   0.983   1.865   4.808
 7029TIP3   OH221050   3.735   2.040   0.394
 7029TIP3    H121051   3.679   1.966   0.415
 7029TIP3    H221052   3.677   2.116   0.398
 7030TIP3   OH221053   6.144   3.883   1.493
 7030TIP3    H121054   6.168   3.812   1.554
 7030TIP3    H221055   6.226   3.929   1.477
 7031TIP3   OH221056   3.476   0.293   0.683
 7031TIP3    H121057   3.540   0.278   0.752
 7031TIP3    H221058   3.396   0.250   0.714
 7032TIP3   OH221059   6.625   0.275   1.958
 7032TIP3    H121060   6.642   0.273   2.052
 7032TIP3    H221061   6.707   0.249   1.917
 7033TIP3   OH221062   2.501   4.225   3.246
 7033TIP3    H121063   2.543   4.246   3.163
 7033TIP3    H221064   2.549   4.277   3.311
 7034TIP3   OH221065   6.009   0.759   4.377
 7034TIP3    H121066   5.972   0.808   4.303
 7034TIP3    H221067   6.040   0.827   4.437
 7035TIP3   OH221068   1.018   0.376   5.011
 7035TIP3    H121069   1.050   0.428   5.084
 7035TIP3    H221070   0.933   0.344   5.040
 7036TIP3   OH221071   5.544   2.554   0.381
 7036TIP3    H121072   5.604   2.507   0.323
 7036TIP3    H221073   5.469   2.576   0.326
 7037TIP3   OH221074   7.039   3.725   1.370
 7037TIP3    H121075   7.104   3.756   1.306
 7037TIP3    H221076   6.955   3.744   1.329
 7038TIP3   OH221077   1.153   4.990   0.658
 7038TIP3    H121078   1.239   4.994   0.618
 7038TIP3    H221079   1.092   5.010   0.587
 7039TIP3   OH221080   2.488   5.827   2.024
 7039TIP3    H121081   2.397   5.847   2.006
 7039TIP3    H221082   2.493   5.731   2.021
 7040TIP3   OH221083   4.667   3.284   4.030
 7040TIP3    H121084   4.759   3.266   4.012
 7040TIP3    H221085   4.620   3.240   3.959
 7041TIP3   OH221086   5.650   1.514   4.455
 7041TIP3    H121087   5.671   1.590   4.510
 7041TIP3    H221088   5.619   1.448   4.517
 7042TIP3   OH221089   6.778   0.604   0.778
 7042TIP3    H121090   6.755   0.641   0.863
 7042TIP3    H221091   6.746   0.513   0.783
 7043TIP3   OH221092   3.153   2.024   1.450
 7043TIP3    H121093   3.113   2.100   1.407
 7043TIP3    H221094   3.086   1.955   1.443
 7044TIP3   OH221095   6.072   4.098   4.227
 7044TIP3    H121096   6.042   4.117   4.138
 7044TIP3    H221097   5.993   4.105   4.281
 7045TIP3   OH221098   4.415   3.118   0.866
 7045TIP3    H121099   4.465   3.196   0.891
 7045TIP3    H221100   4.352   3.150   0.800
 7046TIP3   OH221101   4.907   1.325   4.392
 7046TIP3    H121102   4.988   1.356   4.434
 7046TIP3    H221103   4.858   1.282   4.462
 7047TIP3   OH221104   7.009   2.771   3.850
 7047TIP3    H121105   6.940   2.712   3.820
 7047TIP3    H221106   6.982   2.796   3.938
 7048TIP3   OH221107   0.121   1.685   3.207
 7048TIP3    H121108   0.125   1.591   3.223
 7048TIP3    H221109   0.035   1.711   3.239
 7049TIP3   OH221110   3.125   4.408   3.787
 7049TIP3    H121111   3.043   4.450   3.763
 7049TIP3    H221112   3.165   4.384   3.703
 7050TIP3   OH221113   6.988   1.662   4.667
 7050TIP3    H121114   7.045   1.585   4.667
 7050TIP3    H221115   7.012   1.709   4.587
 7051TIP3   OH221116   0.927   2.788   0.673
 7051TIP3    H121117   0.991   2.808   0.742
 7051TIP3    H221118   0.939   2.857   0.608
 7052TIP3   OH221119   3.728   1.030   3.401
 7052TIP3    H121120   3.697   0.970   3.332
 7052TIP3    H221121   3.704   0.985   3.482
 7053TIP3   OH221122   0.939   1.267   1.406
 7053TIP3    H121123   0.903   1.314   1.331
 7053TIP3    H221124   0.993   1.198   1.367
 7054TIP3   OH221125   0.104   0.612   5.800
 7054TIP3    H121126   0.018   0.651   5.784
 7054TIP3    H221127   0.165   0.670   5.754
 7055TIP3   OH221128   0.913   3.359   0.610
 7055TIP3    H121129   0.967   3.435   0.590
 7055TIP3    H221130   0.853   3.389   0.679
 7056TIP3   OH221131   3.735   4.765   5.330
 7056TIP3    H121132   3.766   4.822   5.259
 7056TIP3    H221133   3.660   4.719   5.292
 7057TIP3   OH221134   3.920   6.306   1.974
 7057TIP3    H121135   3.873   6.376   2.019
 7057TIP3    H221136   4.011   6.336   1.972
 7058TIP3   OH221137   6.331   0.288   2.742
 7058TIP3    H121138   6.270   0.361   2.735
 7058TIP3    H221139   6.416   0.329   2.758
 7059TIP3   OH221140   4.854   2.058   5.337
 7059TIP3    H121141   4.929   2.022   5.384
 7059TIP3    H221142   4.790   1.987   5.336
 7060TIP3   OH221143   4.625   6.373   0.099
 7060TIP3    H121144   4.719   6.354   0.104
 7060TIP3    H221145   4.585   6.290   0.073
 7061TIP3   OH221146   1.605   4.368   0.296
 7061TIP3    H121147   1.512   4.379   0.277
 7061TIP3    H221148   1.606   4.326   0.382
 7062TIP3   OH221149   6.711   0.794   0.577
 7062TIP3    H121150   6.738   0.729   0.641
 7062TIP3    H221151   6.726   0.878   0.620
 7063TIP3   OH221152   1.220   4.179   0.384
 7063TIP3    H121153   1.251   4.119   0.316
 7063TIP3    H221154   1.238   4.266   0.348
 7064TIP3   OH221155   5.215   6.211   2.120
 7064TIP3    H121156   5.308   6.194   2.131
 7064TIP3    H221157   5.195   6.181   2.032
 7065TIP3   OH221158   3.888   4.259   0.241
 7065TIP3    H121159   3.906   4.166   0.235
 7065TIP3    H221160   3.797   4.265   0.268
 7066TIP3   OH221161   5.204   5.573   5.397
 7066TIP3    H121162   5.156   5.493   5.375
 7066TIP3    H221163   5.279   5.573   5.337
 7067TIP3   OH221164   4.510   0.340   2.081
 7067TIP3    H121165   4.456   0.405   2.036
 7067TIP3    H221166   4.587   0.390   2.109
 7068TIP3   OH221167   6.653   5.349   0.612
 7068TIP3    H121168   6.641   5.255   0.600
 7068TIP3    H221169   6.676   5.382   0.525
 7069TIP3   OH221170   3.233   5.215   4.849
 7069TIP3    H121171   3.232   5.150   4.919
 7069TIP3    H221172   3.294   5.282   4.879
 7070TIP3   OH221173   5.822   0.571   4.307
 7070TIP3    H121174   5.835   0.593   4.215
 7070TIP3    H221175   5.884   0.627   4.354
 7071TIP3   OH221176   2.929   6.189   0.397
 7071TIP3    H121177   2.993   6.203   0.466
 7071TIP3    H221178   2.969   6.122   0.341
 7072TIP3   OH221179   4.097   2.777   1.171
 7072TIP3    H121180   4.024   2.753   1.114
 7072TIP3    H221181   4.064   2.760   1.260
 7073TIP3   OH221182   6.080   0.961   4.567
 7073TIP3    H121183   6.174   0.967   4.583
 7073TIP3    H221184   6.044   1.043   4.600
 7074TIP3   OH221185   1.441   1.491   5.125
 7074TIP3    H121186   1.495   1.493   5.046
 7074TIP3    H221187   1.352   1.508   5.095
 7075TIP3   OH221188   1.442   4.786   3.492
 7075TIP3    H121189   1.428   4.694   3.469
 7075TIP3    H221190   1.533   4.790   3.521
 7076TIP3   OH221191   2.144   1.987   4.939
 7076TIP3    H121192   2.135   2.039   5.019
 7076TIP3    H221193   2.234   2.002   4.910
 7077TIP3   OH221194   1.816   5.383   5.707
 7077TIP3    H121195   1.751   5.359   5.641
 7077TIP3    H221196   1.879   5.311   5.706
 7078TIP3   OH221197   1.309   0.065   0.897
 7078TIP3    H121198   1.358  -0.016   0.882
 7078TIP3    H221199   1.318   0.115   0.816
 7079TIP3   OH221200   3.914   3.915   4.793
 7079TIP3    H121201   3.917   3.890   4.701
 7079TIP3    H221202   4.000   3.889   4.828
 7080TIP3   OH221203   5.241   0.614   4.273
 7080TIP3    H121204   5.284   0.536   4.238
 7080TIP3    H221205   5.159   0.620   4.226
 7081TIP3   OH221206   0.179   3.519   5.243
 7081TIP3    H121207   0.238   3.445   5.228
 7081TIP3    H221208   0.099   3.495   5.197
 7082TIP3   OH221209   1.085   5.943   5.221
 7082TIP3    H121210   1.112   5.899   5.141
 7082TIP3    H221211   0.995   5.914   5.236
 7083TIP3   OH221212   4.377   3.409   4.317
 7083TIP3    H121213   4.455   3.464   4.309
 7083TIP3    H221214   4.353   3.388   4.226
 7084TIP3   OH221215   5.369   3.606   1.631
 7084TIP3    H121216   5.325   3.691   1.642
 7084TIP3    H221217   5.458   3.621   1.662
 7085TIP3   OH221218   4.371   2.965   4.006
 7085TIP3    H121219   4.348   3.044   4.055
 7085TIP3    H221220   4.407   2.906   4.071
 7086TIP3   OH221221   5.671   4.508   0.050
 7086TIP3    H121222   5.744   4.570   0.052
 7086TIP3    H221223   5.594   4.561   0.031
 7087TIP3   OH221224   4.780   3.943   2.886
 7087TIP3    H121225   4.736   3.947   2.801
 7087TIP3    H221226   4.785   3.849   2.906
 7088TIP3   OH221227   1.696   1.038   2.555
 7088TIP3    H121228   1.606   1.023   2.527
 7088TIP3    H221229   1.747   1.036   2.474
 7089TIP3   OH221230   0.821   4.708   3.862
 7089TIP3    H121231   0.916   4.692   3.865
 7089TIP3    H221232   0.785   4.627   3.826
 7090TIP3   OH221233   4.701   0.882   3.667
 7090TIP3    H121234   4.671   0.854   3.754
 7090TIP3    H221235   4.620   0.897   3.618
 7091TIP3   OH221236   3.480   0.060   1.306
 7091TIP3    H121237   3.549   0.114   1.343
 7091TIP3    H221238   3.490   0.069   1.211
 7092TIP3   OH221239   1.834   1.753   0.629
 7092TIP3    H121240   1.798   1.708   0.705
 7092TIP3    H221241   1.848   1.843   0.659
 7093TIP3   OH221242   3.009   4.347   1.152
 7093TIP3    H121243   2.984   4.340   1.060
 7093TIP3    H221244   2.926   4.340   1.200
 7094TIP3   OH221245   5.194   3.591   2.217
 7094TIP3    H121246   5.206   3.613   2.125
 7094TIP3    H221247   5.211   3.497   2.222
 7095TIP3   OH221248   3.722   6.376   2.547
 7095TIP3    H121249   3.757   6.300   2.499
 7095TIP3    H221250   3.759   6.367   2.635
 7096TIP3   OH221251   5.180   3.617   3.402
 7096TIP3    H121252   5.231   3.576   3.472
 7096TIP3    H221253   5.142   3.543   3.355
 7097TIP3   OH221254   6.017   5.426   5.863
 7097TIP3    H121255   6.036   5.403   5.772
 7097TIP3    H221256   5.986   5.344   5.903
 7098TIP3   OH221257   6.442   4.011   4.756
 7098TIP3    H121258   6.436   3.958   4.676
 7098TIP3    H221259   6.533   4.004   4.782
 7099TIP3   OH221260   1.740   2.062   2.359
 7099TIP3    H121261   1.697   2.018   2.285
 7099TIP3    H221262   1.673   2.120   2.395
 7100TIP3   OH221263   1.127   2.066   5.612
 7100TIP3    H121264   1.063   2.116   5.562
 7100TIP3    H221265   1.155   1.996   5.553
 7101TIP3   OH221266   1.393   0.755   0.835
 7101TIP3    H121267   1.303   0.740   0.862
 7101TIP3    H221268   1.399   0.850   0.821
 7102TIP3   OH221269   6.210   0.202   1.453
 7102TIP3    H121270   6.231   0.175   1.542
 7102TIP3    H221271   6.290   0.186   1.403
 7103TIP3   OH221272   6.357   6.474   4.717
 7103TIP3    H121273   6.366   6.569   4.723
 7103TIP3    H221274   6.446   6.441   4.732
 7104TIP3   OH221275   6.594   6.049   2.653
 7104TIP3    H121276   6.560   6.113   2.591
 7104TIP3    H221277   6.544   5.969   2.635
 7105TIP3   OH221278   4.443   2.341   1.571
 7105TIP3    H121279   4.513   2.398   1.600
 7105TIP3    H221280   4.418   2.374   1.485
 7106TIP3   OH221281   3.922   3.665   1.431
 7106TIP3    H121282   3.842   3.613   1.418
 7106TIP3    H221283   3.895   3.734   1.492
 7107TIP3   OH221284   0.035   3.960   2.994
 7107TIP3    H121285   0.026   3.894   2.925
 7107TIP3    H221286   0.128   3.957   3.018
 7108TIP3   OH221287   1.160   0.382   2.472
 7108TIP3    H121288   1.136   0.289   2.481
 7108TIP3    H221289   1.167   0.414   2.562
 7109TIP3   OH221290   0.032   6.074   4.519
 7109TIP3    H121291   0.016   6.082   4.613
 7109TIP3    H221292  -0.005   5.989   4.495
 7110TIP3   OH221293   4.410   4.382   0.655
 7110TIP3    H121294   4.413   4.343   0.568
 7110TIP3    H221295   4.318   4.382   0.679
 7111TIP3   OH221296   5.334   3.973   5.744
 7111TIP3    H121297   5.421   3.978   5.704
 7111TIP3    H221298   5.344   4.018   5.828
 7112TIP3   OH221299   5.201   5.438   2.252
 7112TIP3    H121300   5.183   5.517   2.200
 7112TIP3    H221301   5.191   5.366   2.190
 7113TIP3   OH221302   1.201   5.162   3.430
 7113TIP3    H121303   1.286   5.120   3.421
 7113TIP3    H221304   1.138   5.097   3.399
 7114TIP3   OH221305   0.748   4.306   1.732
 7114TIP3    H121306   0.699   4.370   1.681
 7114TIP3    H221307   0.702   4.302   1.816
 7115TIP3   OH221308   0.582   0.589   0.096
 7115TIP3    H121309   0.639   0.541   0.035
 7115TIP3    H221310   0.500   0.599   0.048
 7116TIP3   OH221311   2.028   5.203   5.654
 7116TIP3    H121312   1.984   5.118   5.649
 7116TIP3    H221313   2.108   5.191   5.602
 7117TIP3   OH221314   0.348   3.565   3.090
 7117TIP3    H121315   0.387   3.557   3.177
 7117TIP3    H221316   0.407   3.626   3.044
 7118TIP3   OH221317   4.422   1.864   4.587
 7118TIP3    H121318   4.392   1.827   4.670
 7118TIP3    H221319   4.383   1.952   4.584
 7119TIP3   OH221320   2.997   1.058   5.046
 7119TIP3    H121321   3.029   1.147   5.029
 7119TIP3    H221322   2.906   1.070   5.073
 7120TIP3   OH221323   2.574   2.986   1.916
 7120TIP3    H121324   2.638   3.054   1.897
 7120TIP3    H221325   2.603   2.910   1.866
 7121TIP3   OH221326   5.848   3.244   1.826
 7121TIP3    H121327   5.757   3.268   1.810
 7121TIP3    H221328   5.885   3.229   1.739
 7122TIP3   OH221329   6.384   4.748   4.037
 7122TIP3    H121330   6.455   4.759   4.100
 7122TIP3    H221331   6.318   4.812   4.063
 7123TIP3   OH221332   4.185   5.198   3.572
 7123TIP3    H121333   4.182   5.291   3.592
 7123TIP3    H221334   4.093   5.172   3.562
 7124TIP3   OH221335   3.872   0.109   4.677
 7124TIP3    H121336   3.893   0.165   4.603
 7124TIP3    H221337   3.952   0.060   4.694
 7125TIP3   OH221338   4.411   6.304   5.509
 7125TIP3    H121339   4.338   6.338   5.560
 7125TIP3    H221340   4.378   6.300   5.419
 7126TIP3   OH221341   7.213   1.538   0.599
 7126TIP3    H121342   7.160   1.472   0.645
 7126TIP3    H221343   7.176   1.540   0.510
 7127TIP3   OH221344   2.260   6.102   1.180
 7127TIP3    H121345   2.285   6.078   1.269
 7127TIP3    H221346   2.316   6.047   1.124
 7128TIP3   OH221347   5.391   1.008   5.369
 7128TIP3    H121348   5.320   1.050   5.418
 7128TIP3    H221349   5.394   1.056   5.286
 7129TIP3   OH221350   3.911   0.707   1.788
 7129TIP3    H121351   4.000   0.723   1.820
 7129TIP3    H221352   3.862   0.678   1.865
 7130TIP3   OH221353   2.123   4.485   0.106
 7130TIP3    H121354   2.185   4.518   0.041
 7130TIP3    H221355   2.041   4.531   0.086
 7131TIP3   OH221356   5.323   1.067   1.247
 7131TIP3    H121357   5.399   1.082   1.303
 7131TIP3    H221358   5.277   0.995   1.289
 7132TIP3   OH221359   4.175   6.055   2.619
 7132TIP3    H121360   4.254   6.100   2.648
 7132TIP3    H221361   4.183   5.967   2.656
 7133TIP3   OH221362   5.898   3.782   5.323
 7133TIP3    H121363   5.973   3.841   5.329
 7133TIP3    H221364   5.936   3.699   5.295
 7134TIP3   OH221365   0.830   3.727   0.721
 7134TIP3    H121366   0.904   3.709   0.778
 7134TIP3    H221367   0.798   3.812   0.749
 7135TIP3   OH221368   3.983   4.482   1.814
 7135TIP3    H121369   4.039   4.421   1.863
 7135TIP3    H221370   4.012   4.568   1.843
 7136TIP3   OH221371   1.972   1.552   1.735
 7136TIP3    H121372   1.946   1.507   1.655
 7136TIP3    H221373   2.068   1.545   1.736
 7137TIP3   OH221374   1.172   6.174   4.697
 7137TIP3    H121375   1.258   6.191   4.736
 7137TIP3    H221376   1.153   6.252   4.644
 7138TIP3   OH221377   3.217   2.507   1.818
 7138TIP3    H121378   3.182   2.420   1.836
 7138TIP3    H221379   3.308   2.492   1.792
 7139TIP3   OH221380   0.099   4.164   0.100
 7139TIP3    H121381   0.104   4.069   0.093
 7139TIP3    H221382   0.045   4.179   0.178
 7140TIP3   OH221383   4.992   0.953   3.275
 7140TIP3    H121384   5.005   0.859   3.285
 7140TIP3    H221385   4.975   0.984   3.364
 7141TIP3   OH221386   3.000   6.014   4.995
 7141TIP3    H121387   3.094   5.997   5.000
 7141TIP3    H221388   2.959   5.928   5.004
 7142TIP3   OH221389   6.805   4.379   4.809
 7142TIP3    H121390   6.721   4.421   4.787
 7142TIP3    H221391   6.795   4.352   4.900
 7143TIP3   OH221392   3.337   0.319   1.651
 7143TIP3    H121393   3.355   0.329   1.745
 7143TIP3    H221394   3.299   0.404   1.625
 7144TIP3   OH221395   3.376   3.213   4.430
 7144TIP3    H121396   3.304   3.211   4.367
 7144TIP3    H221397   3.398   3.306   4.438
 7145TIP3   OH221398   2.939   5.912   3.592
 7145TIP3    H121399   2.862   5.884   3.642
 7145TIP3    H221400   2.912   5.904   3.501
 7146TIP3   OH221401   3.856   2.022   5.141
 7146TIP3    H121402   3.892   1.967   5.211
 7146TIP3    H221403   3.762   2.006   5.145
 7147TIP3   OH221404   4.260   3.399   0.752
 7147TIP3    H121405   4.242   3.469   0.689
 7147TIP3    H221406   4.351   3.413   0.778
 7148TIP3   OH221407   6.291   0.063   1.046
 7148TIP3    H121408   6.358   0.025   1.103
 7148TIP3    H221409   6.209   0.024   1.076
 7149TIP3   OH221410   4.001   0.947   0.157
 7149TIP3    H121411   4.057   1.021   0.185
 7149TIP3    H221412   4.054   0.901   0.092
 7150TIP3   OH221413   1.119   6.172   2.898
 7150TIP3    H121414   1.053   6.124   2.948
 7150TIP3    H221415   1.080   6.257   2.882
 7151TIP3   OH221416   6.167   0.630   1.227
 7151TIP3    H121417   6.120   0.668   1.153
 7151TIP3    H221418   6.099   0.600   1.287
 7152TIP3   OH221419   2.603   4.206   1.042
 7152TIP3    H121420   2.518   4.205   0.998
 7152TIP3    H221421   2.602   4.286   1.095
 7153TIP3   OH221422   5.427   1.577   3.388
 7153TIP3    H121423   5.386   1.662   3.375
 7153TIP3    H221424   5.475   1.585   3.470
 7154TIP3   OH221425   5.009   2.803   3.747
 7154TIP3    H121426   4.950   2.744   3.700
 7154TIP3    H221427   5.053   2.852   3.678
 7155TIP3   OH221428   2.670   3.334   3.585
 7155TIP3    H121429   2.596   3.274   3.590
 7155TIP3    H221430   2.635   3.419   3.610
 7156TIP3   OH221431   2.133   1.545   4.698
 7156TIP3    H121432   2.075   1.564   4.624
 7156TIP3    H221433   2.124   1.621   4.755
 7157TIP3   OH221434   1.529   4.711   1.280
 7157TIP3    H121435   1.505   4.773   1.210
 7157TIP3    H221436   1.593   4.652   1.240
 7158TIP3   OH221437   6.491   5.588   1.805
 7158TIP3    H121438   6.453   5.661   1.854
 7158TIP3    H221439   6.429   5.516   1.818
 7159TIP3   OH221440   6.703   4.635   1.235
 7159TIP3    H121441   6.714   4.560   1.293
 7159TIP3    H221442   6.765   4.700   1.268
 7160TIP3   OH221443   5.635   6.072   1.830
 7160TIP3    H121444   5.595   6.058   1.745
 7160TIP3    H221445   5.698   6.000   1.839
 7161TIP3   OH221446   1.393   4.825   0.782
 7161TIP3    H121447   1.342   4.753   0.744
 7161TIP3    H221448   1.415   4.880   0.707
 7162TIP3   OH221449   0.996   1.249   5.223
 7162TIP3    H121450   0.964   1.233   5.134
 7162TIP3    H221451   0.981   1.343   5.237
 7163TIP3   OH221452   5.056   1.744   1.533
 7163TIP3    H121453   4.973   1.697   1.531
 7163TIP3    H221454   5.109   1.702   1.465
 7164TIP3   OH221455   6.585   2.461   0.796
 7164TIP3    H121456   6.621   2.521   0.731
 7164TIP3    H221457   6.497   2.442   0.765
 7165TIP3   OH221458   2.194   4.053   0.871
 7165TIP3    H121459   2.272   4.001   0.884
 7165TIP3    H221460   2.144   4.043   0.952
 7166TIP3   OH221461   2.120   4.647   2.562
 7166TIP3    H121462   2.036   4.683   2.533
 7166TIP3    H221463   2.185   4.697   2.513
 7167TIP3   OH221464   3.026   5.928   4.654
 7167TIP3    H121465   3.071   5.935   4.570
 7167TIP3    H221466   2.946   5.880   4.635
 7168TIP3   OH221467   6.861   6.497   0.423
 7168TIP3    H121468   6.769   6.477   0.409
 7168TIP3    H221469   6.898   6.503   0.335
 7169TIP3   OH221470   6.000   3.450   2.729
 7169TIP3    H121471   5.941   3.491   2.665
 7169TIP3    H221472   5.950   3.448   2.810
 7170TIP3   OH221473   5.904   2.540   0.382
 7170TIP3    H121474   5.827   2.488   0.359
 7170TIP3    H221475   5.976   2.477   0.382
 7171TIP3   OH221476   0.368   2.723   3.277
 7171TIP3    H121477   0.368   2.742   3.371
 7171TIP3    H221478   0.290   2.668   3.264
 7172TIP3   OH221479   0.605   2.477   3.497
 7172TIP3    H121480   0.645   2.391   3.508
 7172TIP3    H221481   0.589   2.485   3.402
 7173TIP3   OH221482   1.469   0.687   5.190
 7173TIP3    H121483   1.551   0.723   5.158
 7173TIP3    H221484   1.489   0.654   5.277
 7174TIP3   OH221485   4.752   2.783   5.118
 7174TIP3    H121486   4.748   2.864   5.170
 7174TIP3    H221487   4.757   2.713   5.183
 7175TIP3   OH221488   4.967   0.255   2.704
 7175TIP3    H121489   5.000   0.208   2.781
 7175TIP3    H221490   5.037   0.315   2.680
 7176TIP3   OH221491   1.203   4.170   3.548
 7176TIP3    H121492   1.234   4.197   3.461
 7176TIP3    H221493   1.220   4.076   3.552
 7177TIP3   OH221494   4.504   2.337   0.952
 7177TIP3    H121495   4.448   2.411   0.971
 7177TIP3    H221496   4.444   2.270   0.919
 7178TIP3   OH221497   4.855   5.964   3.974
 7178TIP3    H121498   4.818   5.883   3.938
 7178TIP3    H221499   4.851   5.951   4.069
 7179TIP3   OH221500   5.889   5.790   2.665
 7179TIP3    H121501   5.794   5.789   2.669
 7179TIP3    H221502   5.917   5.803   2.755
 7180TIP3   OH221503   4.788   5.918   5.034
 7180TIP3    H121504   4.882   5.931   5.050
 7180TIP3    H221505   4.748   5.923   5.121
 7181TIP3   OH221506   2.470   0.245   1.148
 7181TIP3    H121507   2.380   0.215   1.158
 7181TIP3    H221508   2.509   0.234   1.234
 7182TIP3   OH221509   1.274   5.846   5.661
 7182TIP3    H121510   1.271   5.940   5.643
 7182TIP3    H221511   1.243   5.805   5.580
 7183TIP3   OH221512   0.966   0.538   5.763
 7183TIP3    H121513   0.909   0.571   5.833
 7183TIP3    H221514   1.038   0.495   5.809
 7184TIP3   OH221515   0.219   0.641   2.264
 7184TIP3    H121516   0.161   0.577   2.306
 7184TIP3    H221517   0.235   0.706   2.333
 7185TIP3   OH221518   5.542   4.073   3.174
 7185TIP3    H121519   5.512   4.136   3.239
 7185TIP3    H221520   5.512   4.109   3.090
 7186TIP3   OH221521   2.722   6.240   3.528
 7186TIP3    H121522   2.711   6.301   3.600
 7186TIP3    H221523   2.635   6.233   3.489
 7187TIP3   OH221524   2.631   3.659   2.026
 7187TIP3    H121525   2.641   3.631   2.117
 7187TIP3    H221526   2.541   3.637   2.004
 7188TIP3   OH221527   0.666   3.473   1.317
 7188TIP3    H121528   0.645   3.406   1.252
 7188TIP3    H221529   0.761   3.465   1.330
 7189TIP3   OH221530   5.017   6.066   0.076
 7189TIP3    H121531   4.957   6.002   0.115
 7189TIP3    H221532   4.969   6.148   0.077
 7190TIP3   OH221533   2.050   1.743   4.877
 7190TIP3    H121534   2.079   1.827   4.912
 7190TIP3    H221535   2.029   1.690   4.954
 7191TIP3   OH221536   2.579   0.594   4.539
 7191TIP3    H121537   2.538   0.668   4.494
 7191TIP3    H221538   2.508   0.532   4.553
 7192TIP3   OH221539   1.690   3.571   0.995
 7192TIP3    H121540   1.750   3.606   0.929
 7192TIP3    H221541   1.606   3.562   0.949
 7193TIP3   OH221542   1.371   5.240   2.089
 7193TIP3    H121543   1.288   5.278   2.115
 7193TIP3    H221544   1.348   5.155   2.050
 7194TIP3   OH221545   6.689   2.724   4.904
 7194TIP3    H121546   6.735   2.799   4.867
 7194TIP3    H221547   6.747   2.692   4.973
 7195TIP3   OH221548   6.695   1.997   0.552
 7195TIP3    H121549   6.707   1.903   0.566
 7195TIP3    H221550   6.780   2.036   0.572
 7196TIP3   OH221551   2.465   3.489   1.482
 7196TIP3    H121552   2.450   3.419   1.546
 7196TIP3    H221553   2.463   3.444   1.398
 7197TIP3   OH221554   6.307   6.095   1.563
 7197TIP3    H121555   6.345   6.080   1.477
 7197TIP3    H221556   6.214   6.110   1.546
 7198TIP3   OH221557   5.118   2.009   5.864
 7198TIP3    H121558   5.030   2.008   5.825
 7198TIP3    H221559   5.102   2.028   5.957
 7199TIP3   OH221560   6.374   0.809   2.211
 7199TIP3    H121561   6.304   0.809   2.276
 7199TIP3    H221562   6.417   0.894   2.223
 7200TIP3   OH221563   4.554   5.951   2.809
 7200TIP3    H121564   4.621   5.993   2.864
 7200TIP3    H221565   4.514   5.886   2.867
 7201TIP3   OH221566   1.834   2.776   4.704
 7201TIP3    H121567   1.816   2.791   4.612
 7201TIP3    H221568   1.804   2.687   4.720
 7202TIP3   OH221569   5.521   2.390   5.893
 7202TIP3    H121570   5.441   2.432   5.860
 7202TIP3    H221571   5.489   2.312   5.939
 7203TIP3   OH221572   2.883   1.759   2.040
 7203TIP3    H121573   2.835   1.793   2.116
 7203TIP3    H221574   2.962   1.812   2.037
 7204TIP3   OH221575   3.430   6.087   3.701
 7204TIP3    H121576   3.475   6.159   3.659
 7204TIP3    H221577   3.342   6.120   3.718
 7205TIP3   OH221578   3.228   1.352   2.246
 7205TIP3    H121579   3.320   1.356   2.220
 7205TIP3    H221580   3.229   1.323   2.337
 7206TIP3   OH221581   3.871   5.455   2.952
 7206TIP3    H121582   3.958   5.424   2.976
 7206TIP3    H221583   3.817   5.376   2.953
 7207TIP3   OH221584   2.996   5.381   0.842
 7207TIP3    H121585   2.966   5.470   0.861
 7207TIP3    H221586   3.026   5.385   0.751
 7208TIP3   OH221587   6.592   1.995   2.843
 7208TIP3    H121588   6.672   1.943   2.830
 7208TIP3    H221589   6.568   2.023   2.755
 7209TIP3   OH221590   5.921   6.523   0.525
 7209TIP3    H121591   5.828   6.527   0.544
 7209TIP3    H221592   5.953   6.612   0.539
 7210TIP3   OH221593   1.456   2.164   2.928
 7210TIP3    H121594   1.447   2.069   2.935
 7210TIP3    H221595   1.486   2.192   3.014
 7211TIP3   OH221596   5.838   2.157   0.596
 7211TIP3    H121597   5.778   2.101   0.646
 7211TIP3    H221598   5.855   2.232   0.653
 7212TIP3   OH221599   0.645   5.112   3.844
 7212TIP3    H121600   0.627   5.077   3.931
 7212TIP3    H221601   0.640   5.036   3.786
 7213TIP3   OH221602   1.994   2.838   0.508
 7213TIP3    H121603   1.992   2.818   0.415
 7213TIP3    H221604   2.002   2.933   0.512
 7214TIP3   OH221605   1.700   1.664   0.866
 7214TIP3    H121606   1.628   1.606   0.889
 7214TIP3    H221607   1.767   1.647   0.933
 7215TIP3   OH221608   1.713   3.741   2.766
 7215TIP3    H121609   1.628   3.785   2.766
 7215TIP3    H221610   1.755   3.770   2.847
 7216TIP3   OH221611   0.968   0.402   5.374
 7216TIP3    H121612   0.886   0.426   5.417
 7216TIP3    H221613   0.974   0.462   5.299
 7217TIP3   OH221614   1.004   6.351   4.126
 7217TIP3    H121615   1.100   6.346   4.132
 7217TIP3    H221616   0.979   6.417   4.191
 7218TIP3   OH221617   2.185   3.314   2.280
 7218TIP3    H121618   2.089   3.316   2.288
 7218TIP3    H221619   2.214   3.391   2.328
 7219TIP3   OH221620   3.045   4.463   3.280
 7219TIP3    H121621   3.103   4.391   3.255
 7219TIP3    H221622   3.007   4.436   3.363
 7220TIP3   OH221623   0.899   2.955   4.155
 7220TIP3    H121624   0.883   2.908   4.237
 7220TIP3    H221625   0.876   3.045   4.174
 7221TIP3   OH221626   5.983   6.081   3.402
 7221TIP3    H121627   5.958   6.168   3.435
 7221TIP3    H221628   5.932   6.020   3.456
 7222TIP3   OH221629   2.155   2.865   2.527
 7222TIP3    H121630   2.215   2.811   2.578
 7222TIP3    H221631   2.109   2.918   2.593
 7223TIP3   OH221632   0.644   0.063   3.662
 7223TIP3    H121633   0.598   0.080   3.744
 7223TIP3    H221634   0.574   0.045   3.599
 7224TIP3   OH221635   0.719   1.623   2.903
 7224TIP3    H121636   0.668   1.604   2.824
 7224TIP3    H221637   0.686   1.708   2.933
 7225TIP3   OH221638   2.861   2.356   4.990
 7225TIP3    H121639   2.897   2.375   4.903
 7225TIP3    H221640   2.836   2.264   4.986
 7226TIP3   OH221641   5.165   3.396   5.866
 7226TIP3    H121642   5.088   3.413   5.920
 7226TIP3    H221643   5.129   3.374   5.780
 7227TIP3   OH221644   3.022   6.135   3.100
 7227TIP3    H121645   2.965   6.081   3.044
 7227TIP3    H221646   3.106   6.089   3.099
 7228TIP3   OH221647   1.071   4.548   3.869
 7228TIP3    H121648   1.113   4.523   3.951
 7228TIP3    H221649   1.058   4.465   3.822
 7229TIP3   OH221650   0.470   4.468   4.272
 7229TIP3    H121651   0.537   4.494   4.209
 7229TIP3    H221652   0.420   4.548   4.288
 7230TIP3   OH221653   5.404   2.659   1.536
 7230TIP3    H121654   5.326   2.635   1.585
 7230TIP3    H221655   5.441   2.575   1.509
 7231TIP3   OH221656   5.282   2.999   4.379
 7231TIP3    H121657   5.214   3.065   4.364
 7231TIP3    H221658   5.300   2.963   4.293
 7232TIP3   OH221659   3.618   3.253   0.101
 7232TIP3    H121660   3.614   3.159   0.116
 7232TIP3    H221661   3.551   3.270   0.035
 7233TIP3   OH221662   4.978   1.240   5.343
 7233TIP3    H121663   4.977   1.309   5.409
 7233TIP3    H221664   4.913   1.267   5.279
 7234TIP3   OH221665   0.210   4.080   3.793
 7234TIP3    H121666   0.248   3.995   3.814
 7234TIP3    H221667   0.134   4.060   3.738
 7235TIP3   OH221668   0.182   2.799   2.989
 7235TIP3    H121669   0.151   2.826   2.902
 7235TIP3    H221670   0.103   2.798   3.043
 7236TIP3   OH221671   4.743   5.488   1.294
 7236TIP3    H121672   4.712   5.473   1.383
 7236TIP3    H221673   4.665   5.476   1.239
 7237TIP3   OH221674   3.636   2.449   3.584
 7237TIP3    H121675   3.665   2.449   3.493
 7237TIP3    H221676   3.541   2.435   3.578
 7238TIP3   OH221677   3.491   1.202   2.861
 7238TIP3    H121678   3.542   1.251   2.797
 7238TIP3    H221679   3.549   1.132   2.890
 7239TIP3   OH221680   4.316   6.642   1.963
 7239TIP3    H121681   4.327   6.733   1.990
 7239TIP3    H221682   4.398   6.620   1.918
 7240TIP3   OH221683   5.256   3.082   5.528
 7240TIP3    H121684   5.236   3.175   5.531
 7240TIP3    H221685   5.190   3.042   5.584
 7241TIP3   OH221686   6.575   3.733   0.308
 7241TIP3    H121687   6.666   3.743   0.336
 7241TIP3    H221688   6.524   3.781   0.373
 7242TIP3   OH221689   1.542   0.411   0.081
 7242TIP3    H121690   1.606   0.341   0.091
 7242TIP3    H221691   1.508   0.424   0.170
 7243TIP3   OH221692   0.423   3.437   1.038
 7243TIP3    H121693   0.345   3.436   0.983
 7243TIP3    H221694   0.391   3.414   1.125
 7244TIP3   OH221695   2.399   2.717   5.729
 7244TIP3    H121696   2.454   2.670   5.667
 7244TIP3    H221697   2.321   2.662   5.739
 7245TIP3   OH221698   4.639   6.163   0.710
 7245TIP3    H121699   4.676   6.139   0.626
 7245TIP3    H221700   4.565   6.220   0.689
 7246TIP3   OH221701   4.799   6.574   0.237
 7246TIP3    H121702   4.861   6.627   0.288
 7246TIP3    H221703   4.789   6.494   0.289
 7247TIP3   OH221704   0.962   0.686   1.834
 7247TIP3    H121705   0.926   0.609   1.789
 7247TIP3    H221706   0.892   0.713   1.893
 7248TIP3   OH221707   1.740   3.884   0.277
 7248TIP3    H121708   1.710   3.924   0.358
 7248TIP3    H221709   1.706   3.941   0.208
 7249TIP3   OH221710   4.902   4.531   4.396
 7249TIP3    H121711   4.979   4.521   4.452
 7249TIP3    H221712   4.835   4.477   4.439
 7250TIP3   OH221713   1.296   4.974   4.962
 7250TIP3    H121714   1.340   5.051   4.996
 7250TIP3    H221715   1.243   5.007   4.889
 7251TIP3   OH221716   1.050   2.424   1.424
 7251TIP3    H121717   1.084   2.435   1.512
 7251TIP3    H221718   1.127   2.435   1.367
 7252TIP3   OH221719   1.928   0.903   5.649
 7252TIP3    H121720   1.837   0.926   5.632
 7252TIP3    H221721   1.932   0.886   5.743
 7253TIP3   OH221722   5.157   2.897   0.540
 7253TIP3    H121723   5.121   2.818   0.502
 7253TIP3    H221724   5.250   2.893   0.521
 7254TIP3   OH221725   2.194   4.669   1.748
 7254TIP3    H121726   2.251   4.700   1.819
 7254TIP3    H221727   2.214   4.576   1.740
 7255TIP3   OH221728   5.767   3.999   0.971
 7255TIP3    H121729   5.861   3.986   0.977
 7255TIP3    H221730   5.731   3.953   1.046
 7256TIP3   OH221731   0.340   2.000   0.757
 7256TIP3    H121732   0.374   2.025   0.671
 7256TIP3    H221733   0.376   1.913   0.773
 7257TIP3   OH221734   0.163   5.238   4.745
 7257TIP3    H121735   0.197   5.325   4.766
 7257TIP3    H221736   0.117   5.210   4.824
 7258TIP3   OH221737   6.802   6.460   4.772
 7258TIP3    H121738   6.849   6.381   4.747
 7258TIP3    H221739   6.870   6.521   4.799
 7259TIP3   OH221740   3.179   6.311   2.410
 7259TIP3    H121741   3.166   6.293   2.316
 7259TIP3    H221742   3.271   6.335   2.417
 7260TIP3   OH221743   3.649   0.209   1.469
 7260TIP3    H121744   3.671   0.262   1.545
 7260TIP3    H221745   3.700   0.128   1.480
 7261TIP3   OH221746   2.454   3.747   3.631
 7261TIP3    H121747   2.470   3.658   3.662
 7261TIP3    H221748   2.408   3.735   3.547
 7262TIP3   OH221749   2.788   5.511   4.691
 7262TIP3    H121750   2.847   5.555   4.630
 7262TIP3    H221751   2.725   5.466   4.635
 7263TIP3   OH221752   2.625   4.441   2.195
 7263TIP3    H121753   2.678   4.511   2.233
 7263TIP3    H221754   2.675   4.362   2.211
 7264TIP3   OH221755   2.650   4.523   3.171
 7264TIP3    H121756   2.675   4.443   3.125
 7264TIP3    H221757   2.730   4.576   3.173
 7265TIP3   OH221758   6.901   3.128   1.540
 7265TIP3    H121759   6.933   3.215   1.517
 7265TIP3    H221760   6.809   3.128   1.512
 7266TIP3   OH221761   0.730   5.986   0.987
 7266TIP3    H121762   0.734   6.082   0.990
 7266TIP3    H221763   0.820   5.958   0.999
 7267TIP3   OH221764   0.840   1.077   5.403
 7267TIP3    H121765   0.905   1.113   5.343
 7267TIP3    H221766   0.819   1.149   5.462
 7268TIP3   OH221767   3.328   1.194   5.234
 7268TIP3    H121768   3.344   1.207   5.328
 7268TIP3    H221769   3.368   1.271   5.192
 7269TIP3   OH221770   6.927   3.193   2.101
 7269TIP3    H121771   6.955   3.250   2.173
 7269TIP3    H221772   6.835   3.174   2.119
 7270TIP3   OH221773   3.147   3.210   2.020
 7270TIP3    H121774   3.231   3.174   1.990
 7270TIP3    H221775   3.118   3.266   1.948
 7271TIP3   OH221776   1.593   5.682   2.746
 7271TIP3    H121777   1.593   5.768   2.703
 7271TIP3    H221778   1.652   5.629   2.693
 7272TIP3   OH221779   3.724   1.189   4.071
 7272TIP3    H121780   3.700   1.095   4.066
 7272TIP3    H221781   3.776   1.204   3.992
 7273TIP3   OH221782   1.473   1.829   5.283
 7273TIP3    H121783   1.438   1.795   5.201
 7273TIP3    H221784   1.563   1.856   5.261
 7274TIP3   OH221785   2.449   4.717   4.480
 7274TIP3    H121786   2.442   4.811   4.493
 7274TIP3    H221787   2.445   4.679   4.568
 7275TIP3   OH221788   5.078   2.307   5.269
 7275TIP3    H121789   4.990   2.332   5.240
 7275TIP3    H221790   5.105   2.238   5.209
 7276TIP3   OH221791   1.923   6.259   5.683
 7276TIP3    H121792   1.913   6.231   5.774
 7276TIP3    H221793   2.018   6.258   5.668
 7277TIP3   OH221794   5.461   1.214   3.358
 7277TIP3    H121795   5.452   1.278   3.288
 7277TIP3    H221796   5.544   1.235   3.400
 7278TIP3   OH221797   5.851   1.822   1.135
 7278TIP3    H121798   5.819   1.744   1.181
 7278TIP3    H221799   5.841   1.893   1.199
 7279TIP3   OH221800   5.024   0.745   1.915
 7279TIP3    H121801   5.114   0.728   1.942
 7279TIP3    H221802   5.010   0.687   1.840
 7280TIP3   OH221803   5.396   6.675   0.580
 7280TIP3    H121804   5.357   6.589   0.598
 7280TIP3    H221805   5.363   6.731   0.651
 7281TIP3   OH221806   1.768   3.985   3.695
 7281TIP3    H121807   1.827   3.910   3.698
 7281TIP3    H221808   1.820   4.055   3.656
 7282TIP3   OH221809   0.283   0.325   0.212
 7282TIP3    H121810   0.370   0.362   0.226
 7282TIP3    H221811   0.227   0.401   0.196
 7283TIP3   OH221812   4.536   5.121   1.952
 7283TIP3    H121813   4.520   5.034   1.915
 7283TIP3    H221814   4.470   5.131   2.021
 7284TIP3   OH221815   1.644   3.420   2.700
 7284TIP3    H121816   1.629   3.460   2.615
 7284TIP3    H221817   1.706   3.349   2.683
 7285TIP3   OH221818   3.392   2.194   2.342
 7285TIP3    H121819   3.451   2.167   2.271
 7285TIP3    H221820   3.420   2.283   2.363
 7286TIP3   OH221821   3.912   5.607   0.060
 7286TIP3    H121822   3.890   5.617  -0.032
 7286TIP3    H221823   3.998   5.564   0.060
 7287TIP3   OH221824   4.556   3.342   0.749
 7287TIP3    H121825   4.572   3.369   0.840
 7287TIP3    H221826   4.615   3.395   0.697
 7288TIP3   OH221827   5.725   2.720   1.763
 7288TIP3    H121828   5.788   2.789   1.785
 7288TIP3    H221829   5.677   2.756   1.688
 7289TIP3   OH221830   2.030   1.455   0.226
 7289TIP3    H121831   2.081   1.515   0.173
 7289TIP3    H221832   1.948   1.502   0.244
 7290TIP3   OH221833   5.541   6.692   2.704
 7290TIP3    H121834   5.557   6.616   2.760
 7290TIP3    H221835   5.562   6.767   2.759
 7291TIP3   OH221836   0.873   4.125   0.570
 7291TIP3    H121837   0.815   4.049   0.566
 7291TIP3    H221838   0.885   4.150   0.478
 7292TIP3   OH221839   2.076   1.153   0.107
 7292TIP3    H121840   2.069   1.233   0.159
 7292TIP3    H221841   1.997   1.104   0.128
 7293TIP3   OH221842   3.174   1.365   3.948
 7293TIP3    H121843   3.095   1.322   3.914
 7293TIP3    H221844   3.146   1.405   4.030
 7294TIP3   OH221845   1.456   3.978   5.021
 7294TIP3    H121846   1.453   3.976   4.926
 7294TIP3    H221847   1.513   4.053   5.042
 7295TIP3   OH221848   5.655   4.653   1.948
 7295TIP3    H121849   5.705   4.717   1.998
 7295TIP3    H221850   5.679   4.568   1.986
 7296TIP3   OH221851   2.898   1.275   0.738
 7296TIP3    H121852   2.867   1.284   0.828
 7296TIP3    H221853   2.832   1.221   0.695
 7297TIP3   OH221854   1.030   3.376   4.306
 7297TIP3    H121855   1.057   3.385   4.398
 7297TIP3    H221856   1.068   3.292   4.279
 7298TIP3   OH221857   2.653   6.361   1.661
 7298TIP3    H121858   2.605   6.298   1.715
 7298TIP3    H221859   2.743   6.329   1.662
 7299TIP3   OH221860   7.209   3.520   1.180
 7299TIP3    H121861   7.183   3.442   1.130
 7299TIP3    H221862   7.157   3.516   1.260
 7300TIP3   OH221863   4.763   5.746   3.841
 7300TIP3    H121864   4.713   5.664   3.844
 7300TIP3    H221865   4.854   5.717   3.833
 7301TIP3   OH221866   1.003   1.965   2.164
 7301TIP3    H121867   1.022   1.916   2.244
 7301TIP3    H221868   1.072   2.031   2.159
 7302TIP3   OH221869   0.013   2.555   5.073
 7302TIP3    H121870   0.106   2.534   5.081
 7302TIP3    H221871  -0.007   2.608   5.151
 7303TIP3   OH221872   0.989   2.090   0.007
 7303TIP3    H121873   0.922   2.025   0.027
 7303TIP3    H221874   1.072   2.046   0.026
 7304TIP3   OH221875   2.299   2.684   1.459
 7304TIP3    H121876   2.385   2.727   1.461
 7304TIP3    H221877   2.302   2.622   1.532
 7305TIP3   OH221878   3.678   0.026   5.006
 7305TIP3    H121879   3.767   0.061   5.009
 7305TIP3    H221880   3.623   0.095   5.043
 7306TIP3   OH221881   1.730   2.982   1.509
 7306TIP3    H121882   1.803   2.949   1.457
 7306TIP3    H221883   1.652   2.962   1.457
 7307TIP3   OH221884   4.868   1.517   3.686
 7307TIP3    H121885   4.855   1.585   3.620
 7307TIP3    H221886   4.954   1.534   3.723
 7308TIP3   OH221887   6.337   3.180   2.961
 7308TIP3    H121888   6.343   3.275   2.947
 7308TIP3    H221889   6.245   3.165   2.984
 7309TIP3   OH221890   1.741   6.110   4.988
 7309TIP3    H121891   1.804   6.174   4.958
 7309TIP3    H221892   1.684   6.158   5.048
 7310TIP3   OH221893   1.266   6.538   2.373
 7310TIP3    H121894   1.357   6.562   2.390
 7310TIP3    H221895   1.252   6.460   2.426
 7311TIP3   OH221896   2.815   4.264   0.668
 7311TIP3    H121897   2.863   4.181   0.672
 7311TIP3    H221898   2.724   4.238   0.653
 7312TIP3   OH221899   1.085   2.402   3.923
 7312TIP3    H121900   1.089   2.413   3.828
 7312TIP3    H221901   1.108   2.487   3.959
 7313TIP3   OH221902   6.209   1.186   4.907
 7313TIP3    H121903   6.277   1.119   4.905
 7313TIP3    H221904   6.246   1.257   4.960
 7314TIP3   OH221905   5.592   5.044   0.844
 7314TIP3    H121906   5.522   5.109   0.846
 7314TIP3    H221907   5.671   5.093   0.864
 7315TIP3   OH221908   0.913   3.110   4.878
 7315TIP3    H121909   0.964   3.191   4.884
 7315TIP3    H221910   0.848   3.118   4.948
 7316TIP3   OH221911   1.536   0.255   4.843
 7316TIP3    H121912   1.560   0.322   4.779
 7316TIP3    H221913   1.440   0.251   4.838
 7317TIP3   OH221914   4.061   4.760   4.791
 7317TIP3    H121915   4.127   4.717   4.845
 7317TIP3    H221916   3.977   4.723   4.820
 7318TIP3   OH221917   4.499   4.515   2.002
 7318TIP3    H121918   4.469   4.450   2.065
 7318TIP3    H221919   4.547   4.579   2.055
 7319TIP3   OH221920   2.722   1.866   3.561
 7319TIP3    H121921   2.734   1.929   3.631
 7319TIP3    H221922   2.783   1.894   3.493
 7320TIP3   OH221923   1.063   5.200   5.585
 7320TIP3    H121924   1.144   5.222   5.632
 7320TIP3    H221925   1.088   5.126   5.530
 7321TIP3   OH221926   5.016   3.359   3.870
 7321TIP3    H121927   4.994   3.283   3.924
 7321TIP3    H221928   4.964   3.347   3.790
 7322TIP3   OH221929   1.877   5.612   0.444
 7322TIP3    H121930   1.830   5.671   0.384
 7322TIP3    H221931   1.892   5.664   0.523
 7323TIP3   OH221932   6.177   4.499   3.232
 7323TIP3    H121933   6.226   4.581   3.234
 7323TIP3    H221934   6.085   4.526   3.242
 7324TIP3   OH221935   4.775   6.449   4.404
 7324TIP3    H121936   4.859   6.461   4.449
 7324TIP3    H221937   4.767   6.354   4.393
 7325TIP3   OH221938   4.123   4.171   2.656
 7325TIP3    H121939   4.087   4.255   2.629
 7325TIP3    H221940   4.130   4.178   2.752
 7326TIP3   OH221941   7.096   4.896   0.247
 7326TIP3    H121942   7.003   4.907   0.230
 7326TIP3    H221943   7.106   4.802   0.265
 7327TIP3   OH221944   1.355   6.052   3.241
 7327TIP3    H121945   1.408   5.996   3.184
 7327TIP3    H221946   1.417   6.114   3.280
 7328TIP3   OH221947   2.957   0.534   1.901
 7328TIP3    H121948   3.004   0.618   1.892
 7328TIP3    H221949   3.024   0.472   1.929
 7329TIP3   OH221950   1.372   2.311   1.181
 7329TIP3    H121951   1.278   2.304   1.193
 7329TIP3    H221952   1.405   2.223   1.201
 7330TIP3   OH221953   7.014   1.850   2.999
 7330TIP3    H121954   7.096   1.878   2.958
 7330TIP3    H221955   6.949   1.855   2.930
 7331TIP3   OH221956   2.304   4.050   2.337
 7331TIP3    H121957   2.218   4.049   2.294
 7331TIP3    H221958   2.287   4.018   2.425
 7332TIP3   OH221959   0.151   2.110   2.474
 7332TIP3    H121960   0.173   2.190   2.521
 7332TIP3    H221961   0.220   2.048   2.497
 7333TIP3   OH221962   1.433   3.696   0.833
 7333TIP3    H121963   1.433   3.658   0.744
 7333TIP3    H221964   1.491   3.771   0.827
 7334TIP3   OH221965   3.939   0.329   2.876
 7334TIP3    H121966   3.893   0.286   2.948
 7334TIP3    H221967   3.999   0.391   2.920
 7335TIP3   OH221968   0.884   0.306   0.614
 7335TIP3    H121969   0.830   0.352   0.550
 7335TIP3    H221970   0.973   0.312   0.579
 7336TIP3   OH221971   6.200   0.081   3.621
 7336TIP3    H121972   6.253   0.097   3.543
 7336TIP3    H221973   6.254   0.026   3.676
 7337TIP3   OH221974   3.921   3.691   3.411
 7337TIP3    H121975   3.980   3.764   3.433
 7337TIP3    H221976   3.890   3.659   3.496
 7338TIP3   OH221977   3.467   6.036   0.107
 7338TIP3    H121978   3.390   6.018   0.053
 7338TIP3    H221979   3.455   5.983   0.185
 7339TIP3   OH221980   7.059   5.864   3.612
 7339TIP3    H121981   7.077   5.955   3.638
 7339TIP3    H221982   6.970   5.867   3.575
 7340TIP3   OH221983   0.714   3.458   5.541
 7340TIP3    H121984   0.625   3.489   5.521
 7340TIP3    H221985   0.771   3.527   5.509
 7341TIP3   OH221986   3.487   1.465   1.094
 7341TIP3    H121987   3.518   1.374   1.086
 7341TIP3    H221988   3.545   1.514   1.036
 7342TIP3   OH221989   1.467   4.462   5.200
 7342TIP3    H121990   1.456   4.486   5.292
 7342TIP3    H221991   1.556   4.489   5.178
 7343TIP3   OH221992   0.289   0.561   4.975
 7343TIP3    H121993   0.298   0.586   4.883
 7343TIP3    H221994   0.214   0.611   5.007
 7344TIP3   OH221995   0.943   1.079   0.733
 7344TIP3    H121996   0.882   1.105   0.802
 7344TIP3    H221997   0.916   0.990   0.710
 7345TIP3   OH221998   3.142   2.528   0.698
 7345TIP3    H121999   3.172   2.571   0.778
 7345TIP3    H222000   3.137   2.599   0.633
 7346TIP3   OH222001   1.929   3.669   2.340
 7346TIP3    H122002   1.893   3.652   2.253
 7346TIP3    H222003   1.854   3.665   2.399
 7347TIP3   OH222004   1.432   1.974   0.602
 7347TIP3    H122005   1.518   2.005   0.576
 7347TIP3    H222006   1.434   1.973   0.698
 7348TIP3   OH222007   5.534   5.607   4.466
 7348TIP3    H122008   5.591   5.606   4.389
 7348TIP3    H222009   5.479   5.530   4.457
 7349TIP3   OH222010   2.880   0.523   2.422
 7349TIP3    H122011   2.912   0.434   2.427
 7349TIP3    H222012   2.917   0.558   2.341
 7350TIP3   OH222013   0.730   2.874   1.190
 7350TIP3    H122014   0.756   2.959   1.226
 7350TIP3    H222015   0.723   2.889   1.096
 7351TIP3   OH222016   1.226   1.686   3.625
 7351TIP3    H122017   1.320   1.704   3.636
 7351TIP3    H222018   1.189   1.698   3.713
 7352TIP3   OH222019   0.591   6.766   1.530
 7352TIP3    H122020   0.677   6.808   1.530
 7352TIP3    H222021   0.585   6.726   1.617
 7353TIP3   OH222022   6.074   4.613   5.387
 7353TIP3    H122023   6.084   4.625   5.481
 7353TIP3    H222024   5.981   4.632   5.371
 7354TIP3   OH222025   6.273   0.646   4.666
 7354TIP3    H122026   6.339   0.586   4.700
 7354TIP3    H222027   6.238   0.603   4.588
 7355TIP3   OH222028   6.361   3.451   0.846
 7355TIP3    H122029   6.423   3.518   0.817
 7355TIP3    H222030   6.280   3.472   0.800
 7356TIP3   OH222031   4.601   0.500   1.865
 7356TIP3    H122032   4.653   0.513   1.944
 7356TIP3    H222033   4.584   0.588   1.832
 7357TIP3   OH222034   6.662   5.299   1.848
 7357TIP3    H122035   6.614   5.274   1.769
 7357TIP3    H222036   6.736   5.239   1.851
 7358TIP3   OH222037   7.186   1.781   0.707
 7358TIP3    H122038   7.139   1.722   0.766
 7358TIP3    H222039   7.218   1.725   0.636
 7359TIP3   OH222040   5.998   4.935   5.073
 7359TIP3    H122041   6.053   4.901   5.144
 7359TIP3    H222042   5.931   4.987   5.117
 7360TIP3   OH222043   6.076   5.868   4.118
 7360TIP3    H122044   6.043   5.786   4.156
 7360TIP3    H222045   6.168   5.851   4.098
 7361TIP3   OH222046   3.513   2.286   0.064
 7361TIP3    H122047   3.581   2.352   0.079
 7361TIP3    H222048   3.562   2.205   0.047
 7362TIP3   OH222049   1.966   4.978   5.323
 7362TIP3    H122050   1.878   4.976   5.361
 7362TIP3    H222051   1.958   5.034   5.246
 7363TIP3   OH222052   3.312   3.278   5.228
 7363TIP3    H122053   3.235   3.267   5.173
 7363TIP3    H222054   3.278   3.300   5.314
 7364TIP3   OH222055   3.748   5.677   4.636
 7364TIP3    H122056   3.717   5.766   4.617
 7364TIP3    H222057   3.775   5.643   4.550
 7365TIP3   OH222058   2.070   2.944   5.725
 7365TIP3    H122059   2.066   2.967   5.633
 7365TIP3    H222060   2.157   2.971   5.753
 7366TIP3   OH222061   1.692   1.434   2.064
 7366TIP3    H122062   1.621   1.370   2.058
 7366TIP3    H222063   1.697   1.456   2.157
 7367TIP3   OH222064   6.198   1.377   3.951
 7367TIP3    H122065   6.145   1.432   3.893
 7367TIP3    H222066   6.134   1.330   4.004
 7368TIP3   OH222067   0.525   6.380   1.663
 7368TIP3    H122068   0.498   6.375   1.571
 7368TIP3    H222069   0.478   6.308   1.706
 7369TIP3   OH222070   5.477   0.549   2.623
 7369TIP3    H122071   5.387   0.521   2.608
 7369TIP3    H222072   5.470   0.644   2.636
 7370TIP3   OH222073   1.271   6.067   3.508
 7370TIP3    H122074   1.350   6.100   3.549
 7370TIP3    H222075   1.287   6.074   3.414
 7371TIP3   OH222076   4.888   5.835   0.943
 7371TIP3    H122077   4.819   5.898   0.962
 7371TIP3    H222078   4.855   5.752   0.976
 7372TIP3   OH222079   6.035   4.009   0.969
 7372TIP3    H122080   6.098   3.938   0.963
 7372TIP3    H222081   6.058   4.068   0.898
 7373TIP3   OH222082   0.531   1.689   0.586
 7373TIP3    H122083   0.436   1.695   0.598
 7373TIP3    H222084   0.547   1.723   0.498
 7374TIP3   OH222085   2.360   1.846   0.270
 7374TIP3    H122086   2.411   1.821   0.347
 7374TIP3    H222087   2.380   1.778   0.206
 7375TIP3   OH222088   3.188   1.858   3.367
 7375TIP3    H122089   3.249   1.821   3.303
 7375TIP3    H222090   3.201   1.805   3.446
 7376TIP3   OH222091   3.398   4.922   4.953
 7376TIP3    H122092   3.430   4.976   5.025
 7376TIP3    H222093   3.473   4.910   4.896
 7377TIP3   OH222094   0.089   1.558   1.333
 7377TIP3    H122095   0.072   1.512   1.416
 7377TIP3    H222096   0.126   1.642   1.360
 7378TIP3   OH222097   5.840   4.367   5.539
 7378TIP3    H122098   5.805   4.310   5.607
 7378TIP3    H222099   5.780   4.441   5.535
 7379TIP3   OH222100   2.009   3.713   1.731
 7379TIP3    H122101   2.066   3.637   1.739
 7379TIP3    H222102   1.982   3.714   1.639
 7380TIP3   OH222103   3.597   1.551   4.837
 7380TIP3    H122104   3.546   1.590   4.767
 7380TIP3    H222105   3.539   1.552   4.913
 7381TIP3   OH222106   0.374   6.028   5.121
 7381TIP3    H122107   0.469   6.042   5.124
 7381TIP3    H222108   0.339   6.098   5.176
 7382TIP3   OH222109   2.407   5.588   3.020
 7382TIP3    H122110   2.394   5.499   2.987
 7382TIP3    H222111   2.498   5.608   3.000
 7383TIP3   OH222112   5.844   2.717   0.880
 7383TIP3    H122113   5.829   2.671   0.962
 7383TIP3    H222114   5.928   2.683   0.848
 7384TIP3   OH222115   1.560   2.865   2.685
 7384TIP3    H122116   1.539   2.941   2.630
 7384TIP3    H222117   1.510   2.793   2.647
 7385TIP3   OH222118   0.929   1.707   5.114
 7385TIP3    H122119   0.862   1.774   5.107
 7385TIP3    H222120   0.888   1.628   5.080
 7386TIP3   OH222121   6.632   5.880   0.319
 7386TIP3    H122122   6.721   5.888   0.353
 7386TIP3    H222123   6.592   5.965   0.334
 7387TIP3   OH222124   3.183   4.997   2.672
 7387TIP3    H122125   3.125   5.062   2.634
 7387TIP3    H222126   3.264   5.045   2.690
 7388TIP3   OH222127   5.988   6.452   2.335
 7388TIP3    H122128   5.991   6.546   2.353
 7388TIP3    H222129   5.957   6.414   2.417
 7389TIP3   OH222130   4.814   4.446   1.481
 7389TIP3    H122131   4.855   4.532   1.497
 7389TIP3    H222132   4.852   4.417   1.399
 7390TIP3   OH222133   5.290   1.006   0.968
 7390TIP3    H122134   5.329   1.009   1.055
 7390TIP3    H222135   5.354   1.049   0.911
 7391TIP3   OH222136   3.658   5.230   1.361
 7391TIP3    H122137   3.635   5.138   1.377
 7391TIP3    H222138   3.610   5.253   1.282
 7392TIP3   OH222139   1.897   2.967   1.013
 7392TIP3    H122140   1.906   2.873   1.000
 7392TIP3    H222141   1.810   2.988   0.979
 7393TIP3   OH222142   3.464   3.023   5.215
 7393TIP3    H122143   3.507   2.981   5.140
 7393TIP3    H222144   3.388   3.068   5.177
 7394TIP3   OH222145   1.939   0.477   2.217
 7394TIP3    H122146   1.903   0.457   2.130
 7394TIP3    H222147   1.927   0.397   2.267
 7395TIP3   OH222148   1.258   6.638   5.757
 7395TIP3    H122149   1.208   6.694   5.698
 7395TIP3    H222150   1.331   6.693   5.786
 7396TIP3   OH222151   6.693   2.956   2.054
 7396TIP3    H122152   6.700   3.011   1.975
 7396TIP3    H222153   6.668   3.016   2.123
 7397TIP3   OH222154   2.154   4.082   1.668
 7397TIP3    H122155   2.196   4.102   1.752
 7397TIP3    H222156   2.220   4.035   1.618
 7398TIP3   OH222157   6.064   5.886   1.009
 7398TIP3    H122158   6.142   5.929   0.972
 7398TIP3    H222159   6.032   5.830   0.938
 7399TIP3   OH222160   6.681   4.728   4.951
 7399TIP3    H122161   6.665   4.807   4.899
 7399TIP3    H222162   6.678   4.757   5.042
 7400TIP3   OH222163   2.392   2.257   0.534
 7400TIP3    H122164   2.324   2.317   0.564
 7400TIP3    H222165   2.346   2.196   0.476
 7401TIP3   OH222166   4.299   1.868   5.613
 7401TIP3    H122167   4.361   1.797   5.596
 7401TIP3    H222168   4.214   1.832   5.588
 7402TIP3   OH222169   2.776   3.019   2.966
 7402TIP3    H122170   2.791   3.084   2.897
 7402TIP3    H222171   2.692   2.980   2.943
 7403TIP3   OH222172   6.819   1.777   2.579
 7403TIP3    H122173   6.839   1.835   2.506
 7403TIP3    H222174   6.723   1.783   2.588
 7404TIP3   OH222175   0.830   1.024   5.747
 7404TIP3    H122176   0.763   1.000   5.812
 7404TIP3    H222177   0.796   1.103   5.706
 7405TIP3   OH222178   6.639   4.983   1.472
 7405TIP3    H122179   6.659   4.898   1.510
 7405TIP3    H222180   6.724   5.026   1.464
 7406TIP3   OH222181   3.524   1.158   2.309
 7406TIP3    H122182   3.472   1.095   2.261
 7406TIP3    H222183   3.524   1.126   2.399
 7407TIP3   OH222184   1.634   0.394   0.718
 7407TIP3    H122185   1.702   0.373   0.654
 7407TIP3    H222186   1.559   0.342   0.691
 7408TIP3   OH222187   0.481   5.270   1.480
 7408TIP3    H122188   0.393   5.306   1.491
 7408TIP3    H222189   0.509   5.299   1.394
 7409TIP3   OH222190   2.841   3.527   5.046
 7409TIP3    H122191   2.800   3.610   5.072
 7409TIP3    H222192   2.775   3.483   4.993
 7410TIP3   OH222193   4.086   1.105   5.781
 7410TIP3    H122194   4.110   1.060   5.700
 7410TIP3    H222195   3.991   1.099   5.784
 7411TIP3   OH222196   0.154   6.002   1.815
 7411TIP3    H122197   0.100   6.080   1.799
 7411TIP3    H222198   0.111   5.957   1.887
 7412TIP3   OH222199   2.423   1.972   3.812
 7412TIP3    H122200   2.367   2.036   3.769
 7412TIP3    H222201   2.364   1.901   3.837
 7413TIP3   OH222202   1.817   2.370   2.543
 7413TIP3    H122203   1.769   2.336   2.618
 7413TIP3    H222204   1.775   2.453   2.522
 7414TIP3   OH222205   6.223   1.547   0.243
 7414TIP3    H122206   6.205   1.470   0.298
 7414TIP3    H222207   6.166   1.615   0.279
 7415TIP3   OH222208   4.854   2.861   3.957
 7415TIP3    H122209   4.918   2.842   3.888
 7415TIP3    H222210   4.776   2.811   3.931
 7416TIP3   OH222211   0.728   4.696   2.751
 7416TIP3    H122212   0.637   4.695   2.721
 7416TIP3    H222213   0.741   4.784   2.785
 7417TIP3   OH222214   3.207   2.372   1.502
 7417TIP3    H122215   3.284   2.404   1.549
 7417TIP3    H222216   3.211   2.278   1.509
 7418TIP3   OH222217   6.071   1.105   3.523
 7418TIP3    H122218   6.103   1.022   3.558
 7418TIP3    H222219   5.996   1.081   3.469
 7419TIP3   OH222220   4.109   2.011   1.174
 7419TIP3    H122221   4.183   1.950   1.164
 7419TIP3    H222222   4.059   2.001   1.094
 7420TIP3   OH222223   2.165   0.768   3.512
 7420TIP3    H122224   2.167   0.858   3.544
 7420TIP3    H222225   2.105   0.723   3.572
 7421TIP3   OH222226   6.206   3.176   1.365
 7421TIP3    H122227   6.300   3.196   1.365
 7421TIP3    H222228   6.181   3.178   1.457
 7422TIP3   OH222229   3.664   5.846   1.562
 7422TIP3    H122230   3.634   5.868   1.651
 7422TIP3    H222231   3.606   5.896   1.505
 7423TIP3   OH222232   0.007   2.229   0.233
 7423TIP3    H122233   0.077   2.245   0.296
 7423TIP3    H222234   0.016   2.299   0.168
 7424TIP3   OH222235   3.332   6.518   3.567
 7424TIP3    H122236   3.395   6.584   3.538
 7424TIP3    H222237   3.288   6.489   3.487
 7425TIP3   OH222238   7.184   3.359   2.814
 7425TIP3    H122239   7.249   3.317   2.870
 7425TIP3    H222240   7.228   3.438   2.782
 7426TIP3   OH222241   5.994   0.294   1.744
 7426TIP3    H122242   5.918   0.339   1.779
 7426TIP3    H222243   5.975   0.201   1.755
 7427TIP3   OH222244   4.389   3.327   2.740
 7427TIP3    H122245   4.355   3.343   2.828
 7427TIP3    H222246   4.397   3.414   2.700
 7428TIP3   OH222247   0.627   5.310   0.847
 7428TIP3    H122248   0.613   5.278   0.937
 7428TIP3    H222249   0.607   5.403   0.852
 7429TIP3   OH222250   1.757   6.158   5.491
 7429TIP3    H122251   1.824   6.190   5.551
 7429TIP3    H222252   1.696   6.110   5.546
 7430TIP3   OH222253   6.869   3.735   3.859
 7430TIP3    H122254   6.851   3.641   3.855
 7430TIP3    H222255   6.936   3.744   3.927
 7431TIP3   OH222256   6.570   5.561   2.492
 7431TIP3    H122257   6.600   5.647   2.521
 7431TIP3    H222258   6.598   5.555   2.401
 7432TIP3   OH222259   3.713   0.947   2.182
 7432TIP3    H122260   3.783   1.011   2.194
 7432TIP3    H222261   3.733   0.878   2.246
 7433TIP3   OH222262   7.057   5.837   5.459
 7433TIP3    H122263   7.130   5.899   5.468
 7433TIP3    H222264   7.014   5.838   5.545
 7434TIP3   OH222265   3.619   2.942   0.128
 7434TIP3    H122266   3.560   2.901   0.191
 7434TIP3    H222267   3.706   2.930   0.166
 7435TIP3   OH222268   0.129   0.442   5.558
 7435TIP3    H122269   0.103   0.505   5.490
 7435TIP3    H222270   0.109   0.486   5.641
 7436TIP3   OH222271   0.567   4.688   3.005
 7436TIP3    H122272   0.610   4.643   2.932
 7436TIP3    H222273   0.639   4.723   3.058
 7437TIP3   OH222274   1.447   2.078   4.666
 7437TIP3    H122275   1.541   2.089   4.683
 7437TIP3    H222276   1.430   1.986   4.688
 7438TIP3   OH222277   0.475   5.258   2.223
 7438TIP3    H122278   0.417   5.219   2.157
 7438TIP3    H222279   0.429   5.246   2.306
 7439TIP3   OH222280   2.871   4.611   0.976
 7439TIP3    H122281   2.872   4.659   0.894
 7439TIP3    H222282   2.922   4.532   0.959
 7440TIP3   OH222283   5.606   3.348   1.723
 7440TIP3    H122284   5.612   3.442   1.738
 7440TIP3    H222285   5.663   3.332   1.648
 7441TIP3   OH222286   6.252   2.197   5.205
 7441TIP3    H122287   6.343   2.222   5.189
 7441TIP3    H222288   6.205   2.226   5.126
 7442TIP3   OH222289   2.612   6.699   5.610
 7442TIP3    H122290   2.643   6.785   5.637
 7442TIP3    H222291   2.635   6.693   5.518
 7443TIP3   OH222292   4.088   0.571   5.080
 7443TIP3    H122293   4.061   0.660   5.102
 7443TIP3    H222294   4.177   0.564   5.115
 7444TIP3   OH222295   3.979   5.887   4.053
 7444TIP3    H122296   3.968   5.811   3.995
 7444TIP3    H222297   4.022   5.953   3.999
 7445TIP3   OH222298   6.960   4.816   4.650
 7445TIP3    H122299   7.013   4.742   4.680
 7445TIP3    H222300   7.022   4.889   4.648
 7446TIP3   OH222301   5.771   3.306   3.223
 7446TIP3    H122302   5.683   3.345   3.220
 7446TIP3    H222303   5.829   3.378   3.246
 7447TIP3   OH222304   4.426   2.062   4.918
 7447TIP3    H122305   4.389   2.136   4.871
 7447TIP3    H222306   4.390   1.985   4.873
 7448TIP3   OH222307   7.181   5.836   1.604
 7448TIP3    H122308   7.276   5.833   1.618
 7448TIP3    H222309   7.143   5.810   1.688
 7449TIP3   OH222310   2.384   3.962   3.840
 7449TIP3    H122311   2.462   3.962   3.895
 7449TIP3    H222312   2.413   3.922   3.758
 7450TIP3   OH222313   2.133   2.137   2.621
 7450TIP3    H122314   2.141   2.041   2.618
 7450TIP3    H222315   2.120   2.163   2.530
 7451TIP3   OH222316   0.989   5.496   5.742
 7451TIP3    H122317   0.946   5.438   5.679
 7451TIP3    H222318   1.072   5.451   5.762
 7452TIP3   OH222319   5.819   5.559   1.259
 7452TIP3    H122320   5.875   5.490   1.224
 7452TIP3    H222321   5.804   5.618   1.184
 7453TIP3   OH222322   1.341   4.566   4.272
 7453TIP3    H122323   1.354   4.547   4.364
 7453TIP3    H222324   1.419   4.617   4.247
 7454TIP3   OH222325   4.966   4.688   5.115
 7454TIP3    H122326   4.872   4.709   5.119
 7454TIP3    H222327   4.982   4.636   5.193
 7455TIP3   OH222328   4.257   1.971   5.113
 7455TIP3    H122329   4.190   1.991   5.048
 7455TIP3    H222330   4.338   2.007   5.075
 7456TIP3   OH222331   4.316   0.752   2.670
 7456TIP3    H122332   4.352   0.840   2.683
 7456TIP3    H222333   4.390   0.693   2.684
 7457TIP3   OH222334   2.128   1.868   5.257
 7457TIP3    H122335   2.100   1.908   5.338
 7457TIP3    H222336   2.196   1.927   5.223
 7458TIP3   OH222337   6.804   1.924   2.133
 7458TIP3    H122338   6.794   2.005   2.084
 7458TIP3    H222339   6.812   1.856   2.065
 7459TIP3   OH222340   5.667   3.871   1.199
 7459TIP3    H122341   5.701   3.852   1.286
 7459TIP3    H222342   5.584   3.916   1.215
 7460TIP3   OH222343   1.845   5.009   1.404
 7460TIP3    H122344   1.866   5.042   1.491
 7460TIP3    H222345   1.751   4.995   1.406
 7461TIP3   OH222346   3.593   0.723   3.463
 7461TIP3    H122347   3.629   0.750   3.548
 7461TIP3    H222348   3.519   0.667   3.486
 7462TIP3   OH222349   7.156   6.423   3.381
 7462TIP3    H122350   7.089   6.490   3.388
 7462TIP3    H222351   7.123   6.349   3.432
 7463TIP3   OH222352   5.074   3.915   2.853
 7463TIP3    H122353   5.109   3.989   2.902
 7463TIP3    H222354   4.983   3.907   2.884
 7464TIP3   OH222355   5.947   3.625   4.151
 7464TIP3    H122356   5.986   3.712   4.162
 7464TIP3    H222357   5.853   3.638   4.166
 7465TIP3   OH222358   5.349   6.763   0.083
 7465TIP3    H122359   5.385   6.845   0.050
 7465TIP3    H222360   5.426   6.708   0.099
 7466TIP3   OH222361   5.524   5.283   3.888
 7466TIP3    H122362   5.609   5.238   3.890
 7466TIP3    H222363   5.512   5.306   3.796
 7467TIP3   OH222364   0.785   4.743   3.133
 7467TIP3    H122365   0.811   4.705   3.217
 7467TIP3    H222366   0.867   4.774   3.095
 7468TIP3   OH222367   2.393   4.756   3.550
 7468TIP3    H122368   2.481   4.764   3.589
 7468TIP3    H222369   2.399   4.679   3.495
 7469TIP3   OH222370   6.152   0.818   5.193
 7469TIP3    H122371   6.234   0.860   5.217
 7469TIP3    H222372   6.150   0.823   5.097
 7470TIP3   OH222373   5.432   3.337   3.082
 7470TIP3    H122374   5.354   3.349   3.135
 7470TIP3    H222375   5.460   3.247   3.100
 7471TIP3   OH222376   6.978   4.349   1.035
 7471TIP3    H122377   6.917   4.422   1.024
 7471TIP3    H222378   6.927   4.281   1.078
 7472TIP3   OH222379   6.607   3.583   3.262
 7472TIP3    H122380   6.666   3.511   3.281
 7472TIP3    H222381   6.605   3.589   3.167
 7473TIP3   OH222382   6.207   1.529   4.554
 7473TIP3    H122383   6.291   1.573   4.540
 7473TIP3    H222384   6.143   1.586   4.512
 7474TIP3   OH222385   4.011   5.135   3.835
 7474TIP3    H122386   3.928   5.106   3.874
 7474TIP3    H222387   3.985   5.178   3.754
 7475TIP3   OH222388   1.221   2.505   5.567
 7475TIP3    H122389   1.267   2.463   5.494
 7475TIP3    H222390   1.197   2.433   5.625
 7476TIP3   OH222391   3.537   2.823   3.702
 7476TIP3    H122392   3.519   2.908   3.662
 7476TIP3    H222393   3.581   2.844   3.784
 7477TIP3   OH222394   1.974   4.763   1.193
 7477TIP3    H122395   1.961   4.689   1.133
 7477TIP3    H222396   1.953   4.726   1.279
 7478TIP3   OH222397   5.520   3.821   5.042
 7478TIP3    H122398   5.573   3.861   5.112
 7478TIP3    H222399   5.573   3.748   5.011
 7479TIP3   OH222400   5.432   4.518   2.211
 7479TIP3    H122401   5.492   4.469   2.154
 7479TIP3    H222402   5.490   4.570   2.267
 7480TIP3   OH222403   2.037   2.523   4.208
 7480TIP3    H122404   1.981   2.530   4.285
 7480TIP3    H222405   2.057   2.613   4.184
 7481TIP3   OH222406   5.576   5.413   3.158
 7481TIP3    H122407   5.550   5.394   3.248
 7481TIP3    H222408   5.536   5.344   3.105
 7482TIP3   OH222409   6.490   4.696   3.462
 7482TIP3    H122410   6.446   4.735   3.538
 7482TIP3    H222411   6.576   4.738   3.460
 7483TIP3   OH222412   5.979   5.151   1.115
 7483TIP3    H122413   6.020   5.237   1.124
 7483TIP3    H222414   5.893   5.161   1.155
 7484TIP3   OH222415   1.174   5.576   2.895
 7484TIP3    H122416   1.083   5.589   2.923
 7484TIP3    H222417   1.225   5.592   2.975
 7485TIP3   OH222418   6.498   5.098   5.032
 7485TIP3    H122419   6.453   5.138   5.106
 7485TIP3    H222420   6.428   5.079   4.969
 7486TIP3   OH222421   0.782   1.496   0.060
 7486TIP3    H122422   0.860   1.462   0.015
 7486TIP3    H222423   0.796   1.472   0.152
 7487TIP3   OH222424   6.074   0.865   0.006
 7487TIP3    H122425   6.100   0.938   0.062
 7487TIP3    H222426   5.984   0.885  -0.020
 7488TIP3   OH222427   2.524   3.879   0.451
 7488TIP3    H122428   2.558   3.868   0.362
 7488TIP3    H222429   2.431   3.858   0.445
 7489TIP3   OH222430   1.709   1.608   1.846
 7489TIP3    H122431   1.792   1.625   1.801
 7489TIP3    H222432   1.734   1.555   1.922
 7490TIP3   OH222433   1.509   3.028   5.697
 7490TIP3    H122434   1.451   3.022   5.622
 7490TIP3    H222435   1.488   2.952   5.750
 7491TIP3   OH222436   6.666   3.591   5.879
 7491TIP3    H122437   6.726   3.518   5.862
 7491TIP3    H222438   6.712   3.668   5.846
 7492TIP3   OH222439   0.986   3.954   1.129
 7492TIP3    H122440   0.908   3.903   1.107
 7492TIP3    H222441   0.954   4.031   1.175
 7493TIP3   OH222442   1.916   5.262   3.285
 7493TIP3    H122443   1.971   5.339   3.293
 7493TIP3    H222444   1.852   5.284   3.217
 7494TIP3   OH222445   3.107   6.089   3.688
 7494TIP3    H122446   3.052   6.015   3.664
 7494TIP3    H222447   3.108   6.145   3.611
 7495TIP3   OH222448   2.644   2.309   3.835
 7495TIP3    H122449   2.596   2.359   3.901
 7495TIP3    H222450   2.723   2.361   3.818
 7496TIP3   OH222451   5.228   4.822   0.469
 7496TIP3    H122452   5.208   4.798   0.378
 7496TIP3    H222453   5.158   4.882   0.494
 7497TIP3   OH222454   3.732   3.174   1.098
 7497TIP3    H122455   3.756   3.152   1.008
 7497TIP3    H222456   3.785   3.252   1.118
 7498TIP3   OH222457   6.847   1.541   0.759
 7498TIP3    H122458   6.883   1.453   0.755
 7498TIP3    H222459   6.918   1.594   0.796
 7499TIP3   OH222460   6.914   2.939   4.401
 7499TIP3    H122461   6.881   2.866   4.453
 7499TIP3    H222462   7.001   2.911   4.372
 7500TIP3   OH222463   4.279   5.115   2.047
 7500TIP3    H122464   4.273   5.036   2.101
 7500TIP3    H222465   4.231   5.094   1.967
 7501TIP3   OH222466   4.221   3.010   5.212
 7501TIP3    H122467   4.126   3.013   5.219
 7501TIP3    H222468   4.253   3.051   5.292
 7502TIP3   OH222469   6.608   2.312   2.389
 7502TIP3    H122470   6.596   2.227   2.347
 7502TIP3    H222471   6.526   2.358   2.374
 7503TIP3   OH222472   3.174   5.701   3.439
 7503TIP3    H122473   3.185   5.613   3.403
 7503TIP3    H222474   3.117   5.689   3.515
 7504TIP3   OH222475   7.170   1.082   3.562
 7504TIP3    H122476   7.099   1.087   3.626
 7504TIP3    H222477   7.148   1.007   3.506
 7505TIP3   OH222478   4.969   3.945   1.195
 7505TIP3    H122479   5.040   4.007   1.216
 7505TIP3    H222480   4.900   3.966   1.258
 7506TIP3   OH222481   0.392   1.898   4.636
 7506TIP3    H122482   0.329   1.828   4.652
 7506TIP3    H222483   0.435   1.874   4.554
 7507TIP3   OH222484   5.105   3.620   2.713
 7507TIP3    H122485   5.196   3.650   2.719
 7507TIP3    H222486   5.111   3.538   2.664
 7508TIP3   OH222487   4.866   1.938   5.736
 7508TIP3    H122488   4.934   1.906   5.677
 7508TIP3    H222489   4.815   1.860   5.758
 7509TIP3   OH222490   2.687   0.543   1.906
 7509TIP3    H122491   2.640   0.579   1.831
 7509TIP3    H222492   2.779   0.564   1.890
 7510TIP3   OH222493   1.660   0.325   5.324
 7510TIP3    H122494   1.578   0.373   5.333
 7510TIP3    H222495   1.678   0.327   5.230
 7511TIP3   OH222496   6.383   1.689   1.493
 7511TIP3    H122497   6.337   1.679   1.409
 7511TIP3    H222498   6.371   1.782   1.515
 7512TIP3   OH222499   6.099   2.951   4.277
 7512TIP3    H122500   6.170   2.915   4.224
 7512TIP3    H222501   6.068   3.027   4.226
 7513TIP3   OH222502   4.383   5.650   4.926
 7513TIP3    H122503   4.357   5.561   4.950
 7513TIP3    H222504   4.469   5.662   4.966
 7514TIP3   OH222505   5.839   5.745   3.168
 7514TIP3    H122506   5.803   5.703   3.247
 7514TIP3    H222507   5.831   5.839   3.185
 7515TIP3   OH222508   3.575   6.226   1.700
 7515TIP3    H122509   3.566   6.213   1.605
 7515TIP3    H222510   3.485   6.227   1.732
 7516TIP3   OH222511   4.014   3.334   4.014
 7516TIP3    H122512   3.951   3.344   4.085
 7516TIP3    H222513   4.095   3.306   4.057
 7517TIP3   OH222514   4.091   3.196   0.845
 7517TIP3    H122515   4.116   3.285   0.821
 7517TIP3    H222516   4.100   3.194   0.941
 7518TIP3   OH222517   3.172   1.302   5.654
 7518TIP3    H122518   3.081   1.272   5.640
 7518TIP3    H222519   3.163   1.380   5.709
 7519TIP3   OH222520   3.334   1.683   1.238
 7519TIP3    H122521   3.391   1.757   1.258
 7519TIP3    H222522   3.390   1.623   1.188
 7520TIP3   OH222523   3.737   5.550   4.394
 7520TIP3    H122524   3.767   5.601   4.319
 7520TIP3    H222525   3.706   5.468   4.357
 7521TIP3   OH222526   1.722   6.092   2.778
 7521TIP3    H122527   1.786   6.028   2.810
 7521TIP3    H222528   1.689   6.053   2.697
 7522TIP3   OH222529   3.748   4.437   0.892
 7522TIP3    H122530   3.693   4.426   0.970
 7522TIP3    H222531   3.830   4.395   0.914
 7523TIP3   OH222532   0.578   1.400   5.483
 7523TIP3    H122533   0.526   1.321   5.491
 7523TIP3    H222534   0.530   1.466   5.533
 7524TIP3   OH222535   0.879   3.476   0.258
 7524TIP3    H122536   0.964   3.518   0.241
 7524TIP3    H222537   0.819   3.516   0.195
 7525TIP3   OH222538   0.605   5.500   3.087
 7525TIP3    H122539   0.676   5.504   3.023
 7525TIP3    H222540   0.642   5.455   3.162
 7526TIP3   OH222541   0.160   2.362   0.439
 7526TIP3    H122542   0.168   2.339   0.532
 7526TIP3    H222543   0.086   2.423   0.436
 7527TIP3   OH222544   5.867   0.964   0.272
 7527TIP3    H122545   5.908   1.009   0.346
 7527TIP3    H222546   5.851   1.034   0.208
 7528TIP3   OH222547   5.398   3.856   0.925
 7528TIP3    H122548   5.335   3.903   0.870
 7528TIP3    H222549   5.452   3.925   0.964
 7529TIP3   OH222550   1.201   1.127   0.653
 7529TIP3    H122551   1.177   1.216   0.629
 7529TIP3    H222552   1.121   1.088   0.687
 7530TIP3   OH222553   1.902   2.821   2.826
 7530TIP3    H122554   1.993   2.804   2.849
 7530TIP3    H222555   1.906   2.898   2.770
 7531TIP3   OH222556   0.875   0.542   0.948
 7531TIP3    H122557   0.825   0.482   0.893
 7531TIP3    H222558   0.819   0.556   1.024
 7532TIP3   OH222559   1.234   4.957   2.174
 7532TIP3    H122560   1.292   4.902   2.123
 7532TIP3    H222561   1.187   4.896   2.231
 7533TIP3   OH222562   5.578   4.810   4.826
 7533TIP3    H122563   5.565   4.729   4.777
 7533TIP3    H222564   5.497   4.821   4.876
 7534TIP3   OH222565   0.798   3.153   0.899
 7534TIP3    H122566   0.827   3.244   0.887
 7534TIP3    H222567   0.746   3.134   0.821
 7535TIP3   OH222568   3.566   5.817   3.143
 7535TIP3    H122569   3.547   5.891   3.200
 7535TIP3    H222570   3.659   5.826   3.121
 7536TIP3   OH222571   1.592   4.936   1.410
 7536TIP3    H122572   1.500   4.962   1.423
 7536TIP3    H222573   1.587   4.858   1.356
 7537TIP3   OH222574   2.842   6.634   5.283
 7537TIP3    H122575   2.936   6.649   5.291
 7537TIP3    H222576   2.834   6.571   5.211
 7538TIP3   OH222577   2.325   0.012   3.786
 7538TIP3    H122578   2.237   0.044   3.768
 7538TIP3    H222579   2.344  -0.048   3.714
 7539TIP3   OH222580   4.108   3.847   5.714
 7539TIP3    H122581   4.127   3.927   5.763
 7539TIP3    H222582   4.026   3.865   5.669
 7540TIP3   OH222583   6.093   1.285   1.069
 7540TIP3    H122584   6.029   1.261   1.001
 7540TIP3    H222585   6.082   1.380   1.079
 7541TIP3   OH222586   0.290   4.989   0.555
 7541TIP3    H122587   0.309   5.074   0.594
 7541TIP3    H222588   0.255   5.009   0.468
 7542TIP3   OH222589   2.220   2.421   3.179
 7542TIP3    H122590   2.181   2.430   3.092
 7542TIP3    H222591   2.171   2.350   3.220
 7543TIP3   OH222592   4.991   4.340   2.736
 7543TIP3    H122593   5.082   4.311   2.744
 7543TIP3    H222594   4.947   4.301   2.812
 7544TIP3   OH222595   6.430   3.141   4.050
 7544TIP3    H122596   6.376   3.219   4.067
 7544TIP3    H222597   6.483   3.131   4.128
 7545TIP3   OH222598   4.410   1.568   4.560
 7545TIP3    H122599   4.364   1.652   4.558
 7545TIP3    H222600   4.374   1.523   4.637
 7546TIP3   OH222601   2.283   1.300   3.410
 7546TIP3    H122602   2.305   1.392   3.428
 7546TIP3    H222603   2.284   1.259   3.497
 7547TIP3   OH222604   6.049   6.704   1.928
 7547TIP3    H122605   6.007   6.687   1.844
 7547TIP3    H222606   6.073   6.617   1.961
 7548TIP3   OH222607   5.196   2.147   3.142
 7548TIP3    H122608   5.234   2.129   3.056
 7548TIP3    H222609   5.179   2.242   3.141
 7549TIP3   OH222610   0.854   4.394   4.087
 7549TIP3    H122611   0.891   4.390   4.175
 7549TIP3    H222612   0.807   4.311   4.078
 7550TIP3   OH222613   3.591   0.381   5.397
 7550TIP3    H122614   3.571   0.368   5.304
 7550TIP3    H222615   3.659   0.449   5.397
 7551TIP3   OH222616   5.071   0.832   0.940
 7551TIP3    H122617   5.079   0.794   0.853
 7551TIP3    H222618   5.138   0.901   0.941
 7552TIP3   OH222619   5.146   4.115   0.296
 7552TIP3    H122620   5.061   4.143   0.263
 7552TIP3    H222621   5.197   4.196   0.302
 7553TIP3   OH222622   0.071   0.820   2.642
 7553TIP3    H122623  -0.009   0.825   2.590
 7553TIP3    H222624   0.120   0.747   2.605
 7554TIP3   OH222625   5.569   3.335   4.907
 7554TIP3    H122626   5.628   3.261   4.919
 7554TIP3    H222627   5.482   3.295   4.905
 7555TIP3   OH222628   3.899   5.290   0.545
 7555TIP3    H122629   3.967   5.233   0.508
 7555TIP3    H222630   3.902   5.369   0.492
 7556TIP3   OH222631   7.218   1.670   2.481
 7556TIP3    H122632   7.314   1.678   2.486
 7556TIP3    H222633   7.202   1.575   2.485
 7557TIP3   OH222634   2.528   1.922   5.202
 7557TIP3    H122635   2.482   1.841   5.182
 7557TIP3    H222636   2.616   1.909   5.166
 7558TIP3   OH222637   5.242   4.838   4.295
 7558TIP3    H122638   5.309   4.862   4.231
 7558TIP3    H222639   5.167   4.812   4.242
 7559TIP3   OH222640   2.016   0.138   4.749
 7559TIP3    H122641   2.001   0.108   4.659
 7559TIP3    H222642   2.089   0.083   4.780
 7560TIP3   OH222643   1.144   5.276   5.871
 7560TIP3    H122644   1.168   5.308   5.958
 7560TIP3    H222645   1.228   5.260   5.828
 7561TIP3   OH222646   3.131   2.356   2.338
 7561TIP3    H122647   3.220   2.325   2.319
 7561TIP3    H222648   3.074   2.296   2.291
 7562TIP3   OH222649   3.608   6.294   5.200
 7562TIP3    H122650   3.637   6.366   5.144
 7562TIP3    H222651   3.595   6.220   5.141
 7563TIP3   OH222652   2.256   4.513   2.764
 7563TIP3    H122653   2.268   4.445   2.698
 7563TIP3    H222654   2.198   4.577   2.722
 7564TIP3   OH222655   2.673   5.427   2.580
 7564TIP3    H122656   2.683   5.463   2.669
 7564TIP3    H222657   2.762   5.403   2.555
 7565TIP3   OH222658   3.305   0.883   5.778
 7565TIP3    H122659   3.288   0.960   5.833
 7565TIP3    H222660   3.362   0.916   5.709
 7566TIP3   OH222661   0.315   2.885   3.882
 7566TIP3    H122662   0.224   2.867   3.862
 7566TIP3    H222663   0.314   2.931   3.966
 7567TIP3   OH222664   7.194   4.927   3.115
 7567TIP3    H122665   7.271   4.873   3.102
 7567TIP3    H222666   7.228   5.017   3.119
 7568TIP3   OH222667   1.189   2.752   5.419
 7568TIP3    H122668   1.186   2.669   5.466
 7568TIP3    H222669   1.098   2.771   5.398
 7569TIP3   OH222670   6.865   0.378   2.848
 7569TIP3    H122671   6.854   0.423   2.932
 7569TIP3    H222672   6.885   0.286   2.872
 7570TIP3   OH222673   1.470   1.108   1.765
 7570TIP3    H122674   1.374   1.099   1.764
 7570TIP3    H222675   1.485   1.199   1.738
 7571TIP3   OH222676   6.656   1.201   0.164
 7571TIP3    H122677   6.676   1.254   0.241
 7571TIP3    H222678   6.560   1.202   0.158
 7572TIP3   OH222679   4.568   6.112   4.424
 7572TIP3    H122680   4.514   6.060   4.484
 7572TIP3    H222681   4.515   6.190   4.407
 7573TIP3   OH222682   1.565   4.416   4.882
 7573TIP3    H122683   1.584   4.497   4.835
 7573TIP3    H222684   1.558   4.350   4.814
 7574TIP3   OH222685   6.501   4.003   4.072
 7574TIP3    H122686   6.577   3.978   4.020
 7574TIP3    H222687   6.436   4.031   4.007
 7575TIP3   OH222688   3.755   5.969   3.354
 7575TIP3    H122689   3.811   6.038   3.317
 7575TIP3    H222690   3.808   5.890   3.349
 7576TIP3   OH222691   2.295   0.725   3.293
 7576TIP3    H122692   2.233   0.737   3.365
 7576TIP3    H222693   2.251   0.664   3.232
 7577TIP3   OH222694   3.279   3.154   1.447
 7577TIP3    H122695   3.322   3.069   1.434
 7577TIP3    H222696   3.342   3.217   1.413
 7578TIP3   OH222697   3.881   6.102   0.374
 7578TIP3    H122698   3.820   6.086   0.303
 7578TIP3    H222699   3.833   6.157   0.435
 7579TIP3   OH222700   0.405   6.010   2.332
 7579TIP3    H122701   0.337   6.065   2.293
 7579TIP3    H222702   0.475   6.007   2.267
 7580TIP3   OH222703   1.653   1.931   2.147
 7580TIP3    H122704   1.650   1.836   2.154
 7580TIP3    H222705   1.635   1.949   2.055
 7581TIP3   OH222706   1.825   3.281   4.317
 7581TIP3    H122707   1.869   3.250   4.396
 7581TIP3    H222708   1.819   3.376   4.329
 7582TIP3   OH222709   0.613   4.730   0.922
 7582TIP3    H122710   0.693   4.775   0.898
 7582TIP3    H222711   0.598   4.668   0.851
 7583TIP3   OH222712   6.097   3.071   3.450
 7583TIP3    H122713   6.031   3.023   3.500
 7583TIP3    H222714   6.155   3.108   3.516
 7584TIP3   OH222715   4.853   4.976   2.043
 7584TIP3    H122716   4.800   4.935   1.975
 7584TIP3    H222717   4.862   5.067   2.015
 7585TIP3   OH222718   0.221   5.348   2.326
 7585TIP3    H122719   0.167   5.412   2.374
 7585TIP3    H222720   0.221   5.271   2.382
 7586TIP3   OH222721   6.646   1.010   1.173
 7586TIP3    H122722   6.656   1.085   1.115
 7586TIP3    H222723   6.678   1.041   1.258
 7587TIP3   OH222724   2.693   3.690   0.810
 7587TIP3    H122725   2.756   3.627   0.842
 7587TIP3    H222726   2.677   3.749   0.884
 7588TIP3   OH222727   0.457   4.024   5.176
 7588TIP3    H122728   0.438   4.105   5.129
 7588TIP3    H222729   0.552   4.014   5.171
 7589TIP3   OH222730   6.885   3.466   5.720
 7589TIP3    H122731   6.899   3.379   5.684
 7589TIP3    H222732   6.875   3.523   5.644
 7590TIP3   OH222733   2.046   1.315   3.253
 7590TIP3    H122734   1.978   1.369   3.295
 7590TIP3    H222735   2.125   1.335   3.303
 7591TIP3   OH222736   3.209   0.881   2.379
 7591TIP3    H122737   3.161   0.940   2.321
 7591TIP3    H222738   3.300   0.888   2.352
 7592TIP3   OH222739   2.353   5.100   5.147
 7592TIP3    H122740   2.275   5.121   5.095
 7592TIP3    H222741   2.410   5.176   5.137
 7593TIP3   OH222742   2.764   0.794   3.037
 7593TIP3    H122743   2.702   0.843   3.091
 7593TIP3    H222744   2.709   0.734   2.986
 7594TIP3   OH222745   5.750   0.789   5.887
 7594TIP3    H122746   5.755   0.859   5.821
 7594TIP3    H222747   5.841   0.774   5.913
 7595TIP3   OH222748   4.573   4.117   0.673
 7595TIP3    H122749   4.494   4.144   0.626
 7595TIP3    H222750   4.630   4.194   0.670
 7596TIP3   OH222751   3.248   0.294   4.685
 7596TIP3    H122752   3.162   0.336   4.679
 7596TIP3    H222753   3.286   0.329   4.766
 7597TIP3   OH222754   5.060   3.211   1.135
 7597TIP3    H122755   5.142   3.183   1.177
 7597TIP3    H222756   5.077   3.202   1.041
 7598TIP3   OH222757   3.473   4.308   0.262
 7598TIP3    H122758   3.387   4.269   0.252
 7598TIP3    H222759   3.527   4.266   0.195
 7599TIP3   OH222760   1.683   2.572   1.756
 7599TIP3    H122761   1.644   2.659   1.751
 7599TIP3    H222762   1.744   2.576   1.829
 7600TIP3   OH222763   4.753   2.540   3.992
 7600TIP3    H122764   4.840   2.580   3.997
 7600TIP3    H222765   4.769   2.451   3.958
 7601TIP3   OH222766   5.739   5.799   1.679
 7601TIP3    H122767   5.748   5.729   1.614
 7601TIP3    H222768   5.671   5.856   1.642
 7602TIP3   OH222769   7.055   5.218   5.647
 7602TIP3    H122770   7.146   5.211   5.677
 7602TIP3    H222771   7.005   5.165   5.709
 7603TIP3   OH222772   0.913   5.154   0.526
 7603TIP3    H122773   0.906   5.247   0.548
 7603TIP3    H222774   0.862   5.109   0.593
 7604TIP3   OH222775   0.595   0.904   0.884
 7604TIP3    H122776   0.542   0.981   0.904
 7604TIP3    H222777   0.554   0.832   0.932
 7605TIP3   OH222778   3.563   2.895   4.971
 7605TIP3    H122779   3.593   2.979   4.936
 7605TIP3    H222780   3.637   2.863   5.024
 7606TIP3   OH222781   2.138   5.471   0.917
 7606TIP3    H122782   2.050   5.448   0.889
 7606TIP3    H222783   2.151   5.421   0.998
 7607TIP3   OH222784   6.430   5.348   2.589
 7607TIP3    H122785   6.459   5.429   2.549
 7607TIP3    H222786   6.426   5.285   2.517
 7608TIP3   OH222787   4.692   4.838   3.344
 7608TIP3    H122788   4.730   4.894   3.412
 7608TIP3    H222789   4.598   4.849   3.354
 7609TIP3   OH222790   0.048   5.520   2.436
 7609TIP3    H122791   0.004   5.493   2.516
 7609TIP3    H222792   0.028   5.613   2.428
 7610TIP3   OH222793   6.214   2.556   2.772
 7610TIP3    H122794   6.272   2.484   2.795
 7610TIP3    H222795   6.127   2.516   2.767
 7611TIP3   OH222796   1.471   1.081   3.598
 7611TIP3    H122797   1.447   1.115   3.685
 7611TIP3    H222798   1.442   0.990   3.600
 7612TIP3   OH222799   4.946   5.293   3.955
 7612TIP3    H122800   5.024   5.265   4.002
 7612TIP3    H222801   4.881   5.310   4.024
 7613TIP3   OH222802   3.702   0.689   0.874
 7613TIP3    H122803   3.622   0.712   0.921
 7613TIP3    H222804   3.744   0.774   0.855
 7614TIP3   OH222805   3.084   5.910   0.725
 7614TIP3    H122806   3.093   5.848   0.653
 7614TIP3    H222807   3.168   5.907   0.770
 7615TIP3   OH222808   6.526   0.941   3.709
 7615TIP3    H122809   6.572   1.003   3.652
 7615TIP3    H222810   6.580   0.862   3.706
 7616TIP3   OH222811   3.352   0.182   2.845
 7616TIP3    H122812   3.341   0.218   2.933
 7616TIP3    H222813   3.296   0.237   2.790
 7617TIP3   OH222814   5.342   4.085   3.534
 7617TIP3    H122815   5.247   4.078   3.531
 7617TIP3    H222816   5.373   4.002   3.499
 7618TIP3   OH222817   6.102   2.560   0.046
 7618TIP3    H122818   6.125   2.617   0.120
 7618TIP3    H222819   6.179   2.562  -0.011
 7619TIP3   OH222820   6.875   1.966   4.587
 7619TIP3    H122821   6.877   1.928   4.674
 7619TIP3    H222822   6.938   1.914   4.536
 7620TIP3   OH222823   2.777   5.822   4.255
 7620TIP3    H122824   2.796   5.750   4.194
 7620TIP3    H222825   2.772   5.900   4.199
 7621TIP3   OH222826   5.599   4.420   0.450
 7621TIP3    H122827   5.609   4.510   0.420
 7621TIP3    H222828   5.515   4.420   0.496
 7622TIP3   OH222829   3.696   4.096   1.699
 7622TIP3    H122830   3.603   4.081   1.715
 7622TIP3    H222831   3.711   4.187   1.725
 7623TIP3   OH222832   1.481   2.847   3.082
 7623TIP3    H122833   1.447   2.891   3.004
 7623TIP3    H222834   1.407   2.847   3.144
 7624TIP3   OH222835   3.684   1.786   3.050
 7624TIP3    H122836   3.686   1.854   3.118
 7624TIP3    H222837   3.768   1.794   3.007
 7625TIP3   OH222838   0.009   0.470   0.140
 7625TIP3    H122839  -0.068   0.418   0.158
 7625TIP3    H222840  -0.002   0.549   0.195
 7626TIP3   OH222841   5.770   5.045   3.565
 7626TIP3    H122842   5.777   5.140   3.563
 7626TIP3    H222843   5.762   5.024   3.658
 7627TIP3   OH222844   6.040   0.067   4.909
 7627TIP3    H122845   6.079   0.053   4.995
 7627TIP3    H222846   5.976   0.136   4.923
 7628TIP3   OH222847   3.320   1.124   1.941
 7628TIP3    H122848   3.398   1.076   1.968
 7628TIP3    H222849   3.275   1.065   1.880
 7629TIP3   OH222850   2.819   3.184   4.971
 7629TIP3    H122851   2.760   3.258   4.981
 7629TIP3    H222852   2.883   3.195   5.042
 7630TIP3   OH222853   4.205   3.639   4.348
 7630TIP3    H122854   4.223   3.559   4.298
 7630TIP3    H222855   4.259   3.631   4.427
 7631TIP3   OH222856   5.895   0.390   2.062
 7631TIP3    H122857   5.891   0.411   2.155
 7631TIP3    H222858   5.986   0.404   2.038
 7632TIP3   OH222859   4.593   0.444   1.342
 7632TIP3    H122860   4.546   0.362   1.353
 7632TIP3    H222861   4.525   0.511   1.346
 7633TIP3   OH222862   4.497   5.606   1.670
 7633TIP3    H122863   4.488   5.661   1.748
 7633TIP3    H222864   4.458   5.522   1.695
 7634TIP3   OH222865   3.560   3.906   1.036
 7634TIP3    H122866   3.538   3.882   0.946
 7634TIP3    H222867   3.598   3.826   1.072
 7635TIP3   OH222868   0.402   1.569   5.614
 7635TIP3    H122869   0.364   1.605   5.534
 7635TIP3    H222870   0.482   1.619   5.627
 7636TIP3   OH222871   5.522   1.014   0.212
 7636TIP3    H122872   5.518   0.953   0.286
 7636TIP3    H222873   5.435   1.010   0.172
 7637TIP3   OH222874   7.174   4.852   5.371
 7637TIP3    H122875   7.082   4.828   5.383
 7637TIP3    H222876   7.223   4.791   5.426
 7638TIP3   OH222877   3.320   4.501   2.986
 7638TIP3    H122878   3.345   4.549   2.907
 7638TIP3    H222879   3.224   4.506   2.988
 7639TIP3   OH222880   2.429   2.108   2.171
 7639TIP3    H122881   2.334   2.114   2.154
 7639TIP3    H222882   2.440   2.144   2.259
 7640TIP3   OH222883   4.239   0.032   3.838
 7640TIP3    H122884   4.155  -0.001   3.807
 7640TIP3    H222885   4.234   0.127   3.825
 7641TIP3   OH222886   3.980   4.969   1.151
 7641TIP3    H122887   4.066   4.931   1.132
 7641TIP3    H222888   3.918   4.899   1.130
 7642TIP3   OH222889   5.489   1.609   0.057
 7642TIP3    H122890   5.481   1.519   0.026
 7642TIP3    H222891   5.577   1.635   0.031
 7643TIP3   OH222892   7.023   5.402   1.048
 7643TIP3    H122893   7.097   5.358   1.006
 7643TIP3    H222894   7.012   5.356   1.131
 7644TIP3   OH222895   4.623   6.585   4.961
 7644TIP3    H122896   4.656   6.544   4.881
 7644TIP3    H222897   4.655   6.676   4.956
 7645TIP3   OH222898   0.652   5.933   3.790
 7645TIP3    H122899   0.652   6.028   3.774
 7645TIP3    H222900   0.661   5.894   3.703
 7646TIP3   OH222901   7.138   5.760   4.260
 7646TIP3    H122902   7.180   5.698   4.320
 7646TIP3    H222903   7.045   5.743   4.269
 7647TIP3   OH222904   1.548   4.321   4.635
 7647TIP3    H122905   1.642   4.323   4.616
 7647TIP3    H222906   1.515   4.405   4.604
 7648TIP3   OH222907   0.810   1.135   4.525
 7648TIP3    H122908   0.845   1.081   4.455
 7648TIP3    H222909   0.833   1.224   4.500
 7649TIP3   OH222910   1.606   0.070   3.562
 7649TIP3    H122911   1.654   0.143   3.523
 7649TIP3    H222912   1.648   0.056   3.647
 7650TIP3   OH222913   2.890   0.580   5.763
 7650TIP3    H122914   2.814   0.627   5.729
 7650TIP3    H222915   2.959   0.645   5.765
 7651TIP3   OH222916   4.427   4.204   4.373
 7651TIP3    H122917   4.383   4.272   4.425
 7651TIP3    H222918   4.442   4.133   4.436
 7652TIP3   OH222919   2.859   2.534   3.096
 7652TIP3    H122920   2.943   2.488   3.097
 7652TIP3    H222921   2.841   2.549   3.003
 7653TIP3   OH222922   5.904   3.148   4.412
 7653TIP3    H122923   5.990   3.167   4.449
 7653TIP3    H222924   5.845   3.148   4.488
 7654TIP3   OH222925   5.964   1.219   3.820
 7654TIP3    H122926   5.882   1.169   3.818
 7654TIP3    H222927   5.979   1.244   3.729
 7655TIP3   OH222928   4.653   6.399   1.312
 7655TIP3    H122929   4.699   6.456   1.373
 7655TIP3    H222930   4.629   6.322   1.363
 7656TIP3   OH222931   1.105   5.002   4.761
 7656TIP3    H122932   1.147   5.007   4.675
 7656TIP3    H222933   1.032   4.940   4.748
 7657TIP3   OH222934   2.725   1.090   1.335
 7657TIP3    H122935   2.637   1.092   1.296
 7657TIP3    H222936   2.768   1.168   1.299
 7658TIP3   OH222937   1.392   0.803   0.186
 7658TIP3    H122938   1.331   0.750   0.133
 7658TIP3    H222939   1.352   0.890   0.188
 7659TIP3   OH222940   4.892   0.993   3.008
 7659TIP3    H122941   4.904   0.997   3.103
 7659TIP3    H222942   4.967   0.944   2.976
 7660TIP3   OH222943   4.671   4.412   0.114
 7660TIP3    H122944   4.582   4.445   0.119
 7660TIP3    H222945   4.663   4.328   0.068
 7661TIP3   OH222946   7.124   1.461   0.920
 7661TIP3    H122947   7.071   1.535   0.949
 7661TIP3    H222948   7.169   1.432   0.999
 7662TIP3   OH222949   0.925   1.232   2.503
 7662TIP3    H122950   0.952   1.141   2.503
 7662TIP3    H222951   0.975   1.272   2.431
 7663TIP3   OH222952   0.746   6.457   2.040
 7663TIP3    H122953   0.690   6.385   2.012
 7663TIP3    H222954   0.685   6.528   2.062
 7664TIP3   OH222955   2.824   3.498   4.166
 7664TIP3    H122956   2.811   3.493   4.071
 7664TIP3    H222957   2.874   3.419   4.187
 7665TIP3   OH222958   3.227   2.658   0.934
 7665TIP3    H122959   3.143   2.644   0.977
 7665TIP3    H222960   3.276   2.714   0.994
 7666TIP3   OH222961   5.168   1.182   4.070
 7666TIP3    H122962   5.173   1.109   4.008
 7666TIP3    H222963   5.138   1.141   4.151
 7667TIP3   OH222964   4.284   1.662   1.454
 7667TIP3    H122965   4.263   1.575   1.488
 7667TIP3    H222966   4.361   1.688   1.505
 7668TIP3   OH222967   4.569   1.366   1.628
 7668TIP3    H122968   4.602   1.341   1.541
 7668TIP3    H222969   4.574   1.285   1.679
 7669TIP3   OH222970   3.492   4.915   0.083
 7669TIP3    H122971   3.560   4.954   0.138
 7669TIP3    H222972   3.540   4.860   0.021
 7670TIP3   OH222973   2.628   3.064   4.081
 7670TIP3    H122974   2.612   2.989   4.138
 7670TIP3    H222975   2.666   3.130   4.139
 7671TIP3   OH222976   3.978   4.132   5.414
 7671TIP3    H122977   3.937   4.218   5.427
 7671TIP3    H222978   4.061   4.151   5.371
 7672TIP3   OH222979   0.891   4.301   1.431
 7672TIP3    H122980   0.881   4.373   1.493
 7672TIP3    H222981   0.985   4.297   1.413
 7673TIP3   OH222982   3.273   3.369   1.698
 7673TIP3    H122983   3.240   3.338   1.614
 7673TIP3    H222984   3.310   3.456   1.679
 7674TIP3   OH222985   1.796   5.996   3.145
 7674TIP3    H122986   1.700   5.990   3.146
 7674TIP3    H222987   1.815   6.079   3.187
 7675TIP3   OH222988   6.869   2.953   2.558
 7675TIP3    H122989   6.921   2.914   2.487
 7675TIP3    H222990   6.830   3.031   2.518
 7676TIP3   OH222991   5.232   5.393   1.312
 7676TIP3    H122992   5.300   5.455   1.338
 7676TIP3    H222993   5.268   5.307   1.333
 7677TIP3   OH222994   3.931   1.170   5.115
 7677TIP3    H122995   3.934   1.104   5.046
 7677TIP3    H222996   3.879   1.241   5.078
 7678TIP3   OH222997   3.505   4.763   3.334
 7678TIP3    H122998   3.548   4.679   3.317
 7678TIP3    H222999   3.412   4.743   3.333
 7679TIP3   OH223000   6.218   1.720   0.677
 7679TIP3    H123001   6.234   1.655   0.745
 7679TIP3    H223002   6.249   1.802   0.714
 7680TIP3   OH223003   6.771   0.301   2.547
 7680TIP3    H123004   6.771   0.334   2.636
 7680TIP3    H223005   6.733   0.213   2.553
 7681TIP3   OH223006   1.566   3.528   2.986
 7681TIP3    H123007   1.503   3.595   2.958
 7681TIP3    H223008   1.586   3.480   2.905
 7682TIP3   OH223009   4.189   1.412   4.707
 7682TIP3    H123010   4.120   1.452   4.759
 7682TIP3    H223011   4.255   1.385   4.772
 7683TIP3   OH223012   3.062   6.780   2.606
 7683TIP3    H123013   3.145   6.769   2.559
 7683TIP3    H223014   3.019   6.853   2.562
 7684TIP3   OH223015   2.996   1.995   3.491
 7684TIP3    H123016   3.085   1.978   3.457
 7684TIP3    H223017   3.009   2.011   3.584
 7685TIP3   OH223018   3.567   6.215   4.336
 7685TIP3    H123019   3.522   6.281   4.284
 7685TIP3    H223020   3.646   6.258   4.368
 7686TIP3   OH223021   3.835   0.476   4.465
 7686TIP3    H123022   3.918   0.434   4.444
 7686TIP3    H223023   3.769   0.407   4.455
 7687TIP3   OH223024   5.462   4.939   0.610
 7687TIP3    H123025   5.472   4.936   0.705
 7687TIP3    H223026   5.374   4.906   0.594
 7688TIP3   OH223027   1.656   5.429   0.203
 7688TIP3    H123028   1.654   5.408   0.110
 7688TIP3    H223029   1.678   5.347   0.246
 7689TIP3   OH223030   0.965   1.650   1.310
 7689TIP3    H123031   1.036   1.595   1.278
 7689TIP3    H223032   0.910   1.592   1.361
 7690TIP3   OH223033   0.999   6.151   2.570
 7690TIP3    H123034   0.989   6.238   2.607
 7690TIP3    H223035   1.009   6.093   2.646
 7691TIP3   OH223036   3.200   2.830   2.977
 7691TIP3    H123037   3.180   2.844   3.069
 7691TIP3    H223038   3.215   2.917   2.941
 7692TIP3   OH223039   4.857   4.638   0.990
 7692TIP3    H123040   4.913   4.560   0.987
 7692TIP3    H223041   4.835   4.655   0.899
 7693TIP3   OH223042   0.909   1.922   1.229
 7693TIP3    H123043   0.940   1.940   1.318
 7693TIP3    H223044   0.930   1.830   1.214
 7694TIP3   OH223045   6.128   3.726   2.434
 7694TIP3    H123046   6.223   3.733   2.444
 7694TIP3    H223047   6.116   3.651   2.375
 7695TIP3   OH223048   3.691   1.776   1.038
 7695TIP3    H123049   3.665   1.746   1.125
 7695TIP3    H223050   3.785   1.760   1.033
 7696TIP3   OH223051   5.834   0.632   1.865
 7696TIP3    H123052   5.922   0.645   1.901
 7696TIP3    H223053   5.823   0.536   1.862
 7697TIP3   OH223054   5.607   2.364   1.049
 7697TIP3    H123055   5.643   2.282   1.016
 7697TIP3    H223056   5.514   2.348   1.059
 7698TIP3   OH223057   3.640   4.323   1.134
 7698TIP3    H123058   3.687   4.240   1.127
 7698TIP3    H223059   3.563   4.302   1.188
 7699TIP3   OH223060   4.433   2.891   5.142
 7699TIP3    H123061   4.349   2.927   5.170
 7699TIP3    H223062   4.416   2.798   5.129
 7700TIP3   OH223063   6.572   6.290   4.826
 7700TIP3    H123064   6.660   6.307   4.794
 7700TIP3    H223065   6.574   6.200   4.859
 7701TIP3   OH223066   3.484   3.062   3.230
 7701TIP3    H123067   3.503   3.133   3.292
 7701TIP3    H223068   3.563   3.007   3.233
 7702TIP3   OH223069   2.847   1.861   2.470
 7702TIP3    H123070   2.882   1.773   2.457
 7702TIP3    H223071   2.891   1.894   2.548
 7703TIP3   OH223072   4.791   3.562   1.120
 7703TIP3    H123073   4.764   3.526   1.204
 7703TIP3    H223074   4.717   3.548   1.061
 7704TIP3   OH223075   0.709   4.832   4.103
 7704TIP3    H123076   0.743   4.793   4.022
 7704TIP3    H223077   0.770   4.902   4.123
 7705TIP3   OH223078   2.428   5.479   1.732
 7705TIP3    H123079   2.517   5.458   1.703
 7705TIP3    H223080   2.394   5.537   1.664
 7706TIP3   OH223081   6.364   4.446   0.644
 7706TIP3    H123082   6.381   4.529   0.598
 7706TIP3    H223083   6.270   4.434   0.637
 7707TIP3   OH223084   5.510   2.523   2.071
 7707TIP3    H123085   5.526   2.430   2.086
 7707TIP3    H223086   5.506   2.531   1.975
 7708TIP3   OH223087   3.738   3.178   3.988
 7708TIP3    H123088   3.764   3.207   4.075
 7708TIP3    H223089   3.668   3.238   3.962
 7709TIP3   OH223090   4.828   0.953   2.537
 7709TIP3    H123091   4.858   0.992   2.455
 7709TIP3    H223092   4.827   0.859   2.520
 7710TIP3   OH223093   4.109   6.222   4.290
 7710TIP3    H123094   4.057   6.144   4.310
 7710TIP3    H223095   4.080   6.248   4.202
 7711TIP3   OH223096   6.651   2.461   1.855
 7711TIP3    H123097   6.650   2.409   1.936
 7711TIP3    H223098   6.629   2.549   1.884
 7712TIP3   OH223099   4.606   0.839   2.969
 7712TIP3    H123100   4.518   0.816   2.999
 7712TIP3    H223101   4.621   0.927   3.004
 7713TIP3   OH223102   6.051   4.190   3.942
 7713TIP3    H123103   6.085   4.278   3.958
 7713TIP3    H223104   6.043   4.185   3.846
 7714TIP3   OH223105   4.224   0.767   4.643
 7714TIP3    H123106   4.140   0.810   4.627
 7714TIP3    H223107   4.208   0.675   4.623
 7715TIP3   OH223108   3.108   5.342   0.036
 7715TIP3    H123109   3.034   5.281   0.034
 7715TIP3    H223110   3.161   5.319  -0.040
 7716TIP3   OH223111   3.140   2.861   3.256
 7716TIP3    H123112   3.216   2.818   3.296
 7716TIP3    H223113   3.068   2.799   3.270
 7717TIP3   OH223114   5.773   5.349   1.507
 7717TIP3    H123115   5.758   5.444   1.503
 7717TIP3    H223116   5.777   5.322   1.415
 7718TIP3   OH223117   3.407   1.866   1.742
 7718TIP3    H123118   3.407   1.865   1.838
 7718TIP3    H223119   3.386   1.956   1.719
 7719TIP3   OH223120   2.886   3.751   1.725
 7719TIP3    H123121   2.821   3.697   1.680
 7719TIP3    H223122   2.970   3.712   1.702
 7720TIP3   OH223123   3.840   1.975   5.570
 7720TIP3    H123124   3.834   2.008   5.659
 7720TIP3    H223125   3.825   2.052   5.515
 7721TIP3   OH223126   3.463   2.548   5.080
 7721TIP3    H123127   3.465   2.583   4.991
 7721TIP3    H223128   3.401   2.603   5.126
 7722TIP3   OH223129   3.264   1.304   2.512
 7722TIP3    H123130   3.175   1.295   2.546
 7722TIP3    H223131   3.311   1.352   2.581
 7723TIP3   OH223132   0.807   2.147   1.502
 7723TIP3    H123133   0.894   2.107   1.494
 7723TIP3    H223134   0.811   2.195   1.585
 7724TIP3   OH223135   1.192   6.115   4.355
 7724TIP3    H123136   1.259   6.180   4.377
 7724TIP3    H223137   1.208   6.096   4.262
 7725TIP3   OH223138   4.528   0.192   3.930
 7725TIP3    H123139   4.524   0.136   3.852
 7725TIP3    H223140   4.595   0.257   3.909
 7726TIP3   OH223141   2.464   4.821   0.389
 7726TIP3    H123142   2.419   4.836   0.306
 7726TIP3    H223143   2.554   4.802   0.364
 7727TIP3   OH223144   5.565   0.660   3.185
 7727TIP3    H123145   5.608   0.735   3.225
 7727TIP3    H223146   5.569   0.676   3.091
 7728TIP3   OH223147   4.425   3.742   0.085
 7728TIP3    H123148   4.354   3.779   0.137
 7728TIP3    H223149   4.383   3.715   0.003
 7729TIP3   OH223150   2.976   6.202   4.324
 7729TIP3    H123151   3.028   6.137   4.371
 7729TIP3    H223152   2.886   6.168   4.329
 7730TIP3   OH223153   6.812   3.831   0.410
 7730TIP3    H123154   6.898   3.819   0.371
 7730TIP3    H223155   6.819   3.913   0.459
 7731TIP3   OH223156   4.666   5.168   0.920
 7731TIP3    H123157   4.738   5.223   0.950
 7731TIP3    H223158   4.652   5.192   0.829
 7732TIP3   OH223159   0.546   3.156   5.462
 7732TIP3    H123160   0.515   3.240   5.496
 7732TIP3    H223161   0.575   3.108   5.539
 7733TIP3   OH223162   4.499   3.568   2.923
 7733TIP3    H123163   4.441   3.509   2.972
 7733TIP3    H223164   4.440   3.636   2.890
 7734TIP3   OH223165   5.013   0.260   0.595
 7734TIP3    H123166   5.047   0.332   0.649
 7734TIP3    H223167   5.068   0.262   0.516
 7735TIP3   OH223168   3.890   3.365   1.731
 7735TIP3    H123169   3.896   3.439   1.791
 7735TIP3    H223170   3.963   3.378   1.669
 7736TIP3   OH223171   2.601   2.378   0.656
 7736TIP3    H123172   2.537   2.352   0.590
 7736TIP3    H223173   2.577   2.468   0.679
 7737TIP3   OH223174   3.107   2.738   5.538
 7737TIP3    H123175   3.168   2.806   5.511
 7737TIP3    H223176   3.112   2.671   5.469
 7738TIP3   OH223177   5.341   4.127   0.610
 7738TIP3    H123178   5.400   4.123   0.685
 7738TIP3    H223179   5.276   4.059   0.626
 7739TIP3   OH223180   6.207   6.364   3.600
 7739TIP3    H123181   6.299   6.384   3.585
 7739TIP3    H223182   6.206   6.273   3.629
 7740TIP3   OH223183   4.877   6.217   3.870
 7740TIP3    H123184   4.865   6.131   3.910
 7740TIP3    H223185   4.851   6.205   3.779
 7741TIP3   OH223186   2.216   1.451   4.958
 7741TIP3    H123187   2.156   1.484   4.890
 7741TIP3    H223188   2.204   1.512   5.031
 7742TIP3   OH223189   6.639   2.305   2.081
 7742TIP3    H123190   6.691   2.338   2.155
 7742TIP3    H223191   6.601   2.223   2.113
 7743TIP3   OH223192   3.768   1.071   1.380
 7743TIP3    H123193   3.693   1.072   1.321
 7743TIP3    H223194   3.736   1.028   1.459
 7744TIP3   OH223195   6.366   3.763   3.524
 7744TIP3    H123196   6.373   3.742   3.430
 7744TIP3    H223197   6.290   3.819   3.530
 7745TIP3   OH223198   4.320   4.348   4.864
 7745TIP3    H123199   4.271   4.416   4.910
 7745TIP3    H223200   4.377   4.395   4.803
 7746TIP3   OH223201   2.986   0.409   4.282
 7746TIP3    H123202   2.930   0.334   4.266
 7746TIP3    H223203   3.045   0.412   4.207
 7747TIP3   OH223204   1.910   4.837   4.009
 7747TIP3    H123205   1.962   4.758   3.994
 7747TIP3    H223206   1.974   4.905   4.025
 7748TIP3   OH223207   5.362   0.956   0.673
 7748TIP3    H123208   5.419   1.009   0.728
 7748TIP3    H223209   5.335   0.883   0.729
 7749TIP3   OH223210   6.453   0.756   3.506
 7749TIP3    H123211   6.453   0.692   3.435
 7749TIP3    H223212   6.466   0.840   3.462
 7750TIP3   OH223213   3.790   5.258   2.219
 7750TIP3    H123214   3.787   5.223   2.308
 7750TIP3    H223215   3.884   5.269   2.201
 7751TIP3   OH223216   1.678   1.592   2.725
 7751TIP3    H123217   1.753   1.534   2.732
 7751TIP3    H223218   1.716   1.680   2.724
 7752TIP3   OH223219   6.842   3.009   5.104
 7752TIP3    H123220   6.923   3.058   5.089
 7752TIP3    H223221   6.862   2.950   5.176
 7753TIP3   OH223222   2.267   4.812   3.781
 7753TIP3    H123223   2.288   4.806   3.688
 7753TIP3    H223224   2.320   4.743   3.821
 7754TIP3   OH223225   4.421   1.242   0.186
 7754TIP3    H123226   4.414   1.147   0.185
 7754TIP3    H223227   4.412   1.267   0.278
 7755TIP3   OH223228   6.645   0.396   2.297
 7755TIP3    H123229   6.601   0.480   2.310
 7755TIP3    H223230   6.691   0.381   2.380
 7756TIP3   OH223231   2.585   6.570   2.905
 7756TIP3    H123232   2.585   6.478   2.879
 7756TIP3    H223233   2.492   6.593   2.915
 7757TIP3   OH223234   2.113   0.265   3.868
 7757TIP3    H123235   2.120   0.215   3.950
 7757TIP3    H223236   2.089   0.200   3.803
 7758TIP3   OH223237   4.136   5.725   3.236
 7758TIP3    H123238   4.194   5.659   3.198
 7758TIP3    H223239   4.144   5.801   3.178
 7759TIP3   OH223240   6.954   1.299   2.499
 7759TIP3    H123241   6.943   1.362   2.427
 7759TIP3    H223242   6.866   1.265   2.515
 7760TIP3   OH223243   5.116   0.513   0.415
 7760TIP3    H123244   5.150   0.601   0.395
 7760TIP3    H223245   5.157   0.490   0.499
 7761TIP3   OH223246   1.514   6.034   5.209
 7761TIP3    H123247   1.489   5.988   5.129
 7761TIP3    H223248   1.605   6.008   5.224
 7762TIP3   OH223249   6.176   2.673   0.265
 7762TIP3    H123250   6.175   2.609   0.336
 7762TIP3    H223251   6.151   2.755   0.307
 7763TIP3   OH223252   4.922   5.137   3.755
 7763TIP3    H123253   4.929   5.197   3.829
 7763TIP3    H223254   4.833   5.102   3.760
 7764TIP3   OH223255   3.385   3.509   4.520
 7764TIP3    H123256   3.446   3.513   4.594
 7764TIP3    H223257   3.357   3.600   4.508
 7765TIP3   OH223258   1.378   4.021   0.202
 7765TIP3    H123259   1.323   3.958   0.155
 7765TIP3    H223260   1.460   4.022   0.153
 7766TIP3   OH223261   5.892   2.369   0.748
 7766TIP3    H123262   5.938   2.363   0.832
 7766TIP3    H223263   5.936   2.441   0.702
 7767TIP3   OH223264   0.315   5.557   3.186
 7767TIP3    H123265   0.285   5.525   3.101
 7767TIP3    H223266   0.408   5.576   3.173
 7768TIP3   OH223267   3.938   4.490   0.374
 7768TIP3    H123268   3.951   4.403   0.336
 7768TIP3    H223269   3.972   4.483   0.463
 7769TIP3   OH223270   6.510   5.095   3.408
 7769TIP3    H123271   6.547   5.059   3.327
 7769TIP3    H223272   6.541   5.036   3.476
 7770TIP3   OH223273   5.714   1.708   0.442
 7770TIP3    H123274   5.657   1.776   0.406
 7770TIP3    H223275   5.718   1.727   0.536
 7771TIP3   OH223276   2.828   4.704   2.562
 7771TIP3    H123277   2.836   4.799   2.569
 7771TIP3    H223278   2.909   4.670   2.602
 7772TIP3   OH223279   1.061   3.077   1.094
 7772TIP3    H123280   1.136   3.019   1.080
 7772TIP3    H223281   1.006   3.064   1.016
 7773TIP3   OH223282   0.322   0.978   4.642
 7773TIP3    H123283   0.384   1.015   4.704
 7773TIP3    H223284   0.248   1.038   4.642
 7774TIP3   OH223285   3.357   3.431   1.405
 7774TIP3    H123286   3.427   3.483   1.443
 7774TIP3    H223287   3.399   3.381   1.335
 7775TIP3   OH223288   2.343   0.030   3.416
 7775TIP3    H123289   2.265  -0.026   3.415
 7775TIP3    H223290   2.329   0.093   3.345
 7776TIP3   OH223291   2.428   4.189   3.634
 7776TIP3    H123292   2.360   4.223   3.693
 7776TIP3    H223293   2.384   4.119   3.585
 7777TIP3   OH223294   3.318   0.370   5.417
 7777TIP3    H123295   3.295   0.406   5.331
 7777TIP3    H223296   3.413   0.359   5.414
 7778TIP3   OH223297   0.489   1.939   1.141
 7778TIP3    H123298   0.544   1.936   1.219
 7778TIP3    H223299   0.465   2.032   1.132
 7779TIP3   OH223300   3.014   6.546   0.765
 7779TIP3    H123301   3.015   6.579   0.855
 7779TIP3    H223302   3.003   6.625   0.711
 7780TIP3   OH223303   4.386   5.017   4.134
 7780TIP3    H123304   4.362   4.958   4.205
 7780TIP3    H223305   4.355   4.973   4.055
 7781TIP3   OH223306   7.162   5.887   0.230
 7781TIP3    H123307   7.164   5.835   0.150
 7781TIP3    H223308   7.190   5.827   0.299
 7782TIP3   OH223309   5.156   5.418   2.778
 7782TIP3    H123310   5.196   5.391   2.696
 7782TIP3    H223311   5.066   5.440   2.754
 7783TIP3   OH223312   3.329   3.627   1.689
 7783TIP3    H123313   3.262   3.663   1.747
 7783TIP3    H223314   3.293   3.640   1.601
 7784TIP3   OH223315   0.375   4.305   3.820
 7784TIP3    H123316   0.404   4.296   3.911
 7784TIP3    H223317   0.313   4.234   3.807
 7785TIP3   OH223318   1.418   3.352   0.523
 7785TIP3    H123319   1.373   3.377   0.443
 7785TIP3    H223320   1.413   3.256   0.524
 7786TIP3   OH223321   3.874   2.249   2.624
 7786TIP3    H123322   3.779   2.237   2.627
 7786TIP3    H223323   3.887   2.315   2.555
 7787TIP3   OH223324   0.210   3.899   3.382
 7787TIP3    H123325   0.176   3.988   3.378
 7787TIP3    H223326   0.303   3.911   3.403
 7788TIP3   OH223327   6.338   2.388   1.882
 7788TIP3    H123328   6.433   2.383   1.884
 7788TIP3    H223329   6.313   2.409   1.972
 7789TIP3   OH223330   4.404   6.158   2.754
 7789TIP3    H123331   4.465   6.218   2.797
 7789TIP3    H223332   4.450   6.074   2.753
 7790TIP3   OH223333   5.201   4.092   1.216
 7790TIP3    H123334   5.225   4.153   1.286
 7790TIP3    H223335   5.186   4.148   1.140
 7791TIP3   OH223336   3.876   3.637   1.778
 7791TIP3    H123337   3.840   3.713   1.824
 7791TIP3    H223338   3.801   3.601   1.730
 7792TIP3   OH223339   3.601   3.549   1.738
 7792TIP3    H123340   3.621   3.549   1.645
 7792TIP3    H223341   3.509   3.574   1.744
 7793TIP3   OH223342   1.426   1.862   0.278
 7793TIP3    H123343   1.420   1.957   0.265
 7793TIP3    H223344   1.497   1.852   0.341
 7794TIP3   OH223345   6.446   4.839   1.706
 7794TIP3    H123346   6.416   4.750   1.691
 7794TIP3    H223347   6.521   4.850   1.648
 7795TIP3   OH223348   4.718   3.896   0.550
 7795TIP3    H123349   4.716   3.982   0.508
 7795TIP3    H223350   4.626   3.877   0.569
 7796TIP3   OH223351   4.468   5.969   2.453
 7796TIP3    H123352   4.466   6.043   2.392
 7796TIP3    H223353   4.547   5.982   2.505
 7797TIP3   OH223354   2.886   0.690   4.420
 7797TIP3    H123355   2.962   0.674   4.476
 7797TIP3    H223356   2.894   0.782   4.395
 7798TIP3   OH223357   2.468   5.526   2.117
 7798TIP3    H123358   2.423   5.443   2.102
 7798TIP3    H223359   2.543   5.503   2.172
 7799TIP3   OH223360   7.080   1.377   5.157
 7799TIP3    H123361   7.038   1.294   5.132
 7799TIP3    H223362   7.017   1.444   5.130
 7800TIP3   OH223363   0.065   1.678   0.113
 7800TIP3    H123364   0.068   1.627   0.194
 7800TIP3    H223365  -0.013   1.733   0.123
 7801TIP3   OH223366   2.806   1.954   5.664
 7801TIP3    H123367   2.861   1.883   5.631
 7801TIP3    H223368   2.767   1.992   5.585
 7802TIP3   OH223369   3.146   6.319   3.370
 7802TIP3    H123370   3.078   6.257   3.397
 7802TIP3    H223371   3.106   6.369   3.299
 7803TIP3   OH223372   0.086   1.593   5.300
 7803TIP3    H123373   0.064   1.543   5.221
 7803TIP3    H223374   0.012   1.652   5.312
 7804TIP3   OH223375   4.689   0.424   3.328
 7804TIP3    H123376   4.641   0.489   3.381
 7804TIP3    H223377   4.639   0.419   3.247
 7805TIP3   OH223378   2.121   1.862   2.596
 7805TIP3    H123379   2.037   1.863   2.549
 7805TIP3    H223380   2.186   1.846   2.528
 7806TIP3   OH223381   4.966   2.180   2.864
 7806TIP3    H123382   5.030   2.247   2.888
 7806TIP3    H223383   4.958   2.125   2.941
 7807TIP3   OH223384   6.875   0.029   3.472
 7807TIP3    H123385   6.790  -0.015   3.478
 7807TIP3    H223386   6.904   0.012   3.382
 7808TIP3   OH223387   3.000   1.906   4.423
 7808TIP3    H123388   2.928   1.953   4.380
 7808TIP3    H223389   3.056   1.975   4.459
 7809TIP3   OH223390   3.672   3.732   4.632
 7809TIP3    H123391   3.668   3.801   4.698
 7809TIP3    H223392   3.594   3.746   4.579
 7810TIP3   OH223393   6.231   3.780   5.026
 7810TIP3    H123394   6.177   3.750   4.953
 7810TIP3    H223395   6.251   3.871   5.006
 7811TIP3   OH223396   5.678   6.763   2.486
 7811TIP3    H123397   5.752   6.704   2.502
 7811TIP3    H223398   5.616   6.744   2.557
 7812TIP3   OH223399   2.809   5.807   0.598
 7812TIP3    H123400   2.902   5.795   0.579
 7812TIP3    H223401   2.807   5.866   0.673
 7813TIP3   OH223402   5.092   6.238   1.052
 7813TIP3    H123403   5.186   6.222   1.048
 7813TIP3    H223404   5.066   6.206   1.139
 7814TIP3   OH223405   4.277   0.147   3.459
 7814TIP3    H123406   4.220   0.199   3.402
 7814TIP3    H223407   4.365   0.163   3.426
 7815TIP3   OH223408   1.121   1.725   0.759
 7815TIP3    H123409   1.030   1.719   0.788
 7815TIP3    H223410   1.171   1.733   0.840
 7816TIP3   OH223411   1.163   5.146   1.685
 7816TIP3    H123412   1.070   5.124   1.689
 7816TIP3    H223413   1.200   5.111   1.766
 7817TIP3   OH223414   3.773   5.893   5.553
 7817TIP3    H123415   3.730   5.973   5.522
 7817TIP3    H223416   3.750   5.827   5.488
 7818TIP3   OH223417   6.837   5.353   4.767
 7818TIP3    H123418   6.815   5.319   4.680
 7818TIP3    H223419   6.804   5.442   4.766
 7819TIP3   OH223420   1.787   5.573   5.488
 7819TIP3    H123421   1.876   5.557   5.456
 7819TIP3    H223422   1.770   5.664   5.464
 7820TIP3   OH223423   2.208   0.439   3.461
 7820TIP3    H123424   2.294   0.408   3.488
 7820TIP3    H223425   2.167   0.470   3.541
 7821TIP3   OH223426   4.290   4.902   3.612
 7821TIP3    H123427   4.235   4.916   3.689
 7821TIP3    H223428   4.236   4.929   3.538
 7822TIP3   OH223429   0.733   0.649   3.437
 7822TIP3    H123430   0.720   0.555   3.443
 7822TIP3    H223431   0.647   0.683   3.412
 7823TIP3   OH223432   0.079   2.894   3.354
 7823TIP3    H123433   0.010   2.882   3.420
 7823TIP3    H223434   0.095   2.806   3.320
 7824TIP3   OH223435   0.544   6.093   4.496
 7824TIP3    H123436   0.533   6.067   4.405
 7824TIP3    H223437   0.596   6.174   4.492
 7825TIP3   OH223438   4.098   5.003   1.867
 7825TIP3    H123439   4.081   5.094   1.841
 7825TIP3    H223440   4.039   4.951   1.813
 7826TIP3   OH223441   3.051   5.693   0.524
 7826TIP3    H123442   3.145   5.676   0.524
 7826TIP3    H223443   3.022   5.669   0.436
 7827TIP3   OH223444   6.611   3.106   4.736
 7827TIP3    H123445   6.580   3.193   4.763
 7827TIP3    H223446   6.601   3.105   4.641
 7828TIP3   OH223447   6.916   4.722   1.665
 7828TIP3    H123448   6.897   4.749   1.755
 7828TIP3    H223449   6.981   4.652   1.674
 7829TIP3   OH223450   7.159   2.326   2.687
 7829TIP3    H123451   7.250   2.316   2.661
 7829TIP3    H223452   7.129   2.405   2.642
 7830TIP3   OH223453   0.094   3.957   2.146
 7830TIP3    H123454   0.096   3.866   2.176
 7830TIP3    H223455   0.101   3.951   2.050
 7831TIP3   OH223456   2.427   2.982   5.692
 7831TIP3    H123457   2.381   2.998   5.610
 7831TIP3    H223458   2.419   2.888   5.707
 7832TIP3   OH223459   3.903   0.749   0.614
 7832TIP3    H123460   3.898   0.825   0.672
 7832TIP3    H223461   3.836   0.689   0.647
 7833TIP3   OH223462   0.192   2.339   2.592
 7833TIP3    H123463   0.277   2.355   2.634
 7833TIP3    H223464   0.165   2.426   2.561
 7834TIP3   OH223465   2.011   0.370   5.460
 7834TIP3    H123466   2.013   0.461   5.491
 7834TIP3    H223467   1.921   0.342   5.474
 7835TIP3   OH223468   1.965   0.289   4.970
 7835TIP3    H123469   1.969   0.219   4.905
 7835TIP3    H223470   1.997   0.250   5.051
 7836TIP3   OH223471   0.006   0.535   4.077
 7836TIP3    H123472   0.091   0.508   4.111
 7836TIP3    H223473   0.022   0.620   4.036
 7837TIP3   OH223474   4.028   6.375   0.377
 7837TIP3    H123475   3.986   6.296   0.410
 7837TIP3    H223476   4.012   6.374   0.283
 7838TIP3   OH223477   6.150   1.254   4.558
 7838TIP3    H123478   6.215   1.188   4.582
 7838TIP3    H223479   6.198   1.337   4.561
 7839TIP3   OH223480   4.284   2.105   4.564
 7839TIP3    H123481   4.201   2.138   4.531
 7839TIP3    H223482   4.283   2.126   4.658
 7840TIP3   OH223483   3.190   0.021   1.873
 7840TIP3    H123484   3.249  -0.042   1.914
 7840TIP3    H223485   3.119  -0.032   1.837
 7841TIP3   OH223486   2.071   2.424   2.947
 7841TIP3    H123487   2.110   2.385   2.869
 7841TIP3    H223488   2.026   2.502   2.914
 7842TIP3   OH223489   2.192   1.640   3.459
 7842TIP3    H123490   2.198   1.665   3.367
 7842TIP3    H223491   2.281   1.612   3.482
 7843TIP3   OH223492   0.903   4.149   3.872
 7843TIP3    H123493   0.971   4.135   3.938
 7843TIP3    H223494   0.821   4.150   3.922
 7844TIP3   OH223495   2.728   0.279   4.959
 7844TIP3    H123496   2.638   0.295   4.985
 7844TIP3    H223497   2.741   0.185   4.972
 7845TIP3   OH223498   3.575   4.428   3.651
 7845TIP3    H123499   3.590   4.470   3.566
 7845TIP3    H223500   3.573   4.334   3.630
 7846TIP3   OH223501   3.441   4.417   2.103
 7846TIP3    H123502   3.357   4.400   2.061
 7846TIP3    H223503   3.445   4.353   2.174
 7847TIP3   OH223504   3.494   1.522   5.430
 7847TIP3    H123505   3.421   1.584   5.438
 7847TIP3    H223506   3.572   1.577   5.430
 7848TIP3   OH223507   3.652   4.708   2.837
 7848TIP3    H123508   3.701   4.627   2.851
 7848TIP3    H223509   3.591   4.713   2.911
 7849TIP3   OH223510   3.354   5.661   1.351
 7849TIP3    H123511   3.279   5.658   1.410
 7849TIP3    H223512   3.410   5.589   1.379
 7850TIP3   OH223513   6.398   4.639   5.701
 7850TIP3    H123514   6.458   4.631   5.776
 7850TIP3    H223515   6.412   4.729   5.670
 7851TIP3   OH223516   5.823   1.196   0.141
 7851TIP3    H123517   5.771   1.164   0.067
 7851TIP3    H223518   5.806   1.290   0.145
 7852TIP3   OH223519   4.566   2.460   1.919
 7852TIP3    H123520   4.472   2.475   1.910
 7852TIP3    H223521   4.574   2.398   1.992
 7853TIP3   OH223522   2.893   3.767   4.239
 7853TIP3    H123523   2.939   3.763   4.155
 7853TIP3    H223524   2.914   3.683   4.281
 7854TIP3   OH223525   4.218   5.915   3.065
 7854TIP3    H123526   4.256   5.993   3.105
 7854TIP3    H223527   4.153   5.949   3.004
 7855TIP3   OH223528   5.427   6.687   0.918
 7855TIP3    H123529   5.402   6.777   0.936
 7855TIP3    H223530   5.345   6.638   0.920
 7856TIP3   OH223531   0.782   0.840   0.661
 7856TIP3    H123532   0.721   0.845   0.734
 7856TIP3    H223533   0.727   0.837   0.583
 7857TIP3   OH223534   0.622   6.205   5.503
 7857TIP3    H123535   0.547   6.263   5.513
 7857TIP3    H223536   0.653   6.222   5.414
 7858TIP3   OH223537   4.234   2.323   3.621
 7858TIP3    H123538   4.218   2.417   3.612
 7858TIP3    H223539   4.319   2.318   3.664
 7859TIP3   OH223540   4.620   5.987   5.252
 7859TIP3    H123541   4.550   6.039   5.213
 7859TIP3    H223542   4.586   5.959   5.337
 7860TIP3   OH223543   0.242   5.102   0.297
 7860TIP3    H123544   0.242   5.129   0.206
 7860TIP3    H223545   0.150   5.086   0.318
 7861TIP3   OH223546   6.683   0.836   2.563
 7861TIP3    H123547   6.594   0.871   2.571
 7861TIP3    H223548   6.712   0.822   2.653
 7862TIP3   OH223549   6.238   1.556   0.870
 7862TIP3    H123550   6.261   1.471   0.832
 7862TIP3    H223551   6.303   1.569   0.939
 7863TIP3   OH223552   6.697   6.788   0.608
 7863TIP3    H123553   6.609   6.793   0.572
 7863TIP3    H223554   6.693   6.839   0.689
 7864TIP3   OH223555   5.615   1.899   5.730
 7864TIP3    H123556   5.537   1.880   5.782
 7864TIP3    H223557   5.686   1.857   5.778
 7865TIP3   OH223558   5.729   6.641   1.996
 7865TIP3    H123559   5.652   6.693   2.020
 7865TIP3    H223560   5.779   6.699   1.938
 7866TIP3   OH223561   5.098   1.770   4.925
 7866TIP3    H123562   5.005   1.777   4.949
 7866TIP3    H223563   5.131   1.859   4.934
 7867TIP3   OH223564   3.549   0.696   1.777
 7867TIP3    H123565   3.550   0.667   1.686
 7867TIP3    H223566   3.530   0.617   1.827
 7868TIP3   OH223567   4.360   0.449   2.988
 7868TIP3    H123568   4.372   0.543   2.976
 7868TIP3    H223569   4.302   0.421   2.916
 7869TIP3   OH223570   3.096   3.266   0.919
 7869TIP3    H123571   3.152   3.278   0.996
 7869TIP3    H223572   3.149   3.299   0.846
 7870TIP3   OH223573   1.290   5.524   0.874
 7870TIP3    H123574   1.286   5.529   0.778
 7870TIP3    H223575   1.311   5.433   0.893
 7871TIP3   OH223576   6.308   0.149   3.366
 7871TIP3    H123577   6.401   0.140   3.346
 7871TIP3    H223578   6.266   0.082   3.312
 7872TIP3   OH223579   5.485   5.664   1.871
 7872TIP3    H123580   5.420   5.595   1.866
 7872TIP3    H223581   5.569   5.619   1.866
 7873TIP3   OH223582   1.422   4.462   5.482
 7873TIP3    H123583   1.368   4.411   5.541
 7873TIP3    H223584   1.482   4.510   5.539
 7874TIP3   OH223585   1.925   0.966   3.003
 7874TIP3    H123586   1.980   1.010   2.938
 7874TIP3    H223587   1.894   1.036   3.060
 7875TIP3   OH223588   6.769   4.557   3.181
 7875TIP3    H123589   6.828   4.492   3.220
 7875TIP3    H223590   6.810   4.641   3.201
 7876TIP3   OH223591   6.095   6.633   5.115
 7876TIP3    H123592   6.046   6.711   5.088
 7876TIP3    H223593   6.070   6.619   5.206
 7877TIP3   OH223594   4.232   3.040   0.279
 7877TIP3    H123595   4.180   3.062   0.202
 7877TIP3    H223596   4.267   2.953   0.260
 7878TIP3   OH223597   5.844   1.202   3.131
 7878TIP3    H123598   5.821   1.293   3.112
 7878TIP3    H223599   5.789   1.179   3.206
 7879TIP3   OH223600   6.729   2.770   2.942
 7879TIP3    H123601   6.676   2.779   3.021
 7879TIP3    H223602   6.666   2.753   2.872
 7880TIP3   OH223603   2.425   3.052   4.920
 7880TIP3    H123604   2.367   2.987   4.881
 7880TIP3    H223605   2.508   3.043   4.873
 7881TIP3   OH223606   0.555   3.448   1.955
 7881TIP3    H123607   0.535   3.391   2.031
 7881TIP3    H223608   0.500   3.414   1.885
 7882TIP3   OH223609   0.695   4.118   3.289
 7882TIP3    H123610   0.784   4.152   3.302
 7882TIP3    H223611   0.639   4.172   3.344
 7883TIP3   OH223612   1.183   1.953   5.229
 7883TIP3    H123613   1.230   1.884   5.183
 7883TIP3    H223614   1.142   2.005   5.160
 7884TIP3   OH223615   5.331   2.844   1.310
 7884TIP3    H123616   5.373   2.797   1.237
 7884TIP3    H223617   5.337   2.784   1.384
 7885TIP3   OH223618   0.884   3.105   1.296
 7885TIP3    H123619   0.911   3.154   1.373
 7885TIP3    H223620   0.966   3.081   1.252
 7886TIP3   OH223621   0.064   4.559   2.358
 7886TIP3    H123622   0.129   4.567   2.428
 7886TIP3    H223623   0.008   4.636   2.369
 7887TIP3   OH223624   1.596   1.152   1.258
 7887TIP3    H123625   1.545   1.152   1.339
 7887TIP3    H223626   1.543   1.102   1.196
 7888TIP3   OH223627   1.538   1.471   0.956
 7888TIP3    H123628   1.446   1.457   0.979
 7888TIP3    H223629   1.562   1.393   0.906
 7889TIP3   OH223630   0.612   5.563   0.905
 7889TIP3    H123631   0.541   5.576   0.969
 7889TIP3    H223632   0.674   5.633   0.923
 7890TIP3   OH223633   5.488   4.758   2.683
 7890TIP3    H123634   5.511   4.840   2.640
 7890TIP3    H223635   5.405   4.776   2.726
 7891TIP3   OH223636   0.774   3.538   2.527
 7891TIP3    H123637   0.860   3.567   2.496
 7891TIP3    H223638   0.779   3.443   2.525
 7892TIP3   OH223639   1.835   1.134   2.758
 7892TIP3    H123640   1.786   1.104   2.681
 7892TIP3    H223641   1.807   1.076   2.828
 7893TIP3   OH223642   0.954   2.479   4.715
 7893TIP3    H123643   0.921   2.565   4.691
 7893TIP3    H223644   0.940   2.425   4.637
 7894TIP3   OH223645   4.759   3.718   2.502
 7894TIP3    H123646   4.826   3.773   2.542
 7894TIP3    H223647   4.806   3.665   2.438
 7895TIP3   OH223648   3.298   4.150   3.371
 7895TIP3    H123649   3.356   4.073   3.375
 7895TIP3    H223650   3.295   4.173   3.278
 7896TIP3   OH223651   1.608   1.367   3.152
 7896TIP3    H123652   1.553   1.295   3.122
 7896TIP3    H223653   1.576   1.388   3.239
 7897TIP3   OH223654   0.634   3.926   4.196
 7897TIP3    H123655   0.556   3.906   4.145
 7897TIP3    H223656   0.620   3.882   4.280
 7898TIP3   OH223657   4.587   5.454   3.582
 7898TIP3    H123658   4.654   5.428   3.518
 7898TIP3    H223659   4.636   5.467   3.663
 7899TIP3   OH223660   3.145   0.195   5.793
 7899TIP3    H123661   3.209   0.213   5.862
 7899TIP3    H223662   3.186   0.231   5.714
 7900TIP3   OH223663   3.766   1.300   0.168
 7900TIP3    H123664   3.829   1.366   0.141
 7900TIP3    H223665   3.791   1.221   0.120
 7901TIP3   OH223666   0.249   2.532   3.062
 7901TIP3    H123667   0.158   2.507   3.082
 7901TIP3    H223668   0.240   2.615   3.017
 7902TIP3   OH223669   0.693   0.137   1.168
 7902TIP3    H123670   0.631   0.108   1.235
 7902TIP3    H223671   0.647   0.124   1.085
 7903TIP3   OH223672   3.816   6.698   5.327
 7903TIP3    H123673   3.903   6.674   5.295
 7903TIP3    H223674   3.829   6.722   5.418
 7904TIP3   OH223675   1.813   0.509   4.424
 7904TIP3    H123676   1.818   0.493   4.518
 7904TIP3    H223677   1.734   0.562   4.413
 7905TIP3   OH223678   6.161   6.211   2.219
 7905TIP3    H123679   6.254   6.202   2.199
 7905TIP3    H223680   6.159   6.246   2.308
 7906TIP3   OH223681   3.969   1.123   3.272
 7906TIP3    H123682   3.980   1.033   3.243
 7906TIP3    H223683   4.058   1.152   3.294
 7907TIP3   OH223684   0.363   4.092   1.890
 7907TIP3    H123685   0.452   4.126   1.889
 7907TIP3    H223686   0.315   4.152   1.948
 7908TIP3   OH223687   5.141   2.055   4.071
 7908TIP3    H123688   5.188   1.987   4.023
 7908TIP3    H223689   5.164   2.136   4.026
 7909TIP3   OH223690   6.767   6.078   2.386
 7909TIP3    H123691   6.757   6.173   2.373
 7909TIP3    H223692   6.862   6.066   2.397
 7910TIP3   OH223693   4.496   1.016   2.428
 7910TIP3    H123694   4.511   1.000   2.521
 7910TIP3    H223695   4.511   1.110   2.417
 7911TIP3   OH223696   6.821   5.866   1.827
 7911TIP3    H123697   6.898   5.813   1.846
 7911TIP3    H223698   6.762   5.851   1.901
 7912TIP3   OH223699   2.172   2.549   5.248
 7912TIP3    H123700   2.116   2.476   5.275
 7912TIP3    H223701   2.179   2.604   5.326
 7913TIP3   OH223702   0.572   2.768   2.055
 7913TIP3    H123703   0.481   2.794   2.041
 7913TIP3    H223704   0.569   2.712   2.134
 7914TIP3   OH223705   3.701   1.884   3.781
 7914TIP3    H123706   3.775   1.934   3.815
 7914TIP3    H223707   3.624   1.936   3.805
 7915TIP3   OH223708   4.097   4.716   3.142
 7915TIP3    H123709   4.172   4.699   3.199
 7915TIP3    H223710   4.124   4.683   3.057
 7916TIP3   OH223711   3.279   5.317   0.789
 7916TIP3    H123712   3.184   5.315   0.801
 7916TIP3    H223713   3.291   5.314   0.694
 7917TIP3   OH223714   6.130   2.657   0.806
 7917TIP3    H123715   6.207   2.707   0.831
 7917TIP3    H223716   6.136   2.650   0.711
 7918TIP3   OH223717   2.880   3.349   1.470
 7918TIP3    H123718   2.912   3.263   1.499
 7918TIP3    H223719   2.935   3.370   1.395
 7919TIP3   OH223720   4.556   2.293   3.437
 7919TIP3    H123721   4.518   2.213   3.471
 7919TIP3    H223722   4.587   2.271   3.349
 7920TIP3   OH223723   6.699   2.068   0.280
 7920TIP3    H123724   6.615   2.115   0.277
 7920TIP3    H223725   6.710   2.045   0.372
 7921TIP3   OH223726   6.643   6.239   1.219
 7921TIP3    H123727   6.605   6.228   1.131
 7921TIP3    H223728   6.684   6.154   1.238
 7922TIP3   OH223729   2.187   2.021   3.079
 7922TIP3    H123730   2.101   1.989   3.052
 7922TIP3    H223731   2.196   1.990   3.169
 7923TIP3   OH223732   5.276   0.585   5.835
 7923TIP3    H123733   5.347   0.579   5.899
 7923TIP3    H223734   5.203   0.625   5.884
 7924TIP3   OH223735   4.272   3.519   2.171
 7924TIP3    H123736   4.249   3.605   2.206
 7924TIP3    H223737   4.293   3.535   2.079
 7925TIP3   OH223738   3.260   0.063   1.490
 7925TIP3    H123739   3.329   0.044   1.426
 7925TIP3    H223740   3.284   0.147   1.527
 7926TIP3   OH223741   0.496   0.033   2.982
 7926TIP3    H123742   0.415   0.084   2.993
 7926TIP3    H223743   0.490  -0.035   3.049
 7927TIP3   OH223744   0.159   2.398   3.893
 7927TIP3    H123745   0.079   2.442   3.920
 7927TIP3    H223746   0.226   2.467   3.894
 7928TIP3   OH223747   0.900   0.854   4.025
 7928TIP3    H123748   0.873   0.852   3.934
 7928TIP3    H223749   0.982   0.904   4.025
 7929TIP3   OH223750   2.238   2.012   5.825
 7929TIP3    H123751   2.209   2.102   5.840
 7929TIP3    H223752   2.283   2.016   5.740
 7930TIP3   OH223753   3.124   1.019   0.018
 7930TIP3    H123754   3.187   1.030   0.090
 7930TIP3    H223755   3.039   1.022   0.061
 7931TIP3   OH223756   1.866   3.564   3.003
 7931TIP3    H123757   1.889   3.475   3.029
 7931TIP3    H223758   1.771   3.561   2.992
 7932TIP3   OH223759   5.100   2.497   1.553
 7932TIP3    H123760   5.106   2.542   1.637
 7932TIP3    H223761   5.009   2.510   1.525
 7933TIP3   OH223762   0.227   5.807   2.393
 7933TIP3    H123763   0.310   5.852   2.382
 7933TIP3    H223764   0.192   5.840   2.476
 7934TIP3   OH223765   2.978   5.520   4.489
 7934TIP3    H123766   3.003   5.502   4.399
 7934TIP3    H223767   3.010   5.445   4.539
 7935TIP3   OH223768   6.521   3.606   4.028
 7935TIP3    H123769   6.440   3.557   4.019
 7935TIP3    H223770   6.522   3.666   3.954
 7936TIP3   OH223771   0.120   6.633   5.558
 7936TIP3    H123772   0.176   6.708   5.537
 7936TIP3    H223773   0.062   6.625   5.482
 7937TIP3   OH223774   4.912   0.787   5.455
 7937TIP3    H123775   4.876   0.863   5.410
 7937TIP3    H223776   4.963   0.741   5.388
 7938TIP3   OH223777   6.584   5.562   3.075
 7938TIP3    H123778   6.527   5.571   2.998
 7938TIP3    H223779   6.575   5.470   3.101
 7939TIP3   OH223780   7.186   0.199   1.119
 7939TIP3    H123781   7.109   0.240   1.081
 7939TIP3    H223782   7.159   0.108   1.134
 7940TIP3   OH223783   3.406   6.056   3.267
 7940TIP3    H123784   3.331   6.016   3.312
 7940TIP3    H223785   3.405   6.148   3.297
 7941TIP3   OH223786   6.146   6.316   5.782
 7941TIP3    H123787   6.096   6.275   5.853
 7941TIP3    H223788   6.174   6.243   5.727
 7942TIP3   OH223789   1.206   5.485   5.369
 7942TIP3    H123790   1.121   5.448   5.344
 7942TIP3    H223791   1.258   5.481   5.289
 7943TIP3   OH223792   4.242   5.231   2.446
 7943TIP3    H123793   4.292   5.209   2.525
 7943TIP3    H223794   4.291   5.303   2.406
 7944TIP3   OH223795   0.298   3.066   4.082
 7944TIP3    H123796   0.383   3.092   4.048
 7944TIP3    H223797   0.290   3.111   4.166
 7945TIP3   OH223798   3.889   4.369   2.142
 7945TIP3    H123799   3.931   4.311   2.077
 7945TIP3    H223800   3.825   4.313   2.186
 7946TIP3   OH223801   2.172   0.370   5.246
 7946TIP3    H123802   2.188   0.278   5.224
 7946TIP3    H223803   2.109   0.366   5.319
 7947TIP3   OH223804   2.301   5.062   2.862
 7947TIP3    H123805   2.291   4.975   2.903
 7947TIP3    H223806   2.332   5.043   2.774
 7948TIP3   OH223807   0.409   4.784   4.584
 7948TIP3    H123808   0.391   4.877   4.595
 7948TIP3    H223809   0.502   4.774   4.606
 7949TIP3   OH223810   6.837   4.842   0.865
 7949TIP3    H123811   6.876   4.913   0.814
 7949TIP3    H223812   6.744   4.846   0.844
 7950TIP3   OH223813   0.225   3.345   0.859
 7950TIP3    H123814   0.144   3.295   0.868
 7950TIP3    H223815   0.206   3.407   0.787
 7951TIP3   OH223816   0.717   4.507   1.064
 7951TIP3    H123817   0.776   4.583   1.058
 7951TIP3    H223818   0.634   4.539   1.028
 7952TIP3   OH223819   7.148   5.445   2.664
 7952TIP3    H123820   7.100   5.370   2.699
 7952TIP3    H223821   7.092   5.520   2.683
 7953TIP3   OH223822   6.996   5.131   2.131
 7953TIP3    H123823   7.011   5.224   2.146
 7953TIP3    H223824   7.040   5.088   2.204
 7954TIP3   OH223825   0.584   6.716   4.480
 7954TIP3    H123826   0.593   6.801   4.525
 7954TIP3    H223827   0.635   6.655   4.535
 7955TIP3   OH223828   0.771   4.194   4.397
 7955TIP3    H123829   0.785   4.117   4.341
 7955TIP3    H223830   0.843   4.191   4.460
 7956TIP3   OH223831   4.984   1.693   0.847
 7956TIP3    H123832   4.949   1.694   0.758
 7956TIP3    H223833   4.975   1.602   0.875
 7957TIP3   OH223834   3.629   1.222   1.123
 7957TIP3    H123835   3.709   1.240   1.074
 7957TIP3    H223836   3.632   1.128   1.141
 7958TIP3   OH223837   0.047   5.030   1.213
 7958TIP3    H123838   0.122   5.002   1.266
 7958TIP3    H223839   0.074   5.013   1.122
 7959TIP3   OH223840   6.769   0.685   5.277
 7959TIP3    H123841   6.691   0.630   5.283
 7959TIP3    H223842   6.801   0.673   5.188
 7960TIP3   OH223843   3.876   1.949   4.509
 7960TIP3    H123844   3.844   1.984   4.592
 7960TIP3    H223845   3.919   1.867   4.533
 7961TIP3   OH223846   5.687   1.266   3.577
 7961TIP3    H123847   5.683   1.361   3.579
 7961TIP3    H223848   5.681   1.240   3.669
 7962TIP3   OH223849   5.083   5.570   0.456
 7962TIP3    H123850   5.043   5.524   0.381
 7962TIP3    H223851   5.157   5.618   0.418
 7963TIP3   OH223852   6.718   1.513   3.429
 7963TIP3    H123853   6.632   1.475   3.411
 7963TIP3    H223854   6.762   1.515   3.344
 7964TIP3   OH223855   1.215   2.875   5.145
 7964TIP3    H123856   1.226   2.810   5.215
 7964TIP3    H223857   1.145   2.933   5.177
 7965TIP3   OH223858   2.764   4.628   5.528
 7965TIP3    H123859   2.784   4.661   5.615
 7965TIP3    H223860   2.720   4.702   5.485
 7966TIP3   OH223861   1.813   3.792   4.166
 7966TIP3    H123862   1.880   3.784   4.234
 7966TIP3    H223863   1.733   3.815   4.214
 7967TIP3   OH223864   0.980   3.947   3.711
 7967TIP3    H123865   0.916   3.998   3.760
 7967TIP3    H223866   1.054   3.938   3.770
 7968TIP3   OH223867   5.565   5.835   4.860
 7968TIP3    H123868   5.619   5.888   4.919
 7968TIP3    H223869   5.509   5.899   4.816
 7969TIP3   OH223870   0.782   1.259   5.603
 7969TIP3    H123871   0.723   1.308   5.547
 7969TIP3    H223872   0.832   1.326   5.651
 7970TIP3   OH223873   5.128   4.559   0.975
 7970TIP3    H123874   5.160   4.584   1.062
 7970TIP3    H223875   5.141   4.636   0.921
 7971TIP3   OH223876   2.298   5.079   3.923
 7971TIP3    H123877   2.286   4.984   3.917
 7971TIP3    H223878   2.366   5.091   3.989
 7972TIP3   OH223879   3.086   0.656   5.548
 7972TIP3    H123880   3.054   0.728   5.604
 7972TIP3    H223881   3.133   0.598   5.608
 7973TIP3   OH223882   6.753   1.303   0.430
 7973TIP3    H123883   6.778   1.392   0.407
 7973TIP3    H223884   6.662   1.310   0.458
 7974TIP3   OH223885   5.727   2.674   0.595
 7974TIP3    H123886   5.663   2.602   0.602
 7974TIP3    H223887   5.746   2.698   0.686
 7975TIP3   OH223888   7.201   5.474   3.399
 7975TIP3    H123889   7.282   5.476   3.450
 7975TIP3    H223890   7.137   5.520   3.454
 7976TIP3   OH223891   7.083   2.451   3.904
 7976TIP3    H123892   7.060   2.404   3.983
 7976TIP3    H223893   7.003   2.497   3.880
 7977TIP3   OH223894   0.503   5.458   5.513
 7977TIP3    H123895   0.533   5.534   5.562
 7977TIP3    H223896   0.551   5.462   5.430
 7978TIP3   OH223897   6.573   6.784   2.396
 7978TIP3    H123898   6.552   6.833   2.317
 7978TIP3    H223899   6.509   6.813   2.461
 7979TIP3   OH223900   4.736   4.656   1.708
 7979TIP3    H123901   4.715   4.637   1.616
 7979TIP3    H223902   4.688   4.590   1.758
 7980TIP3   OH223903   4.730   5.687   5.356
 7980TIP3    H123904   4.684   5.769   5.376
 7980TIP3    H223905   4.722   5.635   5.436
 7981TIP3   OH223906   3.348   2.597   0.478
 7981TIP3    H123907   3.424   2.566   0.527
 7981TIP3    H223908   3.296   2.518   0.462
 7982TIP3   OH223909   1.340   5.613   2.412
 7982TIP3    H123910   1.305   5.623   2.501
 7982TIP3    H223911   1.263   5.615   2.355
 7983TIP3   OH223912   4.293   3.433   3.485
 7983TIP3    H123913   4.359   3.371   3.517
 7983TIP3    H223914   4.252   3.466   3.564
 7984TIP3   OH223915   4.449   0.373   5.495
 7984TIP3    H123916   4.538   0.369   5.461
 7984TIP3    H223917   4.439   0.462   5.528
 7985TIP3   OH223918   2.872   4.840   4.340
 7985TIP3    H123919   2.876   4.910   4.405
 7985TIP3    H223920   2.964   4.822   4.319
 7986TIP3   OH223921   4.270   2.780   2.760
 7986TIP3    H123922   4.345   2.829   2.794
 7986TIP3    H223923   4.229   2.840   2.697
 7987TIP3   OH223924   7.015   5.551   2.001
 7987TIP3    H123925   6.927   5.554   1.964
 7987TIP3    H223926   7.006   5.501   2.082
 7988TIP3   OH223927   2.056   5.490   3.286
 7988TIP3    H123928   2.136   5.494   3.338
 7988TIP3    H223929   2.052   5.575   3.242
 7989TIP3   OH223930   0.508   1.439   1.581
 7989TIP3    H123931   0.591   1.417   1.538
 7989TIP3    H223932   0.487   1.526   1.547
 7990TIP3   OH223933   2.402   0.337   4.387
 7990TIP3    H123934   2.475   0.353   4.327
 7990TIP3    H223935   2.353   0.266   4.346
 7991TIP3   OH223936   1.944   0.566   1.913
 7991TIP3    H123937   2.037   0.559   1.893
 7991TIP3    H223938   1.905   0.607   1.835
 7992TIP3   OH223939   3.451   5.136   3.726
 7992TIP3    H123940   3.497   5.209   3.686
 7992TIP3    H223941   3.443   5.071   3.657
 7993TIP3   OH223942   3.707   4.150   2.247
 7993TIP3    H123943   3.799   4.128   2.232
 7993TIP3    H223944   3.693   4.128   2.339
 7994TIP3   OH223945   4.960   3.817   5.513
 7994TIP3    H123946   5.048   3.789   5.536
 7994TIP3    H223947   4.911   3.813   5.595
 7995TIP3   OH223948   6.599   4.014   3.609
 7995TIP3    H123949   6.524   4.068   3.584
 7995TIP3    H223950   6.604   3.947   3.540
 7996TIP3   OH223951   4.864   2.390   4.685
 7996TIP3    H123952   4.840   2.482   4.686
 7996TIP3    H223953   4.815   2.353   4.611
 7997TIP3   OH223954   1.674   5.413   4.978
 7997TIP3    H123955   1.752   5.451   5.018
 7997TIP3    H223956   1.668   5.453   4.892
 7998TIP3   OH223957   5.049   0.452   3.696
 7998TIP3    H123958   5.097   0.396   3.635
 7998TIP3    H223959   5.009   0.391   3.758
 7999TIP3   OH223960   0.590   0.565   3.744
 7999TIP3    H123961   0.671   0.611   3.725
 7999TIP3    H223962   0.586   0.496   3.678
 8000TIP3   OH223963   3.160   2.074   0.036
 8000TIP3    H123964   3.149   2.162  -0.000
 8000TIP3    H223965   3.175   2.018  -0.041
 8001TIP3   OH223966   2.665   5.102   4.332
 8001TIP3    H123967   2.760   5.114   4.329
 8001TIP3    H223968   2.650   5.046   4.408
 8002TIP3   OH223969   5.060   6.022   3.577
 8002TIP3    H123970   5.113   5.960   3.628
 8002TIP3    H223971   5.066   6.104   3.626
 8003TIP3   OH223972   3.781   3.171   1.977
 8003TIP3    H123973   3.701   3.223   1.983
 8003TIP3    H223974   3.824   3.202   1.898
 8004TIP3   OH223975   1.694   4.705   3.266
 8004TIP3    H123976   1.731   4.634   3.318
 8004TIP3    H223977   1.648   4.760   3.330
 8005TIP3   OH223978   2.938   5.697   0.867
 8005TIP3    H123979   2.982   5.772   0.827
 8005TIP3    H223980   2.893   5.654   0.795
 8006TIP3   OH223981   2.986   4.874   2.289
 8006TIP3    H123982   3.045   4.800   2.305
 8006TIP3    H223983   3.043   4.947   2.268
 8007TIP3   OH223984   5.798   6.047   1.361
 8007TIP3    H123985   5.860   6.039   1.288
 8007TIP3    H223986   5.840   6.001   1.434
 8008TIP3   OH223987   3.532   1.451   3.799
 8008TIP3    H123988   3.506   1.454   3.707
 8008TIP3    H223989   3.491   1.528   3.839
 8009TIP3   OH223990   1.927   1.993   2.045
 8009TIP3    H123991   1.843   1.986   2.090
 8009TIP3    H223992   1.920   1.933   1.970
 8010TIP3   OH223993   1.208   5.488   4.501
 8010TIP3    H123994   1.229   5.419   4.439
 8010TIP3    H223995   1.280   5.551   4.493
 8011TIP3   OH223996   2.336   2.674   2.627
 8011TIP3    H123997   2.346   2.685   2.722
 8011TIP3    H223998   2.360   2.582   2.612
 8012TIP3   OH223999   3.788   2.745   5.051
 8012TIP3    H124000   3.796   2.650   5.058
 8012TIP3    H224001   3.796   2.777   5.142
 8013TIP3   OH224002   4.621   2.865   0.298
 8013TIP3    H124003   4.669   2.783   0.309
 8013TIP3    H224004   4.577   2.880   0.381
 8014TIP3   OH224005   6.994   1.282   0.301
 8014TIP3    H124006   6.906   1.264   0.335
 8014TIP3    H224007   6.978   1.320   0.214
 8015TIP3   OH224008   1.688   2.065   0.494
 8015TIP3    H124009   1.708   2.130   0.426
 8015TIP3    H224010   1.740   2.093   0.569
 8016TIP3   OH224011   5.716   3.312   5.575
 8016TIP3    H124012   5.649   3.326   5.642
 8016TIP3    H224013   5.682   3.355   5.497
 8017TIP3   OH224014   7.021   3.377   1.332
 8017TIP3    H124015   7.011   3.283   1.317
 8017TIP3    H224016   7.010   3.388   1.426
 8018TIP3   OH224017   4.676   4.817   1.458
 8018TIP3    H124018   4.642   4.728   1.446
 8018TIP3    H224019   4.606   4.865   1.501
 8019TIP3   OH224020   2.499   3.795   5.383
 8019TIP3    H124021   2.411   3.826   5.362
 8019TIP3    H224022   2.487   3.704   5.410
 8020TIP3   OH224023   0.221   4.767   4.853
 8020TIP3    H124024   0.266   4.691   4.890
 8020TIP3    H224025   0.279   4.797   4.783
 8021TIP3   OH224026   6.571   5.153   5.332
 8021TIP3    H124027   6.611   5.235   5.361
 8021TIP3    H224028   6.644   5.093   5.322
 8022TIP3   OH224029   4.887   1.963   4.356
 8022TIP3    H124030   4.962   1.904   4.354
 8022TIP3    H224031   4.922   2.047   4.326
 8023TIP3   OH224032   4.760   2.444   0.985
 8023TIP3    H124033   4.795   2.492   0.910
 8023TIP3    H224034   4.679   2.405   0.952
 8024TIP3   OH224035   6.226   2.139   2.598
 8024TIP3    H124036   6.156   2.204   2.595
 8024TIP3    H224037   6.306   2.190   2.603
 8025TIP3   OH224038   0.043   2.306   1.239
 8025TIP3    H124039   0.080   2.308   1.150
 8025TIP3    H224040   0.031   2.398   1.261
 8026TIP3   OH224041   2.976   1.176   2.721
 8026TIP3    H124042   2.986   1.190   2.627
 8026TIP3    H224043   3.059   1.135   2.748
 8027TIP3   OH224044   1.097   0.589   5.190
 8027TIP3    H124045   1.157   0.660   5.209
 8027TIP3    H224046   1.027   0.630   5.139
 8028TIP3   OH224047   4.531   3.613   0.566
 8028TIP3    H124048   4.609   3.668   0.571
 8028TIP3    H224049   4.458   3.672   0.585
 8029TIP3   OH224050   3.554   4.005   4.542
 8029TIP3    H124051   3.635   4.056   4.546
 8029TIP3    H224052   3.507   4.029   4.622
 8030TIP3   OH224053   1.398   3.283   0.036
 8030TIP3    H124054   1.468   3.251  -0.021
 8030TIP3    H224055   1.360   3.204   0.074
 8031TIP3   OH224056   4.585   0.089   1.149
 8031TIP3    H124057   4.579   0.034   1.071
 8031TIP3    H224058   4.560   0.031   1.222
 8032TIP3   OH224059   6.864   4.905   3.651
 8032TIP3    H124060   6.866   4.831   3.712
 8032TIP3    H224061   6.902   4.978   3.700
 8033TIP3   OH224062   7.038   2.459   1.754
 8033TIP3    H124063   7.027   2.370   1.720
 8033TIP3    H224064   6.986   2.514   1.694
 8034TIP3   OH224065   6.435   1.023   4.864
 8034TIP3    H124066   6.514   1.076   4.872
 8034TIP3    H224067   6.455   0.944   4.915
 8035TIP3   OH224068   5.109  -0.003   3.313
 8035TIP3    H124069   5.185   0.050   3.289
 8035TIP3    H224070   5.035   0.040   3.271
 8036TIP3   OH224071   0.818   5.133   5.109
 8036TIP3    H124072   0.743   5.167   5.060
 8036TIP3    H224073   0.801   5.039   5.115
 8037TIP3   OH224074   7.015   5.627   0.881
 8037TIP3    H124075   7.013   5.560   0.949
 8037TIP3    H224076   6.943   5.686   0.902
 8038TIP3   OH224077   5.683   2.819   0.349
 8038TIP3    H124078   5.685   2.749   0.414
 8038TIP3    H224079   5.641   2.779   0.273
 8039TIP3   OH224080   3.044   5.252   5.498
 8039TIP3    H124081   3.070   5.339   5.468
 8039TIP3    H224082   3.095   5.191   5.444
 8040TIP3   OH224083   4.297   6.238   4.619
 8040TIP3    H124084   4.329   6.164   4.671
 8040TIP3    H224085   4.202   6.227   4.620
 8041TIP3   OH224086   2.476   2.931   0.635
 8041TIP3    H124087   2.448   2.913   0.546
 8041TIP3    H224088   2.415   2.883   0.691
 8042TIP3   OH224089   3.625   3.335   2.580
 8042TIP3    H124090   3.591   3.404   2.523
 8042TIP3    H224091   3.606   3.364   2.668
 8043TIP3   OH224092   4.230   2.748   0.558
 8043TIP3    H124093   4.244   2.707   0.472
 8043TIP3    H224094   4.232   2.674   0.619
 8044TIP3   OH224095   1.159   1.175   2.972
 8044TIP3    H124096   1.109   1.094   2.959
 8044TIP3    H224097   1.137   1.229   2.896
 8045TIP3   OH224098   1.660   3.551   1.727
 8045TIP3    H124099   1.610   3.607   1.667
 8045TIP3    H224100   1.732   3.606   1.757
 8046TIP3   OH224101   4.484   2.170   4.371
 8046TIP3    H124102   4.428   2.218   4.310
 8046TIP3    H224103   4.423   2.125   4.429
 8047TIP3   OH224104   6.962   5.548   2.994
 8047TIP3    H124105   7.045   5.569   3.038
 8047TIP3    H224106   6.947   5.456   3.016
 8048TIP3   OH224107   6.078   4.140   5.015
 8048TIP3    H124108   6.017   4.134   5.089
 8048TIP3    H224109   6.121   4.225   5.026
 8049TIP3   OH224110   4.590   5.327   5.161
 8049TIP3    H124111   4.670   5.287   5.128
 8049TIP3    H224112   4.528   5.320   5.088
 8050TIP3   OH224113   5.284   1.040   4.488
 8050TIP3    H124114   5.243   1.124   4.508
 8050TIP3    H224115   5.353   1.031   4.553
 8051TIP3   OH224116   1.738   0.729   3.880
 8051TIP3    H124117   1.752   0.643   3.841
 8051TIP3    H224118   1.824   0.772   3.877
 8052TIP3   OH224119   4.870   3.326   4.679
 8052TIP3    H124120   4.897   3.256   4.739
 8052TIP3    H224121   4.929   3.399   4.699
 8053TIP3   OH224122   4.807   0.466   1.159
 8053TIP3    H124123   4.750   0.469   1.082
 8053TIP3    H224124   4.748   0.447   1.232
 8054TIP3   OH224125   5.561   2.039   3.180
 8054TIP3    H124126   5.515   2.083   3.251
 8054TIP3    H224127   5.652   2.035   3.209
 8055TIP3   OH224128   4.523   4.694   0.201
 8055TIP3    H124129   4.473   4.752   0.258
 8055TIP3    H224130   4.509   4.607   0.238
 8056TIP3   OH224131   2.868   5.722   4.913
 8056TIP3    H124132   2.944   5.674   4.880
 8056TIP3    H224133   2.795   5.688   4.862
 8057TIP3   OH224134   3.457   0.605   5.488
 8057TIP3    H124135   3.388   0.574   5.546
 8057TIP3    H224136   3.424   0.589   5.400
 8058TIP3   OH224137   3.241   3.504   4.251
 8058TIP3    H124138   3.213   3.477   4.339
 8058TIP3    H224139   3.319   3.452   4.234
 8059TIP3   OH224140   6.996   6.100   0.963
 8059TIP3    H124141   7.065   6.033   0.967
 8059TIP3    H224142   6.939   6.080   1.037
 8060TIP3   OH224143   1.712   2.685   2.955
 8060TIP3    H124144   1.784   2.732   2.914
 8060TIP3    H224145   1.636   2.743   2.945
 8061TIP3   OH224146   2.508   0.409   3.236
 8061TIP3    H124147   2.522   0.368   3.322
 8061TIP3    H224148   2.529   0.502   3.250
 8062TIP3   OH224149   0.678   4.595   5.383
 8062TIP3    H124150   0.624   4.516   5.388
 8062TIP3    H224151   0.737   4.579   5.309
 8063TIP3   OH224152  -0.001   1.421   4.943
 8063TIP3    H124153   0.067   1.488   4.953
 8063TIP3    H224154  -0.058   1.433   5.018
 8064TIP3   OH224155   4.660   4.763   3.737
 8064TIP3    H124156   4.661   4.858   3.725
 8064TIP3    H224157   4.677   4.750   3.830
 8065TIP3   OH224158   1.048   5.011   3.790
 8065TIP3    H124159   1.076   5.101   3.770
 8065TIP3    H224160   1.116   4.956   3.752
 8066TIP3   OH224161   1.544   5.982   5.582
 8066TIP3    H124162   1.592   5.926   5.522
 8066TIP3    H224163   1.452   5.973   5.556
 8067TIP3   OH224164   1.327   5.234   2.699
 8067TIP3    H124165   1.329   5.255   2.606
 8067TIP3    H224166   1.359   5.313   2.743
 8068TIP3   OH224167   2.817   4.011   4.440
 8068TIP3    H124168   2.820   4.106   4.451
 8068TIP3    H224169   2.768   3.998   4.358
 8069TIP3   OH224170   0.096   0.646   1.481
 8069TIP3    H124171   0.064   0.736   1.488
 8069TIP3    H224172   0.081   0.623   1.389
 8070TIP3   OH224173   0.796   5.148   4.631
 8070TIP3    H124174   0.768   5.217   4.572
 8070TIP3    H224175   0.813   5.073   4.574
 8071TIP3   OH224176   0.788   2.019   2.375
 8071TIP3    H124177   0.708   1.966   2.375
 8071TIP3    H224178   0.857   1.958   2.400
 8072TIP3   OH224179   4.309   2.269   4.204
 8072TIP3    H124180   4.223   2.309   4.192
 8072TIP3    H224181   4.303   2.185   4.159
 8073TIP3   OH224182   3.689   4.756   4.193
 8073TIP3    H124183   3.726   4.842   4.168
 8073TIP3    H224184   3.753   4.720   4.254
 8074TIP3   OH224185   1.664   1.808   1.124
 8074TIP3    H124186   1.661   1.761   1.041
 8074TIP3    H224187   1.638   1.743   1.190
 8075TIP3   OH224188   5.642   1.783   3.454
 8075TIP3    H124189   5.615   1.698   3.490
 8075TIP3    H224190   5.655   1.767   3.361
 8076TIP3   OH224191   3.620   4.333   0.520
 8076TIP3    H124192   3.588   4.419   0.545
 8076TIP3    H224193   3.574   4.314   0.438
 8077TIP3   OH224194   1.405   3.482   1.864
 8077TIP3    H124195   1.482   3.501   1.810
 8077TIP3    H224196   1.344   3.438   1.805
 8078TIP3   OH224197   6.111   5.585   3.554
 8078TIP3    H124198   6.194   5.539   3.561
 8078TIP3    H224199   6.126   5.653   3.489
 8079TIP3   OH224200   2.533   3.321   4.168
 8079TIP3    H124201   2.474   3.271   4.224
 8079TIP3    H224202   2.549   3.402   4.216
 8080TIP3   OH224203   1.735   2.330   3.452
 8080TIP3    H124204   1.822   2.322   3.491
 8080TIP3    H224205   1.751   2.359   3.362
 8081TIP3   OH224206   0.603   1.115   1.840
 8081TIP3    H124207   0.571   1.205   1.839
 8081TIP3    H224208   0.653   1.107   1.759
 8082TIP3   OH224209   6.707   3.112   1.827
 8082TIP3    H124210   6.645   3.095   1.757
 8082TIP3    H224211   6.792   3.084   1.792
 8083TIP3   OH224212   0.804   1.515   1.651
 8083TIP3    H124213   0.877   1.577   1.643
 8083TIP3    H224214   0.843   1.430   1.630
 8084TIP3   OH224215   0.921   3.470   5.861
 8084TIP3    H124216   0.852   3.531   5.889
 8084TIP3    H224217   0.998   3.498   5.910
 8085TIP3   OH224218   1.477   3.969   5.680
 8085TIP3    H124219   1.428   3.902   5.632
 8085TIP3    H224220   1.513   3.923   5.756
 8086TIP3   OH224221   2.593   3.579   5.859
 8086TIP3    H124222   2.595   3.644   5.788
 8086TIP3    H224223   2.552   3.624   5.932
 8087TIP3   OH224224   5.301   3.416   0.897
 8087TIP3    H124225   5.316   3.428   0.990
 8087TIP3    H224226   5.285   3.504   0.863
 8088TIP3   OH224227   4.977   5.619   2.041
 8088TIP3    H124228   5.059   5.667   2.039
 8088TIP3    H224229   4.945   5.629   2.131
 8089TIP3   OH224230   5.853   4.828   2.678
 8089TIP3    H124231   5.898   4.750   2.711
 8089TIP3    H224232   5.879   4.898   2.738
 8090TIP3   OH224233   0.896   0.791   2.701
 8090TIP3    H124234   0.824   0.835   2.745
 8090TIP3    H224235   0.938   0.738   2.769
 8091TIP3   OH224236   1.430   5.283   1.244
 8091TIP3    H124237   1.524   5.272   1.235
 8091TIP3    H224238   1.397   5.281   1.154
 8092TIP3   OH224239   5.637   5.569   0.715
 8092TIP3    H124240   5.568   5.513   0.752
 8092TIP3    H224241   5.629   5.652   0.763
 8093TIP3   OH224242   2.942   4.804   5.115
 8093TIP3    H124243   2.875   4.761   5.062
 8093TIP3    H224244   2.976   4.735   5.172
 8094TIP3   OH224245   2.566   2.473   1.492
 8094TIP3    H124246   2.574   2.523   1.412
 8094TIP3    H224247   2.473   2.456   1.501
 8095TIP3   OH224248   5.984   2.941   5.403
 8095TIP3    H124249   5.993   3.015   5.462
 8095TIP3    H224250   5.903   2.898   5.430
 8096TIP3   OH224251   5.674   6.390   2.561
 8096TIP3    H124252   5.700   6.432   2.479
 8096TIP3    H224253   5.615   6.319   2.534
 8097TIP3   OH224254   1.333   3.732   3.237
 8097TIP3    H124255   1.300   3.761   3.152
 8097TIP3    H224256   1.426   3.716   3.222
 8098TIP3   OH224257   1.516   0.729   1.222
 8098TIP3    H124258   1.595   0.684   1.192
 8098TIP3    H224259   1.528   0.737   1.317
 8099TIP3   OH224260   2.432   5.445   0.591
 8099TIP3    H124261   2.354   5.395   0.568
 8099TIP3    H224262   2.432   5.520   0.531
 8100TIP3   OH224263   4.919   2.155   2.141
 8100TIP3    H124264   4.940   2.222   2.205
 8100TIP3    H224265   4.953   2.189   2.058
 8101TIP3   OH224266   3.639   2.844   1.951
 8101TIP3    H124267   3.642   2.924   2.004
 8101TIP3    H224268   3.638   2.876   1.860
 8102TIP3   OH224269   3.484   5.857   0.324
 8102TIP3    H124270   3.479   5.872   0.418
 8102TIP3    H224271   3.566   5.810   0.312
 8103TIP3   OH224272   1.330   3.878   2.260
 8103TIP3    H124273   1.320   3.929   2.180
 8103TIP3    H224274   1.251   3.895   2.311
 8104TIP3   OH224275   1.836   5.547   3.491
 8104TIP3    H124276   1.862   5.600   3.416
 8104TIP3    H224277   1.907   5.485   3.503
 8105TIP3   OH224278   6.931   6.042   5.660
 8105TIP3    H124279   6.915   6.004   5.747
 8105TIP3    H224280   7.026   6.039   5.650
 8106TIP3   OH224281   5.276   3.717   4.600
 8106TIP3    H124282   5.262   3.662   4.678
 8106TIP3    H224283   5.370   3.715   4.585
 8107TIP3   OH224284   3.279   4.249   2.633
 8107TIP3    H124285   3.299   4.322   2.575
 8107TIP3    H224286   3.358   4.237   2.685
 8108TIP3   OH224287   1.625   4.196   5.434
 8108TIP3    H124288   1.541   4.209   5.479
 8108TIP3    H224289   1.691   4.216   5.501
 8109TIP3   OH224290   4.750   3.489   1.992
 8109TIP3    H124291   4.686   3.559   2.004
 8109TIP3    H224292   4.741   3.435   2.071
 8110TIP3   OH224293   4.577   5.277   4.868
 8110TIP3    H124294   4.641   5.329   4.820
 8110TIP3    H224295   4.492   5.307   4.836
 8111TIP3   OH224296   5.386   0.822   2.637
 8111TIP3    H124297   5.291   0.821   2.622
 8111TIP3    H224298   5.406   0.914   2.657
 8112TIP3   OH224299   2.679   4.431   5.261
 8112TIP3    H124300   2.623   4.368   5.306
 8112TIP3    H224301   2.659   4.420   5.169
 8113TIP3   OH224302   1.595   4.932   3.065
 8113TIP3    H124303   1.645   4.956   3.143
 8113TIP3    H224304   1.611   4.838   3.054
 8114TIP3   OH224305   4.364   4.930   4.543
 8114TIP3    H124306   4.326   4.877   4.472
 8114TIP3    H224307   4.288   4.956   4.596
 8115TIP3   OH224308   3.149   0.911   5.454
 8115TIP3    H124309   3.153   0.823   5.416
 8115TIP3    H224310   3.055   0.929   5.463
 8116TIP3   OH224311   5.115   3.811   4.923
 8116TIP3    H124312   5.099   3.855   4.840
 8116TIP3    H224313   5.147   3.880   4.981
 8117TIP3   OH224314   0.822   5.686   5.837
 8117TIP3    H124315   0.867   5.605   5.812
 8117TIP3    H224316   0.893   5.746   5.862
 8118TIP3   OH224317   5.468   3.424   2.798
 8118TIP3    H124318   5.461   3.410   2.892
 8118TIP3    H224319   5.436   3.514   2.785
 8119TIP3   OH224320   4.136   0.587   5.406
 8119TIP3    H124321   4.057   0.636   5.427
 8119TIP3    H224322   4.132   0.509   5.462
 8120TIP3   OH224323   0.658   1.002   3.444
 8120TIP3    H124324   0.749   0.991   3.416
 8120TIP3    H224325   0.619   1.059   3.378
 8121TIP3   OH224326   2.454   5.810   1.261
 8121TIP3    H124327   2.475   5.718   1.245
 8121TIP3    H224328   2.361   5.810   1.285
 8122TIP3   OH224329   4.654   4.618   5.433
 8122TIP3    H124330   4.563   4.590   5.419
 8122TIP3    H224331   4.705   4.537   5.427
 8123TIP3   OH224332   0.623   0.247   5.407
 8123TIP3    H124333   0.568   0.254   5.329
 8123TIP3    H224334   0.648   0.337   5.427
 8124TIP3   OH224335   3.883   0.940   0.828
 8124TIP3    H124336   3.891   0.991   0.747
 8124TIP3    H224337   3.915   0.999   0.896
 8125TIP3   OH224338   4.007   3.486   5.766
 8125TIP3    H124339   4.095   3.505   5.732
 8125TIP3    H224340   3.948   3.511   5.694
 8126TIP3   OH224341   1.621   5.617   4.787
 8126TIP3    H124342   1.645   5.581   4.702
 8126TIP3    H224343   1.536   5.577   4.807
 8127TIP3   OH224344   6.287   4.975   4.190
 8127TIP3    H124345   6.243   4.936   4.265
 8127TIP3    H224346   6.351   5.036   4.227
 8128TIP3   OH224347   1.108   4.157   4.102
 8128TIP3    H124348   1.091   4.251   4.101
 8128TIP3    H224349   1.187   4.146   4.154
 8129TIP3   OH224350   2.261   2.962   5.454
 8129TIP3    H124351   2.185   3.015   5.428
 8129TIP3    H224352   2.305   2.941   5.372
 8130TIP3   OH224353   1.635   2.721   5.588
 8130TIP3    H124354   1.569   2.728   5.518
 8130TIP3    H224355   1.719   2.727   5.542
 8131TIP3   OH224356   4.919   5.726   3.384
 8131TIP3    H124357   4.955   5.737   3.295
 8131TIP3    H224358   4.995   5.740   3.441
 8132TIP3   OH224359   6.913   4.995   1.499
 8132TIP3    H124360   6.974   5.068   1.511
 8132TIP3    H224361   6.918   4.946   1.581
 8133TIP3   OH224362   2.285   3.231   2.933
 8133TIP3    H124363   2.322   3.274   2.856
 8133TIP3    H224364   2.316   3.140   2.926
 8134TIP3   OH224365   2.687   3.490   2.529
 8134TIP3    H124366   2.722   3.523   2.612
 8134TIP3    H224367   2.760   3.443   2.489
 8135TIP3   OH224368   4.789   6.402   2.348
 8135TIP3    H124369   4.782   6.312   2.379
 8135TIP3    H224370   4.884   6.416   2.339
 8136TIP3   OH224371   4.900   0.388   0.293
 8136TIP3    H124372   4.834   0.443   0.336
 8136TIP3    H224373   4.984   0.424   0.322
 8137TIP3   OH224374   3.044   6.053   1.811
 8137TIP3    H124375   3.056   5.972   1.859
 8137TIP3    H224376   3.039   6.121   1.878
 8138TIP3   OH224377   5.601   2.859   1.563
 8138TIP3    H124378   5.531   2.794   1.559
 8138TIP3    H224379   5.567   2.935   1.516
 8139TIP3   OH224380   3.869   4.643   2.456
 8139TIP3    H124381   3.882   4.735   2.481
 8139TIP3    H224382   3.879   4.643   2.361
 8140TIP3   OH224383   0.775   5.365   0.149
 8140TIP3    H124384   0.869   5.349   0.155
 8140TIP3    H224385   0.737   5.278   0.133
 8141TIP3   OH224386   2.610   1.351   4.763
 8141TIP3    H124387   2.596   1.404   4.841
 8141TIP3    H224388   2.528   1.358   4.714
 8142TIP3   OH224389   6.168   5.877   0.112
 8142TIP3    H124390   6.126   5.945   0.059
 8142TIP3    H224391   6.224   5.830   0.050
 8143TIP3   OH224392   5.488   3.264   2.042
 8143TIP3    H124393   5.549   3.200   2.005
 8143TIP3    H224394   5.412   3.212   2.067
 8144TIP3   OH224395   1.855   1.239   1.033
 8144TIP3    H124396   1.890   1.307   0.974
 8144TIP3    H224397   1.772   1.213   0.993
 8145TIP3   OH224398   0.912   1.214   4.090
 8145TIP3    H124399   0.859   1.161   4.150
 8145TIP3    H224400   0.848   1.257   4.033
 8146TIP3   OH224401   5.508   3.276   0.799
 8146TIP3    H124402   5.578   3.338   0.782
 8146TIP3    H224403   5.442   3.327   0.846
 8147TIP3   OH224404   1.563   0.207   1.891
 8147TIP3    H124405   1.494   0.168   1.945
 8147TIP3    H224406   1.540   0.299   1.888
 8148TIP3   OH224407   2.239   2.154   4.538
 8148TIP3    H124408   2.148   2.151   4.508
 8148TIP3    H224409   2.290   2.173   4.460
 8149TIP3   OH224410   4.200   5.052   3.339
 8149TIP3    H124411   4.224   5.111   3.410
 8149TIP3    H224412   4.107   5.034   3.354
 8150TIP3   OH224413   6.418   2.519   0.203
 8150TIP3    H124414   6.423   2.593   0.144
 8150TIP3    H224415   6.327   2.519   0.234
 8151TIP3   OH224416   6.563   0.605   4.342
 8151TIP3    H124417   6.637   0.569   4.390
 8151TIP3    H224418   6.531   0.532   4.289
 8152TIP3   OH224419   0.345   6.504   5.238
 8152TIP3    H124420   0.303   6.419   5.224
 8152TIP3    H224421   0.274   6.562   5.265
 8153TIP3   OH224422   0.994   5.068   5.318
 8153TIP3    H124423   1.082   5.102   5.331
 8153TIP3    H224424   0.941   5.145   5.298
 8154TIP3   OH224425   2.716   1.916   3.824
 8154TIP3    H124426   2.736   1.923   3.918
 8154TIP3    H224427   2.622   1.898   3.821
 8155TIP3   OH224428   5.150   5.281   3.272
 8155TIP3    H124429   5.126   5.258   3.362
 8155TIP3    H224430   5.182   5.200   3.234
 8156TIP3   OH224431   4.661   6.160   1.740
 8156TIP3    H124432   4.677   6.066   1.750
 8156TIP3    H224433   4.597   6.181   1.807
 8157TIP3   OH224434   1.515   5.937   3.038
 8157TIP3    H124435   1.423   5.936   3.011
 8157TIP3    H224436   1.553   5.859   2.997
 8158TIP3   OH224437   3.597   0.056   4.726
 8158TIP3    H124438   3.683   0.070   4.687
 8158TIP3    H224439   3.615   0.041   4.819
 8159TIP3   OH224440   5.421   4.825   2.199
 8159TIP3    H124441   5.364   4.843   2.273
 8159TIP3    H224442   5.493   4.775   2.236
 8160TIP3   OH224443   5.619   5.123   4.747
 8160TIP3    H124444   5.572   5.099   4.667
 8160TIP3    H224445   5.625   5.041   4.796
 8161TIP3   OH224446   1.080   0.653   0.766
 8161TIP3    H124447   1.025   0.640   0.843
 8161TIP3    H224448   1.142   0.579   0.769
 8162TIP3   OH224449   1.379   6.142   4.943
 8162TIP3    H124450   1.466   6.180   4.956
 8162TIP3    H224451   1.331   6.164   5.023
 8163TIP3   OH224452   5.338   3.603   5.306
 8163TIP3    H124453   5.310   3.530   5.250
 8163TIP3    H224454   5.263   3.662   5.307
 8164TIP3   OH224455   3.250   2.908   1.952
 8164TIP3    H124456   3.302   2.987   1.937
 8164TIP3    H224457   3.163   2.931   1.919
 8165TIP3   OH224458   0.670   0.806   1.564
 8165TIP3    H124459   0.663   0.806   1.468
 8165TIP3    H224460   0.609   0.737   1.591
 8166TIP3   OH224461   5.621   1.332   1.070
 8166TIP3    H124462   5.709   1.301   1.048
 8166TIP3    H224463   5.631   1.426   1.083
 8167TIP3   OH224464   1.313   5.537   1.182
 8167TIP3    H124465   1.354   5.461   1.222
 8167TIP3    H224466   1.351   5.541   1.094
 8168TIP3   OH224467   6.331   2.166   4.290
 8168TIP3    H124468   6.307   2.215   4.211
 8168TIP3    H224469   6.257   2.108   4.305
 8169TIP3   OH224470   2.784   0.834   1.390
 8169TIP3    H124471   2.808   0.818   1.481
 8169TIP3    H224472   2.777   0.929   1.383
 8170TIP3   OH224473   3.061   3.459   3.562
 8170TIP3    H124474   3.149   3.493   3.578
 8170TIP3    H224475   3.029   3.511   3.488
 8171TIP3   OH224476   4.888   1.709   3.271
 8171TIP3    H124477   4.889   1.784   3.330
 8171TIP3    H224478   4.929   1.639   3.320
 8172TIP3   OH224479   2.306   0.788   3.976
 8172TIP3    H124480   2.373   0.855   3.991
 8172TIP3    H224481   2.346   0.727   3.915
 8173TIP3   OH224482   1.084   3.366   1.125
 8173TIP3    H124483   1.079   3.271   1.141
 8173TIP3    H224484   1.149   3.375   1.056
 8174TIP3   OH224485   3.885   6.269   5.677
 8174TIP3    H124486   3.909   6.334   5.744
 8174TIP3    H224487   3.884   6.186   5.724
 8175TIP3   OH224488   4.976   3.260   4.974
 8175TIP3    H124489   5.026   3.194   4.926
 8175TIP3    H224490   5.030   3.280   5.050
 8176TIP3   OH224491   3.709   3.378   2.209
 8176TIP3    H124492   3.775   3.418   2.152
 8176TIP3    H224493   3.736   3.286   2.215
 8177TIP3   OH224494   1.155   5.253   3.738
 8177TIP3    H124495   1.160   5.260   3.642
 8177TIP3    H224496   1.230   5.304   3.770
 8178TIP3   OH224497   1.399   6.313   3.929
 8178TIP3    H124498   1.377   6.334   4.020
 8178TIP3    H224499   1.316   6.324   3.882
 8179TIP3   OH224500   6.138   2.034   3.548
 8179TIP3    H124501   6.074   2.104   3.534
 8179TIP3    H224502   6.196   2.040   3.472
 8180TIP3   OH224503   6.657   0.510   1.628
 8180TIP3    H124504   6.720   0.461   1.575
 8180TIP3    H224505   6.681   0.602   1.615
 8181TIP3   OH224506   6.773   5.654   3.794
 8181TIP3    H124507   6.749   5.591   3.726
 8181TIP3    H224508   6.867   5.641   3.807
 8182TIP3   OH224509   5.687   4.572   5.732
 8182TIP3    H124510   5.766   4.569   5.787
 8182TIP3    H224511   5.631   4.502   5.766
 8183TIP3   OH224512   0.428   5.779   4.796
 8183TIP3    H124513   0.459   5.787   4.706
 8183TIP3    H224514   0.500   5.812   4.850
 8184TIP3   OH224515   0.317   1.626   2.997
 8184TIP3    H124516   0.384   1.686   3.031
 8184TIP3    H224517   0.247   1.628   3.062
 8185TIP3   OH224518   2.431   0.275   4.706
 8185TIP3    H124519   2.513   0.226   4.718
 8185TIP3    H224520   2.415   0.270   4.611
 8186TIP3   OH224521   5.586   3.056   0.627
 8186TIP3    H124522   5.525   3.001   0.579
 8186TIP3    H224523   5.531   3.119   0.673
 8187TIP3   OH224524   1.903   5.299   0.858
 8187TIP3    H124525   1.863   5.262   0.779
 8187TIP3    H224526   1.990   5.261   0.861
 8188TIP3   OH224527   2.073   2.217   3.311
 8188TIP3    H124528   2.064   2.129   3.348
 8188TIP3    H224529   1.994   2.263   3.340
 8189TIP3   OH224530   5.082   0.202   5.711
 8189TIP3    H124531   5.116   0.272   5.656
 8189TIP3    H224532   4.995   0.232   5.736
 8190TIP3   OH224533   5.639   1.343   2.733
 8190TIP3    H124534   5.655   1.251   2.751
 8190TIP3    H224535   5.543   1.351   2.732
 8191TIP3   OH224536   1.787   6.479   5.285
 8191TIP3    H124537   1.758   6.538   5.355
 8191TIP3    H224538   1.876   6.455   5.310
 8192TIP3   OH224539   4.031   5.135   4.464
 8192TIP3    H124540   4.049   5.106   4.554
 8192TIP3    H224541   4.076   5.219   4.457
 8193TIP3   OH224542   0.525   2.747   1.376
 8193TIP3    H124543   0.510   2.727   1.468
 8193TIP3    H224544   0.616   2.778   1.373
 8194TIP3   OH224545   4.926   3.310   0.639
 8194TIP3    H124546   4.851   3.270   0.593
 8194TIP3    H224547   4.998   3.249   0.623
 8195TIP3   OH224548   3.126   4.562   4.853
 8195TIP3    H124549   3.040   4.596   4.880
 8195TIP3    H224550   3.107   4.473   4.821
 8196TIP3   OH224551   5.839   5.111   2.824
 8196TIP3    H124552   5.782   5.166   2.772
 8196TIP3    H224553   5.928   5.139   2.800
 8197TIP3   OH224554   2.080   3.936   4.568
 8197TIP3    H124555   2.053   3.986   4.645
 8197TIP3    H224556   2.002   3.887   4.543
 8198TIP3   OH224557   1.562   3.523   4.240
 8198TIP3    H124558   1.525   3.468   4.309
 8198TIP3    H224559   1.646   3.552   4.275
 8199TIP3   OH224560   5.563   4.977   3.788
 8199TIP3    H124561   5.569   4.894   3.835
 8199TIP3    H224562   5.531   5.040   3.853
 8200TIP3   OH224563   6.384   0.667   3.793
 8200TIP3    H124564   6.370   0.697   3.703
 8200TIP3    H224565   6.300   0.679   3.836
 8201TIP3   OH224566   4.670   5.029   2.683
 8201TIP3    H124567   4.742   4.996   2.630
 8201TIP3    H224568   4.683   5.124   2.684
 8202TIP3   OH224569   3.029   3.708   1.361
 8202TIP3    H124570   2.993   3.686   1.447
 8202TIP3    H224571   3.039   3.623   1.317
 8203TIP3   OH224572   3.282   5.602   3.140
 8203TIP3    H124573   3.319   5.552   3.067
 8203TIP3    H224574   3.246   5.535   3.199
 8204TIP3   OH224575   5.624   4.969   2.557
 8204TIP3    H124576   5.632   5.057   2.594
 8204TIP3    H224577   5.695   4.920   2.598
 8205TIP3   OH224578   3.797   0.828   1.569
 8205TIP3    H124579   3.843   0.775   1.634
 8205TIP3    H224580   3.706   0.799   1.575
 8206TIP3   OH224581   2.976   1.276   4.521
 8206TIP3    H124582   2.923   1.240   4.591
 8206TIP3    H224583   3.047   1.212   4.509
 8207TIP3   OH224584   0.868   4.046   2.300
 8207TIP3    H124585   0.785   4.028   2.256
 8207TIP3    H224586   0.881   4.141   2.290
 8208TIP3   OH224587   6.957   5.060   5.866
 8208TIP3    H124588   6.986   5.115   5.939
 8208TIP3    H224589   6.880   5.014   5.900
 8209TIP3   OH224590   6.701   2.796   5.662
 8209TIP3    H124591   6.772   2.859   5.647
 8209TIP3    H224592   6.632   2.824   5.602
 8210TIP3   OH224593   2.786   5.820   5.555
 8210TIP3    H124594   2.704   5.827   5.603
 8210TIP3    H224595   2.853   5.814   5.624
 8211TIP3   OH224596   4.212   6.653   5.524
 8211TIP3    H124597   4.297   6.615   5.499
 8211TIP3    H224598   4.230   6.747   5.533
 8212TIP3   OH224599   3.879   5.754   1.321
 8212TIP3    H124600   3.810   5.777   1.259
 8212TIP3    H224601   3.958   5.795   1.284
 8213TIP3   OH224602   1.268   0.186   3.276
 8213TIP3    H124603   1.207   0.112   3.279
 8213TIP3    H224604   1.355   0.144   3.275
 8214TIP3   OH224605   2.341   1.197   4.892
 8214TIP3    H124606   2.302   1.273   4.936
 8214TIP3    H224607   2.285   1.123   4.917
 8215TIP3   OH224608   4.319   3.112   4.229
 8215TIP3    H124609   4.340   3.147   4.316
 8215TIP3    H224610   4.276   3.029   4.247
 8216TIP3   OH224611   4.870   6.608   3.969
 8216TIP3    H124612   4.946   6.552   3.984
 8216TIP3    H224613   4.798   6.562   4.013
 8217TIP3   OH224614   5.112   2.538   0.798
 8217TIP3    H124615   5.084   2.454   0.836
 8217TIP3    H224616   5.045   2.558   0.733
 8218TIP3   OH224617   3.110   0.087   4.181
 8218TIP3    H124618   3.139   0.171   4.215
 8218TIP3    H224619   3.187   0.030   4.188
 8219TIP3   OH224620   0.301   3.843   3.066
 8219TIP3    H124621   0.377   3.794   3.035
 8219TIP3    H224622   0.282   3.805   3.153
 8220TIP3   OH224623   0.770   5.097   0.761
 8220TIP3    H124624   0.809   5.101   0.848
 8220TIP3    H224625   0.698   5.160   0.764
 8221TIP3   OH224626   5.505   1.112   0.843
 8221TIP3    H124627   5.539   1.201   0.829
 8221TIP3    H224628   5.565   1.074   0.907
 8222TIP3   OH224629   0.225   2.464   2.181
 8222TIP3    H124630   0.302   2.433   2.133
 8222TIP3    H224631   0.177   2.384   2.203
 8223TIP3   OH224632   4.306   0.732   3.278
 8223TIP3    H124633   4.236   0.766   3.333
 8223TIP3    H224634   4.377   0.794   3.288
 8224TIP3   OH224635   4.747   5.872   3.532
 8224TIP3    H124636   4.789   5.827   3.460
 8224TIP3    H224637   4.808   5.862   3.606
 8225TIP3   OH224638   2.597   2.684   5.235
 8225TIP3    H124639   2.668   2.631   5.270
 8225TIP3    H224640   2.606   2.679   5.140
 8226TIP3   OH224641   4.895   6.689   4.788
 8226TIP3    H124642   4.834   6.710   4.718
 8226TIP3    H224643   4.906   6.771   4.836
 8227TIP3   OH224644   2.137   6.500   3.934
 8227TIP3    H124645   2.166   6.564   3.869
 8227TIP3    H224646   2.214   6.447   3.952
 8228TIP3   OH224647   4.079   4.724   4.079
 8228TIP3    H124648   4.131   4.647   4.059
 8228TIP3    H224649   4.040   4.749   3.995
 8229TIP3   OH224650   5.700   3.411   5.884
 8229TIP3    H124651   5.618   3.460   5.892
 8229TIP3    H224652   5.674   3.319   5.893
 8230TIP3   OH224653   1.208   3.912   1.829
 8230TIP3    H124654   1.189   3.820   1.808
 8230TIP3    H224655   1.201   3.958   1.746
 8231TIP3   OH224656   1.184   2.152   2.879
 8231TIP3    H124657   1.266   2.176   2.921
 8231TIP3    H224658   1.154   2.075   2.927
 8232TIP3   OH224659   1.480   6.670   3.836
 8232TIP3    H124660   1.488   6.627   3.921
 8232TIP3    H224661   1.480   6.764   3.856
 8233TIP3   OH224662   3.455   4.654   3.818
 8233TIP3    H124663   3.510   4.594   3.767
 8233TIP3    H224664   3.389   4.598   3.858
 8234TIP3   OH224665   6.436   2.099   1.935
 8234TIP3    H124666   6.471   2.147   1.860
 8234TIP3    H224667   6.342   2.117   1.934
 8235TIP3   OH224668   4.784   2.534   4.951
 8235TIP3    H124669   4.810   2.533   4.859
 8235TIP3    H224670   4.745   2.621   4.964
 8236TIP3   OH224671   2.176   3.637   4.915
 8236TIP3    H124672   2.087   3.614   4.942
 8236TIP3    H224673   2.185   3.730   4.936
 8237TIP3   OH224674   5.530   2.781   3.648
 8237TIP3    H124675   5.505   2.689   3.637
 8237TIP3    H224676   5.529   2.795   3.743
 8238TIP3   OH224677   0.410   5.744   5.220
 8238TIP3    H124678   0.405   5.840   5.217
 8238TIP3    H224679   0.499   5.726   5.250
 8239TIP3   OH224680   6.533   0.275   4.357
 8239TIP3    H124681   6.614   0.325   4.365
 8239TIP3    H224682   6.531   0.248   4.265
 8240TIP3   OH224683   4.023   6.168   4.595
 8240TIP3    H124684   3.985   6.163   4.507
 8240TIP3    H224685   3.950   6.145   4.653
 8241TIP3   OH224686   4.677   4.402   1.825
 8241TIP3    H124687   4.752   4.410   1.885
 8241TIP3    H224688   4.601   4.418   1.880
 8242TIP3   OH224689   1.979   5.189   2.048
 8242TIP3    H124690   2.003   5.275   2.082
 8242TIP3    H224691   1.991   5.197   1.953
 8243TIP3   OH224692   1.889   5.835   3.345
 8243TIP3    H124693   1.809   5.783   3.339
 8243TIP3    H224694   1.897   5.876   3.259
 8244TIP3   OH224695   5.299   0.768   5.455
 8244TIP3    H124696   5.336   0.853   5.432
 8244TIP3    H224697   5.370   0.723   5.501
 8245TIP3   OH224698   4.927   0.106   0.302
 8245TIP3    H124699   4.920   0.201   0.297
 8245TIP3    H224700   4.886   0.074   0.221
 8246TIP3   OH224701   3.857   0.796   0.330
 8246TIP3    H124702   3.926   0.847   0.288
 8246TIP3    H224703   3.881   0.796   0.423
 8247TIP3   OH224704   0.320   3.483   3.967
 8247TIP3    H124705   0.398   3.475   4.021
 8247TIP3    H224706   0.249   3.448   4.021
 8248TIP3   OH224707   1.796   4.716   3.017
 8248TIP3    H124708   1.853   4.640   3.011
 8248TIP3    H224709   1.765   4.716   3.108
 8249TIP3   OH224710   0.794   0.741   4.243
 8249TIP3    H124711   0.845   0.772   4.169
 8249TIP3    H224712   0.775   0.649   4.224
 8250TIP3   OH224713   2.842   5.604   4.075
 8250TIP3    H124714   2.793   5.533   4.117
 8250TIP3    H224715   2.786   5.633   4.003
 8251TIP3   OH224716   6.632   0.827   2.072
 8251TIP3    H124717   6.550   0.781   2.090
 8251TIP3    H224718   6.680   0.826   2.155
 8252TIP3   OH224719   0.291   5.866   0.703
 8252TIP3    H124720   0.247   5.840   0.784
 8252TIP3    H224721   0.384   5.857   0.723
 8253TIP3   OH224722   6.262   1.829   0.283
 8253TIP3    H124723   6.311   1.747   0.293
 8253TIP3    H224724   6.172   1.806   0.307
 8254TIP3   OH224725   3.729   2.840   2.578
 8254TIP3    H124726   3.777   2.845   2.660
 8254TIP3    H224727   3.774   2.900   2.518
 8255TIP3   OH224728   2.627   1.437   2.347
 8255TIP3    H124729   2.695   1.407   2.287
 8255TIP3    H224730   2.627   1.373   2.419
 8256TIP3   OH224731   7.070   2.488   3.400
 8256TIP3    H124732   7.032   2.472   3.314
 8256TIP3    H224733   7.015   2.556   3.439
 8257TIP3   OH224734   3.751   2.230   5.408
 8257TIP3    H124735   3.827   2.286   5.424
 8257TIP3    H224736   3.700   2.278   5.342
 8258TIP3   OH224737   6.743   0.942   4.841
 8258TIP3    H124738   6.774   0.924   4.930
 8258TIP3    H224739   6.723   0.855   4.805
 8259TIP3   OH224740   7.212   5.530   3.122
 8259TIP3    H124741   7.293   5.512   3.074
 8259TIP3    H224742   7.236   5.521   3.214
 8260TIP3   OH224743   1.131   0.475   1.427
 8260TIP3    H124744   1.208   0.530   1.409
 8260TIP3    H224745   1.101   0.447   1.340
 8261TIP3   OH224746   3.250   4.268   5.687
 8261TIP3    H124747   3.325   4.230   5.640
 8261TIP3    H224748   3.287   4.296   5.771
 8262TIP3   OH224749   2.302   6.620   2.900
 8262TIP3    H124750   2.314   6.709   2.934
 8262TIP3    H224751   2.232   6.583   2.954
 8263TIP3   OH224752   3.585   1.045   5.112
 8263TIP3    H124753   3.497   1.007   5.114
 8263TIP3    H224754   3.606   1.053   5.019
 8264TIP3   OH224755   2.586   5.346   1.078
 8264TIP3    H124756   2.524   5.345   1.005
 8264TIP3    H224757   2.665   5.304   1.043
 8265TIP3   OH224758   2.460   6.779   3.115
 8265TIP3    H124759   2.479   6.851   3.175
 8265TIP3    H224760   2.511   6.799   3.037
 8266TIP3   OH224761   4.243   1.359   1.219
 8266TIP3    H124762   4.159   1.351   1.264
 8266TIP3    H224763   4.251   1.452   1.199
 8267TIP3   OH224764   3.579   3.896   5.213
 8267TIP3    H124765   3.662   3.904   5.261
 8267TIP3    H224766   3.597   3.829   5.147
 8268TIP3   OH224767   3.198   2.286   4.076
 8268TIP3    H124768   3.232   2.215   4.021
 8268TIP3    H224769   3.257   2.359   4.059
 8269TIP3   OH224770   6.973   6.144   2.876
 8269TIP3    H124771   6.889   6.182   2.852
 8269TIP3    H224772   6.957   6.050   2.881
 8270TIP3   OH224773   6.452   0.398   1.760
 8270TIP3    H124774   6.513   0.357   1.822
 8270TIP3    H224775   6.507   0.454   1.705
 8271TIP3   OH224776   2.117   3.518   2.480
 8271TIP3    H124777   2.068   3.518   2.563
 8271TIP3    H224778   2.062   3.569   2.420
 8272TIP3   OH224779   1.988   1.439   2.363
 8272TIP3    H124780   2.026   1.353   2.345
 8272TIP3    H224781   2.061   1.499   2.357
 8273TIP3   OH224782   3.562   0.850   4.769
 8273TIP3    H124783   3.519   0.765   4.780
 8273TIP3    H224784   3.647   0.830   4.730
 8274TIP3   OH224785   6.141   1.953   1.534
 8274TIP3    H124786   6.236   1.943   1.541
 8274TIP3    H224787   6.128   2.045   1.512
 8275TIP3   OH224788   5.342   5.171   1.412
 8275TIP3    H124789   5.266   5.123   1.446
 8275TIP3    H224790   5.397   5.185   1.488
 8276TIP3   OH224791   0.946   6.048   3.659
 8276TIP3    H124792   0.897   6.123   3.694
 8276TIP3    H224793   0.921   6.043   3.567
 8277TIP3   OH224794   3.541   2.915   5.768
 8277TIP3    H124795   3.535   3.010   5.758
 8277TIP3    H224796   3.449   2.886   5.775
 8278TIP3   OH224797   5.135   2.699   2.263
 8278TIP3    H124798   5.205   2.753   2.298
 8278TIP3    H224799   5.164   2.609   2.280
 8279TIP3   OH224800   6.928   6.075   3.765
 8279TIP3    H124801   6.891   6.003   3.715
 8279TIP3    H224802   6.883   6.071   3.850
 8280TIP3   OH224803   6.758   6.054   5.264
 8280TIP3    H124804   6.802   5.980   5.220
 8280TIP3    H224805   6.829   6.111   5.291
 8281TIP3   OH224806   2.750   4.902   0.357
 8281TIP3    H124807   2.835   4.941   0.375
 8281TIP3    H224808   2.769   4.833   0.293
 8282TIP3   OH224809   6.318   3.141   2.670
 8282TIP3    H124810   6.270   3.074   2.621
 8282TIP3    H224811   6.362   3.094   2.740
 8283TIP3   OH224812   4.161   0.090   2.897
 8283TIP3    H124813   4.166   0.068   2.804
 8283TIP3    H224814   4.108   0.169   2.900
 8284TIP3   OH224815   4.234   6.346   5.234
 8284TIP3    H124816   4.250   6.255   5.257
 8284TIP3    H224817   4.318   6.380   5.205
 8285TIP3   OH224818   2.242   2.229   0.876
 8285TIP3    H124819   2.178   2.178   0.924
 8285TIP3    H224820   2.315   2.169   0.861
 8286TIP3   OH224821   0.616   3.720   5.717
 8286TIP3    H124822   0.701   3.765   5.722
 8286TIP3    H224823   0.621   3.652   5.784
 8287TIP3   OH224824   3.160   4.646   2.335
 8287TIP3    H124825   3.163   4.551   2.332
 8287TIP3    H224826   3.224   4.670   2.402
 8288TIP3   OH224827   4.540   0.747   5.335
 8288TIP3    H124828   4.581   0.774   5.417
 8288TIP3    H224829   4.515   0.828   5.292
 8289TIP3   OH224830   3.109   6.299   1.533
 8289TIP3    H124831   3.048   6.369   1.558
 8289TIP3    H224832   3.110   6.302   1.437
 8290TIP3   OH224833   2.168   5.329   0.556
 8290TIP3    H124834   2.138   5.321   0.465
 8290TIP3    H224835   2.135   5.414   0.585
 8291TIP3   OH224836   3.492   6.100   5.481
 8291TIP3    H124837   3.581   6.134   5.466
 8291TIP3    H224838   3.436   6.177   5.478
 8292TIP3   OH224839   2.385   0.987   2.025
 8292TIP3    H124840   2.437   0.976   1.945
 8292TIP3    H224841   2.447   1.025   2.088
 8293TIP3   OH224842   2.222   4.259   3.798
 8293TIP3    H124843   2.155   4.206   3.840
 8293TIP3    H224844   2.290   4.269   3.865
 8294TIP3   OH224845   4.872   5.064   3.016
 8294TIP3    H124846   4.852   5.047   2.924
 8294TIP3    H224847   4.839   4.987   3.063
 8295TIP3   OH224848   6.071   1.473   5.865
 8295TIP3    H124849   6.073   1.382   5.835
 8295TIP3    H224850   6.083   1.467   5.960
 8296TIP3   OH224851   5.729   2.995   4.245
 8296TIP3    H124852   5.761   2.923   4.191
 8296TIP3    H224853   5.807   3.025   4.293
 8297TIP3   OH224854   3.847   5.262   2.519
 8297TIP3    H124855   3.785   5.334   2.512
 8297TIP3    H224856   3.919   5.297   2.571
 8298TIP3   OH224857   2.735   3.667   0.520
 8298TIP3    H124858   2.738   3.673   0.615
 8298TIP3    H224859   2.664   3.725   0.494
 8299TIP3   OH224860   7.197   6.044   5.561
 8299TIP3    H124861   7.256   6.060   5.635
 8299TIP3    H224862   7.196   6.127   5.513
 8300TIP3   OH224863   5.933   0.673   1.092
 8300TIP3    H124864   5.930   0.578   1.098
 8300TIP3    H224865   5.913   0.692   1.000
 8301TIP3   OH224866   3.770   6.001   2.193
 8301TIP3    H124867   3.688   6.036   2.158
 8301TIP3    H224868   3.750   5.911   2.218
 8302TIP3   OH224869   2.372   0.883   1.646
 8302TIP3    H124870   2.300   0.945   1.661
 8302TIP3    H224871   2.384   0.882   1.551
 8303TIP3   OH224872   3.328   3.495   3.626
 8303TIP3    H124873   3.346   3.406   3.654
 8303TIP3    H224874   3.399   3.516   3.566
 8304TIP3   OH224875   4.623   0.755   1.770
 8304TIP3    H124876   4.673   0.827   1.809
 8304TIP3    H224877   4.628   0.770   1.676
 8305TIP3   OH224878   2.715   1.843   2.214
 8305TIP3    H124879   2.643   1.899   2.184
 8305TIP3    H224880   2.714   1.853   2.309
 8306TIP3   OH224881   4.167   2.012   1.649
 8306TIP3    H124882   4.179   2.042   1.559
 8306TIP3    H224883   4.072   2.013   1.662
 8307TIP3   OH224884   2.154   2.845   0.046
 8307TIP3    H124885   2.074   2.889   0.076
 8307TIP3    H224886   2.209   2.916   0.012
 8308TIP3   OH224887   5.270   4.872   5.216
 8308TIP3    H124888   5.187   4.895   5.174
 8308TIP3    H224889   5.294   4.950   5.265
 8309TIP3   OH224890   6.773   3.650   5.062
 8309TIP3    H124891   6.711   3.690   5.123
 8309TIP3    H224892   6.859   3.675   5.097
 8310TIP3   OH224893   1.708   1.111   0.626
 8310TIP3    H124894   1.681   1.083   0.539
 8310TIP3    H224895   1.762   1.189   0.611
 8311TIP3   OH224896   6.990   6.762   0.523
 8311TIP3    H124897   6.932   6.748   0.598
 8311TIP3    H224898   6.981   6.683   0.471
 8312TIP3   OH224899   2.620   4.625   4.013
 8312TIP3    H124900   2.608   4.618   4.108
 8312TIP3    H224901   2.673   4.548   3.990
 8313TIP3   OH224902   2.974   0.660   0.855
 8313TIP3    H124903   3.069   0.651   0.860
 8313TIP3    H224904   2.945   0.577   0.819
 8314TIP3   OH224905   1.696   3.658   2.502
 8314TIP3    H124906   1.605   3.663   2.474
 8314TIP3    H224907   1.696   3.692   2.592
 8315TIP3   OH224908   2.667   5.632   5.766
 8315TIP3    H124909   2.698   5.552   5.810
 8315TIP3    H224910   2.637   5.602   5.680
 8316TIP3   OH224911   2.392   6.559   1.839
 8316TIP3    H124912   2.438   6.556   1.755
 8316TIP3    H224913   2.375   6.652   1.854
 8317TIP3   OH224914   5.971   1.054   5.212
 8317TIP3    H124915   5.907   1.067   5.142
 8317TIP3    H224916   6.036   0.994   5.174
 8318TIP3   OH224917   0.065   4.635   5.179
 8318TIP3    H124918  -0.021   4.674   5.165
 8318TIP3    H224919   0.088   4.658   5.269
 8319TIP3   OH224920   5.491   6.688   3.875
 8319TIP3    H124921   5.548   6.616   3.848
 8319TIP3    H224922   5.411   6.677   3.823
 8320TIP3   OH224923   1.039   0.298   0.942
 8320TIP3    H124924   1.120   0.324   0.897
 8320TIP3    H224925   0.975   0.365   0.916
 8321TIP3   OH224926   6.921   4.917   3.957
 8321TIP3    H124927   6.829   4.898   3.943
 8321TIP3    H224928   6.958   4.834   3.988
 8322TIP3   OH224929   3.551   1.865   0.299
 8322TIP3    H124930   3.487   1.916   0.249
 8322TIP3    H224931   3.603   1.820   0.232
 8323TIP3   OH224932   4.960   3.577   0.340
 8323TIP3    H124933   4.877   3.529   0.348
 8323TIP3    H224934   5.013   3.543   0.411
 8324TIP3   OH224935   0.149   1.791   4.259
 8324TIP3    H124936   0.172   1.881   4.279
 8324TIP3    H224937   0.215   1.739   4.306
 8325TIP3   OH224938   5.779   0.156   5.251
 8325TIP3    H124939   5.731   0.222   5.302
 8325TIP3    H224940   5.827   0.105   5.316
 8326TIP3   OH224941   2.950   1.601   3.931
 8326TIP3    H124942   3.005   1.618   4.008
 8326TIP3    H224943   2.863   1.632   3.956
 8327TIP3   OH224944   3.890   5.873   2.706
 8327TIP3    H124945   3.883   5.786   2.745
 8327TIP3    H224946   3.891   5.857   2.612
 8328TIP3   OH224947   0.170   5.128   5.561
 8328TIP3    H124948   0.137   5.102   5.647
 8328TIP3    H224949   0.232   5.198   5.579
 8329TIP3   OH224950   2.892   5.804   3.294
 8329TIP3    H124951   2.960   5.828   3.231
 8329TIP3    H224952   2.903   5.709   3.305
 8330TIP3   OH224953   2.238   4.374   1.741
 8330TIP3    H124954   2.256   4.334   1.826
 8330TIP3    H224955   2.303   4.335   1.682
 8331TIP3   OH224956   0.085   1.100   2.611
 8331TIP3    H124957   0.091   1.004   2.620
 8331TIP3    H224958   0.034   1.128   2.686
 8332TIP3   OH224959   3.965   1.284   0.660
 8332TIP3    H124960   3.952   1.368   0.703
 8332TIP3    H224961   4.057   1.263   0.675
 8333TIP3   OH224962   5.389   3.101   1.188
 8333TIP3    H124963   5.405   3.018   1.234
 8333TIP3    H224964   5.434   3.092   1.105
 8334TIP3   OH224965   3.174   2.600   2.822
 8334TIP3    H124966   3.168   2.663   2.894
 8334TIP3    H224967   3.099   2.620   2.766
 8335TIP3   OH224968   1.652   6.126   0.644
 8335TIP3    H124969   1.693   6.043   0.668
 8335TIP3    H224970   1.662   6.132   0.549
 8336TIP3   OH224971   5.939   0.513   4.605
 8336TIP3    H124972   6.011   0.521   4.543
 8336TIP3    H224973   5.901   0.601   4.609
 8337TIP3   OH224974   5.072   0.683   0.697
 8337TIP3    H124975   4.983   0.670   0.730
 8337TIP3    H224976   5.118   0.602   0.719
 8338TIP3   OH224977   5.503   0.507   0.238
 8338TIP3    H124978   5.594   0.507   0.209
 8338TIP3    H224979   5.503   0.561   0.317
 8339TIP3   OH224980   6.311   5.040   4.853
 8339TIP3    H124981   6.331   5.089   4.773
 8339TIP3    H224982   6.225   5.072   4.881
 8340TIP3   OH224983   1.137   3.341   3.301
 8340TIP3    H124984   1.055   3.373   3.338
 8340TIP3    H224985   1.201   3.410   3.321
 8341TIP3   OH224986   3.002   2.957   1.845
 8341TIP3    H124987   2.923   2.986   1.891
 8341TIP3    H224988   2.995   2.993   1.757
 8342TIP3   OH224989   5.226   5.669   4.593
 8342TIP3    H124990   5.213   5.579   4.622
 8342TIP3    H224991   5.266   5.661   4.506
 8343TIP3   OH224992   6.557   6.559   0.722
 8343TIP3    H124993   6.593   6.507   0.793
 8343TIP3    H224994   6.632   6.608   0.688
 8344TIP3   OH224995   0.559   2.681   5.318
 8344TIP3    H124996   0.634   2.625   5.336
 8344TIP3    H224997   0.527   2.708   5.404
 8345TIP3   OH224998   1.228   1.579   0.543
 8345TIP3    H124999   1.165   1.635   0.588
 8345TIP3    H225000   1.307   1.584   0.598
 8346TIP3   OH225001   2.264   4.113   4.330
 8346TIP3    H125002   2.300   4.063   4.403
 8346TIP3    H225003   2.337   4.122   4.269
 8347TIP3   OH225004   6.266   5.489   2.339
 8347TIP3    H125005   6.253   5.396   2.357
 8347TIP3    H225006   6.307   5.492   2.253
 8348TIP3   OH225007   7.135   0.846   5.398
 8348TIP3    H125008   7.220   0.802   5.402
 8348TIP3    H225009   7.072   0.777   5.416
 8349TIP3   OH225010   0.182   5.775   5.373
 8349TIP3    H125011   0.255   5.732   5.329
 8349TIP3    H225012   0.207   5.868   5.375
 8350TIP3   OH225013   0.609   4.258   3.694
 8350TIP3    H125014   0.532   4.305   3.727
 8350TIP3    H225015   0.639   4.205   3.768
 8351TIP3   OH225016   5.037   0.444   0.863
 8351TIP3    H125017   5.109   0.380   0.862
 8351TIP3    H225018   5.045   0.487   0.948
 8352TIP3   OH225019   2.641   0.248   3.059
 8352TIP3    H125020   2.580   0.318   3.082
 8352TIP3    H225021   2.626   0.180   3.125
 8353TIP3   OH225022   5.550   1.339   4.636
 8353TIP3    H125023   5.460   1.361   4.660
 8353TIP3    H225024   5.548   1.244   4.621
 8354TIP3   OH225025   5.557   4.889   2.965
 8354TIP3    H125026   5.625   4.827   2.938
 8354TIP3    H225027   5.475   4.847   2.942
 8355TIP3   OH225028   5.027   1.538   1.832
 8355TIP3    H125029   5.095   1.478   1.800
 8355TIP3    H225030   4.953   1.525   1.774
 8356TIP3   OH225031   3.925   4.695   1.208
 8356TIP3    H125032   3.966   4.726   1.289
 8356TIP3    H225033   3.949   4.603   1.203
 8357TIP3   OH225034   3.700   4.717   1.648
 8357TIP3    H125035   3.610   4.724   1.681
 8357TIP3    H225036   3.690   4.684   1.559
 8358TIP3   OH225037   1.320   4.579   1.960
 8358TIP3    H125038   1.276   4.548   1.881
 8358TIP3    H225039   1.310   4.674   1.957
 8359TIP3   OH225040   5.463   2.493   3.533
 8359TIP3    H125041   5.383   2.472   3.581
 8359TIP3    H225042   5.435   2.500   3.442
 8360TIP3   OH225043   6.523   6.154   5.327
 8360TIP3    H125044   6.617   6.144   5.314
 8360TIP3    H225045   6.515   6.229   5.386
 8361TIP3   OH225046   1.010   3.742   5.320
 8361TIP3    H125047   0.980   3.721   5.408
 8361TIP3    H225048   1.010   3.837   5.317
 8362TIP3   OH225049   2.935   0.263   2.336
 8362TIP3    H125050   3.001   0.202   2.304
 8362TIP3    H225051   2.878   0.278   2.260
 8363TIP3   OH225052   5.213   4.909   0.822
 8363TIP3    H125053   5.258   4.952   0.895
 8363TIP3    H225054   5.147   4.972   0.794
 8364TIP3   OH225055   0.710   0.326   0.898
 8364TIP3    H125056   0.624   0.347   0.861
 8364TIP3    H225057   0.749   0.266   0.834
 8365TIP3   OH225058   6.372   0.509   0.630
 8365TIP3    H125059   6.335   0.424   0.607
 8365TIP3    H225060   6.326   0.534   0.710
 8366TIP3   OH225061   7.158   0.275   3.599
 8366TIP3    H125062   7.104   0.338   3.551
 8366TIP3    H225063   7.132   0.286   3.691
 8367TIP3   OH225064   4.129   5.376   4.297
 8367TIP3    H125065   4.207   5.345   4.251
 8367TIP3    H225066   4.080   5.425   4.231
 8368TIP3   OH225067   5.134   6.279   4.561
 8368TIP3    H125068   5.222   6.299   4.593
 8368TIP3    H225069   5.092   6.233   4.634
 8369TIP3   OH225070   5.070   5.743   4.859
 8369TIP3    H125071   5.124   5.686   4.913
 8369TIP3    H225072   5.120   5.752   4.778
 8370TIP3   OH225073   1.753   6.047   0.934
 8370TIP3    H125074   1.774   6.022   0.843
 8370TIP3    H225075   1.664   6.015   0.948
 8371TIP3   OH225076   4.481   3.516   3.775
 8371TIP3    H125077   4.513   3.452   3.711
 8371TIP3    H225078   4.420   3.571   3.725
 8372TIP3   OH225079   6.165   6.738   2.710
 8372TIP3    H125080   6.174   6.829   2.682
 8372TIP3    H225081   6.100   6.741   2.781
 8373TIP3   OH225082   6.395   3.912   1.363
 8373TIP3    H125083   6.385   3.828   1.318
 8373TIP3    H225084   6.362   3.977   1.301
 8374TIP3   OH225085   6.376   1.909   1.199
 8374TIP3    H125086   6.454   1.859   1.222
 8374TIP3    H225087   6.408   1.996   1.178
 8375TIP3   OH225088   6.165   1.970   5.061
 8375TIP3    H125089   6.163   2.041   5.125
 8375TIP3    H225090   6.105   1.904   5.095
 8376TIP3   OH225091   1.353   4.214   5.646
 8376TIP3    H125092   1.396   4.129   5.659
 8376TIP3    H225093   1.329   4.243   5.734
 8377TIP3   OH225094   2.284   5.046   1.401
 8377TIP3    H125095   2.231   5.063   1.323
 8377TIP3    H225096   2.352   5.113   1.400
 8378TIP3   OH225097   7.099   6.671   3.125
 8378TIP3    H125098   7.191   6.672   3.152
 8378TIP3    H225099   7.051   6.652   3.206
 8379TIP3   OH225100   1.270   3.532   0.980
 8379TIP3    H125101   1.292   3.608   0.927
 8379TIP3    H225102   1.218   3.567   1.052
 8380TIP3   OH225103   5.379   6.110   5.571
 8380TIP3    H125104   5.464   6.082   5.602
 8380TIP3    H225105   5.325   6.030   5.571
 8381TIP3   OH225106   2.557   3.850   3.003
 8381TIP3    H125107   2.598   3.891   3.079
 8381TIP3    H225108   2.491   3.914   2.975
 8382TIP3   OH225109   3.836   2.890   2.828
 8382TIP3    H125110   3.895   2.831   2.876
 8382TIP3    H225111   3.771   2.917   2.893
 8383TIP3   OH225112   0.053   0.092   4.462
 8383TIP3    H125113   0.126   0.037   4.436
 8383TIP3    H225114  -0.010   0.030   4.500
 8384TIP3   OH225115   0.361   2.028   0.053
 8384TIP3    H125116   0.441   2.080   0.055
 8384TIP3    H225117   0.341   2.010   0.145
 8385TIP3   OH225118   1.830   4.048   4.000
 8385TIP3    H125119   1.867   4.125   3.958
 8385TIP3    H225120   1.900   4.016   4.057
 8386TIP3   OH225121   4.908   3.092   2.892
 8386TIP3    H125122   4.900   3.005   2.854
 8386TIP3    H225123   4.820   3.113   2.923
 8387TIP3   OH225124   3.895   4.907   1.673
 8387TIP3    H125125   3.828   4.839   1.667
 8387TIP3    H225126   3.922   4.921   1.582
 8388TIP3   OH225127   2.054   1.132   5.348
 8388TIP3    H125128   2.105   1.098   5.275
 8388TIP3    H225129   1.967   1.150   5.310
 8389TIP3   OH225130   2.683   4.793   0.647
 8389TIP3    H125131   2.698   4.765   0.557
 8389TIP3    H225132   2.661   4.886   0.640
 8390TIP3   OH225133   4.472   3.309   1.457
 8390TIP3    H125134   4.380   3.306   1.431
 8390TIP3    H225135   4.470   3.338   1.548
 8391TIP3   OH225136   0.146   6.798   4.459
 8391TIP3    H125137   0.193   6.875   4.491
 8391TIP3    H225138   0.199   6.724   4.489
 8392TIP3   OH225139   0.463   3.963   5.504
 8392TIP3    H125140   0.447   3.933   5.593
 8392TIP3    H225141   0.505   3.888   5.461
 8393TIP3   OH225142   5.128   1.883   3.203
 8393TIP3    H125143   5.098   1.860   3.115
 8393TIP3    H225144   5.130   1.979   3.204
 8394TIP3   OH225145   2.510   6.336   4.536
 8394TIP3    H125146   2.487   6.272   4.604
 8394TIP3    H225147   2.436   6.332   4.475
 8395TIP3   OH225148   4.242   5.769   4.290
 8395TIP3    H125149   4.281   5.854   4.312
 8395TIP3    H225150   4.238   5.769   4.194
 8396TIP3   OH225151   3.062   3.203   3.154
 8396TIP3    H125152   3.134   3.151   3.118
 8396TIP3    H225153   3.050   3.274   3.091
 8397TIP3   OH225154   1.796   3.821   1.968
 8397TIP3    H125155   1.891   3.823   1.955
 8397TIP3    H225156   1.760   3.810   1.880
 8398TIP3   OH225157   4.535   5.856   4.231
 8398TIP3    H125158   4.568   5.850   4.321
 8398TIP3    H225159   4.538   5.950   4.211
 8399TIP3   OH225160   2.161   4.783   4.816
 8399TIP3    H125161   2.126   4.773   4.904
 8399TIP3    H225162   2.085   4.804   4.762
 8400TIP3   OH225163   5.073   4.924   3.810
 8400TIP3    H125164   5.014   4.988   3.771
 8400TIP3    H225165   5.082   4.856   3.744
 8401TIP3   OH225166   4.469   6.586   5.525
 8401TIP3    H125167   4.535   6.517   5.535
 8401TIP3    H225168   4.518   6.667   5.536
 8402TIP3   OH225169   5.798   5.193   3.921
 8402TIP3    H125170   5.825   5.102   3.916
 8402TIP3    H225171   5.858   5.233   3.985
 8403TIP3   OH225172   4.394   5.175   2.664
 8403TIP3    H125173   4.464   5.112   2.682
 8403TIP3    H225174   4.384   5.224   2.746
 8404TIP3   OH225175   0.126   4.387   5.536
 8404TIP3    H125176   0.171   4.329   5.475
 8404TIP3    H225177   0.042   4.345   5.553
 8405TIP3   OH225178   0.712   1.139   3.056
 8405TIP3    H125179   0.740   1.230   3.042
 8405TIP3    H225180   0.794   1.089   3.056
 8406TIP3   OH225181   0.510   6.726   5.646
 8406TIP3    H125182   0.599   6.760   5.660
 8406TIP3    H225183   0.482   6.696   5.733
 8407TIP3   OH225184   5.829   1.990   4.028
 8407TIP3    H125185   5.878   2.035   3.959
 8407TIP3    H225186   5.881   2.005   4.108
 8408TIP3   OH225187   0.344   6.596   4.469
 8408TIP3    H125188   0.427   6.641   4.455
 8408TIP3    H225189   0.358   6.508   4.434
 8409TIP3   OH225190   2.187   3.035   3.425
 8409TIP3    H125191   2.218   3.082   3.347
 8409TIP3    H225192   2.094   3.058   3.430
 8410TIP3   OH225193   4.342   2.815   0.169
 8410TIP3    H125194   4.288   2.743   0.202
 8410TIP3    H225195   4.429   2.799   0.207
 8411TIP3   OH225196   0.260   1.439   2.771
 8411TIP3    H125197   0.307   1.475   2.695
 8411TIP3    H225198   0.251   1.513   2.830
 8412TIP3   OH225199   0.347   4.066   2.245
 8412TIP3    H125200   0.348   4.079   2.340
 8412TIP3    H225201   0.265   4.021   2.228
 8413TIP3   OH225202   5.823   0.276   4.690
 8413TIP3    H125203   5.830   0.289   4.785
 8413TIP3    H225204   5.863   0.355   4.653
 8414TIP3   OH225205   3.447   6.112   2.314
 8414TIP3    H125206   3.480   6.150   2.233
 8414TIP3    H225207   3.383   6.047   2.286
 8415TIP3   OH225208   4.795   3.940   4.167
 8415TIP3    H125209   4.774   3.900   4.083
 8415TIP3    H225210   4.888   3.922   4.180
 8416TIP3   OH225211   2.121   4.693   5.086
 8416TIP3    H125212   2.122   4.696   5.181
 8416TIP3    H225213   2.028   4.686   5.063
 8417TIP3   OH225214   5.803   5.074   0.183
 8417TIP3    H125215   5.851   5.101   0.105
 8417TIP3    H225216   5.727   5.131   0.186
 8418TIP3   OH225217   5.580   6.731   5.681
 8418TIP3    H125218   5.596   6.824   5.698
 8418TIP3    H225219   5.626   6.686   5.752
 8419TIP3   OH225220   3.818   3.895   1.864
 8419TIP3    H125221   3.806   3.960   1.795
 8419TIP3    H225222   3.777   3.934   1.941
 8420TIP3   OH225223   2.268   1.919   3.333
 8420TIP3    H125224   2.363   1.908   3.324
 8420TIP3    H225225   2.258   1.983   3.403
 8421TIP3   OH225226   3.695   4.395   1.488
 8421TIP3    H125227   3.729   4.460   1.427
 8421TIP3    H225228   3.738   4.313   1.463
 8422TIP3   OH225229   5.880   3.391   5.029
 8422TIP3    H125230   5.887   3.420   4.938
 8422TIP3    H225231   5.791   3.356   5.036
 8423TIP3   OH225232   2.555   4.462   5.824
 8423TIP3    H125233   2.519   4.434   5.908
 8423TIP3    H225234   2.514   4.547   5.807
 8424TIP3   OH225235   5.742   1.065   3.842
 8424TIP3    H125236   5.717   1.084   3.932
 8424TIP3    H225237   5.684   0.993   3.816
 8425TIP3   OH225238   5.370   1.163   1.936
 8425TIP3    H125239   5.326   1.081   1.958
 8425TIP3    H225240   5.418   1.144   1.855
 8426TIP3   OH225241   5.255   0.822   1.386
 8426TIP3    H125242   5.184   0.825   1.450
 8426TIP3    H225243   5.335   0.831   1.438
 8427TIP3   OH225244   2.940   4.942   5.566
 8427TIP3    H125245   2.950   5.032   5.596
 8427TIP3    H225246   2.870   4.906   5.620
 8428TIP3   OH225247   4.411   1.032   1.436
 8428TIP3    H125248   4.424   1.072   1.350
 8428TIP3    H225249   4.484   0.970   1.446
 8429TIP3   OH225250   3.631   5.179   5.696
 8429TIP3    H125251   3.617   5.085   5.688
 8429TIP3    H225252   3.558   5.210   5.750
 8430TIP3   OH225253   4.905   1.542   1.423
 8430TIP3    H125254   4.925   1.450   1.406
 8430TIP3    H225255   4.882   1.577   1.336
 8431TIP3   OH225256   4.751   3.217   5.189
 8431TIP3    H125257   4.671   3.260   5.158
 8431TIP3    H225258   4.810   3.217   5.114
 8432TIP3   OH225259   4.681   6.760   5.570
 8432TIP3    H125260   4.741   6.754   5.644
 8432TIP3    H225261   4.737   6.761   5.493
 8433TIP3   OH225262   3.952   6.277   1.269
 8433TIP3    H125263   4.039   6.242   1.250
 8433TIP3    H225264   3.898   6.199   1.284
 8434TIP3   OH225265   4.513   2.847   3.535
 8434TIP3    H125266   4.547   2.758   3.543
 8434TIP3    H225267   4.420   2.839   3.555
 8435TIP3   OH225268   5.276   2.208   2.393
 8435TIP3    H125269   5.312   2.146   2.330
 8435TIP3    H225270   5.339   2.207   2.465
 8436TIP3   OH225271   4.954   6.761   2.094
 8436TIP3    H125272   4.909   6.844   2.079
 8436TIP3    H225273   4.889   6.706   2.138
 8437TIP3   OH225274   4.498   4.236   1.622
 8437TIP3    H125275   4.546   4.218   1.542
 8437TIP3    H225276   4.553   4.298   1.670
 8438TIP3   OH225277   4.221   4.261   1.284
 8438TIP3    H125278   4.225   4.195   1.353
 8438TIP3    H225279   4.253   4.216   1.206
 8439TIP3   OH225280   4.001   3.742   3.152
 8439TIP3    H125281   3.951   3.789   3.085
 8439TIP3    H225282   3.950   3.753   3.232
 8440TIP3   OH225283   4.743   1.464   5.145
 8440TIP3    H125284   4.726   1.415   5.064
 8440TIP3    H225285   4.722   1.401   5.215
 8441TIP3   OH225286   4.943   0.564   5.687
 8441TIP3    H125287   4.859   0.559   5.733
 8441TIP3    H225288   4.925   0.617   5.610
 8442TIP3   OH225289   3.599   4.161   3.578
 8442TIP3    H125290   3.670   4.174   3.514
 8442TIP3    H225291   3.605   4.069   3.602
 8443TIP3   OH225292   3.498   1.167   0.033
 8443TIP3    H125293   3.465   1.136   0.117
 8443TIP3    H225294   3.568   1.106   0.010
 8444TIP3   OH225295   4.804   4.827   3.101
 8444TIP3    H125296   4.778   4.830   3.193
 8444TIP3    H225297   4.726   4.795   3.056
 8445TIP3   OH225298   0.039   6.305   5.481
 8445TIP3    H125299   0.084   6.310   5.565
 8445TIP3    H225300  -0.036   6.363   5.490
 8446TIP3   OH225301   1.018   6.695   4.599
 8446TIP3    H125302   0.943   6.672   4.654
 8446TIP3    H225303   1.072   6.750   4.655
 8447TIP3   OH225304   4.603   1.143   3.585
 8447TIP3    H125305   4.540   1.215   3.584
 8447TIP3    H225306   4.655   1.158   3.664
 8448TIP3   OH225307   4.015   1.804   1.455
 8448TIP3    H125308   4.104   1.841   1.456
 8448TIP3    H225309   4.029   1.710   1.463
 8449TIP3   OH225310   3.101   2.322   5.161
 8449TIP3    H125311   3.046   2.350   5.088
 8449TIP3    H225312   3.100   2.226   5.157
 8450TIP3   OH225313   6.742   4.765   3.421
 8450TIP3    H125314   6.793   4.800   3.348
 8450TIP3    H225315   6.784   4.799   3.499
 8451TIP3   OH225316   4.688   1.706   2.289
 8451TIP3    H125317   4.695   1.801   2.300
 8451TIP3    H225318   4.767   1.672   2.330
 8452TIP3   OH225319   2.537   5.575   4.794
 8452TIP3    H125320   2.593   5.617   4.729
 8452TIP3    H225321   2.583   5.495   4.818
 8453TIP3   OH225322   1.603   3.912   0.790
 8453TIP3    H125323   1.687   3.886   0.828
 8453TIP3    H225324   1.591   4.002   0.819
 8454TIP3   OH225325   3.555   4.558   4.772
 8454TIP3    H125326   3.529   4.508   4.695
 8454TIP3    H225327   3.484   4.620   4.787
 8455TIP3   OH225328   5.489   5.020   0.343
 8455TIP3    H125329   5.467   4.944   0.289
 8455TIP3    H225330   5.470   4.992   0.433
 8456TIP3   OH225331   3.062   0.134   5.336
 8456TIP3    H125332   3.048   0.182   5.417
 8456TIP3    H225333   2.983   0.081   5.326
 8457TIP3   OH225334   5.621   2.284   3.903
 8457TIP3    H125335   5.650   2.316   3.818
 8457TIP3    H225336   5.617   2.363   3.958
 8458TIP3   OH225337   6.120   3.112   1.660
 8458TIP3    H125338   6.151   3.138   1.747
 8458TIP3    H225339   6.194   3.064   1.622
 8459TIP3   OH225340   5.670   2.684   1.110
 8459TIP3    H125341   5.678   2.779   1.107
 8459TIP3    H225342   5.576   2.668   1.115
 8460TIP3   OH225343   2.126   6.738   0.636
 8460TIP3    H125344   2.086   6.791   0.705
 8460TIP3    H225345   2.168   6.802   0.578
 8461TIP3   OH225346   1.993   0.534   4.010
 8461TIP3    H125347   2.074   0.539   3.961
 8461TIP3    H225348   1.935   0.480   3.956
 8462TIP3   OH225349   0.999   3.727   1.416
 8462TIP3    H125350   1.087   3.759   1.437
 8462TIP3    H225351   0.961   3.702   1.500
 8463TIP3   OH225352   6.781   1.991   2.397
 8463TIP3    H125353   6.771   1.957   2.308
 8463TIP3    H225354   6.848   2.060   2.390
 8464TIP3   OH225355   1.635   0.093   1.653
 8464TIP3    H125356   1.621   0.131   1.740
 8464TIP3    H225357   1.715   0.041   1.662
 8465TIP3   OH225358   6.837   1.078   0.621
 8465TIP3    H125359   6.800   1.113   0.702
 8465TIP3    H225360   6.808   1.139   0.553
 8466TIP3   OH225361   3.484   4.900   3.565
 8466TIP3    H125362   3.494   4.856   3.480
 8466TIP3    H225363   3.480   4.829   3.629
 8467TIP3   OH225364   0.611   1.844   2.675
 8467TIP3    H125365   0.693   1.796   2.663
 8467TIP3    H225366   0.543   1.782   2.648
 8468TIP3   OH225367   3.245   0.689   0.180
 8468TIP3    H125368   3.276   0.618   0.236
 8468TIP3    H225369   3.322   0.713   0.128
 8469TIP3   OH225370   0.631   1.170   2.561
 8469TIP3    H125371   0.649   1.131   2.476
 8469TIP3    H225372   0.539   1.194   2.558
 8470TIP3   OH225373   1.297   3.534   3.430
 8470TIP3    H125374   1.333   3.605   3.378
 8470TIP3    H225375   1.262   3.577   3.508
 8471TIP3   OH225376   4.074   3.018   2.972
 8471TIP3    H125377   4.167   3.040   2.967
 8471TIP3    H225378   4.033   3.099   3.003
 8472TIP3   OH225379   4.160   5.338   1.159
 8472TIP3    H125380   4.235   5.289   1.193
 8472TIP3    H225381   4.126   5.284   1.088
 8473TIP3   OH225382   0.569   5.512   4.864
 8473TIP3    H125383   0.511   5.586   4.851
 8473TIP3    H225384   0.613   5.500   4.780
 8474TIP3   OH225385   5.446   3.458   1.391
 8474TIP3    H125386   5.535   3.491   1.398
 8474TIP3    H225387   5.400   3.497   1.466
 8475TIP3   OH225388   5.275   3.359   2.322
 8475TIP3    H125389   5.228   3.387   2.400
 8475TIP3    H225390   5.288   3.265   2.335
 8476TIP3   OH225391   3.368   6.668   4.565
 8476TIP3    H125392   3.434   6.736   4.556
 8476TIP3    H225393   3.380   6.635   4.654
 8477TIP3   OH225394   3.453   1.779   0.026
 8477TIP3    H125395   3.358   1.769   0.028
 8477TIP3    H225396   3.487   1.692   0.044
 8478TIP3   OH225397   0.817   6.025   2.193
 8478TIP3    H125398   0.822   6.121   2.201
 8478TIP3    H225399   0.894   6.001   2.142
 8479TIP3   OH225400   2.458   0.788   5.171
 8479TIP3    H125401   2.392   0.798   5.103
 8479TIP3    H225402   2.418   0.730   5.236
 8480TIP3   OH225403   5.086   0.056   5.398
 8480TIP3    H125404   5.012   0.099   5.355
 8480TIP3    H225405   5.150   0.043   5.329
 8481TIP3   OH225406   3.796   3.072   4.586
 8481TIP3    H125407   3.712   3.027   4.577
 8481TIP3    H225408   3.775   3.165   4.572
 8482TIP3   OH225409   3.321   6.184   1.800
 8482TIP3    H125410   3.325   6.185   1.896
 8482TIP3    H225411   3.262   6.256   1.778
 8483TIP3   OH225412   6.717   5.185   2.274
 8483TIP3    H125413   6.761   5.221   2.351
 8483TIP3    H225414   6.730   5.091   2.280
 8484TIP3   OH225415   1.260   4.530   2.877
 8484TIP3    H125416   1.300   4.591   2.815
 8484TIP3    H225417   1.267   4.445   2.835
 8485TIP3   OH225418   2.946   4.989   1.506
 8485TIP3    H125419   2.954   4.992   1.410
 8485TIP3    H225420   2.858   5.022   1.523
 8486TIP3   OH225421   0.174   4.440   1.797
 8486TIP3    H125422   0.135   4.404   1.876
 8486TIP3    H225423   0.268   4.428   1.808
 8487TIP3   OH225424   2.175   5.411   4.385
 8487TIP3    H125425   2.163   5.405   4.290
 8487TIP3    H225426   2.254   5.464   4.395
 8488TIP3   OH225427   2.218   5.755   0.896
 8488TIP3    H125428   2.208   5.662   0.918
 8488TIP3    H225429   2.203   5.759   0.802
 8489TIP3   OH225430   2.649   1.614   0.193
 8489TIP3    H125431   2.737   1.642   0.168
 8489TIP3    H225432   2.652   1.518   0.189
 8490TIP3   OH225433   6.128   5.942   1.817
 8490TIP3    H125434   6.111   5.981   1.903
 8490TIP3    H225435   6.093   5.853   1.824
 8491TIP3   OH225436   0.119   3.863   2.751
 8491TIP3    H125437   0.144   3.781   2.795
 8491TIP3    H225438   0.200   3.915   2.750
 8492TIP3   OH225439   5.756   1.323   4.845
 8492TIP3    H125440   5.827   1.387   4.849
 8492TIP3    H225441   5.755   1.294   4.754
 8493TIP3   OH225442   4.041   1.802   4.653
 8493TIP3    H125443   4.082   1.775   4.735
 8493TIP3    H225444   4.083   1.747   4.586
 8494TIP3   OH225445   6.767   1.947   1.221
 8494TIP3    H125446   6.718   1.869   1.247
 8494TIP3    H225447   6.779   1.937   1.126
 8495TIP3   OH225448   3.139   1.320   3.292
 8495TIP3    H125449   3.173   1.257   3.355
 8495TIP3    H225450   3.096   1.387   3.345
 8496TIP3   OH225451   3.402   2.747   3.330
 8496TIP3    H125452   3.484   2.792   3.309
 8496TIP3    H225453   3.369   2.792   3.408
 8497TIP3   OH225454   2.042   0.916   2.563
 8497TIP3    H125455   1.982   0.855   2.607
 8497TIP3    H225456   1.990   0.955   2.493
 8498TIP3   OH225457   6.280   4.785   2.420
 8498TIP3    H125458   6.214   4.852   2.401
 8498TIP3    H225459   6.336   4.785   2.342
 8499TIP3   OH225460   3.288   4.703   0.481
 8499TIP3    H125461   3.341   4.737   0.554
 8499TIP3    H225462   3.348   4.646   0.433
 8500TIP3   OH225463   4.680   3.703   3.691
 8500TIP3    H125464   4.628   3.743   3.622
 8500TIP3    H225465   4.625   3.631   3.723
 8501TIP3   OH225466   6.454   4.234   4.538
 8501TIP3    H125467   6.518   4.163   4.536
 8501TIP3    H225468   6.400   4.219   4.460
 8502TIP3   OH225469   3.608   0.857   0.373
 8502TIP3    H125470   3.591   0.844   0.466
 8502TIP3    H225471   3.703   0.848   0.364
 8503TIP3   OH225472   3.948   2.385   0.744
 8503TIP3    H125473   3.966   2.464   0.793
 8503TIP3    H225474   3.898   2.331   0.804
 8504TIP3   OH225475   6.423   5.533   0.050
 8504TIP3    H125476   6.491   5.482   0.006
 8504TIP3    H225477   6.378   5.580  -0.020
 8505TIP3   OH225478   3.016   3.904   0.440
 8505TIP3    H125479   2.952   3.867   0.378
 8505TIP3    H225480   3.090   3.843   0.437
 8506TIP3   OH225481   3.767   2.785   3.524
 8506TIP3    H125482   3.701   2.783   3.594
 8506TIP3    H225483   3.809   2.699   3.528
 8507TIP3   OH225484   4.233   5.505   4.032
 8507TIP3    H125485   4.293   5.436   4.004
 8507TIP3    H225486   4.267   5.585   3.991
 8508TIP3   OH225487   1.049   1.357   0.840
 8508TIP3    H125488   1.018   1.426   0.781
 8508TIP3    H225489   0.989   1.284   0.826
 8509TIP3   OH225490   3.438   2.487   0.892
 8509TIP3    H125491   3.400   2.402   0.868
 8509TIP3    H225492   3.362   2.543   0.904
 8510TIP3   OH225493   4.330   0.021   1.354
 8510TIP3    H125494   4.275  -0.039   1.405
 8510TIP3    H225495   4.412  -0.026   1.342
 8511TIP3   OH225496   6.011   3.568   1.094
 8511TIP3    H125497   6.028   3.654   1.135
 8511TIP3    H225498   5.926   3.579   1.051
 8512TIP3   OH225499   0.297   1.517   3.948
 8512TIP3    H125500   0.279   1.543   3.858
 8512TIP3    H225501   0.296   1.422   3.947
 8513TIP3   OH225502   6.913   3.951   4.102
 8513TIP3    H125503   6.857   3.876   4.119
 8513TIP3    H225504   6.892   3.978   4.013
 8514TIP3   OH225505   0.212   3.000   2.278
 8514TIP3    H125506   0.211   3.072   2.215
 8514TIP3    H225507   0.178   2.924   2.229
 8515TIP3   OH225508   0.323   1.365   0.958
 8515TIP3    H125509   0.259   1.354   1.027
 8515TIP3    H225510   0.282   1.425   0.896
 8516TIP3   OH225511   4.561   5.973   3.823
 8516TIP3    H125512   4.581   6.037   3.891
 8516TIP3    H225513   4.626   5.904   3.835
 8517TIP3   OH225514   3.563   3.599   0.126
 8517TIP3    H125515   3.538   3.606   0.219
 8517TIP3    H225516   3.505   3.533   0.090
 8518TIP3   OH225517   0.276   2.455   1.581
 8518TIP3    H125518   0.277   2.506   1.662
 8518TIP3    H225519   0.185   2.457   1.552
 8519TIP3   OH225520   5.117   5.703   3.550
 8519TIP3    H125521   5.132   5.609   3.545
 8519TIP3    H225522   5.158   5.729   3.633
 8520TIP3   OH225523   2.019   5.762   5.140
 8520TIP3    H125524   2.092   5.774   5.202
 8520TIP3    H225525   2.061   5.760   5.054
 8521TIP3   OH225526   0.104   5.659   1.060
 8521TIP3    H125527   0.034   5.595   1.045
 8521TIP3    H225528   0.077   5.706   1.139
 8522TIP3   OH225529   3.562   3.010   2.948
 8522TIP3    H125530   3.526   3.061   2.874
 8522TIP3    H225531   3.539   3.061   3.025
 8523TIP3   OH225532   6.040   3.853   4.039
 8523TIP3    H125533   6.094   3.800   3.980
 8523TIP3    H225534   6.098   3.872   4.113
 8524TIP3   OH225535   4.061   3.091   5.541
 8524TIP3    H125536   4.137   3.145   5.560
 8524TIP3    H225537   4.069   3.017   5.601
 8525TIP3   OH225538   2.649   2.646   3.308
 8525TIP3    H125539   2.704   2.707   3.260
 8525TIP3    H225540   2.638   2.572   3.249
 8526TIP3   OH225541   6.899   2.716   3.419
 8526TIP3    H125542   6.957   2.784   3.452
 8526TIP3    H225543   6.811   2.743   3.446
 8527TIP3   OH225544   3.691   1.494   2.162
 8527TIP3    H125545   3.651   1.545   2.232
 8527TIP3    H225546   3.706   1.557   2.092
 8528TIP3   OH225547   7.110   6.119   5.160
 8528TIP3    H125548   7.042   6.129   5.094
 8528TIP3    H225549   7.072   6.159   5.239
 8529TIP3   OH225550   4.457   0.962   3.321
 8529TIP3    H125551   4.472   1.030   3.386
 8529TIP3    H225552   4.476   1.003   3.237
 8530TIP3   OH225553   0.935   2.741   4.664
 8530TIP3    H125554   0.999   2.772   4.729
 8530TIP3    H225555   0.857   2.794   4.681
 8531TIP3   OH225556   5.960   6.654   2.541
 8531TIP3    H125557   6.028   6.697   2.593
 8531TIP3    H225558   5.901   6.615   2.606
 8532TIP3   OH225559   0.936   2.339   2.716
 8532TIP3    H125560   0.938   2.244   2.713
 8532TIP3    H225561   0.963   2.367   2.629
 8533TIP3   OH225562   3.625   6.721   5.656
 8533TIP3    H125563   3.719   6.705   5.646
 8533TIP3    H225564   3.619   6.779   5.732
 8534TIP3   OH225565   1.950   3.578   1.455
 8534TIP3    H125566   2.032   3.615   1.422
 8534TIP3    H225567   1.901   3.555   1.376
 8535TIP3   OH225568   0.990   3.579   5.549
 8535TIP3    H125569   0.952   3.562   5.635
 8535TIP3    H225570   1.064   3.518   5.543
 8536TIP3   OH225571   0.304   0.768   1.163
 8536TIP3    H125572   0.214   0.797   1.148
 8536TIP3    H225573   0.330   0.811   1.245
 8537TIP3   OH225574   4.389   1.648   2.228
 8537TIP3    H125575   4.484   1.639   2.226
 8537TIP3    H225576   4.358   1.594   2.154
 8538TIP3   OH225577   1.390   6.558   0.550
 8538TIP3    H125578   1.344   6.642   0.554
 8538TIP3    H225579   1.359   6.509   0.626
 8539TIP3   OH225580   1.347   5.053   1.501
 8539TIP3    H125581   1.287   5.111   1.548
 8539TIP3    H225582   1.340   4.969   1.547
 8540TIP3   OH225583   1.027   2.129   4.567
 8540TIP3    H125584   0.950   2.082   4.600
 8540TIP3    H225585   0.991   2.194   4.506
 8541TIP3   OH225586   5.614   3.650   0.723
 8541TIP3    H125587   5.521   3.662   0.746
 8541TIP3    H225588   5.632   3.720   0.660
 8542TIP3   OH225589   3.024   5.470   2.800
 8542TIP3    H125590   3.081   5.465   2.723
 8542TIP3    H225591   3.059   5.403   2.859
 8543TIP3   OH225592   6.257   0.306   2.019
 8543TIP3    H125593   6.236   0.266   1.934
 8543TIP3    H225594   6.254   0.401   2.003
 8544TIP3   OH225595   1.621   4.521   0.013
 8544TIP3    H125596   1.622   4.469   0.093
 8544TIP3    H225597   1.694   4.488  -0.038
 8545TIP3   OH225598   5.719   2.385   3.652
 8545TIP3    H125599   5.630   2.385   3.617
 8545TIP3    H225600   5.753   2.473   3.630
 8546TIP3   OH225601   0.762   4.051   2.836
 8546TIP3    H125602   0.857   4.042   2.849
 8546TIP3    H225603   0.727   3.964   2.852
 8547TIP3   OH225604   6.684   0.008   2.649
 8547TIP3    H125605   6.659   0.011   2.742
 8547TIP3    H225606   6.601  -0.003   2.603
 8548TIP3   OH225607   3.729   0.720   0.110
 8548TIP3    H125608   3.719   0.628   0.131
 8548TIP3    H225609   3.771   0.758   0.187
 8549TIP3   OH225610   6.270   4.671   4.463
 8549TIP3    H125611   6.311   4.757   4.472
 8549TIP3    H225612   6.187   4.688   4.417
 8550TIP3   OH225613   4.973   3.607   4.738
 8550TIP3    H125614   5.000   3.690   4.699
 8550TIP3    H225615   5.054   3.557   4.744
 8551TIP3   OH225616   5.258   1.573   2.369
 8551TIP3    H125617   5.315   1.632   2.319
 8551TIP3    H225618   5.232   1.625   2.446
 8552TIP3   OH225619   0.774   5.976   2.621
 8552TIP3    H125620   0.826   6.046   2.582
 8552TIP3    H225621   0.684   6.008   2.620
 8553TIP3   OH225622   0.743   4.022   5.158
 8553TIP3    H125623   0.730   4.095   5.098
 8553TIP3    H225624   0.827   4.040   5.200
 8554TIP3   OH225625   5.770   1.314   2.499
 8554TIP3    H125626   5.765   1.303   2.594
 8554TIP3    H225627   5.684   1.348   2.474
 8555TIP3   OH225628   5.412   6.263   3.476
 8555TIP3    H125629   5.334   6.320   3.471
 8555TIP3    H225630   5.377   6.176   3.496
 8556TIP3   OH225631   3.721   3.564   3.067
 8556TIP3    H125632   3.660   3.558   3.141
 8556TIP3    H225633   3.798   3.607   3.103
 8557TIP3   OH225634   5.477   2.948   5.386
 8557TIP3    H125635   5.459   2.859   5.354
 8557TIP3    H225636   5.398   2.972   5.435
 8558TIP3   OH225637   0.028   0.351   1.629
 8558TIP3    H125638   0.092   0.398   1.681
 8558TIP3    H225639   0.078   0.317   1.555
 8559TIP3   OH225640   4.933   4.361   4.096
 8559TIP3    H125641   5.013   4.401   4.061
 8559TIP3    H225642   4.862   4.410   4.054
 8560TIP3   OH225643   5.182   3.942   4.459
 8560TIP3    H125644   5.219   4.024   4.494
 8560TIP3    H225645   5.251   3.878   4.470
 8561TIP3   OH225646   4.496   5.380   1.821
 8561TIP3    H125647   4.497   5.294   1.863
 8561TIP3    H225648   4.526   5.440   1.889
 8562TIP3   OH225649   2.308   5.320   2.129
 8562TIP3    H125650   2.279   5.240   2.173
 8562TIP3    H225651   2.241   5.338   2.064
 8563TIP3   OH225652   2.519   1.496   4.983
 8563TIP3    H125653   2.479   1.423   5.030
 8563TIP3    H225654   2.449   1.560   4.974
 8564TIP3   OH225655   1.512   3.114   3.340
 8564TIP3    H125656   1.538   3.027   3.370
 8564TIP3    H225657   1.430   3.100   3.292
 8565TIP3   OH225658   5.758   4.993   5.192
 8565TIP3    H125659   5.701   5.032   5.126
 8565TIP3    H225660   5.697   4.959   5.258
 8566TIP3   OH225661   3.956   3.127   1.304
 8566TIP3    H125662   3.876   3.075   1.295
 8566TIP3    H225663   4.027   3.062   1.306
 8567TIP3   OH225664   4.452   6.384   2.561
 8567TIP3    H125665   4.393   6.425   2.624
 8567TIP3    H225666   4.484   6.456   2.507
 8568TIP3   OH225667   0.936   3.483   1.333
 8568TIP3    H125668   0.988   3.452   1.258
 8568TIP3    H225669   0.975   3.567   1.356
 8569TIP3   OH225670   0.866   3.283   5.351
 8569TIP3    H125671   0.959   3.276   5.372
 8569TIP3    H225672   0.827   3.325   5.428
 8570TIP3   OH225673   3.324   5.973   1.606
 8570TIP3    H125674   3.304   6.032   1.678
 8570TIP3    H225675   3.370   5.899   1.647
 8571TIP3   OH225676   1.490   5.659   1.481
 8571TIP3    H125677   1.559   5.622   1.535
 8571TIP3    H225678   1.411   5.653   1.534
 8572TIP3   OH225679   4.535   2.424   4.942
 8572TIP3    H125680   4.573   2.347   4.899
 8572TIP3    H225681   4.611   2.479   4.963
 8573TIP3   OH225682   1.125   0.332   0.471
 8573TIP3    H125683   1.204   0.332   0.525
 8573TIP3    H225684   1.146   0.393   0.400
 8574TIP3   OH225685   1.737   1.984   5.506
 8574TIP3    H125686   1.794   1.997   5.582
 8574TIP3    H225687   1.759   2.057   5.447
 8575TIP3   OH225688   1.216   2.641   3.932
 8575TIP3    H125689   1.287   2.668   3.874
 8575TIP3    H225690   1.244   2.670   4.019
 8576TIP3   OH225691   1.753   3.305   3.683
 8576TIP3    H125692   1.712   3.388   3.708
 8576TIP3    H225693   1.748   3.303   3.588
 8577TIP3   OH225694   5.492   2.185   1.302
 8577TIP3    H125695   5.446   2.253   1.254
 8577TIP3    H225696   5.423   2.123   1.326
 8578TIP3   OH225697   6.650   5.612   2.235
 8578TIP3    H125698   6.642   5.531   2.184
 8578TIP3    H225699   6.666   5.680   2.170
 8579TIP3   OH225700   0.146   5.045   3.505
 8579TIP3    H125701   0.220   5.067   3.561
 8579TIP3    H225702   0.170   4.960   3.467
 8580TIP3   OH225703   2.848   2.359   1.994
 8580TIP3    H125704   2.808   2.275   2.016
 8580TIP3    H225705   2.935   2.336   1.963
 8581TIP3   OH225706   4.108   6.595   5.259
 8581TIP3    H125707   4.129   6.603   5.352
 8581TIP3    H225708   4.137   6.507   5.235
 8582TIP3   OH225709   0.025   5.807   3.988
 8582TIP3    H125710   0.104   5.761   3.958
 8582TIP3    H225711   0.014   5.778   4.079
 8583TIP3   OH225712   3.088   6.307   5.061
 8583TIP3    H125713   3.058   6.395   5.082
 8583TIP3    H225714   3.017   6.268   5.011
 8584TIP3   OH225715   0.353   5.537   2.178
 8584TIP3    H125716   0.339   5.593   2.253
 8584TIP3    H225717   0.298   5.460   2.194
 8585TIP3   OH225718   4.226   2.806   1.567
 8585TIP3    H125719   4.147   2.763   1.536
 8585TIP3    H225720   4.246   2.871   1.499
 8586TIP3   OH225721   0.562   1.999   5.529
 8586TIP3    H125722   0.487   2.055   5.551
 8586TIP3    H225723   0.633   2.060   5.509
 8587TIP3   OH225724   1.576   2.657   3.253
 8587TIP3    H125725   1.667   2.627   3.247
 8587TIP3    H225726   1.561   2.702   3.170
 8588TIP3   OH225727   1.423   3.026   2.286
 8588TIP3    H125728   1.426   3.062   2.197
 8588TIP3    H225729   1.463   2.940   2.277
 8589TIP3   OH225730   0.289   6.280   4.816
 8589TIP3    H125731   0.375   6.282   4.859
 8589TIP3    H225732   0.275   6.370   4.786
 8590TIP3   OH225733   4.415   2.469   2.816
 8590TIP3    H125734   4.339   2.477   2.759
 8590TIP3    H225735   4.379   2.473   2.905
 8591TIP3   OH225736   2.684   3.117   0.326
 8591TIP3    H125737   2.761   3.088   0.278
 8591TIP3    H225738   2.701   3.092   0.416
 8592TIP3   OH225739   0.118   3.319   1.517
 8592TIP3    H125740   0.140   3.397   1.566
 8592TIP3    H225741   0.024   3.306   1.533
 8593TIP3   OH225742   3.769   1.739   4.949
 8593TIP3    H125743   3.761   1.810   4.885
 8593TIP3    H225744   3.693   1.683   4.933
 8594TIP3   OH225745   0.297   4.746   0.939
 8594TIP3    H125746   0.284   4.651   0.945
 8594TIP3    H225747   0.379   4.756   0.890
 8595TIP3   OH225748   5.054   5.400   4.400
 8595TIP3    H125749   5.131   5.368   4.354
 8595TIP3    H225750   5.088   5.461   4.466
 8596TIP3   OH225751   5.752   6.542   5.890
 8596TIP3    H125752   5.667   6.568   5.925
 8596TIP3    H225753   5.774   6.462   5.938
 8597TIP3   OH225754   1.095   3.781   5.057
 8597TIP3    H125755   1.186   3.770   5.033
 8597TIP3    H225756   1.094   3.773   5.153
 8598TIP3   OH225757   3.991   6.496   2.203
 8598TIP3    H125758   4.001   6.579   2.251
 8598TIP3    H225759   3.899   6.474   2.213
 8599TIP3   OH225760   2.523   4.348   1.903
 8599TIP3    H125761   2.582   4.363   1.977
 8599TIP3    H225762   2.508   4.253   1.904
 8600TIP3   OH225763   0.076   3.971   5.268
 8600TIP3    H125764   0.075   4.062   5.238
 8600TIP3    H225765   0.119   3.974   5.354
 8601TIP3   OH225766   4.398   0.880   0.430
 8601TIP3    H125767   4.312   0.920   0.416
 8601TIP3    H225768   4.394   0.797   0.382
 8602TIP3   OH225769   5.969   2.132   4.892
 8602TIP3    H125770   6.029   2.069   4.933
 8602TIP3    H225771   5.942   2.189   4.963
 8603TIP3   OH225772   4.682   0.519   5.422
 8603TIP3    H125773   4.768   0.548   5.392
 8603TIP3    H225774   4.621   0.581   5.381
 8604TIP3   OH225775   1.679   1.253   3.527
 8604TIP3    H125776   1.653   1.251   3.435
 8604TIP3    H225777   1.607   1.210   3.574
 8605TIP3   OH225778   3.187   1.765   0.331
 8605TIP3    H125779   3.252   1.835   0.329
 8605TIP3    H225780   3.160   1.760   0.423
 8606TIP3   OH225781   0.427   6.497   3.865
 8606TIP3    H125782   0.366   6.515   3.794
 8606TIP3    H225783   0.392   6.420   3.909
 8607TIP3   OH225784   6.784   0.519   3.731
 8607TIP3    H125785   6.735   0.512   3.813
 8607TIP3    H225786   6.785   0.613   3.711
 8608TIP3   OH225787   2.082   1.590   4.013
 8608TIP3    H125788   2.056   1.516   3.960
 8608TIP3    H225789   2.030   1.582   4.093
 8609TIP3   OH225790   0.115   0.306   1.362
 8609TIP3    H125791   0.168   0.381   1.334
 8609TIP3    H225792   0.056   0.289   1.289
 8610TIP3   OH225793   0.232   6.014   1.405
 8610TIP3    H125794   0.325   6.032   1.396
 8610TIP3    H225795   0.227   5.920   1.423
 8611TIP3   OH225796   6.426   0.228   4.107
 8611TIP3    H125797   6.465   0.276   4.035
 8611TIP3    H225798   6.378   0.157   4.066
 8612TIP3   OH225799   6.621   6.471   5.083
 8612TIP3    H125800   6.620   6.419   5.002
 8612TIP3    H225801   6.529   6.481   5.106
 8613TIP3   OH225802   3.930   3.247   3.006
 8613TIP3    H125803   3.958   3.331   2.969
 8613TIP3    H225804   3.876   3.272   3.082
 8614TIP3   OH225805   6.764   2.355   3.599
 8614TIP3    H125806   6.681   2.308   3.591
 8614TIP3    H225807   6.802   2.351   3.511
 8615TIP3   OH225808   6.840   0.217   0.734
 8615TIP3    H125809   6.819   0.165   0.657
 8615TIP3    H225810   6.755   0.252   0.763
 8616TIP3   OH225811   4.108   2.775   5.401
 8616TIP3    H125812   4.188   2.826   5.386
 8616TIP3    H225813   4.112   2.752   5.494
 8617TIP3   OH225814   4.407   3.958   5.155
 8617TIP3    H125815   4.485   3.968   5.101
 8617TIP3    H225816   4.379   3.867   5.141
 8618TIP3   OH225817   3.233   4.249   3.128
 8618TIP3    H125818   3.178   4.220   3.055
 8618TIP3    H225819   3.301   4.303   3.086
 8619TIP3   OH225820   1.007   5.944   1.026
 8619TIP3    H125821   1.092   5.901   1.037
 8619TIP3    H225822   0.970   5.948   1.114
 8620TIP3   OH225823   6.656   2.358   3.002
 8620TIP3    H125824   6.714   2.413   2.949
 8620TIP3    H225825   6.704   2.275   3.011
 8621TIP3   OH225826   0.655   3.616   1.749
 8621TIP3    H125827   0.612   3.562   1.816
 8621TIP3    H225828   0.584   3.667   1.710
 8622TIP3   OH225829   6.257   3.671   2.881
 8622TIP3    H125830   6.262   3.628   2.796
 8622TIP3    H225831   6.348   3.680   2.909
 8623TIP3   OH225832   2.637   0.528   0.829
 8623TIP3    H125833   2.725   0.492   0.817
 8623TIP3    H225834   2.614   0.503   0.919
 8624TIP3   OH225835   6.167   4.415   2.672
 8624TIP3    H125836   6.211   4.466   2.740
 8624TIP3    H225837   6.201   4.326   2.682
 8625TIP3   OH225838   0.270   2.730   2.091
 8625TIP3    H125839   0.180   2.760   2.101
 8625TIP3    H225840   0.273   2.648   2.143
 8626TIP3   OH225841   2.072   0.580   4.744
 8626TIP3    H125842   2.056   0.572   4.838
 8626TIP3    H225843   2.164   0.558   4.733
 8627TIP3   OH225844   5.164   5.857   4.157
 8627TIP3    H125845   5.188   5.821   4.072
 8627TIP3    H225846   5.158   5.951   4.143
 8628TIP3   OH225847   5.830   1.273   5.800
 8628TIP3    H125848   5.806   1.362   5.774
 8628TIP3    H225849   5.923   1.266   5.781
 8629TIP3   OH225850   3.083   6.484   2.763
 8629TIP3    H125851   2.998   6.452   2.792
 8629TIP3    H225852   3.146   6.428   2.809
 8630TIP3   OH225853   6.335   4.989   5.608
 8630TIP3    H125854   6.318   5.054   5.541
 8630TIP3    H225855   6.407   4.936   5.573
 8631TIP3   OH225856   7.050   4.641   0.371
 8631TIP3    H125857   7.080   4.617   0.458
 8631TIP3    H225858   6.957   4.662   0.382
 8632TIP3   OH225859   5.378   6.396   5.531
 8632TIP3    H125860   5.474   6.392   5.539
 8632TIP3    H225861   5.348   6.314   5.571
 8633TIP3   OH225862   2.680   3.082   5.664
 8633TIP3    H125863   2.652   3.173   5.674
 8633TIP3    H225864   2.601   3.030   5.680
 8634TIP3   OH225865   1.812   4.349   4.359
 8634TIP3    H125866   1.794   4.373   4.268
 8634TIP3    H225867   1.907   4.341   4.363
 8635TIP3   OH225868   4.461   3.434   5.779
 8635TIP3    H125869   4.490   3.493   5.849
 8635TIP3    H225870   4.390   3.482   5.736
 8636TIP3   OH225871   0.828   2.521   5.254
 8636TIP3    H125872   0.791   2.433   5.248
 8636TIP3    H225873   0.808   2.562   5.171
 8637TIP3   OH225874   4.967   5.579   3.889
 8637TIP3    H125875   4.938   5.492   3.913
 8637TIP3    H225876   5.040   5.598   3.948
 8638TIP3   OH225877   1.769   3.900   5.531
 8638TIP3    H125878   1.741   3.956   5.459
 8638TIP3    H225879   1.758   3.954   5.609
 8639TIP3   OH225880   0.252   4.403   0.658
 8639TIP3    H125881   0.201   4.325   0.681
 8639TIP3    H225882   0.218   4.430   0.572
 8640TIP3   OH225883   7.188   3.756   3.347
 8640TIP3    H125884   7.275   3.792   3.363
 8640TIP3    H225885   7.130   3.831   3.351
 8641TIP3   OH225886   4.809   1.366   5.840
 8641TIP3    H125887   4.846   1.447   5.875
 8641TIP3    H225888   4.772   1.391   5.755
 8642TIP3   OH225889   6.804   4.314   1.865
 8642TIP3    H125890   6.812   4.365   1.946
 8642TIP3    H225891   6.810   4.222   1.894
 8643TIP3   OH225892   4.205   3.178   2.566
 8643TIP3    H125893   4.277   3.201   2.625
 8643TIP3    H225894   4.180   3.261   2.525
 8644TIP3   OH225895   4.125   2.221   3.885
 8644TIP3    H125896   4.139   2.252   3.796
 8644TIP3    H225897   4.096   2.299   3.933
 8645TIP3   OH225898   5.875   0.355   3.115
 8645TIP3    H125899   5.945   0.305   3.157
 8645TIP3    H225900   5.805   0.292   3.100
 8646TIP3   OH225901   2.765   3.674   1.102
 8646TIP3    H125902   2.819   3.738   1.147
 8646TIP3    H225903   2.822   3.637   1.035
 8647TIP3   OH225904   2.894   2.360   4.702
 8647TIP3    H125905   2.937   2.409   4.631
 8647TIP3    H225906   2.921   2.269   4.688
 8648TIP3   OH225907   4.925   2.997   0.038
 8648TIP3    H125908   4.971   3.049   0.104
 8648TIP3    H225909   4.966   3.022  -0.045
 8649TIP3   OH225910   6.537   0.027   4.902
 8649TIP3    H125911   6.574  -0.056   4.872
 8649TIP3    H225912   6.450   0.030   4.863
 8650TIP3   OH225913   4.366   5.720   0.144
 8650TIP3    H125914   4.331   5.806   0.165
 8650TIP3    H225915   4.343   5.666   0.219
 8651TIP3   OH225916   0.110   1.891   2.017
 8651TIP3    H125917   0.135   1.973   2.061
 8651TIP3    H225918   0.192   1.846   2.002
 8652TIP3   OH225919   4.815   4.379   3.296
 8652TIP3    H125920   4.813   4.427   3.214
 8652TIP3    H225921   4.829   4.446   3.363
 8653TIP3   OH225922   0.724   5.898   4.636
 8653TIP3    H125923   0.674   5.966   4.590
 8653TIP3    H225924   0.764   5.944   4.710
 8654TIP3   OH225925   4.916   5.453   4.847
 8654TIP3    H125926   4.962   5.536   4.865
 8654TIP3    H225927   4.833   5.480   4.809
 8655TIP3   OH225928   3.078   6.499   4.701
 8655TIP3    H125929   3.097   6.409   4.727
 8655TIP3    H225930   3.049   6.492   4.611
 8656TIP3   OH225931   6.064   1.246   2.702
 8656TIP3    H125932   6.098   1.333   2.681
 8656TIP3    H225933   5.993   1.233   2.639
 8657TIP3   OH225934   0.866   5.304   2.606
 8657TIP3    H125935   0.902   5.349   2.530
 8657TIP3    H225936   0.842   5.374   2.667
 8658TIP3   OH225937   3.578   5.511   5.094
 8658TIP3    H125938   3.586   5.498   5.188
 8658TIP3    H225939   3.606   5.601   5.078
 8659TIP3   OH225940   0.729   5.225   2.329
 8659TIP3    H125941   0.740   5.131   2.314
 8659TIP3    H225942   0.640   5.244   2.298
 8660TIP3   OH225943   1.587   1.424   4.600
 8660TIP3    H125944   1.584   1.331   4.623
 8660TIP3    H225945   1.575   1.426   4.505
 8661TIP3   OH225946   4.457   0.526   2.667
 8661TIP3    H125947   4.409   0.457   2.713
 8661TIP3    H225948   4.540   0.486   2.642
 8662TIP3   OH225949   1.194   6.472   4.476
 8662TIP3    H125950   1.123   6.499   4.417
 8662TIP3    H225951   1.171   6.511   4.560
 8663TIP3   OH225952   4.320   1.568   2.650
 8663TIP3    H125953   4.233   1.580   2.688
 8663TIP3    H225954   4.311   1.492   2.592
 8664TIP3   OH225955   0.363   4.042   0.752
 8664TIP3    H125956   0.364   4.025   0.846
 8664TIP3    H225957   0.411   4.125   0.742
 8665TIP3   OH225958   3.104   3.543   0.270
 8665TIP3    H125959   3.191   3.507   0.260
 8665TIP3    H225960   3.099   3.569   0.362
 8666TIP3   OH225961   1.977   3.111   5.023
 8666TIP3    H125962   1.923   3.173   5.072
 8666TIP3    H225963   2.049   3.164   4.989
 8667TIP3   OH225964   7.046   0.677   1.614
 8667TIP3    H125965   7.047   0.617   1.539
 8667TIP3    H225966   6.953   0.689   1.633
 8668TIP3   OH225967   0.238   4.592   2.666
 8668TIP3    H125968   0.214   4.558   2.752
 8668TIP3    H225969   0.312   4.538   2.638
 8669TIP3   OH225970   4.848   2.513   0.154
 8669TIP3    H125971   4.802   2.439   0.114
 8669TIP3    H225972   4.938   2.503   0.125
 8670TIP3   OH225973   0.316   3.700   4.635
 8670TIP3    H125974   0.282   3.612   4.615
 8670TIP3    H225975   0.392   3.684   4.690
 8671TIP3   OH225976   0.374   3.993   4.507
 8671TIP3    H125977   0.382   3.976   4.601
 8671TIP3    H225978   0.427   4.071   4.492
 8672TIP3   OH225979   1.277   6.379   5.666
 8672TIP3    H125980   1.301   6.471   5.660
 8672TIP3    H225981   1.213   6.376   5.738
 8673TIP3   OH225982   5.998   3.188   4.146
 8673TIP3    H125983   5.964   3.192   4.235
 8673TIP3    H225984   6.013   3.279   4.121
 8674TIP3   OH225985   6.985   2.066   4.998
 8674TIP3    H125986   6.935   2.009   5.055
 8674TIP3    H225987   6.998   2.016   4.918
 8675TIP3   OH225988   0.496   5.403   0.408
 8675TIP3    H125989   0.402   5.401   0.427
 8675TIP3    H225990   0.514   5.493   0.383
 8676TIP3   OH225991   4.665   2.502   1.677
 8676TIP3    H125992   4.616   2.576   1.641
 8676TIP3    H225993   4.638   2.497   1.769
 8677TIP3   OH225994   3.051   5.913   1.542
 8677TIP3    H125995   3.026   5.987   1.597
 8677TIP3    H225996   3.147   5.915   1.543
 8678TIP3   OH225997   1.627   6.625   5.086
 8678TIP3    H125998   1.604   6.709   5.126
 8678TIP3    H225999   1.676   6.578   5.154
 8679TIP3   OH226000   7.037   5.572   3.617
 8679TIP3    H126001   6.961   5.577   3.560
 8679TIP3    H226002   7.018   5.633   3.689
 8680TIP3   OH226003   3.093   2.352   1.013
 8680TIP3    H126004   3.091   2.306   0.930
 8680TIP3    H226005   3.072   2.443   0.991
 8681TIP3   OH226006   2.435   6.455   5.739
 8681TIP3    H126007   2.452   6.418   5.826
 8681TIP3    H226008   2.500   6.525   5.730
 8682TIP3   OH226009   1.738   1.665   3.057
 8682TIP3    H126010   1.798   1.591   3.054
 8682TIP3    H226011   1.787   1.734   3.100
 8683TIP3   OH226012   2.313   5.151   5.602
 8683TIP3    H126013   2.358   5.105   5.673
 8683TIP3    H226014   2.370   5.137   5.526
 8684TIP3   OH226015   3.343   4.944   2.130
 8684TIP3    H126016   3.361   4.850   2.141
 8684TIP3    H226017   3.412   4.974   2.070
 8685TIP3   OH226018   5.610   4.629   1.670
 8685TIP3    H126019   5.530   4.576   1.663
 8685TIP3    H226020   5.620   4.644   1.764
 8686TIP3   OH226021   6.588   1.840   1.899
 8686TIP3    H126022   6.495   1.817   1.897
 8686TIP3    H226023   6.590   1.927   1.938
 8687TIP3   OH226024   2.832   2.837   3.167
 8687TIP3    H126025   2.817   2.884   3.085
 8687TIP3    H226026   2.911   2.784   3.150
 8688TIP3   OH226027   3.419   1.941   2.463
 8688TIP3    H126028   3.435   1.935   2.558
 8688TIP3    H226029   3.409   2.034   2.447
 8689TIP3   OH226030   4.858   5.121   5.418
 8689TIP3    H126031   4.947   5.143   5.447
 8689TIP3    H226032   4.834   5.044   5.470
 8690TIP3   OH226033   6.086   3.372   0.348
 8690TIP3    H126034   6.168   3.364   0.299
 8690TIP3    H226035   6.091   3.302   0.413
 8691TIP3   OH226036   0.831   1.694   2.652
 8691TIP3    H126037   0.915   1.733   2.676
 8691TIP3    H226038   0.844   1.662   2.563
 8692TIP3   OH226039   4.587   5.199   1.346
 8692TIP3    H126040   4.673   5.161   1.359
 8692TIP3    H226041   4.553   5.212   1.435
 8693TIP3   OH226042   5.801   4.866   0.641
 8693TIP3    H126043   5.733   4.913   0.690
 8693TIP3    H226044   5.809   4.913   0.559
 8694TIP3   OH226045   0.075   4.642   5.518
 8694TIP3    H126046   0.095   4.550   5.536
 8694TIP3    H226047  -0.019   4.643   5.500
 8695TIP3   OH226048   1.454   6.235   2.389
 8695TIP3    H126049   1.387   6.288   2.432
 8695TIP3    H226050   1.413   6.149   2.378
 8696TIP3   OH226051   1.458   2.747   5.387
 8696TIP3    H126052   1.453   2.699   5.304
 8696TIP3    H226053   1.367   2.762   5.411
 8697TIP3   OH226054   1.509   6.284   2.078
 8697TIP3    H126055   1.529   6.256   2.167
 8697TIP3    H226056   1.483   6.204   2.033
 8698TIP3   OH226057   2.114   1.676   2.045
 8698TIP3    H126058   2.169   1.629   1.983
 8698TIP3    H226059   2.111   1.766   2.012
 8699TIP3   OH226060   5.849   5.054   4.496
 8699TIP3    H126061   5.830   5.000   4.573
 8699TIP3    H226062   5.765   5.095   4.475
 8700TIP3   OH226063   7.023   0.192   5.393
 8700TIP3    H126064   7.076   0.113   5.378
 8700TIP3    H226065   7.066   0.260   5.341
 8701TIP3   OH226066   0.365   6.375   4.289
 8701TIP3    H126067   0.373   6.442   4.222
 8701TIP3    H226068   0.334   6.297   4.243
 8702TIP3   OH226069   1.651   5.773   4.058
 8702TIP3    H126070   1.613   5.687   4.045
 8702TIP3    H226071   1.577   5.833   4.051
 8703TIP3   OH226072   5.416   0.380   4.250
 8703TIP3    H126073   5.498   0.334   4.271
 8703TIP3    H226074   5.377   0.399   4.336
 8704TIP3   OH226075   0.079   0.202   5.894
 8704TIP3    H126076   0.130   0.190   5.814
 8704TIP3    H226077   0.029   0.282   5.879
 8705TIP3   OH226078   6.894   3.199   0.004
 8705TIP3    H126079   6.959   3.150   0.055
 8705TIP3    H226080   6.815   3.199   0.058
 8706TIP3   OH226081   3.860   0.727   5.568
 8706TIP3    H126082   3.779   0.708   5.522
 8706TIP3    H226083   3.839   0.799   5.627
 8707TIP3   OH226084   3.836   2.259   0.946
 8707TIP3    H126085   3.898   2.292   1.011
 8707TIP3    H226086   3.792   2.186   0.989
 8708TIP3   OH226087   0.335   3.689   0.225
 8708TIP3    H126088   0.417   3.685   0.272
 8708TIP3    H226089   0.270   3.653   0.286
 8709TIP3   OH226090   1.621   0.750   4.562
 8709TIP3    H126091   1.565   0.818   4.599
 8709TIP3    H226092   1.710   0.782   4.579
 8710TIP3   OH226093   3.776   4.128   5.086
 8710TIP3    H126094   3.754   4.120   4.993
 8710TIP3    H226095   3.705   4.082   5.131
 8711TIP3   OH226096   0.514   4.452   5.889
 8711TIP3    H126097   0.438   4.417   5.843
 8711TIP3    H226098   0.517   4.544   5.863
 8712TIP3   OH226099   3.431   2.302   0.315
 8712TIP3    H126100   3.346   2.345   0.318
 8712TIP3    H226101   3.460   2.310   0.224
 8713TIP3   OH226102   0.377   4.827   0.108
 8713TIP3    H126103   0.449   4.796   0.163
 8713TIP3    H226104   0.300   4.818   0.163
 8714TIP3   OH226105   5.496   0.009   4.851
 8714TIP3    H126106   5.419  -0.045   4.868
 8714TIP3    H226107   5.531   0.029   4.938
 8715TIP3   OH226108   4.456   3.917   1.200
 8715TIP3    H126109   4.517   3.878   1.137
 8715TIP3    H226110   4.400   3.974   1.147
 8716TIP3   OH226111   4.367   1.962   2.935
 8716TIP3    H126112   4.359   1.948   2.841
 8716TIP3    H226113   4.344   1.878   2.974
 8717TIP3   OH226114   3.375   1.277   5.478
 8717TIP3    H126115   3.414   1.365   5.471
 8717TIP3    H226116   3.320   1.281   5.556
 8718TIP3   OH226117   1.769   5.864   2.328
 8718TIP3    H126118   1.712   5.792   2.355
 8718TIP3    H226119   1.839   5.866   2.394
 8719TIP3   OH226120   6.821   2.720   5.888
 8719TIP3    H126121   6.763   2.715   5.812
 8719TIP3    H226122   6.882   2.790   5.866
 8720TIP3   OH226123   4.429   3.501   3.226
 8720TIP3    H126124   4.357   3.453   3.268
 8720TIP3    H226125   4.443   3.577   3.282
 8721TIP3   OH226126   4.622   2.999   5.639
 8721TIP3    H126127   4.571   3.038   5.710
 8721TIP3    H226128   4.712   3.022   5.659
 8722TIP3   OH226129   0.453   6.434   5.502
 8722TIP3    H126130   0.473   6.438   5.409
 8722TIP3    H226131   0.486   6.516   5.537
 8723TIP3   OH226132   3.316   6.785   0.308
 8723TIP3    H126133   3.232   6.750   0.281
 8723TIP3    H226134   3.329   6.861   0.253
 8724TIP3   OH226135   4.731   4.383   4.563
 8724TIP3    H126136   4.710   4.349   4.650
 8724TIP3    H226137   4.736   4.305   4.508
 8725TIP3   OH226138   1.271   2.546   4.200
 8725TIP3    H126139   1.192   2.596   4.181
 8725TIP3    H226140   1.246   2.489   4.274
 8726TIP3   OH226141   5.217   2.066   5.147
 8726TIP3    H126142   5.296   2.013   5.163
 8726TIP3    H226143   5.197   2.053   5.055
 8727TIP3   OH226144   0.173   4.432   2.881
 8727TIP3    H126145   0.221   4.483   2.946
 8727TIP3    H226146   0.171   4.343   2.917
 8728TIP3   OH226147   3.857   0.122   3.555
 8728TIP3    H126148   3.786   0.058   3.552
 8728TIP3    H226149   3.836   0.184   3.485
 8729TIP3   OH226150   5.290   0.503   0.660
 8729TIP3    H126151   5.356   0.567   0.631
 8729TIP3    H226152   5.327   0.467   0.741
 8730TIP3   OH226153   5.786   4.184   5.023
 8730TIP3    H126154   5.809   4.147   5.108
 8730TIP3    H226155   5.751   4.271   5.042
 8731TIP3   OH226156   1.863   3.993   1.301
 8731TIP3    H126157   1.912   3.943   1.366
 8731TIP3    H226158   1.772   3.968   1.314
 8732TIP3   OH226159   2.442   5.543   4.450
 8732TIP3    H126160   2.517   5.598   4.426
 8732TIP3    H226161   2.481   5.468   4.495
 8733TIP3   OH226162   1.087   0.066   4.491
 8733TIP3    H126163   1.053   0.009   4.422
 8733TIP3    H226164   1.013   0.122   4.514
 8734TIP3   OH226165   6.580   0.079   3.457
 8734TIP3    H126166   6.570   0.048   3.547
 8734TIP3    H226167   6.583   0.174   3.464
 8735TIP3   OH226168   6.560   3.325   3.815
 8735TIP3    H126169   6.587   3.240   3.852
 8735TIP3    H226170   6.468   3.334   3.841
 8736TIP3   OH226171   5.417   3.591   4.232
 8736TIP3    H126172   5.378   3.651   4.168
 8736TIP3    H226173   5.352   3.522   4.243
 8737TIP3   OH226174   4.485   2.926   0.545
 8737TIP3    H126175   4.475   3.021   0.536
 8737TIP3    H226176   4.404   2.896   0.585
 8738TIP3   OH226177   6.171   5.014   5.823
 8738TIP3    H126178   6.247   5.012   5.766
 8738TIP3    H226179   6.107   4.958   5.780
 8739TIP3   OH226180   3.509   3.377   1.179
 8739TIP3    H126181   3.557   3.433   1.240
 8739TIP3    H226182   3.577   3.326   1.135
 8740TIP3   OH226183   0.918   3.531   4.683
 8740TIP3    H126184   0.858   3.605   4.694
 8740TIP3    H226185   0.891   3.489   4.601
 8741TIP3   OH226186   3.056   3.558   1.618
 8741TIP3    H126187   3.013   3.512   1.546
 8741TIP3    H226188   3.051   3.497   1.691
 8742TIP3   OH226189   1.779   2.595   2.375
 8742TIP3    H126190   1.810   2.620   2.288
 8742TIP3    H226191   1.789   2.674   2.427
 8743TIP3   OH226192   2.712   2.349   4.264
 8743TIP3    H126193   2.633   2.362   4.212
 8743TIP3    H226194   2.785   2.360   4.203
 8744TIP3   OH226195   4.997   6.372   0.828
 8744TIP3    H126196   5.001   6.465   0.851
 8744TIP3    H226197   5.038   6.327   0.902
 8745TIP3   OH226198   2.901   3.286   3.695
 8745TIP3    H126199   2.963   3.345   3.652
 8745TIP3    H226200   2.817   3.332   3.691
 8746TIP3   OH226201   2.001   3.108   0.427
 8746TIP3    H126202   1.912   3.143   0.420
 8746TIP3    H226203   2.033   3.141   0.511
 8747TIP3   OH226204   4.282   1.979   2.659
 8747TIP3    H126205   4.239   2.064   2.661
 8747TIP3    H226206   4.224   1.923   2.607
 8748TIP3   OH226207   4.332   3.974   3.715
 8748TIP3    H126208   4.419   3.999   3.746
 8748TIP3    H226209   4.272   4.016   3.777
 8749TIP3   OH226210   7.088   0.465   1.429
 8749TIP3    H126211   7.148   0.432   1.495
 8749TIP3    H226212   7.145   0.493   1.358
 8750TIP3   OH226213   2.624   6.768   1.880
 8750TIP3    H126214   2.618   6.782   1.974
 8750TIP3    H226215   2.540   6.798   1.846
 8751TIP3   OH226216   0.823   4.892   3.633
 8751TIP3    H126217   0.812   4.830   3.705
 8751TIP3    H226218   0.902   4.940   3.654
 8752TIP3   OH226219   0.693   1.802   5.329
 8752TIP3    H126220   0.708   1.872   5.265
 8752TIP3    H226221   0.639   1.843   5.397
 8753TIP3   OH226222   5.804   5.628   2.074
 8753TIP3    H126223   5.878   5.575   2.046
 8753TIP3    H226224   5.805   5.621   2.170
 8754TIP3   OH226225   0.583   4.304   5.282
 8754TIP3    H126226   0.658   4.329   5.228
 8754TIP3    H226227   0.608   4.218   5.317
 8755TIP3   OH226228   1.825   6.585   1.463
 8755TIP3    H126229   1.835   6.493   1.439
 8755TIP3    H226230   1.859   6.590   1.552
 8756TIP3   OH226231   2.639   1.179   3.054
 8756TIP3    H126232   2.730   1.166   3.082
 8756TIP3    H226233   2.606   1.249   3.111
 8757TIP3   OH226234   3.294   6.053   2.061
 8757TIP3    H126235   3.368   6.008   2.021
 8757TIP3    H226236   3.227   5.985   2.070
 8758TIP3   OH226237   3.491   5.502   2.926
 8758TIP3    H126238   3.476   5.596   2.915
 8758TIP3    H226239   3.584   5.496   2.951
 8759TIP3   OH226240   1.887   0.568   0.309
 8759TIP3    H126241   1.932   0.535   0.386
 8759TIP3    H226242   1.795   0.574   0.336
 8760TIP3   OH226243   4.049   1.125   2.801
 8760TIP3    H126244   4.035   1.071   2.723
 8760TIP3    H226245   4.118   1.186   2.776
 8761TIP3   OH226246   2.794   4.290   4.540
 8761TIP3    H126247   2.721   4.352   4.549
 8761TIP3    H226248   2.872   4.345   4.539
 8762TIP3   OH226249   5.069   6.467   5.538
 8762TIP3    H126250   5.151   6.465   5.489
 8762TIP3    H226251   5.002   6.483   5.471
 8763TIP3   OH226252   0.915   1.355   1.960
 8763TIP3    H126253   0.882   1.275   1.918
 8763TIP3    H226254   0.852   1.423   1.935
 8764TIP3   OH226255   1.757   2.237   5.336
 8764TIP3    H126256   1.758   2.205   5.245
 8764TIP3    H226257   1.719   2.324   5.330
 8765TIP3   OH226258   1.027   0.490   4.156
 8765TIP3    H126259   1.070   0.434   4.091
 8765TIP3    H226260   0.967   0.545   4.105
 8766TIP3   OH226261   5.363   5.527   0.585
 8766TIP3    H126262   5.385   5.592   0.518
 8766TIP3    H226263   5.290   5.567   0.633
 8767TIP3   OH226264   2.438   6.640   3.347
 8767TIP3    H126265   2.487   6.703   3.400
 8767TIP3    H226266   2.451   6.670   3.257
 8768TIP3   OH226267   7.119   3.406   4.513
 8768TIP3    H126268   7.146   3.497   4.507
 8768TIP3    H226269   7.050   3.406   4.581
 8769TIP3   OH226270   0.820   2.631   2.317
 8769TIP3    H126271   0.728   2.639   2.292
 8769TIP3    H226272   0.821   2.556   2.377
 8770TIP3   OH226273   4.140   6.608   2.996
 8770TIP3    H126274   4.166   6.698   2.978
 8770TIP3    H226275   4.046   6.606   2.982
 8771TIP3   OH226276   4.324   1.079   5.521
 8771TIP3    H126277   4.380   1.039   5.588
 8771TIP3    H226278   4.243   1.029   5.524
 8772TIP3   OH226279   3.320   1.036   4.987
 8772TIP3    H126280   3.340   1.111   4.931
 8772TIP3    H226281   3.270   1.073   5.059
 8773TIP3   OH226282   0.032   5.408   5.264
 8773TIP3    H126283   0.064   5.318   5.271
 8773TIP3    H226284   0.096   5.451   5.207
 8774TIP3   OH226285   4.079   4.725   1.907
 8774TIP3    H126286   4.137   4.665   1.955
 8774TIP3    H226287   4.106   4.812   1.937
 8775TIP3   OH226288   0.197   1.745   2.756
 8775TIP3    H126289   0.203   1.702   2.841
 8775TIP3    H226290   0.225   1.678   2.693
 8776TIP3   OH226291   0.148   3.538   0.359
 8776TIP3    H126292   0.186   3.450   0.365
 8776TIP3    H226293   0.062   3.530   0.400
 8777TIP3   OH226294   7.165   3.568   0.831
 8777TIP3    H126295   7.242   3.547   0.778
 8777TIP3    H226296   7.198   3.627   0.899
 8778TIP3   OH226297   6.532   4.525   4.659
 8778TIP3    H126298   6.569   4.560   4.578
 8778TIP3    H226299   6.521   4.601   4.716
 8779TIP3   OH226300   2.084   3.909   4.901
 8779TIP3    H126301   2.150   3.978   4.906
 8779TIP3    H226302   2.007   3.954   4.865
 8780TIP3   OH226303   2.101   6.157   4.574
 8780TIP3    H126304   2.068   6.246   4.562
 8780TIP3    H226305   2.186   6.168   4.615
 8781TIP3   OH226306   1.729   5.466   2.613
 8781TIP3    H126307   1.676   5.386   2.608
 8781TIP3    H226308   1.818   5.436   2.594
 8782TIP3   OH226309   3.762   2.147   3.668
 8782TIP3    H126310   3.744   2.053   3.663
 8782TIP3    H226311   3.856   2.153   3.683
 8783TIP3   OH226312   6.760   3.286   5.234
 8783TIP3    H126313   6.855   3.289   5.225
 8783TIP3    H226314   6.740   3.192   5.241
 8784TIP3   OH226315   0.071   0.695   5.031
 8784TIP3    H126316  -0.020   0.668   5.021
 8784TIP3    H226317   0.077   0.778   4.984
 8785TIP3   OH226318   1.925   4.151   3.552
 8785TIP3    H126319   1.951   4.236   3.515
 8785TIP3    H226320   2.007   4.114   3.585
 8786TIP3   OH226321   2.196   3.957   2.574
 8786TIP3    H126322   2.125   3.897   2.596
 8786TIP3    H226323   2.251   3.960   2.652
 8787TIP3   OH226324   2.453   3.334   0.392
 8787TIP3    H126325   2.392   3.261   0.376
 8787TIP3    H226326   2.532   3.292   0.425
 8788TIP3   OH226327   1.068   5.340   0.751
 8788TIP3    H126328   1.092   5.386   0.671
 8788TIP3    H226329   1.063   5.409   0.818
 8789TIP3   OH226330   3.443   5.649   3.442
 8789TIP3    H126331   3.464   5.634   3.350
 8789TIP3    H226332   3.364   5.703   3.440
 8790TIP3   OH226333   1.144   4.721   4.147
 8790TIP3    H126334   1.230   4.736   4.106
 8790TIP3    H226335   1.148   4.631   4.177
 8791TIP3   OH226336   2.556   4.473   5.008
 8791TIP3    H126337   2.460   4.476   5.010
 8791TIP3    H226338   2.576   4.432   4.923
 8792TIP3   OH226339   7.185   0.299   2.736
 8792TIP3    H126340   7.280   0.296   2.732
 8792TIP3    H226341   7.161   0.386   2.705
 8793TIP3   OH226342   4.311   0.737   4.904
 8793TIP3    H126343   4.275   0.764   4.819
 8793TIP3    H226344   4.287   0.644   4.911
 8794TIP3   OH226345   5.343   1.292   1.091
 8794TIP3    H126346   5.438   1.301   1.081
 8794TIP3    H226347   5.332   1.215   1.146
 8795TIP3   OH226348   7.023   6.150   4.906
 8795TIP3    H126349   7.104   6.149   4.856
 8795TIP3    H226350   6.957   6.183   4.844
 8796TIP3   OH226351   2.826   0.967   0.004
 8796TIP3    H126352   2.880   0.896   0.040
 8796TIP3    H226353   2.744   0.963   0.055
 8797TIP3   OH226354   3.470   6.381   0.023
 8797TIP3    H126355   3.516   6.377  -0.061
 8797TIP3    H226356   3.377   6.389  -0.001
 8798TIP3   OH226357   4.057   1.315   0.989
 8798TIP3    H126358   4.094   1.320   0.901
 8798TIP3    H226359   4.117   1.364   1.044
 8799TIP3   OH226360   1.483   6.417   1.632
 8799TIP3    H126361   1.522   6.465   1.706
 8799TIP3    H226362   1.484   6.326   1.661
 8800TIP3   OH226363   4.019   6.452   4.700
 8800TIP3    H126364   4.024   6.482   4.791
 8800TIP3    H226365   3.927   6.458   4.677
 8801TIP3   OH226366   5.328   4.560   3.778
 8801TIP3    H126367   5.353   4.596   3.693
 8801TIP3    H226368   5.389   4.488   3.791
 8802TIP3   OH226369   0.911   5.447   4.239
 8802TIP3    H126370   0.930   5.535   4.270
 8802TIP3    H226371   0.995   5.403   4.237
 8803TIP3   OH226372   6.342   2.889   3.954
 8803TIP3    H126373   6.339   2.884   4.049
 8803TIP3    H226374   6.327   2.982   3.934
 8804TIP3   OH226375   0.998   6.022   0.383
 8804TIP3    H126376   0.965   5.967   0.313
 8804TIP3    H226377   0.941   6.099   0.384
 8805TIP3   OH226378   3.597   3.210   0.758
 8805TIP3    H126379   3.677   3.174   0.798
 8805TIP3    H226380   3.573   3.145   0.692
 8806TIP3   OH226381   5.117   1.390   3.893
 8806TIP3    H126382   5.159   1.308   3.919
 8806TIP3    H226383   5.038   1.395   3.947
 8807TIP3   OH226384   0.458   2.322   1.368
 8807TIP3    H126385   0.528   2.375   1.329
 8807TIP3    H226386   0.422   2.272   1.296
 8808TIP3   OH226387   5.473   0.073   4.338
 8808TIP3    H126388   5.391   0.085   4.387
 8808TIP3    H226389   5.539   0.121   4.388
 8809TIP3   OH226390   3.423   6.284   1.434
 8809TIP3    H126391   3.413   6.302   1.340
 8809TIP3    H226392   3.385   6.196   1.445
 8810TIP3   OH226393   1.304   5.949   0.172
 8810TIP3    H126394   1.325   6.042   0.186
 8810TIP3    H226395   1.342   5.929   0.086
 8811TIP3   OH226396   1.172   6.190   3.784
 8811TIP3    H126397   1.139   6.150   3.703
 8811TIP3    H226398   1.096   6.236   3.821
 8812TIP3   OH226399   3.556   4.318   4.253
 8812TIP3    H126400   3.573   4.399   4.205
 8812TIP3    H226401   3.588   4.249   4.195
 8813TIP3   OH226402   5.775   2.108   1.276
 8813TIP3    H126403   5.694   2.147   1.309
 8813TIP3    H226404   5.769   2.119   1.181
 8814TIP3   OH226405   3.435   0.054   0.417
 8814TIP3    H126406   3.475   0.121   0.472
 8814TIP3    H226407   3.341   0.064   0.432
 8815TIP3   OH226408   3.769   6.094   1.396
 8815TIP3    H126409   3.703   6.040   1.352
 8815TIP3    H226410   3.830   6.030   1.434
 8816TIP3   OH226411   5.610   2.429   0.736
 8816TIP3    H126412   5.585   2.424   0.828
 8816TIP3    H226413   5.687   2.372   0.730
 8817TIP3   OH226414   2.849   0.431   0.418
 8817TIP3    H126415   2.830   0.500   0.356
 8817TIP3    H226416   2.902   0.368   0.368
 8818TIP3   OH226417   6.216   4.877   1.297
 8818TIP3    H126418   6.169   4.874   1.214
 8818TIP3    H226419   6.152   4.849   1.362
 8819TIP3   OH226420   0.385   3.561   4.339
 8819TIP3    H126421   0.303   3.567   4.290
 8819TIP3    H226422   0.362   3.518   4.421
 8820TIP3   OH226423   2.428   4.045   5.589
 8820TIP3    H126424   2.415   4.138   5.567
 8820TIP3    H226425   2.509   4.021   5.544
 8821TIP3   OH226426   5.891   1.760   5.553
 8821TIP3    H126427   5.879   1.830   5.489
 8821TIP3    H226428   5.970   1.784   5.600
 8822TIP3   OH226429   4.144   2.655   3.785
 8822TIP3    H126430   4.149   2.686   3.876
 8822TIP3    H226431   4.051   2.639   3.770
 8823TIP3   OH226432   5.359   3.205   3.542
 8823TIP3    H126433   5.419   3.163   3.603
 8823TIP3    H226434   5.411   3.220   3.463
 8824TIP3   OH226435   2.066   5.424   4.826
 8824TIP3    H126436   2.008   5.463   4.891
 8824TIP3    H226437   2.114   5.499   4.789
 8825TIP3   OH226438   1.830   4.050   5.290
 8825TIP3    H126439   1.777   4.125   5.317
 8825TIP3    H226440   1.903   4.089   5.242
 8826TIP3   OH226441   3.441   5.878   5.681
 8826TIP3    H126442   3.438   5.949   5.616
 8826TIP3    H226443   3.394   5.806   5.639
 8827TIP3   OH226444   5.260   5.383   3.640
 8827TIP3    H126445   5.305   5.305   3.608
 8827TIP3    H226446   5.276   5.384   3.734
 8828TIP3   OH226447   4.674   0.255   3.654
 8828TIP3    H126448   4.764   0.224   3.644
 8828TIP3    H226449   4.622   0.196   3.600
 8829TIP3   OH226450   5.999   1.578   1.005
 8829TIP3    H126451   5.957   1.658   0.975
 8829TIP3    H226452   6.077   1.570   0.950
 8830TIP3   OH226453   4.272   2.977   3.714
 8830TIP3    H126454   4.298   2.952   3.802
 8830TIP3    H226455   4.181   2.952   3.706
 8831TIP3   OH226456   2.405   6.649   2.656
 8831TIP3    H126457   2.397   6.586   2.585
 8831TIP3    H226458   2.354   6.612   2.728
 8832TIP3   OH226459   3.069   3.886   4.479
 8832TIP3    H126460   2.988   3.914   4.437
 8832TIP3    H226461   3.065   3.924   4.567
 8833TIP3   OH226462   6.942   1.867   0.525
 8833TIP3    H126463   6.972   1.901   0.441
 8833TIP3    H226464   7.018   1.819   0.560
 8834TIP3   OH226465   0.375   3.660   3.759
 8834TIP3    H126466   0.305   3.664   3.694
 8834TIP3    H226467   0.340   3.603   3.828
 8835TIP3   OH226468   4.900   1.673   0.588
 8835TIP3    H126469   4.958   1.640   0.520
 8835TIP3    H226470   4.814   1.636   0.566
 8836TIP3   OH226471   6.886   4.235   2.326
 8836TIP3    H126472   6.975   4.203   2.336
 8836TIP3    H226473   6.870   4.287   2.404
 8837TIP3   OH226474   3.215   3.122   5.695
 8837TIP3    H126475   3.173   3.147   5.777
 8837TIP3    H226476   3.307   3.143   5.707
 8838TIP3   OH226477   2.824   6.215   5.487
 8838TIP3    H126478   2.861   6.302   5.496
 8838TIP3    H226479   2.879   6.171   5.423
 8839TIP3   OH226480   3.773   2.626   2.079
 8839TIP3    H126481   3.816   2.699   2.036
 8839TIP3    H226482   3.680   2.637   2.057
 8840TIP3   OH226483   5.198   1.784   0.999
 8840TIP3    H126484   5.153   1.721   0.942
 8840TIP3    H226485   5.204   1.741   1.084
 8841TIP3   OH226486   3.266   2.715   5.221
 8841TIP3    H126487   3.202   2.771   5.176
 8841TIP3    H226488   3.217   2.637   5.245
 8842TIP3   OH226489   3.373   6.790   3.273
 8842TIP3    H126490   3.427   6.793   3.352
 8842TIP3    H226491   3.311   6.718   3.289
 8843TIP3   OH226492   4.718   4.698   2.736
 8843TIP3    H126493   4.759   4.617   2.704
 8843TIP3    H226494   4.784   4.765   2.721
 8844TIP3   OH226495   0.004   6.527   1.931
 8844TIP3    H126496  -0.063   6.592   1.909
 8844TIP3    H226497   0.063   6.527   1.855
 8845TIP3   OH226498   2.268   0.919   4.265
 8845TIP3    H126499   2.274   0.982   4.193
 8845TIP3    H226500   2.237   0.839   4.224
 8846TIP3   OH226501   0.310   4.170   1.633
 8846TIP3    H126502   0.283   4.107   1.567
 8846TIP3    H226503   0.315   4.119   1.714
 8847TIP3   OH226504   3.569   5.984   2.595
 8847TIP3    H126505   3.542   5.966   2.505
 8847TIP3    H226506   3.664   5.974   2.595
 8848TIP3   OH226507   2.569   3.988   2.242
 8848TIP3    H126508   2.614   4.005   2.325
 8848TIP3    H226509   2.477   4.007   2.260
 8849TIP3   OH226510   5.774   4.418   4.264
 8849TIP3    H126511   5.798   4.327   4.279
 8849TIP3    H226512   5.687   4.426   4.304
 8850TIP3   OH226513   0.546   3.111   4.021
 8850TIP3    H126514   0.614   3.176   4.002
 8850TIP3    H226515   0.577   3.031   3.977
 8851TIP3   OH226516   4.115   6.449   4.450
 8851TIP3    H126517   4.059   6.435   4.527
 8851TIP3    H226518   4.114   6.365   4.404
 8852TIP3   OH226519   0.613   2.619   3.263
 8852TIP3    H126520   0.595   2.565   3.187
 8852TIP3    H226521   0.534   2.671   3.276
 8853TIP3   OH226522   6.837   0.095   0.464
 8853TIP3    H126523   6.869   0.185   0.458
 8853TIP3    H226524   6.914   0.040   0.450
 8854TIP3   OH226525   0.380   0.664   4.743
 8854TIP3    H126526   0.474   0.672   4.752
 8854TIP3    H226527   0.354   0.743   4.694
 8855TIP3   OH226528   0.384   2.535   4.215
 8855TIP3    H126529   0.443   2.545   4.140
 8855TIP3    H226530   0.346   2.622   4.227
 8856TIP3   OH226531   6.556   4.640   4.406
 8856TIP3    H126532   6.566   4.558   4.357
 8856TIP3    H226533   6.463   4.662   4.397
 8857TIP3   OH226534   3.165   4.453   0.228
 8857TIP3    H126535   3.218   4.447   0.308
 8857TIP3    H226536   3.202   4.527   0.180
 8858TIP3   OH226537   0.723   6.524   4.594
 8858TIP3    H126538   0.760   6.489   4.674
 8858TIP3    H226539   0.696   6.447   4.544
 8859TIP3   OH226540   4.814   2.374   5.176
 8859TIP3    H126541   4.826   2.429   5.099
 8859TIP3    H226542   4.794   2.435   5.246
 8860TIP3   OH226543   7.124   6.729   5.321
 8860TIP3    H126544   7.086   6.697   5.239
 8860TIP3    H226545   7.062   6.795   5.352
 8861TIP3   OH226546   0.261   1.406   0.411
 8861TIP3    H126547   0.335   1.347   0.407
 8861TIP3    H226548   0.205   1.380   0.338
 8862TIP3   OH226549   2.112   0.094   0.139
 8862TIP3    H126550   2.109   0.141   0.223
 8862TIP3    H226551   2.091   0.004   0.162
 8863TIP3   OH226552   4.342   1.892   3.281
 8863TIP3    H126553   4.248   1.874   3.291
 8863TIP3    H226554   4.380   1.808   3.255
 8864TIP3   OH226555   0.312   1.652   1.530
 8864TIP3    H126556   0.353   1.675   1.613
 8864TIP3    H226557   0.278   1.735   1.497
 8865TIP3   OH226558   2.084   3.571   0.086
 8865TIP3    H126559   2.143   3.529   0.148
 8865TIP3    H226560   2.046   3.645   0.135
 8866TIP3   OH226561   2.073   6.221   1.444
 8866TIP3    H126562   2.124   6.141   1.437
 8866TIP3    H226563   2.109   6.278   1.375
 8867TIP3   OH226564   5.362   3.635   2.428
 8867TIP3    H126565   5.427   3.671   2.368
 8867TIP3    H226566   5.300   3.590   2.371
 8868TIP3   OH226567   1.241   5.888   0.769
 8868TIP3    H126568   1.245   5.943   0.691
 8868TIP3    H226569   1.236   5.798   0.735
 8869TIP3   OH226570   0.886   1.721   1.944
 8869TIP3    H126571   0.925   1.806   1.963
 8869TIP3    H226572   0.884   1.716   1.848
 8870TIP3   OH226573   2.297   0.641   5.310
 8870TIP3    H126574   2.279   0.556   5.270
 8870TIP3    H226575   2.211   0.681   5.322
 8871TIP3   OH226576   1.850   1.792   2.744
 8871TIP3    H126577   1.873   1.844   2.667
 8871TIP3    H226578   1.925   1.735   2.758
 8872TIP3   OH226579   2.201   3.268   4.933
 8872TIP3    H126580   2.263   3.246   4.864
 8872TIP3    H226581   2.236   3.347   4.974
 8873TIP3   OH226582   0.946   2.288   5.545
 8873TIP3    H126583   0.929   2.376   5.580
 8873TIP3    H226584   0.874   2.273   5.484
 8874TIP3   OH226585   1.884   5.011   3.030
 8874TIP3    H126586   1.845   5.026   3.116
 8874TIP3    H226587   1.903   4.917   3.029
 8875TIP3   OH226588   3.378   0.572   3.539
 8875TIP3    H126589   3.290   0.590   3.505
 8875TIP3    H226590   3.386   0.477   3.539
 8876TIP3   OH226591   5.437   5.138   2.989
 8876TIP3    H126592   5.428   5.199   2.916
 8876TIP3    H226593   5.489   5.066   2.954
 8877TIP3   OH226594   1.852   4.632   1.444
 8877TIP3    H126595   1.777   4.586   1.406
 8877TIP3    H226596   1.813   4.705   1.491
 8878TIP3   OH226597   3.161   6.661   2.995
 8878TIP3    H126598   3.249   6.689   2.968
 8878TIP3    H226599   3.130   6.609   2.920
 8879TIP3   OH226600   6.467   0.723   0.049
 8879TIP3    H126601   6.508   0.795   0.098
 8879TIP3    H226602   6.415   0.677   0.115
 8880TIP3   OH226603   5.275   1.721   4.711
 8880TIP3    H126604   5.215   1.744   4.782
 8880TIP3    H226605   5.360   1.753   4.741
 8881TIP3   OH226606   6.925   2.414   5.700
 8881TIP3    H126607   6.937   2.344   5.635
 8881TIP3    H226608   6.851   2.385   5.753
 8882TIP3   OH226609   3.434   2.504   5.501
 8882TIP3    H126610   3.459   2.469   5.416
 8882TIP3    H226611   3.397   2.590   5.482
 8883TIP3   OH226612   6.923   4.785   1.335
 8883TIP3    H126613   6.938   4.856   1.397
 8883TIP3    H226614   6.966   4.709   1.374
 8884TIP3   OH226615   1.382   3.746   4.412
 8884TIP3    H126616   1.306   3.702   4.374
 8884TIP3    H226617   1.436   3.675   4.447
 8885TIP3   OH226618   4.629   1.131   0.355
 8885TIP3    H126619   4.618   1.173   0.270
 8885TIP3    H226620   4.569   1.056   0.353
 8886TIP3   OH226621   6.503   0.461   2.833
 8886TIP3    H126622   6.483   0.486   2.923
 8886TIP3    H226623   6.579   0.515   2.809
 8887TIP3   OH226624   0.254   0.745   3.281
 8887TIP3    H126625   0.258   0.835   3.247
 8887TIP3    H226626   0.203   0.697   3.215
 8888TIP3   OH226627   3.001   1.502   5.759
 8888TIP3    H126628   2.920   1.513   5.711
 8888TIP3    H226629   2.991   1.557   5.837
 8889TIP3   OH226630   3.652   5.868   4.972
 8889TIP3    H126631   3.700   5.948   4.951
 8889TIP3    H226632   3.618   5.837   4.888
 8890TIP3   OH226633   6.711   1.674   3.914
 8890TIP3    H126634   6.736   1.582   3.921
 8890TIP3    H226635   6.791   1.722   3.935
 8891TIP3   OH226636   2.735   4.090   1.349
 8891TIP3    H126637   2.792   4.025   1.308
 8891TIP3    H226638   2.759   4.088   1.442
 8892TIP3   OH226639   1.110   3.528   0.699
 8892TIP3    H126640   1.126   3.618   0.727
 8892TIP3    H226641   1.197   3.494   0.678
 8893TIP3   OH226642   5.272   4.844   1.420
 8893TIP3    H126643   5.279   4.829   1.514
 8893TIP3    H226644   5.202   4.909   1.411
 8894TIP3   OH226645   7.161   5.064   1.773
 8894TIP3    H126646   7.225   5.124   1.736
 8894TIP3    H226647   7.207   4.981   1.781
 8895TIP3   OH226648   4.342   5.383   4.959
 8895TIP3    H126649   4.253   5.405   4.932
 8895TIP3    H226650   4.330   5.320   5.030
 8896TIP3   OH226651   0.618   5.139   2.003
 8896TIP3    H126652   0.604   5.195   2.079
 8896TIP3    H226653   0.587   5.191   1.929
 8897TIP3   OH226654   5.491   0.643   0.517
 8897TIP3    H126655   5.517   0.572   0.578
 8897TIP3    H226656   5.562   0.707   0.524
 8898TIP3   OH226657   2.625   5.094   2.736
 8898TIP3    H126658   2.557   5.049   2.687
 8898TIP3    H226659   2.650   5.168   2.680
 8899TIP3   OH226660   3.572   3.766   2.861
 8899TIP3    H126661   3.548   3.790   2.771
 8899TIP3    H226662   3.652   3.714   2.851
 8900TIP3   OH226663   0.976   0.097   5.309
 8900TIP3    H126664   0.965   0.192   5.302
 8900TIP3    H226665   1.050   0.077   5.252
 8901TIP3   OH226666   1.026   6.665   4.936
 8901TIP3    H126667   1.067   6.726   4.996
 8901TIP3    H226668   0.953   6.714   4.897
 8902TIP3   OH226669   5.865   4.824   2.405
 8902TIP3    H126670   5.864   4.824   2.501
 8902TIP3    H226671   5.954   4.851   2.382
 8903TIP3   OH226672   1.425   1.748   3.904
 8903TIP3    H126673   1.369   1.819   3.938
 8903TIP3    H226674   1.437   1.769   3.812
 8904TIP3   OH226675   5.459   1.160   5.149
 8904TIP3    H126676   5.379   1.213   5.157
 8904TIP3    H226677   5.530   1.223   5.148
 8905TIP3   OH226678   6.615   0.868   1.427
 8905TIP3    H126679   6.619   0.862   1.331
 8905TIP3    H226680   6.546   0.807   1.452
 8906TIP3   OH226681   5.041   2.034   3.550
 8906TIP3    H126682   5.102   2.088   3.501
 8906TIP3    H226683   4.958   2.041   3.503
 8907TIP3   OH226684   4.287   2.955   4.687
 8907TIP3    H126685   4.195   2.933   4.703
 8907TIP3    H226686   4.283   3.030   4.627
 8908TIP3   OH226687   6.059   4.106   5.668
 8908TIP3    H126688   6.055   4.202   5.675
 8908TIP3    H226689   6.139   4.082   5.714
 8909TIP3   OH226690   0.003   1.958   3.710
 8909TIP3    H126691   0.056   1.983   3.785
 8909TIP3    H226692   0.064   1.955   3.637
 8910TIP3   OH226693   4.970   2.227   2.599
 8910TIP3    H126694   4.909   2.167   2.557
 8910TIP3    H226695   4.947   2.224   2.692
 8911TIP3   OH226696   6.475   0.431   1.448
 8911TIP3    H126697   6.430   0.352   1.476
 8911TIP3    H226698   6.520   0.463   1.527
 8912TIP3   OH226699   5.216   0.608   2.884
 8912TIP3    H126700   5.211   0.564   2.969
 8912TIP3    H226701   5.307   0.638   2.879
 8913TIP3   OH226702   1.511   2.259   2.404
 8913TIP3    H126703   1.493   2.332   2.345
 8913TIP3    H226704   1.425   2.225   2.429
 8914TIP3   OH226705   1.690   3.155   1.254
 8914TIP3    H126706   1.715   3.214   1.325
 8914TIP3    H226707   1.745   3.078   1.265
 8915TIP3   OH226708   0.168   6.667   4.966
 8915TIP3    H126709   0.216   6.612   4.905
 8915TIP3    H226710   0.076   6.644   4.953
 8916TIP3   OH226711   6.682   4.579   5.824
 8916TIP3    H126712   6.777   4.568   5.827
 8916TIP3    H226713   6.659   4.611   5.911
 8917TIP3   OH226714   2.415   1.617   3.120
 8917TIP3    H126715   2.326   1.619   3.154
 8917TIP3    H226716   2.425   1.701   3.074
 8918TIP3   OH226717   1.535   2.756   2.367
 8918TIP3    H126718   1.604   2.691   2.378
 8918TIP3    H226719   1.457   2.714   2.404
 8919TIP3   OH226720   4.725   2.110   0.449
 8919TIP3    H126721   4.778   2.150   0.518
 8919TIP3    H226722   4.639   2.095   0.490
 8920TIP3   OH226723   0.928   6.537   5.719
 8920TIP3    H126724   1.001   6.536   5.657
 8920TIP3    H226725   0.892   6.449   5.714
 8921TIP3   OH226726   6.244   6.372   5.377
 8921TIP3    H126727   6.326   6.411   5.345
 8921TIP3    H226728   6.245   6.389   5.471
 8922TIP3   OH226729   0.980   0.770   0.030
 8922TIP3    H126730   0.958   0.735   0.116
 8922TIP3    H226731   0.962   0.697  -0.031
 8923TIP3   OH226732   6.305   2.759   2.556
 8923TIP3    H126733   6.250   2.711   2.618
 8923TIP3    H226734   6.373   2.799   2.611
 8924TIP3   OH226735   0.348   5.037   4.647
 8924TIP3    H126736   0.288   5.074   4.712
 8924TIP3    H226737   0.324   5.079   4.565
 8925TIP3   OH226738   5.344   2.002   4.359
 8925TIP3    H126739   5.408   2.066   4.328
 8925TIP3    H226740   5.397   1.933   4.399
 8926TIP3   OH226741   6.638   0.368   0.825
 8926TIP3    H126742   6.591   0.342   0.746
 8926TIP3    H226743   6.587   0.329   0.896
 8927TIP3   OH226744   4.977   0.860   0.037
 8927TIP3    H126745   5.003   0.950   0.017
 8927TIP3    H226746   5.059   0.809   0.033
 8928TIP3   OH226747   3.961   1.098   2.215
 8928TIP3    H126748   3.916   1.177   2.248
 8928TIP3    H226749   4.000   1.059   2.293
 8929TIP3   OH226750   0.478   4.677   3.343
 8929TIP3    H126751   0.541   4.725   3.288
 8929TIP3    H226752   0.532   4.624   3.401
 8930TIP3   OH226753   4.385   3.621   4.570
 8930TIP3    H126754   4.439   3.689   4.531
 8930TIP3    H226755   4.438   3.585   4.641
 8931TIP3   OH226756   6.638   2.900   1.377
 8931TIP3    H126757   6.567   2.837   1.372
 8931TIP3    H226758   6.703   2.859   1.435
 8932TIP3   OH226759   4.553   5.581   3.157
 8932TIP3    H126760   4.565   5.486   3.150
 8932TIP3    H226761   4.546   5.597   3.251
 8933TIP3   OH226762   4.382   4.493   3.016
 8933TIP3    H126763   4.424   4.579   3.016
 8933TIP3    H226764   4.445   4.436   3.059
 8934TIP3   OH226765   4.658   3.791   1.082
 8934TIP3    H126766   4.717   3.724   1.115
 8934TIP3    H226767   4.706   3.834   1.012
 8935TIP3   OH226768   0.764   2.733   3.454
 8935TIP3    H126769   0.698   2.722   3.522
 8935TIP3    H226770   0.726   2.692   3.377
 8936TIP3   OH226771   3.476   2.748   2.964
 8936TIP3    H126772   3.383   2.768   2.972
 8936TIP3    H226773   3.521   2.829   2.987
 8937TIP3   OH226774   1.830   4.945   1.981
 8937TIP3    H126775   1.882   4.885   1.929
 8937TIP3    H226776   1.890   5.017   2.003
 8938TIP3   OH226777   5.415   6.153   0.031
 8938TIP3    H126778   5.337   6.108  -0.000
 8938TIP3    H226779   5.410   6.148   0.126
 8939TIP3   OH226780   4.421   5.734   2.988
 8939TIP3    H126781   4.448   5.669   3.052
 8939TIP3    H226782   4.346   5.778   3.028
 8940TIP3   OH226783   6.073   0.684   0.235
 8940TIP3    H126784   6.050   0.757   0.176
 8940TIP3    H226785   5.998   0.678   0.295
 8941TIP3   OH226786   4.619   1.286   2.919
 8941TIP3    H126787   4.669   1.358   2.957
 8941TIP3    H226788   4.674   1.253   2.848
 8942TIP3   OH226789   2.667   4.265   3.018
 8942TIP3    H126790   2.750   4.218   3.029
 8942TIP3    H226791   2.676   4.309   2.933
 8943TIP3   OH226792   1.938   5.013   5.000
 8943TIP3    H126793   1.918   4.920   4.986
 8943TIP3    H226794   1.895   5.058   4.927
 8944TIP3   OH226795   0.281   3.829   5.125
 8944TIP3    H126796   0.351   3.894   5.122
 8944TIP3    H226797   0.227   3.855   5.200
 8945TIP3   OH226798   6.756   5.358   5.439
 8945TIP3    H126799   6.755   5.357   5.535
 8945TIP3    H226800   6.833   5.305   5.416
 8946TIP3   OH226801   2.475   6.289   0.064
 8946TIP3    H126802   2.556   6.259   0.022
 8946TIP3    H226803   2.469   6.382   0.041
 8947TIP3   OH226804   4.318   1.274   3.811
 8947TIP3    H126805   4.388   1.255   3.874
 8947TIP3    H226806   4.281   1.188   3.789
 8948TIP3   OH226807   7.026   5.163   1.208
 8948TIP3    H126808   7.116   5.130   1.209
 8948TIP3    H226809   6.977   5.095   1.160
 8949TIP3   OH226810   6.458   6.688   5.887
 8949TIP3    H126811   6.446   6.594   5.880
 8949TIP3    H226812   6.548   6.699   5.916
 8950TIP3   OH226813   4.197   4.915   5.732
 8950TIP3    H126814   4.263   4.847   5.719
 8950TIP3    H226815   4.246   4.991   5.762
 8951TIP3   OH226816   0.033   0.818   1.137
 8951TIP3    H126817  -0.025   0.844   1.208
 8951TIP3    H226818   0.012   0.878   1.065
 8952TIP3   OH226819   0.218   1.207   4.966
 8952TIP3    H126820   0.163   1.265   4.914
 8952TIP3    H226821   0.277   1.266   5.013
 8953TIP3   OH226822   4.128   3.311   1.087
 8953TIP3    H126823   4.219   3.301   1.115
 8953TIP3    H226824   4.077   3.295   1.166
 8954TIP3   OH226825   0.170   6.127   5.730
 8954TIP3    H126826   0.265   6.130   5.729
 8954TIP3    H226827   0.145   6.179   5.807
 8955TIP3   OH226828   5.920   6.559   5.324
 8955TIP3    H126829   5.968   6.525   5.399
 8955TIP3    H226830   5.834   6.581   5.359
 8956TIP3   OH226831   4.661   0.812   5.555
 8956TIP3    H126832   4.647   0.831   5.648
 8956TIP3    H226833   4.754   0.786   5.550
 8957TIP3   OH226834   6.818   1.400   3.928
 8957TIP3    H126835   6.897   1.346   3.936
 8957TIP3    H226836   6.771   1.384   4.009
 8958TIP3   OH226837   1.146   1.914   0.125
 8958TIP3    H126838   1.195   1.833   0.111
 8958TIP3    H226839   1.074   1.888   0.183
 8959TIP3   OH226840   3.602   1.115   1.996
 8959TIP3    H126841   3.632   1.072   1.915
 8959TIP3    H226842   3.634   1.059   2.066
 8960TIP3   OH226843   4.000   3.856   4.533
 8960TIP3    H126844   3.999   3.834   4.440
 8960TIP3    H226845   4.006   3.771   4.577
 8961TIP3   OH226846   3.356   0.636   2.534
 8961TIP3    H126847   3.369   0.556   2.483
 8961TIP3    H226848   3.288   0.613   2.597
 8962TIP3   OH226849   2.339   6.072   0.173
 8962TIP3    H126850   2.392   6.134   0.121
 8962TIP3    H226851   2.368   6.088   0.263
 8963TIP3   OH226852   1.193   3.602   2.245
 8963TIP3    H126853   1.262   3.630   2.184
 8963TIP3    H226854   1.132   3.676   2.248
 8964TIP3   OH226855   4.732   6.533   2.891
 8964TIP3    H126856   4.715   6.575   2.806
 8964TIP3    H226857   4.823   6.502   2.883
 8965TIP3   OH226858   6.738   4.087   2.650
 8965TIP3    H126859   6.788   4.094   2.731
 8965TIP3    H226860   6.773   4.156   2.594
 8966TIP3   OH226861   6.100   1.765   1.881
 8966TIP3    H126862   6.135   1.854   1.886
 8966TIP3    H226863   6.068   1.757   1.791
 8967TIP3   OH226864   0.633   5.544   1.496
 8967TIP3    H126865   0.660   5.627   1.455
 8967TIP3    H226866   0.600   5.492   1.422
 8968TIP3   OH226867   6.558   2.581   5.661
 8968TIP3    H126868   6.615   2.654   5.683
 8968TIP3    H226869   6.474   2.621   5.640
 8969TIP3   OH226870   5.633   4.596   1.302
 8969TIP3    H126871   5.585   4.671   1.267
 8969TIP3    H226872   5.725   4.615   1.284
 8970TIP3   OH226873   4.713   3.405   3.163
 8970TIP3    H126874   4.727   3.359   3.246
 8970TIP3    H226875   4.627   3.446   3.173
 8971TIP3   OH226876   6.773   3.509   1.315
 8971TIP3    H126877   6.857   3.479   1.351
 8971TIP3    H226878   6.766   3.600   1.343
 8972TIP3   OH226879   1.798   0.776   3.454
 8972TIP3    H126880   1.811   0.863   3.491
 8972TIP3    H226881   1.860   0.771   3.382
 8973TIP3   OH226882   0.553   3.580   5.346
 8973TIP3    H126883   0.605   3.658   5.366
 8973TIP3    H226884   0.527   3.592   5.255
 8974TIP3   OH226885   2.538   4.645   2.568
 8974TIP3    H126886   2.545   4.688   2.483
 8974TIP3    H226887   2.623   4.660   2.610
 8975TIP3   OH226888   3.124   5.725   5.556
 8975TIP3    H126889   3.141   5.806   5.507
 8975TIP3    H226890   3.081   5.755   5.636
 8976TIP3   OH226891   5.474   6.479   3.296
 8976TIP3    H126892   5.505   6.391   3.318
 8976TIP3    H226893   5.446   6.516   3.380
 8977TIP3   OH226894   4.289   2.441   5.616
 8977TIP3    H126895   4.324   2.435   5.705
 8977TIP3    H226896   4.364   2.468   5.563
 8978TIP3   OH226897   4.344   3.215   4.525
 8978TIP3    H126898   4.410   3.233   4.591
 8978TIP3    H226899   4.344   3.293   4.470
 8979TIP3   OH226900   5.299   0.414   2.406
 8979TIP3    H126901   5.245   0.408   2.485
 8979TIP3    H226902   5.236   0.420   2.335
 8980TIP3   OH226903   1.700   0.124   2.181
 8980TIP3    H126904   1.691   0.069   2.102
 8980TIP3    H226905   1.639   0.196   2.166
 8981TIP3   OH226906   6.006   5.720   4.360
 8981TIP3    H126907   6.034   5.656   4.425
 8981TIP3    H226908   5.935   5.767   4.402
 8982TIP3   OH226909   3.604   1.148   0.316
 8982TIP3    H126910   3.619   1.060   0.283
 8982TIP3    H226911   3.652   1.205   0.256
 8983TIP3   OH226912   0.199   6.186   2.272
 8983TIP3    H126913   0.110   6.156   2.252
 8983TIP3    H226914   0.200   6.198   2.367
 8984TIP3   OH226915   6.266   6.803   2.060
 8984TIP3    H126916   6.229   6.838   2.141
 8984TIP3    H226917   6.190   6.774   2.010
 8985TIP3   OH226918   4.405   0.617   5.594
 8985TIP3    H126919   4.335   0.661   5.546
 8985TIP3    H226920   4.381   0.627   5.686
 8986TIP3   OH226921   6.758   1.220   5.288
 8986TIP3    H126922   6.776   1.166   5.365
 8986TIP3    H226923   6.825   1.195   5.225
 8987TIP3   OH226924   5.008   6.753   2.482
 8987TIP3    H126925   4.931   6.779   2.431
 8987TIP3    H226926   5.082   6.792   2.436
 8988TIP3   OH226927   4.195   3.597   0.583
 8988TIP3    H126928   4.232   3.616   0.497
 8988TIP3    H226929   4.100   3.603   0.571
 8989TIP3   OH226930   6.329   5.290   3.363
 8989TIP3    H126931   6.251   5.235   3.358
 8989TIP3    H226932   6.394   5.235   3.406
 8990TIP3   OH226933   2.510   0.279   3.483
 8990TIP3    H126934   2.587   0.228   3.457
 8990TIP3    H226935   2.465   0.224   3.547
 8991TIP3   OH226936   1.305   2.786   1.679
 8991TIP3    H126937   1.217   2.768   1.713
 8991TIP3    H226938   1.318   2.880   1.696
 8992TIP3   OH226939   5.811   5.302   3.237
 8992TIP3    H126940   5.774   5.215   3.226
 8992TIP3    H226941   5.740   5.362   3.210
 8993TIP3   OH226942   1.472   5.403   3.220
 8993TIP3    H126943   1.549   5.372   3.172
 8993TIP3    H226944   1.478   5.361   3.305
 8994TIP3   OH226945   1.650   4.039   0.070
 8994TIP3    H126946   1.694   4.124   0.071
 8994TIP3    H226947   1.680   3.997  -0.010
 8995TIP3   OH226948   2.380   4.181   2.774
 8995TIP3    H126949   2.428   4.260   2.749
 8995TIP3    H226950   2.305   4.179   2.716
 8996TIP3   OH226951   2.847   6.732   4.582
 8996TIP3    H126952   2.794   6.659   4.548
 8996TIP3    H226953   2.846   6.797   4.512
 8997TIP3   OH226954   5.374   0.406   0.889
 8997TIP3    H126955   5.448   0.396   0.949
 8997TIP3    H226956   5.338   0.318   0.880
 8998TIP3   OH226957   2.320   3.104   2.417
 8998TIP3    H126958   2.306   3.139   2.329
 8998TIP3    H226959   2.239   3.056   2.437
 8999TIP3   OH226960   1.573   6.309   2.720
 8999TIP3    H126961   1.625   6.230   2.732
 8999TIP3    H226962   1.604   6.347   2.638
 9000TIP3   OH226963   2.716   1.088   0.612
 9000TIP3    H126964   2.733   1.004   0.653
 9000TIP3    H226965   2.623   1.088   0.593
 9001TIP3   OH226966   5.921   4.226   2.384
 9001TIP3    H126967   5.972   4.146   2.369
 9001TIP3    H226968   5.950   4.256   2.470
 9002TIP3   OH226969   3.255   0.580   1.468
 9002TIP3    H126970   3.322   0.549   1.406
 9002TIP3    H226971   3.263   0.674   1.467
 9003TIP3   OH226972   1.662   3.210   3.102
 9003TIP3    H126973   1.630   3.155   3.174
 9003TIP3    H226974   1.647   3.299   3.132
 9004TIP3   OH226975   2.395   2.820   4.378
 9004TIP3    H126976   2.307   2.805   4.412
 9004TIP3    H226977   2.453   2.774   4.438
 9005TIP3   OH226978   5.100   3.814   2.389
 9005TIP3    H126979   5.182   3.767   2.373
 9005TIP3    H226980   5.032   3.752   2.363
 9006TIP3   OH226981   0.966   3.258   1.504
 9006TIP3    H126982   1.058   3.238   1.519
 9006TIP3    H226983   0.967   3.344   1.460
 9007TIP3   OH226984   0.937   2.871   2.118
 9007TIP3    H126985   1.030   2.850   2.123
 9007TIP3    H226986   0.897   2.819   2.188
 9008TIP3   OH226987   3.690   2.912   5.559
 9008TIP3    H126988   3.748   2.951   5.623
 9008TIP3    H226989   3.609   2.894   5.607
 9009TIP3   OH226990   6.163   3.170   2.122
 9009TIP3    H126991   6.118   3.234   2.068
 9009TIP3    H226992   6.140   3.085   2.083
 9010TIP3   OH226993   3.634   6.474   1.485
 9010TIP3    H126994   3.571   6.522   1.432
 9010TIP3    H226995   3.605   6.384   1.482
 9011TIP3   OH226996   4.559   1.973   3.926
 9011TIP3    H126997   4.467   1.975   3.953
 9011TIP3    H226998   4.605   1.931   3.999
 9012TIP3   OH226999   4.070   0.394   3.110
 9012TIP3    H127000   3.992   0.428   3.153
 9012TIP3    H227001   4.138   0.396   3.177
 9013TIP3   OH227002   4.653   5.578   0.911
 9013TIP3    H127003   4.563   5.551   0.893
 9013TIP3    H227004   4.669   5.650   0.850
 9014TIP3   OH227005   7.004   4.139   4.830
 9014TIP3    H127006   6.959   4.077   4.887
 9014TIP3    H227007   6.942   4.212   4.821
 9015TIP3   OH227008   6.664   6.494   2.614
 9015TIP3    H127009   6.656   6.579   2.657
 9015TIP3    H227010   6.585   6.447   2.639
 9016TIP3   OH227011   0.422   0.533   5.518
 9016TIP3    H127012   0.467   0.530   5.602
 9016TIP3    H227013   0.371   0.452   5.515
 9017TIP3   OH227014   0.177   4.770   2.992
 9017TIP3    H127015   0.212   4.703   3.050
 9017TIP3    H227016   0.248   4.834   2.983
 9018TIP3   OH227017   1.672   6.358   4.055
 9018TIP3    H127018   1.756   6.366   4.010
 9018TIP3    H227019   1.615   6.421   4.011
 9019TIP3   OH227020   6.555   3.960   4.459
 9019TIP3    H127021   6.620   4.022   4.426
 9019TIP3    H227022   6.509   3.930   4.380
 9020TIP3   OH227023   6.164   0.335   3.890
 9020TIP3    H127024   6.092   0.316   3.830
 9020TIP3    H227025   6.134   0.413   3.938
 9021TIP3   OH227026   2.452   1.136   2.284
 9021TIP3    H127027   2.438   1.045   2.308
 9021TIP3    H227028   2.511   1.170   2.351
 9022TIP3   OH227029   2.231   3.676   1.494
 9022TIP3    H127030   2.238   3.646   1.584
 9022TIP3    H227031   2.285   3.616   1.444
 9023TIP3   OH227032   1.948   3.131   3.280
 9023TIP3    H127033   1.923   3.203   3.338
 9023TIP3    H227034   1.925   3.161   3.192
 9024TIP3   OH227035   5.656   3.612   3.945
 9024TIP3    H127036   5.677   3.687   4.000
 9024TIP3    H227037   5.695   3.633   3.860
 9025TIP3   OH227038   3.146   4.015   0.023
 9025TIP3    H127039   3.202   4.045   0.095
 9025TIP3    H227040   3.068   4.070   0.029
 9026TIP3   OH227041   6.644   0.034   5.167
 9026TIP3    H127042   6.611  -0.048   5.205
 9026TIP3    H227043   6.624   0.026   5.073
 9027TIP3   OH227044   0.353   4.049   0.216
 9027TIP3    H127045   0.356   4.094   0.301
 9027TIP3    H227046   0.297   4.103   0.162
 9028TIP3   OH227047   0.431   0.266   3.635
 9028TIP3    H127048   0.394   0.208   3.569
 9028TIP3    H227049   0.364   0.273   3.702
 9029TIP3   OH227050   3.240   5.314   3.826
 9029TIP3    H127051   3.315   5.256   3.815
 9029TIP3    H227052   3.259   5.388   3.768
 9030TIP3   OH227053   4.838   6.736   1.822
 9030TIP3    H127054   4.922   6.773   1.850
 9030TIP3    H227055   4.838   6.647   1.858
 9031TIP3   OH227056   3.375   1.018   5.552
 9031TIP3    H127057   3.291   0.988   5.516
 9031TIP3    H227058   3.374   1.113   5.542
 9032TIP3   OH227059   2.626   5.330   4.881
 9032TIP3    H127060   2.712   5.331   4.923
 9032TIP3    H227061   2.564   5.315   4.952
 9033TIP3   OH227062   5.808   4.193   1.246
 9033TIP3    H127063   5.761   4.122   1.202
 9033TIP3    H227064   5.864   4.230   1.178
 9034TIP3   OH227065   6.271   5.108   4.587
 9034TIP3    H127066   6.209   5.047   4.548
 9034TIP3    H227067   6.281   5.177   4.521
 9035TIP3   OH227068   7.155   4.148   5.850
 9035TIP3    H127069   7.137   4.062   5.888
 9035TIP3    H227070   7.245   4.167   5.874
 9036TIP3   OH227071   6.669   3.890   0.711
 9036TIP3    H127072   6.745   3.834   0.731
 9036TIP3    H227073   6.697   3.978   0.735
 9037TIP3   OH227074   5.975   5.762   0.778
 9037TIP3    H127075   6.058   5.766   0.730
 9037TIP3    H227076   5.937   5.849   0.768
 9038TIP3   OH227077   6.245   3.624   1.679
 9038TIP3    H127078   6.246   3.697   1.741
 9038TIP3    H227079   6.153   3.613   1.655
 9039TIP3   OH227080   4.244   0.188   1.648
 9039TIP3    H127081   4.272   0.275   1.619
 9039TIP3    H227082   4.317   0.130   1.625
 9040TIP3   OH227083   1.670   0.645   0.011
 9040TIP3    H127084   1.675   0.695   0.092
 9040TIP3    H227085   1.597   0.585   0.023
 9041TIP3   OH227086   6.684   1.228   5.621
 9041TIP3    H127087   6.621   1.156   5.620
 9041TIP3    H227088   6.766   1.189   5.593
 9042TIP3   OH227089   0.020   6.283   3.152
 9042TIP3    H127090  -0.012   6.353   3.208
 9042TIP3    H227091   0.006   6.315   3.063
 9043TIP3   OH227092   1.391   2.132   5.275
 9043TIP3    H127093   1.459   2.065   5.278
 9043TIP3    H227094   1.312   2.086   5.249
 9044TIP3   OH227095   5.832   1.631   1.987
 9044TIP3    H127096   5.882   1.675   1.918
 9044TIP3    H227097   5.872   1.662   2.068
 9045TIP3   OH227098   6.850   1.587   5.068
 9045TIP3    H127099   6.830   1.675   5.038
 9045TIP3    H227100   6.795   1.530   5.015
 9046TIP3   OH227101   1.989   3.796   0.203
 9046TIP3    H127102   1.900   3.823   0.182
 9046TIP3    H227103   2.041   3.876   0.197
 9047TIP3   OH227104   4.700   5.011   5.229
 9047TIP3    H127105   4.762   5.038   5.297
 9047TIP3    H227106   4.725   5.062   5.152
 9048TIP3   OH227107   4.393   4.508   5.409
 9048TIP3    H127108   4.322   4.486   5.349
 9048TIP3    H227109   4.414   4.425   5.453
 9049TIP3   OH227110   0.106   3.895   1.318
 9049TIP3    H127111   0.160   3.823   1.351
 9049TIP3    H227112   0.165   3.970   1.314
 9050TIP3   OH227113   4.025   2.154   4.464
 9050TIP3    H127114   4.003   2.188   4.378
 9050TIP3    H227115   3.960   2.085   4.480
 9051TIP3   OH227116   2.744   0.888   4.150
 9051TIP3    H127117   2.839   0.892   4.162
 9051TIP3    H227118   2.722   0.796   4.163
 9052TIP3   OH227119   6.192   3.397   5.182
 9052TIP3    H127120   6.157   3.344   5.111
 9052TIP3    H227121   6.266   3.346   5.215
 9053TIP3   OH227122   1.131   1.603   5.489
 9053TIP3    H127123   1.071   1.678   5.489
 9053TIP3    H227124   1.217   1.642   5.504
 9054TIP3   OH227125   1.891   1.700   2.216
 9054TIP3    H127126   1.837   1.629   2.181
 9054TIP3    H227127   1.960   1.713   2.150
 9055TIP3   OH227128   5.385   6.052   5.899
 9055TIP3    H127129   5.326   6.028   5.971
 9055TIP3    H227130   5.359   5.996   5.826
 9056TIP3   OH227131   3.716   4.388   1.799
 9056TIP3    H127132   3.729   4.411   1.707
 9056TIP3    H227133   3.803   4.397   1.838
 9057TIP3   OH227134   6.582   6.447   0.341
 9057TIP3    H127135   6.550   6.363   0.308
 9057TIP3    H227136   6.512   6.478   0.398
 9058TIP3   OH227137   4.050   1.054   5.314
 9058TIP3    H127138   4.058   0.964   5.283
 9058TIP3    H227139   3.993   1.097   5.250
 9059TIP3   OH227140   3.345   2.461   1.269
 9059TIP3    H127141   3.309   2.435   1.354
 9059TIP3    H227142   3.436   2.430   1.271
 9060TIP3   OH227143   6.834   1.351   3.634
 9060TIP3    H127144   6.810   1.377   3.723
 9060TIP3    H227145   6.812   1.427   3.580
 9061TIP3   OH227146   4.712   4.178   4.066
 9061TIP3    H127147   4.752   4.099   4.101
 9061TIP3    H227148   4.777   4.247   4.082
 9062TIP3   OH227149   6.260   5.775   1.267
 9062TIP3    H127150   6.344   5.796   1.227
 9062TIP3    H227151   6.235   5.691   1.228
 9063TIP3   OH227152   2.469   5.881   0.457
 9063TIP3    H127153   2.492   5.843   0.372
 9063TIP3    H227154   2.544   5.862   0.514
 9064TIP3   OH227155   5.822   0.490   0.209
 9064TIP3    H127156   5.810   0.585   0.199
 9064TIP3    H227157   5.862   0.463   0.127
 9065TIP3   OH227158   4.255   0.457   0.393
 9065TIP3    H127159   4.229   0.548   0.406
 9065TIP3    H227160   4.244   0.416   0.478
 9066TIP3   OH227161   0.484   3.983   4.762
 9066TIP3    H127162   0.504   3.890   4.756
 9066TIP3    H227163   0.537   4.015   4.835
 9067TIP3   OH227164   2.732   2.545   2.862
 9067TIP3    H127165   2.691   2.464   2.895
 9067TIP3    H227166   2.709   2.547   2.770
 9068TIP3   OH227167   5.724   2.347   0.291
 9068TIP3    H127168   5.640   2.310   0.317
 9068TIP3    H227169   5.786   2.275   0.303
 9069TIP3   OH227170   5.185   0.116   4.401
 9069TIP3    H127171   5.152   0.172   4.331
 9069TIP3    H227172   5.136   0.143   4.479
 9070TIP3   OH227173   1.402   3.193   1.264
 9070TIP3    H127174   1.497   3.190   1.275
 9070TIP3    H227175   1.389   3.225   1.175
 9071TIP3   OH227176   7.135   4.126   5.563
 9071TIP3    H127177   7.192   4.049   5.561
 9071TIP3    H227178   7.126   4.146   5.657
 9072TIP3   OH227179   3.552   2.082   2.152
 9072TIP3    H127180   3.556   1.990   2.127
 9072TIP3    H227181   3.643   2.108   2.163
 9073TIP3   OH227182   3.712   3.635   4.175
 9073TIP3    H127183   3.805   3.632   4.199
 9073TIP3    H227184   3.674   3.700   4.235
 9074TIP3   OH227185   3.318   3.472   1.976
 9074TIP3    H127186   3.312   3.556   1.931
 9074TIP3    H227187   3.261   3.413   1.927
 9075TIP3   OH227188   0.203   3.790   4.376
 9075TIP3    H127189   0.224   3.743   4.457
 9075TIP3    H227190   0.230   3.881   4.394
 9076TIP3   OH227191   1.880   5.466   3.846
 9076TIP3    H127192   1.936   5.429   3.778
 9076TIP3    H227193   1.810   5.510   3.798
 9077TIP3   OH227194   2.140   0.150   4.127
 9077TIP3    H127195   2.212   0.098   4.162
 9077TIP3    H227196   2.061   0.105   4.158
 9078TIP3   OH227197   7.226   6.457   4.819
 9078TIP3    H127198   7.238   6.431   4.728
 9078TIP3    H227199   7.154   6.521   4.816
 9079TIP3   OH227200   6.647   3.679   4.820
 9079TIP3    H127201   6.700   3.665   4.899
 9079TIP3    H227202   6.558   3.656   4.847
 9080TIP3   OH227203   4.371   3.995   4.645
 9080TIP3    H127204   4.316   4.056   4.694
 9080TIP3    H227205   4.318   3.970   4.570
 9081TIP3   OH227206   3.784   1.678   0.184
 9081TIP3    H127207   3.876   1.700   0.191
 9081TIP3    H227208   3.769   1.666   0.090
 9082TIP3   OH227209   6.929   3.164   3.448
 9082TIP3    H127210   7.015   3.187   3.484
 9082TIP3    H227211   6.885   3.117   3.518
 9083TIP3   OH227212   6.467   6.113   0.641
 9083TIP3    H127213   6.385   6.127   0.688
 9083TIP3    H227214   6.494   6.024   0.665
 9084TIP3   OH227215   6.810   5.607   5.648
 9084TIP3    H127216   6.894   5.649   5.668
 9084TIP3    H227217   6.833   5.516   5.629
 9085TIP3   OH227218   0.407   2.734   1.622
 9085TIP3    H127219   0.465   2.799   1.661
 9085TIP3    H227220   0.417   2.658   1.678
 9086TIP3   OH227221   6.383   1.255   0.237
 9086TIP3    H127222   6.303   1.241   0.188
 9086TIP3    H227223   6.366   1.218   0.324
 9087TIP3   OH227224   6.926   4.783   3.218
 9087TIP3    H127225   6.959   4.820   3.136
 9087TIP3    H227226   6.979   4.825   3.286
 9088TIP3   OH227227   2.563   2.970   3.207
 9088TIP3    H127228   2.613   3.054   3.209
 9088TIP3    H227229   2.630   2.903   3.210
 9089TIP3   OH227230   6.207   5.132   0.509
 9089TIP3    H127231   6.162   5.153   0.591
 9089TIP3    H227232   6.169   5.048   0.482
 9090TIP3   OH227233   1.717   2.505   4.755
 9090TIP3    H127234   1.655   2.450   4.707
 9090TIP3    H227235   1.668   2.538   4.830
 9091TIP3   OH227236   3.517   0.467   0.171
 9091TIP3    H127237   3.506   0.523   0.094
 9091TIP3    H227238   3.484   0.382   0.144
 9092TIP3   OH227239   0.867   0.247   4.258
 9092TIP3    H127240   0.772   0.260   4.267
 9092TIP3    H227241   0.901   0.335   4.239
 9093TIP3   OH227242   1.167   1.468   1.278
 9093TIP3    H127243   1.192   1.394   1.222
 9093TIP3    H227244   1.156   1.429   1.365
 9094TIP3   OH227245   6.525   5.823   0.668
 9094TIP3    H127246   6.608   5.776   0.655
 9094TIP3    H227247   6.477   5.810   0.586
 9095TIP3   OH227248   6.704   1.123   3.571
 9095TIP3    H127249   6.769   1.060   3.539
 9095TIP3    H227250   6.755   1.201   3.593
 9096TIP3   OH227251   6.060   2.592   1.519
 9096TIP3    H127252   5.991   2.627   1.463
 9096TIP3    H227253   6.037   2.500   1.530
 9097TIP3   OH227254   6.411   5.299   0.445
 9097TIP3    H127255   6.491   5.266   0.486
 9097TIP3    H227256   6.341   5.242   0.479
 9098TIP3   OH227257   0.336   0.906   3.584
 9098TIP3    H127258   0.342   0.933   3.492
 9098TIP3    H227259   0.428   0.894   3.610
 9099TIP3   OH227260   1.914   2.250   0.627
 9099TIP3    H127261   1.905   2.321   0.563
 9099TIP3    H227262   1.866   2.280   0.704
 9100TIP3   OH227263   4.862   5.836   0.151
 9100TIP3    H127264   4.907   5.777   0.090
 9100TIP3    H227265   4.777   5.795   0.165
 9101TIP3   OH227266   4.815   5.238   1.963
 9101TIP3    H127267   4.728   5.215   1.997
 9101TIP3    H227268   4.812   5.334   1.954
 9102TIP3   OH227269   7.203   4.446   0.913
 9102TIP3    H127270   7.120   4.400   0.927
 9102TIP3    H227271   7.211   4.503   0.989
 9103TIP3   OH227272   0.286   1.084   1.829
 9103TIP3    H127273   0.357   1.147   1.841
 9103TIP3    H227274   0.211   1.123   1.875
 9104TIP3   OH227275   5.874   6.472   4.709
 9104TIP3    H127276   5.922   6.554   4.700
 9104TIP3    H227277   5.913   6.429   4.785
 9105TIP3   OH227278   4.084   0.368   1.453
 9105TIP3    H127279   4.000   0.352   1.497
 9105TIP3    H227280   4.130   0.428   1.513
 9106TIP3   OH227281   0.384   0.605   0.560
 9106TIP3    H127282   0.369   0.641   0.472
 9106TIP3    H227283   0.429   0.522   0.544
 9107TIP3   OH227284   2.911   0.048   1.194
 9107TIP3    H127285   2.848   0.104   1.149
 9107TIP3    H227286   2.965   0.109   1.245
 9108TIP3   OH227287   2.581   0.188   1.400
 9108TIP3    H127288   2.608   0.202   1.491
 9108TIP3    H227289   2.580   0.092   1.390
 9109TIP3   OH227290   6.165   2.689   3.295
 9109TIP3    H127291   6.207   2.605   3.309
 9109TIP3    H227292   6.237   2.752   3.290
 9110TIP3   OH227293   4.358   6.166   0.882
 9110TIP3    H127294   4.397   6.222   0.949
 9110TIP3    H227295   4.376   6.211   0.800
 9111TIP3   OH227296   1.078   2.549   5.119
 9111TIP3    H127297   1.034   2.634   5.127
 9111TIP3    H227298   1.007   2.487   5.104
 9112TIP3   OH227299   6.709   0.443   4.577
 9112TIP3    H127300   6.777   0.443   4.510
 9112TIP3    H227301   6.750   0.483   4.653
 9113TIP3   OH227302   3.438   1.184   0.544
 9113TIP3    H127303   3.494   1.176   0.467
 9113TIP3    H227304   3.442   1.276   0.567
 9114TIP3   OH227305   6.703   3.332   0.723
 9114TIP3    H127306   6.748   3.247   0.718
 9114TIP3    H227307   6.632   3.325   0.659
 9115TIP3   OH227308   1.308   5.798   0.398
 9115TIP3    H127309   1.291   5.846   0.317
 9115TIP3    H227310   1.353   5.861   0.455
 9116TIP3   OH227311   0.467   2.280   4.626
 9116TIP3    H127312   0.407   2.220   4.670
 9116TIP3    H227313   0.461   2.258   4.534
 9117TIP3   OH227314   3.561   3.504   4.743
 9117TIP3    H127315   3.487   3.506   4.804
 9117TIP3    H227316   3.584   3.596   4.731
 9118TIP3   OH227317   2.868   5.958   5.346
 9118TIP3    H127318   2.852   5.927   5.435
 9118TIP3    H227319   2.810   5.905   5.291
 9119TIP3   OH227320   1.506   4.224   1.922
 9119TIP3    H127321   1.448   4.236   1.997
 9119TIP3    H227322   1.492   4.133   1.896
 9120TIP3   OH227323   1.215   2.357   2.160
 9120TIP3    H127324   1.302   2.382   2.192
 9120TIP3    H227325   1.157   2.426   2.192
 9121TIP3   OH227326   4.510   1.033   5.726
 9121TIP3    H127327   4.574   0.978   5.771
 9121TIP3    H227328   4.502   1.110   5.783
 9122TIP3   OH227329   6.054   4.516   0.191
 9122TIP3    H127330   6.041   4.427   0.161
 9122TIP3    H227331   5.984   4.566   0.149
 9123TIP3   OH227332   0.030   4.854   1.634
 9123TIP3    H127333  -0.032   4.876   1.565
 9123TIP3    H227334  -0.012   4.782   1.682
 9124TIP3   OH227335   1.381   3.933   2.701
 9124TIP3    H127336   1.411   3.974   2.783
 9124TIP3    H227337   1.314   3.992   2.668
 9125TIP3   OH227338   3.355   4.031   5.287
 9125TIP3    H127339   3.422   3.972   5.251
 9125TIP3    H227340   3.374   4.033   5.381
 9126TIP3   OH227341   5.833   1.495   0.343
 9126TIP3    H127342   5.811   1.514   0.252
 9126TIP3    H227343   5.786   1.560   0.393
 9127TIP3   OH227344   2.844   2.317   5.524
 9127TIP3    H127345   2.842   2.284   5.434
 9127TIP3    H227346   2.921   2.276   5.563
 9128TIP3   OH227347   2.468   1.741   1.889
 9128TIP3    H127348   2.486   1.693   1.970
 9128TIP3    H227349   2.551   1.742   1.842
 9129TIP3   OH227350   4.006   5.334   1.545
 9129TIP3    H127351   3.988   5.254   1.496
 9129TIP3    H227352   4.009   5.403   1.478
 9130TIP3   OH227353   1.088   6.239   2.134
 9130TIP3    H127354   1.050   6.235   2.046
 9130TIP3    H227355   1.153   6.310   2.128
 9131TIP3   OH227356   3.999   5.604   0.802
 9131TIP3    H127357   4.031   5.583   0.889
 9131TIP3    H227358   3.912   5.563   0.798
 9132TIP3   OH227359   6.672   3.195   2.188
 9132TIP3    H127360   6.706   3.212   2.276
 9132TIP3    H227361   6.595   3.251   2.181
 9133TIP3   OH227362   1.625   2.255   2.740
 9133TIP3    H127363   1.571   2.200   2.798
 9133TIP3    H227364   1.590   2.240   2.653
 9134TIP3   OH227365   3.759   4.897   0.966
 9134TIP3    H127366   3.844   4.864   0.935
 9134TIP3    H227367   3.744   4.977   0.915
 9135TIP3   OH227368   4.556   2.364   0.571
 9135TIP3    H127369   4.474   2.319   0.552
 9135TIP3    H227370   4.534   2.457   0.564
 9136TIP3   OH227371   5.008   5.532   1.360
 9136TIP3    H127372   4.932   5.489   1.322
 9136TIP3    H227373   5.081   5.472   1.342
 9137TIP3   OH227374   3.864   0.761   2.933
 9137TIP3    H127375   3.945   0.778   2.886
 9137TIP3    H227376   3.825   0.686   2.889
 9138TIP3   OH227377   4.513   3.209   0.277
 9138TIP3    H127378   4.429   3.179   0.241
 9138TIP3    H227379   4.499   3.212   0.371
 9139TIP3   OH227380   5.516   3.674   3.651
 9139TIP3    H127381   5.452   3.606   3.632
 9139TIP3    H227382   5.572   3.678   3.574
 9140TIP3   OH227383   4.910   0.832   3.945
 9140TIP3    H127384   4.832   0.779   3.948
 9140TIP3    H227385   4.879   0.922   3.961
 9141TIP3   OH227386   5.168   3.643   4.083
 9141TIP3    H127387   5.164   3.736   4.060
 9141TIP3    H227388   5.166   3.641   4.179
 9142TIP3   OH227389   2.108   3.196   1.578
 9142TIP3    H127390   2.200   3.184   1.602
 9142TIP3    H227391   2.106   3.176   1.484
 9143TIP3   OH227392   5.500   1.776   1.889
 9143TIP3    H127393   5.586   1.749   1.857
 9143TIP3    H227394   5.447   1.785   1.810
 9144TIP3   OH227395   6.815   0.101   2.086
 9144TIP3    H127396   6.877   0.141   2.148
 9144TIP3    H227397   6.852   0.121   2.000
 9145TIP3   OH227398   6.164   2.937   0.309
 9145TIP3    H127399   6.084   2.937   0.361
 9145TIP3    H227400   6.152   3.008   0.246
 9146TIP3   OH227401   4.214   1.462   0.329
 9146TIP3    H127402   4.138   1.454   0.386
 9146TIP3    H227403   4.289   1.452   0.388
 9147TIP3   OH227404   1.034   3.416   3.056
 9147TIP3    H127405   0.956   3.363   3.073
 9147TIP3    H227406   1.096   3.390   3.124
 9148TIP3   OH227407   5.519   5.078   3.405
 9148TIP3    H127408   5.545   5.038   3.323
 9148TIP3    H227409   5.601   5.092   3.453
 9149TIP3   OH227410   4.871   1.685   1.170
 9149TIP3    H127411   4.933   1.635   1.116
 9149TIP3    H227412   4.921   1.762   1.199
 9150TIP3   OH227413   6.449   3.181   5.201
 9150TIP3    H127414   6.447   3.134   5.118
 9150TIP3    H227415   6.471   3.271   5.177
 9151TIP3   OH227416   2.251   6.404   0.634
 9151TIP3    H127417   2.310   6.430   0.704
 9151TIP3    H227418   2.289   6.443   0.555
 9152TIP3   OH227419   3.047   1.597   1.611
 9152TIP3    H127420   3.129   1.599   1.561
 9152TIP3    H227421   3.061   1.658   1.683
 9153TIP3   OH227422   2.488   5.372   5.140
 9153TIP3    H127423   2.566   5.370   5.196
 9153TIP3    H227424   2.450   5.459   5.155
 9154TIP3   OH227425   6.105   2.289   1.746
 9154TIP3    H127426   6.167   2.336   1.801
 9154TIP3    H227427   6.019   2.319   1.774
 9155TIP3   OH227428   5.969   0.142   0.146
 9155TIP3    H127429   5.974   0.223   0.095
 9155TIP3    H227430   5.989   0.169   0.236
 9156TIP3   OH227431   5.909   5.185   2.170
 9156TIP3    H127432   5.967   5.140   2.230
 9156TIP3    H227433   5.833   5.127   2.161
 9157TIP3   OH227434   5.435   6.528   2.062
 9157TIP3    H127435   5.340   6.521   2.070
 9157TIP3    H227436   5.451   6.617   2.031
 9158TIP3   OH227437   4.158   4.065   3.928
 9158TIP3    H127438   4.216   4.096   3.998
 9158TIP3    H227439   4.093   4.135   3.919
 9159TIP3   OH227440   6.031   0.084   5.876
 9159TIP3    H127441   6.113   0.040   5.896
 9159TIP3    H227442   5.965   0.039   5.929
 9160TIP3   OH227443   1.776   5.225   0.637
 9160TIP3    H127444   1.702   5.174   0.670
 9160TIP3    H227445   1.737   5.309   0.612
 9161TIP3   OH227446   6.006   3.704   5.647
 9161TIP3    H127447   5.961   3.737   5.569
 9161TIP3    H227448   6.047   3.782   5.686
 9162TIP3   OH227449   2.987   2.604   1.054
 9162TIP3    H127450   2.991   2.635   1.144
 9162TIP3    H227451   2.894   2.588   1.038
 9163TIP3   OH227452   5.276   0.326   4.890
 9163TIP3    H127453   5.350   0.355   4.837
 9163TIP3    H227454   5.215   0.400   4.888
 9164TIP3   OH227455   7.063   6.465   0.614
 9164TIP3    H127456   7.056   6.397   0.681
 9164TIP3    H227457   6.981   6.461   0.566
 9165TIP3   OH227458   0.771   6.797   3.320
 9165TIP3    H127459   0.752   6.891   3.313
 9165TIP3    H227460   0.747   6.774   3.409
 9166TIP3   OH227461   4.081   3.128   1.908
 9166TIP3    H127462   4.061   3.113   2.001
 9166TIP3    H227463   4.176   3.127   1.903
 9167TIP3   OH227464   6.833   0.498   4.339
 9167TIP3    H127465   6.901   0.433   4.358
 9167TIP3    H227466   6.862   0.540   4.258
 9168TIP3   OH227467   6.682   2.405   1.443
 9168TIP3    H127468   6.731   2.357   1.377
 9168TIP3    H227469   6.598   2.424   1.401
 9169TIP3   OH227470   3.969   6.107   3.164
 9169TIP3    H127471   3.930   6.174   3.109
 9169TIP3    H227472   4.061   6.134   3.174
 9170TIP3   OH227473   1.361   2.472   2.968
 9170TIP3    H127474   1.456   2.488   2.974
 9170TIP3    H227475   1.353   2.377   2.964
 9171TIP3   OH227476   1.373   5.173   5.253
 9171TIP3    H127477   1.388   5.268   5.259
 9171TIP3    H227478   1.412   5.148   5.169
 9172TIP3   OH227479   5.473   1.493   4.929
 9172TIP3    H127480   5.556   1.452   4.955
 9172TIP3    H227481   5.469   1.572   4.982
 9173TIP3   OH227482   3.005   1.234   5.873
 9173TIP3    H127483   2.942   1.168   5.845
 9173TIP3    H227484   2.999   1.303   5.808
 9174TIP3   OH227485   2.515   2.639   0.437
 9174TIP3    H127486   2.479   2.727   0.433
 9174TIP3    H227487   2.491   2.599   0.353
 9175TIP3   OH227488   0.524   3.752   2.966
 9175TIP3    H127489   0.584   3.793   3.028
 9175TIP3    H227490   0.580   3.723   2.893
 9176TIP3   OH227491   1.612   1.051   3.230
 9176TIP3    H127492   1.687   1.066   3.173
 9176TIP3    H227493   1.537   1.082   3.180
 9177TIP3   OH227494   2.942   5.526   3.272
 9177TIP3    H127495   2.893   5.459   3.319
 9177TIP3    H227496   2.921   5.512   3.180
 9178TIP3   OH227497   2.063   5.417   3.604
 9178TIP3    H127498   2.099   5.500   3.636
 9178TIP3    H227499   2.136   5.355   3.613
 9179TIP3   OH227500   1.636   6.412   0.574
 9179TIP3    H127501   1.603   6.322   0.575
 9179TIP3    H227502   1.564   6.463   0.537
 9180TIP3   OH227503   2.926   1.665   4.870
 9180TIP3    H127504   2.836   1.696   4.866
 9180TIP3    H227505   2.919   1.570   4.862
 9181TIP3   OH227506   5.203   1.304   4.503
 9181TIP3    H127507   5.231   1.357   4.577
 9181TIP3    H227508   5.263   1.326   4.432
 9182TIP3   OH227509   6.958   5.884   2.260
 9182TIP3    H127510   6.955   5.801   2.307
 9182TIP3    H227511   6.875   5.888   2.213
 9183TIP3   OH227512   3.455   6.494   0.762
 9183TIP3    H127513   3.543   6.480   0.796
 9183TIP3    H227514   3.399   6.438   0.816
 9184TIP3   OH227515   2.404   5.852   4.008
 9184TIP3    H127516   2.391   5.940   3.971
 9184TIP3    H227517   2.317   5.826   4.038
 9185TIP3   OH227518   6.902   3.918   3.396
 9185TIP3    H127519   6.828   3.866   3.364
 9185TIP3    H227520   6.945   3.950   3.317
 9186TIP3   OH227521   3.962   3.566   2.734
 9186TIP3    H127522   3.955   3.661   2.737
 9186TIP3    H227523   3.911   3.540   2.658
 9187TIP3   OH227524   2.663   3.309   2.823
 9187TIP3    H127525   2.630   3.386   2.776
 9187TIP3    H227526   2.708   3.258   2.756
 9188TIP3   OH227527   4.917   6.222   0.595
 9188TIP3    H127528   4.945   6.131   0.610
 9188TIP3    H227529   4.933   6.266   0.678
 9189TIP3   OH227530   0.664   5.489   1.755
 9189TIP3    H127531   0.665   5.532   1.669
 9189TIP3    H227532   0.590   5.429   1.751
 9190TIP3   OH227533   1.192   6.188   5.173
 9190TIP3    H127534   1.145   6.119   5.220
 9190TIP3    H227535   1.180   6.266   5.228
 9191TIP3   OH227536   2.955   3.517   5.311
 9191TIP3    H127537   2.887   3.540   5.374
 9191TIP3    H227538   2.913   3.531   5.225
 9192TIP3   OH227539   3.976   3.554   2.439
 9192TIP3    H127540   3.998   3.590   2.353
 9192TIP3    H227541   4.003   3.463   2.435
 9193TIP3   OH227542   5.206   1.044   3.174
 9193TIP3    H127543   5.115   1.024   3.197
 9193TIP3    H227544   5.201   1.080   3.085
 9194TIP3   OH227545   0.280   1.537   4.331
 9194TIP3    H127546   0.321   1.485   4.262
 9194TIP3    H227547   0.192   1.501   4.339
 9195TIP3   OH227548   0.409   0.992   2.399
 9195TIP3    H127549   0.500   1.015   2.380
 9195TIP3    H227550   0.377   1.066   2.451
 9196TIP3   OH227551   3.108   6.274   1.250
 9196TIP3    H127552   3.117   6.369   1.243
 9196TIP3    H227553   3.013   6.260   1.255
 9197TIP3   OH227554   5.351   2.319   3.906
 9197TIP3    H127555   5.401   2.238   3.903
 9197TIP3    H227556   5.404   2.378   3.960
 9198TIP3   OH227557   0.720   4.963   2.820
 9198TIP3    H127558   0.786   5.001   2.878
 9198TIP3    H227559   0.698   5.033   2.759
 9199TIP3   OH227560   4.458   5.193   3.330
 9199TIP3    H127561   4.469   5.200   3.425
 9199TIP3    H227562   4.446   5.099   3.314
 9200TIP3   OH227563   0.362   2.942   3.132
 9200TIP3    H127564   0.373   2.875   3.200
 9200TIP3    H227565   0.327   2.894   3.057
 9201TIP3   OH227566   6.011   1.099   1.243
 9201TIP3    H127567   6.093   1.057   1.268
 9201TIP3    H227568   6.037   1.177   1.195
 9202TIP3   OH227569   5.331   4.175   4.236
 9202TIP3    H127570   5.239   4.158   4.258
 9202TIP3    H227571   5.376   4.179   4.320
 9203TIP3   OH227572   4.880   2.864   1.696
 9203TIP3    H127573   4.964   2.854   1.741
 9203TIP3    H227574   4.863   2.779   1.656
 9204TIP3   OH227575   4.309   0.981   5.046
 9204TIP3    H127576   4.306   0.904   4.989
 9204TIP3    H227577   4.382   0.964   5.105
 9205TIP3   OH227578   3.611   6.189   3.054
 9205TIP3    H127579   3.567   6.121   3.107
 9205TIP3    H227580   3.660   6.140   2.989
 9206TIP3   OH227581   3.257   6.360   0.901
 9206TIP3    H127582   3.241   6.268   0.882
 9206TIP3    H227583   3.180   6.406   0.866
 9207TIP3   OH227584   1.368   2.650   4.569
 9207TIP3    H127585   1.276   2.655   4.542
 9207TIP3    H227586   1.382   2.726   4.624
 9208TIP3   OH227587   5.913   2.113   0.133
 9208TIP3    H127588   5.964   2.163   0.197
 9208TIP3    H227589   5.890   2.176   0.065
 9209TIP3   OH227590   0.712   1.561   4.314
 9209TIP3    H127591   0.803   1.538   4.300
 9209TIP3    H227592   0.711   1.657   4.314
 9210TIP3   OH227593   2.115   0.089   5.119
 9210TIP3    H127594   2.037   0.051   5.079
 9210TIP3    H227595   2.109   0.066   5.211
 9211TIP3   OH227596   4.064   5.377   2.610
 9211TIP3    H127597   4.138   5.333   2.568
 9211TIP3    H227598   4.076   5.470   2.590
 9212TIP3   OH227599   3.656   4.520   5.669
 9212TIP3    H127600   3.697   4.444   5.629
 9212TIP3    H227601   3.575   4.533   5.619
 9213TIP3   OH227602   3.099   1.762   0.605
 9213TIP3    H127603   3.090   1.853   0.634
 9213TIP3    H227604   3.016   1.741   0.563
 9214TIP3   OH227605   0.308   0.044   5.384
 9214TIP3    H127606   0.362  -0.028   5.417
 9214TIP3    H227607   0.365   0.091   5.324
 9215TIP3   OH227608   1.483   6.214   0.871
 9215TIP3    H127609   1.542   6.188   0.800
 9215TIP3    H227610   1.443   6.131   0.899
 9216TIP3   OH227611   5.010   5.041   1.093
 9216TIP3    H127612   5.011   4.947   1.108
 9216TIP3    H227613   5.097   5.071   1.119
 9217TIP3   OH227614   2.727   5.940   1.954
 9217TIP3    H127615   2.640   5.913   1.984
 9217TIP3    H227616   2.717   5.955   1.860
 9218TIP3   OH227617   0.456   4.507   5.551
 9218TIP3    H127618   0.467   4.602   5.554
 9218TIP3    H227619   0.399   4.491   5.476
 9219TIP3   OH227620   2.921   2.891   2.184
 9219TIP3    H127621   3.002   2.840   2.178
 9219TIP3    H227622   2.853   2.830   2.155
 9220TIP3   OH227623   4.142   2.116   5.350
 9220TIP3    H127624   4.083   2.045   5.376
 9220TIP3    H227625   4.202   2.076   5.288
 9221TIP3   OH227626   2.847   3.369   0.343
 9221TIP3    H127627   2.828   3.284   0.304
 9221TIP3    H227628   2.804   3.432   0.286
 9222TIP3   OH227629   5.567   3.359   0.119
 9222TIP3    H127630   5.552   3.293   0.187
 9222TIP3    H227631   5.529   3.439   0.155
 9223TIP3   OH227632   4.693   4.680   2.122
 9223TIP3    H127633   4.757   4.730   2.071
 9223TIP3    H227634   4.727   4.683   2.212
 9224TIP3   OH227635   3.169   0.973   0.588
 9224TIP3    H127636   3.204   0.886   0.607
 9224TIP3    H227637   3.154   1.013   0.673
 9225TIP3   OH227638   5.062   0.492   4.924
 9225TIP3    H127639   5.008   0.569   4.941
 9225TIP3    H227640   5.000   0.420   4.914
 9226TIP3   OH227641   6.464   2.215   5.864
 9226TIP3    H127642   6.383   2.216   5.915
 9226TIP3    H227643   6.438   2.249   5.778
 9227TIP3   OH227644   4.573   6.641   1.002
 9227TIP3    H127645   4.478   6.654   1.006
 9227TIP3    H227646   4.606   6.678   1.083
 9228TIP3   OH227647   0.900   0.816   0.955
 9228TIP3    H127648   0.856   0.816   0.870
 9228TIP3    H227649   0.858   0.745   1.004
 9229TIP3   OH227650   5.805   6.456   3.477
 9229TIP3    H127651   5.858   6.518   3.528
 9229TIP3    H227652   5.799   6.497   3.390
 9230TIP3   OH227653   4.468   1.329   5.657
 9230TIP3    H127654   4.423   1.349   5.739
 9230TIP3    H227655   4.403   1.281   5.605
 9231TIP3   OH227656   6.416   6.062   5.808
 9231TIP3    H127657   6.358   6.076   5.733
 9231TIP3    H227658   6.500   6.036   5.768
 9232TIP3   OH227659   5.082   4.764   4.650
 9232TIP3    H127660   5.001   4.797   4.609
 9232TIP3    H227661   5.091   4.675   4.616
 9233TIP3   OH227662   1.058   2.496   2.904
 9233TIP3    H127663   1.147   2.464   2.918
 9233TIP3    H227664   1.013   2.423   2.862
 9234TIP3   OH227665   6.396   4.831   2.057
 9234TIP3    H127666   6.417   4.905   2.000
 9234TIP3    H227667   6.454   4.760   2.027
 9235TIP3   OH227668   0.037   4.189   2.548
 9235TIP3    H127669   0.031   4.229   2.635
 9235TIP3    H227670   0.127   4.157   2.542
 9236TIP3   OH227671   2.199   0.142   1.844
 9236TIP3    H127672   2.288   0.148   1.878
 9236TIP3    H227673   2.148   0.202   1.899
 9237TIP3   OH227674   0.697   0.760   5.139
 9237TIP3    H127675   0.698   0.786   5.231
 9237TIP3    H227676   0.609   0.724   5.125
 9238TIP3   OH227677   1.133   1.139   2.088
 9238TIP3    H127678   1.218   1.121   2.127
 9238TIP3    H227679   1.143   1.115   1.995
 9239TIP3   OH227680   4.950   2.253   4.907
 9239TIP3    H127681   4.863   2.227   4.938
 9239TIP3    H227682   4.935   2.282   4.817
 9240TIP3   OH227683   3.478   0.622   2.156
 9240TIP3    H127684   3.422   0.553   2.120
 9240TIP3    H227685   3.549   0.575   2.200
 9241TIP3   OH227686   4.307   0.824   1.835
 9241TIP3    H127687   4.252   0.811   1.759
 9241TIP3    H227688   4.335   0.735   1.860
 9242TIP3   OH227689   6.977   5.056   2.495
 9242TIP3    H127690   6.897   5.006   2.515
 9242TIP3    H227691   6.949   5.147   2.495
 9243TIP3   OH227692   4.295   3.378   2.989
 9243TIP3    H127693   4.208   3.417   3.002
 9243TIP3    H227694   4.293   3.297   3.038
 9244TIP3   OH227695   3.704   0.147   5.725
 9244TIP3    H127696   3.637   0.110   5.668
 9244TIP3    H227697   3.770   0.181   5.665
 9245TIP3   OH227698   3.032   2.806   5.126
 9245TIP3    H127699   3.046   2.716   5.153
 9245TIP3    H227700   2.955   2.835   5.175
 9246TIP3   OH227701   4.178   3.854   3.389
 9246TIP3    H127702   4.217   3.902   3.462
 9246TIP3    H227703   4.129   3.919   3.339
 9247TIP3   OH227704   0.724   3.804   5.391
 9247TIP3    H127705   0.787   3.792   5.320
 9247TIP3    H227706   0.775   3.840   5.463
 9248TIP3   OH227707   5.500   5.286   1.593
 9248TIP3    H127708   5.589   5.302   1.562
 9248TIP3    H227709   5.512   5.251   1.682
 9249TIP3   OH227710   2.867   1.064   5.734
 9249TIP3    H127711   2.775   1.038   5.735
 9249TIP3    H227712   2.874   1.127   5.662
 9250TIP3   OH227713   5.820   2.855   2.047
 9250TIP3    H127714   5.882   2.878   2.116
 9250TIP3    H227715   5.808   2.760   2.057
 9251TIP3   OH227716   2.945   3.235   5.647
 9251TIP3    H127717   2.941   3.180   5.725
 9251TIP3    H227718   2.857   3.233   5.611
 9252TIP3   OH227719   0.684   3.181   0.649
 9252TIP3    H127720   0.656   3.118   0.583
 9252TIP3    H227721   0.764   3.220   0.613
 9253TIP3   OH227722   6.991   3.385   1.607
 9253TIP3    H127723   6.994   3.329   1.684
 9253TIP3    H227724   7.010   3.473   1.640
 9254TIP3   OH227725   6.184   3.424   3.734
 9254TIP3    H127726   6.138   3.404   3.653
 9254TIP3    H227727   6.119   3.411   3.803
 9255TIP3   OH227728   4.899   2.083   3.094
 9255TIP3    H127729   4.963   2.118   3.156
 9255TIP3    H227730   4.817   2.127   3.116
 9256TIP3   OH227731   3.290   5.030   0.479
 9256TIP3    H127732   3.297   4.942   0.442
 9256TIP3    H227733   3.288   5.088   0.404
 9257TIP3   OH227734   0.029   2.562   2.500
 9257TIP3    H127735  -0.066   2.556   2.508
 9257TIP3    H227736   0.052   2.641   2.546
 9258TIP3   OH227737   3.391   1.980   0.985
 9258TIP3    H127738   3.307   1.937   1.006
 9258TIP3    H227739   3.391   2.059   1.038
 9259TIP3   OH227740   4.501   3.862   0.741
 9259TIP3    H127741   4.416   3.881   0.781
 9259TIP3    H227742   4.540   3.948   0.725
 9260TIP3   OH227743   1.486   4.058   3.263
 9260TIP3    H127744   1.466   4.029   3.174
 9260TIP3    H227745   1.575   4.026   3.279
 9261TIP3   OH227746   4.293   6.601   4.963
 9261TIP3    H127747   4.342   6.656   5.025
 9261TIP3    H227748   4.360   6.565   4.905
 9262TIP3   OH227749   4.197   2.990   1.322
 9262TIP3    H127750   4.236   3.039   1.249
 9262TIP3    H227751   4.160   2.911   1.282
 9263TIP3   OH227752   2.736   5.031   1.814
 9263TIP3    H127753   2.719   5.124   1.797
 9263TIP3    H227754   2.812   5.031   1.872
 9264TIP3   OH227755   0.651   6.081   5.124
 9264TIP3    H127756   0.710   6.116   5.191
 9264TIP3    H227757   0.672   6.131   5.045
 9265TIP3   OH227758   2.021   5.442   2.137
 9265TIP3    H127759   2.074   5.468   2.212
 9265TIP3    H227760   1.938   5.488   2.150
 9266TIP3   OH227761   3.417   1.474   3.524
 9266TIP3    H127762   3.438   1.565   3.546
 9266TIP3    H227763   3.424   1.471   3.428
 9267TIP3   OH227764   3.977   0.873   1.373
 9267TIP3    H127765   3.911   0.861   1.441
 9267TIP3    H227766   3.934   0.927   1.307
 9268TIP3   OH227767   6.990   6.618   1.224
 9268TIP3    H127768   6.935   6.542   1.205
 9268TIP3    H227769   6.980   6.632   1.318
 9269TIP3   OH227770   5.980   2.473   4.868
 9269TIP3    H127771   6.064   2.443   4.903
 9269TIP3    H227772   6.001   2.558   4.828
 9270TIP3   OH227773   1.821   2.357   3.195
 9270TIP3    H127774   1.849   2.446   3.214
 9270TIP3    H227775   1.762   2.365   3.120
 9271TIP3   OH227776   3.329   4.201   3.881
 9271TIP3    H127777   3.236   4.218   3.863
 9271TIP3    H227778   3.329   4.161   3.968
 9272TIP3   OH227779   2.520   4.813   5.558
 9272TIP3    H127780   2.477   4.836   5.641
 9272TIP3    H227781   2.512   4.892   5.505
 9273TIP3   OH227782   3.006   4.673   5.874
 9273TIP3    H127783   3.060   4.732   5.926
 9273TIP3    H227784   3.066   4.635   5.810
 9274TIP3   OH227785   1.569   6.059   5.840
 9274TIP3    H127786   1.560   6.017   5.754
 9274TIP3    H227787   1.543   6.150   5.826
 9275TIP3   OH227788   1.943   6.708   1.762
 9275TIP3    H127789   2.027   6.679   1.726
 9275TIP3    H227790   1.964   6.733   1.852
 9276TIP3   OH227791   5.018   6.642   3.586
 9276TIP3    H127792   4.945   6.601   3.632
 9276TIP3    H227793   4.983   6.723   3.552
 9277TIP3   OH227794   5.125   0.328   5.181
 9277TIP3    H127795   5.181   0.252   5.170
 9277TIP3    H227796   5.131   0.374   5.097
 9278TIP3   OH227797   6.819   2.987   1.178
 9278TIP3    H127798   6.813   2.898   1.143
 9278TIP3    H227799   6.755   2.989   1.250
 9279TIP3   OH227800   3.467   1.161   3.264
 9279TIP3    H127801   3.469   1.083   3.208
 9279TIP3    H227802   3.417   1.134   3.341
 9280TIP3   OH227803   5.300   5.867   5.679
 9280TIP3    H127804   5.351   5.789   5.658
 9280TIP3    H227805   5.214   5.850   5.641
 9281TIP3   OH227806   1.961   5.988   5.400
 9281TIP3    H127807   1.887   6.046   5.422
 9281TIP3    H227808   1.940   5.953   5.314
 9282TIP3   OH227809   6.190   1.903   4.075
 9282TIP3    H127810   6.266   1.941   4.030
 9282TIP3    H227811   6.164   1.829   4.021
 9283TIP3   OH227812   3.670   6.717   1.196
 9283TIP3    H127813   3.592   6.669   1.222
 9283TIP3    H227814   3.735   6.649   1.178
 9284TIP3   OH227815   6.120   4.879   3.495
 9284TIP3    H127816   6.030   4.862   3.467
 9284TIP3    H227817   6.166   4.901   3.414
 9285TIP3   OH227818   1.710   1.517   2.340
 9285TIP3    H127819   1.684   1.571   2.415
 9285TIP3    H227820   1.806   1.513   2.346
 9286TIP3   OH227821   5.886   2.145   3.805
 9286TIP3    H127822   5.833   2.094   3.745
 9286TIP3    H227823   5.836   2.226   3.818
 9287TIP3   OH227824   6.035   5.866   2.450
 9287TIP3    H127825   5.996   5.936   2.398
 9287TIP3    H227826   5.971   5.850   2.520
 9288TIP3   OH227827   6.795   3.790   1.234
 9288TIP3    H127828   6.795   3.885   1.226
 9288TIP3    H227829   6.726   3.761   1.174
 9289TIP3   OH227830   5.285   1.790   3.412
 9289TIP3    H127831   5.222   1.836   3.357
 9289TIP3    H227832   5.341   1.859   3.447
 9290TIP3   OH227833   2.717   1.575   3.331
 9290TIP3    H127834   2.785   1.642   3.328
 9290TIP3    H227835   2.758   1.501   3.375
 9291TIP3   OH227836   1.940   1.923   2.984
 9291TIP3    H127837   1.886   2.001   2.974
 9291TIP3    H227838   1.911   1.864   2.915
 9292TIP3   OH227839   5.535   0.549   4.629
 9292TIP3    H127840   5.539   0.607   4.552
 9292TIP3    H227841   5.481   0.596   4.692
 9293TIP3   OH227842   4.276   4.817   0.335
 9293TIP3    H127843   4.275   4.750   0.402
 9293TIP3    H227844   4.189   4.811   0.294
 9294TIP3   OH227845   6.686   6.636   4.367
 9294TIP3    H127846   6.640   6.630   4.451
 9294TIP3    H227847   6.743   6.560   4.365
 9295TIP3   OH227848   5.357   3.934   5.327
 9295TIP3    H127849   5.452   3.944   5.316
 9295TIP3    H227850   5.339   3.970   5.414
 9296TIP3   OH227851   1.452   6.608   5.399
 9296TIP3    H127852   1.504   6.639   5.473
 9296TIP3    H227853   1.471   6.514   5.395
 9297TIP3   OH227854   3.352   2.660   4.601
 9297TIP3    H127855   3.284   2.727   4.601
 9297TIP3    H227856   3.371   2.645   4.509
 9298TIP3   OH227857   6.965   1.292   3.208
 9298TIP3    H127858   7.019   1.368   3.229
 9298TIP3    H227859   6.905   1.323   3.140
 9299TIP3   OH227860   4.984   6.074   3.306
 9299TIP3    H127861   5.007   6.065   3.398
 9299TIP3    H227862   4.890   6.096   3.307
 9300TIP3   OH227863   1.057   0.727   3.446
 9300TIP3    H127864   1.053   0.646   3.396
 9300TIP3    H227865   1.150   0.740   3.464
 9301TIP3   OH227866   0.305   0.509   1.280
 9301TIP3    H127867   0.395   0.543   1.285
 9301TIP3    H227868   0.257   0.575   1.230
 9302TIP3   OH227869   6.678   0.746   4.117
 9302TIP3    H127870   6.645   0.702   4.196
 9302TIP3    H227871   6.678   0.839   4.140
 9303TIP3   OH227872   1.251   4.129   5.170
 9303TIP3    H127873   1.240   4.164   5.082
 9303TIP3    H227874   1.339   4.091   5.170
 9304TIP3   OH227875   6.188   1.575   2.391
 9304TIP3    H127876   6.106   1.623   2.396
 9304TIP3    H227877   6.163   1.489   2.357
 9305TIP3   OH227878   2.391   2.161   2.992
 9305TIP3    H127879   2.444   2.168   3.072
 9305TIP3    H227880   2.315   2.109   3.017
 9306TIP3   OH227881   5.836   3.755   3.164
 9306TIP3    H127882   5.845   3.685   3.100
 9306TIP3    H227883   5.762   3.807   3.132
 9307TIP3   OH227884   3.955   3.052   5.285
 9307TIP3    H127885   3.860   3.056   5.296
 9307TIP3    H227886   3.990   3.053   5.374
 9308TIP3   OH227887   5.189   3.156   2.937
 9308TIP3    H127888   5.197   3.245   2.972
 9308TIP3    H227889   5.099   3.152   2.904
 9309TIP3   OH227890   6.299   1.587   2.914
 9309TIP3    H127891   6.394   1.589   2.912
 9309TIP3    H227892   6.275   1.515   2.855
 9310TIP3   OH227893   3.375   3.045   1.158
 9310TIP3    H127894   3.432   3.021   1.085
 9310TIP3    H227895   3.333   2.963   1.183
 9311TIP3   OH227896   6.865   0.034   0.136
 9311TIP3    H127897   6.936   0.096   0.125
 9311TIP3    H227898   6.792   0.085   0.171
 9312TIP3   OH227899   5.997   2.403   3.959
 9312TIP3    H127900   5.980   2.482   3.908
 9312TIP3    H227901   6.051   2.349   3.902
 9313TIP3   OH227902   6.471   0.521   5.118
 9313TIP3    H127903   6.406   0.458   5.088
 9313TIP3    H227904   6.554   0.485   5.086
 9314TIP3   OH227905   6.346   1.330   5.801
 9314TIP3    H127906   6.381   1.252   5.845
 9314TIP3    H227907   6.403   1.401   5.830
 9315TIP3   OH227908   5.517   5.662   4.073
 9315TIP3    H127909   5.573   5.726   4.118
 9315TIP3    H227910   5.576   5.591   4.048
 9316TIP3   OH227911   5.228   6.196   1.642
 9316TIP3    H127912   5.274   6.276   1.666
 9316TIP3    H227913   5.283   6.155   1.575
 9317TIP3   OH227914   5.127   3.521   0.611
 9317TIP3    H127915   5.109   3.430   0.636
 9317TIP3    H227916   5.109   3.571   0.690
 9318TIP3   OH227917   2.625   2.328   5.138
 9318TIP3    H127918   2.680   2.349   5.062
 9318TIP3    H227919   2.536   2.337   5.106
 9319TIP3   OH227920   0.927   2.819   5.387
 9319TIP3    H127921   0.888   2.736   5.361
 9319TIP3    H227922   0.876   2.885   5.341
 9320TIP3   OH227923   0.747   0.113   5.124
 9320TIP3    H127924   0.695   0.193   5.118
 9320TIP3    H227925   0.793   0.120   5.207
 9321TIP3   OH227926   2.203   6.318   0.042
 9321TIP3    H127927   2.278   6.375   0.023
 9321TIP3    H227928   2.230   6.268   0.119
 9322TIP3   OH227929   5.263   5.782   3.154
 9322TIP3    H127930   5.310   5.743   3.228
 9322TIP3    H227931   5.317   5.761   3.078
 9323TIP3   OH227932   2.923   4.017   0.699
 9323TIP3    H127933   2.918   3.946   0.635
 9323TIP3    H227934   2.860   3.993   0.767
 9324TIP3   OH227935   4.542   6.167   4.123
 9324TIP3    H127936   4.491   6.158   4.203
 9324TIP3    H227937   4.497   6.235   4.073
 9325TIP3   OH227938   4.025   3.996   5.056
 9325TIP3    H127939   3.949   4.054   5.063
 9325TIP3    H227940   3.988   3.909   5.040
 9326TIP3   OH227941   3.536   4.117   0.673
 9326TIP3    H127942   3.571   4.184   0.615
 9326TIP3    H227943   3.448   4.146   0.693
 9327TIP3   OH227944   2.397   2.122   4.936
 9327TIP3    H127945   2.420   2.213   4.918
 9327TIP3    H227946   2.457   2.071   4.881
 9328TIP3   OH227947   3.854   0.021   1.481
 9328TIP3    H127948   3.828  -0.043   1.415
 9328TIP3    H227949   3.815  -0.012   1.562
 9329TIP3   OH227950   6.090   5.633   0.221
 9329TIP3    H127951   6.169   5.587   0.251
 9329TIP3    H227952   6.124   5.713   0.181
 9330TIP3   OH227953   3.059   6.134   2.655
 9330TIP3    H127954   2.971   6.165   2.634
 9330TIP3    H227955   3.117   6.198   2.614
 9331TIP3   OH227956   6.022   0.811   0.575
 9331TIP3    H127957   6.115   0.799   0.554
 9331TIP3    H227958   5.997   0.893   0.532
 9332TIP3   OH227959   1.553   3.400   5.154
 9332TIP3    H127960   1.499   3.336   5.200
 9332TIP3    H227961   1.500   3.428   5.080
 9333TIP3   OH227962   5.523   0.032   3.558
 9333TIP3    H127963   5.489   0.053   3.645
 9333TIP3    H227964   5.492  -0.056   3.540
 9334TIP3   OH227965   1.894   1.855   2.450
 9334TIP3    H127966   1.892   1.795   2.375
 9334TIP3    H227967   1.857   1.937   2.415
 9335TIP3   OH227968   2.555   5.552   5.508
 9335TIP3    H127969   2.591   5.463   5.512
 9335TIP3    H227970   2.484   5.546   5.445
 9336TIP3   OH227971   2.258   3.816   0.394
 9336TIP3    H127972   2.266   3.735   0.342
 9336TIP3    H227973   2.173   3.808   0.437
 9337TIP3   OH227974   1.528   2.404   4.594
 9337TIP3    H127975   1.469   2.329   4.591
 9337TIP3    H227976   1.470   2.480   4.592
 9338TIP3   OH227977   3.436   6.594   1.659
 9338TIP3    H127978   3.366   6.549   1.707
 9338TIP3    H227979   3.486   6.523   1.619
 9339TIP3   OH227980   6.130   4.896   5.311
 9339TIP3    H127981   6.213   4.919   5.353
 9339TIP3    H227982   6.116   4.804   5.334
 9340TIP3   OH227983   1.009   4.628   2.015
 9340TIP3    H127984   0.915   4.613   2.027
 9340TIP3    H227985   1.038   4.670   2.096
 9341TIP3   OH227986   5.308   1.358   5.443
 9341TIP3    H127987   5.317   1.292   5.374
 9341TIP3    H227988   5.247   1.423   5.406
 9342TIP3   OH227989   0.479   0.546   3.200
 9342TIP3    H127990   0.522   0.622   3.160
 9342TIP3    H227991   0.407   0.582   3.251
 9343TIP3   OH227992   0.956   0.521   4.787
 9343TIP3    H127993   0.961   0.453   4.854
 9343TIP3    H227994   0.931   0.600   4.835
 9344TIP3   OH227995   3.701   6.141   4.949
 9344TIP3    H127996   3.773   6.178   5.001
 9344TIP3    H227997   3.669   6.216   4.898
 9345TIP3   OH227998   4.443   1.191   1.183
 9345TIP3    H127999   4.444   1.184   1.087
 9345TIP3    H228000   4.366   1.244   1.202
 9346TIP3   OH228001   2.123   4.758   3.016
 9346TIP3    H128002   2.208   4.762   2.972
 9346TIP3    H228003   2.130   4.821   3.088
 9347TIP3   OH228004   0.338   5.895   4.553
 9347TIP3    H128005   0.393   5.973   4.544
 9347TIP3    H228006   0.280   5.915   4.626
 9348TIP3   OH228007   1.971   3.775   3.906
 9348TIP3    H128008   2.035   3.727   3.958
 9348TIP3    H228009   1.907   3.807   3.969
 9349TIP3   OH228010   0.525   2.112   5.184
 9349TIP3    H128011   0.430   2.104   5.177
 9349TIP3    H228012   0.552   2.151   5.101
 9350TIP3   OH228013   1.831   1.242   1.311
 9350TIP3    H128014   1.739   1.215   1.311
 9350TIP3    H228015   1.849   1.265   1.220
 9351TIP3   OH228016   2.777   6.044   0.172
 9351TIP3    H128017   2.800   6.129   0.134
 9351TIP3    H228018   2.829   5.981   0.123
 9352TIP3   OH228019   1.059   1.675   3.870
 9352TIP3    H128020   1.008   1.688   3.950
 9352TIP3    H228021   1.082   1.582   3.871
 9353TIP3   OH228022   5.399   1.291   3.810
 9353TIP3    H128023   5.381   1.343   3.732
 9353TIP3    H228024   5.405   1.201   3.779
 9354TIP3   OH228025   4.209   4.544   5.820
 9354TIP3    H128026   4.154   4.555   5.743
 9354TIP3    H228027   4.289   4.504   5.787
 9355TIP3   OH228028   4.151   1.652   4.438
 9355TIP3    H128029   4.076   1.657   4.379
 9355TIP3    H228030   4.157   1.559   4.460
 9356TIP3   OH228031   6.211   0.231   5.485
 9356TIP3    H128032   6.178   0.252   5.573
 9356TIP3    H228033   6.183   0.305   5.431
 9357TIP3   OH228034   0.239   5.532   3.491
 9357TIP3    H128035   0.230   5.590   3.415
 9357TIP3    H228036   0.278   5.452   3.456
 9358TIP3   OH228037   2.335   1.729   5.121
 9358TIP3    H128038   2.335   1.735   5.026
 9358TIP3    H228039   2.244   1.744   5.146
 9359TIP3   OH228040   6.464   1.073   5.594
 9359TIP3    H128041   6.441   1.109   5.509
 9359TIP3    H228042   6.383   1.034   5.626
 9360TIP3   OH228043   2.876   1.213   3.385
 9360TIP3    H128044   2.917   1.136   3.426
 9360TIP3    H228045   2.889   1.283   3.448
 9361TIP3   OH228046   5.591   0.263   2.157
 9361TIP3    H128047   5.655   0.299   2.219
 9361TIP3    H228048   5.641   0.204   2.102
 9362TIP3   OH228049   7.177   2.970   1.450
 9362TIP3    H128050   7.189   2.939   1.539
 9362TIP3    H228051   7.253   2.937   1.402
 9363TIP3   OH228052   6.442   4.993   3.137
 9363TIP3    H128053   6.471   4.993   3.045
 9363TIP3    H228054   6.359   5.041   3.136
 9364TIP3   OH228055   6.077   5.142   2.687
 9364TIP3    H128056   6.125   5.214   2.726
 9364TIP3    H228057   6.086   5.155   2.592
 9365TIP3   OH228058   3.042   6.727   0.216
 9365TIP3    H128059   2.956   6.698   0.186
 9365TIP3    H228060   3.069   6.661   0.279
 9366TIP3   OH228061   2.754   6.337   0.811
 9366TIP3    H128062   2.831   6.313   0.863
 9366TIP3    H228063   2.715   6.410   0.859
 9367TIP3   OH228064   3.152   1.390   1.917
 9367TIP3    H128065   3.130   1.481   1.901
 9367TIP3    H228066   3.093   1.340   1.861
 9368TIP3   OH228067   6.372   5.067   1.406
 9368TIP3    H128068   6.309   5.004   1.371
 9368TIP3    H228069   6.448   5.014   1.430
 9369TIP3   OH228070   3.719   5.991   0.650
 9369TIP3    H128071   3.733   6.084   0.633
 9369TIP3    H228072   3.754   5.978   0.738
 9370TIP3   OH228073   0.432   2.337   0.323
 9370TIP3    H128074   0.347   2.305   0.354
 9370TIP3    H228075   0.411   2.417   0.275
 9371TIP3   OH228076   2.136   2.044   3.871
 9371TIP3    H128077   2.049   2.033   3.834
 9371TIP3    H228078   2.124   2.106   3.943
 9372TIP3   OH228079   5.162   5.273   0.452
 9372TIP3    H128080   5.201   5.355   0.482
 9372TIP3    H228081   5.067   5.286   0.462
 9373TIP3   OH228082   2.585   4.162   5.205
 9373TIP3    H128083   2.589   4.086   5.147
 9373TIP3    H228084   2.675   4.176   5.233
 9374TIP3   OH228085   5.690   6.136   2.221
 9374TIP3    H128086   5.604   6.147   2.181
 9374TIP3    H228087   5.709   6.042   2.212
 9375TIP3   OH228088   6.947   4.031   5.190
 9375TIP3    H128089   6.889   3.965   5.228
 9375TIP3    H228090   6.967   3.998   5.103
 9376TIP3   OH228091   5.659   0.781   5.438
 9376TIP3    H128092   5.603   0.858   5.440
 9376TIP3    H228093   5.618   0.723   5.373
 9377TIP3   OH228094   3.230   4.509   1.137
 9377TIP3    H128095   3.156   4.452   1.119
 9377TIP3    H228096   3.220   4.533   1.229
 9378TIP3   OH228097   5.621   6.417   1.860
 9378TIP3    H128098   5.658   6.490   1.909
 9378TIP3    H228099   5.680   6.406   1.785
 9379TIP3   OH228100   1.181   0.345   3.061
 9379TIP3    H128101   1.116   0.406   3.096
 9379TIP3    H228102   1.226   0.311   3.138
 9380TIP3   OH228103   0.325   4.710   1.243
 9380TIP3    H128104   0.301   4.785   1.188
 9380TIP3    H228105   0.310   4.740   1.332
 9381TIP3   OH228106   4.832   2.735   3.558
 9381TIP3    H128107   4.752   2.686   3.573
 9381TIP3    H228108   4.896   2.668   3.531
 9382TIP3   OH228109   2.961   1.474   3.683
 9382TIP3    H128110   2.902   1.399   3.674
 9382TIP3    H228111   2.947   1.504   3.772
 9383TIP3   OH228112   6.790   2.249   2.610
 9383TIP3    H128113   6.808   2.155   2.611
 9383TIP3    H228114   6.726   2.260   2.540
 9384TIP3   OH228115   1.665   6.429   3.704
 9384TIP3    H128116   1.723   6.415   3.779
 9384TIP3    H228117   1.617   6.509   3.726
 9385TIP3   OH228118   3.053   2.877   4.290
 9385TIP3    H128119   2.994   2.889   4.364
 9385TIP3    H228120   3.030   2.791   4.254
 9386TIP3   OH228121   3.286   1.976   3.009
 9386TIP3    H128122   3.297   2.045   3.075
 9386TIP3    H228123   3.214   1.922   3.042
 9387TIP3   OH228124   3.360   6.416   4.212
 9387TIP3    H128125   3.274   6.394   4.178
 9387TIP3    H228126   3.404   6.460   4.139
 9388TIP3   OH228127   5.536   6.664   1.298
 9388TIP3    H128128   5.522   6.578   1.257
 9388TIP3    H228129   5.628   6.684   1.280
 9389TIP3   OH228130   3.831   3.291   4.232
 9389TIP3    H128131   3.862   3.206   4.262
 9389TIP3    H228132   3.792   3.331   4.310
 9390TIP3   OH228133   6.537   3.444   2.817
 9390TIP3    H128134   6.561   3.360   2.856
 9390TIP3    H228135   6.454   3.428   2.772
 9391TIP3   OH228136   3.390   2.428   3.228
 9391TIP3    H128137   3.364   2.503   3.282
 9391TIP3    H228138   3.446   2.464   3.160
 9392TIP3   OH228139   7.027   3.823   3.651
 9392TIP3    H128140   6.983   3.811   3.735
 9392TIP3    H228141   6.958   3.852   3.592
 9393TIP3   OH228142   6.672   3.990   1.670
 9393TIP3    H128143   6.713   3.970   1.754
 9393TIP3    H228144   6.628   3.909   1.646
 9394TIP3   OH228145   1.046   3.442   2.437
 9394TIP3    H128146   1.048   3.345   2.436
 9394TIP3    H228147   1.113   3.467   2.373
 9395TIP3   OH228148   3.386   0.401   1.897
 9395TIP3    H128149   3.304   0.364   1.928
 9395TIP3    H228150   3.452   0.367   1.957
 9396TIP3   OH228151   6.657   6.352   5.518
 9396TIP3    H128152   6.614   6.437   5.525
 9396TIP3    H228153   6.653   6.316   5.607
 9397TIP3   OH228154   0.567   1.536   3.701
 9397TIP3    H128155   0.486   1.503   3.739
 9397TIP3    H228156   0.582   1.620   3.744
 9398TIP3   OH228157   2.054   1.049   4.798
 9398TIP3    H128158   2.035   0.998   4.877
 9398TIP3    H228159   2.121   0.998   4.752
 9399TIP3   OH228160   6.442   5.705   4.917
 9399TIP3    H128161   6.498   5.751   4.979
 9399TIP3    H228162   6.501   5.644   4.872
 9400TIP3   OH228163   0.188   6.322   3.557
 9400TIP3    H128164   0.199   6.403   3.608
 9400TIP3    H228165   0.094   6.319   3.537
 9401TIP3   OH228166   3.509   6.231   2.066
 9401TIP3    H128167   3.547   6.218   1.979
 9401TIP3    H228168   3.422   6.191   2.061
 9402TIP3   OH228169   2.284   2.104   3.549
 9402TIP3    H128170   2.254   2.188   3.582
 9402TIP3    H228171   2.224   2.040   3.587
 9403TIP3   OH228172   6.012   3.209   5.841
 9403TIP3    H128173   6.026   3.292   5.796
 9403TIP3    H228174   6.025   3.229   5.933
 9404TIP3   OH228175   1.607   4.865   2.609
 9404TIP3    H128176   1.626   4.918   2.532
 9404TIP3    H228177   1.538   4.914   2.655
 9405TIP3   OH228178   2.218   4.192   3.323
 9405TIP3    H128179   2.300   4.234   3.299
 9405TIP3    H228180   2.244   4.106   3.356
 9406TIP3   OH228181   2.651   1.281   5.564
 9406TIP3    H128182   2.627   1.225   5.490
 9406TIP3    H228183   2.607   1.241   5.640
 9407TIP3   OH228184   1.221   6.707   3.783
 9407TIP3    H128185   1.308   6.678   3.809
 9407TIP3    H228186   1.197   6.650   3.710
 9408TIP3   OH228187   0.660   6.602   4.947
 9408TIP3    H128188   0.626   6.655   4.875
 9408TIP3    H228189   0.665   6.662   5.021
 9409TIP3   OH228190   6.258   2.456   5.835
 9409TIP3    H128191   6.257   2.549   5.812
 9409TIP3    H228192   6.303   2.414   5.762
 9410TIP3   OH228193   1.319   3.769   1.417
 9410TIP3    H128194   1.305   3.801   1.328
 9410TIP3    H228195   1.318   3.674   1.409
 9411TIP3   OH228196   1.304   5.586   3.127
 9411TIP3    H128197   1.263   5.615   3.208
 9411TIP3    H228198   1.360   5.512   3.154
 9412TIP3   OH228199   1.732   2.960   5.286
 9412TIP3    H128200   1.653   2.906   5.290
 9412TIP3    H228201   1.786   2.920   5.218
 9413TIP3   OH228202   1.192   2.933   4.117
 9413TIP3    H128203   1.191   2.981   4.200
 9413TIP3    H228204   1.285   2.925   4.095
 9414TIP3   OH228205   0.765   4.970   0.254
 9414TIP3    H128206   0.683   5.012   0.281
 9414TIP3    H228207   0.777   4.898   0.317
 9415TIP3   OH228208   3.925   0.702   2.542
 9415TIP3    H128209   3.884   0.627   2.586
 9415TIP3    H228210   3.871   0.717   2.465
 9416TIP3   OH228211   2.070   2.714   1.000
 9416TIP3    H128212   2.050   2.674   0.915
 9416TIP3    H228213   2.162   2.691   1.015
 9417TIP3   OH228214   1.431   6.346   3.108
 9417TIP3    H128215   1.414   6.408   3.037
 9417TIP3    H228216   1.521   6.317   3.093
 9418TIP3   OH228217   1.554   3.976   4.767
 9418TIP3    H128218   1.629   3.965   4.825
 9418TIP3    H228219   1.572   4.058   4.720
 9419TIP3   OH228220   1.002   4.054   5.285
 9419TIP3    H128221   0.984   4.121   5.351
 9419TIP3    H228222   1.097   4.061   5.269
 9420TIP3   OH228223   0.061   2.763   5.692
 9420TIP3    H128224   0.059   2.716   5.609
 9420TIP3    H228225   0.005   2.711   5.750
 9421TIP3   OH228226   6.562   2.568   3.538
 9421TIP3    H128227   6.580   2.516   3.459
 9421TIP3    H228228   6.590   2.510   3.610
 9422TIP3   OH228229   2.717   3.653   3.446
 9422TIP3    H128230   2.647   3.599   3.411
 9422TIP3    H228231   2.798   3.614   3.411
 9423TIP3   OH228232   4.611   5.304   3.122
 9423TIP3    H128233   4.691   5.254   3.139
 9423TIP3    H228234   4.552   5.277   3.192
 9424TIP3   OH228235   5.192   6.058   3.107
 9424TIP3    H128236   5.129   6.064   3.179
 9424TIP3    H228237   5.229   5.970   3.116
 9425TIP3   OH228238   4.561   0.140   0.062
 9425TIP3    H128239   4.477   0.113   0.099
 9425TIP3    H228240   4.547   0.141  -0.032
 9426TIP3   OH228241   3.104   3.457   1.310
 9426TIP3    H128242   3.184   3.472   1.360
 9426TIP3    H228243   3.135   3.420   1.227
 9427TIP3   OH228244   5.469   3.579   5.694
 9427TIP3    H128245   5.525   3.581   5.616
 9427TIP3    H228246   5.440   3.488   5.701
 9428TIP3   OH228247   4.048   3.820   1.985
 9428TIP3    H128248   4.046   3.868   2.067
 9428TIP3    H228249   3.978   3.859   1.932
 9429TIP3   OH228250   0.364   3.997   2.706
 9429TIP3    H128251   0.423   4.018   2.779
 9429TIP3    H228252   0.414   3.938   2.650
 9430TIP3   OH228253   4.444   5.123   3.614
 9430TIP3    H128254   4.418   5.030   3.611
 9430TIP3    H228255   4.361   5.170   3.624
 9431TIP3   OH228256   1.464   0.763   3.949
 9431TIP3    H128257   1.535   0.730   3.892
 9431TIP3    H228258   1.508   0.820   4.012
 9432TIP3   OH228259   4.590   3.761   2.726
 9432TIP3    H128260   4.601   3.683   2.780
 9432TIP3    H228261   4.668   3.763   2.671
 9433TIP3   OH228262   0.486   5.271   1.791
 9433TIP3    H128263   0.474   5.205   1.722
 9433TIP3    H228264   0.402   5.317   1.795
 9434TIP3   OH228265   0.216   5.894   4.933
 9434TIP3    H128266   0.280   5.846   4.880
 9434TIP3    H228267   0.269   5.939   4.999
 9435TIP3   OH228268   2.066   1.293   5.787
 9435TIP3    H128269   2.061   1.214   5.733
 9435TIP3    H228270   2.116   1.266   5.864
 9436TIP3   OH228271   6.404   3.482   5.428
 9436TIP3    H128272   6.482   3.443   5.465
 9436TIP3    H228273   6.332   3.428   5.461
 9437TIP3   OH228274   3.886   5.732   3.378
 9437TIP3    H128275   3.978   5.725   3.355
 9437TIP3    H228276   3.841   5.673   3.318
 9438TIP3   OH228277   5.345   1.425   2.696
 9438TIP3    H128278   5.308   1.509   2.668
 9438TIP3    H228279   5.297   1.359   2.646
 9439TIP3   OH228280   6.213   2.024   2.859
 9439TIP3    H128281   6.195   2.054   2.770
 9439TIP3    H228282   6.305   2.046   2.873
 9440TIP3   OH228283   1.434   1.290   3.400
 9440TIP3    H128284   1.453   1.220   3.462
 9440TIP3    H228285   1.357   1.333   3.436
 9441TIP3   OH228286   6.208   5.547   1.881
 9441TIP3    H128287   6.251   5.492   1.946
 9441TIP3    H228288   6.156   5.609   1.932
 9442TIP3   OH228289   4.076   2.686   5.136
 9442TIP3    H128290   4.030   2.604   5.121
 9442TIP3    H228291   4.058   2.707   5.228
 9443TIP3   OH228292   2.224   5.210   2.528
 9443TIP3    H128293   2.275   5.291   2.519
 9443TIP3    H228294   2.180   5.219   2.613
 9444TIP3   OH228295   3.007   3.621   5.895
 9444TIP3    H128296   2.926   3.669   5.877
 9444TIP3    H228297   3.049   3.671   5.966
 9445TIP3   OH228298   1.754   0.830   0.680
 9445TIP3    H128299   1.680   0.785   0.639
 9445TIP3    H228300   1.717   0.911   0.716
 9446TIP3   OH228301   6.175   2.237   1.481
 9446TIP3    H128302   6.193   2.272   1.568
 9446TIP3    H228303   6.083   2.260   1.465
 9447TIP3   OH228304   2.552   0.046   0.306
 9447TIP3    H128305   2.590  -0.033   0.267
 9447TIP3    H228306   2.614   0.116   0.285
 9448TIP3   OH228307   1.468   2.812   0.099
 9448TIP3    H128308   1.423   2.729   0.091
 9448TIP3    H228309   1.523   2.803   0.176
 9449TIP3   OH228310   5.725   3.115   4.976
 9449TIP3    H128311   5.755   3.078   5.059
 9449TIP3    H228312   5.724   3.040   4.916
 9450TIP3   OH228313   3.674   6.687   0.080
 9450TIP3    H128314   3.665   6.666   0.173
 9450TIP3    H228315   3.640   6.777   0.072
 9451TIP3   OH228316   6.236   4.343   1.742
 9451TIP3    H128317   6.227   4.308   1.831
 9451TIP3    H228318   6.183   4.284   1.688
 9452TIP3   OH228319   0.111   6.081   0.120
 9452TIP3    H128320   0.128   6.023   0.046
 9452TIP3    H228321   0.059   6.029   0.181
 9453TIP3   OH228322   6.149   2.238   1.182
 9453TIP3    H128323   6.132   2.144   1.170
 9453TIP3    H228324   6.171   2.247   1.274
 9454TIP3   OH228325   2.787   5.875   4.529
 9454TIP3    H128326   2.805   5.877   4.435
 9454TIP3    H228327   2.693   5.858   4.535
 9455TIP3   OH228328   2.982   5.355   1.682
 9455TIP3    H128329   2.976   5.307   1.765
 9455TIP3    H228330   3.069   5.396   1.685
 9456TIP3   OH228331   2.170   0.495   4.394
 9456TIP3    H128332   2.255   0.465   4.361
 9456TIP3    H228333   2.145   0.429   4.458
 9457TIP3   OH228334   6.630   1.553   2.484
 9457TIP3    H128335   6.566   1.558   2.413
 9457TIP3    H228336   6.686   1.630   2.472
 9458TIP3   OH228337   5.540   0.590   4.980
 9458TIP3    H128338   5.520   0.504   4.944
 9458TIP3    H228339   5.576   0.639   4.906
 9459TIP3   OH228340   4.906   4.938   4.109
 9459TIP3    H128341   4.955   4.954   4.029
 9459TIP3    H228342   4.824   4.986   4.097
 9460TIP3   OH228343   3.862   2.660   4.144
 9460TIP3    H128344   3.770   2.663   4.173
 9460TIP3    H228345   3.887   2.752   4.134
 9461TIP3   OH228346   5.965   5.694   1.785
 9461TIP3    H128347   5.886   5.739   1.758
 9461TIP3    H228348   6.023   5.699   1.708
 9462TIP3   OH228349   4.237   5.374   2.095
 9462TIP3    H128350   4.309   5.406   2.148
 9462TIP3    H228351   4.259   5.283   2.076
 9463TIP3   OH228352   1.117   2.674   4.442
 9463TIP3    H128353   1.057   2.709   4.509
 9463TIP3    H228354   1.060   2.628   4.381
 9464TIP3   OH228355   1.539   0.947   5.454
 9464TIP3    H128356   1.520   1.040   5.454
 9464TIP3    H228357   1.474   0.910   5.394
 9465TIP3   OH228358   6.109   3.027   2.458
 9465TIP3    H128359   6.056   3.003   2.534
 9465TIP3    H228360   6.069   3.107   2.425
 9466TIP3   OH228361   3.446   0.386   3.990
 9466TIP3    H128362   3.513   0.446   4.023
 9466TIP3    H228363   3.460   0.384   3.896
 9467TIP3   OH228364   0.683   4.545   4.912
 9467TIP3    H128365   0.610   4.488   4.888
 9467TIP3    H228366   0.643   4.630   4.929
 9468TIP3   OH228367   0.855   6.614   3.922
 9468TIP3    H128368   0.925   6.650   3.976
 9468TIP3    H228369   0.850   6.522   3.947
 9469TIP3   OH228370   6.192   4.988   1.689
 9469TIP3    H128371   6.286   4.972   1.687
 9469TIP3    H228372   6.153   4.902   1.705
 9470TIP3   OH228373   5.226   4.044   2.302
 9470TIP3    H128374   5.165   3.971   2.291
 9470TIP3    H228375   5.264   4.030   2.389
 9471TIP3   OH228376   3.676   6.471   3.061
 9471TIP3    H128377   3.596   6.524   3.062
 9471TIP3    H228378   3.644   6.381   3.059
 9472TIP3   OH228379   6.291   1.322   0.721
 9472TIP3    H128380   6.288   1.263   0.796
 9472TIP3    H228381   6.363   1.289   0.667
 9473TIP3   OH228382   1.548   2.695   4.895
 9473TIP3    H128383   1.599   2.776   4.891
 9473TIP3    H228384   1.459   2.722   4.876
 9474TIP3   OH228385   1.847   0.289   5.775
 9474TIP3    H128386   1.853   0.297   5.680
 9474TIP3    H228387   1.760   0.251   5.790
 9475TIP3   OH228388   3.762   1.045   0.044
 9475TIP3    H128389   3.777   1.001  -0.040
 9475TIP3    H228390   3.831   1.013   0.101
 9476TIP3   OH228391   0.843   1.965   4.730
 9476TIP3    H128392   0.774   2.031   4.741
 9476TIP3    H228393   0.803   1.898   4.674
 9477TIP3   OH228394   6.040   3.376   1.993
 9477TIP3    H128395   6.037   3.470   1.980
 9477TIP3    H228396   5.971   3.342   1.936
 9478TIP3   OH228397   2.388   4.575   4.739
 9478TIP3    H128398   2.312   4.624   4.707
 9478TIP3    H228399   2.373   4.568   4.834
 9479TIP3   OH228400   3.163   5.330   2.084
 9479TIP3    H128401   3.238   5.361   2.134
 9479TIP3    H228402   3.088   5.375   2.124
 9480TIP3   OH228403   1.427   4.895   0.498
 9480TIP3    H128404   1.514   4.897   0.459
 9480TIP3    H228405   1.374   4.843   0.437
 9481TIP3   OH228406   0.668   5.468   4.133
 9481TIP3    H128407   0.623   5.552   4.123
 9481TIP3    H228408   0.759   5.492   4.154
 9482TIP3   OH228409   4.657   2.913   0.019
 9482TIP3    H128410   4.619   2.865   0.092
 9482TIP3    H228411   4.743   2.941   0.050
 9483TIP3   OH228412   5.304   0.060   5.614
 9483TIP3    H128413   5.229   0.091   5.666
 9483TIP3    H228414   5.270   0.056   5.525
 9484TIP3   OH228415   4.188   0.705   0.884
 9484TIP3    H128416   4.174   0.610   0.883
 9484TIP3    H228417   4.123   0.738   0.947
 9485TIP3   OH228418   2.148   2.195   4.096
 9485TIP3    H128419   2.075   2.207   4.157
 9485TIP3    H228420   2.226   2.212   4.148
 9486TIP3   OH228421   3.302   6.071   1.269
 9486TIP3    H128422   3.313   6.013   1.194
 9486TIP3    H228423   3.234   6.133   1.242
 9487TIP3   OH228424   4.492   1.690   3.587
 9487TIP3    H128425   4.532   1.680   3.501
 9487TIP3    H228426   4.530   1.771   3.622
 9488TIP3   OH228427   1.798   3.605   0.744
 9488TIP3    H128428   1.779   3.529   0.689
 9488TIP3    H228429   1.888   3.592   0.772
 9489TIP3   OH228430   3.317   5.134   1.306
 9489TIP3    H128431   3.272   5.151   1.389
 9489TIP3    H228432   3.280   5.051   1.276
 9490TIP3   OH228433   0.664   5.288   1.116
 9490TIP3    H128434   0.674   5.238   1.198
 9490TIP3    H228435   0.751   5.285   1.076
 9491TIP3   OH228436   3.374   0.299   5.692
 9491TIP3    H128437   3.344   0.335   5.609
 9491TIP3    H228438   3.468   0.286   5.681
 9492TIP3   OH228439   4.059   1.346   5.396
 9492TIP3    H128440   4.108   1.276   5.353
 9492TIP3    H228441   4.023   1.305   5.474
 9493TIP3   OH228442   0.463   0.095   0.868
 9493TIP3    H128443   0.380   0.128   0.903
 9493TIP3    H228444   0.485   0.156   0.798
 9494TIP3   OH228445   1.268   2.086   2.254
 9494TIP3    H128446   1.236   2.168   2.216
 9494TIP3    H228447   1.283   2.107   2.346
 9495TIP3   OH228448   5.705   1.264   0.417
 9495TIP3    H128449   5.732   1.347   0.377
 9495TIP3    H228450   5.707   1.201   0.345
 9496TIP3   OH228451   0.983   6.664   3.401
 9496TIP3    H128452   0.927   6.719   3.347
 9496TIP3    H228453   0.945   6.669   3.489
 9497TIP3   OH228454   1.324   2.539   1.820
 9497TIP3    H128455   1.380   2.591   1.762
 9497TIP3    H228456   1.380   2.468   1.851
 9498TIP3   OH228457   3.449   0.117   5.149
 9498TIP3    H128458   3.437   0.212   5.139
 9498TIP3    H228459   3.412   0.097   5.235
 9499TIP3   OH228460   1.864   4.323   3.196
 9499TIP3    H128461   1.921   4.337   3.272
 9499TIP3    H228462   1.898   4.384   3.129
 9500TIP3   OH228463   2.235   6.009   2.337
 9500TIP3    H128464   2.324   6.008   2.301
 9500TIP3    H228465   2.208   5.918   2.338
 9501TIP3   OH228466   2.181   5.621   0.034
 9501TIP3    H128467   2.086   5.630   0.028
 9501TIP3    H228468   2.208   5.686   0.098
 9502TIP3   OH228469   1.014   4.666   1.616
 9502TIP3    H128470   0.920   4.650   1.607
 9502TIP3    H228471   1.030   4.746   1.567
 9503TIP3   OH228472   2.431   3.056   2.145
 9503TIP3    H128473   2.445   3.150   2.159
 9503TIP3    H228474   2.477   3.036   2.063
 9504TIP3   OH228475   1.817   3.476   1.223
 9504TIP3    H128476   1.765   3.515   1.152
 9504TIP3    H228477   1.876   3.415   1.178
 9505TIP3   OH228478   1.021   4.948   3.325
 9505TIP3    H128479   1.034   4.900   3.243
 9505TIP3    H228480   0.979   4.885   3.383
 9506TIP3   OH228481   0.610   1.749   5.637
 9506TIP3    H128482   0.700   1.741   5.667
 9506TIP3    H228483   0.600   1.842   5.614
 9507TIP3   OH228484   2.775   6.519   1.215
 9507TIP3    H128485   2.735   6.587   1.269
 9507TIP3    H228486   2.813   6.457   1.278
 9508TIP3   OH228487   5.182   5.010   1.941
 9508TIP3    H128488   5.223   4.939   1.990
 9508TIP3    H228489   5.209   5.089   1.987
 9509TIP3   OH228490   1.990   2.065   1.385
 9509TIP3    H128491   2.070   2.080   1.435
 9509TIP3    H228492   2.021   2.031   1.301
 9510TIP3   OH228493   2.363   0.329   4.055
 9510TIP3    H128494   2.422   0.306   4.126
 9510TIP3    H228495   2.294   0.263   4.059
 9511TIP3   OH228496   1.946   6.674   2.229
 9511TIP3    H128497   2.003   6.627   2.290
 9511TIP3    H228498   2.005   6.703   2.159
 9512TIP3   OH228499   2.707   3.943   0.984
 9512TIP3    H128500   2.676   4.032   0.999
 9512TIP3    H228501   2.760   3.922   1.061
 9513TIP3   OH228502   7.213   6.378   5.101
 9513TIP3    H128503   7.175   6.291   5.112
 9513TIP3    H228504   7.243   6.380   5.010
 9514TIP3   OH228505   1.431   3.707   4.767
 9514TIP3    H128506   1.453   3.800   4.756
 9514TIP3    H228507   1.341   3.699   4.736
 9515TIP3   OH228508   4.611   1.282   1.381
 9515TIP3    H128509   4.698   1.243   1.379
 9515TIP3    H228510   4.560   1.232   1.317
 9516TIP3   OH228511   2.793   0.865   0.790
 9516TIP3    H128512   2.846   0.789   0.812
 9516TIP3    H228513   2.753   0.891   0.873
 9517TIP3   OH228514   3.406   4.221   1.285
 9517TIP3    H128515   3.389   4.127   1.283
 9517TIP3    H228516   3.460   4.234   1.363
 9518TIP3   OH228517   1.307   0.842   3.540
 9518TIP3    H128518   1.257   0.906   3.488
 9518TIP3    H228519   1.370   0.805   3.478
 9519TIP3   OH228520   4.277   1.383   1.612
 9519TIP3    H128521   4.368   1.380   1.641
 9519TIP3    H228522   4.263   1.299   1.568
 9520TIP3   OH228523   2.092   6.717   5.640
 9520TIP3    H128524   2.109   6.658   5.713
 9520TIP3    H228525   2.077   6.802   5.682
 9521TIP3   OH228526   5.504   6.194   2.451
 9521TIP3    H128527   5.534   6.123   2.508
 9521TIP3    H228528   5.554   6.183   2.370
 9522TIP3   OH228529   1.461   1.614   4.149
 9522TIP3    H128530   1.397   1.552   4.113
 9522TIP3    H228531   1.475   1.677   4.079
 9523TIP3   OH228532   3.902   0.519   2.126
 9523TIP3    H128533   3.881   0.443   2.072
 9523TIP3    H228534   3.844   0.588   2.093
 9524TIP3   OH228535   3.921   5.664   1.643
 9524TIP3    H128536   3.954   5.677   1.732
 9524TIP3    H228537   4.000   5.647   1.591
 9525TIP3   OH228538   1.067   1.057   1.274
 9525TIP3    H128539   1.093   0.982   1.328
 9525TIP3    H228540   0.979   1.034   1.242
 9526TIP3   OH228541   3.242   6.185   5.252
 9526TIP3    H128542   3.197   6.231   5.181
 9526TIP3    H228543   3.306   6.130   5.208
 9527TIP3   OH228544   3.991   3.154   2.153
 9527TIP3    H128545   3.923   3.161   2.086
 9527TIP3    H228546   3.943   3.126   2.231
 9528TIP3   OH228547   4.841   6.777   5.352
 9528TIP3    H128548   4.860   6.701   5.297
 9528TIP3    H228549   4.925   6.821   5.363
 9529TIP3   OH228550   1.262   0.618   1.196
 9529TIP3    H128551   1.346   0.657   1.172
 9529TIP3    H228552   1.263   0.532   1.153
 9530TIP3   OH228553   3.399   0.989   3.705
 9530TIP3    H128554   3.421   1.049   3.777
 9530TIP3    H228555   3.393   0.903   3.748
 9531TIP3   OH228556   3.056   4.680   2.751
 9531TIP3    H128557   3.081   4.766   2.786
 9531TIP3    H228558   3.112   4.669   2.674
 9532TIP3   OH228559   4.251   4.900   1.198
 9532TIP3    H128560   4.226   4.900   1.291
 9532TIP3    H228561   4.293   4.985   1.184
 9533TIP3   OH228562   6.303   1.149   0.953
 9533TIP3    H128563   6.229   1.173   1.009
 9533TIP3    H228564   6.326   1.061   0.981
 9534TIP3   OH228565   4.066   0.095   2.636
 9534TIP3    H128566   3.982   0.098   2.681
 9534TIP3    H228567   4.069   0.178   2.588
 9535TIP3   OH228568   3.069   3.444   4.956
 9535TIP3    H128569   2.991   3.488   4.991
 9535TIP3    H228570   3.082   3.369   5.014
 9536TIP3   OH228571   5.635   3.424   0.512
 9536TIP3    H128572   5.729   3.410   0.500
 9536TIP3    H228573   5.628   3.516   0.535
 9537TIP3   OH228574   1.761   6.044   1.868
 9537TIP3    H128575   1.851   6.068   1.848
 9537TIP3    H228576   1.767   5.952   1.893
 9538TIP3   OH228577   4.942   1.435   2.756
 9538TIP3    H128578   4.970   1.351   2.720
 9538TIP3    H228579   4.951   1.424   2.851
 9539TIP3   OH228580   4.721   5.238   0.107
 9539TIP3    H128581   4.703   5.311   0.047
 9539TIP3    H228582   4.646   5.238   0.167
 9540TIP3   OH228583   0.267   5.497   2.647
 9540TIP3    H128584   0.190   5.496   2.590
 9540TIP3    H228585   0.295   5.588   2.648
 9541TIP3   OH228586   2.368   0.258   0.882
 9541TIP3    H128587   2.374   0.163   0.894
 9541TIP3    H228588   2.396   0.294   0.966
 9542TIP3   OH228589   5.425   2.643   4.681
 9542TIP3    H128590   5.474   2.608   4.607
 9542TIP3    H228591   5.374   2.716   4.643
 9543TIP3   OH228592   0.728   4.484   4.538
 9543TIP3    H128593   0.633   4.478   4.549
 9543TIP3    H228594   0.740   4.524   4.452
 9544TIP3   OH228595   3.626   3.683   5.038
 9544TIP3    H128596   3.551   3.624   5.036
 9544TIP3    H228597   3.698   3.629   5.069
 9545TIP3   OH228598   6.281   0.063   2.573
 9545TIP3    H128599   6.259   0.110   2.492
 9545TIP3    H228600   6.292   0.133   2.638
 9546TIP3   OH228601   1.788   6.306   4.712
 9546TIP3    H128602   1.831   6.272   4.633
 9546TIP3    H228603   1.860   6.317   4.774
 9547TIP3   OH228604   1.110   2.223   1.173
 9547TIP3    H128605   1.101   2.183   1.087
 9547TIP3    H228606   1.024   2.263   1.191
 9548TIP3   OH228607   6.255   3.718   5.346
 9548TIP3    H128608   6.214   3.687   5.265
 9548TIP3    H228609   6.282   3.639   5.392
 9549TIP3   OH228610   6.070   3.741   0.612
 9549TIP3    H128611   6.144   3.799   0.629
 9549TIP3    H228612   6.094   3.658   0.652
 9550TIP3   OH228613   0.824   5.813   0.321
 9550TIP3    H128614   0.916   5.813   0.294
 9550TIP3    H228615   0.815   5.734   0.375
 9551TIP3   OH228616   5.131   2.051   4.874
 9551TIP3    H128617   5.144   2.045   4.780
 9551TIP3    H228618   5.096   2.139   4.888
 9552TIP3   OH228619   2.324   0.460   4.866
 9552TIP3    H128620   2.384   0.533   4.850
 9552TIP3    H228621   2.340   0.399   4.794
 9553TIP3   OH228622   1.351   3.270   0.989
 9553TIP3    H128623   1.446   3.266   0.979
 9553TIP3    H228624   1.326   3.352   0.945
 9554TIP3   OH228625   3.838   1.311   3.847
 9554TIP3    H128626   3.891   1.387   3.870
 9554TIP3    H228627   3.768   1.346   3.793
 9555TIP3   OH228628   0.258   4.127   4.913
 9555TIP3    H128629   0.329   4.104   4.853
 9555TIP3    H228630   0.198   4.180   4.860
 9556TIP3   OH228631   4.220   1.716   3.873
 9556TIP3    H128632   4.290   1.662   3.909
 9556TIP3    H228633   4.183   1.761   3.948
 9557TIP3   OH228634   3.842   0.795   4.717
 9557TIP3    H128635   3.891   0.715   4.735
 9557TIP3    H228636   3.874   0.824   4.632
 9558TIP3   OH228637   2.909   3.927   1.174
 9558TIP3    H128638   2.951   3.869   1.237
 9558TIP3    H228639   2.981   3.966   1.125
 9559TIP3   OH228640   2.513   5.055   2.229
 9559TIP3    H128641   2.528   4.969   2.190
 9559TIP3    H228642   2.420   5.071   2.217
 9560TIP3   OH228643   2.103   1.133   1.013
 9560TIP3    H128644   2.106   1.227   0.995
 9560TIP3    H228645   2.015   1.118   1.049
 9561TIP3   OH228646   0.255   4.671   4.087
 9561TIP3    H128647   0.262   4.636   4.176
 9561TIP3    H228648   0.161   4.684   4.073
 9562TIP3   OH228649   5.151   1.523   5.061
 9562TIP3    H128650   5.232   1.521   5.010
 9562TIP3    H228651   5.113   1.609   5.045
 9563TIP3   OH228652   1.479   6.200   3.664
 9563TIP3    H128653   1.440   6.222   3.748
 9563TIP3    H228654   1.556   6.258   3.657
 9564TIP3   OH228655   4.254   4.181   5.308
 9564TIP3    H128656   4.327   4.142   5.259
 9564TIP3    H228657   4.238   4.265   5.265
 9565TIP3   OH228658   3.810   2.122   4.728
 9565TIP3    H128659   3.742   2.076   4.777
 9565TIP3    H228660   3.867   2.159   4.795
 9566TIP3   OH228661   1.585   3.810   3.613
 9566TIP3    H128662   1.647   3.881   3.633
 9566TIP3    H228663   1.505   3.855   3.588
 9567TIP3   OH228664   6.086   0.442   5.359
 9567TIP3    H128665   6.032   0.445   5.280
 9567TIP3    H228666   6.058   0.519   5.409
 9568TIP3   OH228667   0.500   0.828   3.075
 9568TIP3    H128668   0.582   0.825   3.025
 9568TIP3    H228669   0.449   0.898   3.034
 9569TIP3   OH228670   6.587   2.185   1.706
 9569TIP3    H128671   6.610   2.278   1.709
 9569TIP3    H228672   6.546   2.174   1.620
 9570TIP3   OH228673   6.469   3.351   1.106
 9570TIP3    H128674   6.546   3.295   1.111
 9570TIP3    H228675   6.448   3.357   1.013
 9571TIP3   OH228676   5.921   3.252   1.316
 9571TIP3    H128677   6.009   3.231   1.288
 9571TIP3    H228678   5.876   3.281   1.237
 9572TIP3   OH228679   2.270   5.670   1.962
 9572TIP3    H128680   2.346   5.613   1.976
 9572TIP3    H228681   2.225   5.671   2.046
 9573TIP3   OH228682   3.568   5.163   0.465
 9573TIP3    H128683   3.499   5.114   0.420
 9573TIP3    H228684   3.554   5.254   0.439
 9574TIP3   OH228685   6.216   2.343   4.101
 9574TIP3    H128686   6.132   2.381   4.074
 9574TIP3    H228687   6.254   2.408   4.161
 9575TIP3   OH228688   0.258   1.317   5.315
 9575TIP3    H128689   0.332   1.285   5.365
 9575TIP3    H228690   0.297   1.374   5.248
 9576TIP3   OH228691   4.187   3.689   0.966
 9576TIP3    H128692   4.160   3.694   1.057
 9576TIP3    H228693   4.174   3.597   0.942
 9577TIP3   OH228694   3.730   5.719   0.258
 9577TIP3    H128695   3.823   5.714   0.279
 9577TIP3    H228696   3.719   5.658   0.185
 9578TIP3   OH228697   4.035   4.450   1.290
 9578TIP3    H128698   4.068   4.506   1.360
 9578TIP3    H228699   4.091   4.372   1.294
 9579TIP3   OH228700   0.096   5.182   2.064
 9579TIP3    H128701   0.012   5.158   2.023
 9579TIP3    H228702   0.103   5.277   2.049
 9580TIP3   OH228703   3.152   3.920   3.681
 9580TIP3    H128704   3.196   3.869   3.613
 9580TIP3    H228705   3.101   3.985   3.632
 9581TIP3   OH228706   3.423   4.044   2.864
 9581TIP3    H128707   3.454   4.126   2.826
 9581TIP3    H228708   3.472   3.976   2.818
 9582TIP3   OH228709   0.246   4.667   4.377
 9582TIP3    H128710   0.288   4.693   4.459
 9582TIP3    H228711   0.165   4.624   4.405
 9583TIP3   OH228712   0.842   2.869   4.396
 9583TIP3    H128713   0.845   2.929   4.471
 9583TIP3    H228714   0.817   2.785   4.434
 9584TIP3   OH228715   1.041   1.212   3.691
 9584TIP3    H128716   0.994   1.226   3.609
 9584TIP3    H228717   0.977   1.173   3.750
 9585TIP3   OH228718   4.842   2.513   1.466
 9585TIP3    H128719   4.779   2.499   1.395
 9585TIP3    H228720   4.802   2.470   1.541
 9586TIP3   OH228721   5.472   4.501   3.196
 9586TIP3    H128722   5.506   4.428   3.249
 9586TIP3    H228723   5.396   4.532   3.245
 9587TIP3   OH228724   4.470   0.299   0.993
 9587TIP3    H128725   4.507   0.384   1.021
 9587TIP3    H228726   4.502   0.237   1.057
 9588TIP3   OH228727   0.798   0.060   3.116
 9588TIP3    H128728   0.792   0.050   3.021
 9588TIP3    H228729   0.726   0.120   3.139
 9589TIP3   OH228730   2.469   2.039   1.907
 9589TIP3    H128731   2.470   2.066   1.999
 9589TIP3    H228732   2.446   1.946   1.910
 9590TIP3   OH228733   2.018   5.429   0.325
 9590TIP3    H128734   1.950   5.380   0.280
 9590TIP3    H228735   1.975   5.510   0.353
 9591TIP3   OH228736   4.013   3.429   3.382
 9591TIP3    H128737   3.980   3.516   3.364
 9591TIP3    H228738   4.102   3.444   3.414
 9592TIP3   OH228739   5.884   1.870   1.417
 9592TIP3    H128740   5.842   1.956   1.427
 9592TIP3    H228741   5.978   1.889   1.422
 9593TIP3   OH228742   3.166   6.036   4.446
 9593TIP3    H128743   3.163   6.056   4.352
 9593TIP3    H228744   3.259   6.025   4.465
 9594TIP3   OH228745   5.718   2.336   3.218
 9594TIP3    H128746   5.656   2.342   3.146
 9594TIP3    H228747   5.738   2.243   3.225
 9595TIP3   OH228748   0.906   1.237   1.666
 9595TIP3    H128749   0.885   1.239   1.573
 9595TIP3    H228750   0.896   1.145   1.691
 9596TIP3   OH228751   3.711   6.172   0.139
 9596TIP3    H128752   3.673   6.252   0.175
 9596TIP3    H228753   3.636   6.123   0.106
 9597TIP3   OH228754   4.026   2.614   0.874
 9597TIP3    H128755   4.067   2.569   0.948
 9597TIP3    H228756   4.086   2.687   0.854
 9598TIP3   OH228757   5.216   1.947   1.938
 9598TIP3    H128758   5.148   1.910   1.994
 9598TIP3    H228759   5.237   1.877   1.876
 9599TIP3   OH228760   1.083   6.280   0.693
 9599TIP3    H128761   1.164   6.329   0.707
 9599TIP3    H228762   1.112   6.196   0.658
 9600TIP3   OH228763   1.308   5.531   0.586
 9600TIP3    H128764   1.380   5.528   0.523
 9600TIP3    H228765   1.264   5.614   0.569
 9601TIP3   OH228766   3.546   2.641   4.827
 9601TIP3    H128767   3.486   2.663   4.756
 9601TIP3    H228768   3.584   2.725   4.853
 9602TIP3   OH228769   2.635   5.726   3.937
 9602TIP3    H128770   2.631   5.682   3.852
 9602TIP3    H228771   2.550   5.770   3.945
 9603TIP3   OH228772   5.321   1.613   0.407
 9603TIP3    H128773   5.386   1.627   0.476
 9603TIP3    H228774   5.335   1.523   0.379
 9604TIP3   OH228775   5.084   2.341   3.894
 9604TIP3    H128776   5.074   2.431   3.923
 9604TIP3    H228777   5.179   2.326   3.892
 9605TIP3   OH228778   0.672   6.588   4.233
 9605TIP3    H128779   0.650   6.629   4.316
 9605TIP3    H228780   0.591   6.589   4.183
 9606TIP3   OH228781   7.032   2.068   2.631
 9606TIP3    H128782   7.047   2.155   2.667
 9606TIP3    H228783   7.071   2.071   2.544
 9607TIP3   OH228784   6.392   0.308   0.956
 9607TIP3    H128785   6.349   0.231   0.994
 9607TIP3    H228786   6.320   0.365   0.931
 9608TIP3   OH228787   0.677   4.862   5.255
 9608TIP3    H128788   0.643   4.948   5.282
 9608TIP3    H228789   0.725   4.831   5.331
 9609TIP3   OH228790   2.094   4.544   5.489
 9609TIP3    H128791   2.143   4.615   5.447
 9609TIP3    H228792   2.150   4.515   5.561
 9610TIP3   OH228793   2.610   2.209   3.586
 9610TIP3    H128794   2.519   2.193   3.563
 9610TIP3    H228795   2.607   2.237   3.678
 9611TIP3   OH228796   1.724   5.038   5.437
 9611TIP3    H128797   1.752   5.002   5.521
 9611TIP3    H228798   1.712   5.131   5.453
 9612TIP3   OH228799   7.035   1.217   4.478
 9612TIP3    H128800   7.021   1.254   4.565
 9612TIP3    H228801   6.964   1.253   4.424
 9613TIP3   OH228802   2.510   1.698   1.358
 9613TIP3    H128803   2.487   1.761   1.290
 9613TIP3    H228804   2.599   1.720   1.382
 9614TIP3   OH228805   5.420   4.792   0.202
 9614TIP3    H128806   5.325   4.803   0.204
 9614TIP3    H228807   5.436   4.739   0.124
 9615TIP3   OH228808   5.909   5.341   2.404
 9615TIP3    H128809   5.888   5.299   2.320
 9615TIP3    H228810   5.992   5.300   2.430
 9616TIP3   OH228811   5.961   4.591   1.912
 9616TIP3    H128812   5.971   4.613   2.005
 9616TIP3    H228813   6.047   4.609   1.873
 9617TIP3   OH228814   2.296   5.184   4.680
 9617TIP3    H128815   2.245   5.168   4.759
 9617TIP3    H228816   2.327   5.274   4.689
 9618TIP3   OH228817   0.425   6.586   4.134
 9618TIP3    H128818   0.367   6.651   4.173
 9618TIP3    H228819   0.443   6.620   4.046
 9619TIP3   OH228820   1.310   1.702   1.242
 9619TIP3    H128821   1.324   1.714   1.336
 9619TIP3    H228822   1.254   1.625   1.236
 9620TIP3   OH228823   3.536   1.723   0.794
 9620TIP3    H128824   3.605   1.723   0.861
 9620TIP3    H228825   3.560   1.795   0.735
 9621TIP3   OH228826   4.698   1.800   0.195
 9621TIP3    H128827   4.773   1.857   0.210
 9621TIP3    H228828   4.721   1.718   0.239
 9622TIP3   OH228829   6.821   1.313   4.627
 9622TIP3    H128830   6.795   1.406   4.626
 9622TIP3    H228831   6.738   1.265   4.617
 9623TIP3   OH228832   2.073   0.584   3.150
 9623TIP3    H128833   2.034   0.575   3.063
 9623TIP3    H228834   2.048   0.672   3.178
 9624TIP3   OH228835   3.899   3.318   3.601
 9624TIP3    H128836   3.962   3.350   3.536
 9624TIP3    H228837   3.923   3.362   3.682
 9625TIP3   OH228838   3.614   0.361   3.725
 9625TIP3    H128839   3.621   0.443   3.677
 9625TIP3    H228840   3.651   0.295   3.666
 9626TIP3   OH228841   6.740   4.150   5.060
 9626TIP3    H128842   6.663   4.138   5.115
 9626TIP3    H228843   6.814   4.153   5.121
 9627TIP3   OH228844   1.945   0.431   2.641
 9627TIP3    H128845   1.944   0.347   2.686
 9627TIP3    H228846   2.033   0.437   2.604
 9628TIP3   OH228847   1.796   4.158   2.821
 9628TIP3    H128848   1.832   4.245   2.837
 9628TIP3    H228849   1.772   4.158   2.729
 9629TIP3   OH228850   2.641   2.021   5.437
 9629TIP3    H128851   2.592   1.971   5.371
 9629TIP3    H228852   2.699   2.077   5.386
 9630TIP3   OH228853   6.149   5.543   4.721
 9630TIP3    H128854   6.227   5.543   4.667
 9630TIP3    H228855   6.116   5.454   4.716
 9631TIP3   OH228856   5.382   0.041   3.252
 9631TIP3    H128857   5.391   0.125   3.297
 9631TIP3    H228858   5.445  -0.017   3.295
 9632TIP3   OH228859   6.660   1.690   1.190
 9632TIP3    H128860   6.722   1.638   1.140
 9632TIP3    H228861   6.669   1.660   1.280
 9633TIP3   OH228862   1.903   3.355   2.290
 9633TIP3    H128863   1.915   3.308   2.208
 9633TIP3    H228864   1.846   3.428   2.268
 9634TIP3   OH228865   2.373   1.554   1.100
 9634TIP3    H128866   2.391   1.647   1.113
 9634TIP3    H228867   2.347   1.523   1.187
 9635TIP3   OH228868   4.138   0.960   3.008
 9635TIP3    H128869   4.229   0.991   3.006
 9635TIP3    H228870   4.092   1.016   2.946
 9636TIP3   OH228871   0.056   2.237   5.607
 9636TIP3    H128872   0.019   2.171   5.666
 9636TIP3    H228873  -0.008   2.244   5.536
 9637TIP3   OH228874   2.347   1.364   4.667
 9637TIP3    H128875   2.334   1.275   4.700
 9637TIP3    H228876   2.267   1.410   4.690
 9638TIP3   OH228877   6.300   5.260   1.018
 9638TIP3    H128878   6.340   5.278   1.103
 9638TIP3    H228879   6.375   5.247   0.959
 9639TIP3   OH228880   2.067   3.074   2.928
 9639TIP3    H128881   2.154   3.112   2.937
 9639TIP3    H228882   2.073   2.990   2.975
 9640TIP3   OH228883   2.138   1.636   3.191
 9640TIP3    H128884   2.090   1.585   3.125
 9640TIP3    H228885   2.084   1.713   3.206
 9641TIP3   OH228886   5.527   3.140   3.803
 9641TIP3    H128887   5.535   3.233   3.820
 9641TIP3    H228888   5.609   3.102   3.835
 9642TIP3   OH228889   6.583   3.227   3.200
 9642TIP3    H128890   6.646   3.274   3.254
 9642TIP3    H228891   6.498   3.261   3.227
 9643TIP3   OH228892   0.177   4.479   0.395
 9643TIP3    H128893   0.212   4.440   0.316
 9643TIP3    H228894   0.149   4.567   0.368
 9644TIP3   OH228895   6.994   3.464   5.260
 9644TIP3    H128896   6.987   3.381   5.306
 9644TIP3    H228897   6.982   3.530   5.328
 9645TIP3   OH228898   4.148   4.066   1.755
 9645TIP3    H128899   4.180   4.076   1.665
 9645TIP3    H228900   4.225   4.038   1.804
 9646TIP3   OH228901   3.489   4.990   5.373
 9646TIP3    H128902   3.550   5.057   5.404
 9646TIP3    H228903   3.507   4.984   5.279
 9647TIP3   OH228904   5.221   1.023   1.710
 9647TIP3    H128905   5.315   1.039   1.718
 9647TIP3    H228906   5.181   1.110   1.717
 9648TIP3   OH228907   0.233   1.912   3.127
 9648TIP3    H128908   0.203   1.832   3.171
 9648TIP3    H228909   0.326   1.918   3.149
 9649TIP3   OH228910   3.956   2.581   3.511
 9649TIP3    H128911   4.034   2.615   3.469
 9649TIP3    H228912   3.940   2.497   3.468
 9650TIP3   OH228913   6.402   3.548   1.467
 9650TIP3    H128914   6.348   3.561   1.546
 9650TIP3    H228915   6.386   3.457   1.442
 9651TIP3   OH228916   4.262   4.511   4.030
 9651TIP3    H128917   4.304   4.438   4.075
 9651TIP3    H228918   4.321   4.533   3.959
 9652TIP3   OH228919   4.380   4.250   4.097
 9652TIP3    H128920   4.431   4.222   4.173
 9652TIP3    H228921   4.437   4.234   4.022
 9653TIP3   OH228922   2.700   5.950   2.357
 9653TIP3    H128923   2.685   5.921   2.447
 9653TIP3    H228924   2.777   6.007   2.363
 9654TIP3   OH228925   4.836   3.676   2.853
 9654TIP3    H128926   4.914   3.677   2.798
 9654TIP3    H228927   4.830   3.585   2.882
 9655TIP3   OH228928   3.878   3.980   3.614
 9655TIP3    H128929   3.881   3.901   3.668
 9655TIP3    H228930   3.881   3.948   3.524
 9656TIP3   OH228931   1.137   1.072   3.432
 9656TIP3    H128932   1.060   1.058   3.377
 9656TIP3    H228933   1.173   1.156   3.402
 9657TIP3   OH228934   6.445   1.148   4.320
 9657TIP3    H128935   6.432   1.188   4.234
 9657TIP3    H228936   6.359   1.115   4.344
 9658TIP3   OH228937   5.106   3.847   5.835
 9658TIP3    H128938   5.196   3.874   5.818
 9658TIP3    H228939   5.103   3.754   5.811
 9659TIP3   OH228940   1.712   1.138   4.928
 9659TIP3    H128941   1.624   1.153   4.893
 9659TIP3    H228942   1.739   1.054   4.891
 9660TIP3   OH228943   0.114   1.350   1.164
 9660TIP3    H128944   0.095   1.417   1.230
 9660TIP3    H228945   0.146   1.275   1.215
 9661TIP3   OH228946   7.135   1.796   5.264
 9661TIP3    H128947   7.061   1.799   5.324
 9661TIP3    H228948   7.097   1.814   5.178
 9662TIP3   OH228949   3.343   2.869   4.816
 9662TIP3    H128950   3.362   2.913   4.733
 9662TIP3    H228951   3.425   2.872   4.865
 9663TIP3   OH228952   0.648   2.232   0.434
 9663TIP3    H128953   0.567   2.280   0.417
 9663TIP3    H228954   0.697   2.289   0.494
 9664TIP3   OH228955   0.451   6.763   5.299
 9664TIP3    H128956   0.378   6.795   5.351
 9664TIP3    H228957   0.420   6.680   5.262
 9665TIP3   OH228958   4.125   3.626   4.655
 9665TIP3    H128959   4.157   3.671   4.733
 9665TIP3    H228960   4.203   3.586   4.617
 9666TIP3   OH228961   0.026   3.073   3.655
 9666TIP3    H128962   0.059   3.068   3.745
 9666TIP3    H228963   0.071   3.148   3.617
 9667TIP3   OH228964   1.172   0.379   5.533
 9667TIP3    H128965   1.095   0.374   5.476
 9667TIP3    H228966   1.156   0.457   5.587
 9668TIP3   OH228967   2.866   4.124   2.386
 9668TIP3    H128968   2.875   4.153   2.477
 9668TIP3    H228969   2.872   4.028   2.391
 9669TIP3   OH228970   2.445   5.801   5.530
 9669TIP3    H128971   2.383   5.782   5.600
 9669TIP3    H228972   2.500   5.722   5.525
 9670TIP3   OH228973   4.730   0.734   2.752
 9670TIP3    H128974   4.699   0.763   2.837
 9670TIP3    H228975   4.781   0.655   2.771
 9671TIP3   OH228976   6.996   6.773   2.636
 9671TIP3    H128977   6.987   6.760   2.542
 9671TIP3    H228978   6.942   6.703   2.675
 9672TIP3   OH228979   3.197   3.212   3.745
 9672TIP3    H128980   3.190   3.296   3.790
 9672TIP3    H228981   3.109   3.195   3.712
 9673TIP3   OH228982   5.766   4.476   3.077
 9673TIP3    H128983   5.719   4.505   2.998
 9673TIP3    H228984   5.699   4.430   3.129
 9674TIP3   OH228985   6.908   0.098   5.708
 9674TIP3    H128986   6.948   0.125   5.790
 9674TIP3    H228987   6.981   0.068   5.654
 9675TIP3   OH228988   4.460   0.188   0.717
 9675TIP3    H128989   4.495   0.228   0.796
 9675TIP3    H228990   4.367   0.178   0.735
 9676TIP3   OH228991   2.430   5.038   0.762
 9676TIP3    H128992   2.519   5.073   0.774
 9676TIP3    H228993   2.409   5.056   0.671
 9677TIP3   OH228994   0.809   4.520   5.875
 9677TIP3    H128995   0.773   4.471   5.800
 9677TIP3    H228996   0.767   4.480   5.951
 9678TIP3   OH228997   6.428   4.794   4.808
 9678TIP3    H128998   6.428   4.832   4.719
 9678TIP3    H228999   6.392   4.863   4.863
 9679TIP3   OH229000   5.432   2.874   0.469
 9679TIP3    H129001   5.514   2.870   0.419
 9679TIP3    H229002   5.422   2.785   0.504
 9680TIP3   OH229003   0.217   1.705   3.536
 9680TIP3    H129004   0.134   1.708   3.490
 9680TIP3    H229005   0.281   1.738   3.473
 9681TIP3   OH229006   2.959   2.688   2.640
 9681TIP3    H129007   2.873   2.684   2.599
 9681TIP3    H229008   3.018   2.650   2.575
 9682TIP3   OH229009   4.755   0.485   2.088
 9682TIP3    H129010   4.821   0.418   2.106
 9682TIP3    H229011   4.799   0.568   2.107
 9683TIP3   OH229012   2.856   2.913   4.471
 9683TIP3    H129013   2.794   2.854   4.514
 9683TIP3    H229014   2.810   2.997   4.468
 9684TIP3   OH229015   0.481   2.708   5.562
 9684TIP3    H129016   0.447   2.629   5.604
 9684TIP3    H229017   0.453   2.779   5.620
 9685TIP3   OH229018   6.065   2.714   4.756
 9685TIP3    H129019   6.038   2.729   4.666
 9685TIP3    H229020   6.020   2.781   4.807
 9686TIP3   OH229021   5.851   1.805   0.862
 9686TIP3    H129022   5.841   1.840   0.951
 9686TIP3    H229023   5.812   1.873   0.806
 9687TIP3   OH229024   4.774   2.294   4.148
 9687TIP3    H129025   4.733   2.263   4.067
 9687TIP3    H229026   4.700   2.321   4.203
 9688TIP3   OH229027   3.137   3.478   5.679
 9688TIP3    H129028   3.075   3.406   5.668
 9688TIP3    H229029   3.106   3.524   5.757
 9689TIP3   OH229030   1.193   1.049   1.810
 9689TIP3    H129031   1.186   0.955   1.803
 9689TIP3    H229032   1.143   1.084   1.736
 9690TIP3   OH229033   2.211   5.368   1.868
 9690TIP3    H129034   2.174   5.293   1.822
 9690TIP3    H229035   2.274   5.406   1.806
 9691TIP3   OH229036   5.376   4.219   4.931
 9691TIP3    H129037   5.310   4.272   4.887
 9691TIP3    H229038   5.374   4.249   5.022
 9692TIP3   OH229039   2.760   1.227   1.923
 9692TIP3    H129040   2.750   1.170   2.000
 9692TIP3    H229041   2.718   1.178   1.852
 9693TIP3   OH229042   6.401   5.396   0.731
 9693TIP3    H129043   6.481   5.398   0.678
 9693TIP3    H229044   6.331   5.418   0.670
 9694TIP3   OH229045   4.517   1.710   4.982
 9694TIP3    H129046   4.503   1.665   5.066
 9694TIP3    H229047   4.576   1.782   5.003
 9695TIP3   OH229048   3.280   5.085   0.196
 9695TIP3    H129049   3.325   5.169   0.179
 9695TIP3    H229050   3.328   5.022   0.142
 9696TIP3   OH229051   2.439   6.261   0.378
 9696TIP3    H129052   2.449   6.314   0.457
 9696TIP3    H229053   2.510   6.290   0.320
 9697TIP3   OH229054   2.079   6.565   3.062
 9697TIP3    H129055   2.004   6.585   3.006
 9697TIP3    H229056   2.042   6.562   3.150
 9698TIP3   OH229057   2.626   5.304   5.779
 9698TIP3    H129058   2.679   5.356   5.840
 9698TIP3    H229059   2.639   5.214   5.807
 9699TIP3   OH229060   0.748   2.988   2.642
 9699TIP3    H129061   0.695   2.935   2.582
 9699TIP3    H229062   0.829   2.938   2.653
 9700TIP3   OH229063   2.120   5.786   4.087
 9700TIP3    H129064   2.063   5.803   4.012
 9700TIP3    H229065   2.163   5.703   4.066
 9701TIP3   OH229066   0.294   2.037   4.309
 9701TIP3    H129067   0.325   2.117   4.351
 9701TIP3    H229068   0.359   2.019   4.241
 9702TIP3   OH229069   3.163   4.712   4.295
 9702TIP3    H129070   3.258   4.703   4.305
 9702TIP3    H229071   3.139   4.651   4.226
 9703TIP3   OH229072   1.418   0.799   4.894
 9703TIP3    H129073   1.354   0.731   4.876
 9703TIP3    H229074   1.502   0.754   4.894
 9704TIP3   OH229075   5.788   4.104   4.039
 9704TIP3    H129076   5.879   4.113   4.012
 9704TIP3    H229077   5.746   4.185   4.011
 9705TIP3   OH229078   2.471   3.334   2.129
 9705TIP3    H129079   2.462   3.365   2.219
 9705TIP3    H229080   2.565   3.323   2.117
 9706TIP3   OH229081   4.176   4.083   4.196
 9706TIP3    H129082   4.234   4.061   4.268
 9706TIP3    H229083   4.197   4.175   4.175
 9707TIP3   OH229084   1.343   4.370   2.498
 9707TIP3    H129085   1.409   4.361   2.429
 9707TIP3    H229086   1.375   4.441   2.553
 9708TIP3   OH229087   3.975   6.218   2.597
 9708TIP3    H129088   3.962   6.197   2.504
 9708TIP3    H229089   4.050   6.165   2.623
 9709TIP3   OH229090   5.445   4.425   1.800
 9709TIP3    H129091   5.384   4.352   1.786
 9709TIP3    H229092   5.532   4.385   1.791
 9710TIP3   OH229093   6.613   5.958   3.813
 9710TIP3    H129094   6.689   5.928   3.861
 9710TIP3    H229095   6.586   5.882   3.760
 9711TIP3   OH229096   0.731   4.269   4.767
 9711TIP3    H129097   0.698   4.354   4.738
 9711TIP3    H229098   0.763   4.227   4.687
 9712TIP3   OH229099   6.619   1.479   5.287
 9712TIP3    H129100   6.667   1.396   5.287
 9712TIP3    H229101   6.601   1.497   5.379
 9713TIP3   OH229102   4.604   3.584   4.026
 9713TIP3    H129103   4.672   3.518   4.037
 9713TIP3    H229104   4.561   3.560   3.944
 9714TIP3   OH229105   3.407   3.969   5.727
 9714TIP3    H129106   3.439   3.899   5.670
 9714TIP3    H229107   3.438   4.049   5.686
 9715TIP3   OH229108   4.579   5.785   0.384
 9715TIP3    H129109   4.568   5.690   0.390
 9715TIP3    H229110   4.492   5.820   0.401
 9716TIP3   OH229111   4.626   4.549   5.011
 9716TIP3    H129112   4.717   4.521   5.014
 9716TIP3    H229113   4.622   4.626   5.068
 9717TIP3   OH229114   1.373   0.770   2.517
 9717TIP3    H129115   1.410   0.702   2.573
 9717TIP3    H229116   1.297   0.802   2.565
 9718TIP3   OH229117   1.701   4.062   4.495
 9718TIP3    H129118   1.691   4.133   4.431
 9718TIP3    H229119   1.748   4.101   4.568
 9719TIP3   OH229120   1.133   3.829   5.892
 9719TIP3    H129121   1.100   3.869   5.811
 9719TIP3    H229122   1.212   3.878   5.913
 9720TIP3   OH229123   3.471   1.396   1.822
 9720TIP3    H129124   3.471   1.469   1.760
 9720TIP3    H229125   3.552   1.349   1.803
 9721TIP3   OH229126   3.100   0.301   3.802
 9721TIP3    H129127   3.148   0.341   3.729
 9721TIP3    H229128   3.058   0.375   3.846
 9722TIP3   OH229129   0.057   4.229   4.751
 9722TIP3    H129130   0.031   4.313   4.713
 9722TIP3    H229131  -0.025   4.192   4.785
 9723TIP3   OH229132   1.951   3.572   5.074
 9723TIP3    H129133   1.920   3.503   5.133
 9723TIP3    H229134   1.888   3.644   5.086
 9724TIP3   OH229135   6.081   0.848   2.088
 9724TIP3    H129136   6.141   0.899   2.033
 9724TIP3    H229137   6.036   0.913   2.141
 9725TIP3   OH229138   3.315   2.201   4.674
 9725TIP3    H129139   3.405   2.187   4.644
 9725TIP3    H229140   3.317   2.286   4.717
 9726TIP3   OH229141   3.295   1.870   4.668
 9726TIP3    H129142   3.253   1.827   4.593
 9726TIP3    H229143   3.283   1.964   4.651
 9727TIP3   OH229144   2.920   3.107   3.966
 9727TIP3    H129145   2.840   3.091   3.916
 9727TIP3    H229146   2.974   3.030   3.949
 9728TIP3   OH229147   2.992   1.892   3.785
 9728TIP3    H129148   3.002   1.818   3.843
 9728TIP3    H229149   2.899   1.915   3.790
 9729TIP3   OH229150   4.835   4.027   1.401
 9729TIP3    H129151   4.882   4.104   1.434
 9729TIP3    H229152   4.743   4.055   1.396
 9730TIP3   OH229153   3.404   1.474   3.216
 9730TIP3    H129154   3.401   1.557   3.263
 9730TIP3    H229155   3.480   1.481   3.158
 9731TIP3   OH229156   3.568   3.316   5.124
 9731TIP3    H129157   3.600   3.269   5.047
 9731TIP3    H229158   3.473   3.300   5.124
 9732TIP3   OH229159   0.122   5.665   3.711
 9732TIP3    H129160   0.161   5.622   3.635
 9732TIP3    H229161   0.035   5.692   3.682
 9733TIP3   OH229162   6.052   1.045   0.458
 9733TIP3    H129163   6.138   1.074   0.426
 9733TIP3    H229164   6.024   1.115   0.516
 9734TIP3   OH229165   4.740   2.681   0.789
 9734TIP3    H129166   4.811   2.745   0.777
 9734TIP3    H229167   4.675   2.727   0.842
 9735TIP3   OH229168   1.789   2.128   3.657
 9735TIP3    H129169   1.789   2.205   3.714
 9735TIP3    H229170   1.729   2.151   3.586
 9736TIP3   OH229171   2.900   2.025   0.125
 9736TIP3    H129172   2.889   2.052   0.216
 9736TIP3    H229173   2.995   2.011   0.116
 9737TIP3   OH229174   2.938   6.580   2.041
 9737TIP3    H129175   2.871   6.594   2.108
 9737TIP3    H229176   2.892   6.532   1.972
 9738TIP3   OH229177   1.761   5.816   2.041
 9738TIP3    H129178   1.754   5.721   2.052
 9738TIP3    H229179   1.794   5.847   2.125
 9739TIP3   OH229180   4.913   5.587   0.003
 9739TIP3    H129181   4.852   5.557   0.071
 9739TIP3    H229182   4.992   5.535   0.019
 9740TIP3   OH229183   6.960   6.206   3.204
 9740TIP3    H129184   7.049   6.198   3.171
 9740TIP3    H229185   6.956   6.143   3.276
 9741TIP3   OH229186   0.926   1.493   5.727
 9741TIP3    H129187   0.989   1.543   5.674
 9741TIP3    H229188   0.946   1.517   5.817
 9742TIP3   OH229189   2.534   3.518   1.077
 9742TIP3    H129190   2.471   3.589   1.065
 9742TIP3    H229191   2.615   3.562   1.102
 9743TIP3   OH229192   0.714   0.717   2.920
 9743TIP3    H129193   0.750   0.628   2.927
 9743TIP3    H229194   0.653   0.712   2.847
 9744TIP3   OH229195   4.525   1.318   4.471
 9744TIP3    H129196   4.508   1.408   4.498
 9744TIP3    H229197   4.544   1.272   4.553
 9745TIP3   OH229198   0.145   2.701   1.545
 9745TIP3    H129199   0.236   2.724   1.562
 9745TIP3    H229200   0.094   2.765   1.595
 9746TIP3   OH229201   5.494   3.896   0.088
 9746TIP3    H129202   5.492   3.974   0.142
 9746TIP3    H229203   5.586   3.871   0.084
 9747TIP3   OH229204   4.218   1.277   0.736
 9747TIP3    H129205   4.282   1.212   0.767
 9747TIP3    H229206   4.271   1.339   0.685
 9748TIP3   OH229207   3.466   2.444   2.346
 9748TIP3    H129208   3.540   2.485   2.391
 9748TIP3    H229209   3.458   2.493   2.264
 9749TIP3   OH229210   5.064   2.257   0.910
 9749TIP3    H129211   5.064   2.283   1.002
 9749TIP3    H229212   5.005   2.182   0.907
   7.22429   6.81113   5.89860   0.00000   0.00000  -2.40810   0.00000  -2.40810  -3.40556
