Title
29212
    1ASP      N    1   2.137   2.572   1.868  0.4476  0.2079  0.4909
    1ASP    HT1    2   2.129   2.584   1.971 -1.9876  0.8740  0.2824
    1ASP    HT2    3   2.228   2.614   1.839  1.0292 -1.2277  0.1847
    1ASP    HT3    4   2.128   2.472   1.842 -2.6506  0.7366 -0.8652
    1ASP     CA    5   2.026   2.640   1.801 -0.1082 -0.3652 -0.8603
    1ASP     HA    6   2.063   2.741   1.789  1.9475 -0.8721  0.6860
    1ASP     CB    7   2.023   2.579   1.663  0.0116 -0.0239  0.5487
    1ASP    HB1    8   1.968   2.483   1.660 -1.6020  0.8926 -1.8623
    1ASP    HB2    9   2.125   2.552   1.629  0.3390 -1.7452  2.6750
    1ASP     CG   10   1.961   2.666   1.556 -1.0753 -0.0852 -0.0642
    1ASP    OD1   11   1.971   2.617   1.438  0.0735 -0.2235  0.1475
    1ASP    OD2   12   1.881   2.757   1.589  0.4248  0.0335  0.0307
    1ASP      C   13   1.902   2.640   1.887 -0.4301 -0.2847 -0.6274
    1ASP      O   14   1.906   2.601   2.005 -0.1902  0.1840  0.9157
    2GLY      N   15   1.784   2.684   1.837 -0.2219 -0.8422  0.4169
    2GLY     HN   16   1.787   2.726   1.747 -0.3801  2.4163  1.7729
    2GLY     CA   17   1.661   2.691   1.907 -0.2277 -0.2632 -0.4524
    2GLY    HA1   18   1.593   2.739   1.837 -3.6610 -1.1600  1.9959
    2GLY    HA2   19   1.688   2.760   1.985  1.4653 -0.4508 -0.8404
    2GLY      C   20   1.594   2.568   1.964 -0.1140  0.1323 -0.3380
    2GLY      O   21   1.620   2.450   1.936 -0.1969 -0.4180 -0.0258
    3ASP      N   22   1.481   2.596   2.039 -0.2896 -0.4686  0.2041
    3ASP     HN   23   1.438   2.685   2.046  1.0521  0.2791 -0.6842
    3ASP     CA   24   1.385   2.497   2.080  0.2761  1.0793  0.0810
    3ASP     HA   25   1.437   2.422   2.137 -1.7547  0.3403  1.0851
    3ASP     CB   26   1.274   2.562   2.170  0.0796 -0.5215  0.1210
    3ASP    HB1   27   1.197   2.490   2.202 -1.7134  0.7795 -1.0723
    3ASP    HB2   28   1.233   2.647   2.112 -0.2695 -0.3271  0.6390
    3ASP     CG   29   1.346   2.629   2.284  0.9871 -0.0709  0.2268
    3ASP    OD1   30   1.297   2.738   2.335  0.2526  0.1856  0.1888
    3ASP    OD2   31   1.445   2.573   2.333  0.4749 -0.1485  0.1413
    3ASP      C   32   1.319   2.434   1.968  0.4411  1.1621  0.3239
    3ASP      O   33   1.308   2.489   1.861  0.6290  0.7213 -0.1710
    4GLY      N   34   1.273   2.309   1.987 -0.1931  0.4010  0.4528
    4GLY     HN   35   1.271   2.277   2.082  2.0220 -0.6973  0.1918
    4GLY     CA   36   1.189   2.240   1.885  0.0875 -0.1311 -0.0359
    4GLY    HA1   37   1.210   2.136   1.901  0.4014 -0.0495  0.0997
    4GLY    HA2   38   1.216   2.275   1.786 -0.0427  0.2405  0.0580
    4GLY      C   39   1.042   2.268   1.900  0.4740 -0.2141  0.3140
    4GLY      O   40   0.992   2.351   1.976 -0.3203 -0.0811 -0.0880
    5PRO      N   41   0.957   2.188   1.836  0.1825 -0.0169  0.2309
    5PRO     CD   42   0.995   2.114   1.716  0.2984 -0.3087  0.4113
    5PRO    HD1   43   1.084   2.047   1.720  0.8621 -0.0184 -3.6386
    5PRO    HD2   44   1.022   2.188   1.638  0.3056 -1.1604 -0.4158
    5PRO     CA   45   0.817   2.174   1.876 -0.5052  0.4773  0.9979
    5PRO     HA   46   0.783   2.274   1.902  0.1535  0.4072  2.1998
    5PRO     CB   47   0.744   2.117   1.753  0.3689 -0.2618 -0.3941
    5PRO    HB1   48   0.718   2.200   1.683  2.5724  1.3488  0.5608
    5PRO    HB2   49   0.671   2.036   1.773 -0.6279  0.6088 -0.4423
    5PRO     CG   50   0.861   2.039   1.688  0.2296 -0.5818  0.5929
    5PRO    HG1   51   0.865   1.935   1.727  1.6443 -0.5825  0.4681
    5PRO    HG2   52   0.842   2.011   1.582  1.2656 -1.1942  0.5589
    5PRO      C   53   0.791   2.091   2.007  0.5531  0.9718  0.5342
    5PRO      O   54   0.717   2.140   2.089 -0.3322 -0.4612  0.1457
    6GLY      N   55   0.858   1.966   2.015 -0.2343  0.6656  0.7134
    6GLY     HN   56   0.916   1.940   1.938 -1.8465 -2.6280  0.4347
    6GLY     CA   57   0.851   1.871   2.120 -0.0206  0.4652  0.0482
    6GLY    HA1   58   0.904   1.786   2.080 -1.4556  0.3811 -1.8227
    6GLY    HA2   59   0.749   1.844   2.146 -0.4275 -0.3317 -2.2008
    6GLY      C   60   0.923   1.904   2.255  0.3126  0.1496  0.0053
    6GLY      O   61   0.985   2.007   2.276 -0.5780  0.1721  0.0580
    7ASP      N   62   0.906   1.812   2.352  0.9748  0.9875 -0.2363
    7ASP     HN   63   0.857   1.730   2.326  0.9776 -0.3456  3.3520
    7ASP     CA   64   0.941   1.823   2.492 -0.3413 -0.3140  0.2637
    7ASP     HA   65   0.886   1.908   2.528 -2.4217 -0.8438 -1.4052
    7ASP     CB   66   0.881   1.702   2.574  0.0095 -0.0845 -0.4091
    7ASP    HB1   67   0.935   1.698   2.671  0.8819  0.8376 -0.8369
    7ASP    HB2   68   0.914   1.607   2.529  1.8495  1.2979 -2.1665
    7ASP     CG   69   0.733   1.710   2.607  0.4956  0.2112  0.0203
    7ASP    OD1   70   0.678   1.823   2.615 -0.1682 -0.4098  0.2161
    7ASP    OD2   71   0.673   1.599   2.624 -0.1046  0.6690  0.5176
    7ASP      C   72   1.095   1.837   2.500 -0.4336  0.1785 -0.5761
    7ASP      O   73   1.162   1.779   2.414  0.5189  0.1435 -0.2859
    8PRO      N   74   1.148   1.910   2.599 -0.3926 -0.9071 -0.1088
    8PRO     CD   75   1.084   1.967   2.710  0.6366 -0.0265 -0.6212
    8PRO    HD1   76   1.020   1.895   2.766  1.2151 -0.5797 -0.6631
    8PRO    HD2   77   1.015   2.047   2.677 -2.1122 -1.7052  0.6434
    8PRO     CA   78   1.295   1.919   2.619  0.0760  0.5110  0.5721
    8PRO     HA   79   1.332   1.987   2.544  0.2694  0.7067  0.8426
    8PRO     CB   80   1.312   1.980   2.760 -0.3052 -0.0681  0.2932
    8PRO    HB1   81   1.403   2.042   2.768 -0.8597  1.0341 -1.3368
    8PRO    HB2   82   1.330   1.899   2.834  2.7148  1.0356  0.8743
    8PRO     CG   83   1.181   2.054   2.787 -0.3889  0.1714  0.1775
    8PRO    HG1   84   1.164   2.052   2.897 -1.4200 -1.6305  0.0241
    8PRO    HG2   85   1.179   2.157   2.744  0.4596 -0.1527 -0.6669
    8PRO      C   86   1.368   1.790   2.609 -0.1449  0.5545 -0.2925
    8PRO      O   87   1.333   1.677   2.644  0.4643 -0.7254 -0.0635
    9GLY      N   88   1.496   1.794   2.561  1.2750  0.4289 -0.4810
    9GLY     HN   89   1.526   1.885   2.535  0.4112 -0.1077 -3.8835
    9GLY     CA   90   1.597   1.687   2.548  0.5166  0.0665 -0.2445
    9GLY    HA1   91   1.682   1.730   2.498  1.9441 -0.4806  1.6024
    9GLY    HA2   92   1.547   1.604   2.500 -2.3661  2.4465 -1.6755
    9GLY      C   93   1.646   1.636   2.676  0.0029  0.3497 -0.6538
    9GLY      O   94   1.637   1.690   2.789  0.1892  0.0378  0.0269
   10ASP      N   95   1.716   1.524   2.667  0.4211 -0.3019 -0.9348
   10ASP     HN   96   1.722   1.475   2.580  0.9978 -0.5891 -0.7366
   10ASP     CA   97   1.787   1.468   2.776  0.0185 -0.1941 -0.3392
   10ASP     HA   98   1.721   1.468   2.862  0.5968  1.4818  0.1645
   10ASP     CB   99   1.842   1.323   2.743  0.0555 -0.2811 -0.1104
   10ASP    HB1  100   1.932   1.313   2.808  1.0623 -0.9262 -1.5547
   10ASP    HB2  101   1.871   1.314   2.637  1.3410  2.9134 -0.1173
   10ASP     CG  102   1.728   1.223   2.782 -0.9912 -0.1715  0.7097
   10ASP    OD1  103   1.733   1.109   2.727 -0.2894  0.0614 -0.1110
   10ASP    OD2  104   1.641   1.250   2.866  0.2298  0.3451 -0.5945
   10ASP      C  105   1.895   1.568   2.826 -0.2607 -0.1129 -0.3242
   10ASP      O  106   1.968   1.622   2.745 -0.1374 -0.5699 -0.2157
   11GLY      N  107   1.914   1.587   2.959 -0.2941 -0.6837 -0.3589
   11GLY     HN  108   1.873   1.532   3.032 -0.0782 -1.1203 -0.5629
   11GLY     CA  109   1.988   1.699   3.019 -0.1300  0.2160  0.2805
   11GLY    HA1  110   2.057   1.739   2.945  0.3611 -0.2868  0.4598
   11GLY    HA2  111   2.041   1.664   3.106  0.1082  1.4440  0.6405
   11GLY      C  112   1.886   1.802   3.059 -1.1752 -0.0054  0.6974
   11GLY    OT1  113   1.892   1.916   2.999 -0.1359  0.0593 -0.3210
   11GLY    OT2  114   1.794   1.774   3.137 -0.6444 -0.4102  0.2551
   12LIT    LIT  115   5.770   1.369   3.760 -0.7068  0.0884 -0.5159
   13LIT    LIT  116   4.207   2.770   4.523 -0.2353  1.2953 -0.0457
   14LIT    LIT  117   5.259   4.854   2.772 -0.6411  0.2827  0.2925
   15LIT    LIT  118   6.436   1.840   5.846  0.1116  0.0564 -0.1500
   16LIT    LIT  119   1.728   1.954   3.100 -0.5464 -0.0667 -0.1171
   17LIT    LIT  120   6.467   2.740   0.369  0.7278  0.0588  0.4498
   18LIT    LIT  121   0.228   1.280   5.238  0.7890 -1.1909  0.0623
   19LIT    LIT  122   6.982   1.634   2.769 -0.3904 -0.3786  0.5112
   20LIT    LIT  123   3.977   2.908   5.877  0.0833  0.3429  0.4566
   21LIT    LIT  124   2.562   1.164   3.481  0.6662 -0.7507 -0.3777
   22LIT    LIT  125   6.560   4.669   3.768  0.6896 -0.8719  0.4973
   23LIT    LIT  126   5.544   6.720   5.545 -1.1251 -0.1121  0.9934
   24LIT    LIT  127   1.641   3.548   2.345 -0.5703  1.0560 -0.2248
   25LIT    LIT  128   2.082   2.890   0.956  1.3861  0.1337 -0.7453
   26LIT    LIT  129   1.465   1.312   2.868  0.4425  0.2857 -0.5402
   27LIT    LIT  130   4.232   2.273   1.120 -0.0937  0.5991  0.1547
   28LIT    LIT  131   5.710   5.377   4.542 -0.0354  0.4595 -1.2262
   29LIT    LIT  132   7.175   2.122   2.521  0.1188  0.0780 -0.7387
   30LIT    LIT  133   6.218   1.316   0.201 -0.6703  0.2411 -0.7170
   31LIT    LIT  134   0.371   4.651   0.596 -0.3225 -0.6292  0.6813
   32LIT    LIT  135   2.269   5.622   3.063  1.0355 -0.1364 -0.5097
   33LIT    LIT  136   5.167   3.380   2.247 -0.9807  0.0208  0.6272
   34LIT    LIT  137   5.442   4.763   0.914 -0.5878 -0.6177  0.3141
   35LIT    LIT  138   3.026   4.080   5.699 -0.3397 -0.0951 -1.1949
   36LIT    LIT  139   1.567   1.415   5.541  0.0586 -0.7923 -0.9925
   37LIT    LIT  140   4.499   2.846   3.198 -0.0164 -0.4459 -0.6641
   38LIT    LIT  141   0.709   0.190   4.363 -0.9417  0.5683 -0.1442
   39LIT    LIT  142   1.760   2.827   1.451  0.2861  0.3920  0.9004
   40LIT    LIT  143   5.398   0.597   1.475  0.6778  0.1677 -0.1127
   41LIT    LIT  144   1.019   5.686   4.469 -0.3584 -0.8003  0.0054
   42LIT    LIT  145   1.448   2.754   2.454  0.0772 -0.2593 -0.2979
   43CLA    CLA  146   3.098   2.957   0.303  0.2874  0.1110 -0.0012
   44CLA    CLA  147   4.381   1.494   5.281  0.0853  0.0027 -0.2289
   45CLA    CLA  148   3.340   0.870   5.211 -0.2472  0.0966  0.0586
   46CLA    CLA  149   3.026   5.889   3.929 -0.0910 -0.4286  0.0886
   47CLA    CLA  150   3.875   6.473   0.068 -0.0283  0.6927 -0.3785
   48CLA    CLA  151   5.298   3.256   2.109  0.0267  0.4735  0.0580
   49CLA    CLA  152   0.232   6.203   4.037  0.1236 -0.1470 -0.2953
   50CLA    CLA  153   3.266   5.590   4.400 -0.1094  0.3347  0.0401
   51CLA    CLA  154   6.145   0.305   3.079 -0.0768  0.5121 -0.0779
   52CLA    CLA  155   1.286   5.011   2.209  0.1406 -0.3677 -0.4204
   53CLA    CLA  156   4.735   2.386   1.367  0.1695 -0.2239 -0.1903
   54CLA    CLA  157   0.615   3.682   0.468 -0.1004 -0.0234 -0.0942
   55CLA    CLA  158   3.276   4.439   0.434 -0.1934 -0.1386  0.0575
   56CLA    CLA  159   0.613   1.177   1.458 -0.0692 -0.1782  0.1230
   57CLA    CLA  160   4.578   2.732   4.698 -0.0294 -0.0574 -0.0550
   58CLA    CLA  161   5.878   3.285   4.406 -0.1673  0.4231 -0.1588
   59CLA    CLA  162   0.771   0.552   1.937  0.4996  0.2912  0.3703
   60CLA    CLA  163   6.582   2.165   1.348 -0.0136  0.3954  0.4091
   61CLA    CLA  164   6.927   5.884   5.155  0.1008 -0.0607 -0.4906
   62CLA    CLA  165   2.805   4.716   4.914  0.4993 -0.1011 -0.0447
   63CLA    CLA  166   2.430   1.602   3.532  0.1538  0.2186 -0.1386
   64CLA    CLA  167   4.314   2.965   1.859 -0.2074 -0.1799  0.0680
   65CLA    CLA  168   4.876   5.337   1.541 -0.0000  0.5999 -0.2627
   66CLA    CLA  169   6.646   4.703   3.119  0.1039 -0.1646  0.1877
   67CLA    CLA  170   0.330   0.580   2.692 -0.3661 -0.3860  0.2898
   68CLA    CLA  171   6.558   1.967   4.465 -0.0157 -0.4519  0.3195
   69CLA    CLA  172   6.253   4.972   0.774  0.0968 -0.1313 -0.0431
   70TIP3   OH2  173   4.046   2.004   3.349 -0.7074  0.3435  0.6490
   70TIP3    H1  174   4.033   1.937   3.282 -0.5406  0.6824  0.2788
   70TIP3    H2  175   4.055   1.954   3.430 -0.2829 -0.1024  0.3331
   71TIP3   OH2  176   5.864   4.407   5.212  0.4384 -0.2689  0.0177
   71TIP3    H1  177   5.857   4.500   5.232  1.2681 -0.2171  0.1266
   71TIP3    H2  178   5.774   4.376   5.208  0.0777  0.8957 -1.7941
   72TIP3   OH2  179   0.730   0.383   1.049 -0.3487 -0.2477 -0.3943
   72TIP3    H1  180   0.660   0.410   0.989 -0.5344  0.5944  0.1920
   72TIP3    H2  181   0.767   0.465   1.082 -0.3618 -0.6904  0.7779
   73TIP3   OH2  182   4.606   5.671   4.106 -0.6722  0.1210 -0.1624
   73TIP3    H1  183   4.560   5.755   4.109  1.2475  1.3922 -2.5806
   73TIP3    H2  184   4.553   5.617   4.047 -0.6489  0.5062 -0.5397
   74TIP3   OH2  185   4.075   3.373   5.658 -0.3109 -0.2056 -0.7291
   74TIP3    H1  186   4.125   3.296   5.631  1.1038  0.9977 -1.7890
   74TIP3    H2  187   4.141   3.432   5.696 -1.6255 -0.1615  1.6482
   75TIP3   OH2  188   1.485   5.851   3.889  0.3579 -0.1971  0.0837
   75TIP3    H1  189   1.390   5.844   3.895  0.3993 -1.5848 -0.6508
   75TIP3    H2  190   1.502   5.945   3.888 -0.7559  0.2340  3.7582
   76TIP3   OH2  191   2.644   0.654   5.156  0.4130  0.1414  0.0188
   76TIP3    H1  192   2.603   0.727   5.109 -0.8210 -1.0702 -0.8624
   76TIP3    H2  193   2.606   0.658   5.244  0.3383  0.5463 -0.0298
   77TIP3   OH2  194   0.019   2.205   3.015 -0.5462  0.0762  0.9420
   77TIP3    H1  195   0.109   2.222   2.987 -0.7017 -0.0583  0.3338
   77TIP3    H2  196   0.012   2.109   3.015 -0.5919  0.0796  1.3125
   78TIP3   OH2  197   0.817   2.773   3.918 -0.2565 -0.2428 -0.1253
   78TIP3    H1  198   0.734   2.817   3.938  0.5387  0.7887  1.0456
   78TIP3    H2  199   0.884   2.836   3.943  0.9001 -1.1566 -0.8305
   79TIP3   OH2  200   1.196   6.067   0.673 -0.5531 -0.5993  0.1679
   79TIP3    H1  201   1.237   6.023   0.598  0.9015 -0.5735  0.9117
   79TIP3    H2  202   1.179   6.156   0.642  1.2968 -0.1775  0.2461
   80TIP3   OH2  203   4.575   3.031   5.142 -0.3446  0.0277  0.2169
   80TIP3    H1  204   4.547   3.027   5.051  0.4632 -2.1009 -0.0026
   80TIP3    H2  205   4.651   2.973   5.147  0.9763  1.7488  1.8261
   81TIP3   OH2  206   3.215   1.275   3.928  0.1289  0.5547 -0.2982
   81TIP3    H1  207   3.203   1.360   3.971  2.3369  0.4887  0.6025
   81TIP3    H2  208   3.238   1.215   3.999  2.2814  0.0711 -1.3041
   82TIP3   OH2  209   2.837   4.949   4.323 -0.0960  0.8110 -0.1917
   82TIP3    H1  210   2.838   4.872   4.378  1.7998 -0.7153 -2.2071
   82TIP3    H2  211   2.750   4.948   4.281 -1.7234  2.2251  2.8360
   83TIP3   OH2  212   6.122   2.083   1.112 -0.0013  0.9156  0.0354
   83TIP3    H1  213   6.140   2.176   1.100 -0.1046  1.1161  1.2557
   83TIP3    H2  214   6.174   2.059   1.189 -0.8427  0.2396  0.4058
   84TIP3   OH2  215   1.291   5.160   0.824 -0.2617  0.4228 -0.7059
   84TIP3    H1  216   1.246   5.194   0.901 -1.2028 -0.9440 -0.6239
   84TIP3    H2  217   1.239   5.190   0.750 -0.9810 -0.6287 -0.6435
   85TIP3   OH2  218   3.250   6.523   4.302  0.1366 -0.6953 -0.5051
   85TIP3    H1  219   3.300   6.464   4.358 -0.9041 -1.2261 -0.1104
   85TIP3    H2  220   3.269   6.611   4.337 -2.3876 -1.1241  2.3839
   86TIP3   OH2  221   5.891   4.636   0.947  0.6764  0.4944  0.4520
   86TIP3    H1  222   5.970   4.655   0.896 -0.0779 -0.5325 -1.1686
   86TIP3    H2  223   5.916   4.563   1.003  0.3478 -1.3549 -1.6438
   87TIP3   OH2  224   6.897   2.457   1.788  0.6170 -0.0429 -0.3901
   87TIP3    H1  225   6.924   2.365   1.794 -1.3656 -0.7642 -1.5974
   87TIP3    H2  226   6.807   2.453   1.757 -0.0714  2.2808  1.0664
   88TIP3   OH2  227   5.573   6.033   3.287 -0.0961 -0.6460  0.2313
   88TIP3    H1  228   5.487   6.011   3.252 -0.3754  0.5689  0.1331
   88TIP3    H2  229   5.570   6.127   3.302  0.8209 -0.7725  1.3360
   89TIP3   OH2  230   0.536   6.584   3.800 -0.0678 -0.7708  0.3127
   89TIP3    H1  231   0.517   6.658   3.858  0.6096 -0.0608 -0.3415
   89TIP3    H2  232   0.507   6.507   3.849 -2.3724  0.0463  0.3209
   90TIP3   OH2  233   3.881   1.982   1.449  0.5278  0.2797 -0.3057
   90TIP3    H1  234   3.834   2.041   1.389  0.4491 -0.9944 -1.5425
   90TIP3    H2  235   3.970   1.979   1.414  0.3079 -1.0269 -0.8132
   91TIP3   OH2  236   4.363   6.653   1.538  0.0493 -0.4085  0.0169
   91TIP3    H1  237   4.292   6.692   1.487  1.4158  1.2774 -0.6852
   91TIP3    H2  238   4.346   6.683   1.628  0.5203  1.0375 -0.3520
   92TIP3   OH2  239   5.730   1.554   4.140 -0.0153  0.2556  0.0720
   92TIP3    H1  240   5.727   1.579   4.232 -0.7302  1.0253 -0.1495
   92TIP3    H2  241   5.661   1.606   4.098  0.7061  0.3848 -1.0159
   93TIP3   OH2  242   5.602   2.363   0.176 -0.0309  0.1357  0.7741
   93TIP3    H1  243   5.511   2.393   0.179 -0.5586 -1.4154  2.5514
   93TIP3    H2  244   5.610   2.319   0.092 -0.7653  0.7026  0.3934
   94TIP3   OH2  245   0.014   2.698   0.418  0.2863 -0.0035  0.0396
   94TIP3    H1  246   0.070   2.700   0.496  0.7155 -0.5716 -0.2444
   94TIP3    H2  247  -0.070   2.666   0.449 -0.3459  2.1701  0.7399
   95TIP3   OH2  248   2.923   0.135   2.308  0.1013  0.6822  0.2047
   95TIP3    H1  249   2.954   0.190   2.380  0.1228  0.6425  0.2260
   95TIP3    H2  250   2.844   0.178   2.276 -0.8560 -0.1765  1.3276
   96TIP3   OH2  251   6.846   5.185   1.498 -0.2057 -0.1137  0.2870
   96TIP3    H1  252   6.781   5.245   1.536 -0.2752  0.2348 -0.3625
   96TIP3    H2  253   6.846   5.110   1.557 -1.4339 -0.2587  0.1439
   97TIP3   OH2  254   3.339   4.232   0.666  0.4268  0.1733  0.5347
   97TIP3    H1  255   3.318   4.295   0.597  0.5369  0.2073  0.5333
   97TIP3    H2  256   3.300   4.150   0.635 -0.4079  0.4137  0.9011
   98TIP3   OH2  257   4.714   3.870   4.869  0.0380 -0.2413 -0.6205
   98TIP3    H1  258   4.656   3.861   4.794  0.0200  0.0518 -0.6432
   98TIP3    H2  259   4.704   3.788   4.917 -1.1303  0.1804 -0.1099
   99TIP3   OH2  260   1.913   0.621   0.296  0.5961  0.3242 -0.1812
   99TIP3    H1  261   1.924   0.570   0.376  0.3261  0.7724  0.1424
   99TIP3    H2  262   2.002   0.630   0.261  0.7477  0.3370  0.2015
  100TIP3   OH2  263   6.540   2.723   5.818  0.2580 -0.2874 -0.1659
  100TIP3    H1  264   6.617   2.722   5.875 -0.9661  0.0819  1.5502
  100TIP3    H2  265   6.547   2.642   5.767  1.8166 -0.2126 -0.1135
  101TIP3   OH2  266   6.506   5.360   3.737 -0.5260 -0.0998 -0.1746
  101TIP3    H1  267   6.490   5.397   3.650 -1.5925 -0.6098 -0.2087
  101TIP3    H2  268   6.449   5.409   3.795  0.4326  0.4718  0.3143
  102TIP3   OH2  269   2.552   4.252   1.306  0.2440  0.3479 -0.8935
  102TIP3    H1  270   2.545   4.195   1.382 -0.0730  1.3636 -0.1523
  102TIP3    H2  271   2.483   4.317   1.317 -1.6597 -1.0539 -3.4523
  103TIP3   OH2  272   3.469   5.103   2.963  0.9361 -0.2488  0.0171
  103TIP3    H1  273   3.406   5.031   2.969  0.7391 -0.2104 -1.3322
  103TIP3    H2  274   3.521   5.083   2.885 -0.0283  1.7388 -1.2117
  104TIP3   OH2  275   0.969   6.748   2.176  0.2129 -0.1108  0.3029
  104TIP3    H1  276   1.051   6.753   2.126  0.9269 -0.6087  1.3748
  104TIP3    H2  277   0.902   6.732   2.109  1.1873 -1.1919 -0.4733
  105TIP3   OH2  278   0.287   1.179   1.579  0.1424 -0.5761  0.2020
  105TIP3    H1  279   0.378   1.181   1.548 -0.0656 -0.7750 -0.4364
  105TIP3    H2  280   0.290   1.223   1.664  0.7712 -0.2444  0.0157
  106TIP3   OH2  281   2.171   3.741   2.549 -0.2092 -0.0124  0.4650
  106TIP3    H1  282   2.089   3.765   2.592  1.0043  0.5821  2.5730
  106TIP3    H2  283   2.144   3.685   2.476 -2.5586  1.2588  0.2641
  107TIP3   OH2  284   4.555   1.527   0.243 -0.5059  0.5306 -0.1994
  107TIP3    H1  285   4.606   1.450   0.219 -0.7824  0.5761 -0.9472
  107TIP3    H2  286   4.501   1.499   0.317 -1.2953 -0.2776 -1.0597
  108TIP3   OH2  287   4.596   5.302   3.380  0.1040  0.1355  0.4462
  108TIP3    H1  288   4.529   5.344   3.434  1.6016  0.2824  2.2849
  108TIP3    H2  289   4.577   5.208   3.387 -0.2787  0.2120  0.4517
  109TIP3   OH2  290   0.265   4.779   2.396 -0.7382  0.0618 -0.3713
  109TIP3    H1  291   0.288   4.703   2.343 -1.5848  0.1058 -0.8168
  109TIP3    H2  292   0.344   4.797   2.447 -0.4628 -0.9971 -0.3927
  110TIP3   OH2  293   6.108   1.677   1.230 -0.1137 -0.4414 -0.3242
  110TIP3    H1  294   6.193   1.719   1.247 -0.2198 -1.0126  1.9219
  110TIP3    H2  295   6.064   1.677   1.314 -2.2523 -0.4751 -1.3767
  111TIP3   OH2  296   1.048   1.259   2.534  1.4153  0.0825  0.4846
  111TIP3    H1  297   1.010   1.288   2.451  0.2547 -0.8959  0.6416
  111TIP3    H2  298   1.103   1.184   2.511  1.0464 -0.2268  0.5806
  112TIP3   OH2  299   4.235   2.306   4.228  0.3339  0.1327  0.1406
  112TIP3    H1  300   4.256   2.397   4.209 -0.1513  0.3796  0.7499
  112TIP3    H2  301   4.315   2.258   4.205  0.5784  0.7004 -0.2232
  113TIP3   OH2  302   2.014   2.031   1.826  0.5443  0.4110  0.3405
  113TIP3    H1  303   2.003   2.060   1.735 -1.1453  0.1513  0.4321
  113TIP3    H2  304   2.092   1.975   1.824  1.6810  1.9647 -0.5417
  114TIP3   OH2  305   4.619   5.643   2.079  0.3256 -0.2784  0.2958
  114TIP3    H1  306   4.575   5.595   2.010 -0.9451 -0.2996  1.0833
  114TIP3    H2  307   4.587   5.733   2.070  1.7129  0.1748 -0.3798
  115TIP3   OH2  308   3.532   0.283   2.301  0.0560  0.1159  0.2842
  115TIP3    H1  309   3.581   0.202   2.286  0.3433  0.5395 -1.2457
  115TIP3    H2  310   3.447   0.254   2.335  0.4289 -0.7688  0.4823
  116TIP3   OH2  311   2.277   4.287   0.386 -0.0788  0.0945  0.1172
  116TIP3    H1  312   2.336   4.299   0.312  1.2100 -1.9932  0.7221
  116TIP3    H2  313   2.326   4.320   0.461  0.0167 -0.8593  0.4947
  117TIP3   OH2  314   4.250   4.792   0.541 -0.2885 -0.0727 -0.0880
  117TIP3    H1  315   4.220   4.873   0.499  0.9179  1.2272  1.4237
  117TIP3    H2  316   4.184   4.775   0.608  0.5254  0.8635  0.9759
  118TIP3   OH2  317   5.262   5.283   2.838  0.2098 -0.2599 -0.6405
  118TIP3    H1  318   5.201   5.324   2.900  1.4974 -1.0505  1.2237
  118TIP3    H2  319   5.210   5.215   2.795 -1.0247  1.0669 -1.3294
  119TIP3   OH2  320   2.368   2.428   0.039 -0.1272 -0.3134  0.2286
  119TIP3    H1  321   2.396   2.502  -0.014 -1.4083 -0.3459 -0.5297
  119TIP3    H2  322   2.393   2.350  -0.012  1.6107 -0.4681  1.2188
  120TIP3   OH2  323   2.951   1.734   5.108  0.0001 -0.0027 -0.3859
  120TIP3    H1  324   3.023   1.672   5.099 -2.2691 -2.7109 -1.4188
  120TIP3    H2  325   2.926   1.730   5.200  1.1414  0.9856 -0.0151
  121TIP3   OH2  326   1.328   4.134   1.926 -0.1519  0.6214  0.2181
  121TIP3    H1  327   1.364   4.147   2.014 -0.4073  0.2969  0.3689
  121TIP3    H2  328   1.243   4.178   1.928 -0.1137  0.7039  0.0975
  122TIP3   OH2  329   4.286   4.700   1.854  0.4613 -0.4103  0.2286
  122TIP3    H1  330   4.367   4.679   1.807  0.8941 -1.1162  1.2555
  122TIP3    H2  331   4.218   4.650   1.809  0.5650  0.2723 -0.7107
  123TIP3   OH2  332   4.659   0.413   0.369 -0.5875  0.3622 -0.7468
  123TIP3    H1  333   4.677   0.321   0.351  0.6969  0.3178  0.6784
  123TIP3    H2  334   4.734   0.460   0.332 -0.9358  0.7941 -0.9162
  124TIP3   OH2  335   3.004   4.044   3.303 -0.0277 -0.3160 -0.4579
  124TIP3    H1  336   2.971   4.107   3.367 -0.7755 -1.1633  0.0272
  124TIP3    H2  337   3.081   4.006   3.345 -1.4717 -2.1101  0.7884
  125TIP3   OH2  338   3.041   5.965   5.230 -0.1797  0.4881 -0.6490
  125TIP3    H1  339   3.013   6.052   5.204 -1.3791 -0.0461 -1.2198
  125TIP3    H2  340   3.069   5.924   5.148 -0.6242 -0.0119 -0.5558
  126TIP3   OH2  341   6.361   0.254   4.821  0.0440 -0.3347 -0.3708
  126TIP3    H1  342   6.349   0.263   4.726 -1.2374 -1.2266 -0.3205
  126TIP3    H2  343   6.295   0.312   4.859  2.1262  1.9235  0.0450
  127TIP3   OH2  344   5.736   2.895   1.984  0.7107  0.2919 -0.0980
  127TIP3    H1  345   5.656   2.947   1.977 -0.0262 -0.8857 -0.8047
  127TIP3    H2  346   5.745   2.853   1.899  0.7936 -1.3695  0.6901
  128TIP3   OH2  347   3.130   5.740   5.578  0.6468 -0.2604 -0.0579
  128TIP3    H1  348   3.099   5.806   5.640  2.7035  0.1228  0.6327
  128TIP3    H2  349   3.185   5.789   5.516  1.2643 -1.1482 -0.2270
  129TIP3   OH2  350   6.362   1.578   1.589 -0.2391 -1.0072 -0.4873
  129TIP3    H1  351   6.418   1.627   1.530 -1.5744 -0.1699 -1.0989
  129TIP3    H2  352   6.370   1.624   1.673 -1.5550  0.3852 -1.0775
  130TIP3   OH2  353   1.646   0.868   2.837 -0.1388 -0.5255  0.2968
  130TIP3    H1  354   1.666   0.807   2.766 -1.3086  0.8398 -1.2916
  130TIP3    H2  355   1.654   0.954   2.797  0.4387  0.3434  2.2035
  131TIP3   OH2  356   3.561   1.472   5.474  0.5056  0.4961  0.3764
  131TIP3    H1  357   3.571   1.377   5.471  1.1886  0.5700  0.2187
  131TIP3    H2  358   3.646   1.506   5.448  0.0899  1.1551 -0.1521
  132TIP3   OH2  359   4.351   6.341   2.612 -0.3034  0.5277  0.5123
  132TIP3    H1  360   4.350   6.319   2.519 -0.8954 -1.1497  0.8830
  132TIP3    H2  361   4.437   6.311   2.643 -0.9692 -1.0294  0.9424
  133TIP3   OH2  362   3.916   3.993   2.586 -0.6414  0.2555 -0.4339
  133TIP3    H1  363   3.926   3.936   2.510 -0.7085 -0.7379  0.2724
  133TIP3    H2  364   3.954   4.077   2.559 -2.5404  0.6153 -2.2661
  134TIP3   OH2  365   3.998   6.837   5.242  0.3345  0.1836  0.2109
  134TIP3    H1  366   4.090   6.847   5.215 -0.1138  0.2320 -1.3642
  134TIP3    H2  367   3.992   6.746   5.272  0.9114  0.1913  0.3635
  135TIP3   OH2  368   0.299   5.438  -0.028  0.1777  0.0522 -0.5937
  135TIP3    H1  369   0.282   5.498   0.045 -1.1014  0.9933 -1.6009
  135TIP3    H2  370   0.330   5.357   0.013  1.8349  1.3240  0.8286
  136TIP3   OH2  371   3.755   4.849   1.466 -0.1878 -0.5746  0.0050
  136TIP3    H1  372   3.712   4.770   1.434 -3.5239  1.3584 -0.8048
  136TIP3    H2  373   3.750   4.911   1.393  0.9557  0.8889  1.0945
  137TIP3   OH2  374   1.353   1.991   3.489  0.4870  0.0972  0.6795
  137TIP3    H1  375   1.358   2.066   3.429  0.2411 -0.2632  0.1985
  137TIP3    H2  376   1.301   2.023   3.563 -0.2478  0.1850  0.1371
  138TIP3   OH2  377   2.044   2.434   4.031 -0.0191  0.4950 -0.0306
  138TIP3    H1  378   2.109   2.370   4.061  0.0107  0.8413  0.6559
  138TIP3    H2  379   2.092   2.515   4.022  0.1788  0.2054 -1.9492
  139TIP3   OH2  380   0.095   5.965   4.597 -0.2860  0.6329  0.5415
  139TIP3    H1  381   0.118   5.872   4.593 -1.3632  0.3826 -0.5125
  139TIP3    H2  382   0.134   6.004   4.519  0.4583  1.1529  1.1588
  140TIP3   OH2  383   1.439   3.868   1.886 -1.0082  0.3237  0.1774
  140TIP3    H1  384   1.500   3.877   1.812 -0.3027 -0.8283  0.5967
  140TIP3    H2  385   1.390   3.950   1.886 -0.2146  0.8281 -0.8481
  141TIP3   OH2  386   1.663   4.549   4.351  0.1897 -0.1295 -0.1459
  141TIP3    H1  387   1.757   4.537   4.343  0.2381  0.5483 -0.6927
  141TIP3    H2  388   1.631   4.467   4.388  0.5939 -1.5939 -2.7947
  142TIP3   OH2  389   4.559   1.044   1.627  0.1042 -0.4616 -0.1317
  142TIP3    H1  390   4.598   0.971   1.580 -1.2569 -1.2419 -0.1147
  142TIP3    H2  391   4.476   1.009   1.660 -2.0244  1.8270 -2.5358
  143TIP3   OH2  392   1.444   3.956   3.606  0.7329  0.2906  0.3144
  143TIP3    H1  393   1.392   4.020   3.559 -1.0896 -1.0239  0.4471
  143TIP3    H2  394   1.535   3.978   3.585  0.0618  0.4975 -2.8490
  144TIP3   OH2  395   6.500   0.564   2.231  0.1236 -0.0996  0.3895
  144TIP3    H1  396   6.557   0.524   2.296 -0.5550  0.0044  1.0607
  144TIP3    H2  397   6.459   0.638   2.277  0.0076  0.2736 -0.2990
  145TIP3   OH2  398   1.899   2.748   2.879  0.1728 -0.0537 -0.2687
  145TIP3    H1  399   1.822   2.733   2.934 -0.0582  0.0725 -0.5556
  145TIP3    H2  400   1.919   2.662   2.842  0.6459 -0.2501  0.4154
  146TIP3   OH2  401   3.232   6.001   3.695  0.0093 -0.5166  0.7116
  146TIP3    H1  402   3.175   5.941   3.744 -0.8971  0.8002  1.3147
  146TIP3    H2  403   3.238   6.079   3.750 -0.5575  0.7799 -0.9840
  147TIP3   OH2  404   5.843   3.346   4.711  0.5067  0.1400  0.3155
  147TIP3    H1  405   5.879   3.324   4.625 -0.5660 -0.8399  0.0925
  147TIP3    H2  406   5.793   3.426   4.697  1.6538  0.8879  0.3922
  148TIP3   OH2  407   6.624   4.148   0.017  0.4722 -0.0148  1.0181
  148TIP3    H1  408   6.571   4.227   0.004 -0.3046 -0.5995  0.5813
  148TIP3    H2  409   6.573   4.095   0.078  0.5300 -0.5950  0.5702
  149TIP3   OH2  410   7.114   3.822   4.612 -0.8259 -0.2902  0.3580
  149TIP3    H1  411   7.194   3.800   4.563 -0.8036  0.4464  0.0600
  149TIP3    H2  412   7.105   3.917   4.603 -1.6717 -0.3484  0.4847
  150TIP3   OH2  413   3.267   0.122   1.658 -0.2186  0.2611 -0.1545
  150TIP3    H1  414   3.236   0.165   1.738 -1.6618  1.1710 -1.1599
  150TIP3    H2  415   3.321   0.049   1.690 -1.1609  0.2917  1.6542
  151TIP3   OH2  416   3.484   4.352   2.330 -0.1708 -0.6193  0.4750
  151TIP3    H1  417   3.397   4.314   2.336 -0.5606  0.1726 -0.1169
  151TIP3    H2  418   3.470   4.445   2.313  0.7885 -0.5208  0.1257
  152TIP3   OH2  419   2.667   3.586   0.466  0.4408 -0.0637 -0.2170
  152TIP3    H1  420   2.593   3.645   0.476  0.1618 -0.8431  3.6802
  152TIP3    H2  421   2.638   3.522   0.401 -1.2455  1.0965 -0.6694
  153TIP3   OH2  422   0.284   0.286   2.572 -0.2069 -0.6195  0.1544
  153TIP3    H1  423   0.265   0.370   2.613 -0.6602  0.2029 -1.6242
  153TIP3    H2  424   0.375   0.294   2.542 -1.0953  0.4424 -2.5673
  154TIP3   OH2  425   3.225   4.527   4.845 -0.3748  0.1732 -0.1774
  154TIP3    H1  426   3.244   4.553   4.935 -2.3938  0.7341  0.1241
  154TIP3    H2  427   3.190   4.438   4.853 -1.5187  0.6053 -0.2839
  155TIP3   OH2  428   5.513   6.435   0.484  0.4101  0.2400  0.1707
  155TIP3    H1  429   5.547   6.458   0.398 -2.3395  0.5265 -0.9639
  155TIP3    H2  430   5.447   6.368   0.466 -0.1087  0.1921  2.0688
  156TIP3   OH2  431   1.201   4.213   2.585 -0.2614  0.0266 -0.3113
  156TIP3    H1  432   1.248   4.204   2.668 -0.4169  1.4557 -0.0392
  156TIP3    H2  433   1.255   4.165   2.522  0.5666  0.0460  0.3571
  157TIP3   OH2  434   4.603   6.507   0.717 -0.1096  0.0374  0.0423
  157TIP3    H1  435   4.662   6.560   0.663  1.1186 -0.2724  1.0410
  157TIP3    H2  436   4.629   6.417   0.700 -2.5879 -0.3978 -2.1171
  158TIP3   OH2  437   4.038   0.076   4.263  0.2023  0.2168 -0.1905
  158TIP3    H1  438   4.001   0.161   4.286 -0.0595 -0.3166  1.5460
  158TIP3    H2  439   4.127   0.095   4.234 -0.0923  1.1403 -0.5258
  159TIP3   OH2  440   3.827   0.102   2.866  0.2145  0.4700  0.4818
  159TIP3    H1  441   3.856   0.179   2.915  1.1904  0.6156 -0.2899
  159TIP3    H2  442   3.905   0.074   2.817 -0.9183  0.8489 -1.6630
  160TIP3   OH2  443   7.072   6.175   5.057  0.4500  0.0973  0.7790
  160TIP3    H1  444   7.044   6.102   5.112 -2.1710 -0.5793 -1.2374
  160TIP3    H2  445   7.145   6.140   5.005  0.5590 -0.4204  1.2802
  161TIP3   OH2  446   3.630   2.493   4.426  0.3697 -0.1895 -0.1712
  161TIP3    H1  447   3.638   2.580   4.465 -1.3315 -0.6567  1.3456
  161TIP3    H2  448   3.546   2.461   4.457 -0.2963 -1.3172 -2.9121
  162TIP3   OH2  449   5.935   3.403   3.600  0.1680  0.1213  0.0434
  162TIP3    H1  450   5.933   3.456   3.679  0.2393  0.0430  0.0987
  162TIP3    H2  451   6.019   3.424   3.559  1.0578 -1.3378  1.0365
  163TIP3   OH2  452   1.002   0.783   4.064  0.3682 -0.3128  0.2065
  163TIP3    H1  453   1.004   0.733   3.982 -1.7086 -0.0833 -0.0556
  163TIP3    H2  454   1.011   0.874   4.036  0.1903 -0.2741  0.2710
  164TIP3   OH2  455   0.264   0.115   2.347 -0.0937 -0.0281  0.0646
  164TIP3    H1  456   0.281   0.039   2.403  1.8847  0.8428  0.7476
  164TIP3    H2  457   0.225   0.179   2.405 -0.6774 -0.0949 -0.2436
  165TIP3   OH2  458   4.133   3.337   5.004 -0.1435 -0.3112 -0.2145
  165TIP3    H1  459   4.206   3.295   5.050  0.0165 -0.3934 -0.5359
  165TIP3    H2  460   4.170   3.361   4.919 -0.8349 -1.5698 -0.9084
  166TIP3   OH2  461   0.519   3.193   0.534  0.0785 -0.6500 -0.1399
  166TIP3    H1  462   0.544   3.259   0.469  2.1518 -0.3627  0.8471
  166TIP3    H2  463   0.555   3.111   0.501  2.5733 -0.2411  1.2758
  167TIP3   OH2  464   2.438   4.176   5.246 -0.2057  0.5304 -0.3432
  167TIP3    H1  465   2.490   4.104   5.282  0.6133  2.0366  1.6583
  167TIP3    H2  466   2.461   4.177   5.153  0.0493 -1.5024 -0.3528
  168TIP3   OH2  467   6.122   2.182   2.318  0.5358 -0.1416  0.0233
  168TIP3    H1  468   6.189   2.119   2.294  0.4223 -0.4116  0.3940
  168TIP3    H2  469   6.128   2.188   2.414  1.1190  1.0576 -0.0648
  169TIP3   OH2  470   1.163   6.484   4.838  0.7090  0.0644  0.2677
  169TIP3    H1  471   1.159   6.533   4.756  0.2162  0.2179  0.3749
  169TIP3    H2  472   1.238   6.426   4.829 -0.5117 -1.3755 -1.0952
  170TIP3   OH2  473   2.121   5.394   0.609  0.5345  0.3994 -0.0417
  170TIP3    H1  474   2.051   5.451   0.640 -0.1036 -0.5567  0.3047
  170TIP3    H2  475   2.119   5.403   0.514  0.2394  0.7091 -0.0088
  171TIP3   OH2  476   1.355   5.965   0.480 -0.4888 -0.2426 -0.1696
  171TIP3    H1  477   1.356   5.870   0.492  0.9728 -0.0202  2.1751
  171TIP3    H2  478   1.446   5.988   0.463 -0.5901  0.8603  0.6685
  172TIP3   OH2  479   5.028   2.943   3.315 -0.1054  0.1284  0.3797
  172TIP3    H1  480   5.009   2.933   3.222 -1.0949  0.0905  0.5741
  172TIP3    H2  481   4.974   2.878   3.358 -0.6221  0.9853  1.0674
  173TIP3   OH2  482   1.513   5.836   1.986 -0.5635 -0.1604 -0.9390
  173TIP3    H1  483   1.475   5.764   1.937 -1.8017 -0.5628  0.5308
  173TIP3    H2  484   1.554   5.793   2.062 -2.5180  0.7046  0.7026
  174TIP3   OH2  485   0.870   0.432   0.227  0.0823  0.4031 -0.0303
  174TIP3    H1  486   0.871   0.511   0.281  0.1970  0.9221 -0.7829
  174TIP3    H2  487   0.779   0.424   0.198  0.5364  1.6664 -1.9647
  175TIP3   OH2  488   6.079   3.265   5.440  0.2569 -0.3028  0.1896
  175TIP3    H1  489   6.009   3.234   5.383 -0.1409 -1.2054  1.1279
  175TIP3    H2  490   6.035   3.294   5.520  0.7074  1.9570 -0.3193
  176TIP3   OH2  491   0.667   1.716   1.306  0.1370 -0.0244 -0.0870
  176TIP3    H1  492   0.732   1.720   1.376 -1.4733  2.3399  1.4537
  176TIP3    H2  493   0.608   1.646   1.332  0.5882 -0.4012 -0.0732
  177TIP3   OH2  494   0.815   2.275   1.349 -0.7098  0.0434 -0.2939
  177TIP3    H1  495   0.845   2.185   1.336 -0.0559  0.2199 -0.0455
  177TIP3    H2  496   0.720   2.268   1.353 -0.6412 -0.7016  0.2082
  178TIP3   OH2  497   0.970   0.879   2.436  0.0883 -0.4306  0.3647
  178TIP3    H1  498   0.905   0.847   2.499 -0.7430 -0.6457 -0.5788
  178TIP3    H2  499   0.918   0.922   2.368  0.8973 -1.0635 -0.6755
  179TIP3   OH2  500   4.215   6.119   0.349  0.3153  0.6646 -0.4094
  179TIP3    H1  501   4.181   6.129   0.438  1.1452 -5.0403  0.9863
  179TIP3    H2  502   4.137   6.117   0.293 -0.7572 -0.8126  1.0538
  180TIP3   OH2  503   1.041   6.253   5.693  0.1356  0.3356 -0.1186
  180TIP3    H1  504   0.948   6.273   5.683  0.5073  1.6948 -1.2436
  180TIP3    H2  505   1.072   6.236   5.604  1.2281  1.2048  0.0726
  181TIP3   OH2  506   4.146   5.571   2.425  0.5139 -0.2840  0.1891
  181TIP3    H1  507   4.122   5.663   2.427  2.4127  0.2590  0.0136
  181TIP3    H2  508   4.204   5.560   2.500  0.0194 -1.4260  0.4199
  182TIP3   OH2  509   4.266   5.615   1.125 -0.0392 -0.1959 -0.1168
  182TIP3    H1  510   4.188   5.670   1.134 -0.9994 -1.3410 -1.0951
  182TIP3    H2  511   4.317   5.633   1.204 -0.8176  1.2949  0.0861
  183TIP3   OH2  512   1.605   5.345   0.537 -0.2759 -0.3586 -0.0718
  183TIP3    H1  513   1.561   5.384   0.613  1.7249  0.3931  0.7863
  183TIP3    H2  514   1.687   5.311   0.573  1.3896  1.2412 -2.0816
  184TIP3   OH2  515   3.895   5.197   0.683 -0.6754  0.5147  0.4782
  184TIP3    H1  516   3.943   5.229   0.759 -2.3793  2.4136  0.8567
  184TIP3    H2  517   3.831   5.135   0.719 -0.4498  0.2229  0.3777
  185TIP3   OH2  518   5.376   3.189   3.159  0.0187  0.0858 -0.2213
  185TIP3    H1  519   5.339   3.138   3.231 -0.4953  0.6165 -0.1047
  185TIP3    H2  520   5.337   3.275   3.167 -1.6680 -0.3781 -2.3286
  186TIP3   OH2  521   5.187   4.285   2.201  0.0414 -0.5729 -0.1393
  186TIP3    H1  522   5.141   4.202   2.191  0.8823 -1.2232  1.0856
  186TIP3    H2  523   5.118   4.350   2.208 -0.6334 -1.1645 -1.0740
  187TIP3   OH2  524   3.278   2.190   4.240  0.2196 -0.2818  0.4989
  187TIP3    H1  525   3.270   2.106   4.194 -0.2134 -0.0881  0.2092
  187TIP3    H2  526   3.340   2.173   4.311 -0.2299 -0.9778  0.7419
  188TIP3   OH2  527   7.100   0.724   4.028 -0.3708  0.5201  0.1684
  188TIP3    H1  528   7.194   0.744   4.023 -0.1530 -0.1613  1.2202
  188TIP3    H2  529   7.092   0.639   3.985 -0.1770 -0.3303  1.7470
  189TIP3   OH2  530   4.233   3.447   4.736 -0.2994 -0.0080 -0.3497
  189TIP3    H1  531   4.318   3.468   4.696  0.4928  0.2787  1.3865
  189TIP3    H2  532   4.185   3.403   4.667  1.2573 -0.1652 -1.3986
  190TIP3   OH2  533   0.050   4.666   5.075 -0.0933  0.2747  0.5454
  190TIP3    H1  534   0.077   4.591   5.129  0.9085  1.1222  1.2713
  190TIP3    H2  535  -0.008   4.628   5.009  1.5319 -1.3905 -0.0163
  191TIP3   OH2  536   4.736   1.511   0.739 -0.2763 -0.3615 -0.3679
  191TIP3    H1  537   4.685   1.466   0.806 -0.0390 -0.1709 -0.0543
  191TIP3    H2  538   4.750   1.445   0.671 -1.3342 -0.2814 -0.6858
  192TIP3   OH2  539   3.044   1.711   0.205  0.1927 -0.5679  0.3544
  192TIP3    H1  540   3.013   1.622   0.221 -0.5708 -0.8107 -2.1068
  192TIP3    H2  541   3.132   1.699   0.169  0.1286 -0.3162  0.1174
  193TIP3   OH2  542   5.999   6.698   2.339 -0.6501 -0.4504 -0.2769
  193TIP3    H1  543   6.059   6.719   2.410  1.2271 -3.1467 -0.9583
  193TIP3    H2  544   5.964   6.612   2.360 -2.5195  0.0364 -1.0999
  194TIP3   OH2  545   6.653   5.678   0.400  0.1466  0.3785  0.0932
  194TIP3    H1  546   6.667   5.772   0.415  2.0472  0.3451 -1.1175
  194TIP3    H2  547   6.706   5.635   0.467 -1.8494  0.0962  1.5764
  195TIP3   OH2  548   5.890   4.522   1.615 -0.5674  0.3768 -0.7683
  195TIP3    H1  549   5.899   4.428   1.598  1.2973  0.3719 -0.0166
  195TIP3    H2  550   5.958   4.541   1.680 -3.0289  1.6034  1.6485
  196TIP3   OH2  551   5.704   4.722   4.658 -0.0602 -0.3848  0.1434
  196TIP3    H1  552   5.707   4.669   4.579 -0.4201  0.2571 -0.3113
  196TIP3    H2  553   5.610   4.734   4.675 -0.0003 -1.3343  1.2313
  197TIP3   OH2  554   0.579   0.048   5.222  0.3143  0.3226  0.4981
  197TIP3    H1  555   0.547   0.107   5.290  1.1095 -0.5565  1.6672
  197TIP3    H2  556   0.669   0.077   5.205  0.2925  0.2155  0.1836
  198TIP3   OH2  557   4.692   4.871   0.967 -0.2369  0.7288 -0.2727
  198TIP3    H1  558   4.674   4.946   1.023 -4.8069 -0.2089 -0.0803
  198TIP3    H2  559   4.740   4.810   1.023  1.8040  2.6085  0.1615
  199TIP3   OH2  560   3.885   5.888   2.016 -0.4407  0.5360  0.5908
  199TIP3    H1  561   3.881   5.834   2.095 -0.3117  1.4204  1.2249
  199TIP3    H2  562   3.863   5.829   1.944  0.8804 -0.6409  1.1083
  200TIP3   OH2  563   5.373   5.857   4.278  0.2725  0.0868 -0.0029
  200TIP3    H1  564   5.364   5.950   4.258 -2.7996 -0.3394 -1.1026
  200TIP3    H2  565   5.433   5.824   4.211  0.7453  1.1003 -0.1000
  201TIP3   OH2  566   6.064   2.352   1.417  0.1375  0.0661 -0.2100
  201TIP3    H1  567   6.131   2.284   1.430 -0.5760 -0.7533 -0.6530
  201TIP3    H2  568   6.088   2.421   1.478  0.4133 -0.9569  0.8852
  202TIP3   OH2  569   5.565   5.815   4.627 -0.3477  0.2102 -0.3255
  202TIP3    H1  570   5.562   5.896   4.576 -2.4274 -0.1136 -0.8050
  202TIP3    H2  571   5.657   5.807   4.654 -0.1690  2.9719  0.1551
  203TIP3   OH2  572   4.619   4.414   0.613 -0.3362  0.2534 -0.9734
  203TIP3    H1  573   4.532   4.399   0.650 -0.2358 -1.4289 -1.3562
  203TIP3    H2  574   4.662   4.470   0.677 -0.6132 -1.5153  0.8441
  204TIP3   OH2  575   5.312   4.294   5.615  0.0499  0.1127 -0.0669
  204TIP3    H1  576   5.224   4.330   5.605  0.6625  1.7254  0.0977
  204TIP3    H2  577   5.307   4.207   5.575 -1.6706  0.0746  0.1645
  205TIP3   OH2  578   3.523   1.995   5.011  0.0632  0.0434  0.2833
  205TIP3    H1  579   3.520   1.907   4.972  0.9828  0.2250 -0.2212
  205TIP3    H2  580   3.463   1.990   5.085  0.3625 -1.1308  0.4704
  206TIP3   OH2  581   4.021   3.099   1.881  0.3179 -0.4539 -0.3217
  206TIP3    H1  582   4.022   3.104   1.977  2.3440  1.5505 -0.3450
  206TIP3    H2  583   4.100   3.050   1.860 -1.1629 -2.6568 -0.9909
  207TIP3   OH2  584   4.696   3.374   1.350 -0.5648 -0.2371 -0.2714
  207TIP3    H1  585   4.629   3.393   1.416 -1.7689 -1.2984 -1.1431
  207TIP3    H2  586   4.766   3.331   1.398 -1.0738 -0.2841  0.4357
  208TIP3   OH2  587   1.413   6.340   5.523  0.0235 -0.8069  0.0457
  208TIP3    H1  588   1.343   6.376   5.578  0.7770 -0.4944  0.8082
  208TIP3    H2  589   1.488   6.332   5.581  0.6696 -1.0273 -0.7992
  209TIP3   OH2  590   0.736   4.574   0.592  0.4137  0.2347 -0.2526
  209TIP3    H1  591   0.791   4.629   0.537  1.7826 -1.7678 -0.9891
  209TIP3    H2  592   0.794   4.504   0.622 -1.0384 -0.3649  1.3430
  210TIP3   OH2  593   2.772   2.760   1.465  0.6905 -0.6083  0.0846
  210TIP3    H1  594   2.762   2.752   1.370  1.7358 -2.4581  0.0692
  210TIP3    H2  595   2.721   2.687   1.501  1.8133 -1.0722  0.8086
  211TIP3   OH2  596   3.925   0.657   0.257 -0.2068  0.2227  0.2708
  211TIP3    H1  597   3.840   0.692   0.232 -0.1194  0.6431  0.5518
  211TIP3    H2  598   3.908   0.600   0.332 -0.2993 -0.0618  0.0377
  212TIP3   OH2  599   0.145   3.077   3.735 -0.0726 -0.1949  0.0968
  212TIP3    H1  600   0.109   3.000   3.778 -0.6893 -0.1320 -0.2989
  212TIP3    H2  601   0.164   3.049   3.646 -2.1300  0.6051 -0.6471
  213TIP3   OH2  602   1.386   4.509   1.511 -0.1847  0.0386 -0.2956
  213TIP3    H1  603   1.423   4.463   1.585 -1.3129 -0.1962  0.1424
  213TIP3    H2  604   1.329   4.575   1.549  0.2098  0.7796 -0.9415
  214TIP3   OH2  605   0.653   5.743   1.288  0.0948 -0.6193  0.1849
  214TIP3    H1  606   0.701   5.806   1.235  1.2092  1.0932  3.0192
  214TIP3    H2  607   0.718   5.678   1.313 -0.5640 -1.7630 -0.9389
  215TIP3   OH2  608   6.123   0.071   2.742 -0.4525  0.4248 -0.3900
  215TIP3    H1  609   6.036   0.047   2.772  0.3639 -1.3007  0.7575
  215TIP3    H2  610   6.163   0.116   2.817 -0.5181  1.7623 -1.1169
  216TIP3   OH2  611   0.379   4.256   2.804  0.1252  0.0043 -0.7685
  216TIP3    H1  612   0.412   4.335   2.847  0.5611 -0.2509 -0.6233
  216TIP3    H2  613   0.320   4.289   2.736 -1.4844  0.3983  0.7238
  217TIP3   OH2  614   4.068   3.345   0.528 -0.2053 -0.1867 -0.0883
  217TIP3    H1  615   4.116   3.425   0.549 -1.6318  1.1111 -1.5430
  217TIP3    H2  616   3.980   3.359   0.565 -1.4963  0.4159 -3.0845
  218TIP3   OH2  617   0.952   3.589   1.135 -0.2160  0.5432 -0.4416
  218TIP3    H1  618   0.879   3.530   1.155  0.1261 -0.0395 -0.8836
  218TIP3    H2  619   0.945   3.605   1.041  0.5366  0.0507 -0.5903
  219TIP3   OH2  620   0.250   1.859   0.962  0.1043 -0.1426  0.6789
  219TIP3    H1  621   0.330   1.806   0.961 -0.3404 -0.8419  0.8100
  219TIP3    H2  622   0.229   1.872   0.869  0.9690  0.9989  0.6282
  220TIP3   OH2  623   3.638   5.210   2.484 -0.7359  0.3720 -0.4574
  220TIP3    H1  624   3.663   5.302   2.485 -2.2689  0.8494 -1.5756
  220TIP3    H2  625   3.560   5.206   2.539  0.5721 -0.7146  1.4115
  221TIP3   OH2  626   0.657   6.184   1.075 -0.2370  0.4577  0.1938
  221TIP3    H1  627   0.593   6.253   1.094  0.2102  0.9584 -0.0645
  221TIP3    H2  628   0.727   6.230   1.029 -0.3338 -0.3467 -0.7712
  222TIP3   OH2  629   4.304   1.981   1.559 -0.1420 -0.4024 -0.4626
  222TIP3    H1  630   4.385   2.029   1.576 -0.7701  0.3311  0.6280
  222TIP3    H2  631   4.322   1.892   1.590 -0.7222  0.5105  2.8577
  223TIP3   OH2  632   0.380   0.073   5.478  0.2703 -0.9911 -0.4010
  223TIP3    H1  633   0.357  -0.018   5.459 -0.6082 -0.9386  0.3397
  223TIP3    H2  634   0.337   0.124   5.409  0.1211 -1.0768 -0.3706
  224TIP3   OH2  635   5.419   5.845   2.728  0.1160 -0.0879 -0.2142
  224TIP3    H1  636   5.452   5.873   2.642  0.4300  0.0752 -0.0400
  224TIP3    H2  637   5.461   5.903   2.790 -3.3253  2.7565 -0.2068
  225TIP3   OH2  638   2.570   0.141   3.079  0.0047  0.1974 -0.3497
  225TIP3    H1  639   2.496   0.154   3.019 -0.6549 -2.9004 -0.3550
  225TIP3    H2  640   2.642   0.114   3.022  0.3955  0.5932 -0.0553
  226TIP3   OH2  641   0.375   4.478   4.360  0.7235  0.0278 -0.3532
  226TIP3    H1  642   0.396   4.443   4.274 -1.3768  1.7689 -1.6851
  226TIP3    H2  643   0.384   4.573   4.351  0.1158  0.2786  1.2528
  227TIP3   OH2  644   1.705   2.524   2.319  0.0391  0.1217  0.2121
  227TIP3    H1  645   1.611   2.525   2.302 -0.1810  1.1001  1.3325
  227TIP3    H2  646   1.745   2.535   2.233 -0.9508  2.2365 -0.0495
  228TIP3   OH2  647   7.111   2.185   0.318 -0.2675  0.1258  0.3199
  228TIP3    H1  648   7.172   2.249   0.356  1.4532 -1.6906  0.8256
  228TIP3    H2  649   7.138   2.180   0.226  0.3932 -0.6957  0.5494
  229TIP3   OH2  650   3.649   4.244   0.582 -0.2547 -0.1327  0.4397
  229TIP3    H1  651   3.554   4.233   0.582 -0.2916 -0.2814 -1.7578
  229TIP3    H2  652   3.664   4.329   0.540  0.5534  1.2392  3.2530
  230TIP3   OH2  653   2.031   4.674   3.086  0.3227  0.3450 -0.2076
  230TIP3    H1  654   2.115   4.629   3.082  0.6366  0.8436  0.5619
  230TIP3    H2  655   2.009   4.677   3.179 -0.0427  1.1340 -0.3068
  231TIP3   OH2  656   4.997   5.903   2.164  0.3480 -0.4397  0.1351
  231TIP3    H1  657   5.056   5.830   2.183  0.5750 -0.0466  1.0145
  231TIP3    H2  658   4.986   5.901   2.069  0.2275 -1.7049  0.1577
  232TIP3   OH2  659   3.592   6.576   0.477 -0.4898  0.0444 -0.0831
  232TIP3    H1  660   3.618   6.635   0.548 -1.6941  1.1510 -0.5132
  232TIP3    H2  661   3.508   6.540   0.505 -1.1917  0.8194 -1.0930
  233TIP3   OH2  662   1.408   4.584   4.246 -1.0305 -0.3770  0.3187
  233TIP3    H1  663   1.437   4.566   4.157 -0.0984 -1.6406  0.8442
  233TIP3    H2  664   1.486   4.570   4.300 -1.3912  1.0649  1.2813
  234TIP3   OH2  665   0.597   3.384   0.360 -0.0553 -0.4596 -0.1425
  234TIP3    H1  666   0.541   3.419   0.292 -0.8352 -2.6415 -0.7227
  234TIP3    H2  667   0.639   3.460   0.399 -1.3985  1.0236 -1.4694
  235TIP3   OH2  668   1.838   1.613   1.443  0.0280 -0.4761  0.1320
  235TIP3    H1  669   1.920   1.569   1.424  1.1262  1.4153  0.2351
  235TIP3    H2  670   1.855   1.662   1.524 -1.5162 -0.7906  0.6888
  236TIP3   OH2  671   1.604   2.364   2.718 -0.7762 -0.2417  0.3551
  236TIP3    H1  672   1.654   2.379   2.638 -1.1007  0.3405  0.2538
  236TIP3    H2  673   1.615   2.270   2.736  0.5416 -0.0829  0.4783
  237TIP3   OH2  674   0.791   3.280   5.056  0.5083 -0.4873 -0.3332
  237TIP3    H1  675   0.845   3.353   5.086 -0.0845  0.2248 -0.9501
  237TIP3    H2  676   0.703   3.300   5.090  0.1858 -0.5181 -1.1349
  238TIP3   OH2  677   1.478   2.013   5.188  0.3590 -0.2566 -0.9925
  238TIP3    H1  678   1.390   1.990   5.158  0.2169  0.3667 -1.0645
  238TIP3    H2  679   1.464   2.054   5.274  0.5619 -0.0178 -1.0717
  239TIP3   OH2  680   6.182   0.705   1.939 -0.8619 -0.7422  0.1166
  239TIP3    H1  681   6.165   0.725   1.847 -1.4631 -1.0300  0.1592
  239TIP3    H2  682   6.177   0.610   1.944 -0.3199 -0.7608  0.3523
  240TIP3   OH2  683   1.478   6.051   4.457  0.6572 -0.4631  0.3732
  240TIP3    H1  684   1.465   5.993   4.532 -0.1319 -1.9726 -0.8478
  240TIP3    H2  685   1.562   6.022   4.419  0.6289 -0.3067  0.1910
  241TIP3   OH2  686   2.956   3.196   5.788 -0.4821 -0.2316  0.5433
  241TIP3    H1  687   3.008   3.189   5.868  0.9776 -1.2654 -0.4425
  241TIP3    H2  688   2.959   3.289   5.766  0.9443 -0.2530  0.5413
  242TIP3   OH2  689   6.788   3.888   4.462 -0.1326 -0.4790  0.2593
  242TIP3    H1  690   6.858   3.895   4.397  0.9151 -2.5609  1.0581
  242TIP3    H2  691   6.817   3.943   4.535  0.0518 -0.3210  0.0646
  243TIP3   OH2  692   1.741   2.224   0.501  0.5258  0.2634  0.5885
  243TIP3    H1  693   1.802   2.224   0.427 -0.7999 -0.5638 -0.5472
  243TIP3    H2  694   1.661   2.185   0.466 -1.0098  2.1706  1.7593
  244TIP3   OH2  695   3.892   1.927   1.906 -0.0808 -0.0334 -0.1424
  244TIP3    H1  696   3.938   1.949   1.824 -0.5101  0.3299 -0.2852
  244TIP3    H2  697   3.809   1.889   1.877  0.9184 -2.6143  0.0512
  245TIP3   OH2  698   0.350   4.874   1.308  0.7097 -0.2118  0.3672
  245TIP3    H1  699   0.275   4.828   1.272  1.8289 -1.1321 -0.8552
  245TIP3    H2  700   0.359   4.952   1.253  0.6363 -0.0868  0.5317
  246TIP3   OH2  701   6.359   5.271   0.541  0.3530 -0.0909  0.1788
  246TIP3    H1  702   6.290   5.209   0.564 -0.5575  0.4974 -0.8522
  246TIP3    H2  703   6.398   5.236   0.461  1.6995 -0.7481  1.0967
  247TIP3   OH2  704   1.860   5.284   5.633 -0.3833  0.2551 -0.1065
  247TIP3    H1  705   1.872   5.376   5.611 -0.3676  0.2329 -0.1939
  247TIP3    H2  706   1.945   5.244   5.616 -0.7658 -0.0446 -1.4429
  248TIP3   OH2  707   2.025   6.773   0.907 -0.4468 -0.7817  0.4822
  248TIP3    H1  708   1.944   6.726   0.889 -0.3705 -1.5174  1.8910
  248TIP3    H2  709   2.083   6.749   0.834 -1.9497  1.0458 -1.4307
  249TIP3   OH2  710   4.399   5.920   2.587 -0.6044 -0.4937  0.5244
  249TIP3    H1  711   4.305   5.927   2.573 -0.6297  2.6771  1.4521
  249TIP3    H2  712   4.438   5.962   2.510 -0.1800  1.5830  1.7740
  250TIP3   OH2  713   5.003   4.848   5.016  0.1222  0.2790  0.7674
  250TIP3    H1  714   5.011   4.814   4.928  0.4776 -0.3829  1.0515
  250TIP3    H2  715   5.029   4.940   5.009 -0.0161  0.2714  0.1568
  251TIP3   OH2  716   1.377   0.350   5.922 -0.1551 -0.3844  0.4531
  251TIP3    H1  717   1.437   0.293   5.873 -0.6829  0.0844 -0.7839
  251TIP3    H2  718   1.298   0.351   5.869 -0.2654  1.2436  0.6162
  252TIP3   OH2  719   0.632   1.441   0.746  0.4337  0.5130  0.1363
  252TIP3    H1  720   0.654   1.440   0.839 -1.0908 -3.2515  0.6422
  252TIP3    H2  721   0.701   1.389   0.705 -1.1513 -1.5980 -0.0320
  253TIP3   OH2  722   4.592   3.084   0.047  0.0999  0.0452 -0.3379
  253TIP3    H1  723   4.686   3.077   0.036  0.0627 -2.6161  0.3403
  253TIP3    H2  724   4.580   3.131   0.129  0.8708 -0.0989 -0.1383
  254TIP3   OH2  725   4.426   1.013   1.032  0.1983 -0.1535  0.4484
  254TIP3    H1  726   4.520   1.016   1.014  0.3437  1.2236  1.3066
  254TIP3    H2  727   4.418   0.969   1.116  0.1681  0.6021  0.8503
  255TIP3   OH2  728   7.211   3.402   2.619  0.6661  0.4755 -0.4123
  255TIP3    H1  729   7.131   3.443   2.649  1.0281  0.6289  0.3492
  255TIP3    H2  730   7.205   3.312   2.650  1.3612  0.8175  0.7487
  256TIP3   OH2  731   6.199   5.041   1.702  0.3168 -0.2509  0.2186
  256TIP3    H1  732   6.272   5.056   1.642  0.1068  0.7213  0.1880
  256TIP3    H2  733   6.227   4.968   1.756 -0.2848 -2.5655 -2.3510
  257TIP3   OH2  734   2.013   6.159   4.182  0.4863  0.7956  0.0344
  257TIP3    H1  735   2.098   6.136   4.144  1.0060  1.3385  0.8321
  257TIP3    H2  736   2.034   6.218   4.254 -0.5403  0.5574  0.5528
  258TIP3   OH2  737   6.925   1.810   1.346 -0.8296  0.5379 -0.0756
  258TIP3    H1  738   6.989   1.850   1.288 -1.3259 -0.1968 -1.1480
  258TIP3    H2  739   6.953   1.720   1.355 -1.1880  0.4523  0.2057
  259TIP3   OH2  740   6.688   4.919   1.906  0.8901 -0.4003  0.4478
  259TIP3    H1  741   6.625   4.849   1.924  1.0564 -0.5908  0.2905
  259TIP3    H2  742   6.642   4.977   1.845  1.0462 -0.8144 -0.0781
  260TIP3   OH2  743   0.264   4.881   5.617  0.1735 -0.3129  0.1311
  260TIP3    H1  744   0.320   4.853   5.545  0.0400 -2.5113  0.7753
  260TIP3    H2  745   0.310   4.850   5.696 -1.3785 -1.2218  0.7376
  261TIP3   OH2  746   6.106   1.026   4.569  0.2404  0.1333 -0.1095
  261TIP3    H1  747   6.147   1.039   4.484 -0.8560  0.8636 -0.5514
  261TIP3    H2  748   6.165   0.968   4.616  2.1690  1.7596 -0.4047
  262TIP3   OH2  749   5.449   0.244   0.293  0.3865 -0.0317 -0.4019
  262TIP3    H1  750   5.377   0.227   0.233 -1.2103  1.2909  1.0293
  262TIP3    H2  751   5.486   0.327   0.264  1.1959 -0.5708 -0.9635
  263TIP3   OH2  752   1.462   4.129   5.381  0.8953 -0.2162  0.0013
  263TIP3    H1  753   1.409   4.208   5.371 -1.6317 -1.9783 -2.3854
  263TIP3    H2  754   1.519   4.129   5.304  1.5490 -0.2708  0.4809
  264TIP3   OH2  755   1.590   1.569   5.421 -0.3923 -0.6382  0.0053
  264TIP3    H1  756   1.520   1.599   5.363 -0.2999  0.6381  0.5184
  264TIP3    H2  757   1.670   1.579   5.369 -0.4690 -0.9341 -0.1674
  265TIP3   OH2  758   5.437   0.322   1.782 -0.6321 -1.0071  0.0175
  265TIP3    H1  759   5.497   0.357   1.848 -1.5569 -1.9855  1.4225
  265TIP3    H2  760   5.469   0.234   1.765  0.1189 -0.4783 -1.5465
  266TIP3   OH2  761   6.835   6.008   2.349 -0.7200  0.1567  0.2228
  266TIP3    H1  762   6.886   5.930   2.371  0.9807  0.4883 -2.2285
  266TIP3    H2  763   6.866   6.075   2.411 -0.0111 -0.3366  0.4113
  267TIP3   OH2  764   2.458   5.250   1.091 -0.3323  0.0359  0.1320
  267TIP3    H1  765   2.453   5.264   0.996  0.1450  1.7947  0.3311
  267TIP3    H2  766   2.472   5.337   1.128 -0.3020 -0.6353  1.8215
  268TIP3   OH2  767   6.259   5.780   5.170 -0.4977 -0.4655  0.6720
  268TIP3    H1  768   6.231   5.720   5.240 -1.0560 -1.6269 -0.5096
  268TIP3    H2  769   6.328   5.732   5.124  1.4344  1.1557  1.6925
  269TIP3   OH2  770   4.894   4.672   5.831 -0.6004 -0.1440  0.3571
  269TIP3    H1  771   4.831   4.669   5.759 -0.1331  0.2890 -0.0867
  269TIP3    H2  772   4.843   4.699   5.907 -0.9146  0.4195 -0.0481
  270TIP3   OH2  773   1.291   2.929   5.495  0.1257  0.3666  0.1819
  270TIP3    H1  774   1.212   2.929   5.549  0.1234 -0.9684  0.2241
  270TIP3    H2  775   1.274   2.861   5.429  2.1877 -1.7172  1.6600
  271TIP3   OH2  776   1.686   3.657   2.508 -0.4064 -0.4025 -0.8748
  271TIP3    H1  777   1.688   3.610   2.591  2.4266  1.2513  0.1190
  271TIP3    H2  778   1.708   3.747   2.531  1.1496 -0.0248 -3.4520
  272TIP3   OH2  779   3.446   0.497   4.844  0.1528 -0.5400 -0.1827
  272TIP3    H1  780   3.427   0.440   4.918  0.0102  0.3367  0.4720
  272TIP3    H2  781   3.502   0.444   4.787 -1.9936 -2.2558 -0.8642
  273TIP3   OH2  782   6.830   4.072   4.167  0.4655 -0.3125 -0.2808
  273TIP3    H1  783   6.898   4.028   4.219  2.3792  0.4451 -1.9726
  273TIP3    H2  784   6.872   4.152   4.136 -1.0350 -0.0597 -1.8294
  274TIP3   OH2  785   6.478   3.149   5.162  0.2192  0.8732 -0.0566
  274TIP3    H1  786   6.456   3.103   5.081  0.1470  1.8951 -0.6254
  274TIP3    H2  787   6.570   3.127   5.177  0.3314  0.9504 -0.6021
  275TIP3   OH2  788   4.363   3.401   2.845 -0.3461 -0.4644 -0.0749
  275TIP3    H1  789   4.290   3.414   2.784 -1.7687  0.4173  1.7118
  275TIP3    H2  790   4.359   3.309   2.869  0.6583 -0.9859 -1.7809
  276TIP3   OH2  791   1.039   1.621   1.655  0.6899  0.2242 -0.2076
  276TIP3    H1  792   1.030   1.556   1.724  1.2647  0.9485  0.5700
  276TIP3    H2  793   1.131   1.615   1.629 -0.0513 -1.9249 -2.8435
  277TIP3   OH2  794   3.738   4.880   1.131  0.0868 -0.4913  0.2101
  277TIP3    H1  795   3.742   4.968   1.095 -1.1982 -0.9429 -1.1099
  277TIP3    H2  796   3.803   4.880   1.201  0.4459  1.3487 -0.0809
  278TIP3   OH2  797   0.596   0.557   2.279 -0.1015  0.3155 -0.3665
  278TIP3    H1  798   0.633   0.470   2.293 -1.0466 -0.0952 -0.3468
  278TIP3    H2  799   0.668   0.608   2.243  0.7614 -0.1696  0.6304
  279TIP3   OH2  800   1.435   6.584   4.543 -0.4380  0.0566  0.1370
  279TIP3    H1  801   1.449   6.490   4.549 -1.1038 -0.0077  0.8324
  279TIP3    H2  802   1.489   6.612   4.469  1.3485 -0.5409  1.1535
  280TIP3   OH2  803   3.553   2.889   5.859 -0.4686  0.2346 -0.1487
  280TIP3    H1  804   3.551   2.799   5.892 -0.9829 -0.2083 -1.3428
  280TIP3    H2  805   3.613   2.887   5.785 -0.8235  0.7718 -0.4625
  281TIP3   OH2  806   5.970   5.539   0.673 -0.2794  0.3716  0.0692
  281TIP3    H1  807   6.050   5.573   0.713 -1.4239  2.6471  0.6143
  281TIP3    H2  808   5.933   5.481   0.738 -0.4852  1.5299  1.0161
  282TIP3   OH2  809   0.368   3.831   2.194 -0.3593  0.4554 -0.4829
  282TIP3    H1  810   0.431   3.779   2.243 -0.0496  1.4185  0.1823
  282TIP3    H2  811   0.367   3.792   2.107 -1.3923 -1.6937  0.4310
  283TIP3   OH2  812   6.330   2.619   1.349  0.3532  0.3561 -0.0125
  283TIP3    H1  813   6.247   2.607   1.395 -0.1083 -0.0079 -0.9216
  283TIP3    H2  814   6.363   2.529   1.338 -0.7023  0.1874 -2.4641
  284TIP3   OH2  815   1.741   5.535   3.117  0.1650 -0.7476 -0.1611
  284TIP3    H1  816   1.806   5.582   3.170  1.1680 -1.3010 -0.8689
  284TIP3    H2  817   1.664   5.528   3.174  0.6762  0.0345  0.6468
  285TIP3   OH2  818   1.791   6.007   2.353 -0.1364  0.3658 -0.6790
  285TIP3    H1  819   1.823   6.037   2.268  2.8443 -2.4893 -0.7754
  285TIP3    H2  820   1.804   6.082   2.411 -0.8966  1.9130 -2.4158
  286TIP3   OH2  821   3.238   5.876   0.799 -0.5650  0.5349 -0.1336
  286TIP3    H1  822   3.225   5.819   0.723  2.1976 -0.4331  0.0054
  286TIP3    H2  823   3.245   5.964   0.762 -1.4987  0.3735 -0.7275
  287TIP3   OH2  824   0.929   1.521   0.156 -0.1150 -0.4456  0.0712
  287TIP3    H1  825   0.900   1.472   0.079 -3.9789  1.1935  0.2528
  287TIP3    H2  826   0.965   1.603   0.121  0.1776 -0.6118 -0.0234
  288TIP3   OH2  827   0.693   6.011   4.498 -0.6397  0.5674 -0.3451
  288TIP3    H1  828   0.710   5.935   4.553  0.4401  0.8776 -0.2213
  288TIP3    H2  829   0.600   6.030   4.510 -0.7514 -0.2820  0.1879
  289TIP3   OH2  830   5.952   5.257   1.149  0.7043 -0.2244  0.1767
  289TIP3    H1  831   6.015   5.188   1.168 -0.0340 -0.6016  1.3540
  289TIP3    H2  832   5.937   5.301   1.233  0.9051  1.1616 -0.4834
  290TIP3   OH2  833   6.025   2.758   0.416 -0.0381  0.6552  0.0416
  290TIP3    H1  834   6.092   2.690   0.420 -0.1511  0.5286 -0.1658
  290TIP3    H2  835   6.062   2.826   0.360 -1.1505 -0.6482 -2.4310
  291TIP3   OH2  836   1.691   6.039   3.035 -0.2689  0.0619 -0.1396
  291TIP3    H1  837   1.600   6.014   3.024 -0.6630  0.7101  1.4056
  291TIP3    H2  838   1.741   5.965   3.000 -1.3804 -0.5760 -0.4117
  292TIP3   OH2  839   4.299   4.693   3.152 -0.1237  0.4242 -0.5871
  292TIP3    H1  840   4.287   4.621   3.090  0.5429 -0.0648 -0.1724
  292TIP3    H2  841   4.307   4.649   3.237 -2.7763  1.1695  0.1240
  293TIP3   OH2  842   6.488   6.166   4.456  0.4285 -0.4788 -0.3125
  293TIP3    H1  843   6.425   6.228   4.421  0.2301 -0.0124  0.8439
  293TIP3    H2  844   6.572   6.193   4.419  0.1319 -0.4336 -0.9749
  294TIP3   OH2  845   0.371   3.952   4.338 -0.2586 -0.1247  0.2215
  294TIP3    H1  846   0.360   4.040   4.373  2.2151  0.2982  0.0462
  294TIP3    H2  847   0.352   3.960   4.245  1.5932  0.6376 -0.1263
  295TIP3   OH2  848   1.784   4.624   2.193  0.1464 -0.2866 -0.1765
  295TIP3    H1  849   1.700   4.588   2.222 -0.8348  1.5983 -0.5153
  295TIP3    H2  850   1.841   4.548   2.186 -1.6060 -1.6762 -0.2397
  296TIP3   OH2  851   1.792   6.706   1.827 -0.4579  0.5996 -0.5685
  296TIP3    H1  852   1.710   6.713   1.876  1.0065  0.5593  2.0935
  296TIP3    H2  853   1.824   6.796   1.823 -0.6247  0.6233 -1.6585
  297TIP3   OH2  854   6.386   4.713   0.410 -0.3780 -0.4149  0.5669
  297TIP3    H1  855   6.295   4.731   0.435 -0.2375  0.8210  0.2501
  297TIP3    H2  856   6.430   4.692   0.492 -0.7651 -0.1698  0.8420
  298TIP3   OH2  857   3.789   5.209   2.051  0.2957  0.3410  0.3341
  298TIP3    H1  858   3.797   5.153   1.973  0.6096 -0.9791  1.2846
  298TIP3    H2  859   3.735   5.159   2.111  0.3830  1.1811  1.1321
  299TIP3   OH2  860   4.454   0.176   5.209  0.2385  0.2556  0.4254
  299TIP3    H1  861   4.490   0.206   5.126  0.3584 -0.7946  0.0816
  299TIP3    H2  862   4.509   0.218   5.276  1.3477 -0.3571 -0.0691
  300TIP3   OH2  863   4.548   0.791   5.211  0.6092  0.3795 -0.6367
  300TIP3    H1  864   4.633   0.755   5.187  0.3189 -0.9123  0.1628
  300TIP3    H2  865   4.553   0.884   5.188  1.8093  0.0758 -1.6792
  301TIP3   OH2  866   1.433   1.495   2.836 -0.0132 -0.1873 -0.2377
  301TIP3    H1  867   1.431   1.571   2.894 -1.1191 -1.2591  1.2082
  301TIP3    H2  868   1.416   1.531   2.749  0.3268  1.3097  0.2879
  302TIP3   OH2  869   1.127   6.146   3.883 -0.3415  0.6081 -0.1902
  302TIP3    H1  870   1.181   6.217   3.918 -0.9541 -0.0436  2.2986
  302TIP3    H2  871   1.043   6.155   3.928 -0.4889 -1.5645  0.0740
  303TIP3   OH2  872   2.330   1.000   3.107  0.0703  0.2932  0.0644
  303TIP3    H1  873   2.299   0.938   3.173  1.4278  0.6282  1.0644
  303TIP3    H2  874   2.424   0.981   3.099  0.1270  0.9646 -1.0040
  304TIP3   OH2  875   5.500   1.402   3.259  0.1443  0.1390 -0.1093
  304TIP3    H1  876   5.431   1.372   3.199  1.5172 -0.9171 -1.2359
  304TIP3    H2  877   5.562   1.449   3.203  0.3314  1.1313  0.8972
  305TIP3   OH2  878   0.352   0.681   0.372 -0.0015 -0.1559  0.7504
  305TIP3    H1  879   0.273   0.652   0.326  0.0223  1.2513 -0.2157
  305TIP3    H2  880   0.332   0.769   0.403  1.7813  0.9674 -1.0826
  306TIP3   OH2  881   6.952   3.272   4.370 -0.1199 -0.6770  0.3660
  306TIP3    H1  882   6.888   3.201   4.363  1.7306 -2.5313  1.2571
  306TIP3    H2  883   6.933   3.313   4.454 -1.1748 -0.0713 -0.1394
  307TIP3   OH2  884   3.591   4.478   0.449  0.2595 -0.0356 -1.0378
  307TIP3    H1  885   3.574   4.525   0.368  1.5355  1.8471 -0.2869
  307TIP3    H2  886   3.505   4.463   0.488 -0.2067  1.4369 -1.4643
  308TIP3   OH2  887   6.819   0.608   4.668 -0.7924  0.0033  0.5430
  308TIP3    H1  888   6.776   0.641   4.747 -0.7000 -0.3839  0.7604
  308TIP3    H2  889   6.771   0.528   4.646 -0.8000  0.0957  0.2208
  309TIP3   OH2  890   1.125   3.172   1.948  0.0734 -0.3397  0.0784
  309TIP3    H1  891   1.143   3.081   1.972  2.8034  0.4722  1.4856
  309TIP3    H2  892   1.049   3.197   2.001  1.0099 -1.0115  1.7845
  310TIP3   OH2  893   4.144   0.116   5.870 -0.2498  0.2690 -0.1775
  310TIP3    H1  894   4.185   0.030   5.867 -0.6316 -0.2442  4.0105
  310TIP3    H2  895   4.050   0.098   5.860 -0.1479  0.5861 -2.0340
  311TIP3   OH2  896   6.907   4.595   2.438  0.6378  0.0231 -0.4570
  311TIP3    H1  897   6.897   4.625   2.348 -0.3258  0.7675 -0.1152
  311TIP3    H2  898   6.889   4.501   2.434  1.2549 -0.0763 -1.1381
  312TIP3   OH2  899   6.411   6.327   4.749  0.3208  0.1834 -0.2766
  312TIP3    H1  900   6.468   6.282   4.687  0.3100 -0.7625  0.3851
  312TIP3    H2  901   6.459   6.408   4.769  0.7233  0.1000 -0.8631
  313TIP3   OH2  902   1.785   2.487   1.140  0.4359  0.3590  0.4078
  313TIP3    H1  903   1.799   2.475   1.046  2.1383  0.8765  0.5585
  313TIP3    H2  904   1.695   2.519   1.147  1.1163  2.9949 -1.3163
  314TIP3   OH2  905   0.792   3.676   1.631  0.1616  0.5245  0.1499
  314TIP3    H1  906   0.774   3.693   1.724 -0.5355  0.8458 -0.0416
  314TIP3    H2  907   0.738   3.739   1.584 -0.6728 -0.6573 -0.5142
  315TIP3   OH2  908   7.219   6.416   3.276 -0.0269 -0.2121  0.8582
  315TIP3    H1  909   7.288   6.482   3.274 -1.3413  1.2190 -0.6778
  315TIP3    H2  910   7.155   6.446   3.211 -1.4464 -2.1850  1.2415
  316TIP3   OH2  911   5.905   4.184   5.415 -0.4463 -0.1050 -0.4630
  316TIP3    H1  912   5.945   4.239   5.482 -0.0729 -1.8852  0.8251
  316TIP3    H2  913   5.894   4.243   5.340  1.1537  1.3813  0.3940
  317TIP3   OH2  914   1.810   5.048   0.901 -0.2283  0.0991 -0.2781
  317TIP3    H1  915   1.849   5.125   0.859 -0.8052  0.7596  0.3854
  317TIP3    H2  916   1.716   5.062   0.893 -0.3589 -1.1128 -1.1849
  318TIP3   OH2  917   4.132   0.135   3.970 -0.1350 -0.0401  0.6054
  318TIP3    H1  918   4.201   0.128   4.036  0.2861  0.6548  0.2578
  318TIP3    H2  919   4.175   0.177   3.896 -1.0265  0.7773  0.5334
  319TIP3   OH2  920   6.647   6.179   4.217 -0.2162  0.3607  0.3915
  319TIP3    H1  921   6.716   6.226   4.170  0.8167 -0.5826  0.9111
  319TIP3    H2  922   6.671   6.087   4.208 -2.6048 -0.1837 -1.2685
  320TIP3   OH2  923   4.893   2.055   5.491  0.2278 -0.6078 -0.0609
  320TIP3    H1  924   4.908   1.965   5.519 -0.1986 -0.6294  0.1127
  320TIP3    H2  925   4.863   2.100   5.571 -0.2269 -0.4807 -0.2977
  321TIP3   OH2  926   5.106   3.796   0.508  0.5896  0.2675 -0.0715
  321TIP3    H1  927   5.188   3.748   0.518  0.3461 -0.2916 -0.6701
  321TIP3    H2  928   5.132   3.888   0.506  1.1966  0.0948 -0.2107
  322TIP3   OH2  929   1.616   4.908   0.614 -0.3802  0.0967  0.7448
  322TIP3    H1  930   1.577   4.822   0.600 -0.0392  0.0776 -0.0803
  322TIP3    H2  931   1.710   4.893   0.616 -0.2864  0.5225  0.0112
  323TIP3   OH2  932   2.571   3.085   0.368 -0.1743 -0.4950 -0.7839
  323TIP3    H1  933   2.656   3.080   0.324  0.5468  1.1572  0.3188
  323TIP3    H2  934   2.522   3.151   0.318 -1.3427 -2.2971 -2.1618
  324TIP3   OH2  935   5.939   5.640   2.813  0.6003  0.0968 -0.1919
  324TIP3    H1  936   5.959   5.548   2.797 -0.6542 -0.1863 -0.2742
  324TIP3    H2  937   5.885   5.639   2.893 -1.1757  0.5161 -1.3230
  325TIP3   OH2  938   5.737   3.716   5.259  0.4308  0.1509  0.0984
  325TIP3    H1  939   5.813   3.764   5.293  0.2526  0.2471  0.3649
  325TIP3    H2  940   5.765   3.685   5.173  0.4153  1.0560 -0.2373
  326TIP3   OH2  941   6.053   5.851   0.883  0.6568  0.0902 -0.3930
  326TIP3    H1  942   5.979   5.789   0.888  1.9780 -1.5743 -0.6330
  326TIP3    H2  943   6.102   5.824   0.806  1.7818  0.8563  0.0282
  327TIP3   OH2  944   5.748   2.892   1.695  0.0834 -0.2770  0.3282
  327TIP3    H1  945   5.702   2.976   1.693  0.0620 -0.2579  1.3678
  327TIP3    H2  946   5.776   2.879   1.604 -1.3747  0.0340 -0.1943
  328TIP3   OH2  947   0.818   1.691   4.393 -0.4423  0.1531  0.3482
  328TIP3    H1  948   0.807   1.599   4.416  0.9160  0.3122  1.7771
  328TIP3    H2  949   0.866   1.729   4.467 -0.3298  1.8472 -0.5458
  329TIP3   OH2  950   0.980   1.290   3.181  0.3986 -0.4509  0.1719
  329TIP3    H1  951   0.925   1.212   3.189  0.3645 -0.4358  0.0813
  329TIP3    H2  952   1.066   1.261   3.212 -0.1116  0.0462  2.2625
  330TIP3   OH2  953   6.726   5.190   0.240 -0.5471  0.5797 -0.5824
  330TIP3    H1  954   6.774   5.108   0.256 -0.9056  0.8581  2.5305
  330TIP3    H2  955   6.790   5.259   0.257 -0.6000  0.9933 -1.9363
  331TIP3   OH2  956   0.357   0.328   0.125 -0.5151  0.1837  0.7305
  331TIP3    H1  957   0.314   0.292   0.203  0.8750 -0.3127  1.2892
  331TIP3    H2  958   0.288   0.380   0.082 -1.7590 -0.8392  1.4110
  332TIP3   OH2  959   3.825   2.274  -0.006  0.3083 -0.4734 -0.2591
  332TIP3    H1  960   3.764   2.347  -0.012  1.2049  0.2298 -1.3390
  332TIP3    H2  961   3.907   2.315   0.022  0.4473 -1.3038  0.5738
  333TIP3   OH2  962   0.883   3.281   3.323  0.3715 -0.0845 -0.1453
  333TIP3    H1  963   0.940   3.226   3.270  1.0852  1.0242 -0.5543
  333TIP3    H2  964   0.943   3.338   3.372 -0.3502  0.3548  0.2512
  334TIP3   OH2  965   5.318   1.256   2.399 -0.0738 -0.4329 -0.2943
  334TIP3    H1  966   5.303   1.266   2.305 -0.6704  0.7152 -0.0888
  334TIP3    H2  967   5.318   1.345   2.433 -0.0024 -0.8441  0.8215
  335TIP3   OH2  968   3.938   2.587   1.034  0.0510 -0.3921 -0.5217
  335TIP3    H1  969   3.914   2.539   0.954  0.2664 -1.0221 -0.2189
  335TIP3    H2  970   3.971   2.671   1.003  1.0032 -0.9873 -1.1539
  336TIP3   OH2  971   0.777   6.306   5.594 -0.1521  0.3077 -0.6562
  336TIP3    H1  972   0.782   6.400   5.613  0.3668  0.2303 -0.3898
  336TIP3    H2  973   0.709   6.298   5.527  0.6140  1.0030 -1.5355
  337TIP3   OH2  974   2.308   5.407   2.076  0.1023  0.2071  0.0648
  337TIP3    H1  975   2.293   5.443   2.164 -0.0767  1.1472 -0.3402
  337TIP3    H2  976   2.229   5.356   2.058 -0.7587  1.6320 -0.3289
  338TIP3   OH2  977   1.243   0.892   2.890 -0.1846 -0.0726  0.1601
  338TIP3    H1  978   1.319   0.863   2.941  0.9351 -0.9289 -1.8579
  338TIP3    H2  979   1.217   0.975   2.930  0.9332 -0.4515  1.7638
  339TIP3   OH2  980   5.694   1.878   0.155 -0.0355 -0.1084 -0.0532
  339TIP3    H1  981   5.703   1.958   0.104 -0.4701 -0.5292 -0.7956
  339TIP3    H2  982   5.600   1.864   0.161 -0.0010 -0.0427  0.9200
  340TIP3   OH2  983   5.590   3.483   0.443  0.4598  0.3454 -0.5306
  340TIP3    H1  984   5.551   3.495   0.356 -0.8866  0.5351  0.0834
  340TIP3    H2  985   5.677   3.522   0.435  0.4961  0.0408 -1.8956
  341TIP3   OH2  986   5.553   6.774   3.774 -0.5302  0.5160  0.0262
  341TIP3    H1  987   5.579   6.836   3.705 -1.4536  0.8631 -0.0276
  341TIP3    H2  988   5.605   6.695   3.756 -1.9920 -0.0437 -2.1596
  342TIP3   OH2  989   3.530   1.769   4.814 -0.1977 -0.3985 -0.2932
  342TIP3    H1  990   3.475   1.796   4.741 -0.3266 -1.1148 -0.4659
  342TIP3    H2  991   3.562   1.683   4.790  0.0132 -0.5092  0.3548
  343TIP3   OH2  992   0.996   3.802   0.379 -0.9085  0.0995  0.1328
  343TIP3    H1  993   0.952   3.771   0.300  0.1498  0.2530 -0.5334
  343TIP3    H2  994   1.083   3.829   0.349 -0.6102  0.4731  1.2941
  344TIP3   OH2  995   7.090   5.854   1.515 -0.0463  0.5946 -0.2946
  344TIP3    H1  996   7.178   5.885   1.495 -0.4852  1.4341 -1.0237
  344TIP3    H2  997   7.048   5.844   1.429 -0.5256 -0.2167  0.0242
  345TIP3   OH2  998   2.180   4.267   0.728  0.9540 -0.2386 -0.0450
  345TIP3    H1  999   2.129   4.219   0.793 -3.1795 -0.7808 -3.2769
  345TIP3    H2 1000   2.209   4.201   0.666  0.5049  0.7347 -1.3425
  346TIP3   OH2 1001   4.665   0.028   3.960  0.2682 -0.1946  0.1662
  346TIP3    H1 1002   4.628  -0.033   4.025  1.0321  0.9042  1.7085
  346TIP3    H2 1003   4.612   0.014   3.882 -0.0490 -2.3167  0.6734
  347TIP3   OH2 1004   2.762   0.542   4.469 -0.3562 -0.2277  0.3125
  347TIP3    H1 1005   2.766   0.584   4.383  1.0230 -0.6350  0.1440
  347TIP3    H2 1006   2.684   0.578   4.510 -1.1080 -0.0973 -1.1473
  348TIP3   OH2 1007   4.565   3.151   5.539 -0.4334  0.5284  0.1128
  348TIP3    H1 1008   4.548   3.191   5.625 -1.3388 -2.3749  1.4329
  348TIP3    H2 1009   4.644   3.100   5.552  1.5849  2.8885 -1.9729
  349TIP3   OH2 1010   2.378   4.044   3.737 -0.1403 -0.4182 -0.4136
  349TIP3    H1 1011   2.410   4.010   3.821 -1.5086  1.7299  1.0898
  349TIP3    H2 1012   2.342   3.968   3.692  1.5170 -1.8075  0.4591
  350TIP3   OH2 1013   2.402   4.408   5.792  0.2352  0.5414  0.3446
  350TIP3    H1 1014   2.392   4.501   5.814  1.1612  0.9584 -0.8501
  350TIP3    H2 1015   2.496   4.398   5.777 -0.0193 -0.2974 -0.7738
  351TIP3   OH2 1016   3.478   6.274   3.168 -0.0792  0.1359  0.4610
  351TIP3    H1 1017   3.433   6.339   3.114 -1.5036  1.1923  2.7670
  351TIP3    H2 1018   3.521   6.325   3.237  0.9197 -1.2108  0.8759
  352TIP3   OH2 1019   5.907   4.242   0.707 -0.3704  0.1879  0.4439
  352TIP3    H1 1020   5.964   4.319   0.708  0.7093 -0.5877  1.2073
  352TIP3    H2 1021   5.918   4.203   0.794  0.7119 -1.9344 -0.5533
  353TIP3   OH2 1022   0.522   1.769   0.971  0.5409  0.1344 -0.2893
  353TIP3    H1 1023   0.579   1.813   1.034  1.0836 -0.4492 -0.3709
  353TIP3    H2 1024   0.568   1.776   0.888  0.9272 -1.0885 -0.2044
  354TIP3   OH2 1025   4.305   3.845   3.218  0.0791 -0.3415 -0.0571
  354TIP3    H1 1026   4.395   3.842   3.250 -0.1711  1.0340  0.8830
  354TIP3    H2 1027   4.252   3.854   3.298 -0.8714 -0.7699 -0.6189
  355TIP3   OH2 1028   1.079   6.230   0.343 -0.1145  0.0798  0.3557
  355TIP3    H1 1029   1.150   6.178   0.307  0.6626  0.5305  1.2041
  355TIP3    H2 1030   1.002   6.205   0.291  0.3763 -1.3802  0.2943
  356TIP3   OH2 1031   3.966   4.321   0.775 -0.3964 -0.0580 -0.1373
  356TIP3    H1 1032   4.061   4.324   0.787 -0.2975 -2.0161 -0.0470
  356TIP3    H2 1033   3.951   4.353   0.686  0.6130 -1.9466 -1.0370
  357TIP3   OH2 1034   1.228   3.734   3.422 -0.2326 -0.0129 -0.2145
  357TIP3    H1 1035   1.257   3.789   3.495  0.9007 -2.1196  1.0399
  357TIP3    H2 1036   1.181   3.662   3.464 -2.0538  0.1670 -1.8219
  358TIP3   OH2 1037   2.477   2.083   4.036 -0.1134  0.3922 -0.0779
  358TIP3    H1 1038   2.488   2.000   3.988 -0.3747  0.1081  0.3433
  358TIP3    H2 1039   2.564   2.122   4.037  0.4138 -0.7217  1.2242
  359TIP3   OH2 1040   4.146   1.508   0.077 -0.3334 -0.1607  0.7714
  359TIP3    H1 1041   4.137   1.603   0.070  1.4956  0.0039  0.0341
  359TIP3    H2 1042   4.062   1.473   0.047 -1.0092  1.2178  1.0099
  360TIP3   OH2 1043   0.344   6.159   4.691  0.3149 -0.5403  0.0727
  360TIP3    H1 1044   0.331   6.064   4.693 -0.9379 -0.3692  0.7050
  360TIP3    H2 1045   0.276   6.191   4.632  0.7673 -0.0389 -0.1782
  361TIP3   OH2 1046   5.555   1.363   0.937 -0.0394  0.2382 -0.0331
  361TIP3    H1 1047   5.611   1.317   1.000 -0.0638 -0.4772 -0.5190
  361TIP3    H2 1048   5.577   1.455   0.948 -0.8600  0.2435  1.8265
  362TIP3   OH2 1049   3.170   4.519   1.695 -0.2013 -0.1484  0.1006
  362TIP3    H1 1050   3.081   4.485   1.696 -0.6624  0.8949 -1.7642
  362TIP3    H2 1051   3.215   4.467   1.628  0.1641  0.3506 -0.0492
  363TIP3   OH2 1052   2.076   6.219   4.644 -0.1420 -0.1373  0.5372
  363TIP3    H1 1053   2.049   6.290   4.586 -0.9073  1.1407  2.3724
  363TIP3    H2 1054   2.139   6.168   4.592 -1.6674  0.2089 -1.8264
  364TIP3   OH2 1055   0.859   3.941   0.547 -0.0589  0.0020 -0.6560
  364TIP3    H1 1056   0.924   3.912   0.483 -0.1360  0.5194 -0.9743
  364TIP3    H2 1057   0.778   3.898   0.521 -0.4547  1.3791 -1.8361
  365TIP3   OH2 1058   3.872   2.962   1.053  0.1688  0.1567 -0.4027
  365TIP3    H1 1059   3.967   2.958   1.044  0.0883  0.9721 -1.9549
  365TIP3    H2 1060   3.844   3.027   0.988 -1.7164 -2.1842 -2.1107
  366TIP3   OH2 1061   4.751   1.197   5.067 -0.0915  0.1046  0.5517
  366TIP3    H1 1062   4.749   1.288   5.095  0.4506  0.0604  0.7421
  366TIP3    H2 1063   4.764   1.200   4.972 -1.4087  0.2455  0.3576
  367TIP3   OH2 1064   4.597   3.330   2.294 -0.5906 -0.2368  0.2819
  367TIP3    H1 1065   4.506   3.335   2.264 -1.3599 -0.0583  2.4364
  367TIP3    H2 1066   4.648   3.312   2.215 -2.1022  2.9015 -1.5787
  368TIP3   OH2 1067   2.885   5.739   5.411  0.0013 -0.5234  0.2053
  368TIP3    H1 1068   2.972   5.751   5.450  0.4056 -0.3937 -0.6918
  368TIP3    H2 1069   2.894   5.777   5.323  0.0211 -3.3975 -1.1471
  369TIP3   OH2 1070   3.000   4.618   2.632  0.3729  0.1420 -0.5048
  369TIP3    H1 1071   2.917   4.611   2.584  0.1156 -0.9345  0.0828
  369TIP3    H2 1072   3.045   4.536   2.614  1.4493  0.8280 -1.0375
  370TIP3   OH2 1073   0.202   0.214   1.406 -0.2732  0.0613  0.0582
  370TIP3    H1 1074   0.154   0.289   1.441 -0.8346  0.0939 -0.7482
  370TIP3    H2 1075   0.134   0.148   1.391  0.0407 -0.1630 -0.3877
  371TIP3   OH2 1076   5.629   2.346   1.741 -0.0544 -0.5886  0.0850
  371TIP3    H1 1077   5.551   2.380   1.697 -0.2996 -0.9981  0.1951
  371TIP3    H2 1078   5.640   2.402   1.818 -0.4258 -0.7216  0.2385
  372TIP3   OH2 1079   2.252   2.416   2.389 -0.0470  0.3020 -0.5762
  372TIP3    H1 1080   2.156   2.419   2.387 -0.1791 -1.0704  1.1854
  372TIP3    H2 1081   2.277   2.472   2.463  0.2779 -1.6542  0.8733
  373TIP3   OH2 1082   3.979   1.693   1.344 -0.4027 -0.6499 -0.2211
  373TIP3    H1 1083   4.072   1.713   1.340 -0.6065  0.2201 -0.7349
  373TIP3    H2 1084   3.949   1.697   1.254 -1.2988  0.8915  0.1131
  374TIP3   OH2 1085   4.529   2.325   5.662  0.3535 -0.7157  0.5095
  374TIP3    H1 1086   4.455   2.384   5.674 -0.4325 -0.9120 -2.6084
  374TIP3    H2 1087   4.493   2.237   5.676  0.3522 -0.7296  0.4189
  375TIP3   OH2 1088   6.144   4.820   2.216 -0.0298  0.2287  0.2763
  375TIP3    H1 1089   6.105   4.778   2.292  1.7788 -0.6650  0.7578
  375TIP3    H2 1090   6.178   4.748   2.163 -0.2781  0.9022 -0.8559
  376TIP3   OH2 1091   2.744   0.421   4.012 -0.0855  0.2659 -0.0338
  376TIP3    H1 1092   2.677   0.366   3.972  0.6329 -0.2332 -0.5737
  376TIP3    H2 1093   2.710   0.510   4.003 -0.4316  0.0644 -0.7823
  377TIP3   OH2 1094   3.173   2.555   5.161  0.0645 -0.2212 -0.1340
  377TIP3    H1 1095   3.100   2.595   5.115 -1.1199 -2.2697 -0.1493
  377TIP3    H2 1096   3.250   2.603   5.131 -1.2526  2.1504  0.0613
  378TIP3   OH2 1097   0.800   2.699   4.814 -0.0717  0.2534 -0.2824
  378TIP3    H1 1098   0.760   2.754   4.881 -0.6450  0.3930 -0.7262
  378TIP3    H2 1099   0.859   2.757   4.767 -0.0018  0.2659 -0.1780
  379TIP3   OH2 1100   3.639   5.918   1.411  0.7874 -0.2379  0.1312
  379TIP3    H1 1101   3.728   5.892   1.387 -0.0528  0.9989 -5.8047
  379TIP3    H2 1102   3.651   5.991   1.472  3.7904 -0.1116 -0.4635
  380TIP3   OH2 1103   0.142   2.227   2.251  0.2420 -0.0788 -0.2528
  380TIP3    H1 1104   0.062   2.227   2.199  0.2148 -1.5595 -0.2490
  380TIP3    H2 1105   0.208   2.265   2.192 -0.3332  0.6926 -0.4271
  381TIP3   OH2 1106   0.047   3.779   2.501  0.0918  0.5016  0.3483
  381TIP3    H1 1107   0.115   3.845   2.492  1.4802 -0.8218  0.7278
  381TIP3    H2 1108   0.046   3.758   2.594 -0.9788  0.6178  0.3802
  382TIP3   OH2 1109   1.961   0.669   4.486 -0.2184  0.3342  0.0513
  382TIP3    H1 1110   1.991   0.756   4.512  1.9727 -0.5672  0.7380
  382TIP3    H2 1111   1.963   0.671   4.390 -0.5531  1.1510  0.0543
  383TIP3   OH2 1112   5.798   5.522   2.367 -0.6497 -0.1094 -0.0171
  383TIP3    H1 1113   5.747   5.441   2.367 -2.9497  1.1651  3.0000
  383TIP3    H2 1114   5.759   5.574   2.297 -0.2069 -0.9653 -0.9271
  384TIP3   OH2 1115   4.457   5.179   5.061  0.1993 -0.2679 -0.3856
  384TIP3    H1 1116   4.492   5.126   5.132 -0.4763 -1.2843 -0.7919
  384TIP3    H2 1117   4.362   5.174   5.072  0.0801  2.2912  0.5950
  385TIP3   OH2 1118   2.830   4.201   1.198  0.6475 -0.0879 -0.3135
  385TIP3    H1 1119   2.738   4.206   1.224  0.5818 -2.4613  0.0425
  385TIP3    H2 1120   2.877   4.246   1.269 -0.1409  0.3616 -0.0594
  386TIP3   OH2 1121   1.203   3.861   0.164 -0.4248  0.0889 -0.1040
  386TIP3    H1 1122   1.164   3.945   0.140 -0.2988  0.6036  1.4066
  386TIP3    H2 1123   1.160   3.797   0.106 -1.7763  0.9511 -0.0950
  387TIP3   OH2 1124   1.626   3.197   4.555 -0.2333 -0.7168 -0.3719
  387TIP3    H1 1125   1.564   3.143   4.604  1.0070 -0.0799  2.0434
  387TIP3    H2 1126   1.707   3.147   4.554 -0.3290 -0.8890 -2.2019
  388TIP3   OH2 1127   5.444   6.578   3.512  0.2341 -0.0772  0.0424
  388TIP3    H1 1128   5.421   6.663   3.551 -0.8135 -0.5086  0.4183
  388TIP3    H2 1129   5.467   6.599   3.422  1.4244  0.7814  0.5190
  389TIP3   OH2 1130   1.251   0.285   4.438  0.0024 -0.6791 -0.0811
  389TIP3    H1 1131   1.290   0.222   4.499 -0.2016 -0.1196  0.6279
  389TIP3    H2 1132   1.213   0.230   4.369  1.7148 -1.2686 -0.6343
  390TIP3   OH2 1133   1.623   1.236   0.583  0.2626  0.2460 -0.1495
  390TIP3    H1 1134   1.694   1.206   0.640 -0.9170 -1.7252  0.3959
  390TIP3    H2 1135   1.580   1.155   0.554 -1.6112  1.3576 -0.6262
  391TIP3   OH2 1136   6.798   4.306   0.847 -0.3285  0.3884 -0.1019
  391TIP3    H1 1137   6.861   4.361   0.799 -0.1734  0.6747  0.4167
  391TIP3    H2 1138   6.851   4.263   0.914 -0.7362  0.8693  0.5333
  392TIP3   OH2 1139   3.361   2.439   4.742  0.1348 -0.1348 -0.5004
  392TIP3    H1 1140   3.393   2.443   4.652  1.5964  3.7636 -0.0228
  392TIP3    H2 1141   3.267   2.453   4.735  0.4025  1.4183 -1.4288
  393TIP3   OH2 1142   4.652   6.096   5.268 -0.4432 -0.1381 -0.1316
  393TIP3    H1 1143   4.724   6.080   5.207  0.0251 -3.0734  1.0526
  393TIP3    H2 1144   4.611   6.010   5.280 -1.6228  0.6834  2.3023
  394TIP3   OH2 1145   1.299   0.936   2.620  0.2089 -0.1251  0.6035
  394TIP3    H1 1146   1.287   0.937   2.715 -2.0377  1.0567  0.3660
  394TIP3    H2 1147   1.317   0.845   2.599 -0.5748 -0.6392  2.0355
  395TIP3   OH2 1148   0.693   1.147   1.753 -0.0916  0.2528  0.2976
  395TIP3    H1 1149   0.783   1.177   1.762  0.4623 -0.5592 -1.7817
  395TIP3    H2 1150   0.666   1.178   1.667 -1.4983 -0.2670  0.5198
  396TIP3   OH2 1151   0.915   3.695   1.964  0.4620 -0.0684  0.1559
  396TIP3    H1 1152   0.991   3.674   1.910 -0.2660  2.1169 -1.8772
  396TIP3    H2 1153   0.940   3.775   2.011 -0.3046  0.2979 -0.0297
  397TIP3   OH2 1154   0.690   2.506   3.320 -0.4611 -0.2741  0.4938
  397TIP3    H1 1155   0.680   2.584   3.376  1.0765 -0.5217  1.1641
  397TIP3    H2 1156   0.724   2.540   3.237 -0.3414 -0.1733  0.5846
  398TIP3   OH2 1157   5.361   6.271   2.769 -0.4239 -0.0710 -0.0490
  398TIP3    H1 1158   5.414   6.210   2.821 -1.1934 -0.5799  0.1641
  398TIP3    H2 1159   5.368   6.355   2.815  1.1020  0.1641 -0.6552
  399TIP3   OH2 1160   4.841   3.600   3.842 -0.2796  0.1283  0.0255
  399TIP3    H1 1161   4.923   3.570   3.802 -0.5222  0.2320 -0.5557
  399TIP3    H2 1162   4.785   3.523   3.845 -0.6743  0.3654 -0.8911
  400TIP3   OH2 1163   7.044   0.652   0.222 -0.8149 -0.2467 -0.1853
  400TIP3    H1 1164   7.053   0.609   0.137 -1.1561 -0.8067  0.0525
  400TIP3    H2 1165   7.038   0.745   0.202 -0.5765 -0.3504 -0.7520
  401TIP3   OH2 1166   1.599   3.553   2.759 -0.5733 -0.3561 -0.6845
  401TIP3    H1 1167   1.578   3.585   2.847  2.0146 -1.5148  0.4704
  401TIP3    H2 1168   1.602   3.458   2.769 -0.9050 -0.5424 -2.2243
  402TIP3   OH2 1169   2.275   6.249   0.335 -0.1566 -0.0293 -0.2066
  402TIP3    H1 1170   2.227   6.331   0.340  0.1606  0.0840  1.5765
  402TIP3    H2 1171   2.207   6.183   0.321 -0.8665  0.1643  1.9665
  403TIP3   OH2 1172   7.063   5.603   1.951  0.4896  0.0366 -0.1311
  403TIP3    H1 1173   7.096   5.652   2.027 -1.1836  0.6863  0.2192
  403TIP3    H2 1174   7.066   5.665   1.879  1.8962 -0.5242 -0.5999
  404TIP3   OH2 1175   3.033   5.099   2.441  0.3325  0.2789  0.0572
  404TIP3    H1 1176   2.994   5.022   2.483 -0.4343  0.1230 -0.9024
  404TIP3    H2 1177   3.060   5.155   2.514  0.7480 -0.8197  0.7676
  405TIP3   OH2 1178   3.201   6.798   1.266 -0.2268 -0.0078  0.1790
  405TIP3    H1 1179   3.177   6.841   1.348 -0.9760  1.6445 -0.8705
  405TIP3    H2 1180   3.273   6.739   1.290  0.0837  1.0138  1.8750
  406TIP3   OH2 1181   6.459   5.828   4.000  0.0039 -0.1271 -0.3146
  406TIP3    H1 1182   6.409   5.860   4.075 -0.4344  0.6167 -0.9093
  406TIP3    H2 1183   6.540   5.793   4.038 -0.6605 -0.7175  0.5950
  407TIP3   OH2 1184   4.294   0.971   1.694  0.1336 -0.3746  0.1083
  407TIP3    H1 1185   4.280   0.884   1.730 -0.9960  0.3585  1.5424
  407TIP3    H2 1186   4.285   0.960   1.600  0.6111 -1.9070  0.2237
  408TIP3   OH2 1187   5.038   5.154   2.674 -0.3141  0.0097 -0.1510
  408TIP3    H1 1188   4.980   5.167   2.599 -1.0658 -1.1413  0.2102
  408TIP3    H2 1189   4.979   5.150   2.749  0.3501  0.0871  0.3847
  409TIP3   OH2 1190   3.228   5.935   4.799 -0.6343  0.4858  0.0997
  409TIP3    H1 1191   3.158   5.908   4.859 -2.4336  1.5975 -1.3918
  409TIP3    H2 1192   3.264   5.853   4.765 -0.6751 -0.1219  1.4627
  410TIP3   OH2 1193   3.452   3.167   2.254  0.3972 -0.0178  0.1081
  410TIP3    H1 1194   3.456   3.110   2.178 -1.4790 -0.1511  0.0522
  410TIP3    H2 1195   3.377   3.225   2.236  0.3859  0.4350  1.5091
  411TIP3   OH2 1196   7.146   6.059   3.611 -0.1205 -0.2514 -0.6870
  411TIP3    H1 1197   7.147   6.135   3.553  0.3493  0.4294  0.1959
  411TIP3    H2 1198   7.208   6.081   3.680 -1.0233 -0.8536  0.3364
  412TIP3   OH2 1199   4.789   4.987   4.006  0.9395 -0.3260  0.2002
  412TIP3    H1 1200   4.847   5.063   4.010  0.0766  0.4151 -0.7363
  412TIP3    H2 1201   4.701   5.025   4.001  0.5539 -1.3481 -1.3495
  413TIP3   OH2 1202   3.488   2.826   2.652 -0.1001  0.2888 -0.4361
  413TIP3    H1 1203   3.411   2.818   2.595  1.2420 -0.6239 -2.2003
  413TIP3    H2 1204   3.454   2.869   2.731 -2.0627  1.5346 -1.8575
  414TIP3   OH2 1205   3.006   5.011   5.149  0.1228 -0.0457  0.6256
  414TIP3    H1 1206   2.925   4.972   5.182 -1.2816 -0.4587 -2.8902
  414TIP3    H2 1207   2.979   5.095   5.111  1.7326  0.7049  1.0190
  415TIP3   OH2 1208   4.777   0.985   2.481 -0.0855 -0.1226 -0.4748
  415TIP3    H1 1209   4.822   0.951   2.404 -0.0968 -1.8393  0.2249
  415TIP3    H2 1210   4.686   0.956   2.471 -1.3644  3.8151 -2.1734
  416TIP3   OH2 1211   1.422   3.191   2.479 -0.2581 -0.1168 -0.2003
  416TIP3    H1 1212   1.402   3.138   2.402  1.7024  0.1337 -0.9558
  416TIP3    H2 1213   1.342   3.190   2.532 -0.9603 -2.0165 -1.2310
  417TIP3   OH2 1214   3.270   5.789   4.078 -0.6522 -0.0310 -0.2483
  417TIP3    H1 1215   3.352   5.807   4.033 -1.7009  2.6297 -1.3220
  417TIP3    H2 1216   3.202   5.809   4.013 -2.1780  0.0716  1.2890
  418TIP3   OH2 1217   5.869   1.320   1.679  0.0920  0.1143 -0.0038
  418TIP3    H1 1218   5.809   1.374   1.731 -1.7901 -1.0982 -0.7982
  418TIP3    H2 1219   5.858   1.352   1.590  1.8851  0.9373  0.0414
  419TIP3   OH2 1220   6.606   1.412   4.847 -0.0224  0.4285 -0.4710
  419TIP3    H1 1221   6.637   1.329   4.812  0.2467  0.0638  0.6218
  419TIP3    H2 1222   6.665   1.478   4.810 -0.6911  0.2479 -1.9407
  420TIP3   OH2 1223   6.167   0.766   3.850  0.3656 -0.2598 -0.1554
  420TIP3    H1 1224   6.169   0.856   3.881 -2.3465 -0.8789  2.3340
  420TIP3    H2 1225   6.100   0.766   3.781 -1.1066 -0.6160  1.2075
  421TIP3   OH2 1226   5.120   5.081   3.121 -0.1872  0.3142 -0.0016
  421TIP3    H1 1227   5.142   5.158   3.067  1.1575 -0.2549 -0.3245
  421TIP3    H2 1228   5.028   5.093   3.144 -0.5874  0.9953 -1.7503
  422TIP3   OH2 1229   0.781   0.527   4.817 -0.0239  0.3329 -0.1062
  422TIP3    H1 1230   0.690   0.553   4.826 -1.5114 -3.2122 -2.6546
  422TIP3    H2 1231   0.803   0.545   4.726  2.0862  1.6272  0.5922
  423TIP3   OH2 1232   4.073   3.258   2.153 -0.0687 -0.2310 -0.2066
  423TIP3    H1 1233   3.999   3.248   2.093 -0.0851 -1.2921 -0.0259
  423TIP3    H2 1234   4.034   3.287   2.235 -0.1709  0.1109 -0.3725
  424TIP3   OH2 1235   1.888   4.364   2.910 -0.1595  0.6215 -0.0506
  424TIP3    H1 1236   1.835   4.443   2.898  0.8930  1.2306 -0.8582
  424TIP3    H2 1237   1.943   4.359   2.831  1.9676  0.8039  1.3287
  425TIP3   OH2 1238   2.688   2.825   4.153  0.0324  0.4393  0.3023
  425TIP3    H1 1239   2.629   2.760   4.114 -1.8358 -0.7710  4.5000
  425TIP3    H2 1240   2.776   2.791   4.135 -0.7491 -1.0493 -1.0158
  426TIP3   OH2 1241   0.142   4.400   2.194  0.1521  0.7596 -0.5059
  426TIP3    H1 1242   0.115   4.317   2.235 -0.2622  1.6239  1.0692
  426TIP3    H2 1243   0.237   4.397   2.196  0.1414  0.2382 -0.6160
  427TIP3   OH2 1244   0.632   0.356   2.550 -0.2615  0.1414  0.0171
  427TIP3    H1 1245   0.570   0.347   2.477 -1.3822  0.0234  0.9475
  427TIP3    H2 1246   0.714   0.380   2.508 -1.1840  1.3935 -1.2007
  428TIP3   OH2 1247   5.301   2.913   5.761 -0.2877 -0.1959  0.5823
  428TIP3    H1 1248   5.237   2.844   5.782  0.3286 -1.8078 -2.3406
  428TIP3    H2 1249   5.383   2.882   5.800 -0.2714 -0.5522  0.2732
  429TIP3   OH2 1250   5.504   0.378   1.138  0.0888 -0.7432 -0.2680
  429TIP3    H1 1251   5.529   0.401   1.228 -1.1394 -0.1123 -0.0652
  429TIP3    H2 1252   5.408   0.374   1.140 -0.0142  0.1907 -1.7681
  430TIP3   OH2 1253   0.274   0.988   1.804  0.6876 -0.0879  0.2786
  430TIP3    H1 1254   0.277   1.032   1.719 -1.2600 -0.0442  0.1998
  430TIP3    H2 1255   0.243   1.055   1.865  1.3272 -0.3346  0.8934
  431TIP3   OH2 1256   0.200   0.171   2.064  0.0838 -0.2048 -0.0170
  431TIP3    H1 1257   0.201   0.168   2.159 -0.0274  0.8930  0.0292
  431TIP3    H2 1258   0.108   0.163   2.040  0.2068 -1.5713 -0.0897
  432TIP3   OH2 1259   4.663   5.963   3.811 -0.0394  0.1656  0.3227
  432TIP3    H1 1260   4.639   5.888   3.757  1.0545  0.3505 -0.4577
  432TIP3    H2 1261   4.734   5.931   3.866 -0.3243  0.3254  0.7920
  433TIP3   OH2 1262   0.111   2.093   1.219 -1.0144 -0.5690 -0.4130
  433TIP3    H1 1263   0.164   2.167   1.191 -1.2503 -0.7215 -1.2704
  433TIP3    H2 1264   0.025   2.109   1.181 -0.6535 -2.0832 -1.9865
  434TIP3   OH2 1265   6.810   3.858   0.566  0.1636  0.0427  0.7829
  434TIP3    H1 1266   6.862   3.860   0.485 -2.3092 -1.8122 -0.9776
  434TIP3    H2 1267   6.791   3.950   0.583  0.8412  0.4982 -0.6908
  435TIP3   OH2 1268   6.185   6.543   3.627 -0.4981  0.2793 -0.9648
  435TIP3    H1 1269   6.169   6.456   3.591 -0.8656 -0.4312  0.7947
  435TIP3    H2 1270   6.098   6.573   3.654  0.0445 -0.7913  2.5668
  436TIP3   OH2 1271   2.624   6.501   2.214  0.4596  0.3032 -0.1119
  436TIP3    H1 1272   2.663   6.552   2.285  0.8119  0.0868 -0.1485
  436TIP3    H2 1273   2.682   6.426   2.203 -0.5688 -0.6108  0.5757
  437TIP3   OH2 1274   0.106   6.008   3.342 -0.4066 -0.1942  0.0843
  437TIP3    H1 1275   0.119   5.939   3.407 -1.7396 -0.5372  0.0195
  437TIP3    H2 1276   0.144   5.972   3.262 -2.7718 -1.7718 -0.4611
  438TIP3   OH2 1277   3.127   6.635   2.364 -0.1989  0.2219  0.3441
  438TIP3    H1 1278   3.148   6.543   2.377  0.6972  0.2458 -0.7836
  438TIP3    H2 1279   3.210   6.681   2.375 -0.3231  0.7231 -0.6348
  439TIP3   OH2 1280   2.146   1.294   0.850  0.0930 -0.0413  0.3876
  439TIP3    H1 1281   2.104   1.219   0.891 -2.1701  1.1657  0.3853
  439TIP3    H2 1282   2.120   1.289   0.758  0.9729  0.0588  0.1242
  440TIP3   OH2 1283   3.319   4.230   3.117 -0.2301  0.1073 -0.1139
  440TIP3    H1 1284   3.402   4.197   3.081  0.0834  0.0045  0.6795
  440TIP3    H2 1285   3.341   4.254   3.207 -1.0692  0.0749  0.1005
  441TIP3   OH2 1286   3.322   1.226   4.667 -0.1323  0.1154  0.6434
  441TIP3    H1 1287   3.262   1.256   4.599  1.1123  0.0920 -0.5126
  441TIP3    H2 1288   3.279   1.150   4.706 -2.2332  1.8766  1.9735
  442TIP3   OH2 1289   6.649   4.933   1.402  0.1751 -0.9661  0.1054
  442TIP3    H1 1290   6.604   4.965   1.324  1.0028  2.2864  0.7971
  442TIP3    H2 1291   6.722   4.881   1.368  0.9727  1.0011 -1.4203
  443TIP3   OH2 1292   1.442   3.525   1.211  0.8255 -0.0537  0.1684
  443TIP3    H1 1293   1.505   3.532   1.140 -1.5020  0.7909 -1.9341
  443TIP3    H2 1294   1.385   3.453   1.186 -0.2036  0.4262  1.0318
  444TIP3   OH2 1295   4.570   5.253   0.598  0.1803  0.5868 -0.3369
  444TIP3    H1 1296   4.505   5.187   0.572  0.2210  0.6697 -0.6507
  444TIP3    H2 1297   4.538   5.286   0.682 -0.1635  0.5992 -0.4694
  445TIP3   OH2 1298   1.570   2.300   5.068  0.3913 -0.2635  0.1023
  445TIP3    H1 1299   1.525   2.374   5.107 -0.1442  0.6978 -2.2086
  445TIP3    H2 1300   1.517   2.224   5.093 -1.8611  0.6984 -1.4954
  446TIP3   OH2 1301   6.073   0.405   5.504 -0.4384 -0.4187  0.2694
  446TIP3    H1 1302   6.091   0.351   5.581  1.6487 -1.2387 -0.7022
  446TIP3    H2 1303   6.082   0.345   5.430 -0.7914  0.6847 -0.6963
  447TIP3   OH2 1304   1.558   5.145   0.804 -0.0424 -0.4511  0.4961
  447TIP3    H1 1305   1.463   5.133   0.811 -0.2874  0.2065 -1.1348
  447TIP3    H2 1306   1.585   5.083   0.736  0.4721  0.2606  0.0338
  448TIP3   OH2 1307   2.036   4.928   1.812 -0.0331  0.7626  0.0712
  448TIP3    H1 1308   1.969   4.976   1.763  1.4630  2.0475 -0.7936
  448TIP3    H2 1309   1.986   4.870   1.870 -1.8733  0.7132 -1.4693
  449TIP3   OH2 1310   5.812   0.500   3.554 -0.0510  0.3216 -0.4723
  449TIP3    H1 1311   5.718   0.502   3.540 -0.5280 -1.9484  1.6990
  449TIP3    H2 1312   5.848   0.469   3.470 -1.0052  2.6237 -1.8106
  450TIP3   OH2 1313   0.713   6.778   2.858  0.0578 -0.0185  0.0558
  450TIP3    H1 1314   0.798   6.793   2.817  1.0116 -1.4457  1.3861
  450TIP3    H2 1315   0.676   6.704   2.810  1.4002 -2.0287  1.9172
  451TIP3   OH2 1316   1.801   0.068   1.510  0.5972 -0.3104 -0.2451
  451TIP3    H1 1317   1.740   0.137   1.483 -1.3216 -1.1234  1.6697
  451TIP3    H2 1318   1.846   0.104   1.587 -0.7336 -1.2457  1.0363
  452TIP3   OH2 1319   5.937   3.142   5.250 -0.3588 -0.0989 -0.0273
  452TIP3    H1 1320   5.926   3.047   5.248  0.0694 -0.2717  2.3916
  452TIP3    H2 1321   6.003   3.160   5.183 -0.6679 -1.4608 -0.7328
  453TIP3   OH2 1322   4.098   1.285   3.553 -0.5299 -0.4394  0.0813
  453TIP3    H1 1323   4.164   1.355   3.555  1.0617 -1.8391 -0.3849
  453TIP3    H2 1324   4.107   1.241   3.637 -1.9355  0.2348  0.6122
  454TIP3   OH2 1325   0.836   0.705   2.207 -0.0530  0.5891 -0.1831
  454TIP3    H1 1326   0.905   0.761   2.172  0.3205 -0.4060 -1.1060
  454TIP3    H2 1327   0.795   0.666   2.129 -0.1231 -0.6202  0.4294
  455TIP3   OH2 1328   5.028   6.755   0.538  0.3597  0.0726 -0.8049
  455TIP3    H1 1329   5.108   6.804   0.558 -1.0826  2.0230  0.6312
  455TIP3    H2 1330   5.010   6.776   0.447  0.0424  1.9292 -0.3614
  456TIP3   OH2 1331   1.859   0.110   2.497 -0.5422 -0.5587  0.3233
  456TIP3    H1 1332   1.881   0.202   2.478 -1.8563 -0.1825  0.5569
  456TIP3    H2 1333   1.850   0.069   2.411 -0.8639 -0.2382  0.2022
  457TIP3   OH2 1334   4.025   1.971   1.682 -0.0293  0.6346  0.1786
  457TIP3    H1 1335   3.972   1.967   1.602 -0.3080 -0.3974  0.3979
  457TIP3    H2 1336   4.111   2.002   1.652 -0.0928  0.1321 -0.5569
  458TIP3   OH2 1337   1.988   3.799   5.155 -0.0252 -0.0210  0.0730
  458TIP3    H1 1338   2.047   3.831   5.223  0.5972  0.3994 -0.6565
  458TIP3    H2 1339   1.908   3.774   5.202  0.8744 -0.9877  1.1303
  459TIP3   OH2 1340   2.866   2.005   3.194 -0.3193  0.1054 -0.0404
  459TIP3    H1 1341   2.820   2.077   3.237 -3.0530 -0.3658 -1.8781
  459TIP3    H2 1342   2.950   2.042   3.168 -0.7159  1.9074  1.0725
  460TIP3   OH2 1343   2.311   6.426   1.659  0.2060 -0.4422 -0.3457
  460TIP3    H1 1344   2.237   6.472   1.620  0.9633  0.8290 -0.3701
  460TIP3    H2 1345   2.286   6.413   1.750  0.8416  2.1580  0.2947
  461TIP3   OH2 1346   5.094   0.197   0.484  0.0446 -0.5861 -0.6569
  461TIP3    H1 1347   5.131   0.284   0.496  0.5658 -0.5143 -2.5325
  461TIP3    H2 1348   5.000   0.210   0.496  0.2848 -0.2072  1.1744
  462TIP3   OH2 1349   4.706   2.891   2.449 -0.6499  0.5289 -0.6049
  462TIP3    H1 1350   4.798   2.894   2.422 -0.7047 -2.4085 -1.4803
  462TIP3    H2 1351   4.661   2.948   2.386  0.3592  0.5672 -1.3152
  463TIP3   OH2 1352   3.665   1.479   1.535  0.0990  0.1800 -0.3408
  463TIP3    H1 1353   3.670   1.430   1.453 -0.4796  0.7304 -0.7146
  463TIP3    H2 1354   3.664   1.571   1.508 -0.5295  0.3569  0.2548
  464TIP3   OH2 1355   2.337   3.326   3.350 -0.2444 -0.2036  0.2629
  464TIP3    H1 1356   2.324   3.391   3.281 -0.6506 -0.2429  0.3010
  464TIP3    H2 1357   2.251   3.316   3.390 -0.9641 -3.0076 -1.6906
  465TIP3   OH2 1358   2.154   2.068   0.662  0.4142  0.6257  0.1750
  465TIP3    H1 1359   2.232   2.064   0.717  0.6885 -1.7000 -0.2610
  465TIP3    H2 1360   2.096   2.000   0.698 -1.0501  1.7074 -0.0555
  466TIP3   OH2 1361   4.370   1.060   5.660  0.1111  0.0813 -0.2272
  466TIP3    H1 1362   4.294   1.016   5.622 -0.2159 -2.7565  3.2371
  466TIP3    H2 1363   4.339   1.149   5.679 -1.1078  0.1308 -2.1549
  467TIP3   OH2 1364   6.227   0.522   3.384 -0.0745  0.0494  0.1002
  467TIP3    H1 1365   6.228   0.498   3.476  1.3358  1.7259  0.5812
  467TIP3    H2 1366   6.275   0.452   3.340 -0.8461 -0.8098  0.6174
  468TIP3   OH2 1367   6.973   1.349   1.168 -0.4541 -0.6563 -0.4428
  468TIP3    H1 1368   7.048   1.290   1.158  0.4289  0.3752 -0.0096
  468TIP3    H2 1369   7.010   1.437   1.169 -1.4538 -0.1892  1.6398
  469TIP3   OH2 1370   6.550   0.961   1.961  0.2787 -0.0745  0.5074
  469TIP3    H1 1371   6.552   0.981   2.054  0.3459 -1.2363  0.7745
  469TIP3    H2 1372   6.527   1.044   1.919  0.8570  0.6080  1.5010
  470TIP3   OH2 1373   3.753   6.307   0.588 -0.1077  0.3928 -0.3814
  470TIP3    H1 1374   3.805   6.343   0.660  0.1260  0.4565 -0.5799
  470TIP3    H2 1375   3.767   6.368   0.515  1.8713 -1.0901 -1.3433
  471TIP3   OH2 1376   5.087   3.237   2.959 -0.0908  0.2289  0.0246
  471TIP3    H1 1377   5.086   3.141   2.962  1.6850  0.0465 -2.2711
  471TIP3    H2 1378   5.104   3.263   3.050 -0.0132 -1.6508  0.5984
  472TIP3   OH2 1379   4.320   3.882   4.292 -0.3400 -0.3037 -0.1999
  472TIP3    H1 1380   4.297   3.861   4.383 -0.5045 -2.8813 -0.7670
  472TIP3    H2 1381   4.271   3.962   4.274  1.1710  1.3914  2.5172
  473TIP3   OH2 1382   7.069   3.143   1.167  0.5692  0.6385  0.3341
  473TIP3    H1 1383   7.045   3.093   1.245  1.1284 -0.2991 -0.0709
  473TIP3    H2 1384   7.110   3.078   1.109  0.1039  1.3039 -0.7617
  474TIP3   OH2 1385   3.623   5.863   3.272  0.1372  0.1559 -0.4157
  474TIP3    H1 1386   3.694   5.905   3.320 -0.6290  0.0051  0.9101
  474TIP3    H2 1387   3.589   5.931   3.215  0.8800  0.4349 -0.5379
  475TIP3   OH2 1388   2.822   1.300   4.005  0.0061 -0.4952 -0.3948
  475TIP3    H1 1389   2.803   1.379   4.056  3.0620  0.0489  0.0570
  475TIP3    H2 1390   2.812   1.228   4.067 -2.3885 -0.5321 -0.7076
  476TIP3   OH2 1391   3.705   5.879   0.507  0.0559  0.3644 -0.1339
  476TIP3    H1 1392   3.711   5.893   0.412  0.4317 -2.5632 -0.6679
  476TIP3    H2 1393   3.794   5.860   0.534  0.0278  1.6577  0.9434
  477TIP3   OH2 1394   3.277   1.785   4.437  0.0656 -0.4950  0.2323
  477TIP3    H1 1395   3.307   1.757   4.523  0.1765 -0.1312  0.3136
  477TIP3    H2 1396   3.190   1.822   4.452  0.0071 -0.6000  0.1581
  478TIP3   OH2 1397   2.283   2.826   3.050 -0.4479 -0.2563  0.2351
  478TIP3    H1 1398   2.241   2.911   3.061  0.4587  0.1194  0.8787
  478TIP3    H2 1399   2.367   2.846   3.008  0.0535 -0.7617  0.9792
  479TIP3   OH2 1400   0.504   4.292   3.852 -0.6526  0.5541  0.7653
  479TIP3    H1 1401   0.515   4.198   3.836 -0.9510  0.8316 -1.3595
  479TIP3    H2 1402   0.452   4.323   3.778 -0.2406  2.4736  1.2195
  480TIP3   OH2 1403   2.454   3.843   5.022  0.4571 -0.0514 -0.2544
  480TIP3    H1 1404   2.427   3.922   4.975 -1.2524 -0.2702  0.2886
  480TIP3    H2 1405   2.546   3.832   4.998 -0.0262  0.4567 -2.6447
  481TIP3   OH2 1406   6.766   4.112   0.633  0.3935 -0.3099  0.2565
  481TIP3    H1 1407   6.735   4.084   0.718  0.6270  0.4548  0.6074
  481TIP3    H2 1408   6.809   4.196   0.650  0.2928 -0.0666 -0.6386
  482TIP3   OH2 1409   2.751   4.411   2.807 -0.2850 -0.2633  0.0933
  482TIP3    H1 1410   2.795   4.384   2.887  0.0466 -0.7242 -0.2414
  482TIP3    H2 1411   2.819   4.452   2.754  0.1336 -2.2472 -1.0371
  483TIP3   OH2 1412   3.636   0.220   4.134 -0.2180  0.6227 -0.2276
  483TIP3    H1 1413   3.731   0.221   4.131 -0.0662 -1.9333  0.6659
  483TIP3    H2 1414   3.609   0.169   4.058 -0.7147 -0.3854  0.5904
  484TIP3   OH2 1415   1.003   1.808   5.603 -0.3536  0.1278 -0.0829
  484TIP3    H1 1416   1.055   1.801   5.683 -0.0036  0.3990 -0.2842
  484TIP3    H2 1417   1.010   1.900   5.578 -0.9320  0.1658 -0.1118
  485TIP3   OH2 1418   1.200   4.381   4.042 -0.0453  0.4793 -0.3389
  485TIP3    H1 1419   1.249   4.323   3.984 -0.7553  0.4503 -0.9235
  485TIP3    H2 1420   1.109   4.353   4.033 -0.6257  2.5457 -1.7385
  486TIP3   OH2 1421   6.377   5.916   4.665  0.8120  0.2930 -0.3227
  486TIP3    H1 1422   6.450   5.884   4.614  0.3415 -0.7733 -0.3597
  486TIP3    H2 1423   6.395   5.887   4.754 -0.1898 -1.1538 -0.5588
  487TIP3   OH2 1424   6.352   4.670   1.111  0.2187  0.2363 -0.2259
  487TIP3    H1 1425   6.285   4.636   1.171  0.0428  2.2299  0.7780
  487TIP3    H2 1426   6.426   4.610   1.122  0.4197  0.8758  2.5128
  488TIP3   OH2 1427   4.937   0.475   0.343  0.1169 -0.0467  0.2072
  488TIP3    H1 1428   4.923   0.437   0.429  0.9651  1.2678  0.9550
  488TIP3    H2 1429   5.003   0.544   0.357  0.5903 -0.0877 -1.5555
  489TIP3   OH2 1430   5.128   4.103   1.814  0.3672 -0.4849  0.5387
  489TIP3    H1 1431   5.064   4.048   1.859 -1.0254 -2.0215 -2.8979
  489TIP3    H2 1432   5.172   4.044   1.753  0.5095  1.7171 -1.6636
  490TIP3   OH2 1433   4.219   6.523   1.916  0.1803  0.3510 -0.2801
  490TIP3    H1 1434   4.167   6.537   1.995 -1.2901  1.8514 -1.4421
  490TIP3    H2 1435   4.286   6.460   1.942 -0.0727  1.0182  2.2284
  491TIP3   OH2 1436   1.422   6.356   3.727 -0.1719  0.6368  0.2898
  491TIP3    H1 1437   1.509   6.396   3.718 -0.1374  0.7752  1.1316
  491TIP3    H2 1438   1.400   6.367   3.820 -0.9807  0.3724  0.1377
  492TIP3   OH2 1439   2.353   4.034   4.237 -0.5264  0.0349  0.3027
  492TIP3    H1 1440   2.410   4.079   4.174  0.5721 -0.2730  1.0537
  492TIP3    H2 1441   2.272   4.086   4.236  0.2095  1.2290  0.1324
  493TIP3   OH2 1442   7.174   3.223   5.494 -0.4812  0.0235  0.1737
  493TIP3    H1 1443   7.113   3.231   5.567 -0.1207 -1.0871  0.6061
  493TIP3    H2 1444   7.259   3.246   5.531 -0.4234  0.2824 -0.1098
  494TIP3   OH2 1445   3.051   4.034   2.709  0.2221  0.3967  0.8081
  494TIP3    H1 1446   3.137   3.994   2.716  0.3986  0.8100  1.0130
  494TIP3    H2 1447   3.010   4.018   2.794 -0.8187 -1.8385 -0.0051
  495TIP3   OH2 1448   4.422   5.604   5.210  0.0252  0.1248  0.6393
  495TIP3    H1 1449   4.479   5.528   5.219 -0.4063 -0.1014  1.5393
  495TIP3    H2 1450   4.385   5.596   5.123 -0.4182 -0.9764  0.9133
  496TIP3   OH2 1451   7.071   2.612   3.921 -0.0953 -0.0406 -0.0641
  496TIP3    H1 1452   7.030   2.667   3.988  1.5642 -0.6423  1.5482
  496TIP3    H2 1453   7.132   2.556   3.970  2.3795  0.5559 -2.2264
  497TIP3   OH2 1454   0.566   4.967   1.940 -0.2935 -0.0313  0.7322
  497TIP3    H1 1455   0.598   5.022   1.868  0.8347  0.3642  1.4896
  497TIP3    H2 1456   0.644   4.918   1.968 -1.2636 -2.0119  0.1209
  498TIP3   OH2 1457   4.086   2.110   0.209 -0.0180 -0.6540 -0.2259
  498TIP3    H1 1458   4.109   2.034   0.262 -1.5911 -1.0224 -0.0005
  498TIP3    H2 1459   4.016   2.079   0.152 -0.6433  0.5857 -0.1889
  499TIP3   OH2 1460   4.574   0.878   2.314  0.3537  0.5830 -0.3618
  499TIP3    H1 1461   4.633   0.804   2.297 -0.1233  0.3934 -1.2280
  499TIP3    H2 1462   4.491   0.836   2.340 -0.3812  0.7524 -2.3191
  500TIP3   OH2 1463   3.183   1.576   4.060 -0.0287 -0.0449 -0.3384
  500TIP3    H1 1464   3.092   1.607   4.066 -0.0601 -0.2706  0.5811
  500TIP3    H2 1465   3.227   1.642   4.007 -0.0960  1.6311  1.5541
  501TIP3   OH2 1466   2.303   5.631   0.691 -0.4465  0.1755 -0.1099
  501TIP3    H1 1467   2.381   5.650   0.744 -0.9023 -0.0247  0.6450
  501TIP3    H2 1468   2.338   5.590   0.613  0.2608  0.6764 -0.0776
  502TIP3   OH2 1469   3.777   2.949   0.314 -0.0390 -0.0439  0.5360
  502TIP3    H1 1470   3.863   2.960   0.355  0.4996 -1.1421 -0.2390
  502TIP3    H2 1471   3.796   2.919   0.226 -1.1915  1.6953 -0.3605
  503TIP3   OH2 1472   1.456   3.515   3.931  0.3447  0.1454 -0.4091
  503TIP3    H1 1473   1.495   3.434   3.964 -0.0716  0.8672  2.0599
  503TIP3    H2 1474   1.400   3.487   3.858  1.2253 -1.5963 -0.4649
  504TIP3   OH2 1475   3.264   2.120   0.285 -0.1835 -0.1454  0.4068
  504TIP3    H1 1476   3.190   2.173   0.315  0.3290  0.3173  0.8695
  504TIP3    H2 1477   3.331   2.132   0.352 -0.1101 -1.5080  0.6055
  505TIP3   OH2 1478   6.888   4.871   2.072 -0.2835 -0.0770  0.1734
  505TIP3    H1 1479   6.888   4.950   2.126  0.0530  0.5539 -0.7269
  505TIP3    H2 1480   6.831   4.892   1.998  0.6731 -0.2709 -0.6444
  506TIP3   OH2 1481   6.380   4.590   5.081 -0.6392 -0.2976  0.2819
  506TIP3    H1 1482   6.333   4.599   4.998 -2.9937 -0.0467  1.5665
  506TIP3    H2 1483   6.432   4.670   5.088 -2.4989  0.9674  0.2543
  507TIP3   OH2 1484   5.925   1.095   2.009 -0.7053  0.1822  0.0629
  507TIP3    H1 1485   5.891   1.026   1.953  0.3270 -1.8378  1.7820
  507TIP3    H2 1486   5.972   1.154   1.949 -1.9233 -0.3762 -1.4904
  508TIP3   OH2 1487   0.931   5.899   4.910  0.5097 -0.0668 -0.2144
  508TIP3    H1 1488   1.021   5.930   4.915  0.4873 -0.0509  0.1343
  508TIP3    H2 1489   0.878   5.975   4.934  0.5382 -0.8846  2.8614
  509TIP3   OH2 1490   6.085   3.949   2.069  0.4163  0.6536 -0.2930
  509TIP3    H1 1491   6.133   4.025   2.102 -1.1524  1.2078  0.8313
  509TIP3    H2 1492   5.992   3.973   2.080 -0.1129 -1.3721 -0.0310
  510TIP3   OH2 1493   3.375   4.117   1.417 -0.2279  0.2036 -0.3014
  510TIP3    H1 1494   3.438   4.059   1.376 -0.4154  0.9029 -1.6151
  510TIP3    H2 1495   3.410   4.133   1.505  0.4812 -0.8403 -0.3884
  511TIP3   OH2 1496   2.053   2.566   1.194 -0.3013 -0.2459  0.0609
  511TIP3    H1 1497   1.973   2.531   1.155 -0.6075 -1.6157  1.7767
  511TIP3    H2 1498   2.031   2.580   1.286  1.7442 -1.8112  0.8706
  512TIP3   OH2 1499   7.217   5.756   2.131  0.3478  0.3963  0.4858
  512TIP3    H1 1500   7.208   5.727   2.222 -2.7098 -1.6745 -0.3261
  512TIP3    H2 1501   7.191   5.848   2.132 -1.4298 -0.0860  1.4813
  513TIP3   OH2 1502   0.806   3.812   1.287 -0.1511  0.0164 -0.2701
  513TIP3    H1 1503   0.865   3.738   1.272  0.7028  0.2208  1.7203
  513TIP3    H2 1504   0.737   3.801   1.222  0.9312 -1.4616 -1.2522
  514TIP3   OH2 1505   0.367   3.936   4.028  0.5567  0.4503 -0.3230
  514TIP3    H1 1506   0.365   3.929   3.932  2.1926  1.0422 -0.4196
  514TIP3    H2 1507   0.433   4.003   4.046  2.2691 -1.5355  1.3015
  515TIP3   OH2 1508   3.126   2.803   3.900 -0.6252  0.2240 -0.1106
  515TIP3    H1 1509   3.194   2.740   3.924  0.9936  0.9120 -2.5051
  515TIP3    H2 1510   3.044   2.763   3.928  0.4135 -2.5488 -0.7463
  516TIP3   OH2 1511   0.727   4.181   4.448  0.0370  0.0191 -0.4162
  516TIP3    H1 1512   0.700   4.248   4.385 -0.1002  0.7432  0.4012
  516TIP3    H2 1513   0.646   4.152   4.489  0.3415  1.5588  1.4055
  517TIP3   OH2 1514   1.816   2.867   2.281 -0.3026 -0.3408 -0.3793
  517TIP3    H1 1515   1.878   2.929   2.242  0.2379 -1.0239 -0.6294
  517TIP3    H2 1516   1.850   2.781   2.255  0.1252 -0.8339  1.6693
  518TIP3   OH2 1517   4.612   0.148   2.284 -0.1118  0.4207 -0.1011
  518TIP3    H1 1518   4.605   0.120   2.193  1.5096 -1.4327  0.2644
  518TIP3    H2 1519   4.604   0.243   2.281 -1.1281  0.3283 -2.0344
  519TIP3   OH2 1520   0.833   5.236   2.179 -0.0831 -0.1691 -0.1333
  519TIP3    H1 1521   0.915   5.261   2.222 -0.3863 -0.0878  0.4061
  519TIP3    H2 1522   0.820   5.145   2.204 -0.7364  0.1450  0.7322
  520TIP3   OH2 1523   4.569   1.309   1.455  0.0582 -0.1278 -0.4721
  520TIP3    H1 1524   4.603   1.260   1.530 -0.2720 -1.9286 -1.4487
  520TIP3    H2 1525   4.631   1.381   1.443  1.8725 -1.6043 -0.3713
  521TIP3   OH2 1526   0.543   4.641   5.008  0.4553 -0.6289 -0.2326
  521TIP3    H1 1527   0.577   4.583   5.076  2.5503  0.2469 -0.4681
  521TIP3    H2 1528   0.471   4.688   5.050  1.0169 -0.8725  1.0397
  522TIP3   OH2 1529   4.772   1.478   4.921 -0.2438  0.5541 -0.4202
  522TIP3    H1 1530   4.722   1.450   4.844  1.2704  0.0767 -1.2696
  522TIP3    H2 1531   4.779   1.573   4.912 -0.3506  0.5361 -0.7005
  523TIP3   OH2 1532   1.145   6.803   4.702 -0.7859 -0.4421  0.7302
  523TIP3    H1 1533   1.113   6.751   4.775 -2.2136  1.0933  1.2632
  523TIP3    H2 1534   1.067   6.843   4.665  0.0418 -0.3042 -0.9530
  524TIP3   OH2 1535   2.019   3.128   0.461  0.2101 -0.4193  1.0847
  524TIP3    H1 1536   2.005   3.062   0.528 -0.8113 -1.0915  0.2485
  524TIP3    H2 1537   1.974   3.093   0.384  2.2769 -0.1960 -0.2921
  525TIP3   OH2 1538   1.236   6.721   1.336 -0.3478  0.1058 -0.5028
  525TIP3    H1 1539   1.169   6.740   1.402 -1.6659  1.2811 -2.0781
  525TIP3    H2 1540   1.212   6.634   1.302 -1.7375  0.9161 -1.7265
  526TIP3   OH2 1541   6.371   0.163   5.496 -0.1479 -0.3151 -0.2347
  526TIP3    H1 1542   6.371   0.123   5.409  0.4539 -0.5800 -0.1141
  526TIP3    H2 1543   6.462   0.158   5.525  0.0194  1.4427 -0.3582
  527TIP3   OH2 1544   3.813   0.297   0.520 -0.1455 -0.0915  0.3006
  527TIP3    H1 1545   3.858   0.243   0.455  0.0912 -0.6467  0.9071
  527TIP3    H2 1546   3.723   0.304   0.487 -0.1169 -0.6676  0.0853
  528TIP3   OH2 1547   7.110   5.302   0.287  0.1334 -0.1340  0.0497
  528TIP3    H1 1548   7.093   5.286   0.380 -0.1390  0.2828  0.0715
  528TIP3    H2 1549   7.128   5.215   0.251  0.2757 -0.2916  0.4982
  529TIP3   OH2 1550   6.169   0.446   4.286  0.0977 -0.1198  0.0212
  529TIP3    H1 1551   6.244   0.444   4.227 -0.0906  0.0070 -0.2256
  529TIP3    H2 1552   6.119   0.523   4.259  0.9842  1.0749  1.5711
  530TIP3   OH2 1553   4.837   3.678   4.622 -0.0135 -0.4609 -0.3502
  530TIP3    H1 1554   4.915   3.701   4.571 -0.8871  0.3571 -1.3774
  530TIP3    H2 1555   4.797   3.763   4.643 -2.0682 -0.8908 -2.1828
  531TIP3   OH2 1556   2.536   1.650   5.651  0.0947  0.0891  0.3356
  531TIP3    H1 1557   2.623   1.615   5.669  0.2421  1.2905  2.2249
  531TIP3    H2 1558   2.477   1.593   5.700  0.0772  0.7278  1.0843
  532TIP3   OH2 1559   2.365   3.890   0.839  0.1546 -0.4347  0.4993
  532TIP3    H1 1560   2.345   3.807   0.882  1.7195 -0.3697  1.4064
  532TIP3    H2 1561   2.444   3.873   0.787 -0.6545 -0.0217 -0.9422
  533TIP3   OH2 1562   3.687   4.144   5.323 -0.4560  0.1391 -0.7600
  533TIP3    H1 1563   3.685   4.085   5.399  1.0477  0.6161 -0.3064
  533TIP3    H2 1564   3.778   4.174   5.319 -1.0437  1.9938 -1.3044
  534TIP3   OH2 1565   3.165   3.554   4.644 -0.0644  0.1098  0.0261
  534TIP3    H1 1566   3.073   3.567   4.621 -0.3780  1.0903  1.6795
  534TIP3    H2 1567   3.164   3.538   4.738  1.3877 -0.9421 -0.0953
  535TIP3   OH2 1568   5.893   2.547   3.188  0.3587  0.3421 -0.3613
  535TIP3    H1 1569   5.878   2.477   3.124 -0.1980 -0.7658  0.9409
  535TIP3    H2 1570   5.966   2.517   3.241 -0.7752  0.0733  1.0939
  536TIP3   OH2 1571   0.646   2.407   2.157 -0.4055  0.0471 -0.2287
  536TIP3    H1 1572   0.711   2.465   2.116 -0.6244  1.0538  0.7901
  536TIP3    H2 1573   0.676   2.319   2.135  2.0650  0.4083  1.2447
  537TIP3   OH2 1574   4.786   5.869   1.691 -0.4727  0.5725  0.8805
  537TIP3    H1 1575   4.710   5.918   1.723 -0.4654  0.4268  1.1175
  537TIP3    H2 1576   4.761   5.777   1.701 -1.6404  0.4247 -2.1246
  538TIP3   OH2 1577   4.653   3.400   5.042 -0.4463  0.1014 -0.0011
  538TIP3    H1 1578   4.597   3.331   5.007  0.5724 -0.1612 -1.1983
  538TIP3    H2 1579   4.669   3.459   4.967  2.0869 -0.6614 -0.1656
  539TIP3   OH2 1580   0.736   1.374   1.099  0.3992 -0.1257  0.5117
  539TIP3    H1 1581   0.812   1.373   1.042 -0.4983  0.7264 -0.7349
  539TIP3    H2 1582   0.766   1.419   1.178  1.7042 -1.4906  0.8532
  540TIP3   OH2 1583   4.893   5.883   1.447  0.2171 -0.1948 -0.4164
  540TIP3    H1 1584   4.858   5.911   1.532 -1.1980  1.8205 -1.5609
  540TIP3    H2 1585   4.931   5.797   1.464  4.6873  2.0290  3.4569
  541TIP3   OH2 1586   0.646   4.476   2.400  0.1875  0.0909  0.8734
  541TIP3    H1 1587   0.652   4.381   2.398  0.1943  0.0976 -0.0893
  541TIP3    H2 1588   0.688   4.502   2.482  1.2669 -0.6636  0.5752
  542TIP3   OH2 1589   6.478   0.581   4.070  0.4971 -0.4795 -0.7015
  542TIP3    H1 1590   6.468   0.495   4.110  2.0319  0.0059  0.8584
  542TIP3    H2 1591   6.560   0.574   4.020  1.4160  0.4236  0.5967
  543TIP3   OH2 1592   2.475   0.198   5.617  0.0153 -0.4754 -0.3982
  543TIP3    H1 1593   2.399   0.147   5.643 -1.2423  1.5458  0.1040
  543TIP3    H2 1594   2.439   0.272   5.567  1.8697 -0.8276 -2.4281
  544TIP3   OH2 1595   1.592   1.115   2.478  0.2508  0.1480 -0.1975
  544TIP3    H1 1596   1.545   1.031   2.477  1.3891 -0.5029 -0.3740
  544TIP3    H2 1597   1.658   1.104   2.546  0.0199  1.1371  0.2017
  545TIP3   OH2 1598   4.355   2.662   3.350  0.2041  0.0928 -0.0230
  545TIP3    H1 1599   4.389   2.677   3.438 -0.5441  1.7627  0.0180
  545TIP3    H2 1600   4.296   2.587   3.360 -0.6701  0.9007  1.1376
  546TIP3   OH2 1601   3.247   4.346   5.694  0.0097  0.3035 -0.0559
  546TIP3    H1 1602   3.221   4.389   5.775  1.6078  0.7447  0.2574
  546TIP3    H2 1603   3.324   4.394   5.664  0.0807 -0.5146 -1.2852
  547TIP3   OH2 1604   0.638   1.043   0.272 -0.0333 -0.1322  0.3575
  547TIP3    H1 1605   0.682   1.026   0.355  0.9247  2.0154  0.3633
  547TIP3    H2 1606   0.582   0.966   0.258  0.7366 -1.1260  2.3266
  548TIP3   OH2 1607   5.204   2.440   5.530 -0.1705  0.0816 -0.5628
  548TIP3    H1 1608   5.180   2.505   5.464 -1.3567  0.2437 -0.0073
  548TIP3    H2 1609   5.189   2.356   5.488 -1.2524  0.1827 -0.4182
  549TIP3   OH2 1610   0.857   2.587   1.756  0.2144  0.2389  0.6708
  549TIP3    H1 1611   0.909   2.529   1.700 -0.6220 -1.5428  1.6665
  549TIP3    H2 1612   0.767   2.557   1.745 -0.2526  1.3369  1.2815
  550TIP3   OH2 1613   5.845   3.245   4.079  0.1309 -0.7052 -0.3263
  550TIP3    H1 1614   5.833   3.227   4.172  0.7132  0.5854  0.0300
  550TIP3    H2 1615   5.924   3.195   4.055 -0.8839 -2.2619 -0.5326
  551TIP3   OH2 1616   7.213   5.888   5.042 -0.0217  0.0391  0.0646
  551TIP3    H1 1617   7.227   5.950   4.971 -1.0970 -0.8483 -0.9756
  551TIP3    H2 1618   7.118   5.873   5.042  0.2441 -1.9130 -0.0231
  552TIP3   OH2 1619   6.742   2.682   3.751  0.3487 -0.0157 -0.1793
  552TIP3    H1 1620   6.718   2.628   3.676  1.5335 -2.1952  0.9011
  552TIP3    H2 1621   6.666   2.737   3.767 -0.9129 -1.3425 -1.3778
  553TIP3   OH2 1622   3.841   2.573   1.437  0.3810  0.6064 -0.3864
  553TIP3    H1 1623   3.784   2.600   1.366 -0.5954  0.1414  0.2033
  553TIP3    H2 1624   3.864   2.482   1.417 -3.4999 -1.1712  2.0104
  554TIP3   OH2 1625   2.933   0.720   3.830  0.1591 -0.2765  0.2025
  554TIP3    H1 1626   2.911   0.741   3.739 -0.8332  1.2884  0.7605
  554TIP3    H2 1627   2.983   0.795   3.861  1.1645 -1.1434  0.7527
  555TIP3   OH2 1628   4.499   4.368   5.665  0.4744  0.1358  0.7030
  555TIP3    H1 1629   4.460   4.323   5.590  1.1261  0.5244  0.1098
  555TIP3    H2 1630   4.590   4.339   5.666  0.5107  0.2556  1.2512
  556TIP3   OH2 1631   3.762   2.821   2.021 -0.7078 -0.2666  0.1713
  556TIP3    H1 1632   3.788   2.867   2.101 -1.2143  0.1673  0.0894
  556TIP3    H2 1633   3.667   2.824   2.021 -0.7151 -0.3773 -0.3867
  557TIP3   OH2 1634   4.781   2.956   5.541  0.1992 -0.1707  0.2148
  557TIP3    H1 1635   4.796   2.864   5.521  1.0153  0.4599 -2.4086
  557TIP3    H2 1636   4.868   2.990   5.564 -0.1382 -0.0813  1.4116
  558TIP3   OH2 1637   5.989   2.182   3.777  0.3843  0.2637 -0.2606
  558TIP3    H1 1638   6.023   2.222   3.697 -1.8017  1.8160 -0.5048
  558TIP3    H2 1639   6.050   2.208   3.846  2.8310 -1.8611 -1.4393
  559TIP3   OH2 1640   1.518   0.099   1.561 -0.2547 -0.6203  0.6704
  559TIP3    H1 1641   1.544   0.008   1.575  0.2879 -0.5082  0.4136
  559TIP3    H2 1642   1.532   0.142   1.645 -0.0190 -0.6601  0.6510
  560TIP3   OH2 1643   4.281   0.176   2.719 -0.2858  0.6841 -0.6127
  560TIP3    H1 1644   4.356   0.135   2.762 -1.3526 -2.1286 -1.1935
  560TIP3    H2 1645   4.310   0.191   2.629 -0.0780  0.5375 -0.5722
  561TIP3   OH2 1646   5.953   2.523   4.728 -0.2695 -0.0955 -0.3208
  561TIP3    H1 1647   6.048   2.518   4.716 -0.1598 -0.2445  0.5283
  561TIP3    H2 1648   5.933   2.452   4.789 -0.6434  1.1528  1.0491
  562TIP3   OH2 1649   2.780   5.336   4.125  0.3984 -0.1541 -0.7585
  562TIP3    H1 1650   2.756   5.245   4.107  1.9473 -0.6021 -0.6570
  562TIP3    H2 1651   2.703   5.386   4.097 -0.1243 -1.4115 -1.6871
  563TIP3   OH2 1652   4.712   5.483   2.253 -0.4633 -0.0667  0.1885
  563TIP3    H1 1653   4.704   5.392   2.222  1.2400  0.1904 -1.2305
  563TIP3    H2 1654   4.676   5.535   2.182  0.6549  0.4306 -0.0353
  564TIP3   OH2 1655   0.528   0.040   0.241  0.6448 -0.1208  0.0737
  564TIP3    H1 1656   0.444   0.034   0.196  0.9119 -0.2098 -0.4158
  564TIP3    H2 1657   0.592   0.056   0.172  0.9469  0.6450  0.5151
  565TIP3   OH2 1658   3.320   2.777   3.263 -0.0059 -0.2558 -0.4613
  565TIP3    H1 1659   3.296   2.869   3.257 -0.6255 -0.2625  1.2546
  565TIP3    H2 1660   3.238   2.730   3.248 -0.2237 -0.4185  1.0413
  566TIP3   OH2 1661   0.429   0.888   2.036  0.1523 -0.5923  0.6060
  566TIP3    H1 1662   0.446   0.796   2.015 -2.0129 -1.5193  2.5205
  566TIP3    H2 1663   0.372   0.919   1.965  2.6715  0.0646 -1.2854
  567TIP3   OH2 1664   5.093   6.573   3.354 -0.5155  0.4852  0.3227
  567TIP3    H1 1665   5.076   6.544   3.444 -2.5877  1.9010  0.4661
  567TIP3    H2 1666   5.159   6.642   3.364  0.7861 -0.7458  0.4953
  568TIP3   OH2 1667   5.825   3.802   0.660  0.0066  0.1896  0.1391
  568TIP3    H1 1668   5.892   3.826   0.723  1.2111 -1.7268 -0.3237
  568TIP3    H2 1669   5.756   3.760   0.713  1.4077 -2.2275  0.2054
  569TIP3   OH2 1670   1.439   3.824   4.289  0.3667 -0.3393  0.1103
  569TIP3    H1 1671   1.450   3.756   4.355 -1.3755  0.2114  1.0381
  569TIP3    H2 1672   1.487   3.792   4.213  2.6985 -0.8631  1.7000
  570TIP3   OH2 1673   5.000   4.821   3.690 -0.6675  0.0845 -0.0020
  570TIP3    H1 1674   5.044   4.776   3.762  3.6488 -0.4057 -2.5967
  570TIP3    H2 1675   5.009   4.914   3.710  0.7749 -0.0356 -0.0249
  571TIP3   OH2 1676   4.569   4.151   3.632 -0.2499  0.0339 -0.4698
  571TIP3    H1 1677   4.535   4.175   3.546 -1.7107 -0.8199 -0.1621
  571TIP3    H2 1678   4.609   4.231   3.665 -0.8225  0.7318 -1.4049
  572TIP3   OH2 1679   3.321   5.255   5.145  0.6464  0.0726  0.0481
  572TIP3    H1 1680   3.295   5.278   5.056  0.4677 -1.1724 -0.2375
  572TIP3    H2 1681   3.403   5.303   5.160 -1.0644  3.1091  0.5188
  573TIP3   OH2 1682   1.292   0.503   1.222 -0.0554  0.0250  0.2745
  573TIP3    H1 1683   1.226   0.489   1.290  0.3482  1.2591  0.9393
  573TIP3    H2 1684   1.338   0.420   1.216 -2.1488 -1.1543 -0.7729
  574TIP3   OH2 1685   1.050   5.760   4.042 -0.4227 -0.5483  0.5497
  574TIP3    H1 1686   0.957   5.784   4.043 -0.5798 -1.0890 -0.2032
  574TIP3    H2 1687   1.051   5.666   4.058 -0.2419 -1.1110 -2.1898
  575TIP3   OH2 1688   4.536   5.092   0.244  0.1133  0.1142 -0.4444
  575TIP3    H1 1689   4.570   5.053   0.163  1.7936 -0.5928  0.5248
  575TIP3    H2 1690   4.600   5.066   0.311 -0.4599  1.8566  0.8581
  576TIP3   OH2 1691   0.544   5.494   3.044 -0.2229 -0.6947 -0.3806
  576TIP3    H1 1692   0.543   5.555   2.970 -1.2522 -1.5186 -1.0698
  576TIP3    H2 1693   0.636   5.494   3.073 -0.6185  3.3078  1.5198
  577TIP3   OH2 1694   6.243   2.544   5.032 -0.1772  0.0356  0.4490
  577TIP3    H1 1695   6.311   2.611   5.046 -0.7199  0.5010  0.8952
  577TIP3    H2 1696   6.273   2.497   4.955  0.8388  0.0101  0.8315
  578TIP3   OH2 1697   0.378   4.779   3.534  0.2359 -0.3694 -0.1463
  578TIP3    H1 1698   0.419   4.860   3.565 -1.2227  0.7197 -0.9524
  578TIP3    H2 1699   0.354   4.798   3.443  1.0888 -2.1998 -0.7878
  579TIP3   OH2 1700   2.593   5.153   5.555  0.1865 -0.2313  0.1327
  579TIP3    H1 1701   2.606   5.212   5.629 -0.8053 -0.7387  0.7267
  579TIP3    H2 1702   2.528   5.090   5.585  1.3477 -1.7577 -0.4359
  580TIP3   OH2 1703   2.972   3.875   4.917  0.0923 -0.1720  0.1230
  580TIP3    H1 1704   2.902   3.820   4.951 -1.5048  2.0421  0.6127
  580TIP3    H2 1705   3.005   3.828   4.841 -2.5868 -0.8689 -0.7170
  581TIP3   OH2 1706   6.548   5.721   1.128  0.8429 -0.4156 -0.0552
  581TIP3    H1 1707   6.593   5.683   1.053  0.1239 -2.6886  0.5831
  581TIP3    H2 1708   6.617   5.761   1.180  1.6839 -1.0019 -0.6950
  582TIP3   OH2 1709   6.613   2.893   5.403  0.0804 -0.5161 -0.7476
  582TIP3    H1 1710   6.694   2.868   5.446  0.1420  1.1023  0.1453
  582TIP3    H2 1711   6.634   2.974   5.356 -0.5965 -0.9867 -1.9272
  583TIP3   OH2 1712   4.573   4.580   2.826 -0.1180  0.3035 -0.3955
  583TIP3    H1 1713   4.485   4.614   2.806  0.2457  1.3954 -0.1941
  583TIP3    H2 1714   4.624   4.599   2.747 -0.5720 -2.3334 -1.4199
  584TIP3   OH2 1715   2.552   4.648   1.844  0.1205  0.4561 -0.4176
  584TIP3    H1 1716   2.547   4.744   1.848 -2.6379  0.3456  1.4805
  584TIP3    H2 1717   2.491   4.624   1.774  1.7312  0.0578 -1.7440
  585TIP3   OH2 1718   6.931   2.005   5.298 -0.0227  0.4363  0.3708
  585TIP3    H1 1719   6.931   1.957   5.216  1.2007 -0.2298  0.7401
  585TIP3    H2 1720   7.014   1.982   5.340 -0.2098  1.4788  1.3751
  586TIP3   OH2 1721   5.619   2.295   4.840  0.0799  0.1931 -0.3834
  586TIP3    H1 1722   5.700   2.247   4.856  0.0883 -0.0725 -1.1755
  586TIP3    H2 1723   5.635   2.383   4.874  0.6059  0.0644 -0.2943
  587TIP3   OH2 1724   3.857   5.428   0.943  0.0877  0.4054 -0.9546
  587TIP3    H1 1725   3.902   5.482   1.008  0.8322 -0.9567 -0.3121
  587TIP3    H2 1726   3.840   5.489   0.870 -0.5770  1.9032  0.3832
  588TIP3   OH2 1727   2.889   5.865   4.224 -0.0710  0.5027  0.7226
  588TIP3    H1 1728   2.875   5.821   4.140  1.7375 -1.4773  1.3789
  588TIP3    H2 1729   2.982   5.855   4.242 -0.2787  1.4847  2.6633
  589TIP3   OH2 1730   3.397   1.528   1.037 -0.5185  0.5109 -0.3647
  589TIP3    H1 1731   3.479   1.575   1.047  0.5801 -1.0976 -1.3207
  589TIP3    H2 1732   3.379   1.491   1.124 -1.6386  2.9070  0.5268
  590TIP3   OH2 1733   6.481   3.305   2.954  0.2792 -0.0101  0.1165
  590TIP3    H1 1734   6.454   3.349   2.873  1.7712  0.2148 -0.2925
  590TIP3    H2 1735   6.561   3.258   2.930 -0.1816 -1.3261  1.0572
  591TIP3   OH2 1736   0.577   1.307   2.611 -0.0776 -0.0606 -0.6415
  591TIP3    H1 1737   0.654   1.253   2.626 -0.2363 -0.0738  0.1530
  591TIP3    H2 1738   0.612   1.395   2.596  0.1186 -0.1602 -0.7716
  592TIP3   OH2 1739   2.574   3.454   3.608  0.1744 -0.0970 -0.1140
  592TIP3    H1 1740   2.558   3.375   3.557 -2.1374  0.7458 -0.8508
  592TIP3    H2 1741   2.668   3.468   3.602  0.6500 -2.7237  0.0062
  593TIP3   OH2 1742   1.450   0.784   2.997 -0.1271  0.3111 -0.3250
  593TIP3    H1 1743   1.530   0.823   2.964 -0.3551  0.0928 -1.1459
  593TIP3    H2 1744   1.462   0.689   2.985  0.0113  0.1836  0.7264
  594TIP3   OH2 1745   2.508   2.972   0.890  0.4315 -0.9869 -0.1304
  594TIP3    H1 1746   2.581   2.918   0.920  1.4851  1.6405  2.5659
  594TIP3    H2 1747   2.546   3.030   0.823  1.1878  0.9222  1.8304
  595TIP3   OH2 1748   5.309   0.516   1.326  0.2785 -0.3873  0.6287
  595TIP3    H1 1749   5.313   0.424   1.299  4.3181 -0.2232  0.0643
  595TIP3    H2 1750   5.272   0.562   1.251 -0.3654 -1.3350  0.3454
  596TIP3   OH2 1751   2.657   5.085   1.166  0.5836  0.1340 -0.1417
  596TIP3    H1 1752   2.685   5.168   1.206 -0.0323  0.2478  0.0706
  596TIP3    H2 1753   2.572   5.105   1.127 -0.0856 -0.6665  0.8562
  597TIP3   OH2 1754   1.073   2.966   4.079  0.0755  0.4558 -0.4922
  597TIP3    H1 1755   1.058   2.928   3.993  0.0496  1.7489 -1.0881
  597TIP3    H2 1756   1.017   3.044   4.081 -1.3402 -0.5192  1.4102
  598TIP3   OH2 1757   5.742   2.699   5.680 -0.2811  0.1648 -0.2949
  598TIP3    H1 1758   5.684   2.647   5.735 -1.8474 -0.0480 -2.0169
  598TIP3    H2 1759   5.829   2.664   5.696 -0.6859  0.0231  1.8807
  599TIP3   OH2 1760   6.216   0.042   4.905  0.5150  1.1287  0.4019
  599TIP3    H1 1761   6.191   0.067   4.994 -1.1023  1.6080 -0.1572
  599TIP3    H2 1762   6.281   0.107   4.879  1.4940  0.6054  1.4375
  600TIP3   OH2 1763   0.095   5.835   1.883  0.2556  0.7080  0.2622
  600TIP3    H1 1764   0.021   5.895   1.880 -0.7945 -0.5665 -0.6382
  600TIP3    H2 1765   0.079   5.782   1.962 -0.4276 -0.3096 -0.5395
  601TIP3   OH2 1766   4.879   3.116   3.689  0.0914  0.0523  0.1522
  601TIP3    H1 1767   4.937   3.153   3.622  0.2521  0.5217  0.5375
  601TIP3    H2 1768   4.938   3.093   3.761  0.0967 -1.6966 -0.3639
  602TIP3   OH2 1769   4.701   4.587   4.192  0.3195 -0.3397  0.1774
  602TIP3    H1 1770   4.670   4.497   4.203 -0.4131  0.0407  1.4423
  602TIP3    H2 1771   4.622   4.640   4.191  0.7502  0.3139 -0.4676
  603TIP3   OH2 1772   1.943   5.450   1.905  0.4652 -0.1159 -0.4437
  603TIP3    H1 1773   1.956   5.495   1.821 -3.0092  1.2347 -0.4293
  603TIP3    H2 1774   1.848   5.441   1.912  0.7116 -1.2475  2.8325
  604TIP3   OH2 1775   5.230   0.127   3.776  1.0898  0.6720  0.1302
  604TIP3    H1 1776   5.279   0.132   3.695 -0.5507 -3.9981 -1.5206
  604TIP3    H2 1777   5.142   0.100   3.749 -0.3758  1.7678  3.3233
  605TIP3   OH2 1778   4.150   1.619   2.104 -0.2605  0.5506  0.3086
  605TIP3    H1 1779   4.128   1.630   2.012  0.1878  1.5949  0.3206
  605TIP3    H2 1780   4.066   1.628   2.150 -0.6064 -0.7151 -0.0366
  606TIP3   OH2 1781   5.121   1.369   1.970 -0.3774 -0.1217 -1.0999
  606TIP3    H1 1782   5.172   1.424   1.910  0.3744  1.7015  1.0774
  606TIP3    H2 1783   5.078   1.430   2.029 -0.7241 -1.8185  0.5244
  607TIP3   OH2 1784   1.261   1.511   0.048  0.5457 -0.4386 -0.2060
  607TIP3    H1 1785   1.184   1.499  -0.008  0.0055 -1.0234  0.6365
  607TIP3    H2 1786   1.235   1.475   0.132  0.9718  1.3728  0.7434
  608TIP3   OH2 1787   0.077   4.898   2.221  0.2780  0.3339 -0.1508
  608TIP3    H1 1788   0.128   4.899   2.302 -0.3668 -0.1409  0.2752
  608TIP3    H2 1789   0.056   4.806   2.207  0.1249  0.4469 -0.6937
  609TIP3   OH2 1790   3.425   2.305   3.409  0.2234 -0.0227  0.1543
  609TIP3    H1 1791   3.364   2.232   3.401 -1.8716  1.6801 -0.5992
  609TIP3    H2 1792   3.404   2.345   3.494  1.4115 -0.3425  0.6070
  610TIP3   OH2 1793   6.792   5.203   5.262 -0.5437  0.0292 -0.2371
  610TIP3    H1 1794   6.729   5.139   5.296  0.4037  0.0843  1.7971
  610TIP3    H2 1795   6.874   5.182   5.308 -0.0429  2.2661 -0.0058
  611TIP3   OH2 1796   4.634   6.697   5.485 -0.3691  0.1011  0.3933
  611TIP3    H1 1797   4.653   6.607   5.511  3.0710  0.7609  0.6516
  611TIP3    H2 1798   4.545   6.714   5.518  0.3263 -1.9624  3.8575
  612TIP3   OH2 1799   2.479   4.167   4.051  0.6236 -0.2664 -0.5361
  612TIP3    H1 1800   2.420   4.191   3.979  2.4754  0.1474 -1.9866
  612TIP3    H2 1801   2.552   4.229   4.043  1.6641 -1.2895  0.6707
  613TIP3   OH2 1802   6.679   0.669   1.479 -0.3314 -0.2160  0.2891
  613TIP3    H1 1803   6.672   0.659   1.574 -0.9141  0.1658  0.2965
  613TIP3    H2 1804   6.671   0.580   1.445  1.1508 -0.5179  0.6470
  614TIP3   OH2 1805   1.918   4.856   1.460  0.1972  0.1943  0.4945
  614TIP3    H1 1806   1.867   4.821   1.533  0.5557  0.2913  0.7966
  614TIP3    H2 1807   1.857   4.913   1.413 -0.8167 -1.8380 -0.7980
  615TIP3   OH2 1808   6.645   3.041   2.579 -0.0430 -0.1607  0.2483
  615TIP3    H1 1809   6.639   3.065   2.486  0.3757 -1.1936 -0.0667
  615TIP3    H2 1810   6.726   3.082   2.609  0.9637 -1.5421 -0.4312
  616TIP3   OH2 1811   3.380   2.287   2.778  0.3230  0.4826 -0.3369
  616TIP3    H1 1812   3.353   2.309   2.689  0.7782  0.7514 -0.4140
  616TIP3    H2 1813   3.378   2.192   2.781 -0.4231  0.4918 -0.3993
  617TIP3   OH2 1814   1.102   5.959   2.985  0.3962  0.6080 -0.3412
  617TIP3    H1 1815   1.064   5.982   2.900  0.5307  0.7723 -0.3585
  617TIP3    H2 1816   1.036   5.984   3.049 -1.0340 -2.3343 -0.5396
  618TIP3   OH2 1817   3.501   1.564   0.664 -0.5016  0.0112 -0.5053
  618TIP3    H1 1818   3.551   1.520   0.732  0.9898  0.1150 -1.5087
  618TIP3    H2 1819   3.443   1.496   0.629  2.0774 -1.3672 -2.3473
  619TIP3   OH2 1820   4.230   4.201   4.278  0.1555  0.4246 -0.2382
  619TIP3    H1 1821   4.231   4.257   4.200  0.2156 -0.3084 -0.7761
  619TIP3    H2 1822   4.184   4.252   4.344  0.4838  1.2294 -0.6244
  620TIP3   OH2 1823   3.483   1.262   5.188 -0.3711  0.6147 -0.0405
  620TIP3    H1 1824   3.479   1.333   5.124  1.6675  0.5388 -0.3350
  620TIP3    H2 1825   3.495   1.183   5.136 -0.5657  0.3139  0.3676
  621TIP3   OH2 1826   0.612   1.469   0.320 -0.1799  0.3646  0.6335
  621TIP3    H1 1827   0.688   1.526   0.336 -0.4552  0.8540  0.2319
  621TIP3    H2 1828   0.635   1.386   0.362  0.8923  0.2753 -0.0939
  622TIP3   OH2 1829   0.163   3.153   2.948 -0.1812  0.0405 -0.3231
  622TIP3    H1 1830   0.101   3.192   2.886 -0.8645  1.6325  1.2553
  622TIP3    H2 1831   0.116   3.152   3.032  1.1578 -0.8112  0.4620
  623TIP3   OH2 1832   5.888   3.146   0.880  0.8582  0.0255 -0.1161
  623TIP3    H1 1833   5.879   3.109   0.968 -0.3150 -0.5108 -0.4342
  623TIP3    H2 1834   5.859   3.076   0.822  1.8291  0.3038 -0.9528
  624TIP3   OH2 1835   0.696   6.762   1.428  0.1816 -0.7098 -0.3841
  624TIP3    H1 1836   0.769   6.822   1.442  0.7803 -1.3123 -0.8728
  624TIP3    H2 1837   0.718   6.684   1.478  0.2171 -1.1606 -1.0804
  625TIP3   OH2 1838   3.479   4.311   4.153 -0.4451  0.2108  0.2442
  625TIP3    H1 1839   3.410   4.277   4.097 -2.4138  1.0212  2.0257
  625TIP3    H2 1840   3.521   4.380   4.101 -1.4693  0.1951 -0.6278
  626TIP3   OH2 1841   3.821   3.618   3.961  0.7344 -0.3911  0.1004
  626TIP3    H1 1842   3.810   3.712   3.947  1.2858 -0.1657  1.0352
  626TIP3    H2 1843   3.896   3.612   4.020 -0.6806 -1.2943  1.9062
  627TIP3   OH2 1844   1.484   4.962   2.736 -0.2263 -0.3517  0.4154
  627TIP3    H1 1845   1.489   4.869   2.754 -0.8446 -0.3903  0.3968
  627TIP3    H2 1846   1.393   4.977   2.711  0.2469 -0.0494 -1.2548
  628TIP3   OH2 1847   0.001   4.913   1.158  0.2479  0.3096  0.2329
  628TIP3    H1 1848   0.076   4.855   1.146  0.0916  0.2657 -0.6144
  628TIP3    H2 1849   0.034   4.983   1.214  1.3829  1.0806 -1.3040
  629TIP3   OH2 1850   1.525   0.128   0.643 -0.6337 -0.7898  0.1837
  629TIP3    H1 1851   1.506   0.041   0.677 -2.4589 -0.0190  1.3546
  629TIP3    H2 1852   1.441   0.158   0.606 -0.2255  0.6797  0.3674
  630TIP3   OH2 1853   6.540   2.274   0.271  0.0866  0.2053 -0.1726
  630TIP3    H1 1854   6.557   2.273   0.365 -0.5826  1.4611 -0.0264
  630TIP3    H2 1855   6.502   2.188   0.253 -1.8679  0.7294  1.1261
  631TIP3   OH2 1856   5.435   1.833   0.216 -0.2441  0.5673  0.1453
  631TIP3    H1 1857   5.356   1.799   0.174  0.9602 -1.7079 -0.4819
  631TIP3    H2 1858   5.407   1.861   0.303 -1.4587 -1.9345  0.6438
  632TIP3   OH2 1859   2.347   6.293   3.736  0.0047 -0.0402  0.4021
  632TIP3    H1 1860   2.432   6.337   3.745  0.0891  0.3190 -1.7183
  632TIP3    H2 1861   2.283   6.364   3.740  0.0159  0.0716 -0.9447
  633TIP3   OH2 1862   1.165   0.262   3.231  0.6526  0.3912  0.5271
  633TIP3    H1 1863   1.251   0.299   3.248  1.0435 -0.5014  0.5527
  633TIP3    H2 1864   1.177   0.167   3.242 -0.3912  0.2772  0.8105
  634TIP3   OH2 1865   3.286   0.613   5.381  0.0503 -0.5251 -0.3242
  634TIP3    H1 1866   3.216   0.643   5.439  0.2830 -0.3115 -0.1499
  634TIP3    H2 1867   3.303   0.687   5.323 -0.5802 -0.9408 -1.0490
  635TIP3   OH2 1868   7.216   5.802   5.318 -0.3765 -0.0629 -0.0373
  635TIP3    H1 1869   7.265   5.833   5.242 -0.2695  0.9446  0.4173
  635TIP3    H2 1870   7.132   5.847   5.313 -1.0123 -1.2628 -0.4432
  636TIP3   OH2 1871   0.918   5.964   3.196  0.0364  0.0804 -0.5297
  636TIP3    H1 1872   0.923   6.038   3.257 -0.3599 -0.7434  0.5468
  636TIP3    H2 1873   0.889   5.891   3.251  4.8994 -2.1278 -0.4098
  637TIP3   OH2 1874   3.974   4.088   1.447  0.4159  0.0555  0.0555
  637TIP3    H1 1875   3.909   4.023   1.472  0.2765  0.2431  0.1787
  637TIP3    H2 1876   4.022   4.107   1.528  0.8630 -0.3470 -0.1071
  638TIP3   OH2 1877   2.312   3.637   1.897  0.3046  0.4524 -0.2997
  638TIP3    H1 1878   2.293   3.548   1.928 -1.9396  1.7542  2.4827
  638TIP3    H2 1879   2.230   3.668   1.860  1.0178  1.4865 -1.0993
  639TIP3   OH2 1880   1.046   0.216   3.604  0.0794 -0.5958 -0.1185
  639TIP3    H1 1881   1.017   0.299   3.641 -0.0005 -1.1205  1.0486
  639TIP3    H2 1882   1.142   0.219   3.610  0.0879 -0.4933 -0.2967
  640TIP3   OH2 1883   3.619   3.813   5.620  0.8364 -0.2097  0.4178
  640TIP3    H1 1884   3.681   3.836   5.551 -0.8101  0.5829 -0.8735
  640TIP3    H2 1885   3.595   3.722   5.601 -1.7718  0.8198 -1.9457
  641TIP3   OH2 1886   1.100   1.753   5.867 -0.1927 -0.5891  0.5620
  641TIP3    H1 1887   1.090   1.754   5.962 -0.1034 -1.5883  0.5954
  641TIP3    H2 1888   1.189   1.722   5.852 -0.1825 -0.3709  0.1519
  642TIP3   OH2 1889   5.904   5.355   0.499  0.1948 -0.2600 -0.3097
  642TIP3    H1 1890   5.959   5.427   0.532  0.3511 -0.2097 -0.6809
  642TIP3    H2 1891   5.909   5.289   0.568 -2.1885  1.1685  1.3797
  643TIP3   OH2 1892   3.409   4.706   5.315  0.6213  0.4182  0.0293
  643TIP3    H1 1893   3.490   4.758   5.310  1.9249 -1.4758  0.4281
  643TIP3    H2 1894   3.417   4.658   5.397 -0.0778 -1.1307 -0.7833
  644TIP3   OH2 1895   0.636   1.164   4.097  0.2293  0.2410  0.0464
  644TIP3    H1 1896   0.680   1.080   4.109 -0.6367 -0.1493  0.5989
  644TIP3    H2 1897   0.644   1.209   4.181 -2.1196 -0.6893  0.8484
  645TIP3   OH2 1898   2.038   4.008   1.301 -0.0726  0.3657  0.2926
  645TIP3    H1 1899   2.132   4.002   1.283  0.3621  1.9285  1.7597
  645TIP3    H2 1900   2.012   3.919   1.325  0.2938 -0.7885 -3.0576
  646TIP3   OH2 1901   2.147   1.414   5.274 -0.2371 -0.2705 -0.0724
  646TIP3    H1 1902   2.172   1.469   5.349  1.5561 -0.7551 -0.2848
  646TIP3    H2 1903   2.211   1.436   5.206 -2.1964  0.6337 -1.7493
  647TIP3   OH2 1904   0.172   1.806   2.074 -0.1420 -0.5479 -0.3622
  647TIP3    H1 1905   0.196   1.763   1.992  0.8010  0.9934 -0.9247
  647TIP3    H2 1906   0.132   1.889   2.047 -0.0797 -0.1452  0.7309
  648TIP3   OH2 1907   3.077   3.662   0.412 -0.5632 -0.2819 -0.1611
  648TIP3    H1 1908   3.059   3.593   0.477  2.2680 -0.1271  0.9158
  648TIP3    H2 1909   3.047   3.743   0.454 -2.5882 -0.6306 -0.8458
  649TIP3   OH2 1910   4.700   4.791   3.856 -0.1131  0.2078  0.5868
  649TIP3    H1 1911   4.742   4.848   3.921  0.7667  0.6458 -0.3394
  649TIP3    H2 1912   4.764   4.784   3.785 -0.0018 -2.2606  0.8222
  650TIP3   OH2 1913   2.563   4.837   2.772  0.1371 -0.1822 -0.8513
  650TIP3    H1 1914   2.572   4.755   2.724  1.4161 -0.2187 -0.5860
  650TIP3    H2 1915   2.485   4.877   2.736 -0.2130 -1.2744 -1.3521
  651TIP3   OH2 1916   0.732   1.866   3.726 -0.4366  0.0380  0.4441
  651TIP3    H1 1917   0.769   1.925   3.660 -0.5707 -0.2570  0.1032
  651TIP3    H2 1918   0.703   1.790   3.676 -2.7008  0.7908  0.5020
  652TIP3   OH2 1919   0.565   2.209   3.889 -0.3851 -0.0561 -0.6862
  652TIP3    H1 1920   0.660   2.210   3.884 -0.4033 -0.4056 -1.2063
  652TIP3    H2 1921   0.536   2.260   3.813 -0.6106  0.4058 -0.2975
  653TIP3   OH2 1922   1.938   4.083   0.634  0.2746 -0.0401  0.0332
  653TIP3    H1 1923   2.011   4.021   0.627  1.9439  1.6727  1.2288
  653TIP3    H2 1924   1.899   4.084   0.547  2.9001  0.3831 -1.2336
  654TIP3   OH2 1925   3.486   4.177   1.710  0.0107 -0.0395 -0.0777
  654TIP3    H1 1926   3.551   4.155   1.643  0.6407 -0.0918  0.5376
  654TIP3    H2 1927   3.489   4.102   1.770 -2.0174 -0.9723 -1.0561
  655TIP3   OH2 1928   0.192   0.701   4.806 -0.5422 -0.3897 -0.2870
  655TIP3    H1 1929   0.152   0.632   4.752  0.2984 -1.1777  0.0735
  655TIP3    H2 1930   0.134   0.710   4.881 -1.9581  1.0138 -1.4774
  656TIP3   OH2 1931   5.198   1.075   1.343  0.0497 -1.0201  0.4956
  656TIP3    H1 1932   5.166   1.122   1.267 -0.0659 -0.2850  0.9940
  656TIP3    H2 1933   5.188   1.136   1.416  0.1996 -1.6934  1.0970
  657TIP3   OH2 1934   1.479   1.176   3.501 -0.0952  0.1646  0.4623
  657TIP3    H1 1935   1.545   1.245   3.494 -1.1141  1.0182 -1.9394
  657TIP3    H2 1936   1.518   1.101   3.455 -1.0524  0.9634 -1.7833
  658TIP3   OH2 1937   1.225   5.045   5.203 -0.0850  0.2793  0.0304
  658TIP3    H1 1938   1.282   5.034   5.279 -0.2459  1.1834  0.2989
  658TIP3    H2 1939   1.138   5.061   5.242 -0.1642  0.7636 -0.3370
  659TIP3   OH2 1940   5.417   4.435   0.075  0.2290 -0.4635 -0.3595
  659TIP3    H1 1941   5.475   4.430   0.151 -0.6081  1.1542  0.4402
  659TIP3    H2 1942   5.435   4.521   0.037 -2.0770  0.4040  0.3251
  660TIP3   OH2 1943   0.434   5.219   2.580  0.0407  0.7397 -0.0187
  660TIP3    H1 1944   0.469   5.273   2.651  2.7711 -0.5695 -0.2350
  660TIP3    H2 1945   0.373   5.159   2.624 -0.3515  1.6783  0.7590
  661TIP3   OH2 1946   2.491   4.140   4.637 -0.1907 -0.2747  0.2510
  661TIP3    H1 1947   2.414   4.112   4.588  0.8244 -1.3228 -0.8135
  661TIP3    H2 1948   2.545   4.186   4.573 -0.3889  1.4048  1.2420
  662TIP3   OH2 1949   5.131   4.029   4.387  0.0145  0.6997 -0.6472
  662TIP3    H1 1950   5.067   4.020   4.458 -1.0218 -0.0207 -1.6417
  662TIP3    H2 1951   5.079   4.056   4.311  1.2098  2.1713 -0.9838
  663TIP3   OH2 1952   2.665   0.329   2.552  0.2571 -0.3423 -0.3924
  663TIP3    H1 1953   2.648   0.363   2.464  1.8036  0.2129 -0.4990
  663TIP3    H2 1954   2.711   0.399   2.597 -0.5629 -0.5971  0.9089
  664TIP3   OH2 1955   2.634   3.405   4.532 -0.2063  0.2337 -0.1989
  664TIP3    H1 1956   2.630   3.313   4.559 -0.0800 -0.2824 -1.8472
  664TIP3    H2 1957   2.708   3.409   4.470  0.2942  1.6175  0.4445
  665TIP3   OH2 1958   3.518   3.557   5.006  0.9581  0.2727  0.2021
  665TIP3    H1 1959   3.560   3.545   4.921  0.4676  1.4011 -0.2306
  665TIP3    H2 1960   3.430   3.588   4.984  0.3601 -0.7358  1.1087
  666TIP3   OH2 1961   2.637   2.790   2.059  0.1423 -0.2790 -0.1857
  666TIP3    H1 1962   2.678   2.824   1.980  0.6713 -0.2921  0.0807
  666TIP3    H2 1963   2.616   2.868   2.111  2.4671 -0.3593  0.9810
  667TIP3   OH2 1964   6.166   0.280   3.497  0.1618 -0.3408  0.5335
  667TIP3    H1 1965   6.232   0.219   3.530  0.4230 -0.3183  0.0625
  667TIP3    H2 1966   6.124   0.315   3.575  1.3995  0.4284  0.8799
  668TIP3   OH2 1967   0.654   2.726   3.055  0.1091 -0.1388 -0.1052
  668TIP3    H1 1968   0.583   2.716   2.992  1.5890  1.5027 -2.1635
  668TIP3    H2 1969   0.610   2.755   3.135 -1.6233  0.0924 -1.0901
  669TIP3   OH2 1970   4.279   3.866   5.819  0.0470 -0.6323  0.7333
  669TIP3    H1 1971   4.341   3.820   5.876  0.3959  0.0772  0.9396
  669TIP3    H2 1972   4.284   3.821   5.735 -1.2853 -2.4120  1.5464
  670TIP3   OH2 1973   1.260   6.250   2.193  0.4805  0.5008 -0.0010
  670TIP3    H1 1974   1.298   6.173   2.152 -0.2732  0.0554  0.1148
  670TIP3    H2 1975   1.167   6.229   2.201  0.2546  1.4475 -0.0278
  671TIP3   OH2 1976   3.885   0.812   3.493 -0.2966  0.1515  0.3489
  671TIP3    H1 1977   3.958   0.848   3.443  0.9337 -0.2902  1.7737
  671TIP3    H2 1978   3.836   0.759   3.429  1.4693 -0.7538 -0.3132
  672TIP3   OH2 1979   4.856   1.535   3.025 -0.2705 -0.5246  0.4724
  672TIP3    H1 1980   4.925   1.600   3.014 -0.8720 -0.2638 -2.3729
  672TIP3    H2 1981   4.901   1.451   3.016 -0.0552 -0.4102  0.4816
  673TIP3   OH2 1982   6.220   1.304   4.334  0.5312  0.4537 -0.2801
  673TIP3    H1 1983   6.265   1.325   4.416  0.2740 -1.5158  0.4236
  673TIP3    H2 1984   6.128   1.299   4.358  0.6107 -1.8430 -0.2405
  674TIP3   OH2 1985   5.673   6.604   2.720 -0.6747  0.0236  0.0874
  674TIP3    H1 1986   5.661   6.660   2.643  2.7608  1.4240  0.3607
  674TIP3    H2 1987   5.730   6.533   2.689 -2.3301 -1.5609  0.5330
  675TIP3   OH2 1988   3.942   1.821   3.167 -0.3585 -0.2488 -0.0056
  675TIP3    H1 1989   4.024   1.798   3.121  1.5267  0.2913  2.8481
  675TIP3    H2 1990   3.914   1.739   3.207 -0.5197 -0.1578  0.0672
  676TIP3   OH2 1991   0.346   2.738   0.351  0.2384  0.2450 -0.1947
  676TIP3    H1 1992   0.297   2.667   0.311  0.6510  0.0739 -0.3983
  676TIP3    H2 1993   0.299   2.758   0.432  0.7705 -1.0334  0.4492
  677TIP3   OH2 1994   2.471   4.267   1.604 -0.8621  0.3117  0.2857
  677TIP3    H1 1995   2.503   4.236   1.689 -0.0751 -0.3326 -0.2347
  677TIP3    H2 1996   2.376   4.261   1.611 -0.7873 -0.3821  0.8911
  678TIP3   OH2 1997   0.163   0.827   3.628 -1.0618  0.0437 -0.4197
  678TIP3    H1 1998   0.151   0.889   3.700  0.8968  1.0531 -0.9035
  678TIP3    H2 1999   0.113   0.864   3.556  0.2183  1.1926 -0.7499
  679TIP3   OH2 2000   6.223   0.264   5.724 -0.1888 -0.3395  0.0125
  679TIP3    H1 2001   6.246   0.232   5.637  0.2116  0.2070 -0.0887
  679TIP3    H2 2002   6.211   0.185   5.776 -1.8222 -0.7229 -0.8742
  680TIP3   OH2 2003   6.808   0.025   4.031 -0.9464  0.2982 -0.2032
  680TIP3    H1 2004   6.790   0.055   3.942 -0.0149 -0.7220 -0.7568
  680TIP3    H2 2005   6.771   0.093   4.087 -1.1761  1.1695 -1.3751
  681TIP3   OH2 2006   1.244   6.604   4.030  0.2912 -0.2304  0.2134
  681TIP3    H1 2007   1.298   6.647   4.096 -0.3335  1.0595 -0.0786
  681TIP3    H2 2008   1.202   6.677   3.983 -1.2652 -1.1816  0.0768
  682TIP3   OH2 2009   0.420   1.866   2.647 -0.1878  0.5406  0.0763
  682TIP3    H1 2010   0.381   1.806   2.584 -0.4977  1.8215 -1.0065
  682TIP3    H2 2011   0.513   1.869   2.623  0.3949 -1.4927  1.8172
  683TIP3   OH2 2012   0.069   5.449   0.116  0.3391  0.3942 -0.0329
  683TIP3    H1 2013  -0.005   5.401   0.154 -0.3474  0.5601 -1.1129
  683TIP3    H2 2014   0.124   5.381   0.076  2.0500  0.0089  2.7533
  684TIP3   OH2 2015   2.462   0.152   5.155 -0.1380 -0.2665  0.0860
  684TIP3    H1 2016   2.543   0.197   5.181 -0.0198  0.0624 -0.7893
  684TIP3    H2 2017   2.401   0.167   5.227  0.3334  0.1724  0.3980
  685TIP3   OH2 2018   0.823   6.455   4.403  0.0118  0.5827 -0.3442
  685TIP3    H1 2019   0.814   6.448   4.307 -1.1990  0.6070 -0.2491
  685TIP3    H2 2020   0.734   6.467   4.434  0.6278  4.1546  0.5142
  686TIP3   OH2 2021   3.738   5.385   5.742 -0.0069  0.3800 -0.2055
  686TIP3    H1 2022   3.700   5.468   5.714  0.1320  0.2340 -0.8487
  686TIP3    H2 2023   3.714   5.323   5.673 -0.0813 -0.1094  0.2513
  687TIP3   OH2 2024   1.161   0.732   5.655  0.3245  0.5534  0.2264
  687TIP3    H1 2025   1.071   0.766   5.663 -0.0877 -0.2165 -1.0156
  687TIP3    H2 2026   1.167   0.665   5.724 -0.5969 -0.5020 -0.6819
  688TIP3   OH2 2027   3.887   2.027   2.670  0.5830  0.4291 -0.0623
  688TIP3    H1 2028   3.909   2.115   2.638 -0.2563 -0.0329 -2.0568
  688TIP3    H2 2029   3.845   1.985   2.595 -0.5706 -1.1071  1.4027
  689TIP3   OH2 2030   2.010   3.889   3.073 -0.5395 -0.4851 -0.0193
  689TIP3    H1 2031   1.992   3.982   3.081  1.8810 -0.0043  0.5895
  689TIP3    H2 2032   2.096   3.877   3.113 -0.9065 -3.0413  0.1885
  690TIP3   OH2 2033   3.678   0.536   4.126  0.0484  0.1228  0.0264
  690TIP3    H1 2034   3.611   0.469   4.114  0.8377 -0.2858 -2.6660
  690TIP3    H2 2035   3.633   0.619   4.115 -1.1968  0.3360  4.5542
  691TIP3   OH2 2036   4.668   1.453   2.419 -0.0154  0.1700  0.1243
  691TIP3    H1 2037   4.623   1.459   2.503 -0.9657  1.4472 -0.4414
  691TIP3    H2 2038   4.749   1.406   2.439 -0.4602 -0.0176  1.6466
  692TIP3   OH2 2039   1.910   1.523   3.937 -0.2497 -0.4970 -0.0643
  692TIP3    H1 2040   1.832   1.494   3.889  0.0828  2.8703 -3.0369
  692TIP3    H2 2041   1.875   1.567   4.014 -1.0952 -1.4967  0.1557
  693TIP3   OH2 2042   6.419   3.051   2.137 -0.1566 -0.2503 -0.2960
  693TIP3    H1 2043   6.336   3.088   2.107  0.6003  1.2631 -0.6160
  693TIP3    H2 2044   6.429   2.970   2.087 -1.2695 -0.2778 -0.4946
  694TIP3   OH2 2045   1.847   3.281   4.226  0.4922 -0.2625 -0.3780
  694TIP3    H1 2046   1.779   3.348   4.226  0.9514  0.2542  1.4401
  694TIP3    H2 2047   1.922   3.323   4.269  1.1460 -1.6070 -0.1469
  695TIP3   OH2 2048   3.984   2.650   0.496  0.2249 -0.1972 -0.4185
  695TIP3    H1 2049   3.942   2.587   0.437  0.5423 -0.5487 -0.2752
  695TIP3    H2 2050   4.070   2.613   0.513  0.3307  0.1668 -0.1482
  696TIP3   OH2 2051   4.379   2.166   0.621  0.0765  0.7635  0.0906
  696TIP3    H1 2052   4.415   2.199   0.704 -1.4648 -0.2837  1.2445
  696TIP3    H2 2053   4.288   2.194   0.622 -0.1057  0.2473 -0.9878
  697TIP3   OH2 2054   5.858   0.241   0.364 -0.3077  0.2857 -0.3431
  697TIP3    H1 2055   5.875   0.246   0.458 -1.1697 -1.6788 -0.0355
  697TIP3    H2 2056   5.942   0.219   0.325  0.1593  1.5796 -0.1130
  698TIP3   OH2 2057   2.492   5.175   0.818  0.4728 -0.0733  0.1197
  698TIP3    H1 2058   2.577   5.188   0.775  0.0888 -2.2381 -1.4656
  698TIP3    H2 2059   2.428   5.185   0.747 -0.3956 -1.0096  0.7493
  699TIP3   OH2 2060   2.688   3.435   1.572  0.5318  0.3108 -0.1212
  699TIP3    H1 2061   2.639   3.513   1.546  0.8088  0.5099 -0.0585
  699TIP3    H2 2062   2.766   3.438   1.517  0.1283 -0.4009 -0.7427
  700TIP3   OH2 2063   6.944   4.304   1.088  0.7693  0.4123  0.1427
  700TIP3    H1 2064   7.029   4.282   1.126  0.0814  0.3632  1.7294
  700TIP3    H2 2065   6.898   4.353   1.156 -0.5774  0.2183 -0.5725
  701TIP3   OH2 2066   5.611   6.141   5.147  0.2175  0.2195 -0.1016
  701TIP3    H1 2067   5.573   6.145   5.234  0.2121 -1.0264 -0.0333
  701TIP3    H2 2068   5.538   6.122   5.089  0.5670 -1.3237 -0.0726
  702TIP3   OH2 2069   2.672   5.814   4.658  0.3014 -0.0759 -0.0151
  702TIP3    H1 2070   2.693   5.721   4.674  1.7301  0.0717 -0.9142
  702TIP3    H2 2071   2.647   5.817   4.566 -3.0900 -0.0836  0.7739
  703TIP3   OH2 2072   2.783   2.005   4.087 -0.0639  0.2273 -0.0072
  703TIP3    H1 2073   2.757   1.917   4.112  2.9698 -0.2772  1.8035
  703TIP3    H2 2074   2.848   1.993   4.018 -0.8762  1.1990 -0.9984
  704TIP3   OH2 2075   7.166   4.224   5.170 -0.7408  0.0533 -0.4689
  704TIP3    H1 2076   7.184   4.131   5.182  1.0091  0.4767  0.5193
  704TIP3    H2 2077   7.121   4.251   5.250 -0.8918  0.1645 -0.5873
  705TIP3   OH2 2078   5.406   4.806   0.175 -0.4677 -0.6142 -0.0392
  705TIP3    H1 2079   5.438   4.737   0.116  0.3401  0.2051 -0.5697
  705TIP3    H2 2080   5.398   4.762   0.260 -1.2198 -1.6982 -0.6378
  706TIP3   OH2 2081   1.850   5.194   0.618 -0.2697  0.0461 -0.0117
  706TIP3    H1 2082   1.901   5.116   0.596 -1.5988 -1.1246  0.8570
  706TIP3    H2 2083   1.915   5.260   0.640  0.8927 -0.8487 -0.6933
  707TIP3   OH2 2084   1.087   6.789   0.459 -0.1070 -0.1439 -0.2813
  707TIP3    H1 2085   1.088   6.702   0.420 -2.0995 -0.0063 -0.7433
  707TIP3    H2 2086   1.062   6.847   0.387 -1.9216  0.3626  0.6936
  708TIP3   OH2 2087   5.449   1.360   2.124 -0.6649 -0.0445 -0.1755
  708TIP3    H1 2088   5.431   1.391   2.035 -0.4579  0.0789 -0.1740
  708TIP3    H2 2089   5.531   1.402   2.148 -0.8294  0.0890  0.1550
  709TIP3   OH2 2090   0.581   4.515   1.761 -0.1070 -0.0972 -0.4113
  709TIP3    H1 2091   0.572   4.446   1.696 -2.3620 -1.2361  0.9804
  709TIP3    H2 2092   0.497   4.561   1.759  0.1078  0.4082  1.0572
  710TIP3   OH2 2093   4.924   3.946   1.937  0.4184  0.0976  0.4084
  710TIP3    H1 2094   4.940   3.904   1.852 -0.9924  1.0703 -0.3764
  710TIP3    H2 2095   4.883   3.877   1.989 -0.2870 -0.0216 -0.2829
  711TIP3   OH2 2096   4.866   6.225   4.016 -0.0277 -0.4483  0.3378
  711TIP3    H1 2097   4.942   6.273   3.983  0.8467 -2.4324 -0.7016
  711TIP3    H2 2098   4.857   6.255   4.106  1.1552  0.8285  0.0711
  712TIP3   OH2 2099   4.065   5.797   1.172 -0.3337 -0.2439  0.4051
  712TIP3    H1 2100   4.007   5.851   1.226  0.8525  0.5496  0.9104
  712TIP3    H2 2101   4.059   5.835   1.084  0.9727  1.1542  0.8812
  713TIP3   OH2 2102   6.484   6.620   1.983  0.0689  0.7106  0.3150
  713TIP3    H1 2103   6.535   6.701   1.992 -0.4808  1.2164 -0.8853
  713TIP3    H2 2104   6.418   6.625   2.052  2.0919 -0.3504  2.4453
  714TIP3   OH2 2105   7.201   5.387   1.703 -0.2431 -0.0657  0.1138
  714TIP3    H1 2106   7.164   5.406   1.617 -0.3586 -1.8014 -0.2685
  714TIP3    H2 2107   7.128   5.349   1.752 -0.5714  2.2137  1.5123
  715TIP3   OH2 2108   2.331   5.083   1.351 -0.3489 -0.1354  0.1949
  715TIP3    H1 2109   2.283   5.071   1.433 -1.3806  2.1624  0.0133
  715TIP3    H2 2110   2.353   5.176   1.350 -0.2862 -0.1240 -2.0953
  716TIP3   OH2 2111   6.707   0.451   0.953  0.1951 -0.1365  0.4357
  716TIP3    H1 2112   6.751   0.515   0.897  0.0120  0.4685  0.9806
  716TIP3    H2 2113   6.669   0.502   1.024 -1.6620 -0.5943 -0.1624
  717TIP3   OH2 2114   6.611   0.945   3.979  0.3697  0.2176 -0.1795
  717TIP3    H1 2115   6.679   0.878   3.987  0.7000  0.5598 -0.0965
  717TIP3    H2 2116   6.595   0.974   4.069 -1.6806 -1.6109  0.1284
  718TIP3   OH2 2117   6.570   1.142   2.143  0.2912  0.1100  0.4542
  718TIP3    H1 2118   6.567   1.234   2.117 -1.1036  0.2260  0.9369
  718TIP3    H2 2119   6.653   1.109   2.108 -0.0065  1.0834 -1.2444
  719TIP3   OH2 2120   3.371   2.526   0.687  0.4116 -0.2513  0.0080
  719TIP3    H1 2121   3.280   2.556   0.682  0.4370 -0.3703 -2.3516
  719TIP3    H2 2122   3.364   2.432   0.704  0.2253  0.1866  2.7797
  720TIP3   OH2 2123   5.594   3.601   2.187 -0.0406 -0.0015 -0.1971
  720TIP3    H1 2124   5.647   3.676   2.215  1.4535 -0.9769 -0.3381
  720TIP3    H2 2125   5.639   3.525   2.223 -2.3195 -0.8015  1.1673
  721TIP3   OH2 2126   2.987   1.007   2.175  0.6874 -0.1939  0.0125
  721TIP3    H1 2127   3.081   1.006   2.192  0.6378 -0.6562  0.2823
  721TIP3    H2 2128   2.979   1.009   2.080  0.9759  1.7421 -0.0084
  722TIP3   OH2 2129   3.084   3.384   0.852  0.5923 -0.5678 -0.9625
  722TIP3    H1 2130   2.990   3.375   0.833  0.6541 -0.1016 -1.5186
  722TIP3    H2 2131   3.117   3.295   0.849  0.5652 -0.5545 -2.9682
  723TIP3   OH2 2132   3.631   1.320   1.800 -0.3161 -0.2255  0.5471
  723TIP3    H1 2133   3.657   1.357   1.716 -0.1905  1.2211  1.1838
  723TIP3    H2 2134   3.680   1.371   1.865 -2.1611  0.2929  1.6103
  724TIP3   OH2 2135   3.017   6.684   3.610 -0.1328 -0.0705 -0.3334
  724TIP3    H1 2136   2.978   6.632   3.680 -0.6759  0.2793 -0.3648
  724TIP3    H2 2137   2.951   6.752   3.591  0.2828  0.2304 -0.7338
  725TIP3   OH2 2138   1.869   1.319   1.113 -0.0924  0.4293  0.0642
  725TIP3    H1 2139   1.961   1.305   1.136 -0.1321 -1.1405 -0.5568
  725TIP3    H2 2140   1.823   1.243   1.151 -0.7695  0.0079 -1.5176
  726TIP3   OH2 2141   1.573   0.553   0.378  0.4590  0.0588 -0.3633
  726TIP3    H1 2142   1.585   0.484   0.313  0.5260 -0.0271 -0.2605
  726TIP3    H2 2143   1.657   0.599   0.381  0.6271 -0.2676  0.0403
  727TIP3   OH2 2144   6.034   3.566   2.456 -0.4275  0.4180  0.2627
  727TIP3    H1 2145   6.077   3.633   2.510 -1.0538  1.5725 -0.6173
  727TIP3    H2 2146   5.949   3.554   2.497 -1.0635  1.5921 -0.6415
  728TIP3   OH2 2147   5.465   0.789   5.442 -0.4440  0.0308  0.0376
  728TIP3    H1 2148   5.427   0.872   5.414  0.1341  0.1922 -0.2980
  728TIP3    H2 2149   5.402   0.722   5.414 -1.0565  0.3726  0.5756
  729TIP3   OH2 2150   5.912   1.688   1.966 -0.1210  0.5840  0.4606
  729TIP3    H1 2151   5.969   1.678   2.042  3.7238 -1.5519 -2.3348
  729TIP3    H2 2152   5.918   1.781   1.944 -0.6569  1.0743  2.1983
  730TIP3   OH2 2153   3.983   0.438   3.333  0.0924  0.0527 -0.1695
  730TIP3    H1 2154   3.905   0.490   3.314 -0.1246 -0.1532  0.1563
  730TIP3    H2 2155   4.041   0.454   3.258  0.9282  2.4690  0.8970
  731TIP3   OH2 2156   7.094   5.906   3.251  0.7683  0.6478  0.1152
  731TIP3    H1 2157   7.159   5.971   3.276  1.3377  0.1703 -0.0826
  731TIP3    H2 2158   7.102   5.838   3.318 -0.8565  1.4407  1.1711
  732TIP3   OH2 2159   2.905   4.713   0.761 -0.2083  0.3777 -0.0423
  732TIP3    H1 2160   2.906   4.674   0.674 -1.1201 -0.9235  0.5050
  732TIP3    H2 2161   2.840   4.783   0.755 -1.5590 -0.8231  0.0161
  733TIP3   OH2 2162   4.005   5.551   5.343 -0.1738 -0.0100  0.1073
  733TIP3    H1 2163   3.993   5.457   5.360 -1.0606  0.0130 -0.3044
  733TIP3    H2 2164   4.070   5.555   5.273 -0.5913 -0.3538 -0.3047
  734TIP3   OH2 2165   1.544   0.198   5.752 -0.3536 -0.2334 -0.3426
  734TIP3    H1 2166   1.639   0.207   5.752 -0.4275  1.0190  1.1633
  734TIP3    H2 2167   1.519   0.206   5.660  0.7360  3.0195 -0.4844
  735TIP3   OH2 2168   0.509   4.132   4.622 -0.8134  0.4110 -0.3648
  735TIP3    H1 2169   0.493   4.073   4.696 -0.1930 -2.2560 -2.2093
  735TIP3    H2 2170   0.431   4.124   4.568 -0.0118 -0.0941 -1.4778
  736TIP3   OH2 2171   5.303   5.957   2.046 -0.5841  0.4635 -0.1272
  736TIP3    H1 2172   5.271   5.867   2.037 -0.0705  0.3289 -0.6581
  736TIP3    H2 2173   5.232   6.004   2.091 -0.0179 -0.6960  2.1392
  737TIP3   OH2 2174   2.726   4.406   0.226 -0.1323  0.0852 -0.2874
  737TIP3    H1 2175   2.667   4.422   0.152  1.5998  1.8382 -1.3937
  737TIP3    H2 2176   2.669   4.370   0.294 -2.6920  2.4804 -0.9382
  738TIP3   OH2 2177   5.566   0.851   2.303 -0.1278 -0.0366  0.2683
  738TIP3    H1 2178   5.544   0.863   2.395 -0.6127 -1.3197  0.3318
  738TIP3    H2 2179   5.552   0.938   2.264  1.0045  0.7799  1.5560
  739TIP3   OH2 2180   3.166   2.850   1.201 -0.7333 -0.3186 -0.8170
  739TIP3    H1 2181   3.151   2.766   1.243 -0.7665 -0.8882 -1.9402
  739TIP3    H2 2182   3.183   2.910   1.273 -0.2490 -1.3754 -0.0281
  740TIP3   OH2 2183   1.076   4.079   0.036  0.0980  0.4932  0.2869
  740TIP3    H1 2184   0.983   4.069   0.015 -0.5342 -1.2456  3.3101
  740TIP3    H2 2185   1.077   4.115   0.125  2.3334  1.0601  0.0931
  741TIP3   OH2 2186   3.929   1.299   4.275  0.0382 -1.1213 -0.5418
  741TIP3    H1 2187   4.017   1.327   4.299  0.2915 -0.2872 -2.3162
  741TIP3    H2 2188   3.942   1.219   4.224 -0.1287 -0.4962 -1.6007
  742TIP3   OH2 2189   4.980   5.239   3.700  0.4230 -0.0452  0.0206
  742TIP3    H1 2190   5.004   5.311   3.641  3.4906 -2.2197 -1.7245
  742TIP3    H2 2191   4.901   5.202   3.662  0.1776  0.9523 -0.4743
  743TIP3   OH2 2192   1.319   2.015   5.414  0.3348 -0.2449  0.4061
  743TIP3    H1 2193   1.283   2.062   5.339  0.1417 -1.8835 -0.5776
  743TIP3    H2 2194   1.245   2.007   5.475 -0.4751 -1.7967 -0.7122
  744TIP3   OH2 2195   6.810   6.623   3.220 -0.0106 -0.0920  0.0897
  744TIP3    H1 2196   6.763   6.547   3.186  1.2394 -0.6820 -0.3789
  744TIP3    H2 2197   6.903   6.599   3.213  0.4594  1.8451 -0.9567
  745TIP3   OH2 2198   3.013   6.285   1.082  0.0614  1.2158 -0.3661
  745TIP3    H1 2199   3.068   6.252   1.153  1.1899  2.1417 -0.7829
  745TIP3    H2 2200   3.075   6.306   1.012 -1.0053  0.5737 -1.5362
  746TIP3   OH2 2201   2.900   4.946   0.448 -0.1241  0.1941 -0.4196
  746TIP3    H1 2202   2.919   4.855   0.424  0.7063  0.2204  0.1112
  746TIP3    H2 2203   2.893   4.992   0.364 -0.1539 -0.2791 -0.6785
  747TIP3   OH2 2204   3.696   5.298   2.766  0.4017 -0.6071 -0.3263
  747TIP3    H1 2205   3.790   5.287   2.778  0.2292  0.8695  4.0250
  747TIP3    H2 2206   3.687   5.381   2.719  1.2079 -1.0173 -1.2475
  748TIP3   OH2 2207   3.836   5.213   0.248  0.3409 -0.1045 -0.8947
  748TIP3    H1 2208   3.889   5.285   0.282  0.1350  0.3031 -1.4156
  748TIP3    H2 2209   3.895   5.165   0.190  0.5552 -0.5220 -0.3440
  749TIP3   OH2 2210   5.400   3.676   4.457  0.1767 -0.6138  0.5985
  749TIP3    H1 2211   5.475   3.665   4.398 -2.2879 -1.3405 -2.7199
  749TIP3    H2 2212   5.396   3.770   4.473  0.7403 -0.3395 -0.7358
  750TIP3   OH2 2213   7.089   3.575   4.724 -0.4530  0.2921  0.1476
  750TIP3    H1 2214   7.099   3.646   4.660  0.4353 -0.1564 -0.2172
  750TIP3    H2 2215   7.055   3.619   4.802  0.1079  1.1306 -0.0603
  751TIP3   OH2 2216   2.036   6.478   2.069 -0.3139  0.5614  0.1096
  751TIP3    H1 2217   1.975   6.527   2.015 -1.0471 -0.8671 -0.4140
  751TIP3    H2 2218   2.077   6.416   2.009 -0.4030 -0.3734  0.9861
  752TIP3   OH2 2219   5.559   2.395   3.553 -0.7401  0.5949 -0.1896
  752TIP3    H1 2220   5.522   2.482   3.567 -0.8590  0.2163  2.2996
  752TIP3    H2 2221   5.567   2.358   3.641  2.8034 -0.5090 -0.8299
  753TIP3   OH2 2222   1.912   2.598   5.167  0.3779 -0.9197 -0.8108
  753TIP3    H1 2223   1.892   2.623   5.257 -0.1240 -2.0437 -0.5964
  753TIP3    H2 2224   1.899   2.504   5.165  2.0343 -1.1616 -1.6364
  754TIP3   OH2 2225   0.416   0.743   5.212 -0.0772  0.2180  0.2972
  754TIP3    H1 2226   0.474   0.785   5.148 -1.0242 -0.0150 -0.7421
  754TIP3    H2 2227   0.337   0.798   5.212 -0.7724 -0.7614 -0.0456
  755TIP3   OH2 2228   2.890   3.412   0.319  0.2642 -0.0167  0.4563
  755TIP3    H1 2229   2.922   3.477   0.257 -0.6754  0.2728  0.2627
  755TIP3    H2 2230   2.853   3.343   0.264 -0.9362  0.4269  0.6848
  756TIP3   OH2 2231   1.229   3.061   0.247  0.0251  0.1373 -0.6154
  756TIP3    H1 2232   1.277   3.126   0.298 -1.1426  0.7411 -0.2661
  756TIP3    H2 2233   1.267   2.977   0.275 -1.0926  0.3779  1.8933
  757TIP3   OH2 2234   0.967   5.228   0.969  0.7492  0.7622 -0.2474
  757TIP3    H1 2235   0.934   5.141   0.994  3.9480 -0.6223 -0.2995
  757TIP3    H2 2236   0.910   5.289   1.014 -0.7143 -1.4109  1.0440
  758TIP3   OH2 2237   5.642   1.810   1.711  0.1606 -0.2640 -0.5373
  758TIP3    H1 2238   5.547   1.799   1.702  0.1188  0.9226 -1.8071
  758TIP3    H2 2239   5.652   1.894   1.757  0.6071 -0.1151 -0.9068
  759TIP3   OH2 2240   5.179   1.737   5.033  0.5028 -0.5530 -0.1861
  759TIP3    H1 2241   5.181   1.643   5.012  0.4983 -0.0976 -2.4970
  759TIP3    H2 2242   5.176   1.780   4.948  0.4667  1.5695  0.8336
  760TIP3   OH2 2243   4.302   0.703   1.836  0.1556  0.4675 -0.0442
  760TIP3    H1 2244   4.250   0.763   1.890  0.5946 -0.0965  1.0550
  760TIP3    H2 2245   4.392   0.732   1.849  0.5247 -1.1699  1.5772
  761TIP3   OH2 2246   0.965   6.230   2.187  0.4563  0.1339  0.0881
  761TIP3    H1 2247   0.886   6.259   2.232 -1.6138 -2.6092 -1.4716
  761TIP3    H2 2248   0.961   6.272   2.102  0.0292 -0.8607 -0.3997
  762TIP3   OH2 2249   0.018   5.341   3.872  0.0349  0.6380  0.3024
  762TIP3    H1 2250  -0.039   5.270   3.899  0.3262 -0.1174 -0.9813
  762TIP3    H2 2251   0.082   5.300   3.814 -0.4005  2.0833 -1.2902
  763TIP3   OH2 2252   2.318   5.620   2.397  0.0118  0.0208 -0.2955
  763TIP3    H1 2253   2.237   5.668   2.382 -0.5818 -1.0717 -0.6324
  763TIP3    H2 2254   2.304   5.573   2.479 -0.0938 -0.9718 -0.8702
  764TIP3   OH2 2255   1.110   5.122   2.968  0.0401 -0.6726  0.1329
  764TIP3    H1 2256   1.056   5.202   2.966 -0.3061 -0.9214 -0.7176
  764TIP3    H2 2257   1.046   5.051   2.975  0.1474 -1.0634 -2.2687
  765TIP3   OH2 2258   2.920   3.808   0.741  0.4114  0.1275  0.0013
  765TIP3    H1 2259   2.906   3.725   0.694 -1.7215  0.4228  0.0190
  765TIP3    H2 2260   2.962   3.865   0.677  2.0460 -0.9841  0.0285
  766TIP3   OH2 2261   5.940   1.044   3.470 -0.0479 -0.4519 -0.0362
  766TIP3    H1 2262   6.002   0.975   3.447 -0.0295 -0.8977  1.2300
  766TIP3    H2 2263   5.872   1.000   3.520  0.3338  0.5050  1.4274
  767TIP3   OH2 2264   6.044   1.190   0.632  0.1018 -0.0912  0.1995
  767TIP3    H1 2265   5.959   1.178   0.590 -0.3681  0.3021  1.0061
  767TIP3    H2 2266   6.029   1.258   0.698  0.7110 -0.9489  1.2613
  768TIP3   OH2 2267   4.409   3.073   3.558 -0.1177 -0.4043  0.0724
  768TIP3    H1 2268   4.332   3.020   3.576  0.6274 -1.9391 -1.0469
  768TIP3    H2 2269   4.404   3.145   3.622 -2.0492 -0.8664  0.5074
  769TIP3   OH2 2270   6.815   0.540   5.237 -0.0273 -0.0999  0.0881
  769TIP3    H1 2271   6.837   0.506   5.324  0.1741  0.1412  0.1344
  769TIP3    H2 2272   6.763   0.619   5.255 -1.9741 -1.2898 -0.0206
  770TIP3   OH2 2273   2.630   3.790   3.678 -0.2797  0.2733 -0.3385
  770TIP3    H1 2274   2.722   3.814   3.682 -0.1496 -0.2854  0.1994
  770TIP3    H2 2275   2.629   3.696   3.697 -0.9884  0.3513  0.0503
  771TIP3   OH2 2276   0.160   5.174   5.012  0.1070  0.8668  0.2481
  771TIP3    H1 2277   0.118   5.105   4.962  1.7833  0.3278 -0.4980
  771TIP3    H2 2278   0.180   5.134   5.097  1.7644  0.1141 -0.4426
  772TIP3   OH2 2279   6.085   5.341   4.633  0.0765 -0.2060  0.1924
  772TIP3    H1 2280   6.163   5.357   4.687  0.7991 -1.1058 -0.5689
  772TIP3    H2 2281   6.075   5.246   4.631 -1.1384 -0.1046  0.3874
  773TIP3   OH2 2282   6.376   3.970   0.489  0.8070 -0.1109  0.0364
  773TIP3    H1 2283   6.325   3.949   0.568 -1.4436  2.0940 -0.7128
  773TIP3    H2 2284   6.433   4.041   0.516 -1.6123  2.2962 -0.7080
  774TIP3   OH2 2285   2.601   2.472   1.261  0.7560  0.0950 -0.0935
  774TIP3    H1 2286   2.512   2.444   1.286  0.4249 -1.3485 -2.5509
  774TIP3    H2 2287   2.590   2.561   1.229  0.1933 -0.0373 -0.2819
  775TIP3   OH2 2288   6.163   6.428   3.955  0.3981  0.2376  0.1669
  775TIP3    H1 2289   6.243   6.459   3.997  1.8890 -1.0309 -1.6116
  775TIP3    H2 2290   6.193   6.376   3.880 -2.0610 -0.9851 -0.0779
  776TIP3   OH2 2291   6.912   3.385   3.647 -0.2770 -0.5792  0.4923
  776TIP3    H1 2292   6.829   3.384   3.696  1.0859  0.1122  2.9931
  776TIP3    H2 2293   6.962   3.311   3.683  0.4039 -0.6534 -0.5809
  777TIP3   OH2 2294   4.832   2.036   3.870  0.1750 -0.1413  0.2969
  777TIP3    H1 2295   4.882   2.017   3.791 -0.7387 -2.9076  0.2638
  777TIP3    H2 2296   4.893   2.083   3.927  1.6163 -0.2478 -1.0990
  778TIP3   OH2 2297   6.143   6.536   2.773 -0.9356  0.1439  0.8981
  778TIP3    H1 2298   6.229   6.565   2.741 -1.8815  0.5069 -1.5480
  778TIP3    H2 2299   6.124   6.595   2.846  0.7258  0.2797  1.2712
  779TIP3   OH2 2300   2.050   6.257   3.011 -0.2515  0.3250  0.3779
  779TIP3    H1 2301   2.134   6.214   2.992  0.3354  1.2821  0.6972
  779TIP3    H2 2302   2.041   6.322   2.940 -0.6525  0.3197  0.4254
  780TIP3   OH2 2303   3.713   2.940   2.537  0.3073 -0.4096  0.2030
  780TIP3    H1 2304   3.772   2.867   2.554 -1.3338 -1.6982  0.5331
  780TIP3    H2 2305   3.634   2.919   2.585 -0.3520  1.4063 -0.0276
  781TIP3   OH2 2306   2.756   1.465   2.401  0.1026  0.3494  0.2131
  781TIP3    H1 2307   2.777   1.543   2.453  0.1675  0.8445 -0.5482
  781TIP3    H2 2308   2.672   1.435   2.436 -1.6233  2.6834 -1.6333
  782TIP3   OH2 2309   2.925   2.850   4.326 -0.7347  0.2094 -0.3238
  782TIP3    H1 2310   2.950   2.938   4.354 -0.1767 -0.3895  1.1299
  782TIP3    H2 2311   2.829   2.848   4.335 -0.6064  0.1379  1.3322
  783TIP3   OH2 2312   3.562   4.927   0.207 -0.0506 -0.3876 -0.0578
  783TIP3    H1 2313   3.609   4.954   0.285 -0.2763 -3.1930  1.1815
  783TIP3    H2 2314   3.488   4.988   0.200 -0.7024 -0.7378  2.6544
  784TIP3   OH2 2315   6.850   1.106   2.100  0.2858 -0.3032  0.0125
  784TIP3    H1 2316   6.892   1.023   2.076  1.4426  0.0684  0.7160
  784TIP3    H2 2317   6.903   1.140   2.171 -1.2641  0.1511  0.9939
  785TIP3   OH2 2318   1.680   6.122   4.949  0.1630  0.0901  0.0205
  785TIP3    H1 2319   1.758   6.148   4.900 -1.1211  1.1344 -1.5925
  785TIP3    H2 2320   1.651   6.041   4.907 -0.1381  0.2043  0.0065
  786TIP3   OH2 2321   6.816   5.659   4.336 -1.2889  0.1650  0.0999
  786TIP3    H1 2322   6.877   5.731   4.355 -1.5660  0.9504 -1.7978
  786TIP3    H2 2323   6.871   5.590   4.299 -1.1000 -0.4550  1.4626
  787TIP3   OH2 2324   1.228   4.009   4.020  0.6260 -0.2369  0.4277
  787TIP3    H1 2325   1.227   3.922   3.981  1.1971 -0.2342  0.3929
  787TIP3    H2 2326   1.203   4.067   3.948 -2.3392 -0.5642  1.0657
  788TIP3   OH2 2327   6.203   1.002   1.854 -0.4216  0.3961  0.3532
  788TIP3    H1 2328   6.225   0.980   1.944  0.9823  0.0635 -0.0421
  788TIP3    H2 2329   6.180   1.095   1.856 -1.3991  0.1538  1.1984
  789TIP3   OH2 2330   3.774   4.668   1.938 -0.1860  0.3495 -0.2690
  789TIP3    H1 2331   3.774   4.654   1.844  1.7331 -1.6394 -0.0479
  789TIP3    H2 2332   3.846   4.729   1.953  1.4914 -1.6315  0.1084
  790TIP3   OH2 2333   1.940   3.236   2.704  0.3709  0.2720 -0.0660
  790TIP3    H1 2334   1.996   3.314   2.705  0.9505 -0.0634  2.7618
  790TIP3    H2 2335   2.001   3.163   2.719 -0.6366 -0.1428  2.6964
  791TIP3   OH2 2336   2.664   3.303   4.986 -0.3471 -0.3574  0.4031
  791TIP3    H1 2337   2.658   3.236   4.919  0.1694  0.1889 -0.2107
  791TIP3    H2 2338   2.758   3.315   4.999 -0.3799  1.3320 -0.6360
  792TIP3   OH2 2339   2.935   0.952   1.901  0.6925 -0.1324  0.1589
  792TIP3    H1 2340   3.011   1.010   1.894  0.5320  0.1759  0.8976
  792TIP3    H2 2341   2.910   0.936   1.810  0.7525  0.9449 -0.0691
  793TIP3   OH2 2342   2.043   4.295   3.980 -0.0294  0.0268  0.2176
  793TIP3    H1 2343   2.019   4.385   3.962  0.6597  0.5658  1.8013
  793TIP3    H2 2344   2.002   4.244   3.910  0.2961  1.6397 -1.2116
  794TIP3   OH2 2345   6.905   0.049   0.673  0.3367  0.7888  0.3055
  794TIP3    H1 2346   6.994   0.016   0.666 -0.3872 -1.5385  1.1330
  794TIP3    H2 2347   6.907   0.108   0.749  0.8980 -0.4023  1.2596
  795TIP3   OH2 2348   6.372   3.541   4.699  0.4362  0.3911  0.7955
  795TIP3    H1 2349   6.318   3.583   4.766 -0.7862 -0.5137  0.4225
  795TIP3    H2 2350   6.406   3.462   4.742  0.0089  0.0389  0.4890
  796TIP3   OH2 2351   6.884   6.489   4.846  0.0654 -0.3476 -0.4718
  796TIP3    H1 2352   6.867   6.582   4.859 -0.3552 -0.5614  0.5984
  796TIP3    H2 2353   6.811   6.458   4.792 -0.7985 -0.4162  0.6965
  797TIP3   OH2 2354   0.297   1.243   0.960 -0.0296  0.0112 -0.1032
  797TIP3    H1 2355   0.364   1.232   1.027  0.5322  1.9495 -0.2648
  797TIP3    H2 2356   0.290   1.338   0.950 -1.3735 -0.2058 -1.5319
  798TIP3   OH2 2357   3.232   2.761   4.284  0.2943 -0.9041  0.3364
  798TIP3    H1 2358   3.205   2.833   4.226 -0.0222 -0.7196  0.7071
  798TIP3    H2 2359   3.282   2.702   4.227  0.7413 -0.2858  0.0766
  799TIP3   OH2 2360   7.120   3.422   4.026 -0.7064 -0.1212  0.2184
  799TIP3    H1 2361   7.214   3.415   4.042 -0.7875 -1.2476  0.2544
  799TIP3    H2 2362   7.112   3.487   3.957  0.0160  0.8091  0.9774
  800TIP3   OH2 2363   1.289   4.274   0.078 -0.2968  0.1392  0.1721
  800TIP3    H1 2364   1.241   4.194   0.055  0.9652 -0.0908 -1.9156
  800TIP3    H2 2365   1.261   4.338   0.012  0.5298  0.6809  0.3467
  801TIP3   OH2 2366   3.582   6.678   2.929  0.5298  0.3059  0.9017
  801TIP3    H1 2367   3.605   6.594   2.969  1.4945 -0.1676 -0.5631
  801TIP3    H2 2368   3.549   6.730   3.001  1.3030 -0.8302  2.1305
  802TIP3   OH2 2369   4.853   2.281   0.086  0.3053  0.9799  0.0139
  802TIP3    H1 2370   4.777   2.230   0.113 -0.5463  2.4470  0.4620
  802TIP3    H2 2371   4.889   2.317   0.167  1.9487 -0.2828 -0.1054
  803TIP3   OH2 2372   4.783   2.413   5.653 -0.3076 -0.0801  0.4155
  803TIP3    H1 2373   4.839   2.335   5.645 -0.8242 -0.3314 -1.0362
  803TIP3    H2 2374   4.696   2.382   5.627 -0.5693  0.9168  0.0930
  804TIP3   OH2 2375   2.693   2.882   3.205 -0.0961 -0.0003 -0.2825
  804TIP3    H1 2376   2.705   2.868   3.111 -0.1211 -1.3793 -0.0986
  804TIP3    H2 2377   2.656   2.800   3.237 -1.9568  1.1209  0.6276
  805TIP3   OH2 2378   3.784   4.112   0.771 -0.1730  0.6665 -0.7630
  805TIP3    H1 2379   3.848   4.183   0.765 -1.8826  2.3875  0.1799
  805TIP3    H2 2380   3.707   4.145   0.725 -1.7919  0.4042  1.5709
  806TIP3   OH2 2381   6.364   5.393   4.505  0.1839  0.5212  0.2930
  806TIP3    H1 2382   6.440   5.451   4.503  0.8326 -0.3299 -0.1535
  806TIP3    H2 2383   6.328   5.397   4.416  1.4652 -1.3332 -0.3652
  807TIP3   OH2 2384   6.496   1.021   5.359  0.1907 -0.0659  0.2119
  807TIP3    H1 2385   6.418   1.038   5.306  0.0782 -1.2852 -0.0584
  807TIP3    H2 2386   6.541   1.105   5.364 -1.7599  0.9843  1.4289
  808TIP3   OH2 2387   4.191   6.578   4.661 -0.5004 -0.4989 -0.2104
  808TIP3    H1 2388   4.248   6.652   4.640 -1.4112  0.1951 -0.2850
  808TIP3    H2 2389   4.244   6.523   4.719  0.4236 -0.1372 -0.6880
  809TIP3   OH2 2390   3.593   5.734   2.192 -0.4041  0.1344  0.2634
  809TIP3    H1 2391   3.622   5.643   2.189  3.0464  1.1058 -2.9017
  809TIP3    H2 2392   3.515   5.736   2.135  0.7286 -0.5752 -1.3923
  810TIP3   OH2 2393   4.369   3.606   2.246  0.0090 -0.1185  0.3519
  810TIP3    H1 2394   4.348   3.626   2.337 -0.8605  0.2468  0.0773
  810TIP3    H2 2395   4.388   3.512   2.246  0.4389 -0.0366  0.9834
  811TIP3   OH2 2396   3.195   0.030   0.634 -0.1627  0.3693  0.1069
  811TIP3    H1 2397   3.291   0.034   0.637 -0.1811  1.3210 -0.1502
  811TIP3    H2 2398   3.175  -0.063   0.633  0.7546  0.1576  0.3789
  812TIP3   OH2 2399   1.081   0.102   4.052 -0.0938  0.1216  0.3117
  812TIP3    H1 2400   1.142   0.090   3.979 -0.9266 -1.1486 -0.2161
  812TIP3    H2 2401   1.000   0.135   4.011 -0.1933  0.5248  0.8211
  813TIP3   OH2 2402   6.089   5.537   1.223  0.1255  0.3304 -0.2216
  813TIP3    H1 2403   6.137   5.483   1.161  1.5017  0.0435  1.0374
  813TIP3    H2 2404   6.053   5.474   1.286 -3.0431  0.3934 -1.7580
  814TIP3   OH2 2405   5.474   6.320   3.034  0.2413 -0.7637  0.5506
  814TIP3    H1 2406   5.557   6.366   3.019 -0.7021  0.9717  0.3684
  814TIP3    H2 2407   5.432   6.369   3.105 -0.3482 -2.0206  1.0992
  815TIP3   OH2 2408   0.150   3.772   4.504  0.1917  0.0959  0.2177
  815TIP3    H1 2409   0.161   3.698   4.445 -1.4184 -0.5636  0.6987
  815TIP3    H2 2410   0.200   3.843   4.463  2.6970 -1.5202  0.3285
  816TIP3   OH2 2411   1.786   2.878   2.655 -0.1688 -0.4537 -0.4720
  816TIP3    H1 2412   1.870   2.918   2.633 -0.0478 -1.6967 -2.5521
  816TIP3    H2 2413   1.806   2.818   2.727  0.4334  0.2990 -0.0034
  817TIP3   OH2 2414   5.506   2.299   1.012  0.5515  0.1556  0.2960
  817TIP3    H1 2415   5.540   2.238   0.947 -0.9487 -1.3612  0.8455
  817TIP3    H2 2416   5.579   2.359   1.029  1.8551 -1.0231 -0.8247
  818TIP3   OH2 2417   7.105   4.117   1.230 -0.0026  0.7610  0.8488
  818TIP3    H1 2418   7.054   4.085   1.156  1.0407  1.1494 -0.0655
  818TIP3    H2 2419   7.118   4.040   1.285  0.2064  0.1872  0.0224
  819TIP3   OH2 2420   2.116   3.561   4.850  0.5658  0.1820 -0.5617
  819TIP3    H1 2421   2.168   3.543   4.772  1.4475 -2.0061  0.4750
  819TIP3    H2 2422   2.178   3.599   4.912 -0.1803  2.1293 -0.9259
  820TIP3   OH2 2423   5.479   0.808   1.927  0.2140 -0.3339  0.3271
  820TIP3    H1 2424   5.464   0.727   1.975  1.2416  0.5325  2.2083
  820TIP3    H2 2425   5.567   0.835   1.952  0.2279  0.9109 -0.9540
  821TIP3   OH2 2426   6.923   1.849   4.595  0.0551  0.1898  0.2274
  821TIP3    H1 2427   6.879   1.769   4.568  0.7902 -0.1890  0.1361
  821TIP3    H2 2428   6.856   1.917   4.588  0.1015  0.0773 -2.2625
  822TIP3   OH2 2429   4.094   0.988   4.563  0.6091 -0.2403 -0.3238
  822TIP3    H1 2430   4.054   1.034   4.489 -0.7699  1.1189  1.1985
  822TIP3    H2 2431   4.092   0.896   4.537 -0.8417  0.0899 -1.5422
  823TIP3   OH2 2432   6.017   6.414   2.410 -0.3474  0.0941 -0.3874
  823TIP3    H1 2433   5.966   6.366   2.344  0.6804  0.7898 -1.7510
  823TIP3    H2 2434   6.104   6.375   2.405 -0.4786 -0.4612  1.2623
  824TIP3   OH2 2435   0.717   2.829   2.165 -0.1237  0.4851  0.1018
  824TIP3    H1 2436   0.697   2.786   2.249  2.3689  0.3677  0.7129
  824TIP3    H2 2437   0.783   2.773   2.125 -0.2860  1.2741 -1.3327
  825TIP3   OH2 2438   0.837   2.299   2.904 -0.7631  0.4870  0.2661
  825TIP3    H1 2439   0.814   2.388   2.930  0.8493  0.9992  0.0630
  825TIP3    H2 2440   0.918   2.280   2.951 -1.4565 -1.1815  0.8951
  826TIP3   OH2 2441   2.339   3.242   2.764 -0.1515 -0.3574 -0.2127
  826TIP3    H1 2442   2.375   3.274   2.681  1.5253  1.4309  1.1096
  826TIP3    H2 2443   2.393   3.285   2.831 -1.0466 -2.2213  1.8025
  827TIP3   OH2 2444   5.140   5.035   4.278 -0.1572 -0.1000 -0.1604
  827TIP3    H1 2445   5.103   5.123   4.289  2.0405  0.7753  0.7087
  827TIP3    H2 2446   5.202   5.044   4.205 -0.2154 -1.0540 -0.3423
  828TIP3   OH2 2447   0.822   4.101   0.194 -0.0522  0.1466  0.5115
  828TIP3    H1 2448   0.893   4.085   0.256  1.0636  1.4642 -0.3548
  828TIP3    H2 2449   0.761   4.028   0.207  1.4699 -1.0431  1.2722
  829TIP3   OH2 2450   0.050   5.528   0.902 -0.3438 -0.4315  0.1798
  829TIP3    H1 2451   0.019   5.587   0.971  0.5833  0.6357 -0.2810
  829TIP3    H2 2452  -0.027   5.510   0.849 -1.0928 -1.3099  1.4952
  830TIP3   OH2 2453   0.674   4.746   3.652 -0.9222  0.6463 -0.3513
  830TIP3    H1 2454   0.579   4.752   3.666 -0.9107  1.0220 -0.4163
  830TIP3    H2 2455   0.705   4.836   3.659 -0.7622  0.7089 -1.7578
  831TIP3   OH2 2456   1.211   3.772   4.769 -0.7197  0.0501  0.5078
  831TIP3    H1 2457   1.206   3.856   4.723 -1.7713  0.4357  1.2934
  831TIP3    H2 2458   1.129   3.728   4.747 -0.6828 -0.2848  1.0257
  832TIP3   OH2 2459   2.497   3.176   4.503  0.5788 -0.1696 -0.3655
  832TIP3    H1 2460   2.560   3.110   4.474 -0.1432 -1.4741  0.9011
  832TIP3    H2 2461   2.423   3.167   4.443  0.8427  0.1348 -0.7460
  833TIP3   OH2 2462   5.594   0.418   2.658  0.4159  0.4383 -0.1250
  833TIP3    H1 2463   5.594   0.328   2.626  0.6920  0.5578 -0.4745
  833TIP3    H2 2464   5.540   0.416   2.736  0.6021 -0.0755 -0.0067
  834TIP3   OH2 2465   1.485   4.776   1.561 -0.3629  0.0708 -0.1623
  834TIP3    H1 2466   1.444   4.696   1.527 -2.1391  0.4287  0.9743
  834TIP3    H2 2467   1.568   4.746   1.598 -1.2150 -1.3734  0.6995
  835TIP3   OH2 2468   3.264   4.926   4.055  0.1146  0.5740 -0.1018
  835TIP3    H1 2469   3.187   4.981   4.039 -0.5291 -0.6476 -1.4612
  835TIP3    H2 2470   3.303   4.961   4.135 -2.1665  0.8831  0.9549
  836TIP3   OH2 2471   6.388   6.659   1.725  0.0760  0.5060  0.2131
  836TIP3    H1 2472   6.296   6.686   1.731 -0.2559 -0.8932  2.7216
  836TIP3    H2 2473   6.424   6.680   1.811  1.3223 -1.5633  0.2567
  837TIP3   OH2 2474   0.512   1.956   3.884 -0.3675 -0.1939 -0.1615
  837TIP3    H1 2475   0.580   1.924   3.825  1.5768 -1.0428  2.3699
  837TIP3    H2 2476   0.518   2.051   3.879 -0.9918 -0.2055 -2.0457
  838TIP3   OH2 2477   0.428   6.262   3.634 -0.0865 -0.6965 -1.2000
  838TIP3    H1 2478   0.433   6.167   3.623 -1.5563 -1.1836  1.5823
  838TIP3    H2 2479   0.350   6.287   3.584 -1.6619 -1.5308  0.7217
  839TIP3   OH2 2480   4.389   4.564   2.405 -0.7570 -0.3019 -0.4300
  839TIP3    H1 2481   4.309   4.616   2.411 -0.9802 -0.5826 -0.9856
  839TIP3    H2 2482   4.387   4.526   2.318  0.9305  1.2147 -1.1889
  840TIP3   OH2 2483   6.530   5.660   4.791  0.3884 -0.0767 -0.3700
  840TIP3    H1 2484   6.584   5.719   4.738  0.1611  0.8469  0.4152
  840TIP3    H2 2485   6.498   5.714   4.863 -0.4697 -0.9610 -0.0651
  841TIP3   OH2 2486   4.901   4.776   4.134  0.4831 -0.1748  0.0774
  841TIP3    H1 2487   4.836   4.717   4.173 -0.2603  0.4674 -0.1744
  841TIP3    H2 2488   4.851   4.853   4.107  1.3670  0.3774 -0.0304
  842TIP3   OH2 2489   4.248   0.337   5.279 -0.3777  0.3531 -0.4428
  842TIP3    H1 2490   4.276   0.427   5.261 -1.0215  0.4190 -1.1226
  842TIP3    H2 2491   4.326   0.284   5.262  0.2984  0.8634  0.8947
  843TIP3   OH2 2492   5.021   6.613   4.240 -0.1317 -0.3089 -0.1437
  843TIP3    H1 2493   4.957   6.607   4.169  0.4468 -0.2517 -0.6843
  843TIP3    H2 2494   5.047   6.522   4.256 -1.1581 -0.4493  0.8506
  844TIP3   OH2 2495   4.473   3.290   4.421 -0.3279  0.4432 -0.0952
  844TIP3    H1 2496   4.480   3.208   4.373 -0.3255  0.1105  0.4634
  844TIP3    H2 2497   4.418   3.269   4.497  2.4951  0.0441  1.9709
  845TIP3   OH2 2498   1.260   2.891   4.767  0.5356  0.6061  0.0165
  845TIP3    H1 2499   1.298   2.820   4.716  1.8805  1.5856 -0.3951
  845TIP3    H2 2500   1.311   2.894   4.847 -0.0149  0.6180  0.3706
  846TIP3   OH2 2501   3.898   1.307   3.373  0.0604 -0.2197 -0.4063
  846TIP3    H1 2502   3.911   1.396   3.339 -0.3624 -0.2344 -0.6075
  846TIP3    H2 2503   3.958   1.302   3.448  1.0872 -0.2239 -1.1979
  847TIP3   OH2 2504   6.836   6.080   3.350 -0.3965 -0.0096 -0.0914
  847TIP3    H1 2505   6.916   6.039   3.318 -0.6824  0.1561 -1.0299
  847TIP3    H2 2506   6.779   6.006   3.374 -0.1838 -0.1299  0.0525
  848TIP3   OH2 2507   6.678   4.350   1.632  0.3649  0.0692  0.3415
  848TIP3    H1 2508   6.610   4.357   1.565  0.8535 -0.8983 -0.2747
  848TIP3    H2 2509   6.666   4.263   1.670 -0.0399  0.6871  1.6769
  849TIP3   OH2 2510   7.141   6.643   0.661 -0.2550 -0.2870 -0.4161
  849TIP3    H1 2511   7.090   6.609   0.587 -0.0902  0.3296 -0.8188
  849TIP3    H2 2512   7.206   6.701   0.621  0.7383 -1.0081  0.0924
  850TIP3   OH2 2513   1.138   5.975   2.692 -0.0054  0.1806  0.4303
  850TIP3    H1 2514   1.227   5.948   2.716  0.8333 -0.5975 -2.9701
  850TIP3    H2 2515   1.136   6.069   2.711  2.7886  0.9704 -2.2102
  851TIP3   OH2 2516   6.498   1.949   3.707 -0.8089 -0.5404  0.2140
  851TIP3    H1 2517   6.487   2.018   3.642 -0.1119 -1.5936 -1.0537
  851TIP3    H2 2518   6.409   1.926   3.733 -1.0603  0.6947  0.5446
  852TIP3   OH2 2519   6.562   5.183   2.054 -0.4260  0.3446 -0.0827
  852TIP3    H1 2520   6.634   5.174   1.991  0.6051  1.7163  0.8433
  852TIP3    H2 2521   6.547   5.094   2.086  0.9718  0.0545 -0.1656
  853TIP3   OH2 2522   0.401   5.160   5.651 -0.2955 -0.2550 -0.1193
  853TIP3    H1 2523   0.349   5.125   5.724 -0.1628  2.5314  1.4310
  853TIP3    H2 2524   0.490   5.132   5.670 -0.2695  0.4142  0.7997
  854TIP3   OH2 2525   5.249   3.977   0.943  0.6304  0.2721 -0.3286
  854TIP3    H1 2526   5.289   3.995   0.857 -0.1814 -3.6052 -1.7110
  854TIP3    H2 2527   5.211   4.061   0.969  2.2153  1.9907 -3.0220
  855TIP3   OH2 2528   0.869   4.723   5.006 -0.0737 -0.2514 -0.1470
  855TIP3    H1 2529   0.864   4.634   4.974 -0.9317 -1.5686  3.2475
  855TIP3    H2 2530   0.790   4.735   5.058  0.6771  2.0084  0.6068
  856TIP3   OH2 2531   2.010   4.803   3.620  0.6095  0.3645  0.3672
  856TIP3    H1 2532   2.100   4.775   3.609  0.1256 -0.1297 -4.2182
  856TIP3    H2 2533   1.996   4.867   3.550 -3.3166 -1.7952 -1.1476
  857TIP3   OH2 2534   6.281   2.722   2.185 -0.0955  0.1188 -0.6443
  857TIP3    H1 2535   6.366   2.741   2.143  0.2502 -0.7655 -0.3590
  857TIP3    H2 2536   6.271   2.627   2.176 -0.4650  0.0493  0.4329
  858TIP3   OH2 2537   0.402   5.367   2.346 -0.0317  0.1066  0.1427
  858TIP3    H1 2538   0.407   5.315   2.426 -1.0978  0.7433  0.6395
  858TIP3    H2 2539   0.491   5.398   2.332  0.0672  0.4083  1.3685
  859TIP3   OH2 2540   3.687   1.664   5.136 -0.2765  0.4351  0.5221
  859TIP3    H1 2541   3.613   1.614   5.103 -0.5889  0.4142  1.2264
  859TIP3    H2 2542   3.755   1.653   5.070 -0.8872  0.4288 -0.1193
  860TIP3   OH2 2543   4.267   1.682   3.636 -0.0887  0.6179 -0.4303
  860TIP3    H1 2544   4.292   1.752   3.576 -2.6962 -0.0316 -2.4482
  860TIP3    H2 2545   4.315   1.605   3.605  0.3969  0.8096 -0.1613
  861TIP3   OH2 2546   6.103   1.285   4.983 -0.2613  0.4644  0.0728
  861TIP3    H1 2547   6.170   1.353   4.988  1.2111 -0.9856  1.0941
  861TIP3    H2 2548   6.063   1.283   5.070  2.3441 -2.4216  1.3816
  862TIP3   OH2 2549   2.442   0.205   1.188 -0.2671 -0.2044  0.7379
  862TIP3    H1 2550   2.537   0.194   1.176 -0.3412 -0.8841  0.7257
  862TIP3    H2 2551   2.432   0.292   1.225  0.3955 -0.2819  1.1067
  863TIP3   OH2 2552   0.173   4.034   2.984  0.4895  0.6653 -0.1571
  863TIP3    H1 2553   0.173   4.091   2.907  0.3860  2.0739  0.8433
  863TIP3    H2 2554   0.254   4.057   3.030  0.3577  0.1145  0.3578
  864TIP3   OH2 2555   5.223   5.647   2.962  0.4481 -0.2747  0.0223
  864TIP3    H1 2556   5.302   5.674   3.008 -0.3759  0.7660  0.8842
  864TIP3    H2 2557   5.239   5.670   2.871  0.8231  0.7080  0.3236
  865TIP3   OH2 2558   5.180   0.957   2.251  0.1952 -0.0843  0.3543
  865TIP3    H1 2559   5.246   0.927   2.313  0.3955  0.6999  0.5285
  865TIP3    H2 2560   5.228   1.014   2.190 -0.1061 -0.3940 -0.1778
  866TIP3   OH2 2561   6.000   3.904   4.289  0.4824 -0.4533 -0.5125
  866TIP3    H1 2562   6.089   3.870   4.290  0.7368  0.1255  1.4405
  866TIP3    H2 2563   6.009   3.996   4.263  0.7307  0.0992  1.3358
  867TIP3   OH2 2564   4.747   4.761   3.522  0.1197  0.1718 -0.6831
  867TIP3    H1 2565   4.757   4.808   3.439  0.9384  0.1364 -0.6159
  867TIP3    H2 2566   4.831   4.775   3.567 -0.4750  0.5820  0.3430
  868TIP3   OH2 2567   1.370   6.045   3.040 -0.0091 -0.4460  0.0201
  868TIP3    H1 2568   1.349   6.088   3.123 -1.1572  2.8808 -1.8255
  868TIP3    H2 2569   1.291   5.994   3.019 -0.9141  1.0691 -0.3791
  869TIP3   OH2 2570   5.632   0.083   4.173  0.0258 -0.4005 -0.2305
  869TIP3    H1 2571   5.602   0.048   4.089 -0.0217 -0.0790 -0.3490
  869TIP3    H2 2572   5.621   0.178   4.165 -1.1426 -0.4446  0.5921
  870TIP3   OH2 2573   3.821   3.247   0.968  0.4077  0.7385  0.2127
  870TIP3    H1 2574   3.904   3.238   0.922 -0.2981  1.3566 -1.2546
  870TIP3    H2 2575   3.822   3.338   1.000 -0.0443  1.0201 -0.5473
  871TIP3   OH2 2576   2.598   0.289   0.044 -0.1888 -0.0603  0.1290
  871TIP3    H1 2577   2.590   0.384   0.051  0.3564  0.0502 -0.6413
  871TIP3    H2 2578   2.682   0.269   0.085 -0.3405 -0.2215  0.3619
  872TIP3   OH2 2579   1.991   1.441   3.629  0.3683  0.0905 -0.6108
  872TIP3    H1 2580   1.944   1.405   3.704 -2.3912  1.3362 -1.5958
  872TIP3    H2 2581   2.081   1.452   3.660 -0.0175 -2.0001  1.5576
  873TIP3   OH2 2582   0.927   3.339   5.316 -0.1419  0.2541  0.6716
  873TIP3    H1 2583   0.976   3.279   5.261 -2.0578  0.3432 -1.2737
  873TIP3    H2 2584   0.994   3.390   5.362  1.5140 -1.6700  0.5119
  874TIP3   OH2 2585   4.104   6.200   2.686  0.1710  0.0810 -0.2036
  874TIP3    H1 2586   4.052   6.274   2.657 -0.3340  0.6016  1.8197
  874TIP3    H2 2587   4.192   6.218   2.653 -0.0749  1.2846 -0.2549
  875TIP3   OH2 2588   5.032   0.695   3.927  0.0432 -0.6728  0.7248
  875TIP3    H1 2589   4.993   0.674   4.011 -0.1386  0.1915  0.8716
  875TIP3    H2 2590   5.016   0.789   3.916  0.1446 -0.7523 -0.2268
  876TIP3   OH2 2591   1.696   1.898   0.368  0.0726 -0.4242  0.8512
  876TIP3    H1 2592   1.607   1.907   0.332  0.3914 -1.5989 -0.3202
  876TIP3    H2 2593   1.753   1.918   0.293  0.8411  1.2336  1.8242
  877TIP3   OH2 2594   6.488   5.258   1.354  0.0570  0.0176  0.1438
  877TIP3    H1 2595   6.546   5.254   1.278  0.4306 -2.0472  0.4659
  877TIP3    H2 2596   6.507   5.342   1.395  0.9731  0.4835 -1.1662
  878TIP3   OH2 2597   0.502   4.500   5.258  0.4325 -0.1647  0.3631
  878TIP3    H1 2598   0.454   4.452   5.190  0.5659  0.1693  0.0289
  878TIP3    H2 2599   0.534   4.432   5.317 -0.4809 -0.3920  0.6156
  879TIP3   OH2 2600   0.628   6.158   2.901 -0.6171 -0.2916  0.0328
  879TIP3    H1 2601   0.637   6.064   2.887  1.5884 -0.0013 -0.9799
  879TIP3    H2 2602   0.674   6.176   2.982  0.2991  0.0786 -0.5488
  880TIP3   OH2 2603   5.672   0.217   5.589 -0.2136  0.1369  0.3417
  880TIP3    H1 2604   5.735   0.168   5.641 -0.5530  0.0925  0.7163
  880TIP3    H2 2605   5.702   0.208   5.499 -0.6849 -1.3923  0.3181
  881TIP3   OH2 2606   0.907   0.299   3.320 -0.0753 -0.2021 -0.0248
  881TIP3    H1 2607   0.919   0.393   3.335  1.0981 -0.3392  0.0371
  881TIP3    H2 2608   0.997   0.265   3.311 -0.4965 -1.2510 -0.4320
  882TIP3   OH2 2609   4.011   0.115   3.096 -0.5543 -0.2975 -0.1753
  882TIP3    H1 2610   3.989   0.064   3.174 -1.1272  1.2969  0.7709
  882TIP3    H2 2611   4.033   0.050   3.029 -2.9924 -1.8443  0.4047
  883TIP3   OH2 2612   2.114   5.232   1.952  0.9298  0.2193 -0.6486
  883TIP3    H1 2613   2.076   5.313   1.918  1.0032 -0.1782 -1.7167
  883TIP3    H2 2614   2.040   5.182   1.984  0.6689 -0.0410 -1.6217
  884TIP3   OH2 2615   1.442   4.552   4.676 -0.4265  0.0816 -0.2152
  884TIP3    H1 2616   1.435   4.647   4.684 -0.1704  0.3037 -2.1180
  884TIP3    H2 2617   1.536   4.536   4.662 -0.8309 -0.0371 -3.4992
  885TIP3   OH2 2618   5.807   4.125   3.332  0.3752  0.0989 -0.2773
  885TIP3    H1 2619   5.771   4.094   3.248 -0.1300  1.4497 -0.5835
  885TIP3    H2 2620   5.883   4.070   3.347 -0.1597 -0.9000 -1.0750
  886TIP3   OH2 2621   2.140   0.670   3.846 -0.8094  0.6160  0.0115
  886TIP3    H1 2622   2.181   0.587   3.825 -2.7554  0.2925 -3.1327
  886TIP3    H2 2623   2.092   0.653   3.927  0.6163 -0.6056  0.6469
  887TIP3   OH2 2624   5.326   0.786   1.455 -0.1559 -1.0177  0.0555
  887TIP3    H1 2625   5.323   0.844   1.532 -1.7949 -1.0385  0.0365
  887TIP3    H2 2626   5.375   0.835   1.390  0.4305 -0.6039  0.7893
  888TIP3   OH2 2627   3.506   4.961   5.054  0.2745 -0.6903 -0.5043
  888TIP3    H1 2628   3.482   4.907   4.979  0.0629 -0.5841 -0.5150
  888TIP3    H2 2629   3.435   4.949   5.116 -0.4582  0.5938 -1.0406
  889TIP3   OH2 2630   4.193   5.828   2.164 -0.1273 -0.0457  0.3348
  889TIP3    H1 2631   4.165   5.919   2.150  1.3658  0.3384 -0.3413
  889TIP3    H2 2632   4.272   5.819   2.112 -0.8640 -2.1021 -0.5492
  890TIP3   OH2 2633   5.022   3.072   1.765  0.1627 -0.1503 -0.2390
  890TIP3    H1 2634   5.078   3.146   1.741 -0.3512  0.2867 -0.1199
  890TIP3    H2 2635   5.036   3.008   1.696  0.1120  0.3344 -0.7113
  891TIP3   OH2 2636   3.934   4.814   2.587  0.3855  0.0785 -0.4969
  891TIP3    H1 2637   3.855   4.766   2.560  0.0891  1.0097 -1.3534
  891TIP3    H2 2638   3.934   4.892   2.532  1.1332  0.8067  0.5072
  892TIP3   OH2 2639   3.604   0.966   2.779  0.0332 -0.2898  0.3725
  892TIP3    H1 2640   3.555   0.894   2.738 -2.0099  1.3793 -0.3210
  892TIP3    H2 2641   3.660   1.000   2.710  1.1643 -1.2817  0.7603
  893TIP3   OH2 2642   7.193   4.946   5.246  0.7319  0.1166 -0.1207
  893TIP3    H1 2643   7.288   4.948   5.244  0.9581 -2.9749 -2.7826
  893TIP3    H2 2644   7.172   4.865   5.293 -0.5164  0.3603 -0.2275
  894TIP3   OH2 2645   5.113   3.900   5.420  0.2874 -0.4840  0.2559
  894TIP3    H1 2646   5.194   3.870   5.461 -0.9390 -2.3286  1.4617
  894TIP3    H2 2647   5.068   3.819   5.393 -1.4542  0.4572  0.2001
  895TIP3   OH2 2648   2.305   2.110   4.434  0.1533 -0.1220  0.6073
  895TIP3    H1 2649   2.326   2.052   4.361  0.9685  1.3974 -0.4156
  895TIP3    H2 2650   2.378   2.099   4.495  0.5507  0.1787  0.1907
  896TIP3   OH2 2651   0.033   0.284   0.587 -0.9103 -0.2343 -0.1434
  896TIP3    H1 2652   0.077   0.222   0.645 -3.0967 -0.6529  1.1886
  896TIP3    H2 2653  -0.004   0.350   0.646 -1.2492  0.6189 -1.2730
  897TIP3   OH2 2654   4.041   1.037   0.709 -0.0388 -0.1629 -0.3720
  897TIP3    H1 2655   3.985   0.961   0.696  0.5527 -0.6695 -0.0169
  897TIP3    H2 2656   4.044   1.080   0.623  0.5678 -1.1993 -0.8806
  898TIP3   OH2 2657   4.028   6.538   2.971 -0.1686 -0.5470  0.2161
  898TIP3    H1 2658   4.101   6.568   2.917 -1.0028  0.8369 -0.1912
  898TIP3    H2 2659   3.950   6.568   2.925 -1.0606 -2.7102  0.2125
  899TIP3   OH2 2660   3.401   3.650   2.212  0.1836 -0.4596 -0.3752
  899TIP3    H1 2661   3.327   3.705   2.237  0.6889  0.0034  0.1297
  899TIP3    H2 2662   3.434   3.615   2.295  0.9825 -0.0684 -0.5176
  900TIP3   OH2 2663   2.271   0.078   5.348 -0.0653 -0.4647 -0.3555
  900TIP3    H1 2664   2.291   0.012   5.280  1.2989 -0.8702  0.4015
  900TIP3    H2 2665   2.221   0.030   5.413  0.3625 -0.6054 -0.1224
  901TIP3   OH2 2666   3.348   1.508   0.352 -0.7360  0.2859  0.8475
  901TIP3    H1 2667   3.319   1.464   0.432 -3.4004  0.4937  0.0832
  901TIP3    H2 2668   3.344   1.439   0.285  2.6725 -0.2262  0.9816
  902TIP3   OH2 2669   6.553   6.446   2.665 -0.2390  0.2733 -0.0643
  902TIP3    H1 2670   6.574   6.353   2.659  2.1400  0.8102 -1.2186
  902TIP3    H2 2671   6.631   6.486   2.702 -1.4425  1.7789  0.9973
  903TIP3   OH2 2672   6.630   1.969   1.897 -0.4594  0.1006  0.4116
  903TIP3    H1 2673   6.666   1.923   1.972 -0.0270 -1.7092 -0.8524
  903TIP3    H2 2674   6.702   2.025   1.866 -0.4163  0.3235  0.9016
  904TIP3   OH2 2675   2.192   4.770   0.093  0.2913 -0.6631  0.3551
  904TIP3    H1 2676   2.143   4.690   0.075  1.4325 -1.2361 -0.3229
  904TIP3    H2 2677   2.242   4.786   0.013  0.1820  0.6644  0.5361
  905TIP3   OH2 2678  -0.010   1.947   3.491 -0.2915  0.6062  0.0024
  905TIP3    H1 2679   0.064   1.953   3.552  0.4001 -0.2322 -0.7238
  905TIP3    H2 2680   0.023   1.985   3.410 -0.0169 -1.3656 -0.8762
  906TIP3   OH2 2681   0.137   3.981   2.122  0.4046  0.1853  0.4512
  906TIP3    H1 2682   0.200   3.914   2.147  0.1273 -0.2149  0.0827
  906TIP3    H2 2683   0.182   4.031   2.053 -0.4605 -1.4451 -1.3779
  907TIP3   OH2 2684   6.613   5.336   4.818  0.0516 -0.1042  0.1437
  907TIP3    H1 2685   6.681   5.336   4.885  0.5659 -0.2022 -0.3589
  907TIP3    H2 2686   6.617   5.423   4.780  1.0280 -0.6006 -0.9737
  908TIP3   OH2 2687   1.952   1.643   2.158 -0.1184  0.4015  0.1399
  908TIP3    H1 2688   1.916   1.572   2.211  0.1891 -0.5092 -0.8365
  908TIP3    H2 2689   2.043   1.617   2.142 -0.0971  0.8494 -0.5096
  909TIP3   OH2 2690   1.974   0.910   4.995 -0.2479  0.1869 -0.1435
  909TIP3    H1 2691   2.066   0.931   5.010 -0.4599  2.0186 -1.0932
  909TIP3    H2 2692   1.973   0.815   4.983  1.7377  0.2624 -1.4404
  910TIP3   OH2 2693   7.167   1.843   1.192 -0.0143 -0.2097  0.4077
  910TIP3    H1 2694   7.169   1.902   1.117 -2.9966 -0.7849 -0.2621
  910TIP3    H2 2695   7.222   1.886   1.258 -1.6495  3.1414 -0.1992
  911TIP3   OH2 2696   3.168   1.595   1.741  0.8891  0.7151 -0.0329
  911TIP3    H1 2697   3.239   1.614   1.803  0.4882  1.7879  0.1168
  911TIP3    H2 2698   3.105   1.665   1.755 -1.2413 -1.3365  1.3305
  912TIP3   OH2 2699   4.192   2.577   5.120  0.0581  0.1126 -0.1454
  912TIP3    H1 2700   4.134   2.649   5.094  2.2132  1.3700 -1.9791
  912TIP3    H2 2701   4.193   2.519   5.044  0.3559 -0.4417  0.2778
  913TIP3   OH2 2702   6.411   3.707   1.655 -0.0530 -0.5058  0.5695
  913TIP3    H1 2703   6.427   3.741   1.744 -0.2896 -0.7108  0.6920
  913TIP3    H2 2704   6.336   3.649   1.665 -1.8715  1.6006 -0.2686
  914TIP3   OH2 2705   2.119   4.372   4.560  0.0000  0.5293  0.2313
  914TIP3    H1 2706   2.194   4.335   4.606  0.1398  0.6803  0.1240
  914TIP3    H2 2707   2.111   4.461   4.595  0.4992  0.8662 -0.5059
  915TIP3   OH2 2708   4.282   2.262   1.883  0.4833  0.3247  0.2537
  915TIP3    H1 2709   4.325   2.177   1.895 -0.2286  0.0100  0.6512
  915TIP3    H2 2710   4.191   2.239   1.865  0.2273  1.0210  0.6665
  916TIP3   OH2 2711   4.247   4.100   5.681 -0.3434  0.1153 -0.7649
  916TIP3    H1 2712   4.311   4.087   5.611 -1.4056 -1.6967 -1.4684
  916TIP3    H2 2713   4.249   4.017   5.729 -0.2488  1.0207  0.8612
  917TIP3   OH2 2714   0.247   4.028   1.642 -0.0951  0.0134  0.6699
  917TIP3    H1 2715   0.203   3.945   1.626  2.0130 -0.7659 -1.8266
  917TIP3    H2 2716   0.300   4.013   1.720 -1.9305  0.0335  1.9670
  918TIP3   OH2 2717   5.846   3.612   0.458 -0.1175 -0.2604  0.8479
  918TIP3    H1 2718   5.836   3.699   0.498  0.8937  0.5018 -0.4834
  918TIP3    H2 2719   5.861   3.553   0.532  1.5385  1.0773  1.6401
  919TIP3   OH2 2720   3.334   5.810  -0.009  0.0086 -0.4171 -0.3278
  919TIP3    H1 2721   3.408   5.753  -0.030  0.1399 -0.2465 -0.3344
  919TIP3    H2 2722   3.369   5.871   0.057  0.0723  0.1021 -0.8344
  920TIP3   OH2 2723   3.983   5.147   2.421 -0.3270  0.2099 -0.0401
  920TIP3    H1 2724   4.061   5.202   2.431 -1.7045  1.9139  2.2406
  920TIP3    H2 2725   3.910   5.205   2.442 -2.0023 -2.0639  0.7541
  921TIP3   OH2 2726   3.942   6.428   0.815  0.3295  0.2014  0.7531
  921TIP3    H1 2727   4.034   6.424   0.789 -0.1185  0.0296 -0.8793
  921TIP3    H2 2728   3.918   6.520   0.808 -0.0467  0.0269 -0.4187
  922TIP3   OH2 2729   6.726   3.855   5.340 -0.3197  0.0391  0.1229
  922TIP3    H1 2730   6.736   3.850   5.435  2.8324 -0.9921 -0.1407
  922TIP3    H2 2731   6.682   3.774   5.316 -0.0208 -0.2825  0.6300
  923TIP3   OH2 2732   4.330   5.244   3.453  0.3686 -0.3046  0.4019
  923TIP3    H1 2733   4.268   5.317   3.452 -0.1191 -0.6749  1.5688
  923TIP3    H2 2734   4.278   5.168   3.429  1.2446 -0.0665 -2.5926
  924TIP3   OH2 2735   1.541   2.795   3.267 -0.2186  0.5919  0.2847
  924TIP3    H1 2736   1.464   2.783   3.322 -0.9504 -0.8380 -1.0019
  924TIP3    H2 2737   1.510   2.785   3.178  1.1386  1.8544 -0.3812
  925TIP3   OH2 2738   2.026   2.772   4.457 -0.3063  0.0950 -0.6224
  925TIP3    H1 2739   2.097   2.829   4.486 -1.1209  1.3064 -0.9690
  925TIP3    H2 2740   1.963   2.830   4.416 -1.9143 -0.8371  0.4253
  926TIP3   OH2 2741   1.888   6.498   5.434 -0.0313 -0.2607  0.4598
  926TIP3    H1 2742   1.904   6.587   5.404 -0.4391  0.0856  1.2529
  926TIP3    H2 2743   1.813   6.468   5.382  0.9960 -0.6926 -0.8616
  927TIP3   OH2 2744   0.953   4.281   5.666  0.0957 -0.4280  0.1350
  927TIP3    H1 2745   0.896   4.317   5.734 -1.1696 -0.0297 -1.0816
  927TIP3    H2 2746   0.944   4.186   5.674  0.5191 -0.4121  0.9540
  928TIP3   OH2 2747   5.037   4.178   5.261  0.0020  0.5988  0.3987
  928TIP3    H1 2748   5.124   4.142   5.243  0.0372  0.1358  1.4287
  928TIP3    H2 2749   5.047   4.272   5.245  0.9297  0.6744  1.3027
  929TIP3   OH2 2750   5.667   0.751   0.188  0.5810 -0.3063  0.0554
  929TIP3    H1 2751   5.728   0.801   0.242 -0.9406  1.0746  0.5661
  929TIP3    H2 2752   5.721   0.683   0.148  2.4864  0.9760  0.3214
  930TIP3   OH2 2753   2.399   5.991   2.860  0.0712 -0.0228 -0.2299
  930TIP3    H1 2754   2.464   5.920   2.857 -0.9386 -0.9634 -0.4411
  930TIP3    H2 2755   2.368   5.999   2.770 -1.1927 -0.6310  0.1353
  931TIP3   OH2 2756   2.391   3.712   0.121 -0.2638  0.2320 -0.3656
  931TIP3    H1 2757   2.415   3.803   0.141 -0.0300  0.4162 -1.3828
  931TIP3    H2 2758   2.341   3.719   0.039  0.4835 -0.6299 -0.9102
  932TIP3   OH2 2759   3.307   3.433   1.474 -0.3931  0.0491  0.3307
  932TIP3    H1 2760   3.263   3.517   1.462  1.4402  1.2720  1.7084
  932TIP3    H2 2761   3.293   3.387   1.391 -1.8253  1.4922 -0.2958
  933TIP3   OH2 2762   0.647   1.841   4.999 -0.4733  0.1417 -0.8597
  933TIP3    H1 2763   0.651   1.936   4.998 -1.7681  0.2221 -0.3350
  933TIP3    H2 2764   0.737   1.813   4.979  0.8774  1.4590  2.6909
  934TIP3   OH2 2765   7.054   4.185   2.022 -0.1149  0.0408 -0.8053
  934TIP3    H1 2766   7.147   4.202   2.005  0.6710 -1.1768  1.8367
  934TIP3    H2 2767   7.042   4.094   1.995 -0.3398 -0.0512 -0.3879
  935TIP3   OH2 2768   6.398   2.849   1.194 -0.1779  0.1705 -0.1883
  935TIP3    H1 2769   6.362   2.764   1.221  0.0919 -0.4425 -1.6560
  935TIP3    H2 2770   6.340   2.913   1.233 -0.4726 -0.6962  0.8393
  936TIP3   OH2 2771   2.681   4.786   0.141 -0.2350 -0.0240 -0.1439
  936TIP3    H1 2772   2.754   4.846   0.127 -0.0469  0.5115  2.5140
  936TIP3    H2 2773   2.603   4.838   0.120  0.0478  0.1824 -0.6988
  937TIP3   OH2 2774   2.448   4.229   0.110  0.5116  0.7337 -0.1838
  937TIP3    H1 2775   2.421   4.265   0.026  0.1265 -0.3212 -0.5385
  937TIP3    H2 2776   2.537   4.198   0.096  0.3011  0.1848 -0.3326
  938TIP3   OH2 2777   3.163   1.427   0.969  0.2749 -0.2361  1.3596
  938TIP3    H1 2778   3.138   1.451   0.880 -0.9544  2.0966  2.2455
  938TIP3    H2 2779   3.250   1.466   0.981  0.9954 -1.6149  0.8252
  939TIP3   OH2 2780   0.153   1.578   4.911 -0.4026  0.0994 -0.2717
  939TIP3    H1 2781   0.231   1.633   4.919  0.4573 -1.2241  0.8640
  939TIP3    H2 2782   0.172   1.521   4.837  0.8671 -1.8725  1.4338
  940TIP3   OH2 2783   3.466   2.217   0.991 -0.5768  0.2768  0.0757
  940TIP3    H1 2784   3.425   2.140   0.951 -0.1768 -0.8148  1.6700
  940TIP3    H2 2785   3.410   2.290   0.965 -2.4991 -0.9067  0.6563
  941TIP3   OH2 2786   5.946   3.379   5.653  0.5087  0.2799  0.5815
  941TIP3    H1 2787   5.862   3.366   5.698  0.3748 -0.1384  0.2247
  941TIP3    H2 2788   5.998   3.433   5.713  0.0710  0.3397  0.9106
  942TIP3   OH2 2789   2.759   3.150   1.367 -0.0793 -0.0213 -0.2161
  942TIP3    H1 2790   2.735   3.098   1.291 -0.0427 -0.0830 -0.1860
  942TIP3    H2 2791   2.738   3.240   1.343  0.6220  0.0506 -0.5846
  943TIP3   OH2 2792   2.039   5.673   0.774 -0.3315  0.5205 -0.7061
  943TIP3    H1 2793   1.999   5.591   0.804 -1.6801  0.9625 -1.2379
  943TIP3    H2 2794   2.132   5.663   0.795 -0.5528 -0.9347 -0.3090
  944TIP3   OH2 2795   2.349   4.061   5.488 -0.0800  0.4689 -0.1032
  944TIP3    H1 2796   2.313   4.117   5.558  2.4323  0.3577  1.3870
  944TIP3    H2 2797   2.365   4.121   5.416  0.1457  1.1822  0.5254
  945TIP3   OH2 2798   6.126   4.288   5.193  0.2559  0.2529 -0.3374
  945TIP3    H1 2799   6.187   4.343   5.241 -0.3562 -1.0628  2.0971
  945TIP3    H2 2800   6.039   4.315   5.224 -0.1901 -0.3906 -0.9808
  946TIP3   OH2 2801   4.351   6.216   2.344 -0.1198 -0.1892 -0.6057
  946TIP3    H1 2802   4.363   6.121   2.340 -0.4145 -0.2976  0.5817
  946TIP3    H2 2803   4.261   6.227   2.374  0.2199  0.4376  0.2038
  947TIP3   OH2 2804   6.071   4.230   2.565  0.1781 -0.3925  0.6092
  947TIP3    H1 2805   6.074   4.200   2.656 -1.2756  0.1352  0.8745
  947TIP3    H2 2806   5.982   4.208   2.536  1.2265 -2.4127 -1.3847
  948TIP3   OH2 2807   0.177   3.217   5.704 -0.3695 -0.2275  0.4621
  948TIP3    H1 2808   0.249   3.266   5.663 -0.8172 -1.4824 -2.0551
  948TIP3    H2 2809   0.220   3.154   5.762  0.4213  0.4575  0.6387
  949TIP3   OH2 2810   2.320   0.731   0.064  0.4752  0.7485 -0.1716
  949TIP3    H1 2811   2.249   0.683   0.107  0.8976 -1.4223 -1.7457
  949TIP3    H2 2812   2.351   0.792   0.131  0.5463 -1.8596  2.3733
  950TIP3   OH2 2813   2.573   2.574   1.562  0.5562  0.4163  0.0644
  950TIP3    H1 2814   2.607   2.590   1.650  2.8438  0.3543 -0.7322
  950TIP3    H2 2815   2.535   2.486   1.567  2.0508 -0.2340  0.6460
  951TIP3   OH2 2816   6.986   2.510   3.301 -0.9502 -0.0033  0.2047
  951TIP3    H1 2817   6.970   2.417   3.317  0.3829 -0.2301  0.3507
  951TIP3    H2 2818   7.055   2.510   3.234 -2.2367  0.9044 -1.1861
  952TIP3   OH2 2819   4.798   6.186   2.261  0.2597 -0.0094  0.5628
  952TIP3    H1 2820   4.799   6.204   2.355  1.1615 -1.4707  0.8520
  952TIP3    H2 2821   4.870   6.238   2.226  0.3744 -0.0211  0.7777
  953TIP3   OH2 2822   6.851   5.267   5.635 -0.5923 -0.1004 -0.1487
  953TIP3    H1 2823   6.845   5.350   5.587  1.4152  0.0623 -0.2200
  953TIP3    H2 2824   6.897   5.208   5.575 -1.3364 -1.0383  0.1903
  954TIP3   OH2 2825   6.102   3.793   1.671 -0.4895  0.1587 -0.2337
  954TIP3    H1 2826   6.021   3.744   1.657  0.1394 -0.3447 -2.4519
  954TIP3    H2 2827   6.167   3.727   1.695 -0.4168  0.3632  0.1346
  955TIP3   OH2 2828   6.004   6.027   0.501  1.0803 -0.4143 -0.1831
  955TIP3    H1 2829   5.927   6.035   0.558  0.8686  2.1082 -0.7086
  955TIP3    H2 2830   5.998   5.938   0.465 -0.7198 -0.8207  0.9766
  956TIP3   OH2 2831   6.637   0.864   2.439 -0.0792  0.2089  0.0262
  956TIP3    H1 2832   6.668   0.954   2.428  1.5697 -0.3611 -0.2953
  956TIP3    H2 2833   6.695   0.826   2.506 -1.1858 -0.4249  0.6509
  957TIP3   OH2 2834   0.251   1.320   1.812  0.3732  0.7823 -0.3418
  957TIP3    H1 2835   0.199   1.274   1.879  0.9570 -0.8109 -0.9310
  957TIP3    H2 2836   0.335   1.336   1.855  0.3634  0.7813 -0.3218
  958TIP3   OH2 2837   3.727   6.372   2.013 -0.1114 -0.7864  0.2302
  958TIP3    H1 2838   3.664   6.339   1.949 -0.4825  0.6652 -0.1873
  958TIP3    H2 2839   3.810   6.331   1.988 -0.8096 -2.5298  0.6391
  959TIP3   OH2 2840   0.744   6.700   5.220 -0.5003 -0.5172  0.0651
  959TIP3    H1 2841   0.767   6.613   5.253  0.8802 -0.5537 -0.8989
  959TIP3    H2 2842   0.727   6.686   5.127 -0.2292  0.2420 -0.1050
  960TIP3   OH2 2843   6.838   2.669   5.875  0.0566  0.3216  0.0432
  960TIP3    H1 2844   6.867   2.642   5.788 -1.0606 -0.4190 -0.1207
  960TIP3    H2 2845   6.918   2.683   5.924  0.6904 -0.3179 -0.7905
  961TIP3   OH2 2846   3.392   1.884   3.628  0.1912  0.4756  0.0707
  961TIP3    H1 2847   3.467   1.828   3.646  0.6261  1.4682  1.6495
  961TIP3    H2 2848   3.426   1.950   3.567  0.6085  0.8737  0.7153
  962TIP3   OH2 2849   6.834   5.242   1.224  0.3134  0.8736  0.0394
  962TIP3    H1 2850   6.825   5.217   1.316  0.3994 -1.2113 -0.4575
  962TIP3    H2 2851   6.756   5.206   1.182  1.1347  0.2213 -0.9782
  963TIP3   OH2 2852   5.695   4.055   5.539  0.3301 -0.1312 -0.5430
  963TIP3    H1 2853   5.782   4.084   5.513  0.8583 -0.4672  0.7536
  963TIP3    H2 2854   5.647   4.047   5.457  1.4736  0.2015 -1.2731
  964TIP3   OH2 2855   2.917   2.607   3.522 -0.1722 -0.6089 -0.3828
  964TIP3    H1 2856   2.958   2.534   3.566 -0.4738 -0.1345  0.7306
  964TIP3    H2 2857   2.961   2.685   3.556  1.5692 -0.2969 -3.0531
  965TIP3   OH2 2858   1.958   0.225   1.725 -1.0877  0.5052  0.6829
  965TIP3    H1 2859   2.029   0.274   1.768 -0.4005  0.1465 -0.0189
  965TIP3    H2 2860   1.892   0.291   1.706  0.5734  1.5875 -1.8902
  966TIP3   OH2 2861   3.292   6.622   5.646  0.2139  0.5830  0.4778
  966TIP3    H1 2862   3.260   6.638   5.735  1.3933  1.6784  0.7273
  966TIP3    H2 2863   3.313   6.529   5.644  2.3565  0.9675  2.1106
  967TIP3   OH2 2864   4.565   1.726   1.327  0.3297  0.1478 -0.2327
  967TIP3    H1 2865   4.591   1.634   1.331  1.6135  0.5444  1.8689
  967TIP3    H2 2866   4.615   1.762   1.253  1.1025 -0.4764 -0.0271
  968TIP3   OH2 2867   4.872   1.244   2.443  0.4652  0.1875  0.0081
  968TIP3    H1 2868   4.940   1.259   2.509  0.9143 -0.3646 -0.3097
  968TIP3    H2 2869   4.824   1.168   2.475 -1.0394  1.5131  1.0224
  969TIP3   OH2 2870   2.644   2.624   2.389 -0.2010  0.3423  0.1329
  969TIP3    H1 2871   2.719   2.681   2.374 -0.5913  0.4550 -1.6107
  969TIP3    H2 2872   2.608   2.652   2.472  1.4090  0.5865  0.7859
  970TIP3   OH2 2873   4.727   0.349   4.301  0.7951 -0.0643  0.3259
  970TIP3    H1 2874   4.740   0.272   4.356  0.7031 -0.5065 -0.2610
  970TIP3    H2 2875   4.739   0.423   4.360  2.5384 -0.4884  0.5810
  971TIP3   OH2 2876   1.622   5.853   2.517 -0.2011 -0.7703  0.6218
  971TIP3    H1 2877   1.686   5.905   2.468 -0.3492 -1.0693  0.1033
  971TIP3    H2 2878   1.644   5.762   2.497 -1.5996 -0.8749 -0.6787
  972TIP3   OH2 2879   3.988   6.154   0.237 -0.8273  0.1308 -0.2861
  972TIP3    H1 2880   3.953   6.240   0.258 -0.4825  0.2955 -0.3895
  972TIP3    H2 2881   3.956   6.136   0.148 -2.1881 -0.5159  0.3002
  973TIP3   OH2 2882   2.209   4.828   0.365 -0.1760  0.2050  0.0153
  973TIP3    H1 2883   2.240   4.794   0.281 -0.9218 -2.5455  0.7745
  973TIP3    H2 2884   2.289   4.852   0.412  0.3246  0.4386 -0.9333
  974TIP3   OH2 2885   7.072   2.026   4.818  0.6926 -0.5665 -0.3673
  974TIP3    H1 2886   7.135   2.067   4.759  0.0927 -0.8656 -1.2393
  974TIP3    H2 2887   7.050   1.943   4.775  0.0550 -0.6699  0.1481
  975TIP3   OH2 2888   3.718   1.835   0.111 -0.4029 -0.0346 -0.4179
  975TIP3    H1 2889   3.780   1.888   0.061 -0.5366 -0.2275 -0.7953
  975TIP3    H2 2890   3.651   1.898   0.139 -0.0276  0.1762  0.0073
  976TIP3   OH2 2891   6.046   5.339   2.514  0.7579 -0.1315 -0.5246
  976TIP3    H1 2892   6.073   5.397   2.585 -0.3811 -0.2487  0.0261
  976TIP3    H2 2893   5.983   5.390   2.463  2.1797  0.2603 -1.9850
  977TIP3   OH2 2894   1.495   0.351   5.492 -0.2596 -0.2369  0.2391
  977TIP3    H1 2895   1.433   0.420   5.514 -0.4879 -0.4460  0.2637
  977TIP3    H2 2896   1.447   0.294   5.431  0.7206  0.9367 -1.7188
  978TIP3   OH2 2897   5.764   0.720   1.705 -0.0691  0.9742  0.1000
  978TIP3    H1 2898   5.775   0.747   1.614 -0.2848 -0.8852 -0.5214
  978TIP3    H2 2899   5.769   0.624   1.703 -0.5377  0.8594  1.9821
  979TIP3   OH2 2900   4.784   5.210   1.960 -0.1731  0.0543 -0.4014
  979TIP3    H1 2901   4.694   5.221   1.928 -0.2996  0.2182  0.0043
  979TIP3    H2 2902   4.831   5.170   1.887 -0.4639  0.4069 -0.7839
  980TIP3   OH2 2903   3.786   6.806   3.750  0.1786  0.2308  0.0445
  980TIP3    H1 2904   3.706   6.756   3.758  0.5408 -0.1295  1.6040
  980TIP3    H2 2905   3.844   6.750   3.698 -1.3075  1.4886 -3.2618
  981TIP3   OH2 2906   7.195   3.087   4.715 -0.2730 -0.2922  0.1824
  981TIP3    H1 2907   7.238   3.005   4.739 -0.4492 -0.2894  0.5199
  981TIP3    H2 2908   7.110   3.082   4.759 -0.0207  0.3666  0.7633
  982TIP3   OH2 2909   3.230   2.347   2.554 -0.0184  0.2020  0.2607
  982TIP3    H1 2910   3.200   2.270   2.504  0.4516  0.7766 -0.9428
  982TIP3    H2 2911   3.152   2.377   2.600 -0.8580  0.4843 -1.2581
  983TIP3   OH2 2912   3.040   5.474   2.980  0.1323  0.3880 -0.2369
  983TIP3    H1 2913   3.039   5.381   2.959 -0.6908  0.5878 -1.1841
  983TIP3    H2 2914   3.053   5.478   3.075  1.9720 -0.6245 -0.3998
  984TIP3   OH2 2915   6.549   5.899   1.989  0.2102 -0.4317  0.0229
  984TIP3    H1 2916   6.503   5.841   2.049 -0.4233  1.2212  1.2327
  984TIP3    H2 2917   6.483   5.962   1.961  0.4133 -1.3292 -2.7424
  985TIP3   OH2 2918   5.930   5.392   1.419 -0.0419 -0.2595  0.0309
  985TIP3    H1 2919   5.947   5.307   1.460  1.1903  0.3924  0.9271
  985TIP3    H2 2920   5.899   5.447   1.491  1.5852  0.7391 -0.0073
  986TIP3   OH2 2921   2.387   3.439   5.921  0.2292  0.1200  0.1923
  986TIP3    H1 2922   2.428   3.353   5.910  2.5297  1.2582 -0.6158
  986TIP3    H2 2923   2.356   3.462   5.833  0.9324  0.7314  0.0993
  987TIP3   OH2 2924   1.158   0.834   1.802  0.1651 -0.0701  0.0870
  987TIP3    H1 2925   1.180   0.761   1.744  0.4367 -0.5954  0.8315
  987TIP3    H2 2926   1.071   0.813   1.834 -0.0629  0.3169 -0.2778
  988TIP3   OH2 2927   3.890   0.275   0.108  0.3681  0.4405  0.2067
  988TIP3    H1 2928   3.907   0.226   0.188  1.1499 -0.6057 -0.5764
  988TIP3    H2 2929   3.956   0.344   0.106  2.5004 -1.4858 -1.0820
  989TIP3   OH2 2930   6.686   6.043   0.993 -0.2429  0.1537  0.0208
  989TIP3    H1 2931   6.758   6.024   1.053 -0.4010 -0.4679  0.0270
  989TIP3    H2 2932   6.634   6.110   1.037 -0.6734 -0.6948  0.8425
  990TIP3   OH2 2933   5.969   0.128   4.095  0.7900 -0.0051 -0.1730
  990TIP3    H1 2934   5.976   0.176   4.177 -1.3653 -1.5565  1.0213
  990TIP3    H2 2935   6.018   0.047   4.110 -0.2866 -0.6635 -0.0669
  991TIP3   OH2 2936   3.544   1.253   4.840  0.2550 -0.3042  0.2926
  991TIP3    H1 2937   3.473   1.263   4.776  0.7887 -0.9539 -0.4234
  991TIP3    H2 2938   3.530   1.166   4.878 -0.8898  0.6197  2.1354
  992TIP3   OH2 2939   4.570   5.956   0.415  0.0111  0.0619  0.2236
  992TIP3    H1 2940   4.615   5.959   0.499 -0.9039 -2.4949  0.9038
  992TIP3    H2 2941   4.483   5.921   0.436 -0.2500 -0.6065 -1.7746
  993TIP3   OH2 2942   6.427   5.363   1.894 -0.0223 -0.1562  0.6097
  993TIP3    H1 2943   6.451   5.295   1.957 -0.6999 -2.1034 -1.0971
  993TIP3    H2 2944   6.332   5.355   1.884 -0.2122  1.4687  0.7740
  994TIP3   OH2 2945   2.654   2.622   1.816  0.2234  0.1215 -0.1274
  994TIP3    H1 2946   2.719   2.578   1.871  0.2117 -0.8164 -0.8529
  994TIP3    H2 2947   2.679   2.715   1.820  1.9734 -0.2829 -0.8700
  995TIP3   OH2 2948   1.352   6.157   4.227 -0.5046 -0.3466  0.3478
  995TIP3    H1 2949   1.261   6.175   4.251  0.0786  2.0980  1.0274
  995TIP3    H2 2950   1.389   6.114   4.304 -0.6785  0.1817  0.7306
  996TIP3   OH2 2951   4.315   3.120   2.718 -0.2432 -0.2206  0.3888
  996TIP3    H1 2952   4.384   3.128   2.652 -1.1492 -2.3265 -0.9355
  996TIP3    H2 2953   4.237   3.156   2.675 -0.5450 -0.3355  0.8343
  997TIP3   OH2 2954   2.539   1.778   5.108 -0.1921  0.2645 -0.4380
  997TIP3    H1 2955   2.594   1.785   5.186  0.5622 -0.6953 -0.8712
  997TIP3    H2 2956   2.450   1.770   5.143  0.2961 -2.3615  0.4766
  998TIP3   OH2 2957   4.867   6.260   1.597 -0.5932 -0.4122 -0.1337
  998TIP3    H1 2958   4.915   6.221   1.523 -0.2603 -0.5739  0.1628
  998TIP3    H2 2959   4.924   6.246   1.672 -1.3284 -1.0497  0.3220
  999TIP3   OH2 2960   0.259   5.616   2.841 -0.0879 -0.2962  0.2100
  999TIP3    H1 2961   0.202   5.604   2.765 -0.1721  1.0536  0.0319
  999TIP3    H2 2962   0.201   5.605   2.916  0.4217 -3.9469  0.2294
 1000TIP3   OH2 2963   6.200   5.873   3.185  0.1063  0.3895  0.1291
 1000TIP3    H1 2964   6.240   5.961   3.186 -1.0683  0.9361  0.4729
 1000TIP3    H2 2965   6.202   5.847   3.093 -0.1169  1.0463 -0.0641
 1001TIP3   OH2 2966   5.655   2.365   5.415 -0.0444  0.2645  0.8246
 1001TIP3    H1 2967   5.627   2.405   5.333  1.1105  1.0545  0.7797
 1001TIP3    H2 2968   5.578   2.367   5.471 -0.5126  0.8556  0.1719
 1002TIP3   OH2 2969   4.218   6.543   5.799 -0.0465 -0.0052 -0.1378
 1002TIP3    H1 2970   4.193   6.451   5.814 -1.2265  0.1772 -0.8250
 1002TIP3    H2 2971   4.311   6.539   5.780  0.2644 -0.8736  1.4139
 1003TIP3   OH2 2972   0.522   1.582   2.831 -0.8347  0.0381 -0.6314
 1003TIP3    H1 2973   0.508   1.674   2.856  4.1719  0.1817  3.1777
 1003TIP3    H2 2974   0.567   1.587   2.746  2.0533  1.5749  0.8374
 1004TIP3   OH2 2975   5.219   3.313   3.564  0.0728 -0.3309  0.0798
 1004TIP3    H1 2976   5.222   3.257   3.641 -1.3245  1.4030  1.4914
 1004TIP3    H2 2977   5.149   3.275   3.510  0.9759 -1.4845 -0.3051
 1005TIP3   OH2 2978   2.169   0.189   5.738  0.9816  0.1639  1.0241
 1005TIP3    H1 2979   2.136   0.205   5.649  0.4895 -1.6424  0.8518
 1005TIP3    H2 2980   2.094   0.209   5.795 -0.0713 -2.5822  0.7235
 1006TIP3   OH2 2981   0.256   2.052   4.414  0.4425  0.2985  0.3223
 1006TIP3    H1 2982   0.345   2.023   4.431  0.1164 -1.3742 -0.6451
 1006TIP3    H2 2983   0.249   2.053   4.318  0.2284  3.0718  0.2799
 1007TIP3   OH2 2984   4.550   2.104   1.362  0.0337 -0.0108 -0.0751
 1007TIP3    H1 2985   4.581   2.026   1.407 -0.3698 -0.4786 -0.6016
 1007TIP3    H2 2986   4.615   2.171   1.383  1.6315 -1.0440 -1.4329
 1008TIP3   OH2 2987   1.687   2.750   0.984  1.2934 -0.7246  0.2908
 1008TIP3    H1 2988   1.705   2.664   0.945 -0.2296 -0.6468 -0.7104
 1008TIP3    H2 2989   1.593   2.762   0.970  1.6430  1.5255 -0.4481
 1009TIP3   OH2 2990   3.650   0.933   4.390 -0.2592  0.1802 -0.2570
 1009TIP3    H1 2991   3.635   0.883   4.470 -1.6981  1.5978  0.4131
 1009TIP3    H2 2992   3.734   0.900   4.356 -0.8209 -2.1808  0.4702
 1010TIP3   OH2 2993   2.376   0.313   4.702  0.1914 -0.1971 -0.2918
 1010TIP3    H1 2994   2.304   0.355   4.656 -0.0812  0.4740  0.7113
 1010TIP3    H2 2995   2.455   0.348   4.662 -0.0022 -1.2926 -1.7235
 1011TIP3   OH2 2996   0.107   3.446   1.374  0.3793  0.1168  0.1205
 1011TIP3    H1 2997   0.140   3.417   1.289  1.1485  0.3210  0.3395
 1011TIP3    H2 2998   0.055   3.524   1.353  1.8379  1.0997 -0.0260
 1012TIP3   OH2 2999   5.967   0.923   4.958 -0.0165  0.4814  0.2836
 1012TIP3    H1 3000   5.884   0.965   4.936  0.1046 -0.3517 -1.9478
 1012TIP3    H2 3001   5.953   0.889   5.047 -1.4726  1.7727  0.5817
 1013TIP3   OH2 3002   2.115   6.335   3.474 -0.0456 -0.3335 -0.4252
 1013TIP3    H1 3003   2.164   6.324   3.393  0.2463  1.8159 -0.5992
 1013TIP3    H2 3004   2.029   6.365   3.446  0.9590  3.5296 -0.0152
 1014TIP3   OH2 3005   0.444   0.622   1.888 -0.0306  0.3367 -0.3645
 1014TIP3    H1 3006   0.399   0.538   1.899  0.0834  0.0082 -2.1051
 1014TIP3    H2 3007   0.533   0.598   1.861  0.0498  1.0034 -0.7165
 1015TIP3   OH2 3008   3.429   5.751   1.333  0.0154  0.4918 -0.8097
 1015TIP3    H1 3009   3.456   5.660   1.323 -1.4620 -0.2445  1.3487
 1015TIP3    H2 3010   3.507   5.795   1.368  0.3812 -0.1879 -0.7536
 1016TIP3   OH2 3011   1.191   5.011   2.721 -0.1200  0.4484 -0.0048
 1016TIP3    H1 3012   1.125   4.942   2.720  0.7331 -0.4215  0.9514
 1016TIP3    H2 3013   1.171   5.063   2.798 -0.5970  1.1262 -0.5719
 1017TIP3   OH2 3014   1.813   5.881   1.597  0.1279  0.3950 -0.4763
 1017TIP3    H1 3015   1.869   5.957   1.582 -0.3502  0.8443 -0.0665
 1017TIP3    H2 3016   1.819   5.865   1.692  0.8584 -0.5933 -0.6762
 1018TIP3   OH2 3017   3.849   1.132   1.716 -0.6133 -0.6080 -0.0948
 1018TIP3    H1 3018   3.763   1.090   1.722  0.6530 -3.5269 -0.5138
 1018TIP3    H2 3019   3.878   1.139   1.807  0.2106 -3.3139 -0.0378
 1019TIP3   OH2 3020   0.487   2.498   0.593  0.1136 -0.2381  0.5524
 1019TIP3    H1 3021   0.516   2.424   0.647 -1.1986  0.1158  1.7810
 1019TIP3    H2 3022   0.432   2.459   0.526 -0.0846 -0.4371  0.8315
 1020TIP3   OH2 3023   3.035   4.305   2.145 -0.2856 -0.0697 -0.1393
 1020TIP3    H1 3024   2.982   4.251   2.204 -0.3023  0.6633  0.5440
 1020TIP3    H2 3025   3.015   4.395   2.171 -0.0922  0.2601 -1.1101
 1021TIP3   OH2 3026   6.250   1.012   3.654  0.0140 -0.0718  0.0021
 1021TIP3    H1 3027   6.303   0.944   3.695  0.0348  0.6690  1.2484
 1021TIP3    H2 3028   6.271   1.092   3.703 -1.8521  0.3454  0.1927
 1022TIP3   OH2 3029   2.053   4.076   1.754  0.5005  0.0735  0.4276
 1022TIP3    H1 3030   2.086   4.148   1.808 -0.1827  0.7747 -0.0647
 1022TIP3    H2 3031   2.068   4.105   1.664  0.7884 -0.6774  0.2302
 1023TIP3   OH2 3032   0.818   3.090   0.016  0.3996 -0.1530  0.6585
 1023TIP3    H1 3033   0.761   3.112   0.091  0.4243 -0.7723  0.8633
 1023TIP3    H2 3034   0.837   2.997   0.027  0.1308 -0.3290 -0.3064
 1024TIP3   OH2 3035   6.706   3.474   2.662  0.3996  0.4872  0.1056
 1024TIP3    H1 3036   6.618   3.444   2.640  0.5187 -0.3454  0.6907
 1024TIP3    H2 3037   6.757   3.462   2.582  0.0242  0.8159 -0.1854
 1025TIP3   OH2 3038   3.766   2.181   2.874 -0.4258 -0.4892  0.2569
 1025TIP3    H1 3039   3.703   2.239   2.832 -0.6426 -0.9857 -0.1117
 1025TIP3    H2 3040   3.801   2.127   2.803 -1.1752 -1.7013  0.7703
 1026TIP3   OH2 3041   4.270   1.202   2.914 -0.0342 -0.0752  0.0414
 1026TIP3    H1 3042   4.310   1.258   2.981 -0.9358  0.5322  0.0803
 1026TIP3    H2 3043   4.255   1.260   2.840  3.7843 -1.3150 -1.9948
 1027TIP3   OH2 3044   4.630   1.309   2.797  0.2644  0.3058  0.9611
 1027TIP3    H1 3045   4.712   1.355   2.779  0.5324 -0.7198 -0.6732
 1027TIP3    H2 3046   4.562   1.364   2.760  0.3416  0.4882  1.0867
 1028TIP3   OH2 3047   6.948   2.671   1.973 -1.0699 -0.1293  0.2116
 1028TIP3    H1 3048   6.912   2.611   1.908 -1.8047  0.0431  0.4512
 1028TIP3    H2 3049   7.034   2.694   1.939 -0.5093 -1.7700  0.3971
 1029TIP3   OH2 3050   3.617   0.739   3.843 -0.2974 -0.0624 -0.3548
 1029TIP3    H1 3051   3.528   0.706   3.841 -0.3456  0.0729 -1.7030
 1029TIP3    H2 3052   3.608   0.834   3.840 -0.1184 -0.0687 -1.6251
 1030TIP3   OH2 3053   3.448   3.929   5.392 -0.2829  0.2727  0.5531
 1030TIP3    H1 3054   3.475   3.847   5.351  0.5380  0.9878 -0.3714
 1030TIP3    H2 3055   3.486   3.926   5.480  2.5912  1.0684 -0.5513
 1031TIP3   OH2 3056   0.461   4.413   4.103 -0.1930 -0.4629  0.1571
 1031TIP3    H1 3057   0.446   4.345   4.038 -0.7580 -0.3398  0.1600
 1031TIP3    H2 3058   0.510   4.481   4.057  2.3134 -1.7767  0.6674
 1032TIP3   OH2 3059   1.659   0.279   3.788  0.9452 -0.1427  0.3089
 1032TIP3    H1 3060   1.704   0.252   3.708  1.1117 -0.3678  0.4788
 1032TIP3    H2 3061   1.626   0.198   3.826  0.4760  0.0105  0.2349
 1033TIP3   OH2 3062   0.405   4.837   4.279 -0.2561  0.5049  0.1242
 1033TIP3    H1 3063   0.455   4.916   4.258  1.6926 -0.8264 -0.4661
 1033TIP3    H2 3064   0.428   4.818   4.370 -1.1541  0.8875  0.4458
 1034TIP3   OH2 3065   2.008   4.002   5.789  0.6148  0.6172 -0.1000
 1034TIP3    H1 3066   1.999   3.921   5.739 -3.5231  1.7439 -1.5719
 1034TIP3    H2 3067   2.096   4.033   5.769  0.6210 -1.1307 -3.3612
 1035TIP3   OH2 3068   5.864   5.583   1.619  0.6550  0.0549  0.4505
 1035TIP3    H1 3069   5.877   5.524   1.693  3.3514 -0.5194 -0.3668
 1035TIP3    H2 3070   5.839   5.666   1.659 -0.1171 -0.7885  1.8248
 1036TIP3   OH2 3071   5.836   6.149   1.153  0.1933 -0.0509 -0.0526
 1036TIP3    H1 3072   5.860   6.125   1.063 -0.1228  0.4203 -0.2632
 1036TIP3    H2 3073   5.753   6.195   1.145 -0.1431 -0.5375  0.5496
 1037TIP3   OH2 3074   0.144   0.768   4.012 -0.5453  0.0900 -0.2801
 1037TIP3    H1 3075   0.225   0.726   4.041 -0.6778 -0.1776 -0.2875
 1037TIP3    H2 3076   0.172   0.851   3.974 -0.2054 -0.2929 -0.8875
 1038TIP3   OH2 3077   2.250   3.807   5.678  0.7817 -0.0846 -0.8773
 1038TIP3    H1 3078   2.326   3.779   5.627  0.9193 -1.4484  0.0040
 1038TIP3    H2 3079   2.175   3.770   5.632  0.9113 -1.3737 -0.1105
 1039TIP3   OH2 3080   6.797   0.447   4.323  0.4968 -0.2717 -0.3950
 1039TIP3    H1 3081   6.890   0.456   4.345  0.4605 -1.1070  0.1465
 1039TIP3    H2 3082   6.752   0.449   4.408  0.0492 -0.1445 -0.6344
 1040TIP3   OH2 3083   0.242   3.751   3.743 -0.3791  0.0765 -1.4929
 1040TIP3    H1 3084   0.290   3.833   3.740  0.4124 -0.2454  0.4822
 1040TIP3    H2 3085   0.176   3.764   3.812  0.4306 -1.2272 -0.4019
 1041TIP3   OH2 3086   0.257   3.979   4.762  0.1502 -0.2392 -0.6234
 1041TIP3    H1 3087   0.222   3.891   4.748  0.1564 -0.5190  0.9555
 1041TIP3    H2 3088   0.189   4.038   4.729 -0.6156 -0.8143 -0.1013
 1042TIP3   OH2 3089   5.595   3.221   4.612  0.0646 -0.0048  0.3132
 1042TIP3    H1 3090   5.646   3.283   4.560 -0.0115  0.3628  0.6711
 1042TIP3    H2 3091   5.595   3.140   4.560 -1.0215  0.7063 -0.8546
 1043TIP3   OH2 3092   3.250   1.564   2.712  0.0146 -0.2504 -0.5783
 1043TIP3    H1 3093   3.170   1.530   2.752  0.5371  0.3357  1.0103
 1043TIP3    H2 3094   3.320   1.508   2.747  0.3118 -1.0273 -2.2666
 1044TIP3   OH2 3095   7.165   3.479   5.654 -0.3426 -0.1184  0.1673
 1044TIP3    H1 3096   7.194   3.492   5.744  0.8884 -0.4269 -0.1738
 1044TIP3    H2 3097   7.137   3.565   5.625  0.9608  0.3623  0.2723
 1045TIP3   OH2 3098   1.847   6.679   0.541  0.1187 -0.1646  0.2706
 1045TIP3    H1 3099   1.910   6.609   0.556  1.7293  1.0665 -0.3886
 1045TIP3    H2 3100   1.901   6.755   0.519 -1.6382  0.6806 -1.4684
 1046TIP3   OH2 3101   0.761   0.258   4.876  0.1286  0.2717  0.3488
 1046TIP3    H1 3102   0.666   0.268   4.865  0.0382  0.2608  1.1029
 1046TIP3    H2 3103   0.795   0.346   4.862 -0.0151  0.3185  0.2870
 1047TIP3   OH2 3104   5.083   0.236   1.476 -0.1192  0.0998  0.7214
 1047TIP3    H1 3105   5.024   0.272   1.543  1.4807  1.7005  1.3417
 1047TIP3    H2 3106   5.169   0.239   1.517  0.9766  1.4228 -1.5051
 1048TIP3   OH2 3107   4.828   3.712   2.026 -0.1252 -0.1219 -0.0948
 1048TIP3    H1 3108   4.888   3.699   2.100  0.6693  0.6536 -0.5791
 1048TIP3    H2 3109   4.748   3.666   2.051  0.3521 -0.3968  0.9718
 1049TIP3   OH2 3110   0.103   2.389   3.206 -0.2662 -0.2879 -0.5124
 1049TIP3    H1 3111   0.185   2.435   3.189  0.0817 -0.6762  0.0823
 1049TIP3    H2 3112   0.067   2.370   3.120  0.0476  0.2761 -0.7720
 1050TIP3   OH2 3113   5.149   4.318   0.075  0.2198 -0.5367 -0.5411
 1050TIP3    H1 3114   5.235   4.360   0.072  0.6309 -1.0883  1.6282
 1050TIP3    H2 3115   5.146   4.266  -0.006  1.9831 -0.6104 -0.6165
 1051TIP3   OH2 3116   2.420   2.942   3.323  0.1165 -0.4332 -0.3702
 1051TIP3    H1 3117   2.420   2.846   3.323  0.9208 -0.4836  1.5941
 1051TIP3    H2 3118   2.476   2.965   3.249  2.4985 -1.5990  0.9329
 1052TIP3   OH2 3119   4.035   6.198   3.815  0.0264 -0.0216 -0.3975
 1052TIP3    H1 3120   4.115   6.241   3.784  1.1910 -0.2413  2.0423
 1052TIP3    H2 3121   4.040   6.110   3.778  0.1609  0.4234 -1.4475
 1053TIP3   OH2 3122   3.128   4.770   4.436 -0.6588  0.3319  0.0164
 1053TIP3    H1 3123   3.134   4.722   4.354 -1.6874  0.7179 -0.2999
 1053TIP3    H2 3124   3.038   4.757   4.465 -0.1585 -0.2342  1.3603
 1054TIP3   OH2 3125   1.775   3.321   5.404  0.2464  0.1987 -0.2224
 1054TIP3    H1 3126   1.808   3.395   5.455  0.5914  0.9954 -1.5699
 1054TIP3    H2 3127   1.724   3.270   5.468  0.9607  0.9581  0.9988
 1055TIP3   OH2 3128   5.247   4.584   5.345  0.0199  0.0038  0.6181
 1055TIP3    H1 3129   5.235   4.511   5.406  0.2231  0.9873  1.8777
 1055TIP3    H2 3130   5.225   4.662   5.396 -2.6867  0.7153 -1.3672
 1056TIP3   OH2 3131   7.178   4.297   2.529  0.2616 -0.6227 -0.2281
 1056TIP3    H1 3132   7.203   4.389   2.539 -0.0201 -0.4983 -0.6153
 1056TIP3    H2 3133   7.200   4.277   2.438 -2.0546 -0.1734 -0.9518
 1057TIP3   OH2 3134   6.600   5.136   2.770 -0.5607 -0.5756 -0.5758
 1057TIP3    H1 3135   6.627   5.051   2.804  0.1850  0.7989  2.6095
 1057TIP3    H2 3136   6.675   5.167   2.718 -0.4436 -1.4108 -0.9130
 1058TIP3   OH2 3137   2.444   4.379   2.511  0.0688  0.0913  0.0385
 1058TIP3    H1 3138   2.390   4.368   2.432 -0.7328 -1.3256  0.7478
 1058TIP3    H2 3139   2.414   4.310   2.570  1.3992  0.4535  1.1799
 1059TIP3   OH2 3140   4.808   1.860   3.151 -0.3290  0.7069  0.0816
 1059TIP3    H1 3141   4.791   1.948   3.119 -0.0142  0.6100 -0.3630
 1059TIP3    H2 3142   4.891   1.835   3.109  0.4324  0.8161  1.4609
 1060TIP3   OH2 3143   7.092   0.478   1.986  0.3178  0.6933 -0.5176
 1060TIP3    H1 3144   7.013   0.529   2.003  0.7915  0.6126  2.6109
 1060TIP3    H2 3145   7.152   0.502   2.057  2.3733 -0.6925 -1.6702
 1061TIP3   OH2 3146   6.354   4.255   0.025  0.2215 -0.3327  0.2216
 1061TIP3    H1 3147   6.375   4.233   0.116 -1.5412 -0.7363  0.5596
 1061TIP3    H2 3148   6.288   4.192  -0.001 -1.7966  1.8302 -0.2244
 1062TIP3   OH2 3149   4.296   6.061   1.693 -0.2781 -0.5591  0.3306
 1062TIP3    H1 3150   4.232   6.132   1.689  0.2598 -0.1091 -0.5538
 1062TIP3    H2 3151   4.333   6.056   1.604  0.5653 -1.1363  0.6957
 1063TIP3   OH2 3152   1.687   4.053   3.521 -0.1082 -0.0437 -0.2887
 1063TIP3    H1 3153   1.775   4.067   3.487  0.0706  0.9643  0.5199
 1063TIP3    H2 3154   1.632   4.047   3.443  0.7373 -1.3165 -0.8204
 1064TIP3   OH2 3155   2.109   5.100   4.454 -0.2114  0.3041  0.2372
 1064TIP3    H1 3156   2.178   5.047   4.414  0.1991 -0.2228  1.6082
 1064TIP3    H2 3157   2.147   5.187   4.460 -0.4056  0.4781 -0.8123
 1065TIP3   OH2 3158   6.530   4.623   0.661 -0.1120 -0.3938 -0.0821
 1065TIP3    H1 3159   6.608   4.622   0.606 -1.0158 -2.8455 -1.5154
 1065TIP3    H2 3160   6.526   4.535   0.699 -2.3212 -0.4760 -0.3546
 1066TIP3   OH2 3161   5.471   4.815   2.326 -0.3709 -0.6543  0.0430
 1066TIP3    H1 3162   5.384   4.775   2.330 -0.9464  0.6632  1.7188
 1066TIP3    H2 3163   5.529   4.750   2.367 -1.1446 -0.2009  1.9246
 1067TIP3   OH2 3164   2.522   3.859   4.698  0.2737  0.3644  0.3103
 1067TIP3    H1 3165   2.616   3.864   4.677  0.3851  1.0784  0.9512
 1067TIP3    H2 3166   2.494   3.950   4.705 -0.3958  0.1493  0.4731
 1068TIP3   OH2 3167   0.070   0.564   0.292 -0.0231  0.5246 -0.1901
 1068TIP3    H1 3168   0.051   0.471   0.299 -2.3796  0.9216 -0.4753
 1068TIP3    H2 3169  -0.011   0.603   0.260  1.2012  2.5662 -1.0199
 1069TIP3   OH2 3170   1.263   0.831   4.205 -0.0121  0.2419 -0.2877
 1069TIP3    H1 3171   1.208   0.839   4.127  0.5188  0.3725 -0.6526
 1069TIP3    H2 3172   1.318   0.754   4.188  0.8672  0.9089 -0.5287
 1070TIP3   OH2 3173   1.032   1.049   0.193 -0.4975  0.6376  0.3278
 1070TIP3    H1 3174   1.069   1.084   0.111 -3.1086  0.5479 -0.9973
 1070TIP3    H2 3175   1.107   1.041   0.252  1.1368  2.8580 -1.2927
 1071TIP3   OH2 3176   0.104   5.776   5.568 -0.1855 -0.0571  0.2528
 1071TIP3    H1 3177   0.052   5.772   5.487 -0.2833  0.1242  0.3056
 1071TIP3    H2 3178   0.169   5.706   5.559  0.1783  0.3406 -0.2435
 1072TIP3   OH2 3179   3.348   4.825   3.640 -0.6998 -0.6148  0.0554
 1072TIP3    H1 3180   3.293   4.902   3.654  1.5244  1.6320 -2.3006
 1072TIP3    H2 3181   3.297   4.768   3.582 -1.0551  0.8969 -1.1818
 1073TIP3   OH2 3182   2.290   0.931   0.785 -0.2832 -0.0632  0.1476
 1073TIP3    H1 3183   2.311   0.899   0.697 -1.1348 -1.3681  0.3836
 1073TIP3    H2 3184   2.324   0.863   0.844  1.1655  1.2720  0.9078
 1074TIP3   OH2 3185   5.960   3.932   2.702 -0.8248  0.2603  0.0391
 1074TIP3    H1 3186   6.007   3.999   2.751  1.2798 -0.5646 -0.7078
 1074TIP3    H2 3187   5.904   3.889   2.766  0.5657  0.3411  1.3528
 1075TIP3   OH2 3188   4.449   3.060   4.280 -0.1342 -0.1091  0.2480
 1075TIP3    H1 3189   4.509   3.018   4.219  0.4322 -0.4841  1.0379
 1075TIP3    H2 3190   4.368   3.071   4.231 -0.1819 -1.7809 -0.1163
 1076TIP3   OH2 3191   7.030   2.148   1.683  0.0030  0.4096  0.7511
 1076TIP3    H1 3192   7.006   2.142   1.591 -0.3524  2.8744  0.6090
 1076TIP3    H2 3193   7.123   2.125   1.685 -0.5953 -2.3268  0.2511
 1077TIP3   OH2 3194   4.844   0.545   3.014  0.1099  0.1874  0.3938
 1077TIP3    H1 3195   4.934   0.577   3.006 -0.2420  1.0912 -0.1222
 1077TIP3    H2 3196   4.791   0.624   3.011 -0.6600 -0.2704  1.5971
 1078TIP3   OH2 3197   4.618   1.702   3.563  0.3616 -0.4204  0.3580
 1078TIP3    H1 3198   4.574   1.624   3.597 -0.6974  0.3166  0.7495
 1078TIP3    H2 3199   4.690   1.668   3.510 -0.4366 -1.6727  0.0316
 1079TIP3   OH2 3200   5.505   5.908   1.842 -0.5175  0.5018 -0.6451
 1079TIP3    H1 3201   5.422   5.904   1.890 -1.3866  3.0598 -1.7219
 1079TIP3    H2 3202   5.478   5.905   1.750  0.4842  1.9998 -1.0169
 1080TIP3   OH2 3203   1.297   4.351   5.304  0.0287 -0.2361 -0.4345
 1080TIP3    H1 3204   1.202   4.357   5.316  0.1323  0.1544  0.2427
 1080TIP3    H2 3205   1.333   4.398   5.379  0.7596 -0.4133 -0.6729
 1081TIP3   OH2 3206   2.988   5.474   1.691 -0.3182 -0.2043  0.6428
 1081TIP3    H1 3207   2.966   5.548   1.748 -0.8222  1.0271 -1.0348
 1081TIP3    H2 3208   3.073   5.444   1.721  0.2698  1.5943  0.8906
 1082TIP3   OH2 3209   2.125   1.905   0.138 -0.0299  0.1798  0.3189
 1082TIP3    H1 3210   2.205   1.958   0.134 -0.2701  0.5764  0.6628
 1082TIP3    H2 3211   2.087   1.925   0.224  0.1485 -0.9567  0.6747
 1083TIP3   OH2 3212   1.550   0.012   2.699 -0.1756  0.5446  0.3006
 1083TIP3    H1 3213   1.554  -0.019   2.790  1.4693 -0.6375 -0.1193
 1083TIP3    H2 3214   1.632   0.059   2.686  0.9959 -1.7302 -1.3308
 1084TIP3   OH2 3215   0.126   4.051   5.670 -0.2288  0.0705  0.2805
 1084TIP3    H1 3216   0.151   3.992   5.742  0.2407  0.4790  0.4619
 1084TIP3    H2 3217   0.209   4.084   5.637 -0.4926  0.6895  0.2333
 1085TIP3   OH2 3218   4.329   4.420   2.164 -0.0600 -0.4219 -0.4340
 1085TIP3    H1 3219   4.327   4.512   2.139 -1.1553  0.4206  2.4225
 1085TIP3    H2 3220   4.253   4.381   2.121 -0.6197  0.4436 -0.2481
 1086TIP3   OH2 3221   1.141   4.615   4.211  0.2349 -0.3497 -0.0578
 1086TIP3    H1 3222   1.139   4.523   4.181 -0.1082 -0.2817 -0.2538
 1086TIP3    H2 3223   1.234   4.634   4.222  0.3891 -0.3161 -1.2998
 1087TIP3   OH2 3224   7.074   5.141   4.004 -0.6176  0.4661  0.1206
 1087TIP3    H1 3225   7.004   5.150   4.068 -1.4491 -0.7522 -0.5992
 1087TIP3    H2 3226   7.097   5.048   4.005  0.6023  0.7387 -0.0715
 1088TIP3   OH2 3227   2.345   4.640   4.806 -0.1185  0.0247  0.1874
 1088TIP3    H1 3228   2.387   4.704   4.863 -0.7721  1.0299 -0.4417
 1088TIP3    H2 3229   2.316   4.690   4.730  1.3942 -1.4057 -1.4131
 1089TIP3   OH2 3230   0.854   2.332   0.734 -0.4522  0.0482 -0.4444
 1089TIP3    H1 3231   0.811   2.397   0.679 -1.2864  0.1055  0.2541
 1089TIP3    H2 3232   0.809   2.250   0.712 -0.0025 -0.1392 -0.6793
 1090TIP3   OH2 3233   2.397   5.517   0.461 -0.8904  0.1167  0.2002
 1090TIP3    H1 3234   2.311   5.500   0.421 -0.2621 -0.0721 -1.1202
 1090TIP3    H2 3235   2.444   5.569   0.396  1.0518 -2.2843 -0.4585
 1091TIP3   OH2 3236   0.758   6.237   3.913 -0.0433 -0.0165  0.2287
 1091TIP3    H1 3237   0.709   6.273   3.987 -1.8179 -4.1401  1.3527
 1091TIP3    H2 3238   0.694   6.184   3.865  1.9733 -0.5843 -2.0503
 1092TIP3   OH2 3239   4.036   3.287   3.533  0.4591  0.3102  0.0033
 1092TIP3    H1 3240   4.000   3.331   3.456 -0.4778 -1.4746 -0.6530
 1092TIP3    H2 3241   4.127   3.316   3.538  0.6374  0.2355 -1.9904
 1093TIP3   OH2 3242   0.357   2.797   4.906  0.5382 -0.4579  0.1042
 1093TIP3    H1 3243   0.358   2.796   5.002 -0.6487 -1.3957  0.1422
 1093TIP3    H2 3244   0.406   2.719   4.881  0.1363 -0.6803 -0.0105
 1094TIP3   OH2 3245   3.696   6.454   1.574 -0.3035 -0.5108 -0.3543
 1094TIP3    H1 3246   3.606   6.487   1.571  0.5968  2.0808 -2.3433
 1094TIP3    H2 3247   3.744   6.518   1.625  0.4222 -2.0150  0.9236
 1095TIP3   OH2 3248   0.273   4.713   1.976 -0.1103  0.0812  0.1588
 1095TIP3    H1 3249   0.261   4.808   1.968  1.9064  0.4679  1.2349
 1095TIP3    H2 3250   0.240   4.678   1.893 -0.0348  1.8084 -0.6413
 1096TIP3   OH2 3251   3.484   5.974   2.827  0.0315 -0.5140  0.0475
 1096TIP3    H1 3252   3.432   6.039   2.780  0.4573  1.0503  1.6115
 1096TIP3    H2 3253   3.540   5.935   2.760 -0.6636  0.2987 -1.0471
 1097TIP3   OH2 3254   1.724   0.235   2.904  0.0688  0.3242  0.3163
 1097TIP3    H1 3255   1.738   0.258   2.996 -1.2671  1.7803  0.2060
 1097TIP3    H2 3256   1.774   0.155   2.891  1.5043  0.9063  1.9085
 1098TIP3   OH2 3257   4.463   0.576   5.857 -0.9012 -0.5348 -0.0279
 1098TIP3    H1 3258   4.376   0.612   5.872 -0.9170 -0.1750 -0.9372
 1098TIP3    H2 3259   4.463   0.549   5.766 -0.1296 -0.7226  0.0180
 1099TIP3   OH2 3260   2.919   2.600   5.495  0.3686 -0.2336  0.0022
 1099TIP3    H1 3261   2.855   2.620   5.563  1.1740  0.5364  0.5583
 1099TIP3    H2 3262   3.002   2.592   5.542  0.7973 -0.5291 -0.7895
 1100TIP3   OH2 3263   6.843   6.779   4.823  0.4082  0.9429 -0.6031
 1100TIP3    H1 3264   6.893   6.854   4.853  0.7345  0.5126 -0.0423
 1100TIP3    H2 3265   6.763   6.780   4.876  0.0736  1.3098 -1.1081
 1101TIP3   OH2 3266   1.355   5.426   0.272  0.1503  0.4835 -0.0468
 1101TIP3    H1 3267   1.445   5.393   0.268  1.3554  3.4331 -0.0008
 1101TIP3    H2 3268   1.354   5.499   0.210 -2.2059  0.5854  0.0424
 1102TIP3   OH2 3269   2.785   4.773   5.245 -0.0259 -0.7203 -0.0057
 1102TIP3    H1 3270   2.786   4.773   5.149 -1.1528 -0.8336 -0.0287
 1102TIP3    H2 3271   2.700   4.811   5.268  0.0450 -1.1227  0.9461
 1103TIP3   OH2 3272   6.120   3.108   4.528 -0.2241 -0.4850  0.5531
 1103TIP3    H1 3273   6.030   3.139   4.521 -0.4821 -1.0283  1.2491
 1103TIP3    H2 3274   6.174   3.178   4.492 -0.9357 -0.2189 -0.0029
 1104TIP3   OH2 3275   3.860   3.349   3.240  0.6089 -0.3036  0.8162
 1104TIP3    H1 3276   3.792   3.326   3.303  0.6746 -0.2261  0.9154
 1104TIP3    H2 3277   3.873   3.269   3.188 -0.4565  0.0513 -0.0389
 1105TIP3   OH2 3278   1.623   4.554   0.576 -0.1797  0.0792 -1.0479
 1105TIP3    H1 3279   1.676   4.481   0.609 -1.4771 -0.9201 -1.0733
 1105TIP3    H2 3280   1.570   4.581   0.650  2.3662  3.0850 -0.1406
 1106TIP3   OH2 3281   0.908   3.694   4.615 -0.4019  0.3815  0.0240
 1106TIP3    H1 3282   0.839   3.651   4.565 -0.4901  1.5296 -0.8849
 1106TIP3    H2 3283   0.872   3.780   4.636  1.0385  1.3446 -1.2232
 1107TIP3   OH2 3284   6.218   2.315   4.345  0.3865 -0.2912  0.0535
 1107TIP3    H1 3285   6.298   2.264   4.329 -0.6539 -1.6914 -0.8608
 1107TIP3    H2 3286   6.208   2.369   4.266  1.2556  1.0742  0.8414
 1108TIP3   OH2 3287   6.361   2.368   2.709 -0.8335  0.5442 -0.4581
 1108TIP3    H1 3288   6.319   2.391   2.626  0.9738 -1.0414 -1.9300
 1108TIP3    H2 3289   6.360   2.449   2.760 -1.0082  1.9158 -2.4904
 1109TIP3   OH2 3290   6.115   4.798   0.208 -0.0230 -0.0815 -0.0622
 1109TIP3    H1 3291   6.158   4.883   0.196  0.1662 -0.2447 -0.5411
 1109TIP3    H2 3292   6.100   4.792   0.302  1.2730 -0.1561  0.1533
 1110TIP3   OH2 3293   3.531   0.822   2.124 -0.4546  0.3869 -0.3409
 1110TIP3    H1 3294   3.443   0.853   2.104  0.0286  0.9023 -1.7250
 1110TIP3    H2 3295   3.517   0.738   2.169 -1.6420  0.0809 -1.2398
 1111TIP3   OH2 3296   1.398   4.599   3.551 -0.5351  0.0049  0.0206
 1111TIP3    H1 3297   1.486   4.571   3.526 -0.6757  0.6073 -1.2288
 1111TIP3    H2 3298   1.404   4.615   3.645 -0.2197 -3.1969  0.6492
 1112TIP3   OH2 3299   5.844   4.790   0.572 -0.6033  0.3856 -0.5854
 1112TIP3    H1 3300   5.892   4.819   0.649  1.5193  3.1156 -2.6989
 1112TIP3    H2 3301   5.886   4.708   0.546 -0.3422  0.2349  0.3044
 1113TIP3   OH2 3302   5.936   1.014   0.024 -0.5020 -0.2554  0.1379
 1113TIP3    H1 3303   5.850   1.041  -0.008 -1.7869 -3.0164  0.9153
 1113TIP3    H2 3304   5.928   0.919   0.036  2.0087 -0.3028  2.2554
 1114TIP3   OH2 3305   1.796   0.571   3.230 -0.0744  0.3005 -0.1509
 1114TIP3    H1 3306   1.823   0.541   3.143  0.8836  1.1651 -0.1630
 1114TIP3    H2 3307   1.736   0.644   3.213 -1.8157 -1.0465 -0.1044
 1115TIP3   OH2 3308   3.081   4.880   1.567 -0.1848 -0.1348  0.3778
 1115TIP3    H1 3309   3.050   4.969   1.583 -0.0404 -0.0967  0.4451
 1115TIP3    H2 3310   3.003   4.832   1.541 -0.0385  0.3379 -1.0454
 1116TIP3   OH2 3311   2.038   2.929   5.257 -0.1916  0.1453  0.0087
 1116TIP3    H1 3312   2.069   2.997   5.317  0.3427 -0.2595  0.1977
 1116TIP3    H2 3313   1.962   2.891   5.301  0.4063 -0.3897  0.6074
 1117TIP3   OH2 3314   3.589   1.442   4.174 -0.5133  0.4468  0.6701
 1117TIP3    H1 3315   3.614   1.361   4.220 -1.7188  0.9963  2.4105
 1117TIP3    H2 3316   3.511   1.473   4.221 -0.8816  1.9054 -0.8193
 1118TIP3   OH2 3317   2.005   5.938   0.622  0.1860 -0.1800  0.3169
 1118TIP3    H1 3318   2.057   5.961   0.699  1.1969 -1.0536 -0.0680
 1118TIP3    H2 3319   1.915   5.960   0.646  0.3848 -1.0505  2.0078
 1119TIP3   OH2 3320   2.037   5.698   0.464  0.5092 -0.0890 -0.3884
 1119TIP3    H1 3321   2.022   5.756   0.389 -3.0740 -1.9654 -1.3554
 1119TIP3    H2 3322   2.037   5.757   0.540  0.0198  1.4684 -1.5422
 1120TIP3   OH2 3323   6.784   4.806   3.391  0.5138 -0.0529  0.7799
 1120TIP3    H1 3324   6.756   4.827   3.302 -0.8640 -1.2972  0.8898
 1120TIP3    H2 3325   6.804   4.713   3.389  2.5379  0.3225  1.2893
 1121TIP3   OH2 3326   0.395   0.450   3.215 -0.4922 -0.0126  0.3317
 1121TIP3    H1 3327   0.472   0.393   3.220  1.3369  1.9997 -1.9705
 1121TIP3    H2 3328   0.370   0.447   3.123  0.1755  3.3228 -0.0997
 1122TIP3   OH2 3329   2.361   1.453   4.813 -0.1008 -0.7548  0.1157
 1122TIP3    H1 3330   2.315   1.415   4.738 -0.4199 -0.4544  0.1610
 1122TIP3    H2 3331   2.434   1.393   4.828 -0.3620 -1.1263 -0.0774
 1123TIP3   OH2 3332   2.136   4.548   5.850 -0.0632 -0.0441 -0.2973
 1123TIP3    H1 3333   2.195   4.603   5.901 -1.8415  1.0650  0.6839
 1123TIP3    H2 3334   2.168   4.556   5.760  0.0379  2.2771 -0.1269
 1124TIP3   OH2 3335   0.409   2.029   1.402  0.3116 -0.4748  0.5698
 1124TIP3    H1 3336   0.358   2.108   1.413 -0.5322 -1.0034  0.5608
 1124TIP3    H2 3337   0.423   1.996   1.490  0.8356 -0.2188  0.5880
 1125TIP3   OH2 3338   3.430   4.603   2.052  0.0757  0.1589  0.1389
 1125TIP3    H1 3339   3.359   4.586   2.115 -0.5060 -0.5520 -0.6862
 1125TIP3    H2 3340   3.386   4.644   1.977  0.4801 -0.5774 -0.5117
 1126TIP3   OH2 3341   6.677   6.214   2.642 -0.1360  0.3749  0.0481
 1126TIP3    H1 3342   6.768   6.203   2.613  0.3800 -0.9738  1.9696
 1126TIP3    H2 3343   6.625   6.170   2.574  0.9696 -2.1103  0.6993
 1127TIP3   OH2 3344   2.535   4.187   0.990 -0.1733 -0.3001  0.4322
 1127TIP3    H1 3345   2.536   4.099   1.028 -0.5535 -1.3284 -1.7620
 1127TIP3    H2 3346   2.542   4.246   1.065 -1.4644 -2.1456  2.1096
 1128TIP3   OH2 3347   0.569   5.044   5.040  0.2034  0.1695 -0.2407
 1128TIP3    H1 3348   0.511   4.971   5.017  0.6645  0.1113 -1.2960
 1128TIP3    H2 3349   0.512   5.121   5.038  0.3981  0.3371 -2.8165
 1129TIP3   OH2 3350   2.085   6.114   3.829  0.2912  0.0139  0.7189
 1129TIP3    H1 3351   2.132   6.103   3.747 -0.2010  3.1872 -0.1212
 1129TIP3    H2 3352   1.997   6.141   3.803 -0.6472 -1.3181  2.3090
 1130TIP3   OH2 3353   2.652   5.529   5.667  0.2979 -0.7286  0.3527
 1130TIP3    H1 3354   2.630   5.444   5.704  0.0642 -1.4827 -1.4050
 1130TIP3    H2 3355   2.734   5.554   5.710 -0.6623 -0.8429  2.3663
 1131TIP3   OH2 3356   2.101   4.946   2.987  0.4064  0.1800 -0.0638
 1131TIP3    H1 3357   2.115   4.852   2.994  0.6574  0.1036 -1.3130
 1131TIP3    H2 3358   2.167   4.984   3.046  2.8144 -0.3539 -2.2013
 1132TIP3   OH2 3359   1.747   5.688   1.031  0.6828 -0.0575 -0.1055
 1132TIP3    H1 3360   1.812   5.651   1.090  1.0058 -0.8098 -0.9070
 1132TIP3    H2 3361   1.794   5.755   0.982  1.0503 -1.0778 -1.1705
 1133TIP3   OH2 3362   4.749   2.046   4.803 -0.1964 -0.4499  0.4589
 1133TIP3    H1 3363   4.791   1.982   4.861  0.3030 -1.5160 -1.0236
 1133TIP3    H2 3364   4.771   2.131   4.842  3.8945 -0.8804 -0.4588
 1134TIP3   OH2 3365   0.761   6.573   5.684 -0.1091  0.5677  0.3810
 1134TIP3    H1 3366   0.794   6.644   5.740 -1.9119  0.1778  2.0254
 1134TIP3    H2 3367   0.695   6.615   5.628  0.0908  0.5120  0.0987
 1135TIP3   OH2 3368   5.013   4.481   2.145  0.2058 -0.7843 -0.0782
 1135TIP3    H1 3369   4.929   4.522   2.124  0.6726  1.3700  1.9097
 1135TIP3    H2 3370   5.072   4.512   2.076  0.3082  1.1822  0.8420
 1136TIP3   OH2 3371   1.926   0.362   2.113  0.4235 -0.1603  0.1932
 1136TIP3    H1 3372   1.842   0.344   2.069  0.7933 -0.8088 -0.2679
 1136TIP3    H2 3373   1.982   0.395   2.043 -0.0137  2.2016  0.8797
 1137TIP3   OH2 3374   5.513   2.071   5.693  0.1888  0.2265 -0.3910
 1137TIP3    H1 3375   5.465   2.111   5.765  2.4124  1.0384  0.7334
 1137TIP3    H2 3376   5.448   2.062   5.623 -1.1596  2.9491  0.3697
 1138TIP3   OH2 3377   5.848   3.139   3.589 -0.5253  0.6052  0.5212
 1138TIP3    H1 3378   5.886   3.227   3.596  0.7820  0.2389 -1.1559
 1138TIP3    H2 3379   5.907   3.084   3.641  0.7476  0.2025 -1.2554
 1139TIP3   OH2 3380   5.019   0.393   1.699 -0.7037  0.6989  0.4045
 1139TIP3    H1 3381   5.043   0.360   1.786  1.6331  0.8998 -0.1026
 1139TIP3    H2 3382   5.044   0.486   1.701 -0.2417  0.6034 -0.6131
 1140TIP3   OH2 3383   2.936   0.169   3.140 -0.2405 -0.1070 -0.2838
 1140TIP3    H1 3384   2.893   0.101   3.088  0.9948  0.1966 -1.7700
 1140TIP3    H2 3385   3.029   0.148   3.134 -0.0303 -0.0599  1.8748
 1141TIP3   OH2 3386   5.463   0.218   0.805 -0.5453  0.3376  0.7676
 1141TIP3    H1 3387   5.484   0.311   0.816  1.0853 -0.1317  1.8551
 1141TIP3    H2 3388   5.506   0.174   0.878 -0.1133 -1.4481 -0.5003
 1142TIP3   OH2 3389   3.624   1.832   1.053  0.3677 -0.0025  0.6138
 1142TIP3    H1 3390   3.622   1.774   0.977 -0.5082 -1.8170  1.9359
 1142TIP3    H2 3391   3.710   1.874   1.050 -0.4166  1.7285 -2.5533
 1143TIP3   OH2 3392   3.577   0.961   3.050 -0.1909 -0.2516 -0.0145
 1143TIP3    H1 3393   3.611   0.962   2.961 -1.6573 -0.0996 -0.5995
 1143TIP3    H2 3394   3.531   0.877   3.058 -0.1826 -0.2084  0.5648
 1144TIP3   OH2 3395   3.755   3.216   1.807  0.1068  0.3980  0.2329
 1144TIP3    H1 3396   3.842   3.178   1.794 -0.0339  0.4663 -1.0097
 1144TIP3    H2 3397   3.767   3.310   1.793 -0.2335  0.3581 -0.3815
 1145TIP3   OH2 3398   0.628   5.341   3.402 -0.0491  0.4264 -0.4463
 1145TIP3    H1 3399   0.582   5.378   3.477  0.6351 -1.3865  0.9527
 1145TIP3    H2 3400   0.618   5.246   3.413  1.3043  0.0881 -1.8592
 1146TIP3   OH2 3401   4.727   0.954   4.164 -0.5015 -0.2066  0.3289
 1146TIP3    H1 3402   4.684   1.033   4.132 -0.5597 -0.5760 -0.5201
 1146TIP3    H2 3403   4.655   0.894   4.185 -0.5118 -1.6813 -3.2082
 1147TIP3   OH2 3404   2.918   4.152   0.945  0.0346  0.2427 -0.0501
 1147TIP3    H1 3405   2.889   4.169   1.034 -0.8024 -1.2227 -0.0012
 1147TIP3    H2 3406   2.897   4.231   0.896  0.0889  0.8888  0.9551
 1148TIP3   OH2 3407   5.940   0.238   1.340 -0.4036 -0.8286 -0.5149
 1148TIP3    H1 3408   5.855   0.220   1.381 -0.4051  1.3072  0.5408
 1148TIP3    H2 3409   5.924   0.226   1.246 -1.8243 -0.6833 -0.3127
 1149TIP3   OH2 3410   7.011   3.833   0.785 -0.5331 -0.0887  0.5864
 1149TIP3    H1 3411   6.930   3.824   0.734 -0.7583  3.7220  0.0419
 1149TIP3    H2 3412   6.983   3.820   0.876 -1.5036 -0.0143  0.3192
 1150TIP3   OH2 3413   3.311   5.268   3.988  0.3227  0.1213 -0.1071
 1150TIP3    H1 3414   3.331   5.354   3.952  2.3294 -0.3300 -0.1755
 1150TIP3    H2 3415   3.310   5.281   4.083 -2.1448  0.7251 -0.1395
 1151TIP3   OH2 3416   2.923   4.650   3.808 -0.7012  0.1301 -0.1951
 1151TIP3    H1 3417   2.913   4.558   3.785  0.0988  0.0749 -0.3579
 1151TIP3    H2 3418   2.905   4.653   3.902 -1.8614  0.0046 -0.3986
 1152TIP3   OH2 3419   0.646   2.995   0.907  0.3931  0.2347 -0.4487
 1152TIP3    H1 3420   0.554   2.981   0.930  0.4131  0.4810 -0.2140
 1152TIP3    H2 3421   0.694   2.930   0.959  0.5790  1.7806  1.4308
 1153TIP3   OH2 3422   4.353   0.651   2.459 -0.2857  0.1738  0.0775
 1153TIP3    H1 3423   4.299   0.575   2.435 -1.6411  0.6260  1.5351
 1153TIP3    H2 3424   4.308   0.726   2.421  0.3437  0.3978 -0.2503
 1154TIP3   OH2 3425   0.191   3.071   5.079  0.2583  0.1624  0.5019
 1154TIP3    H1 3426   0.132   3.004   5.114  0.3049  0.6910  1.6175
 1154TIP3    H2 3427   0.259   3.081   5.146  0.6119  0.8615  0.0483
 1155TIP3   OH2 3428   4.347   3.111   1.586 -0.3218  0.0910 -0.4042
 1155TIP3    H1 3429   4.394   3.059   1.521 -0.7380 -0.0369 -0.6068
 1155TIP3    H2 3430   4.338   3.053   1.662  1.1349  0.6094  0.1922
 1156TIP3   OH2 3431   6.436   5.371   5.522 -0.1983  0.3006  0.2580
 1156TIP3    H1 3432   6.458   5.463   5.539  2.3786  0.0073 -0.9836
 1156TIP3    H2 3433   6.461   5.325   5.602 -0.2933  0.5122  0.4108
 1157TIP3   OH2 3434   1.798   0.152   5.867 -0.1160 -0.3624  0.0276
 1157TIP3    H1 3435   1.886   0.186   5.884 -0.6110  0.7656  0.4250
 1157TIP3    H2 3436   1.785   0.086   5.934 -0.3987  1.0227  1.3941
 1158TIP3   OH2 3437   4.300   6.282   1.404  0.2473 -0.1796 -0.0498
 1158TIP3    H1 3438   4.223   6.321   1.447  0.2216 -2.0086  1.7155
 1158TIP3    H2 3439   4.272   6.194   1.380  0.3287  0.6694 -3.8974
 1159TIP3   OH2 3440   0.664   3.695   1.896  0.2173 -0.1906  0.2402
 1159TIP3    H1 3441   0.749   3.684   1.937  0.0020 -2.5816  0.1394
 1159TIP3    H2 3442   0.626   3.772   1.939  2.2368  0.6886  0.5357
 1160TIP3   OH2 3443   1.139   3.298   1.483 -0.4041 -0.5516 -0.0708
 1160TIP3    H1 3444   1.181   3.384   1.472 -1.0875 -0.1115  0.7211
 1160TIP3    H2 3445   1.090   3.305   1.564 -2.4960 -0.8704 -1.2484
 1161TIP3   OH2 3446   3.204   2.794   5.851 -0.4716  0.0858 -0.2473
 1161TIP3    H1 3447   3.294   2.763   5.849 -0.9094 -1.3905  1.0419
 1161TIP3    H2 3448   3.192   2.838   5.766  1.1659 -0.5017 -0.8199
 1162TIP3   OH2 3449   5.033   5.606   1.461  0.3729 -0.1694  0.7693
 1162TIP3    H1 3450   5.095   5.620   1.532 -1.1869  1.2680  1.9404
 1162TIP3    H2 3451   4.997   5.519   1.477 -1.5957  0.9578  3.2159
 1163TIP3   OH2 3452   4.286   3.305   3.707 -0.1781  0.6444  0.3383
 1163TIP3    H1 3453   4.342   3.264   3.773  0.4945 -1.1101 -1.2280
 1163TIP3    H2 3454   4.292   3.399   3.725  4.6852  0.7777 -0.7086
 1164TIP3   OH2 3455   2.525   0.311   3.321  0.2688 -0.1646 -0.0549
 1164TIP3    H1 3456   2.443   0.360   3.327  0.4638  0.3168 -1.0914
 1164TIP3    H2 3457   2.526   0.277   3.231  0.2344 -1.9232  0.5795
 1165TIP3   OH2 3458   0.505   1.335   1.873 -0.8017  0.1136  0.0848
 1165TIP3    H1 3459   0.573   1.274   1.844 -0.7243  1.0981 -1.9509
 1165TIP3    H2 3460   0.552   1.401   1.924 -0.3790  0.1810 -0.3834
 1166TIP3   OH2 3461   5.676   2.428   4.377  0.2154  0.0568  0.0263
 1166TIP3    H1 3462   5.634   2.491   4.436  0.0251 -0.6349  0.6485
 1166TIP3    H2 3463   5.749   2.392   4.427 -0.2102 -0.8575  0.0155
 1167TIP3   OH2 3464   2.377   0.069   3.294 -0.1347  0.1899 -0.7737
 1167TIP3    H1 3465   2.320   0.133   3.250 -0.9110  1.4084  1.7928
 1167TIP3    H2 3466   2.461   0.114   3.304 -0.6222  0.8134  0.8567
 1168TIP3   OH2 3467   2.132   5.404   1.212  0.4425  0.0339 -0.0263
 1168TIP3    H1 3468   2.093   5.330   1.258  0.7756  0.1613  0.4705
 1168TIP3    H2 3469   2.171   5.366   1.133  0.0568 -0.2195 -0.0915
 1169TIP3   OH2 3470   0.169   1.935   4.827  0.2581  0.2873  0.5307
 1169TIP3    H1 3471   0.220   1.855   4.815 -0.2204  0.3942 -3.5089
 1169TIP3    H2 3472   0.119   1.944   4.746  2.0449  5.9007 -0.3709
 1170TIP3   OH2 3473   1.741   4.103   0.427  0.6239 -0.6255  0.0026
 1170TIP3    H1 3474   1.743   4.179   0.369 -0.1149  1.8758  2.9535
 1170TIP3    H2 3475   1.650   4.100   0.459  0.8323 -2.3078  0.5136
 1171TIP3   OH2 3476   2.373   2.778   0.718 -0.7441 -0.4613  0.1752
 1171TIP3    H1 3477   2.411   2.851   0.768 -3.7422  1.4181 -0.0105
 1171TIP3    H2 3478   2.398   2.795   0.628  0.9318 -1.3367  0.4366
 1172TIP3   OH2 3479   2.727   5.203   0.661  0.2656  0.1041 -0.0856
 1172TIP3    H1 3480   2.699   5.275   0.605  0.4876 -0.2654 -0.6833
 1172TIP3    H2 3481   2.802   5.238   0.710 -0.1795  0.5562  0.2902
 1173TIP3   OH2 3482   2.547   6.121   4.872 -0.4106  0.1715  0.2093
 1173TIP3    H1 3483   2.595   6.147   4.950  0.0088 -1.2828  0.4697
 1173TIP3    H2 3484   2.456   6.145   4.891 -0.2985 -0.0942  1.1123
 1174TIP3   OH2 3485   5.632   3.907   1.615 -0.2760 -0.9367 -0.2425
 1174TIP3    H1 3486   5.602   3.977   1.673  0.3745  1.0400 -2.1597
 1174TIP3    H2 3487   5.597   3.827   1.654 -0.1752  0.3040  2.6316
 1175TIP3   OH2 3488   1.605   1.032   3.292 -0.0979  0.0804  0.4805
 1175TIP3    H1 3489   1.622   1.055   3.201 -0.6554 -0.2762  0.2776
 1175TIP3    H2 3490   1.688   0.996   3.324  0.1608  0.4055  0.1803
 1176TIP3   OH2 3491   5.546   5.763   0.883  0.1080 -0.7501  0.3622
 1176TIP3    H1 3492   5.496   5.755   0.964 -0.9751 -2.2535 -0.4127
 1176TIP3    H2 3493   5.490   5.814   0.825  1.2635  1.1203  0.8003
 1177TIP3   OH2 3494   2.884   4.975   5.675 -0.6454 -0.1155  0.1740
 1177TIP3    H1 3495   2.890   5.013   5.588  1.2090  1.4249  0.9166
 1177TIP3    H2 3496   2.827   5.034   5.724  0.7843  0.7903  0.8196
 1178TIP3   OH2 3497   4.434   6.221   3.558  0.1350  0.6941 -0.0060
 1178TIP3    H1 3498   4.421   6.264   3.473 -0.6622  1.1744  0.3455
 1178TIP3    H2 3499   4.528   6.227   3.574  0.7413 -1.6317 -2.0083
 1179TIP3   OH2 3500   6.114   4.461   0.706  0.4412  0.3263  0.0478
 1179TIP3    H1 3501   6.133   4.525   0.775  0.7306  0.2006  0.0867
 1179TIP3    H2 3502   6.200   4.431   0.677  0.2798 -0.8220  0.7388
 1180TIP3   OH2 3503   4.734   1.516   1.303 -0.1556  0.5582  0.2871
 1180TIP3    H1 3504   4.798   1.583   1.329  0.0808  0.8256 -0.8886
 1180TIP3    H2 3505   4.785   1.453   1.251 -0.5877  0.0514  0.4720
 1181TIP3   OH2 3506   3.692   4.707   2.492  0.1850 -0.6903  0.4126
 1181TIP3    H1 3507   3.707   4.657   2.412  0.7841 -0.0589  0.1151
 1181TIP3    H2 3508   3.682   4.641   2.560  1.5388 -1.2241  0.1304
 1182TIP3   OH2 3509   2.877   0.484   5.204 -0.8028  0.3294  0.5940
 1182TIP3    H1 3510   2.920   0.503   5.120 -0.4369 -1.4009  0.3533
 1182TIP3    H2 3511   2.795   0.532   5.200 -1.2063 -0.4176 -1.1631
 1183TIP3   OH2 3512   1.399   0.610   4.122 -0.1568 -0.5100  0.0051
 1183TIP3    H1 3513   1.413   0.533   4.178 -0.4277  0.0345  0.8345
 1183TIP3    H2 3514   1.485   0.629   4.085  0.0419 -0.8313  0.2968
 1184TIP3   OH2 3515   6.406   5.943   5.527 -0.1074 -0.0787  0.0601
 1184TIP3    H1 3516   6.402   5.853   5.558  0.1793  0.5580  2.0609
 1184TIP3    H2 3517   6.494   5.951   5.488  0.6727 -0.1243  1.7321
 1185TIP3   OH2 3518   3.348   0.213   3.320 -0.3192  0.0299  0.0992
 1185TIP3    H1 3519   3.283   0.252   3.378 -0.0805  0.2932  0.1959
 1185TIP3    H2 3520   3.301   0.145   3.272 -0.6672  0.2284  0.1565
 1186TIP3   OH2 3521   6.155   1.185   0.056 -0.1055  0.2053  0.5268
 1186TIP3    H1 3522   6.183   1.096   0.033 -2.2183 -0.2471 -0.5548
 1186TIP3    H2 3523   6.068   1.193   0.017  0.1245  2.8409  0.4071
 1187TIP3   OH2 3524   1.641   2.484   0.599 -0.4225 -0.1284 -0.0538
 1187TIP3    H1 3525   1.581   2.471   0.673  0.4795 -1.0659  0.5383
 1187TIP3    H2 3526   1.683   2.399   0.587  0.7904  0.5065 -0.4394
 1188TIP3   OH2 3527   2.664   4.292   5.807  0.4447 -0.0321 -0.1549
 1188TIP3    H1 3528   2.728   4.361   5.820 -1.1071  2.1266 -2.8419
 1188TIP3    H2 3529   2.681   4.259   5.719 -0.9174 -0.7191 -0.1948
 1189TIP3   OH2 3530   2.419   5.674   2.019 -0.0301  0.4448  0.2280
 1189TIP3    H1 3531   2.375   5.595   2.053  0.5365 -0.4171 -0.9619
 1189TIP3    H2 3532   2.509   5.646   2.002 -0.2978  0.7716 -2.0251
 1190TIP3   OH2 3533   7.041   5.373   1.446  0.1158 -0.3467 -0.6361
 1190TIP3    H1 3534   7.059   5.354   1.354  0.7583 -2.3846 -0.1282
 1190TIP3    H2 3535   6.975   5.308   1.471 -1.4560  1.3602 -0.0963
 1191TIP3   OH2 3536   5.589   1.819   4.346 -0.7569 -0.1272  0.3165
 1191TIP3    H1 3537   5.502   1.831   4.307 -1.1819  0.9783  1.5727
 1191TIP3    H2 3538   5.611   1.903   4.384  0.5060 -0.6380  0.7756
 1192TIP3   OH2 3539   3.864   1.634   4.945 -0.4892 -0.4248 -0.8934
 1192TIP3    H1 3540   3.947   1.618   4.989  0.2077  1.2035 -1.5360
 1192TIP3    H2 3541   3.859   1.565   4.878  0.5440 -0.2930 -1.1216
 1193TIP3   OH2 3542   4.567   4.429   1.997  0.1189 -0.2856 -0.6370
 1193TIP3    H1 3543   4.613   4.348   1.977  0.8303  0.3984 -1.9124
 1193TIP3    H2 3544   4.489   4.401   2.045 -0.0094 -1.7851 -1.6427
 1194TIP3   OH2 3545   2.750   3.071   3.654 -0.2558  0.1945 -1.0311
 1194TIP3    H1 3546   2.815   3.115   3.710  0.4175 -0.4023 -1.3346
 1194TIP3    H2 3547   2.666   3.107   3.683  0.1722  0.6919 -0.3684
 1195TIP3   OH2 3548   2.202   6.459   0.796 -1.0703 -0.0116  0.3633
 1195TIP3    H1 3549   2.212   6.396   0.867  1.1606 -1.2615 -0.9446
 1195TIP3    H2 3550   2.277   6.518   0.805 -1.0949  0.1853 -0.5992
 1196TIP3   OH2 3551   7.116   5.830   4.020 -0.7955  0.0516 -0.1645
 1196TIP3    H1 3552   7.045   5.769   4.002 -1.6459  0.8420  0.4434
 1196TIP3    H2 3553   7.195   5.778   4.010 -1.5090 -1.2209  0.6151
 1197TIP3   OH2 3554   4.147   1.500   4.210  1.0015  0.2919  0.0695
 1197TIP3    H1 3555   4.193   1.449   4.277 -0.1892 -0.2683  0.5065
 1197TIP3    H2 3556   4.172   1.459   4.127  0.1441 -0.9953  0.4058
 1198TIP3   OH2 3557   1.699   0.355   0.694  0.0966  0.5604 -0.3742
 1198TIP3    H1 3558   1.710   0.379   0.786  2.3778 -0.0695 -0.4230
 1198TIP3    H2 3559   1.612   0.315   0.690 -0.1109  0.7438  1.4741
 1199TIP3   OH2 3560   2.439   6.414   0.188  0.5911  0.0040  0.2083
 1199TIP3    H1 3561   2.390   6.423   0.106  1.6275  1.2885 -0.3088
 1199TIP3    H2 3562   2.374   6.385   0.252 -0.3881 -0.3301 -0.9023
 1200TIP3   OH2 3563   4.796  -0.005   2.494 -1.2071  0.1656 -0.4703
 1200TIP3    H1 3564   4.857   0.013   2.422  0.1808 -1.7392  0.1554
 1200TIP3    H2 3565   4.763   0.082   2.519  0.5852  1.1842 -1.4157
 1201TIP3   OH2 3566   5.773   4.209   2.611  0.0850  0.2034 -0.1960
 1201TIP3    H1 3567   5.714   4.184   2.539  0.4602 -2.4657  0.3120
 1201TIP3    H2 3568   5.742   4.158   2.686  1.4509  0.7466  0.7750
 1202TIP3   OH2 3569   5.776   6.408   3.188  0.8783  0.0030  0.3859
 1202TIP3    H1 3570   5.806   6.335   3.242 -0.9899 -0.6165  0.6830
 1202TIP3    H2 3571   5.764   6.370   3.101  0.3565  0.0520  0.4307
 1203TIP3   OH2 3572   0.705   5.541   0.627 -0.1517 -0.0013  0.4542
 1203TIP3    H1 3573   0.614   5.536   0.656  0.1787  0.3718  1.5672
 1203TIP3    H2 3574   0.743   5.614   0.676  0.7236 -0.0702 -0.0896
 1204TIP3   OH2 3575   2.800   0.495   1.742  0.0646  0.0546 -0.3432
 1204TIP3    H1 3576   2.819   0.410   1.703  1.6559 -0.0209  0.5085
 1204TIP3    H2 3577   2.885   0.536   1.752 -0.3556  0.4997  2.0102
 1205TIP3   OH2 3578   0.898   6.516   1.721  0.0649  0.2447 -0.4365
 1205TIP3    H1 3579   0.810   6.511   1.683 -0.2453 -2.2924  0.4386
 1205TIP3    H2 3580   0.956   6.491   1.650 -0.1856 -0.6615 -0.3421
 1206TIP3   OH2 3581   6.048   5.163   1.515 -0.4070  0.2471  0.1016
 1206TIP3    H1 3582   6.084   5.107   1.583  0.9069 -1.3477 -1.7858
 1206TIP3    H2 3583   6.124   5.204   1.473 -1.0981  0.5536 -0.9183
 1207TIP3   OH2 3584   1.731   6.424   2.171  0.6018  0.6201  0.0087
 1207TIP3    H1 3585   1.675   6.347   2.160  0.2542  0.8967 -0.1464
 1207TIP3    H2 3586   1.719   6.475   2.091  1.6589  0.3114 -0.3619
 1208TIP3   OH2 3587   3.052   5.205   3.884 -0.4823 -0.2415  0.7997
 1208TIP3    H1 3588   3.006   5.135   3.931  1.2739 -0.8057  1.8063
 1208TIP3    H2 3589   3.130   5.221   3.938 -0.2520  1.6738 -0.0576
 1209TIP3   OH2 3590   7.217   5.353   4.351  0.2192  0.1191 -0.3330
 1209TIP3    H1 3591   7.132   5.365   4.309 -0.5439 -0.2565  1.0267
 1209TIP3    H2 3592   7.245   5.442   4.373 -1.7069  0.1254  2.6749
 1210TIP3   OH2 3593   4.366   4.391   1.265  0.0197  0.2491  0.4283
 1210TIP3    H1 3594   4.438   4.455   1.264  0.1089  0.1477  0.2545
 1210TIP3    H2 3595   4.296   4.435   1.217  0.1993  0.0854  0.0028
 1211TIP3   OH2 3596   3.253   0.367   1.542 -0.0849 -0.0609  0.5364
 1211TIP3    H1 3597   3.212   0.285   1.570 -0.1274  0.4907  2.2051
 1211TIP3    H2 3598   3.331   0.375   1.598 -0.5175  1.4256  0.9578
 1212TIP3   OH2 3599   2.746   3.950   1.344  0.3533 -0.5436  0.4101
 1212TIP3    H1 3600   2.710   3.928   1.430  1.8118 -1.6466  0.7903
 1212TIP3    H2 3601   2.818   4.010   1.362  0.1002 -0.0651 -0.1333
 1213TIP3   OH2 3602   0.190   1.429   1.182 -0.5621 -0.0990 -0.0517
 1213TIP3    H1 3603   0.273   1.450   1.139  0.9182 -0.3660  2.4454
 1213TIP3    H2 3604   0.201   1.461   1.272 -1.8598 -2.9588  1.2715
 1214TIP3   OH2 3605   5.334   0.822   0.507  0.1500  0.2775  0.0776
 1214TIP3    H1 3606   5.322   0.742   0.456 -1.6968  0.5485  0.0126
 1214TIP3    H2 3607   5.264   0.880   0.477  1.7019  2.1170 -0.1907
 1215TIP3   OH2 3608   1.564   6.360   3.165  0.3063  0.3450 -0.5940
 1215TIP3    H1 3609   1.614   6.441   3.155 -0.8929  1.1548 -0.2775
 1215TIP3    H2 3610   1.520   6.348   3.081 -0.0891  0.4275 -0.4017
 1216TIP3   OH2 3611   5.658   6.485   0.257 -0.8032 -0.0411 -0.0321
 1216TIP3    H1 3612   5.623   6.534   0.183 -0.8357 -0.1588 -0.0950
 1216TIP3    H2 3613   5.707   6.550   0.308 -1.1415  0.1320  0.0742
 1217TIP3   OH2 3614   2.331   2.608   2.587 -0.0685  0.2265 -0.3096
 1217TIP3    H1 3615   2.324   2.683   2.527  1.8958 -0.0571 -0.9651
 1217TIP3    H2 3616   2.342   2.648   2.673 -0.6096  0.6625 -0.4338
 1218TIP3   OH2 3617   4.843   6.166   0.495 -0.9578  0.6556  0.1215
 1218TIP3    H1 3618   4.791   6.089   0.518 -1.2203  1.2340  1.5753
 1218TIP3    H2 3619   4.781   6.225   0.453 -0.9934  0.5095 -0.0340
 1219TIP3   OH2 3620   2.530   2.878   4.414  0.5355  0.1586  0.0111
 1219TIP3    H1 3621   2.479   2.798   4.431 -0.3436  0.5946 -0.4741
 1219TIP3    H2 3622   2.589   2.854   4.343 -0.1364  0.1007 -0.5362
 1220TIP3   OH2 3623   3.745   3.855   5.404 -0.3412 -0.3229  0.1878
 1220TIP3    H1 3624   3.732   3.879   5.313  1.5350 -0.2863 -0.1063
 1220TIP3    H2 3625   3.838   3.836   5.411  0.1527  2.2198  2.6377
 1221TIP3   OH2 3626   2.341   0.656   5.059 -0.0699 -0.0127 -0.2681
 1221TIP3    H1 3627   2.374   0.567   5.053  0.2399  0.1133 -0.4797
 1221TIP3    H2 3628   2.360   0.684   5.148  2.6469  0.9076 -1.0383
 1222TIP3   OH2 3629   2.022   4.699   5.369  0.3644 -0.5026  0.1868
 1222TIP3    H1 3630   1.955   4.657   5.314 -0.7247 -0.2363  1.2673
 1222TIP3    H2 3631   2.031   4.787   5.332 -0.3170 -0.3428  0.3838
 1223TIP3   OH2 3632   5.355   1.272   5.817 -0.2233 -0.5036  0.7080
 1223TIP3    H1 3633   5.414   1.347   5.817  0.3762 -0.9039 -1.2288
 1223TIP3    H2 3634   5.406   1.201   5.778 -1.9164 -0.8838 -0.9665
 1224TIP3   OH2 3635   3.181   3.346   1.729 -0.2065  0.6172 -0.4061
 1224TIP3    H1 3636   3.106   3.405   1.724 -1.5317 -1.0314 -0.9697
 1224TIP3    H2 3637   3.228   3.359   1.646 -1.6862 -0.5747 -1.4900
 1225TIP3   OH2 3638   2.995   3.996   4.379  0.3169  0.1408  0.4893
 1225TIP3    H1 3639   3.031   3.967   4.462 -2.2102 -0.4017  1.4779
 1225TIP3    H2 3640   2.946   4.075   4.399 -0.4112 -0.0453 -0.4337
 1226TIP3   OH2 3641   2.584   2.399   4.246  0.0250  0.0909  0.2045
 1226TIP3    H1 3642   2.496   2.361   4.236 -0.0304 -0.4061  2.2762
 1226TIP3    H2 3643   2.585   2.471   4.183 -1.3489 -0.7647 -0.8844
 1227TIP3   OH2 3644   7.031   2.176   2.643  0.2696 -0.1292 -0.3379
 1227TIP3    H1 3645   6.954   2.230   2.625  0.3489 -0.0371 -0.4081
 1227TIP3    H2 3646   7.038   2.174   2.739  1.2733  1.4487 -0.3429
 1228TIP3   OH2 3647   6.088   4.534   2.683  0.0521  0.7455 -0.4376
 1228TIP3    H1 3648   6.116   4.451   2.646 -0.2833  0.7581 -0.7241
 1228TIP3    H2 3649   6.076   4.516   2.777  0.0033  0.4810 -0.4946
 1229TIP3   OH2 3650   6.860   0.131   0.937  0.3646 -0.3356  0.7050
 1229TIP3    H1 3651   6.852   0.224   0.954 -0.6104 -0.3960  0.6424
 1229TIP3    H2 3652   6.838   0.089   1.020  3.3291 -0.5047  1.5372
 1230TIP3   OH2 3653   3.476   1.542   5.021  0.5516  0.3449  0.0200
 1230TIP3    H1 3654   3.410   1.490   4.976 -0.9237  0.5388  1.8157
 1230TIP3    H2 3655   3.437   1.630   5.026  0.1355  0.0917  2.5267
 1231TIP3   OH2 3656   6.886   1.375   0.275  0.2937  0.0126 -0.4096
 1231TIP3    H1 3657   6.854   1.359   0.363  1.3263 -1.3956 -0.2514
 1231TIP3    H2 3658   6.954   1.309   0.262  1.3170  1.2504 -1.6516
 1232TIP3   OH2 3659   0.891   1.828   4.633  0.1600 -0.0625  0.3872
 1232TIP3    H1 3660   0.949   1.829   4.709 -1.3530  0.9577  1.5832
 1232TIP3    H2 3661   0.815   1.879   4.660 -0.1781  0.8610 -2.0364
 1233TIP3   OH2 3662   2.617   3.036   1.623 -0.5567  0.1491  0.4603
 1233TIP3    H1 3663   2.673   3.039   1.545  0.4320  0.4642  1.1680
 1233TIP3    H2 3664   2.554   2.967   1.604 -1.5219  1.4201 -1.4115
 1234TIP3   OH2 3665   5.594   3.762   4.981  0.3820  0.2854 -0.4288
 1234TIP3    H1 3666   5.572   3.671   4.964 -1.0733  0.1938  1.5387
 1234TIP3    H2 3667   5.536   3.812   4.924  0.8286 -0.0006 -1.1432
 1235TIP3   OH2 3668   3.329   0.855   1.312  0.0371 -0.1681 -0.2238
 1235TIP3    H1 3669   3.332   0.784   1.376 -0.5696  2.2704  2.7388
 1235TIP3    H2 3670   3.236   0.860   1.287  0.2078 -0.8591 -1.0472
 1236TIP3   OH2 3671   6.963   2.492   0.855 -0.1290 -0.3802 -0.2128
 1236TIP3    H1 3672   6.991   2.573   0.898 -1.0398  0.5709 -1.3370
 1236TIP3    H2 3673   6.941   2.519   0.766 -2.4806 -1.4617 -0.0113
 1237TIP3   OH2 3674   0.945   2.729   0.462  0.4187  0.0027 -0.6498
 1237TIP3    H1 3675   1.001   2.712   0.537 -1.6341  0.1209  1.0124
 1237TIP3    H2 3676   0.915   2.819   0.475 -0.2755 -0.1085 -1.4071
 1238TIP3   OH2 3677   4.457   2.954   1.397 -0.0755 -0.2771 -0.6493
 1238TIP3    H1 3678   4.475   2.861   1.386 -1.6377 -0.5567 -1.0550
 1238TIP3    H2 3679   4.418   2.982   1.314  0.6298  0.8124 -0.6404
 1239TIP3   OH2 3680   6.252   1.322   1.028 -0.7186 -0.6481  0.9023
 1239TIP3    H1 3681   6.341   1.354   1.044 -1.2273  0.5708  1.3456
 1239TIP3    H2 3682   6.236   1.259   1.099 -0.8008  0.3575  1.7931
 1240TIP3   OH2 3683   4.376   4.783   2.692 -0.2606 -0.2640 -0.7885
 1240TIP3    H1 3684   4.331   4.782   2.608 -0.3812 -1.5138 -0.7334
 1240TIP3    H2 3685   4.306   4.782   2.757 -0.1817 -1.0782 -0.6986
 1241TIP3   OH2 3686   3.305   2.239   2.171  0.0938  0.1727  0.2562
 1241TIP3    H1 3687   3.354   2.157   2.164  4.1188  2.4011 -1.1162
 1241TIP3    H2 3688   3.215   2.215   2.150  0.8332 -3.9825  0.9241
 1242TIP3   OH2 3689   5.753   0.503   4.394 -0.4205  0.1181  0.3910
 1242TIP3    H1 3690   5.788   0.418   4.421 -0.6542  0.3725  1.5345
 1242TIP3    H2 3691   5.806   0.567   4.441  0.0633  0.6344 -0.8227
 1243TIP3   OH2 3692   5.999   4.479   2.970  0.0185 -0.3465 -0.2434
 1243TIP3    H1 3693   6.066   4.429   3.016  0.5381  0.8266  0.3375
 1243TIP3    H2 3694   5.916   4.439   2.996  0.5026 -2.7228 -2.0819
 1244TIP3   OH2 3695   2.884   3.850   5.246  0.1232 -0.0135 -0.2401
 1244TIP3    H1 3696   2.829   3.797   5.304 -1.5159  1.6147 -0.1968
 1244TIP3    H2 3697   2.973   3.838   5.278 -0.2577 -2.1973  0.1392
 1245TIP3   OH2 3698   4.619   0.805   4.501 -0.4105 -0.1403 -0.2691
 1245TIP3    H1 3699   4.572   0.783   4.420 -1.0246 -0.5760  0.1882
 1245TIP3    H2 3700   4.550   0.831   4.562  0.0778  0.5139  0.0178
 1246TIP3   OH2 3701   3.495   5.057   3.383 -0.2315  0.8388  0.5813
 1246TIP3    H1 3702   3.434   4.994   3.344 -1.9772  2.7436  0.0199
 1246TIP3    H2 3703   3.528   5.014   3.461 -1.9843 -0.4696  0.6599
 1247TIP3   OH2 3704   4.393   1.385   5.573 -0.6280 -0.2681  0.0836
 1247TIP3    H1 3705   4.449   1.321   5.530  1.3408  0.5273  1.3354
 1247TIP3    H2 3706   4.381   1.454   5.508 -2.5384 -1.6939 -1.1760
 1248TIP3   OH2 3707   3.253   5.883   5.383 -0.1817  0.0046  0.2713
 1248TIP3    H1 3708   3.183   5.925   5.333 -0.6088 -2.0700 -0.9793
 1248TIP3    H2 3709   3.331   5.893   5.328 -0.3093 -0.8819 -0.0861
 1249TIP3   OH2 3710   5.834   0.969   0.849 -0.3683 -0.8253  0.0307
 1249TIP3    H1 3711   5.800   1.037   0.790  0.0128 -0.4556  0.2281
 1249TIP3    H2 3712   5.898   1.015   0.903  0.8224 -1.6063 -0.6644
 1250TIP3   OH2 3713   5.296   3.083   1.197 -0.1688 -0.0209  0.3403
 1250TIP3    H1 3714   5.293   3.164   1.146 -2.7006 -0.4372 -0.3224
 1250TIP3    H2 3715   5.382   3.045   1.177  0.2239  1.4590 -0.9988
 1251TIP3   OH2 3716   3.213   4.252   1.203 -0.0121 -0.1631 -0.2388
 1251TIP3    H1 3717   3.143   4.306   1.239  0.3400  0.0416  0.1409
 1251TIP3    H2 3718   3.260   4.218   1.280  0.4510 -0.1075 -0.4916
 1252TIP3   OH2 3719   1.581   2.195   0.019 -0.2791 -0.1744  0.1851
 1252TIP3    H1 3720   1.569   2.105   0.051 -0.9085 -0.1377  0.0685
 1252TIP3    H2 3721   1.497   2.217  -0.020 -0.2405  0.5980  0.5309
 1253TIP3   OH2 3722   1.293   3.999   3.114  0.0524 -0.7617 -0.2694
 1253TIP3    H1 3723   1.261   4.055   3.184  2.3102  0.7249 -0.3330
 1253TIP3    H2 3724   1.280   4.050   3.034 -1.0388 -1.7907 -0.7848
 1254TIP3   OH2 3725   4.456   0.451   3.192  0.2316 -0.1621 -0.2663
 1254TIP3    H1 3726   4.378   0.404   3.161 -0.4882  0.4301  0.5672
 1254TIP3    H2 3727   4.479   0.510   3.121  0.6472 -1.1771 -0.9947
 1255TIP3   OH2 3728   1.431   3.630   4.499  0.0050 -0.1519  0.5184
 1255TIP3    H1 3729   1.341   3.603   4.478  0.6655 -1.0968 -1.2403
 1255TIP3    H2 3730   1.485   3.557   4.472  1.3654  0.5950  1.1344
 1256TIP3   OH2 3731   1.963   4.324   0.066  0.1822 -0.3859 -0.7416
 1256TIP3    H1 3732   1.943   4.237   0.034 -1.5503 -0.9266  1.6041
 1256TIP3    H2 3733   1.998   4.310   0.154  4.2166  1.0580 -1.8910
 1257TIP3   OH2 3734   6.873   0.940   1.129 -0.0979 -0.2284  0.7549
 1257TIP3    H1 3735   6.880   0.885   1.207 -0.8264 -1.1415  0.2065
 1257TIP3    H2 3736   6.962   0.972   1.113  0.1337 -0.3776  1.7004
 1258TIP3   OH2 3737   5.087   4.638   0.684  0.0460 -0.1506  0.1864
 1258TIP3    H1 3738   5.020   4.639   0.615  0.6651 -2.2497 -0.5323
 1258TIP3    H2 3739   5.043   4.597   0.759 -0.2499  0.9584  0.6301
 1259TIP3   OH2 3740   0.845   6.360   3.652 -0.1377  0.5092  0.2203
 1259TIP3    H1 3741   0.820   6.278   3.696  1.9786 -0.7226 -0.6970
 1259TIP3    H2 3742   0.864   6.421   3.724  0.4124 -0.5242  0.9826
 1260TIP3   OH2 3743   4.984   5.565   2.232 -0.2378 -0.0943  0.2366
 1260TIP3    H1 3744   4.891   5.544   2.228  0.0055 -1.1026 -0.7066
 1260TIP3    H2 3745   5.012   5.537   2.319 -0.8339  0.3642  0.5838
 1261TIP3   OH2 3746   6.401   4.185   0.701  0.3153  0.1243  0.0954
 1261TIP3    H1 3747   6.395   4.252   0.632  0.5462  0.0147 -0.0346
 1261TIP3    H2 3748   6.452   4.227   0.770 -0.5106  0.4802  0.5023
 1262TIP3   OH2 3749   2.531   4.452   4.690  0.0403  0.1639  1.1187
 1262TIP3    H1 3750   2.488   4.369   4.710  2.3606 -0.8552  2.3019
 1262TIP3    H2 3751   2.477   4.518   4.732 -2.1107 -0.6219 -0.2281
 1263TIP3   OH2 3752   6.340   4.297   5.497  0.5427 -0.0915  0.0246
 1263TIP3    H1 3753   6.341   4.383   5.454  1.0928 -0.3118 -0.4074
 1263TIP3    H2 3754   6.251   4.289   5.532 -0.0375 -0.0570 -1.3752
 1264TIP3   OH2 3755   6.476   5.152   0.328 -0.3837 -0.1045  0.0532
 1264TIP3    H1 3756   6.558   5.187   0.294 -0.1787 -1.0422 -0.4469
 1264TIP3    H2 3757   6.499   5.066   0.362 -0.5940  0.7296  2.5349
 1265TIP3   OH2 3758   4.176   2.754   2.295  0.2213  0.3028  0.3886
 1265TIP3    H1 3759   4.246   2.689   2.305 -0.4260 -0.2189  1.8268
 1265TIP3    H2 3760   4.101   2.703   2.265 -0.0342  0.5342  0.6272
 1266TIP3   OH2 3761   1.529   4.324   5.159  0.1546  0.1678  0.4761
 1266TIP3    H1 3762   1.455   4.364   5.202 -1.2362 -1.3336 -0.3880
 1266TIP3    H2 3763   1.518   4.346   5.066  2.3223  2.1855  0.6190
 1267TIP3   OH2 3764   4.266   4.515   0.976  0.4250 -0.4108 -0.2766
 1267TIP3    H1 3765   4.252   4.421   0.988 -0.7755 -0.3929 -1.3634
 1267TIP3    H2 3766   4.181   4.548   0.950  1.0806  0.8292 -0.8993
 1268TIP3   OH2 3767   1.648   2.182   3.875  0.2974 -0.2715  0.0241
 1268TIP3    H1 3768   1.626   2.172   3.782 -0.3459  0.5139  0.0743
 1268TIP3    H2 3769   1.743   2.171   3.878  0.1806 -1.6117 -0.5251
 1269TIP3   OH2 3770   6.227   1.941   0.601  0.3232 -0.2848  0.1194
 1269TIP3    H1 3771   6.320   1.962   0.591  0.4926 -1.0237  0.0834
 1269TIP3    H2 3772   6.207   1.885   0.526 -0.0960 -0.3077  0.2471
 1270TIP3   OH2 3773   1.806   1.650   4.160  0.4378  0.0091 -0.4064
 1270TIP3    H1 3774   1.868   1.709   4.203 -0.0822  0.5672 -0.3992
 1270TIP3    H2 3775   1.786   1.584   4.225 -0.2522  0.7799  0.1856
 1271TIP3   OH2 3776   5.278   0.023   1.537  0.1784  0.1460 -0.0947
 1271TIP3    H1 3777   5.238   0.015   1.623  0.6685 -0.4921  0.0783
 1271TIP3    H2 3778   5.223  -0.032   1.480 -0.4562  0.9806 -0.3087
 1272TIP3   OH2 3779   1.071   5.538   3.180  0.1535  0.1001  0.4441
 1272TIP3    H1 3780   1.144   5.589   3.215  1.8477 -1.3707 -0.7586
 1272TIP3    H2 3781   1.088   5.448   3.209 -0.4400 -0.4919 -0.9455
 1273TIP3   OH2 3782   4.831   3.012   5.853 -0.2494 -0.0115  0.5060
 1273TIP3    H1 3783   4.852   2.919   5.848 -0.9209 -0.1641  0.4048
 1273TIP3    H2 3784   4.892   3.054   5.792  0.0996 -0.3722  0.6025
 1274TIP3   OH2 3785   2.326   0.897   4.126 -0.1206  0.0073 -0.4546
 1274TIP3    H1 3786   2.361   0.813   4.096  0.3707  0.5546 -1.4727
 1274TIP3    H2 3787   2.397   0.959   4.112  0.8936  0.0709  3.6687
 1275TIP3   OH2 3788   3.626   5.514   4.903  0.2977 -0.0494  0.4253
 1275TIP3    H1 3789   3.660   5.493   4.816 -0.2136 -1.4791  0.5409
 1275TIP3    H2 3790   3.535   5.537   4.889  0.7119  1.6744  0.3725
 1276TIP3   OH2 3791   6.329   3.959   1.888  0.5127  0.0086  0.4804
 1276TIP3    H1 3792   6.295   4.023   1.826 -0.3231 -0.5929  0.3008
 1276TIP3    H2 3793   6.260   3.950   1.954  1.9646  1.7346  2.3796
 1277TIP3   OH2 3794   1.383   0.702   4.501  0.3213  0.3933 -0.2801
 1277TIP3    H1 3795   1.294   0.667   4.496  0.5673 -0.1480 -0.9307
 1277TIP3    H2 3796   1.371   0.790   4.537 -0.4474  0.2211 -0.0819
 1278TIP3   OH2 3797   0.869   2.938   1.327  0.0751  0.3153 -0.1961
 1278TIP3    H1 3798   0.797   2.972   1.379  0.3010  1.0139 -0.3177
 1278TIP3    H2 3799   0.885   2.850   1.360 -1.1490 -0.0293 -0.5039
 1279TIP3   OH2 3800   0.076   6.063   1.400 -0.0464  0.6000 -0.1242
 1279TIP3    H1 3801   0.083   6.075   1.306  1.5567  0.4601 -0.0502
 1279TIP3    H2 3802   0.134   5.990   1.420 -0.8876  0.1834  0.8899
 1280TIP3   OH2 3803   1.601   6.618   2.980 -0.2912 -0.2529 -0.2725
 1280TIP3    H1 3804   1.511   6.650   2.971 -0.1316  0.3014  0.1343
 1280TIP3    H2 3805   1.618   6.575   2.896 -0.6446  0.3655 -0.6691
 1281TIP3   OH2 3806   3.012   6.685   5.475 -0.1941 -0.5850 -0.0886
 1281TIP3    H1 3807   3.075   6.613   5.470  0.4486  0.0234 -1.6671
 1281TIP3    H2 3808   3.039   6.736   5.551 -0.1204 -1.5258  0.5256
 1282TIP3   OH2 3809   4.202   3.812   4.543 -0.6136 -0.0114 -0.3171
 1282TIP3    H1 3810   4.123   3.864   4.561 -1.8572 -2.5066  2.2510
 1282TIP3    H2 3811   4.261   3.831   4.616 -0.3300 -0.7980 -0.3272
 1283TIP3   OH2 3812   0.072   0.126   5.227  1.0853  0.5807  0.1312
 1283TIP3    H1 3813   0.073   0.034   5.255 -1.9696 -0.2499 -1.9743
 1283TIP3    H2 3814   0.071   0.176   5.308 -3.1110 -1.4977  1.6819
 1284TIP3   OH2 3815   1.762   3.717   5.296  0.2802  0.1663  0.0951
 1284TIP3    H1 3816   1.693   3.780   5.274 -0.1777  0.0764  1.2331
 1284TIP3    H2 3817   1.730   3.633   5.264 -0.0306  0.1651  0.4108
 1285TIP3   OH2 3818   0.828   2.289   4.617 -0.2720 -0.4513  0.3954
 1285TIP3    H1 3819   0.918   2.259   4.614  0.1328  0.6985  0.2833
 1285TIP3    H2 3820   0.796   2.263   4.704  0.0282 -1.2204  0.2746
 1286TIP3   OH2 3821   2.868   2.992   1.125 -0.1484 -0.1994 -0.2551
 1286TIP3    H1 3822   2.775   2.985   1.107 -0.1332  0.5491 -0.6839
 1286TIP3    H2 3823   2.899   2.902   1.131 -0.7401 -0.4585 -0.9511
 1287TIP3   OH2 3824   5.221   5.319   1.271 -0.0919 -0.1031 -0.1681
 1287TIP3    H1 3825   5.199   5.321   1.364  1.1094  2.4181  0.1557
 1287TIP3    H2 3826   5.312   5.350   1.268  0.4549 -1.7018 -2.0901
 1288TIP3   OH2 3827   2.123   6.436   3.733  0.1214 -0.1699 -0.2349
 1288TIP3    H1 3828   2.090   6.372   3.796  2.5479 -0.2969  1.0230
 1288TIP3    H2 3829   2.105   6.397   3.647 -1.4986 -0.8849  0.3852
 1289TIP3   OH2 3830   3.374   0.014   1.426  0.3154 -0.0187 -0.2399
 1289TIP3    H1 3831   3.402   0.105   1.421  2.1537 -0.3967  1.5058
 1289TIP3    H2 3832   3.332   0.006   1.512  1.9347 -1.1859  0.4980
 1290TIP3   OH2 3833   6.788   0.778   4.119  0.1931 -0.2595  0.1429
 1290TIP3    H1 3834   6.799   0.686   4.097  1.0218 -0.3117  0.7288
 1290TIP3    H2 3835   6.850   0.794   4.190 -0.5782  0.5358  0.6642
 1291TIP3   OH2 3836   3.130   0.219   4.594 -0.3023 -0.0125 -0.0605
 1291TIP3    H1 3837   3.159   0.134   4.560 -0.3501 -0.5259  1.1580
 1291TIP3    H2 3838   3.072   0.253   4.525  0.2628 -0.6353 -0.8724
 1292TIP3   OH2 3839   5.573   0.683   3.782 -0.4967  0.2031 -0.2271
 1292TIP3    H1 3840   5.532   0.687   3.869 -1.5182 -2.6219 -0.4686
 1292TIP3    H2 3841   5.659   0.644   3.798 -0.1476  0.9059 -0.3590
 1293TIP3   OH2 3842   2.267   2.934   5.766  0.1827  0.3425 -0.7918
 1293TIP3    H1 3843   2.202   2.970   5.826  1.1578 -0.2688  0.6966
 1293TIP3    H2 3844   2.217   2.903   5.691 -1.2261  0.0307  0.2357
 1294TIP3   OH2 3845   1.091   4.370   0.414 -0.1278  0.1356 -0.1068
 1294TIP3    H1 3846   1.023   4.346   0.477  0.1550  0.6515  0.3961
 1294TIP3    H2 3847   1.145   4.434   0.459  0.2687  0.2755 -0.7621
 1295TIP3   OH2 3848   5.573   0.742   0.650  0.0529 -0.5153  0.6417
 1295TIP3    H1 3849   5.573   0.785   0.735 -0.1796  0.3453  0.2161
 1295TIP3    H2 3850   5.516   0.796   0.595 -0.2229 -1.3465  0.0809
 1296TIP3   OH2 3851   1.183   1.371   4.373 -0.1838 -0.1493 -0.6097
 1296TIP3    H1 3852   1.208   1.280   4.388 -0.0942  0.1835  1.6057
 1296TIP3    H2 3853   1.262   1.422   4.390 -0.5016  0.4207 -0.7824
 1297TIP3   OH2 3854   3.156   0.942   3.206 -0.3886  0.2741 -0.3012
 1297TIP3    H1 3855   3.090   0.880   3.176 -1.2428  1.0406 -0.0684
 1297TIP3    H2 3856   3.233   0.889   3.225 -1.5407 -0.9455  1.3092
 1298TIP3   OH2 3857   1.953   3.045   2.136  0.3439  0.2938  0.0647
 1298TIP3    H1 3858   1.912   3.094   2.064 -0.8865  0.9089  1.1307
 1298TIP3    H2 3859   2.031   3.096   2.157 -0.3485  1.2349  0.4502
 1299TIP3   OH2 3860   5.810   5.858   4.714 -0.2719 -0.2451 -0.0715
 1299TIP3    H1 3861   5.840   5.893   4.798 -1.6087  1.7452 -0.3567
 1299TIP3    H2 3862   5.870   5.897   4.649  0.8853 -1.9350 -0.0883
 1300TIP3   OH2 3863   5.857   3.872   1.269 -0.1911  0.0605 -0.0131
 1300TIP3    H1 3864   5.797   3.931   1.315  0.8148  1.6975 -0.6833
 1300TIP3    H2 3865   5.804   3.832   1.201 -0.2833  2.6296 -1.5837
 1301TIP3   OH2 3866   1.948   0.589   1.435 -0.0106  0.0022  0.0404
 1301TIP3    H1 3867   1.914   0.552   1.353 -1.4412 -2.4409  1.6140
 1301TIP3    H2 3868   2.022   0.533   1.458  0.2795  0.5746  0.5204
 1302TIP3   OH2 3869   2.640   1.608   5.376 -0.2299 -0.6447 -0.5549
 1302TIP3    H1 3870   2.588   1.648   5.446 -0.2805  0.1318 -1.0286
 1302TIP3    H2 3871   2.655   1.518   5.406  0.3885 -0.1130  0.8037
 1303TIP3   OH2 3872   0.600   3.834   5.571 -0.2249  0.8769 -0.2623
 1303TIP3    H1 3873   0.601   3.903   5.637 -0.9479  0.8687 -0.2393
 1303TIP3    H2 3874   0.673   3.857   5.513  0.4806  0.8317  0.5756
 1304TIP3   OH2 3875   5.959   3.433   0.239 -0.1817 -0.2421 -0.6701
 1304TIP3    H1 3876   5.928   3.343   0.250  1.1141 -0.7098 -0.5636
 1304TIP3    H2 3877   5.904   3.484   0.298 -0.6305 -1.0385 -0.3737
 1305TIP3   OH2 3878   4.512   4.040   2.006  0.0987  0.4178  0.7215
 1305TIP3    H1 3879   4.435   3.986   1.987 -1.4031  2.0299  1.8548
 1305TIP3    H2 3880   4.488   4.088   2.086  2.0401  1.4605  0.7316
 1306TIP3   OH2 3881   4.770   0.051   4.799  0.1945  0.4704 -0.0933
 1306TIP3    H1 3882   4.726   0.011   4.874 -0.1623  0.7665 -0.1384
 1306TIP3    H2 3883   4.833  -0.015   4.769 -0.0083  0.1604  0.1624
 1307TIP3   OH2 3884   6.517   2.960   3.012  0.0021 -0.0333  0.9947
 1307TIP3    H1 3885   6.429   2.993   2.996 -0.2316 -0.1886  1.9556
 1307TIP3    H2 3886   6.506   2.867   3.029  0.6575 -0.6904 -1.6560
 1308TIP3   OH2 3887   3.291   4.274   3.964  0.0257  0.5348  0.3356
 1308TIP3    H1 3888   3.217   4.232   4.008 -0.8427  1.2615 -0.3705
 1308TIP3    H2 3889   3.336   4.203   3.918 -0.2846  0.1027  0.6883
 1309TIP3   OH2 3890   3.908   6.070   3.454  0.3680  0.0231  0.2803
 1309TIP3    H1 3891   3.916   6.027   3.369 -0.8424 -0.4154  0.3666
 1309TIP3    H2 3892   3.927   6.162   3.437 -0.2064 -0.0022 -0.5396
 1310TIP3   OH2 3893   5.099   1.453   3.360  0.2707  0.4583 -0.2717
 1310TIP3    H1 3894   5.087   1.364   3.326 -1.5170  0.9346 -0.9926
 1310TIP3    H2 3895   5.146   1.498   3.290 -1.0422  0.7173 -1.0248
 1311TIP3   OH2 3896   6.525   1.420   2.905 -0.1646 -0.2648  0.0848
 1311TIP3    H1 3897   6.502   1.332   2.933  1.4351 -0.0707  2.2961
 1311TIP3    H2 3898   6.456   1.476   2.941 -0.2168 -0.4341  0.2467
 1312TIP3   OH2 3899   5.756   5.505   1.120  0.2531  0.1728  0.1963
 1312TIP3    H1 3900   5.829   5.508   1.182  0.7923  0.1500 -0.4295
 1312TIP3    H2 3901   5.679   5.526   1.172  0.7043  0.1714  0.8701
 1313TIP3   OH2 3902   3.863   1.954   1.019  0.0230  0.5041 -0.3205
 1313TIP3    H1 3903   3.941   1.901   1.035  0.8412  1.9656  0.7454
 1313TIP3    H2 3904   3.879   1.994   0.934  0.8227  1.4111  0.2406
 1314TIP3   OH2 3905   7.002   1.735   2.936 -0.5288  0.2775  0.2076
 1314TIP3    H1 3906   7.012   1.725   3.031  0.6000  0.5673  0.1294
 1314TIP3    H2 3907   6.940   1.807   2.926 -0.8201  0.1087  0.7137
 1315TIP3   OH2 3908   0.590   3.328   3.139  0.1149 -1.0749  0.0153
 1315TIP3    H1 3909   0.584   3.422   3.151 -1.2491 -1.1862  0.3346
 1315TIP3    H2 3910   0.664   3.301   3.195  0.7426 -0.1736 -0.3609
 1316TIP3   OH2 3911   1.998   3.749   1.208 -0.3984  0.3578 -0.0699
 1316TIP3    H1 3912   2.079   3.704   1.184 -0.7555 -0.0018 -0.6075
 1316TIP3    H2 3913   1.966   3.787   1.126 -1.3330 -0.4030 -0.0765
 1317TIP3   OH2 3914   2.982   3.826   1.704 -0.5656  0.1559 -0.6015
 1317TIP3    H1 3915   3.017   3.915   1.709 -0.1685  0.0722 -1.5550
 1317TIP3    H2 3916   3.019   3.791   1.623 -0.7683 -0.8593 -0.2669
 1318TIP3   OH2 3917   1.601   4.307   4.486  0.1846 -0.0003 -0.3300
 1318TIP3    H1 3918   1.630   4.339   4.572  0.0795 -0.4500 -0.1264
 1318TIP3    H2 3919   1.552   4.227   4.505  1.8572 -1.2279 -0.9612
 1319TIP3   OH2 3920   1.556   4.945   5.382  0.0213  0.0955  0.0922
 1319TIP3    H1 3921   1.569   5.018   5.321 -0.7797  0.6090  0.5204
 1319TIP3    H2 3922   1.564   4.984   5.469  1.8272 -0.7582  0.3520
 1320TIP3   OH2 3923   6.887   1.368   3.174 -0.0782 -0.0055 -0.0374
 1320TIP3    H1 3924   6.863   1.443   3.230 -2.5953 -1.0251  0.3907
 1320TIP3    H2 3925   6.960   1.326   3.220 -1.6832 -0.4702  2.2613
 1321TIP3   OH2 3926   6.965   0.669   1.048  0.8643  0.3108  0.1237
 1321TIP3    H1 3927   7.040   0.726   1.033  0.1386  0.9628 -1.3223
 1321TIP3    H2 3928   6.893   0.729   1.067 -0.2259  0.0844 -2.7591
 1322TIP3   OH2 3929   2.482   4.089   4.901 -0.0017  0.0176  0.1231
 1322TIP3    H1 3930   2.569   4.129   4.896 -1.6244  3.9265 -0.3348
 1322TIP3    H2 3931   2.435   4.125   4.826 -2.3822 -1.0380  1.0302
 1323TIP3   OH2 3932   5.891   3.437   3.259  0.3831  0.4189 -0.4560
 1323TIP3    H1 3933   5.921   3.426   3.169  1.9346  1.7005 -0.1440
 1323TIP3    H2 3934   5.940   3.371   3.308  1.0936  1.0828 -0.2613
 1324TIP3   OH2 3935   6.930   5.215   2.142  0.6186  0.5130 -0.7699
 1324TIP3    H1 3936   6.956   5.252   2.058 -0.3789  3.3698  0.0855
 1324TIP3    H2 3937   6.843   5.250   2.159  1.0105  0.4774  1.7036
 1325TIP3   OH2 3938   5.773   2.828   1.411  0.1614 -0.0000  0.4098
 1325TIP3    H1 3939   5.679   2.841   1.402  0.3544  1.1223 -0.3101
 1325TIP3    H2 3940   5.784   2.736   1.436 -0.9923 -0.8091 -1.8688
 1326TIP3   OH2 3941   3.205   1.733   1.232  0.2989  0.8730  0.6665
 1326TIP3    H1 3942   3.246   1.798   1.175 -0.6741  1.2349  0.3722
 1326TIP3    H2 3943   3.132   1.699   1.182  1.3981 -1.2458  0.4012
 1327TIP3   OH2 3944   5.398   5.436   5.005 -0.3990 -0.1757 -0.2343
 1327TIP3    H1 3945   5.366   5.526   4.997 -3.1608 -0.9646  0.7761
 1327TIP3    H2 3946   5.359   5.390   4.931  3.2739 -0.1311 -2.4630
 1328TIP3   OH2 3947   3.259   3.648   3.225 -0.0957 -0.7150  0.0161
 1328TIP3    H1 3948   3.242   3.740   3.203 -0.6147 -0.7665  0.1871
 1328TIP3    H2 3949   3.355   3.640   3.221  0.0061  0.0068  0.6801
 1329TIP3   OH2 3950   2.492   3.876   3.934  0.1589  0.2024  0.0690
 1329TIP3    H1 3951   2.488   3.822   4.013 -1.1685 -0.1906 -0.2470
 1329TIP3    H2 3952   2.518   3.815   3.865 -2.2426 -0.3063 -0.4686
 1330TIP3   OH2 3953   2.872   5.561   4.414 -0.1699  0.6464 -0.0847
 1330TIP3    H1 3954   2.780   5.542   4.393 -0.1793 -0.1765  0.6367
 1330TIP3    H2 3955   2.914   5.573   4.329 -0.3955 -1.6530 -0.6058
 1331TIP3   OH2 3956   3.579   6.793   4.732  0.7011 -0.4347  0.5407
 1331TIP3    H1 3957   3.586   6.763   4.642 -0.4424  0.0891  0.2586
 1331TIP3    H2 3958   3.661   6.840   4.749 -0.3714  2.3875 -1.3722
 1332TIP3   OH2 3959   7.008   4.020   2.917  0.0066  0.1670  0.0084
 1332TIP3    H1 3960   7.068   4.049   2.847  1.0257  0.4402  0.9606
 1332TIP3    H2 3961   6.982   4.101   2.961  0.2057 -0.0745  0.5863
 1333TIP3   OH2 3962   0.836   3.252   0.592 -0.0568 -0.3670  0.3180
 1333TIP3    H1 3963   0.832   3.192   0.518 -2.2453  0.5560 -0.3643
 1333TIP3    H2 3964   0.884   3.328   0.559  0.8481 -0.8228  0.5406
 1334TIP3   OH2 3965   1.059   5.933   2.052  0.1586  0.8063  0.0131
 1334TIP3    H1 3966   1.037   5.841   2.039  0.5188  0.5371  1.1776
 1334TIP3    H2 3967   0.991   5.981   2.005  0.0787 -0.0492 -0.7723
 1335TIP3   OH2 3968   6.387   0.919   1.159  0.2844 -0.2913 -0.1150
 1335TIP3    H1 3969   6.465   0.891   1.110  1.5178 -0.0591  1.6378
 1335TIP3    H2 3970   6.413   0.912   1.251 -1.5976  0.3269  0.4981
 1336TIP3   OH2 3971   4.012   1.927   5.848  0.3099 -0.7838  0.5891
 1336TIP3    H1 3972   4.085   1.865   5.838  2.2623  1.4684  0.0540
 1336TIP3    H2 3973   3.971   1.930   5.761 -0.6779 -2.2270  0.9486
 1337TIP3   OH2 3974   3.868   4.898   3.367  0.1651  0.0200  0.2911
 1337TIP3    H1 3975   3.848   4.859   3.452 -0.2809 -0.9327 -0.2432
 1337TIP3    H2 3976   3.930   4.837   3.327 -0.8189 -0.3507 -0.7023
 1338TIP3   OH2 3977   0.675   4.753   1.662  0.1568 -0.3865 -0.0773
 1338TIP3    H1 3978   0.614   4.691   1.622 -0.8364  0.7494 -0.3820
 1338TIP3    H2 3979   0.674   4.729   1.755 -1.2808  0.0128  0.0366
 1339TIP3   OH2 3980   1.538   5.805   0.168  0.0386  0.0748  0.3894
 1339TIP3    H1 3981   1.553   5.898   0.150 -0.6690  0.2484  0.6962
 1339TIP3    H2 3982   1.536   5.799   0.263  0.5959 -0.3455  0.3854
 1340TIP3   OH2 3983   5.266   5.650   1.634 -0.6906  0.1010 -0.4870
 1340TIP3    H1 3984   5.320   5.728   1.620 -0.6108  0.2564  0.6117
 1340TIP3    H2 3985   5.328   5.579   1.645 -0.6931  0.2241  0.4433
 1341TIP3   OH2 3986   5.819   3.175   0.193  0.4474  0.1750 -0.0215
 1341TIP3    H1 3987   5.852   3.156   0.105 -1.1144 -1.1611 -0.3709
 1341TIP3    H2 3988   5.742   3.119   0.201  0.2051  0.7556  1.9737
 1342TIP3   OH2 3989   3.518   6.432   3.445 -0.3892 -0.1341  0.6780
 1342TIP3    H1 3990   3.463   6.445   3.523  0.9160 -3.5620  2.3934
 1342TIP3    H2 3991   3.608   6.438   3.478  0.2079 -0.1853 -0.8763
 1343TIP3   OH2 3992   6.764   2.078   3.147  0.0114  0.3964  0.1415
 1343TIP3    H1 3993   6.795   2.002   3.099  0.7404  0.7591  0.0146
 1343TIP3    H2 3994   6.689   2.110   3.098  0.5370  0.5600 -0.5676
 1344TIP3   OH2 3995   2.851   0.607   2.730 -0.2397  0.0588 -0.1489
 1344TIP3    H1 3996   2.847   0.696   2.764  3.7364  0.2517  0.2582
 1344TIP3    H2 3997   2.914   0.563   2.786  1.0742 -1.7733 -2.8495
 1345TIP3   OH2 3998   1.437   6.610   2.295 -0.3389  0.1165  1.1281
 1345TIP3    H1 3999   1.394   6.695   2.298  0.1577  0.4523 -0.5122
 1345TIP3    H2 4000   1.376   6.551   2.340 -1.3282  1.0540  1.0547
 1346TIP3   OH2 4001   0.698   1.634   4.761  0.2696  0.3027 -0.0504
 1346TIP3    H1 4002   0.654   1.700   4.707 -1.3902  0.6361  1.5592
 1346TIP3    H2 4003   0.655   1.643   4.847 -0.1643 -2.9865  0.1884
 1347TIP3   OH2 4004   3.328   3.789   0.558 -0.1095  0.1498  0.1480
 1347TIP3    H1 4005   3.295   3.700   0.545 -1.9592  1.0079 -1.5855
 1347TIP3    H2 4006   3.251   3.840   0.581 -0.0206  2.0636 -3.1257
 1348TIP3   OH2 4007   0.269   4.631   0.909  0.1109  0.0578 -0.2681
 1348TIP3    H1 4008   0.237   4.642   0.819 -1.2147  1.0716  0.3050
 1348TIP3    H2 4009   0.316   4.712   0.927  0.8766 -0.3887 -0.2355
 1349TIP3   OH2 4010   4.715   1.364   0.512 -0.1518 -0.0263  0.3337
 1349TIP3    H1 4011   4.724   1.273   0.540 -0.0795  0.5447  2.3037
 1349TIP3    H2 4012   4.658   1.360   0.435  0.5959 -1.8026 -0.1598
 1350TIP3   OH2 4013   5.871   5.661   5.263  0.0352  0.3296 -0.1033
 1350TIP3    H1 4014   5.798   5.627   5.212  0.6292  0.4165 -1.0439
 1350TIP3    H2 4015   5.876   5.754   5.240  1.8838 -0.1395 -1.9280
 1351TIP3   OH2 4016   0.921   2.334   3.290 -0.3634 -0.0516 -0.1142
 1351TIP3    H1 4017   0.921   2.404   3.225  0.3377  0.5269  0.4912
 1351TIP3    H2 4018   0.830   2.328   3.319 -0.2844  1.1818  0.4195
 1352TIP3   OH2 4019   1.798   3.839   0.453  0.1493 -0.8196  0.2368
 1352TIP3    H1 4020   1.755   3.922   0.476 -0.1351 -1.4222  2.0486
 1352TIP3    H2 4021   1.773   3.824   0.362  1.6776  1.9507 -0.7534
 1353TIP3   OH2 4022   6.900   5.503   1.177  0.2518  0.1302  0.3935
 1353TIP3    H1 4023   6.877   5.417   1.141  0.1810  0.3717 -0.1577
 1353TIP3    H2 4024   6.882   5.496   1.270 -0.3911 -0.2479  0.2479
 1354TIP3   OH2 4025   4.919   0.336   3.148 -0.1033 -0.6059 -0.3448
 1354TIP3    H1 4026   4.855   0.272   3.117 -0.1789 -0.4552 -0.4966
 1354TIP3    H2 4027   4.895   0.418   3.106 -1.1082 -0.0438  1.2260
 1355TIP3   OH2 4028   5.916   0.041   1.935  0.0421  0.1121 -0.3291
 1355TIP3    H1 4029   5.961   0.101   1.876  2.2225  0.3780  1.4347
 1355TIP3    H2 4030   5.933   0.077   2.023 -0.4458 -1.8838  0.6510
 1356TIP3   OH2 4031   6.515   4.212   1.017 -0.3797  0.4258  0.3791
 1356TIP3    H1 4032   6.435   4.167   1.045 -0.6792  1.4971  1.3529
 1356TIP3    H2 4033   6.569   4.216   1.096 -0.2800  1.5587  0.2685
 1357TIP3   OH2 4034   2.663   6.169   5.126  0.3649 -0.3136 -0.0691
 1357TIP3    H1 4035   2.697   6.175   5.215  1.6313 -0.3579 -0.5266
 1357TIP3    H2 4036   2.568   6.171   5.136  0.4947  0.0270  1.2522
 1358TIP3   OH2 4037   4.192   4.002   2.094  0.3540 -0.1656 -0.2921
 1358TIP3    H1 4038   4.239   4.031   2.172 -0.0812 -0.9398  0.2845
 1358TIP3    H2 4039   4.105   4.039   2.104  0.1671 -0.6248 -0.1764
 1359TIP3   OH2 4040   4.911   2.549   5.184  0.0242  0.2229 -0.3061
 1359TIP3    H1 4041   4.844   2.482   5.197  0.6606 -0.2104  0.9211
 1359TIP3    H2 4042   4.872   2.610   5.120 -1.5693  0.0396  0.4338
 1360TIP3   OH2 4043   2.979   1.889   2.497 -0.0163  0.1632 -0.7436
 1360TIP3    H1 4044   2.938   1.836   2.565  1.0591  0.4660  0.1808
 1360TIP3    H2 4045   2.910   1.904   2.433 -1.3615  0.7504  0.7807
 1361TIP3   OH2 4046   3.441   4.899   5.746  0.6836 -0.5078 -0.1660
 1361TIP3    H1 4047   3.353   4.878   5.780  0.2568  1.1963 -0.1244
 1361TIP3    H2 4048   3.426   4.970   5.684  2.1886  0.7929  0.8921
 1362TIP3   OH2 4049   2.648   5.899   3.058  0.2120  0.2845 -0.3653
 1362TIP3    H1 4050   2.708   5.965   3.093  1.0216 -1.2221  1.2592
 1362TIP3    H2 4051   2.644   5.917   2.964  1.4546  1.7860 -0.1743
 1363TIP3   OH2 4052   2.389   3.272   2.501  0.0091 -0.5426 -0.0423
 1363TIP3    H1 4053   2.471   3.224   2.506 -0.8635 -2.1767 -0.7542
 1363TIP3    H2 4054   2.387   3.306   2.411 -0.3212 -0.9629 -0.1986
 1364TIP3   OH2 4055   0.463   2.697   5.601  0.4587  0.0893  0.2957
 1364TIP3    H1 4056   0.436   2.783   5.568  1.4314 -0.2538 -1.5209
 1364TIP3    H2 4057   0.559   2.702   5.606  0.6351 -1.2146 -0.9509
 1365TIP3   OH2 4058   0.476   5.446   0.745  0.1312  0.4100  0.5459
 1365TIP3    H1 4059   0.467   5.462   0.839 -3.0537  0.3823  0.3312
 1365TIP3    H2 4060   0.515   5.359   0.739  1.4685  0.8795  1.7739
 1366TIP3   OH2 4061   5.832   2.980   4.469 -0.0047 -0.2202  0.1455
 1366TIP3    H1 4062   5.821   3.066   4.428  0.8675  0.2439  0.8291
 1366TIP3    H2 4063   5.744   2.946   4.479 -0.2172 -1.3772 -4.0975
 1367TIP3   OH2 4064   2.032   6.480   2.805  0.1704  0.2432 -0.3899
 1367TIP3    H1 4065   1.992   6.559   2.841 -0.5737 -1.0990  1.9904
 1367TIP3    H2 4066   2.002   6.476   2.714 -1.4879  1.6049  0.0565
 1368TIP3   OH2 4067   0.384   4.185   5.578  0.2993  0.6229  0.1811
 1368TIP3    H1 4068   0.371   4.223   5.491 -1.0696 -1.0355 -0.4022
 1368TIP3    H2 4069   0.475   4.156   5.578  0.0274 -0.3266 -1.1492
 1369TIP3   OH2 4070   6.325   6.589   2.493 -0.0089 -0.0688 -0.0839
 1369TIP3    H1 4071   6.250   6.640   2.524  0.6294 -0.4626  2.3040
 1369TIP3    H2 4072   6.389   6.595   2.564  1.0847 -2.1205 -0.8104
 1370TIP3   OH2 4073   2.422   5.666   3.387  0.0742  0.3051 -0.2092
 1370TIP3    H1 4074   2.502   5.647   3.339 -0.0275  0.2294 -0.3504
 1370TIP3    H2 4075   2.447   5.732   3.452  0.8498 -1.5265  1.4520
 1371TIP3   OH2 4076   7.096   2.013   5.695 -0.4314 -0.5815 -0.1220
 1371TIP3    H1 4077   7.120   2.004   5.602 -0.5685 -0.1636 -0.1988
 1371TIP3    H2 4078   7.049   1.932   5.715  0.0052 -0.8806 -0.2895
 1372TIP3   OH2 4079   7.114   0.232   2.704  0.0904  0.0952  0.5554
 1372TIP3    H1 4080   7.159   0.245   2.788 -1.0728 -0.2138  1.2433
 1372TIP3    H2 4081   7.080   0.143   2.708 -0.1476  0.1455 -0.1640
 1373TIP3   OH2 4082   1.235   3.877   2.362 -0.1344 -0.1989  0.5508
 1373TIP3    H1 4083   1.313   3.862   2.308  1.4280  0.1021  2.5872
 1373TIP3    H2 4084   1.195   3.791   2.371  0.9517 -0.6892  0.8681
 1374TIP3   OH2 4085   5.402   3.968   3.469  0.0830  0.0628  0.3467
 1374TIP3    H1 4086   5.414   3.921   3.551  2.4749  1.6309  1.0084
 1374TIP3    H2 4087   5.473   3.938   3.412 -1.0934 -0.4497 -0.9177
 1375TIP3   OH2 4088   4.590   3.413   4.115 -0.2059 -0.0734 -0.4681
 1375TIP3    H1 4089   4.577   3.376   4.027 -0.3541 -0.2260 -0.3832
 1375TIP3    H2 4090   4.580   3.508   4.102 -3.1076 -0.2575 -0.1493
 1376TIP3   OH2 4091   4.558   3.747   3.327  0.1909 -0.2191 -0.0950
 1376TIP3    H1 4092   4.585   3.839   3.320 -0.4702 -0.1100 -1.4747
 1376TIP3    H2 4093   4.534   3.737   3.419 -1.7099  1.5916 -0.3120
 1377TIP3   OH2 4094   6.771   2.278   3.610 -0.3543  0.1921 -0.2731
 1377TIP3    H1 4095   6.859   2.244   3.594 -0.1489  1.1073 -1.1842
 1377TIP3    H2 4096   6.763   2.282   3.705 -0.1021 -1.6276 -0.1563
 1378TIP3   OH2 4097   7.194   0.810   1.118 -0.2786  0.1773 -0.0591
 1378TIP3    H1 4098   7.237   0.780   1.198  0.1579  0.1655 -0.2934
 1378TIP3    H2 4099   7.224   0.901   1.108 -0.9205  0.4204  0.1903
 1379TIP3   OH2 4100   0.471   5.902   2.622 -0.1171  0.3502  0.1169
 1379TIP3    H1 4101   0.518   5.851   2.556  0.6619 -0.7524  1.4697
 1379TIP3    H2 4102   0.384   5.916   2.584  0.4554  0.1962 -1.3411
 1380TIP3   OH2 4103   3.810   6.050   2.318 -0.0593  0.8695  0.8049
 1380TIP3    H1 4104   3.850   6.102   2.388 -1.4868  1.5226  1.1817
 1380TIP3    H2 4105   3.746   6.109   2.278  0.8859  0.5778 -1.2334
 1381TIP3   OH2 4106   0.496   0.497   0.950  0.1313 -0.1546 -0.4283
 1381TIP3    H1 4107   0.508   0.549   0.870  1.0698 -2.3834 -1.8259
 1381TIP3    H2 4108   0.406   0.467   0.946  0.3968 -0.8866 -1.0678
 1382TIP3   OH2 4109   1.270   2.114   2.213  0.3537  0.2149  0.3262
 1382TIP3    H1 4110   1.289   2.142   2.302 -1.3172  1.9653  0.1926
 1382TIP3    H2 4111   1.183   2.074   2.218  0.1343  0.5516 -0.5426
 1383TIP3   OH2 4112   1.335   2.385   2.858 -0.0349 -0.1902 -0.1172
 1383TIP3    H1 4113   1.274   2.449   2.821 -0.9098 -0.9021  0.0648
 1383TIP3    H2 4114   1.410   2.385   2.798 -0.1845  0.7235 -0.3207
 1384TIP3   OH2 4115   5.843   4.682   5.273 -0.2017 -0.4229 -0.2570
 1384TIP3    H1 4116   5.908   4.731   5.322 -0.1568 -0.6711 -0.0654
 1384TIP3    H2 4117   5.831   4.731   5.192 -0.9955  0.5346  0.4105
 1385TIP3   OH2 4118   3.139   1.138   1.851 -0.5700 -0.4151  0.4103
 1385TIP3    H1 4119   3.234   1.135   1.848 -0.5349 -0.9215 -3.9693
 1385TIP3    H2 4120   3.119   1.205   1.917  2.8401  0.7519  0.4305
 1386TIP3   OH2 4121   0.208   1.851   4.140  0.8679 -0.0725  0.4932
 1386TIP3    H1 4122   0.253   1.934   4.154  0.3717  0.2554  0.1726
 1386TIP3    H2 4123   0.120   1.864   4.176  0.4834 -0.1396 -0.3935
 1387TIP3   OH2 4124   5.914   0.482  -0.021  0.3186 -0.3635 -0.5167
 1387TIP3    H1 4125   5.993   0.432  -0.002  0.2107 -0.3255  0.0632
 1387TIP3    H2 4126   5.885   0.514   0.065 -0.4233 -0.5255 -0.7030
 1388TIP3   OH2 4127   5.920   2.148   3.382  0.1308 -0.4132 -0.2174
 1388TIP3    H1 4128   5.998   2.197   3.407 -0.0188  1.8634 -3.6266
 1388TIP3    H2 4129   5.852   2.214   3.369 -2.1162 -2.2096  1.3989
 1389TIP3   OH2 4130   2.805   1.165   4.850 -0.4348  0.2891 -0.1287
 1389TIP3    H1 4131   2.781   1.097   4.913  0.9089  1.0400  1.2317
 1389TIP3    H2 4132   2.898   1.182   4.865 -0.0211  0.4412 -2.3923
 1390TIP3   OH2 4133   1.907   5.716   3.264  0.0488 -0.1941 -0.2946
 1390TIP3    H1 4134   1.993   5.745   3.295 -0.0999 -1.4185  1.3653
 1390TIP3    H2 4135   1.844   5.769   3.313 -0.1594 -0.0487 -0.7168
 1391TIP3   OH2 4136   1.415   2.807   0.924  0.2429 -0.0877  0.2166
 1391TIP3    H1 4137   1.380   2.719   0.934 -0.1341  0.2049  1.7042
 1391TIP3    H2 4138   1.361   2.847   0.855 -0.0559 -0.7761  0.0449
 1392TIP3   OH2 4139   6.742   2.312   1.580  0.2002  1.0053 -0.3930
 1392TIP3    H1 4140   6.833   2.325   1.552 -0.1518  0.4384 -1.9128
 1392TIP3    H2 4141   6.703   2.260   1.510  0.1019 -3.5504  2.5832
 1393TIP3   OH2 4142   4.901   6.023   4.628 -0.5096 -0.0930  0.1690
 1393TIP3    H1 4143   4.818   5.981   4.649 -0.6673  0.7899  1.4043
 1393TIP3    H2 4144   4.931   5.978   4.549 -1.6641 -1.1024  0.2740
 1394TIP3   OH2 4145   4.656   4.822   4.972  0.1143 -0.7089  0.0750
 1394TIP3    H1 4146   4.576   4.769   4.979  0.4453 -1.3180 -0.5516
 1394TIP3    H2 4147   4.718   4.764   4.928  0.6132  0.0787 -0.2698
 1395TIP3   OH2 4148   0.849   5.633   3.055 -0.0682 -0.2803  0.1451
 1395TIP3    H1 4149   0.817   5.557   3.105  0.1606 -2.0904 -2.3053
 1395TIP3    H2 4150   0.942   5.639   3.077 -0.2424 -0.1911  0.9170
 1396TIP3   OH2 4151   0.923   1.409   0.413  0.0866 -0.2621 -0.4542
 1396TIP3    H1 4152   0.840   1.363   0.423 -0.2635  0.1101 -1.5337
 1396TIP3    H2 4153   0.919   1.447   0.325  0.5848  1.3895  0.2032
 1397TIP3   OH2 4154   3.875   0.062   5.796  0.1200  0.4993 -0.2090
 1397TIP3    H1 4155   3.826  -0.004   5.845 -0.7962  1.9915  0.9584
 1397TIP3    H2 4156   3.895   0.020   5.713 -3.0527 -0.2488 -0.7181
 1398TIP3   OH2 4157   1.827   3.868   4.441 -0.2312 -0.5443  0.5559
 1398TIP3    H1 4158   1.841   3.962   4.442 -0.8357 -0.3923 -1.2331
 1398TIP3    H2 4159   1.753   3.854   4.501 -1.5715  0.4270 -0.8045
 1399TIP3   OH2 4160   1.252   5.723   1.653  0.5267  0.4006 -0.6649
 1399TIP3    H1 4161   1.275   5.723   1.560  0.7936  0.9358 -0.6038
 1399TIP3    H2 4162   1.333   5.698   1.698 -0.0384 -1.6045 -0.6573
 1400TIP3   OH2 4163   1.906   0.443   1.219 -0.1141 -0.0134 -0.1234
 1400TIP3    H1 4164   1.817   0.407   1.216 -0.3236  0.4649  0.2229
 1400TIP3    H2 4165   1.940   0.430   1.131 -0.0926 -1.2882  0.0465
 1401TIP3   OH2 4166   0.053   1.952   2.930  0.0835 -0.2269  0.1424
 1401TIP3    H1 4167   0.126   1.923   2.874  1.0164 -0.3704  1.3812
 1401TIP3    H2 4168   0.000   1.874   2.942  0.8642 -0.6478  0.9068
 1402TIP3   OH2 4169   7.148   4.807   3.938 -0.0722  0.1022  0.1383
 1402TIP3    H1 4170   7.189   4.754   3.869  1.4777  1.0246  0.2999
 1402TIP3    H2 4171   7.214   4.813   4.007 -1.5713 -0.7394  1.7230
 1403TIP3   OH2 4172   5.367   6.742   3.306 -0.5608  0.0534 -0.1294
 1403TIP3    H1 4173   5.396   6.799   3.235  3.6128 -2.5082 -0.7897
 1403TIP3    H2 4174   5.354   6.801   3.380 -0.7314  2.3010 -1.8510
 1404TIP3   OH2 4175   3.811   5.617   0.754  0.4745 -0.0210 -0.0738
 1404TIP3    H1 4176   3.873   5.686   0.729 -0.9728  2.0787  1.7754
 1404TIP3    H2 4177   3.725   5.658   0.749 -0.3734 -1.3373  2.0307
 1405TIP3   OH2 4178   6.709   1.587   4.683  0.2381 -0.6097  0.6584
 1405TIP3    H1 4179   6.616   1.589   4.703 -0.1999 -0.6577 -1.1880
 1405TIP3    H2 4180   6.714   1.597   4.588  2.2307  1.8861  0.8930
 1406TIP3   OH2 4181   6.263   0.483   3.868 -0.8959 -0.2723 -0.4644
 1406TIP3    H1 4182   6.234   0.574   3.857 -0.2172 -0.0541 -0.5304
 1406TIP3    H2 4183   6.199   0.445   3.928 -0.4209  0.6605  0.6887
 1407TIP3   OH2 4184   0.192   6.558   0.439 -0.6064  0.0457  0.2222
 1407TIP3    H1 4185   0.244   6.507   0.502 -0.2772  0.0439 -0.0500
 1407TIP3    H2 4186   0.157   6.631   0.490  1.5671  1.3814 -0.0823
 1408TIP3   OH2 4187   2.277   4.590   3.208 -0.0972 -0.4626  0.7406
 1408TIP3    H1 4188   2.330   4.666   3.231 -0.1268  0.3734 -1.6576
 1408TIP3    H2 4189   2.339   4.518   3.199  1.0687  0.7950 -3.3921
 1409TIP3   OH2 4190   6.981   3.892   0.342  0.3213  0.2905 -0.3601
 1409TIP3    H1 4191   7.053   3.952   0.323  1.5191 -0.6483  0.9629
 1409TIP3    H2 4192   6.950   3.862   0.256  2.3357 -0.2167 -0.9575
 1410TIP3   OH2 4193   0.719   3.701   5.847 -0.3188 -0.6942  0.3990
 1410TIP3    H1 4194   0.664   3.779   5.843 -0.2871 -0.6568  0.7295
 1410TIP3    H2 4195   0.685   3.645   5.776 -2.2892 -1.6413  1.9640
 1411TIP3   OH2 4196   2.281   4.921   5.856 -0.6278 -0.3474  0.7574
 1411TIP3    H1 4197   2.186   4.927   5.860 -0.6489 -0.1955  0.1733
 1411TIP3    H2 4198   2.311   4.951   5.942 -1.1188 -0.8106  1.0994
 1412TIP3   OH2 4199   0.510   3.312   5.010 -0.0018  0.4539 -0.7878
 1412TIP3    H1 4200   0.459   3.260   4.948  0.7286 -0.5774 -0.5484
 1412TIP3    H2 4201   0.461   3.393   5.019 -0.7899  0.1000 -1.7308
 1413TIP3   OH2 4202   0.738   6.695   2.570 -0.2720 -0.0744 -0.4132
 1413TIP3    H1 4203   0.716   6.613   2.614 -0.4262  0.1811 -0.0150
 1413TIP3    H2 4204   0.734   6.673   2.476 -0.8309 -0.3920 -0.3241
 1414TIP3   OH2 4205   4.661   3.516   0.563 -0.3117 -0.0016  0.1666
 1414TIP3    H1 4206   4.667   3.420   0.566 -1.0074 -0.0306  0.9299
 1414TIP3    H2 4207   4.734   3.545   0.617 -0.7663 -0.1312  0.8592
 1415TIP3   OH2 4208   1.932   1.737   1.663  0.0285 -0.3731 -0.1672
 1415TIP3    H1 4209   1.900   1.731   1.753 -1.6512 -0.8874 -0.7661
 1415TIP3    H2 4210   2.020   1.697   1.666  1.2899  2.2741  1.7862
 1416TIP3   OH2 4211   6.508   5.202   5.905 -0.0099 -0.2706  0.7305
 1416TIP3    H1 4212   6.415   5.214   5.886  0.0220  0.9083  1.2571
 1416TIP3    H2 4213   6.552   5.273   5.857  0.1960  1.9766  3.9751
 1417TIP3   OH2 4214   1.521   3.182   3.011 -0.0384  0.0324 -0.0138
 1417TIP3    H1 4215   1.558   3.097   3.036  0.8392  0.1718 -0.8024
 1417TIP3    H2 4216   1.590   3.224   2.959 -1.4628  0.1114 -1.9342
 1418TIP3   OH2 4217   6.167   5.733   0.672  0.2625 -0.4830  0.4839
 1418TIP3    H1 4218   6.136   5.744   0.581  1.0842 -0.8705  0.1497
 1418TIP3    H2 4219   6.262   5.746   0.666  0.2302  0.2554  1.4244
 1419TIP3   OH2 4220   4.789   0.086   4.473 -0.2647  0.0321 -0.1100
 1419TIP3    H1 4221   4.777  -0.008   4.483  0.2066 -0.1011 -0.7864
 1419TIP3    H2 4222   4.851   0.110   4.542 -0.1478 -0.1975 -0.1383
 1420TIP3   OH2 4223   2.115   4.297   5.549 -0.1432  0.1992  0.1556
 1420TIP3    H1 4224   2.019   4.298   5.545 -0.1234 -0.3643 -0.9229
 1420TIP3    H2 4225   2.135   4.237   5.621 -0.6031 -0.5116 -0.2930
 1421TIP3   OH2 4226   0.226   1.676   5.515  0.0309  0.3785 -0.0783
 1421TIP3    H1 4227   0.244   1.674   5.608  2.1644 -0.7431 -0.4710
 1421TIP3    H2 4228   0.197   1.766   5.498  2.1411  1.3684  1.2409
 1422TIP3   OH2 4229   5.569   0.423   1.997 -0.2636  0.0186  0.1501
 1422TIP3    H1 4230   5.649   0.445   2.045 -0.4683 -2.5522  1.8698
 1422TIP3    H2 4231   5.500   0.474   2.039 -0.1423 -0.8512  1.4512
 1423TIP3   OH2 4232   3.008   1.207   1.343  0.1675  0.4037  0.3795
 1423TIP3    H1 4233   3.012   1.293   1.302  1.0712  0.5888  0.8324
 1423TIP3    H2 4234   2.916   1.197   1.370  0.6967  2.9223  3.8327
 1424TIP3   OH2 4235   6.568   1.777   2.651  0.0714  0.1220 -0.2913
 1424TIP3    H1 4236   6.600   1.757   2.739  2.1425 -0.5861 -1.1453
 1424TIP3    H2 4237   6.497   1.714   2.636  0.4428 -0.4960  0.4783
 1425TIP3   OH2 4238   0.986   0.582   2.960  0.2695  0.0027  0.4067
 1425TIP3    H1 4239   1.041   0.603   2.884  0.1402  0.2260  0.3755
 1425TIP3    H2 4240   1.014   0.494   2.986  0.2574 -0.1098  0.0473
 1426TIP3   OH2 4241   0.319   3.999   5.024 -0.1692 -0.3933  0.8567
 1426TIP3    H1 4242   0.292   3.922   5.073 -0.4969  0.1622  1.5763
 1426TIP3    H2 4243   0.277   3.989   4.938  0.0200 -1.1434  0.8465
 1427TIP3   OH2 4244   3.068   0.637   2.107  0.4453 -0.7320 -0.0893
 1427TIP3    H1 4245   3.142   0.580   2.085  1.1806 -0.1372  0.7643
 1427TIP3    H2 4246   3.008   0.627   2.034  2.0506 -0.0791 -1.5663
 1428TIP3   OH2 4247   1.727   3.130   0.870  0.4569 -0.3764 -0.0057
 1428TIP3    H1 4248   1.643   3.147   0.912  0.6606 -0.4066  0.4278
 1428TIP3    H2 4249   1.710   3.140   0.777 -0.7852 -3.4705 -0.2211
 1429TIP3   OH2 4250   4.095   1.025   5.109 -0.4569 -0.1736  0.5518
 1429TIP3    H1 4251   4.020   0.996   5.058 -0.4031 -0.8962  0.8556
 1429TIP3    H2 4252   4.057   1.057   5.191 -0.4277 -0.7023  0.7755
 1430TIP3   OH2 4253   0.027   3.381   3.640 -0.2319 -0.2746  0.3363
 1430TIP3    H1 4254   0.005   3.297   3.680 -0.8547 -0.3505 -0.1365
 1430TIP3    H2 4255   0.005   3.369   3.547  1.2868 -0.1475 -0.0723
 1431TIP3   OH2 4256   2.607   5.299   3.601 -0.5019  0.7669 -0.0889
 1431TIP3    H1 4257   2.669   5.362   3.637  0.0594 -0.5229  1.3694
 1431TIP3    H2 4258   2.521   5.330   3.629 -0.1412  0.3189  1.6459
 1432TIP3   OH2 4259   6.178   3.895   0.165 -0.2493  0.2615 -0.4215
 1432TIP3    H1 4260   6.217   3.859   0.245 -1.2248  0.4578  0.1649
 1432TIP3    H2 4261   6.188   3.825   0.100  1.7734  0.6041 -0.5468
 1433TIP3   OH2 4262   6.927   1.369   4.637 -0.3645 -0.2730  0.1062
 1433TIP3    H1 4263   6.955   1.298   4.695  0.5736  0.1764  0.2162
 1433TIP3    H2 4264   6.902   1.439   4.697 -0.2481 -0.1258 -0.0182
 1434TIP3   OH2 4265   2.866   6.713   2.401  0.3672  0.0451 -0.2267
 1434TIP3    H1 4266   2.954   6.685   2.376 -0.2250 -1.7525 -0.4141
 1434TIP3    H2 4267   2.853   6.676   2.488 -0.1455  0.4499 -0.1295
 1435TIP3   OH2 4268   4.320   3.727   5.569 -0.3841  0.5271  0.3392
 1435TIP3    H1 4269   4.404   3.771   5.558  1.2133 -2.2941  0.5381
 1435TIP3    H2 4270   4.294   3.702   5.480  1.8194 -3.3125  0.5535
 1436TIP3   OH2 4271   0.694   4.197   3.098 -0.6682 -0.0488  0.0657
 1436TIP3    H1 4272   0.768   4.207   3.038  0.2830 -0.7734  1.0985
 1436TIP3    H2 4273   0.632   4.265   3.070  0.9444  1.4753  0.0229
 1437TIP3   OH2 4274   4.590   6.380   2.381 -0.1467 -0.2968 -0.3802
 1437TIP3    H1 4275   4.513   6.325   2.366  0.3778 -1.4271  0.8797
 1437TIP3    H2 4276   4.634   6.383   2.296 -0.2762 -1.7230 -0.5157
 1438TIP3   OH2 4277   4.035   3.695   1.539 -0.0847 -0.5193  0.2297
 1438TIP3    H1 4278   4.082   3.707   1.621  1.9241 -0.3603 -0.8787
 1438TIP3    H2 4279   4.012   3.602   1.539  1.2557 -0.8644  0.2995
 1439TIP3   OH2 4280   2.530   4.084   2.396  0.3038 -0.3278 -0.1308
 1439TIP3    H1 4281   2.473   4.014   2.364  0.7307 -1.0023  0.5741
 1439TIP3    H2 4282   2.535   4.145   2.322 -3.1693  0.9666  0.5041
 1440TIP3   OH2 4283   1.969   6.600   3.901 -0.1361  0.9096  0.4778
 1440TIP3    H1 4284   1.913   6.655   3.846  0.2063  0.5836 -0.2070
 1440TIP3    H2 4285   2.021   6.549   3.839 -0.9228 -0.6806  1.0615
 1441TIP3   OH2 4286   2.238   0.167   4.898  0.0738 -0.3812  0.0709
 1441TIP3    H1 4287   2.299   0.103   4.934  0.8940 -0.1458 -0.8741
 1441TIP3    H2 4288   2.292   0.226   4.847 -1.0811 -0.9702 -1.9410
 1442TIP3   OH2 4289   6.273   1.772   5.768 -0.4916 -0.1821 -0.1358
 1442TIP3    H1 4290   6.277   1.687   5.725  0.2931 -0.5140  0.5600
 1442TIP3    H2 4291   6.185   1.804   5.749 -0.0082 -0.0600 -2.4215
 1443TIP3   OH2 4292   5.988   0.648   4.864  0.8235 -0.1962 -0.1339
 1443TIP3    H1 4293   5.923   0.594   4.909  0.6207  0.0728 -0.1034
 1443TIP3    H2 4294   5.991   0.730   4.914  0.1705  0.3329 -0.9397
 1444TIP3   OH2 4295   1.832   0.459   1.675 -0.3250 -0.0138 -0.1423
 1444TIP3    H1 4296   1.870   0.546   1.658 -0.7291  0.2053  0.0672
 1444TIP3    H2 4297   1.767   0.448   1.606  2.0425 -1.6139 -2.3118
 1445TIP3   OH2 4298   5.285   6.112   1.348 -0.3330 -0.2276  0.1157
 1445TIP3    H1 4299   5.298   6.204   1.326 -0.4571 -0.3369 -0.4455
 1445TIP3    H2 4300   5.219   6.082   1.285 -0.9895 -0.4585  0.8974
 1446TIP3   OH2 4301   4.664   1.017   0.854  0.3088  0.0628  0.4996
 1446TIP3    H1 4302   4.724   1.091   0.853  1.3630 -0.7597  0.8786
 1446TIP3    H2 4303   4.689   0.964   0.779  1.2830 -1.1951  1.6543
 1447TIP3   OH2 4304   1.200   6.018   1.507  0.0137  0.4752  0.5540
 1447TIP3    H1 4305   1.254   5.951   1.464 -1.1456  0.1357 -0.4245
 1447TIP3    H2 4306   1.232   6.019   1.598  0.9301 -0.4686  0.2676
 1448TIP3   OH2 4307   2.775   1.021   1.615  0.8573 -0.3017  0.4052
 1448TIP3    H1 4308   2.804   1.112   1.617  1.1683 -0.2919 -1.6147
 1448TIP3    H2 4309   2.707   1.015   1.682  0.8371  1.4258  0.5776
 1449TIP3   OH2 4310   0.682   6.646   2.030 -0.6649  0.1995 -0.1786
 1449TIP3    H1 4311   0.684   6.701   1.952  1.5164  1.0810  0.4226
 1449TIP3    H2 4312   0.650   6.561   1.999  0.3903  0.4456 -2.1124
 1450TIP3   OH2 4313   2.684   0.927   4.676  0.2448 -0.1916  0.7115
 1450TIP3    H1 4314   2.720   0.900   4.592  0.2415  1.6868  0.0532
 1450TIP3    H2 4315   2.745   0.994   4.708 -0.5861  0.2382  1.4544
 1451TIP3   OH2 4316   4.754   1.142   5.694 -0.0577  0.0377 -0.2745
 1451TIP3    H1 4317   4.720   1.057   5.723 -1.4933  0.7131  0.1023
 1451TIP3    H2 4318   4.705   1.161   5.614  1.9175 -0.5347 -1.6846
 1452TIP3   OH2 4319   6.271   3.636   5.571 -0.1643  0.6199  0.8329
 1452TIP3    H1 4320   6.300   3.545   5.565  1.8911  1.2571 -0.0052
 1452TIP3    H2 4321   6.178   3.630   5.593 -0.1267 -1.6682  0.6738
 1453TIP3   OH2 4322   0.328   0.344   1.659  0.3893  0.2651 -0.1055
 1453TIP3    H1 4323   0.239   0.311   1.647  0.6081 -0.7157  0.7757
 1453TIP3    H2 4324   0.343   0.402   1.585 -1.1815  0.8890  0.0233
 1454TIP3   OH2 4325   3.325   4.370   5.351  0.2591  0.0320 -0.3618
 1454TIP3    H1 4326   3.269   4.445   5.333  0.3285  0.2741  0.4029
 1454TIP3    H2 4327   3.282   4.297   5.306  0.3229  0.5680 -1.3080
 1455TIP3   OH2 4328   1.480   5.777   2.279 -0.6258  0.5632 -0.3370
 1455TIP3    H1 4329   1.395   5.734   2.268 -0.1617  0.0465 -2.1081
 1455TIP3    H2 4330   1.474   5.818   2.366 -2.7864  0.7892 -0.5346
 1456TIP3   OH2 4331   6.094   4.646   1.736 -0.3345  0.7769 -0.9913
 1456TIP3    H1 4332   6.038   4.714   1.774 -0.4012  0.5536 -0.6829
 1456TIP3    H2 4333   6.181   4.685   1.735 -0.1915  0.5204  0.1039
 1457TIP3   OH2 4334   2.784   2.371   0.351 -0.0871 -0.0553 -0.3364
 1457TIP3    H1 4335   2.742   2.285   0.359  0.8753 -0.4532  0.9584
 1457TIP3    H2 4336   2.794   2.384   0.257  0.2377 -1.6388 -0.5620
 1458TIP3   OH2 4337   1.745   3.999   5.527 -0.9399 -0.1439  0.0553
 1458TIP3    H1 4338   1.713   4.000   5.436 -1.8641  1.8333  0.3432
 1458TIP3    H2 4339   1.782   4.086   5.540  0.2315 -0.7919  1.2432
 1459TIP3   OH2 4340   1.477   0.499   0.024 -0.6848  0.0341 -0.3154
 1459TIP3    H1 4341   1.439   0.579   0.061  2.0308  0.7155  1.2303
 1459TIP3    H2 4342   1.571   0.508   0.038 -0.2329 -3.2807 -0.4461
 1460TIP3   OH2 4343   4.181   0.155   0.523 -0.4847 -0.0534  0.0035
 1460TIP3    H1 4344   4.221   0.216   0.585  1.2925 -1.4201  0.2502
 1460TIP3    H2 4345   4.212   0.185   0.437  1.1107 -1.0796  0.1897
 1461TIP3   OH2 4346   1.213   3.332   1.167  0.2327  0.6083  0.1364
 1461TIP3    H1 4347   1.142   3.372   1.217 -0.2857  0.1206 -0.1917
 1461TIP3    H2 4348   1.225   3.245   1.206  0.5873  0.6566  0.1365
 1462TIP3   OH2 4349   2.799   3.600   4.133 -0.5514  0.0119 -0.2849
 1462TIP3    H1 4350   2.795   3.528   4.196  0.4912 -0.7548 -1.0574
 1462TIP3    H2 4351   2.725   3.656   4.155 -1.6326 -1.5160  0.0922
 1463TIP3   OH2 4352   3.576   2.070   3.506  0.6003 -0.1232 -0.2636
 1463TIP3    H1 4353   3.636   2.131   3.548  0.1623  0.5620 -0.6033
 1463TIP3    H2 4354   3.579   2.093   3.413 -1.2274  0.9133 -0.1342
 1464TIP3   OH2 4355   5.660   5.236   5.227 -0.1328 -0.4374 -0.2971
 1464TIP3    H1 4356   5.729   5.268   5.170 -0.4449  0.4836 -0.1789
 1464TIP3    H2 4357   5.692   5.251   5.315 -1.0293  1.3322 -0.2213
 1465TIP3   OH2 4358   3.656   6.009   1.790  0.2483  0.1281  0.3571
 1465TIP3    H1 4359   3.634   5.995   1.882 -2.0059  1.3143  0.0534
 1465TIP3    H2 4360   3.639   5.925   1.748 -2.4277  0.5706  0.4212
 1466TIP3   OH2 4361   6.422   0.979   0.457  0.2239 -0.6015  0.2137
 1466TIP3    H1 4362   6.503   1.012   0.495  1.1196 -0.2736 -1.8400
 1466TIP3    H2 4363   6.425   0.884   0.472  1.4794 -0.7240 -0.6460
 1467TIP3   OH2 4364   4.151   4.535   1.681 -0.4446 -0.3785 -0.6558
 1467TIP3    H1 4365   4.107   4.470   1.626 -1.6279  0.1623 -0.3732
 1467TIP3    H2 4366   4.084   4.599   1.702 -0.3218 -1.0203  2.1777
 1468TIP3   OH2 4367   2.948   4.283   3.442 -0.0121  0.0560 -0.1622
 1468TIP3    H1 4368   2.994   4.341   3.502  1.4601  0.6456 -1.7800
 1468TIP3    H2 4369   2.892   4.340   3.390  0.2466 -0.1501 -0.6848
 1469TIP3   OH2 4370   0.624   0.068   5.598  0.3398  0.0911 -0.1639
 1469TIP3    H1 4371   0.543   0.066   5.548  0.3044 -0.5989 -0.0943
 1469TIP3    H2 4372   0.596   0.089   5.687  0.0771 -1.3116  0.1152
 1470TIP3   OH2 4373   0.523   5.177   1.372 -0.0080 -0.2787 -0.6240
 1470TIP3    H1 4374   0.542   5.196   1.463  0.8299  1.8921 -1.2024
 1470TIP3    H2 4375   0.430   5.197   1.362 -0.2270 -1.0215 -0.1554
 1471TIP3   OH2 4376   5.038   2.374   2.312  0.6194  0.1089 -0.4175
 1471TIP3    H1 4377   5.064   2.465   2.297  1.4804  0.3329  1.9171
 1471TIP3    H2 4378   4.955   2.380   2.360  1.7282 -0.1885  1.6537
 1472TIP3   OH2 4379   3.946   1.118   1.974  0.0959 -0.0107  0.2109
 1472TIP3    H1 4380   3.902   1.034   1.991  0.9962 -0.7151 -0.8079
 1472TIP3    H2 4381   3.989   1.139   2.057  0.1705 -0.7655  0.3755
 1473TIP3   OH2 4382   3.144   2.635   2.925  0.6521 -0.1115 -0.2740
 1473TIP3    H1 4383   3.178   2.576   2.991  0.2188 -0.1102 -0.0468
 1473TIP3    H2 4384   3.202   2.623   2.850  1.3507  0.1369  0.2191
 1474TIP3   OH2 4385   3.976   5.825   2.339 -0.8228 -0.6754 -0.1067
 1474TIP3    H1 4386   4.039   5.822   2.267  0.9197  1.0812  1.2244
 1474TIP3    H2 4387   3.913   5.893   2.313 -0.8210 -0.8019 -0.4439
 1475TIP3   OH2 4388   3.797   2.566   5.168 -0.3063 -0.3999  0.4006
 1475TIP3    H1 4389   3.795   2.502   5.096 -1.2495  0.3016 -0.2165
 1475TIP3    H2 4390   3.716   2.551   5.216  0.5879 -1.2702  1.7361
 1476TIP3   OH2 4391   5.750   2.758   0.327  0.3029  0.2019  0.1852
 1476TIP3    H1 4392   5.753   2.663   0.317  0.1342  0.1805  0.3314
 1476TIP3    H2 4393   5.842   2.784   0.332  0.3646  0.1061 -0.3943
 1477TIP3   OH2 4394   4.237   1.379   1.596 -0.2561 -0.1689 -0.2938
 1477TIP3    H1 4395   4.158   1.411   1.553 -0.7864 -2.3902 -1.1076
 1477TIP3    H2 4396   4.205   1.324   1.667  0.5681 -0.5167 -0.1862
 1478TIP3   OH2 4397   0.081   2.509   2.844  0.2304  0.1580  0.0613
 1478TIP3    H1 4398   0.060   2.470   2.759 -0.3521  1.0396 -0.2107
 1478TIP3    H2 4399   0.177   2.513   2.845  0.2230  0.9701 -0.9474
 1479TIP3   OH2 4400   1.226   5.889   3.882  0.1358 -0.1415  0.3387
 1479TIP3    H1 4401   1.199   5.981   3.884 -2.6006 -0.8299 -1.0103
 1479TIP3    H2 4402   1.182   5.849   3.957  2.5922 -0.1425  1.8949
 1480TIP3   OH2 4403   4.789   0.594   3.742 -0.1890  0.2745  0.4657
 1480TIP3    H1 4404   4.822   0.504   3.747 -0.0364  0.2614 -0.6149
 1480TIP3    H2 4405   4.856   0.647   3.784 -0.7511 -0.2168  2.0387
 1481TIP3   OH2 4406   6.963   1.144   2.767 -0.7387 -0.0244 -0.2037
 1481TIP3    H1 4407   7.042   1.163   2.819 -0.7210 -3.6847  1.5098
 1481TIP3    H2 4408   6.891   1.162   2.827 -0.8043 -2.4514  0.5608
 1482TIP3   OH2 4409   1.463   3.454   2.358 -0.0087 -0.3633  0.7436
 1482TIP3    H1 4410   1.408   3.462   2.280  0.8248 -0.4257  0.1350
 1482TIP3    H2 4411   1.434   3.373   2.399  0.4351 -1.0311 -0.2260
 1483TIP3   OH2 4412   6.076   1.270   1.832 -0.0086 -0.3620 -0.0659
 1483TIP3    H1 4413   6.141   1.289   1.764 -0.6498  0.9180 -0.3623
 1483TIP3    H2 4414   5.992   1.290   1.790 -0.8003 -3.6133 -0.2692
 1484TIP3   OH2 4415   6.045   6.700   2.961 -0.1722 -0.8444  0.1985
 1484TIP3    H1 4416   6.064   6.769   3.024  0.1678 -1.4247  0.7500
 1484TIP3    H2 4417   5.993   6.742   2.893  0.5214  0.0778  0.2287
 1485TIP3   OH2 4418   2.682   1.153   0.311 -0.6847 -0.2435 -0.1487
 1485TIP3    H1 4419   2.717   1.199   0.235 -1.8884 -0.5839 -0.9407
 1485TIP3    H2 4420   2.673   1.221   0.378  0.5281  0.0294 -0.2352
 1486TIP3   OH2 4421   6.433   1.008   1.667 -0.3425  0.1005 -0.4552
 1486TIP3    H1 4422   6.351   0.986   1.712 -0.4699  3.0394  0.9667
 1486TIP3    H2 4423   6.450   1.099   1.690  3.1790 -0.2723 -1.0037
 1487TIP3   OH2 4424   2.055   1.718   0.757 -0.7101  0.3492  0.1386
 1487TIP3    H1 4425   1.996   1.792   0.773 -0.6296  0.4274  0.0726
 1487TIP3    H2 4426   2.009   1.642   0.795 -1.7786  0.0569 -1.6467
 1488TIP3   OH2 4427   4.629   5.870   4.326  0.4387 -0.0647 -0.3092
 1488TIP3    H1 4428   4.627   5.833   4.415  0.8690 -1.4339 -0.8406
 1488TIP3    H2 4429   4.682   5.808   4.276  3.2513  2.4632 -0.7592
 1489TIP3   OH2 4430   2.372   4.522   3.847  0.3034  0.4574  0.8350
 1489TIP3    H1 4431   2.332   4.505   3.933 -1.1480  2.4596  0.6348
 1489TIP3    H2 4432   2.326   4.464   3.787 -0.2139  0.6001  1.0887
 1490TIP3   OH2 4433   3.596   3.361   0.811 -0.3262 -0.6665  0.8939
 1490TIP3    H1 4434   3.534   3.432   0.829  0.4910  0.5515 -0.8049
 1490TIP3    H2 4435   3.601   3.312   0.893 -2.3397  0.1086  1.5396
 1491TIP3   OH2 4436   3.402   4.592   3.814 -0.8166  0.1827  0.0699
 1491TIP3    H1 4437   3.394   4.665   3.753 -0.8925  1.1571  1.2049
 1491TIP3    H2 4438   3.313   4.578   3.846 -0.6308  0.2893  0.6374
 1492TIP3   OH2 4439   4.882   4.549   5.419 -0.8792  0.2739  0.2682
 1492TIP3    H1 4440   4.845   4.568   5.333 -0.3606 -1.6700 -0.4341
 1492TIP3    H2 4441   4.954   4.611   5.428 -0.6238  0.1920 -0.9465
 1493TIP3   OH2 4442   5.975   0.744   0.021  0.1308  0.1012 -0.1333
 1493TIP3    H1 4443   5.965   0.688  -0.056  1.8003 -0.4895  0.0294
 1493TIP3    H2 4444   6.033   0.694   0.079 -0.7778  0.6974  1.3558
 1494TIP3   OH2 4445   6.815   6.500   2.755  0.1595  0.0194  0.5390
 1494TIP3    H1 4446   6.868   6.446   2.813 -0.8666 -1.1872  0.4009
 1494TIP3    H2 4447   6.877   6.535   2.691  0.6717 -2.2872 -0.3281
 1495TIP3   OH2 4448   4.036   5.318   5.883 -0.5159 -0.1600 -0.2991
 1495TIP3    H1 4449   3.945   5.319   5.851 -0.9369 -1.0415  0.7746
 1495TIP3    H2 4450   4.059   5.225   5.883 -0.9684 -0.3954  2.9538
 1496TIP3   OH2 4451   7.088   1.445   5.742 -0.0276 -0.0084  0.4174
 1496TIP3    H1 4452   7.007   1.432   5.693 -0.3038  1.6460  0.3549
 1496TIP3    H2 4453   7.086   1.538   5.765  3.0667  0.7749 -1.8447
 1497TIP3   OH2 4454   1.072   6.121   2.419  0.0274  0.1087  0.5405
 1497TIP3    H1 4455   1.052   6.199   2.471 -1.8629  0.0260  0.0352
 1497TIP3    H2 4456   1.017   6.131   2.340  0.1993 -1.4421  0.1996
 1498TIP3   OH2 4457   6.819   3.680   0.029  0.4728  0.8971 -0.6467
 1498TIP3    H1 4458   6.845   3.588   0.029  2.0289  1.2605  1.4602
 1498TIP3    H2 4459   6.859   3.716  -0.050  2.0069  0.2810 -0.1805
 1499TIP3   OH2 4460   5.003   3.061   5.223 -0.0660  0.6287  0.2444
 1499TIP3    H1 4461   5.050   3.110   5.156  1.8965 -0.6793  0.5703
 1499TIP3    H2 4462   5.011   3.114   5.302 -0.6040  1.1984 -0.0760
 1500TIP3   OH2 4463   6.262   3.740   1.419  0.5750  0.5730  0.6125
 1500TIP3    H1 4464   6.201   3.777   1.483 -1.5172 -1.4494 -0.0627
 1500TIP3    H2 4465   6.339   3.717   1.471 -1.3766 -1.8518  2.7405
 1501TIP3   OH2 4466   0.649   5.615   2.341  0.2328 -0.3315 -0.2683
 1501TIP3    H1 4467   0.575   5.595   2.399 -0.8878  1.4510 -0.9792
 1501TIP3    H2 4468   0.650   5.543   2.277  0.6790 -1.6381  1.1548
 1502TIP3   OH2 4469   1.741   4.153   1.933  0.4103 -0.3000  0.0780
 1502TIP3    H1 4470   1.683   4.079   1.915  0.1820 -0.0809 -0.1027
 1502TIP3    H2 4471   1.743   4.160   2.028 -0.4230  0.1211  0.0797
 1503TIP3   OH2 4472   1.568   3.680   3.640 -0.0868 -0.2444 -0.3540
 1503TIP3    H1 4473   1.497   3.741   3.660  0.5349  0.4919 -0.3418
 1503TIP3    H2 4474   1.525   3.595   3.631 -0.6197 -0.3801  2.5839
 1504TIP3   OH2 4475   0.918   4.767   1.759 -0.4300 -0.0867 -0.3232
 1504TIP3    H1 4476   0.842   4.765   1.702  0.3728 -0.6326 -1.4187
 1504TIP3    H2 4477   0.888   4.812   1.839 -1.7342  0.1547 -0.9301
 1505TIP3   OH2 4478   1.075   0.770   0.258 -0.5682 -0.1081  0.7391
 1505TIP3    H1 4479   1.044   0.801   0.343  0.6236  1.6856  0.5569
 1505TIP3    H2 4480   1.001   0.785   0.199 -1.1616 -0.7435  1.2954
 1506TIP3   OH2 4481   1.532   2.408   4.028 -0.4007  0.0572 -0.0486
 1506TIP3    H1 4482   1.564   2.322   4.001 -1.6137 -0.2189 -0.6670
 1506TIP3    H2 4483   1.558   2.467   3.957  0.9986  0.3570  0.6725
 1507TIP3   OH2 4484   1.982   0.944   2.004 -0.0847  0.0253 -0.0736
 1507TIP3    H1 4485   2.014   1.005   2.070  0.9122 -0.9245  0.3653
 1507TIP3    H2 4486   1.897   0.915   2.035  0.0348  0.1823  0.3977
 1508TIP3   OH2 4487   6.246   1.078   3.265  0.1140  0.2440  0.5080
 1508TIP3    H1 4488   6.233   1.165   3.304 -0.3266  0.7106 -0.6526
 1508TIP3    H2 4489   6.195   1.079   3.185  1.4178 -0.5103 -0.3739
 1509TIP3   OH2 4490   5.672   2.478   1.988 -0.1271 -0.3955  0.0396
 1509TIP3    H1 4491   5.677   2.408   2.054 -2.6861 -1.8668 -1.1744
 1509TIP3    H2 4492   5.593   2.526   2.010 -0.2667 -0.0531 -1.1375
 1510TIP3   OH2 4493   2.762   3.657   3.147 -0.0898 -0.3420 -0.2623
 1510TIP3    H1 4494   2.785   3.641   3.239 -1.7825  0.5843  0.3757
 1510TIP3    H2 4495   2.667   3.667   3.148 -0.1818 -0.6436 -2.1883
 1511TIP3   OH2 4496   5.916   5.134   3.340  0.1058  0.0618 -0.5186
 1511TIP3    H1 4497   5.997   5.107   3.382 -0.8901 -1.0278  0.7812
 1511TIP3    H2 4498   5.873   5.053   3.315 -1.2875  0.5435  0.2111
 1512TIP3   OH2 4499   3.125   6.585   0.948  0.0256 -0.4639 -0.0474
 1512TIP3    H1 4500   3.143   6.598   1.041 -0.2089 -0.5034  0.0032
 1512TIP3    H2 4501   3.060   6.651   0.926  1.2279  0.5993 -0.5558
 1513TIP3   OH2 4502   4.586   3.895   3.760  0.3455 -0.0012  0.2251
 1513TIP3    H1 4503   4.596   3.985   3.728  0.9749 -0.2971 -0.4497
 1513TIP3    H2 4504   4.535   3.851   3.693 -0.7413  0.0682  0.9884
 1514TIP3   OH2 4505   0.766   2.659   0.011 -0.1988  0.3548 -0.1705
 1514TIP3    H1 4506   0.824   2.713   0.065 -0.3033 -0.1718  0.4805
 1514TIP3    H2 4507   0.816   2.578  -0.002 -0.7901 -0.1154  0.4242
 1515TIP3   OH2 4508   3.228   1.745   0.488 -0.1543  0.0189 -0.1872
 1515TIP3    H1 4509   3.284   1.800   0.433  1.2501 -1.2778 -0.1053
 1515TIP3    H2 4510   3.223   1.661   0.442 -0.9779 -0.3029  0.4623
 1516TIP3   OH2 4511   2.416   4.684   5.540 -0.2212 -0.1296 -0.5374
 1516TIP3    H1 4512   2.321   4.669   5.541 -0.2447 -0.4370 -2.6531
 1516TIP3    H2 4513   2.454   4.597   5.528  0.3237  0.0177  0.0863
 1517TIP3   OH2 4514   0.044   0.110   3.817 -0.1452  0.3088 -0.0243
 1517TIP3    H1 4515   0.089   0.150   3.892 -1.0696  3.2478 -0.9009
 1517TIP3    H2 4516   0.115   0.075   3.763  0.7552  0.7695  0.8117
 1518TIP3   OH2 4517   6.434   1.522   4.006  0.3862 -0.3206  0.4125
 1518TIP3    H1 4518   6.401   1.455   4.066  1.2431  0.4464  1.7756
 1518TIP3    H2 4519   6.357   1.548   3.955 -0.4142 -0.8049  1.3380
 1519TIP3   OH2 4520   5.849   0.686   1.422 -0.3002 -0.2899 -0.1778
 1519TIP3    H1 4521   5.844   0.655   1.332  0.6202 -0.9302 -0.0262
 1519TIP3    H2 4522   5.929   0.737   1.425  0.8947 -2.1012  0.7766
 1520TIP3   OH2 4523   3.887   5.589   3.413 -0.1873 -0.0267 -0.0725
 1520TIP3    H1 4524   3.888   5.643   3.492  0.4883 -0.4779  0.2364
 1520TIP3    H2 4525   3.796   5.591   3.384 -0.1262  1.5282 -0.2448
 1521TIP3   OH2 4526   7.221   5.630   2.973  0.1539  0.3378  0.3334
 1521TIP3    H1 4527   7.156   5.605   2.907  0.1513 -0.3272  0.5782
 1521TIP3    H2 4528   7.193   5.717   3.003 -0.5142  0.1437  0.2977
 1522TIP3   OH2 4529   1.498   5.477   3.565 -0.1877  0.2537 -0.4543
 1522TIP3    H1 4530   1.543   5.542   3.619  0.5855  0.0081 -0.7920
 1522TIP3    H2 4531   1.539   5.394   3.586 -1.0702 -0.1167 -0.1422
 1523TIP3   OH2 4532   3.408   5.318   5.732 -0.1152 -0.0160  0.4322
 1523TIP3    H1 4533   3.378   5.398   5.687 -1.0015 -0.1208  0.8238
 1523TIP3    H2 4534   3.409   5.252   5.664 -0.6858  0.0171  0.3829
 1524TIP3   OH2 4535   5.426   5.910   1.572  0.0779  0.1497 -0.0576
 1524TIP3    H1 4536   5.356   5.970   1.544  0.7703  0.0676 -2.0925
 1524TIP3    H2 4537   5.450   5.863   1.493  1.0667 -1.2882  1.0516
 1525TIP3   OH2 4538   0.100   2.616   1.594 -0.3360 -0.3349 -0.4972
 1525TIP3    H1 4539   0.146   2.609   1.678  0.7103  0.7962 -0.9412
 1525TIP3    H2 4540   0.021   2.667   1.614 -0.7124 -1.0877  0.0035
 1526TIP3   OH2 4541   3.202   1.295   4.420  0.6586  0.4369 -0.5981
 1526TIP3    H1 4542   3.254   1.361   4.374  2.3453 -0.4871 -0.0793
 1526TIP3    H2 4543   3.112   1.329   4.415  1.2362  1.9539 -1.7396
 1527TIP3   OH2 4544   2.605   5.404   0.033  0.3988 -0.1350 -0.0488
 1527TIP3    H1 4545   2.596   5.499   0.020  0.2196 -0.0517  0.6550
 1527TIP3    H2 4546   2.522   5.377   0.072  0.6224 -0.4993  0.1800
 1528TIP3   OH2 4547   3.059   6.481   4.684  0.2895  0.1798 -0.5642
 1528TIP3    H1 4548   3.032   6.421   4.614 -0.1852 -2.2805  1.5871
 1528TIP3    H2 4549   2.982   6.488   4.741  1.4861 -0.1222  1.1608
 1529TIP3   OH2 4550   6.164   4.834   0.504 -0.1004 -0.5784  0.3329
 1529TIP3    H1 4551   6.187   4.843   0.597 -3.0812 -1.8233  1.3187
 1529TIP3    H2 4552   6.126   4.918   0.481 -2.5678 -1.3139  1.3738
 1530TIP3   OH2 4553   3.796   3.587   2.073  0.8506 -0.4927 -0.2396
 1530TIP3    H1 4554   3.888   3.564   2.061  0.9589 -0.6759  0.8736
 1530TIP3    H2 4555   3.749   3.504   2.068  0.6110 -0.3115 -1.7252
 1531TIP3   OH2 4556   4.416   4.588   0.756 -0.5956  0.3062 -0.0474
 1531TIP3    H1 4557   4.386   4.577   0.846  0.0465  1.5746  0.3352
 1531TIP3    H2 4558   4.456   4.674   0.754 -1.3819  0.6750 -1.7733
 1532TIP3   OH2 4559   3.286   1.233   1.338 -0.4466 -0.2729 -0.2673
 1532TIP3    H1 4560   3.195   1.211   1.322 -0.6371 -1.3730  1.9679
 1532TIP3    H2 4561   3.283   1.303   1.402  0.2835  0.0003 -0.5206
 1533TIP3   OH2 4562   5.511   2.158   1.235 -0.3735  0.3195  0.1037
 1533TIP3    H1 4563   5.564   2.079   1.219 -1.8931 -0.9696  1.1029
 1533TIP3    H2 4564   5.519   2.209   1.155  3.0428  0.6464  0.5013
 1534TIP3   OH2 4565   3.003   0.546   4.014  0.1428  0.0094  0.3928
 1534TIP3    H1 4566   2.926   0.497   3.984  1.0579  0.2137 -2.7423
 1534TIP3    H2 4567   3.004   0.623   3.958  2.0422  0.5457  1.1158
 1535TIP3   OH2 4568   0.169   6.048   5.439  0.1073 -0.2024  0.1705
 1535TIP3    H1 4569   0.138   5.969   5.483  0.6685 -0.5601 -0.0655
 1535TIP3    H2 4570   0.180   6.022   5.348 -2.6794  0.9679 -0.6091
 1536TIP3   OH2 4571   1.314   2.136   4.876  0.3902 -0.1392  0.5286
 1536TIP3    H1 4572   1.402   2.138   4.839  0.9159  0.7260  1.7725
 1536TIP3    H2 4573   1.258   2.113   4.802  1.5918 -0.1852 -0.4040
 1537TIP3   OH2 4574   5.591   4.315   1.439 -0.5792  0.0336  0.0329
 1537TIP3    H1 4575   5.513   4.366   1.462 -0.1072  0.5854  0.4411
 1537TIP3    H2 4576   5.652   4.329   1.512  0.0269 -0.1275 -0.4322
 1538TIP3   OH2 4577   1.832   3.335   1.497  0.0112  0.2704  0.2306
 1538TIP3    H1 4578   1.865   3.420   1.470  1.7995  0.1312  1.7705
 1538TIP3    H2 4579   1.737   3.341   1.485  0.0547  2.5787  0.5898
 1539TIP3   OH2 4580   5.297   2.583   4.871 -0.2512  0.1809  0.0378
 1539TIP3    H1 4581   5.333   2.495   4.865  0.1261  0.4194 -2.7270
 1539TIP3    H2 4582   5.202   2.570   4.878 -0.2121 -0.4515 -0.5591
 1540TIP3   OH2 4583   2.554   1.951   5.358 -0.1629 -0.5660  0.2224
 1540TIP3    H1 4584   2.637   1.960   5.404 -0.0158 -0.7990 -0.0002
 1540TIP3    H2 4585   2.530   2.041   5.335 -1.0674 -0.2394  2.1941
 1541TIP3   OH2 4586   6.002   4.036   0.544 -0.7171  0.1219 -0.0290
 1541TIP3    H1 4587   5.993   3.951   0.586  0.8948  0.9494  2.2124
 1541TIP3    H2 4588   5.952   4.096   0.599 -4.6124  0.3555 -3.2976
 1542TIP3   OH2 4589   6.045   0.889   2.619 -0.3808 -0.4230 -1.0467
 1542TIP3    H1 4590   5.993   0.899   2.539 -0.6704 -3.1092 -1.2781
 1542TIP3    H2 4591   6.080   0.800   2.614  0.1455 -0.4403  1.5196
 1543TIP3   OH2 4592   6.140   2.892   0.671  0.0539  0.1512 -0.2946
 1543TIP3    H1 4593   6.071   2.865   0.731  0.9521  0.3012  0.8585
 1543TIP3    H2 4594   6.113   2.860   0.586 -0.4583 -1.5814  0.4834
 1544TIP3   OH2 4595   5.618   5.123   2.610  0.8234 -0.6137  0.0828
 1544TIP3    H1 4596   5.604   5.171   2.691  4.1345 -0.6488  0.8027
 1544TIP3    H2 4597   5.641   5.034   2.639  0.1390 -1.1636 -1.0049
 1545TIP3   OH2 4598   2.685   1.602   3.884  0.1449  0.3005 -0.7113
 1545TIP3    H1 4599   2.595   1.572   3.898  0.4830 -0.6314 -0.4274
 1545TIP3    H2 4600   2.711   1.561   3.801 -0.0436  1.4383 -1.3509
 1546TIP3   OH2 4601   1.088   2.762   1.000  0.6332  0.1826  0.2725
 1546TIP3    H1 4602   1.144   2.838   1.014  0.9001  0.2384 -0.9677
 1546TIP3    H2 4603   1.144   2.697   0.959  0.0801 -0.1944  0.0932
 1547TIP3   OH2 4604   3.923   3.115   3.727  0.0883 -0.0536  0.3031
 1547TIP3    H1 4605   3.831   3.136   3.716  0.0653  0.7941  1.8338
 1547TIP3    H2 4606   3.968   3.167   3.660 -0.6381 -2.2259 -2.0431
 1548TIP3   OH2 4607   3.356   1.354   0.593  0.4149 -0.2895  0.1567
 1548TIP3    H1 4608   3.270   1.312   0.598 -0.2185  0.9418  0.0413
 1548TIP3    H2 4609   3.418   1.282   0.596 -0.6113 -1.1810  0.6395
 1549TIP3   OH2 4610   0.890   4.462   4.828  0.4331  0.0690 -0.1390
 1549TIP3    H1 4611   0.946   4.438   4.754 -0.2257 -0.7963 -0.3774
 1549TIP3    H2 4612   0.841   4.382   4.847 -2.2696  1.3322 -1.2970
 1550TIP3   OH2 4613   4.946   4.782   3.130  0.4628  0.1671  0.5332
 1550TIP3    H1 4614   4.852   4.777   3.110  0.0622 -0.2341  2.3649
 1550TIP3    H2 4615   4.982   4.701   3.095 -0.2666 -0.6511  1.5913
 1551TIP3   OH2 4616   4.866   0.368   0.576 -0.5192  0.1396  0.2391
 1551TIP3    H1 4617   4.772   0.355   0.589 -0.5478  1.0752  1.1689
 1551TIP3    H2 4618   4.903   0.366   0.664  0.4846 -1.1069 -0.1710
 1552TIP3   OH2 4619   3.693   4.767   2.876  0.6531 -0.0566 -0.1939
 1552TIP3    H1 4620   3.674   4.849   2.831 -2.6215  0.1510  1.2366
 1552TIP3    H2 4621   3.734   4.794   2.958 -0.8961  0.2934  0.5130
 1553TIP3   OH2 4622   4.367   4.457   3.639 -0.1843  0.2325  0.4309
 1553TIP3    H1 4623   4.388   4.548   3.616 -1.8595  0.6851  0.6162
 1553TIP3    H2 4624   4.330   4.420   3.559 -0.5373  0.0432  0.6820
 1554TIP3   OH2 4625   3.425   1.793   5.186 -0.1922 -0.4861 -0.3838
 1554TIP3    H1 4626   3.389   1.793   5.274 -1.1849  0.4924 -0.7510
 1554TIP3    H2 4627   3.518   1.775   5.197 -0.4740 -1.3406  0.7637
 1555TIP3   OH2 4628   0.354   3.378   0.022  0.8264 -0.3487 -0.5407
 1555TIP3    H1 4629   0.417   3.448   0.008  2.0610  0.3959  5.6049
 1555TIP3    H2 4630   0.271   3.413  -0.009  2.3678  0.9155 -3.7287
 1556TIP3   OH2 4631   2.506   6.050   1.451 -0.2731  0.0319 -0.7387
 1556TIP3    H1 4632   2.476   6.000   1.527 -0.9174  0.0889 -0.9488
 1556TIP3    H2 4633   2.589   6.010   1.426  0.4537  0.6461  0.5996
 1557TIP3   OH2 4634   6.980   0.206   4.658  0.0045  0.2837 -0.7309
 1557TIP3    H1 4635   6.898   0.159   4.675  0.4501  0.4171  2.3705
 1557TIP3    H2 4636   7.030   0.148   4.601 -2.0075 -0.0361 -2.2353
 1558TIP3   OH2 4637   0.702   6.277   5.863  0.6798  0.0729 -0.2229
 1558TIP3    H1 4638   0.709   6.250   5.771  3.2846  1.1387 -0.4364
 1558TIP3    H2 4639   0.654   6.360   5.860 -0.6977 -0.7131 -0.4060
 1559TIP3   OH2 4640   2.311   0.984   1.980  0.1175  0.7300  0.0005
 1559TIP3    H1 4641   2.257   1.016   2.051 -0.4522 -0.3138  0.0537
 1559TIP3    H2 4642   2.257   0.994   1.901  0.7585  1.9205 -0.3269
 1560TIP3   OH2 4643   6.075   6.558   0.351 -0.5270  1.0564 -0.3238
 1560TIP3    H1 4644   6.051   6.606   0.430 -0.7973  0.7230 -0.1970
 1560TIP3    H2 4645   6.022   6.478   0.355  1.1343 -0.0754  0.3539
 1561TIP3   OH2 4646   6.925   3.919   2.551 -0.5065  0.3879  0.3774
 1561TIP3    H1 4647   6.893   4.004   2.582  1.5324  1.2499  0.2681
 1561TIP3    H2 4648   6.962   3.937   2.465 -0.5056 -0.7321  0.1324
 1562TIP3   OH2 4649   4.897   2.741   5.794 -0.4344  0.0099 -0.0578
 1562TIP3    H1 4650   4.982   2.699   5.780 -0.1289  0.0779  1.4303
 1562TIP3    H2 4651   4.858   2.746   5.707  0.1947 -1.9312 -0.5064
 1563TIP3   OH2 4652   2.036   2.856   3.794  0.0280  0.0848 -0.5626
 1563TIP3    H1 4653   2.074   2.812   3.870 -0.4627  1.7683  0.7255
 1563TIP3    H2 4654   2.111   2.890   3.745  0.3595 -1.2519 -1.0144
 1564TIP3   OH2 4655   6.517   5.891   4.439 -0.7674  0.1267  0.2315
 1564TIP3    H1 4656   6.427   5.861   4.435 -1.1765  1.4308 -1.0586
 1564TIP3    H2 4657   6.513   5.985   4.420  0.9510  0.0154 -0.9637
 1565TIP3   OH2 4658   0.872   6.010   4.095  0.4113 -0.0458 -0.1442
 1565TIP3    H1 4659   0.901   6.052   4.015  0.4571  1.1340  0.4715
 1565TIP3    H2 4660   0.803   6.067   4.130  1.5164  0.3786  1.4883
 1566TIP3   OH2 4661   3.275   1.597   2.291 -0.0746  0.2671  0.4355
 1566TIP3    H1 4662   3.295   1.506   2.316 -0.9783 -0.7199 -2.0344
 1566TIP3    H2 4663   3.348   1.648   2.325  0.6765 -1.4530  1.5520
 1567TIP3   OH2 4664   1.530   6.440   0.900 -0.0969 -0.5307  0.0481
 1567TIP3    H1 4665   1.496   6.464   0.814 -1.2046  2.8254  1.2610
 1567TIP3    H2 4666   1.597   6.506   0.918  0.0889 -1.1467  1.7772
 1568TIP3   OH2 4667   2.493   6.392   4.016 -0.0387  0.5175 -0.5113
 1568TIP3    H1 4668   2.469   6.304   4.044 -2.1914  0.4327 -2.3401
 1568TIP3    H2 4669   2.504   6.385   3.921  2.0379  1.7991 -0.4348
 1569TIP3   OH2 4670   0.833   1.859   3.984  0.3202 -0.2883  0.2483
 1569TIP3    H1 4671   0.797   1.840   3.898  0.2365 -1.4719  0.5205
 1569TIP3    H2 4672   0.829   1.775   4.031  0.1449  0.3798  1.4822
 1570TIP3   OH2 4673   0.537   3.540   3.532 -0.1414 -0.2036  0.5000
 1570TIP3    H1 4674   0.511   3.618   3.484  2.4078  0.4380 -0.0119
 1570TIP3    H2 4675   0.530   3.565   3.624  0.1376  0.4532  0.3512
 1571TIP3   OH2 4676   1.193   6.337   0.558 -0.5279 -0.5714 -0.3777
 1571TIP3    H1 4677   1.146   6.391   0.621 -0.1474 -0.4863 -0.1605
 1571TIP3    H2 4678   1.151   6.354   0.474 -0.2080  0.3060 -0.3646
 1572TIP3   OH2 4679   6.228   4.171   2.133 -0.3054  0.2776  0.4885
 1572TIP3    H1 4680   6.294   4.201   2.071  0.8535 -1.3102  0.9004
 1572TIP3    H2 4681   6.274   4.163   2.216 -0.9870 -0.9515  0.7668
 1573TIP3   OH2 4682   2.336   1.823   5.470  0.4994  0.5854  0.8928
 1573TIP3    H1 4683   2.402   1.819   5.539  3.1069  1.1732 -1.3798
 1573TIP3    H2 4684   2.382   1.864   5.396 -1.7677 -0.9927 -1.5418
 1574TIP3   OH2 4685   1.214   5.934   4.895  0.1039 -0.4615  0.5094
 1574TIP3    H1 4686   1.201   5.863   4.958 -0.8345 -1.7477 -1.0519
 1574TIP3    H2 4687   1.235   6.010   4.949  1.1307 -1.9001  2.2489
 1575TIP3   OH2 4688   5.260   5.881   3.397 -0.1123 -0.4567 -0.4163
 1575TIP3    H1 4689   5.302   5.943   3.456 -0.8233 -0.5261  0.1702
 1575TIP3    H2 4690   5.280   5.914   3.309  0.1492  0.1800 -0.1239
 1576TIP3   OH2 4691   0.040   0.565   3.705 -0.3275  0.3565  0.0745
 1576TIP3    H1 4692   0.092   0.485   3.703 -0.7024  0.1274 -1.2194
 1576TIP3    H2 4693   0.103   0.636   3.689  0.3628  0.5819  3.1701
 1577TIP3   OH2 4694   5.321   0.425   3.759 -0.5691 -0.3182 -0.5236
 1577TIP3    H1 4695   5.267   0.366   3.706 -0.5704  0.0640 -0.9483
 1577TIP3    H2 4696   5.298   0.513   3.730  0.1435 -0.1429 -0.5842
 1578TIP3   OH2 4697   2.121   1.648   4.372 -0.5540  0.5169  0.6831
 1578TIP3    H1 4698   2.080   1.572   4.413  1.8063 -0.7102  0.9582
 1578TIP3    H2 4699   2.195   1.611   4.323 -2.5520  1.9973 -3.9356
 1579TIP3   OH2 4700   2.486   6.096   1.952  0.4130  0.7263 -0.5275
 1579TIP3    H1 4701   2.549   6.132   1.890  2.3677  0.1556  1.0294
 1579TIP3    H2 4702   2.486   6.158   2.025  2.1188 -1.1198  1.1679
 1580TIP3   OH2 4703   2.346   2.214   5.519  0.5309 -0.0819  0.4770
 1580TIP3    H1 4704   2.416   2.211   5.454 -1.6544 -0.0189 -2.0460
 1580TIP3    H2 4705   2.293   2.290   5.494 -0.0177  0.3920  2.8304
 1581TIP3   OH2 4706   1.813   5.921   5.880  0.5297 -0.3372 -0.7513
 1581TIP3    H1 4707   1.906   5.903   5.889  0.5340  0.2637  0.5899
 1581TIP3    H2 4708   1.774   5.837   5.858  1.2740 -0.7711 -0.4336
 1582TIP3   OH2 4709   3.584   2.415   4.168 -0.3051 -0.3208  0.3984
 1582TIP3    H1 4710   3.606   2.418   4.261 -1.4385 -0.4891  0.6949
 1582TIP3    H2 4711   3.555   2.325   4.153  1.1183 -0.6665 -0.4448
 1583TIP3   OH2 4712   0.321   5.025   3.088  0.2972 -0.1601  0.5669
 1583TIP3    H1 4713   0.256   5.056   3.024  0.5822  1.2077  0.8928
 1583TIP3    H2 4714   0.381   5.099   3.097  1.7166 -1.2618  0.5332
 1584TIP3   OH2 4715   4.602   2.414   1.655  0.4669 -0.1146 -0.0319
 1584TIP3    H1 4716   4.639   2.417   1.566  1.0041  1.1295  0.2096
 1584TIP3    H2 4717   4.543   2.490   1.659  0.8718  0.1691  0.8409
 1585TIP3   OH2 4718   4.468   3.577   4.379  0.6964  0.2236  0.0038
 1585TIP3    H1 4719   4.477   3.495   4.330  2.0843  0.7326 -0.6473
 1585TIP3    H2 4720   4.392   3.620   4.339 -0.7075 -1.1831  1.0558
 1586TIP3   OH2 4721   1.246   1.495   0.562 -0.4292 -0.1936 -0.0255
 1586TIP3    H1 4722   1.306   1.560   0.599 -0.7569  1.3180 -1.9603
 1586TIP3    H2 4723   1.196   1.543   0.496 -1.0251 -2.3224 -1.2318
 1587TIP3   OH2 4724   4.481   4.762   4.185  0.4651  0.6397 -0.3436
 1587TIP3    H1 4725   4.479   4.722   4.098 -1.6503 -1.1679  0.4560
 1587TIP3    H2 4726   4.398   4.808   4.193 -0.0952 -0.5409  1.2497
 1588TIP3   OH2 4727   4.526   6.492   2.058  0.2790 -0.4030 -0.8746
 1588TIP3    H1 4728   4.606   6.479   2.006  1.0992  2.1213 -0.3795
 1588TIP3    H2 4729   4.551   6.557   2.124 -2.2341  0.6146 -0.8190
 1589TIP3   OH2 4730   1.711   3.205   4.927 -0.0069 -0.4367 -0.1114
 1589TIP3    H1 4731   1.703   3.198   5.022 -0.2140  0.4372 -0.0567
 1589TIP3    H2 4732   1.769   3.280   4.913 -1.3354  0.5096 -0.6917
 1590TIP3   OH2 4733   1.493   3.062   1.564 -0.0365 -0.5312  0.1762
 1590TIP3    H1 4734   1.422   3.046   1.627  0.4080 -1.7991  0.3655
 1590TIP3    H2 4735   1.448   3.068   1.479 -0.5409  0.3349  0.4874
 1591TIP3   OH2 4736   2.194   4.786   1.492 -0.4690 -0.0572  0.7683
 1591TIP3    H1 4737   2.103   4.793   1.465  0.0817  2.6517 -0.8147
 1591TIP3    H2 4738   2.218   4.875   1.517  1.8665 -0.5816  0.6316
 1592TIP3   OH2 4739   4.226   4.849   4.208  0.3474  0.2375 -0.0793
 1592TIP3    H1 4740   4.215   4.927   4.155  0.0606  0.9581  0.9980
 1592TIP3    H2 4741   4.188   4.873   4.293  1.0446 -0.7744  0.5335
 1593TIP3   OH2 4742   3.288   5.945   2.485 -0.3880 -0.1976  0.3417
 1593TIP3    H1 4743   3.373   5.904   2.472  0.2720  1.5022 -1.0473
 1593TIP3    H2 4744   3.237   5.880   2.533  0.9922 -2.0990 -0.6537
 1594TIP3   OH2 4745   6.606   0.284   3.917 -0.3894 -0.1378  0.7395
 1594TIP3    H1 4746   6.518   0.252   3.898 -0.5761  0.4391  0.6131
 1594TIP3    H2 4747   6.664   0.226   3.867 -0.6540 -0.8631  1.2551
 1595TIP3   OH2 4748   2.658   3.672   0.152  0.0897  0.1712  0.0317
 1595TIP3    H1 4749   2.565   3.661   0.131  0.5075 -1.8384 -1.0031
 1595TIP3    H2 4750   2.704   3.631   0.079  1.7619 -0.4812  1.3763
 1596TIP3   OH2 4751   5.479   3.688   1.739  0.1344  0.3238 -0.2953
 1596TIP3    H1 4752   5.428   3.650   1.668 -0.4205  1.8943 -0.7701
 1596TIP3    H2 4753   5.414   3.711   1.806  0.1986  2.1559 -0.8201
 1597TIP3   OH2 4754   4.679   2.139   2.659  0.0921 -0.0024 -0.4258
 1597TIP3    H1 4755   4.712   2.074   2.597 -0.5520  0.2708 -1.0569
 1597TIP3    H2 4756   4.753   2.155   2.718 -0.1871 -2.4262  0.6836
 1598TIP3   OH2 4757   5.404   5.048   2.475  0.9008  0.3619 -0.5445
 1598TIP3    H1 4758   5.493   5.060   2.507  0.5907  0.1005  0.4560
 1598TIP3    H2 4759   5.406   4.965   2.428  1.3327  0.6949 -1.1459
 1599TIP3   OH2 4760   1.128   5.700   3.649 -0.3444  0.3559  0.6150
 1599TIP3    H1 4761   1.195   5.720   3.714 -0.6280 -0.8876  1.3117
 1599TIP3    H2 4762   1.164   5.628   3.598 -0.3634  0.9505 -0.2555
 1600TIP3   OH2 4763   3.123   2.607   1.374  0.1335  0.1002  0.0599
 1600TIP3    H1 4764   3.072   2.624   1.453  0.3474 -0.2408  0.2732
 1600TIP3    H2 4765   3.105   2.516   1.353 -1.5581  0.7284 -1.4711
 1601TIP3   OH2 4766   2.989   4.312   2.661 -0.1259  0.7816 -0.1396
 1601TIP3    H1 4767   2.894   4.299   2.655 -0.2777  2.3100 -2.0655
 1601TIP3    H2 4768   3.023   4.226   2.684 -1.4958 -1.8631 -6.1122
 1602TIP3   OH2 4769   2.372   1.150   0.647  0.0480 -0.3166 -0.0607
 1602TIP3    H1 4770   2.393   1.224   0.703 -0.3493  0.0385 -0.3771
 1602TIP3    H2 4771   2.336   1.084   0.707  0.7658 -0.4084  0.2774
 1603TIP3   OH2 4772   6.091   1.280   3.395 -0.0673  1.0235 -0.1914
 1603TIP3    H1 4773   6.025   1.316   3.335 -0.9589 -0.4376 -0.1480
 1603TIP3    H2 4774   6.048   1.203   3.434  0.9659  1.1669  1.3360
 1604TIP3   OH2 4775   0.549   3.596   5.251  0.1779 -0.1427 -0.3120
 1604TIP3    H1 4776   0.493   3.573   5.325  0.3311 -1.0907 -0.4837
 1604TIP3    H2 4777   0.489   3.604   5.177  0.3786 -2.5902 -0.8175
 1605TIP3   OH2 4778   0.419   3.553   4.800 -0.1299 -0.2514 -0.3282
 1605TIP3    H1 4779   0.349   3.610   4.770 -1.5127 -1.2162  0.9508
 1605TIP3    H2 4780   0.398   3.467   4.765  1.4003 -0.2314 -1.4022
 1606TIP3   OH2 4781   4.780   5.062   1.327 -0.2917  0.2417 -0.2192
 1606TIP3    H1 4782   4.843   5.014   1.273 -0.8439 -0.3006 -0.3936
 1606TIP3    H2 4783   4.831   5.133   1.367  0.7797 -1.0312  0.7869
 1607TIP3   OH2 4784   5.668   3.249   3.116  0.0489 -0.0841 -0.0966
 1607TIP3    H1 4785   5.659   3.336   3.154 -0.2711  0.0569 -0.4836
 1607TIP3    H2 4786   5.603   3.196   3.163 -0.2875  0.0690 -0.3893
 1608TIP3   OH2 4787   6.333   3.397   3.157  0.4031  0.3656 -0.0505
 1608TIP3    H1 4788   6.267   3.331   3.176  0.6640 -0.1204 -0.7734
 1608TIP3    H2 4789   6.398   3.351   3.103  2.0889  0.4106  1.8012
 1609TIP3   OH2 4790   6.825   5.320   2.734  0.1762  0.1869 -0.6742
 1609TIP3    H1 4791   6.839   5.395   2.792 -0.2845  0.3476 -0.7655
 1609TIP3    H2 4792   6.847   5.352   2.647 -3.6742  1.4611 -1.3681
 1610TIP3   OH2 4793   3.929   1.386   5.717  0.4086 -0.1689  0.0272
 1610TIP3    H1 4794   3.965   1.300   5.738  0.5533  0.1149  1.0282
 1610TIP3    H2 4795   4.002   1.447   5.731  0.5931  0.0228 -1.6580
 1611TIP3   OH2 4796   4.355   0.590   5.224  0.4470 -0.0855  0.2774
 1611TIP3    H1 4797   4.281   0.590   5.163  0.7916 -2.6451 -0.2442
 1611TIP3    H2 4798   4.405   0.668   5.201 -0.6682  0.2441 -1.1736
 1612TIP3   OH2 4799   4.867   2.593   3.914  0.0445 -0.1706  0.1908
 1612TIP3    H1 4800   4.865   2.533   3.989  0.8653 -0.0814  0.2945
 1612TIP3    H2 4801   4.853   2.680   3.952 -2.4305 -0.3742 -0.0989
 1613TIP3   OH2 4802   6.652   1.664   2.894  0.1627  0.1969  0.0962
 1613TIP3    H1 4803   6.678   1.573   2.880 -0.5059 -0.0305  0.2904
 1613TIP3    H2 4804   6.563   1.658   2.930 -0.5144  0.9647 -1.3532
 1614TIP3   OH2 4805   5.923   4.336   1.375 -0.2037  0.7518 -0.0654
 1614TIP3    H1 4806   5.857   4.332   1.444 -0.5111  0.5657 -0.3668
 1614TIP3    H2 4807   5.997   4.383   1.415  0.3293 -0.8506  0.9662
 1615TIP3   OH2 4808   5.159   6.525   0.895 -0.0668  0.1979  0.0702
 1615TIP3    H1 4809   5.127   6.478   0.819  0.3672  1.6772 -1.0758
 1615TIP3    H2 4810   5.167   6.458   0.963 -4.5235 -0.5258  0.2131
 1616TIP3   OH2 4811   2.182   2.972   1.604  0.4566  0.1306  0.4527
 1616TIP3    H1 4812   2.239   3.047   1.622  1.0130 -0.1816  0.0390
 1616TIP3    H2 4813   2.242   2.902   1.578 -0.0601 -0.4315  0.7337
 1617TIP3   OH2 4814   6.502   1.707   4.966 -0.0122 -0.3226  0.2931
 1617TIP3    H1 4815   6.576   1.715   5.026 -0.6584  2.0354  0.8664
 1617TIP3    H2 4816   6.425   1.713   5.023 -0.6389  1.4868 -0.6797
 1618TIP3   OH2 4817   6.710   1.323   0.489  0.1631 -0.2885 -0.4079
 1618TIP3    H1 4818   6.625   1.344   0.529 -0.3780 -0.9232 -1.1798
 1618TIP3    H2 4819   6.697   1.236   0.451  1.0461 -0.2239 -0.8634
 1619TIP3   OH2 4820   6.816   1.940   0.990 -0.4918  0.1812  0.1058
 1619TIP3    H1 4821   6.730   1.912   1.020 -0.7652  1.0704  0.1663
 1619TIP3    H2 4822   6.871   1.937   1.069 -0.5081 -0.1847  0.1081
 1620TIP3   OH2 4823   6.870   2.395   4.698 -0.1633  0.1601  0.3007
 1620TIP3    H1 4824   6.944   2.399   4.638 -0.5391  0.7891 -0.1407
 1620TIP3    H2 4825   6.819   2.320   4.668 -0.5403  0.6828 -0.4207
 1621TIP3   OH2 4826   6.288   5.255   2.501  0.5344 -0.2502 -0.0511
 1621TIP3    H1 4827   6.332   5.336   2.527  1.2636 -0.7330  0.2652
 1621TIP3    H2 4828   6.197   5.280   2.489  0.6583  0.5221  0.5120
 1622TIP3   OH2 4829   1.899   1.383   3.195  0.4823 -0.6801  0.0711
 1622TIP3    H1 4830   1.834   1.450   3.215  0.5495 -0.7460  0.5159
 1622TIP3    H2 4831   1.973   1.404   3.251  0.2789 -1.4701  0.6604
 1623TIP3   OH2 4832   1.060   3.104   3.178 -0.0720 -0.5911  0.5114
 1623TIP3    H1 4833   1.147   3.139   3.159 -1.3395  2.7187  0.2535
 1623TIP3    H2 4834   1.016   3.101   3.094 -0.5667 -1.2832  0.7847
 1624TIP3   OH2 4835   3.833   2.969   3.421  0.2031  0.1075 -0.3120
 1624TIP3    H1 4836   3.909   2.949   3.366  1.2797  0.1188  1.1363
 1624TIP3    H2 4837   3.760   2.926   3.377  1.3333 -1.3846 -0.8045
 1625TIP3   OH2 4838   3.451   0.483   0.587 -0.2440  0.4257 -0.1455
 1625TIP3    H1 4839   3.491   0.423   0.524 -0.7421  0.9921 -1.0404
 1625TIP3    H2 4840   3.485   0.456   0.672 -1.4316 -1.9322 -0.3488
 1626TIP3   OH2 4841   3.482   5.503   3.570 -0.0008 -0.2897 -0.2167
 1626TIP3    H1 4842   3.518   5.570   3.512 -0.0052  0.3722  0.5315
 1626TIP3    H2 4843   3.511   5.528   3.658  1.4948 -2.2494 -0.0874
 1627TIP3   OH2 4844   1.387   0.234   1.229  0.0024 -0.2628  0.2492
 1627TIP3    H1 4845   1.332   0.178   1.284 -1.1118  0.0358 -0.5272
 1627TIP3    H2 4846   1.403   0.183   1.151  0.5403 -0.2098  0.3248
 1628TIP3   OH2 4847   4.001   4.763   1.632  0.1028  0.3155 -0.0576
 1628TIP3    H1 4848   3.995   4.858   1.641  0.6255  0.2096  1.6964
 1628TIP3    H2 4849   3.925   4.740   1.578 -0.5726  1.6356  0.2652
 1629TIP3   OH2 4850   6.798   1.278   2.929 -0.3017 -0.2013 -0.3369
 1629TIP3    H1 4851   6.702   1.288   2.927 -0.4950 -1.8413 -0.4332
 1629TIP3    H2 4852   6.823   1.306   3.017 -0.7770  0.8257 -0.5080
 1630TIP3   OH2 4853   3.352   4.680   4.601  0.2942  0.4371  0.5910
 1630TIP3    H1 4854   3.327   4.618   4.670 -1.2238  0.6258  0.2574
 1630TIP3    H2 4855   3.279   4.677   4.539  2.0443 -0.4644 -1.5501
 1631TIP3   OH2 4856   5.786   2.768   3.367 -0.1346  0.4377  0.2374
 1631TIP3    H1 4857   5.811   2.705   3.300 -1.7413  0.0969 -0.0802
 1631TIP3    H2 4858   5.855   2.835   3.365  0.0864  0.1891 -1.4167
 1632TIP3   OH2 4859   3.623   0.828   0.438 -0.8412 -0.5744  0.2007
 1632TIP3    H1 4860   3.629   0.918   0.404 -0.0668 -0.1596  1.3701
 1632TIP3    H2 4861   3.620   0.773   0.360 -0.5290  0.4226 -0.5330
 1633TIP3   OH2 4862   2.134   1.274   2.586  0.6252  0.4550  0.0667
 1633TIP3    H1 4863   2.089   1.195   2.616  1.1712  0.3978  0.7519
 1633TIP3    H2 4864   2.138   1.330   2.663  1.6056  0.5173 -0.0182
 1634TIP3   OH2 4865   0.490   4.099   1.126  0.2024  0.1827 -0.7635
 1634TIP3    H1 4866   0.579   4.123   1.100 -0.0979  0.6684 -1.3720
 1634TIP3    H2 4867   0.434   4.152   1.070 -0.4775  1.1833  0.7847
 1635TIP3   OH2 4868   3.171   4.514   3.959  0.4419  0.2085 -0.7196
 1635TIP3    H1 4869   3.230   4.442   3.981 -0.4924 -0.8012 -1.4735
 1635TIP3    H2 4870   3.096   4.473   3.918  0.1592  1.6720 -1.7408
 1636TIP3   OH2 4871   3.216   6.327   5.625  0.2703  0.4777  0.0912
 1636TIP3    H1 4872   3.134   6.374   5.642 -0.6844 -1.0764  0.0237
 1636TIP3    H2 4873   3.199   6.278   5.544  0.7898 -0.8378  0.7444
 1637TIP3   OH2 4874   4.513   4.396   4.544 -0.5222  0.4269  0.0173
 1637TIP3    H1 4875   4.473   4.481   4.529 -2.5603 -0.5605 -0.5759
 1637TIP3    H2 4876   4.504   4.382   4.639 -0.2910  0.8031  0.0970
 1638TIP3   OH2 4877   0.987   1.465   1.863  0.6149  0.3017  0.0393
 1638TIP3    H1 4878   1.052   1.503   1.923 -0.6047 -0.4375  1.9195
 1638TIP3    H2 4879   0.998   1.371   1.874 -0.0442  0.1678 -0.4505
 1639TIP3   OH2 4880   6.186   6.001   3.453 -0.6089 -0.1202 -0.1324
 1639TIP3    H1 4881   6.269   6.038   3.424 -0.6396 -0.4858 -0.6953
 1639TIP3    H2 4882   6.152   5.954   3.377 -1.8804  0.9760 -0.2919
 1640TIP3   OH2 4883   3.532   2.737   3.071  0.4242 -0.2676 -0.3756
 1640TIP3    H1 4884   3.614   2.772   3.106 -0.0226 -0.2752  0.7082
 1640TIP3    H2 4885   3.472   2.738   3.145 -0.4014 -0.7786 -1.0222
 1641TIP3   OH2 4886   5.584   1.372   1.505 -0.0361 -0.3880 -0.1844
 1641TIP3    H1 4887   5.674   1.406   1.506 -0.2289  0.1869 -1.2769
 1641TIP3    H2 4888   5.595   1.278   1.488  0.4631 -0.8260  2.1893
 1642TIP3   OH2 4889   3.804   0.665   2.403 -0.1342  0.0106  0.3205
 1642TIP3    H1 4890   3.838   0.648   2.491 -0.0576  1.1827  0.5433
 1642TIP3    H2 4891   3.709   0.667   2.414 -0.2344 -1.6172  0.0131
 1643TIP3   OH2 4892   0.742   1.922   2.855 -0.1348  0.7568  0.1203
 1643TIP3    H1 4893   0.724   1.898   2.764 -0.7284 -0.3949  0.5103
 1643TIP3    H2 4894   0.782   1.844   2.893  3.3716  2.3357  0.0127
 1644TIP3   OH2 4895   5.223   2.894   5.207  0.3851 -0.5074  0.1455
 1644TIP3    H1 4896   5.153   2.960   5.202 -0.8655 -1.8553 -2.9732
 1644TIP3    H2 4897   5.234   2.877   5.300 -1.4147  1.8597  0.8789
 1645TIP3   OH2 4898   6.956   0.844   3.331 -0.7390  0.3940  0.5008
 1645TIP3    H1 4899   6.973   0.887   3.247 -0.1966  0.9528  0.8898
 1645TIP3    H2 4900   6.885   0.782   3.312 -0.2988  0.1646 -0.4809
 1646TIP3   OH2 4901   2.402   3.841   2.383 -0.3045  0.1808  0.0359
 1646TIP3    H1 4902   2.390   3.782   2.309 -0.5618 -1.4178  1.3091
 1646TIP3    H2 4903   2.340   3.811   2.449 -0.7949  2.1974  0.5747
 1647TIP3   OH2 4904   6.445   5.785   0.722 -0.2307  0.3539 -0.4344
 1647TIP3    H1 4905   6.408   5.858   0.772 -2.2362 -0.2902 -0.8586
 1647TIP3    H2 4906   6.464   5.823   0.636  1.3199  0.9768  0.1427
 1648TIP3   OH2 4907   5.338   1.771   1.562 -0.5891 -0.1712 -0.2774
 1648TIP3    H1 4908   5.265   1.829   1.540  0.0921  0.6992 -0.3407
 1648TIP3    H2 4909   5.344   1.710   1.489 -0.7970  0.2094 -0.6157
 1649TIP3   OH2 4910   5.823   1.106   5.584  0.0670  0.5195 -0.2445
 1649TIP3    H1 4911   5.818   1.013   5.561  1.2204  0.2968  0.3591
 1649TIP3    H2 4912   5.741   1.124   5.629  0.0605 -0.3404  0.1038
 1650TIP3   OH2 4913   3.281   0.091   2.372  0.1051 -0.5232 -0.1983
 1650TIP3    H1 4914   3.238   0.047   2.445  1.6044 -0.4758  0.7457
 1650TIP3    H2 4915   3.328   0.022   2.326 -1.2971 -0.6617 -1.5239
 1651TIP3   OH2 4916   1.138   3.478   3.528 -0.3680 -0.1477  0.0095
 1651TIP3    H1 4917   1.194   3.411   3.489  0.1186 -0.8079  1.7412
 1651TIP3    H2 4918   1.061   3.431   3.558 -1.6627  0.6668 -1.8237
 1652TIP3   OH2 4919   3.252   6.142   0.684  0.1312  0.2273 -0.1930
 1652TIP3    H1 4920   3.325   6.180   0.636 -0.0578  0.3664 -0.3695
 1652TIP3    H2 4921   3.233   6.205   0.754  0.5508 -0.0803  0.2041
 1653TIP3   OH2 4922   5.050   4.092   1.444 -0.0985  0.0491 -0.1253
 1653TIP3    H1 4923   5.111   4.026   1.476 -1.0162 -1.1831 -0.8190
 1653TIP3    H2 4924   4.974   4.084   1.502 -0.0397  0.8395  0.0803
 1654TIP3   OH2 4925   0.371   0.158   5.852 -0.2755  0.5355 -0.3995
 1654TIP3    H1 4926   0.441   0.094   5.865 -0.6976  0.0191 -0.6485
 1654TIP3    H2 4927   0.305   0.112   5.801 -0.9667  0.9005  0.1517
 1655TIP3   OH2 4928   2.608   5.501   4.357 -0.7638 -0.1190 -0.8104
 1655TIP3    H1 4929   2.625   5.427   4.299 -0.9054  1.3040 -2.7339
 1655TIP3    H2 4930   2.610   5.462   4.445 -0.8178 -2.3836 -1.7347
 1656TIP3   OH2 4931   6.445   2.006   0.259 -0.5247 -0.1948  0.1873
 1656TIP3    H1 4932   6.391   1.965   0.327  0.3260 -0.7120  0.5634
 1656TIP3    H2 4933   6.474   1.933   0.204  1.4719 -0.2210  1.1945
 1657TIP3   OH2 4934   6.159   0.541   4.548  0.8328 -0.1499 -0.1143
 1657TIP3    H1 4935   6.193   0.516   4.462  2.3189  1.7681 -0.1731
 1657TIP3    H2 4936   6.120   0.461   4.583  1.7243 -1.4149 -1.8490
 1658TIP3   OH2 4937   3.595   3.726   4.297 -0.0898  0.2239  0.0825
 1658TIP3    H1 4938   3.579   3.749   4.205  0.6314  0.3185 -0.0279
 1658TIP3    H2 4939   3.511   3.694   4.329 -0.5407  0.9045 -0.4005
 1659TIP3   OH2 4940   4.406   3.416   1.302  0.0568 -0.9073  0.5166
 1659TIP3    H1 4941   4.458   3.353   1.352  0.5737  0.5546  1.9110
 1659TIP3    H2 4942   4.317   3.405   1.335 -0.2429 -2.1836 -0.6142
 1660TIP3   OH2 4943   2.966   4.343   1.385  0.0603  0.3638 -0.9757
 1660TIP3    H1 4944   3.011   4.426   1.369  0.1914  0.8359  1.4535
 1660TIP3    H2 4945   2.970   4.331   1.479 -1.9802 -1.2807 -1.0108
 1661TIP3   OH2 4946   5.781   1.014   1.254  0.7621  0.2241 -0.0437
 1661TIP3    H1 4947   5.691   0.981   1.261  1.1316 -1.2038 -1.4660
 1661TIP3    H2 4948   5.817   1.005   1.342  0.1583 -1.1506  0.0800
 1662TIP3   OH2 4949   6.887   6.433   1.078  0.2129 -0.1967 -0.1428
 1662TIP3    H1 4950   6.870   6.393   0.993  0.1920  0.0443 -0.2535
 1662TIP3    H2 4951   6.878   6.527   1.062 -0.2559 -0.1772  0.2336
 1663TIP3   OH2 4952   5.350   5.577   2.307 -0.1023 -0.7518 -0.3298
 1663TIP3    H1 4953   5.326   5.527   2.230  1.8371  0.0823 -1.5707
 1663TIP3    H2 4954   5.370   5.511   2.374 -0.8085 -1.5112 -0.8527
 1664TIP3   OH2 4955   6.752   6.632   0.188 -0.1659 -0.3525  0.0578
 1664TIP3    H1 4956   6.688   6.698   0.161  1.3628  0.6935 -1.2382
 1664TIP3    H2 4957   6.827   6.683   0.219  0.4259 -1.5189  0.6218
 1665TIP3   OH2 4958   6.286   1.010   2.124 -0.0396 -0.7524 -0.2460
 1665TIP3    H1 4959   6.321   0.941   2.181 -0.5646 -1.6863 -1.0056
 1665TIP3    H2 4960   6.307   1.092   2.169  1.7219 -1.3321  0.0756
 1666TIP3   OH2 4961   6.729   2.951   0.677  0.5965  0.1231  0.3818
 1666TIP3    H1 4962   6.750   2.997   0.596 -0.7467  1.7022  0.8782
 1666TIP3    H2 4963   6.661   3.004   0.718  1.2655 -0.5846  2.5720
 1667TIP3   OH2 4964   2.216   3.184   4.753 -0.3915  0.9515  0.1596
 1667TIP3    H1 4965   2.197   3.196   4.846  3.0598  0.2043  1.0763
 1667TIP3    H2 4966   2.243   3.270   4.723 -2.3016  1.3936 -0.4717
 1668TIP3   OH2 4967   0.444   2.416   3.400 -0.0412  0.2479  0.0840
 1668TIP3    H1 4968   0.464   2.404   3.307  1.2544 -1.2854  0.5348
 1668TIP3    H2 4969   0.521   2.460   3.436 -0.6374  1.0602  0.4220
 1669TIP3   OH2 4970   1.864   5.270   2.871  0.2633  0.1377 -0.4159
 1669TIP3    H1 4971   1.800   5.341   2.861 -1.4408 -0.7843  2.7278
 1669TIP3    H2 4972   1.843   5.209   2.800 -0.1321  1.3656 -1.4145
 1670TIP3   OH2 4973   2.827   2.391   0.068  0.1221 -0.0517  0.4237
 1670TIP3    H1 4974   2.856   2.301   0.086 -1.0836 -0.3756  0.8642
 1670TIP3    H2 4975   2.792   2.388  -0.021 -0.0530 -0.0564  0.4921
 1671TIP3   OH2 4976   1.824   6.462   5.103  0.0296 -0.0351  0.4284
 1671TIP3    H1 4977   1.865   6.375   5.106 -0.0097 -0.0469  0.6235
 1671TIP3    H2 4978   1.891   6.522   5.136  0.0975  0.0249  0.1843
 1672TIP3   OH2 4979   2.845   4.231   0.606 -0.0505 -0.2549 -0.0188
 1672TIP3    H1 4980   2.867   4.300   0.668 -0.0757  0.4178 -0.7476
 1672TIP3    H2 4981   2.925   4.220   0.554  0.0617 -1.0085  0.2952
 1673TIP3   OH2 4982   3.000   6.322   3.002 -0.4987 -0.1125 -0.1911
 1673TIP3    H1 4983   2.995   6.298   3.094  1.0778  1.0862  0.2379
 1673TIP3    H2 4984   2.983   6.416   3.000  1.6072  0.2994 -0.8355
 1674TIP3   OH2 4985   4.885   2.642   1.522  0.1809  0.5304 -0.2464
 1674TIP3    H1 4986   4.873   2.564   1.468 -0.0879 -0.6020  1.3601
 1674TIP3    H2 4987   4.796   2.665   1.550  0.4897 -0.5491  1.8402
 1675TIP3   OH2 4988   3.032   3.271   4.724 -0.3005  0.2116  0.4620
 1675TIP3    H1 4989   3.078   3.191   4.750 -0.4210  0.2581  0.8188
 1675TIP3    H2 4990   2.989   3.301   4.804  0.1982  0.9375  0.4617
 1676TIP3   OH2 4991   4.772   2.397   2.201 -0.1694  1.0556 -0.1061
 1676TIP3    H1 4992   4.692   2.344   2.204  0.9565 -0.7330 -0.0900
 1676TIP3    H2 4993   4.741   2.487   2.190 -2.1396  0.2921 -1.3111
 1677TIP3   OH2 4994   1.290   3.497   3.060 -0.1067  0.0674 -0.0343
 1677TIP3    H1 4995   1.335   3.566   3.108  1.1327  0.0838 -1.1764
 1677TIP3    H2 4996   1.197   3.520   3.066 -0.0268  0.0219  2.3878
 1678TIP3   OH2 4997   5.188   1.309   5.503 -0.4516  0.4655  0.2359
 1678TIP3    H1 4998   5.105   1.349   5.478 -0.2767  1.4696  1.2379
 1678TIP3    H2 4999   5.177   1.285   5.595  0.0952 -0.1291  0.1555
 1679TIP3   OH2 5000   7.093   3.802   4.891  0.0557 -0.9182 -0.0574
 1679TIP3    H1 5001   7.077   3.821   4.798  0.8871 -0.1274 -0.0605
 1679TIP3    H2 5002   7.061   3.879   4.937  2.0626 -0.0855  0.0684
 1680TIP3   OH2 5003   5.726   2.341   2.713 -0.1504  0.1586  0.0579
 1680TIP3    H1 5004   5.772   2.352   2.631 -0.9868 -0.0936 -0.4628
 1680TIP3    H2 5005   5.634   2.357   2.691 -0.3487  0.3687  0.9992
 1681TIP3   OH2 5006   6.534   2.560   0.305 -0.7794  0.0966  0.4144
 1681TIP3    H1 5007   6.587   2.533   0.380 -0.0982  0.5214  0.1041
 1681TIP3    H2 5008   6.525   2.481   0.252 -0.1181  0.1033  0.2827
 1682TIP3   OH2 5009   6.094   3.655   1.013 -0.1675 -0.6615 -0.3931
 1682TIP3    H1 5010   6.095   3.728   1.076  0.2602 -0.6586 -0.3982
 1682TIP3    H2 5011   6.168   3.600   1.040  1.4385  0.4837 -2.2167
 1683TIP3   OH2 5012   1.359   0.872   3.326  0.7833  0.1232  0.2495
 1683TIP3    H1 5013   1.401   0.882   3.411  0.7458 -0.2726  0.3175
 1683TIP3    H2 5014   1.418   0.915   3.264  1.6817 -1.0836  0.2300
 1684TIP3   OH2 5015   5.683   4.462   2.671  0.2276  0.5875  0.0487
 1684TIP3    H1 5016   5.738   4.386   2.654  3.9148  2.3650  2.7662
 1684TIP3    H2 5017   5.697   4.520   2.597  1.5234  0.7370  0.4018
 1685TIP3   OH2 5018   4.128   1.859   0.300 -0.5465 -0.1291 -0.2967
 1685TIP3    H1 5019   4.080   1.806   0.236  1.8122 -1.9008 -0.7340
 1685TIP3    H2 5020   4.163   1.796   0.363  2.1366  0.8294 -0.6644
 1686TIP3   OH2 5021   1.179   1.656   4.382  0.3340  0.3090  0.0081
 1686TIP3    H1 5022   1.221   1.683   4.301  0.6485 -0.8165 -0.2104
 1686TIP3    H2 5023   1.134   1.574   4.361  0.1648  0.1618  0.8896
 1687TIP3   OH2 5024   2.481   0.629   4.617 -0.6513 -0.1059 -0.0061
 1687TIP3    H1 5025   2.397   0.660   4.652  0.1761  1.9725  0.2602
 1687TIP3    H2 5026   2.533   0.607   4.694  0.1016  1.5700 -0.0008
 1688TIP3   OH2 5027   6.926   5.096   2.957 -0.3217 -0.2533 -0.0851
 1688TIP3    H1 5028   6.890   5.160   2.896 -0.5295  0.2560  0.5616
 1688TIP3    H2 5029   6.968   5.149   3.025 -0.8543 -0.7889  0.6762
 1689TIP3   OH2 5030   4.484   1.052   0.270 -0.3507 -0.6480 -0.3249
 1689TIP3    H1 5031   4.467   1.074   0.362  1.3844 -1.1636  0.1628
 1689TIP3    H2 5032   4.404   1.078   0.224 -1.8879 -1.7854  1.5320
 1690TIP3   OH2 5033   1.684   0.171   4.729 -0.3006  0.0722  0.1104
 1690TIP3    H1 5034   1.632   0.144   4.804  0.3842  0.8504  0.8838
 1690TIP3    H2 5035   1.759   0.216   4.767  0.5204 -0.3063 -1.0131
 1691TIP3   OH2 5036   1.882   0.032   2.749 -0.1691 -0.3862 -0.3768
 1691TIP3    H1 5037   1.956  -0.025   2.731 -0.0762  0.0399 -1.4211
 1691TIP3    H2 5038   1.854   0.063   2.662  0.0409  1.4638  0.1709
 1692TIP3   OH2 5039   1.528   4.869   2.345 -0.0374 -0.3156  0.8105
 1692TIP3    H1 5040   1.438   4.895   2.325 -0.0453 -0.0350  1.1979
 1692TIP3    H2 5041   1.568   4.948   2.383  1.0015  0.2219 -1.2637
 1693TIP3   OH2 5042   2.976   0.461   4.937  0.1807 -0.1824 -0.2251
 1693TIP3    H1 5043   2.959   0.375   4.900 -0.2738  0.1437 -0.7948
 1693TIP3    H2 5044   3.068   0.478   4.918  0.3909 -0.7116  0.2672
 1694TIP3   OH2 5045   7.172   5.867   4.282 -0.4535 -0.0053 -0.4768
 1694TIP3    H1 5046   7.160   5.873   4.187 -0.5656 -1.3579 -0.5647
 1694TIP3    H2 5047   7.243   5.929   4.301  0.3946 -0.5918 -1.6154
 1695TIP3   OH2 5048   6.839   4.535   3.450 -0.2157  0.3978  0.5481
 1695TIP3    H1 5049   6.746   4.534   3.430 -0.1314 -0.7748  0.1492
 1695TIP3    H2 5050   6.858   4.447   3.482  0.9403  0.3383 -0.2416
 1696TIP3   OH2 5051   4.177   2.328   1.603 -0.4000  0.1812 -0.4745
 1696TIP3    H1 5052   4.134   2.381   1.671 -3.2777 -1.2794 -1.0210
 1696TIP3    H2 5053   4.245   2.281   1.650 -0.1184  1.6794  0.7118
 1697TIP3   OH2 5054   5.088   4.104   0.475  0.7475  0.2612 -0.4386
 1697TIP3    H1 5055   4.999   4.138   0.479  0.6978  0.4944 -2.4288
 1697TIP3    H2 5056   5.140   4.177   0.441  1.3860 -0.4012 -0.9071
 1698TIP3   OH2 5057   3.588   2.428   1.915  0.2871  0.7678  0.1030
 1698TIP3    H1 5058   3.587   2.392   1.827  0.4227 -1.6451  0.9917
 1698TIP3    H2 5059   3.496   2.449   1.934 -0.2203 -1.3938  0.3256
 1699TIP3   OH2 5060   6.180   3.482   3.527 -0.5163  0.5837  0.1946
 1699TIP3    H1 5061   6.224   3.486   3.612 -0.8181  1.3623  0.3298
 1699TIP3    H2 5062   6.237   3.531   3.469 -0.4928  0.3673  0.0367
 1700TIP3   OH2 5063   6.613   1.229   3.251 -0.2161 -0.8271  0.2351
 1700TIP3    H1 5064   6.596   1.180   3.332  2.6323  0.0156  1.4811
 1700TIP3    H2 5065   6.708   1.240   3.249 -0.4274  1.6318 -1.7898
 1701TIP3   OH2 5066   2.333   1.728   0.720  0.1602 -0.5360 -0.2218
 1701TIP3    H1 5067   2.370   1.728   0.808  0.8042 -0.1413 -0.4858
 1701TIP3    H2 5068   2.242   1.699   0.732 -0.5083  1.7962  0.8814
 1702TIP3   OH2 5069   2.044   5.146   2.486 -0.5027 -0.5591  0.0514
 1702TIP3    H1 5070   2.099   5.132   2.562 -1.9233  0.0768  1.2455
 1702TIP3    H2 5071   1.957   5.116   2.513 -1.6286  2.0184 -0.3713
 1703TIP3   OH2 5072   3.662   1.011   2.302 -0.2047  0.2180 -0.0114
 1703TIP3    H1 5073   3.617   0.941   2.255  1.4987 -0.4052 -0.8082
 1703TIP3    H2 5074   3.667   1.083   2.240 -0.4865  0.4503  0.2315
 1704TIP3   OH2 5075   2.873   1.323   2.739  0.5723 -0.0449  0.5521
 1704TIP3    H1 5076   2.939   1.275   2.688 -0.2854 -0.2704 -0.3794
 1704TIP3    H2 5077   2.790   1.282   2.715  0.0196  0.6610  1.2116
 1705TIP3   OH2 5078   6.028   5.426   4.375 -0.1262  0.2892 -0.2185
 1705TIP3    H1 5079   6.103   5.383   4.334 -0.3213 -0.3867  0.1370
 1705TIP3    H2 5080   6.036   5.405   4.468 -0.1231  1.1676 -0.0116
 1706TIP3   OH2 5081   0.555   2.513   4.831  0.3444  0.0226  0.7284
 1706TIP3    H1 5082   0.630   2.570   4.814  1.3200 -1.9086 -2.4107
 1706TIP3    H2 5083   0.586   2.451   4.897  0.0173  1.6732  2.5042
 1707TIP3   OH2 5084   2.942   1.874   3.442  0.0726  0.0535 -0.4163
 1707TIP3    H1 5085   2.913   1.878   3.351  0.7644  0.5557 -0.6257
 1707TIP3    H2 5086   3.036   1.889   3.438  0.3982 -1.5523  0.2333
 1708TIP3   OH2 5087   1.716   2.465   3.443 -0.3812  0.2146  0.5279
 1708TIP3    H1 5088   1.787   2.521   3.411 -1.0968  0.6382 -0.3566
 1708TIP3    H2 5089   1.751   2.376   3.436  0.5260  0.4809  1.3289
 1709TIP3   OH2 5090   1.748   6.091   1.858  0.8055 -0.0112 -0.0649
 1709TIP3    H1 5091   1.695   6.095   1.938 -1.0215  0.6741 -1.2678
 1709TIP3    H2 5092   1.825   6.145   1.878  0.3359  0.2390  1.1822
 1710TIP3   OH2 5093   6.504   6.314   5.369 -0.2434 -0.2946 -0.1901
 1710TIP3    H1 5094   6.497   6.254   5.295  3.4214  0.3388 -1.2967
 1710TIP3    H2 5095   6.571   6.275   5.426 -0.6901  0.8007  1.1656
 1711TIP3   OH2 5096   2.585   0.875   1.116  0.9318  0.9579 -0.5436
 1711TIP3    H1 5097   2.539   0.959   1.124  1.1767  0.9730  0.8808
 1711TIP3    H2 5098   2.677   0.898   1.122  1.0076  0.6045 -0.3726
 1712TIP3   OH2 5099   5.746   0.539   4.968  0.6842 -0.0420 -0.4167
 1712TIP3    H1 5100   5.671   0.521   5.024  0.9290  0.1570 -0.0197
 1712TIP3    H2 5101   5.710   0.592   4.896  0.8404  2.2694  1.0821
 1713TIP3   OH2 5102   3.706   0.524   4.996 -0.3064  0.1055 -0.3253
 1713TIP3    H1 5103   3.770   0.551   5.061  0.9747 -1.0841 -1.0295
 1713TIP3    H2 5104   3.649   0.462   5.042 -0.6900  0.8143  0.1789
 1714TIP3   OH2 5105   2.290   1.819   1.031 -0.0886  0.3015  0.4166
 1714TIP3    H1 5106   2.363   1.759   1.018  0.7964  1.3729  0.2849
 1714TIP3    H2 5107   2.319   1.902   0.993 -0.5120  1.3499  2.2212
 1715TIP3   OH2 5108   5.682   3.326   2.768 -0.5348  0.2869 -0.4224
 1715TIP3    H1 5109   5.711   3.259   2.830 -0.1263  0.8032 -0.0412
 1715TIP3    H2 5110   5.763   3.367   2.739 -0.8294  1.3356  0.1725
 1716TIP3   OH2 5111   1.918   4.793   0.909  0.0799  0.1602 -0.2690
 1716TIP3    H1 5112   1.884   4.882   0.903  0.8348  0.3735 -1.9434
 1716TIP3    H2 5113   1.997   4.793   0.854  1.5074 -0.9192  1.6336
 1717TIP3   OH2 5114   6.693   0.770   0.168  0.5217  0.6277 -0.5610
 1717TIP3    H1 5115   6.611   0.795   0.210  1.2354  0.3597  1.0380
 1717TIP3    H2 5116   6.674   0.776   0.074 -1.9086 -1.2315 -0.2990
 1718TIP3   OH2 5117   4.585   0.108   0.056 -0.3549  0.2532 -0.2899
 1718TIP3    H1 5118   4.507   0.069   0.095 -0.4859  2.3514  1.7604
 1718TIP3    H2 5119   4.551   0.171  -0.008 -0.2017 -1.0425 -1.7073
 1719TIP3   OH2 5120   4.352   1.474   5.845 -0.3144  0.1596 -0.0925
 1719TIP3    H1 5121   4.260   1.502   5.848 -0.6921 -0.8307 -1.5145
 1719TIP3    H2 5122   4.371   1.462   5.752  1.1152 -0.1001  0.2152
 1720TIP3   OH2 5123   4.517   3.314   1.538 -0.1160 -0.4631 -0.3317
 1720TIP3    H1 5124   4.511   3.387   1.599  0.5982 -0.0702 -0.7125
 1720TIP3    H2 5125   4.447   3.254   1.564 -0.8245  0.4345 -0.1198
 1721TIP3   OH2 5126   2.166   5.492   0.343  0.0966  0.1305 -0.4173
 1721TIP3    H1 5127   2.151   5.516   0.251  1.2591 -0.3602 -0.7583
 1721TIP3    H2 5128   2.121   5.559   0.393 -0.0799  0.7323 -1.3498
 1722TIP3   OH2 5129   3.560   4.840   1.744  0.2174 -0.0120 -0.2355
 1722TIP3    H1 5130   3.600   4.787   1.675  1.8274 -2.2389  2.1935
 1722TIP3    H2 5131   3.493   4.784   1.781 -0.6234  1.1405  0.0366
 1723TIP3   OH2 5132   0.300   2.984   1.523 -0.3092 -0.3041 -0.2315
 1723TIP3    H1 5133   0.227   2.983   1.462 -1.4919  0.3897  1.0989
 1723TIP3    H2 5134   0.335   3.073   1.518 -0.8335 -0.0382  0.5314
 1724TIP3   OH2 5135   3.822   5.680   1.385  0.2541  0.5971 -0.5708
 1724TIP3    H1 5136   3.768   5.641   1.454  0.8233 -1.4885 -1.2132
 1724TIP3    H2 5137   3.900   5.711   1.429  0.1596  0.2178 -0.1327
 1725TIP3   OH2 5138   1.798   4.177   5.816 -0.4467 -0.4431 -0.4340
 1725TIP3    H1 5139   1.856   4.111   5.779  1.1006  1.3542 -1.4464
 1725TIP3    H2 5140   1.733   4.193   5.748  0.0072  0.0059 -0.7790
 1726TIP3   OH2 5141   4.306   2.868   2.800 -0.1659 -0.0287 -0.5795
 1726TIP3    H1 5142   4.362   2.826   2.735 -0.1310  1.5330 -1.6227
 1726TIP3    H2 5143   4.317   2.962   2.783 -0.3652  0.4146  1.5239
 1727TIP3   OH2 5144   5.743   2.348   4.127 -0.0325 -0.6721 -0.4547
 1727TIP3    H1 5145   5.714   2.410   4.193  0.2791  0.3755 -1.2693
 1727TIP3    H2 5146   5.825   2.313   4.162  0.0350 -0.2677 -0.2027
 1728TIP3   OH2 5147   1.035   4.764   2.629 -0.2658  0.3914 -0.1363
 1728TIP3    H1 5148   1.041   4.671   2.609  0.9408  0.4552 -0.1390
 1728TIP3    H2 5149   1.034   4.807   2.543  0.4155  0.4343 -0.1290
 1729TIP3   OH2 5150   3.395   0.332   4.208  0.4686  0.1474  0.0849
 1729TIP3    H1 5151   3.467   0.269   4.213  0.3042  0.0492  2.4505
 1729TIP3    H2 5152   3.398   0.379   4.291 -1.2293  1.2425 -0.4186
 1730TIP3   OH2 5153   2.144   3.939   3.957  0.2030 -0.4246  0.3196
 1730TIP3    H1 5154   2.103   3.880   3.893  1.5972  2.4585 -3.6336
 1730TIP3    H2 5155   2.231   3.900   3.973  0.5059 -0.3382 -0.9869
 1731TIP3   OH2 5156   6.238   2.839   5.871  0.1866  0.0091  0.2409
 1731TIP3    H1 5157   6.274   2.829   5.959  1.7362  0.9834 -0.2442
 1731TIP3    H2 5158   6.313   2.827   5.813 -0.9438 -1.3697 -1.0125
 1732TIP3   OH2 5159   5.262   0.333   2.169 -0.3793  0.0564  0.0755
 1732TIP3    H1 5160   5.281   0.421   2.200 -0.4686 -0.7712  2.7552
 1732TIP3    H2 5161   5.320   0.276   2.220 -1.3850 -1.5539 -0.4872
 1733TIP3   OH2 5162   3.841   2.289   3.841 -0.4705  0.1804 -0.4963
 1733TIP3    H1 5163   3.846   2.374   3.885  0.8029  0.0748 -0.4119
 1733TIP3    H2 5164   3.822   2.310   3.750 -2.4663  0.4284 -0.0845
 1734TIP3   OH2 5165   2.320   1.913   1.620 -0.3565 -0.8113 -0.2279
 1734TIP3    H1 5166   2.271   1.981   1.575 -0.4433 -0.4906  0.3398
 1734TIP3    H2 5167   2.402   1.906   1.572 -0.4506 -0.4786 -0.4362
 1735TIP3   OH2 5168   2.380   3.425   1.600 -0.3944 -0.0445  0.0531
 1735TIP3    H1 5169   2.380   3.492   1.668 -0.2722  0.1466 -0.1361
 1735TIP3    H2 5170   2.434   3.461   1.530 -0.3109 -0.3478 -0.0410
 1736TIP3   OH2 5171   2.983   0.761   3.117  0.3455 -0.0612  0.9812
 1736TIP3    H1 5172   2.955   0.710   3.194  0.2257 -1.0705  0.2850
 1736TIP3    H2 5173   2.915   0.745   3.052  0.5981  0.5628  0.5565
 1737TIP3   OH2 5174   3.854   3.964   4.205 -0.6202 -0.3692 -0.3625
 1737TIP3    H1 5175   3.914   3.919   4.146 -1.3704 -3.3428  0.9180
 1737TIP3    H2 5176   3.774   3.976   4.154  0.0912  0.9922 -1.1960
 1738TIP3   OH2 5177   3.130   6.667   0.161 -0.1828 -0.1694  0.0603
 1738TIP3    H1 5178   3.101   6.664   0.252 -2.6524  1.5727 -0.5694
 1738TIP3    H2 5179   3.179   6.749   0.154 -0.5982  0.0521 -0.3132
 1739TIP3   OH2 5180   1.410   3.996   5.114  0.8175 -0.1757 -0.3605
 1739TIP3    H1 5181   1.457   3.968   5.036 -0.9991 -2.0031 -0.9027
 1739TIP3    H2 5182   1.356   4.069   5.084  0.5197 -0.5278 -0.6910
 1740TIP3   OH2 5183   5.299   6.648   4.163 -0.5158  0.1024  0.3365
 1740TIP3    H1 5184   5.219   6.700   4.160 -0.5761  0.0269  0.6425
 1740TIP3    H2 5185   5.346   6.680   4.240 -0.2925  0.0856  0.2085
 1741TIP3   OH2 5186   0.714   6.736   4.372 -0.0721  0.0835 -0.3302
 1741TIP3    H1 5187   0.630   6.712   4.332  0.3493 -0.1121 -1.1066
 1741TIP3    H2 5188   0.747   6.653   4.408  1.7134 -0.8283 -3.6137
 1742TIP3   OH2 5189   0.900   4.196   2.759  0.1565  0.8359 -1.2663
 1742TIP3    H1 5190   0.907   4.150   2.676 -0.2786 -0.5224 -0.5943
 1742TIP3    H2 5191   0.980   4.173   2.806 -1.2038 -1.5228  0.1149
 1743TIP3   OH2 5192   0.439   4.615   5.806 -0.2715 -0.4677 -0.1597
 1743TIP3    H1 5193   0.427   4.521   5.823  0.4504 -0.8412 -1.5235
 1743TIP3    H2 5194   0.534   4.626   5.803 -0.3575  0.1436 -0.7793
 1744TIP3   OH2 5195   0.777   5.732   0.833  0.1256  0.1397  0.1240
 1744TIP3    H1 5196   0.792   5.826   0.822 -1.4882  0.4969  0.8184
 1744TIP3    H2 5197   0.682   5.723   0.837  0.1184 -1.8229 -2.3095
 1745TIP3   OH2 5198   5.053   0.614   3.206 -0.0387 -0.2027  0.4663
 1745TIP3    H1 5199   4.998   0.691   3.216  0.4102  0.0077  1.5067
 1745TIP3    H2 5200   5.004   0.544   3.250 -1.5336 -1.1270 -2.4383
 1746TIP3   OH2 5201   0.958   1.218   4.284 -0.6963 -0.1362  0.0395
 1746TIP3    H1 5202   0.904   1.263   4.219  0.0246 -2.5218 -2.3988
 1746TIP3    H2 5203   1.042   1.264   4.281 -0.3314 -0.8154 -1.5942
 1747TIP3   OH2 5204   0.137   2.823   5.219 -0.3133  0.2290 -0.1944
 1747TIP3    H1 5205   0.068   2.822   5.154 -0.0162 -0.6920 -0.5056
 1747TIP3    H2 5206   0.142   2.733   5.251  2.1556 -0.2864 -1.7263
 1748TIP3   OH2 5207   2.829   3.734   1.172 -0.7434 -0.0901 -0.3644
 1748TIP3    H1 5208   2.797   3.798   1.235 -1.1072 -1.4736  0.9045
 1748TIP3    H2 5209   2.797   3.766   1.087 -1.1745  1.2227  0.2651
 1749TIP3   OH2 5210   1.130   0.887   0.562  0.6055 -0.1878  0.8739
 1749TIP3    H1 5211   1.066   0.881   0.632 -1.0856 -2.5850 -0.6979
 1749TIP3    H2 5212   1.178   0.804   0.565  1.3599  0.1872 -0.0413
 1750TIP3   OH2 5213   1.887   0.488   0.538 -0.5127 -0.1094 -1.3586
 1750TIP3    H1 5214   1.939   0.413   0.507 -0.2601 -0.4553 -0.1466
 1750TIP3    H2 5215   1.821   0.449   0.595  0.3571  0.6912  0.2383
 1751TIP3   OH2 5216   3.060   4.228   0.404 -0.0766  0.3281  0.3390
 1751TIP3    H1 5217   3.118   4.300   0.428 -0.7596  0.9210  0.2141
 1751TIP3    H2 5218   3.107   4.181   0.335 -0.6575  2.0808 -1.3191
 1752TIP3   OH2 5219   0.957   6.751   4.943 -0.1244  0.2066 -0.4849
 1752TIP3    H1 5220   0.917   6.836   4.961 -0.0447  0.3857 -1.1300
 1752TIP3    H2 5221   0.883   6.691   4.937 -0.3090  0.5276 -1.6162
 1753TIP3   OH2 5222   5.792   5.472   3.015  0.7129 -0.5015  0.3832
 1753TIP3    H1 5223   5.718   5.487   3.074 -0.2943 -1.0633 -0.7109
 1753TIP3    H2 5224   5.864   5.447   3.074 -0.7279 -2.8276  1.2935
 1754TIP3   OH2 5225   0.869   2.574   2.045  0.4471  0.1142  0.4981
 1754TIP3    H1 5226   0.883   2.602   1.954 -0.7903 -1.6814 -0.3196
 1754TIP3    H2 5227   0.934   2.505   2.059  2.4134  2.1215  1.9456
 1755TIP3   OH2 5228   5.816   5.436   4.174  0.2084  0.1412  0.3889
 1755TIP3    H1 5229   5.786   5.384   4.099  1.5368 -1.3768  0.8488
 1755TIP3    H2 5230   5.898   5.395   4.200  1.2231  2.3941  0.9336
 1756TIP3   OH2 5231   6.312   5.411   4.785 -0.1770  0.1291  0.7552
 1756TIP3    H1 5232   6.320   5.503   4.809 -1.3654 -0.0127  1.8117
 1756TIP3    H2 5233   6.346   5.406   4.696  0.6756  1.4299  0.9835
 1757TIP3   OH2 5234   5.900   5.825   1.961  0.3133 -0.0128 -0.6347
 1757TIP3    H1 5235   5.876   5.868   1.879 -0.3105  0.6084 -0.1402
 1757TIP3    H2 5236   5.951   5.749   1.934 -0.5397 -0.2541 -1.6311
 1758TIP3   OH2 5237   0.579   2.762   4.472  0.2675 -0.4777  0.2804
 1758TIP3    H1 5238   0.597   2.851   4.501 -0.5820 -1.1111  3.2044
 1758TIP3    H2 5239   0.641   2.708   4.521 -0.3006 -1.6002 -0.1970
 1759TIP3   OH2 5240   0.783   3.673   4.190 -0.0913 -0.5047 -0.6004
 1759TIP3    H1 5241   0.863   3.651   4.238  0.4994  0.0243 -1.3193
 1759TIP3    H2 5242   0.727   3.714   4.255 -0.6460 -2.7508  0.4316
 1760TIP3   OH2 5243   5.084   6.396   3.906 -0.5484  0.0934 -0.0225
 1760TIP3    H1 5244   5.179   6.394   3.920 -0.4218 -2.2433 -0.8089
 1760TIP3    H2 5245   5.049   6.437   3.986  0.9703 -1.2196  1.3989
 1761TIP3   OH2 5246   4.640   3.445   2.637 -0.4644  0.3202  0.0269
 1761TIP3    H1 5247   4.603   3.518   2.587 -1.6555 -0.8895 -0.9148
 1761TIP3    H2 5248   4.611   3.461   2.727 -2.5220 -0.0472 -0.5103
 1762TIP3   OH2 5249   6.662   0.561   1.731 -0.3672  0.3504 -0.3326
 1762TIP3    H1 5250   6.641   0.474   1.763 -2.4214  1.2357  0.8935
 1762TIP3    H2 5251   6.601   0.619   1.776  0.3605  2.3341 -1.7514
 1763TIP3   OH2 5252   6.603   1.853   0.521 -0.1558 -0.0981 -0.2506
 1763TIP3    H1 5253   6.667   1.804   0.573  0.3310  0.5603 -0.2276
 1763TIP3    H2 5254   6.574   1.790   0.454 -0.3135 -0.7475  0.4059
 1764TIP3   OH2 5255   1.380   6.321   2.623 -0.3733 -0.0707 -0.4685
 1764TIP3    H1 5256   1.436   6.264   2.570  1.9366  0.5215  1.1580
 1764TIP3    H2 5257   1.414   6.311   2.712 -0.9086  2.5988  0.1188
 1765TIP3   OH2 5258   2.551   1.075   1.800 -0.1525 -0.2749 -0.0898
 1765TIP3    H1 5259   2.516   0.996   1.842 -0.7697  0.1563  0.2294
 1765TIP3    H2 5260   2.550   1.141   1.869  1.7144 -0.3465  0.0401
 1766TIP3   OH2 5261   5.067   0.946   3.815 -0.3018  0.1675  0.0797
 1766TIP3    H1 5262   5.160   0.922   3.818  0.2512  2.0751 -0.3378
 1766TIP3    H2 5263   5.062   1.011   3.745 -1.7026  1.1193  1.0123
 1767TIP3   OH2 5264   7.217   0.851   3.355 -0.6600  0.3854 -0.5572
 1767TIP3    H1 5265   7.124   0.875   3.356 -0.2385  2.4355  2.8137
 1767TIP3    H2 5266   7.220   0.765   3.396 -0.9290  1.6542  2.3348
 1768TIP3   OH2 5267   3.831   0.541   4.368 -0.0050  0.5058  0.0357
 1768TIP3    H1 5268   3.863   0.463   4.415  1.5299  0.8659 -0.3634
 1768TIP3    H2 5269   3.785   0.505   4.292  1.1733 -0.0204 -0.4457
 1769TIP3   OH2 5270   4.979   2.310   1.172 -0.4597  0.5038 -0.0660
 1769TIP3    H1 5271   5.061   2.301   1.221 -0.6456  1.6234  0.4805
 1769TIP3    H2 5272   4.924   2.366   1.227 -1.5573 -0.1367 -0.4790
 1770TIP3   OH2 5273   5.535   5.592   2.846 -0.1173  0.1740 -0.4080
 1770TIP3    H1 5274   5.521   5.663   2.783  0.0797  0.7764  0.2160
 1770TIP3    H2 5275   5.496   5.623   2.927 -1.6597 -1.2066 -0.5791
 1771TIP3   OH2 5276   2.753   4.655   2.510 -0.0297  0.2267  0.1151
 1771TIP3    H1 5277   2.660   4.652   2.532 -0.2360  0.9081 -0.6324
 1771TIP3    H2 5278   2.760   4.725   2.445  1.0991  0.6174  0.6316
 1772TIP3   OH2 5279   0.369   3.557   5.067  0.3618 -0.1117  0.0640
 1772TIP3    H1 5280   0.321   3.638   5.083 -2.7032 -1.5389 -0.9052
 1772TIP3    H2 5281   0.387   3.558   4.973  1.8598  0.1566  0.3313
 1773TIP3   OH2 5282   2.001   2.044   5.743  0.4458  0.5348 -0.4747
 1773TIP3    H1 5283   1.979   1.952   5.731  2.5875 -0.1360  0.3634
 1773TIP3    H2 5284   2.046   2.070   5.663 -0.6361  1.0506 -0.9414
 1774TIP3   OH2 5285   0.702   5.035   0.649  0.0904  0.5652 -0.0970
 1774TIP3    H1 5286   0.778   5.056   0.595  1.8466  0.6883  2.2685
 1774TIP3    H2 5287   0.676   5.118   0.687  1.2068 -0.0033  2.0399
 1775TIP3   OH2 5288   3.195   3.777   2.932  0.0202 -0.0489  0.8277
 1775TIP3    H1 5289   3.240   3.855   2.965 -0.7196  0.7705 -0.0117
 1775TIP3    H2 5290   3.111   3.777   2.978  0.1144 -0.4959  1.0035
 1776TIP3   OH2 5291   6.952   4.292   3.547 -0.2709 -0.5525  0.1784
 1776TIP3    H1 5292   6.975   4.202   3.569  0.2484 -0.3784  0.3557
 1776TIP3    H2 5293   7.018   4.319   3.483  0.2803  0.0919  1.0044
 1777TIP3   OH2 5294   7.200   2.910   1.042 -0.1421  1.0016 -0.0801
 1777TIP3    H1 5295   7.244   2.830   1.013  0.0136  0.8730  0.4894
 1777TIP3    H2 5296   7.115   2.908   0.998 -1.1912 -0.7821  1.8139
 1778TIP3   OH2 5297   4.772   6.675   1.968  0.4254 -0.2401  0.0963
 1778TIP3    H1 5298   4.798   6.604   1.909  1.5912  0.9231 -0.8452
 1778TIP3    H2 5299   4.818   6.656   2.049 -0.2216 -1.1908  0.2619
 1779TIP3   OH2 5300   0.057   4.977   0.657  0.0257 -0.5071 -0.3377
 1779TIP3    H1 5301  -0.027   5.020   0.642  0.9507  1.9587  0.8825
 1779TIP3    H2 5302   0.113   5.008   0.585  0.7933  0.7050  0.7277
 1780TIP3   OH2 5303   0.158   5.424   3.060  0.2367 -0.2831 -0.3560
 1780TIP3    H1 5304   0.092   5.493   3.051 -0.2654 -0.5980  0.8049
 1780TIP3    H2 5305   0.114   5.355   3.109  1.8537  0.0977  1.7575
 1781TIP3   OH2 5306   5.074   0.575   2.066 -0.2313 -0.1685  0.2960
 1781TIP3    H1 5307   5.097   0.500   2.121 -0.3944 -0.2571  0.2451
 1781TIP3    H2 5308   5.065   0.648   2.127  0.6891 -0.0124  0.2633
 1782TIP3   OH2 5309   2.444   6.489   1.151  0.1619  0.8069  0.3293
 1782TIP3    H1 5310   2.523   6.519   1.196 -0.1062  1.7273  0.2047
 1782TIP3    H2 5311   2.381   6.472   1.220  0.7779 -0.9376  0.5067
 1783TIP3   OH2 5312   4.353   3.101   0.377  0.8477  0.3666 -0.8503
 1783TIP3    H1 5313   4.431   3.103   0.433  0.6523  1.4403 -0.5938
 1783TIP3    H2 5314   4.335   3.193   0.359 -1.0139  0.2087 -0.0085
 1784TIP3   OH2 5315   1.469   4.791   5.101  0.5391 -0.1756  0.2019
 1784TIP3    H1 5316   1.451   4.754   5.187 -1.5335  1.2789  0.4586
 1784TIP3    H2 5317   1.425   4.876   5.101  2.3195  0.8381 -1.5405
 1785TIP3   OH2 5318   1.000   3.555   4.840  0.8822  0.3938  0.7334
 1785TIP3    H1 5319   0.911   3.556   4.876  1.1213  0.9423  1.3295
 1785TIP3    H2 5320   0.989   3.574   4.747  0.2477 -1.0351  0.4802
 1786TIP3   OH2 5321   4.758   5.429   4.140  0.5910  0.0728  0.0245
 1786TIP3    H1 5322   4.743   5.520   4.113  1.4145  0.0575 -0.5010
 1786TIP3    H2 5323   4.742   5.378   4.061  0.2993 -0.2353  0.2767
 1787TIP3   OH2 5324   5.253   4.013   5.895 -0.2103  0.1975 -1.0945
 1787TIP3    H1 5325   5.181   4.061   5.855 -0.6750 -0.3728 -0.9648
 1787TIP3    H2 5326   5.323   4.078   5.906 -0.5384  0.6507 -1.6391
 1788TIP3   OH2 5327   4.248   5.009   1.225 -0.2729 -0.0007  0.1330
 1788TIP3    H1 5328   4.270   4.921   1.195 -0.6323  0.2276 -0.8476
 1788TIP3    H2 5329   4.328   5.060   1.211 -0.3400  0.0298 -0.1471
 1789TIP3   OH2 5330   4.664   0.744   2.943 -0.5165 -0.0414 -0.2935
 1789TIP3    H1 5331   4.575   0.716   2.961 -0.7046  1.2192  0.8614
 1789TIP3    H2 5332   4.664   0.839   2.959  0.6930  0.2289 -1.6195
 1790TIP3   OH2 5333   0.418   0.796   1.649  0.3627  0.4574 -0.2949
 1790TIP3    H1 5334   0.498   0.758   1.685 -0.1225  0.9589  1.4469
 1790TIP3    H2 5335   0.390   0.858   1.716 -1.3914  0.4175 -0.9501
 1791TIP3   OH2 5336   3.838   6.491   0.389 -0.4157 -0.1121 -0.0829
 1791TIP3    H1 5337   3.745   6.511   0.403 -0.7208 -0.1509 -1.8429
 1791TIP3    H2 5338   3.842   6.461   0.298  1.4011  0.3167 -0.1621
 1792TIP3   OH2 5339   3.008   6.155   4.261  0.3718  0.2902  0.4478
 1792TIP3    H1 5340   2.975   6.225   4.205  1.1219 -0.2049 -0.6711
 1792TIP3    H2 5341   3.069   6.107   4.204 -0.4579 -1.5295  1.0295
 1793TIP3   OH2 5342   0.162   4.832   3.740  0.3163 -0.6391  0.4892
 1793TIP3    H1 5343   0.213   4.835   3.659 -0.9804  1.5707 -0.3155
 1793TIP3    H2 5344   0.088   4.776   3.720 -0.5522  0.7159 -0.2596
 1794TIP3   OH2 5345   5.145   0.634   1.810 -0.0617  0.5154  0.5967
 1794TIP3    H1 5346   5.149   0.728   1.827  0.1438  0.6429 -0.1241
 1794TIP3    H2 5347   5.114   0.596   1.893  1.0565  1.0891  1.3129
 1795TIP3   OH2 5348   0.782   4.809   2.703 -0.2482  0.1721  0.3627
 1795TIP3    H1 5349   0.749   4.887   2.660 -0.4401  1.1091  2.1350
 1795TIP3    H2 5350   0.875   4.807   2.681 -0.4878  0.1711 -0.7178
 1796TIP3   OH2 5351   4.956   3.739   2.259 -0.1699 -0.0369 -0.6966
 1796TIP3    H1 5352   5.024   3.731   2.326  1.1957  0.0663 -2.0113
 1796TIP3    H2 5353   4.889   3.677   2.286 -0.2890  0.9379  1.4530
 1797TIP3   OH2 5354   4.975   4.674   1.379  0.4296  0.9027 -0.0661
 1797TIP3    H1 5355   4.888   4.650   1.410 -0.0262 -2.3293 -3.1472
 1797TIP3    H2 5356   4.960   4.741   1.313 -0.0185 -0.6809 -1.6505
 1798TIP3   OH2 5357   1.947   5.792   5.076  0.5377  0.2936 -0.1819
 1798TIP3    H1 5358   1.858   5.824   5.060  0.2598 -0.5140 -0.3075
 1798TIP3    H2 5359   1.994   5.810   4.995 -0.1281 -1.2951 -0.9553
 1799TIP3   OH2 5360   4.555   3.482   5.812  0.7342 -0.1778  0.6022
 1799TIP3    H1 5361   4.617   3.542   5.770  1.6111 -2.0004 -0.8968
 1799TIP3    H2 5362   4.609   3.429   5.870  0.0349  0.2160  1.6279
 1800TIP3   OH2 5363   7.192   4.552   0.809 -0.0900 -0.6858 -0.0741
 1800TIP3    H1 5364   7.248   4.495   0.862 -1.5619 -1.6743  0.4529
 1800TIP3    H2 5365   7.159   4.617   0.871 -1.7180 -1.7709  0.2351
 1801TIP3   OH2 5366   5.676   5.506   5.121  0.4654 -0.7477 -0.8441
 1801TIP3    H1 5367   5.587   5.476   5.106  0.3573 -0.1397 -1.4447
 1801TIP3    H2 5368   5.730   5.453   5.062  0.7653 -2.4675  0.8655
 1802TIP3   OH2 5369   2.895   0.610   2.472 -0.2102 -0.1642 -0.1908
 1802TIP3    H1 5370   2.881   0.614   2.567  0.5249 -0.9314 -0.0329
 1802TIP3    H2 5371   2.908   0.516   2.454  2.4084  0.2024 -0.5964
 1803TIP3   OH2 5372   6.608   4.783   4.186 -0.5920 -0.3656  0.7874
 1803TIP3    H1 5373   6.634   4.815   4.272 -0.6685 -0.1140  0.7196
 1803TIP3    H2 5374   6.573   4.696   4.202 -1.7867  0.1660  1.1947
 1804TIP3   OH2 5375   4.250   1.331   5.032  0.8521 -0.2706 -0.6814
 1804TIP3    H1 5376   4.281   1.379   5.109  0.1776 -0.0601 -0.5317
 1804TIP3    H2 5377   4.325   1.329   4.973  1.0316  0.5948 -0.5039
 1805TIP3   OH2 5378   0.370   2.347   0.366 -0.0983  0.6852 -0.0557
 1805TIP3    H1 5379   0.319   2.354   0.286  0.2252  1.5941 -0.1921
 1805TIP3    H2 5380   0.460   2.336   0.336 -0.2280 -1.5408  0.1732
 1806TIP3   OH2 5381   5.215   5.484   3.914  0.3641  0.1016  0.2418
 1806TIP3    H1 5382   5.245   5.563   3.868 -0.4071  1.1027  1.4129
 1806TIP3    H2 5383   5.288   5.462   3.972  0.3669  0.2617  0.2998
 1807TIP3   OH2 5384   0.579   5.022   5.860 -0.3226  0.4053  0.0488
 1807TIP3    H1 5385   0.484   5.019   5.871 -0.4074 -2.4746 -0.7404
 1807TIP3    H2 5386   0.614   4.974   5.935  0.5897  1.9670  0.6669
 1808TIP3   OH2 5387   3.921   0.773   1.938  0.3751  0.0918  0.1507
 1808TIP3    H1 5388   3.831   0.805   1.932  0.4178  0.4790  1.3493
 1808TIP3    H2 5389   3.917   0.701   2.001  0.7406 -0.5540 -0.5477
 1809TIP3   OH2 5390   3.589   6.369   5.598 -0.4331  0.2815 -0.3718
 1809TIP3    H1 5391   3.556   6.328   5.518  1.7856 -0.3104 -1.0464
 1809TIP3    H2 5392   3.518   6.358   5.661 -1.4896 -0.9626 -1.7152
 1810TIP3   OH2 5393   7.191   2.762   2.403  0.8942  0.4872  0.7698
 1810TIP3    H1 5394   7.098   2.757   2.383  1.1386 -0.4839 -0.2822
 1810TIP3    H2 5395   7.198   2.740   2.495  0.1057  0.2999  0.7888
 1811TIP3   OH2 5396   6.805   4.501   4.247 -0.6180 -0.3761 -0.1325
 1811TIP3    H1 5397   6.713   4.515   4.225 -0.3552 -0.3140 -1.2355
 1811TIP3    H2 5398   6.848   4.583   4.224 -0.5794  0.3093  2.2063
 1812TIP3   OH2 5399   4.179   6.571   4.121  0.3260  0.5997 -0.2022
 1812TIP3    H1 5400   4.270   6.560   4.095  0.0264  0.4180 -1.2421
 1812TIP3    H2 5401   4.174   6.535   4.209  1.1557  0.1787 -0.3228
 1813TIP3   OH2 5402   7.189   0.846   5.754 -0.0697  0.0410 -0.1638
 1813TIP3    H1 5403   7.283   0.848   5.736  0.3186  0.3146  1.7232
 1813TIP3    H2 5404   7.148   0.833   5.668  1.6591  0.3942 -1.0734
 1814TIP3   OH2 5405   2.839   3.278   2.453 -0.6775  0.1531 -0.0154
 1814TIP3    H1 5406   2.875   3.227   2.526 -1.5482  0.5609  0.7355
 1814TIP3    H2 5407   2.915   3.307   2.404 -0.1408 -1.3610 -0.1165
 1815TIP3   OH2 5408   1.865   3.168   3.622  0.0663  0.0749  0.4662
 1815TIP3    H1 5409   1.847   3.110   3.696  0.0352 -1.0012 -0.3469
 1815TIP3    H2 5410   1.793   3.153   3.561  1.8926 -1.8781 -1.3942
 1816TIP3   OH2 5411   1.861   6.359   3.803 -0.2835  0.0376 -0.1925
 1816TIP3    H1 5412   1.790   6.367   3.738  1.5805  1.7366 -2.1771
 1816TIP3    H2 5413   1.867   6.447   3.841  1.5309  0.2932 -0.9851
 1817TIP3   OH2 5414   1.689   5.246   4.456 -0.4484 -0.3705 -0.1312
 1817TIP3    H1 5415   1.603   5.283   4.473 -0.3818 -1.0096  1.7945
 1817TIP3    H2 5416   1.705   5.186   4.529  1.1004 -1.2151 -1.1065
 1818TIP3   OH2 5417   4.668   0.275   2.622 -0.1407 -0.1485 -0.0752
 1818TIP3    H1 5418   4.747   0.327   2.608 -0.9600  1.0304 -0.5300
 1818TIP3    H2 5419   4.597   0.339   2.620 -1.0902 -1.1466  0.5849
 1819TIP3   OH2 5420   2.281   6.439   2.254  0.3003  0.6456 -0.2621
 1819TIP3    H1 5421   2.249   6.496   2.184 -0.6574 -0.1218 -0.4634
 1819TIP3    H2 5422   2.245   6.476   2.334 -1.3091 -0.3079 -0.4994
 1820TIP3   OH2 5423   1.393   1.878   1.122  0.0954 -0.0828 -0.5569
 1820TIP3    H1 5424   1.341   1.957   1.108 -0.4900 -0.3204  0.1871
 1820TIP3    H2 5425   1.478   1.897   1.082 -0.3565  0.5475 -1.2390
 1821TIP3   OH2 5426   2.945   6.662   1.225 -0.4021  0.0802 -0.4553
 1821TIP3    H1 5427   2.911   6.736   1.175 -0.4700  1.2028  1.1914
 1821TIP3    H2 5428   3.021   6.698   1.272 -0.8108 -0.6961  0.8566
 1822TIP3   OH2 5429   3.787   2.350   1.616 -0.0881 -0.1295  0.0436
 1822TIP3    H1 5430   3.744   2.424   1.574 -0.8454 -1.8706 -2.4505
 1822TIP3    H2 5431   3.869   2.339   1.568  0.2289 -0.6432  0.6807
 1823TIP3   OH2 5432   6.453   5.434   3.999 -0.2959  1.1007 -0.4063
 1823TIP3    H1 5433   6.487   5.386   4.074 -0.4657 -0.4541 -1.2821
 1823TIP3    H2 5434   6.528   5.482   3.965  0.2217  0.3440 -0.3441
 1824TIP3   OH2 5435   1.870   3.031   0.234  0.1071  0.0035  0.2888
 1824TIP3    H1 5436   1.785   3.074   0.234  0.2413  0.2774  1.3076
 1824TIP3    H2 5437   1.852   2.942   0.203 -0.1683  0.7406 -1.8884
 1825TIP3   OH2 5438   4.778   3.804   0.055 -0.0520 -0.2448  0.4492
 1825TIP3    H1 5439   4.754   3.858   0.130  1.1713  0.6849  0.1946
 1825TIP3    H2 5440   4.856   3.757   0.083 -1.0759 -1.9062  0.6556
 1826TIP3   OH2 5441   5.620   3.618   4.326  0.1596 -0.0791  0.3436
 1826TIP3    H1 5442   5.586   3.596   4.239  0.6887 -1.1907  0.4026
 1826TIP3    H2 5443   5.709   3.649   4.310  0.2771 -0.3378  0.4918
 1827TIP3   OH2 5444   3.886   6.558   4.289 -0.2253  0.3289 -0.2538
 1827TIP3    H1 5445   3.870   6.471   4.325  0.0997  0.5934  0.5555
 1827TIP3    H2 5446   3.888   6.545   4.194  1.1861 -0.7999 -0.1150
 1828TIP3   OH2 5447   3.303   5.420   2.607  0.2019  0.1370 -0.0225
 1828TIP3    H1 5448   3.356   5.431   2.686 -0.8502 -0.0882  0.7307
 1828TIP3    H2 5449   3.295   5.325   2.596 -1.3171  0.1384  0.7745
 1829TIP3   OH2 5450   2.163   5.852   4.288  0.3468  0.5420 -0.1200
 1829TIP3    H1 5451   2.197   5.862   4.199  1.6197 -0.4520  0.2179
 1829TIP3    H2 5452   2.235   5.811   4.337 -0.6669  0.1793  1.1323
 1830TIP3   OH2 5453   2.753   3.269   2.061 -0.3179  0.0710  0.0765
 1830TIP3    H1 5454   2.736   3.360   2.084  1.2125  0.5576 -0.5769
 1830TIP3    H2 5455   2.722   3.261   1.970 -0.2205  0.0171  0.0478
 1831TIP3   OH2 5456   2.287   1.401   4.309  0.9813 -0.6270  0.6720
 1831TIP3    H1 5457   2.246   1.397   4.223  1.0853  1.4552  0.4672
 1831TIP3    H2 5458   2.381   1.388   4.292  0.8333 -1.7652  0.6823
 1832TIP3   OH2 5459   2.753   5.672   0.591 -0.4273  0.5456 -0.0173
 1832TIP3    H1 5460   2.814   5.741   0.565 -1.0160  2.2049  2.6834
 1832TIP3    H2 5461   2.720   5.637   0.508  0.1347  3.2678 -1.5053
 1833TIP3   OH2 5462   5.210   4.312   2.804  0.2503  0.2536 -0.3784
 1833TIP3    H1 5463   5.200   4.245   2.872 -0.0363  1.3766  0.7267
 1833TIP3    H2 5464   5.300   4.344   2.816 -0.1949  1.2913  0.2863
 1834TIP3   OH2 5465   5.488   1.732   1.024 -0.2665 -0.4254 -0.2965
 1834TIP3    H1 5466   5.475   1.805   0.964  0.2290  1.0300  1.3000
 1834TIP3    H2 5467   5.399   1.709   1.053 -0.3894 -0.1833 -0.4793
 1835TIP3   OH2 5468   5.289   2.562   4.028  0.3329 -0.3618 -0.3570
 1835TIP3    H1 5469   5.278   2.546   3.934  0.2626 -1.1756 -0.2139
 1835TIP3    H2 5470   5.379   2.593   4.036  0.2368  0.0371 -0.7294
 1836TIP3   OH2 5471   7.000   4.772   4.176 -0.3541 -0.0935 -0.5050
 1836TIP3    H1 5472   7.012   4.773   4.081  0.3899  0.8120 -0.4209
 1836TIP3    H2 5473   7.054   4.845   4.207 -1.2760  0.1663  0.5292
 1837TIP3   OH2 5474   2.088   2.022   4.055  0.1474 -0.2210 -0.5009
 1837TIP3    H1 5475   2.060   1.973   4.132  0.4949 -1.5217 -1.1680
 1837TIP3    H2 5476   2.163   2.073   4.086  1.4529 -2.1234 -0.3712
 1838TIP3   OH2 5477   5.857   4.023   1.815  0.3714 -0.0168 -0.8585
 1838TIP3    H1 5478   5.826   3.933   1.811 -0.2949  0.2117 -1.0547
 1838TIP3    H2 5479   5.941   4.021   1.770  0.1566 -0.4607 -1.2535
 1839TIP3   OH2 5480   1.693   6.681   4.075  0.4057 -0.2060  0.1530
 1839TIP3    H1 5481   1.783   6.699   4.047 -0.0312 -0.1598 -1.3028
 1839TIP3    H2 5482   1.653   6.768   4.082  0.0159 -0.2978 -0.8417
 1840TIP3   OH2 5483   3.738   4.607   5.197 -0.0742 -0.1829 -0.7931
 1840TIP3    H1 5484   3.689   4.569   5.271 -0.7548  0.3365 -0.9661
 1840TIP3    H2 5485   3.798   4.537   5.171 -0.5035 -0.7308 -0.3747
 1841TIP3   OH2 5486   5.650   6.682   5.708  0.1713  0.6250 -0.4335
 1841TIP3    H1 5487   5.652   6.735   5.787  1.9755  0.3131 -0.2345
 1841TIP3    H2 5488   5.683   6.597   5.734  0.4027  0.3887 -1.4352
 1842TIP3   OH2 5489   0.820   6.427   5.208 -0.1303 -0.7584  0.4672
 1842TIP3    H1 5490   0.877   6.425   5.131 -0.0907 -1.6342  0.5026
 1842TIP3    H2 5491   0.736   6.394   5.176 -0.4080 -0.1715  0.5798
 1843TIP3   OH2 5492   2.991   6.188   1.652  0.0206 -1.0699 -0.3456
 1843TIP3    H1 5493   2.939   6.189   1.733  0.5019  0.3262 -0.0288
 1843TIP3    H2 5494   2.927   6.172   1.583 -0.6694 -0.4774  0.1429
 1844TIP3   OH2 5495   2.516   6.645   2.681  0.3975 -0.6277 -0.0530
 1844TIP3    H1 5496   2.545   6.719   2.735 -1.6797 -1.0965  1.8941
 1844TIP3    H2 5497   2.470   6.685   2.608 -0.1701  0.0393  0.6504
 1845TIP3   OH2 5498   2.316   4.455   2.842  0.5386  0.0083  0.3825
 1845TIP3    H1 5499   2.357   4.393   2.903 -0.8409  0.0491  1.3938
 1845TIP3    H2 5500   2.386   4.517   2.820  0.9707  0.2488  2.2632
 1846TIP3   OH2 5501   2.577   1.556   3.263  0.7463 -0.2868 -0.2559
 1846TIP3    H1 5502   2.507   1.507   3.221  1.1917 -0.7235 -0.4956
 1846TIP3    H2 5503   2.543   1.577   3.350  0.0088  0.2024 -0.6534
 1847TIP3   OH2 5504   2.996   3.329   0.559 -0.4094 -0.1401 -0.1355
 1847TIP3    H1 5505   2.976   3.343   0.466  1.1826  2.3266 -0.1788
 1847TIP3    H2 5506   3.085   3.293   0.559 -0.3758 -0.0542  0.4547
 1848TIP3   OH2 5507   6.814   3.491   0.485  0.2444  0.3848  0.3031
 1848TIP3    H1 5508   6.755   3.550   0.532  1.4700  0.1737  2.1994
 1848TIP3    H2 5509   6.844   3.428   0.550 -0.8065 -2.2676 -1.5846
 1849TIP3   OH2 5510   5.765   0.598   2.799  0.3546  0.3802  0.4059
 1849TIP3    H1 5511   5.831   0.546   2.844  0.4202  1.5114  1.6853
 1849TIP3    H2 5512   5.723   0.537   2.739  0.2299 -1.2270  2.0472
 1850TIP3   OH2 5513   3.239   5.622   1.530 -0.0516 -0.7846 -0.2655
 1850TIP3    H1 5514   3.294   5.670   1.468  0.0831  1.0579  1.2014
 1850TIP3    H2 5515   3.232   5.534   1.493  1.7029 -0.3226 -1.8201
 1851TIP3   OH2 5516   2.639   1.358   5.463  0.5964 -0.4089 -0.2008
 1851TIP3    H1 5517   2.656   1.296   5.393 -0.2089 -0.7870 -0.0661
 1851TIP3    H2 5518   2.725   1.373   5.503  0.7627 -1.6225 -0.0771
 1852TIP3   OH2 5519   1.292   1.327   0.899  0.2053 -0.0930  0.5023
 1852TIP3    H1 5520   1.231   1.386   0.853 -1.0521 -0.1730  1.9939
 1852TIP3    H2 5521   1.292   1.359   0.989  0.6402 -1.4866  1.0122
 1853TIP3   OH2 5522   6.029   1.505   4.549  0.9544 -0.3550  0.0158
 1853TIP3    H1 5523   6.043   1.591   4.508 -0.0185  0.0364  0.4833
 1853TIP3    H2 5524   5.987   1.453   4.480  1.9237 -0.6051 -0.4069
 1854TIP3   OH2 5525   0.322   2.504   2.647 -0.2461 -0.2090  0.1306
 1854TIP3    H1 5526   0.245   2.466   2.603  1.0776 -1.3248 -1.3362
 1854TIP3    H2 5527   0.350   2.575   2.589  1.0952 -1.2319 -0.5327
 1855TIP3   OH2 5528   4.418   0.583   2.942 -0.0944  0.0145  0.6006
 1855TIP3    H1 5529   4.379   0.642   2.877  0.0605  0.4857  0.9312
 1855TIP3    H2 5530   4.440   0.505   2.892  0.1617  0.4296  0.0489
 1856TIP3   OH2 5531   5.673   4.550   4.464 -0.2042  0.7213 -0.4896
 1856TIP3    H1 5532   5.690   4.458   4.482  0.8621  1.2545  1.5526
 1856TIP3    H2 5533   5.580   4.554   4.441 -0.3905 -0.7812 -0.0566
 1857TIP3   OH2 5534   4.363   4.594   5.791  0.2155  0.5918 -0.8157
 1857TIP3    H1 5535   4.427   4.531   5.759 -0.8741 -0.3756 -1.1584
 1857TIP3    H2 5536   4.352   4.573   5.883 -0.0552  0.3536 -0.9008
 1858TIP3   OH2 5537   7.013   0.746   5.176  0.1239 -0.7961 -0.7421
 1858TIP3    H1 5538   6.951   0.675   5.169 -0.5870 -0.7486  3.0255
 1858TIP3    H2 5539   6.959   0.824   5.190  0.9549 -0.2640 -0.4116
 1859TIP3   OH2 5540   3.490   3.950   0.378  0.0034  0.0951 -0.6001
 1859TIP3    H1 5541   3.534   3.875   0.339  0.2623 -0.3128  0.4273
 1859TIP3    H2 5542   3.415   3.911   0.424 -0.9371  0.6818 -1.6096
 1860TIP3   OH2 5543   6.259   0.461   5.184  0.2707  0.7971  0.2492
 1860TIP3    H1 5544   6.263   0.473   5.089 -1.2918  2.3507  0.3116
 1860TIP3    H2 5545   6.252   0.550   5.219 -1.9643  0.1881  1.5960
 1861TIP3   OH2 5546   3.608   4.065   2.702  0.2068  0.3001 -0.6513
 1861TIP3    H1 5547   3.609   4.081   2.607 -1.1091 -0.2554 -0.7803
 1861TIP3    H2 5548   3.558   3.984   2.712  1.3751 -0.3238  0.4398
 1862TIP3   OH2 5549   4.252   5.800   5.055 -0.2276  0.4653  0.6478
 1862TIP3    H1 5550   4.230   5.826   5.144 -0.6226  1.2185  0.3342
 1862TIP3    H2 5551   4.210   5.714   5.044 -0.2189  0.3918  1.1618
 1863TIP3   OH2 5552   1.402   4.177   2.817 -0.4540  0.6813  0.6482
 1863TIP3    H1 5553   1.449   4.241   2.764  0.8277 -0.4067  0.4371
 1863TIP3    H2 5554   1.438   4.189   2.905 -1.7207  1.6583  1.0691
 1864TIP3   OH2 5555   1.226   5.227   1.082  0.7570  0.6115  0.0006
 1864TIP3    H1 5556   1.269   5.289   1.142  0.0515  0.4243  0.7158
 1864TIP3    H2 5557   1.142   5.269   1.061  1.2130  0.9306 -1.3101
 1865TIP3   OH2 5558   3.514   1.020   3.343  0.3178 -0.1392 -0.1046
 1865TIP3    H1 5559   3.515   1.024   3.248 -0.3097 -0.6411 -0.1376
 1865TIP3    H2 5560   3.573   1.090   3.371  0.8127 -0.2443 -0.8640
 1866TIP3   OH2 5561   4.849   4.658   0.548 -0.9479 -0.1021 -0.3061
 1866TIP3    H1 5562   4.809   4.649   0.634 -0.6792 -2.2802 -0.3412
 1866TIP3    H2 5563   4.798   4.725   0.504 -0.9322  1.2456  1.6124
 1867TIP3   OH2 5564   5.711   1.201   5.248  0.0441  0.1040 -0.1891
 1867TIP3    H1 5565   5.755   1.200   5.333 -0.7988 -1.6215  0.2650
 1867TIP3    H2 5566   5.619   1.217   5.269 -0.0702  0.3386 -0.8441
 1868TIP3   OH2 5567   2.093   0.484   1.883  0.1781  0.1039  0.0945
 1868TIP3    H1 5568   2.016   0.503   1.830  0.8050  0.9513 -0.5413
 1868TIP3    H2 5569   2.138   0.568   1.891  1.3875 -0.5050 -0.1087
 1869TIP3   OH2 5570   1.226   2.936   0.766  0.6098  0.1388  0.2113
 1869TIP3    H1 5571   1.298   2.989   0.730  1.7830  1.1295  3.6629
 1869TIP3    H2 5572   1.163   3.000   0.798 -0.0882 -0.6783  0.4954
 1870TIP3   OH2 5573   3.379   5.167   0.226 -0.1689  0.1541  0.0072
 1870TIP3    H1 5574   3.320   5.108   0.273  1.0095 -0.5174  0.6916
 1870TIP3    H2 5575   3.435   5.204   0.295  0.9186 -0.0561 -0.7395
 1871TIP3   OH2 5576   6.017   1.923   4.663 -0.4131 -0.4316  0.3583
 1871TIP3    H1 5577   6.093   1.981   4.675  0.0952 -1.1675  0.7288
 1871TIP3    H2 5578   5.977   1.919   4.750 -1.0015  0.1107  0.1198
 1872TIP3   OH2 5579   2.691   5.960   1.746  0.3553 -0.3208 -0.1278
 1872TIP3    H1 5580   2.770   5.914   1.776  1.0517  0.7144 -0.3125
 1872TIP3    H2 5581   2.675   5.925   1.658 -0.1075 -1.4009  0.3712
 1873TIP3   OH2 5582   0.897   1.826   0.053  0.2449  0.1582  0.1992
 1873TIP3    H1 5583   0.933   1.872  -0.023  2.5534 -0.2757  0.9648
 1873TIP3    H2 5584   0.939   1.868   0.129 -0.1901 -0.9708  1.0989
 1874TIP3   OH2 5585   1.281   0.508   5.490  0.1140 -0.1651  0.0430
 1874TIP3    H1 5586   1.227   0.512   5.411  3.6354  0.4784 -2.5528
 1874TIP3    H2 5587   1.277   0.596   5.527  1.1691  0.5761 -1.5090
 1875TIP3   OH2 5588   0.520   1.355   4.873 -0.3998  0.0823 -0.5746
 1875TIP3    H1 5589   0.602   1.308   4.886 -0.0397  1.1091  1.1572
 1875TIP3    H2 5590   0.458   1.288   4.843  0.0705 -1.5663  1.8766
 1876TIP3   OH2 5591   4.790   3.133   4.045 -0.0571  0.0477  0.1786
 1876TIP3    H1 5592   4.801   3.169   4.133 -1.5614  1.1456 -0.0553
 1876TIP3    H2 5593   4.873   3.089   4.027  0.8217  1.0589  1.5667
 1877TIP3   OH2 5594   5.361   1.940   3.622  0.0297 -0.5597  0.0623
 1877TIP3    H1 5595   5.288   1.914   3.567 -0.5500 -0.4577  0.7685
 1877TIP3    H2 5596   5.411   2.001   3.568 -0.8463 -0.0173 -0.1544
 1878TIP3   OH2 5597   4.714   0.576   2.373 -0.0708  0.3880  0.2625
 1878TIP3    H1 5598   4.775   0.650   2.368 -0.9111  1.0642 -0.1654
 1878TIP3    H2 5599   4.719   0.536   2.286 -0.9824  1.0655 -0.1194
 1879TIP3   OH2 5600   2.703   4.071   5.288 -0.5385  0.0464  0.2389
 1879TIP3    H1 5601   2.744   3.991   5.253 -1.1742  0.3193 -1.1998
 1879TIP3    H2 5602   2.742   4.142   5.238  0.5080  0.7413  1.9630
 1880TIP3   OH2 5603   5.889   6.181   4.062  0.3920 -0.4896 -0.6082
 1880TIP3    H1 5604   5.809   6.153   4.017 -0.1804 -0.2902  0.2395
 1880TIP3    H2 5605   5.923   6.101   4.101 -0.0467 -0.3921 -0.0026
 1881TIP3   OH2 5606   4.828   6.284   4.618 -0.2722 -0.5403 -0.5783
 1881TIP3    H1 5607   4.733   6.295   4.624 -0.3343 -0.7088 -1.2175
 1881TIP3    H2 5608   4.844   6.193   4.644 -0.1310 -0.1326  0.9174
 1882TIP3   OH2 5609   1.553   4.948   3.719 -0.0359  0.3034 -0.2851
 1882TIP3    H1 5610   1.506   4.927   3.639  0.8390  0.6725 -0.9207
 1882TIP3    H2 5611   1.517   4.889   3.785 -1.3102  0.5292 -0.7555
 1883TIP3   OH2 5612   4.955   6.346   2.120 -0.1362 -0.4727  0.2732
 1883TIP3    H1 5613   4.969   6.439   2.136  1.5288 -0.9804  2.2380
 1883TIP3    H2 5614   4.876   6.342   2.065 -0.6835  2.0310  0.7662
 1884TIP3   OH2 5615   3.592   2.505   5.342 -0.0860 -0.5714 -0.1246
 1884TIP3    H1 5616   3.635   2.567   5.402  0.5058  1.0002 -2.0669
 1884TIP3    H2 5617   3.505   2.492   5.379  0.5586 -0.4096  1.5608
 1885TIP3   OH2 5618   2.365   3.468   0.735  0.2276  0.0170  0.0029
 1885TIP3    H1 5619   2.326   3.452   0.649 -0.2301 -1.1433  0.4072
 1885TIP3    H2 5620   2.449   3.422   0.732  0.1653 -0.1120  0.2051
 1886TIP3   OH2 5621   4.681   6.789   4.073  0.2517  0.3547  0.1470
 1886TIP3    H1 5622   4.680   6.818   3.982 -1.5911 -1.5821 -0.5417
 1886TIP3    H2 5623   4.588   6.787   4.098  0.7301  0.9107  2.1142
 1887TIP3   OH2 5624   0.550   5.062   4.233  0.0716 -0.6702  0.2206
 1887TIP3    H1 5625   0.571   5.072   4.140 -0.4898 -0.7145  0.0865
 1887TIP3    H2 5626   0.617   5.113   4.279  0.2879 -0.5632 -0.2120
 1888TIP3   OH2 5627   1.067   5.328   4.731 -0.2417 -0.2327 -0.4141
 1888TIP3    H1 5628   1.103   5.397   4.787  0.4596  0.0042 -1.1348
 1888TIP3    H2 5629   1.080   5.247   4.782 -0.7286  0.1152  0.2766
 1889TIP3   OH2 5630   4.730   6.211   0.126  0.0597 -0.1447  0.1817
 1889TIP3    H1 5631   4.807   6.158   0.106  0.1126  0.0005  0.0057
 1889TIP3    H2 5632   4.720   6.269   0.051 -1.0655 -1.1478 -0.5026
 1890TIP3   OH2 5633   5.414   4.925   1.028  0.0213 -0.1973  0.2946
 1890TIP3    H1 5634   5.433   4.968   1.111 -0.7323 -0.3708  0.5709
 1890TIP3    H2 5635   5.369   4.992   0.976 -0.1500 -0.3069  0.3002
 1891TIP3   OH2 5636   0.899   6.181   0.128  0.3760 -0.0099 -0.6317
 1891TIP3    H1 5637   0.927   6.090   0.139 -0.4093 -0.0022  2.0580
 1891TIP3    H2 5638   0.805   6.175   0.109 -0.2368  0.2162  1.9725
 1892TIP3   OH2 5639   2.419   2.320   0.813  0.5837 -0.4023  0.4850
 1892TIP3    H1 5640   2.392   2.330   0.722  0.7709 -0.2967  0.4401
 1892TIP3    H2 5641   2.405   2.406   0.852 -1.6572 -1.0093  1.1510
 1893TIP3   OH2 5642   7.013   1.783   2.114 -0.1894 -0.0604 -0.4402
 1893TIP3    H1 5643   7.056   1.720   2.057 -1.2217 -0.3816 -0.8908
 1893TIP3    H2 5644   7.084   1.834   2.152  0.5636  2.6074 -4.7333
 1894TIP3   OH2 5645   2.815   2.993   5.702 -0.2159 -0.3824  0.0830
 1894TIP3    H1 5646   2.894   3.047   5.710  0.9743 -1.8598 -1.1392
 1894TIP3    H2 5647   2.777   2.994   5.790 -1.4923  4.0918 -0.2667
 1895TIP3   OH2 5648   3.116   0.219   0.119 -0.5519 -0.1291 -0.1411
 1895TIP3    H1 5649   3.044   0.281   0.103  0.2941  1.1184  0.7046
 1895TIP3    H2 5650   3.131   0.178   0.034  0.6591  2.8402 -1.4890
 1896TIP3   OH2 5651   2.212   2.992   0.876  0.5146 -0.4129  0.3480
 1896TIP3    H1 5652   2.295   3.011   0.918  0.9596 -0.0439 -0.6751
 1896TIP3    H2 5653   2.217   3.035   0.790 -0.0249 -1.8129 -0.4278
 1897TIP3   OH2 5654   0.841   0.145   2.741  0.5891  0.3225 -0.3704
 1897TIP3    H1 5655   0.805   0.212   2.682  0.1488 -0.3780 -0.9057
 1897TIP3    H2 5656   0.855   0.191   2.823 -1.3727  0.6649 -0.2010
 1898TIP3   OH2 5657   1.593   2.775   1.534  0.3797 -0.4593 -0.5460
 1898TIP3    H1 5658   1.544   2.699   1.564  0.2036  0.0205  0.4116
 1898TIP3    H2 5659   1.534   2.849   1.550  0.7763 -0.0554 -0.9201
 1899TIP3   OH2 5660   5.978   0.366   3.330  0.3705  0.4142 -0.1587
 1899TIP3    H1 5661   6.012   0.347   3.243  0.7197  0.3977 -0.0192
 1899TIP3    H2 5662   6.050   0.345   3.389  0.3768  1.0999  0.0836
 1900TIP3   OH2 5663   5.065   1.682   4.268  0.8036 -0.5707 -0.4553
 1900TIP3    H1 5664   5.003   1.734   4.217 -0.0475 -2.6271 -1.6339
 1900TIP3    H2 5665   5.024   1.675   4.355  1.4714  1.5767  0.0820
 1901TIP3   OH2 5666   3.393   1.988   3.079  0.2756  0.2904 -0.4797
 1901TIP3    H1 5667   3.365   2.013   2.991  0.9888  1.4502 -0.3915
 1901TIP3    H2 5668   3.475   2.035   3.093  2.0035 -2.4563 -0.4601
 1902TIP3   OH2 5669   4.655   3.304   0.210 -0.1747  0.0933 -0.1849
 1902TIP3    H1 5670   4.612   3.367   0.153 -1.2557  0.1927  0.6951
 1902TIP3    H2 5671   4.634   3.334   0.299 -0.2955 -1.2226  0.2533
 1903TIP3   OH2 5672   2.454   5.549   4.656 -0.2328 -0.3562  0.1427
 1903TIP3    H1 5673   2.433   5.547   4.750 -0.6267 -0.3247  0.0583
 1903TIP3    H2 5674   2.525   5.485   4.646 -0.4967 -0.6962  0.3910
 1904TIP3   OH2 5675   4.194   1.524   4.826  0.0863 -0.4547 -0.4479
 1904TIP3    H1 5676   4.191   1.455   4.893 -0.4215  0.8503  0.9217
 1904TIP3    H2 5677   4.109   1.519   4.784 -1.2052  1.2806  1.7526
 1905TIP3   OH2 5678   0.357   5.474   3.252  0.4754  0.5317 -0.2849
 1905TIP3    H1 5679   0.290   5.439   3.193  1.4793 -3.2083  0.5372
 1905TIP3    H2 5680   0.432   5.491   3.195  0.8614 -1.3901 -0.4039
 1906TIP3   OH2 5681   5.584   6.083   4.529  0.1200  0.6349 -0.2098
 1906TIP3    H1 5682   5.635   6.145   4.581 -0.9532  0.5329  1.0215
 1906TIP3    H2 5683   5.496   6.122   4.526 -0.4408 -0.5620  0.1446
 1907TIP3   OH2 5684   0.282   6.733   0.179 -0.1098 -0.0884  0.0188
 1907TIP3    H1 5685   0.312   6.823   0.191  0.8939 -0.3170 -0.6333
 1907TIP3    H2 5686   0.189   6.736   0.200 -0.1054  1.1144 -0.0494
 1908TIP3   OH2 5687   2.910   0.360   0.054  0.6887 -0.0254  0.2598
 1908TIP3    H1 5688   2.925   0.318  -0.031 -0.4672  0.2394 -0.0988
 1908TIP3    H2 5689   2.891   0.451   0.033 -1.2345 -0.2889  0.6160
 1909TIP3   OH2 5690   0.690   5.726   1.634 -0.3371 -0.5221 -0.0054
 1909TIP3    H1 5691   0.627   5.670   1.680  1.0123 -1.2066  1.0950
 1909TIP3    H2 5692   0.774   5.681   1.645  0.6906  1.4108  0.3942
 1910TIP3   OH2 5693   6.749   3.712   3.932  0.0630 -0.6392  0.4611
 1910TIP3    H1 5694   6.813   3.708   3.862  1.1177 -1.2838  1.4260
 1910TIP3    H2 5695   6.801   3.719   4.012 -0.9717 -2.7999  1.4068
 1911TIP3   OH2 5696   1.324   2.132   1.477 -0.2541 -0.3403  0.6388
 1911TIP3    H1 5697   1.403   2.107   1.429 -0.3212 -1.2585  0.9854
 1911TIP3    H2 5698   1.340   2.104   1.567 -1.0319 -0.6970  0.6810
 1912TIP3   OH2 5699   5.043   4.185   5.842  0.1278  0.0614 -0.3158
 1912TIP3    H1 5700   5.003   4.252   5.897 -0.7314  0.4875 -1.4046
 1912TIP3    H2 5701   5.045   4.224   5.755  2.1012 -0.3237 -0.4755
 1913TIP3   OH2 5702   1.268   1.094   4.287  0.3996  0.5477 -0.0726
 1913TIP3    H1 5703   1.282   1.129   4.199  0.3845 -0.5641 -0.5415
 1913TIP3    H2 5704   1.243   1.002   4.272  2.7200 -0.3550  1.1855
 1914TIP3   OH2 5705   5.501   0.399   3.962  0.0378 -0.0169  0.3682
 1914TIP3    H1 5706   5.531   0.483   3.995 -0.6933 -0.1014  1.3165
 1914TIP3    H2 5707   5.443   0.421   3.889 -0.0647  0.3065  0.5425
 1915TIP3   OH2 5708   2.243   2.042   4.799 -0.0070 -0.4352  0.3012
 1915TIP3    H1 5709   2.162   2.081   4.832  0.0298 -0.1707  0.0815
 1915TIP3    H2 5710   2.215   1.972   4.740 -0.0775 -0.2379  0.0993
 1916TIP3   OH2 5711   1.254   4.853   0.880 -0.7625 -0.0572 -0.0199
 1916TIP3    H1 5712   1.275   4.822   0.968 -3.7847  0.1463  0.8857
 1916TIP3    H2 5713   1.264   4.948   0.886 -0.0601 -0.1213 -0.1731
 1917TIP3   OH2 5714   4.937   6.470   0.715  0.1324 -0.5458 -0.5664
 1917TIP3    H1 5715   4.918   6.460   0.621 -0.6296 -1.7739 -0.3187
 1917TIP3    H2 5716   4.960   6.562   0.726 -1.8862  0.1631 -1.6294
 1918TIP3   OH2 5717   6.182   6.434   3.345  0.1292  0.4125 -0.0408
 1918TIP3    H1 5718   6.136   6.361   3.384 -1.2773  1.6689  0.7493
 1918TIP3    H2 5719   6.268   6.434   3.387  0.1491 -0.7694 -0.0639
 1919TIP3   OH2 5720   2.794   0.995   5.539  0.1731 -0.1716 -0.2756
 1919TIP3    H1 5721   2.820   1.063   5.600 -1.3276 -0.5157  0.8005
 1919TIP3    H2 5722   2.775   0.919   5.594 -0.1415 -0.8368 -1.2634
 1920TIP3   OH2 5723   6.162   0.771   5.193  0.1837 -0.0967  0.4349
 1920TIP3    H1 5724   6.071   0.753   5.169  0.7246 -0.7485 -1.3437
 1920TIP3    H2 5725   6.173   0.732   5.280 -0.5118 -2.5459 -0.4986
 1921TIP3   OH2 5726   4.181   4.696   3.434  0.0763  0.5460 -0.6541
 1921TIP3    H1 5727   4.204   4.784   3.405  1.2716  0.4675  0.0035
 1921TIP3    H2 5728   4.224   4.687   3.519  0.3412 -0.8332 -0.9184
 1922TIP3   OH2 5729   6.463   5.552   5.101  0.1592  0.2300 -0.7659
 1922TIP3    H1 5730   6.472   5.475   5.158 -0.8833  0.3752 -0.3826
 1922TIP3    H2 5731   6.439   5.516   5.016 -1.6434  0.1690 -0.2712
 1923TIP3   OH2 5732   4.463   6.346   0.984  0.1480 -0.4594  0.1052
 1923TIP3    H1 5733   4.526   6.296   1.036 -1.1933 -0.6370  1.6258
 1923TIP3    H2 5734   4.424   6.407   1.046 -0.5112  0.3190 -1.0295
 1924TIP3   OH2 5735   4.298   4.887   0.202  0.3760 -0.1117 -0.1251
 1924TIP3    H1 5736   4.271   4.796   0.211 -0.5409  0.1254 -0.3627
 1924TIP3    H2 5737   4.392   4.883   0.186  0.0984 -1.0915 -1.6625
 1925TIP3   OH2 5738   6.865   2.344   0.083  0.0086  0.1630  0.3610
 1925TIP3    H1 5739   6.791   2.293   0.050 -1.2894  1.8740  0.4331
 1925TIP3    H2 5740   6.874   2.317   0.175 -0.1049 -0.5330  0.1650
 1926TIP3   OH2 5741   5.642   1.854   4.058  0.1639 -0.2468  0.0730
 1926TIP3    H1 5742   5.649   1.949   4.044 -0.1371 -0.0894  0.9242
 1926TIP3    H2 5743   5.662   1.843   4.151 -0.1668 -0.9857  0.0553
 1927TIP3   OH2 5744   4.211   0.157   0.977  0.2408  0.2765  0.2640
 1927TIP3    H1 5745   4.236   0.177   1.067  0.7441 -1.7763  0.6418
 1927TIP3    H2 5746   4.280   0.098   0.946 -1.7791 -2.0241 -0.1732
 1928TIP3   OH2 5747   2.391   1.376   3.859 -0.5639 -0.2772  0.1245
 1928TIP3    H1 5748   2.317   1.425   3.823 -1.1184 -0.0928  1.4520
 1928TIP3    H2 5749   2.421   1.429   3.933 -0.1213 -1.1340  0.5764
 1929TIP3   OH2 5750   5.358   5.410   4.367 -0.6465 -0.1608 -0.0122
 1929TIP3    H1 5751   5.320   5.412   4.455 -0.3093  3.0047  0.1636
 1929TIP3    H2 5752   5.384   5.319   4.354 -1.5290 -0.8948  2.7967
 1930TIP3   OH2 5753   4.411   2.715   5.420  0.2876 -0.1054 -0.2352
 1930TIP3    H1 5754   4.355   2.651   5.378  1.4875 -1.5357  0.2728
 1930TIP3    H2 5755   4.496   2.704   5.377  0.8639  0.1792  0.8043
 1931TIP3   OH2 5756   4.342   2.541   2.380  0.0786  0.6097  0.1421
 1931TIP3    H1 5757   4.394   2.527   2.301 -0.7631 -0.5216 -0.2366
 1931TIP3    H2 5758   4.313   2.454   2.405 -3.3816  1.3111 -0.8658
 1932TIP3   OH2 5759   4.639   0.596   4.040  0.2121  0.0706 -0.4607
 1932TIP3    H1 5760   4.659   0.648   3.963 -0.1640 -0.7874 -1.1518
 1932TIP3    H2 5761   4.590   0.521   4.007 -0.1326 -0.2149  0.6352
 1933TIP3   OH2 5762   5.264   0.981   2.774  0.0940  0.3256 -0.3513
 1933TIP3    H1 5763   5.229   1.033   2.846  0.3410 -0.6076  0.4654
 1933TIP3    H2 5764   5.354   0.961   2.800  0.0145 -0.4697 -0.6539
 1934TIP3   OH2 5765   0.535   2.807   1.384 -0.5040 -0.0284 -0.4792
 1934TIP3    H1 5766   0.550   2.900   1.401 -1.0027  0.0276 -0.3110
 1934TIP3    H2 5767   0.457   2.786   1.436  0.4108 -0.8766  0.5839
 1935TIP3   OH2 5768   5.234   5.357   1.012  0.0700 -0.5977 -0.4582
 1935TIP3    H1 5769   5.141   5.354   0.988  0.0754  1.7716 -1.0247
 1935TIP3    H2 5770   5.235   5.334   1.104 -1.0407 -1.0491 -0.5386
 1936TIP3   OH2 5771   2.211   5.095   3.836 -0.2570 -0.4874 -0.4917
 1936TIP3    H1 5772   2.127   5.051   3.850  0.2088 -1.2652 -0.0811
 1936TIP3    H2 5773   2.247   5.053   3.758 -1.1773  1.2992 -1.9473
 1937TIP3   OH2 5774   4.831   1.640   5.161  0.0466  0.1674  0.1822
 1937TIP3    H1 5775   4.925   1.623   5.175  0.3798  1.2622 -0.5480
 1937TIP3    H2 5776   4.789   1.555   5.174  0.9223 -0.0154  2.1952
 1938TIP3   OH2 5777   5.940   2.868   5.836  0.0519  0.0817 -0.2163
 1938TIP3    H1 5778   5.875   2.822   5.889  0.8082 -1.1288 -0.2999
 1938TIP3    H2 5779   6.024   2.830   5.863  0.7828  1.8349  0.1245
 1939TIP3   OH2 5780   4.284   4.019   5.354 -0.1932 -0.4638  0.2172
 1939TIP3    H1 5781   4.202   3.977   5.327 -0.5741  0.4126 -0.0264
 1939TIP3    H2 5782   4.342   3.946   5.377 -0.8493 -1.1148 -0.1512
 1940TIP3   OH2 5783   6.605   5.068   5.660  0.2097 -0.1555 -0.1800
 1940TIP3    H1 5784   6.674   5.103   5.604  0.6200 -0.9727 -0.2006
 1940TIP3    H2 5785   6.643   5.068   5.748 -0.1219  0.3125 -0.0330
 1941TIP3   OH2 5786   3.225   2.673   4.531 -0.2225  1.4213  0.1831
 1941TIP3    H1 5787   3.178   2.589   4.525  2.9299 -0.4978 -0.0901
 1941TIP3    H2 5788   3.226   2.706   4.441  0.6599  0.3884 -0.2182
 1942TIP3   OH2 5789   2.252   2.509   5.493  0.0045 -0.1819 -0.1032
 1942TIP3    H1 5790   2.249   2.511   5.397 -0.2322 -1.3601 -0.1388
 1942TIP3    H2 5791   2.168   2.470   5.518 -0.5726  1.5004  0.6608
 1943TIP3   OH2 5792   1.130   0.463   4.985 -0.0457  0.1003 -0.0583
 1943TIP3    H1 5793   1.110   0.420   4.902 -3.5559  0.8668  0.2374
 1943TIP3    H2 5794   1.170   0.547   4.959  0.1510 -0.2333 -0.8859
 1944TIP3   OH2 5795   4.045   2.908   0.383  0.0808 -0.1574  0.5623
 1944TIP3    H1 5796   4.139   2.917   0.367 -0.0669 -1.4534 -1.4166
 1944TIP3    H2 5797   4.036   2.825   0.429  0.0150  0.7963  2.3189
 1945TIP3   OH2 5798   0.918   3.999   5.698 -0.0988 -0.1643  0.2422
 1945TIP3    H1 5799   0.913   3.953   5.615 -0.9522  2.1741 -1.1011
 1945TIP3    H2 5800   0.996   3.964   5.741  1.0808 -0.5655 -2.1013
 1946TIP3   OH2 5801   0.455   3.111   0.013  0.0139  0.2139 -0.1910
 1946TIP3    H1 5802   0.421   3.199   0.026  0.3305  0.3238 -0.0983
 1946TIP3    H2 5803   0.378   3.054   0.018  0.0037  0.3245  1.4738
 1947TIP3   OH2 5804   0.673   3.027   1.520  0.1325  0.7109 -0.1258
 1947TIP3    H1 5805   0.704   3.028   1.611  1.5252 -0.9842 -0.5337
 1947TIP3    H2 5806   0.692   3.114   1.487  0.7068  0.9776  0.8646
 1948TIP3   OH2 5807   7.075   1.188   3.685  0.0453  0.3077  0.2246
 1948TIP3    H1 5808   7.037   1.269   3.652  0.3149  0.5819  0.5811
 1948TIP3    H2 5809   7.039   1.119   3.628 -2.0916  0.3772  1.4121
 1949TIP3   OH2 5810   0.820   1.113   1.219 -0.5474  0.2087 -0.0019
 1949TIP3    H1 5811   0.892   1.154   1.267 -0.8437  0.2712  0.3856
 1949TIP3    H2 5812   0.742   1.134   1.269 -0.9487  0.8479 -0.8656
 1950TIP3   OH2 5813   7.019   5.138   5.397  0.1034 -0.2726  0.0495
 1950TIP3    H1 5814   7.065   5.076   5.341 -0.7033 -0.3627 -0.5223
 1950TIP3    H2 5815   7.049   5.117   5.486 -0.2400 -1.5546 -0.1219
 1951TIP3   OH2 5816   3.148   6.737   2.940  0.3677 -0.2493  0.1097
 1951TIP3    H1 5817   3.185   6.795   3.006  1.8048 -1.5864  0.5327
 1951TIP3    H2 5818   3.061   6.713   2.975 -0.1128  1.3388  0.0711
 1952TIP3   OH2 5819   0.891   3.848   2.762 -0.8001  0.3601  0.2231
 1952TIP3    H1 5820   0.931   3.883   2.842  2.1261 -2.9582  0.4977
 1952TIP3    H2 5821   0.954   3.870   2.693 -1.1967 -0.3425 -0.3713
 1953TIP3   OH2 5822   1.060   5.519   0.045  0.2404 -0.2317  0.2626
 1953TIP3    H1 5823   1.034   5.483   0.129  2.1337  1.6753  1.7697
 1953TIP3    H2 5824   1.153   5.538   0.055  0.1606  1.5481 -1.6941
 1954TIP3   OH2 5825   1.584   4.692   0.336 -0.1345 -0.1237 -0.7415
 1954TIP3    H1 5826   1.661   4.690   0.280  0.5021  0.3314  0.1015
 1954TIP3    H2 5827   1.612   4.651   0.418 -0.9455 -0.4504 -0.6096
 1955TIP3   OH2 5828   2.044   6.652   4.751 -0.0198 -0.3140  0.0200
 1955TIP3    H1 5829   1.954   6.622   4.762 -0.7979  1.4920 -1.0740
 1955TIP3    H2 5830   2.040   6.747   4.758  1.5393 -0.0656 -1.5692
 1956TIP3   OH2 5831   1.850   6.396   3.366 -0.2150 -0.1640  0.2254
 1956TIP3    H1 5832   1.825   6.315   3.322 -1.7963  0.1047  0.5543
 1956TIP3    H2 5833   1.890   6.449   3.297  0.5474 -1.0729 -0.0641
 1957TIP3   OH2 5834   0.405   5.981   3.582  0.3849 -0.6946 -0.4811
 1957TIP3    H1 5835   0.318   5.942   3.594  0.4753 -0.4806  0.9901
 1957TIP3    H2 5836   0.466   5.908   3.598  0.4947 -0.7191 -0.9920
 1958TIP3   OH2 5837   2.415   3.391   2.994 -0.2281 -0.0550 -0.2910
 1958TIP3    H1 5838   2.339   3.425   3.041  0.0269  1.8587 -1.1381
 1958TIP3    H2 5839   2.482   3.458   3.005  1.0331 -1.2663 -0.3519
 1959TIP3   OH2 5840   3.394   1.025   0.123 -0.2994 -0.2788  0.2478
 1959TIP3    H1 5841   3.370   1.012   0.031 -1.9796 -0.8791  0.7350
 1959TIP3    H2 5842   3.370   0.943   0.166 -0.8777  0.5104  1.4794
 1960TIP3   OH2 5843   4.161   1.628   2.528 -0.1992  0.0894 -0.0730
 1960TIP3    H1 5844   4.122   1.714   2.539 -1.7062 -0.7968  2.2552
 1960TIP3    H2 5845   4.094   1.566   2.556  1.7730 -1.6843  1.1396
 1961TIP3   OH2 5846   4.737   0.941   4.997 -0.1323  0.6456  0.0586
 1961TIP3    H1 5847   4.755   1.031   5.025  1.7845  0.3033  0.0399
 1961TIP3    H2 5848   4.763   0.887   5.071  1.5886 -0.0447 -0.9998
 1962TIP3   OH2 5849   4.559   3.725   2.075  0.3192 -0.6542  0.1594
 1962TIP3    H1 5850   4.601   3.786   2.135 -2.4827  0.4938  1.1349
 1962TIP3    H2 5851   4.497   3.676   2.129 -1.1211 -0.7541 -1.4671
 1963TIP3   OH2 5852   2.173   4.988   2.273  0.3645  0.4195  0.0118
 1963TIP3    H1 5853   2.154   5.007   2.365 -0.0910 -0.3154  0.0822
 1963TIP3    H2 5854   2.088   4.967   2.235  0.9391 -3.9125  0.5567
 1964TIP3   OH2 5855   5.347   3.326   1.059  0.2527  0.3925 -0.2752
 1964TIP3    H1 5856   5.403   3.284   0.993  1.3866  1.0243  0.2621
 1964TIP3    H2 5857   5.292   3.386   1.008  1.2428  1.0130 -0.6658
 1965TIP3   OH2 5858   0.323   3.275   1.434 -0.1625 -0.5569  0.3679
 1965TIP3    H1 5859   0.244   3.326   1.416  0.9362  1.2177  0.3485
 1965TIP3    H2 5860   0.344   3.232   1.351  0.2760  1.0127 -0.3755
 1966TIP3   OH2 5861   0.851   6.556   3.835 -0.5103  0.2538  0.0073
 1966TIP3    H1 5862   0.888   6.640   3.811 -2.5531  1.6453  1.4304
 1966TIP3    H2 5863   0.757   6.565   3.819 -0.5307 -2.9323 -2.9862
 1967TIP3   OH2 5864   2.880   4.479   5.715  0.0224 -0.1338  0.2318
 1967TIP3    H1 5865   2.869   4.566   5.753 -1.5159 -0.3030  0.2474
 1967TIP3    H2 5866   2.853   4.490   5.623 -1.8563 -0.9092  0.6402
 1968TIP3   OH2 5867   4.570   1.948   3.653 -0.0959 -0.0428  0.1294
 1968TIP3    H1 5868   4.575   1.862   3.612  1.4294  1.0929 -2.3074
 1968TIP3    H2 5869   4.553   1.930   3.746  0.8632 -2.9663 -0.1736
 1969TIP3   OH2 5870   6.019   1.645   5.257 -0.0823 -0.3416  0.5055
 1969TIP3    H1 5871   5.939   1.625   5.208  0.3282 -1.7072  0.3384
 1969TIP3    H2 5872   6.081   1.578   5.229  0.7249 -0.0599  1.5719
 1970TIP3   OH2 5873   2.058   0.848   4.154 -0.2503 -0.5629  0.0192
 1970TIP3    H1 5874   2.027   0.933   4.184 -0.8183 -0.5466 -0.5974
 1970TIP3    H2 5875   2.151   0.861   4.135 -0.3872 -0.0240 -0.2890
 1971TIP3   OH2 5876   6.829   6.380   0.317  0.1049  0.1847 -0.1752
 1971TIP3    H1 5877   6.762   6.339   0.372 -0.7293  2.4653  0.6414
 1971TIP3    H2 5878   6.779   6.428   0.251  0.9669  1.0802 -0.1974
 1972TIP3   OH2 5879   6.495   1.355   1.198 -0.0017 -0.2364  0.1169
 1972TIP3    H1 5880   6.549   1.434   1.196 -0.7349  0.2783 -1.7465
 1972TIP3    H2 5881   6.558   1.283   1.204  0.7150  0.4455  1.0130
 1973TIP3   OH2 5882   3.226   5.045   4.542  0.2461  0.1118  0.0647
 1973TIP3    H1 5883   3.280   5.059   4.464  0.8117 -0.3625  0.3620
 1973TIP3    H2 5884   3.197   4.954   4.536 -0.3207  0.2921  0.0363
 1974TIP3   OH2 5885   5.548   6.668   4.025 -0.4175  0.2264 -0.7406
 1974TIP3    H1 5886   5.462   6.689   4.060 -0.4403 -0.6667 -0.2456
 1974TIP3    H2 5887   5.552   6.714   3.941 -0.7954  1.4812 -0.0964
 1975TIP3   OH2 5888   0.220   1.019   3.832 -0.2858 -0.2995 -0.7743
 1975TIP3    H1 5889   0.291   1.080   3.813  0.0619  0.1866  1.7161
 1975TIP3    H2 5890   0.144   1.075   3.848  0.0946 -0.3726  1.7739
 1976TIP3   OH2 5891   1.863   5.151   4.020 -0.8093 -0.2750  0.1050
 1976TIP3    H1 5892   1.811   5.096   4.078 -1.0742 -0.2835 -0.1415
 1976TIP3    H2 5893   1.905   5.090   3.959 -0.4841 -0.2719  0.3212
 1977TIP3   OH2 5894   2.071   2.360   3.396 -0.4968 -0.2367 -0.0799
 1977TIP3    H1 5895   2.149   2.370   3.450 -0.8096 -1.1014  0.5587
 1977TIP3    H2 5896   2.082   2.276   3.353 -1.4132 -0.7479  0.6246
 1978TIP3   OH2 5897   6.456   5.475   0.708 -0.2080 -0.4711 -0.1854
 1978TIP3    H1 5898   6.391   5.542   0.687 -0.9831 -1.4082 -0.8510
 1978TIP3    H2 5899   6.434   5.402   0.651 -0.4460 -1.9649  1.7287
 1979TIP3   OH2 5900   2.408   0.041   4.666 -0.4706  0.4590 -0.2869
 1979TIP3    H1 5901   2.414   0.004   4.754 -0.0399 -0.7601 -0.8011
 1979TIP3    H2 5902   2.405   0.135   4.679 -0.3973  0.2939  1.0295
 1980TIP3   OH2 5903   2.050   2.322   4.958  0.2850 -0.7619  0.3238
 1980TIP3    H1 5904   2.001   2.341   5.038 -0.6989  0.6163 -0.5676
 1980TIP3    H2 5905   2.053   2.226   4.954  2.5856 -0.9713  3.3090
 1981TIP3   OH2 5906   3.183   3.116   0.815  0.2396  0.5820 -0.2630
 1981TIP3    H1 5907   3.194   3.123   0.720  1.1938  0.8495 -0.1462
 1981TIP3    H2 5908   3.200   3.023   0.834 -0.9977  0.2943 -0.4612
 1982TIP3   OH2 5909   3.793   1.362   2.353 -0.1972 -0.1847 -0.2957
 1982TIP3    H1 5910   3.779   1.292   2.290 -2.6693  1.0696 -1.2935
 1982TIP3    H2 5911   3.705   1.379   2.389  0.5110  1.6685  0.6920
 1983TIP3   OH2 5912   6.100   3.515   2.841 -0.8839  0.0314  0.4380
 1983TIP3    H1 5913   6.158   3.549   2.910 -0.8459 -0.2103  0.5301
 1983TIP3    H2 5914   6.158   3.459   2.788 -0.6643  1.0649 -0.4367
 1984TIP3   OH2 5915   6.485   1.426   4.378  0.3468  0.3175 -0.5728
 1984TIP3    H1 5916   6.536   1.482   4.437 -2.9195  0.3517  2.5781
 1984TIP3    H2 5917   6.434   1.488   4.326 -0.8120  0.3528  0.5584
 1985TIP3   OH2 5918   5.467   5.093   0.601 -0.0122  0.3036  0.2402
 1985TIP3    H1 5919   5.494   5.013   0.555  0.7926 -0.2229  1.5794
 1985TIP3    H2 5920   5.530   5.159   0.574  0.2050  0.1077  0.2691
 1986TIP3   OH2 5921   6.183   3.866   3.110  0.1916  0.2210  0.2184
 1986TIP3    H1 5922   6.256   3.871   3.172  0.6428  1.4228 -0.3599
 1986TIP3    H2 5923   6.220   3.898   3.027 -1.0263  1.0231 -0.0481
 1987TIP3   OH2 5924   6.730   1.547   2.281  0.6352 -0.4040 -0.0510
 1987TIP3    H1 5925   6.638   1.555   2.304  0.7407 -0.6913  0.4750
 1987TIP3    H2 5926   6.776   1.602   2.345  0.7867  0.2003 -0.6653
 1988TIP3   OH2 5927   0.466   4.347   1.569 -0.1643  0.1999  0.3702
 1988TIP3    H1 5928   0.480   4.259   1.532  1.8813  1.3543 -1.9137
 1988TIP3    H2 5929   0.400   4.387   1.512  2.6040  1.8024 -1.9521
 1989TIP3   OH2 5930   2.388   5.765   3.100  0.4487 -0.4434 -0.6453
 1989TIP3    H1 5931   2.474   5.785   3.063  1.3056  0.1052  1.4789
 1989TIP3    H2 5932   2.375   5.832   3.167 -1.3219 -0.9451 -0.4537
 1990TIP3   OH2 5933   3.816   2.862   1.311 -0.0490  0.3821 -0.5934
 1990TIP3    H1 5934   3.721   2.860   1.311 -0.0534 -1.9322 -0.4263
 1990TIP3    H2 5935   3.840   2.876   1.219 -0.5739 -0.4456 -0.8664
 1991TIP3   OH2 5936   2.218   5.010   1.094  0.4300  0.1196 -0.2812
 1991TIP3    H1 5937   2.240   5.057   1.175  0.5072 -0.2779 -0.0663
 1991TIP3    H2 5938   2.127   4.983   1.107  1.2160 -2.3112  0.8821
 1992TIP3   OH2 5939   2.573   5.775   0.266 -0.7348 -0.2527 -0.0671
 1992TIP3    H1 5940   2.626   5.695   0.270 -1.2019 -0.5734 -0.1526
 1992TIP3    H2 5941   2.628   5.843   0.305 -1.4775 -1.2387  2.9796
 1993TIP3   OH2 5942   4.788   1.417   5.506 -0.9646  0.3623  0.1287
 1993TIP3    H1 5943   4.823   1.332   5.479 -1.9428 -0.1910  0.5368
 1993TIP3    H2 5944   4.717   1.395   5.567 -0.8117  1.4965  0.7330
 1994TIP3   OH2 5945   3.265   0.815   0.258  0.0914 -0.1961 -0.1111
 1994TIP3    H1 5946   3.270   0.783   0.348 -0.1840 -1.2145 -0.4426
 1994TIP3    H2 5947   3.172   0.810   0.235  0.3467 -1.5048 -0.9753
 1995TIP3   OH2 5948   0.112   4.351   0.991  0.0440 -0.0798 -0.8372
 1995TIP3    H1 5949   0.077   4.392   1.071  0.3460 -0.2548 -0.6143
 1995TIP3    H2 5950   0.204   4.376   0.990  0.1117 -0.3346 -0.9707
 1996TIP3   OH2 5951   2.564   2.657   3.281  0.4546  0.3491 -0.3316
 1996TIP3    H1 5952   2.593   2.596   3.349  0.8635 -1.3666 -1.9507
 1996TIP3    H2 5953   2.484   2.617   3.246 -0.0208  1.4567 -0.5445
 1997TIP3   OH2 5954   0.770   0.895   1.501 -0.1569  0.2461 -0.1739
 1997TIP3    H1 5955   0.723   0.842   1.565 -0.4390  0.4371 -0.2209
 1997TIP3    H2 5956   0.732   0.983   1.510  0.7202  0.5854  0.3303
 1998TIP3   OH2 5957   0.687   2.807   0.640 -0.1201 -0.5942 -0.1401
 1998TIP3    H1 5958   0.674   2.877   0.705 -0.4233 -1.3874  0.6676
 1998TIP3    H2 5959   0.716   2.732   0.690  2.3136 -0.4761 -1.2562
 1999TIP3   OH2 5960   3.275   0.135   3.953 -0.2950  0.4816 -0.3221
 1999TIP3    H1 5961   3.206   0.180   3.904 -2.3754 -3.3364 -1.3724
 1999TIP3    H2 5962   3.242   0.131   4.042 -0.5796  0.2312 -0.4360
 2000TIP3   OH2 5963   4.048   3.622   4.429 -0.5822  0.1432  0.4712
 2000TIP3    H1 5964   3.977   3.684   4.412 -0.5488  0.1046  0.1889
 2000TIP3    H2 5965   4.112   3.674   4.478  1.1513  1.4911 -2.8673
 2001TIP3   OH2 5966   3.418   4.087   3.784  0.4114 -0.2710  0.5780
 2001TIP3    H1 5967   3.478   4.012   3.780  1.8807  0.8862 -0.3330
 2001TIP3    H2 5968   3.410   4.115   3.693  0.7938  1.3345  1.0002
 2002TIP3   OH2 5969   0.654   1.018   5.425 -0.2864  0.7472  0.3820
 2002TIP3    H1 5970   0.669   0.924   5.415 -1.9652  0.4580  0.2245
 2002TIP3    H2 5971   0.627   1.028   5.516 -1.6539  0.8177 -0.0132
 2003TIP3   OH2 5972   4.247   3.694   2.502  0.0819 -0.9296 -0.0250
 2003TIP3    H1 5973   4.223   3.787   2.494  2.6892 -0.2301 -0.6631
 2003TIP3    H2 5974   4.163   3.649   2.512 -1.2631  1.5032  0.6098
 2004TIP3   OH2 5975   0.937   3.112   0.987 -0.2494 -0.0289  0.1338
 2004TIP3    H1 5976   0.845   3.130   0.970 -0.2146  1.2183  1.0822
 2004TIP3    H2 5977   0.963   3.180   1.050  0.7774 -1.5614  1.4512
 2005TIP3   OH2 5978   1.890   1.471   2.394 -0.0574 -0.2414  0.4157
 2005TIP3    H1 5979   1.823   1.404   2.407  0.2896 -0.7793 -0.4254
 2005TIP3    H2 5980   1.950   1.432   2.331  1.1607  0.1484  1.2926
 2006TIP3   OH2 5981   5.025   5.899   5.056 -0.0050 -0.0865  0.0742
 2006TIP3    H1 5982   5.044   5.900   4.962 -0.5346 -0.2923 -0.0408
 2006TIP3    H2 5983   4.963   5.827   5.067 -0.3042  0.2297  0.5057
 2007TIP3   OH2 5984   0.647   3.436   2.820 -0.4100 -0.2046  0.3789
 2007TIP3    H1 5985   0.727   3.418   2.870 -0.1531 -1.0492 -0.2964
 2007TIP3    H2 5986   0.577   3.426   2.883 -0.0909 -1.2937  0.5927
 2008TIP3   OH2 5987   2.189   0.142   1.036 -0.1466  0.0078  0.5922
 2008TIP3    H1 5988   2.259   0.147   0.971  0.5362 -1.2909  1.2009
 2008TIP3    H2 5989   2.228   0.178   1.115 -0.1017 -0.8597  0.9729
 2009TIP3   OH2 5990   4.680   1.664   5.577  0.4675 -0.4401  0.1134
 2009TIP3    H1 5991   4.653   1.607   5.648  2.1129 -1.9761 -0.4377
 2009TIP3    H2 5992   4.715   1.605   5.510  2.3396  1.1857 -0.4465
 2010TIP3   OH2 5993   1.630   1.577   4.660  0.2171  0.1988 -0.6571
 2010TIP3    H1 5994   1.651   1.653   4.713 -1.8930  1.2115 -1.1713
 2010TIP3    H2 5995   1.655   1.601   4.571 -0.3225  0.2543 -0.7994
 2011TIP3   OH2 5996   5.577   0.552   1.432  0.4369 -0.0190 -0.7914
 2011TIP3    H1 5997   5.644   0.589   1.374  0.1368  0.7949 -0.6268
 2011TIP3    H2 5998   5.628   0.503   1.497  1.0121  1.8238  0.2217
 2012TIP3   OH2 5999   0.490   5.742   0.832 -0.4093  0.3784 -0.0839
 2012TIP3    H1 6000   0.432   5.786   0.894 -0.3074  1.1265 -0.5128
 2012TIP3    H2 6001   0.434   5.678   0.788 -0.9656  1.2358 -0.6430
 2013TIP3   OH2 6002   0.888   1.061   0.943  0.1093  0.0540  0.7087
 2013TIP3    H1 6003   0.835   1.068   1.022 -1.4191  0.6704 -0.3106
 2013TIP3    H2 6004   0.977   1.050   0.974 -0.6150 -1.1606  2.5119
 2014TIP3   OH2 6005   0.213   1.051   1.323 -0.5259  0.0913  0.1405
 2014TIP3    H1 6006   0.305   1.024   1.317 -0.6233 -0.7824  1.8405
 2014TIP3    H2 6007   0.199   1.064   1.417 -1.4744  2.7268 -0.2822
 2015TIP3   OH2 6008   2.110   4.736   4.935 -0.2879  0.2524  0.1323
 2015TIP3    H1 6009   2.198   4.697   4.932 -0.4608 -0.0824 -2.0882
 2015TIP3    H2 6010   2.118   4.817   4.886 -1.2386  0.1591 -0.1983
 2016TIP3   OH2 6011   0.385   0.066   1.604 -0.3773  0.1736 -0.0389
 2016TIP3    H1 6012   0.353   0.144   1.558  1.1510  1.2589  0.6452
 2016TIP3    H2 6013   0.358   0.080   1.695 -0.0093 -0.0532  0.1073
 2017TIP3   OH2 6014   3.751   6.430   4.506  0.2276 -0.4882  0.2534
 2017TIP3    H1 6015   3.800   6.457   4.584 -0.6361 -3.2400  1.8733
 2017TIP3    H2 6016   3.729   6.339   4.522 -0.9165 -0.8546 -2.7955
 2018TIP3   OH2 6017   5.557   5.333   1.900 -0.1744  0.1729  0.2088
 2018TIP3    H1 6018   5.649   5.343   1.924 -0.2752  2.2310 -0.1453
 2018TIP3    H2 6019   5.536   5.242   1.924  1.7939 -0.1815  0.7406
 2019TIP3   OH2 6020   2.200   2.714   0.322  0.1209 -0.4336  0.2921
 2019TIP3    H1 6021   2.178   2.767   0.245 -1.4543  1.0192  1.6722
 2019TIP3    H2 6022   2.277   2.664   0.295 -0.5003 -0.1261 -2.2852
 2020TIP3   OH2 6023   1.936   2.845   5.027  0.2475  0.0804  0.6372
 2020TIP3    H1 6024   1.910   2.770   5.080  1.7771 -0.9618 -0.0070
 2020TIP3    H2 6025   1.969   2.909   5.089  1.2140 -0.7828  1.0446
 2021TIP3   OH2 6026   4.697   4.685   5.617 -0.2576 -0.2230  0.2429
 2021TIP3    H1 6027   4.606   4.672   5.588 -0.2558  0.8979 -0.2855
 2021TIP3    H2 6028   4.750   4.658   5.543 -0.2111  0.9152 -0.1484
 2022TIP3   OH2 6029   6.483   0.575   5.422  0.2351 -0.4699 -0.0457
 2022TIP3    H1 6030   6.534   0.495   5.416 -0.7590 -1.3709  2.3681
 2022TIP3    H2 6031   6.508   0.613   5.507  0.1486  1.4208 -0.8110
 2023TIP3   OH2 6032   0.436   4.686   0.421  0.4298  0.2425  0.2830
 2023TIP3    H1 6033   0.506   4.742   0.389  1.3617 -1.2663 -0.4345
 2023TIP3    H2 6034   0.411   4.632   0.346 -0.2457 -0.4997  1.0075
 2024TIP3   OH2 6035   1.734   0.848   4.318  0.0859  0.2497 -0.2849
 2024TIP3    H1 6036   1.737   0.900   4.398  0.0607  1.5558 -1.1112
 2024TIP3    H2 6037   1.641   0.842   4.297  0.0775 -0.2632 -0.1172
 2025TIP3   OH2 6038   6.595   5.171   1.125 -0.2421 -0.5844 -0.0591
 2025TIP3    H1 6039   6.561   5.206   1.042 -0.8292 -0.8640  0.0651
 2025TIP3    H2 6040   6.546   5.091   1.140 -0.6935 -0.1322  0.9598
 2026TIP3   OH2 6041   0.407   1.862   1.626  0.9814  0.3458 -0.0740
 2026TIP3    H1 6042   0.379   1.934   1.682  0.5624 -0.2770  0.5343
 2026TIP3    H2 6043   0.367   1.784   1.665  1.4737 -0.2263 -0.6832
 2027TIP3   OH2 6044   5.948   5.688   2.546 -0.0508 -0.8030  0.1730
 2027TIP3    H1 6045   5.891   5.623   2.504 -1.6465  0.2750  0.5674
 2027TIP3    H2 6046   5.955   5.659   2.637 -1.7379  0.1558  0.6437
 2028TIP3   OH2 6047   3.752   4.623   4.916  0.1015 -0.7337 -0.2904
 2028TIP3    H1 6048   3.711   4.665   4.991 -1.1577  0.3560 -1.5179
 2028TIP3    H2 6049   3.834   4.671   4.903  0.3690 -0.9849  0.4097
 2029TIP3   OH2 6050   1.952   6.810   4.422  0.1560  0.5800  0.3944
 2029TIP3    H1 6051   2.032   6.808   4.474  0.8843  0.1787 -0.7197
 2029TIP3    H2 6052   1.908   6.728   4.443  1.3661 -0.4669 -0.9974
 2030TIP3   OH2 6053   6.429   5.070   1.528 -0.1929 -0.2599 -0.0537
 2030TIP3    H1 6054   6.439   5.146   1.470 -0.7475 -0.4772 -0.4397
 2030TIP3    H2 6055   6.497   5.009   1.499  1.3074  0.7025  1.2807
 2031TIP3   OH2 6056   7.215   6.568   3.782  0.6018 -0.0034 -0.4521
 2031TIP3    H1 6057   7.179   6.483   3.808 -1.0204  1.2026  1.5926
 2031TIP3    H2 6058   7.152   6.602   3.719  0.9858 -0.1048 -0.8928
 2032TIP3   OH2 6059   4.366   2.968   5.282  0.4658  0.3612 -0.2964
 2032TIP3    H1 6060   4.458   2.971   5.256  0.8716 -0.5540  0.9383
 2032TIP3    H2 6061   4.356   2.882   5.324 -1.2502 -0.0515 -1.4450
 2033TIP3   OH2 6062   7.137   0.424   2.493  0.4507  0.5086 -0.2545
 2033TIP3    H1 6063   7.208   0.487   2.507  2.2785 -1.4617 -0.1634
 2033TIP3    H2 6064   7.131   0.376   2.576 -0.7841  0.3883 -0.3853
 2034TIP3   OH2 6065   6.427   5.201   0.890 -0.5802  0.4644 -0.1728
 2034TIP3    H1 6066   6.407   5.265   0.822  1.9301  0.6601 -0.8625
 2034TIP3    H2 6067   6.389   5.120   0.858 -0.7821  0.8906 -1.0695
 2035TIP3   OH2 6068   2.262   3.244   5.496 -0.1842 -0.6408 -0.1784
 2035TIP3    H1 6069   2.183   3.221   5.446 -0.6630 -1.2146  0.8279
 2035TIP3    H2 6070   2.333   3.201   5.448 -0.4654 -0.0892 -1.1152
 2036TIP3   OH2 6071   2.156   3.741   4.529 -0.4600 -0.4837 -0.2567
 2036TIP3    H1 6072   2.142   3.781   4.614  1.3585 -0.3757  0.0222
 2036TIP3    H2 6073   2.080   3.684   4.517 -1.1265  0.0816  1.0724
 2037TIP3   OH2 6074   2.384   1.781   1.355 -0.1750 -0.8606 -0.2280
 2037TIP3    H1 6075   2.470   1.793   1.315 -0.1110  0.5205  0.2624
 2037TIP3    H2 6076   2.322   1.815   1.290 -0.2761 -0.9995 -0.2052
 2038TIP3   OH2 6077   3.187   0.466   0.690  0.1765 -0.3856 -0.6549
 2038TIP3    H1 6078   3.280   0.488   0.687  0.5456 -1.1390  1.9853
 2038TIP3    H2 6079   3.181   0.384   0.641  0.9969 -0.5428 -0.5192
 2039TIP3   OH2 6080   1.655   5.505   5.764 -0.6856  0.1823 -0.1652
 2039TIP3    H1 6081   1.561   5.509   5.779 -1.1163  1.2916 -2.7166
 2039TIP3    H2 6082   1.666   5.455   5.684  0.8180  0.9423 -0.4850
 2040TIP3   OH2 6083   4.629   1.978   5.509 -0.2210  0.2625  0.2819
 2040TIP3    H1 6084   4.725   1.970   5.507  0.0077  2.1686  0.9382
 2040TIP3    H2 6085   4.598   1.912   5.448  1.4944 -0.6547  0.3232
 2041TIP3   OH2 6086   2.618   5.636   3.635  0.1501 -0.1257  0.1719
 2041TIP3    H1 6087   2.604   5.723   3.598 -1.1911  0.6060  2.2187
 2041TIP3    H2 6088   2.679   5.651   3.708  0.6186 -1.0716 -0.0047
 2042TIP3   OH2 6089   2.400   2.184   2.413 -0.5657 -0.3558  0.5281
 2042TIP3    H1 6090   2.342   2.131   2.358  0.0323  0.4096 -0.9064
 2042TIP3    H2 6091   2.353   2.267   2.422 -0.2618 -0.1712  0.4093
 2043TIP3   OH2 6092   3.358   6.157   4.473  0.0660 -0.3829  0.0122
 2043TIP3    H1 6093   3.329   6.067   4.458  1.0833 -0.7520  0.2201
 2043TIP3    H2 6094   3.330   6.176   4.562 -0.1275 -0.5002 -0.0223
 2044TIP3   OH2 6095   6.741   4.238   3.872  0.4614  0.1114 -0.0231
 2044TIP3    H1 6096   6.815   4.193   3.912 -0.4220 -0.6594  0.7915
 2044TIP3    H2 6097   6.691   4.169   3.828  0.4309  0.6809 -0.9319
 2045TIP3   OH2 6098   3.034   3.992   2.397 -0.3446  0.5839  0.1429
 2045TIP3    H1 6099   2.983   3.951   2.467  1.7346  1.6979  2.4496
 2045TIP3    H2 6100   2.986   4.072   2.375 -1.7002 -0.4237 -0.7257
 2046TIP3   OH2 6101   6.795   2.677   1.597  0.2664  0.2253  0.2066
 2046TIP3    H1 6102   6.871   2.723   1.631  0.5394  0.6105 -0.8672
 2046TIP3    H2 6103   6.822   2.647   1.510  0.2985 -2.5281  1.0948
 2047TIP3   OH2 6104   3.272   0.648   1.495  0.1754  0.1221  0.1476
 2047TIP3    H1 6105   3.274   0.553   1.509 -0.3462 -0.2985 -2.1940
 2047TIP3    H2 6106   3.179   0.670   1.491  0.2886  0.4688 -0.7500
 2048TIP3   OH2 6107   6.732   3.910   1.238  0.3556 -0.0906 -0.6105
 2048TIP3    H1 6108   6.651   3.860   1.236  0.4683 -0.2797 -0.5187
 2048TIP3    H2 6109   6.705   4.002   1.237  0.1436 -0.1546 -0.5927
 2049TIP3   OH2 6110   5.335   1.954   3.897 -0.1483  0.0062  0.4168
 2049TIP3    H1 6111   5.333   1.860   3.911 -0.4640 -0.1089 -0.3475
 2049TIP3    H2 6112   5.350   1.964   3.803 -0.6876  0.7077  0.3944
 2050TIP3   OH2 6113   1.577   4.171   0.720 -0.0118  0.4050 -0.3274
 2050TIP3    H1 6114   1.545   4.246   0.769  0.0659  0.8307 -0.9236
 2050TIP3    H2 6115   1.500   4.115   0.707 -0.3440  1.0102 -1.0121
 2051TIP3   OH2 6116   2.792   0.758   2.245 -0.1624 -0.0764 -0.3653
 2051TIP3    H1 6117   2.866   0.812   2.217  0.2517 -0.8253 -0.7519
 2051TIP3    H2 6118   2.817   0.724   2.330 -0.5340  0.5374 -0.0046
 2052TIP3   OH2 6119   4.989   4.311   4.230 -0.2568  0.0295  0.2049
 2052TIP3    H1 6120   5.022   4.225   4.202 -0.2905 -0.3956  1.4248
 2052TIP3    H2 6121   4.917   4.330   4.170  0.1030 -0.5350 -0.4196
 2053TIP3   OH2 6122   3.059   3.507   4.057 -0.4969  0.4684 -0.0008
 2053TIP3    H1 6123   2.975   3.543   4.088 -0.8259  0.4738 -0.8599
 2053TIP3    H2 6124   3.125   3.562   4.098 -0.9360  0.8314  0.2357
 2054TIP3   OH2 6125   5.256   4.075   5.122 -0.2186  0.0940  0.0481
 2054TIP3    H1 6126   5.338   4.112   5.154 -1.2413  0.2386  2.7147
 2054TIP3    H2 6127   5.255   3.985   5.156 -1.6624  0.4746  1.1304
 2055TIP3   OH2 6128   4.530   5.465   3.140  0.0434  0.0983  0.7492
 2055TIP3    H1 6129   4.463   5.532   3.155  2.4335  2.4292  1.7568
 2055TIP3    H2 6130   4.554   5.435   3.227  0.9086 -0.0641  0.4599
 2056TIP3   OH2 6131   0.500   4.665   2.940  0.1752 -0.0609 -0.1697
 2056TIP3    H1 6132   0.504   4.761   2.932  1.4502 -0.2205 -1.9353
 2056TIP3    H2 6133   0.498   4.633   2.850 -1.9625 -1.7020  0.3708
 2057TIP3   OH2 6134   6.625   3.015   0.104 -0.1869 -0.1355 -0.0407
 2057TIP3    H1 6135   6.688   3.043   0.037  0.6472  0.6316  1.0198
 2057TIP3    H2 6136   6.599   3.096   0.147 -1.4245 -0.5253 -0.0325
 2058TIP3   OH2 6137   1.830   2.326   5.152  0.1902 -0.0915 -0.5477
 2058TIP3    H1 6138   1.747   2.299   5.111 -0.0563 -0.2234  0.0242
 2058TIP3    H2 6139   1.841   2.265   5.225 -0.7487  1.7311  1.2426
 2059TIP3   OH2 6140   1.486   4.604   3.017 -0.1237 -0.2412 -0.3426
 2059TIP3    H1 6141   1.522   4.670   3.076 -0.4749  1.6186 -2.1250
 2059TIP3    H2 6142   1.442   4.542   3.076 -2.6052  2.8086  1.3200
 2060TIP3   OH2 6143   3.154   0.811   0.650  0.0791 -0.0552 -0.5307
 2060TIP3    H1 6144   3.231   0.780   0.603 -1.1291 -0.4988 -2.3040
 2060TIP3    H2 6145   3.106   0.732   0.675  0.3766  0.1991  0.9220
 2061TIP3   OH2 6146   6.987   6.326   1.457 -0.2501 -0.1515  0.1977
 2061TIP3    H1 6147   7.005   6.286   1.372 -1.2346 -0.8513  0.3007
 2061TIP3    H2 6148   7.070   6.365   1.484 -0.1315  0.8835 -1.4959
 2062TIP3   OH2 6149   0.414   1.347   2.950 -0.4612  0.1852  0.2831
 2062TIP3    H1 6150   0.491   1.300   2.980 -0.1479  1.3329  1.3735
 2062TIP3    H2 6151   0.448   1.422   2.902 -0.9332 -0.1699 -0.6222
 2063TIP3   OH2 6152   6.757   0.180   0.257  0.0827 -0.5177  0.0029
 2063TIP3    H1 6153   6.811   0.222   0.191 -0.3636 -0.4438 -0.3198
 2063TIP3    H2 6154   6.702   0.251   0.292 -2.1678 -1.1588 -2.0074
 2064TIP3   OH2 6155   2.986   4.034   1.444 -0.3739  0.6451  0.2790
 2064TIP3    H1 6156   3.037   4.103   1.486 -0.2376 -0.0962  1.3639
 2064TIP3    H2 6157   3.041   3.956   1.451  0.6500  0.8950 -3.2748
 2065TIP3   OH2 6158   1.231   4.143   3.772  0.0891  0.1688 -0.1348
 2065TIP3    H1 6159   1.312   4.177   3.734  0.4130  0.6801  0.9665
 2065TIP3    H2 6160   1.168   4.213   3.759  0.1590  0.2806  0.1262
 2066TIP3   OH2 6161   1.427   6.643   3.684  0.1687 -0.0942 -0.1738
 2066TIP3    H1 6162   1.408   6.623   3.592 -1.4828 -0.3673  0.1934
 2066TIP3    H2 6163   1.392   6.567   3.732  0.8585  0.1264  0.6960
 2067TIP3   OH2 6164   0.141   3.327   2.104 -0.0646  0.0465  0.0296
 2067TIP3    H1 6165   0.227   3.299   2.134 -0.5623 -0.6453  0.8799
 2067TIP3    H2 6166   0.089   3.334   2.184 -1.4476 -1.8716 -0.6277
 2068TIP3   OH2 6167   2.330   1.373   3.183  0.4006 -0.6680  0.1279
 2068TIP3    H1 6168   2.249   1.408   3.222  0.5875  0.0079 -0.0905
 2068TIP3    H2 6169   2.312   1.371   3.089  1.0382  0.5431 -0.0294
 2069TIP3   OH2 6170   5.759   2.704   3.675  0.3745  0.6264  0.1111
 2069TIP3    H1 6171   5.824   2.641   3.707  2.6478  3.5805  1.8406
 2069TIP3    H2 6172   5.772   2.706   3.580 -0.9935 -2.6097 -0.2724
 2070TIP3   OH2 6173   3.635   6.198   5.343  0.1270 -0.5302 -0.5785
 2070TIP3    H1 6174   3.629   6.186   5.437 -0.9710 -0.0200 -0.5657
 2070TIP3    H2 6175   3.548   6.174   5.310  1.0392 -2.5103 -1.6929
 2071TIP3   OH2 6176   6.537   2.253   1.904 -0.2823  0.0866 -0.2033
 2071TIP3    H1 6177   6.596   2.211   1.841 -1.0377 -1.5502  0.1314
 2071TIP3    H2 6178   6.543   2.199   1.983 -3.6430 -1.3945 -0.7699
 2072TIP3   OH2 6179   2.735   1.332   1.891  0.1618 -0.0068  0.4365
 2072TIP3    H1 6180   2.755   1.275   1.965 -1.7505  0.4764  1.3671
 2072TIP3    H2 6181   2.672   1.394   1.925 -0.6709  0.3078 -1.5790
 2073TIP3   OH2 6182   3.062   6.199   5.109 -0.6256  0.5114 -0.1113
 2073TIP3    H1 6183   3.109   6.280   5.127  1.5883 -0.1299 -2.4986
 2073TIP3    H2 6184   3.015   6.215   5.028 -0.1033 -0.5669 -0.6529
 2074TIP3   OH2 6185   6.747   4.967   2.496  0.0398  0.1326 -0.6702
 2074TIP3    H1 6186   6.672   5.022   2.476 -0.2055  0.0662  0.0169
 2074TIP3    H2 6187   6.716   4.878   2.480  0.4893  0.1929 -1.9411
 2075TIP3   OH2 6188   1.156   4.045   2.861  0.3481  0.0015 -0.2378
 2075TIP3    H1 6189   1.145   3.991   2.783 -0.9563  1.9822 -1.5088
 2075TIP3    H2 6190   1.244   4.082   2.853 -0.2412  1.2052 -1.4946
 2076TIP3   OH2 6191   3.715   1.140   5.257 -0.1777  0.0884 -0.3384
 2076TIP3    H1 6192   3.646   1.203   5.237  0.0305  0.5542  0.3458
 2076TIP3    H2 6193   3.779   1.191   5.308  1.4417  0.0803 -2.2511
 2077TIP3   OH2 6194   3.953   2.312   2.613 -0.9670  0.3066 -0.0093
 2077TIP3    H1 6195   3.924   2.344   2.527  0.3802  1.8405  0.0521
 2077TIP3    H2 6196   4.045   2.288   2.599 -1.5172 -2.3644  0.3161
 2078TIP3   OH2 6197   5.814   0.479   0.248  0.1691  0.0427 -0.2815
 2078TIP3    H1 6198   5.872   0.536   0.298  0.1588 -1.5529  1.6579
 2078TIP3    H2 6199   5.850   0.392   0.260 -2.4238 -0.9852  0.7975
 2079TIP3   OH2 6200   5.701   0.777   3.246  0.2589  0.1664  0.8506
 2079TIP3    H1 6201   5.645   0.700   3.250  0.1694  0.2695  4.0663
 2079TIP3    H2 6202   5.787   0.746   3.275  0.4539  1.0632  1.2814
 2080TIP3   OH2 6203   6.356   1.612   2.582 -0.0687  0.0288  0.0025
 2080TIP3    H1 6204   6.307   1.543   2.626  2.8298 -1.9264  0.3921
 2080TIP3    H2 6205   6.387   1.573   2.501  1.8817  0.7423  0.3590
 2081TIP3   OH2 6206   4.099   3.733   2.812 -0.1071 -0.1950 -0.9525
 2081TIP3    H1 6207   4.045   3.706   2.886  0.7444 -0.1578 -0.3111
 2081TIP3    H2 6208   4.035   3.751   2.742 -0.9075 -0.3845 -0.2922
 2082TIP3   OH2 6209   5.982   3.421   0.951  0.9404  0.4548 -0.1818
 2082TIP3    H1 6210   6.039   3.374   0.891  1.9074  0.3346  0.7981
 2082TIP3    H2 6211   6.010   3.512   0.945  0.6856  0.5297 -0.2850
 2083TIP3   OH2 6212   6.163   5.802   1.159 -0.0039  0.3482  0.1664
 2083TIP3    H1 6213   6.193   5.824   1.071  0.0875  1.0328  0.3677
 2083TIP3    H2 6214   6.134   5.711   1.151  0.2894  0.3011 -0.4964
 2084TIP3   OH2 6215   0.949   3.132   2.896 -0.6816  0.2012 -0.3824
 2084TIP3    H1 6216   1.040   3.105   2.884 -0.1365  1.4716  0.6407
 2084TIP3    H2 6217   0.899   3.050   2.894  0.6118 -0.6298  0.1169
 2085TIP3   OH2 6218   5.241   0.755   4.444 -0.1914 -0.4634 -0.4222
 2085TIP3    H1 6219   5.209   0.667   4.426  0.6260 -0.8571 -0.0087
 2085TIP3    H2 6220   5.232   0.765   4.539 -0.4299 -0.0352 -0.4861
 2086TIP3   OH2 6221   0.956   2.639   2.513 -0.0506 -0.0271 -0.1950
 2086TIP3    H1 6222   0.950   2.558   2.462  0.6359  0.4938 -1.1457
 2086TIP3    H2 6223   0.877   2.639   2.567 -0.3540 -1.0420 -0.6036
 2087TIP3   OH2 6224   2.895   1.355   1.676 -0.3302  0.3626  0.4670
 2087TIP3    H1 6225   2.984   1.322   1.691  0.3370  1.7420 -0.2644
 2087TIP3    H2 6226   2.853   1.349   1.762  1.3945  2.2372  1.5538
 2088TIP3   OH2 6227   5.443   3.952   4.806  0.2772 -0.4557  0.4363
 2088TIP3    H1 6228   5.470   4.043   4.811  3.3385 -1.2651  0.6633
 2088TIP3    H2 6229   5.387   3.947   4.729  0.4063  1.5289  0.1843
 2089TIP3   OH2 6230   6.950   4.190   5.437 -0.3225 -0.1764  0.4544
 2089TIP3    H1 6231   6.970   4.259   5.501  0.7499 -0.6427  0.6361
 2089TIP3    H2 6232   6.855   4.185   5.437 -0.4915  2.0175 -0.3026
 2090TIP3   OH2 6233   1.454   6.030   3.653 -0.5030  0.1584 -0.1358
 2090TIP3    H1 6234   1.469   6.086   3.578  1.5283  0.9363  0.7707
 2090TIP3    H2 6235   1.485   6.081   3.728 -0.7228 -1.2909  0.9928
 2091TIP3   OH2 6236   1.676   5.515   5.007  0.1966  0.3288 -0.0547
 2091TIP3    H1 6237   1.665   5.443   4.946  1.6403 -0.0301  0.0657
 2091TIP3    H2 6238   1.587   5.536   5.037 -0.8239  1.6231 -3.4732
 2092TIP3   OH2 6239   3.138   0.590   0.027  0.2844 -0.1358  0.0184
 2092TIP3    H1 6240   3.133   0.642   0.107  0.2172 -1.7144  1.0836
 2092TIP3    H2 6241   3.153   0.654  -0.043  1.2618  1.1878  1.4004
 2093TIP3   OH2 6242   1.390   6.754   4.226  0.0301  0.1961  0.3434
 2093TIP3    H1 6243   1.474   6.708   4.232  0.0789  0.1888 -0.3152
 2093TIP3    H2 6244   1.413   6.845   4.212 -0.0726  0.3776  1.2756
 2094TIP3   OH2 6245   2.669   1.903   4.351  0.1633  0.1842  0.1977
 2094TIP3    H1 6246   2.623   1.910   4.435 -0.6040 -0.5492 -0.1368
 2094TIP3    H2 6247   2.727   1.979   4.349 -0.7747  0.9534  0.8085
 2095TIP3   OH2 6248   0.379   6.800   2.983 -0.3669  0.2199 -0.5556
 2095TIP3    H1 6249   0.319   6.726   2.998  1.1074 -1.1095 -1.0486
 2095TIP3    H2 6250   0.411   6.788   2.894 -0.5271  1.8063 -0.8558
 2096TIP3   OH2 6251   4.972   4.922   1.185 -0.4511  0.0179 -0.3985
 2096TIP3    H1 6252   5.040   4.947   1.247  0.1623  0.3689 -1.2048
 2096TIP3    H2 6253   5.010   4.938   1.099 -1.6132  0.3917 -0.8648
 2097TIP3   OH2 6254   3.604   0.274   1.014  0.4703  0.7209  0.4280
 2097TIP3    H1 6255   3.699   0.286   1.009  0.5453 -0.1064 -0.2255
 2097TIP3    H2 6256   3.592   0.180   1.027 -0.2487  0.8869  1.0265
 2098TIP3   OH2 6257   5.612   1.090   5.787  0.7086 -0.4909 -0.5428
 2098TIP3    H1 6258   5.667   1.166   5.807 -0.0197  0.3480 -1.6172
 2098TIP3    H2 6259   5.601   1.046   5.872  0.6333  0.9529  0.2244
 2099TIP3   OH2 6260   4.660   2.949   0.442  0.1272 -0.0412 -0.3141
 2099TIP3    H1 6261   4.748   2.955   0.405  0.1927  0.1937 -0.1229
 2099TIP3    H2 6262   4.640   2.855   0.442 -1.3535  0.0929 -4.3545
 2100TIP3   OH2 6263   4.916   1.195   5.393  0.6073 -0.2856  0.4741
 2100TIP3    H1 6264   4.889   1.195   5.301 -1.6041  1.1742  1.0525
 2100TIP3    H2 6265   4.956   1.109   5.406  0.8173 -0.5968 -1.7872
 2101TIP3   OH2 6266   1.258   0.634   1.612 -0.3703  0.3487 -0.6959
 2101TIP3    H1 6267   1.238   0.563   1.673  0.6521  0.4868 -0.1938
 2101TIP3    H2 6268   1.208   0.612   1.533  0.0450 -1.0097 -0.5998
 2102TIP3   OH2 6269   2.869   6.675   0.853  0.1421  0.2726  0.0893
 2102TIP3    H1 6270   2.860   6.580   0.849 -3.4392  0.4546  0.4532
 2102TIP3    H2 6271   2.868   6.703   0.761 -1.6371  0.0490  0.0046
 2103TIP3   OH2 6272   2.158   4.062   2.719 -0.3055 -0.3506 -0.0665
 2103TIP3    H1 6273   2.178   3.995   2.785 -0.7573 -0.6579 -0.2339
 2103TIP3    H2 6274   2.243   4.101   2.698  0.0941 -1.4206 -0.5526
 2104TIP3   OH2 6275   2.993   0.939   4.579  0.1024 -0.0365  0.1706
 2104TIP3    H1 6276   3.001   0.844   4.584  0.4461 -0.0952 -1.1087
 2104TIP3    H2 6277   3.066   0.972   4.632  0.2000 -0.4826  0.3225
 2105TIP3   OH2 6278   7.124   3.992   5.346 -0.0854  0.0071  0.0450
 2105TIP3    H1 6279   7.087   3.904   5.355  0.0412 -0.0699 -0.1780
 2105TIP3    H2 6280   7.059   4.050   5.386 -0.0027 -0.2234  0.5164
 2106TIP3   OH2 6281   3.492   2.740   1.965  0.0068 -0.1538 -0.1449
 2106TIP3    H1 6282   3.491   2.673   1.896 -0.3562 -1.3072  0.9458
 2106TIP3    H2 6283   3.439   2.811   1.930 -1.3685 -1.3216 -0.4949
 2107TIP3   OH2 6284   2.053   6.094   0.361  0.3609  0.2954 -0.1432
 2107TIP3    H1 6285   2.094   6.042   0.430 -0.4982 -0.7148 -0.3696
 2107TIP3    H2 6286   2.020   6.029   0.298 -2.3099  0.9758  0.4296
 2108TIP3   OH2 6287   1.107   3.129   3.760  0.0232 -0.2704  0.4259
 2108TIP3    H1 6288   1.029   3.132   3.815  0.6054 -0.1264  1.2751
 2108TIP3    H2 6289   1.147   3.044   3.779 -0.2196 -0.5807 -0.4267
 2109TIP3   OH2 6290   5.847   1.011   1.521  0.0133 -0.2320 -0.5419
 2109TIP3    H1 6291   5.857   1.013   1.617  1.3847 -1.5018 -0.6281
 2109TIP3    H2 6292   5.926   1.053   1.488  0.5865 -1.7301 -1.1398
 2110TIP3   OH2 6293   5.161   2.363   0.684 -0.0401 -0.2012  0.5638
 2110TIP3    H1 6294   5.149   2.336   0.774  2.8472 -1.4749  0.6935
 2110TIP3    H2 6295   5.256   2.370   0.674 -0.3428  2.7192 -1.6056
 2111TIP3   OH2 6296   2.055   1.164   4.090 -0.0577 -0.5305 -0.0925
 2111TIP3    H1 6297   2.106   1.243   4.071 -0.1078 -0.1822  1.1517
 2111TIP3    H2 6298   1.964   1.191   4.082 -0.2246  0.4651  3.3384
 2112TIP3   OH2 6299   1.846   3.623   0.654 -0.5819 -0.2075 -0.5791
 2112TIP3    H1 6300   1.836   3.528   0.646  0.6189 -0.3424 -0.7490
 2112TIP3    H2 6301   1.866   3.652   0.565  0.3384  0.0198 -0.3114
 2113TIP3   OH2 6302   5.508   5.477   1.674 -0.0847  0.9324 -0.2740
 2113TIP3    H1 6303   5.583   5.500   1.729  0.3084  1.9783 -1.2262
 2113TIP3    H2 6304   5.470   5.400   1.717  2.0216 -0.1464 -0.2440
 2114TIP3   OH2 6305   0.313   6.513   4.097  0.4111 -0.3488 -0.1453
 2114TIP3    H1 6306   0.245   6.552   4.043  0.1067 -0.9103 -0.1796
 2114TIP3    H2 6307   0.319   6.422   4.066  0.6578 -0.5069  0.3511
 2115TIP3   OH2 6308   0.636   5.073   2.906  0.4203  0.5119  0.1662
 2115TIP3    H1 6309   0.595   5.113   2.983  0.0105  2.1436 -0.8370
 2115TIP3    H2 6310   0.672   5.147   2.857 -1.0579 -0.2216 -2.1915
 2116TIP3   OH2 6311   6.668   6.488   4.660 -0.0869  0.0592 -0.1968
 2116TIP3    H1 6312   6.701   6.458   4.576  0.6544  0.7808 -0.1738
 2116TIP3    H2 6313   6.624   6.571   4.640 -0.1343  0.1039  0.0859
 2117TIP3   OH2 6314   6.443   6.112   3.467 -1.1012  0.2312 -0.0891
 2117TIP3    H1 6315   6.461   6.068   3.550  0.3992 -0.1107 -0.5671
 2117TIP3    H2 6316   6.514   6.175   3.458 -2.7111  2.1507  0.1328
 2118TIP3   OH2 6317   1.994   0.703   5.865  0.2246  0.4091 -0.0159
 2118TIP3    H1 6318   2.080   0.739   5.883 -0.3926  2.5168 -0.9167
 2118TIP3    H2 6319   1.977   0.726   5.774 -0.7969 -1.0710 -0.2350
 2119TIP3   OH2 6320   2.478   6.795   0.392  0.3657  0.0580  0.2083
 2119TIP3    H1 6321   2.506   6.769   0.480  0.1490 -2.9544 -0.5225
 2119TIP3    H2 6322   2.542   6.754   0.334 -0.2310  0.9524 -1.1119
 2120TIP3   OH2 6323   4.014   4.871   1.306 -0.6003 -0.0504 -0.2056
 2120TIP3    H1 6324   3.962   4.905   1.379 -0.2250  1.4753 -0.6177
 2120TIP3    H2 6325   4.104   4.895   1.329  0.0168 -2.7933  0.5769
 2121TIP3   OH2 6326   2.401   0.186   0.878  0.0200 -0.1303  0.4420
 2121TIP3    H1 6327   2.466   0.136   0.828 -0.3487  0.2322 -0.4386
 2121TIP3    H2 6328   2.451   0.228   0.948  0.6127 -0.4068  0.1917
 2122TIP3   OH2 6329   5.509   2.925   3.078 -0.3430 -0.1814  0.1373
 2122TIP3    H1 6330   5.459   2.868   3.136  0.1210 -0.1357  0.5824
 2122TIP3    H2 6331   5.459   3.007   3.076 -0.3797 -0.1965  0.4367
 2123TIP3   OH2 6332   0.650   6.801   3.584  0.1513 -0.1796  0.6512
 2123TIP3    H1 6333   0.741   6.799   3.557 -0.0802  0.5241 -0.2172
 2123TIP3    H2 6334   0.623   6.709   3.585 -0.5467 -0.2589 -4.1215
 2124TIP3   OH2 6335   3.615   2.905   3.967 -0.0718 -0.2687  0.0741
 2124TIP3    H1 6336   3.637   2.879   4.056 -1.3049 -2.5971 -0.2376
 2124TIP3    H2 6337   3.602   2.823   3.920  0.8370  0.8830 -2.3634
 2125TIP3   OH2 6338   0.109   2.088   1.704 -0.3731 -0.2900 -0.1032
 2125TIP3    H1 6339   0.075   2.022   1.643  0.4401  0.1406 -1.0524
 2125TIP3    H2 6340   0.202   2.070   1.709 -0.1235  0.8219 -0.4413
 2126TIP3   OH2 6341   2.453   6.530   1.990  0.2486 -0.7912  0.1047
 2126TIP3    H1 6342   2.531   6.478   1.970  0.8160 -0.3461  1.0886
 2126TIP3    H2 6343   2.454   6.539   2.085 -0.5303 -0.0398  0.0559
 2127TIP3   OH2 6344   1.487   4.338   3.735  0.4484  0.3148 -0.4624
 2127TIP3    H1 6345   1.546   4.380   3.673  1.4368  0.2638  0.4131
 2127TIP3    H2 6346   1.530   4.254   3.755  0.0306  0.2331  0.1029
 2128TIP3   OH2 6347   2.731   1.090   3.554  0.1690  0.3315 -0.5228
 2128TIP3    H1 6348   2.786   1.018   3.524  0.6752  0.2826  0.4790
 2128TIP3    H2 6349   2.758   1.105   3.645 -2.9646 -1.2007  0.8470
 2129TIP3   OH2 6350   1.843   0.881   3.032 -0.0226 -0.2556  0.2764
 2129TIP3    H1 6351   1.845   0.977   3.033 -1.4633 -0.1198  3.4513
 2129TIP3    H2 6352   1.764   0.859   2.982 -1.1970  0.4131  1.7341
 2130TIP3   OH2 6353   6.025  -0.011   0.618  0.0440 -0.2082 -0.3037
 2130TIP3    H1 6354   6.110   0.019   0.587 -0.6168 -0.9284 -3.1637
 2130TIP3    H2 6355   5.984   0.067   0.655  2.9231 -0.4201  4.1124
 2131TIP3   OH2 6356   5.276   3.564   0.267 -0.3885  0.1424 -0.0648
 2131TIP3    H1 6357   5.285   3.543   0.360 -0.9018  2.1422  0.5027
 2131TIP3    H2 6358   5.361   3.599   0.241 -0.6000  0.7468  0.0198
 2132TIP3   OH2 6359   6.320   6.789   3.632  0.3385 -0.1534  0.5932
 2132TIP3    H1 6360   6.354   6.796   3.543  2.8708 -0.6990  1.4343
 2132TIP3    H2 6361   6.279   6.702   3.636 -0.9111  0.3629 -0.3389
 2133TIP3   OH2 6362   2.775   0.419   3.209 -0.4215 -0.2012 -0.2804
 2133TIP3    H1 6363   2.789   0.331   3.174 -0.8359 -0.5714  0.4475
 2133TIP3    H2 6364   2.700   0.409   3.269 -1.2327  0.8818 -1.0743
 2134TIP3   OH2 6365   6.776   2.284   1.124  0.2120  0.2541 -0.2462
 2134TIP3    H1 6366   6.712   2.314   1.059  0.3274  0.4477 -0.2716
 2134TIP3    H2 6367   6.723   2.260   1.200  0.0849  0.1257 -0.3753
 2135TIP3   OH2 6368   5.906   2.090   3.064  0.1714  0.1186 -0.7316
 2135TIP3    H1 6369   5.856   2.036   3.125 -0.5992  0.1214 -1.3455
 2135TIP3    H2 6370   5.997   2.081   3.092 -0.4201  3.1506  2.9153
 2136TIP3   OH2 6371   4.960   6.310   2.502  0.0041  0.2412  0.1731
 2136TIP3    H1 6372   5.029   6.321   2.437  0.0901  0.9063  0.3672
 2136TIP3    H2 6373   4.993   6.242   2.561 -0.9727 -1.8991 -1.6370
 2137TIP3   OH2 6374   7.190   3.918   1.417 -0.0155  0.3043  0.4383
 2137TIP3    H1 6375   7.154   3.839   1.378  1.4908  0.4431 -1.4486
 2137TIP3    H2 6376   7.234   3.889   1.497 -1.7021 -0.2958  1.1764
 2138TIP3   OH2 6377   2.017   3.381   2.404  0.0034 -0.0354  0.2537
 2138TIP3    H1 6378   2.078   3.310   2.425  0.5496 -0.8064 -3.3071
 2138TIP3    H2 6379   2.073   3.454   2.378 -0.5564  0.0852 -0.6499
 2139TIP3   OH2 6380   4.367   1.094   0.511  0.4484 -0.1218  0.0382
 2139TIP3    H1 6381   4.275   1.104   0.485  0.6733 -0.7586 -1.0929
 2139TIP3    H2 6382   4.371   1.131   0.599 -0.8147  0.2509 -0.0321
 2140TIP3   OH2 6383   7.239   1.437   2.175  0.2602  0.4425  0.0215
 2140TIP3    H1 6384   7.202   1.503   2.116 -0.4987  0.0835  0.0842
 2140TIP3    H2 6385   7.184   1.360   2.162  1.8771 -0.5879 -0.9221
 2141TIP3   OH2 6386   3.565   3.828   3.364 -0.5052 -0.2757  0.4823
 2141TIP3    H1 6387   3.597   3.836   3.274 -1.9847 -0.1105 -0.0527
 2141TIP3    H2 6388   3.571   3.916   3.400  1.7050 -0.6221  1.1789
 2142TIP3   OH2 6389   0.473   4.072   0.788  0.0330  0.0020 -0.0592
 2142TIP3    H1 6390   0.512   4.159   0.798 -1.1551  0.5437 -0.0285
 2142TIP3    H2 6391   0.407   4.082   0.720  0.8155 -1.2149 -1.0505
 2143TIP3   OH2 6392   4.802   0.655   1.736  0.1641 -0.1461 -0.2911
 2143TIP3    H1 6393   4.876   0.620   1.686  0.3843  0.1467 -0.1683
 2143TIP3    H2 6394   4.835   0.664   1.825  0.4824  1.5080 -0.5572
 2144TIP3   OH2 6395   6.449   2.334   5.174 -0.3249  0.1256 -0.3519
 2144TIP3    H1 6396   6.421   2.348   5.084  1.8180  0.8979 -0.9598
 2144TIP3    H2 6397   6.539   2.303   5.167 -0.4516 -0.8809  1.5131
 2145TIP3   OH2 6398   1.250   2.136   1.050  0.4337  0.0900  0.0295
 2145TIP3    H1 6399   1.209   2.164   1.132 -0.6111  0.1970 -0.5021
 2145TIP3    H2 6400   1.185   2.078   1.010  0.7673  0.3322 -0.8913
 2146TIP3   OH2 6401   0.458   2.702   2.880  0.4141  0.2409  0.1232
 2146TIP3    H1 6402   0.383   2.760   2.889  0.8961  0.9628 -0.4159
 2146TIP3    H2 6403   0.434   2.643   2.809  0.3572  0.4766 -0.0540
 2147TIP3   OH2 6404   0.149   1.448   3.852  0.4039  0.5579  0.3327
 2147TIP3    H1 6405   0.137   1.517   3.787  1.3457  0.8062  0.4054
 2147TIP3    H2 6406   0.135   1.491   3.936  0.8199  0.6287  0.3692
 2148TIP3   OH2 6407   3.260   2.104   4.889  0.0814 -0.0256 -0.1354
 2148TIP3    H1 6408   3.259   2.163   4.965 -2.4721 -0.2515  0.0842
 2148TIP3    H2 6409   3.175   2.117   4.847 -0.4341 -3.2053 -0.3211
 2149TIP3   OH2 6410   0.223   2.994   0.009 -0.3394  0.3387 -0.0082
 2149TIP3    H1 6411   0.147   2.999   0.067 -1.0939 -1.5224 -0.7586
 2149TIP3    H2 6412   0.202   3.053  -0.064 -0.0791  1.4833  0.8225
 2150TIP3   OH2 6413   6.518   5.548   3.464 -0.0113  0.0845  0.4481
 2150TIP3    H1 6414   6.498   5.534   3.372  0.5859 -0.2837  0.3717
 2150TIP3    H2 6415   6.491   5.638   3.481  0.3096  0.3042 -0.1993
 2151TIP3   OH2 6416   6.349   0.654   3.130 -0.1938 -0.1493  0.3135
 2151TIP3    H1 6417   6.283   0.615   3.187  0.8269 -0.9574  0.9806
 2151TIP3    H2 6418   6.387   0.725   3.182 -1.2555  1.0506 -0.4757
 2152TIP3   OH2 6419   4.128   5.866   1.830  0.0309  0.3361  0.0486
 2152TIP3    H1 6420   4.118   5.901   1.919 -0.6408 -0.4436  0.2967
 2152TIP3    H2 6421   4.157   5.941   1.778  1.5721  0.5450  1.1385
 2153TIP3   OH2 6422   0.339   0.591   1.501 -0.0557  0.1486  0.0516
 2153TIP3    H1 6423   0.425   0.556   1.476  0.0392  0.1796  0.3329
 2153TIP3    H2 6424   0.358   0.658   1.566 -0.2920  0.1781  0.0921
 2154TIP3   OH2 6425   2.825   5.223   1.744  0.2564  0.1756  0.0257
 2154TIP3    H1 6426   2.851   5.144   1.697  0.2001  0.2648 -0.1577
 2154TIP3    H2 6427   2.884   5.291   1.710 -1.4733  0.8363 -1.8624
 2155TIP3   OH2 6428   4.426   3.534   3.887  0.3031  0.5192  0.1764
 2155TIP3    H1 6429   4.501   3.580   3.924  1.7088  0.0604 -1.8994
 2155TIP3    H2 6430   4.358   3.601   3.880  1.3284  1.5604 -0.0897
 2156TIP3   OH2 6431   0.039   4.678   0.285  0.0182 -0.5224 -0.2081
 2156TIP3    H1 6432  -0.030   4.707   0.226 -0.5985 -0.1756  0.6489
 2156TIP3    H2 6433   0.099   4.628   0.230  0.9975  2.1162 -1.7499
 2157TIP3   OH2 6434   0.399   2.911   0.983  0.1237 -0.0794  0.1578
 2157TIP3    H1 6435   0.323   2.877   1.030 -0.9776 -0.1353 -1.5657
 2157TIP3    H2 6436   0.420   2.843   0.918  2.0420 -0.3275  0.9848
 2158TIP3   OH2 6437   1.777   5.707   0.626  0.2115  0.6086 -0.3786
 2158TIP3    H1 6438   1.724   5.738   0.700 -0.9641 -1.1403 -0.4434
 2158TIP3    H2 6439   1.868   5.721   0.655 -0.2271  1.1487  0.8496
 2159TIP3   OH2 6440   2.539   2.361   1.877  0.4236  0.0629  0.0005
 2159TIP3    H1 6441   2.512   2.319   1.959 -1.6628  0.3035 -0.4910
 2159TIP3    H2 6442   2.508   2.452   1.885 -1.4782 -0.3461 -1.6969
 2160TIP3   OH2 6443   2.474   2.069   4.648 -0.2851  0.4788 -0.2151
 2160TIP3    H1 6444   2.505   1.979   4.660  0.0431  0.7664  1.3505
 2160TIP3    H2 6445   2.390   2.071   4.695  0.0935  1.1866  0.4431
 2161TIP3   OH2 6446   3.902   6.163   4.588  0.2360  0.4707 -0.5300
 2161TIP3    H1 6447   3.923   6.253   4.614  0.3607  0.5469 -0.8801
 2161TIP3    H2 6448   3.926   6.110   4.663 -1.6152  0.9153  0.4365
 2162TIP3   OH2 6449   2.034   3.222   0.097 -0.1222  0.5263 -0.3257
 2162TIP3    H1 6450   1.963   3.173   0.140 -0.4451 -0.0886 -1.5152
 2162TIP3    H2 6451   2.044   3.301   0.151 -0.1825 -0.4215  1.1408
 2163TIP3   OH2 6452   3.373   4.976   0.810 -0.7795 -0.1158  0.0576
 2163TIP3    H1 6453   3.391   5.032   0.734 -1.1773  0.2555  0.2352
 2163TIP3    H2 6454   3.286   4.941   0.794 -1.1203  0.4501  0.6337
 2164TIP3   OH2 6455   4.027   1.002   0.151  0.7995  0.1165  0.4246
 2164TIP3    H1 6456   4.102   0.942   0.149 -0.3882 -1.4294 -0.7466
 2164TIP3    H2 6457   3.966   0.961   0.212 -0.4521 -0.4776 -1.1577
 2165TIP3   OH2 6458   4.814   3.487   0.004 -0.4032 -0.1936 -0.3367
 2165TIP3    H1 6459   4.906   3.503  -0.021 -0.8592  0.3634 -1.7351
 2165TIP3    H2 6460   4.784   3.572   0.037 -0.0881 -0.6847  1.3408
 2166TIP3   OH2 6461   2.529   6.081   1.069 -0.1765 -0.3399  0.2271
 2166TIP3    H1 6462   2.571   6.002   1.103 -2.4011 -1.0776  1.4246
 2166TIP3    H2 6463   2.599   6.146   1.066  0.7106 -0.8523  4.1937
 2167TIP3   OH2 6464   5.414   0.916   1.672  0.1562 -0.2054 -0.7729
 2167TIP3    H1 6465   5.441   0.883   1.758  0.8384  3.7940  0.7684
 2167TIP3    H2 6466   5.337   0.971   1.690 -1.1951 -1.1492 -3.1705
 2168TIP3   OH2 6467   0.423   3.671   1.308  0.1261 -0.3341  0.2884
 2168TIP3    H1 6468   0.350   3.727   1.280  1.1689  2.1595  2.1395
 2168TIP3    H2 6469   0.498   3.703   1.258  0.4508 -1.1999  0.2067
 2169TIP3   OH2 6470   4.077   3.462   3.100  0.4970  0.2766 -0.0304
 2169TIP3    H1 6471   4.128   3.444   3.179 -1.1459  2.1771  1.5761
 2169TIP3    H2 6472   3.987   3.436   3.122  0.0142  0.7422 -1.3196
 2170TIP3   OH2 6473   3.979   0.032   1.032 -0.0705  0.3643 -0.8069
 2170TIP3    H1 6474   3.980  -0.003   0.943  0.7119  0.2494 -0.7651
 2170TIP3    H2 6475   4.067   0.066   1.045  0.9385 -2.5480  1.0432
 2171TIP3   OH2 6476   6.351   0.083   4.248 -0.0474  0.1972 -0.4980
 2171TIP3    H1 6477   6.303   0.007   4.217 -0.5780 -0.0485  0.8570
 2171TIP3    H2 6478   6.384   0.057   4.335  1.1741  0.9267 -0.7088
 2172TIP3   OH2 6479   1.794   4.133   1.281  0.2570  0.2292 -0.5803
 2172TIP3    H1 6480   1.816   4.224   1.261 -0.4994  0.5702  0.0790
 2172TIP3    H2 6481   1.877   4.086   1.271  1.1703  1.3444  1.1081
 2173TIP3   OH2 6482   3.366   0.760   0.510  0.0723 -0.4729  0.2195
 2173TIP3    H1 6483   3.388   0.669   0.529 -0.6599 -1.2552 -2.3156
 2173TIP3    H2 6484   3.450   0.801   0.490  0.2805 -0.9306  0.1271
 2174TIP3   OH2 6485   2.976   4.571   4.711 -0.1363  0.2685  0.0323
 2174TIP3    H1 6486   3.061   4.594   4.750  0.2961  0.0958 -0.7931
 2174TIP3    H2 6487   2.913   4.625   4.759  0.5398  1.0608  0.0630
 2175TIP3   OH2 6488   4.388   2.381   3.582  0.2366  0.8390 -0.0879
 2175TIP3    H1 6489   4.471   2.335   3.595 -0.7362 -0.8916  0.2325
 2175TIP3    H2 6490   4.321   2.318   3.608 -1.1912  2.2531 -0.1867
 2176TIP3   OH2 6491   5.584   3.333   5.467 -0.0345  0.4028  0.1297
 2176TIP3    H1 6492   5.501   3.375   5.488 -0.2001 -0.0505  0.3965
 2176TIP3    H2 6493   5.578   3.246   5.507  0.0126 -0.1395 -0.9853
 2177TIP3   OH2 6494   1.900   5.383   1.495 -0.2507  0.5817  0.3527
 2177TIP3    H1 6495   1.958   5.315   1.462 -0.9682  0.5585 -0.8981
 2177TIP3    H2 6496   1.959   5.450   1.529  0.5756  0.9505 -1.6790
 2178TIP3   OH2 6497   2.936   2.493   4.857  0.1149 -0.3619 -0.1676
 2178TIP3    H1 6498   2.948   2.552   4.931 -1.0735  0.9377 -0.9601
 2178TIP3    H2 6499   2.875   2.539   4.799  0.9374 -1.3552 -1.9237
 2179TIP3   OH2 6500   5.942   4.039   0.264  0.6068  0.1199  0.3307
 2179TIP3    H1 6501   6.022   3.998   0.233  1.0715  0.6646  0.7827
 2179TIP3    H2 6502   5.964   4.073   0.351 -0.7657 -1.6899  1.4607
 2180TIP3   OH2 6503   1.698   0.719   0.591  0.0490 -0.2166  0.6518
 2180TIP3    H1 6504   1.633   0.710   0.521 -1.6114 -0.1567  2.1219
 2180TIP3    H2 6505   1.731   0.631   0.605  0.9561 -0.1160 -0.6842
 2181TIP3   OH2 6506   7.122   3.539   2.362 -0.0937 -0.1784 -0.0240
 2181TIP3    H1 6507   7.123   3.456   2.410 -2.1587 -0.5075 -0.4415
 2181TIP3    H2 6508   7.170   3.600   2.418 -1.0019 -0.9626  1.6870
 2182TIP3   OH2 6509   5.779   0.132   0.847  0.7159 -0.6415 -0.2014
 2182TIP3    H1 6510   5.725   0.096   0.776 -0.2313 -1.0170  0.6868
 2182TIP3    H2 6511   5.760   0.076   0.922  1.4982 -0.0799  0.4326
 2183TIP3   OH2 6512   1.980   1.728   2.489  0.0740  0.7910 -0.6217
 2183TIP3    H1 6513   1.986   1.732   2.585 -2.0034  0.5139 -0.4270
 2183TIP3    H2 6514   1.986   1.634   2.469  1.1453  0.8973 -0.8371
 2184TIP3   OH2 6515   1.820   0.094   4.256 -0.1563  0.2882  0.2757
 2184TIP3    H1 6516   1.838   0.020   4.314 -0.2441 -0.7572 -0.9942
 2184TIP3    H2 6517   1.893   0.094   4.194 -0.4861  0.8759 -0.1184
 2185TIP3   OH2 6518   4.074   2.483   3.403  0.0020  0.1047 -0.5698
 2185TIP3    H1 6519   4.111   2.415   3.347  2.5235  1.4927 -0.7028
 2185TIP3    H2 6520   3.989   2.504   3.363  1.2992  0.4074 -3.3807
 2186TIP3   OH2 6521   5.877   0.381   2.932 -0.1638  0.3529  0.0207
 2186TIP3    H1 6522   5.961   0.353   2.969 -1.1135 -1.4200  0.9731
 2186TIP3    H2 6523   5.815   0.314   2.959 -2.0528  1.9519 -0.0765
 2187TIP3   OH2 6524   7.159   1.730   5.297 -0.2935  0.3009 -0.2418
 2187TIP3    H1 6525   7.165   1.662   5.229  0.4950  0.2216 -0.1106
 2187TIP3    H2 6526   7.201   1.807   5.257  1.8142 -0.2499  0.7353
 2188TIP3   OH2 6527   2.939   4.653   1.095 -0.3339  0.1631 -0.1350
 2188TIP3    H1 6528   2.920   4.729   1.041 -0.7486  0.2020  0.0624
 2188TIP3    H2 6529   2.854   4.616   1.115 -0.0877 -1.1013 -1.2826
 2189TIP3   OH2 6530   5.834   4.692   3.598  0.1873  0.3696 -0.1859
 2189TIP3    H1 6531   5.873   4.739   3.524 -0.3508  3.0862  1.1255
 2189TIP3    H2 6532   5.746   4.669   3.567  1.1333 -1.7085 -1.5459
 2190TIP3   OH2 6533   4.635   1.457   5.735  0.3535  0.2611 -0.2421
 2190TIP3    H1 6534   4.662   1.407   5.812 -0.8674 -0.3757 -0.2131
 2190TIP3    H2 6535   4.543   1.436   5.723 -0.0514  2.0371 -0.5903
 2191TIP3   OH2 6536   0.623   3.262   4.055  0.2517 -0.3894  0.1991
 2191TIP3    H1 6537   0.552   3.305   4.103  1.0797 -0.7336  1.8041
 2191TIP3    H2 6538   0.699   3.268   4.113  0.9730 -1.9924 -0.4969
 2192TIP3   OH2 6539   5.791   6.393   4.349  0.4357  0.2909 -0.5703
 2192TIP3    H1 6540   5.761   6.480   4.323 -2.4576 -0.5335 -0.2909
 2192TIP3    H2 6541   5.815   6.402   4.441 -2.5361  0.2957  0.3024
 2193TIP3   OH2 6542   3.106   4.026   0.790  0.0837 -0.1526  0.1849
 2193TIP3    H1 6543   3.027   4.044   0.840 -0.9431 -1.9263 -0.7090
 2193TIP3    H2 6544   3.177   4.031   0.854 -1.1240 -1.7765  1.7426
 2194TIP3   OH2 6545   3.127   0.694   5.608  0.0836 -0.0227 -0.0714
 2194TIP3    H1 6546   3.047   0.662   5.565  0.8548 -1.9338 -0.1644
 2194TIP3    H2 6547   3.127   0.651   5.694 -0.3596  2.1236  1.0857
 2195TIP3   OH2 6548   2.713   2.513   2.080  0.0841  0.1411 -0.0007
 2195TIP3    H1 6549   2.692   2.605   2.067  0.6746  0.2417 -0.3138
 2195TIP3    H2 6550   2.658   2.485   2.153  0.8355  1.0950  0.9738
 2196TIP3   OH2 6551   0.086   1.146   5.201 -1.0759 -0.2869  0.3071
 2196TIP3    H1 6552   0.020   1.113   5.263 -0.3955 -2.3732  0.0156
 2196TIP3    H2 6553   0.054   1.118   5.115 -1.4785  1.6590 -0.2135
 2197TIP3   OH2 6554   4.991   0.703   2.433 -0.1939 -0.0334 -0.3942
 2197TIP3    H1 6555   4.971   0.793   2.407  2.9470  0.4840 -1.3538
 2197TIP3    H2 6556   4.992   0.706   2.529  2.0022  1.5780 -0.3927
 2198TIP3   OH2 6557   1.573   2.686   5.056  1.0213  0.1335 -0.1878
 2198TIP3    H1 6558   1.502   2.750   5.063 -0.2945 -0.9536 -2.3561
 2198TIP3    H2 6559   1.538   2.607   5.098  0.2431 -0.8757 -2.5884
 2199TIP3   OH2 6560   6.206   5.717   2.967 -0.0316  0.3118  0.3648
 2199TIP3    H1 6561   6.199   5.622   2.972  1.2347  0.0955 -1.2171
 2199TIP3    H2 6562   6.209   5.737   2.874  2.6671  1.5831  0.6062
 2200TIP3   OH2 6563   2.125   1.027   3.524 -0.3030 -0.0175  0.1755
 2200TIP3    H1 6564   2.103   0.936   3.545  0.3204  0.0546  1.2522
 2200TIP3    H2 6565   2.061   1.053   3.459 -1.0626 -0.9527  0.5245
 2201TIP3   OH2 6566   6.162   5.463   0.360 -0.4660  0.1894 -1.1201
 2201TIP3    H1 6567   6.238   5.452   0.302 -0.2851 -1.2641 -0.6581
 2201TIP3    H2 6568   6.152   5.377   0.402 -0.2183  1.3374  1.4710
 2202TIP3   OH2 6569   4.772   4.466   4.451  0.1497 -0.2177 -0.4524
 2202TIP3    H1 6570   4.681   4.441   4.471 -0.8009  2.3180 -1.1922
 2202TIP3    H2 6571   4.769   4.494   4.360  2.0293 -1.3066 -0.9093
 2203TIP3   OH2 6572   5.929   5.740   3.105  0.5675  0.1275 -0.0703
 2203TIP3    H1 6573   5.929   5.657   3.152 -1.4730  0.4037  0.5488
 2203TIP3    H2 6574   6.019   5.751   3.074  0.6728 -2.7828 -1.0722
 2204TIP3   OH2 6575   1.768   1.807   4.583  0.2984 -0.2512 -0.0228
 2204TIP3    H1 6576   1.718   1.849   4.653 -1.1022 -1.6841 -0.1108
 2204TIP3    H2 6577   1.712   1.813   4.506  1.6335  0.8986 -0.9602
 2205TIP3   OH2 6578   3.269   4.467   2.978  0.4765 -0.5384  0.1684
 2205TIP3    H1 6579   3.331   4.396   2.994  1.3202 -0.4367 -2.2918
 2205TIP3    H2 6580   3.316   4.528   2.922 -0.8968  1.0229  0.6258
 2206TIP3   OH2 6581   6.437   5.834   2.388  0.1576  0.2699  0.5805
 2206TIP3    H1 6582   6.344   5.839   2.413  0.0850 -1.4845  0.7902
 2206TIP3    H2 6583   6.449   5.906   2.327 -1.4936  0.2251  0.1460
 2207TIP3   OH2 6584   0.130   2.692   3.362  0.0686 -0.0089  0.0704
 2207TIP3    H1 6585   0.108   2.669   3.271  3.8563 -2.9028 -0.3748
 2207TIP3    H2 6586   0.082   2.627   3.415  0.5726 -0.5857 -0.1698
 2208TIP3   OH2 6587   5.186   5.057   1.811 -0.6823 -0.2173 -0.1059
 2208TIP3    H1 6588   5.096   5.059   1.780 -1.4262 -0.9208  1.8714
 2208TIP3    H2 6589   5.208   5.148   1.830  0.6153  0.6483 -4.5786
 2209TIP3   OH2 6590   2.420   2.329   2.893  0.1089 -0.0955  0.1730
 2209TIP3    H1 6591   2.449   2.333   2.984  0.8255 -2.7195  0.1475
 2209TIP3    H2 6592   2.428   2.418   2.861  2.9558  0.3375  1.7753
 2210TIP3   OH2 6593   5.373   1.885   1.819 -0.0759 -0.2017 -0.0998
 2210TIP3    H1 6594   5.363   1.977   1.794  1.3652  0.1141  0.4279
 2210TIP3    H2 6595   5.361   1.838   1.737  0.9616  0.5833 -0.7288
 2211TIP3   OH2 6596   6.983   4.442   5.255  0.2992  0.1895 -0.4603
 2211TIP3    H1 6597   6.923   4.441   5.330 -1.2233 -2.0804 -1.6130
 2211TIP3    H2 6598   6.956   4.518   5.204 -0.3971  0.2238 -0.0555
 2212TIP3   OH2 6599   1.848   5.766   5.348 -0.7781  0.1808 -0.3597
 2212TIP3    H1 6600   1.853   5.857   5.377  1.4662 -0.3411  1.1332
 2212TIP3    H2 6601   1.883   5.768   5.259 -0.3139  0.7181 -0.1720
 2213TIP3   OH2 6602   4.561   0.701   2.077  0.1691 -0.3273  0.6616
 2213TIP3    H1 6603   4.473   0.700   2.115  0.5616  1.9470  1.7741
 2213TIP3    H2 6604   4.564   0.782   2.026  0.9644 -1.4176 -1.0947
 2214TIP3   OH2 6605   4.115   3.231   0.951 -0.1878  0.9546 -0.5343
 2214TIP3    H1 6606   4.128   3.285   1.029  0.7890 -0.2076  0.1531
 2214TIP3    H2 6607   4.202   3.224   0.912 -0.1358 -0.7040 -0.1899
 2215TIP3   OH2 6608   2.822   1.705   2.647 -0.5535 -0.1918 -0.1093
 2215TIP3    H1 6609   2.884   1.649   2.602 -0.3987  1.1515 -1.6728
 2215TIP3    H2 6610   2.869   1.737   2.724  0.4122  0.1421 -0.8266
 2216TIP3   OH2 6611   1.580   0.803   0.182 -0.3813 -0.0254  0.0030
 2216TIP3    H1 6612   1.504   0.770   0.230 -0.6730 -0.1268 -0.5203
 2216TIP3    H2 6613   1.636   0.726   0.171  0.2876  0.2415  1.2563
 2217TIP3   OH2 6614   7.107   3.683   3.137  0.0602  0.2557  0.2344
 2217TIP3    H1 6615   7.195   3.686   3.098 -0.0219  1.3575  0.1117
 2217TIP3    H2 6616   7.048   3.701   3.064 -0.3108 -0.9615  0.2177
 2218TIP3   OH2 6617   3.234   3.078   4.768  0.0333  0.2480 -0.1648
 2218TIP3    H1 6618   3.292   3.130   4.824  0.2348  0.4786 -0.5808
 2218TIP3    H2 6619   3.293   3.039   4.703 -0.0985 -0.6053  0.2214
 2219TIP3   OH2 6620   4.207   1.144   2.154  0.0314  0.6512  0.1854
 2219TIP3    H1 6621   4.200   1.162   2.248  1.1505  1.6968  0.0857
 2219TIP3    H2 6622   4.271   1.207   2.121  0.0673 -0.0523 -1.1950
 2220TIP3   OH2 6623   0.068   0.713   1.481 -0.2728  0.4347 -0.1796
 2220TIP3    H1 6624   0.138   0.699   1.545 -0.8466  3.5457  1.3246
 2220TIP3    H2 6625   0.108   0.694   1.396  1.4235 -0.8892  0.8672
 2221TIP3   OH2 6626   4.841   0.947   4.429  0.2855 -0.4104  0.1110
 2221TIP3    H1 6627   4.767   0.901   4.468 -0.5992  1.1586  0.3795
 2221TIP3    H2 6628   4.811   0.971   4.342  1.0941 -1.1637 -0.3885
 2222TIP3   OH2 6629   4.085   2.916   2.476  0.3293 -0.4087  0.4341
 2222TIP3    H1 6630   4.033   2.847   2.517 -3.3761  1.2569 -1.0562
 2222TIP3    H2 6631   4.125   2.873   2.400 -0.4601 -1.3563  0.5282
 2223TIP3   OH2 6632   2.938   1.276   2.305 -0.1825  0.1455 -0.4454
 2223TIP3    H1 6633   2.924   1.202   2.364  0.4911 -0.0755 -0.5499
 2223TIP3    H2 6634   2.888   1.348   2.344 -1.2372 -0.4879 -0.6097
 2224TIP3   OH2 6635   0.637   2.134   3.532  0.0179 -0.3346 -0.0944
 2224TIP3    H1 6636   0.649   2.046   3.498  1.4644  0.2743 -1.2718
 2224TIP3    H2 6637   0.628   2.189   3.454  2.2027  0.9396  0.4699
 2225TIP3   OH2 6638   1.903   2.134   5.386 -0.6311  0.1996 -0.6197
 2225TIP3    H1 6639   1.846   2.067   5.347 -0.2329 -0.2518 -0.4350
 2225TIP3    H2 6640   1.965   2.084   5.440  0.4352  0.6288 -1.4251
 2226TIP3   OH2 6641   0.903   0.748   3.208  0.6091  0.0662 -0.2345
 2226TIP3    H1 6642   0.855   0.669   3.230  3.4042 -1.6570  0.1972
 2226TIP3    H2 6643   0.945   0.728   3.124  1.6171  0.9530  0.0344
 2227TIP3   OH2 6644   0.882   0.070   5.117 -0.2033  0.3102 -0.1218
 2227TIP3    H1 6645   0.899   0.156   5.157  2.1483  0.8283 -2.0287
 2227TIP3    H2 6646   0.947   0.062   5.048 -0.0382 -3.2596  0.2624
 2228TIP3   OH2 6647   6.385   0.746   2.403  0.1861 -0.0269  0.1802
 2228TIP3    H1 6648   6.470   0.786   2.423 -0.0436 -0.5200  2.4122
 2228TIP3    H2 6649   6.379   0.670   2.462 -2.1909  0.5720  0.8479
 2229TIP3   OH2 6650   1.846   4.894   2.880  0.0489 -0.3970 -0.3690
 2229TIP3    H1 6651   1.867   4.875   2.789 -1.3452 -0.1606 -0.7632
 2229TIP3    H2 6652   1.930   4.893   2.925  0.7830 -0.3124 -1.6969
 2230TIP3   OH2 6653   2.383   5.483   2.992 -0.6099  0.2031 -0.0058
 2230TIP3    H1 6654   2.472   5.483   2.956 -0.8422  0.4980 -0.5973
 2230TIP3    H2 6655   2.371   5.395   3.026 -0.7180 -0.3971 -1.5170
 2231TIP3   OH2 6656   5.933   2.459   5.276  0.7513 -0.4538  0.2767
 2231TIP3    H1 6657   5.965   2.371   5.256  1.8451  0.2559 -1.3070
 2231TIP3    H2 6658   5.908   2.455   5.368  1.7835 -2.1286  0.5256
 2232TIP3   OH2 6659   1.736   3.022   1.427 -0.2593 -0.0354 -0.2636
 2232TIP3    H1 6660   1.669   3.068   1.478  0.7666 -0.1319  1.2399
 2232TIP3    H2 6661   1.737   3.066   1.343 -0.3075  1.7638  0.6411
 2233TIP3   OH2 6662   4.357   2.052   5.618  0.2786 -0.3157 -0.3742
 2233TIP3    H1 6663   4.437   2.010   5.586  0.5728 -0.3868  0.4372
 2233TIP3    H2 6664   4.320   1.989   5.679 -1.0122 -0.7759 -1.5682
 2234TIP3   OH2 6665   3.433   2.566   5.026  0.1677  0.1251 -0.1731
 2234TIP3    H1 6666   3.447   2.590   4.934 -1.8556 -1.8025 -1.0861
 2234TIP3    H2 6667   3.437   2.470   5.026  0.7755  0.1075  1.9129
 2235TIP3   OH2 6668   5.672   1.142   0.704 -0.3565 -0.3753  0.0667
 2235TIP3    H1 6669   5.580   1.154   0.682  0.3200  2.1032 -1.7724
 2235TIP3    H2 6670   5.720   1.169   0.626  1.9795 -3.2197  0.3091
 2236TIP3   OH2 6671   3.325   3.911   3.133  0.2625  0.3045  0.6148
 2236TIP3    H1 6672   3.306   3.961   3.212  1.8106 -0.3422  1.4394
 2236TIP3    H2 6673   3.398   3.958   3.092  0.2531 -0.0362  0.2014
 2237TIP3   OH2 6674   3.866   4.157   3.854  0.2402  0.4443 -0.4476
 2237TIP3    H1 6675   3.886   4.227   3.792  1.0981 -1.3159 -2.2879
 2237TIP3    H2 6676   3.950   4.135   3.893 -0.4131  2.0913  2.0873
 2238TIP3   OH2 6677   4.731   3.147   1.777  0.0450 -0.3413  0.2515
 2238TIP3    H1 6678   4.799   3.082   1.796  0.8008  1.1879  3.4915
 2238TIP3    H2 6679   4.776   3.215   1.727 -0.3240 -1.3950 -1.6100
 2239TIP3   OH2 6680   6.990   0.966   0.388 -0.3638 -0.2520 -0.4227
 2239TIP3    H1 6681   7.080   0.986   0.414 -0.3773 -0.0376 -0.5355
 2239TIP3    H2 6682   6.972   1.025   0.315 -0.1947 -1.1314 -1.1903
 2240TIP3   OH2 6683   6.493   0.563   3.722 -0.0442 -0.3123  0.2528
 2240TIP3    H1 6684   6.419   0.526   3.770 -1.2015  1.7033  0.1456
 2240TIP3    H2 6685   6.479   0.536   3.631 -1.3265  0.9848  0.0341
 2241TIP3   OH2 6686   4.516   1.408   3.849  1.0478 -0.3008 -0.9335
 2241TIP3    H1 6687   4.449   1.425   3.915  2.0475 -0.9656  0.3152
 2241TIP3    H2 6688   4.593   1.456   3.880  1.1316  0.6308 -2.4493
 2242TIP3   OH2 6689   1.016   5.660   0.326 -0.0871  0.1591 -0.4202
 2242TIP3    H1 6690   1.004   5.727   0.258 -0.8926  1.1382  0.6373
 2242TIP3    H2 6691   0.928   5.649   0.364  0.3271 -0.4342  0.3945
 2243TIP3   OH2 6692   5.196   3.627   3.167  0.2557  0.2401  0.3366
 2243TIP3    H1 6693   5.180   3.720   3.149  0.2118  0.4195  1.2472
 2243TIP3    H2 6694   5.285   3.612   3.134  0.3255  0.6519  0.3247
 2244TIP3   OH2 6695   3.947   0.979   2.250  0.0262 -0.4466 -0.2575
 2244TIP3    H1 6696   3.999   0.989   2.330 -0.5401  3.1670 -0.1814
 2244TIP3    H2 6697   3.864   0.941   2.280  0.6285 -1.2509  0.4528
 2245TIP3   OH2 6698   1.047   2.300   4.909  0.3925 -0.2210  0.1478
 2245TIP3    H1 6699   1.088   2.248   4.840  0.2591 -2.2763  1.5425
 2245TIP3    H2 6700   1.115   2.308   4.976 -0.7125 -1.8093  1.5347
 2246TIP3   OH2 6701   0.252   5.648   1.759 -0.1225  0.8868  0.1058
 2246TIP3    H1 6702   0.189   5.704   1.805 -0.0314 -1.5724  3.6579
 2246TIP3    H2 6703   0.199   5.601   1.694 -1.0066  2.0110 -0.0129
 2247TIP3   OH2 6704   6.453   1.761   0.922  0.4649  0.1650 -0.0960
 2247TIP3    H1 6705   6.391   1.833   0.920  1.5657  1.1341 -1.0617
 2247TIP3    H2 6706   6.532   1.797   0.963  0.9711 -0.5301 -0.4127
 2248TIP3   OH2 6707   5.411   1.720   2.956  0.2150  0.1302 -0.2525
 2248TIP3    H1 6708   5.426   1.702   2.863  1.1921  0.9242 -0.2672
 2248TIP3    H2 6709   5.484   1.777   2.981  0.4801 -0.8073  1.2323
 2249TIP3   OH2 6710   4.601   6.185   1.225 -0.1027  0.0567  0.4826
 2249TIP3    H1 6711   4.596   6.193   1.320  0.1455 -0.3953  0.5376
 2249TIP3    H2 6712   4.558   6.102   1.205  1.1680 -0.6087  0.3570
 2250TIP3   OH2 6713   7.084   2.410   5.131 -0.6050 -0.2049  0.0016
 2250TIP3    H1 6714   7.146   2.483   5.131 -0.6021 -0.0019 -4.0437
 2250TIP3    H2 6715   7.138   2.332   5.120 -0.8351 -0.4800  0.7598
 2251TIP3   OH2 6716   5.181   6.367   2.360 -0.0609 -0.1670 -0.5526
 2251TIP3    H1 6717   5.232   6.308   2.303 -1.1721 -2.2339  0.4703
 2251TIP3    H2 6718   5.244   6.398   2.424 -0.0209 -3.0271  0.9553
 2252TIP3   OH2 6719   0.924   3.000   4.563  0.0963  0.2745 -0.5105
 2252TIP3    H1 6720   0.930   2.945   4.642  0.8783  0.3203 -0.5284
 2252TIP3    H2 6721   0.984   2.959   4.501 -1.7079 -0.7254 -1.6962
 2253TIP3   OH2 6722   0.055   2.368   1.465  0.9035  0.3141 -0.3655
 2253TIP3    H1 6723   0.083   2.458   1.482  0.0126  0.9706 -2.0682
 2253TIP3    H2 6724  -0.038   2.375   1.447  0.6998 -1.0485  0.0670
 2254TIP3   OH2 6725   5.781   6.293   2.956 -0.4286  0.0376 -0.5165
 2254TIP3    H1 6726   5.840   6.222   2.980  2.0904  1.8250 -1.0736
 2254TIP3    H2 6727   5.796   6.306   2.862 -1.2308  0.9659 -0.5385
 2255TIP3   OH2 6728   6.743   0.647   5.878 -0.3884 -0.5304  0.2465
 2255TIP3    H1 6729   6.755   0.562   5.921  1.3989  0.0963  1.1019
 2255TIP3    H2 6730   6.817   0.653   5.818 -0.4739  0.4378  0.2251
 2256TIP3   OH2 6731   4.928   2.488   3.626  0.6285  0.3443  0.3258
 2256TIP3    H1 6732   4.846   2.514   3.667  1.5450  1.5868  1.4686
 2256TIP3    H2 6733   4.951   2.405   3.667  0.5681  0.6229  0.9265
 2257TIP3   OH2 6734   1.624   1.378   2.435 -0.7900 -0.0125 -0.6630
 2257TIP3    H1 6735   1.559   1.389   2.365 -1.0160  0.9841 -0.3021
 2257TIP3    H2 6736   1.620   1.284   2.455 -0.6699 -0.3400 -2.0326
 2258TIP3   OH2 6737   4.001   3.281   4.214  0.3327 -0.3599 -1.0132
 2258TIP3    H1 6738   3.982   3.315   4.302 -0.5497 -1.3029 -0.8108
 2258TIP3    H2 6739   4.001   3.358   4.158  2.9514  0.5438  0.0803
 2259TIP3   OH2 6740   4.434   1.718   4.820 -0.2040 -0.3235 -0.4112
 2259TIP3    H1 6741   4.454   1.646   4.879  0.2934 -0.0652 -0.2540
 2259TIP3    H2 6742   4.339   1.730   4.826 -0.1755 -0.4038  0.2126
 2260TIP3   OH2 6743   0.631   2.848   5.363  0.3754 -0.0753  0.7172
 2260TIP3    H1 6744   0.702   2.783   5.366  1.1485  0.7805  2.1406
 2260TIP3    H2 6745   0.677   2.933   5.358 -0.5804  0.4283  0.3211
 2261TIP3   OH2 6746   4.910   0.858   1.942  0.3346  0.2266  0.5810
 2261TIP3    H1 6747   4.900   0.929   1.879  0.9082 -0.1512  0.0499
 2261TIP3    H2 6748   5.001   0.863   1.970  0.3006 -0.1220  0.7652
 2262TIP3   OH2 6749   0.244   3.867   1.283  0.6416  0.6205 -0.0398
 2262TIP3    H1 6750   0.148   3.863   1.281  0.4506  2.6472  1.9191
 2262TIP3    H2 6751   0.265   3.959   1.267  2.0848  0.8212  2.5128
 2263TIP3   OH2 6752   4.533   2.237   2.152  0.0093 -0.0563  0.3299
 2263TIP3    H1 6753   4.498   2.322   2.125  1.5054  0.7802  0.9351
 2263TIP3    H2 6754   4.461   2.197   2.201 -0.4496  1.2120  0.7566
 2264TIP3   OH2 6755   4.937   3.633   0.350 -0.6242 -0.8562 -0.3203
 2264TIP3    H1 6756   5.017   3.662   0.394 -0.3280 -1.9357 -0.1215
 2264TIP3    H2 6757   4.943   3.538   0.348 -1.8393 -0.9519 -0.4439
 2265TIP3   OH2 6758   3.985   5.467   1.816 -0.0117  0.6681 -0.3617
 2265TIP3    H1 6759   3.939   5.451   1.733 -0.8562  0.0304  0.2138
 2265TIP3    H2 6760   4.003   5.380   1.851  0.5140  0.9308  0.0351
 2266TIP3   OH2 6761   6.080   4.102   3.882  0.1950  0.2843  0.3324
 2266TIP3    H1 6762   6.082   4.189   3.923  1.0425 -0.2102  1.3908
 2266TIP3    H2 6763   5.987   4.083   3.872 -0.0627  0.4940  1.9379
 2267TIP3   OH2 6764   4.453   3.765   0.014  0.1181  0.2650 -0.2394
 2267TIP3    H1 6765   4.485   3.836  -0.042  1.6868 -0.2704 -0.0837
 2267TIP3    H2 6766   4.469   3.795   0.103  1.1520 -0.4158 -0.1788
 2268TIP3   OH2 6767   5.090   3.173   4.171 -0.0044  0.1180  0.2103
 2268TIP3    H1 6768   5.107   3.264   4.195 -0.6115  0.0149  1.0870
 2268TIP3    H2 6769   5.088   3.174   4.075 -1.0518  1.2340  0.2088
 2269TIP3   OH2 6770   6.133   6.063   1.830  0.1519  0.0446 -0.4940
 2269TIP3    H1 6771   6.145   6.001   1.758  0.5281  0.0235 -0.4163
 2269TIP3    H2 6772   6.095   6.141   1.789  1.4098  0.4572 -0.9188
 2270TIP3   OH2 6773   4.720   5.043   2.174 -0.2540  0.0652  0.2961
 2270TIP3    H1 6774   4.748   5.114   2.117  0.4011 -0.1286  0.3604
 2270TIP3    H2 6775   4.801   4.995   2.194 -0.8877 -1.7265 -1.1052
 2271TIP3   OH2 6776   6.065   3.144   4.955 -0.5756  0.0913 -0.5477
 2271TIP3    H1 6777   6.024   3.099   4.882  0.7966 -0.8887 -0.7575
 2271TIP3    H2 6778   6.098   3.074   5.011 -0.4270  0.8353  0.3351
 2272TIP3   OH2 6779   6.781   1.984   2.272  0.2480 -0.5226 -0.1924
 2272TIP3    H1 6780   6.796   1.948   2.185  1.6194  1.2748 -0.7628
 2272TIP3    H2 6781   6.800   2.077   2.263 -2.0212  0.1972  1.4554
 2273TIP3   OH2 6782   4.746   0.479   5.145 -0.1316 -0.4410 -0.7168
 2273TIP3    H1 6783   4.751   0.395   5.099 -0.2433  0.2809 -2.1055
 2273TIP3    H2 6784   4.741   0.544   5.075 -0.6722  0.6875  0.3332
 2274TIP3   OH2 6785   0.834   0.079   3.517 -0.4706  0.7015 -0.1283
 2274TIP3    H1 6786   0.912   0.131   3.536 -0.2055  0.1555  0.3069
 2274TIP3    H2 6787   0.860   0.020   3.447 -0.5379  0.6248 -0.0897
 2275TIP3   OH2 6788   3.846   5.926   3.896  0.2486  0.0080  0.0801
 2275TIP3    H1 6789   3.937   5.933   3.865  0.1501 -2.8554 -1.1392
 2275TIP3    H2 6790   3.799   5.993   3.846  1.2254 -0.3716 -1.4371
 2276TIP3   OH2 6791   3.055   5.841   1.660  0.4528  0.2753  0.3516
 2276TIP3    H1 6792   3.081   5.765   1.607 -1.8298 -0.5618  0.3048
 2276TIP3    H2 6793   3.056   5.914   1.598 -2.7166 -0.7809 -1.1851
 2277TIP3   OH2 6794   0.742   5.893   5.165 -0.2124 -0.0633  0.7076
 2277TIP3    H1 6795   0.730   5.981   5.201 -0.5025  0.3973 -0.4710
 2277TIP3    H2 6796   0.775   5.841   5.238  1.9685  1.5117  0.9393
 2278TIP3   OH2 6797   1.115   6.506   0.743 -1.2344 -0.9205  0.5644
 2278TIP3    H1 6798   1.120   6.600   0.764 -0.7681 -0.7384 -0.3070
 2278TIP3    H2 6799   1.156   6.463   0.818  1.4859 -0.2120 -0.3836
 2279TIP3   OH2 6800   3.600   5.752   1.738 -0.0934 -0.1654  0.1919
 2279TIP3    H1 6801   3.641   5.713   1.815 -1.1200  1.5659  1.7090
 2279TIP3    H2 6802   3.506   5.741   1.754 -0.4162  2.4450  0.5099
 2280TIP3   OH2 6803   0.812   1.759   1.035 -0.0235  0.4716  0.3006
 2280TIP3    H1 6804   0.868   1.694   0.993  0.5629  2.3767 -2.0080
 2280TIP3    H2 6805   0.796   1.723   1.123  2.3219 -1.5466 -0.0068
 2281TIP3   OH2 6806   6.727   4.060   3.376  0.2111 -0.1744  0.0532
 2281TIP3    H1 6807   6.716   4.076   3.470  1.2297 -1.0675  0.3550
 2281TIP3    H2 6808   6.731   3.965   3.369  0.6609 -0.0976 -0.8289
 2282TIP3   OH2 6809   1.487   2.012   5.666  0.2188 -0.6951 -0.2106
 2282TIP3    H1 6810   1.445   2.041   5.585 -1.6052  1.9116  1.4848
 2282TIP3    H2 6811   1.545   1.942   5.640 -1.5321 -1.0942 -3.5148
 2283TIP3   OH2 6812   3.199   5.504   0.280 -0.3168  0.5346 -0.7060
 2283TIP3    H1 6813   3.283   5.546   0.295  0.1341 -0.9031  1.1412
 2283TIP3    H2 6814   3.222   5.416   0.249 -1.0841 -0.0844  0.4097
 2284TIP3   OH2 6815   0.778   5.399   3.177 -0.7295  0.0698 -0.2229
 2284TIP3    H1 6816   0.849   5.347   3.216  0.2973  1.4558 -0.1749
 2284TIP3    H2 6817   0.715   5.411   3.249 -0.7109 -0.6229 -0.0848
 2285TIP3   OH2 6818   3.394   4.369   3.625  0.0210 -0.3706 -0.1708
 2285TIP3    H1 6819   3.469   4.315   3.650  0.7642  0.9014  0.4316
 2285TIP3    H2 6820   3.375   4.422   3.702 -2.0887 -1.2738  0.0010
 2286TIP3   OH2 6821   5.629   4.208   5.749  0.4557 -0.3443 -0.0891
 2286TIP3    H1 6822   5.679   4.289   5.753 -0.5425  0.3079 -0.2847
 2286TIP3    H2 6823   5.639   4.177   5.659 -0.2253  0.2777 -0.3858
 2287TIP3   OH2 6824   3.924   6.732   1.864 -1.3054  0.4816  0.1006
 2287TIP3    H1 6825   3.924   6.774   1.950  1.1091  1.9592 -0.5234
 2287TIP3    H2 6826   3.881   6.795   1.807 -0.3285  0.8059 -0.2908
 2288TIP3   OH2 6827   6.310   4.882   1.905  0.9851  1.1289 -0.1523
 2288TIP3    H1 6828   6.377   4.834   1.954  0.3664 -1.0169 -1.3107
 2288TIP3    H2 6829   6.239   4.895   1.968  1.4613  1.1870  0.3783
 2289TIP3   OH2 6830   5.396   1.541   5.476 -0.3921  0.3844 -0.8387
 2289TIP3    H1 6831   5.321   1.484   5.457 -0.4767  0.4276 -0.6335
 2289TIP3    H2 6832   5.447   1.540   5.395 -0.5444  0.2481 -0.9352
 2290TIP3   OH2 6833   7.172   3.792   1.052 -0.0372  0.3203  0.4415
 2290TIP3    H1 6834   7.262   3.760   1.047 -0.6103 -1.3226 -0.1785
 2290TIP3    H2 6835   7.138   3.781   0.963 -0.9842  0.4824  0.7668
 2291TIP3   OH2 6836   6.785   6.289   1.767 -0.2803  0.3752 -0.6330
 2291TIP3    H1 6837   6.774   6.223   1.699  0.4890  0.1459 -0.5470
 2291TIP3    H2 6838   6.830   6.361   1.724 -1.6623  1.1313 -0.8818
 2292TIP3   OH2 6839   4.149   1.131   2.426  0.8252 -0.0513  0.3888
 2292TIP3    H1 6840   4.212   1.062   2.446 -0.9543 -1.3158  2.0394
 2292TIP3    H2 6841   4.098   1.140   2.506 -2.9108 -1.1183 -1.6449
 2293TIP3   OH2 6842   2.096   2.784   5.627 -0.0223 -0.0034 -0.1265
 2293TIP3    H1 6843   2.027   2.735   5.582  1.7985 -1.6169 -1.3489
 2293TIP3    H2 6844   2.106   2.740   5.712 -0.9161  0.6657  0.3408
 2294TIP3   OH2 6845   1.170   3.217   2.592 -0.4637  0.9730  0.2231
 2294TIP3    H1 6846   1.194   3.181   2.677 -1.2896  0.3643  0.2112
 2294TIP3    H2 6847   1.161   3.311   2.608 -0.1997  0.9202  0.7075
 2295TIP3   OH2 6848   1.103   5.912   0.116  0.1016  0.3951 -0.1902
 2295TIP3    H1 6849   1.166   5.971   0.156  0.0274 -0.1837  0.8079
 2295TIP3    H2 6850   1.146   5.881   0.036  1.8724 -1.3858  1.3668
 2296TIP3   OH2 6851   4.093   2.410   4.894  0.2830 -0.3338  0.0716
 2296TIP3    H1 6852   4.175   2.367   4.870 -0.2861 -1.7281  0.4698
 2296TIP3    H2 6853   4.026   2.343   4.878 -0.9912  1.2226 -1.6513
 2297TIP3   OH2 6854   6.571   5.543   4.397 -0.4696 -0.1577 -0.5286
 2297TIP3    H1 6855   6.648   5.589   4.365 -1.6001  0.9112 -1.9022
 2297TIP3    H2 6856   6.502   5.609   4.397 -1.4947 -1.1873  0.1830
 2298TIP3   OH2 6857   4.206   4.257   0.956  0.9232 -0.1375  0.1247
 2298TIP3    H1 6858   4.158   4.208   1.022  0.0376 -1.0306 -1.1415
 2298TIP3    H2 6859   4.260   4.192   0.912  0.9341  0.3049 -0.5288
 2299TIP3   OH2 6860   1.147   5.669   5.890  1.0189 -0.3749 -0.0487
 2299TIP3    H1 6861   1.094   5.716   5.825 -0.0307 -0.5831  0.6405
 2299TIP3    H2 6862   1.134   5.718   5.971  1.5997 -0.6500  0.2189
 2300TIP3   OH2 6863   5.346   2.521   0.173 -0.2782 -0.3131 -0.2485
 2300TIP3    H1 6864   5.254   2.506   0.153 -0.0144 -0.6008 -1.3147
 2300TIP3    H2 6865   5.358   2.615   0.165 -0.4349 -0.2955 -0.2763
 2301TIP3   OH2 6866   3.899   1.703   3.904 -0.5900  0.1366 -0.6212
 2301TIP3    H1 6867   3.859   1.774   3.854 -2.2516  0.3914  0.9430
 2301TIP3    H2 6868   3.919   1.742   3.989  1.2332 -0.5287 -0.7035
 2302TIP3   OH2 6869   4.435   5.468   0.361  0.1579 -0.3748 -0.2738
 2302TIP3    H1 6870   4.420   5.452   0.268  0.1912  0.0576 -0.3593
 2302TIP3    H2 6871   4.489   5.547   0.363  0.2682 -0.4571  0.1090
 2303TIP3   OH2 6872   2.755   1.346   5.170 -0.2622  0.0506  0.3683
 2303TIP3    H1 6873   2.803   1.427   5.152 -1.4739  0.5971 -0.5473
 2303TIP3    H2 6874   2.823   1.280   5.183  0.7672  0.5730 -1.8862
 2304TIP3   OH2 6875   4.105   0.443   1.634  0.4195  0.1562 -0.4680
 2304TIP3    H1 6876   4.066   0.526   1.606 -0.4262  0.1383  0.6014
 2304TIP3    H2 6877   4.199   0.461   1.638  0.1830  1.3013  0.4951
 2305TIP3   OH2 6878   5.326   2.870   5.485  0.6759 -0.1979 -0.2420
 2305TIP3    H1 6879   5.369   2.786   5.501 -3.1179 -2.0513  1.4164
 2305TIP3    H2 6880   5.317   2.909   5.572 -1.7805 -0.4182 -0.3322
 2306TIP3   OH2 6881   4.222   4.159   0.485  0.5159 -0.3882  0.7805
 2306TIP3    H1 6882   4.236   4.232   0.545 -0.8621  0.4923  0.0676
 2306TIP3    H2 6883   4.210   4.083   0.543 -0.7924  0.4365  1.6346
 2307TIP3   OH2 6884   3.747   6.527   1.081  0.4124 -0.2644 -0.3175
 2307TIP3    H1 6885   3.819   6.464   1.076  0.0399 -0.7945  0.6182
 2307TIP3    H2 6886   3.674   6.476   1.117  0.2277  0.7997  0.8694
 2308TIP3   OH2 6887   3.071   3.958   0.547 -0.5772  1.3072  0.9520
 2308TIP3    H1 6888   3.103   3.987   0.633 -0.0848  0.1828  1.1729
 2308TIP3    H2 6889   3.027   4.034   0.511 -1.5319  1.5663  2.5620
 2309TIP3   OH2 6890   3.368   3.394   4.795 -0.7773  0.4559  0.3777
 2309TIP3    H1 6891   3.345   3.446   4.718 -0.7925  0.7686  0.5927
 2309TIP3    H2 6892   3.421   3.322   4.760 -0.8618  0.5436  0.0638
 2310TIP3   OH2 6893   1.680   1.920   2.146  0.3005 -0.5650 -0.5684
 2310TIP3    H1 6894   1.751   1.927   2.083  0.9900  0.4996  0.3053
 2310TIP3    H2 6895   1.723   1.904   2.230 -0.1681  3.3668  0.5907
 2311TIP3   OH2 6896   3.205   0.090   3.082  0.2703 -0.2107 -0.8551
 2311TIP3    H1 6897   3.274   0.025   3.098 -1.1180 -1.6020 -0.2970
 2311TIP3    H2 6898   3.157   0.056   3.007  0.3795  0.9250 -1.4555
 2312TIP3   OH2 6899   6.637   2.958   4.169 -0.5998 -0.1709 -0.2790
 2312TIP3    H1 6900   6.613   2.893   4.236  0.6230  0.0708  0.4140
 2312TIP3    H2 6901   6.698   2.911   4.112  2.7578  1.1186  1.9572
 2313TIP3   OH2 6902   0.045   2.407   5.517 -0.5684 -0.1341  0.6466
 2313TIP3    H1 6903   0.111   2.350   5.557  0.0664  0.4943  0.5205
 2313TIP3    H2 6904  -0.024   2.348   5.489  0.6468 -0.9993 -0.6232
 2314TIP3   OH2 6905   0.474   6.750   0.747  0.1549 -0.0981  0.4154
 2314TIP3    H1 6906   0.554   6.799   0.767 -0.3433  1.3820 -0.9911
 2314TIP3    H2 6907   0.454   6.773   0.656 -1.4219 -1.0967  0.4648
 2315TIP3   OH2 6908   0.871   0.409   2.416 -0.0878 -0.0355  0.2122
 2315TIP3    H1 6909   0.903   0.493   2.448  0.1927  0.5249 -1.4320
 2315TIP3    H2 6910   0.949   0.365   2.382 -0.1604 -1.1694  1.4158
 2316TIP3   OH2 6911   2.994   6.005   0.079 -0.1290 -0.0088  0.2506
 2316TIP3    H1 6912   2.968   6.060   0.152  1.9963  0.3586  0.7908
 2316TIP3    H2 6913   3.052   6.060   0.026  0.2566 -1.0171 -0.4159
 2317TIP3   OH2 6914   2.055   3.181   1.446 -0.4026  0.0164 -0.4433
 2317TIP3    H1 6915   2.064   3.090   1.473  3.1510  0.9717  2.2697
 2317TIP3    H2 6916   1.969   3.207   1.477 -0.8062 -1.9643  0.2221
 2318TIP3   OH2 6917   3.316   3.745   4.983  0.9006  0.1245  0.5285
 2318TIP3    H1 6918   3.267   3.672   4.944  1.0132  0.7824 -0.9328
 2318TIP3    H2 6919   3.267   3.769   5.061  0.7296 -1.3442  0.9007
 2319TIP3   OH2 6920   5.719   3.677   3.778 -0.3327 -0.2853  0.3088
 2319TIP3    H1 6921   5.775   3.635   3.842 -1.3831 -1.7307  0.3219
 2319TIP3    H2 6922   5.711   3.613   3.707 -0.1430  0.8085 -0.7316
 2320TIP3   OH2 6923   6.542   6.330   0.816 -0.7021  0.4251 -0.6203
 2320TIP3    H1 6924   6.580   6.408   0.857 -2.0606  0.9310 -0.2601
 2320TIP3    H2 6925   6.481   6.296   0.882 -1.9172  0.4702 -1.6902
 2321TIP3   OH2 6926   6.188   4.218   0.356 -0.2337  0.1201  0.2762
 2321TIP3    H1 6927   6.133   4.175   0.421 -0.6738 -1.2417 -0.9680
 2321TIP3    H2 6928   6.245   4.149   0.323 -1.3483  0.2931 -2.1730
 2322TIP3   OH2 6929   3.139   1.589   0.734 -0.1714  0.6869 -0.7888
 2322TIP3    H1 6930   3.153   1.545   0.650  3.5617  2.3248 -1.2623
 2322TIP3    H2 6931   3.154   1.682   0.715  2.5563  0.9518  1.8390
 2323TIP3   OH2 6932   4.255   5.394   0.599 -0.4841 -0.1982 -0.2019
 2323TIP3    H1 6933   4.321   5.415   0.533 -0.2728  2.0227  0.6332
 2323TIP3    H2 6934   4.275   5.304   0.625 -0.3282 -1.0052 -2.8234
 2324TIP3   OH2 6935   7.067   6.758   5.667 -0.4679  0.1027 -0.3927
 2324TIP3    H1 6936   7.001   6.690   5.681 -0.1009  0.0358  1.1620
 2324TIP3    H2 6937   7.044   6.828   5.728  0.2430  0.5784 -0.6503
 2325TIP3   OH2 6938   4.955   6.056   5.547  0.1372 -0.3761  0.2284
 2325TIP3    H1 6939   4.974   6.012   5.464 -1.7685 -2.9146  1.0257
 2325TIP3    H2 6940   4.987   6.145   5.534  0.0893 -0.7159 -3.1618
 2326TIP3   OH2 6941   1.471   6.190   0.982 -0.3311  0.3029 -0.1505
 2326TIP3    H1 6942   1.484   6.171   1.075  2.7871 -0.8163 -0.6993
 2326TIP3    H2 6943   1.516   6.273   0.968  0.9542 -0.4978 -0.9766
 2327TIP3   OH2 6944   5.374   0.153   2.342 -0.5220  0.4318  0.0077
 2327TIP3    H1 6945   5.440   0.154   2.411  0.4340  0.6251 -0.8669
 2327TIP3    H2 6946   5.347   0.062   2.336 -0.3747  0.3594  0.4177
 2328TIP3   OH2 6947   2.519   2.103   2.659  0.1263  0.1495 -0.5963
 2328TIP3    H1 6948   2.478   2.154   2.728 -0.2936 -0.7778 -0.1372
 2328TIP3    H2 6949   2.494   2.147   2.578  0.9905  1.5091 -0.1591
 2329TIP3   OH2 6950   2.953   4.548   2.218  0.3728 -0.0583 -0.1689
 2329TIP3    H1 6951   2.909   4.602   2.152  0.1441 -0.1823 -0.1185
 2329TIP3    H2 6952   2.999   4.611   2.274 -0.5881  0.1613  0.4095
 2330TIP3   OH2 6953   4.264   3.952   1.837  0.2334 -0.0258  0.3555
 2330TIP3    H1 6954   4.255   4.038   1.798  0.8642  1.0061  2.3377
 2330TIP3    H2 6955   4.219   3.959   1.922  1.0359 -1.3828  0.9322
 2331TIP3   OH2 6956   4.759   6.528   3.307  0.2562 -0.3119 -0.0089
 2331TIP3    H1 6957   4.725   6.605   3.260  2.3775  0.0780 -1.0592
 2331TIP3    H2 6958   4.788   6.563   3.391  0.0716 -0.2177  0.0174
 2332TIP3   OH2 6959   0.166   6.317   5.392 -0.2109  0.0410  0.1091
 2332TIP3    H1 6960   0.146   6.230   5.424  0.0748 -1.0543 -2.4541
 2332TIP3    H2 6961   0.257   6.332   5.419 -0.5587  0.0145  1.3904
 2333TIP3   OH2 6962   4.295   1.482   1.326 -0.4398  0.1241 -0.6037
 2333TIP3    H1 6963   4.383   1.466   1.360 -1.0104 -0.6710  0.5431
 2333TIP3    H2 6964   4.277   1.407   1.269  0.7213  1.7019 -3.2459
 2334TIP3   OH2 6965   4.109   3.328   2.637 -0.1252 -0.3164 -0.3337
 2334TIP3    H1 6966   4.024   3.283   2.633 -0.6025  0.4864  0.4259
 2334TIP3    H2 6967   4.119   3.368   2.551 -1.0870  0.5521 -0.0673
 2335TIP3   OH2 6968   6.117   4.853   4.261  0.5403 -0.2609  0.5299
 2335TIP3    H1 6969   6.090   4.807   4.182 -1.5878  1.3692  0.2352
 2335TIP3    H2 6970   6.097   4.792   4.332 -0.5524 -0.5089  0.0294
 2336TIP3   OH2 6971   1.063   5.980   5.206  0.3063 -0.1842  0.3758
 2336TIP3    H1 6972   0.984   5.985   5.152 -0.1084 -2.3607  0.6631
 2336TIP3    H2 6973   1.113   5.908   5.168  0.9670 -0.4467  1.6689
 2337TIP3   OH2 6974   3.145   4.836   0.832 -0.2029  0.0431 -0.1931
 2337TIP3    H1 6975   3.177   4.775   0.899 -0.2027 -0.9458 -1.0706
 2337TIP3    H2 6976   3.063   4.797   0.802  0.4972 -0.2952 -1.7598
 2338TIP3   OH2 6977   4.783   2.775   2.906  0.1952  0.4418  0.0235
 2338TIP3    H1 6978   4.710   2.794   2.848  1.1920 -0.8736 -1.7807
 2338TIP3    H2 6979   4.846   2.729   2.851  2.4674  1.6179  1.4535
 2339TIP3   OH2 6980   0.682   4.646   3.352 -0.2193 -0.0713  0.6008
 2339TIP3    H1 6981   0.686   4.558   3.313  0.4235 -0.1577  0.8529
 2339TIP3    H2 6982   0.674   4.630   3.446  1.3648  0.1209  0.7988
 2340TIP3   OH2 6983   4.576   3.926   4.328 -0.3474  0.1820  0.2266
 2340TIP3    H1 6984   4.551   4.007   4.373 -1.6153  0.9765 -1.7922
 2340TIP3    H2 6985   4.500   3.903   4.275  0.8583 -1.0083 -1.0608
 2341TIP3   OH2 6986   6.064   5.689   4.459 -0.0239 -0.0598  0.8686
 2341TIP3    H1 6987   6.013   5.619   4.420  2.5266 -0.7998 -1.5050
 2341TIP3    H2 6988   6.018   5.769   4.433 -1.1952 -0.7411  0.7785
 2342TIP3   OH2 6989   7.151   4.800   1.940 -0.0769 -0.3262  0.0526
 2342TIP3    H1 6990   7.069   4.817   1.986 -0.4195  0.1352 -0.7237
 2342TIP3    H2 6991   7.218   4.834   1.999 -0.6143  1.7368 -0.4596
 2343TIP3   OH2 6992   0.141   3.818   3.477 -0.0252  0.2370 -0.0124
 2343TIP3    H1 6993   0.096   3.749   3.429  0.4356  0.0109 -0.1313
 2343TIP3    H2 6994   0.161   3.779   3.562  1.8231 -0.4242 -0.7003
 2344TIP3   OH2 6995   3.436   4.325   3.361  0.1462  0.6518 -0.5389
 2344TIP3    H1 6996   3.516   4.377   3.351  1.3415 -0.9277  0.2905
 2344TIP3    H2 6997   3.401   4.353   3.446  1.5021 -0.7153  0.5403
 2345TIP3   OH2 6998   2.063   6.235   0.607  0.0815 -0.4429 -0.6853
 2345TIP3    H1 6999   2.051   6.208   0.516 -0.1402 -1.8407 -0.2643
 2345TIP3    H2 7000   2.158   6.228   0.622  0.0238 -1.0733 -0.5714
 2346TIP3   OH2 7001   0.424   6.520   0.222 -0.2073  0.2679  0.0232
 2346TIP3    H1 7002   0.368   6.597   0.220  0.8926  1.0792 -1.0013
 2346TIP3    H2 7003   0.461   6.519   0.310  0.9997  1.8727 -0.4071
 2347TIP3   OH2 7004   0.971   4.936   4.562  0.2523 -0.1894 -0.0583
 2347TIP3    H1 7005   1.022   4.933   4.481  0.2806  1.6472 -0.1381
 2347TIP3    H2 7006   0.935   4.847   4.570  2.3051 -1.1440 -0.7079
 2348TIP3   OH2 7007   3.958   3.404   1.543 -0.0447 -0.0859 -0.0962
 2348TIP3    H1 7008   3.909   3.394   1.462  0.1934 -1.2865 -0.1197
 2348TIP3    H2 7009   3.891   3.420   1.610 -0.3722 -0.4966 -0.3195
 2349TIP3   OH2 7010   2.272   1.163   5.825  0.1656  0.5010  0.1107
 2349TIP3    H1 7011   2.246   1.154   5.917 -1.1415  0.0657 -0.2794
 2349TIP3    H2 7012   2.315   1.080   5.804 -0.2962  0.2678  0.0925
 2350TIP3   OH2 7013   4.845   1.241   0.932 -0.3024  0.2690 -0.0336
 2350TIP3    H1 7014   4.884   1.328   0.937  1.1538 -0.2486 -1.3965
 2350TIP3    H2 7015   4.919   1.181   0.941 -1.1990 -0.8224  0.2768
 2351TIP3   OH2 7016   1.056   2.022   4.819 -0.5634  0.3443 -0.3881
 2351TIP3    H1 7017   1.005   2.073   4.881 -0.6228  1.5908 -1.4254
 2351TIP3    H2 7018   1.083   1.944   4.868 -1.8418  0.5771  0.7371
 2352TIP3   OH2 7019   5.207   2.646   4.605  0.2277 -0.3741  0.0184
 2352TIP3    H1 7020   5.239   2.556   4.602  0.0182 -0.4460 -0.1015
 2352TIP3    H2 7021   5.233   2.679   4.691 -1.7859 -1.3322  1.0782
 2353TIP3   OH2 7022   3.977   0.416   2.608  0.2576 -0.1734  0.4009
 2353TIP3    H1 7023   4.059   0.437   2.653  0.6373 -1.3191  0.2784
 2353TIP3    H2 7024   3.914   0.480   2.641  0.9572  0.0972  1.2429
 2354TIP3   OH2 7025   3.597   0.244   2.808  0.0208 -0.1769  0.2439
 2354TIP3    H1 7026   3.679   0.200   2.786 -1.1321 -2.2107 -0.2007
 2354TIP3    H2 7027   3.579   0.218   2.898 -1.9322 -2.8496 -0.7981
 2355TIP3   OH2 7028   5.632   3.880   0.453 -0.1634 -0.2812  0.3063
 2355TIP3    H1 7029   5.703   3.895   0.516 -1.1634 -0.0359  1.4169
 2355TIP3    H2 7030   5.673   3.890   0.367  0.7203  1.8712  0.9315
 2356TIP3   OH2 7031   2.270   6.470   4.829 -0.0214  0.3291  0.3150
 2356TIP3    H1 7032   2.194   6.525   4.810 -2.2451 -2.4591  0.4456
 2356TIP3    H2 7033   2.279   6.472   4.924 -0.4575  0.0436  0.3642
 2357TIP3   OH2 7034   3.831   4.820   4.049  0.4177 -0.2029 -0.3728
 2357TIP3    H1 7035   3.736   4.816   4.035  0.4643 -1.8020 -0.4413
 2357TIP3    H2 7036   3.852   4.913   4.044 -1.4217  0.4037  1.5130
 2358TIP3   OH2 7037   5.346   6.627   1.617 -0.0750 -0.2452  0.6793
 2358TIP3    H1 7038   5.390   6.653   1.698 -0.8490  2.7177  0.2742
 2358TIP3    H2 7039   5.263   6.673   1.620 -0.0696  0.0487 -1.8390
 2359TIP3   OH2 7040   6.886   2.444   5.299 -0.0917  0.5517 -0.7299
 2359TIP3    H1 7041   6.927   2.365   5.335 -0.4421  0.1558 -1.1741
 2359TIP3    H2 7042   6.949   2.476   5.234  0.0645  0.6531 -0.5277
 2360TIP3   OH2 7043   5.475   1.479   0.189  0.3356 -0.0353 -0.1106
 2360TIP3    H1 7044   5.522   1.422   0.250  0.8131 -0.2530 -0.6725
 2360TIP3    H2 7045   5.384   1.478   0.220  0.5944 -0.0375  0.6692
 2361TIP3   OH2 7046   0.017   6.354   2.143  0.4768 -0.3952 -0.3063
 2361TIP3    H1 7047   0.110   6.335   2.144  1.1370  2.5104 -0.1693
 2361TIP3    H2 7048   0.011   6.449   2.143 -2.5019 -0.4634  0.7231
 2362TIP3   OH2 7049   2.026   4.993   5.892 -0.1262 -0.4971 -0.8944
 2362TIP3    H1 7050   1.968   5.063   5.862  1.0513  0.4164 -1.0627
 2362TIP3    H2 7051   1.966   4.928   5.930 -1.2986  0.2088 -1.4639
 2363TIP3   OH2 7052   3.302   3.251   3.819  0.6908  0.0263  0.2472
 2363TIP3    H1 7053   3.292   3.168   3.772 -0.9326 -0.0941  0.7611
 2363TIP3    H2 7054   3.348   3.228   3.899 -0.6100 -0.5714  0.8434
 2364TIP3   OH2 7055   4.690   2.311   1.060 -0.1913 -0.3754  0.1474
 2364TIP3    H1 7056   4.756   2.348   1.000 -0.9849 -0.5429 -0.8600
 2364TIP3    H2 7057   4.721   2.335   1.147  0.8875  0.0698 -0.3359
 2365TIP3   OH2 7058   5.302   1.946   4.510 -0.3416 -0.4933 -0.2038
 2365TIP3    H1 7059   5.224   1.990   4.476  0.0531 -1.2880 -2.3026
 2365TIP3    H2 7060   5.334   1.894   4.436  2.3321  0.0177  0.5094
 2366TIP3   OH2 7061   0.871   2.024   1.293 -0.6497  0.3098  0.1516
 2366TIP3    H1 7062   0.789   2.010   1.246  0.0430 -0.0984 -0.9504
 2366TIP3    H2 7063   0.895   1.938   1.326 -0.9911  0.5453  1.0544
 2367TIP3   OH2 7064   2.624   2.029   0.829 -0.1285  0.2203 -0.2587
 2367TIP3    H1 7065   2.676   2.088   0.882  2.2583 -1.3280 -0.7320
 2367TIP3    H2 7066   2.651   2.047   0.739 -1.0204 -0.0649 -0.5928
 2368TIP3   OH2 7067   1.717   3.560   4.750 -0.1095 -0.2879  0.2751
 2368TIP3    H1 7068   1.628   3.588   4.771 -0.4277 -0.6783 -0.5013
 2368TIP3    H2 7069   1.773   3.619   4.799 -0.7974  0.1392  0.5585
 2369TIP3   OH2 7070   6.500   5.911   3.281  0.4822  0.2027  0.0631
 2369TIP3    H1 7071   6.537   5.848   3.343 -0.2302 -0.9910 -0.6825
 2369TIP3    H2 7072   6.486   5.990   3.333  0.9169 -0.4215  1.1601
 2370TIP3   OH2 7073   6.831   4.054   4.694 -0.3459  0.4485  0.2041
 2370TIP3    H1 7074   6.817   4.138   4.737 -0.9499  0.0199  0.8651
 2370TIP3    H2 7075   6.828   3.989   4.765  0.3899 -0.1130 -0.2519
 2371TIP3   OH2 7076   2.627   2.376   5.866 -0.0560  0.0313 -0.0048
 2371TIP3    H1 7077   2.547   2.387   5.814  0.2528  0.4293 -0.3963
 2371TIP3    H2 7078   2.621   2.444   5.933 -0.9310 -1.0923  1.1095
 2372TIP3   OH2 7079   4.497   5.112   1.188  0.3047 -0.2840 -0.2550
 2372TIP3    H1 7080   4.454   5.193   1.214 -1.6843 -0.6802 -2.0428
 2372TIP3    H2 7081   4.571   5.140   1.133  0.0186  0.3231 -0.3307
 2373TIP3   OH2 7082   6.983   3.980   3.917  0.1993 -0.4945 -0.2389
 2373TIP3    H1 7083   7.073   4.011   3.932  0.4244 -0.7353 -1.0176
 2373TIP3    H2 7084   6.937   3.999   3.999  0.3041  1.9628 -0.6546
 2374TIP3   OH2 7085   0.449   3.732   3.384  0.3405 -0.1635 -0.3587
 2374TIP3    H1 7086   0.364   3.776   3.391  1.5997  2.4522 -0.5752
 2374TIP3    H2 7087   0.507   3.796   3.344  2.3098 -2.1105 -0.8512
 2375TIP3   OH2 7088   3.577   3.966   1.297  0.6438 -0.0917 -0.6408
 2375TIP3    H1 7089   3.633   3.994   1.225 -0.2626 -0.1141 -1.3763
 2375TIP3    H2 7090   3.593   3.872   1.306  1.1742  0.0148 -0.4301
 2376TIP3   OH2 7091   5.138   5.309   4.528  0.6905 -0.3893 -0.1596
 2376TIP3    H1 7092   5.132   5.227   4.578 -1.1197  0.4876  1.1949
 2376TIP3    H2 7093   5.088   5.291   4.448 -2.3602  0.1741  1.4516
 2377TIP3   OH2 7094   4.208   0.758   0.574  0.2039  0.2866 -0.4213
 2377TIP3    H1 7095   4.202   0.666   0.549 -1.0808  0.1267  0.3613
 2377TIP3    H2 7096   4.163   0.763   0.658  3.1272  1.0514  1.2414
 2378TIP3   OH2 7097   4.584   6.106   2.077  0.5317  0.2766 -0.5972
 2378TIP3    H1 7098   4.644   6.156   2.133  0.5514  0.6457 -0.9469
 2378TIP3    H2 7099   4.574   6.159   1.998 -0.2685  0.2198 -0.5384
 2379TIP3   OH2 7100   4.130   6.531   3.425 -0.3406 -0.1434  0.2432
 2379TIP3    H1 7101   4.219   6.497   3.431 -0.1278  0.5092  0.9049
 2379TIP3    H2 7102   4.133   6.590   3.349 -0.1121  0.1508  0.4774
 2380TIP3   OH2 7103   0.036   1.878   1.550  0.1289 -0.1424  0.0391
 2380TIP3    H1 7104   0.097   1.824   1.500 -0.7236 -0.9115 -0.2035
 2380TIP3    H2 7105  -0.008   1.816   1.608  0.5764  0.6203  1.2366
 2381TIP3   OH2 7106   0.388   3.327   4.633  0.3372  0.0510  0.1837
 2381TIP3    H1 7107   0.379   3.259   4.700 -1.9279 -0.6641 -0.7479
 2381TIP3    H2 7108   0.316   3.311   4.573  1.2979  1.7109 -1.5217
 2382TIP3   OH2 7109   6.886   0.231   1.943  0.0026  0.2671  0.1843
 2382TIP3    H1 7110   6.888   0.141   1.976 -0.4403 -0.0906 -0.7367
 2382TIP3    H2 7111   6.976   0.262   1.954  0.5042 -0.7885 -0.8165
 2383TIP3   OH2 7112   5.501   3.656   2.509 -0.0830 -0.0820 -0.6911
 2383TIP3    H1 7113   5.475   3.699   2.591 -0.3036 -2.6615  0.7123
 2383TIP3    H2 7114   5.517   3.728   2.448 -0.2691  1.9434  1.4985
 2384TIP3   OH2 7115   3.524   6.137   0.566  0.1383 -0.5116 -0.1975
 2384TIP3    H1 7116   3.604   6.189   0.574 -0.1501 -0.2040  0.9073
 2384TIP3    H2 7117   3.554   6.046   0.559  0.5839 -0.4977  1.2181
 2385TIP3   OH2 7118   4.404   4.961   1.885  0.8060  0.2734  0.2032
 2385TIP3    H1 7119   4.404   4.902   1.961 -0.2036  2.8193  2.3305
 2385TIP3    H2 7120   4.316   4.954   1.849  0.6494  0.5294  0.5264
 2386TIP3   OH2 7121   6.773   1.918   5.538  0.0463  0.0299 -0.2190
 2386TIP3    H1 7122   6.840   1.929   5.471  0.7484  0.5010  0.5388
 2386TIP3    H2 7123   6.812   1.856   5.600 -0.0673  0.5784  0.4087
 2387TIP3   OH2 7124   6.716   1.053   4.407 -0.4960  0.2806  1.0377
 2387TIP3    H1 7125   6.718   0.961   4.432 -0.6966  0.1336  0.5369
 2387TIP3    H2 7126   6.761   1.056   4.322 -1.4854  0.4650  0.5112
 2388TIP3   OH2 7127   0.953   5.089   5.298 -0.5894 -0.2154  0.1877
 2388TIP3    H1 7128   0.865   5.061   5.276 -0.6741 -0.8612  1.3108
 2388TIP3    H2 7129   0.975   5.154   5.231 -1.3531 -1.1056 -0.9584
 2389TIP3   OH2 7130   1.850   0.461   4.630 -0.1541 -0.4265 -0.5822
 2389TIP3    H1 7131   1.855   0.546   4.588 -1.8650 -0.2492 -0.4928
 2389TIP3    H2 7132   1.837   0.399   4.558 -0.9630 -0.3633 -0.4999
 2390TIP3   OH2 7133   3.852   1.799   0.554  0.5917  0.0114 -0.1949
 2390TIP3    H1 7134   3.797   1.872   0.526  1.3251  0.1734 -1.2403
 2390TIP3    H2 7135   3.851   1.739   0.480  2.5543  0.4457 -0.6132
 2391TIP3   OH2 7136   0.728   4.242   4.893 -0.4706  0.0314 -0.3077
 2391TIP3    H1 7137   0.668   4.295   4.944 -0.4952 -0.2556 -0.0388
 2391TIP3    H2 7138   0.680   4.162   4.873 -0.3939  0.0575 -0.6144
 2392TIP3   OH2 7139   1.675   5.475   1.712 -0.2109  0.7098 -0.1685
 2392TIP3    H1 7140   1.753   5.445   1.666 -0.2578  1.1411 -0.5296
 2392TIP3    H2 7141   1.650   5.401   1.768  0.5099  0.6073  0.0221
 2393TIP3   OH2 7142   5.581   5.494   0.720 -0.2688 -0.6814 -0.0091
 2393TIP3    H1 7143   5.567   5.574   0.770  1.8434  0.0607 -0.5080
 2393TIP3    H2 7144   5.503   5.487   0.664 -0.5429  0.9528  0.1269
 2394TIP3   OH2 7145   3.560   5.895   2.524 -0.3623  0.1482  0.2029
 2394TIP3    H1 7146   3.548   5.847   2.442 -1.0237 -0.6265  0.7376
 2394TIP3    H2 7147   3.655   5.902   2.533 -0.2657 -0.5575 -0.1756
 2395TIP3   OH2 7148   4.030   3.547   1.938 -0.3496  0.3280 -0.4824
 2395TIP3    H1 7149   4.098   3.610   1.962  0.3533 -0.9946  1.2005
 2395TIP3    H2 7150   4.058   3.511   1.854  1.6821 -0.9995  0.6894
 2396TIP3   OH2 7151   1.026   0.240   4.785  0.4735 -0.6720 -0.4650
 2396TIP3    H1 7152   1.050   0.154   4.752  0.5672 -1.4584  1.4998
 2396TIP3    H2 7153   0.944   0.226   4.833  2.0105 -0.3753  2.4632
 2397TIP3   OH2 7154   2.704   5.977   0.380  0.2685 -0.2689  0.4103
 2397TIP3    H1 7155   2.669   6.038   0.315 -1.4615  0.4052  1.9024
 2397TIP3    H2 7156   2.666   6.005   0.463  2.6169 -0.9316  1.8217
 2398TIP3   OH2 7157   2.061   6.163   5.328  0.2250  0.1556 -0.1166
 2398TIP3    H1 7158   1.979   6.130   5.365 -0.3700 -0.8049 -2.1441
 2398TIP3    H2 7159   2.074   6.111   5.249  1.4719  2.0224 -1.2052
 2399TIP3   OH2 7160   0.153   5.388   5.852  0.2167  0.1281 -0.1198
 2399TIP3    H1 7161   0.088   5.387   5.923  0.3677  0.7695  0.0344
 2399TIP3    H2 7162   0.108   5.430   5.779 -0.1462 -1.0983 -0.6225
 2400TIP3   OH2 7163   5.027   1.455   5.150 -0.8632  0.2344 -0.5954
 2400TIP3    H1 7164   5.013   1.360   5.149  0.2409 -0.0977  3.0833
 2400TIP3    H2 7165   5.097   1.469   5.086  0.0762 -1.6811 -0.0754
 2401TIP3   OH2 7166   5.533   5.193   4.987  0.4209  0.8476 -0.5339
 2401TIP3    H1 7167   5.488   5.275   4.968 -1.1850  0.2525  0.4806
 2401TIP3    H2 7168   5.571   5.206   5.074  0.9528  0.8291 -0.7609
 2402TIP3   OH2 7169   0.502   6.038   1.972  0.5434 -0.3061  0.4567
 2402TIP3    H1 7170   0.581   6.073   1.930  0.2457 -1.5044 -1.2043
 2402TIP3    H2 7171   0.534   5.967   2.028  0.7437 -0.1270  0.5695
 2403TIP3   OH2 7172   1.253   6.718   5.384  0.1667  0.2028 -0.3380
 2403TIP3    H1 7173   1.225   6.717   5.292  0.1555 -1.6808 -0.3614
 2403TIP3    H2 7174   1.187   6.664   5.429  0.7965  0.1660  0.5691
 2404TIP3   OH2 7175   2.791   2.162   1.514  0.5041 -0.2510  0.0394
 2404TIP3    H1 7176   2.880   2.128   1.527  0.1204 -1.4753 -0.4106
 2404TIP3    H2 7177   2.796   2.253   1.541  1.9816 -0.2187 -0.2836
 2405TIP3   OH2 7178   1.862   3.934   3.317  0.1982 -0.2614  0.1384
 2405TIP3    H1 7179   1.869   3.904   3.226  0.4756  0.9728 -0.2689
 2405TIP3    H2 7180   1.851   3.854   3.368 -1.9881 -0.9058 -1.1676
 2406TIP3   OH2 7181   5.010   2.083   4.077  0.1308  0.2691  0.4985
 2406TIP3    H1 7182   5.068   2.090   4.002 -1.6053 -0.7940 -1.0183
 2406TIP3    H2 7183   5.045   2.146   4.140  2.6200  0.0114 -0.4939
 2407TIP3   OH2 7184   2.625   3.096   4.788  0.0069  0.6992 -0.3314
 2407TIP3    H1 7185   2.651   3.006   4.766 -0.1718  0.4598  0.4275
 2407TIP3    H2 7186   2.588   3.130   4.707  2.5487  1.0241 -1.4763
 2408TIP3   OH2 7187   6.591   2.675   0.851  0.1469  0.3038  0.5078
 2408TIP3    H1 7188   6.637   2.742   0.900  0.4653  0.1894  0.3692
 2408TIP3    H2 7189   6.652   2.649   0.781  0.2737 -0.5572  0.9209
 2409TIP3   OH2 7190   2.028   3.826   4.239  0.0472 -0.3583  0.0503
 2409TIP3    H1 7191   1.960   3.811   4.305 -0.6996  0.0046 -0.6225
 2409TIP3    H2 7192   2.004   3.909   4.198  1.2455  0.0949  0.2031
 2410TIP3   OH2 7193   3.433   3.352   0.024 -0.2332  0.4396  0.2180
 2410TIP3    H1 7194   3.488   3.407   0.079 -1.9038  0.6215  1.8068
 2410TIP3    H2 7195   3.486   3.274   0.008  1.0694  1.2786  0.3623
 2411TIP3   OH2 7196   4.315   6.409   5.433  0.0651 -0.2438 -0.2210
 2411TIP3    H1 7197   4.341   6.338   5.373 -1.3232 -0.8749 -0.1007
 2411TIP3    H2 7198   4.237   6.376   5.477  0.5091  0.6041  1.2535
 2412TIP3   OH2 7199   2.656   1.642   4.883  0.5482  0.0402 -0.4668
 2412TIP3    H1 7200   2.623   1.565   4.930  1.5711  0.4934  1.0627
 2412TIP3    H2 7201   2.669   1.708   4.952  1.4587  0.9587 -1.4848
 2413TIP3   OH2 7202   3.724   3.514   5.413 -0.0753 -0.2994  0.0117
 2413TIP3    H1 7203   3.724   3.431   5.461 -1.2516 -0.6901 -0.6170
 2413TIP3    H2 7204   3.814   3.545   5.418  0.1881 -1.1564  1.0366
 2414TIP3   OH2 7205   4.179   0.500   0.528 -0.7365 -0.3241 -0.2123
 2414TIP3    H1 7206   4.142   0.449   0.456 -1.7154 -0.4119  0.3445
 2414TIP3    H2 7207   4.191   0.437   0.599 -0.7509 -0.0396  0.0477
 2415TIP3   OH2 7208   5.399   6.206   0.120 -0.2938 -0.9692  0.3873
 2415TIP3    H1 7209   5.420   6.204   0.213  0.9081  1.3938  0.2268
 2415TIP3    H2 7210   5.484   6.209   0.076 -0.8603 -0.6773 -0.7266
 2416TIP3   OH2 7211   2.746   5.365   3.127 -0.4304 -0.2114 -0.1805
 2416TIP3    H1 7212   2.706   5.313   3.198 -0.6340  0.7161  0.3944
 2416TIP3    H2 7213   2.784   5.440   3.171  1.0089 -0.5112 -0.8621
 2417TIP3   OH2 7214   3.356   1.134   2.121  0.1559 -0.0574 -0.3615
 2417TIP3    H1 7215   3.445   1.151   2.151 -0.5855 -0.3958  2.2292
 2417TIP3    H2 7216   3.361   1.050   2.075  1.1386 -0.1078 -0.1747
 2418TIP3   OH2 7217   0.566   5.061   0.993  0.0308 -0.1657  0.5716
 2418TIP3    H1 7218   0.511   5.105   1.058  0.9577 -0.8894  1.8916
 2418TIP3    H2 7219   0.527   5.085   0.909 -1.8374 -0.0337  1.4192
 2419TIP3   OH2 7220   0.515   6.512   5.844  0.7233  0.3224  0.5672
 2419TIP3    H1 7221   0.594   6.538   5.796 -1.5079  2.1544 -2.4632
 2419TIP3    H2 7222   0.474   6.594   5.870 -0.4584 -0.5797  1.6768
 2420TIP3   OH2 7223   4.447   3.967   1.566  0.1873  0.0594 -0.1390
 2420TIP3    H1 7224   4.445   3.909   1.490  0.7350  1.1710 -1.0269
 2420TIP3    H2 7225   4.453   3.908   1.641  0.5839 -1.0335 -1.0048
 2421TIP3   OH2 7226   6.186   3.687   4.864 -0.7706 -0.2947  0.2603
 2421TIP3    H1 7227   6.198   3.699   4.959 -0.1607  0.0346  0.1427
 2421TIP3    H2 7228   6.149   3.599   4.856 -0.1576 -0.6076  0.7581
 2422TIP3   OH2 7229   1.559   1.780   3.515  0.5139 -0.6094  0.0660
 2422TIP3    H1 7230   1.481   1.835   3.507 -0.0668 -1.5990 -1.8797
 2422TIP3    H2 7231   1.548   1.734   3.598 -0.5557 -0.1062  0.2269
 2423TIP3   OH2 7232   1.888   3.010   1.831 -0.1819 -0.3167  0.2120
 2423TIP3    H1 7233   1.855   3.100   1.832 -0.0163 -0.2568  0.8215
 2423TIP3    H2 7234   1.871   2.979   1.742  0.7131  0.6765 -0.3256
 2424TIP3   OH2 7235   0.333   4.380   1.232 -0.1441  0.0488  0.6680
 2424TIP3    H1 7236   0.286   4.299   1.211 -1.0061  0.2983  1.5530
 2424TIP3    H2 7237   0.396   4.390   1.161 -0.5008 -1.0288  0.1752
 2425TIP3   OH2 7238   1.797   2.277   2.054  0.5103 -0.0398  0.0415
 2425TIP3    H1 7239   1.710   2.243   2.075  0.7580 -0.0135  1.1882
 2425TIP3    H2 7240   1.781   2.363   2.016 -0.0089 -0.5190 -0.8705
 2426TIP3   OH2 7241   2.771   0.821   0.735 -0.2702  0.3131 -0.0010
 2426TIP3    H1 7242   2.690   0.799   0.781 -0.0081  0.5761  0.5928
 2426TIP3    H2 7243   2.829   0.746   0.753 -1.3988 -1.4585 -3.0447
 2427TIP3   OH2 7244   0.705   3.212   2.268  0.2595 -0.2305  0.2922
 2427TIP3    H1 7245   0.720   3.226   2.361  3.0622  2.6194 -0.4001
 2427TIP3    H2 7246   0.691   3.300   2.232 -0.3257 -1.1972 -2.0493
 2428TIP3   OH2 7247   3.074   3.633   1.232  0.6163 -0.6337  0.0121
 2428TIP3    H1 7248   2.988   3.671   1.211 -0.3701 -2.5270  0.4632
 2428TIP3    H2 7249   3.106   3.600   1.148  1.2028  0.5696 -0.2652
 2429TIP3   OH2 7250   3.025   0.459   2.884  0.0196  0.1819 -0.3351
 2429TIP3    H1 7251   2.998   0.378   2.840 -0.7682  1.0004 -1.3895
 2429TIP3    H2 7252   3.115   0.441   2.913 -1.1438 -2.2410  2.3443
 2430TIP3   OH2 7253   1.616   2.099   4.850  0.4870 -0.2764  0.0813
 2430TIP3    H1 7254   1.610   2.005   4.862  0.7535 -0.1897  1.0360
 2430TIP3    H2 7255   1.668   2.129   4.925 -0.0431  0.6898  0.0839
 2431TIP3   OH2 7256   2.914   4.913   1.340  0.3981  0.6143  0.0146
 2431TIP3    H1 7257   2.886   4.902   1.249  0.9679 -2.4734  0.1005
 2431TIP3    H2 7258   2.902   4.827   1.380  1.0199  1.6406  2.6403
 2432TIP3   OH2 7259   4.160   6.542   3.813  0.2548 -0.0330  0.4509
 2432TIP3    H1 7260   4.163   6.558   3.907 -1.3593  0.2417  0.4981
 2432TIP3    H2 7261   4.217   6.467   3.799  1.3383  0.5665  1.4823
 2433TIP3   OH2 7262   1.697   0.542   0.909  0.2055  0.2780 -0.6344
 2433TIP3    H1 7263   1.678   0.559   1.002  0.1993 -1.7925 -0.2167
 2433TIP3    H2 7264   1.618   0.570   0.863  0.0078  0.8519  0.0346
 2434TIP3   OH2 7265   1.231   3.475   0.655  0.2469  0.3060 -0.0577
 2434TIP3    H1 7266   1.238   3.436   0.568  1.6438 -2.0675  1.0282
 2434TIP3    H2 7267   1.158   3.429   0.696  0.7980  0.0505  0.6536
 2435TIP3   OH2 7268   0.696   6.128   4.247 -0.8236  0.4277 -0.3440
 2435TIP3    H1 7269   0.702   6.085   4.332  0.6674  1.3311  0.0376
 2435TIP3    H2 7270   0.622   6.189   4.256 -0.1521  1.1301  0.6092
 2436TIP3   OH2 7271   1.380   5.842   1.054 -0.2194  0.2391 -0.2447
 2436TIP3    H1 7272   1.375   5.890   0.971 -1.2915 -1.2377 -1.1038
 2436TIP3    H2 7273   1.418   5.903   1.116 -0.6578  1.8517 -1.5095
 2437TIP3   OH2 7274   6.160   5.289   3.622 -0.0202 -0.0394  0.6288
 2437TIP3    H1 7275   6.191   5.265   3.709  0.4697  1.3821  0.8675
 2437TIP3    H2 7276   6.235   5.276   3.565 -0.2256 -0.5917  0.4781
 2438TIP3   OH2 7277   6.258   6.171   3.164 -0.0374  0.0598  0.3726
 2438TIP3    H1 7278   6.320   6.198   3.232 -2.3981  1.9634  1.9684
 2438TIP3    H2 7279   6.292   6.209   3.083  1.4474  0.0797  0.9857
 2439TIP3   OH2 7280   4.179   2.953   4.452  0.5873  0.0342 -0.4481
 2439TIP3    H1 7281   4.095   2.957   4.406 -0.4706 -1.6751  1.2172
 2439TIP3    H2 7282   4.226   3.031   4.422 -2.0501  1.7092 -0.5715
 2440TIP3   OH2 7283   4.656   6.480   3.787  0.6817 -0.4680 -0.1186
 2440TIP3    H1 7284   4.697   6.538   3.723  0.1435  0.7112  0.5577
 2440TIP3    H2 7285   4.681   6.392   3.760  2.2786  0.1163 -0.6729
 2441TIP3   OH2 7286   5.784   4.898   3.304  0.4914  0.5239 -0.6878
 2441TIP3    H1 7287   5.725   4.823   3.296  0.3131  0.6555 -0.6251
 2441TIP3    H2 7288   5.861   4.863   3.348 -0.1849  0.6908  0.7001
 2442TIP3   OH2 7289   3.534   6.658   4.316 -0.4264  0.1438 -0.1170
 2442TIP3    H1 7290   3.582   6.679   4.237 -2.2608  0.3810 -1.2240
 2442TIP3    H2 7291   3.526   6.562   4.315  0.7976  0.0154  0.5766
 2443TIP3   OH2 7292   2.579   6.654   0.609  0.2778  0.2473 -0.3899
 2443TIP3    H1 7293   2.531   6.575   0.585  1.0841 -0.2456 -0.4035
 2443TIP3    H2 7294   2.599   6.644   0.702  2.2448 -0.5966 -0.8589
 2444TIP3   OH2 7295   6.403   4.994   3.710  0.3352 -0.4290 -0.1052
 2444TIP3    H1 7296   6.467   4.977   3.641  0.9949  0.4327  0.2874
 2444TIP3    H2 7297   6.319   4.999   3.664  0.7731  0.1608 -0.8464
 2445TIP3   OH2 7298   0.869   1.634   0.631 -0.9154 -0.9330 -0.1599
 2445TIP3    H1 7299   0.899   1.603   0.546  1.1946 -0.9754  0.5329
 2445TIP3    H2 7300   0.917   1.581   0.694 -1.4811 -0.0550  1.0456
 2446TIP3   OH2 7301   1.416   1.970   4.586  0.3957  0.1910 -0.1073
 2446TIP3    H1 7302   1.428   2.052   4.538  0.7302 -1.1948 -2.6041
 2446TIP3    H2 7303   1.329   1.940   4.561  0.3202 -0.2839  0.6805
 2447TIP3   OH2 7304   4.969   5.585   3.865 -0.3432 -0.1052 -0.4839
 2447TIP3    H1 7305   4.950   5.576   3.772  0.5800 -1.3797 -0.5716
 2447TIP3    H2 7306   5.048   5.532   3.879  0.6388  1.5921  0.6725
 2448TIP3   OH2 7307   2.039   0.555   4.075  0.3585  0.0676 -0.1570
 2448TIP3    H1 7308   1.956   0.524   4.112 -0.0221  0.3897 -0.7315
 2448TIP3    H2 7309   2.045   0.646   4.105 -1.4577  1.3667 -3.3007
 2449TIP3   OH2 7310   3.055   5.912   2.670  0.0456  0.1076 -0.4967
 2449TIP3    H1 7311   3.099   5.874   2.746  1.3265 -0.5692 -1.5286
 2449TIP3    H2 7312   2.989   5.847   2.646  0.6734 -0.4182 -0.8560
 2450TIP3   OH2 7313   4.061   4.727   0.731 -0.3442  0.5896  0.3382
 2450TIP3    H1 7314   3.972   4.694   0.747  0.3162 -0.9495  1.1072
 2450TIP3    H2 7315   4.082   4.779   0.809  0.2142 -0.9072  1.2321
 2451TIP3   OH2 7316   1.147   3.447   0.397  0.5879  0.1478  0.0921
 2451TIP3    H1 7317   1.155   3.379   0.330 -0.0028 -0.2447  0.4091
 2451TIP3    H2 7318   1.059   3.483   0.384  0.0470 -0.6624  1.3157
 2452TIP3   OH2 7319   3.926   4.794   4.997 -0.0479 -0.3649  0.1775
 2452TIP3    H1 7320   4.021   4.784   4.994  0.0744  0.6874  0.2963
 2452TIP3    H2 7321   3.906   4.805   5.090 -0.0797  1.1023  0.0263
 2453TIP3   OH2 7322   7.064   3.418   2.044  0.2170  0.0683 -0.5276
 2453TIP3    H1 7323   7.133   3.476   2.014  1.5542 -0.0482  2.0139
 2453TIP3    H2 7324   7.071   3.340   1.989  1.4002  0.5122 -1.0260
 2454TIP3   OH2 7325   0.636   3.031   4.558  0.0463  0.0031 -0.0048
 2454TIP3    H1 7326   0.615   3.030   4.651 -1.6007 -1.4329 -0.3484
 2454TIP3    H2 7327   0.731   3.033   4.554  0.1954 -1.8086  1.7263
 2455TIP3   OH2 7328   0.643   6.324   3.324 -0.0566 -0.5683  0.3600
 2455TIP3    H1 7329   0.692   6.283   3.252  0.4189  0.7565 -0.1100
 2455TIP3    H2 7330   0.637   6.256   3.391 -1.6702 -2.3069 -1.4312
 2456TIP3   OH2 7331   6.174   3.175   2.067  0.0904 -0.5203  0.4777
 2456TIP3    H1 7332   6.086   3.137   2.062  1.0087 -3.0144  1.7979
 2456TIP3    H2 7333   6.168   3.240   2.137 -1.0581  0.5750 -0.5755
 2457TIP3   OH2 7334   0.463   2.648   2.031  0.1934 -0.1288 -0.0462
 2457TIP3    H1 7335   0.494   2.578   1.973 -3.0935  0.8993 -3.3927
 2457TIP3    H2 7336   0.502   2.728   1.995  0.3504  0.2759  0.9847
 2458TIP3   OH2 7337   4.386   1.426  -0.005  0.0204 -0.0933 -0.3402
 2458TIP3    H1 7338   4.301   1.455   0.029  0.4215  0.4075  0.2469
 2458TIP3    H2 7339   4.450   1.482   0.038  0.6497 -0.3881 -0.8665
 2459TIP3   OH2 7340   6.927   6.045   1.845 -0.9585  0.1639  0.2980
 2459TIP3    H1 7341   6.884   6.093   1.916  0.8103  0.3729  1.2822
 2459TIP3    H2 7342   6.983   6.110   1.802 -0.3851 -0.4559  0.0884
 2460TIP3   OH2 7343   4.080   1.655   1.856  0.5644 -0.0628 -0.0320
 2460TIP3    H1 7344   4.046   1.599   1.786  1.4723  0.3402 -0.8137
 2460TIP3    H2 7345   4.051   1.743   1.833  0.7262  0.0512  0.1975
 2461TIP3   OH2 7346   0.677   0.433   3.055  0.3971  0.2195 -0.1837
 2461TIP3    H1 7347   0.656   0.446   2.962 -1.0770  0.8624  0.2104
 2461TIP3    H2 7348   0.693   0.522   3.088 -1.9651  0.3393  0.7901
 2462TIP3   OH2 7349   3.163   5.112   4.807 -0.2429 -0.0851 -0.3318
 2462TIP3    H1 7350   3.224   5.077   4.741 -0.1778  0.8646 -0.7871
 2462TIP3    H2 7351   3.088   5.052   4.804 -0.5296  0.3096 -1.7463
 2463TIP3   OH2 7352   5.241   6.698   3.745  0.2319 -0.8501 -0.0049
 2463TIP3    H1 7353   5.239   6.603   3.749 -1.9874 -1.0586 -2.9376
 2463TIP3    H2 7354   5.334   6.720   3.739  0.7539 -2.8305  0.1849
 2464TIP3   OH2 7355   0.373   3.918   0.131 -0.5422  0.2791  0.0216
 2464TIP3    H1 7356   0.406   3.945   0.045  0.6907  0.4710  0.5344
 2464TIP3    H2 7357   0.281   3.898   0.116 -0.7330  1.7892 -1.0238
 2465TIP3   OH2 7358   1.812   4.742   4.762 -0.0292  0.2986  0.2969
 2465TIP3    H1 7359   1.769   4.810   4.814  0.3504  1.1195 -0.4398
 2465TIP3    H2 7360   1.761   4.738   4.681  0.7459  0.6353 -0.2060
 2466TIP3   OH2 7361   5.649   6.351   4.117 -0.3293 -0.4425  0.3319
 2466TIP3    H1 7362   5.718   6.342   4.182 -0.4024 -1.5762  0.2767
 2466TIP3    H2 7363   5.695   6.364   4.034 -0.1455 -1.4712  0.2517
 2467TIP3   OH2 7364   1.034   4.093   1.668  0.2640 -0.2503  0.2301
 2467TIP3    H1 7365   0.976   4.065   1.596  1.6391 -0.3710 -0.8805
 2467TIP3    H2 7366   0.995   4.054   1.746 -1.4131  0.0711 -0.3950
 2468TIP3   OH2 7367   1.139   4.805   3.553  0.5034  0.2015  0.3759
 2468TIP3    H1 7368   1.218   4.753   3.541  0.7576  0.2665  1.6285
 2468TIP3    H2 7369   1.160   4.864   3.626 -0.1986  1.2216 -0.2139
 2469TIP3   OH2 7370   3.796   5.755   4.715  0.7107  0.5336  0.1343
 2469TIP3    H1 7371   3.752   5.822   4.663 -0.0135 -0.8891 -1.1545
 2469TIP3    H2 7372   3.743   5.747   4.794 -0.5994 -0.1795 -0.7770
 2470TIP3   OH2 7373   1.371   0.877   2.208  0.1057 -0.4030  0.3109
 2470TIP3    H1 7374   1.408   0.923   2.131 -2.2313 -0.4235 -0.9006
 2470TIP3    H2 7375   1.314   0.942   2.249 -3.2706 -2.0229 -1.4338
 2471TIP3   OH2 7376   1.678   1.470   5.703  0.4596  0.0477  0.1067
 2471TIP3    H1 7377   1.674   1.535   5.773 -0.5858  0.3562 -0.2162
 2471TIP3    H2 7378   1.754   1.415   5.724  1.1449  1.1457  0.5804
 2472TIP3   OH2 7379   0.608   4.065   4.078 -0.7026 -0.2828 -0.3641
 2472TIP3    H1 7380   0.689   4.015   4.095 -0.4908 -0.1915 -1.0932
 2472TIP3    H2 7381   0.622   4.149   4.122 -1.1302 -0.8999  1.0248
 2473TIP3   OH2 7382   1.785   3.683   3.455  0.3965 -0.2169  0.3456
 2473TIP3    H1 7383   1.715   3.694   3.519 -0.6333  0.9518 -0.9136
 2473TIP3    H2 7384   1.800   3.589   3.451 -0.0677 -0.3693  1.6971
 2474TIP3   OH2 7385   0.475   6.327   3.920  0.1816  0.4513  0.4221
 2474TIP3    H1 7386   0.483   6.312   3.826  0.9844 -0.4296  0.6189
 2474TIP3    H2 7387   0.398   6.276   3.946 -0.8890  1.7849  0.0446
 2475TIP3   OH2 7388   5.487   0.876   3.367  0.2452  0.4151  0.1614
 2475TIP3    H1 7389   5.459   0.795   3.410  1.6051  0.1149  0.5193
 2475TIP3    H2 7390   5.577   0.860   3.341  0.3698  1.6355 -0.2381
 2476TIP3   OH2 7391   6.206   4.357   4.938  0.3638  0.1514  0.3912
 2476TIP3    H1 7392   6.178   4.295   5.006  0.1058 -0.8963 -0.6409
 2476TIP3    H2 7393   6.146   4.431   4.947  0.9800  0.5114  1.9615
 2477TIP3   OH2 7394   5.407   0.726   0.086  0.0142  0.1581 -0.0652
 2477TIP3    H1 7395   5.502   0.721   0.092  0.1664 -0.0184 -1.9532
 2477TIP3    H2 7396   5.376   0.713   0.175  1.7138 -0.9770  0.3910
 2478TIP3   OH2 7397   5.771   1.947   5.743  0.0431  0.8509  0.0723
 2478TIP3    H1 7398   5.682   1.984   5.742  0.2790  1.5071  1.4241
 2478TIP3    H2 7399   5.819   2.002   5.805  1.5913  0.9264 -1.1321
 2479TIP3   OH2 7400   6.775   2.799   4.012  0.4882  0.1815  0.6593
 2479TIP3    H1 7401   6.805   2.717   4.051  0.1345 -0.0413  0.4759
 2479TIP3    H2 7402   6.775   2.781   3.918  4.3312  1.6780  0.2047
 2480TIP3   OH2 7403   3.650   3.105   4.317  0.9918 -0.9627  0.4704
 2480TIP3    H1 7404   3.601   3.023   4.310  0.8690 -0.7587 -2.6750
 2480TIP3    H2 7405   3.733   3.088   4.272  0.7720  0.7259 -0.6948
 2481TIP3   OH2 7406   3.549   3.950   5.012  0.1829 -0.1143 -0.3786
 2481TIP3    H1 7407   3.508   4.009   5.075 -1.2839 -0.9952 -0.4592
 2481TIP3    H2 7408   3.481   3.885   4.992  0.7700 -0.1471 -2.5102
 2482TIP3   OH2 7409   0.025   0.832   2.940  0.7276 -0.2844  0.1148
 2482TIP3    H1 7410   0.062   0.749   2.912  2.8547  0.5131  0.3172
 2482TIP3    H2 7411   0.073   0.898   2.889 -0.9023  0.8351 -0.0514
 2483TIP3   OH2 7412   1.809   4.060   4.026  0.0092  0.3364 -0.3596
 2483TIP3    H1 7413   1.844   4.010   3.952  0.6762 -0.3745  0.4093
 2483TIP3    H2 7414   1.714   4.054   4.017 -0.0219  2.4278 -2.5904
 2484TIP3   OH2 7415   6.760   2.898   1.976 -0.1660 -0.2839  0.7874
 2484TIP3    H1 7416   6.693   2.850   1.927 -0.3073  0.3126  0.3818
 2484TIP3    H2 7417   6.829   2.834   1.992  0.4191 -0.2337 -1.2241
 2485TIP3   OH2 7418   4.369   3.340   2.161 -0.0373 -0.3067  0.3251
 2485TIP3    H1 7419   4.286   3.295   2.177  1.1367 -2.2828  1.1889
 2485TIP3    H2 7420   4.413   3.287   2.094  0.4370  0.8889 -0.3589
 2486TIP3   OH2 7421   5.966   4.674   1.373  0.0424  0.0493 -0.3625
 2486TIP3    H1 7422   5.929   4.664   1.461 -0.5612  3.3068 -0.1188
 2486TIP3    H2 7423   5.895   4.650   1.314 -0.7778  1.3035  0.0882
 2487TIP3   OH2 7424   4.638   3.680   4.017 -0.0286  0.2068 -0.4584
 2487TIP3    H1 7425   4.697   3.690   3.941 -0.0135  2.2425 -0.2329
 2487TIP3    H2 7426   4.695   3.694   4.093 -0.0690 -1.7046 -0.0297
 2488TIP3   OH2 7427   4.736   0.423   2.132  0.0034 -0.2699 -0.0214
 2488TIP3    H1 7428   4.814   0.424   2.077 -0.6310  0.1556 -0.9373
 2488TIP3    H2 7429   4.665   0.401   2.072 -0.5217 -1.1340  0.8877
 2489TIP3   OH2 7430   6.845   5.488   2.512  0.9739  0.1797  0.3965
 2489TIP3    H1 7431   6.805   5.575   2.503  0.1792 -0.3065 -0.9993
 2489TIP3    H2 7432   6.852   5.455   2.423  0.5177 -1.5296  0.9600
 2490TIP3   OH2 7433   2.000   6.714   5.114 -0.0856 -0.0311 -0.2675
 2490TIP3    H1 7434   1.932   6.737   5.051  1.5746 -0.5651 -2.3453
 2490TIP3    H2 7435   2.024   6.797   5.155 -0.7121  0.4331 -0.8175
 2491TIP3   OH2 7436   4.418  -0.003   1.600 -0.6986  0.5395  0.2469
 2491TIP3    H1 7437   4.511   0.018   1.609 -0.3511 -0.9284  0.4268
 2491TIP3    H2 7438   4.378   0.076   1.564  0.8338  0.8156 -0.9565
 2492TIP3   OH2 7439   1.612   2.383   0.214  0.4178 -0.7856 -0.0441
 2492TIP3    H1 7440   1.597   2.316   0.148 -0.1698 -0.3976 -0.3064
 2492TIP3    H2 7441   1.706   2.377   0.233  0.5969 -0.8675 -0.9331
 2493TIP3   OH2 7442   3.961   1.775   5.362 -0.2012  0.1389 -0.5775
 2493TIP3    H1 7443   3.910   1.845   5.320  1.4347  0.8358 -1.4961
 2493TIP3    H2 7444   4.052   1.799   5.345  0.4090 -2.3436 -1.1039
 2494TIP3   OH2 7445   4.869   5.643   3.610  0.6520  0.0286  0.5947
 2494TIP3    H1 7446   4.869   5.737   3.631  1.8719  0.1515  0.1532
 2494TIP3    H2 7447   4.777   5.618   3.610 -0.1785  2.2319 -3.6235
 2495TIP3   OH2 7448   6.177   1.978   1.392 -0.1783  0.6618 -0.0406
 2495TIP3    H1 7449   6.248   1.943   1.338  0.1605 -0.5667  1.1462
 2495TIP3    H2 7450   6.221   2.032   1.458 -0.4047  0.5150  0.2343
 2496TIP3   OH2 7451   7.163   5.145   3.589 -0.3382  0.1776  0.2234
 2496TIP3    H1 7452   7.120   5.119   3.507 -0.6900  1.0484  0.1192
 2496TIP3    H2 7453   7.091   5.154   3.652 -0.3575  1.7307  0.0261
 2497TIP3   OH2 7454   3.322   6.518   4.635 -0.3052  0.0630 -0.2446
 2497TIP3    H1 7455   3.320   6.571   4.714 -0.8216 -0.4654  0.1020
 2497TIP3    H2 7456   3.230   6.503   4.613 -0.1728 -1.2381  0.0428
 2498TIP3   OH2 7457   1.576   5.721   5.317  0.4674 -0.4205  0.1186
 2498TIP3    H1 7458   1.669   5.739   5.332 -0.1834  2.6454  1.2878
 2498TIP3    H2 7459   1.557   5.645   5.371  2.1510 -0.6667  0.4126
 2499TIP3   OH2 7460   1.137   2.885   2.029  0.6513  0.4050  0.4073
 2499TIP3    H1 7461   1.089   2.866   1.948 -0.7083  0.6947  1.1161
 2499TIP3    H2 7462   1.086   2.842   2.098  0.8651  1.5466  1.3063
 2500TIP3   OH2 7463   6.162   6.515   4.785  0.3345  0.1205  0.1394
 2500TIP3    H1 7464   6.189   6.530   4.875  2.4513 -0.4935 -0.3285
 2500TIP3    H2 7465   6.227   6.453   4.751  0.7665  1.7935 -2.3679
 2501TIP3   OH2 7466   0.476   0.291   2.342 -0.1763  0.2418  0.0848
 2501TIP3    H1 7467   0.506   0.303   2.252 -1.2339 -0.2482 -0.3456
 2501TIP3    H2 7468   0.406   0.227   2.335  1.5009 -1.9155  1.5832
 2502TIP3   OH2 7469   6.024   5.932   5.258 -0.0072  0.4592  0.6207
 2502TIP3    H1 7470   6.077   5.989   5.314  0.2183  1.8497 -0.9266
 2502TIP3    H2 7471   6.087   5.874   5.217  0.1750  1.1461 -0.1054
 2503TIP3   OH2 7472   2.738   3.900   2.319 -0.6263 -0.3402 -0.2515
 2503TIP3    H1 7473   2.648   3.899   2.350 -0.8170 -0.8006 -0.8102
 2503TIP3    H2 7474   2.790   3.874   2.395 -0.8950  0.5292  0.2539
 2504TIP3   OH2 7475   0.035   5.622   4.378 -0.1671  0.2301  0.0074
 2504TIP3    H1 7476  -0.009   5.701   4.345  1.9932  1.1640 -0.8361
 2504TIP3    H2 7477   0.049   5.639   4.471  1.6848  1.6179 -0.4694
 2505TIP3   OH2 7478   4.877   6.564   2.466  0.9520  0.0591 -0.1363
 2505TIP3    H1 7479   4.898   6.489   2.521 -0.6908  0.1334  0.6424
 2505TIP3    H2 7480   4.897   6.534   2.377  1.6266 -0.8003  0.2822
 2506TIP3   OH2 7481   5.769   5.948   0.683 -0.1221 -0.3535  0.1199
 2506TIP3    H1 7482   5.681   5.976   0.657  0.2784  0.1315 -0.7807
 2506TIP3    H2 7483   5.764   5.852   0.688 -0.7196 -0.3210  0.1669
 2507TIP3   OH2 7484   1.398   5.984   0.816 -0.4617 -0.6549  0.0086
 2507TIP3    H1 7485   1.429   6.064   0.859  0.3853 -0.5641 -0.7507
 2507TIP3    H2 7486   1.328   6.014   0.757  0.0690 -0.4218 -0.5094
 2508TIP3   OH2 7487   5.541   5.390   4.643  0.4217 -0.7708 -0.1460
 2508TIP3    H1 7488   5.528   5.329   4.715 -1.7893 -0.4889 -0.2505
 2508TIP3    H2 7489   5.479   5.461   4.660 -0.0662 -0.6222 -2.2314
 2509TIP3   OH2 7490   3.058   2.209   3.395  0.2838 -0.2816 -0.8336
 2509TIP3    H1 7491   3.139   2.238   3.354  1.1288 -1.1392  0.1837
 2509TIP3    H2 7492   3.086   2.162   3.474 -1.2228 -0.0771 -0.1429
 2510TIP3   OH2 7493   6.375   0.710   0.545  0.1032  0.0826  0.5952
 2510TIP3    H1 7494   6.416   0.642   0.598  0.7310  1.0169  1.3436
 2510TIP3    H2 7495   6.281   0.700   0.562  0.0374 -1.4999 -0.4466
 2511TIP3   OH2 7496   3.679   0.726   0.164  0.0966 -0.0746 -0.2395
 2511TIP3    H1 7497   3.653   0.638   0.137 -0.9265  0.1714 -0.0954
 2511TIP3    H2 7498   3.640   0.784   0.099 -0.4030  0.3557  0.4305
 2512TIP3   OH2 7499   1.816   1.100   1.240 -0.2224 -0.0102 -0.0716
 2512TIP3    H1 7500   1.729   1.071   1.268 -0.5840  1.6781  0.6887
 2512TIP3    H2 7501   1.852   1.026   1.192 -1.7355 -1.0581  0.3514
 2513TIP3   OH2 7502   5.682   1.318   2.793  0.1494 -0.5158 -0.1913
 2513TIP3    H1 7503   5.589   1.334   2.811  0.6355  1.4026  0.9383
 2513TIP3    H2 7504   5.702   1.376   2.720  0.8878  0.6879  0.9146
 2514TIP3   OH2 7505   3.274   2.573   3.538  0.2369  0.4906 -0.4043
 2514TIP3    H1 7506   3.298   2.622   3.460  2.6568 -0.1774 -0.1660
 2514TIP3    H2 7507   3.335   2.602   3.605 -0.3738 -0.5214  0.6366
 2515TIP3   OH2 7508   3.932   2.168   4.893 -0.1716 -0.2511 -0.0650
 2515TIP3    H1 7509   3.995   2.128   4.834  0.8237  0.3941  0.5161
 2515TIP3    H2 7510   3.886   2.095   4.933  2.3922 -0.9768  1.8487
 2516TIP3   OH2 7511   3.956   5.887   0.404 -0.7662  0.0638  0.6336
 2516TIP3    H1 7512   4.012   5.827   0.355  1.7555 -1.0121  4.4144
 2516TIP3    H2 7513   3.958   5.969   0.354  0.8714 -1.1602 -1.4305
 2517TIP3   OH2 7514   2.269   4.956   0.627  0.0134  0.1703 -0.1104
 2517TIP3    H1 7515   2.356   4.921   0.612  0.4435  1.0404  0.2352
 2517TIP3    H2 7516   2.229   4.897   0.691  0.5047 -0.0015  0.0373
 2518TIP3   OH2 7517   5.619   4.208   1.959  0.3022  0.8590  0.1996
 2518TIP3    H1 7518   5.682   4.136   1.956 -0.1749  0.3425  1.5354
 2518TIP3    H2 7519   5.627   4.251   1.874  0.8268 -0.5704 -0.5022
 2519TIP3   OH2 7520   4.350   2.989   5.867 -1.1642 -0.2259 -0.1801
 2519TIP3    H1 7521   4.423   3.050   5.854 -1.3423 -0.1887 -1.0416
 2519TIP3    H2 7522   4.367   2.918   5.806 -1.1462 -0.8797  0.5741
 2520TIP3   OH2 7523   7.007   5.795   1.776 -0.0740  0.4032 -0.0982
 2520TIP3    H1 7524   7.054   5.819   1.696  2.9889  0.9227  1.7280
 2520TIP3    H2 7525   6.990   5.879   1.819 -2.0094  0.1530 -0.2736
 2521TIP3   OH2 7526   1.997   0.244   0.057  0.1073  0.4942  0.0144
 2521TIP3    H1 7527   1.928   0.201   0.107 -1.2116  0.0405 -2.0900
 2521TIP3    H2 7528   2.033   0.174   0.001 -1.1098  1.7238 -2.4421
 2522TIP3   OH2 7529   2.164   3.125   2.378 -0.3093 -0.1509 -0.7217
 2522TIP3    H1 7530   2.217   3.099   2.453  0.6726  1.5850 -0.7502
 2522TIP3    H2 7531   2.222   3.115   2.303 -0.3783  0.6418 -0.8963
 2523TIP3   OH2 7532   5.906   6.346   0.906  0.0932  0.3467 -0.1267
 2523TIP3    H1 7533   5.872   6.354   0.817 -0.7338 -0.4851  0.0984
 2523TIP3    H2 7534   5.943   6.258   0.910 -0.5236  0.1111  0.5640
 2524TIP3   OH2 7535   5.358   4.564   1.220 -0.0856  0.5438  0.2011
 2524TIP3    H1 7536   5.276   4.527   1.250  0.9825  0.1779  2.9996
 2524TIP3    H2 7537   5.375   4.637   1.280  2.0043  0.0924  0.2388
 2525TIP3   OH2 7538   1.932   3.041   4.388 -0.1393  0.3911  0.1602
 2525TIP3    H1 7539   1.938   3.049   4.484  1.9339  0.1931  0.0991
 2525TIP3    H2 7540   1.910   3.129   4.358 -0.4898  0.5310  0.7992
 2526TIP3   OH2 7541   2.083   3.924   0.360 -0.1429  0.4810  0.4552
 2526TIP3    H1 7542   2.130   3.864   0.418 -0.2092 -2.4153 -2.1770
 2526TIP3    H2 7543   1.991   3.900   0.369 -0.2166  0.4348 -0.3006
 2527TIP3   OH2 7544   0.235   2.694   3.729  0.0499  0.1881  0.2943
 2527TIP3    H1 7545   0.167   2.754   3.759  0.4384  0.6159  0.3457
 2527TIP3    H2 7546   0.291   2.681   3.806  2.9063  3.8240 -0.8761
 2528TIP3   OH2 7547   6.754   6.072   2.100 -0.2351 -0.1378  0.0260
 2528TIP3    H1 7548   6.794   6.057   2.186 -0.1148  1.9868  0.4025
 2528TIP3    H2 7549   6.717   5.988   2.075  2.7611 -1.7453  0.5541
 2529TIP3   OH2 7550   5.914   0.058   3.125  0.1236 -0.0304 -0.2915
 2529TIP3    H1 7551   5.939   0.046   3.217  0.8203 -0.6219 -0.5536
 2529TIP3    H2 7552   5.937   0.149   3.106  2.3352 -0.5840 -0.5788
 2530TIP3   OH2 7553   2.822   1.610   0.611 -0.2653  0.3970 -0.6562
 2530TIP3    H1 7554   2.728   1.620   0.592 -0.3586 -0.9332 -1.0201
 2530TIP3    H2 7555   2.826   1.537   0.673  0.6030 -0.3045 -1.5078
 2531TIP3   OH2 7556   1.518   2.533   1.211 -0.0782 -0.0241  0.2659
 2531TIP3    H1 7557   1.501   2.494   1.297 -1.8493 -0.3010 -0.1808
 2531TIP3    H2 7558   1.476   2.474   1.149  3.1675 -1.1452 -1.0836
 2532TIP3   OH2 7559   5.329   5.792   0.708 -0.1647  0.1406  0.0825
 2532TIP3    H1 7560   5.270   5.722   0.735  0.8130 -1.6052 -1.9593
 2532TIP3    H2 7561   5.333   5.784   0.613  1.2573  1.9556 -0.0608
 2533TIP3   OH2 7562   5.097   1.496   3.808 -0.1169 -0.0711 -1.0286
 2533TIP3    H1 7563   5.119   1.579   3.852 -0.3922  0.1368 -1.2834
 2533TIP3    H2 7564   5.137   1.503   3.722  1.6146 -1.0484 -0.3676
 2534TIP3   OH2 7565   6.420   3.869   2.846  0.5308 -0.1403  0.3379
 2534TIP3    H1 7566   6.408   3.793   2.904 -1.2825 -0.3396 -0.2463
 2534TIP3    H2 7567   6.513   3.865   2.821  0.8209 -1.3035  1.4961
 2535TIP3   OH2 7568   1.156   0.451   4.626  0.1459 -0.0973  0.0305
 2535TIP3    H1 7569   1.187   0.408   4.546 -0.7879  0.2096 -0.5130
 2535TIP3    H2 7570   1.116   0.381   4.677  0.3007 -0.2058  0.0035
 2536TIP3   OH2 7571   6.285   3.343   2.712  0.1961  0.6563  0.5266
 2536TIP3    H1 7572   6.350   3.338   2.643 -1.2794  1.7293 -1.0317
 2536TIP3    H2 7573   6.240   3.258   2.710 -0.0125  0.7773 -0.0270
 2537TIP3   OH2 7574   2.304   6.099   5.513 -0.3589 -0.1717 -0.0229
 2537TIP3    H1 7575   2.212   6.094   5.485 -0.6957  1.6518  0.5937
 2537TIP3    H2 7576   2.304   6.167   5.579  1.1923 -1.3091  1.2017
 2538TIP3   OH2 7577   0.473   0.598   4.795  0.0421 -0.2769 -0.5977
 2538TIP3    H1 7578   0.382   0.611   4.820  0.0389 -0.1893 -0.6566
 2538TIP3    H2 7579   0.483   0.646   4.713  0.0235 -0.6492 -0.8185
 2539TIP3   OH2 7580   2.337   5.790   1.025  0.3231  0.3460 -0.4585
 2539TIP3    H1 7581   2.412   5.778   0.966  0.0436  0.7423 -0.9042
 2539TIP3    H2 7582   2.370   5.764   1.111  0.4144 -1.3118 -0.9565
 2540TIP3   OH2 7583   1.105   6.754   5.728  0.2691 -0.3023 -0.7821
 2540TIP3    H1 7584   1.108   6.819   5.798 -1.4394  0.5615 -1.4476
 2540TIP3    H2 7585   1.023   6.773   5.682  0.0165 -2.5677 -1.3640
 2541TIP3   OH2 7586   4.182   0.790   4.945  0.5450 -0.5263 -0.1772
 2541TIP3    H1 7587   4.268   0.768   4.909  0.1947 -1.2604 -0.5919
 2541TIP3    H2 7588   4.194   0.876   4.985  1.6074 -0.8516  0.2434
 2542TIP3   OH2 7589   4.828   4.120   1.613 -0.3378 -0.2680  0.3128
 2542TIP3    H1 7590   4.795   4.124   1.702  0.8984  0.9890  0.7573
 2542TIP3    H2 7591   4.852   4.029   1.599 -3.7477 -1.2453 -0.0107
 2543TIP3   OH2 7592   1.884   1.000   2.272  0.1806 -0.0024 -0.0510
 2543TIP3    H1 7593   1.874   0.990   2.366 -0.7415  1.9236  0.1093
 2543TIP3    H2 7594   1.827   0.933   2.234 -3.2979  2.1603  0.8535
 2544TIP3   OH2 7595   6.394   6.693   0.758  0.1319 -0.1590  0.0584
 2544TIP3    H1 7596   6.353   6.611   0.728  1.0217 -0.5222 -0.1787
 2544TIP3    H2 7597   6.468   6.664   0.812  2.4936  0.4085 -2.6690
 2545TIP3   OH2 7598   4.396   1.039   3.142 -0.2399  0.1828  0.1011
 2545TIP3    H1 7599   4.456   1.043   3.067  0.4959  0.2856  0.6912
 2545TIP3    H2 7600   4.360   1.127   3.149 -0.3719  0.1527 -0.1736
 2546TIP3   OH2 7601   4.495   1.022   2.667  0.5850 -0.0407 -0.3620
 2546TIP3    H1 7602   4.502   1.009   2.761 -0.5194 -2.2770 -0.5347
 2546TIP3    H2 7603   4.403   1.046   2.653  0.7222  0.2058 -0.8793
 2547TIP3   OH2 7604   2.967   4.238   5.823  0.1088  0.1472 -0.0804
 2547TIP3    H1 7605   2.953   4.329   5.795 -4.4823  0.0307  1.0504
 2547TIP3    H2 7606   2.946   4.237   5.916 -1.1286 -2.2237 -0.2971
 2548TIP3   OH2 7607   6.698   4.903   2.901 -0.7747 -0.0973 -0.0170
 2548TIP3    H1 7608   6.689   4.826   2.957 -0.0507 -0.7491 -0.7750
 2548TIP3    H2 7609   6.785   4.938   2.922 -1.5889  1.3033  1.2581
 2549TIP3   OH2 7610   1.820   1.369   4.784  0.0030 -0.5029 -0.5002
 2549TIP3    H1 7611   1.728   1.349   4.800 -0.3653  0.8779 -0.7188
 2549TIP3    H2 7612   1.869   1.305   4.835 -1.0881 -0.5828  0.4627
 2550TIP3   OH2 7613   4.328   2.470   1.413  0.5717  0.0376  0.8325
 2550TIP3    H1 7614   4.267   2.542   1.424 -0.3290 -0.6231  0.2925
 2550TIP3    H2 7615   4.297   2.401   1.472  0.9430 -0.2146  0.7448
 2551TIP3   OH2 7616   0.209   2.701   4.285 -0.1484 -0.4804  0.1043
 2551TIP3    H1 7617   0.215   2.635   4.216  0.9435  1.0986 -1.4014
 2551TIP3    H2 7618   0.263   2.667   4.356 -0.8413 -1.8830  0.0010
 2552TIP3   OH2 7619   6.446   5.109   3.961 -0.3658  0.3299  0.5783
 2552TIP3    H1 7620   6.451   5.085   3.868 -1.6536  1.1247  0.2764
 2552TIP3    H2 7621   6.465   5.203   3.962 -0.8603  0.4322  1.0389
 2553TIP3   OH2 7622   5.248   6.358   5.287 -0.2105 -0.0271 -0.1517
 2553TIP3    H1 7623   5.285   6.299   5.222  1.5519  1.0432 -0.1821
 2553TIP3    H2 7624   5.243   6.443   5.243  1.0610  0.7264  1.0868
 2554TIP3   OH2 7625   6.641   2.509   4.263 -0.1057  0.2341 -0.4128
 2554TIP3    H1 7626   6.730   2.544   4.263  0.5981 -1.4786 -0.3430
 2554TIP3    H2 7627   6.647   2.427   4.214 -1.9982  0.8897 -1.8804
 2555TIP3   OH2 7628   1.726   1.941   1.666  0.0605  0.5874 -0.0135
 2555TIP3    H1 7629   1.806   1.892   1.645  0.4059  0.5759  1.2326
 2555TIP3    H2 7630   1.754   2.032   1.669 -0.5104  0.8853 -1.9789
 2556TIP3   OH2 7631   7.030   0.962   4.605 -0.4761 -0.1200 -0.0849
 2556TIP3    H1 7632   7.070   0.907   4.537 -4.3552  0.6633 -3.3529
 2556TIP3    H2 7633   7.014   0.902   4.677  1.4770 -1.6415 -0.8242
 2557TIP3   OH2 7634   4.955   1.482   0.994 -0.0661 -0.2616  0.3392
 2557TIP3    H1 7635   4.994   1.462   1.080 -1.9578 -1.5858  0.9563
 2557TIP3    H2 7636   4.917   1.570   1.005  1.0070  0.2113  0.3501
 2558TIP3   OH2 7637   6.163   1.770   1.770 -0.2584 -0.1580 -0.1798
 2558TIP3    H1 7638   6.171   1.693   1.826 -1.9644 -0.7826 -0.7454
 2558TIP3    H2 7639   6.251   1.809   1.770  0.5038 -1.7991  0.5180
 2559TIP3   OH2 7640   6.962   5.222   4.325 -0.1487  0.2937  0.0127
 2559TIP3    H1 7641   6.928   5.204   4.413  0.0150 -0.1837 -0.0196
 2559TIP3    H2 7642   6.907   5.169   4.267  0.7316 -0.5972 -0.0276
 2560TIP3   OH2 7643   0.997   2.899   3.373 -0.0226  0.6364 -0.1615
 2560TIP3    H1 7644   1.018   2.970   3.312  1.1583  0.3202 -0.1487
 2560TIP3    H2 7645   0.969   2.945   3.453  0.0130  1.0799 -0.3991
 2561TIP3   OH2 7646   4.935   4.386   1.184 -0.2602  0.6231  0.5914
 2561TIP3    H1 7647   4.870   4.357   1.249 -0.5231  0.0454  0.0830
 2561TIP3    H2 7648   5.017   4.392   1.232  0.4477 -3.5904  0.2469
 2562TIP3   OH2 7649   0.537   1.098   5.094 -0.0094 -0.2081 -0.1959
 2562TIP3    H1 7650   0.618   1.107   5.144 -0.3713 -0.0812  0.3741
 2562TIP3    H2 7651   0.554   1.026   5.033  0.9514  0.6037 -0.9284
 2563TIP3   OH2 7652   2.599   5.011   5.304  0.1825 -0.3233 -0.1722
 2563TIP3    H1 7653   2.589   5.043   5.394 -2.2470  0.6484 -0.7230
 2563TIP3    H2 7654   2.537   4.938   5.298  0.7065 -0.7195 -0.9319
 2564TIP3   OH2 7655   0.184   3.238   4.479  0.1891 -0.3467  0.1487
 2564TIP3    H1 7656   0.198   3.206   4.390  1.7345  0.0858  0.2030
 2564TIP3    H2 7657   0.129   3.171   4.520 -1.4069 -0.0482 -1.4023
 2565TIP3   OH2 7658   7.134   1.238   0.486  0.4277  0.1414  0.0290
 2565TIP3    H1 7659   7.116   1.326   0.520 -1.4774 -0.3647  0.5014
 2565TIP3    H2 7660   7.131   1.182   0.564  0.0947 -0.5278 -0.4548
 2566TIP3   OH2 7661   3.243   5.369   1.388  0.1692 -0.0186  0.2142
 2566TIP3    H1 7662   3.249   5.274   1.390  0.0813 -0.0715 -1.4108
 2566TIP3    H2 7663   3.269   5.394   1.300 -0.0531  1.4516  0.5303
 2567TIP3   OH2 7664   1.363   4.978   4.402  0.5347 -0.1720  0.3827
 2567TIP3    H1 7665   1.450   4.953   4.372  0.5165 -0.3995  0.5150
 2567TIP3    H2 7666   1.315   4.895   4.410  0.9036 -0.2543  2.1515
 2568TIP3   OH2 7667   6.867   2.751   5.456 -0.3716 -0.4341  0.8055
 2568TIP3    H1 7668   6.869   2.666   5.501 -1.3280 -0.7527  0.2742
 2568TIP3    H2 7669   6.840   2.730   5.367 -2.0724  0.5507  1.0271
 2569TIP3   OH2 7670   5.895   6.377   5.381 -0.8025 -0.2084  0.3016
 2569TIP3    H1 7671   5.919   6.448   5.439  0.9247 -0.3713 -0.1355
 2569TIP3    H2 7672   5.963   6.310   5.395 -1.5399 -1.1389 -0.3615
 2570TIP3   OH2 7673   3.091   2.367   5.811  0.8341 -0.0409  0.1498
 2570TIP3    H1 7674   3.016   2.329   5.764  0.7132 -0.3323  0.5738
 2570TIP3    H2 7675   3.116   2.300   5.874  1.1854  0.2293  0.2992
 2571TIP3   OH2 7676   5.920   5.053   5.754 -0.0335  0.0323 -0.5014
 2571TIP3    H1 7677   5.993   5.042   5.693  0.0670 -1.2188 -0.1869
 2571TIP3    H2 7678   5.890   5.143   5.740  1.2732  0.4174 -0.9600
 2572TIP3   OH2 7679   3.170   6.715   3.935 -0.6905  0.2490  0.5092
 2572TIP3    H1 7680   3.091   6.662   3.945 -0.8399  0.7378  1.9975
 2572TIP3    H2 7681   3.139   6.804   3.921 -0.4024  0.2409 -0.2958
 2573TIP3   OH2 7682   0.212   2.993   5.869 -0.5486 -0.0804  0.4714
 2573TIP3    H1 7683   0.202   2.906   5.830 -1.5267  0.4277 -0.4328
 2573TIP3    H2 7684   0.180   2.983   5.959  1.5757 -1.2188  1.1809
 2574TIP3   OH2 7685   1.590   3.259   3.962 -0.0565  0.3198 -0.1608
 2574TIP3    H1 7686   1.654   3.248   3.892  1.0170  1.4051  0.6155
 2574TIP3    H2 7687   1.579   3.171   3.998 -0.9251 -0.3293 -1.9135
 2575TIP3   OH2 7688   4.195   5.894   4.285 -0.2309  1.0344 -1.0073
 2575TIP3    H1 7689   4.197   5.882   4.380  1.4218 -2.3085 -1.3311
 2575TIP3    H2 7690   4.200   5.989   4.272  1.4822  1.5024  2.2163
 2576TIP3   OH2 7691   4.365   5.173   1.564 -0.0928  0.3313  0.5628
 2576TIP3    H1 7692   4.452   5.213   1.556  1.2953 -2.3579  1.1969
 2576TIP3    H2 7693   4.379   5.080   1.545 -2.9265 -0.1410  0.3216
 2577TIP3   OH2 7694   0.097   2.327   4.263  0.0342  0.0711 -0.2100
 2577TIP3    H1 7695   0.089   2.395   4.329 -0.5923 -0.1587 -0.0360
 2577TIP3    H2 7696   0.188   2.298   4.268  1.0737  2.5970 -2.0127
 2578TIP3   OH2 7697   5.566   1.076   1.522  0.2167  0.2979 -0.4800
 2578TIP3    H1 7698   5.522   1.011   1.577 -0.7257  0.6496 -0.7935
 2578TIP3    H2 7699   5.659   1.058   1.532  0.2880  1.8522  3.1467
 2579TIP3   OH2 7700   0.431   2.138   2.510  0.3263  0.0597 -0.1271
 2579TIP3    H1 7701   0.490   2.081   2.461 -0.9282 -0.5759 -0.9385
 2579TIP3    H2 7702   0.412   2.089   2.590 -0.8250 -0.7439 -0.8663
 2580TIP3   OH2 7703   5.584   3.501   1.503  0.0185  0.4621  0.2457
 2580TIP3    H1 7704   5.665   3.548   1.487  0.9029 -1.1221 -0.1372
 2580TIP3    H2 7705   5.580   3.436   1.433 -0.1739 -1.2718  1.7854
 2581TIP3   OH2 7706   0.892   5.604   1.311 -0.0467  0.6090 -0.1196
 2581TIP3    H1 7707   0.948   5.538   1.353  0.5939  1.4795  0.4406
 2581TIP3    H2 7708   0.943   5.685   1.316 -1.5787  1.5716  0.9330
 2582TIP3   OH2 7709   3.921   5.272   5.293  0.3305 -0.8574  0.0825
 2582TIP3    H1 7710   3.911   5.179   5.272 -1.3193 -0.3300 -1.7977
 2582TIP3    H2 7711   3.883   5.318   5.218  0.1192  1.3267  1.4299
 2583TIP3   OH2 7712   3.752   6.399   3.581 -1.2481  0.2828 -0.3273
 2583TIP3    H1 7713   3.811   6.361   3.516  0.7230 -0.6990  1.8902
 2583TIP3    H2 7714   3.801   6.471   3.620 -1.5571 -0.3829  1.3826
 2584TIP3   OH2 7715   3.073   3.722   4.326 -0.2169  0.0333  0.0341
 2584TIP3    H1 7716   3.022   3.803   4.323  0.2923  0.3482 -0.2954
 2584TIP3    H2 7717   3.082   3.703   4.420 -2.3824 -0.9725  0.0892
 2585TIP3   OH2 7718   5.264   2.466   2.100 -0.1309 -0.1916  0.5685
 2585TIP3    H1 7719   5.189   2.428   2.054  0.4450  0.2821 -0.8117
 2585TIP3    H2 7720   5.243   2.455   2.193 -1.9302 -0.0340  0.2202
 2586TIP3   OH2 7721   5.712   6.678   4.247 -0.2188  0.2343  0.8033
 2586TIP3    H1 7722   5.660   6.662   4.169 -0.3264  0.9329  0.7209
 2586TIP3    H2 7723   5.787   6.728   4.216  0.4274 -0.6195  0.9461
 2587TIP3   OH2 7724   6.285   5.409   5.837 -0.1523 -0.1028  0.6959
 2587TIP3    H1 7725   6.212   5.421   5.776 -0.1238  0.6864  0.8123
 2587TIP3    H2 7726   6.315   5.498   5.857  1.4868 -0.4289 -0.1355
 2588TIP3   OH2 7727   5.574   6.016   4.857  0.2299 -0.8580 -0.0550
 2588TIP3    H1 7728   5.578   5.960   4.934 -1.8331 -2.2877 -0.8918
 2588TIP3    H2 7729   5.618   5.965   4.788 -0.1389 -0.7024 -0.4104
 2589TIP3   OH2 7730   0.981   1.550   0.964  0.0333 -0.4387  0.0063
 2589TIP3    H1 7731   1.022   1.521   0.882 -0.6101  0.4101 -0.6394
 2589TIP3    H2 7732   1.049   1.537   1.030  0.6147 -1.0125 -0.6808
 2590TIP3   OH2 7733   5.072   4.765   5.505  1.0306  0.3441  0.0277
 2590TIP3    H1 7734   5.024   4.832   5.554  0.8445 -0.3869  0.8575
 2590TIP3    H2 7735   5.156   4.806   5.485  0.7133  1.0216  0.0492
 2591TIP3   OH2 7736   1.810   6.050   3.712 -0.2149  0.2205 -0.2303
 2591TIP3    H1 7737   1.800   6.044   3.617  0.2794  3.3541 -0.6107
 2591TIP3    H2 7738   1.723   6.073   3.744 -0.4683 -1.2192  0.1498
 2592TIP3   OH2 7739   3.367   0.221   4.966  0.0189 -0.6169 -0.0586
 2592TIP3    H1 7740   3.396   0.276   5.039 -1.4550 -0.5820  0.5421
 2592TIP3    H2 7741   3.272   0.235   4.962 -0.3129 -2.6562 -0.2773
 2593TIP3   OH2 7742   3.289   6.439   4.951  0.3602 -0.5670 -0.3748
 2593TIP3    H1 7743   3.288   6.530   4.921 -0.4110 -0.5533 -0.3517
 2593TIP3    H2 7744   3.218   6.398   4.901  0.6678 -1.1378 -0.3413
 2594TIP3   OH2 7745   0.534   1.753   4.485 -0.4896  0.0931  0.2631
 2594TIP3    H1 7746   0.620   1.742   4.444 -0.9897  0.5589 -0.9617
 2594TIP3    H2 7747   0.474   1.763   4.411 -1.4178  1.0511  1.1252
 2595TIP3   OH2 7748   1.714   2.508   3.843  0.1514 -1.1028  0.0886
 2595TIP3    H1 7749   1.649   2.520   3.774  0.2539 -1.1821 -0.0216
 2595TIP3    H2 7750   1.779   2.449   3.805  1.4585  0.7094 -0.6120
 2596TIP3   OH2 7751   6.958   0.891   1.934  0.6089  0.4870  0.4827
 2596TIP3    H1 7752   7.048   0.884   1.901  0.7402 -0.2398  0.9926
 2596TIP3    H2 7753   6.935   0.803   1.961 -0.9387  0.2604 -1.3418
 2597TIP3   OH2 7754   6.943   4.634   2.171 -0.1577 -0.2489  0.1043
 2597TIP3    H1 7755   6.931   4.720   2.131 -0.0563  0.1798  0.9724
 2597TIP3    H2 7756   6.973   4.578   2.099 -0.6397  0.3273 -0.5635
 2598TIP3   OH2 7757   2.906   6.232   0.224  0.4956  0.2908  0.4481
 2598TIP3    H1 7758   2.969   6.300   0.199 -0.3330  1.5009  1.4548
 2598TIP3    H2 7759   2.835   6.281   0.266 -1.7909 -0.8576 -1.8451
 2599TIP3   OH2 7760   0.599   1.083   5.693  0.5151 -0.4805 -0.0034
 2599TIP3    H1 7761   0.550   1.163   5.675 -1.2935 -1.4329  0.4793
 2599TIP3    H2 7762   0.574   1.058   5.782  0.7111 -1.7940 -0.2940
 2600TIP3   OH2 7763   6.133   3.525   5.811  0.0107  0.3812 -0.2997
 2600TIP3    H1 7764   6.184   3.559   5.884 -2.2358 -0.1032  1.5952
 2600TIP3    H2 7765   6.177   3.444   5.786  1.4906  1.1711 -0.3192
 2601TIP3   OH2 7766   4.733   5.215   3.854 -0.7654  1.2755 -0.7599
 2601TIP3    H1 7767   4.818   5.259   3.851  0.4689 -0.8014  0.9633
 2601TIP3    H2 7768   4.738   5.147   3.787 -0.7906  0.7042 -0.1884
 2602TIP3   OH2 7769   5.439   0.076   1.982  0.2232 -0.2781  0.0282
 2602TIP3    H1 7770   5.481  -0.009   1.996 -0.6507 -0.5997  0.8485
 2602TIP3    H2 7771   5.346   0.055   1.971  0.1338  0.4927 -0.7749
 2603TIP3   OH2 7772   0.337   6.326   2.108  0.1019 -0.2873 -0.5738
 2603TIP3    H1 7773   0.344   6.321   2.203 -1.4260 -0.0731 -0.4260
 2603TIP3    H2 7774   0.300   6.241   2.082 -0.1617 -0.0783 -0.8947
 2604TIP3   OH2 7775   4.289   3.698   4.100 -0.1469 -0.2227 -0.1646
 2604TIP3    H1 7776   4.273   3.754   4.025 -0.6319  1.0430  0.8424
 2604TIP3    H2 7777   4.282   3.756   4.176  0.4296 -1.4316  0.8609
 2605TIP3   OH2 7778   6.967   5.868   4.445  0.2483 -0.1017 -0.2382
 2605TIP3    H1 7779   6.990   5.947   4.493  1.4659  0.5707 -1.8544
 2605TIP3    H2 7780   7.037   5.858   4.380 -1.6496 -0.5654 -2.3272
 2606TIP3   OH2 7781   0.259   1.738   4.628 -0.2960 -0.7024  0.0430
 2606TIP3    H1 7782   0.330   1.680   4.601  1.3555  1.6155 -0.8725
 2606TIP3    H2 7783   0.202   1.743   4.552  1.1604  1.1261 -1.0000
 2607TIP3   OH2 7784   1.313   5.182   1.752 -0.6583  0.4044  0.3778
 2607TIP3    H1 7785   1.298   5.088   1.755  0.5637  0.1691 -0.2126
 2607TIP3    H2 7786   1.278   5.210   1.668  2.3031 -0.2131 -1.1865
 2608TIP3   OH2 7787   2.759   0.473   0.415  0.4670  0.5266  0.0772
 2608TIP3    H1 7788   2.759   0.565   0.440  2.3176  0.3799  0.7616
 2608TIP3    H2 7789   2.798   0.472   0.328  1.6320  0.2993  0.5858
 2609TIP3   OH2 7790   5.869   0.122   5.790 -0.0690  0.3408  0.2849
 2609TIP3    H1 7791   5.963   0.114   5.774 -0.1475  0.6821 -0.4078
 2609TIP3    H2 7792   5.850   0.057   5.857  1.0573  1.7526  2.0676
 2610TIP3   OH2 7793   6.990   1.687   3.229  0.1268  0.1214  0.1490
 2610TIP3    H1 7794   6.978   1.753   3.298  0.4592 -1.9406  2.2978
 2610TIP3    H2 7795   6.907   1.640   3.226  0.5223 -0.5712 -0.0441
 2611TIP3   OH2 7796   1.570   4.891   5.733 -0.2032 -0.2179 -0.1299
 2611TIP3    H1 7797   1.542   4.980   5.755 -0.3746 -0.5211  0.9348
 2611TIP3    H2 7798   1.634   4.903   5.662  0.4195  0.8255  0.5800
 2612TIP3   OH2 7799   3.986   5.940   3.185 -0.4246 -0.0830  0.4274
 2612TIP3    H1 7800   3.949   5.923   3.098  2.5130  4.3299 -2.0070
 2612TIP3    H2 7801   4.060   5.880   3.191  0.2854  0.6027 -0.9042
 2613TIP3   OH2 7802   7.046   6.717   4.107 -0.1778 -0.8696  0.1097
 2613TIP3    H1 7803   7.135   6.747   4.091 -0.7275  0.4906 -0.5624
 2613TIP3    H2 7804   7.010   6.781   4.169 -1.1438 -0.5381 -0.7699
 2614TIP3   OH2 7805   1.409   1.246   2.682 -0.1712 -0.0987  0.1513
 2614TIP3    H1 7806   1.486   1.207   2.640 -0.2825 -0.1668  0.0135
 2614TIP3    H2 7807   1.335   1.198   2.647 -0.4013  0.9784 -0.8784
 2615TIP3   OH2 7808   6.121   5.689   4.733  0.2192  0.1659  0.2045
 2615TIP3    H1 7809   6.189   5.756   4.736 -0.3141  0.7520 -0.4156
 2615TIP3    H2 7810   6.089   5.691   4.642  0.0569 -0.7865  0.2267
 2616TIP3   OH2 7811   0.680   3.576   4.468 -0.0525 -0.3559  0.0771
 2616TIP3    H1 7812   0.674   3.482   4.485 -0.2039 -0.8109 -2.2077
 2616TIP3    H2 7813   0.595   3.599   4.430  0.7692  0.1868 -1.5120
 2617TIP3   OH2 7814   3.821   3.502   1.772 -0.2223  0.0283 -0.1483
 2617TIP3    H1 7815   3.752   3.567   1.761 -0.8553 -0.3684  1.2752
 2617TIP3    H2 7816   3.869   3.530   1.850  0.6648 -0.1976 -0.5977
 2618TIP3   OH2 7817   1.563   2.307   5.471  0.1090  0.2953  0.3708
 2618TIP3    H1 7818   1.652   2.274   5.478  0.0420  0.0004 -0.1527
 2618TIP3    H2 7819   1.560   2.381   5.532  0.7012  0.2880  0.4118
 2619TIP3   OH2 7820   4.003   5.763   4.538  0.2106 -0.3071 -0.1939
 2619TIP3    H1 7821   4.068   5.792   4.602 -0.3462 -0.1024  0.2856
 2619TIP3    H2 7822   3.920   5.768   4.584 -0.1987 -0.1852 -0.9301
 2620TIP3   OH2 7823   1.662   1.569   3.751  0.2076  0.0122 -0.3209
 2620TIP3    H1 7824   1.600   1.505   3.715  0.3887  0.2448 -1.0664
 2620TIP3    H2 7825   1.609   1.623   3.810 -0.2149 -0.0468 -0.6396
 2621TIP3   OH2 7826   5.265   3.532   2.297  0.4735  0.2049 -0.3662
 2621TIP3    H1 7827   5.252   3.611   2.350  0.7923 -0.7346  1.1760
 2621TIP3    H2 7828   5.359   3.515   2.301  0.2048 -1.2738  0.9321
 2622TIP3   OH2 7829   5.556   0.567   3.154  0.2232  0.8056  0.3272
 2622TIP3    H1 7830   5.559   0.621   3.075  2.2153 -1.6573 -1.4247
 2622TIP3    H2 7831   5.465   0.536   3.157  0.5895 -0.8260 -2.3661
 2623TIP3   OH2 7832   3.892   5.450   1.552  0.1556 -0.1146 -0.1517
 2623TIP3    H1 7833   3.889   5.359   1.521  0.1955  0.3785 -1.7150
 2623TIP3    H2 7834   3.818   5.492   1.509  1.6643  1.1971 -1.5866
 2624TIP3   OH2 7835   3.615   4.905   5.464  0.5880 -0.0765  0.1545
 2624TIP3    H1 7836   3.547   4.884   5.528  0.0747  0.8856 -0.0656
 2624TIP3    H2 7837   3.687   4.939   5.516  0.0114  1.1096  0.2136
 2625TIP3   OH2 7838   5.702   4.627   1.795 -0.3931  0.3875  0.6640
 2625TIP3    H1 7839   5.766   4.645   1.864 -1.5364 -1.8223  2.4175
 2625TIP3    H2 7840   5.753   4.588   1.724  0.4153  0.1119  1.3803
 2626TIP3   OH2 7841   0.372   3.343   2.964  0.6132  0.0489  0.2318
 2626TIP3    H1 7842   0.313   3.268   2.972 -0.8938  1.0302 -1.0275
 2626TIP3    H2 7843   0.444   3.324   3.024 -0.9194 -1.2610  1.7610
 2627TIP3   OH2 7844   6.331   3.757   0.342 -0.2037 -0.2631 -0.1581
 2627TIP3    H1 7845   6.383   3.817   0.395 -1.0397  0.1463  0.2263
 2627TIP3    H2 7846   6.392   3.689   0.316  1.0192  1.2583 -1.4563
 2628TIP3   OH2 7847   4.985   1.350   4.777 -0.0737  0.1487 -0.8889
 2628TIP3    H1 7848   4.920   1.317   4.714 -2.9047 -1.2430  2.4322
 2628TIP3    H2 7849   4.934   1.401   4.840  2.6228  1.6965  0.1847
 2629TIP3   OH2 7850   6.575   0.620   1.142 -0.2893 -0.5269 -0.2015
 2629TIP3    H1 7851   6.485   0.600   1.168  0.0354 -2.0816 -0.1660
 2629TIP3    H2 7852   6.629   0.567   1.201  0.6020 -0.8031 -1.2340
 2630TIP3   OH2 7853   5.143   3.741   2.488 -0.3783  0.0573  0.8240
 2630TIP3    H1 7854   5.173   3.686   2.560  1.0594  1.4322  1.3401
 2630TIP3    H2 7855   5.063   3.783   2.521 -0.7820 -0.7505  0.8881
 2631TIP3   OH2 7856   2.817   0.156   0.217  0.2614  0.6003  0.2429
 2631TIP3    H1 7857   2.892   0.116   0.260 -0.5793 -1.3385  0.0203
 2631TIP3    H2 7858   2.856   0.217   0.154  1.7802 -1.3194 -0.8385
 2632TIP3   OH2 7859   0.104   0.412   5.152 -0.0119  0.3738  0.4416
 2632TIP3    H1 7860   0.068   0.332   5.190 -2.8479  1.1432 -0.4126
 2632TIP3    H2 7861   0.198   0.394   5.144 -0.0262 -1.6436  3.1543
 2633TIP3   OH2 7862   0.139   1.474   0.302 -0.2457  0.4421 -0.5328
 2633TIP3    H1 7863   0.169   1.519   0.381 -1.2631  0.1803  0.0326
 2633TIP3    H2 7864   0.073   1.532   0.265 -1.4936 -0.4851  0.1471
 2634TIP3   OH2 7865   4.395   6.105   3.921  0.9203  0.1941  0.4739
 2634TIP3    H1 7866   4.418   6.012   3.926 -1.1122 -0.4156 -0.2373
 2634TIP3    H2 7867   4.466   6.150   3.966  1.0921 -1.8408  2.4054
 2635TIP3   OH2 7868   6.679   0.275   0.718  0.0724  0.1117  0.7011
 2635TIP3    H1 7869   6.665   0.307   0.808 -1.3610  1.1879  0.1345
 2635TIP3    H2 7870   6.770   0.299   0.698 -0.0768  1.2832  1.3248
 2636TIP3   OH2 7871   3.759   5.427   4.666  0.6458 -0.2828  0.3596
 2636TIP3    H1 7872   3.748   5.332   4.655  2.4071 -0.5900  1.0421
 2636TIP3    H2 7873   3.710   5.465   4.593 -2.1426 -1.5834  1.4046
 2637TIP3   OH2 7874   5.928   1.337   5.171 -0.7479  0.0985  0.7001
 2637TIP3    H1 7875   5.852   1.279   5.172 -1.4750  1.0322  1.0449
 2637TIP3    H2 7876   5.945   1.356   5.263 -0.2552  0.0831  0.6113
 2638TIP3   OH2 7877   5.409   6.793   1.395  0.5140 -0.8622 -0.1054
 2638TIP3    H1 7878   5.497   6.820   1.422  0.5780 -0.1601 -0.9546
 2638TIP3    H2 7879   5.359   6.791   1.476  0.4990  1.9527  0.0697
 2639TIP3   OH2 7880   3.787   3.937   0.514  0.3061 -0.9701  0.2665
 2639TIP3    H1 7881   3.827   4.006   0.567  2.0445 -0.3217 -1.7675
 2639TIP3    H2 7882   3.747   3.983   0.441  0.4347 -2.0304 -0.4925
 2640TIP3   OH2 7883   5.935   4.145   5.780  0.0390  0.1807 -0.3450
 2640TIP3    H1 7884   5.860   4.086   5.786  0.0316  0.1772 -0.4781
 2640TIP3    H2 7885   6.004   4.092   5.740 -0.4275  0.7034 -1.8977
 2641TIP3   OH2 7886   0.962   5.279   5.076  0.5022 -0.1668 -0.3611
 2641TIP3    H1 7887   0.964   5.193   5.034  0.2288  0.2594 -1.2768
 2641TIP3    H2 7888   0.880   5.319   5.045  0.3320  0.2051  0.5205
 2642TIP3   OH2 7889   2.174   4.495   4.235  0.0048 -0.1265 -0.4361
 2642TIP3    H1 7890   2.207   4.406   4.249 -0.7026 -1.1859 -4.3731
 2642TIP3    H2 7891   2.081   4.490   4.254  0.4549  0.7310  2.4806
 2643TIP3   OH2 7892   7.215   5.041   2.497 -0.4504 -0.1586 -0.1816
 2643TIP3    H1 7893   7.148   5.098   2.535  2.5123  3.7557 -0.1539
 2643TIP3    H2 7894   7.240   5.085   2.416  0.9653 -2.3979 -1.0407
 2644TIP3   OH2 7895   1.845   1.947   2.364 -0.6952  0.2909 -0.1464
 2644TIP3    H1 7896   1.864   1.869   2.416 -2.4095  0.3075  0.5884
 2644TIP3    H2 7897   1.918   1.954   2.302 -1.2116 -2.7246 -1.2408
 2645TIP3   OH2 7898   1.438   6.454   0.634 -0.4634 -0.0252  0.1805
 2645TIP3    H1 7899   1.378   6.380   0.629  0.3053 -0.8197  1.7756
 2645TIP3    H2 7900   1.498   6.441   0.561 -1.2909 -0.0618 -0.5110
 2646TIP3   OH2 7901   4.443   0.749   0.802  0.0625 -0.2390  0.1311
 2646TIP3    H1 7902   4.447   0.844   0.804  1.4969 -0.1677 -2.4907
 2646TIP3    H2 7903   4.373   0.729   0.739 -1.1443 -0.9906  1.6356
 2647TIP3   OH2 7904   0.940   2.697   1.403 -0.4202  0.1515  0.1528
 2647TIP3    H1 7905   1.026   2.718   1.367 -1.0695  0.3950 -1.3421
 2647TIP3    H2 7906   0.954   2.616   1.453  0.9406  0.9487  1.1187
 2648TIP3   OH2 7907   2.355   5.068   4.639 -0.0533 -0.3148  0.4096
 2648TIP3    H1 7908   2.311   5.145   4.604 -1.3582 -0.1559  2.2453
 2648TIP3    H2 7909   2.444   5.073   4.604 -0.4246  1.4232 -0.3808
 2649TIP3   OH2 7910   2.184   6.131   2.132  0.4635 -0.1677  0.0628
 2649TIP3    H1 7911   2.256   6.070   2.147 -0.4554 -0.8259  2.1911
 2649TIP3    H2 7912   2.199   6.203   2.194 -0.2308  0.1354 -0.1011
 2650TIP3   OH2 7913   6.614   1.731   1.381  0.2171  0.6754 -0.5729
 2650TIP3    H1 7914   6.648   1.732   1.292  2.6914 -0.1949  0.2649
 2650TIP3    H2 7915   6.645   1.649   1.418  0.2846  1.5264  1.4366
 2651TIP3   OH2 7916   5.778   3.852   2.895 -0.0119  0.0360 -0.0392
 2651TIP3    H1 7917   5.787   3.760   2.916 -2.0533 -0.6903 -1.9799
 2651TIP3    H2 7918   5.685   3.871   2.905  0.1071  1.4660 -1.1467
 2652TIP3   OH2 7919   5.778   6.725   0.350 -0.0905 -0.3900  0.4803
 2652TIP3    H1 7920   5.872   6.719   0.369  0.8625 -1.0588 -3.4935
 2652TIP3    H2 7921   5.754   6.813   0.378  1.4037 -0.5761  2.5940
 2653TIP3   OH2 7922   1.567   6.258   2.045 -0.5873  0.7260 -0.6853
 2653TIP3    H1 7923   1.480   6.266   2.086 -0.5171  0.0614 -0.3951
 2653TIP3    H2 7924   1.552   6.279   1.953 -1.3091 -0.5543 -0.8935
 2654TIP3   OH2 7925   1.061   3.896   4.980  0.5357 -0.6861  0.3229
 2654TIP3    H1 7926   1.127   3.868   4.917  1.0853  1.1027  0.0504
 2654TIP3    H2 7927   1.064   3.830   5.050  1.1636 -1.7236 -0.6576
 2655TIP3   OH2 7928   3.453   2.233   1.731 -0.0848  0.0523  0.5085
 2655TIP3    H1 7929   3.485   2.149   1.765  0.0778  0.2165  0.7689
 2655TIP3    H2 7930   3.362   2.217   1.708  0.2850 -0.5412 -0.6383
 2656TIP3   OH2 7931   3.115   2.738   0.045  0.3196  0.2462  0.2675
 2656TIP3    H1 7932   3.136   2.674   0.113 -0.9400  0.2669  0.6947
 2656TIP3    H2 7933   3.077   2.812   0.091 -1.1429  0.0030 -0.4923
 2657TIP3   OH2 7934   4.275   0.234   3.730  0.4539  0.3762 -0.2699
 2657TIP3    H1 7935   4.301   0.324   3.750  0.5772  0.2497  0.1585
 2657TIP3    H2 7936   4.348   0.198   3.679  0.4263  0.5044 -0.3999
 2658TIP3   OH2 7937   1.981   6.075   1.577  0.4369 -0.1982  0.0518
 2658TIP3    H1 7938   1.961   6.148   1.518 -0.4216 -0.9929 -0.6747
 2658TIP3    H2 7939   2.068   6.096   1.611  0.3747  0.9680 -0.4345
 2659TIP3   OH2 7940   1.938   1.559   0.185 -0.0522 -0.4425  0.4724
 2659TIP3    H1 7941   1.997   1.539   0.112  0.4526 -0.3107  0.8333
 2659TIP3    H2 7942   1.997   1.578   0.258 -0.5409  0.2346  0.6963
 2660TIP3   OH2 7943   4.179   5.475   2.878  0.1349  0.6254  0.1805
 2660TIP3    H1 7944   4.153   5.507   2.792 -1.0286 -1.5214 -0.3503
 2660TIP3    H2 7945   4.098   5.473   2.929  0.0537 -1.5670  0.0861
 2661TIP3   OH2 7946   6.030   6.309   1.745  0.7069  0.2779 -0.1311
 2661TIP3    H1 7947   6.003   6.366   1.673  2.2085  0.3357 -0.6983
 2661TIP3    H2 7948   6.096   6.360   1.792 -0.2067  0.2215  1.2844
 2662TIP3   OH2 7949   6.887   3.409   2.451  0.1259 -0.0035 -0.3902
 2662TIP3    H1 7950   6.890   3.496   2.412 -0.3162  0.0842 -0.2331
 2662TIP3    H2 7951   6.937   3.354   2.391  1.1346  0.5224 -0.0669
 2663TIP3   OH2 7952   3.198   5.113   1.914  0.2023 -0.2105 -0.3027
 2663TIP3    H1 7953   3.175   5.024   1.938  0.2891 -0.2453 -0.3510
 2663TIP3    H2 7954   3.237   5.106   1.826 -2.0332  0.1562 -1.3912
 2664TIP3   OH2 7955   5.012   1.010   0.891  0.2403  0.1645 -0.8583
 2664TIP3    H1 7956   4.965   0.935   0.854  0.3130  0.2630 -1.1473
 2664TIP3    H2 7957   5.099   0.976   0.911 -0.5613 -0.6191  1.6680
 2665TIP3   OH2 7958   1.694   5.566   4.466  0.2778 -0.5303  0.7403
 2665TIP3    H1 7959   1.708   5.525   4.381  0.8575  1.5189 -0.2202
 2665TIP3    H2 7960   1.675   5.657   4.446  0.2334 -0.0364  2.8040
 2666TIP3   OH2 7961   3.250   3.952   4.046 -0.3682 -0.2899 -0.8047
 2666TIP3    H1 7962   3.262   3.998   4.129  0.0974  0.7068 -1.4021
 2666TIP3    H2 7963   3.316   3.883   4.047 -0.3877 -0.3011 -0.3319
 2667TIP3   OH2 7964   4.492   3.791   1.811 -0.1654 -0.1328 -0.1852
 2667TIP3    H1 7965   4.418   3.852   1.820  0.5586  0.9360 -1.1474
 2667TIP3    H2 7966   4.510   3.761   1.900 -1.2094  0.2577  0.1698
 2668TIP3   OH2 7967   0.092   2.565   4.825 -0.9183  0.1092  0.6795
 2668TIP3    H1 7968   0.178   2.525   4.808 -0.8171  0.5948  0.0122
 2668TIP3    H2 7969   0.031   2.492   4.826 -0.9488  0.0166 -1.8941
 2669TIP3   OH2 7970   0.022   4.821   3.059  0.2863 -0.0584 -0.2022
 2669TIP3    H1 7971   0.100   4.867   3.028  1.3571 -1.3728  0.4715
 2669TIP3    H2 7972  -0.041   4.831   2.988  1.5676 -0.2185 -1.3988
 2670TIP3   OH2 7973   3.713   1.886   3.045 -0.3511  0.4686 -0.5095
 2670TIP3    H1 7974   3.692   1.979   3.046  0.2881  0.6211 -0.5477
 2670TIP3    H2 7975   3.802   1.882   3.080 -0.4502 -0.1495 -0.3135
 2671TIP3   OH2 7976   0.672   4.806   0.352 -0.5856 -0.0001 -0.0392
 2671TIP3    H1 7977   0.754   4.798   0.401 -1.0526  0.9184  0.9313
 2671TIP3    H2 7978   0.666   4.898   0.329 -2.0428  0.2627  1.2092
 2672TIP3   OH2 7979   3.531   6.781   5.525  0.5637  0.4476  0.1717
 2672TIP3    H1 7980   3.452   6.753   5.572 -0.4039 -0.8408 -2.0730
 2672TIP3    H2 7981   3.594   6.710   5.541  0.6076  0.5228  0.3444
 2673TIP3   OH2 7982   0.310   5.261   2.031  0.2532 -0.6101  0.2844
 2673TIP3    H1 7983   0.370   5.298   2.095  0.3776 -0.5718  0.1449
 2673TIP3    H2 7984   0.232   5.316   2.036  0.3266 -0.5074  0.2855
 2674TIP3   OH2 7985   3.270   1.820   2.623 -0.0922 -0.0046  0.0329
 2674TIP3    H1 7986   3.252   1.731   2.651 -0.2125  0.1487  0.4415
 2674TIP3    H2 7987   3.187   1.852   2.586  0.3166 -0.5468 -1.4489
 2675TIP3   OH2 7988   2.016   0.214   3.326 -0.5405 -0.9748 -0.1208
 2675TIP3    H1 7989   2.046   0.261   3.403  0.7546 -0.5143 -0.8821
 2675TIP3    H2 7990   2.072   0.245   3.255 -3.2520  0.5167 -1.8159
 2676TIP3   OH2 7991   1.372   2.861   2.611 -0.1989 -0.1974  0.1529
 2676TIP3    H1 7992   1.399   2.903   2.692  0.6621 -0.7110  0.1502
 2676TIP3    H2 7993   1.285   2.897   2.592 -1.7894 -2.2062  2.8678
 2677TIP3   OH2 7994   6.220   2.305   0.875  0.0016 -0.0889 -0.2935
 2677TIP3    H1 7995   6.127   2.326   0.876 -0.2483 -0.7860  2.8085
 2677TIP3    H2 7996   6.263   2.388   0.898 -0.3188 -0.6467  2.8542
 2678TIP3   OH2 7997   4.790   0.575   5.600  0.3662  0.1632 -0.1150
 2678TIP3    H1 7998   4.700   0.596   5.574 -0.6904 -2.9477  0.6262
 2678TIP3    H2 7999   4.835   0.555   5.518  0.2769  1.2340 -0.4431
 2679TIP3   OH2 8000   5.965   2.637   4.242  0.2472  0.3769 -0.3412
 2679TIP3    H1 8001   5.929   2.598   4.321  0.6138 -0.1872 -0.4450
 2679TIP3    H2 8002   5.981   2.728   4.266 -0.6987  0.4963 -0.1259
 2680TIP3   OH2 8003   1.279   4.726   4.440  0.3462  0.1521 -0.1479
 2680TIP3    H1 8004   1.343   4.694   4.377  0.3161  0.1930 -0.1988
 2680TIP3    H2 8005   1.197   4.683   4.416 -0.0500  1.4070 -1.1466
 2681TIP3   OH2 8006   5.412   4.924   4.899  0.2150 -0.0091  0.3271
 2681TIP3    H1 8007   5.457   5.007   4.910 -0.7527  0.5671  0.0535
 2681TIP3    H2 8008   5.323   4.940   4.930 -0.5751 -0.3438 -1.6221
 2682TIP3   OH2 8009   3.690   3.571   4.782  0.4132  0.3452  0.4782
 2682TIP3    H1 8010   3.665   3.524   4.702  2.3430 -0.4825  0.3004
 2682TIP3    H2 8011   3.757   3.633   4.753 -0.5665  1.7404  1.0945
 2683TIP3   OH2 8012   2.991   6.565   1.566  0.3351 -0.4940  0.0913
 2683TIP3    H1 8013   2.969   6.641   1.511 -0.2545 -1.7864 -1.5191
 2683TIP3    H2 8014   2.958   6.589   1.653 -1.7109  0.2973 -0.8361
 2684TIP3   OH2 8015   5.917   3.099   1.961 -1.2375  0.0214 -0.0775
 2684TIP3    H1 8016   5.894   3.008   1.944 -0.5607 -0.0083 -0.9481
 2684TIP3    H2 8017   5.834   3.145   1.968 -1.5830 -0.6774  0.4720
 2685TIP3   OH2 8018   2.071   0.590   3.386  0.2456  0.3941  0.2613
 2685TIP3    H1 8019   2.005   0.548   3.330  1.9201 -0.6441 -1.0349
 2685TIP3    H2 8020   2.125   0.518   3.419  1.4134  1.2766  0.3650
 2686TIP3   OH2 8021   2.461   1.817   2.103 -0.0258 -0.0767  0.3934
 2686TIP3    H1 8022   2.505   1.824   2.018  0.4977 -1.5915  0.4960
 2686TIP3    H2 8023   2.377   1.775   2.083 -1.8998  3.3988  0.1045
 2687TIP3   OH2 8024   7.095   1.185   3.265  0.0950 -0.5789  0.4432
 2687TIP3    H1 8025   7.089   1.109   3.208 -1.4372 -1.3375  1.5529
 2687TIP3    H2 8026   7.152   1.158   3.336  0.3342 -0.3389  0.3466
 2688TIP3   OH2 8027   1.290   6.419   5.192  0.1395 -0.2758 -0.4839
 2688TIP3    H1 8028   1.295   6.389   5.283 -0.2030 -1.9717 -0.9818
 2688TIP3    H2 8029   1.221   6.485   5.193 -0.9735 -1.3818  0.2431
 2689TIP3   OH2 8030   3.626   6.098   4.428 -0.7529 -0.2159 -0.7365
 2689TIP3    H1 8031   3.657   6.143   4.349 -1.9526  3.4387  0.6320
 2689TIP3    H2 8032   3.536   6.130   4.441 -1.4171 -2.4427  0.9362
 2690TIP3   OH2 8033   2.309   5.783   4.036  0.0930 -0.2285  0.2210
 2690TIP3    H1 8034   2.277   5.817   3.952 -0.7523 -1.5770 -0.0514
 2690TIP3    H2 8035   2.400   5.813   4.041 -0.6577  2.2710  0.1983
 2691TIP3   OH2 8036   4.426   1.138   0.782 -0.2267 -0.2183  0.2610
 2691TIP3    H1 8037   4.410   1.126   0.875 -1.2972 -0.8633  0.0185
 2691TIP3    H2 8038   4.517   1.113   0.769  0.1372  0.5686  1.2367
 2692TIP3   OH2 8039   2.183   0.310   4.087  0.1780 -0.3544 -0.6101
 2692TIP3    H1 8040   2.262   0.338   4.133  0.0416 -0.9080 -0.0318
 2692TIP3    H2 8041   2.128   0.388   4.084  0.3302 -0.2266 -0.1279
 2693TIP3   OH2 8042   2.133   1.007   1.775  0.2093 -0.6127  0.1344
 2693TIP3    H1 8043   2.070   0.998   1.847  0.3811 -0.5853  0.2891
 2693TIP3    H2 8044   2.082   1.045   1.704 -0.1864 -1.4955 -0.0665
 2694TIP3   OH2 8045   6.961   5.846   3.634 -0.2480 -0.4033 -0.4771
 2694TIP3    H1 8046   7.018   5.922   3.624 -0.9242  0.1335 -0.2799
 2694TIP3    H2 8047   7.004   5.777   3.582  2.1246 -0.8799  1.8749
 2695TIP3   OH2 8048   2.716   4.218   5.522  1.1473  0.9565 -0.2457
 2695TIP3    H1 8049   2.696   4.149   5.459 -2.3866  0.4036  1.2274
 2695TIP3    H2 8050   2.777   4.276   5.476  2.0479 -1.6310 -2.5322
 2696TIP3   OH2 8051   1.163   0.923   5.106  0.4132 -0.1286 -0.0960
 2696TIP3    H1 8052   1.151   0.861   5.034  0.2289  0.7690 -0.8564
 2696TIP3    H2 8053   1.131   1.007   5.072  3.2136  1.0559 -0.1437
 2697TIP3   OH2 8054   3.648   3.777   3.100  0.4487 -0.5236 -0.5189
 2697TIP3    H1 8055   3.668   3.862   3.063  0.2882 -0.3155 -0.1351
 2697TIP3    H2 8056   3.643   3.718   3.025 -1.4317  0.1771 -1.0052
 2698TIP3   OH2 8057   5.800   6.534   1.357  0.9158 -0.3600 -0.1820
 2698TIP3    H1 8058   5.723   6.479   1.373  0.9465 -1.4500 -3.1000
 2698TIP3    H2 8059   5.767   6.609   1.308  1.4086  0.3015  0.4835
 2699TIP3   OH2 8060   3.700   3.142   3.857 -1.0343 -0.1537  0.2292
 2699TIP3    H1 8061   3.722   3.203   3.928 -1.1180  0.8094 -0.5540
 2699TIP3    H2 8062   3.653   3.071   3.901 -1.0274  0.3911  1.1568
 2700TIP3   OH2 8063   7.045   5.097   0.645  0.2036  0.1383  0.1215
 2700TIP3    H1 8064   7.039   5.178   0.594  0.0376 -0.1335 -0.3000
 2700TIP3    H2 8065   7.007   5.030   0.588  2.5887 -0.7374 -0.5697
 2701TIP3   OH2 8066   1.068   5.579   5.473  0.4398  0.5887 -0.2007
 2701TIP3    H1 8067   1.002   5.554   5.538  0.3110 -0.2335 -0.6334
 2701TIP3    H2 8068   1.019   5.628   5.407  0.0825 -0.6918 -0.9255
 2702TIP3   OH2 8069   0.195   3.614   0.373  0.0282 -0.1045  0.4475
 2702TIP3    H1 8070   0.198   3.693   0.319 -0.9010 -1.0766 -1.0935
 2702TIP3    H2 8071   0.210   3.646   0.462  1.5170  1.5563 -0.3405
 2703TIP3   OH2 8072   6.556   5.759   5.784 -0.4328 -0.0791  0.2167
 2703TIP3    H1 8073   6.625   5.713   5.833 -1.2560 -1.2550  0.2963
 2703TIP3    H2 8074   6.541   5.839   5.834 -0.8739 -0.9989  1.6161
 2704TIP3   OH2 8075   3.472   0.735   4.146 -0.1156  0.1472 -0.2202
 2704TIP3    H1 8076   3.463   0.824   4.180 -0.7994 -0.2438  0.6924
 2704TIP3    H2 8077   3.383   0.699   4.151  0.1263 -0.5369 -0.7082
 2705TIP3   OH2 8078   5.181   5.348   1.559  0.2573 -0.3266  0.4097
 2705TIP3    H1 8079   5.198   5.349   1.653 -0.2727 -2.3374  0.5740
 2705TIP3    H2 8080   5.085   5.354   1.553  0.2084 -1.3016  0.0725
 2706TIP3   OH2 8081   1.893   5.472   0.456 -0.1083  0.3994  0.1303
 2706TIP3    H1 8082   1.932   5.559   0.455  2.3895 -0.6263  0.4433
 2706TIP3    H2 8083   1.835   5.472   0.533  0.9435  1.3747  0.9527
 2707TIP3   OH2 8084   3.940   6.234   4.991 -0.2871  0.3557 -0.1302
 2707TIP3    H1 8085   3.932   6.248   5.085  2.2144  0.7387  0.0967
 2707TIP3    H2 8086   3.882   6.299   4.952 -1.0432  0.4727  1.1376
 2708TIP3   OH2 8087   5.916   3.044   0.404 -0.3613  0.0308 -0.1789
 2708TIP3    H1 8088   5.860   3.097   0.347  0.2608  0.8518 -0.0460
 2708TIP3    H2 8089   5.996   3.032   0.354 -0.2807 -0.2884  0.0273
 2709TIP3   OH2 8090   6.695   4.689   4.637  0.0060  0.3622  0.1253
 2709TIP3    H1 8091   6.782   4.680   4.677 -0.5308  0.6500  1.4286
 2709TIP3    H2 8092   6.677   4.604   4.598  0.9021  0.3239 -0.2175
 2710TIP3   OH2 8093   2.663   6.415   3.150 -0.0709 -0.3282  0.2882
 2710TIP3    H1 8094   2.683   6.353   3.080 -2.0250 -2.8249  1.7437
 2710TIP3    H2 8095   2.620   6.489   3.105  1.5448 -0.3461 -1.4103
 2711TIP3   OH2 8096   2.734   6.625   5.503  0.2179  1.1790 -0.0009
 2711TIP3    H1 8097   2.689   6.608   5.585 -3.0436  1.8349 -1.4909
 2711TIP3    H2 8098   2.820   6.660   5.529  0.0657 -0.4130  3.0342
 2712TIP3   OH2 8099   6.112   4.517   4.198 -0.0111 -0.1430 -0.1039
 2712TIP3    H1 8100   6.177   4.452   4.224 -0.3726 -1.1754 -1.6097
 2712TIP3    H2 8101   6.044   4.513   4.265  0.7756 -0.1015  0.7020
 2713TIP3   OH2 8102   5.639   0.809   5.098  0.1167 -0.4228  0.3211
 2713TIP3    H1 8103   5.568   0.745   5.087 -0.7654  0.7217 -1.0666
 2713TIP3    H2 8104   5.598   0.882   5.144  0.6857 -0.1739  0.4401
 2714TIP3   OH2 8105   1.804   1.376   0.336 -0.4423  0.7509 -0.6634
 2714TIP3    H1 8106   1.847   1.437   0.276  2.3677  0.3605  0.7919
 2714TIP3    H2 8107   1.857   1.297   0.333  0.2670  0.9399  2.7161
 2715TIP3   OH2 8108   6.234   1.288   1.366 -0.1336 -0.3858  0.4775
 2715TIP3    H1 8109   6.219   1.232   1.290  0.5519 -1.9345  1.4189
 2715TIP3    H2 8110   6.314   1.336   1.345  1.2619 -2.3596  0.9990
 2716TIP3   OH2 8111   5.759   5.819   1.729 -0.2304  0.0770  0.0505
 2716TIP3    H1 8112   5.787   5.903   1.692  0.0593  0.0170  0.1364
 2716TIP3    H2 8113   5.673   5.838   1.768 -0.0376  0.4017  0.3184
 2717TIP3   OH2 8114   1.932   1.942   0.846 -0.2428 -0.0975  0.3814
 2717TIP3    H1 8115   1.871   1.940   0.772  0.4231  3.0794 -0.4037
 2717TIP3    H2 8116   1.880   1.975   0.919 -0.6960 -2.4927  1.2438
 2718TIP3   OH2 8117   4.905   3.065   2.658 -0.4156 -0.2331  0.9310
 2718TIP3    H1 8118   4.815   3.054   2.688 -1.4069  1.3228 -1.2618
 2718TIP3    H2 8119   4.906   3.148   2.611  1.4912 -1.4363 -1.4303
 2719TIP3   OH2 8120   0.745   0.695   2.833  0.5851  0.1304 -0.2525
 2719TIP3    H1 8121   0.690   0.618   2.819 -0.9045  1.0211  0.4684
 2719TIP3    H2 8122   0.810   0.667   2.897 -0.0272 -0.4833  0.1107
 2720TIP3   OH2 8123   6.782   0.303   2.754  0.1825  0.0797  0.0386
 2720TIP3    H1 8124   6.784   0.220   2.706 -0.7692  0.6497 -1.0590
 2720TIP3    H2 8125   6.804   0.280   2.844  3.7537 -0.8105 -0.9087
 2721TIP3   OH2 8126   5.788   5.298   3.868  0.3431 -0.1122  0.4141
 2721TIP3    H1 8127   5.772   5.388   3.838  1.0334 -0.7008 -1.8787
 2721TIP3    H2 8128   5.785   5.245   3.789 -1.6725 -2.4030  1.8753
 2722TIP3   OH2 8129   0.738   5.497   4.141  0.2148 -0.3165  0.4740
 2722TIP3    H1 8130   0.780   5.443   4.209 -0.0182 -0.4782  0.4904
 2722TIP3    H2 8131   0.774   5.464   4.059 -0.9528 -1.4260  0.3864
 2723TIP3   OH2 8132   6.345   1.532   0.815 -0.2208 -0.0301  0.4925
 2723TIP3    H1 8133   6.390   1.615   0.831  1.6284 -0.8662 -0.0817
 2723TIP3    H2 8134   6.275   1.530   0.880  1.7492  0.5003  2.7861
 2724TIP3   OH2 8135   3.960   0.218   4.855 -0.4715  0.6288 -0.1365
 2724TIP3    H1 8136   3.948   0.212   4.760 -1.1660  0.1623 -0.0271
 2724TIP3    H2 8137   3.874   0.198   4.891 -0.1505  0.5609  0.6037
 2725TIP3   OH2 8138   5.126   4.931   0.098 -0.4737 -0.9563 -0.0758
 2725TIP3    H1 8139   5.159   4.923   0.009 -1.3573 -0.3360 -0.4766
 2725TIP3    H2 8140   5.201   4.963   0.149  0.1851 -1.8218 -0.4690
 2726TIP3   OH2 8141   3.413   5.273   4.682 -0.3388 -0.0413 -0.1426
 2726TIP3    H1 8142   3.464   5.343   4.642 -1.5426  0.1019 -1.5466
 2726TIP3    H2 8143   3.394   5.214   4.609 -1.2674 -0.6233  0.5565
 2727TIP3   OH2 8144   2.851   3.405   4.312 -0.4976 -0.1079  0.5011
 2727TIP3    H1 8145   2.947   3.405   4.309 -0.3620  3.8908 -1.2115
 2727TIP3    H2 8146   2.825   3.334   4.253  1.5950  1.6740 -2.8371
 2728TIP3   OH2 8147   1.077   2.696   0.695 -0.1103 -0.5096  0.1696
 2728TIP3    H1 8148   0.986   2.719   0.717  0.2186  0.0529  1.0289
 2728TIP3    H2 8149   1.127   2.773   0.723  0.5063 -0.3000 -1.4319
 2729TIP3   OH2 8150   3.633   1.266   3.362 -0.0415 -0.2828  0.0131
 2729TIP3    H1 8151   3.727   1.283   3.355 -0.0221 -0.2793  0.2629
 2729TIP3    H2 8152   3.592   1.341   3.318  0.0938 -1.1298 -1.6421
 2730TIP3   OH2 8153   1.400   3.734   2.152  0.2625  0.2800  0.0284
 2730TIP3    H1 8154   1.342   3.659   2.163 -1.3419  1.4578  0.0325
 2730TIP3    H2 8155   1.414   3.739   2.057  1.3900 -0.7230  0.1226
 2731TIP3   OH2 8156   2.857   1.990   1.837  0.8105 -0.5688  0.5381
 2731TIP3    H1 8157   2.874   2.084   1.837  0.7674 -0.5509 -0.3939
 2731TIP3    H2 8158   2.852   1.966   1.930  0.9675  0.3167  0.7815
 2732TIP3   OH2 8159   5.734   1.292   1.122  0.1380 -0.3865  0.1291
 2732TIP3    H1 8160   5.754   1.374   1.168 -1.5967 -0.0877  0.4465
 2732TIP3    H2 8161   5.755   1.224   1.185 -0.1670 -0.0781  0.5752
 2733TIP3   OH2 8162   1.752   3.376   2.407  0.0276 -0.0228  0.3055
 2733TIP3    H1 8163   1.847   3.386   2.400 -0.1443  1.1996 -0.6486
 2733TIP3    H2 8164   1.740   3.309   2.474  1.5228  1.4162  2.1541
 2734TIP3   OH2 8165   1.403   3.134   0.459  0.0378 -0.4523 -0.0149
 2734TIP3    H1 8166   1.441   3.074   0.524  0.7976  0.7840  0.7374
 2734TIP3    H2 8167   1.477   3.160   0.405 -0.3224 -0.3439 -0.4586
 2735TIP3   OH2 8168   0.160   3.708   4.789  0.1764 -0.1909  0.0119
 2735TIP3    H1 8169   0.133   3.698   4.698 -0.0409 -1.0101  0.1540
 2735TIP3    H2 8170   0.079   3.696   4.839  0.4678 -0.7693  0.3554
 2736TIP3   OH2 8171   0.488   4.811   2.590  0.3415 -0.2993 -0.2200
 2736TIP3    H1 8172   0.574   4.838   2.556  0.2963  0.2238  0.0592
 2736TIP3    H2 8173   0.466   4.879   2.654 -0.2283 -0.4926 -0.2052
 2737TIP3   OH2 8174   5.899   2.672   4.510 -0.4427  0.1661  0.6184
 2737TIP3    H1 8175   5.921   2.632   4.594  1.1127 -1.3089 -0.4215
 2737TIP3    H2 8176   5.856   2.755   4.533 -2.0026 -1.1503  2.8620
 2738TIP3   OH2 8177   2.857   4.616   1.746  0.1736  0.6502  0.3672
 2738TIP3    H1 8178   2.878   4.688   1.687 -0.7619  1.0465  0.4937
 2738TIP3    H2 8179   2.764   4.628   1.766  0.0353 -0.5250  0.4859
 2739TIP3   OH2 8180   6.706   5.776   4.579 -0.4766  0.2900 -0.2798
 2739TIP3    H1 8181   6.655   5.837   4.527 -0.8733 -0.7603 -1.1505
 2739TIP3    H2 8182   6.783   5.757   4.525 -1.1367 -1.1974 -0.7443
 2740TIP3   OH2 8183   4.896   2.035   1.157 -0.1013  0.1004 -0.1338
 2740TIP3    H1 8184   4.912   2.126   1.132 -2.6558  0.1683 -1.8236
 2740TIP3    H2 8185   4.913   2.033   1.251  0.8372  2.0798 -0.2011
 2741TIP3   OH2 8186   0.735   3.281   1.402 -0.3156  0.4378  0.1218
 2741TIP3    H1 8187   0.694   3.360   1.437  1.6638  1.8920 -0.6763
 2741TIP3    H2 8188   0.757   3.303   1.312  1.1266 -0.6818  0.1566
 2742TIP3   OH2 8189   0.144   0.865   2.115  0.2338 -0.1516  0.0366
 2742TIP3    H1 8190   0.217   0.808   2.142  0.9936  0.3906 -0.8103
 2742TIP3    H2 8191   0.105   0.819   2.041  0.4207  0.0991 -0.2183
 2743TIP3   OH2 8192   0.598   3.910   0.293  0.2552 -0.4610  0.6164
 2743TIP3    H1 8193   0.537   3.887   0.223  2.3697  0.0323 -1.4987
 2743TIP3    H2 8194   0.613   3.827   0.340 -1.2383 -0.7773  0.5955
 2744TIP3   OH2 8195   6.558   3.786   1.449 -0.3227 -0.0230  0.2013
 2744TIP3    H1 8196   6.616   3.711   1.431 -1.7091 -1.1710  0.3142
 2744TIP3    H2 8197   6.504   3.757   1.522  0.1349  1.7097  1.2755
 2745TIP3   OH2 8198   3.855   5.962   1.226 -0.0162  0.4651 -0.2859
 2745TIP3    H1 8199   3.810   5.917   1.155 -0.0312  0.8311 -0.5144
 2745TIP3    H2 8200   3.802   6.040   1.242 -0.0088  0.3863  0.1253
 2746TIP3   OH2 8201   3.777   5.389   5.085  0.2746  0.8752  0.9110
 2746TIP3    H1 8202   3.770   5.301   5.049 -0.0019  0.1335  2.7157
 2746TIP3    H2 8203   3.751   5.446   5.012  2.0151 -0.3955 -0.8044
 2747TIP3   OH2 8204   6.944   2.297   5.804  0.3216 -0.0981 -0.7446
 2747TIP3    H1 8205   6.859   2.259   5.779  0.1633  0.3987 -0.9656
 2747TIP3    H2 8206   6.983   2.231   5.862 -0.2345 -0.3143 -0.6054
 2748TIP3   OH2 8207   5.012   5.397   0.195  0.0957  0.2248 -0.0550
 2748TIP3    H1 8208   5.103   5.395   0.225  1.1745 -1.3712 -3.0421
 2748TIP3    H2 8209   4.987   5.305   0.192 -2.3263  0.6837  2.3499
 2749TIP3   OH2 8210   6.607   2.760   1.795  0.2763  0.2860  0.0088
 2749TIP3    H1 8211   6.576   2.697   1.861 -0.4784  0.3125 -0.3111
 2749TIP3    H2 8212   6.652   2.706   1.730  0.8447  0.2374  0.4272
 2750TIP3   OH2 8213   1.068   4.163   5.027 -0.6307  0.0559 -0.2611
 2750TIP3    H1 8214   1.127   4.175   4.952 -0.1100  1.1982  0.3059
 2750TIP3    H2 8215   1.038   4.072   5.019  1.2015 -0.5750 -0.5848
 2751TIP3   OH2 8216   0.057   6.129   5.871  0.5213  0.1732  0.5047
 2751TIP3    H1 8217   0.047   6.186   5.948 -1.5611 -0.2735  0.6209
 2751TIP3    H2 8218  -0.023   6.143   5.821  1.5113 -0.1229 -1.2321
 2752TIP3   OH2 8219   2.524   5.475   5.320  0.0865  0.0414 -0.3137
 2752TIP3    H1 8220   2.505   5.566   5.297 -1.7552  0.1137  1.2359
 2752TIP3    H2 8221   2.602   5.480   5.375  0.4385  0.5888 -0.8510
 2753TIP3   OH2 8222   5.005   4.916   0.605 -0.4295  0.2446  0.6068
 2753TIP3    H1 8223   5.088   4.962   0.596  0.0768 -0.1300  2.6885
 2753TIP3    H2 8224   4.998   4.863   0.526  1.6954 -0.2991  0.7249
 2754TIP3   OH2 8225   2.001   4.731   1.216  0.6050  0.0174  0.5513
 2754TIP3    H1 8226   2.009   4.803   1.154 -0.5634 -1.0665 -0.9366
 2754TIP3    H2 8227   1.971   4.772   1.297  1.6736  1.3990  0.2858
 2755TIP3   OH2 8228   2.712   2.822   0.479  0.0069  0.0456  0.2365
 2755TIP3    H1 8229   2.625   2.857   0.496  0.4912  0.7691  1.3212
 2755TIP3    H2 8230   2.716   2.741   0.529 -0.2723 -0.3457 -0.3629
 2756TIP3   OH2 8231   1.902   6.458   1.063 -0.6058  0.1917 -0.6476
 2756TIP3    H1 8232   1.991   6.491   1.073 -0.0334 -1.7303  1.3791
 2756TIP3    H2 8233   1.874   6.488   0.977  0.9633  3.1797 -0.2407
 2757TIP3   OH2 8234   6.510   3.126   4.001 -0.3066 -0.1499 -0.1517
 2757TIP3    H1 8235   6.519   3.091   3.913 -1.2400 -1.5472  0.2821
 2757TIP3    H2 8236   6.559   3.065   4.057 -0.7624  0.0275  0.4482
 2758TIP3   OH2 8237   4.050   3.821   5.245 -0.1983  0.2719  0.0929
 2758TIP3    H1 8238   4.035   3.857   5.332 -2.1812 -0.4327  0.0856
 2758TIP3    H2 8239   4.030   3.728   5.254  0.6611 -0.0287 -0.8828
 2759TIP3   OH2 8240   6.582   5.133   1.762 -0.1637  0.2981  0.3759
 2759TIP3    H1 8241   6.565   5.227   1.755  0.4951  0.4530  0.8209
 2759TIP3    H2 8242   6.549   5.097   1.680  0.8218  1.1068 -0.4018
 2760TIP3   OH2 8243   5.287   0.061   3.118 -0.0771  0.0795 -0.0235
 2760TIP3    H1 8244   5.278   0.139   3.064 -1.6690  0.7489  1.1187
 2760TIP3    H2 8245   5.341   0.089   3.192 -0.8852  0.2021  0.5316
 2761TIP3   OH2 8246   1.525   3.254   1.007  0.2291 -0.7165 -0.4568
 2761TIP3    H1 8247   1.544   3.348   1.003  1.5854 -1.0043 -1.2075
 2761TIP3    H2 8248   1.454   3.241   0.944  0.1900 -0.2310 -0.5159
 2762TIP3   OH2 8249   4.961   6.616   2.153 -0.2639  0.6175  0.3637
 2762TIP3    H1 8250   4.958   6.703   2.194 -0.2974  1.3390 -1.0973
 2762TIP3    H2 8251   5.047   6.612   2.111 -0.2771 -0.0473  0.3961
 2763TIP3   OH2 8252   4.860   1.276   1.212 -0.4916 -0.5789 -0.3211
 2763TIP3    H1 8253   4.817   1.282   1.127 -2.1217 -0.7723  0.4391
 2763TIP3    H2 8254   4.944   1.233   1.194 -0.7378 -0.4877 -1.8322
 2764TIP3   OH2 8255   4.663   4.678   2.348 -0.1751 -0.5587  0.3401
 2764TIP3    H1 8256   4.685   4.636   2.265  0.1753  0.3262 -0.0231
 2764TIP3    H2 8257   4.601   4.618   2.389 -2.6120  0.3087 -1.8405
 2765TIP3   OH2 8258   3.947   0.255   1.505 -0.1682 -0.3500 -0.2673
 2765TIP3    H1 8259   3.930   0.347   1.524  1.6641 -0.0657  0.2616
 2765TIP3    H2 8260   3.974   0.255   1.413 -1.1671 -0.5274 -0.5695
 2766TIP3   OH2 8261   6.413   0.115   3.506  0.2135 -0.3634 -0.2202
 2766TIP3    H1 8262   6.496   0.074   3.532  0.8132  1.3462  0.7313
 2766TIP3    H2 8263   6.391   0.074   3.422  2.0242 -0.8552 -0.4959
 2767TIP3   OH2 8264   4.331   1.455   4.515 -0.1041 -0.1328  0.4298
 2767TIP3    H1 8265   4.417   1.496   4.508 -0.6919  0.9552 -0.7698
 2767TIP3    H2 8266   4.294   1.490   4.596  0.1270  0.2858  0.3565
 2768TIP3   OH2 8267   1.825   0.033   3.191 -0.6231 -0.5508  0.0529
 2768TIP3    H1 8268   1.864  -0.050   3.165  0.4889  0.3054 -1.2031
 2768TIP3    H2 8269   1.890   0.074   3.247 -1.4321 -0.7645  1.1846
 2769TIP3   OH2 8270   2.243   6.081   4.076 -0.4060  0.1588 -0.0402
 2769TIP3    H1 8271   2.221   6.076   3.983 -0.7590  1.0216 -0.0125
 2769TIP3    H2 8272   2.333   6.114   4.078  0.0710 -1.0988 -0.0965
 2770TIP3   OH2 8273   2.537   1.194   1.551 -0.0449 -0.3915  0.4833
 2770TIP3    H1 8274   2.514   1.119   1.497 -2.9132 -0.2625  1.3454
 2770TIP3    H2 8275   2.539   1.161   1.641  0.6696  0.1855  0.6977
 2771TIP3   OH2 8276   6.270   2.605   0.853  0.1143  0.1432  0.2408
 2771TIP3    H1 8277   6.352   2.648   0.874  0.3342 -0.3918  0.5224
 2771TIP3    H2 8278   6.203   2.657   0.898 -0.0170  2.0491 -2.0203
 2772TIP3   OH2 8279   6.909   0.526   2.823 -0.0189 -0.3759  0.6266
 2772TIP3    H1 8280   6.878   0.446   2.781  1.2912  0.4622 -2.1747
 2772TIP3    H2 8281   6.960   0.496   2.898 -0.5084 -2.0863  0.3185
 2773TIP3   OH2 8282   5.957   3.221   1.589 -0.3503 -0.2291 -0.2656
 2773TIP3    H1 8283   5.893   3.238   1.657 -1.6527  0.6730 -1.6436
 2773TIP3    H2 8284   5.905   3.207   1.510  1.0980 -1.3800 -1.0685
 2774TIP3   OH2 8285   1.985   4.751   4.389 -0.1745  0.3448  0.2663
 2774TIP3    H1 8286   2.026   4.740   4.475 -1.4630 -0.5853  0.8132
 2774TIP3    H2 8287   1.963   4.662   4.362 -3.0308  0.8035  0.6803
 2775TIP3   OH2 8288   4.106   5.023   0.065  0.5187  0.1379 -0.0003
 2775TIP3    H1 8289   4.039   4.960   0.092  0.0024  1.0548  0.9531
 2775TIP3    H2 8290   4.184   4.997   0.114  0.1790  0.4829  0.7543
 2776TIP3   OH2 8291   1.316   2.222   0.241 -0.0330 -0.1997 -0.0078
 2776TIP3    H1 8292   1.223   2.243   0.246 -0.2193 -1.0213  0.1587
 2776TIP3    H2 8293   1.347   2.267   0.162 -0.2909  1.0612  0.5868
 2777TIP3   OH2 8294   5.907   6.378   0.645 -0.4280  0.2896 -0.2005
 2777TIP3    H1 8295   5.881   6.469   0.660 -0.6725  0.0851  0.6740
 2777TIP3    H2 8296   5.862   6.354   0.564  0.6813  1.3389 -1.1809
 2778TIP3   OH2 8297   4.785   5.259   2.597  0.0791  0.8429  0.1425
 2778TIP3    H1 8298   4.786   5.267   2.693 -1.4059  1.3750  0.1409
 2778TIP3    H2 8299   4.801   5.348   2.566  0.0151  0.7717 -0.0949
 2779TIP3   OH2 8300   4.671   2.139   0.232 -0.0537  0.9763  0.0564
 2779TIP3    H1 8301   4.578   2.114   0.229 -0.0646  0.6626  1.9723
 2779TIP3    H2 8302   4.714   2.067   0.278  0.8053  2.0154  0.9419
 2780TIP3   OH2 8303   2.735   2.073   0.329  0.2090  0.0913  0.1451
 2780TIP3    H1 8304   2.685   2.047   0.252  1.3506  1.2842 -1.0615
 2780TIP3    H2 8305   2.810   2.013   0.330 -0.0044 -0.1689  0.5533
 2781TIP3   OH2 8306   1.971   3.796   5.608  0.4450  0.0318 -0.1451
 2781TIP3    H1 8307   1.896   3.739   5.625 -0.3628  1.0770 -0.0809
 2781TIP3    H2 8308   1.933   3.871   5.563  1.5409  0.3610 -0.5373
 2782TIP3   OH2 8309   6.623   5.925   5.379  0.0254 -0.6227  0.3243
 2782TIP3    H1 8310   6.624   5.830   5.363 -1.3059 -0.5865 -0.0615
 2782TIP3    H2 8311   6.715   5.950   5.373  0.2666 -1.6668 -1.0312
 2783TIP3   OH2 8312   3.271   2.357   1.176 -0.3405  0.1266  0.4568
 2783TIP3    H1 8313   3.236   2.275   1.208 -1.4436  0.3652 -0.0858
 2783TIP3    H2 8314   3.356   2.367   1.220  0.2529 -1.7505 -0.1861
 2784TIP3   OH2 8315   6.066   5.629   1.859  0.2235 -0.2713  0.2323
 2784TIP3    H1 8316   5.989   5.579   1.888 -0.9279  0.1322 -1.9187
 2784TIP3    H2 8317   6.125   5.563   1.822  0.0043 -0.3540  0.0312
 2785TIP3   OH2 8318   1.371   2.631   0.642 -0.1145 -0.2067 -0.1765
 2785TIP3    H1 8319   1.298   2.692   0.632  0.6385  0.4731 -1.9611
 2785TIP3    H2 8320   1.378   2.588   0.557  0.9242 -1.0088  0.2942
 2786TIP3   OH2 8321   2.353   6.788   1.322  0.3304 -0.2487  0.3203
 2786TIP3    H1 8322   2.341   6.837   1.241  1.5979  0.6731  0.6461
 2786TIP3    H2 8323   2.286   6.719   1.320  1.1112 -1.0405 -2.1005
 2787TIP3   OH2 8324   0.030   4.132   4.863 -0.4660  0.4664 -0.3373
 2787TIP3    H1 8325   0.028   4.228   4.867  0.4142  0.4673  1.8808
 2787TIP3    H2 8326  -0.047   4.105   4.913  0.0286  0.0518  0.2145
 2788TIP3   OH2 8327   6.170   0.128   0.847 -0.9446  0.1646 -0.0508
 2788TIP3    H1 8328   6.198   0.063   0.912  0.2560 -0.5217 -1.2088
 2788TIP3    H2 8329   6.102   0.178   0.892  0.3371  0.1936  1.9870
 2789TIP3   OH2 8330   1.808   2.141   3.178 -0.5130  0.1101  0.1503
 2789TIP3    H1 8331   1.812   2.184   3.263  1.8521 -0.1535  0.2342
 2789TIP3    H2 8332   1.828   2.210   3.115  2.8222 -0.6036  0.2530
 2790TIP3   OH2 8333   2.318   2.960   1.862 -0.3284  0.5309  0.0635
 2790TIP3    H1 8334   2.235   2.968   1.816  0.3948 -0.7081 -1.5795
 2790TIP3    H2 8335   2.380   3.010   1.808  0.2658  0.2699  0.4832
 2791TIP3   OH2 8336   2.834   6.312   5.362 -0.4243  1.0312 -0.7777
 2791TIP3    H1 8337   2.768   6.310   5.431  0.7054  4.5436  0.6381
 2791TIP3    H2 8338   2.916   6.293   5.406  0.2873  3.1138 -1.0988
 2792TIP3   OH2 8339   2.713   1.484   3.598 -0.8158  0.4200  0.0008
 2792TIP3    H1 8340   2.636   1.530   3.565 -1.3293 -1.9759 -2.4387
 2792TIP3    H2 8341   2.770   1.475   3.522 -0.0141 -1.4775  0.7615
 2793TIP3   OH2 8342   2.231   1.562   2.130 -0.0345 -0.1153 -0.2750
 2793TIP3    H1 8343   2.277   1.538   2.211 -0.6684  1.5181  0.6192
 2793TIP3    H2 8344   2.300   1.567   2.064  1.5421  3.8860  1.3727
 2794TIP3   OH2 8345   5.965   5.261   0.169 -0.4510  0.4740 -0.2351
 2794TIP3    H1 8346   5.998   5.219   0.089  0.1801  0.8632 -0.1801
 2794TIP3    H2 8347   5.991   5.353   0.161 -1.1210  0.6930  0.0268
 2795TIP3   OH2 8348   4.171   6.088   2.030  0.9514 -0.1363 -0.2780
 2795TIP3    H1 8349   4.117   6.135   2.093  0.5804 -0.5170 -0.3097
 2795TIP3    H2 8350   4.244   6.147   2.012  0.6263  0.3154 -0.1190
 2796TIP3   OH2 8351   6.913   5.697   0.073 -0.3263  0.0544 -0.0831
 2796TIP3    H1 8352   6.982   5.747   0.117 -1.3193 -0.0706  1.6901
 2796TIP3    H2 8353   6.863   5.763   0.026 -0.4259  0.4687  0.5960
 2797TIP3   OH2 8354   5.170   3.269   2.674  0.1806 -0.6589 -0.3029
 2797TIP3    H1 8355   5.262   3.272   2.701 -0.1301 -1.0916  0.9138
 2797TIP3    H2 8356   5.126   3.225   2.747 -0.6069 -2.8161 -1.9953
 2798TIP3   OH2 8357   3.428   5.349   1.612  0.1551  0.3748 -0.0185
 2798TIP3    H1 8358   3.400   5.338   1.521 -1.0409 -0.6987  0.4383
 2798TIP3    H2 8359   3.471   5.266   1.633 -0.3363  0.2799  0.6353
 2799TIP3   OH2 8360   0.968   4.558   0.195  0.3509  0.6168  0.7006
 2799TIP3    H1 8361   0.957   4.585   0.104 -0.1560 -0.3385  0.4677
 2799TIP3    H2 8362   1.050   4.508   0.195 -0.3553 -0.5967  0.4573
 2800TIP3   OH2 8363   1.867   2.902   4.149 -0.4150  0.2140  0.0467
 2800TIP3    H1 8364   1.877   2.941   4.236 -2.4010  0.8581  0.0345
 2800TIP3    H2 8365   1.773   2.905   4.132 -0.1690 -0.7818 -1.7376
 2801TIP3   OH2 8366   6.000   0.391   1.578  0.4224  0.1702 -0.0375
 2801TIP3    H1 8367   6.020   0.348   1.495 -1.9539  0.9977 -1.1283
 2801TIP3    H2 8368   6.006   0.485   1.559 -1.2572  0.3916  0.3539
 2802TIP3   OH2 8369   2.356   3.775   4.315  0.5946  0.0563  0.1330
 2802TIP3    H1 8370   2.282   3.763   4.374 -2.2143  0.7650 -2.8990
 2802TIP3    H2 8371   2.343   3.862   4.277  2.3827 -0.2444 -1.3421
 2803TIP3   OH2 8372   1.450   5.043   1.077  0.0170  0.2793 -0.4189
 2803TIP3    H1 8373   1.469   5.100   1.003 -1.3526  0.0728 -0.9750
 2803TIP3    H2 8374   1.366   5.076   1.111 -1.2369 -1.8158 -1.2503
 2804TIP3   OH2 8375   4.975   3.293   1.460  0.3497 -0.4347 -0.2385
 2804TIP3    H1 8376   4.966   3.207   1.419  1.2166  0.1827 -1.7897
 2804TIP3    H2 8377   5.059   3.327   1.427 -0.5730  1.5419 -0.7029
 2805TIP3   OH2 8378   2.459   6.790   5.288  0.2319 -0.4542 -0.1964
 2805TIP3    H1 8379   2.496   6.702   5.279 -0.0038 -0.4829 -0.9629
 2805TIP3    H2 8380   2.374   6.775   5.330 -0.2599 -0.7124 -1.2408
 2806TIP3   OH2 8381   3.421   6.194   2.540  0.7313 -0.0872 -0.1716
 2806TIP3    H1 8382   3.434   6.110   2.496  0.8436 -0.0320 -0.2430
 2806TIP3    H2 8383   3.443   6.260   2.474  1.3593 -0.0115  0.1064
 2807TIP3   OH2 8384   4.945   0.380   5.686  0.5822 -0.4577  0.0353
 2807TIP3    H1 8385   5.034   0.406   5.660  0.8651  0.0038  1.4021
 2807TIP3    H2 8386   4.889   0.450   5.653  0.7663 -0.5393 -0.4649
 2808TIP3   OH2 8387   5.862   1.603   2.943 -0.1293  0.2324  0.4316
 2808TIP3    H1 8388   5.882   1.694   2.920 -2.7273  0.5682 -0.8316
 2808TIP3    H2 8389   5.948   1.561   2.951  1.1415  2.0521 -2.1264
 2809TIP3   OH2 8390   6.977   5.824   1.238 -0.1928  0.2914 -0.0336
 2809TIP3    H1 8391   6.948   5.908   1.203 -0.7215  0.8312  1.6571
 2809TIP3    H2 8392   6.896   5.776   1.256  0.0746  0.0490  0.5278
 2810TIP3   OH2 8393   7.167   1.557   1.157 -0.0755 -0.2182  0.2485
 2810TIP3    H1 8394   7.172   1.650   1.176  0.1397 -0.7578  3.1973
 2810TIP3    H2 8395   7.258   1.530   1.142 -0.0865 -0.0802 -0.0873
 2811TIP3   OH2 8396   4.408   5.095   3.135 -0.3141  0.0280 -0.3320
 2811TIP3    H1 8397   4.455   5.148   3.070  2.5909 -0.0131  1.5462
 2811TIP3    H2 8398   4.317   5.123   3.128  0.3213  1.8263 -2.6390
 2812TIP3   OH2 8399   3.937   2.959   3.968  0.0536 -0.1565 -0.3749
 2812TIP3    H1 8400   4.022   2.951   3.926 -0.7877  0.3989 -2.3300
 2812TIP3    H2 8401   3.889   3.022   3.913 -1.1881  0.5413  1.3980
 2813TIP3   OH2 8402   3.265   2.011   3.926  0.1001  1.0083 -0.2723
 2813TIP3    H1 8403   3.278   1.923   3.891 -0.4707  1.0828 -0.6944
 2813TIP3    H2 8404   3.212   1.997   4.005  2.2344  0.7441  1.2135
 2814TIP3   OH2 8405   6.681   2.890   3.533  0.6983  0.3938 -0.1000
 2814TIP3    H1 8406   6.750   2.828   3.509 -0.0994 -0.5134 -0.0858
 2814TIP3    H2 8407   6.621   2.889   3.459  2.5501  4.0778 -1.9120
 2815TIP3   OH2 8408   0.238   0.529   5.774 -0.7046 -0.1021 -0.2304
 2815TIP3    H1 8409   0.291   0.608   5.758  0.6816 -1.0642 -0.5515
 2815TIP3    H2 8410   0.246   0.513   5.868 -0.7713 -0.0183 -0.2101
 2816TIP3   OH2 8411   5.350   1.173   5.052  0.0167  0.4148  0.1334
 2816TIP3    H1 8412   5.424   1.197   4.996 -0.4033  0.6698 -0.3250
 2816TIP3    H2 8413   5.280   1.153   4.990 -0.2521  0.0296  0.5622
 2817TIP3   OH2 8414   1.369   5.687   0.596 -0.5965  0.3103 -0.5458
 2817TIP3    H1 8415   1.350   5.660   0.686  0.0730 -1.2951 -0.8461
 2817TIP3    H2 8416   1.294   5.654   0.546 -0.2399 -0.1612 -0.7789
 2818TIP3   OH2 8417   0.495   1.977   0.191  0.6600  0.0428  0.0328
 2818TIP3    H1 8418   0.543   2.060   0.197  1.6691 -0.5085 -0.2428
 2818TIP3    H2 8419   0.522   1.939   0.108 -1.7654  0.6088 -1.1174
 2819TIP3   OH2 8420   2.468   6.636   3.740  0.1943  0.3472 -0.1404
 2819TIP3    H1 8421   2.464   6.648   3.835  0.6897  3.1838 -0.4015
 2819TIP3    H2 8422   2.554   6.594   3.725 -0.2889 -1.0080  0.6758
 2820TIP3   OH2 8423   6.342   5.684   4.390  0.0899  0.1254 -0.3216
 2820TIP3    H1 8424   6.308   5.650   4.307  0.3529 -2.0975  0.4234
 2820TIP3    H2 8425   6.266   5.686   4.448  0.4962 -1.6145  0.3423
 2821TIP3   OH2 8426   4.275   1.937   2.088  0.7924 -0.0787 -0.0497
 2821TIP3    H1 8427   4.351   1.960   2.033  1.6847 -1.6849  0.4511
 2821TIP3    H2 8428   4.256   1.846   2.066 -0.2448 -0.0669  0.7194
 2822TIP3   OH2 8429   2.879   3.235   5.282  0.3909  0.7180  0.2743
 2822TIP3    H1 8430   2.878   3.282   5.366  2.7538  1.2559  0.0942
 2822TIP3    H2 8431   2.925   3.153   5.302 -1.5936 -0.5104  0.0689
 2823TIP3   OH2 8432   3.815   4.867   0.076  0.4296  0.4079 -0.5203
 2823TIP3    H1 8433   3.721   4.862   0.092  0.3729 -0.8728 -1.1146
 2823TIP3    H2 8434   3.854   4.861   0.164 -0.0437  1.3907 -0.2381
 2824TIP3   OH2 8435   3.588   4.404   5.338  0.2576 -0.5823 -0.0852
 2824TIP3    H1 8436   3.630   4.320   5.321 -1.0201 -1.4985  1.0616
 2824TIP3    H2 8437   3.494   4.386   5.330 -0.0956  0.4484  1.3741
 2825TIP3   OH2 8438   4.782   1.117   0.596 -0.1380 -0.6712 -0.0790
 2825TIP3    H1 8439   4.867   1.136   0.636 -0.1819 -0.8995  0.1211
 2825TIP3    H2 8440   4.803   1.067   0.518 -0.1210 -1.2069  0.2667
 2826TIP3   OH2 8441   1.316   0.438   0.415  0.0831  0.1208 -0.2643
 2826TIP3    H1 8442   1.321   0.434   0.319  0.0021 -0.1220 -0.2608
 2826TIP3    H2 8443   1.402   0.468   0.443  0.6005 -1.2033 -0.3418
 2827TIP3   OH2 8444   0.131   0.237   5.471  0.4705  0.5017 -0.1893
 2827TIP3    H1 8445   0.212   0.244   5.521  0.1641  2.3268  0.1232
 2827TIP3    H2 8446   0.077   0.310   5.502 -1.1881 -0.4959 -0.5952
 2828TIP3   OH2 8447   4.004   0.930   3.936 -0.4255 -0.6302 -0.0125
 2828TIP3    H1 8448   4.049   0.885   3.864  0.0228  1.0410 -0.8361
 2828TIP3    H2 8449   3.914   0.938   3.905 -0.1323  0.5057 -0.6457
 2829TIP3   OH2 8450   6.870   4.338   2.354 -0.0910  0.1514  0.6256
 2829TIP3    H1 8451   6.821   4.259   2.329  0.7213  0.2961 -1.6174
 2829TIP3    H2 8452   6.961   4.308   2.363  0.1445  0.7359  0.2338
 2830TIP3   OH2 8453   5.174   2.501   1.667 -0.3435 -0.2047 -0.2616
 2830TIP3    H1 8454   5.143   2.571   1.724  0.5667  0.0022 -0.0129
 2830TIP3    H2 8455   5.096   2.472   1.621 -1.0224 -0.0988  0.7901
 2831TIP3   OH2 8456   3.327   2.637   4.045 -0.0165 -0.2984  0.4213
 2831TIP3    H1 8457   3.420   2.626   4.026 -0.1352 -0.9773  0.2080
 2831TIP3    H2 8458   3.303   2.558   4.093 -0.1628  0.5309  1.7499
 2832TIP3   OH2 8459   1.440   5.420   4.760  0.6597  0.0678 -0.4027
 2832TIP3    H1 8460   1.367   5.432   4.821  0.4359 -0.5261 -0.5391
 2832TIP3    H2 8461   1.482   5.339   4.789  0.8829  0.0740 -0.7034
 2833TIP3   OH2 8462   0.634   0.269   3.258  0.1782 -0.3094 -0.1202
 2833TIP3    H1 8463   0.636   0.306   3.170 -0.1462  0.1264  0.0496
 2833TIP3    H2 8464   0.727   0.266   3.284  0.2638 -0.2979 -0.4175
 2834TIP3   OH2 8465   3.596   3.103   1.039 -0.2228 -0.6982 -0.3676
 2834TIP3    H1 8466   3.669   3.165   1.040 -0.0748 -0.8759  0.1576
 2834TIP3    H2 8467   3.589   3.077   0.947  1.6788 -2.1803 -0.1587
 2835TIP3   OH2 8468   3.201   4.529   0.108  0.1940  0.0528 -0.1056
 2835TIP3    H1 8469   3.247   4.513   0.191  0.4640 -0.4704 -0.3439
 2835TIP3    H2 8470   3.236   4.462   0.050  0.1252  0.5220 -0.6894
 2836TIP3   OH2 8471   0.790   1.071   0.053 -0.6833  0.0022 -0.4441
 2836TIP3    H1 8472   0.863   1.062   0.114  0.0533  0.5977 -1.2138
 2836TIP3    H2 8473   0.713   1.055   0.106  0.0253 -1.2085  0.2772
 2837TIP3   OH2 8474   4.071   3.016   2.899  0.2331 -0.0850  0.5478
 2837TIP3    H1 8475   4.039   3.018   2.808  0.4722  0.3476  0.4706
 2837TIP3    H2 8476   4.163   2.992   2.891  0.0995 -0.6800  0.7255
 2838TIP3   OH2 8477   4.376   0.525   0.188  0.4496  0.1551  0.2194
 2838TIP3    H1 8478   4.418   0.564   0.111  0.4655  2.3127  1.2369
 2838TIP3    H2 8479   4.297   0.484   0.155  0.3383  1.2467 -0.9235
 2839TIP3   OH2 8480   6.300   1.776   5.139  0.3991 -0.3359 -0.2901
 2839TIP3    H1 8481   6.382   1.825   5.136  0.6906 -0.7754  0.2901
 2839TIP3    H2 8482   6.232   1.843   5.136  0.7698  0.0345 -0.7757
 2840TIP3   OH2 8483   0.700   4.527   0.270  0.2284 -0.4373 -0.3545
 2840TIP3    H1 8484   0.794   4.524   0.253  0.4177  0.3664  0.4420
 2840TIP3    H2 8485   0.685   4.615   0.306 -1.3430  0.6045 -3.2775
 2841TIP3   OH2 8486   5.936   4.539   1.983 -0.3643 -0.1898  0.3149
 2841TIP3    H1 8487   5.952   4.447   2.000 -1.1027 -0.3316  0.2632
 2841TIP3    H2 8488   6.023   4.577   1.974 -0.0533 -1.1186 -0.9049
 2842TIP3   OH2 8489   4.838   1.792   1.049  0.2787 -0.3083 -0.5904
 2842TIP3    H1 8490   4.751   1.822   1.022 -0.5793 -0.0119  2.1860
 2842TIP3    H2 8491   4.872   1.863   1.102  0.8322 -1.7091  0.9982
 2843TIP3   OH2 8492   0.184   3.494   3.822 -0.0406  0.2656  0.2496
 2843TIP3    H1 8493   0.208   3.582   3.794 -1.2326  0.5645  0.1199
 2843TIP3    H2 8494   0.122   3.463   3.757 -0.8672 -0.0427  1.1507
 2844TIP3   OH2 8495   5.408   1.129   3.439 -0.9653  0.2048 -0.1233
 2844TIP3    H1 8496   5.416   1.036   3.420  0.4230 -0.4423  2.9952
 2844TIP3    H2 8497   5.493   1.166   3.413 -1.7109  0.7603 -1.8755
 2845TIP3   OH2 8498   3.398   6.037   1.978 -0.2328  0.1843 -0.1486
 2845TIP3    H1 8499   3.345   6.047   1.899  0.9492  0.2642 -0.9410
 2845TIP3    H2 8500   3.406   5.943   1.991  0.4326  0.1565 -0.7216
 2846TIP3   OH2 8501   6.395   1.972   3.021  0.1880  0.2397 -0.2903
 2846TIP3    H1 8502   6.426   1.968   3.111 -0.5339  1.0336 -0.0021
 2846TIP3    H2 8503   6.415   1.885   2.985 -0.5333 -0.4627  0.9546
 2847TIP3   OH2 8504   1.882   6.316   0.366 -0.2111  0.7125  0.7577
 2847TIP3    H1 8505   1.918   6.229   0.351 -1.0653  0.2281  1.4215
 2847TIP3    H2 8506   1.947   6.376   0.328  0.1298 -0.2226 -0.1894
 2848TIP3   OH2 8507   6.830   5.661   3.810  0.2727  0.1355  0.6617
 2848TIP3    H1 8508   6.770   5.637   3.739  0.1855  2.0732  0.0477
 2848TIP3    H2 8509   6.874   5.740   3.779  1.1013  0.3436  2.2835
 2849TIP3   OH2 8510   6.172   3.149   3.202  0.5608  0.2232 -0.1193
 2849TIP3    H1 8511   6.202   3.091   3.132 -1.3995 -1.7370  0.5416
 2849TIP3    H2 8512   6.104   3.202   3.161 -1.5678 -1.8633  0.4612
 2850TIP3   OH2 8513   1.623   5.684   1.546  0.1371  0.0309  0.2482
 2850TIP3    H1 8514   1.633   5.613   1.609 -0.2566 -1.1013 -0.9220
 2850TIP3    H2 8515   1.684   5.751   1.575  0.1684 -0.5876  1.6560
 2851TIP3   OH2 8516   3.455   1.418   2.855  0.3935  0.1961  0.0617
 2851TIP3    H1 8517   3.434   1.326   2.841 -1.8860  0.1455  2.8742
 2851TIP3    H2 8518   3.546   1.427   2.824  0.2079 -2.5976 -1.5929
 2852TIP3   OH2 8519   2.056   2.177   1.153 -0.1060  0.5273 -0.2377
 2852TIP3    H1 8520   2.008   2.248   1.195 -1.3683 -1.7470  2.4524
 2852TIP3    H2 8521   1.991   2.134   1.098  0.0287  0.0187  0.0038
 2853TIP3   OH2 8522   6.806   4.538   0.503 -0.3351  0.2565 -0.0719
 2853TIP3    H1 8523   6.760   4.526   0.421 -0.9474  0.5694  0.2228
 2853TIP3    H2 8524   6.893   4.570   0.478  0.0550 -1.1774 -0.6744
 2854TIP3   OH2 8525   4.541   4.941   2.333 -0.2475  0.4247  0.0478
 2854TIP3    H1 8526   4.598   4.984   2.269 -0.7593 -1.7009 -1.9861
 2854TIP3    H2 8527   4.575   4.851   2.338 -0.2996  0.4809  2.7633
 2855TIP3   OH2 8528   0.765   1.436   3.231  0.3965  0.1137  0.7518
 2855TIP3    H1 8529   0.846   1.384   3.230  0.5988  0.4111 -0.3361
 2855TIP3    H2 8530   0.750   1.458   3.139 -1.1379 -0.2409  0.8926
 2856TIP3   OH2 8531   0.606   3.775   3.694 -0.0613  0.0480  0.0725
 2856TIP3    H1 8532   0.651   3.858   3.708 -0.8378  0.5686 -0.4570
 2856TIP3    H2 8533   0.602   3.735   3.781 -2.8294  2.2030  1.0580
 2857TIP3   OH2 8534   2.824   2.438   1.500 -0.7685 -0.7661 -0.0477
 2857TIP3    H1 8535   2.830   2.514   1.557  0.5113  0.3940 -1.6499
 2857TIP3    H2 8536   2.751   2.457   1.442 -0.1179 -0.4992 -0.7908
 2858TIP3   OH2 8537   2.754   5.943   5.549 -0.1077  0.0229  0.0249
 2858TIP3    H1 8538   2.792   5.872   5.496  1.0975  0.2689  0.5372
 2858TIP3    H2 8539   2.668   5.909   5.576  0.6765 -1.5008  0.7395
 2859TIP3   OH2 8540   7.209   1.209   5.570  0.4343 -0.2791  0.2214
 2859TIP3    H1 8541   7.187   1.294   5.609  3.7362  0.1732  1.3892
 2859TIP3    H2 8542   7.260   1.164   5.637  2.2956 -1.4557 -1.8400
 2860TIP3   OH2 8543   5.664   0.315   0.574 -0.1004  0.0471 -0.4184
 2860TIP3    H1 8544   5.629   0.242   0.522  0.5164 -1.7842  1.6020
 2860TIP3    H2 8545   5.737   0.277   0.623  1.9306  2.6664 -1.1469
 2861TIP3   OH2 8546   0.217   3.615   5.823  0.0978 -0.2477 -0.5169
 2861TIP3    H1 8547   0.163   3.557   5.876 -1.3619  0.8787 -0.7076
 2861TIP3    H2 8548   0.179   3.702   5.836  0.3472  0.2283 -2.5365
 2862TIP3   OH2 8549   6.276   0.976   4.304  0.2594 -0.0916 -0.1349
 2862TIP3    H1 8550   6.316   0.890   4.316 -0.4738 -1.1666 -4.0508
 2862TIP3    H2 8551   6.350   1.037   4.301  1.0010 -0.9651  0.1173
 2863TIP3   OH2 8552   1.730   0.591   0.105  0.0969  0.3665 -0.3837
 2863TIP3    H1 8553   1.800   0.610   0.168 -1.3040 -1.2246  1.8298
 2863TIP3    H2 8554   1.772   0.537   0.038  1.3207  0.8234 -0.0092
 2864TIP3   OH2 8555   1.575   2.326   1.394 -0.1253 -0.9448  0.2492
 2864TIP3    H1 8556   1.670   2.319   1.393  0.2117  2.1600 -1.6709
 2864TIP3    H2 8557   1.551   2.314   1.486  2.2608 -0.6069  0.9762
 2865TIP3   OH2 8558   2.930   1.779   1.668  0.0732  0.4609  0.5028
 2865TIP3    H1 8559   2.911   1.841   1.738  0.3685 -0.3286  1.3024
 2865TIP3    H2 8560   3.017   1.803   1.636 -0.5673  1.6122 -0.4820
 2866TIP3   OH2 8561   4.731   1.903   2.527 -0.5115  0.3337  0.7872
 2866TIP3    H1 8562   4.725   1.816   2.567 -1.5733 -0.0449 -0.1540
 2866TIP3    H2 8563   4.651   1.912   2.476 -0.2996  1.7760  0.6670
 2867TIP3   OH2 8564   1.187   5.143   4.076 -0.0046  0.1359  0.4909
 2867TIP3    H1 8565   1.163   5.167   4.166  1.3626 -0.1383  0.9585
 2867TIP3    H2 8566   1.252   5.209   4.051  1.2999 -1.0748  0.5653
 2868TIP3   OH2 8567   3.448   6.753   1.065 -0.4673  0.4770  0.0634
 2868TIP3    H1 8568   3.487   6.687   1.008 -0.9156  0.7197 -0.5250
 2868TIP3    H2 8569   3.460   6.718   1.153  0.1494  0.0595 -0.1773
 2869TIP3   OH2 8570   0.891   4.858   0.783  0.1404  0.3827  0.1997
 2869TIP3    H1 8571   0.962   4.879   0.723 -0.5626 -0.0366 -0.8155
 2869TIP3    H2 8572   0.812   4.882   0.735 -0.4902 -0.9293  0.5509
 2870TIP3   OH2 8573   2.727   3.657   5.376  0.3925 -0.4066 -0.5989
 2870TIP3    H1 8574   2.764   3.608   5.449 -0.8122  0.3864  0.5984
 2870TIP3    H2 8575   2.695   3.589   5.316 -1.5336 -1.1723  1.1615
 2871TIP3   OH2 8576   1.914   1.693   0.434 -0.5316 -0.1303  0.4987
 2871TIP3    H1 8577   1.853   1.763   0.412 -0.6036  0.2191  1.7313
 2871TIP3    H2 8578   1.859   1.625   0.475 -0.3371 -0.5278  0.1061
 2872TIP3   OH2 8579   3.565   2.849   3.620  0.0654 -0.3327  0.0075
 2872TIP3    H1 8580   3.577   2.856   3.525  0.4425 -1.5450 -0.0502
 2872TIP3    H2 8581   3.569   2.940   3.651  0.0042  0.0753 -1.1242
 2873TIP3   OH2 8582   4.996   5.906   4.365  0.3620  0.3419  0.1792
 2873TIP3    H1 8583   5.007   5.998   4.341 -2.8532  0.7269 -0.2725
 2873TIP3    H2 8584   4.992   5.859   4.282 -0.9709  0.2555  0.2737
 2874TIP3   OH2 8585   4.642   1.162   3.784  0.4191 -0.1470 -0.1484
 2874TIP3    H1 8586   4.708   1.189   3.847 -0.4732 -1.2560  1.3293
 2874TIP3    H2 8587   4.577   1.232   3.784 -0.1980 -0.6975  1.1263
 2875TIP3   OH2 8588   5.671   0.133   1.793 -0.3887 -0.5834  0.0693
 2875TIP3    H1 8589   5.751   0.089   1.821 -0.0409  0.8986  1.5607
 2875TIP3    H2 8590   5.615   0.133   1.870 -0.1559  1.9625  0.3411
 2876TIP3   OH2 8591   5.670   4.986   3.573  0.1226 -0.5244 -0.1699
 2876TIP3    H1 8592   5.738   5.047   3.603 -0.2330 -0.8895  1.5029
 2876TIP3    H2 8593   5.592   5.040   3.563  0.0337 -0.5318  0.4300
 2877TIP3   OH2 8594   4.906   4.434   0.445  0.1073 -0.2089  0.0259
 2877TIP3    H1 8595   4.837   4.368   0.458 -0.4289  0.2537 -0.4074
 2877TIP3    H2 8596   4.871   4.512   0.488  0.9333 -0.3121  0.9229
 2878TIP3   OH2 8597   6.875   6.298   4.096 -0.3236 -0.2038 -0.1719
 2878TIP3    H1 8598   6.929   6.251   4.033 -0.9707  0.6120 -1.3784
 2878TIP3    H2 8599   6.885   6.390   4.072 -0.2689  0.1625  1.1879
 2879TIP3   OH2 8600   0.589   2.521   5.168 -0.1729  0.4105  0.4997
 2879TIP3    H1 8601   0.617   2.568   5.089  2.0956 -0.6155  0.6162
 2879TIP3    H2 8602   0.533   2.583   5.214  1.5377  2.4906 -0.0427
 2880TIP3   OH2 8603   6.810   5.644   1.568 -0.5374 -0.1960 -0.7810
 2880TIP3    H1 8604   6.754   5.695   1.627 -0.1581  0.7868 -1.2570
 2880TIP3    H2 8605   6.899   5.657   1.603 -0.2680  0.6693 -1.7342
 2881TIP3   OH2 8606   6.216   3.312   4.241  0.4551 -0.1543  0.4259
 2881TIP3    H1 8607   6.127   3.331   4.269 -0.2136 -1.5308 -0.5949
 2881TIP3    H2 8608   6.272   3.370   4.293 -1.1151  1.6967  0.1191
 2882TIP3   OH2 8609   6.912   5.319   1.894 -0.7668  0.3634  0.0380
 2882TIP3    H1 8610   6.830   5.350   1.855 -0.0804  0.4673 -1.3529
 2882TIP3    H2 8611   6.960   5.399   1.915 -0.1062  0.3037 -1.1642
 2883TIP3   OH2 8612   2.034   6.830   0.388  0.2832 -0.1329 -0.0510
 2883TIP3    H1 8613   1.978   6.834   0.310  0.8787 -2.4815 -0.6878
 2883TIP3    H2 8614   2.106   6.771   0.362  0.9260 -0.3281  2.0244
 2884TIP3   OH2 8615   4.927   6.744   2.667  0.0712  0.8711  0.4125
 2884TIP3    H1 8616   4.911   6.690   2.589  0.0537  1.2874  0.1219
 2884TIP3    H2 8617   5.017   6.776   2.656  0.2629  0.4895  0.8403
 2885TIP3   OH2 8618   3.950   6.577   3.621 -0.5435 -0.1071  0.0059
 2885TIP3    H1 8619   4.006   6.550   3.549  1.0367 -0.7479  1.3894
 2885TIP3    H2 8620   4.001   6.556   3.700 -1.6227  1.7836  1.2874
 2886TIP3   OH2 8621   3.339   5.881   3.040 -0.2047 -0.4789  0.0019
 2886TIP3    H1 8622   3.361   5.946   2.973  0.9301 -0.1235  0.6910
 2886TIP3    H2 8623   3.416   5.824   3.044 -0.2968 -0.5417  0.9419
 2887TIP3   OH2 8624   4.970   3.188   4.480  0.0921 -0.7975  0.1014
 2887TIP3    H1 8625   4.990   3.094   4.479 -1.2865 -1.1835  2.3581
 2887TIP3    H2 8626   4.882   3.194   4.442  0.1824 -0.4041 -0.0530
 2888TIP3   OH2 8627   2.547   2.594   4.054  0.7309  0.1706  0.4509
 2888TIP3    H1 8628   2.575   2.573   3.965  0.2816 -0.8205  0.5266
 2888TIP3    H2 8629   2.453   2.613   4.045  0.7393  0.3257  0.6779
 2889TIP3   OH2 8630   0.110   6.732   2.359  0.3799  0.3069 -0.1491
 2889TIP3    H1 8631   0.029   6.682   2.363  0.6762 -0.0831  1.7745
 2889TIP3    H2 8632   0.084   6.816   2.319 -0.8022 -0.0898 -0.2529
 2890TIP3   OH2 8633   1.163   4.818   1.416 -0.0217  0.0241  0.1918
 2890TIP3    H1 8634   1.171   4.730   1.454 -0.0644  0.3329  0.9109
 2890TIP3    H2 8635   1.075   4.846   1.438  0.8278  1.2908  2.2271
 2891TIP3   OH2 8636   6.415   3.133   1.585  0.0338 -0.3000  0.1126
 2891TIP3    H1 8637   6.393   3.121   1.677 -2.9133  0.5737 -0.3893
 2891TIP3    H2 8638   6.470   3.058   1.564 -2.6556 -2.8780  1.5695
 2892TIP3   OH2 8639   5.242   3.240   3.833  0.4249 -0.4046  0.2127
 2892TIP3    H1 8640   5.246   3.336   3.831 -2.5594 -0.0964  2.1967
 2892TIP3    H2 8641   5.321   3.214   3.881 -0.4802  1.4045  2.9106
 2893TIP3   OH2 8642   5.002   5.867   5.353 -0.0644 -0.6626 -0.0696
 2893TIP3    H1 8643   4.989   5.888   5.261  1.3671  0.2766 -0.1026
 2893TIP3    H2 8644   5.097   5.862   5.363 -0.1959 -0.8708  1.3252
 2894TIP3   OH2 8645   6.674   0.736   4.931 -0.0038  0.6519 -0.2814
 2894TIP3    H1 8646   6.587   0.736   4.892 -0.3469 -2.2688  0.2467
 2894TIP3    H2 8647   6.658   0.744   5.025  0.5578  3.0857 -0.3213
 2895TIP3   OH2 8648   4.377   1.343   2.459 -1.0422  0.1511 -0.3640
 2895TIP3    H1 8649   4.420   1.279   2.401 -0.6962 -0.8240  0.9337
 2895TIP3    H2 8650   4.348   1.412   2.399 -0.5988 -0.7560 -1.6974
 2896TIP3   OH2 8651   5.517   3.223   0.397 -0.7935 -0.4111  0.1983
 2896TIP3    H1 8652   5.526   3.296   0.458  0.3665  1.0741 -1.6332
 2896TIP3    H2 8653   5.586   3.162   0.421  1.6116  1.5440 -1.3391
 2897TIP3   OH2 8654   5.143   2.184   3.402 -0.3322  0.6033  0.1668
 2897TIP3    H1 8655   5.181   2.098   3.384 -2.4898 -0.3969  0.0791
 2897TIP3    H2 8656   5.170   2.204   3.491 -1.0637 -0.8969  0.7506
 2898TIP3   OH2 8657   6.197   1.788   0.376  0.3933  0.6312 -0.4766
 2898TIP3    H1 8658   6.104   1.772   0.361  0.3675 -0.5810  0.7228
 2898TIP3    H2 8659   6.237   1.785   0.289 -0.6378  0.8454 -0.9710
 2899TIP3   OH2 8660   4.020   6.162   4.313 -0.3476  0.0641  0.0872
 2899TIP3    H1 8661   3.938   6.144   4.267  0.3245 -1.1478 -0.6957
 2899TIP3    H2 8662   3.997   6.155   4.406 -0.6854 -2.6237 -0.1187
 2900TIP3   OH2 8663   6.922   1.085   4.242  0.3906 -0.2902  0.0141
 2900TIP3    H1 8664   6.944   0.994   4.262 -0.7788 -0.1467  2.2888
 2900TIP3    H2 8665   6.984   1.137   4.294  0.7144  0.2083 -0.8583
 2901TIP3   OH2 8666   4.411   1.921   4.347 -0.0382  0.2914  0.5721
 2901TIP3    H1 8667   4.342   1.962   4.399 -1.5411  0.0784 -1.1795
 2901TIP3    H2 8668   4.367   1.887   4.269  1.8924 -0.7006 -0.1689
 2902TIP3   OH2 8669   3.843   0.800   0.616  0.3469 -0.4177 -0.0165
 2902TIP3    H1 8670   3.761   0.789   0.569  0.2133 -1.3471  0.4235
 2902TIP3    H2 8671   3.884   0.714   0.616  0.1563 -0.5621  1.8942
 2903TIP3   OH2 8672   2.957   5.288   5.303  0.6772 -0.0684 -0.1521
 2903TIP3    H1 8673   2.900   5.351   5.348  1.6486  0.0304  0.9859
 2903TIP3    H2 8674   3.019   5.342   5.254 -0.3277 -0.1747 -1.6228
 2904TIP3   OH2 8675   0.817   6.634   1.179 -0.1892 -0.5768 -0.2124
 2904TIP3    H1 8676   0.852   6.721   1.159 -0.2656 -0.9274 -2.1025
 2904TIP3    H2 8677   0.722   6.643   1.170 -0.2939 -0.5737  0.8355
 2905TIP3   OH2 8678   3.451   1.043   4.205  0.2757 -0.1086  0.0957
 2905TIP3    H1 8679   3.370   1.029   4.254  0.5071  0.4036  0.6392
 2905TIP3    H2 8680   3.516   1.065   4.272  1.3877 -2.5278 -0.1145
 2906TIP3   OH2 8681   3.097   5.742   0.532 -0.0566 -0.4412  0.5463
 2906TIP3    H1 8682   3.128   5.666   0.483 -0.8145 -0.2834 -0.2093
 2906TIP3    H2 8683   3.044   5.791   0.468 -1.4258 -0.4471  1.6217
 2907TIP3   OH2 8684   4.940   2.805   3.684 -0.2387  0.2846 -0.1454
 2907TIP3    H1 8685   4.915   2.744   3.753  0.8152  1.5502  1.3951
 2907TIP3    H2 8686   4.884   2.881   3.698  0.3210  0.7462 -0.3976
 2908TIP3   OH2 8687   3.483   6.715   0.258 -0.2891  0.3751  0.0080
 2908TIP3    H1 8688   3.509   6.683   0.344 -0.9692 -1.1090 -0.3166
 2908TIP3    H2 8689   3.412   6.776   0.275 -0.0093  0.5605  0.5315
 2909TIP3   OH2 8690   2.326   2.441   4.705  0.2572 -0.6147  0.4944
 2909TIP3    H1 8691   2.235   2.418   4.723 -0.1526 -1.8024 -2.6032
 2909TIP3    H2 8692   2.324   2.533   4.681 -0.3193 -0.8574 -0.4443
 2910TIP3   OH2 8693   6.858   2.287   0.361  0.2586  0.3413  0.3396
 2910TIP3    H1 8694   6.947   2.255   0.373  0.5193  0.2947 -1.4244
 2910TIP3    H2 8695   6.802   2.221   0.402  1.0080  0.3394  1.3996
 2911TIP3   OH2 8696   5.849   5.628   3.831 -0.2474 -0.1148 -0.2432
 2911TIP3    H1 8697   5.793   5.706   3.835  0.0537  0.0574  2.3924
 2911TIP3    H2 8698   5.856   5.608   3.737 -2.4658  1.4607 -0.8296
 2912TIP3   OH2 8699   1.354   2.388   5.811  0.0425  0.3513 -0.3797
 2912TIP3    H1 8700   1.399   2.461   5.852  0.0097 -0.1882  0.6416
 2912TIP3    H2 8701   1.370   2.313   5.869  0.0476 -0.4478 -1.3781
 2913TIP3   OH2 8702   2.438   5.687   5.750 -0.4768 -0.1762  1.0696
 2913TIP3    H1 8703   2.448   5.770   5.704  1.5653  0.1147  1.9512
 2913TIP3    H2 8704   2.496   5.626   5.703  1.2514 -0.0016  2.8438
 2914TIP3   OH2 8705   4.656   2.703   5.284  0.3608  0.0241 -0.4958
 2914TIP3    H1 8706   4.729   2.760   5.258  0.5409 -0.1654 -0.4083
 2914TIP3    H2 8707   4.643   2.646   5.208 -1.5762  1.8982 -1.7005
 2915TIP3   OH2 8708   5.141   2.631   0.865 -0.3258 -0.4122 -0.2954
 2915TIP3    H1 8709   5.166   2.635   0.773  0.3510 -1.5963 -0.1817
 2915TIP3    H2 8710   5.048   2.653   0.866 -0.1921  0.2137 -1.1855
 2916TIP3   OH2 8711   2.803   4.466   4.263  0.0494 -0.2257 -0.6784
 2916TIP3    H1 8712   2.740   4.440   4.331  0.9933 -1.5599 -0.2631
 2916TIP3    H2 8713   2.889   4.455   4.305  0.6208 -0.3182 -1.8324
 2917TIP3   OH2 8714   2.521   1.555   4.515 -0.0209 -0.4138  0.2289
 2917TIP3    H1 8715   2.441   1.503   4.522 -0.5073  0.0692 -1.2492
 2917TIP3    H2 8716   2.592   1.494   4.533 -0.5524 -1.7167 -1.8058
 2918TIP3   OH2 8717   3.688   0.603   3.040 -0.0311 -0.4245 -0.2967
 2918TIP3    H1 8718   3.761   0.636   2.987  0.3850 -0.6353  0.1351
 2918TIP3    H2 8719   3.616   0.594   2.978  0.3265 -0.2750 -0.7443
 2919TIP3   OH2 8720   1.030   2.660   4.510  0.0199  0.5165 -0.3370
 2919TIP3    H1 8721   1.086   2.591   4.547 -0.8363 -0.6788 -1.1908
 2919TIP3    H2 8722   1.084   2.701   4.443 -0.3366 -1.1969 -1.7602
 2920TIP3   OH2 8723   4.357   2.147   4.609 -0.3138 -0.1555 -0.3161
 2920TIP3    H1 8724   4.340   2.150   4.703 -0.0322  0.0078 -0.2692
 2920TIP3    H2 8725   4.285   2.196   4.569  0.4960  1.3054 -0.0564
 2921TIP3   OH2 8726   6.216   0.829   0.934  0.1114  0.1197 -0.7837
 2921TIP3    H1 8727   6.243   0.886   0.862 -1.0860  0.4689 -0.9672
 2921TIP3    H2 8728   6.273   0.855   1.007 -0.2987  1.4631 -0.9071
 2922TIP3   OH2 8729   2.643   6.734   3.958 -0.1432 -0.2773 -0.5093
 2922TIP3    H1 8730   2.662   6.819   3.999 -0.6878 -0.3701 -0.0437
 2922TIP3    H2 8731   2.572   6.697   4.011 -1.3066 -0.1347 -1.8762
 2923TIP3   OH2 8732   4.836   1.781   5.807  0.5135 -0.1017 -0.0723
 2923TIP3    H1 8733   4.905   1.778   5.873 -1.1407 -1.3189  1.7504
 2923TIP3    H2 8734   4.882   1.791   5.724  2.7634  0.5234  1.1610
 2924TIP3   OH2 8735   0.157   4.280   1.527  0.0584 -0.1994 -0.2074
 2924TIP3    H1 8736   0.171   4.195   1.567 -0.1209 -0.0181  0.2425
 2924TIP3    H2 8737   0.091   4.322   1.581  0.0636  0.1829 -0.4920
 2925TIP3   OH2 8738   1.673   5.412   0.025 -0.3639  0.0572  0.4726
 2925TIP3    H1 8739   1.673   5.496  -0.020  0.3056  0.2369  0.7947
 2925TIP3    H2 8740   1.647   5.433   0.115 -2.0927 -0.3505  0.1126
 2926TIP3   OH2 8741   0.707   2.114   0.623 -0.1988  0.4771 -0.2364
 2926TIP3    H1 8742   0.765   2.038   0.633 -0.7365  0.0411 -0.3636
 2926TIP3    H2 8743   0.650   2.092   0.549 -0.9084  0.6413  0.2480
 2927TIP3   OH2 8744   0.817   4.252   1.369  0.0985 -0.0911 -0.3982
 2927TIP3    H1 8745   0.827   4.163   1.404  0.0508  0.0022 -0.1395
 2927TIP3    H2 8746   0.774   4.240   1.285 -0.1352 -0.2966 -0.2523
 2928TIP3   OH2 8747   2.291   1.702   5.800 -0.0175  0.0165  0.3371
 2928TIP3    H1 8748   2.246   1.786   5.786  1.0485  0.7266  0.9955
 2928TIP3    H2 8749   2.381   1.727   5.821  0.3896 -1.3206  0.2552
 2929TIP3   OH2 8750   1.716   0.924   4.029 -0.1013  0.5269  0.3456
 2929TIP3    H1 8751   1.757   1.011   4.035  0.1249  0.4181  0.3842
 2929TIP3    H2 8752   1.742   0.880   4.110 -0.9935  0.7558  0.7723
 2930TIP3   OH2 8753   3.908   0.372   0.773 -0.4227  0.3771 -0.4027
 2930TIP3    H1 8754   3.905   0.447   0.714  0.1647 -0.0992 -1.0683
 2930TIP3    H2 8755   3.841   0.312   0.740  1.8327 -1.2265 -2.5498
 2931TIP3   OH2 8756   2.523   1.330   2.828 -0.0752 -0.3725 -0.2926
 2931TIP3    H1 8757   2.579   1.292   2.896 -0.1295 -0.4276 -0.2790
 2931TIP3    H2 8758   2.438   1.341   2.870 -0.3560 -1.2252 -0.6013
 2932TIP3   OH2 8759   1.425   5.563   3.982  0.0405 -0.2644  0.1072
 2932TIP3    H1 8760   1.468   5.647   3.967 -0.3956 -0.0149  0.2311
 2932TIP3    H2 8761   1.444   5.543   4.074 -1.4886  0.6627  0.6557
 2933TIP3   OH2 8762   4.738   3.633   4.283  0.0009 -0.0650 -0.6293
 2933TIP3    H1 8763   4.797   3.559   4.300 -0.0477  0.3713  1.8012
 2933TIP3    H2 8764   4.660   3.613   4.333 -0.4853  1.0939 -0.9079
 2934TIP3   OH2 8765   2.393   0.948   4.711 -0.3783 -0.0170  0.0048
 2934TIP3    H1 8766   2.396   0.958   4.616  0.3756  3.2471  0.2460
 2934TIP3    H2 8767   2.485   0.957   4.739 -0.3233 -2.7110  1.0052
 2935TIP3   OH2 8768   3.076   1.839   1.907 -0.0496  0.4611  0.4360
 2935TIP3    H1 8769   3.006   1.904   1.903 -0.9173 -0.4714  0.0695
 2935TIP3    H2 8770   3.067   1.800   1.995 -0.9178 -0.6217 -0.0992
 2936TIP3   OH2 8771   2.354   4.875   3.176 -0.6353  0.2361  0.1589
 2936TIP3    H1 8772   2.424   4.878   3.110  0.1539 -1.9246  0.7995
 2936TIP3    H2 8773   2.381   4.939   3.242  1.8581 -1.8302  1.3282
 2937TIP3   OH2 8774   6.588   5.899   2.824 -0.0204 -0.6759 -0.4254
 2937TIP3    H1 8775   6.542   5.846   2.889 -0.5389  1.9521  1.5342
 2937TIP3    H2 8776   6.520   5.929   2.765 -0.2481  0.0999  0.2045
 2938TIP3   OH2 8777   6.525   5.073   4.782 -0.5704  0.3236 -0.5086
 2938TIP3    H1 8778   6.564   5.158   4.801 -0.2528 -0.0052  0.3449
 2938TIP3    H2 8779   6.480   5.085   4.698 -0.0587  1.1755 -0.6695
 2939TIP3   OH2 8780   4.145   3.738   2.101 -0.3569  0.2356 -0.3600
 2939TIP3    H1 8781   4.202   3.688   2.159  0.2895 -0.3633 -1.4672
 2939TIP3    H2 8782   4.181   3.826   2.102  0.2449 -0.0015 -0.5917
 2940TIP3   OH2 8783   1.444   0.553   3.778  0.0710 -0.0844 -0.6250
 2940TIP3    H1 8784   1.442   0.648   3.793  1.9346  0.1865 -1.6666
 2940TIP3    H2 8785   1.500   0.520   3.848  1.8016  0.0316 -1.8843
 2941TIP3   OH2 8786   5.748   2.914   5.521 -0.2357 -0.4827  0.1484
 2941TIP3    H1 8787   5.807   2.886   5.450 -1.6440 -3.2546 -0.0861
 2941TIP3    H2 8788   5.755   2.844   5.586  0.1635  1.4497  2.3095
 2942TIP3   OH2 8789   4.215   4.462   5.019 -0.2633 -0.1286 -0.2236
 2942TIP3    H1 8790   4.206   4.411   5.099  1.7640  0.7643  0.6564
 2942TIP3    H2 8791   4.182   4.405   4.950 -0.8970 -1.4123  1.0795
 2943TIP3   OH2 8792   5.149   6.129   2.182  0.3580  0.3240  0.3654
 2943TIP3    H1 8793   5.101   6.209   2.163 -0.8407  0.0129  1.8666
 2943TIP3    H2 8794   5.082   6.061   2.188  1.2389 -0.5920  0.1780
 2944TIP3   OH2 8795   5.889   1.179   2.261  0.2471  0.2416 -0.3487
 2944TIP3    H1 8796   5.947   1.255   2.261  1.2591 -0.4594 -2.7391
 2944TIP3    H2 8797   5.901   1.139   2.175  0.5273 -3.2499  1.1618
 2945TIP3   OH2 8798   5.466   4.585   0.977 -0.0436  0.2583  0.0451
 2945TIP3    H1 8799   5.527   4.513   0.992 -0.4368 -0.0190  0.3575
 2945TIP3    H2 8800   5.412   4.587   1.056 -0.0220  0.9117  0.0491
 2946TIP3   OH2 8801   5.705   4.494   0.760 -0.0241  0.2366  0.1358
 2946TIP3    H1 8802   5.771   4.553   0.798 -1.5837  1.5520  0.9308
 2946TIP3    H2 8803   5.675   4.442   0.834  0.6298 -0.8841 -0.3721
 2947TIP3   OH2 8804   3.149   6.453   5.184  0.4407  0.2488  0.1529
 2947TIP3    H1 8805   3.199   6.456   5.102  1.5744  1.0400  0.8334
 2947TIP3    H2 8806   3.199   6.509   5.244 -0.5364 -0.0618  1.2937
 2948TIP3   OH2 8807   5.381   0.848   5.761 -0.4244 -0.2964  0.1524
 2948TIP3    H1 8808   5.462   0.846   5.711  0.4526 -0.2795  1.5317
 2948TIP3    H2 8809   5.404   0.891   5.843 -1.9597  0.2054  0.3496
 2949TIP3   OH2 8810   4.145   0.548   3.131  0.2703  0.4090 -0.4096
 2949TIP3    H1 8811   4.196   0.622   3.165  1.3272  0.0844 -1.2412
 2949TIP3    H2 8812   4.194   0.518   3.055 -0.9306 -0.2229 -0.9692
 2950TIP3   OH2 8813   6.820   5.523   5.550  0.2150 -0.0076  0.1260
 2950TIP3    H1 8814   6.839   5.558   5.637 -0.3363 -0.3389  0.3857
 2950TIP3    H2 8815   6.827   5.599   5.492 -0.8340  0.5262  0.6645
 2951TIP3   OH2 8816   1.101   4.366   1.663  0.5867 -0.0379  0.2656
 2951TIP3    H1 8817   1.146   4.289   1.629  0.0779  0.2849 -1.2113
 2951TIP3    H2 8818   1.073   4.341   1.751 -0.6158 -2.0056 -0.6135
 2952TIP3   OH2 8819   3.596   2.370   5.610 -0.0857 -0.4443 -0.2524
 2952TIP3    H1 8820   3.531   2.395   5.545  0.3576 -1.5828 -1.1579
 2952TIP3    H2 8821   3.678   2.408   5.578 -0.4517  2.1343  1.5618
 2953TIP3   OH2 8822   4.070   5.629   4.307 -0.0968  0.2083  0.0009
 2953TIP3    H1 8823   4.095   5.704   4.254  0.8273 -0.0344  0.0673
 2953TIP3    H2 8824   4.063   5.663   4.396 -2.4042  0.7802 -0.3407
 2954TIP3   OH2 8825   5.259   1.469   5.028 -0.0140 -0.2074  0.3459
 2954TIP3    H1 8826   5.303   1.465   5.113  1.3953  0.3766 -0.3253
 2954TIP3    H2 8827   5.330   1.460   4.964 -0.6024  2.5102 -0.8153
 2955TIP3   OH2 8828   0.542   6.460   4.478  0.6678 -0.3445  0.0629
 2955TIP3    H1 8829   0.507   6.374   4.453  0.0337 -0.1335  0.2059
 2955TIP3    H2 8830   0.500   6.520   4.416 -0.9077  0.1907  1.5762
 2956TIP3   OH2 8831   6.773   0.564   3.513 -0.2718 -0.3850  0.1631
 2956TIP3    H1 8832   6.682   0.565   3.485 -0.5424  1.0064  0.9933
 2956TIP3    H2 8833   6.771   0.595   3.603  1.0891  0.3758 -0.0361
 2957TIP3   OH2 8834   6.231   5.354   1.414 -0.2279 -0.0721  0.1077
 2957TIP3    H1 8835   6.271   5.441   1.417  0.4000 -0.3778  0.8160
 2957TIP3    H2 8836   6.293   5.301   1.364 -0.6657 -0.0956 -0.4252
 2958TIP3   OH2 8837   5.120   4.532   5.873 -0.0045 -0.2756 -0.0969
 2958TIP3    H1 8838   5.055   4.469   5.905  0.2807 -0.2934  0.4452
 2958TIP3    H2 8839   5.068   4.607   5.843 -0.4473 -1.2618 -1.9467
 2959TIP3   OH2 8840   2.302   3.138   0.237  0.2612 -0.1262 -0.2615
 2959TIP3    H1 8841   2.223   3.111   0.190 -0.5148  1.3605  0.1523
 2959TIP3    H2 8842   2.271   3.193   0.308  1.3700 -2.4407  2.2211
 2960TIP3   OH2 8843   3.840   4.393   4.411  0.1187  0.0928 -0.4952
 2960TIP3    H1 8844   3.814   4.483   4.388  0.0907 -0.0895 -1.2037
 2960TIP3    H2 8845   3.759   4.352   4.441 -0.0616  0.0318 -1.0592
 2961TIP3   OH2 8846   4.925   5.884   3.918 -0.1808  0.1675 -0.2744
 2961TIP3    H1 8847   4.942   5.790   3.918  0.7189  0.3260 -0.5226
 2961TIP3    H2 8848   4.890   5.901   4.005 -0.4852 -0.4153 -0.2728
 2962TIP3   OH2 8849   4.582   4.128   2.679 -0.7022 -0.7012 -0.0817
 2962TIP3    H1 8850   4.613   4.052   2.629  0.6079 -0.3576  0.1808
 2962TIP3    H2 8851   4.661   4.175   2.704 -1.4715  0.5853  0.0537
 2963TIP3   OH2 8852   4.125   1.116   4.077 -0.6196 -0.0426  0.2252
 2963TIP3    H1 8853   4.206   1.085   4.117  1.2725  0.9960 -2.4838
 2963TIP3    H2 8854   4.088   1.038   4.035  0.7543  0.0207 -1.2111
 2964TIP3   OH2 8855   0.995   2.814   1.790 -0.5710 -0.2187 -0.2650
 2964TIP3    H1 8856   0.944   2.734   1.780  1.0840 -1.2846 -0.6826
 2964TIP3    H2 8857   0.991   2.856   1.704 -1.7459  0.3849  0.0561
 2965TIP3   OH2 8858   0.182   5.293   5.514  0.5984 -0.2996  0.4676
 2965TIP3    H1 8859   0.127   5.310   5.590 -1.1032 -0.2469 -0.7295
 2965TIP3    H2 8860   0.228   5.212   5.535 -1.5593 -1.5267  0.6575
 2966TIP3   OH2 8861   6.728   5.734   1.314  0.1331 -0.0385  0.0462
 2966TIP3    H1 8862   6.767   5.691   1.390 -1.3791 -0.4368  0.6369
 2966TIP3    H2 8863   6.636   5.746   1.338  0.0658  1.6787 -0.9292
 2967TIP3   OH2 8864   2.203   0.564   2.509 -0.3341 -0.4412  0.1846
 2967TIP3    H1 8865   2.146   0.638   2.485  1.2542  0.6068 -0.5198
 2967TIP3    H2 8866   2.283   0.605   2.541  0.8606 -1.8520 -0.8912
 2968TIP3   OH2 8867   1.980   4.499   4.916 -0.2379 -0.4084 -0.2475
 2968TIP3    H1 8868   2.043   4.476   4.848  1.6461 -0.9070  1.5528
 2968TIP3    H2 8869   2.004   4.589   4.941 -2.4653  0.7210 -1.7823
 2969TIP3   OH2 8870   0.416   3.154   5.314  0.0287 -0.0137  0.0864
 2969TIP3    H1 8871   0.507   3.176   5.334 -0.1804  1.0333 -0.0733
 2969TIP3    H2 8872   0.374   3.238   5.295 -1.1821 -0.3717  1.0176
 2970TIP3   OH2 8873   4.007   3.080   4.947 -0.0855  0.0885 -0.2284
 2970TIP3    H1 8874   3.966   3.083   4.861 -0.6448 -0.3564  0.0171
 2970TIP3    H2 8875   4.049   3.166   4.957 -0.2433  0.2390 -0.8287
 2971TIP3   OH2 8876   0.101   4.363   0.616  0.1435  0.4404  0.0298
 2971TIP3    H1 8877   0.037   4.432   0.598 -0.0320 -0.0896 -1.5781
 2971TIP3    H2 8878   0.053   4.282   0.602  0.0478 -0.0976  2.9870
 2972TIP3   OH2 8879   1.570   4.846   4.853  0.7540 -0.5419  0.0926
 2972TIP3    H1 8880   1.496   4.843   4.793 -0.2265  2.8589  0.8924
 2972TIP3    H2 8881   1.531   4.836   4.940  1.0319  1.9077  0.5685
 2973TIP3   OH2 8882   7.202   0.629   3.111  0.1373 -0.2713  0.0246
 2973TIP3    H1 8883   7.176   0.704   3.058 -0.0751 -0.4043 -0.0598
 2973TIP3    H2 8884   7.221   0.560   3.047  0.7507 -0.1592  0.0807
 2974TIP3   OH2 8885   4.151   1.556   3.833 -0.0058  0.0970 -0.0804
 2974TIP3    H1 8886   4.112   1.630   3.879  0.5996  0.5097 -0.2304
 2974TIP3    H2 8887   4.209   1.595   3.769 -0.0726 -0.5014 -0.5125
 2975TIP3   OH2 8888   2.405   6.198   5.209  0.4786 -0.1337 -0.0462
 2975TIP3    H1 8889   2.392   6.179   5.302  2.5185 -2.1248 -0.0966
 2975TIP3    H2 8890   2.341   6.142   5.165  0.5170 -0.3094  0.1152
 2976TIP3   OH2 8891   4.825   5.599   0.143 -0.5107  0.3338  0.0493
 2976TIP3    H1 8892   4.884   5.534   0.180 -1.2131  0.7325  2.0180
 2976TIP3    H2 8893   4.880   5.653   0.086  0.5893 -0.4589  0.3284
 2977TIP3   OH2 8894   2.414   4.735   0.747 -0.4073  0.0612 -0.0683
 2977TIP3    H1 8895   2.425   4.815   0.798 -0.0257 -0.8191  1.2708
 2977TIP3    H2 8896   2.490   4.732   0.689 -0.4658  0.6984 -0.1785
 2978TIP3   OH2 8897   5.799   2.597   2.657 -0.5464 -0.1435 -0.3622
 2978TIP3    H1 8898   5.764   2.530   2.716  0.2464  0.6940  1.1048
 2978TIP3    H2 8899   5.777   2.680   2.698  0.2230  0.4623 -1.1239
 2979TIP3   OH2 8900   2.821   5.094   3.063  0.4234  0.0596 -0.6062
 2979TIP3    H1 8901   2.801   5.157   3.132  0.6133 -0.5665  0.0344
 2979TIP3    H2 8902   2.915   5.101   3.050  0.4209  0.0192 -0.6465
 2980TIP3   OH2 8903   1.425   1.351   1.891  0.0380  0.4671  0.5628
 2980TIP3    H1 8904   1.417   1.321   1.800 -0.3511  0.2920  0.6537
 2980TIP3    H2 8905   1.368   1.428   1.896  1.6450  1.7431  0.1172
 2981TIP3   OH2 8906   6.463   1.275   2.593  0.6220 -0.2915 -0.3488
 2981TIP3    H1 8907   6.469   1.317   2.679  0.4497 -0.4340 -0.2680
 2981TIP3    H2 8908   6.386   1.219   2.598 -0.0478  0.5574 -0.9740
 2982TIP3   OH2 8909   2.413   1.623   1.890 -0.0399 -0.2686 -0.4856
 2982TIP3    H1 8910   2.439   1.645   1.801  1.6524  0.6941  0.1959
 2982TIP3    H2 8911   2.494   1.596   1.933 -0.1881  2.2142  1.5901
 2983TIP3   OH2 8912   0.798   5.357   4.708 -0.3704  0.2221 -0.0784
 2983TIP3    H1 8913   0.773   5.370   4.799  0.4363  0.8396  0.0755
 2983TIP3    H2 8914   0.894   5.348   4.710 -0.5368 -2.7349 -0.5503
 2984TIP3   OH2 8915   0.145   1.231   4.431 -0.2827  0.4131 -0.1177
 2984TIP3    H1 8916   0.148   1.181   4.350  0.3240 -0.5982  0.5133
 2984TIP3    H2 8917   0.056   1.218   4.464  0.2569 -1.4320  0.7390
 2985TIP3   OH2 8918   3.348   2.990   5.416 -0.2157  1.0500  0.5435
 2985TIP3    H1 8919   3.293   2.987   5.338  0.7372 -0.9004 -0.1147
 2985TIP3    H2 8920   3.287   2.980   5.489 -0.8947  0.4639 -0.0845
 2986TIP3   OH2 8921   0.165   1.017   1.055 -0.5478  0.2791 -0.7683
 2986TIP3    H1 8922   0.216   1.086   1.013 -1.4073  1.5494  0.1960
 2986TIP3    H2 8923   0.166   1.039   1.148 -0.7643 -1.0697 -0.4188
 2987TIP3   OH2 8924   0.123   5.921   2.358  0.0616  0.6160 -0.2569
 2987TIP3    H1 8925   0.150   6.012   2.347  0.0603  1.0896  2.7984
 2987TIP3    H2 8926   0.137   5.903   2.451 -1.3770 -2.0385 -0.4643
 2988TIP3   OH2 8927   4.097   4.568   4.683 -0.4628 -0.8158 -0.0822
 2988TIP3    H1 8928   4.173   4.607   4.726 -0.6996  0.0307 -0.3973
 2988TIP3    H2 8929   4.034   4.640   4.677 -0.0440 -0.5349 -2.7929
 2989TIP3   OH2 8930   0.718   5.383   4.967 -0.2394  0.3365  0.4931
 2989TIP3    H1 8931   0.696   5.467   5.007 -0.3541  0.8734 -0.6560
 2989TIP3    H2 8932   0.659   5.320   5.009 -1.2032  1.0899  0.2964
 2990TIP3   OH2 8933   5.072   0.503   4.695  0.2120 -0.8815  0.4887
 2990TIP3    H1 8934   5.114   0.453   4.766 -1.3962 -0.9121  1.4669
 2990TIP3    H2 8935   5.117   0.587   4.696 -0.6007 -0.4116  2.4543
 2991TIP3   OH2 8936   5.522   5.953   2.474  0.7653  0.3352 -0.0965
 2991TIP3    H1 8937   5.593   5.911   2.524 -0.7459 -0.8910  1.0975
 2991TIP3    H2 8938   5.530   5.917   2.386  0.8380 -0.7897  0.3577
 2992TIP3   OH2 8939   1.421   1.211   4.515  0.8973  0.3021 -0.2185
 2992TIP3    H1 8940   1.359   1.213   4.588  0.4700 -0.0909 -0.5712
 2992TIP3    H2 8941   1.383   1.151   4.451  0.7777  1.4028 -1.2134
 2993TIP3   OH2 8942   6.411   2.159   0.634  0.3860 -0.7824  0.6258
 2993TIP3    H1 8943   6.439   2.250   0.644 -0.2289 -0.6383  1.0802
 2993TIP3    H2 8944   6.320   2.165   0.605  0.4725 -1.2495  0.2529
 2994TIP3   OH2 8945   0.540   3.614   0.047 -0.5701  0.4539 -0.1278
 2994TIP3    H1 8946   0.507   3.690  -0.001 -0.4460  1.5764  1.4920
 2994TIP3    H2 8947   0.544   3.643   0.138  1.5824 -0.7644  0.2350
 2995TIP3   OH2 8948   5.562   5.327   0.057 -0.1825  0.0695 -0.2725
 2995TIP3    H1 8949   5.538   5.235   0.048 -0.1530  0.1345 -1.0835
 2995TIP3    H2 8950   5.653   5.331   0.028 -0.0557  0.2955  0.1397
 2996TIP3   OH2 8951   4.758   1.784   3.923  0.6430 -0.4569  0.0534
 2996TIP3    H1 8952   4.819   1.781   3.996  2.0140 -0.7729 -1.0533
 2996TIP3    H2 8953   4.771   1.870   3.884 -1.6119  0.5773  1.3659
 2997TIP3   OH2 8954   1.743   1.145   2.097  0.0831  0.3538  0.3197
 2997TIP3    H1 8955   1.789   1.096   2.165  0.7338  1.2892  0.5871
 2997TIP3    H2 8956   1.811   1.199   2.057  0.0022 -1.2284 -2.0915
 2998TIP3   OH2 8957   1.050   6.268   3.041  0.3581  0.2779 -0.3011
 2998TIP3    H1 8958   1.008   6.241   2.959 -1.3254  0.1252  0.5693
 2998TIP3    H2 8959   1.097   6.348   3.018 -1.5945  1.2921 -1.0741
 2999TIP3   OH2 8960   0.377   1.644   4.238 -0.3329 -0.0625  0.2171
 2999TIP3    H1 8961   0.328   1.712   4.191 -1.7665 -0.4862  1.0714
 2999TIP3    H2 8962   0.437   1.609   4.172  0.8717  2.3883 -0.1154
 3000TIP3   OH2 8963   3.406   2.629   1.694  0.1182  0.2954 -0.7865
 3000TIP3    H1 8964   3.499   2.611   1.681 -0.0190 -0.0363 -1.3667
 3000TIP3    H2 8965   3.377   2.668   1.612 -0.6977 -1.4767 -1.4138
 3001TIP3   OH2 8966   3.805   0.629   2.683  0.1699 -0.3731 -0.3408
 3001TIP3    H1 8967   3.714   0.643   2.708 -0.0469 -1.1340 -0.6895
 3001TIP3    H2 8968   3.855   0.647   2.763 -0.1184  1.7364 -0.5833
 3002TIP3   OH2 8969   6.750   2.360   3.154 -0.1882 -0.2782 -1.0289
 3002TIP3    H1 8970   6.690   2.410   3.208  0.2446  1.2545 -1.9106
 3002TIP3    H2 8971   6.745   2.270   3.188 -1.8865  0.1090 -0.1969
 3003TIP3   OH2 8972   0.744   6.000   0.262 -0.5756 -0.2751  0.5928
 3003TIP3    H1 8973   0.665   6.011   0.208 -0.3716  0.2772  0.3957
 3003TIP3    H2 8974   0.748   6.081   0.314 -0.3854 -0.5005  0.9299
 3004TIP3   OH2 8975   6.223   5.239   5.427 -0.1890 -0.2971 -0.3319
 3004TIP3    H1 8976   6.163   5.272   5.495  0.5579 -0.9778  0.6868
 3004TIP3    H2 8977   6.307   5.280   5.448  0.2735 -1.2494 -0.2511
 3005TIP3   OH2 8978   3.955   5.194   1.175  0.1327 -0.4162 -0.3156
 3005TIP3    H1 8979   4.050   5.191   1.167  0.1727 -0.1760  0.0373
 3005TIP3    H2 8980   3.929   5.269   1.122  0.2104 -0.0520  0.1497
 3006TIP3   OH2 8981   2.198   1.663   1.665 -0.2759 -0.2016 -0.3641
 3006TIP3    H1 8982   2.254   1.741   1.661 -2.5388  1.5092 -4.2572
 3006TIP3    H2 8983   2.255   1.595   1.699  2.8451  2.3556  0.0469
 3007TIP3   OH2 8984   4.538   2.991   1.076 -0.3467  0.5544 -0.2554
 3007TIP3    H1 8985   4.446   3.007   1.100  0.0226  1.4775  0.6339
 3007TIP3    H2 8986   4.586   3.062   1.120  0.8721 -0.3256 -0.1322
 3008TIP3   OH2 8987   1.858   2.342   1.389 -0.5457  0.1854  0.7688
 3008TIP3    H1 8988   1.819   2.375   1.308 -1.1296 -1.6476  0.2603
 3008TIP3    H2 8989   1.907   2.417   1.425  1.4530  0.4976 -2.2934
 3009TIP3   OH2 8990   3.977   4.648   1.088  0.1120  0.0590 -0.1713
 3009TIP3    H1 8991   3.999   4.738   1.067  0.5056  0.2171  0.8509
 3009TIP3    H2 8992   3.882   4.642   1.075  0.3396  0.0956 -2.0518
 3010TIP3   OH2 8993   4.432   5.291   0.090  0.1151  0.2685  0.0684
 3010TIP3    H1 8994   4.508   5.330   0.046 -0.3529  0.4203 -0.6180
 3010TIP3    H2 8995   4.470   5.223   0.146  0.6901 -0.4214 -1.1032
 3011TIP3   OH2 8996   1.083   6.208   5.403  0.1120 -0.1416 -0.6670
 3011TIP3    H1 8997   1.018   6.264   5.361  1.0136  1.2492 -0.2653
 3011TIP3    H2 8998   1.109   6.145   5.335  0.0251  0.7409 -1.5295
 3012TIP3   OH2 8999   2.147   5.948   3.031 -0.2522 -0.2234  0.3988
 3012TIP3    H1 9000   2.218   5.896   2.995 -0.9566 -1.9439  1.3634
 3012TIP3    H2 9001   2.068   5.900   3.008 -0.9032  0.1572  1.7065
 3013TIP3   OH2 9002   0.926   6.814   4.515  0.1577 -0.0631 -0.1839
 3013TIP3    H1 9003   0.859   6.786   4.452  0.3824 -1.5074  0.1766
 3013TIP3    H2 9004   1.009   6.801   4.469  0.2490  0.9000 -0.3186
 3014TIP3   OH2 9005   2.434   1.088   1.244  0.3884 -0.1184 -0.9079
 3014TIP3    H1 9006   2.397   1.058   1.327 -0.1048 -0.5366 -1.2700
 3014TIP3    H2 9007   2.385   1.168   1.224 -0.0881 -0.4809 -1.2125
 3015TIP3   OH2 9008   4.285   4.177   1.668  0.4670  0.5740 -0.1626
 3015TIP3    H1 9009   4.313   4.102   1.616 -0.9984 -0.0494 -0.0797
 3015TIP3    H2 9010   4.257   4.242   1.603  0.5953  0.5977 -0.1954
 3016TIP3   OH2 9011   5.078   6.071   0.912  0.1360  0.2514 -0.3420
 3016TIP3    H1 9012   5.115   6.037   0.830  1.0548 -0.7666  0.4789
 3016TIP3    H2 9013   4.997   6.114   0.885  0.4299 -0.0527 -1.7915
 3017TIP3   OH2 9014   5.270   0.038   4.945 -0.2143 -0.6931 -1.4592
 3017TIP3    H1 9015   5.205  -0.025   4.975 -0.7585  0.1026 -0.9141
 3017TIP3    H2 9016   5.342   0.031   5.007 -0.6719 -0.1470 -0.8453
 3018TIP3   OH2 9017   2.761   5.497   4.944 -0.1655 -0.0094  0.7068
 3018TIP3    H1 9018   2.757   5.534   4.856 -0.5148 -2.1907 -0.2856
 3018TIP3    H2 9019   2.854   5.479   4.959  0.0768  1.7240  1.4374
 3019TIP3   OH2 9020   2.602   2.324   4.692 -0.0379 -0.1076  0.2865
 3019TIP3    H1 9021   2.562   2.243   4.661 -0.3731  0.2865 -0.3337
 3019TIP3    H2 9022   2.528   2.376   4.724  0.0458  0.3699 -0.2841
 3020TIP3   OH2 9023   0.628   3.846   2.735  0.2551  0.7945 -0.1583
 3020TIP3    H1 9024   0.632   3.942   2.738 -0.6837  0.8350  0.0891
 3020TIP3    H2 9025   0.720   3.819   2.735  0.5358  1.6892 -0.1493
 3021TIP3   OH2 9026   6.106   2.380   3.218 -0.5207  0.1639 -0.3350
 3021TIP3    H1 9027   6.145   2.293   3.207  0.4737  0.5932 -0.3160
 3021TIP3    H2 9028   6.035   2.383   3.154 -2.0176 -1.4607  1.1173
 3022TIP3   OH2 9029   6.141   3.751   2.633  0.4974  0.6744  0.1561
 3022TIP3    H1 9030   6.072   3.815   2.650 -0.4570 -0.3529  0.1692
 3022TIP3    H2 9031   6.151   3.704   2.716 -1.5996 -1.8646 -0.9185
 3023TIP3   OH2 9032   1.581   6.452   3.952  0.2378  0.0822 -0.3013
 3023TIP3    H1 9033   1.625   6.530   3.986  0.5881 -0.3967  0.3631
 3023TIP3    H2 9034   1.513   6.432   4.017  2.0993 -1.9218  1.1828
 3024TIP3   OH2 9035   5.642   3.379   3.921  0.5433  0.2535  0.5941
 3024TIP3    H1 9036   5.725   3.365   3.967  0.6959 -1.2047 -0.0597
 3024TIP3    H2 9037   5.598   3.294   3.925 -1.6946  1.4060  2.3331
 3025TIP3   OH2 9038   6.968   4.724   4.723  0.2017 -0.0649 -0.0963
 3025TIP3    H1 9039   6.949   4.813   4.753  0.6582 -0.1485  0.4660
 3025TIP3    H2 9040   7.063   4.718   4.723  0.1769 -0.5622 -0.0972
 3026TIP3   OH2 9041   0.694   5.657   1.979  0.1354 -0.2153  0.2423
 3026TIP3    H1 9042   0.681   5.572   1.937  0.2129  0.8634 -2.1364
 3026TIP3    H2 9043   0.618   5.709   1.952  0.4307  0.6831  1.0711
 3027TIP3   OH2 9044   1.422   4.553   3.910 -0.4361 -0.1205 -0.2872
 3027TIP3    H1 9045   1.331   4.570   3.888 -0.0943  0.0985 -1.6442
 3027TIP3    H2 9046   1.450   4.487   3.847  0.2931 -0.3099  0.2196
 3028TIP3   OH2 9047   4.333   4.405   3.076 -0.0263  0.0951 -0.4605
 3028TIP3    H1 9048   4.428   4.402   3.064 -0.0491 -0.6680 -0.4950
 3028TIP3    H2 9049   4.306   4.313   3.077 -0.5549  0.2312  1.2050
 3029TIP3   OH2 9050   5.174   2.836   4.009  0.4441  0.8176 -0.0031
 3029TIP3    H1 9051   5.233   2.878   4.071 -1.1171  0.4185  1.8407
 3029TIP3    H2 9052   5.222   2.759   3.978  1.1612  0.8949  0.8978
 3030TIP3   OH2 9053   1.854   4.255   5.530  0.1307 -0.1132  0.0723
 3030TIP3    H1 9054   1.833   4.286   5.442 -0.8798 -0.2439  0.2540
 3030TIP3    H2 9055   1.774   4.270   5.580  0.1965 -1.3833  0.6004
 3031TIP3   OH2 9056   2.906   3.020   5.431 -0.0787  0.1785  0.2245
 3031TIP3    H1 9057   2.876   3.029   5.521 -0.1759 -0.2328  0.2361
 3031TIP3    H2 9058   2.880   2.931   5.406 -0.4288  0.4349 -0.3435
 3032TIP3   OH2 9059   5.457   5.641   3.767  0.0791  0.0307 -0.5468
 3032TIP3    H1 9060   5.453   5.711   3.831  3.0541 -1.0722  1.0262
 3032TIP3    H2 9061   5.534   5.662   3.713  1.6239 -2.3507  0.5491
 3033TIP3   OH2 9062   5.889   4.831   3.836  0.2130 -0.2553  0.3021
 3033TIP3    H1 9063   5.868   4.779   3.759  1.7388  0.8655 -0.9308
 3033TIP3    H2 9064   5.804   4.857   3.872 -0.5187 -0.8912 -0.9125
 3034TIP3   OH2 9065   0.973   3.822   4.033 -0.0147 -0.4459 -0.1763
 3034TIP3    H1 9066   1.052   3.768   4.036 -0.3205 -0.8846 -0.0537
 3034TIP3    H2 9067   0.912   3.779   4.093 -0.6461 -0.5766 -0.9017
 3035TIP3   OH2 9068   4.072   1.999   2.254  0.6167  0.2793  0.0986
 3035TIP3    H1 9069   4.113   1.966   2.173  0.3121  0.8075 -0.2750
 3035TIP3    H2 9070   4.055   2.091   2.236 -0.4526  0.1436  0.3647
 3036TIP3   OH2 9071   0.611   5.770   3.249 -0.1182 -0.9618 -0.1649
 3036TIP3    H1 9072   0.565   5.779   3.166  0.2409  1.0870 -0.1892
 3036TIP3    H2 9073   0.692   5.820   3.237 -0.9358  1.0531  2.0069
 3037TIP3   OH2 9074   5.429   6.463   4.998 -0.0065  0.2610  0.0748
 3037TIP3    H1 9075   5.358   6.451   4.935 -0.2344  0.1428  0.3535
 3037TIP3    H2 9076   5.468   6.548   4.974  0.6136 -0.2766 -0.9122
 3038TIP3   OH2 9077   7.216   5.167   2.253 -0.1550  0.4991  0.8229
 3038TIP3    H1 9078   7.124   5.178   2.229  0.2034  0.7328 -0.5439
 3038TIP3    H2 9079   7.235   5.075   2.232  0.0400  0.5743  0.6674
 3039TIP3   OH2 9080   7.088   4.780   1.364  0.4925 -0.0427  0.3513
 3039TIP3    H1 9081   7.103   4.834   1.441 -0.4306  1.0782 -0.2261
 3039TIP3    H2 9082   7.108   4.837   1.290 -0.7983 -0.3579 -0.2756
 3040TIP3   OH2 9083   3.993   4.217   0.312 -0.5435  0.2655 -0.2769
 3040TIP3    H1 9084   4.046   4.181   0.384 -0.7680  1.2823  0.4202
 3040TIP3    H2 9085   4.028   4.176   0.233 -0.2463 -0.8308  0.3964
 3041TIP3   OH2 9086   3.935   2.891   5.392  0.1057 -0.1545 -0.5068
 3041TIP3    H1 9087   3.850   2.936   5.401  0.2824 -0.1416  1.8779
 3041TIP3    H2 9088   3.995   2.959   5.361 -0.7556 -0.2006 -2.3708
 3042TIP3   OH2 9089   0.904   5.831   2.658 -0.0470  0.3896  0.0278
 3042TIP3    H1 9090   0.981   5.889   2.653 -0.2876  0.7601  0.4485
 3042TIP3    H2 9091   0.938   5.748   2.691  0.1902  0.5179  0.1057
 3043TIP3   OH2 9092   1.025   3.617   3.068  0.4267  0.1040 -0.0184
 3043TIP3    H1 9093   1.020   3.711   3.053  0.5907  0.2349  0.6910
 3043TIP3    H2 9094   0.969   3.602   3.145  1.7267 -0.1041  0.9296
 3044TIP3   OH2 9095   6.892   6.312   3.574  0.3204 -0.1758 -0.3050
 3044TIP3    H1 9096   6.986   6.300   3.585  0.6909  1.3927 -1.4710
 3044TIP3    H2 9097   6.870   6.263   3.494  0.3397  0.2817 -0.5930
 3045TIP3   OH2 9098   2.757   6.072   0.846  0.1582  0.1814 -0.0601
 3045TIP3    H1 9099   2.831   6.125   0.816 -0.8140  1.5438 -0.1542
 3045TIP3    H2 9100   2.797   5.994   0.885  1.5692 -0.9043 -3.3373
 3046TIP3   OH2 9101   1.792   3.633   4.299 -0.0132  1.0548 -0.1788
 3046TIP3    H1 9102   1.809   3.709   4.355  1.5949  0.6742 -0.1025
 3046TIP3    H2 9103   1.752   3.568   4.357  1.3467  0.7796  0.4850
 3047TIP3   OH2 9104   5.577   4.137   2.814  0.3251 -0.3105  0.3333
 3047TIP3    H1 9105   5.534   4.222   2.808 -0.4882 -0.7632 -0.5010
 3047TIP3    H2 9106   5.505   4.074   2.820  0.9164 -0.9314  1.2120
 3048TIP3   OH2 9107   3.980   2.680   4.833  0.2250 -0.0814 -0.7184
 3048TIP3    H1 9108   3.963   2.586   4.841  0.0649 -0.0681 -0.8826
 3048TIP3    H2 9109   3.989   2.711   4.923 -0.4842 -0.1178 -0.6275
 3049TIP3   OH2 9110   2.138   2.886   4.829 -0.1176  0.4630  0.8624
 3049TIP3    H1 9111   2.073   2.851   4.890  0.4253  0.9290  1.7431
 3049TIP3    H2 9112   2.155   2.974   4.861  1.4720  0.1000  1.1016
 3050TIP3   OH2 9113   2.254   1.906   1.871 -0.3074  0.0563 -0.6300
 3050TIP3    H1 9114   2.277   1.815   1.893  1.0328 -0.0385 -2.2186
 3050TIP3    H2 9115   2.288   1.918   1.782 -1.1368  1.8969 -0.7359
 3051TIP3   OH2 9116   4.086   4.604   4.234 -0.5026  0.5263 -0.1117
 3051TIP3    H1 9117   4.009   4.631   4.284 -0.3064 -1.3164  1.2625
 3051TIP3    H2 9118   4.135   4.685   4.222 -1.4385  1.3313  1.1519
 3052TIP3   OH2 9119   3.021   6.760   5.161  0.5697  0.3318 -0.1938
 3052TIP3    H1 9120   2.953   6.695   5.140  0.4115  0.8655 -1.4076
 3052TIP3    H2 9121   3.065   6.724   5.238 -2.2940  0.8382  1.8723
 3053TIP3   OH2 9122   0.707   3.422   1.696  0.8392  0.3248 -0.3363
 3053TIP3    H1 9123   0.744   3.508   1.674 -0.8905  0.7792 -1.7360
 3053TIP3    H2 9124   0.625   3.419   1.648  0.1342 -1.5323  0.8873
 3054TIP3   OH2 9125   4.958   4.964   3.336  0.3790  0.3773  0.1924
 3054TIP3    H1 9126   4.912   5.040   3.299  0.7884  0.8432  0.6268
 3054TIP3    H2 9127   4.968   4.904   3.263  2.6414  1.9721 -0.9155
 3055TIP3   OH2 9128   3.309   6.593   2.678 -0.3850  0.2317  1.2825
 3055TIP3    H1 9129   3.349   6.524   2.732 -1.1543 -2.1331 -0.9482
 3055TIP3    H2 9130   3.220   6.563   2.663  0.1991 -0.0884 -2.4528
 3056TIP3   OH2 9131   4.426   1.065   4.395 -0.4904  0.1343 -0.2374
 3056TIP3    H1 9132   4.407   1.076   4.302 -1.5372 -0.9160 -0.1650
 3056TIP3    H2 9133   4.390   0.979   4.417  3.0814 -1.4159  0.2752
 3057TIP3   OH2 9134   5.099   1.444   0.735  0.2345 -0.4288  0.1997
 3057TIP3    H1 9135   5.060   1.501   0.800  0.3627 -1.6176  1.3688
 3057TIP3    H2 9136   5.076   1.483   0.651 -1.2838  0.2699  0.9134
 3058TIP3   OH2 9137   1.954   5.511   5.029  0.3085  0.2221 -0.8151
 3058TIP3    H1 9138   1.978   5.591   5.076  2.4257  1.0325 -3.0337
 3058TIP3    H2 9139   1.858   5.511   5.029  0.2458  2.4947 -0.3203
 3059TIP3   OH2 9140   4.417   4.962   3.698  0.1507 -0.2371 -0.0619
 3059TIP3    H1 9141   4.344   4.932   3.754  0.3672 -0.9156 -0.1322
 3059TIP3    H2 9142   4.432   5.052   3.725  1.7352 -1.1842  2.6250
 3060TIP3   OH2 9143   2.983   1.889   1.035 -0.2219 -0.4675 -0.3273
 3060TIP3    H1 9144   2.955   1.871   0.945 -1.4745 -1.2347  0.2020
 3060TIP3    H2 9145   2.941   1.821   1.087 -0.8722  0.9494  1.0598
 3061TIP3   OH2 9146   2.562   6.562   0.902  0.2662 -0.0624  0.0273
 3061TIP3    H1 9147   2.519   6.517   0.975  0.3077  0.9763  0.7175
 3061TIP3    H2 9148   2.642   6.513   0.887 -0.0054 -0.6088  0.3151
 3062TIP3   OH2 9149   2.550   0.494   3.639 -0.8589 -0.2705 -0.7199
 3062TIP3    H1 9150   2.521   0.412   3.597 -0.3674 -1.2221  0.7141
 3062TIP3    H2 9151   2.640   0.476   3.666 -1.5537 -0.2450  1.9133
 3063TIP3   OH2 9152   1.186   0.361   5.727  0.1786 -0.0529  0.1353
 3063TIP3    H1 9153   1.134   0.284   5.704  1.2738 -0.8120  0.0945
 3063TIP3    H2 9154   1.193   0.411   5.646  0.0945 -0.3056 -0.0271
 3064TIP3   OH2 9155   6.903   0.432   0.711 -0.2325 -0.0636  0.1865
 3064TIP3    H1 9156   6.933   0.442   0.621 -2.7344  2.2927 -0.5281
 3064TIP3    H2 9157   6.981   0.410   0.761  1.5877  0.4740 -2.2612
 3065TIP3   OH2 9158   4.111   4.149   3.975  0.1638  0.9868  0.2404
 3065TIP3    H1 9159   4.201   4.166   3.947 -0.3051  0.6926 -1.5164
 3065TIP3    H2 9160   4.097   4.212   4.046  1.5300  1.4952  0.1037
 3066TIP3   OH2 9161   4.102   3.083   5.291 -0.0598 -0.0424 -0.0627
 3066TIP3    H1 9162   4.089   3.169   5.249  0.5760  0.5759  0.9626
 3066TIP3    H2 9163   4.193   3.060   5.269  0.5288  0.6213  1.4928
 3067TIP3   OH2 9164   4.490   4.713   3.595 -0.0434 -0.3226  0.3886
 3067TIP3    H1 9165   4.584   4.707   3.578 -0.0187 -0.3621  0.5324
 3067TIP3    H2 9166   4.480   4.792   3.648 -0.2419  0.3701 -0.6423
 3068TIP3   OH2 9167   4.981   5.483   3.252 -0.6108 -0.4431  0.4639
 3068TIP3    H1 9168   4.977   5.574   3.281  0.5654 -0.0590 -0.5246
 3068TIP3    H2 9169   4.920   5.478   3.178  0.1292 -0.1794 -0.1728
 3069TIP3   OH2 9170   5.260   4.147   1.284  1.0555 -0.2363  0.3136
 3069TIP3    H1 9171   5.305   4.062   1.292  0.6762 -0.5623 -0.8391
 3069TIP3    H2 9172   5.205   4.152   1.362 -0.8214 -2.2288 -0.7747
 3070TIP3   OH2 9173   6.940   0.485   1.731  0.1838 -0.1688 -0.0202
 3070TIP3    H1 9174   6.846   0.481   1.750 -0.1875  1.6851 -1.2640
 3070TIP3    H2 9175   6.979   0.513   1.814 -0.4481 -0.2528  0.3160
 3071TIP3   OH2 9176   2.613   0.963   2.523  0.2373  0.4143  0.1560
 3071TIP3    H1 9177   2.553   1.034   2.545 -0.0363 -0.3501  2.1260
 3071TIP3    H2 9178   2.556   0.887   2.512  0.7028  0.0296  0.3689
 3072TIP3   OH2 9179   1.657   6.822   2.778  0.7772 -0.3657 -0.1044
 3072TIP3    H1 9180   1.734   6.873   2.751  0.9999 -1.6953 -2.2107
 3072TIP3    H2 9181   1.677   6.733   2.750  0.3386 -1.6681  3.3352
 3073TIP3   OH2 9182   2.509   5.761   5.226  0.0725  0.2376 -0.1487
 3073TIP3    H1 9183   2.454   5.720   5.159 -0.0813 -0.7165  0.5476
 3073TIP3    H2 9184   2.596   5.763   5.186 -0.1102  0.1157 -0.5610
 3074TIP3   OH2 9185   1.407   2.539   0.396 -0.1348 -0.1933 -0.0433
 3074TIP3    H1 9186   1.463   2.463   0.377 -0.1631  0.0170 -1.0208
 3074TIP3    H2 9187   1.353   2.549   0.318 -2.7363 -1.3933  1.4646
 3075TIP3   OH2 9188   4.145   1.768   0.577  0.4201  0.7355 -0.3404
 3075TIP3    H1 9189   4.066   1.820   0.589  0.8241  1.5303 -0.9999
 3075TIP3    H2 9190   4.114   1.678   0.568 -0.2512  0.7769  1.2860
 3076TIP3   OH2 9191   1.137   4.019   4.648  0.1828 -0.3506 -0.3906
 3076TIP3    H1 9192   1.063   4.065   4.686  0.1908 -0.2048 -0.5500
 3076TIP3    H2 9193   1.119   4.017   4.554 -0.0817 -1.1417 -0.3285
 3077TIP3   OH2 9194   4.929   6.658   1.424 -0.1141 -0.1697  0.5270
 3077TIP3    H1 9195   4.991   6.703   1.482 -0.9010  1.7766 -0.0553
 3077TIP3    H2 9196   4.980   6.586   1.386  0.8318 -0.6106  2.4847
 3078TIP3   OH2 9197   3.108   6.033   2.306  0.4076 -0.0387  0.1119
 3078TIP3    H1 9198   3.168   6.010   2.377  0.6252 -2.3502 -0.7316
 3078TIP3    H2 9199   3.025   5.992   2.330  0.0260  0.5372 -0.2031
 3079TIP3   OH2 9200   7.007   2.136   4.358  0.0093  0.0872  0.2482
 3079TIP3    H1 9201   6.947   2.066   4.331 -1.8445  1.0239  1.7171
 3079TIP3    H2 9202   6.970   2.169   4.440  1.0964  2.4635 -0.1349
 3080TIP3   OH2 9203   1.919   3.131   4.667  0.5187 -0.3931 -0.1992
 3080TIP3    H1 9204   2.013   3.130   4.683  1.1080 -1.8721 -3.0693
 3080TIP3    H2 9205   1.881   3.168   4.747  3.7099  3.3391 -0.1104
 3081TIP3   OH2 9206   6.462   5.055   2.478  0.2149  0.2747  0.1456
 3081TIP3    H1 9207   6.431   5.145   2.488 -0.2921  0.1468 -0.2573
 3081TIP3    H2 9208   6.396   5.001   2.523  0.2150  0.0563 -0.1144
 3082TIP3   OH2 9209   3.074   0.945   3.922  0.6121 -0.0017  0.2430
 3082TIP3    H1 9210   3.100   0.987   4.005 -0.1239 -0.3731  0.6630
 3082TIP3    H2 9211   3.156   0.906   3.889  0.8058 -0.3208  1.0672
 3083TIP3   OH2 9212   0.870   2.681   5.361 -0.3682  0.3008 -0.2016
 3083TIP3    H1 9213   0.912   2.711   5.280 -0.6069  0.9587 -0.0822
 3083TIP3    H2 9214   0.873   2.585   5.355  0.3482  0.3410 -0.6089
 3084TIP3   OH2 9215   3.888   4.803   5.390 -0.0774  0.1360 -0.2674
 3084TIP3    H1 9216   3.819   4.809   5.323 -0.0850 -0.5498 -0.3255
 3084TIP3    H2 9217   3.950   4.740   5.355  0.3133  0.3464  0.0340
 3085TIP3   OH2 9218   4.696   5.900   2.267 -0.3273 -0.5500 -0.1946
 3085TIP3    H1 9219   4.699   5.989   2.233  1.0684 -1.0114 -1.3990
 3085TIP3    H2 9220   4.748   5.849   2.205  1.1192 -1.7278  1.8498
 3086TIP3   OH2 9221   1.585   4.588   5.732 -0.0585  0.2888  0.2868
 3086TIP3    H1 9222   1.657   4.558   5.788 -0.9033 -0.9286  0.7649
 3086TIP3    H2 9223   1.584   4.683   5.744  1.6054  0.3653  0.0902
 3087TIP3   OH2 9224   1.750   0.127   0.086  0.2856 -0.2524  0.1806
 3087TIP3    H1 9225   1.702   0.142   0.004  0.8913 -0.3970 -0.2090
 3087TIP3    H2 9226   1.712   0.047   0.122  1.3106 -1.3066 -0.9641
 3088TIP3   OH2 9227   3.137   3.556   0.182  0.1618 -0.8369  0.0920
 3088TIP3    H1 9228   3.082   3.609   0.241 -1.1505 -1.3205 -0.6514
 3088TIP3    H2 9229   3.199   3.512   0.240 -0.8904 -1.0397  1.1000
 3089TIP3   OH2 9230   1.664   6.150   5.219 -0.2125  0.1321 -0.4455
 3089TIP3    H1 9231   1.665   6.126   5.126 -0.8815  0.1890 -0.4764
 3089TIP3    H2 9232   1.680   6.245   5.219  2.3656 -0.2503 -0.3277
 3090TIP3   OH2 9233   4.962   3.638   5.427  0.3583 -0.7864 -0.8740
 3090TIP3    H1 9234   4.985   3.547   5.439 -2.2049 -1.4345 -0.1621
 3090TIP3    H2 9235   4.878   3.636   5.380 -1.0367  1.0464  1.2948
 3091TIP3   OH2 9236   6.670   2.789   4.395 -0.2341 -0.0101 -0.4382
 3091TIP3    H1 9237   6.668   2.747   4.481 -1.3064  0.6723 -0.1027
 3091TIP3    H2 9238   6.758   2.827   4.388  0.0961 -0.6737  0.0472
 3092TIP3   OH2 9239   0.567   1.653   2.353 -0.0115  0.1998  0.3523
 3092TIP3    H1 9240   0.619   1.589   2.304  0.2410  1.0873 -0.5693
 3092TIP3    H2 9241   0.601   1.648   2.443 -0.6137 -1.5939  0.5362
 3093TIP3   OH2 9242   1.841   1.258   5.793  0.3382 -0.4058 -0.5909
 3093TIP3    H1 9243   1.895   1.253   5.872  0.8994 -2.3224 -1.0284
 3093TIP3    H2 9244   1.870   1.184   5.740 -0.0475  0.8308 -2.6099
 3094TIP3   OH2 9245   3.202   0.988   4.762 -0.5488  0.2136  0.5066
 3094TIP3    H1 9246   3.269   0.924   4.783 -0.7812  0.0405  0.7334
 3094TIP3    H2 9247   3.137   0.978   4.832  0.1712  1.7854  1.4733
 3095TIP3   OH2 9248   6.795   0.624   3.233  0.0339 -0.2682 -0.1401
 3095TIP3    H1 9249   6.831   0.597   3.317  1.6182  0.6028 -0.4957
 3095TIP3    H2 9250   6.760   0.543   3.194  2.9265 -1.5167 -0.3807
 3096TIP3   OH2 9251   3.713   5.046   0.438 -0.1733 -0.6832 -0.8231
 3096TIP3    H1 9252   3.800   5.068   0.405  0.4518 -1.7923  0.0019
 3096TIP3    H2 9253   3.727   5.023   0.530 -1.7707  1.6605  0.0844
 3097TIP3   OH2 9254   3.156   6.161   2.666  0.2807 -0.1804  0.3234
 3097TIP3    H1 9255   3.091   6.092   2.654  0.0093  0.4138 -2.0191
 3097TIP3    H2 9256   3.220   6.146   2.596  0.3371  1.8043 -0.0903
 3098TIP3   OH2 9257   1.001   5.619   4.649 -0.2938  0.7293 -0.1017
 3098TIP3    H1 9258   0.972   5.626   4.740  2.1836 -1.4182  0.9838
 3098TIP3    H2 9259   1.009   5.525   4.634  3.7031  1.0256 -0.9381
 3099TIP3   OH2 9260   1.912   4.568   3.976 -0.2830 -0.9271  0.7877
 3099TIP3    H1 9261   1.912   4.653   4.020 -0.2482 -0.8639  0.6672
 3099TIP3    H2 9262   1.841   4.520   4.017  0.0680 -1.0507  1.2593
 3100TIP3   OH2 9263   5.505   6.035   2.937  0.3336 -0.1521 -0.1520
 3100TIP3    H1 9264   5.579   5.982   2.967  1.1556  0.5726 -0.8569
 3100TIP3    H2 9265   5.527   6.124   2.964 -0.3808  0.0461 -0.2040
 3101TIP3   OH2 9266   5.175   2.272   0.013 -0.2952 -0.1632  0.0680
 3101TIP3    H1 9267   5.125   2.352   0.029 -0.1494 -0.1247  0.3376
 3101TIP3    H2 9268   5.116   2.201   0.036 -0.2899 -0.1232  0.2035
 3102TIP3   OH2 9269   3.711   5.026   0.776  0.4678 -0.3457 -0.1194
 3102TIP3    H1 9270   3.708   4.935   0.806  1.5968 -0.5065 -0.4467
 3102TIP3    H2 9271   3.703   5.078   0.855  0.8797 -0.7482  0.1926
 3103TIP3   OH2 9272   5.815   4.890   4.999 -0.0321 -0.1317  0.2260
 3103TIP3    H1 9273   5.744   4.830   4.977  0.1196  0.2893 -1.5773
 3103TIP3    H2 9274   5.773   4.959   5.050 -0.8039 -0.1991 -0.2967
 3104TIP3   OH2 9275   4.436   1.975   3.103  0.4237  0.3248  0.1456
 3104TIP3    H1 9276   4.440   1.900   3.163  0.1150  0.9664  0.9816
 3104TIP3    H2 9277   4.500   2.037   3.138 -0.5318  1.1626  0.4569
 3105TIP3   OH2 9278   1.549   4.477   1.945 -0.3511 -0.1356  0.0857
 3105TIP3    H1 9279   1.505   4.416   1.884  0.1856 -1.2584  0.7831
 3105TIP3    H2 9280   1.626   4.507   1.897  0.8850 -2.1616  0.6656
 3106TIP3   OH2 9281   0.402   0.987   2.306  0.3270 -0.0179 -0.2949
 3106TIP3    H1 9282   0.414   0.908   2.359 -1.6791  0.3488  0.8259
 3106TIP3    H2 9283   0.410   0.957   2.215 -1.8956 -1.8771  0.0338
 3107TIP3   OH2 9284   5.114   0.936   5.358  0.3907 -0.1531 -0.0891
 3107TIP3    H1 9285   5.182   1.001   5.374 -0.8430  0.7824  1.6913
 3107TIP3    H2 9286   5.120   0.876   5.432 -0.0559 -0.6661 -0.4587
 3108TIP3   OH2 9287   3.103   6.327   2.381 -0.2284 -0.0663  1.0271
 3108TIP3    H1 9288   3.092   6.241   2.340 -0.0242 -0.2482  1.3473
 3108TIP3    H2 9289   3.198   6.342   2.380 -0.3790  1.0320 -0.7869
 3109TIP3   OH2 9290   0.843   3.061   5.698  0.4913 -0.3765  0.0359
 3109TIP3    H1 9291   0.879   3.085   5.784 -1.8666 -1.3119  1.3799
 3109TIP3    H2 9292   0.791   3.136   5.671 -0.3301 -0.8103  0.3758
 3110TIP3   OH2 9293   0.250   1.890   3.594  0.0809 -0.3798  0.0886
 3110TIP3    H1 9294   0.292   1.949   3.531  0.7790 -0.6746  0.2670
 3110TIP3    H2 9295   0.300   1.902   3.674 -1.1293  0.3799  0.7572
 3111TIP3   OH2 9296   4.722   5.589   4.654 -0.4412  0.3439  0.0476
 3111TIP3    H1 9297   4.722   5.560   4.563  0.7554  0.5276 -0.0239
 3111TIP3    H2 9298   4.665   5.526   4.699 -3.1309  1.6967 -1.2347
 3112TIP3   OH2 9299   3.627   0.747   0.980 -0.8662 -0.2770 -0.6089
 3112TIP3    H1 9300   3.590   0.659   0.978 -2.3708  0.2416  1.4850
 3112TIP3    H2 9301   3.556   0.802   1.012  0.5959  1.3928 -0.1206
 3113TIP3   OH2 9302   4.249   0.216   1.541 -0.5600  0.2926  0.3807
 3113TIP3    H1 9303   4.285   0.305   1.530  1.0441 -0.2997  0.4909
 3113TIP3    H2 9304   4.156   0.230   1.557 -0.4778  1.9207 -0.2934
 3114TIP3   OH2 9305   1.422   4.109   5.675 -0.6928 -0.4558 -0.1288
 3114TIP3    H1 9306   1.383   4.095   5.589 -1.9879 -0.7443  0.4799
 3114TIP3    H2 9307   1.480   4.035   5.688 -0.5084 -0.4245 -0.7342
 3115TIP3   OH2 9308   5.835   0.622   3.813  0.7360 -0.1012 -0.2344
 3115TIP3    H1 9309   5.867   0.563   3.882 -1.6585 -0.4445  0.6914
 3115TIP3    H2 9310   5.847   0.572   3.732 -0.5533 -1.6064  0.4545
 3116TIP3   OH2 9311   3.478   0.552   2.869 -0.4237  0.2849  0.3488
 3116TIP3    H1 9312   3.399   0.592   2.832  0.3299  1.8898  0.4146
 3116TIP3    H2 9313   3.464   0.458   2.858 -3.7632  0.2608  3.1434
 3117TIP3   OH2 9314   6.189   5.902   2.067  0.3418 -0.3513  0.1831
 3117TIP3    H1 9315   6.135   5.824   2.052  0.2510 -0.2483 -0.0429
 3117TIP3    H2 9316   6.172   5.957   1.990  0.0013  0.1172  0.5833
 3118TIP3   OH2 9317   2.036   3.213   5.359 -0.0970  0.0304 -0.2253
 3118TIP3    H1 9318   2.066   3.286   5.304  0.0944  0.0474 -0.0996
 3118TIP3    H2 9319   1.941   3.223   5.361 -0.1194 -0.0655 -0.6855
 3119TIP3   OH2 9320   0.789   4.474   1.527 -1.3441  0.2064 -0.0201
 3119TIP3    H1 9321   0.873   4.465   1.572 -0.1776  1.7087 -1.7564
 3119TIP3    H2 9322   0.784   4.398   1.470 -1.1341  0.1506  0.0343
 3120TIP3   OH2 9323   5.925   1.410   0.055  0.5808 -0.3981  0.1767
 3120TIP3    H1 9324   5.996   1.455   0.011  0.7981  0.2090  1.1025
 3120TIP3    H2 9325   5.856   1.476   0.062  1.2821  0.2045  2.4744
 3121TIP3   OH2 9326   2.816   1.565   1.532 -0.1249  0.4879 -0.3459
 3121TIP3    H1 9327   2.851   1.498   1.591  0.9825 -0.6275 -2.1740
 3121TIP3    H2 9328   2.832   1.648   1.578  1.6736 -0.2553  0.4627
 3122TIP3   OH2 9329   0.098   1.549   4.155  0.3462  0.5061  0.2060
 3122TIP3    H1 9330   0.158   1.567   4.228 -1.1779  0.6331  1.4963
 3122TIP3    H2 9331   0.022   1.603   4.173 -0.8457 -0.8686 -0.4684
 3123TIP3   OH2 9332   4.767   3.667   5.760 -0.2912 -0.3975 -0.2105
 3123TIP3    H1 9333   4.811   3.702   5.682 -0.9066  0.1835 -0.3027
 3123TIP3    H2 9334   4.839   3.650   5.822  0.1616 -0.4815 -0.7474
 3124TIP3   OH2 9335   3.657   0.845   5.266 -0.1598  0.8555  0.3626
 3124TIP3    H1 9336   3.575   0.859   5.219  0.9811  0.2837 -1.9255
 3124TIP3    H2 9337   3.686   0.933   5.291 -0.0052  1.3545 -1.4762
 3125TIP3   OH2 9338   3.126   2.422   4.193 -0.2340 -0.2221 -0.0736
 3125TIP3    H1 9339   3.039   2.384   4.191 -0.2807 -0.0912 -0.8426
 3125TIP3    H2 9340   3.183   2.351   4.223 -0.3642 -0.8122 -1.1892
 3126TIP3   OH2 9341   5.882   6.277   2.216  0.3942  0.2843  0.5667
 3126TIP3    H1 9342   5.907   6.312   2.130  2.5961  1.2582  1.5337
 3126TIP3    H2 9343   5.866   6.184   2.200  0.3139  0.5252 -0.9551
 3127TIP3   OH2 9344   1.660   6.391   2.453  0.6355  0.5086  0.2224
 3127TIP3    H1 9345   1.567   6.398   2.476  0.6748  0.6681  0.3331
 3127TIP3    H2 9346   1.660   6.396   2.357  0.6540  2.2013  0.2739
 3128TIP3   OH2 9347   6.723   3.251   0.818  0.2618 -0.1304 -0.3482
 3128TIP3    H1 9348   6.700   3.261   0.910  1.1431  0.3181 -0.1746
 3128TIP3    H2 9349   6.639   3.262   0.772 -0.2393 -0.6646  0.4043
 3129TIP3   OH2 9350   5.901   5.820   0.233 -0.2089  0.3559  0.3709
 3129TIP3    H1 9351   5.924   5.761   0.161  1.1740  3.0194 -1.5205
 3129TIP3    H2 9352   5.964   5.800   0.302 -0.3941 -0.9896  0.1835
 3130TIP3   OH2 9353   5.140   4.886   2.911  0.3788  0.1312  0.3179
 3130TIP3    H1 9354   5.104   4.814   2.962 -0.9694  1.1315  0.8546
 3130TIP3    H2 9355   5.148   4.958   2.973  2.0596  0.3627 -0.1203
 3131TIP3   OH2 9356   4.687   3.984   0.286  0.4491 -0.4426 -0.0078
 3131TIP3    H1 9357   4.599   4.016   0.305  1.0072  0.5562  0.9722
 3131TIP3    H2 9358   4.691   3.898   0.328  0.3171  0.0070  0.9457
 3132TIP3   OH2 9359   4.521   3.918   2.950 -0.3664 -0.2016  0.1485
 3132TIP3    H1 9360   4.472   3.839   2.925  0.4877  0.0052 -2.4680
 3132TIP3    H2 9361   4.490   3.985   2.890  1.0626  0.6928  0.3839
 3133TIP3   OH2 9362   6.144   6.221   0.655  0.2833  0.3970 -0.1549
 3133TIP3    H1 9363   6.118   6.155   0.591  0.7045  1.9695 -2.0501
 3133TIP3    H2 9364   6.063   6.267   0.677  0.1494 -0.1013  0.4319
 3134TIP3   OH2 9365   0.065   6.722   5.509  0.2326  0.2858  0.4372
 3134TIP3    H1 9366   0.048   6.787   5.441 -0.9203 -1.1053 -0.6625
 3134TIP3    H2 9367  -0.004   6.738   5.574 -1.6378 -1.3573 -1.0327
 3135TIP3   OH2 9368   6.594   5.562   2.850 -0.0026 -0.3088  0.4196
 3135TIP3    H1 9369   6.634   5.628   2.794  0.8525 -0.8477  0.3755
 3135TIP3    H2 9370   6.542   5.612   2.913 -1.1277  0.3117 -0.9175
 3136TIP3   OH2 9371   2.229   1.595   2.664 -0.2121 -0.1496 -0.3362
 3136TIP3    H1 9372   2.277   1.652   2.603 -0.9533  1.2008  0.2952
 3136TIP3    H2 9373   2.140   1.628   2.663 -0.3688 -0.4502  1.0645
 3137TIP3   OH2 9374   6.676   2.844   4.828 -0.0135  0.1772 -0.1788
 3137TIP3    H1 9375   6.707   2.765   4.784 -1.8496 -1.0678  0.6265
 3137TIP3    H2 9376   6.652   2.903   4.756 -0.0935 -0.6148 -0.8266
 3138TIP3   OH2 9377   3.711   0.132   0.786 -0.3032  0.0326 -0.1179
 3138TIP3    H1 9378   3.702   0.066   0.855 -1.1214  0.0968 -0.1577
 3138TIP3    H2 9379   3.761   0.087   0.717 -0.3338 -0.3459  0.1006
 3139TIP3   OH2 9380   2.970   2.705   5.052  0.0117  0.2148  0.3759
 3139TIP3    H1 9381   2.973   2.787   5.003 -0.2231 -0.3047 -0.5498
 3139TIP3    H2 9382   2.952   2.730   5.142  1.0031  1.2476  0.3028
 3140TIP3   OH2 9383   4.954   5.457   1.933  0.1989 -0.3010 -0.8908
 3140TIP3    H1 9384   4.867   5.489   1.907 -0.4122 -1.2476 -0.0743
 3140TIP3    H2 9385   4.936   5.382   1.990  1.5497 -0.2669 -0.3849
 3141TIP3   OH2 9386   5.753   0.280   5.342  0.8832  0.4573  0.2029
 3141TIP3    H1 9387   5.839   0.239   5.342  0.7167  0.0746  1.3490
 3141TIP3    H2 9388   5.724   0.276   5.251  1.6184 -0.3851 -0.0015
 3142TIP3   OH2 9389   1.817   3.268   1.870  0.4515  0.0453  0.2673
 3142TIP3    H1 9390   1.872   3.300   1.942  0.2597  0.7224  0.1128
 3142TIP3    H2 9391   1.812   3.341   1.809 -0.8086  0.0803  0.3839
 3143TIP3   OH2 9392   5.014   1.762   5.565 -0.1007  0.0772  0.4485
 3143TIP3    H1 9393   5.010   1.672   5.533 -0.5655  0.1225  0.3695
 3143TIP3    H2 9394   5.107   1.786   5.558  0.3777 -1.0467  2.3108
 3144TIP3   OH2 9395   0.908   1.121   3.530  0.3656 -0.0401 -0.5017
 3144TIP3    H1 9396   0.886   1.037   3.570  0.5708 -0.1964 -0.7177
 3144TIP3    H2 9397   0.871   1.116   3.442 -0.3514  0.4236 -0.2292
 3145TIP3   OH2 9398   0.004   4.031   3.992  0.3332  0.3096  0.1932
 3145TIP3    H1 9399   0.089   4.060   3.958  0.5241 -1.1766 -0.6942
 3145TIP3    H2 9400   0.005   4.057   4.084  1.1372  1.6011 -0.1431
 3146TIP3   OH2 9401   3.739   2.226   2.365 -0.5206 -0.4196 -0.1605
 3146TIP3    H1 9402   3.775   2.137   2.374 -0.4990 -0.3744  0.2160
 3146TIP3    H2 9403   3.808   2.275   2.320 -0.8101 -0.7650 -0.9987
 3147TIP3   OH2 9404   2.413   1.145   4.029 -0.0994 -0.0075 -0.1481
 3147TIP3    H1 9405   2.318   1.146   4.017 -0.3734 -2.3132  1.1529
 3147TIP3    H2 9406   2.445   1.219   3.977 -2.6856  1.5763  0.3305
 3148TIP3   OH2 9407   5.332   1.809   4.296 -0.7244 -0.1328 -0.5459
 3148TIP3    H1 9408   5.376   1.732   4.331 -1.2432 -0.4458 -0.5827
 3148TIP3    H2 9409   5.243   1.780   4.278 -0.9883  0.5383 -0.3426
 3149TIP3   OH2 9410   7.049   0.407   3.695 -0.2222  0.0976 -0.7001
 3149TIP3    H1 9411   7.018   0.437   3.609  0.0556 -0.0123 -0.8405
 3149TIP3    H2 9412   7.111   0.474   3.723 -1.2703  0.7986  0.0076
 3150TIP3   OH2 9413   1.559   5.445   0.779 -0.4481  0.0269 -0.3555
 3150TIP3    H1 9414   1.475   5.491   0.789 -0.2582  0.1995  0.5999
 3150TIP3    H2 9415   1.556   5.376   0.845  0.1104 -0.0439 -0.4018
 3151TIP3   OH2 9416   3.496   1.568   1.894  0.0940 -0.4080  0.6630
 3151TIP3    H1 9417   3.448   1.649   1.876  1.3380  0.6442  1.8568
 3151TIP3    H2 9418   3.427   1.505   1.919 -0.7606  0.7974  1.4626
 3152TIP3   OH2 9419   0.127   4.593   4.046 -0.2097  0.3052 -0.2565
 3152TIP3    H1 9420   0.180   4.578   4.124 -1.6776 -1.5837  0.4726
 3152TIP3    H2 9421   0.185   4.569   3.973 -0.1147 -2.2772  0.5481
 3153TIP3   OH2 9422   2.624   1.161   0.807 -0.1855  0.0056  0.0839
 3153TIP3    H1 9423   2.542   1.196   0.843  0.2451 -0.2110  1.3428
 3153TIP3    H2 9424   2.625   1.070   0.835  0.7457  0.1595  0.5965
 3154TIP3   OH2 9425   2.304   1.313   1.157  0.2310 -0.2416 -0.1970
 3154TIP3    H1 9426   2.281   1.399   1.120  1.0664  0.1667  0.1935
 3154TIP3    H2 9427   2.224   1.285   1.202  0.7381  1.6817  2.1508
 3155TIP3   OH2 9428   6.811   2.625   0.192  0.2354 -0.6446 -0.2486
 3155TIP3    H1 9429   6.723   2.619   0.227  0.1863 -0.5450 -0.3513
 3155TIP3    H2 9430   6.836   2.535   0.172 -0.3507 -0.5703 -1.4417
 3156TIP3   OH2 9431   5.392   2.280   4.319  0.3844  0.0443 -0.5334
 3156TIP3    H1 9432   5.400   2.197   4.273 -1.0598  0.4227 -1.5506
 3156TIP3    H2 9433   5.473   2.327   4.298  0.2564 -0.2551 -1.8065
 3157TIP3   OH2 9434   1.938   4.800   4.115  0.5594 -0.3444 -0.6187
 3157TIP3    H1 9435   1.999   4.810   4.188 -0.5435  2.0992  0.0832
 3157TIP3    H2 9436   1.879   4.875   4.123 -0.8154 -1.0849 -2.8981
 3158TIP3   OH2 9437   0.067   5.820   1.181  0.6070 -0.0553  0.1476
 3158TIP3    H1 9438   0.058   5.910   1.151 -1.5145 -0.7457 -1.5215
 3158TIP3    H2 9439  -0.023   5.790   1.195  1.1016 -2.5194 -1.3479
 3159TIP3   OH2 9440   2.738   1.852   5.800 -0.0464  0.3984  0.6495
 3159TIP3    H1 9441   2.727   1.845   5.894  1.0789  2.3405  0.9650
 3159TIP3    H2 9442   2.661   1.900   5.770 -0.6726 -0.6776  0.4649
 3160TIP3   OH2 9443   6.364   5.748   2.700  0.5067 -0.0880  0.3893
 3160TIP3    H1 9444   6.378   5.818   2.637  1.0042  1.5116  2.1954
 3160TIP3    H2 9445   6.425   5.679   2.674 -0.2929 -0.0839 -1.6678
 3161TIP3   OH2 9446   0.694   1.269   0.488 -0.1343 -0.6766 -0.3303
 3161TIP3    H1 9447   0.731   1.227   0.565  3.4294 -1.5273 -2.2398
 3161TIP3    H2 9448   0.631   1.205   0.454 -0.0200 -1.3181  0.6228
 3162TIP3   OH2 9449   1.083   1.343   3.826 -0.2116 -0.1487  0.4001
 3162TIP3    H1 9450   1.069   1.260   3.781  2.5014 -0.4878  0.0071
 3162TIP3    H2 9451   1.034   1.407   3.773  0.8865 -0.9278 -1.6932
 3163TIP3   OH2 9452   5.179   4.702   2.257  0.7063  0.8032 -0.3585
 3163TIP3    H1 9453   5.179   4.764   2.184 -0.2312  0.2570 -0.8477
 3163TIP3    H2 9454   5.099   4.651   2.245  0.7417  0.4315  0.8328
 3164TIP3   OH2 9455   3.948   6.423   4.705 -0.6287  0.0792 -0.5016
 3164TIP3    H1 9456   3.926   6.448   4.795  1.1431  0.6338 -0.1748
 3164TIP3    H2 9457   4.037   6.457   4.693  0.2091 -2.3383 -1.5525
 3165TIP3   OH2 9458   4.738   0.175   0.291  0.1758  0.2446 -0.0248
 3165TIP3    H1 9459   4.781   0.094   0.317  0.1774  0.9700  2.5728
 3165TIP3    H2 9460   4.683   0.151   0.217 -0.3549 -2.2931  1.1058
 3166TIP3   OH2 9461   0.123   5.392   1.243 -0.1701  0.0579  0.5202
 3166TIP3    H1 9462   0.050   5.331   1.242  0.2827 -0.5885  2.5029
 3166TIP3    H2 9463   0.083   5.478   1.254 -0.6677 -0.2103  0.8243
 3167TIP3   OH2 9464   2.883   2.662   0.141 -0.3740  0.4041 -0.4802
 3167TIP3    H1 9465   2.868   2.571   0.116  0.7102  0.1275 -0.1691
 3167TIP3    H2 9466   2.967   2.685   0.101  0.0165  0.8404  0.5383
 3168TIP3   OH2 9467   2.689   6.411   1.886 -0.1410 -0.0093  0.3552
 3168TIP3    H1 9468   2.638   6.340   1.847 -1.9806 -0.2088  2.8535
 3168TIP3    H2 9469   2.780   6.383   1.876 -0.3769 -0.0259 -3.5632
 3169TIP3   OH2 9470   3.327   2.774   0.322  0.3060  0.0110  0.5136
 3169TIP3    H1 9471   3.402   2.826   0.348 -0.1794  1.2083 -0.3719
 3169TIP3    H2 9472   3.256   2.838   0.312  0.2852 -0.3477 -3.0162
 3170TIP3   OH2 9473   1.519   5.153   0.178 -0.2358 -0.0089 -0.5655
 3170TIP3    H1 9474   1.448   5.136   0.239  1.1814  1.1357  1.5349
 3170TIP3    H2 9475   1.599   5.135   0.228  1.0076  0.9908 -2.0826
 3171TIP3   OH2 9476   5.956   0.678   3.332 -0.5595  0.0458  0.3210
 3171TIP3    H1 9477   6.034   0.730   3.347 -1.8029  1.7044  1.3482
 3171TIP3    H2 9478   5.989   0.589   3.316  1.5594  0.9265 -0.5319
 3172TIP3   OH2 9479   6.607   3.461   2.261  0.4807 -0.3351  0.2510
 3172TIP3    H1 9480   6.574   3.550   2.267 -1.4939 -1.0764  0.9987
 3172TIP3    H2 9481   6.694   3.471   2.222 -0.8964  1.6309 -2.6525
 3173TIP3   OH2 9482   1.161   4.643   1.640 -0.3515 -0.1019  0.2102
 3173TIP3    H1 9483   1.114   4.679   1.715 -0.0876 -1.1562  0.8883
 3173TIP3    H2 9484   1.150   4.549   1.647 -0.8365 -0.2005 -1.4282
 3174TIP3   OH2 9485   4.978   2.839   2.502  0.0395  0.3253  0.1501
 3174TIP3    H1 9486   5.017   2.917   2.541  0.0015  0.4647 -0.0907
 3174TIP3    H2 9487   4.912   2.811   2.566 -0.7808  1.1776 -0.2965
 3175TIP3   OH2 9488   6.489   1.459   2.392 -0.0990 -0.1733  0.3603
 3175TIP3    H1 9489   6.441   1.407   2.326 -0.2512  0.0923  0.2595
 3175TIP3    H2 9490   6.495   1.401   2.468 -2.4132  0.4741  1.1399
 3176TIP3   OH2 9491   4.013   2.239   1.852  0.6008  0.2887 -0.1111
 3176TIP3    H1 9492   3.988   2.327   1.823  1.1683  0.3183 -0.5140
 3176TIP3    H2 9493   3.950   2.181   1.810 -0.3181  0.5667  0.8420
 3177TIP3   OH2 9494   4.561   1.471   2.166 -0.5000 -0.3358 -0.5061
 3177TIP3    H1 9495   4.475   1.491   2.203  0.6482  3.1151  0.6568
 3177TIP3    H2 9496   4.616   1.452   2.242  0.4967  0.7432 -0.9349
 3178TIP3   OH2 9497   2.168   1.890   4.543  0.1982 -0.4772  0.7853
 3178TIP3    H1 9498   2.161   1.971   4.492 -0.1032 -0.4619  0.8482
 3178TIP3    H2 9499   2.164   1.820   4.478  1.6609 -0.4262  0.6091
 3179TIP3   OH2 9500   6.890   6.235   2.492 -0.1038 -0.4804 -0.4217
 3179TIP3    H1 9501   6.864   6.327   2.488 -0.5764 -0.6191 -0.5946
 3179TIP3    H2 9502   6.979   6.234   2.456  0.5448  0.1386  1.0858
 3180TIP3   OH2 9503   2.282   2.990   2.611  0.0551  0.4640  0.2974
 3180TIP3    H1 9504   2.199   2.962   2.650 -1.1493  1.8850 -1.1074
 3180TIP3    H2 9505   2.315   3.058   2.670  0.1876 -0.0287  0.8012
 3181TIP3   OH2 9506   0.648   3.164   0.217  0.1399  0.1569  0.3092
 3181TIP3    H1 9507   0.582   3.144   0.151 -1.0015 -1.1951  1.7719
 3181TIP3    H2 9508   0.609   3.234   0.270 -0.2494 -0.7422  1.2632
 3182TIP3   OH2 9509   3.551   2.258   3.826 -0.3160  0.2165 -0.0587
 3182TIP3    H1 9510   3.645   2.259   3.847 -0.0073 -0.7010 -1.2564
 3182TIP3    H2 9511   3.548   2.267   3.731 -1.3794 -0.9394 -0.1617
 3183TIP3   OH2 9512   6.423   5.950   1.009  0.0253  0.7415  0.4631
 3183TIP3    H1 9513   6.430   5.865   1.053 -1.2454 -0.0176 -0.7423
 3183TIP3    H2 9514   6.510   5.964   0.971 -0.2007 -0.8772 -0.7865
 3184TIP3   OH2 9515   0.883   1.189   0.697 -0.1492 -0.2797 -0.1624
 3184TIP3    H1 9516   0.957   1.133   0.674 -0.0452 -0.2386  0.0784
 3184TIP3    H2 9517   0.852   1.154   0.780 -0.1082  0.0004 -0.0303
 3185TIP3   OH2 9518   2.854   4.177   4.518  0.0524 -0.6324 -0.3237
 3185TIP3    H1 9519   2.763   4.203   4.502 -0.1025  1.0350  2.6160
 3185TIP3    H2 9520   2.904   4.259   4.516  1.3545 -1.4000 -0.9353
 3186TIP3   OH2 9521   6.555   4.842   4.464 -0.1513 -0.0638 -0.6242
 3186TIP3    H1 9522   6.606   4.826   4.543 -0.4895  0.9548 -0.1799
 3186TIP3    H2 9523   6.472   4.797   4.479  0.4427 -1.4100 -1.1926
 3187TIP3   OH2 9524   2.225   6.134   1.666  0.2976  0.0488 -0.0527
 3187TIP3    H1 9525   2.285   6.199   1.631  0.7707  0.0298  0.6975
 3187TIP3    H2 9526   2.278   6.055   1.675  0.8696  0.6444  2.8395
 3188TIP3   OH2 9527   3.324   4.766   3.340  0.1288  0.4630  0.5225
 3188TIP3    H1 9528   3.387   4.794   3.274 -0.2177  0.9863  0.4088
 3188TIP3    H2 9529   3.265   4.707   3.293 -0.4630  1.2875  0.2169
 3189TIP3   OH2 9530   5.471   3.324   0.130 -0.2162 -0.1909  0.0796
 3189TIP3    H1 9531   5.517   3.275   0.198  0.1889  0.3739  0.2241
 3189TIP3    H2 9532   5.378   3.309   0.149 -0.1024 -0.7785  0.2032
 3190TIP3   OH2 9533   3.082   4.231   5.280 -0.2415  0.3451 -0.1799
 3190TIP3    H1 9534   3.003   4.278   5.255 -0.8875  0.4051  1.8067
 3190TIP3    H2 9535   3.079   4.149   5.230 -3.3507 -1.1883  2.1414
 3191TIP3   OH2 9536   3.210   5.049   3.690 -0.1102  0.0074 -0.5718
 3191TIP3    H1 9537   3.151   5.109   3.734 -1.4485 -0.9553 -0.9894
 3191TIP3    H2 9538   3.271   5.105   3.642 -0.9267  1.0169 -0.4501
 3192TIP3   OH2 9539   5.157   2.559   2.602 -0.2251 -0.0318  0.0018
 3192TIP3    H1 9540   5.242   2.529   2.570  0.0693  0.2162  0.5405
 3192TIP3    H2 9541   5.115   2.598   2.525  0.6564  0.9723  0.0097
 3193TIP3   OH2 9542   4.860   2.652   1.881 -0.0770 -0.4420  0.3273
 3193TIP3    H1 9543   4.816   2.708   1.818 -1.3227  0.6846  2.1105
 3193TIP3    H2 9544   4.952   2.654   1.854 -0.4271  0.6978 -0.9147
 3194TIP3   OH2 9545   5.771   2.277   5.748  0.1261 -0.3613 -0.0534
 3194TIP3    H1 9546   5.805   2.203   5.799  0.6675 -0.6701 -0.8320
 3194TIP3    H2 9547   5.754   2.240   5.661  0.8818  0.5184 -0.6030
 3195TIP3   OH2 9548   1.422   5.372   5.151  0.5633 -0.1550 -0.2366
 3195TIP3    H1 9549   1.443   5.284   5.182  0.8800  0.5788  1.8122
 3195TIP3    H2 9550   1.354   5.403   5.211  0.4365  0.9952 -0.9318
 3196TIP3   OH2 9551   4.224   3.895   5.022  0.3286 -0.2838  0.3008
 3196TIP3    H1 9552   4.178   3.864   5.100  0.3260 -1.7451 -0.2387
 3196TIP3    H2 9553   4.197   3.834   4.953  0.7892  0.6244 -0.7039
 3197TIP3   OH2 9554   5.554   0.638   4.078  0.3079  0.0082  0.4181
 3197TIP3    H1 9555   5.587   0.636   4.168  0.7209 -0.6939  0.2535
 3197TIP3    H2 9556   5.463   0.667   4.087 -0.1647 -1.6066  1.2148
 3198TIP3   OH2 9557   2.429   5.114   2.749  0.6027  0.3271 -0.0378
 3198TIP3    H1 9558   2.482   5.177   2.798  1.3493 -0.9310  0.8393
 3198TIP3    H2 9559   2.435   5.143   2.658  0.8625  1.5416  0.3434
 3199TIP3   OH2 9560   4.790   3.998   2.961  0.2421 -0.3965 -0.6027
 3199TIP3    H1 9561   4.824   3.908   2.960  1.0336 -0.1048 -2.1742
 3199TIP3    H2 9562   4.695   3.987   2.957  0.3513 -1.1716 -1.3122
 3200TIP3   OH2 9563   3.820   4.317   1.008 -0.2414 -0.4172  0.5317
 3200TIP3    H1 9564   3.742   4.359   0.971  0.0936  0.5916  0.9120
 3200TIP3    H2 9565   3.886   4.325   0.939  0.4302  1.6079  1.3322
 3201TIP3   OH2 9566   4.016   3.878   4.003 -0.0959 -0.4752  0.2881
 3201TIP3    H1 9567   4.036   3.971   4.008 -0.6182 -0.3574  0.2371
 3201TIP3    H2 9568   4.081   3.843   3.941 -0.7046  0.0882 -0.6889
 3202TIP3   OH2 9569   6.743   0.169   4.250  0.1996  0.3048 -1.0143
 3202TIP3    H1 9570   6.740   0.265   4.248  0.8857  0.3369 -0.7004
 3202TIP3    H2 9571   6.697   0.146   4.331 -0.4142  0.3421 -1.3473
 3203TIP3   OH2 9572   6.774   5.663   0.668  0.4561 -0.0331  0.7734
 3203TIP3    H1 9573   6.770   5.703   0.755  0.3429  0.6254  0.4803
 3203TIP3    H2 9574   6.830   5.722   0.617 -1.7668  1.2450 -0.3860
 3204TIP3   OH2 9575   1.965   3.213   3.981 -0.0487  0.0188 -0.8502
 3204TIP3    H1 9576   1.909   3.226   4.057 -2.0558  0.7156 -2.3706
 3204TIP3    H2 9577   2.033   3.281   3.990 -0.0689 -0.1073  0.4422
 3205TIP3   OH2 9578   6.907   2.435   2.725 -0.0425 -0.6538 -0.2974
 3205TIP3    H1 9579   6.967   2.396   2.789 -0.2087 -0.9492 -0.3180
 3205TIP3    H2 9580   6.828   2.454   2.776  0.2393  0.1829 -0.1627
 3206TIP3   OH2 9581   3.476   6.185   2.240 -0.0839 -0.6999  0.1748
 3206TIP3    H1 9582   3.440   6.119   2.180 -0.0285 -0.1942 -0.4213
 3206TIP3    H2 9583   3.497   6.260   2.184  1.2482 -0.7198  0.6028
 3207TIP3   OH2 9584   1.621   4.806   3.208 -0.7346  0.1373  0.2576
 3207TIP3    H1 9585   1.666   4.760   3.279  0.3747 -0.8037 -0.9931
 3207TIP3    H2 9586   1.690   4.859   3.166 -0.8831 -0.8037 -1.2762
 3208TIP3   OH2 9587   4.923  -0.009   4.204  0.0250 -0.7194 -0.5477
 3208TIP3    H1 9588   4.906   0.065   4.146 -1.1895  0.1712  0.8692
 3208TIP3    H2 9589   4.845  -0.014   4.260 -0.6687 -4.0526 -1.5671
 3209TIP3   OH2 9590   3.086   3.168   1.067 -0.3559 -0.1036  0.1395
 3209TIP3    H1 9591   3.043   3.086   1.091 -1.6018  0.5122  0.0906
 3209TIP3    H2 9592   3.116   3.153   0.977  0.6396 -0.9582  0.5846
 3210TIP3   OH2 9593   3.596   1.632   0.413  0.7321  0.1124  0.3671
 3210TIP3    H1 9594   3.568   1.627   0.504 -1.3687  0.6027 -0.2011
 3210TIP3    H2 9595   3.537   1.572   0.367 -0.8010  2.5807 -1.1668
 3211TIP3   OH2 9596   6.135   4.791   5.619 -0.4644 -0.2573  0.7705
 3211TIP3    H1 9597   6.230   4.801   5.625 -0.1268 -1.6604 -1.2125
 3211TIP3    H2 9598   6.107   4.864   5.563 -0.3419 -0.6588  0.1786
 3212TIP3   OH2 9599   5.482   3.425   2.946  0.3832 -0.1543  0.1100
 3212TIP3    H1 9600   5.544   3.422   2.873  1.9918 -0.3379  1.4190
 3212TIP3    H2 9601   5.486   3.338   2.985 -0.8416 -0.2172  0.1280
 3213TIP3   OH2 9602   4.746   3.011   4.634 -0.0877 -0.3308  0.2097
 3213TIP3    H1 9603   4.800   3.020   4.556 -0.9132  1.7480 -0.1904
 3213TIP3    H2 9604   4.709   2.923   4.628 -0.4396 -0.0781 -1.9512
 3214TIP3   OH2 9605   4.837   5.014   0.367  0.3308  0.0919  0.5929
 3214TIP3    H1 9606   4.771   4.958   0.407 -0.1765 -0.7529 -1.3328
 3214TIP3    H2 9607   4.918   4.963   0.369 -0.0433 -0.6042 -0.8005
 3215TIP3   OH2 9608   6.936   0.163   3.400 -0.3361  0.0814  0.0045
 3215TIP3    H1 9609   6.872   0.099   3.370 -0.7240 -0.6284  2.1649
 3215TIP3    H2 9610   6.944   0.147   3.494 -0.3795  3.1369  0.6425
 3216TIP3   OH2 9611   5.352   4.023   0.261  0.1659  0.2875  0.0787
 3216TIP3    H1 9612   5.355   4.117   0.280  0.3482  0.2232  0.3804
 3216TIP3    H2 9613   5.404   3.983   0.331  0.6145  0.0144 -0.4068
 3217TIP3   OH2 9614   4.185   6.505   0.498  0.4102 -0.3338  0.4428
 3217TIP3    H1 9615   4.151   6.463   0.419 -1.0171 -0.5043  1.1058
 3217TIP3    H2 9616   4.170   6.598   0.484 -3.1993 -0.5191  1.8577
 3218TIP3   OH2 9617   0.508   5.685   2.851 -0.2288 -0.8267  0.0607
 3218TIP3    H1 9618   0.416   5.675   2.827 -0.2898 -0.9163  0.3364
 3218TIP3    H2 9619   0.517   5.778   2.871 -0.0352 -0.6191 -0.9015
 3219TIP3   OH2 9620   1.346   3.580   5.146  0.1376  0.5640 -0.0818
 3219TIP3    H1 9621   1.425   3.541   5.110 -0.0349  0.8882 -0.8215
 3219TIP3    H2 9622   1.378   3.653   5.200  0.4706 -0.6482  1.4514
 3220TIP3   OH2 9623   6.628   0.874   1.023 -0.6986  0.2315  0.5102
 3220TIP3    H1 9624   6.710   0.916   1.049 -0.3152 -0.0940 -0.1285
 3220TIP3    H2 9625   6.626   0.792   1.073  1.1557 -1.5051 -1.9859
 3221TIP3   OH2 9626   0.707   4.663   5.250  0.0626  0.0130 -0.1151
 3221TIP3    H1 9627   0.774   4.629   5.310  0.2804  0.9953  0.2114
 3221TIP3    H2 9628   0.629   4.612   5.271  0.4890 -0.5812  0.0705
 3222TIP3   OH2 9629   4.755   1.267   4.692 -0.0489  0.2699 -0.4200
 3222TIP3    H1 9630   4.778   1.295   4.604  2.2411  0.0744  0.0551
 3222TIP3    H2 9631   4.676   1.214   4.681 -1.1237  2.0751 -2.0344
 3223TIP3   OH2 9632   6.975   2.587   4.868  0.5698  0.1918  0.1091
 3223TIP3    H1 9633   6.964   2.661   4.809 -2.6736 -0.0133  0.3040
 3223TIP3    H2 9634   6.961   2.510   4.813  3.6396 -0.3985 -0.0332
 3224TIP3   OH2 9635   2.942   4.925   0.120  0.5139 -0.3418 -0.3210
 3224TIP3    H1 9636   3.029   4.955   0.147  1.0164 -1.3976 -0.6822
 3224TIP3    H2 9637   2.959   4.842   0.075 -0.6222 -0.2492 -0.9590
 3225TIP3   OH2 9638   1.931   6.315   2.354  0.0272 -0.0620 -0.4756
 3225TIP3    H1 9639   1.922   6.350   2.265 -0.4078 -0.4780 -0.5997
 3225TIP3    H2 9640   1.853   6.347   2.400  1.4481  2.2530  0.4977
 3226TIP3   OH2 9641   6.305   0.459   2.537 -0.1020  0.1134 -0.0057
 3226TIP3    H1 9642   6.335   0.390   2.478 -2.6719 -1.2729  0.1612
 3226TIP3    H2 9643   6.357   0.448   2.616  1.7245  0.4645 -1.1132
 3227TIP3   OH2 9644   5.267   4.780   0.815  0.5864 -0.1529  0.4151
 3227TIP3    H1 9645   5.224   4.715   0.760  0.4910  1.4770 -1.5524
 3227TIP3    H2 9646   5.198   4.842   0.838  1.3919  1.3773 -1.0822
 3228TIP3   OH2 9647   1.040   1.415   0.747 -0.3930  0.5603  0.1220
 3228TIP3    H1 9648   0.980   1.346   0.716 -0.0562  0.4131 -0.2208
 3228TIP3    H2 9649   1.097   1.431   0.672  1.3450 -0.7857  1.0831
 3229TIP3   OH2 9650   2.411   1.345   0.826 -0.1610 -0.5008 -0.3331
 3229TIP3    H1 9651   2.453   1.421   0.868 -0.4119 -0.1954 -0.6263
 3229TIP3    H2 9652   2.320   1.350   0.854 -0.1040 -0.8994 -0.0721
 3230TIP3   OH2 9653   6.107   2.133   2.576  0.0766 -0.3861  0.0274
 3230TIP3    H1 9654   6.023   2.087   2.579  0.1644 -0.6225 -0.7204
 3230TIP3    H2 9655   6.172   2.065   2.594  0.1335 -0.3030  0.1328
 3231TIP3   OH2 9656   0.555   1.136   4.571 -0.1526 -0.1715  0.2224
 3231TIP3    H1 9657   0.483   1.190   4.539 -1.7889 -1.8798  0.9034
 3231TIP3    H2 9658   0.525   1.102   4.655  2.5993  1.3106  1.9893
 3232TIP3   OH2 9659   1.845   1.001   0.101 -0.4808 -0.2195  0.0562
 3232TIP3    H1 9660   1.782   0.934   0.129 -1.4577  1.2157  1.4430
 3232TIP3    H2 9661   1.794   1.058   0.044  0.5555 -1.0403 -1.7817
 3233TIP3   OH2 9662   6.849   3.629   5.718 -0.4839  0.1729  0.1999
 3233TIP3    H1 9663   6.766   3.588   5.743 -0.7334  0.9360  0.6771
 3233TIP3    H2 9664   6.863   3.603   5.627 -0.9508 -0.4375  0.2969
 3234TIP3   OH2 9665   0.431   2.082   2.183 -0.0696  0.5408  0.0371
 3234TIP3    H1 9666   0.503   2.077   2.246 -0.2752  1.3844  0.3561
 3234TIP3    H2 9667   0.355   2.050   2.231 -0.0350  0.2623 -0.0936
 3235TIP3   OH2 9668   2.983   2.373   0.770 -0.4161  0.1703 -0.0297
 3235TIP3    H1 9669   2.980   2.314   0.695  0.7574  1.6742 -1.3199
 3235TIP3    H2 9670   2.891   2.385   0.795 -1.0170  1.0293 -2.3964
 3236TIP3   OH2 9671   4.799   1.617   3.327 -0.2383 -0.7068 -0.0058
 3236TIP3    H1 9672   4.779   1.530   3.292  0.9162 -0.8980 -0.2252
 3236TIP3    H2 9673   4.813   1.671   3.249  1.0050 -0.8048  0.1402
 3237TIP3   OH2 9674   1.094   1.254   2.000  0.1236 -0.2584  0.9881
 3237TIP3    H1 9675   1.160   1.187   1.981  1.1112  1.0048 -0.1842
 3237TIP3    H2 9676   1.126   1.298   2.079 -0.0907 -0.5952  1.2677
 3238TIP3   OH2 9677   3.065   5.604   4.800 -0.4968  0.2758 -0.4748
 3238TIP3    H1 9678   3.083   5.539   4.732  1.2211  0.6430 -0.4146
 3238TIP3    H2 9679   3.026   5.677   4.753 -1.6241 -0.4387 -0.6767
 3239TIP3   OH2 9680   1.498   2.971   5.303 -0.0612  0.0657  0.1376
 3239TIP3    H1 9681   1.451   2.949   5.223  0.2571 -0.3825  0.0705
 3239TIP3    H2 9682   1.436   2.954   5.374  0.6589 -2.6023  0.2183
 3240TIP3   OH2 9683   4.205   1.011   2.692 -0.3427 -0.2530 -0.5717
 3240TIP3    H1 9684   4.223   1.067   2.767  0.2046 -0.8893 -0.2080
 3240TIP3    H2 9685   4.119   0.974   2.710 -0.7095  0.4767 -0.8202
 3241TIP3   OH2 9686   0.180   0.960   2.764  0.3117  0.1314 -0.0149
 3241TIP3    H1 9687   0.236   0.889   2.796 -0.2581 -0.5291 -0.4607
 3241TIP3    H2 9688   0.231   1.000   2.693  1.1474  0.9577  1.0157
 3242TIP3   OH2 9689   4.289   2.804   3.810  0.1170 -0.0821  0.3703
 3242TIP3    H1 9690   4.262   2.749   3.737  0.6167  2.2386 -1.6682
 3242TIP3    H2 9691   4.277   2.749   3.887 -0.8108 -2.4939 -1.3928
 3243TIP3   OH2 9692   2.542   0.967   0.148 -0.1636  0.1126  0.3562
 3243TIP3    H1 9693   2.453   0.998   0.168 -0.2455  1.0480 -1.2619
 3243TIP3    H2 9694   2.599   1.025   0.198 -0.4244 -0.1439  0.9744
 3244TIP3   OH2 9695   5.317   4.205   3.617 -0.2676 -0.1488 -0.9640
 3244TIP3    H1 9696   5.239   4.222   3.564 -0.6172 -0.8367 -0.6794
 3244TIP3    H2 9697   5.353   4.123   3.582  0.0918 -0.0615 -0.8112
 3245TIP3   OH2 9698   2.436   2.858   1.524  0.0080  0.0754  0.4031
 3245TIP3    H1 9699   2.418   2.873   1.431  1.2345  1.0500  0.3013
 3245TIP3    H2 9700   2.466   2.768   1.528 -0.9226 -0.2735  0.0024
 3246TIP3   OH2 9701   1.205   1.515   3.216 -0.6824 -0.1129 -0.2656
 3246TIP3    H1 9702   1.301   1.521   3.218 -0.7187  1.0935 -1.0676
 3246TIP3    H2 9703   1.185   1.474   3.132 -0.8913  0.7065 -0.6283
 3247TIP3   OH2 9704   3.772   3.349   0.237 -0.1141  0.0060 -0.4254
 3247TIP3    H1 9705   3.829   3.273   0.251 -1.2751 -0.9151 -0.5791
 3247TIP3    H2 9706   3.684   3.317   0.255 -0.7185  1.0969 -1.3132
 3248TIP3   OH2 9707   5.752   5.060   0.869 -0.1685 -0.4207 -0.3249
 3248TIP3    H1 9708   5.727   5.072   0.778  0.5319 -0.6655 -0.5531
 3248TIP3    H2 9709   5.760   5.149   0.903 -0.1080 -0.3252 -0.5887
 3249TIP3   OH2 9710   3.847   4.207   3.449  0.2867 -0.1380 -0.1725
 3249TIP3    H1 9711   3.917   4.198   3.513 -1.5419 -0.6612  1.8836
 3249TIP3    H2 9712   3.890   4.245   3.372  3.0280 -1.5746  0.5105
 3250TIP3   OH2 9713   3.279   3.280   5.649 -0.8560 -0.1918  0.1711
 3250TIP3    H1 9714   3.335   3.252   5.721 -0.5146  0.6343  0.2399
 3250TIP3    H2 9715   3.333   3.272   5.571 -1.5264 -1.9992 -0.1515
 3251TIP3   OH2 9716   4.494   2.646   0.184  0.5740 -0.1606 -0.3990
 3251TIP3    H1 9717   4.467   2.667   0.095  0.0564  0.1648 -0.1686
 3251TIP3    H2 9718   4.486   2.550   0.189 -3.5165  0.0514  0.5433
 3252TIP3   OH2 9719   3.276   1.810   4.719  1.0917 -0.2279  0.2839
 3252TIP3    H1 9720   3.272   1.853   4.804  1.0236 -0.3461  0.3410
 3252TIP3    H2 9721   3.210   1.741   4.725  2.3864 -1.4528  0.8045
 3253TIP3   OH2 9722   7.092   0.763   5.511 -0.4756  0.0433  0.0985
 3253TIP3    H1 9723   7.122   0.826   5.446 -0.8934  1.0606  0.8715
 3253TIP3    H2 9724   7.101   0.678   5.467  2.4203  0.3628 -0.1104
 3254TIP3   OH2 9725   0.666   0.133   4.553  0.4727  0.0648  0.2247
 3254TIP3    H1 9726   0.674   0.053   4.605 -3.1668 -0.5776  0.0453
 3254TIP3    H2 9727   0.638   0.200   4.615 -0.7472  0.0907 -0.3319
 3255TIP3   OH2 9728   6.756   1.191   0.862 -0.6188 -0.6953 -0.4388
 3255TIP3    H1 9729   6.808   1.181   0.941  0.3838  0.5272 -0.9217
 3255TIP3    H2 9730   6.778   1.114   0.809  1.9302  0.5226 -1.2933
 3256TIP3   OH2 9731   5.192   1.767   2.347 -0.0780  0.7587  0.2724
 3256TIP3    H1 9732   5.181   1.785   2.253  1.8856  1.2056  0.0776
 3256TIP3    H2 9733   5.115   1.806   2.388 -1.0235  0.4875 -1.1447
 3257TIP3   OH2 9734   6.487   4.947   2.221  0.3640 -0.5703 -0.1374
 3257TIP3    H1 9735   6.499   4.854   2.234 -1.6556 -0.5781  2.4227
 3257TIP3    H2 9736   6.480   4.984   2.309  1.2945  2.0608 -1.0531
 3258TIP3   OH2 9737   2.814   3.784   0.339 -0.4054  0.4216  0.0232
 3258TIP3    H1 9738   2.776   3.730   0.407 -2.2893  2.6184  0.8624
 3258TIP3    H2 9739   2.754   3.776   0.265 -0.6498  1.2006  0.1198
 3259TIP3   OH2 9740   5.314   2.334   5.161  0.0887  0.2387  0.3009
 3259TIP3    H1 9741   5.326   2.273   5.233 -1.6216 -0.3022  0.1567
 3259TIP3    H2 9742   5.364   2.412   5.187  1.7814 -0.9557  0.7656
 3260TIP3   OH2 9743   0.576   1.788   3.357  0.0644  0.0370  0.0691
 3260TIP3    H1 9744   0.647   1.820   3.302  0.9802 -1.2469  0.4467
 3260TIP3    H2 9745   0.518   1.742   3.296  0.9126 -1.1080  0.0816
 3261TIP3   OH2 9746   1.156   3.337   4.612  0.3523 -0.5568  0.2847
 3261TIP3    H1 9747   1.118   3.319   4.698 -1.4532 -1.2124 -0.6089
 3261TIP3    H2 9748   1.220   3.267   4.599  0.4058 -0.6390  0.9594
 3262TIP3   OH2 9749   6.421   0.315   1.681 -0.4254  0.2419  0.7967
 3262TIP3    H1 9750   6.485   0.325   1.611  0.6450  0.3038  1.7366
 3262TIP3    H2 9751   6.475   0.305   1.760 -1.5853  0.6105  1.6607
 3263TIP3   OH2 9752   5.156   1.133   4.858 -0.1346  0.0911  0.0444
 3263TIP3    H1 9753   5.127   1.219   4.828  0.3666  0.5361  0.8060
 3263TIP3    H2 9754   5.087   1.073   4.829 -1.5129  1.0237  1.2365
 3264TIP3   OH2 9755   4.797   3.380   1.651  0.0380  0.2872  0.7424
 3264TIP3    H1 9756   4.868   3.378   1.588 -1.1735 -1.3060 -0.6582
 3264TIP3    H2 9757   4.784   3.473   1.670  0.9724  0.7433 -0.7343
 3265TIP3   OH2 9758   4.591   0.896   0.558  0.6945  0.1080 -0.0197
 3265TIP3    H1 9759   4.508   0.940   0.542  0.6047  1.1355  2.7098
 3265TIP3    H2 9760   4.572   0.803   0.548 -0.4599  0.4004 -0.6663
 3266TIP3   OH2 9761   1.686   3.168   2.247  0.1433 -0.3640  0.2420
 3266TIP3    H1 9762   1.675   3.249   2.297  1.2149 -0.3626  0.5017
 3266TIP3    H2 9763   1.756   3.121   2.292  0.5225 -0.7750 -0.7449
 3267TIP3   OH2 9764   5.224   1.520   2.493 -0.0395  0.3471  0.3869
 3267TIP3    H1 9765   5.230   1.600   2.440 -0.5438 -1.0795 -1.9649
 3267TIP3    H2 9766   5.136   1.524   2.532 -0.2638  0.6866 -0.1456
 3268TIP3   OH2 9767   5.691   6.666   1.654 -0.6658 -0.5434 -0.3130
 3268TIP3    H1 9768   5.619   6.693   1.712 -0.6100 -1.6209  0.2814
 3268TIP3    H2 9769   5.661   6.582   1.617  0.5316 -1.3117  0.4078
 3269TIP3   OH2 9770   4.447   4.033   5.102 -0.2946  0.6815 -0.5093
 3269TIP3    H1 9771   4.476   4.000   5.187 -1.0995  2.9707  0.7385
 3269TIP3    H2 9772   4.366   3.985   5.084 -0.8590  1.1441  0.7167
 3270TIP3   OH2 9773   3.523   4.088   3.019  0.3306  0.5247  0.7285
 3270TIP3    H1 9774   3.554   4.127   2.937  1.1046  0.8866  1.1807
 3270TIP3    H2 9775   3.601   4.079   3.073  0.1654 -1.6484  0.6718
 3271TIP3   OH2 9776   1.378   1.683   5.821 -0.1176  0.5062 -0.1276
 3271TIP3    H1 9777   1.453   1.703   5.766  0.0501 -0.0648 -0.1181
 3271TIP3    H2 9778   1.411   1.619   5.884 -1.0515 -1.2011 -1.2796
 3272TIP3   OH2 9779   3.187   5.308   0.732  0.5136 -0.2681  0.1742
 3272TIP3    H1 9780   3.205   5.386   0.680 -0.2374 -0.0252  0.2614
 3272TIP3    H2 9781   3.252   5.244   0.703  1.8269  0.7213  0.8630
 3273TIP3   OH2 9782   5.661   2.428   3.854  0.2392 -0.3196 -0.2697
 3273TIP3    H1 9783   5.626   2.517   3.850  1.5365  0.2835  0.8892
 3273TIP3    H2 9784   5.705   2.424   3.939  1.0928 -1.7286 -0.7517
 3274TIP3   OH2 9785   7.086   6.490   4.611  0.3624 -0.1717 -0.2312
 3274TIP3    H1 9786   7.031   6.568   4.604  1.6520  0.6727 -1.7204
 3274TIP3    H2 9787   7.048   6.428   4.549 -0.0254 -0.3282  0.1578
 3275TIP3   OH2 9788   2.499   0.016   0.567  0.1688  0.5282  0.2099
 3275TIP3    H1 9789   2.503   0.103   0.528  0.9496  1.9374  3.1711
 3275TIP3    H2 9790   2.565   0.017   0.637 -0.3316 -2.1859  0.8560
 3276TIP3   OH2 9791   6.646   4.043   3.652 -0.8748  0.3203  0.0191
 3276TIP3    H1 9792   6.577   4.110   3.657 -0.0210  1.3149 -1.0445
 3276TIP3    H2 9793   6.669   4.026   3.744  0.0602  2.7733  0.3195
 3277TIP3   OH2 9794   0.926   3.406   0.106  0.7025 -0.2167 -0.0256
 3277TIP3    H1 9795   0.855   3.342   0.099  0.1612  0.2774  0.7455
 3277TIP3    H2 9796   0.931   3.426   0.199  3.0419 -1.5132  0.1827
 3278TIP3   OH2 9797   2.689   0.269   5.234  0.0360  0.6103  0.0885
 3278TIP3    H1 9798   2.748   0.343   5.222 -2.0790  2.4101  0.0049
 3278TIP3    H2 9799   2.688   0.253   5.328 -0.1995  1.3611  0.2226
 3279TIP3   OH2 9800   4.487   2.410   3.332 -0.2884  0.0738  0.3011
 3279TIP3    H1 9801   4.460   2.378   3.418  1.2392  0.4366  0.9509
 3279TIP3    H2 9802   4.451   2.498   3.327  0.4459  0.4276  1.0094
 3280TIP3   OH2 9803   4.838   4.658   4.818  0.2684  0.1682 -0.6517
 3280TIP3    H1 9804   4.834   4.563   4.806 -0.7888  0.2909 -1.3148
 3280TIP3    H2 9805   4.792   4.694   4.743 -0.6445  1.1556  0.3378
 3281TIP3   OH2 9806   0.672   3.542   2.584  0.7972 -0.1202  0.1456
 3281TIP3    H1 9807   0.666   3.512   2.675  0.6603 -0.3761  0.0510
 3281TIP3    H2 9808   0.766   3.540   2.565  1.0424  1.7036  0.8776
 3282TIP3   OH2 9809   4.332   0.562   4.645 -0.2447 -0.1276 -0.0171
 3282TIP3    H1 9810   4.324   0.524   4.733  0.3357  0.4582  0.2982
 3282TIP3    H2 9811   4.418   0.532   4.614 -1.3109 -2.0430 -1.2357
 3283TIP3   OH2 9812   0.529   2.792   4.191 -0.0363 -0.6640 -0.4488
 3283TIP3    H1 9813   0.569   2.874   4.163 -1.7220  0.6063  0.6343
 3283TIP3    H2 9814   0.567   2.775   4.277 -0.9856 -0.0268  0.1131
 3284TIP3   OH2 9815   3.620   2.404   2.768  0.2736  0.2419  0.3387
 3284TIP3    H1 9816   3.536   2.358   2.774  1.1905 -1.7844 -0.9593
 3284TIP3    H2 9817   3.610   2.463   2.694  0.7283 -1.9673 -1.6268
 3285TIP3   OH2 9818   4.390   4.161   3.881 -0.4839 -0.0779  0.6224
 3285TIP3    H1 9819   4.417   4.079   3.923  2.2753  0.3779 -0.0754
 3285TIP3    H2 9820   4.393   4.142   3.788 -1.5046  0.3626  0.4903
 3286TIP3   OH2 9821   0.435   5.864   5.037  0.2317 -0.4822  0.2273
 3286TIP3    H1 9822   0.477   5.932   4.984  1.2043 -0.6692  0.7325
 3286TIP3    H2 9823   0.415   5.907   5.120  0.6300 -0.7473  0.4629
 3287TIP3   OH2 9824   0.092   2.165   0.759 -0.3911  0.4932  0.6249
 3287TIP3    H1 9825   0.068   2.255   0.738  0.1854  0.4453 -0.3335
 3287TIP3    H2 9826   0.157   2.173   0.829 -0.0428  0.8607  0.2685
 3288TIP3   OH2 9827   1.440   2.183   0.795  0.1621 -0.4359  0.0787
 3288TIP3    H1 9828   1.402   2.181   0.707  1.7954 -0.0035 -0.6931
 3288TIP3    H2 9829   1.365   2.182   0.854 -0.9633 -1.9372 -1.2912
 3289TIP3   OH2 9830   1.571   2.299   2.404 -0.4655 -0.3837  0.1768
 3289TIP3    H1 9831   1.594   2.389   2.382  0.4624 -0.5076  0.5926
 3289TIP3    H2 9832   1.489   2.306   2.453 -1.4745  0.0551 -1.4875
 3290TIP3   OH2 9833   5.466   2.379   5.627 -0.7156 -0.2421  0.0936
 3290TIP3    H1 9834   5.375   2.393   5.602 -0.6535 -1.6459 -1.0693
 3290TIP3    H2 9835   5.462   2.330   5.709 -0.9512  1.3982  1.1141
 3291TIP3   OH2 9836   6.371   1.610   3.457  0.1692 -0.2482  0.1084
 3291TIP3    H1 9837   6.439   1.673   3.483  0.3083  0.5825 -2.0873
 3291TIP3    H2 9838   6.372   1.544   3.527  0.6163  1.6921  2.0479
 3292TIP3   OH2 9839   0.432   6.518   3.252  0.0483  0.5782 -0.2635
 3292TIP3    H1 9840   0.446   6.613   3.253  0.1498  0.5730  0.9478
 3292TIP3    H2 9841   0.497   6.484   3.314 -2.0945  0.0779  1.8737
 3293TIP3   OH2 9842   5.442   0.058   5.696  0.1626 -0.6909 -0.0900
 3293TIP3    H1 9843   5.432   0.100   5.781 -1.1462  1.5526 -1.2650
 3293TIP3    H2 9844   5.518   0.100   5.657 -1.8537  1.6539 -1.7593
 3294TIP3   OH2 9845   1.560   1.316   4.727 -0.2824 -0.0526 -0.0111
 3294TIP3    H1 9846   1.605   1.390   4.687 -0.3161  0.2716  0.5582
 3294TIP3    H2 9847   1.527   1.266   4.652  2.0201 -0.9440 -0.5165
 3295TIP3   OH2 9848   2.398   2.682   1.840  0.5558  0.0942  0.0527
 3295TIP3    H1 9849   2.490   2.665   1.820  0.9314  0.9152  0.9715
 3295TIP3    H2 9850   2.398   2.770   1.877 -0.2377 -0.7672  2.2755
 3296TIP3   OH2 9851   2.220   0.483   5.735  0.1544  0.5239  0.3933
 3296TIP3    H1 9852   2.297   0.495   5.791  1.3881 -0.2973 -1.0802
 3296TIP3    H2 9853   2.242   0.410   5.678 -2.0217 -0.2118  0.4020
 3297TIP3   OH2 9854   2.058   5.555   1.658  0.0897 -0.3303  0.7572
 3297TIP3    H1 9855   2.096   5.643   1.650 -0.2773 -0.2746 -0.7163
 3297TIP3    H2 9856   2.134   5.497   1.659  0.3035 -0.1328 -0.8018
 3298TIP3   OH2 9857   7.085   6.418   0.804 -0.3190  0.1128 -0.0347
 3298TIP3    H1 9858   7.108   6.506   0.775  0.1071  0.0759  0.1825
 3298TIP3    H2 9859   7.131   6.407   0.887 -0.1047 -0.4354 -0.2206
 3299TIP3   OH2 9860   4.181   2.304   3.217 -0.4642 -0.2558 -0.0584
 3299TIP3    H1 9861   4.113   2.275   3.155  0.2988 -0.6653 -0.7243
 3299TIP3    H2 9862   4.244   2.350   3.162 -0.4871  0.6356  0.6470
 3300TIP3   OH2 9863   0.550   6.127   0.700  0.6701  0.6257  0.3518
 3300TIP3    H1 9864   0.463   6.133   0.741  0.8213 -1.1296  0.9906
 3300TIP3    H2 9865   0.536   6.073   0.623  1.3530 -0.4431  0.9607
 3301TIP3   OH2 9866   2.251   3.096   4.022  0.0023 -0.0676  0.0700
 3301TIP3    H1 9867   2.297   3.178   4.038 -0.4318 -0.0417  1.3807
 3301TIP3    H2 9868   2.186   3.116   3.954  0.4120  0.4716 -0.1599
 3302TIP3   OH2 9869   1.680   6.221   2.827 -0.3530  0.2238 -0.7207
 3302TIP3    H1 9870   1.588   6.247   2.838 -0.0836  1.6102 -1.4645
 3302TIP3    H2 9871   1.709   6.200   2.916 -0.6854  2.3716 -0.0290
 3303TIP3   OH2 9872   6.810   1.662   5.692  0.1758 -0.3334 -0.0125
 3303TIP3    H1 9873   6.808   1.592   5.758 -0.0735  0.5280  0.9183
 3303TIP3    H2 9874   6.817   1.615   5.609 -1.3381 -1.5369  0.4793
 3304TIP3   OH2 9875   6.305   6.310   2.904 -0.4849 -0.0225  0.5209
 3304TIP3    H1 9876   6.301   6.387   2.961 -0.2763  0.2228  0.2090
 3304TIP3    H2 9877   6.366   6.335   2.834 -1.1753 -0.1146 -0.1207
 3305TIP3   OH2 9878   1.246   3.744   3.954 -0.4900  0.2310  0.0172
 3305TIP3    H1 9879   1.241   3.739   3.858  0.5224  0.2359 -0.0466
 3305TIP3    H2 9880   1.320   3.687   3.977 -1.9891 -1.4166  0.9779
 3306TIP3   OH2 9881   7.113   1.172   2.177  0.1310  0.1678  0.5526
 3306TIP3    H1 9882   7.094   1.078   2.177  2.7733 -0.4526 -0.3700
 3306TIP3    H2 9883   7.161   1.187   2.259 -0.7662  0.8381  0.9640
 3307TIP3   OH2 9884   1.531   1.399   0.321 -0.0937 -0.0112 -0.4497
 3307TIP3    H1 9885   1.490   1.346   0.252 -1.4581 -0.9212  1.0055
 3307TIP3    H2 9886   1.621   1.367   0.325 -0.4695 -1.1634 -0.6529
 3308TIP3   OH2 9887   0.163   1.597   1.446 -0.5190  0.1584 -0.5530
 3308TIP3    H1 9888   0.242   1.565   1.490 -1.0121 -0.8595 -0.3942
 3308TIP3    H2 9889   0.194   1.671   1.393  0.7595 -0.8625 -1.3036
 3309TIP3   OH2 9890   2.558   5.341   2.101  0.1286  0.4781  0.7210
 3309TIP3    H1 9891   2.565   5.250   2.075  1.5471 -0.3875  3.6953
 3309TIP3    H2 9892   2.468   5.365   2.078  0.0514 -1.2679 -1.1107
 3310TIP3   OH2 9893   2.295   5.816   3.770 -0.3211 -0.0773 -0.2268
 3310TIP3    H1 9894   2.349   5.853   3.701  0.3999 -1.3482 -0.3740
 3310TIP3    H2 9895   2.211   5.797   3.727 -0.7760  1.4810 -0.1009
 3311TIP3   OH2 9896   5.356   3.247   4.743  0.3491 -0.0334  0.0225
 3311TIP3    H1 9897   5.436   3.281   4.703  1.8278 -0.0349  2.7056
 3311TIP3    H2 9898   5.379   3.159   4.772 -0.2805  0.2810  1.6153
 3312TIP3   OH2 9899   1.614   5.634   4.734 -0.2625 -0.2069 -0.2792
 3312TIP3    H1 9900   1.678   5.625   4.664  1.4479 -0.5005  1.2485
 3312TIP3    H2 9901   1.543   5.575   4.710  0.2829 -0.3099 -1.7266
 3313TIP3   OH2 9902   6.266   1.325   1.656  0.1436  0.2210  0.6562
 3313TIP3    H1 9903   6.247   1.239   1.618  2.0140 -0.6473  1.5478
 3313TIP3    H2 9904   6.314   1.372   1.588 -1.1306  0.7226  0.0602
 3314TIP3   OH2 9905   1.379   6.608   5.888 -0.1753  0.1312  0.3710
 3314TIP3    H1 9906   1.303   6.558   5.859 -0.8124 -0.0121  2.1479
 3314TIP3    H2 9907   1.451   6.576   5.835 -1.1638 -0.4059 -0.6984
 3315TIP3   OH2 9908   2.457   2.966   3.606 -0.1489  0.1218  0.3079
 3315TIP3    H1 9909   2.475   2.954   3.513  1.2725 -0.5493  0.6365
 3315TIP3    H2 9910   2.520   2.908   3.650 -0.9153  0.2885  1.6810
 3316TIP3   OH2 9911   6.245   5.629   5.403 -0.2649 -0.1191 -0.2539
 3316TIP3    H1 9912   6.328   5.640   5.449 -1.2735 -0.1546  1.6579
 3316TIP3    H2 9913   6.181   5.672   5.459 -1.5230  0.1034 -1.8061
 3317TIP3   OH2 9914   1.814   3.971   3.757 -0.1081 -0.1111  0.3980
 3317TIP3    H1 9915   1.771   3.892   3.788 -0.2138 -0.0919  0.3021
 3317TIP3    H2 9916   1.766   3.995   3.677  0.9046 -0.8243 -0.4519
 3318TIP3   OH2 9917   2.801   2.269   1.804  0.3054  0.1192  0.1253
 3318TIP3    H1 9918   2.731   2.299   1.862  0.2425  0.4282 -0.1084
 3318TIP3    H2 9919   2.875   2.326   1.823  0.6700 -0.5422  0.7449
 3319TIP3   OH2 9920   5.432   5.862   0.174 -0.0119 -0.0524 -0.2897
 3319TIP3    H1 9921   5.521   5.859   0.209 -0.3970  0.4871  0.7967
 3319TIP3    H2 9922   5.443   5.870   0.079  1.1023  0.3369 -0.1393
 3320TIP3   OH2 9923   0.067   5.092   0.416  0.5142  0.1959 -0.2292
 3320TIP3    H1 9924  -0.021   5.055   0.419  0.5799  0.0908  0.6794
 3320TIP3    H2 9925   0.115   5.037   0.354  0.0539 -0.0031 -0.4082
 3321TIP3   OH2 9926   4.879   6.558   0.169 -0.2152  0.6015  0.7595
 3321TIP3    H1 9927   4.894   6.524   0.257 -2.8318 -0.1856  0.9562
 3321TIP3    H2 9928   4.920   6.494   0.111  1.0492  0.8487  1.3463
 3322TIP3   OH2 9929   3.690   2.509  -0.015 -0.2006 -0.4262 -0.6789
 3322TIP3    H1 9930   3.719   2.593   0.020  0.6817 -1.1520  0.3790
 3322TIP3    H2 9931   3.602   2.497   0.022  0.6223 -1.0753  1.2146
 3323TIP3   OH2 9932   5.985   3.798   4.548 -0.0041 -0.4945 -0.3330
 3323TIP3    H1 9933   5.988   3.858   4.473 -0.4996  0.0839  0.1051
 3323TIP3    H2 9934   6.026   3.718   4.515 -1.0296 -0.5642 -1.5136
 3324TIP3   OH2 9935   6.422   6.454   3.456  0.4732  0.4666  0.9741
 3324TIP3    H1 9936   6.425   6.413   3.543  0.7403  0.6852  1.0730
 3324TIP3    H2 9937   6.498   6.418   3.410  0.3698  0.4018  0.8543
 3325TIP3   OH2 9938   4.342   2.130   2.670 -0.0334 -0.4372  0.6188
 3325TIP3    H1 9939   4.434   2.112   2.652 -0.1867 -1.2476  0.6053
 3325TIP3    H2 9940   4.322   2.076   2.747 -0.2518  0.4725  1.2229
 3326TIP3   OH2 9941   1.338   0.838   5.481  0.6370 -0.0362 -0.2676
 3326TIP3    H1 9942   1.386   0.911   5.521  1.3536 -0.7756  0.2576
 3326TIP3    H2 9943   1.287   0.801   5.554 -2.4672  1.9959 -1.1907
 3327TIP3   OH2 9944   6.175   1.279   3.765  0.3219  0.1280 -0.9799
 3327TIP3    H1 9945   6.153   1.304   3.855 -1.2258  1.3736 -1.6583
 3327TIP3    H2 9946   6.218   1.357   3.728  1.2092 -0.4752 -1.2539
 3328TIP3   OH2 9947   1.004   5.863   1.749  0.0460  0.2222  0.3784
 3328TIP3    H1 9948   1.002   5.798   1.819 -0.1114  0.1435  0.3019
 3328TIP3    H2 9949   1.094   5.861   1.716 -0.8561 -2.9061 -2.3768
 3329TIP3   OH2 9950   0.297   6.151   0.787 -0.3160 -0.3222 -0.8600
 3329TIP3    H1 9951   0.287   6.181   0.878 -0.1699  1.9352 -1.5555
 3329TIP3    H2 9952   0.255   6.065   0.787  0.4616 -0.8037  1.5426
 3330TIP3   OH2 9953   2.127   1.072   4.333  0.0484 -0.2645 -0.0469
 3330TIP3    H1 9954   2.117   1.098   4.242  0.4552  0.8098  0.2054
 3330TIP3    H2 9955   2.116   1.153   4.383 -1.5586 -1.0592  0.9701
 3331TIP3   OH2 9956   1.411   4.454   3.228  0.0074  0.1054  0.0019
 3331TIP3    H1 9957   1.342   4.462   3.293  0.4132  1.9439  0.2666
 3331TIP3    H2 9958   1.488   4.427   3.278  0.1448  0.8147  0.1853
 3332TIP3   OH2 9959   1.082   6.064   0.952  0.2915  0.3228 -0.5390
 3332TIP3    H1 9960   1.049   5.985   0.993  0.6689  0.5886  0.3137
 3332TIP3    H2 9961   1.112   6.036   0.865 -0.1047 -0.3458 -0.4639
 3333TIP3   OH2 9962   1.655   2.096   2.748  0.2617 -0.3021  0.6037
 3333TIP3    H1 9963   1.635   2.086   2.655 -0.4739 -0.6717  0.7844
 3333TIP3    H2 9964   1.742   2.058   2.759 -0.4860 -2.2157  0.4074
 3334TIP3   OH2 9965   0.751   5.965   1.174 -0.1197  0.2041 -0.1605
 3334TIP3    H1 9966   0.758   5.988   1.267  3.6275 -0.0477 -0.2111
 3334TIP3    H2 9967   0.719   6.045   1.132 -1.0743  0.5828  1.2365
 3335TIP3   OH2 9968   4.291   6.525   2.838 -0.1756 -0.4077 -0.6255
 3335TIP3    H1 9969   4.260   6.504   2.750 -0.8278 -2.1203 -0.0192
 3335TIP3    H2 9970   4.354   6.457   2.859  0.5610  0.4220 -0.0457
 3336TIP3   OH2 9971   5.721   0.312   3.272  0.4121 -0.1272  0.0409
 3336TIP3    H1 9972   5.700   0.373   3.201  0.3813  1.4771  1.3824
 3336TIP3    H2 9973   5.816   0.318   3.281  0.8155 -2.4839 -1.6891
 3337TIP3   OH2 9974   1.127   3.700   5.407  0.2001  0.4788 -0.3822
 3337TIP3    H1 9975   1.124   3.606   5.427  2.2729  0.3645 -0.3260
 3337TIP3    H2 9976   1.095   3.707   5.317 -1.3469 -0.0656  0.0889
 3338TIP3   OH2 9977   4.025   4.837   1.988  0.0760  0.1730  0.1597
 3338TIP3    H1 9978   4.046   4.909   2.048  0.1546  0.4757 -0.2275
 3338TIP3    H2 9979   4.014   4.879   1.903 -0.7973 -0.1583  0.1004
 3339TIP3   OH2 9980   7.178   1.930   2.520 -0.5552 -0.0428  0.5998
 3339TIP3    H1 9981   7.169   1.882   2.438 -0.6024  0.7312  0.1454
 3339TIP3    H2 9982   7.247   1.884   2.567  0.4068  0.2824 -0.4503
 3340TIP3   OH2 9983   0.476   1.178   0.099 -0.2463  0.2711  1.0854
 3340TIP3    H1 9984   0.517   1.252   0.054  0.4556 -0.2589  0.8497
 3340TIP3    H2 9985   0.541   1.148   0.162 -0.9095  0.4760  1.8959
 3341TIP3   OH2 9986   3.761   4.091   0.284 -0.0904  0.4665  0.3312
 3341TIP3    H1 9987   3.839   4.145   0.290 -0.0628  0.6036 -0.9764
 3341TIP3    H2 9988   3.689   4.152   0.298 -0.0196  0.7024 -0.2675
 3342TIP3   OH2 9989   5.695   2.888   4.840  0.3900  0.4662  0.1262
 3342TIP3    H1 9990   5.776   2.930   4.812  0.3311  0.5967  0.1527
 3342TIP3    H2 9991   5.630   2.916   4.776  0.0557  1.4730  0.8841
 3343TIP3   OH2 9992   6.560   1.785   2.369  0.2703  0.6226 -0.0592
 3343TIP3    H1 9993   6.630   1.844   2.343  1.8707 -0.5451  1.4252
 3343TIP3    H2 9994   6.546   1.803   2.462 -1.4971  0.8905 -0.3276
 3344TIP3   OH2 9995   0.165   3.984   5.369 -0.4817 -0.0525 -0.3793
 3344TIP3    H1 9996   0.194   3.932   5.444  1.0354  1.2988  0.0062
 3344TIP3    H2 9997   0.069   3.984   5.377 -0.3525  1.2024  2.3967
 3345TIP3   OH2 9998   2.647   3.389   0.688  0.4511  0.2143 -0.1804
 3345TIP3    H1 9999   2.721   3.330   0.704  2.1963  2.1336 -0.7517
 3345TIP3    H210000   2.659   3.418   0.597 -1.2044  0.3550 -0.3853
 3346TIP3   OH210001   5.102   0.969   0.441  0.1341  0.3396  0.0567
 3346TIP3    H110002   5.014   0.947   0.410 -0.0382 -1.9605  1.9251
 3346TIP3    H210003   5.087   1.020   0.521  0.4424 -1.2141  1.1344
 3347TIP3   OH210004   1.694   6.699   0.315 -0.0173  0.4339 -0.0524
 3347TIP3    H110005   1.750   6.635   0.270 -0.1416 -0.5688  1.1849
 3347TIP3    H210006   1.742   6.722   0.394  0.1454  2.1025 -0.6026
 3348TIP3   OH210007   7.018   5.604   5.762  0.2077  0.6941 -0.5840
 3348TIP3    H110008   7.082   5.551   5.716  0.6962  1.5672 -0.9464
 3348TIP3    H210009   7.064   5.686   5.781 -1.0748  1.7187 -1.6981
 3349TIP3   OH210010   3.494   0.101   0.192  0.5194 -0.1136 -0.0181
 3349TIP3    H110011   3.483   0.141   0.106  1.7637  2.1550  0.7825
 3349TIP3    H210012   3.535   0.017   0.175  1.4216  0.6151 -1.6259
 3350TIP3   OH210013   1.294   3.524   1.476  0.1693  0.4759 -0.3484
 3350TIP3    H110014   1.306   3.549   1.385  0.8262  1.9155  0.1066
 3350TIP3    H210015   1.281   3.607   1.523  2.9220  0.1347  1.3054
 3351TIP3   OH210016   5.039   3.054   3.893 -0.1907  0.1000  0.8714
 3351TIP3    H110017   5.075   2.969   3.916  0.0350 -0.2307 -0.6090
 3351TIP3    H210018   5.114   3.105   3.862 -0.5955  0.2506  0.1231
 3352TIP3   OH210019   0.114   5.453   2.003  0.2410  0.1064  0.3402
 3352TIP3    H110020   0.050   5.465   1.933  0.1293  1.6118  0.6604
 3352TIP3    H210021   0.082   5.508   2.075  0.8762 -0.6356  1.2213
 3353TIP3   OH210022   4.527   3.458   3.630  0.7175 -0.1029  0.3024
 3353TIP3    H110023   4.525   3.437   3.723  0.7811  0.0649  0.3423
 3353TIP3    H210024   4.609   3.421   3.599  0.5031 -0.5159  0.2267
 3354TIP3   OH210025   4.696   4.787   1.914  0.1123  0.0417 -0.8316
 3354TIP3    H110026   4.667   4.877   1.899  1.0836  0.3556 -0.9112
 3354TIP3    H210027   4.643   4.734   1.855 -0.7887  0.5066 -0.4509
 3355TIP3   OH210028   3.548   1.010   3.944 -0.1642  0.1528 -0.2871
 3355TIP3    H110029   3.612   1.079   3.927 -0.0664  0.1941  0.2492
 3355TIP3    H210030   3.536   1.011   4.039  0.6323 -1.2789 -0.1545
 3356TIP3   OH210031   3.660   2.651   1.623  0.2244 -0.5844  0.2371
 3356TIP3    H110032   3.721   2.653   1.550  0.7807  0.1295  0.7130
 3356TIP3    H210033   3.638   2.743   1.639 -2.7515 -0.8670 -1.3794
 3357TIP3   OH210034   4.038   2.672   4.192 -0.6387  0.6151  0.6960
 3357TIP3    H110035   4.118   2.661   4.141 -1.0396  0.5029  0.0735
 3357TIP3    H210036   4.028   2.589   4.239 -0.2574  0.7251  0.9703
 3358TIP3   OH210037   2.806   6.403   0.806  0.6148 -0.5906  0.2005
 3358TIP3    H110038   2.778   6.356   0.884  0.8573  0.4095  0.8945
 3358TIP3    H210039   2.857   6.338   0.757  1.4424 -0.9041  1.4301
 3359TIP3   OH210040   0.729   0.884   0.507 -0.2291  0.7409 -0.4119
 3359TIP3    H110041   0.662   0.846   0.565 -0.0138  2.3821  0.9942
 3359TIP3    H210042   0.802   0.905   0.565  0.8612  0.5220 -1.6542
 3360TIP3   OH210043   1.260   6.082   0.239  0.1103 -0.5337  0.0026
 3360TIP3    H110044   1.342   6.130   0.248  0.7164 -1.5128 -0.1169
 3360TIP3    H210045   1.259   6.022   0.314 -1.4438  0.7995  1.1112
 3361TIP3   OH210046   3.863   4.210   4.834 -0.3337 -0.0634  0.3218
 3361TIP3    H110047   3.957   4.228   4.832 -0.4745  0.6711 -0.7229
 3361TIP3    H210048   3.822   4.292   4.807 -1.2803 -0.3926  0.7061
 3362TIP3   OH210049   4.218   0.235   2.233 -0.2076  0.3004 -0.3835
 3362TIP3    H110050   4.312   0.251   2.219  0.0282  1.1822  1.9018
 3362TIP3    H210051   4.196   0.167   2.168  1.9134  0.3128 -1.2025
 3363TIP3   OH210052   0.820   1.043   3.269  0.4510 -0.2032  0.4669
 3363TIP3    H110053   0.729   1.034   3.296 -0.1489 -0.8301 -1.6389
 3363TIP3    H210054   0.826   0.999   3.185  3.1918 -2.0294  1.4475
 3364TIP3   OH210055   3.264   2.104   1.291  0.0569  0.2785 -0.1921
 3364TIP3    H110056   3.339   2.122   1.347 -0.5724 -1.0560  1.1568
 3364TIP3    H210057   3.293   2.033   1.233  0.1718  0.5104 -0.4217
 3365TIP3   OH210058   0.371   4.586   1.414  0.0402  0.1485 -0.1173
 3365TIP3    H110059   0.341   4.516   1.356  0.0228 -0.6338  0.7920
 3365TIP3    H210060   0.419   4.646   1.357 -0.1727 -0.4693 -0.9729
 3366TIP3   OH210061   4.929   4.355   2.446 -0.4889  0.4403  0.3683
 3366TIP3    H110062   4.910   4.444   2.416  2.1013  0.9886  0.1190
 3366TIP3    H210063   4.899   4.354   2.537 -1.7094  1.1187 -0.0031
 3367TIP3   OH210064   1.230   5.212   4.350  0.0510  0.5443  0.1285
 3367TIP3    H110065   1.271   5.127   4.364  0.6762  0.4337 -2.0648
 3367TIP3    H210066   1.289   5.274   4.394  0.8667  0.0597 -0.2596
 3368TIP3   OH210067   6.238   3.785   3.635  0.8737 -0.7849 -0.0038
 3368TIP3    H110068   6.304   3.760   3.699 -1.0980  0.3524  2.6781
 3368TIP3    H210069   6.245   3.880   3.628 -0.8526 -0.5469  0.8855
 3369TIP3   OH210070   5.311   6.133   4.255  0.3314  0.1340  0.1775
 3369TIP3    H110071   5.285   6.088   4.336 -3.9153  1.3488 -0.2713
 3369TIP3    H210072   5.234   6.129   4.199  1.7550  2.7861 -2.2473
 3370TIP3   OH210073   3.860   3.900   1.664 -0.0489  0.3304 -0.0053
 3370TIP3    H110074   3.925   3.845   1.620 -0.6381  1.0331 -1.8931
 3370TIP3    H210075   3.880   3.892   1.757  2.3671  0.0627 -0.4681
 3371TIP3   OH210076   7.050   4.417   0.185  0.1757  0.2580  0.0544
 3371TIP3    H110077   7.132   4.371   0.170 -1.3142 -3.3406  1.7467
 3371TIP3    H210078   6.987   4.373   0.129 -1.2345  0.6728  1.2432
 3372TIP3   OH210079   0.893   0.854   0.741  0.4889  0.0298 -0.1671
 3372TIP3    H110080   0.874   0.903   0.821  0.3536 -0.8787  0.3659
 3372TIP3    H210081   0.931   0.772   0.771 -0.5192 -0.7602 -0.9970
 3373TIP3   OH210082   1.201   3.381   4.265  0.0471 -0.7690 -0.3151
 3373TIP3    H110083   1.279   3.406   4.312 -0.6196  1.2532 -0.2172
 3373TIP3    H210084   1.150   3.329   4.328 -0.5243  1.3260  1.0624
 3374TIP3   OH210085   0.408   5.985   0.282  0.5222  0.3113 -0.1074
 3374TIP3    H110086   0.420   6.080   0.278 -0.2931  0.4473  0.3305
 3374TIP3    H210087   0.357   5.972   0.362 -1.6205 -0.2526 -1.4834
 3375TIP3   OH210088   2.553   5.735   0.778  0.2554  0.7077  1.2762
 3375TIP3    H110089   2.594   5.776   0.854  1.5486  0.0306  0.9655
 3375TIP3    H210090   2.626   5.710   0.721 -0.5610 -0.7224  0.7979
 3376TIP3   OH210091   6.441   4.980   0.542  0.0967 -0.3048 -0.1100
 3376TIP3    H110092   6.396   4.902   0.509 -0.7117 -1.4420  3.3258
 3376TIP3    H210093   6.394   5.002   0.622  3.3805  0.7413  1.6763
 3377TIP3   OH210094   5.596   4.862   0.535  0.9773  0.7881 -0.3944
 3377TIP3    H110095   5.542   4.792   0.500 -0.2760  2.0532 -1.0752
 3377TIP3    H210096   5.684   4.824   0.541  0.8778 -0.0877 -3.1237
 3378TIP3   OH210097   4.659   4.099   0.850  0.5535  0.1982  0.1712
 3378TIP3    H110098   4.730   4.163   0.850  0.7757 -0.0251  1.3144
 3378TIP3    H210099   4.672   4.049   0.769  0.4541  1.4882 -0.6794
 3379TIP3   OH210100   6.480   3.243   5.757  0.1382 -0.8098 -0.4455
 3379TIP3    H110101   6.410   3.281   5.704  1.7198  1.3718 -1.0742
 3379TIP3    H210102   6.488   3.153   5.725 -1.5855 -0.7464 -1.1400
 3380TIP3   OH210103   1.241   3.207   0.933  0.5988 -0.4009  0.0756
 3380TIP3    H110104   1.242   3.268   1.007  0.9453  1.1252 -1.1349
 3380TIP3    H210105   1.156   3.221   0.891  0.6745 -0.7618 -0.2100
 3381TIP3   OH210106   5.436   0.636   5.040  0.4199 -0.0826  0.3197
 3381TIP3    H110107   5.345   0.654   5.018  0.5360 -1.9910 -2.0589
 3381TIP3    H210108   5.432   0.582   5.119 -0.6698 -1.7731 -0.8374
 3382TIP3   OH210109   0.877   6.504   1.429  0.3521 -0.0469  0.5205
 3382TIP3    H110110   0.864   6.550   1.347 -1.9664  0.5242  1.1540
 3382TIP3    H210111   0.973   6.501   1.440  0.6468  1.5807 -1.2019
 3383TIP3   OH210112   6.910   0.647   2.054 -0.0919 -0.5960 -0.1252
 3383TIP3    H110113   6.816   0.661   2.057 -0.2338 -0.9020 -1.8764
 3383TIP3    H210114   6.938   0.647   2.145 -1.7338 -0.2077  0.4034
 3384TIP3   OH210115   1.601   0.304   0.218 -0.4166  0.4543 -0.9059
 3384TIP3    H110116   1.555   0.222   0.233  0.4973 -0.2802 -2.0019
 3384TIP3    H210117   1.693   0.280   0.209  0.0438  1.7503 -0.0176
 3385TIP3   OH210118   2.012   3.328   3.019  0.7244  0.4517  0.7207
 3385TIP3    H110119   1.969   3.244   3.038  1.1924  0.1215  0.3292
 3385TIP3    H210120   1.977   3.388   3.086 -0.0813  0.1057  0.6266
 3386TIP3   OH210121   1.899   4.363   2.129  0.3415  0.3566  0.4367
 3386TIP3    H110122   1.887   4.351   2.034 -0.7162  0.3635  0.5538
 3386TIP3    H210123   1.977   4.312   2.150  0.8425  0.7155 -0.5130
 3387TIP3   OH210124   5.414   2.565   0.932 -0.7158 -0.7281 -0.3729
 3387TIP3    H110125   5.322   2.573   0.908 -1.3094  0.4513  1.9195
 3387TIP3    H210126   5.426   2.472   0.952 -1.3802 -0.9114 -0.8147
 3388TIP3   OH210127   5.803   2.350   4.580  0.1989  0.3443 -0.2781
 3388TIP3    H110128   5.851   2.425   4.616  0.9112  0.4706 -1.4218
 3388TIP3    H210129   5.786   2.294   4.656  1.0852  0.8908  0.3513
 3389TIP3   OH210130   6.262   4.819   3.259  0.2644  0.1319 -0.0958
 3389TIP3    H110131   6.348   4.778   3.259 -1.5736 -4.3413 -0.6471
 3389TIP3    H210132   6.221   4.789   3.178 -2.7305 -0.2976  1.4318
 3390TIP3   OH210133   6.179   6.485   2.112  0.6971  0.0937 -0.1184
 3390TIP3    H110134   6.089   6.506   2.087 -0.0824 -3.2322 -0.5829
 3390TIP3    H210135   6.204   6.556   2.172 -2.4406  0.8019  0.5340
 3391TIP3   OH210136   6.175   3.088   5.733 -0.3331 -0.2310 -0.0122
 3391TIP3    H110137   6.212   3.003   5.756  0.3567 -0.2079 -0.9817
 3391TIP3    H210138   6.080   3.074   5.733 -0.2764 -0.7152  0.8574
 3392TIP3   OH210139   6.392   3.557   0.681  0.2657  0.1554  0.2276
 3392TIP3    H110140   6.314   3.590   0.635 -0.1511 -0.2668  0.6267
 3392TIP3    H210141   6.459   3.623   0.664  0.1211  0.0149 -0.9941
 3393TIP3   OH210142   2.453   3.719   5.518 -0.0718 -0.1552 -0.1992
 3393TIP3    H110143   2.547   3.702   5.527 -0.3863 -1.9366  0.1958
 3393TIP3    H210144   2.439   3.723   5.424  0.3144 -0.5113 -0.2797
 3394TIP3   OH210145   3.098   4.173   5.550  0.0935 -0.6622  0.0732
 3394TIP3    H110146   3.152   4.243   5.586 -0.6237 -0.3618  0.5865
 3394TIP3    H210147   3.115   4.175   5.455  1.0230 -0.6247  0.2313
 3395TIP3   OH210148   3.895   5.426   2.456  0.1925 -0.4831  0.0481
 3395TIP3    H110149   3.827   5.491   2.438 -0.1374 -0.6194  0.7463
 3395TIP3    H210150   3.976   5.467   2.427 -0.1442 -0.1671 -0.4533
 3396TIP3   OH210151   2.573   3.038   2.158  0.0080 -0.2209  0.1440
 3396TIP3    H110152   2.566   3.075   2.246 -0.6784  0.7258 -0.2921
 3396TIP3    H210153   2.648   3.084   2.120  0.3131 -0.6402  0.2323
 3397TIP3   OH210154   2.205   0.341   5.240  0.3203 -0.4799  0.4538
 3397TIP3    H110155   2.186   0.248   5.255  1.4175 -0.8016 -0.0740
 3397TIP3    H210156   2.134   0.369   5.181  1.0256 -1.4988 -0.9613
 3398TIP3   OH210157   6.881   3.432   4.146  0.5218  0.2545  0.1640
 3398TIP3    H110158   6.909   3.385   4.224 -0.8550 -1.5621 -0.3547
 3398TIP3    H210159   6.959   3.438   4.091  1.3281  0.9213  1.3528
 3399TIP3   OH210160   1.018   3.285   4.879  0.4244  0.0606  0.2898
 3399TIP3    H110161   0.932   3.259   4.914  0.0548  0.2591 -0.4507
 3399TIP3    H210162   1.013   3.380   4.873 -0.9920 -0.0725 -3.8295
 3400TIP3   OH210163   7.051   6.237   5.705 -0.1828  0.3412 -0.3816
 3400TIP3    H110164   7.114   6.309   5.698  0.6050 -0.2623  0.2892
 3400TIP3    H210165   6.967   6.280   5.724  0.5203  1.0379  1.4257
 3401TIP3   OH210166   0.476   1.434   1.362  0.2864  0.3648  0.0917
 3401TIP3    H110167   0.453   1.478   1.444  1.7605  0.8732  0.2696
 3401TIP3    H210168   0.521   1.354   1.390 -0.4610 -0.1814 -0.2359
 3402TIP3   OH210169   0.725   6.126   5.321  0.3317  0.0962  0.1254
 3402TIP3    H110170   0.682   6.070   5.385  0.0813  0.1358 -0.0032
 3402TIP3    H210171   0.686   6.212   5.335  0.6374  0.2145  0.2516
 3403TIP3   OH210172   1.249   1.418   1.503 -0.3054 -0.1283 -0.5264
 3403TIP3    H110173   1.306   1.358   1.550 -0.4844  0.9534  1.1827
 3403TIP3    H210174   1.309   1.478   1.459 -0.0728  0.6253  0.7572
 3404TIP3   OH210175   2.129   5.112   2.746  0.5003 -0.0336  0.2147
 3404TIP3    H110176   2.220   5.097   2.772  0.0819 -0.3136  1.5691
 3404TIP3    H210177   2.077   5.062   2.808 -0.6943  2.1620  1.0992
 3405TIP3   OH210178   3.443   3.240   4.449  0.0030 -0.0133 -0.1425
 3405TIP3    H110179   3.497   3.236   4.370  0.8683  0.3560  0.4200
 3405TIP3    H210180   3.409   3.151   4.459 -0.0887 -0.0744 -0.9029
 3406TIP3   OH210181   7.188   1.958   4.262 -0.2391 -0.8306  0.4671
 3406TIP3    H110182   7.195   1.886   4.325  0.4855 -0.3326  0.9708
 3406TIP3    H210183   7.161   2.033   4.315  0.8636 -0.2875  0.2784
 3407TIP3   OH210184   1.976   3.496   0.286  0.3412  0.1631 -0.9628
 3407TIP3    H110185   2.021   3.569   0.329 -0.0895  0.2302 -0.6101
 3407TIP3    H210186   1.969   3.522   0.194  1.0390  0.1375 -1.0229
 3408TIP3   OH210187   5.799   1.614   5.104 -0.2185 -0.3922 -0.0819
 3408TIP3    H110188   5.775   1.695   5.059  1.1875 -0.9618 -1.9639
 3408TIP3    H210189   5.773   1.544   5.044  2.1448 -1.1681 -0.2996
 3409TIP3   OH210190   5.092   2.209   0.373  0.0884 -0.8461  0.5783
 3409TIP3    H110191   5.178   2.183   0.339  0.4282  0.9430 -0.0294
 3409TIP3    H210192   5.091   2.177   0.463  2.1886  0.7583  1.2367
 3410TIP3   OH210193   2.263   4.948   4.273  0.4824  0.3540  0.4129
 3410TIP3    H110194   2.290   4.856   4.270 -1.4629 -0.2417  0.1933
 3410TIP3    H210195   2.273   4.979   4.183 -1.7183 -0.5491 -0.1976
 3411TIP3   OH210196   0.387   6.116   2.302  0.1552  0.3985 -0.1841
 3411TIP3    H110197   0.472   6.084   2.332 -0.1276 -0.8279 -0.6145
 3411TIP3    H210198   0.387   6.100   2.208 -0.0074  1.7203 -0.4244
 3412TIP3   OH210199   1.750   3.002   5.814 -0.1697  0.2512  0.3566
 3412TIP3    H110200   1.784   3.087   5.843 -1.6719  1.3923 -1.0417
 3412TIP3    H210201   1.664   2.996   5.854  0.3957 -1.2341  1.4414
 3413TIP3   OH210202   1.911   3.495   5.800 -0.2906 -0.4166 -0.5284
 3413TIP3    H110203   1.898   3.507   5.706 -0.6431  0.2532 -0.4039
 3413TIP3    H210204   1.894   3.402   5.816 -2.6887 -0.0599 -0.7450
 3414TIP3   OH210205   7.094   4.920   0.397  0.2841  0.3751 -0.4087
 3414TIP3    H110206   7.026   4.931   0.329  0.0790 -1.3204 -0.5220
 3414TIP3    H210207   7.048   4.877   0.469  1.0881 -0.2019 -0.2334
 3415TIP3   OH210208   1.292   4.528   0.525 -0.3529 -0.2868 -0.2549
 3415TIP3    H110209   1.349   4.584   0.578  1.1932 -1.1475 -0.9376
 3415TIP3    H210210   1.350   4.458   0.494 -0.9893  0.5868 -3.7356
 3416TIP3   OH210211   3.770   5.648   1.914  0.0981  0.0005 -0.3583
 3416TIP3    H110212   3.838   5.596   1.873  0.9611  1.2552 -0.5803
 3416TIP3    H210213   3.729   5.589   1.978  0.3553 -1.2228 -1.2970
 3417TIP3   OH210214   1.775   4.321   4.954 -0.0547  0.6982  0.5812
 3417TIP3    H110215   1.721   4.365   5.019 -0.4976 -0.0318  0.7249
 3417TIP3    H210216   1.853   4.376   4.945 -1.3532  2.4503 -0.5426
 3418TIP3   OH210217   2.983   3.667   3.748  0.0631 -0.2700 -0.1380
 3418TIP3    H110218   3.002   3.635   3.660 -0.2305  0.3408 -0.4335
 3418TIP3    H210219   3.069   3.677   3.789  0.1663 -1.1667 -0.1299
 3419TIP3   OH210220   3.958   3.727   3.577 -0.5968  0.1605 -0.0992
 3419TIP3    H110221   3.863   3.736   3.569 -0.7112 -0.1514  0.7861
 3419TIP3    H210222   3.971   3.637   3.605 -0.1582  0.6198  1.2834
 3420TIP3   OH210223   4.571   5.027   3.426  0.5886 -0.0329 -0.1830
 3420TIP3    H110224   4.492   5.012   3.477 -0.5403  0.8772 -1.6047
 3420TIP3    H210225   4.561   4.973   3.348  1.4100  0.0384 -0.3557
 3421TIP3   OH210226   2.781   6.059   3.862 -0.5891  0.0433  0.0467
 3421TIP3    H110227   2.738   6.078   3.945  0.4829  0.5715  0.5054
 3421TIP3    H210228   2.864   6.019   3.887 -0.8833 -1.1698 -0.8168
 3422TIP3   OH210229   0.987   1.801   1.417  0.1325 -0.4382  0.2406
 3422TIP3    H110230   1.020   1.759   1.497  3.0395  2.1841  0.5862
 3422TIP3    H210231   1.039   1.763   1.347  0.8231  0.5707  0.2026
 3423TIP3   OH210232   4.391   1.933   0.438  0.0411  0.3252  0.4560
 3423TIP3    H110233   4.320   1.881   0.475 -1.1233  1.0086 -0.7228
 3423TIP3    H210234   4.421   1.988   0.510 -1.2580  0.6796  0.7583
 3424TIP3   OH210235   4.823   5.082   0.777 -0.3515 -0.2687 -0.4537
 3424TIP3    H110236   4.885   5.063   0.707  0.6063  1.0671 -0.0066
 3424TIP3    H210237   4.746   5.029   0.756  1.1459 -2.4788 -0.6720
 3425TIP3   OH210238   2.832   5.474   5.454  0.1429  0.5484 -0.8884
 3425TIP3    H110239   2.828   5.562   5.418 -0.4455 -0.2502 -2.9071
 3425TIP3    H210240   2.756   5.468   5.512  0.5412  1.5341 -0.2365
 3426TIP3   OH210241   3.666   0.724   4.567 -0.2463  0.1069 -0.0374
 3426TIP3    H110242   3.698   0.661   4.503  2.4333  2.4717 -1.2409
 3426TIP3    H210243   3.697   0.690   4.651 -0.5873 -1.1434 -0.3875
 3427TIP3   OH210244   2.240   6.406   1.328 -0.7231  0.3226 -0.1815
 3427TIP3    H110245   2.165   6.387   1.383  0.3409 -1.2220  0.8160
 3427TIP3    H210246   2.273   6.320   1.301  2.2141  0.7665  1.5593
 3428TIP3   OH210247   3.481   1.727   3.134 -0.3784 -0.2038 -0.0552
 3428TIP3    H110248   3.435   1.810   3.144  1.1444  0.5935  0.7448
 3428TIP3    H210249   3.573   1.752   3.121  0.2560 -1.7766  1.0767
 3429TIP3   OH210250   2.549   4.835   3.527 -0.2623 -0.3424  0.1599
 3429TIP3    H110251   2.556   4.774   3.453  0.4936 -1.9471  1.4792
 3429TIP3    H210252   2.640   4.850   3.554 -0.5450 -0.2589  1.1164
 3430TIP3   OH210253   4.466   0.529   3.690 -0.0414  0.2633 -0.2488
 3430TIP3    H110254   4.460   0.484   3.606 -0.6679 -0.0260 -0.0585
 3430TIP3    H210255   4.506   0.613   3.670  1.3757 -0.4692 -0.5725
 3431TIP3   OH210256   2.078   1.508   1.349  0.7594 -0.3991 -0.0670
 3431TIP3    H110257   2.095   1.527   1.257  0.6188 -1.2027 -0.2704
 3431TIP3    H210258   2.165   1.509   1.390  0.7433  0.7587 -0.0386
 3432TIP3   OH210259   2.584   3.665   4.432  0.0080  0.1241  0.1671
 3432TIP3    H110260   2.508   3.709   4.469 -0.7588 -1.2839  0.3551
 3432TIP3    H210261   2.604   3.594   4.494  1.1531  0.1491 -0.1411
 3433TIP3   OH210262   5.318   5.273   4.787  0.2487 -0.2743  0.3330
 3433TIP3    H110263   5.240   5.300   4.738  0.3082  0.9235  0.8691
 3433TIP3    H210264   5.339   5.186   4.753 -0.9758 -0.3659 -0.2359
 3434TIP3   OH210265   6.515   3.578   0.249 -0.4511  0.5532 -0.5724
 3434TIP3    H110266   6.550   3.554   0.164 -1.2578 -0.1259 -0.7245
 3434TIP3    H210267   6.519   3.496   0.300  1.0438  1.1916  0.4205
 3435TIP3   OH210268   1.808   4.555   1.822  0.0050  0.5344 -0.0989
 3435TIP3    H110269   1.900   4.581   1.831  0.7108 -2.0212  1.1610
 3435TIP3    H210270   1.813   4.464   1.790 -2.0908  0.3429  0.0352
 3436TIP3   OH210271   2.500   0.484   2.253  0.2758  0.0834 -0.2814
 3436TIP3    H110272   2.431   0.491   2.188 -0.2560  1.8692  0.4024
 3436TIP3    H210273   2.580   0.466   2.203 -0.5158 -1.1734 -1.1509
 3437TIP3   OH210274   2.339   3.432   0.473  1.3678  0.0025 -0.5946
 3437TIP3    H110275   2.266   3.460   0.418  1.7159 -0.7831 -1.4770
 3437TIP3    H210276   2.412   3.421   0.413  1.9938 -0.0349  0.1568
 3438TIP3   OH210277   0.975   3.186   0.318  0.1129  0.0996 -0.0041
 3438TIP3    H110278   1.056   3.156   0.277  0.2934 -0.9712  1.0991
 3438TIP3    H210279   0.915   3.112   0.311  0.1565 -0.1367  1.6352
 3439TIP3   OH210280   5.496   5.591   0.106  0.1619  0.7246 -0.3021
 3439TIP3    H110281   5.540   5.597   0.191  1.6695 -1.2138 -0.8433
 3439TIP3    H210282   5.498   5.497   0.086 -0.7644  1.0699 -2.1654
 3440TIP3   OH210283   5.904   1.212   2.828 -0.4568  0.4083  0.3263
 3440TIP3    H110284   5.820   1.258   2.829 -0.6324  0.2706 -2.0062
 3440TIP3    H210285   5.882   1.121   2.849 -0.8768  0.4025 -0.1356
 3441TIP3   OH210286   5.844   3.899   3.661  0.1906 -0.3012 -0.0790
 3441TIP3    H110287   5.781   3.909   3.590  0.5684 -0.6408 -0.4671
 3441TIP3    H210288   5.816   3.821   3.708 -1.2215  1.0014  1.3663
 3442TIP3   OH210289   2.167   4.088   3.487  0.2712  0.3764 -0.2849
 3442TIP3    H110290   2.217   4.006   3.485  2.5275  1.5947  1.4167
 3442TIP3    H210291   2.101   4.074   3.555 -0.3972 -0.5150 -1.0803
 3443TIP3   OH210292   2.920   6.271   3.267  0.5900 -0.2613  0.4895
 3443TIP3    H110293   2.953   6.355   3.299  0.3625  0.8338 -1.8789
 3443TIP3    H210294   2.829   6.268   3.296  0.0641  1.2114 -0.8509
 3444TIP3   OH210295   1.644   6.480   5.351 -0.1185 -0.1774  0.2648
 3444TIP3    H110296   1.570   6.429   5.384  0.7492 -1.1651  0.7330
 3444TIP3    H210297   1.616   6.509   5.264 -0.7913 -1.1072  0.1549
 3445TIP3   OH210298   5.700   4.709   2.444  0.7781  0.4094  0.2258
 3445TIP3    H110299   5.713   4.629   2.394 -0.9511  1.2864 -1.7940
 3445TIP3    H210300   5.756   4.774   2.401 -0.3382  1.0589 -0.2682
 3446TIP3   OH210301   4.835   2.150   5.756 -0.3956  0.3097  0.6130
 3446TIP3    H110302   4.742   2.127   5.745 -0.8924  1.9759  0.9328
 3446TIP3    H210303   4.847   2.157   5.851  0.1837 -0.3376  0.5915
 3447TIP3   OH210304   1.839   0.526   3.635  0.3072 -0.4361  0.1018
 3447TIP3    H110305   1.826   0.598   3.697 -0.3744 -1.2537  0.9530
 3447TIP3    H210306   1.762   0.528   3.579  0.6830 -0.0062 -0.4071
 3448TIP3   OH210307   3.358   5.062   4.288  0.2769  0.2597  0.6924
 3448TIP3    H110308   3.453   5.058   4.293  0.3413  0.2814 -0.2944
 3448TIP3    H210309   3.337   5.155   4.283  0.3049  0.2149 -0.5158
 3449TIP3   OH210310   2.852   3.857   2.552  0.2639  0.5398  0.8910
 3449TIP3    H110311   2.903   3.777   2.563 -0.9789 -0.3183  0.5572
 3449TIP3    H210312   2.845   3.892   2.641  2.6881  1.5348  0.7880
 3450TIP3   OH210313   4.328   5.695   1.403 -0.1024  0.2002  0.4869
 3450TIP3    H110314   4.281   5.703   1.486  0.8338  0.4461  1.0119
 3450TIP3    H210315   4.414   5.732   1.421  0.6360 -1.1564 -0.1781
 3451TIP3   OH210316   1.070   4.218   1.956 -0.3137 -0.1434  0.4688
 3451TIP3    H110317   1.078   4.263   2.040  1.9467  2.6207 -1.0485
 3451TIP3    H210318   0.985   4.246   1.922 -0.5058  0.0720  1.1143
 3452TIP3   OH210319   5.089   0.398   4.114 -0.0256  0.1268 -0.4702
 3452TIP3    H110320   5.127   0.314   4.090 -0.8383 -0.8525  1.4382
 3452TIP3    H210321   5.112   0.409   4.206 -0.6062  1.6275 -0.4805
 3453TIP3   OH210322   4.761   2.075   2.964 -0.8204  0.2286 -0.1094
 3453TIP3    H110323   4.844   2.122   2.951 -1.1618  0.3793 -2.1628
 3453TIP3    H210324   4.697   2.144   2.983 -0.7054  0.2380  0.2476
 3454TIP3   OH210325   5.289   3.004   4.198 -0.2975  0.5125 -0.2682
 3454TIP3    H110326   5.211   3.059   4.189 -2.7453 -2.4440  0.9990
 3454TIP3    H210327   5.277   2.958   4.281  1.6401 -1.7253 -1.1101
 3455TIP3   OH210328   1.472   1.763   3.818  0.1856 -0.7099  0.1791
 3455TIP3    H110329   1.378   1.785   3.815 -0.1667 -2.2374 -2.0400
 3455TIP3    H210330   1.492   1.758   3.912 -1.4673  1.4283  0.7403
 3456TIP3   OH210331   3.254   6.056   4.168 -0.1288  0.0166 -0.0965
 3456TIP3    H110332   3.236   6.017   4.254  1.3016  0.0524  0.2570
 3456TIP3    H210333   3.262   5.981   4.109  3.3630 -0.4678  0.7207
 3457TIP3   OH210334   6.865   4.889   0.578 -0.0529 -0.4827 -0.0953
 3457TIP3    H110335   6.838   4.849   0.660 -0.2280 -0.4711 -0.1482
 3457TIP3    H210336   6.788   4.937   0.548  0.1449 -0.1319 -0.0470
 3458TIP3   OH210337   2.136   3.038   3.333 -0.1539  0.3585 -0.0812
 3458TIP3    H110338   2.227   3.022   3.307 -0.2145 -1.6184  0.7003
 3458TIP3    H210339   2.130   3.132   3.346  2.2206  0.3902  1.3929
 3459TIP3   OH210340   2.930   1.914   3.858  0.1612 -0.2015  0.0804
 3459TIP3    H110341   3.011   1.921   3.808 -0.2467 -2.6267 -1.0263
 3459TIP3    H210342   2.864   1.888   3.794 -0.5554 -2.5718  1.6534
 3460TIP3   OH210343   4.668   4.587   0.235 -0.1552 -0.0462 -0.1524
 3460TIP3    H110344   4.757   4.585   0.272 -1.2773  0.1511  2.8340
 3460TIP3    H210345   4.625   4.511   0.274 -1.9347  1.1258  0.2781
 3461TIP3   OH210346   4.530   5.940   1.491  0.4177 -0.0752  0.1741
 3461TIP3    H110347   4.586   6.017   1.492 -0.5346  0.6563 -0.6112
 3461TIP3    H210348   4.530   5.910   1.400 -0.7421  0.1720  0.0717
 3462TIP3   OH210349   2.804   3.243   4.068 -0.0335  0.2234 -0.2246
 3462TIP3    H110350   2.761   3.261   3.984  1.2240  1.5839 -0.6285
 3462TIP3    H210351   2.882   3.193   4.044 -0.4980 -0.7834  0.3217
 3463TIP3   OH210352   3.207   5.283   2.121 -0.3498  0.1416 -0.2535
 3463TIP3    H110353   3.183   5.233   2.043  0.5790  0.3214 -0.6660
 3463TIP3    H210354   3.301   5.299   2.111 -0.2549  0.3040  0.8268
 3464TIP3   OH210355   6.497   0.888   1.412 -0.2369 -0.3163  0.2354
 3464TIP3    H110356   6.554   0.818   1.445  1.1069 -0.3200 -1.9184
 3464TIP3    H210357   6.465   0.931   1.491  1.3383 -1.4613  1.5820
 3465TIP3   OH210358   3.658   0.786   4.941  0.3692  0.1842 -0.1307
 3465TIP3    H110359   3.735   0.787   4.884  0.2479 -1.6084 -0.3659
 3465TIP3    H210360   3.651   0.695   4.970 -0.9873  0.5718  0.8275
 3466TIP3   OH210361   6.156   4.460   0.258  0.3169  0.5848  0.2398
 3466TIP3    H110362   6.186   4.373   0.286 -0.5782  0.3244  0.4118
 3466TIP3    H210363   6.125   4.447   0.169  3.2020  1.4230 -0.9965
 3467TIP3   OH210364   0.376   1.225   3.725 -0.3202  0.2773 -0.9789
 3467TIP3    H110365   0.452   1.199   3.673  0.9024 -1.4639  1.4527
 3467TIP3    H210366   0.410   1.286   3.790 -1.7105  2.0504 -1.8204
 3468TIP3   OH210367   2.301   5.163   3.060 -0.2269  0.4051 -0.2758
 3468TIP3    H110368   2.307   5.111   3.140 -0.5366 -1.8943 -1.6747
 3468TIP3    H210369   2.378   5.139   3.009 -0.6041  0.9955 -1.1477
 3469TIP3   OH210370   4.372   5.636   4.626  0.0158  0.3553 -0.9806
 3469TIP3    H110371   4.283   5.603   4.640 -0.4163  2.0490  0.7921
 3469TIP3    H210372   4.390   5.617   4.535 -0.5699 -3.6109 -0.4307
 3470TIP3   OH210373   7.083   3.676   3.927 -0.2261  0.2247  0.2750
 3470TIP3    H110374   7.070   3.751   3.869 -1.3211  1.2245  1.7205
 3470TIP3    H210375   7.150   3.706   3.989 -0.7922  0.0918  0.9600
 3471TIP3   OH210376   0.312   0.059   4.287  1.0268  0.3284  0.0593
 3471TIP3    H110377   0.273  -0.029   4.285  2.6963 -0.4477 -0.2167
 3471TIP3    H210378   0.266   0.107   4.218  1.8670 -1.1587 -1.6301
 3472TIP3   OH210379   4.461   5.622   2.341 -0.1979  0.0579  0.2091
 3472TIP3    H110380   4.392   5.614   2.275 -0.7416 -1.5551  0.9279
 3472TIP3    H210381   4.542   5.629   2.289 -0.7379  0.2926 -0.6294
 3473TIP3   OH210382   3.605   5.388   1.042  0.4792 -0.1665  0.3055
 3473TIP3    H110383   3.557   5.420   0.965 -0.3539 -0.3601  0.7250
 3473TIP3    H210384   3.697   5.395   1.018  0.2918  1.4372 -0.0540
 3474TIP3   OH210385   7.059   5.108   5.050 -0.2406  0.1904  0.4822
 3474TIP3    H110386   7.055   5.190   5.099  0.7701 -0.5561  1.8749
 3474TIP3    H210387   7.119   5.053   5.100  0.3428 -0.8512 -1.2754
 3475TIP3   OH210388   6.485   0.675   4.532 -0.0227  0.3244 -0.2235
 3475TIP3    H110389   6.487   0.717   4.446 -3.0886  0.0724 -0.5297
 3475TIP3    H210390   6.446   0.588   4.516 -1.3772  0.5501  1.4456
 3476TIP3   OH210391   2.102   1.466   3.355 -0.1939  0.0512 -0.2076
 3476TIP3    H110392   2.188   1.485   3.394  0.2215 -0.3172 -0.9253
 3476TIP3    H210393   2.048   1.439   3.430 -0.0681  1.5049  0.4511
 3477TIP3   OH210394   3.667   6.014   5.786  0.2103  0.1682 -0.1443
 3477TIP3    H110395   3.595   6.022   5.723  1.1222 -0.7025 -1.3461
 3477TIP3    H210396   3.741   6.056   5.743  0.5922  0.5383  0.8385
 3478TIP3   OH210397   4.624   6.776   2.723  0.2010 -0.4489  0.1573
 3478TIP3    H110398   4.708   6.733   2.732 -0.2476 -1.2295  0.6842
 3478TIP3    H210399   4.586   6.738   2.643  0.1611 -0.4070  0.1562
 3479TIP3   OH210400   2.957   2.827   2.828  0.1667  0.2369  0.1741
 3479TIP3    H110401   3.001   2.902   2.867 -0.6398  0.1352  1.3511
 3479TIP3    H210402   3.004   2.751   2.863  0.8897  0.1796 -0.8979
 3480TIP3   OH210403   0.948   1.404   5.456  0.4457 -0.3244 -0.0453
 3480TIP3    H110404   1.041   1.389   5.471  0.4170 -0.8278 -0.3509
 3480TIP3    H210405   0.906   1.320   5.477  0.4434 -1.2817 -3.2891
 3481TIP3   OH210406   4.331   3.233   0.805 -0.3310 -0.5111  0.6987
 3481TIP3    H110407   4.401   3.235   0.870  0.3115 -1.7796  0.0755
 3481TIP3    H210408   4.374   3.256   0.723 -1.2566  1.7364  0.7550
 3482TIP3   OH210409   3.412   6.275   0.362 -0.3291  0.0773 -0.5773
 3482TIP3    H110410   3.449   6.229   0.438 -0.0062  1.1898 -0.0455
 3482TIP3    H210411   3.467   6.247   0.288 -2.2023 -3.0551 -0.9720
 3483TIP3   OH210412   3.152   4.580   5.452 -0.1653  0.3799 -0.0123
 3483TIP3    H110413   3.104   4.646   5.503 -0.5422 -1.0096  1.4877
 3483TIP3    H210414   3.244   4.606   5.460 -0.3707  1.2132 -0.1924
 3484TIP3   OH210415   0.410   6.501   0.842  0.4376 -0.2975 -0.3672
 3484TIP3    H110416   0.470   6.469   0.909  1.0163  0.5257 -0.4645
 3484TIP3    H210417   0.450   6.583   0.812 -1.2815  0.8429  0.3252
 3485TIP3   OH210418   4.472   0.408   2.291 -0.5450 -0.1057 -0.2779
 3485TIP3    H110419   4.427   0.449   2.217 -0.1317  0.1028 -0.4213
 3485TIP3    H210420   4.527   0.478   2.327 -2.6994  0.5811  1.9001
 3486TIP3   OH210421   2.712   0.802   1.424  0.1884 -0.0537 -0.1012
 3486TIP3    H110422   2.617   0.812   1.422  0.1286 -0.6044 -0.1790
 3486TIP3    H210423   2.742   0.871   1.484 -0.3191 -0.3240  0.4749
 3487TIP3   OH210424   1.423   3.517   1.764 -0.6001 -0.2033 -0.2626
 3487TIP3    H110425   1.422   3.432   1.809  1.3582 -0.6943 -1.0438
 3487TIP3    H210426   1.420   3.495   1.671 -0.0073  0.5876 -0.4752
 3488TIP3   OH210427   4.066   2.200   1.183  0.4603  0.5361  0.5726
 3488TIP3    H110428   4.077   2.112   1.220  1.3090 -0.4668 -1.8517
 3488TIP3    H210429   3.972   2.211   1.175  0.3588 -0.7461 -0.3147
 3489TIP3   OH210430   5.142   0.345   5.273 -1.3583  0.0505  0.3362
 3489TIP3    H110431   5.187   0.306   5.347 -1.4000  1.7287  1.2843
 3489TIP3    H210432   5.172   0.294   5.197 -0.2397 -0.7909  1.3148
 3490TIP3   OH210433   5.218   1.826   4.757  0.4002 -0.8953  0.4739
 3490TIP3    H110434   5.259   1.871   4.683  2.7939 -1.4768  1.3454
 3490TIP3    H210435   5.215   1.734   4.731  1.8359 -1.2019  1.2820
 3491TIP3   OH210436   0.698   4.715   5.775  0.3140  0.3487 -0.3501
 3491TIP3    H110437   0.718   4.767   5.853 -0.1925 -0.5365  0.3833
 3491TIP3    H210438   0.721   4.773   5.702 -2.0208  2.3426  0.3808
 3492TIP3   OH210439   4.374   4.975   5.465 -0.4736 -0.0153 -0.1385
 3492TIP3    H110440   4.296   4.923   5.486 -0.6032  0.0107 -0.5615
 3492TIP3    H210441   4.399   4.947   5.378  0.4404 -0.5712  0.2896
 3493TIP3   OH210442   4.690   6.078   3.055 -0.3356  0.4146  0.0785
 3493TIP3    H110443   4.652   6.069   3.142 -0.6791  0.1817 -0.0944
 3493TIP3    H210444   4.615   6.088   2.997 -0.2479 -1.6434 -0.4725
 3494TIP3   OH210445   7.202   6.335   3.542  0.1969  0.3501  0.5087
 3494TIP3    H110446   7.294   6.312   3.531 -0.5303 -2.3531 -0.9910
 3494TIP3    H210447   7.171   6.354   3.454 -0.4318  2.5642  1.1564
 3495TIP3   OH210448   3.248   0.589   3.108  0.3350 -0.1348 -0.2443
 3495TIP3    H110449   3.177   0.586   3.172 -0.8162  2.6507 -1.2180
 3495TIP3    H210450   3.320   0.633   3.153  1.0139 -1.7280  0.3047
 3496TIP3   OH210451   6.837   0.740   2.608 -0.5257  0.2401  0.4447
 3496TIP3    H110452   6.877   0.708   2.689 -0.2359 -2.7838 -0.7565
 3496TIP3    H210453   6.881   0.823   2.590  2.1832 -0.8871  1.4014
 3497TIP3   OH210454   5.868   5.706   4.121  0.1541 -0.6779  0.0478
 3497TIP3    H110455   5.860   5.621   4.163 -0.3149 -0.4539  0.4180
 3497TIP3    H210456   5.893   5.686   4.030  2.3385 -1.1279  0.6953
 3498TIP3   OH210457   6.903   2.060   1.449 -0.5248  0.1232 -0.1709
 3498TIP3    H110458   6.906   1.972   1.411 -1.6926 -0.0891  0.1810
 3498TIP3    H210459   6.816   2.093   1.426  1.1773  2.8049 -3.7301
 3499TIP3   OH210460   1.825   2.131   1.026  0.5165  0.0436 -0.0443
 3499TIP3    H110461   1.739   2.125   1.068  1.0850  0.1566  1.1858
 3499TIP3    H210462   1.820   2.211   0.973  0.3338  0.8641  1.1804
 3500TIP3   OH210463   4.610   2.194   3.546 -0.2328 -0.2372 -0.3855
 3500TIP3    H110464   4.700   2.186   3.515 -0.4038 -2.8638 -0.3964
 3500TIP3    H210465   4.589   2.109   3.583 -2.9303  0.0893 -0.9466
 3501TIP3   OH210466   1.680   3.166   5.184  0.0812  0.4572  0.2486
 3501TIP3    H110467   1.617   3.101   5.218 -1.3119  1.2646 -0.7212
 3501TIP3    H210468   1.711   3.212   5.263  0.8362 -1.1122  0.9190
 3502TIP3   OH210469   7.151   5.600   2.385 -0.0185 -0.4265 -0.3503
 3502TIP3    H110470   7.199   5.521   2.361  0.0499 -0.4899 -0.0157
 3502TIP3    H210471   7.065   5.589   2.347  0.9668  0.8656 -3.2475
 3503TIP3   OH210472   2.643   2.823   2.682 -0.6704  0.0030  0.3483
 3503TIP3    H110473   2.590   2.829   2.603 -0.4243 -0.6970  0.1200
 3503TIP3    H210474   2.732   2.812   2.650 -0.7824 -2.2865  0.6798
 3504TIP3   OH210475   1.959   1.149   0.300 -0.6579  0.0782 -0.1550
 3504TIP3    H110476   2.000   1.084   0.357 -2.2782 -0.9143 -0.0711
 3504TIP3    H210477   1.937   1.101   0.220  0.5913  1.1995 -1.2327
 3505TIP3   OH210478   0.243   0.944   3.363  0.1967  0.3802  0.3407
 3505TIP3    H110479   0.153   0.915   3.349 -0.2739  0.8953  2.0294
 3505TIP3    H210480   0.236   1.011   3.432  1.7178  1.3985 -0.4397
 3506TIP3   OH210481   0.827   2.969   0.353 -0.3603 -0.4908 -0.0301
 3506TIP3    H110482   0.846   2.915   0.277 -1.0036 -2.7819  1.3326
 3506TIP3    H210483   0.740   3.005   0.336 -0.8857 -1.7122 -0.0374
 3507TIP3   OH210484   0.111   5.649   0.615 -0.1839 -0.2899 -0.3433
 3507TIP3    H110485   0.130   5.572   0.669 -2.5533 -0.4052  0.4351
 3507TIP3    H210486   0.153   5.631   0.531  0.4067 -1.8119  0.2451
 3508TIP3   OH210487   2.167   5.044   1.580  0.2993 -0.3696  0.7172
 3508TIP3    H110488   2.208   5.116   1.627 -2.1872  1.2824  0.5292
 3508TIP3    H210489   2.109   5.002   1.644 -1.5885  0.6440 -0.2276
 3509TIP3   OH210490   3.944   5.559   1.156  0.3223  0.1751 -0.8625
 3509TIP3    H110491   3.911   5.576   1.244 -2.2552 -2.4451 -1.1638
 3509TIP3    H210492   3.969   5.645   1.122 -1.9645  1.7814  1.1733
 3510TIP3   OH210493   4.675   1.403   5.254  0.1067  0.5836 -0.2561
 3510TIP3    H110494   4.592   1.450   5.264  0.0257  0.6766 -1.2638
 3510TIP3    H210495   4.697   1.374   5.342 -1.8770 -0.9666 -0.2033
 3511TIP3   OH210496   3.147   3.674   0.886 -0.4305  0.4533  0.3882
 3511TIP3    H110497   3.067   3.725   0.877  0.7168  2.5281  1.3532
 3511TIP3    H210498   3.118   3.583   0.877 -2.9973  1.0790  1.3604
 3512TIP3   OH210499   1.690   0.198   5.185 -0.0545  0.1062  0.5860
 3512TIP3    H110500   1.605   0.173   5.222  0.2436  1.6716  2.4910
 3512TIP3    H210501   1.680   0.291   5.162  0.9559  0.1401  0.2134
 3513TIP3   OH210502   2.371   2.475   3.221  0.2579 -0.2125 -0.0540
 3513TIP3    H110503   2.362   2.452   3.314 -1.1333 -1.2328 -0.4038
 3513TIP3    H210504   2.404   2.394   3.180  0.3788  0.0764 -0.5355
 3514TIP3   OH210505   3.947   1.391   2.591 -0.2514  0.4602 -0.0833
 3514TIP3    H110506   3.882   1.447   2.635 -1.1839 -1.1469  0.6944
 3514TIP3    H210507   3.912   1.380   2.503 -0.8803 -0.0968  0.2204
 3515TIP3   OH210508   0.166   4.714   1.150  0.1744  0.1072  0.5733
 3515TIP3    H110509   0.096   4.661   1.187  1.1084 -0.6764  1.2493
 3515TIP3    H210510   0.194   4.666   1.071 -1.8398  1.7882 -1.3003
 3516TIP3   OH210511   1.732   0.695   2.380  0.0395  0.0949 -0.3262
 3516TIP3    H110512   1.754   0.661   2.467  0.6880  0.6008 -0.2753
 3516TIP3    H210513   1.659   0.755   2.396 -1.0173 -1.1503 -0.3998
 3517TIP3   OH210514   0.325   4.613   5.493  0.0803  0.3398  0.7420
 3517TIP3    H110515   0.351   4.599   5.583 -1.6490  0.5762  1.3233
 3517TIP3    H210516   0.386   4.679   5.460  1.4014 -0.5218  1.3667
 3518TIP3   OH210517   7.060   2.743   4.550 -0.0681 -0.5627 -0.3813
 3518TIP3    H110518   7.100   2.816   4.502 -0.7472  0.2754  0.2839
 3518TIP3    H210519   7.126   2.674   4.547  0.8265  0.2657 -0.5872
 3519TIP3   OH210520   5.035   1.545   5.412 -0.0913  0.4063 -0.0107
 3519TIP3    H110521   4.943   1.518   5.409  0.1302 -0.6585  1.5607
 3519TIP3    H210522   5.070   1.522   5.326 -0.6790 -1.5819  0.2384
 3520TIP3   OH210523   4.497   6.493   4.321  0.0966  0.3064 -0.1785
 3520TIP3    H110524   4.404   6.482   4.337  0.0180  0.9118 -0.1929
 3520TIP3    H210525   4.512   6.587   4.330  0.3707  0.4585 -1.8652
 3521TIP3   OH210526   2.054   6.158   2.539 -0.5205 -0.7360  0.1523
 3521TIP3    H110527   1.966   6.139   2.572 -0.6706 -1.3104 -0.5571
 3521TIP3    H210528   2.040   6.220   2.468 -0.4449 -1.5269 -0.5685
 3522TIP3   OH210529   3.360   1.827   5.746 -0.1547  0.8582 -0.6262
 3522TIP3    H110530   3.394   1.738   5.737 -1.8004  0.1249 -0.0479
 3522TIP3    H210531   3.406   1.878   5.679  3.0228  0.2928  0.9608
 3523TIP3   OH210532   4.505   1.739   4.036  0.1366  0.5620 -0.1414
 3523TIP3    H110533   4.588   1.777   4.008  1.0520 -1.9934 -1.2466
 3523TIP3    H210534   4.530   1.664   4.089 -1.4851  0.0394 -0.0612
 3524TIP3   OH210535   7.170   3.533   0.469  0.3667  0.3982 -0.1458
 3524TIP3    H110536   7.252   3.551   0.424  2.0728 -2.2206  1.6223
 3524TIP3    H210537   7.162   3.602   0.535  1.8781 -0.0478  0.5289
 3525TIP3   OH210538   5.434   2.442   1.594 -0.3921 -0.2028 -0.1671
 3525TIP3    H110539   5.424   2.442   1.499 -2.4818  0.2302  0.0043
 3525TIP3    H210540   5.353   2.481   1.627  0.5618  0.2657  1.7769
 3526TIP3   OH210541   5.154   0.894   4.200  0.3755  0.1404  0.2675
 3526TIP3    H110542   5.176   0.818   4.254 -0.9339  0.1273  0.8140
 3526TIP3    H210543   5.136   0.964   4.263 -2.6552 -0.2701 -0.0304
 3527TIP3   OH210544   0.591   6.783   1.816  0.5423  0.9360  0.6161
 3527TIP3    H110545   0.518   6.745   1.767 -0.0243  0.7005  1.5992
 3527TIP3    H210546   0.586   6.877   1.799  0.6574  0.8024 -0.1655
 3528TIP3   OH210547   5.875   6.343   0.340  0.0828 -0.0800  0.1619
 3528TIP3    H110548   5.799   6.382   0.297  0.5087  0.0688 -0.4693
 3528TIP3    H210549   5.907   6.278   0.278  1.3779  0.9223 -0.2695
 3529TIP3   OH210550   5.351   1.746   5.629 -0.2222 -0.5585 -0.4620
 3529TIP3    H110551   5.348   1.669   5.572 -1.8835 -0.0651 -1.0960
 3529TIP3    H210552   5.445   1.760   5.646  0.1842 -1.8631 -1.4952
 3530TIP3   OH210553   4.123   0.434   0.081 -0.5072  0.2317  0.4213
 3530TIP3    H110554   4.129   0.390  -0.004  3.0441  2.2964 -0.6093
 3530TIP3    H210555   4.114   0.527   0.059  1.6478  0.9388  2.1506
 3531TIP3   OH210556   4.225   0.279   0.283  0.2379  0.0268  0.4797
 3531TIP3    H110557   4.313   0.254   0.255  0.8193  2.1626  0.1715
 3531TIP3    H210558   4.187   0.323   0.207 -0.4807  0.5242  1.1082
 3532TIP3   OH210559   1.307   3.455   2.136  0.7482 -0.4252  0.3913
 3532TIP3    H110560   1.333   3.401   2.061  0.8463  2.7175 -2.0483
 3532TIP3    H210561   1.220   3.423   2.159  1.2117 -2.2646 -0.2459
 3533TIP3   OH210562   2.839   2.266   2.120 -0.2790  0.0297 -0.0644
 3533TIP3    H110563   2.814   2.358   2.133 -0.5701 -0.1290  0.5478
 3533TIP3    H210564   2.773   2.216   2.169  0.5889 -0.4478  0.6572
 3534TIP3   OH210565   0.404   3.403   2.532 -0.0088 -0.0203 -0.4212
 3534TIP3    H110566   0.493   3.439   2.530  0.7485 -1.7695 -1.7493
 3534TIP3    H210567   0.412   3.321   2.580 -0.9219 -0.1494 -0.4670
 3535TIP3   OH210568   3.140   6.262   1.315 -0.4297  0.0129  0.0335
 3535TIP3    H110569   3.111   6.304   1.396  0.7660 -0.9565  1.0206
 3535TIP3    H210570   3.231   6.238   1.333 -0.8109 -2.2412 -0.7611
 3536TIP3   OH210571   5.659   2.656   0.074  0.5330  0.4822 -0.0474
 3536TIP3    H110572   5.610   2.576   0.092  1.0646  0.5787  2.1294
 3536TIP3    H210573   5.592   2.724   0.066  0.1802  0.1452  0.0202
 3537TIP3   OH210574   2.753   6.318   1.079 -0.2493 -0.4036  0.1578
 3537TIP3    H110575   2.724   6.378   1.149 -0.4330  0.9837 -1.0599
 3537TIP3    H210576   2.848   6.314   1.090 -0.2826 -0.2441  0.5354
 3538TIP3   OH210577   3.052   4.176   4.077 -0.5198 -0.2733  0.1609
 3538TIP3    H110578   3.052   4.172   4.173 -0.9790  0.9747  0.2283
 3538TIP3    H210579   2.976   4.123   4.052 -1.2656  0.5774  0.5685
 3539TIP3   OH210580   6.869   3.515   4.548  0.0934 -0.4757 -0.3569
 3539TIP3    H110581   6.962   3.511   4.568  0.1268 -0.0681 -0.4177
 3539TIP3    H210582   6.841   3.599   4.585  0.0026 -0.0387 -1.3870
 3540TIP3   OH210583   1.073   6.210   1.661 -0.4770  0.1631 -0.0529
 3540TIP3    H110584   1.155   6.162   1.667  0.0037  1.0973  1.5520
 3540TIP3    H210585   1.033   6.199   1.747 -1.4032  0.8133 -0.3841
 3541TIP3   OH210586   6.389   2.933   0.771  0.2378  0.2016  0.7280
 3541TIP3    H110587   6.312   2.913   0.717  0.3538 -1.5826  1.1922
 3541TIP3    H210588   6.354   2.946   0.859  0.2915  1.1395  0.6270
 3542TIP3   OH210589   2.870   4.365   1.650  0.7518 -0.1790 -0.4516
 3542TIP3    H110590   2.842   4.456   1.661 -2.3350 -1.1990  1.3791
 3542TIP3    H210591   2.909   4.342   1.734 -0.4866 -1.1173 -0.1056
 3543TIP3   OH210592   3.871   4.427   2.398 -0.4203 -0.0932  0.4407
 3543TIP3    H110593   3.837   4.368   2.332  1.0563 -1.6527  1.0027
 3543TIP3    H210594   3.916   4.496   2.348  0.6401 -1.2263 -0.2127
 3544TIP3   OH210595   5.384   5.305   5.679 -0.2386  0.8280 -0.1004
 3544TIP3    H110596   5.403   5.211   5.676 -1.7747  0.4667 -3.0315
 3544TIP3    H210597   5.290   5.309   5.697 -0.0140  1.8767  0.8934
 3545TIP3   OH210598   5.319   6.163   0.781  0.1033 -0.7325 -0.2253
 3545TIP3    H110599   5.404   6.160   0.737  0.4041  0.2087  0.2683
 3545TIP3    H210600   5.256   6.140   0.713  0.5909  0.3203 -1.0616
 3546TIP3   OH210601   4.107   4.318   4.785  0.3236 -0.6288 -0.7343
 3546TIP3    H110602   4.086   4.408   4.757  0.9442  0.2063  1.3009
 3546TIP3    H210603   4.175   4.290   4.724 -0.7509 -0.2241 -2.1852
 3547TIP3   OH210604   4.432   2.591   4.209  0.0488 -0.0223  0.7260
 3547TIP3    H110605   4.448   2.658   4.276  1.2376 -0.3885  0.8260
 3547TIP3    H210606   4.467   2.510   4.246  1.3115 -0.1123 -0.5802
 3548TIP3   OH210607   3.815   3.655   5.024 -0.2591  0.5382  0.3144
 3548TIP3    H110608   3.744   3.644   4.961 -0.9544 -0.5660  1.2479
 3548TIP3    H210609   3.880   3.589   4.999  0.3793  1.4126 -0.4153
 3549TIP3   OH210610   1.249   2.623   0.158 -0.6507  0.4604  0.3141
 3549TIP3    H110611   1.279   2.709   0.188 -0.1873  0.4610 -0.1349
 3549TIP3    H210612   1.266   2.623   0.064 -2.7321  0.7295 -0.1058
 3550TIP3   OH210613   1.108   3.639   2.379  0.2193  0.4933 -0.7970
 3550TIP3    H110614   1.086   3.573   2.314 -0.1925  0.6010 -0.7691
 3550TIP3    H210615   1.113   3.591   2.461  0.0217  0.4765 -0.7931
 3551TIP3   OH210616   1.376   3.279   1.919 -0.2483  0.4246  0.9331
 3551TIP3    H110617   1.292   3.231   1.916 -0.8063  1.4530 -1.3607
 3551TIP3    H210618   1.442   3.210   1.929 -1.1963 -0.6430  0.1399
 3552TIP3   OH210619   4.782   5.431   3.062  0.1854  0.3277 -0.1518
 3552TIP3    H110620   4.702   5.460   3.106  1.0382  2.8529 -0.0957
 3552TIP3    H210621   4.789   5.488   2.986  1.3205 -0.6884 -0.8436
 3553TIP3   OH210622   6.988   5.129   2.610  0.1621 -0.2720 -0.0333
 3553TIP3    H110623   6.921   5.179   2.657  0.5081  0.3761 -0.2232
 3553TIP3    H210624   6.940   5.056   2.570 -0.2353 -0.4798  0.7973
 3554TIP3   OH210625   3.691   5.118   1.031  0.0357 -0.5553 -0.8271
 3554TIP3    H110626   3.600   5.091   1.022 -0.3032  0.7214 -1.5907
 3554TIP3    H210627   3.686   5.208   1.064  0.9819 -0.1510 -1.7193
 3555TIP3   OH210628   3.987   1.101   5.761 -0.9295  0.4965 -0.1722
 3555TIP3    H110629   3.997   1.022   5.813 -0.6649  0.3464 -0.4466
 3555TIP3    H210630   3.904   1.090   5.715 -0.7604  0.2494 -0.4240
 3556TIP3   OH210631   3.303   6.320   1.644  0.2078 -0.1944 -0.6875
 3556TIP3    H110632   3.214   6.338   1.674 -0.1537  0.2942 -1.9927
 3556TIP3    H210633   3.311   6.225   1.648 -0.3164 -0.2303 -0.4235
 3557TIP3   OH210634   3.408   6.102   1.307  0.3605  0.2777 -0.3342
 3557TIP3    H110635   3.427   6.100   1.213  0.8057  2.0733 -0.3149
 3557TIP3    H210636   3.490   6.079   1.350 -0.0988 -1.5954 -0.3452
 3558TIP3   OH210637   3.523   0.537   1.135  0.3444  0.0854 -0.0017
 3558TIP3    H110638   3.572   0.462   1.101  0.5332  0.6241 -0.9475
 3558TIP3    H210639   3.570   0.562   1.214  0.2927 -0.7712  0.3180
 3559TIP3   OH210640   2.375   5.634   5.021 -0.4403 -0.4885  0.0425
 3559TIP3    H110641   2.385   5.707   4.960 -0.1656 -0.6414 -0.0991
 3559TIP3    H210642   2.367   5.557   4.965  1.3104 -0.8270  0.1879
 3560TIP3   OH210643   2.890   5.743   1.847  0.6399 -0.4149 -0.2531
 3560TIP3    H110644   2.930   5.735   1.933  1.6656 -0.8344 -0.7464
 3560TIP3    H210645   2.950   5.800   1.798 -0.5253  0.7719 -0.3515
 3561TIP3   OH210646   2.425   5.955   1.678 -0.4565  0.1925 -0.4964
 3561TIP3    H110647   2.424   5.864   1.708  0.1714  0.1583 -0.5582
 3561TIP3    H210648   2.496   5.996   1.728 -1.2535  0.8530  0.1115
 3562TIP3   OH210649   2.699   2.145   0.589  0.2244 -0.3563  0.1216
 3562TIP3    H110650   2.701   2.103   0.503 -0.4147  0.3299 -0.2373
 3562TIP3    H210651   2.790   2.150   0.615  0.5777  0.9105 -1.2490
 3563TIP3   OH210652   0.720   6.322   2.252  0.3602  0.1557 -0.3209
 3563TIP3    H110653   0.674   6.392   2.299  0.0496 -0.7036  0.6788
 3563TIP3    H210654   0.672   6.314   2.169  0.4260  1.1524 -0.4673
 3564TIP3   OH210655   5.214   6.101   1.621 -0.5056  1.1400  0.2402
 3564TIP3    H110656   5.216   6.141   1.534  1.4270 -1.1625 -0.9010
 3564TIP3    H210657   5.162   6.021   1.610  1.5001 -0.2955  0.5560
 3565TIP3   OH210658   5.309   6.075   4.788 -0.0430  0.0943 -0.5958
 3565TIP3    H110659   5.392   6.055   4.831 -0.2416 -0.4279 -0.4388
 3565TIP3    H210660   5.307   6.170   4.781  0.3713  0.1338 -0.2062
 3566TIP3   OH210661   4.445   6.034   2.836  0.3553  0.4218  0.0776
 3566TIP3    H110662   4.489   5.955   2.866 -1.6531 -1.3327 -1.2463
 3566TIP3    H210663   4.412   6.011   2.749  0.9868  3.2654 -1.0285
 3567TIP3   OH210664   4.643   4.143   1.136 -0.5490  0.5411  0.1022
 3567TIP3    H110665   4.635   4.151   1.040 -1.6296  1.4656  0.2494
 3567TIP3    H210666   4.554   4.123   1.165 -0.3467  0.8987  0.9766
 3568TIP3   OH210667   4.243   6.801   3.592  0.0961  0.0417 -0.0011
 3568TIP3    H110668   4.276   6.758   3.514  0.4397  0.4298 -0.0762
 3568TIP3    H210669   4.226   6.730   3.654  0.0098 -0.2496 -0.3569
 3569TIP3   OH210670   5.318   6.115   3.635 -0.0958  0.3101  0.1391
 3569TIP3    H110671   5.349   6.202   3.660 -1.0074  0.2762  1.5428
 3569TIP3    H210672   5.246   6.097   3.696  0.6099 -1.7779  0.4650
 3570TIP3   OH210673   4.400   0.931   4.671 -0.0438 -0.0613 -0.2701
 3570TIP3    H110674   4.381   1.025   4.672 -1.1757 -0.2345 -1.7173
 3570TIP3    H210675   4.324   0.892   4.628  0.5791 -1.6053 -0.0205
 3571TIP3   OH210676   0.302   5.442   4.577  0.0364 -0.1880  0.2092
 3571TIP3    H110677   0.388   5.469   4.609  1.0967  0.6379 -2.9599
 3571TIP3    H210678   0.252   5.523   4.571 -1.1232 -0.6817  2.1836
 3572TIP3   OH210679   6.549   5.519   2.372  0.4446 -0.1046  0.0579
 3572TIP3    H110680   6.463   5.517   2.412  0.2953  0.4832 -0.2313
 3572TIP3    H210681   6.589   5.600   2.404  1.1721 -0.7078  0.7559
 3573TIP3   OH210682   3.978   6.450   2.648  0.3139  0.6290 -0.5065
 3573TIP3    H110683   3.941   6.479   2.731  0.0418  1.7803 -1.0155
 3573TIP3    H210684   4.006   6.530   2.605  0.0785  0.0864 -1.7095
 3574TIP3   OH210685   6.541   1.215   1.822  0.2258  0.1374 -0.0414
 3574TIP3    H110686   6.636   1.209   1.826  0.1409 -0.5668  1.3534
 3574TIP3    H210687   6.522   1.305   1.850  0.4575  0.1376  0.1182
 3575TIP3   OH210688   0.834   2.830   1.074 -0.0136 -0.8269 -0.8539
 3575TIP3    H110689   0.925   2.819   1.046  0.6718  2.4431 -0.2948
 3575TIP3    H210690   0.841   2.862   1.164 -1.8526 -2.6973  0.0110
 3576TIP3   OH210691   1.832   5.176   4.871 -0.3020  0.2196  0.7412
 3576TIP3    H110692   1.876   5.160   4.788  0.8964  0.7211  1.2546
 3576TIP3    H210693   1.739   5.169   4.851 -0.0054 -1.5417 -0.2440
 3577TIP3   OH210694   5.005   5.797   0.535  0.5884 -0.0754 -0.3872
 3577TIP3    H110695   4.916   5.798   0.498 -0.1663  0.9580  1.3119
 3577TIP3    H210696   5.004   5.721   0.593  0.0461  1.1277  1.2551
 3578TIP3   OH210697   2.144   4.314   1.893 -0.7103  0.0740 -0.1551
 3578TIP3    H110698   2.154   4.373   1.818  0.3806  0.8842  0.5829
 3578TIP3    H210699   2.166   4.369   1.968 -0.8252 -0.9895  0.6672
 3579TIP3   OH210700   1.407   6.367   4.734  0.0752  0.4020 -0.1710
 3579TIP3    H110701   1.454   6.310   4.672 -0.7708  2.8560 -3.3259
 3579TIP3    H210702   1.475   6.394   4.797  1.8500  0.3328 -1.9479
 3580TIP3   OH210703   4.661   3.810   5.257 -0.1935  0.2792  0.1143
 3580TIP3    H110704   4.732   3.872   5.240 -0.3177  0.9289  1.7040
 3580TIP3    H210705   4.697   3.725   5.233  0.9729  0.6595  0.4282
 3581TIP3   OH210706   2.346   0.838   3.821 -0.0908  0.3164  0.7202
 3581TIP3    H110707   2.338   0.867   3.912  0.4084  0.6884  0.6494
 3581TIP3    H210708   2.267   0.786   3.805 -0.2090  0.2974  1.3472
 3582TIP3   OH210709   3.555   1.168   0.690 -0.1958  0.6286  0.2042
 3582TIP3    H110710   3.559   1.092   0.747 -0.7974 -0.0053 -0.5815
 3582TIP3    H210711   3.571   1.243   0.748  0.5834 -0.1046  0.9447
 3583TIP3   OH210712   6.404   0.343   4.171 -0.4572  0.2246  0.4605
 3583TIP3    H110713   6.367   0.266   4.214  0.8909 -1.1829 -0.7912
 3583TIP3    H210714   6.387   0.330   4.078  2.0403  0.0618 -0.0551
 3584TIP3   OH210715   0.693   4.938   5.247 -0.6581  0.0915 -0.4212
 3584TIP3    H110716   0.669   4.971   5.161 -1.6261 -2.1529 -1.0798
 3584TIP3    H210717   0.691   4.843   5.238  1.3729 -0.2275  1.5096
 3585TIP3   OH210718   2.960   1.790   4.340 -0.3196 -0.4154  0.1339
 3585TIP3    H110719   2.885   1.833   4.381 -0.0347 -0.6322  0.9010
 3585TIP3    H210720   2.921   1.731   4.275 -0.7496  0.3332 -0.3019
 3586TIP3   OH210721   7.176   6.017   2.081  0.5004  0.5052  0.3145
 3586TIP3    H110722   7.153   6.075   2.154 -0.9599 -0.4455  0.6491
 3586TIP3    H210723   7.189   6.076   2.007  2.9843  1.5969  1.4830
 3587TIP3   OH210724   5.119   0.774   3.530  0.0446  0.1668  0.0688
 3587TIP3    H110725   5.179   0.791   3.603 -1.0705  0.9032  0.8500
 3587TIP3    H210726   5.152   0.695   3.489  0.8373 -0.1281  1.2365
 3588TIP3   OH210727   2.243   6.282   3.230 -0.3887 -0.1559 -0.1207
 3588TIP3    H110728   2.209   6.194   3.211  1.2927 -0.2285 -3.3901
 3588TIP3    H210729   2.328   6.284   3.187  1.3275  1.9029  2.9988
 3589TIP3   OH210730   4.388   1.054   4.120 -0.0639  1.0421  0.5225
 3589TIP3    H110731   4.393   1.016   4.032  2.5227 -1.4001  1.5453
 3589TIP3    H210732   4.458   1.119   4.122 -1.3288  2.4508  0.2647
 3590TIP3   OH210733   2.611   2.705   5.249  0.0140 -0.4482 -0.2857
 3590TIP3    H110734   2.590   2.743   5.335 -0.5445 -0.2300 -0.5108
 3590TIP3    H210735   2.607   2.610   5.263 -1.9495 -0.4385 -0.4787
 3591TIP3   OH210736   4.546   0.170   3.672  0.3964  0.0886  0.0259
 3591TIP3    H110737   4.564   0.078   3.654 -0.4753  0.0844 -0.8763
 3591TIP3    H210738   4.589   0.217   3.601  0.7826  0.3864  0.4484
 3592TIP3   OH210739   4.570   0.485   0.702  0.3400  0.5844  0.1442
 3592TIP3    H110740   4.510   0.552   0.667  0.5259  0.4502 -0.4450
 3592TIP3    H210741   4.592   0.516   0.789 -0.7229  0.5532  0.4394
 3593TIP3   OH210742   0.182   1.246   4.105  0.3094 -0.8330  0.1391
 3593TIP3    H110743   0.126   1.228   4.030 -3.0606 -2.5135  2.7598
 3593TIP3    H210744   0.164   1.338   4.126  0.6919 -0.5773 -0.6172
 3594TIP3   OH210745   4.657   3.452   2.944  0.2622  0.5047 -1.0479
 3594TIP3    H110746   4.568   3.422   2.924  0.3145 -0.2762 -0.1862
 3594TIP3    H210747   4.645   3.520   3.009  0.2421  1.2297 -1.7906
 3595TIP3   OH210748   1.522   6.371   1.266  0.1306  0.0015  0.5586
 3595TIP3    H110749   1.491   6.450   1.222 -0.7761 -1.0284 -0.7376
 3595TIP3    H210750   1.446   6.339   1.314  0.5723  0.0592  1.2999
 3596TIP3   OH210751   0.611   0.297   2.080  0.6983 -0.5917 -0.3375
 3596TIP3    H110752   0.689   0.254   2.115  0.9984  0.1439 -0.0883
 3596TIP3    H210753   0.643   0.378   2.041 -0.0787  0.4116  1.0001
 3597TIP3   OH210754   2.513   3.643   1.479 -0.4402 -0.7869 -0.6767
 3597TIP3    H110755   2.533   3.730   1.515  0.0255 -1.1429 -0.0473
 3597TIP3    H210756   2.450   3.660   1.409 -1.2853 -0.0641  0.2316
 3598TIP3   OH210757   1.936   1.842   3.377  0.5463  0.1490  1.0335
 3598TIP3    H110758   1.886   1.810   3.453 -0.6320  0.9196  0.5999
 3598TIP3    H210759   1.875   1.837   3.304  1.0035  1.3609  0.5381
 3599TIP3   OH210760   0.761   0.573   3.612  0.4359  0.4108 -0.0524
 3599TIP3    H110761   0.825   0.584   3.542  0.7693 -0.3535  0.1197
 3599TIP3    H210762   0.696   0.512   3.576 -0.2965  1.3180 -0.2873
 3600TIP3   OH210763   1.470   1.511   1.354 -0.1453 -0.0361  0.4935
 3600TIP3    H110764   1.531   1.519   1.281 -0.8415 -3.5167 -0.6474
 3600TIP3    H210765   1.525   1.493   1.430  0.3995  0.0305  0.1160
 3601TIP3   OH210766   5.785   2.775   0.965  0.4687  0.2650 -0.4721
 3601TIP3    H110767   5.798   2.865   0.995 -0.0679  1.0210 -2.3583
 3601TIP3    H210768   5.872   2.746   0.939  1.0591 -0.6178  2.1725
 3602TIP3   OH210769   3.866   3.139   1.272 -0.0812  0.0759 -0.2877
 3602TIP3    H110770   3.866   3.109   1.181 -1.9910  0.5816 -0.5025
 3602TIP3    H210771   3.887   3.061   1.323 -1.0741 -0.7295 -1.0624
 3603TIP3   OH210772   3.737   4.278   2.216  0.7409 -0.1733 -0.1651
 3603TIP3    H110773   3.650   4.269   2.254  2.0095 -0.2879  2.9860
 3603TIP3    H210774   3.723   4.328   2.135 -2.0748  0.9566  0.9086
 3604TIP3   OH210775   6.993   1.239   1.445 -0.3083  0.0351 -0.3692
 3604TIP3    H110776   6.918   1.189   1.411  0.4559  0.2978 -2.5473
 3604TIP3    H210777   7.037   1.179   1.504 -0.7124 -1.0842 -1.1776
 3605TIP3   OH210778   3.014   1.523   2.884  0.3418 -0.1057 -0.1120
 3605TIP3    H110779   2.953   1.452   2.862  2.0226 -1.2992 -1.1891
 3605TIP3    H210780   2.997   1.541   2.976 -0.2700 -1.7972  0.1527
 3606TIP3   OH210781   0.653   1.971   4.156  0.7961 -0.2545  0.6894
 3606TIP3    H110782   0.566   1.937   4.135  0.2866  1.7553 -0.8348
 3606TIP3    H210783   0.713   1.919   4.103  0.6470 -2.0763  2.2240
 3607TIP3   OH210784   1.707   3.580   2.165  0.4642 -1.0053  0.2232
 3607TIP3    H110785   1.646   3.579   2.092  0.3728 -1.6859  0.3016
 3607TIP3    H210786   1.785   3.623   2.130  0.1927 -0.7531 -0.0821
 3608TIP3   OH210787   1.674   5.293   3.642 -0.1337  0.2313 -0.1094
 3608TIP3    H110788   1.717   5.210   3.623 -3.1964 -1.3588 -0.6544
 3608TIP3    H210789   1.736   5.340   3.698  2.0145 -2.0735 -0.3963
 3609TIP3   OH210790   1.181   1.453   4.735  0.3594  0.5598  0.4332
 3609TIP3    H110791   1.188   1.531   4.681  1.1450 -0.1401 -0.5089
 3609TIP3    H210792   1.200   1.483   4.824 -1.5416  1.8360  0.4503
 3610TIP3   OH210793   6.805   6.700   5.796 -0.2691  0.1466  0.3961
 3610TIP3    H110794   6.810   6.768   5.864  0.5397  0.3929  0.1122
 3610TIP3    H210795   6.820   6.618   5.842 -0.0205  0.2859  0.5658
 3611TIP3   OH210796   6.200   0.043   2.078 -0.2725  0.2013 -0.5872
 3611TIP3    H110797   6.123   0.098   2.093 -0.3203  0.3957 -1.4333
 3611TIP3    H210798   6.168  -0.047   2.084 -0.0573  0.2362  1.4863
 3612TIP3   OH210799   0.924   4.278   4.028 -0.2377  0.1687 -0.0265
 3612TIP3    H110800   0.902   4.206   4.087 -0.8227 -1.4628 -2.1302
 3612TIP3    H210801   0.841   4.320   4.008 -0.6943 -1.7478 -2.6470
 3613TIP3   OH210802   5.029   1.165   3.612 -0.3964  0.3346 -0.2115
 3613TIP3    H110803   4.985   1.250   3.615  1.4053  1.4152 -2.1655
 3613TIP3    H210804   4.982   1.116   3.546  0.0796  0.7711 -0.8908
 3614TIP3   OH210805   6.983   1.168   4.802 -0.0069 -0.2270 -0.2018
 3614TIP3    H110806   7.056   1.107   4.817  0.1844 -0.2618 -1.1857
 3614TIP3    H210807   6.905   1.117   4.822  0.2442  0.1758  2.0848
 3615TIP3   OH210808   5.725   3.997   4.198  0.6712  0.1119  0.0898
 3615TIP3    H110809   5.787   3.933   4.232 -0.1880  0.2314  2.0369
 3615TIP3    H210810   5.665   3.945   4.144  0.4556 -0.6258  0.9966
 3616TIP3   OH210811   1.646   2.057   2.491  0.1629  0.0491 -0.3366
 3616TIP3    H110812   1.614   2.135   2.445  2.7982  2.0551  0.8927
 3616TIP3    H210813   1.712   2.020   2.432  0.6143  0.2083  0.0568
 3617TIP3   OH210814   0.516   6.540   4.751  0.7996 -0.6711  0.6527
 3617TIP3    H110815   0.545   6.450   4.769  1.7486 -0.6005 -0.3800
 3617TIP3    H210816   0.494   6.539   4.657  2.2824  0.5394  0.2649
 3618TIP3   OH210817   6.620   2.516   5.396 -0.3123 -1.1901  0.1699
 3618TIP3    H110818   6.712   2.508   5.368  0.1376  0.1689  1.1636
 3618TIP3    H210819   6.579   2.569   5.329 -0.1342 -1.0113  0.2005
 3619TIP3   OH210820   6.348   2.681   3.167  0.1459  0.6363 -0.4326
 3619TIP3    H110821   6.263   2.689   3.210 -1.2464 -0.3377 -2.7866
 3619TIP3    H210822   6.370   2.588   3.174  1.6543  1.0465  1.1293
 3620TIP3   OH210823   3.735   0.061   3.785  0.2392  0.4692  0.4083
 3620TIP3    H110824   3.694   0.103   3.710  1.3485 -1.1483 -1.2251
 3620TIP3    H210825   3.781  -0.015   3.747 -2.1871 -2.6663  3.1677
 3621TIP3   OH210826   2.977   0.339   2.493  0.0014  0.4799  0.3729
 3621TIP3    H110827   3.069   0.360   2.482 -0.1202 -0.2561 -4.0791
 3621TIP3    H210828   2.972   0.292   2.576  4.0922 -1.6591 -0.3742
 3622TIP3   OH210829   5.403   1.423   2.712 -0.9725 -0.3499  0.0132
 3622TIP3    H110830   5.327   1.451   2.662 -0.4745  0.9336 -0.0886
 3622TIP3    H210831   5.472   1.484   2.685 -0.4915 -0.1075  1.6795
 3623TIP3   OH210832   5.047   1.135   5.145 -0.0886 -0.3665  0.0562
 3623TIP3    H110833   5.093   1.075   5.204 -1.0436 -0.6311  0.5524
 3623TIP3    H210834   5.084   1.117   5.059  0.8263 -0.4727  0.4556
 3624TIP3   OH210835   3.164   2.344   0.037  0.3694  0.2217 -0.2194
 3624TIP3    H110836   3.123   2.380  -0.042 -0.0773  0.2782  0.0334
 3624TIP3    H210837   3.126   2.256   0.046 -0.4424  0.6256  0.5439
 3625TIP3   OH210838   3.698   4.051   4.562 -0.0670  0.1405 -0.2218
 3625TIP3    H110839   3.675   4.016   4.649 -1.2535 -0.0725 -0.6053
 3625TIP3    H210840   3.729   3.974   4.513  0.2913  0.2035 -0.1005
 3626TIP3   OH210841   3.938   2.150   0.841 -0.0124 -0.1314 -0.1716
 3626TIP3    H110842   3.867   2.212   0.854  1.7311  2.1488 -0.7610
 3626TIP3    H210843   3.950   2.146   0.747 -0.3561 -1.7581 -0.1772
 3627TIP3   OH210844   2.925   3.601   2.277  0.9222 -0.3056  0.3891
 3627TIP3    H110845   2.853   3.621   2.336  1.7208 -0.1176  1.3247
 3627TIP3    H210846   2.964   3.521   2.312  0.9433 -0.6189 -0.3300
 3628TIP3   OH210847   5.444   5.773   5.701 -0.4743  0.2493  0.5761
 3628TIP3    H110848   5.516   5.774   5.638  1.3147  0.0818  2.5370
 3628TIP3    H210849   5.372   5.730   5.654  1.5360 -2.0275 -0.6027
 3629TIP3   OH210850   4.387   1.405   0.413  0.1881 -0.1498  0.2543
 3629TIP3    H110851   4.383   1.390   0.507  2.3721 -0.0397  0.4189
 3629TIP3    H210852   4.324   1.344   0.376  0.7708 -1.6749  1.6539
 3630TIP3   OH210853   7.154   3.354   3.369  0.3710  0.0363 -0.0403
 3630TIP3    H110854   7.091   3.362   3.297  0.1073  2.7348  0.3875
 3630TIP3    H210855   7.204   3.275   3.349  0.1167  0.5306 -3.0314
 3631TIP3   OH210856   4.370   4.880   5.745 -0.1841 -0.0377  0.7016
 3631TIP3    H110857   4.455   4.911   5.713  0.1160  1.7001  2.8967
 3631TIP3    H210858   4.376   4.785   5.741  2.7670 -0.0851  2.7000
 3632TIP3   OH210859   2.989   3.630   2.631 -0.0075  0.6163 -0.2252
 3632TIP3    H110860   2.948   3.609   2.715 -0.9287  1.7700 -0.3623
 3632TIP3    H210861   3.053   3.560   2.618 -1.7059 -1.1188  0.1602
 3633TIP3   OH210862   6.962   2.687   5.141 -0.1049 -0.2946 -0.1111
 3633TIP3    H110863   7.033   2.750   5.145 -0.4347  0.0222  1.6018
 3633TIP3    H210864   6.978   2.637   5.061  0.7956  1.1997 -0.8969
 3634TIP3   OH210865   0.339   6.400   2.632  0.3380  0.1076  0.2395
 3634TIP3    H110866   0.279   6.438   2.697 -0.4583 -0.8108  0.0630
 3634TIP3    H210867   0.387   6.333   2.679  1.6959  1.2556  0.5320
 3635TIP3   OH210868   3.063   1.705   2.156  0.4560 -0.2364 -0.0023
 3635TIP3    H110869   3.141   1.673   2.201  0.9887  1.9422  0.6956
 3635TIP3    H210870   2.997   1.638   2.174  1.2561 -0.5206  2.2131
 3636TIP3   OH210871   4.629   4.879   2.636  0.5971 -0.0583  0.0369
 3636TIP3    H110872   4.678   4.804   2.602 -0.3336  0.0098 -1.5450
 3636TIP3    H210873   4.539   4.847   2.646  0.2555  0.7482 -0.3598
 3637TIP3   OH210874   2.414   4.127   2.650  0.2104 -0.4689  0.1275
 3637TIP3    H110875   2.496   4.119   2.698  1.0520 -1.0819 -1.3457
 3637TIP3    H210876   2.434   4.092   2.563 -1.6261 -0.6710 -0.2462
 3638TIP3   OH210877   4.872   4.383   3.938 -0.3756 -0.2176  0.0949
 3638TIP3    H110878   4.785   4.415   3.964  0.0710 -0.9669  2.8103
 3638TIP3    H210879   4.856   4.296   3.902 -0.6796 -0.9343  1.8702
 3639TIP3   OH210880   0.287   2.921   1.887 -0.2484  0.7595  0.2608
 3639TIP3    H110881   0.260   2.881   1.970  0.5092  0.7648  0.5144
 3639TIP3    H210882   0.338   2.997   1.912  0.7357  0.2718 -0.1911
 3640TIP3   OH210883   5.725   3.547   3.533  0.1243 -0.0487 -0.7562
 3640TIP3    H110884   5.646   3.495   3.522 -0.6202  0.7277  0.7564
 3640TIP3    H210885   5.791   3.484   3.562 -0.3594 -0.4203 -0.4489
 3641TIP3   OH210886   4.742   5.800   1.210  0.1835 -0.5201  0.1059
 3641TIP3    H110887   4.780   5.859   1.276 -0.8710 -2.1612  2.3019
 3641TIP3    H210888   4.754   5.712   1.246 -4.8330 -1.2685  0.6835
 3642TIP3   OH210889   1.671   1.272   5.455 -0.0009  0.2449 -0.4841
 3642TIP3    H110890   1.764   1.250   5.458  0.1359  0.6670 -1.2076
 3642TIP3    H210891   1.628   1.190   5.429  0.4811  0.6915 -2.9542
 3643TIP3   OH210892   1.596   6.380   1.753  0.2339  0.4736  0.4083
 3643TIP3    H110893   1.598   6.442   1.680  2.2743 -2.0764 -1.9414
 3643TIP3    H210894   1.552   6.303   1.717 -0.2300 -0.2941  2.4881
 3644TIP3   OH210895   5.362   6.332   4.763  0.2225  0.1583  0.4311
 3644TIP3    H110896   5.449   6.307   4.795 -0.0108 -0.4842  0.5809
 3644TIP3    H210897   5.372   6.337   4.668  0.5075  0.4449  0.4714
 3645TIP3   OH210898   0.249   0.668   0.050 -0.2636 -0.2045  0.1119
 3645TIP3    H110899   0.156   0.656   0.070  0.0523  0.3381  2.1241
 3645TIP3    H210900   0.252   0.744  -0.007 -1.0771 -0.4325 -0.2495
 3646TIP3   OH210901   4.417   3.350   5.425 -0.6825 -0.1147  0.1755
 3646TIP3    H110902   4.355   3.346   5.497 -2.0581 -0.8304 -1.0062
 3646TIP3    H210903   4.492   3.298   5.455 -1.6718 -1.2927  0.6799
 3647TIP3   OH210904   1.108   1.806   1.869  0.9311 -0.1621  0.2473
 3647TIP3    H110905   1.150   1.796   1.783 -0.8803  0.7976 -0.8020
 3647TIP3    H210906   1.144   1.734   1.921  0.8816 -1.7751 -1.8044
 3648TIP3   OH210907   4.545   5.431   2.709 -0.2803  0.0221 -0.4782
 3648TIP3    H110908   4.534   5.363   2.643 -0.7222 -0.4538  0.0747
 3648TIP3    H210909   4.475   5.494   2.691 -0.1587  0.0982 -0.6977
 3649TIP3   OH210910   6.498   3.728   5.728 -0.5731  0.2489 -0.5335
 3649TIP3    H110911   6.407   3.733   5.700 -0.5309 -2.4038 -1.4799
 3649TIP3    H210912   6.549   3.745   5.649 -0.4090 -2.8448 -1.2518
 3650TIP3   OH210913   3.588   0.319   0.348  0.0003  0.1695 -0.3520
 3650TIP3    H110914   3.587   0.405   0.306 -2.7505  0.4268  0.0569
 3650TIP3    H210915   3.561   0.258   0.279  0.0791 -0.0789 -0.1653
 3651TIP3   OH210916   3.645   6.044   4.699  0.5919 -0.1335 -0.0908
 3651TIP3    H110917   3.691   6.035   4.615  0.2837  1.0508 -0.4072
 3651TIP3    H210918   3.620   6.137   4.703 -1.5703 -0.6604  0.1580
 3652TIP3   OH210919   5.661   5.787   0.324  0.0938 -0.4172  0.0776
 3652TIP3    H110920   5.671   5.776   0.419 -0.4898  2.9154  0.6532
 3652TIP3    H210921   5.750   5.803   0.292 -0.0124  1.8569  0.7157
 3653TIP3   OH210922   6.982   3.226   1.567 -0.2233  0.1302 -0.1978
 3653TIP3    H110923   6.923   3.181   1.507 -0.0328 -0.8279  0.3158
 3653TIP3    H210924   6.975   3.177   1.649  0.7129  0.4655  0.0935
 3654TIP3   OH210925   3.623   0.123   3.523 -0.0308 -0.1557  0.5124
 3654TIP3    H110926   3.655   0.213   3.514 -1.1493  0.3133  0.9336
 3654TIP3    H210927   3.676   0.072   3.463  0.1803  0.9087 -0.2362
 3655TIP3   OH210928   5.959   1.849   1.533 -0.1109  0.4948 -0.0528
 3655TIP3    H110929   6.044   1.884   1.506  0.1020  0.5021  0.6045
 3655TIP3    H210930   5.975   1.756   1.549 -0.5657  0.1759 -1.3238
 3656TIP3   OH210931   0.497   4.558   2.692  0.3558  0.1396  0.0053
 3656TIP3    H110932   0.437   4.490   2.660 -0.9716 -0.5117  3.4204
 3656TIP3    H210933   0.481   4.632   2.634 -3.6037 -0.1462  0.4011
 3657TIP3   OH210934   5.545   0.829   4.325  0.5793  0.7512 -0.2150
 3657TIP3    H110935   5.459   0.795   4.350  1.1836 -1.8083 -1.3258
 3657TIP3    H210936   5.576   0.875   4.404 -0.2005 -1.6089  1.5863
 3658TIP3   OH210937   1.036   4.844   3.201  0.3341 -0.0060 -0.0828
 3658TIP3    H110938   1.128   4.845   3.227  0.5767  1.7593 -0.8726
 3658TIP3    H210939   1.036   4.874   3.110 -0.9683 -0.6653 -0.3261
 3659TIP3   OH210940   2.543   3.937   1.140  0.1660 -0.4975  0.0965
 3659TIP3    H110941   2.591   3.918   1.060  1.2712  0.4596  0.5061
 3659TIP3    H210942   2.609   3.935   1.209 -0.3098  1.1088  0.6459
 3660TIP3   OH210943   0.686   0.680   1.663 -0.3986  0.4323 -0.1814
 3660TIP3    H110944   0.745   0.661   1.591 -1.0258  0.9389 -0.8440
 3660TIP3    H210945   0.738   0.666   1.742  0.2321 -0.3334 -0.7225
 3661TIP3   OH210946   5.776   1.752   3.843 -0.7930  0.2247  0.6230
 3661TIP3    H110947   5.747   1.801   3.920 -1.2091  1.5009 -0.3212
 3661TIP3    H210948   5.699   1.748   3.786 -0.3236 -0.1480  0.0020
 3662TIP3   OH210949   1.120   6.596   2.681 -0.5201  0.3052 -0.5814
 3662TIP3    H110950   1.206   6.612   2.642  0.6770 -1.5594  1.0811
 3662TIP3    H210951   1.060   6.589   2.606  0.4064  3.1202 -1.7233
 3663TIP3   OH210952   2.034   5.730   3.976 -0.0929 -0.0367  0.1187
 3663TIP3    H110953   2.113   5.783   3.988 -0.7571  1.1114 -0.3140
 3663TIP3    H210954   2.065   5.645   3.948  0.9949  0.4467 -0.1840
 3664TIP3   OH210955   6.861   5.841   0.878 -0.5343  0.4180 -0.1689
 3664TIP3    H110956   6.932   5.895   0.842 -0.0304  0.7737  1.2745
 3664TIP3    H210957   6.793   5.903   0.902 -0.3993  0.3207  0.4998
 3665TIP3   OH210958   4.832   2.271   4.931 -0.2770 -0.1464 -0.1592
 3665TIP3    H110959   4.787   2.355   4.924 -0.4707 -0.0705  1.5488
 3665TIP3    H210960   4.908   2.288   4.986 -1.3428 -1.4184  1.8466
 3666TIP3   OH210961   1.408   4.119   2.202 -0.4519  0.4493 -0.2413
 3666TIP3    H110962   1.398   4.163   2.286 -0.7435 -0.6538  0.3205
 3666TIP3    H210963   1.466   4.045   2.220 -2.0453 -0.9323 -0.5448
 3667TIP3   OH210964   6.624   6.587   0.927 -0.0042  0.0917  0.0632
 3667TIP3    H110965   6.688   6.646   0.968 -0.0807  0.3758 -0.2219
 3667TIP3    H210966   6.548   6.590   0.985  0.2050 -0.1726  0.3529
 3668TIP3   OH210967   5.995   3.668   2.028  0.0155 -0.0631 -0.1884
 3668TIP3    H110968   6.069   3.607   2.029  0.4792  0.4848  1.5006
 3668TIP3    H210969   6.035   3.755   2.035 -0.7773  0.2023  1.6630
 3669TIP3   OH210970   0.983   0.970   2.123  0.1245 -0.1570  0.0613
 3669TIP3    H110971   1.047   1.038   2.101 -0.5025  0.3360 -0.2734
 3669TIP3    H210972   0.964   0.927   2.039  1.7063 -1.8481  0.4919
 3670TIP3   OH210973   1.691   1.390   3.504 -0.1099 -0.0724 -0.0546
 3670TIP3    H110974   1.649   1.427   3.582 -0.8377  0.5856 -0.7430
 3670TIP3    H210975   1.718   1.466   3.453  1.5953 -0.4872  0.1664
 3671TIP3   OH210976   5.678   6.325   1.943 -0.3389  0.3284  0.0099
 3671TIP3    H110977   5.608   6.378   1.905 -0.3695  0.0675 -0.2900
 3671TIP3    H210978   5.632   6.253   1.987 -0.3309  0.8579  0.9102
 3672TIP3   OH210979   0.417   4.362   4.861 -0.0058  0.4266  0.4293
 3672TIP3    H110980   0.347   4.355   4.796  0.1381  1.8438  0.0687
 3672TIP3    H210981   0.432   4.457   4.869  2.4673  0.1542 -0.1780
 3673TIP3   OH210982   4.068   4.110   3.131  0.3006 -0.9473  0.1455
 3673TIP3    H110983   4.028   4.048   3.191 -0.8389 -0.0297  0.3780
 3673TIP3    H210984   4.034   4.085   3.045 -1.6195  0.3795  0.4435
 3674TIP3   OH210985   1.842   4.797   1.952 -0.9891  1.1764  0.1631
 3674TIP3    H110986   1.753   4.829   1.938 -0.8122  1.5729 -0.0799
 3674TIP3    H210987   1.831   4.714   1.999 -1.4890  1.1576  0.0175
 3675TIP3   OH210988   5.188   3.176   5.059 -0.2272 -0.0171 -0.0499
 3675TIP3    H110989   5.280   3.161   5.082 -0.1869  0.5875  0.2170
 3675TIP3    H210990   5.174   3.125   4.980  0.3294 -0.1396 -0.0737
 3676TIP3   OH210991   6.822   4.844   1.019  0.5895  0.2477 -0.4218
 3676TIP3    H110992   6.744   4.807   0.977 -0.1520 -1.0049  1.9089
 3676TIP3    H210993   6.828   4.933   0.983 -0.9930 -0.1338 -1.8008
 3677TIP3   OH210994   6.596   4.085   1.762  0.2422 -0.4298 -0.0511
 3677TIP3    H110995   6.535   4.145   1.804 -1.5815 -1.9311 -0.4203
 3677TIP3    H210996   6.646   4.047   1.834 -1.7058 -1.7572  0.6628
 3678TIP3   OH210997   0.162   6.070   0.411  0.0533  0.3775 -0.0256
 3678TIP3    H110998   0.139   6.129   0.482  0.4037 -0.2671  0.6324
 3678TIP3    H210999   0.144   6.120   0.331  1.1446  1.7064  0.5133
 3679TIP3   OH211000   2.589   1.971   1.485  0.0394  0.3137 -0.4989
 3679TIP3    H111001   2.658   2.027   1.521 -0.0501 -0.4837  0.9682
 3679TIP3    H211002   2.636   1.896   1.449  0.0084  0.2620 -0.4316
 3680TIP3   OH211003   1.930   3.655   2.033  0.1889 -0.1576  0.0848
 3680TIP3    H111004   1.945   3.743   2.067  0.1201 -0.3060  0.5148
 3680TIP3    H211005   1.984   3.649   1.955 -0.2810  0.4811 -0.3009
 3681TIP3   OH211006   4.268   3.305   1.842  0.2054  0.3156 -0.4042
 3681TIP3    H111007   4.341   3.243   1.846  1.0174  1.1375 -1.6307
 3681TIP3    H211008   4.191   3.251   1.828  0.5250 -0.5900  1.1333
 3682TIP3   OH211009   6.295   6.232   3.789  0.1630 -0.2451  0.3381
 3682TIP3    H111010   6.369   6.184   3.826 -0.1086  0.4078  1.7894
 3682TIP3    H211011   6.235   6.164   3.759 -0.0172 -0.8494  1.9608
 3683TIP3   OH211012   5.368   5.628   4.651 -0.3265 -0.1455 -0.0031
 3683TIP3    H111013   5.303   5.661   4.589 -1.1854 -2.3733 -0.3900
 3683TIP3    H211014   5.443   5.686   4.641 -1.9882  2.1191 -0.0327
 3684TIP3   OH211015   1.037   4.024   1.009  0.5789 -0.0978  1.0418
 3684TIP3    H111016   1.110   3.974   1.045 -0.8819 -1.6242  1.9930
 3684TIP3    H211017   0.986   3.961   0.960  0.3926  1.1589 -0.4722
 3685TIP3   OH211018   1.341   6.701   4.900 -0.3859  0.6477  0.1051
 3685TIP3    H111019   1.298   6.755   4.833  0.2830 -0.6937 -1.4560
 3685TIP3    H211020   1.337   6.612   4.865  1.6553  0.1712  0.9795
 3686TIP3   OH211021   5.760   3.396   2.269 -0.0641 -0.0401 -0.0685
 3686TIP3    H111022   5.757   3.302   2.291 -1.3064  0.1097  0.5019
 3686TIP3    H211023   5.768   3.440   2.354  0.7901  0.3682 -0.3536
 3687TIP3   OH211024   0.860   0.189   3.947 -0.4744  0.2342  0.3768
 3687TIP3    H111025   0.881   0.271   3.901 -1.4843 -0.1057 -0.7363
 3687TIP3    H211026   0.791   0.150   3.895  0.3658 -1.6191  0.5866
 3688TIP3   OH211027   0.196   6.037   5.166 -0.1967  0.6292 -0.0162
 3688TIP3    H111028   0.242   6.113   5.131 -0.5313  0.9791  0.2824
 3688TIP3    H211029   0.169   5.987   5.089 -0.1382  0.9149 -0.2254
 3689TIP3   OH211030   6.002   6.743   5.340  0.3859  0.1481  0.2338
 3689TIP3    H111031   5.992   6.697   5.423 -0.7092 -1.8840 -0.9553
 3689TIP3    H211032   6.006   6.674   5.274 -1.1709  1.7066 -1.6350
 3690TIP3   OH211033   6.755   0.993   4.875  0.3402 -0.6305 -0.1467
 3690TIP3    H111034   6.725   0.902   4.869 -1.3150 -0.1492  0.3626
 3690TIP3    H211035   6.732   1.031   4.790  0.5549 -0.5462 -0.1674
 3691TIP3   OH211036   1.924   4.962   2.160 -0.4606 -0.3824  0.3678
 3691TIP3    H111037   1.884   5.003   2.083  2.0216  0.3284 -0.6353
 3691TIP3    H211038   1.897   4.870   2.154 -2.1395  0.1074 -0.0738
 3692TIP3   OH211039   1.885   5.003   4.306  0.2130 -0.1508  0.1855
 3692TIP3    H111040   1.921   4.923   4.344 -0.1070  0.1159  1.0793
 3692TIP3    H211041   1.949   5.071   4.327 -0.8038  0.3430  1.8659
 3693TIP3   OH211042   0.978   1.201   1.768 -0.3131 -0.0912  0.1484
 3693TIP3    H111043   1.023   1.192   1.853  0.9704  1.5362 -0.2860
 3693TIP3    H211044   1.047   1.190   1.703 -0.9057  0.5543 -0.6150
 3694TIP3   OH211045   4.161   6.224   4.104  0.3158 -0.1343 -0.5241
 3694TIP3    H111046   4.104   6.228   4.027 -1.4508  1.4835  0.7901
 3694TIP3    H211047   4.102   6.209   4.178  1.9271 -1.3047  0.5874
 3695TIP3   OH211048   3.910   4.133   1.863 -0.1471 -0.0989 -0.2138
 3695TIP3    H111049   3.920   4.062   1.926  1.6992 -0.6429 -1.0634
 3695TIP3    H211050   3.821   4.123   1.829  0.3558 -2.6544 -1.0174
 3696TIP3   OH211051   6.452   5.998   0.526 -0.6141 -0.1244 -0.6567
 3696TIP3    H111052   6.511   5.963   0.460 -0.2992  1.4673 -1.2611
 3696TIP3    H211053   6.492   6.081   0.553  0.4407 -1.6545  3.1387
 3697TIP3   OH211054   2.528   2.436   2.596 -0.7640  0.6030 -0.5498
 3697TIP3    H111055   2.608   2.484   2.616 -1.0848  1.5723 -1.4740
 3697TIP3    H211056   2.462   2.504   2.583 -1.6939 -0.1700 -0.0196
 3698TIP3   OH211057   2.781   1.224   1.036  0.6020  0.0092  0.1907
 3698TIP3    H111058   2.765   1.138   1.076  0.8617 -0.4574 -0.6621
 3698TIP3    H211059   2.727   1.223   0.956  0.7190  0.5788  0.1008
 3699TIP3   OH211060   2.738   0.944   5.008  0.0879 -0.4264 -0.3315
 3699TIP3    H111061   2.810   0.885   4.984  2.4149  1.7531  0.7972
 3699TIP3    H211062   2.735   0.940   5.103 -0.8246  0.0910 -0.3306
 3700TIP3   OH211063   3.149   2.954   5.189  0.2308 -0.1760 -0.1114
 3700TIP3    H111064   3.098   2.940   5.109 -0.6722 -4.5950  0.9567
 3700TIP3    H211065   3.083   2.960   5.258  1.0587 -0.1249  0.6889
 3701TIP3   OH211066   3.430   6.523   1.539  0.1258 -0.1383  0.4643
 3701TIP3    H111067   3.361   6.457   1.538  0.9764 -1.0342 -0.4610
 3701TIP3    H211068   3.399   6.588   1.603 -1.2718 -0.8194  0.5296
 3702TIP3   OH211069   5.515   4.208   5.097 -0.0417  0.0552 -0.2983
 3702TIP3    H111070   5.550   4.269   5.162 -0.7108  1.1922 -0.9779
 3702TIP3    H211071   5.558   4.125   5.118 -0.0801  0.4234  1.4609
 3703TIP3   OH211072   3.936   0.735   2.913 -0.1224  0.0380  0.2912
 3703TIP3    H111073   4.027   0.742   2.943  0.0266 -1.9903  0.4534
 3703TIP3    H211074   3.915   0.823   2.882  1.5918  0.7923  1.0714
 3704TIP3   OH211075   2.327   3.872   1.483  0.5054 -0.2614  0.1123
 3704TIP3    H111076   2.415   3.880   1.518  0.6597  0.6908 -0.4599
 3704TIP3    H211077   2.323   3.936   1.412  0.0079 -1.6993 -1.2170
 3705TIP3   OH211078   6.106   1.895   0.889 -0.3057  0.2495  0.1895
 3705TIP3    H111079   6.143   1.920   0.804  0.8055  1.5076  0.9918
 3705TIP3    H211080   6.145   1.957   0.951 -1.7570 -0.0726  1.5007
 3706TIP3   OH211081   1.108   0.540   5.282 -0.0460  0.3994 -0.5913
 3706TIP3    H111082   1.134   0.529   5.190  0.9693  0.1996 -0.2923
 3706TIP3    H211083   1.048   0.614   5.281 -1.1414 -0.4575 -1.6070
 3707TIP3   OH211084   4.773   5.751   3.262  0.0014 -0.0226  0.2174
 3707TIP3    H111085   4.828   5.722   3.334  0.1823  0.2352  0.1844
 3707TIP3    H211086   4.834   5.773   3.191 -0.0246  1.6893  0.6752
 3708TIP3   OH211087   3.706   1.649   1.737 -0.7063  0.2517 -0.2117
 3708TIP3    H111088   3.742   1.575   1.687 -0.4176 -0.2682  0.7348
 3708TIP3    H211089   3.635   1.611   1.788  0.6052  0.2080  1.6646
 3709TIP3   OH211090   0.362   6.244   0.227  0.5501 -0.3079 -0.0453
 3709TIP3    H111091   0.387   6.336   0.217  0.4521 -0.3786 -1.0467
 3709TIP3    H211092   0.268   6.243   0.213  0.0478 -0.1853  2.7226
 3710TIP3   OH211093   3.753   1.897   3.784  0.1523  0.5883  0.2253
 3710TIP3    H111094   3.750   1.943   3.700 -0.0469 -0.2298 -0.2251
 3710TIP3    H211095   3.755   1.967   3.850  1.6416  1.2580 -0.4813
 3711TIP3   OH211096   0.136   6.072   4.293  0.1554 -0.6242 -0.5982
 3711TIP3    H111097   0.127   6.143   4.356 -0.7991 -0.3516 -1.0185
 3711TIP3    H211098   0.176   6.113   4.216  2.3466 -1.1835  0.1713
 3712TIP3   OH211099   1.745   6.767   2.428 -0.6946 -0.3217 -0.2397
 3712TIP3    H111100   1.806   6.812   2.370 -0.7599 -1.2789 -1.0712
 3712TIP3    H211101   1.697   6.838   2.472 -0.0185  0.4187 -0.6768
 3713TIP3   OH211102  -0.004   1.585   1.674 -0.3108  0.8878  1.0716
 3713TIP3    H111103   0.042   1.581   1.590 -0.9565  0.5558  0.7241
 3713TIP3    H211104  -0.018   1.493   1.698  1.8036  0.9048  2.6516
 3714TIP3   OH211105   3.505   5.497   3.097 -0.2086 -0.4812  0.0602
 3714TIP3    H111106   3.440   5.474   3.030  0.1817 -0.6383 -0.2720
 3714TIP3    H211107   3.519   5.415   3.145 -0.5833 -0.3365  0.4186
 3715TIP3   OH211108   3.319   6.486   3.048  0.2691  0.6013 -0.5746
 3715TIP3    H111109   3.349   6.454   2.963 -1.0174 -0.5741 -0.6299
 3715TIP3    H211110   3.271   6.566   3.028 -0.0671  0.3062 -0.9773
 3716TIP3   OH211111   5.418   2.972   4.809  0.2762 -0.0502  0.0833
 3716TIP3    H111112   5.332   2.931   4.819 -1.0002  2.3207 -0.3109
 3716TIP3    H211113   5.442   2.998   4.898 -0.6377  1.4522 -0.0666
 3717TIP3   OH211114   2.179   2.737   1.019 -0.4828 -0.4755 -0.5300
 3717TIP3    H111115   2.146   2.699   1.101  1.5760  2.7523  2.0347
 3717TIP3    H211116   2.254   2.682   0.996  2.3502  1.5210  2.9958
 3718TIP3   OH211117   4.710   1.027   1.265 -0.2022 -0.0038 -0.7355
 3718TIP3    H111118   4.756   0.975   1.331 -0.7537  0.1003 -0.2508
 3718TIP3    H211119   4.765   1.103   1.251  0.3893 -0.4928 -1.1107
 3719TIP3   OH211120   6.904   1.925   0.739 -0.1259 -0.5066  0.4457
 3719TIP3    H111121   6.862   1.918   0.825 -1.2883 -0.1894 -0.0703
 3719TIP3    H211122   6.897   1.837   0.703  1.5513 -0.9759  1.1769
 3720TIP3   OH211123   6.808   3.005   1.715 -0.1719 -0.0928 -0.1677
 3720TIP3    H111124   6.897   2.979   1.737 -0.1717  0.0522  0.0080
 3720TIP3    H211125   6.757   2.986   1.795 -0.3436 -0.3965 -0.3464
 3721TIP3   OH211126   4.429   4.139   0.303  0.4155  0.4208  0.0016
 3721TIP3    H111127   4.360   4.142   0.369  0.2730  0.3039 -0.1404
 3721TIP3    H211128   4.387   4.102   0.226  1.3999 -2.9043  0.8871
 3722TIP3   OH211129   5.719   6.554   3.677 -0.3317  0.7336  0.5859
 3722TIP3    H111130   5.746   6.500   3.752  3.6794  0.1064 -1.0658
 3722TIP3    H211131   5.718   6.493   3.603 -0.1896  2.0783 -0.5557
 3723TIP3   OH211132   5.481   3.376   3.461 -0.9133 -0.5793  0.0828
 3723TIP3    H111133   5.393   3.359   3.494 -0.2058 -2.2026  1.2358
 3723TIP3    H211134   5.534   3.304   3.494  1.1371  1.0135  0.4969
 3724TIP3   OH211135   2.022   4.209   0.337  0.5550 -0.4162  0.2467
 3724TIP3    H111136   2.037   4.115   0.322 -1.5997 -0.9962  1.3108
 3724TIP3    H211137   2.107   4.242   0.367  1.4077 -1.9684 -0.2928
 3725TIP3   OH211138   5.007   0.036   2.280 -0.0161  0.0690 -0.0844
 3725TIP3    H111139   4.997   0.017   2.187  1.2304  0.5423 -0.3383
 3725TIP3    H211140   5.094   0.003   2.302 -0.4156 -0.3107  0.9969
 3726TIP3   OH211141   1.358   4.420   4.912  0.5368  0.3076 -0.1073
 3726TIP3    H111142   1.340   4.328   4.890  1.9047 -0.0953  0.3582
 3726TIP3    H211143   1.359   4.465   4.828  0.5914 -0.2485 -0.4085
 3727TIP3   OH211144   3.982   0.266   1.235 -0.1501  0.3825 -0.5274
 3727TIP3    H111145   4.031   0.342   1.200  0.3733 -0.6332 -2.1207
 3727TIP3    H211146   3.948   0.223   1.157 -1.0740 -0.6199  0.4133
 3728TIP3   OH211147   1.596   5.505   4.179 -0.3447  0.1623 -0.8808
 3728TIP3    H111148   1.687   5.494   4.153 -0.2400 -1.0747 -0.0956
 3728TIP3    H211149   1.575   5.424   4.227 -1.5504  0.8506 -0.1987
 3729TIP3   OH211150   1.184   4.975   5.726  0.1675  0.2897 -0.1216
 3729TIP3    H111151   1.257   5.000   5.669  1.1363 -0.2594  0.8395
 3729TIP3    H211152   1.176   5.048   5.788 -1.6818  1.4640 -1.6333
 3730TIP3   OH211153   0.696   5.137   5.658 -0.4887  0.1962 -0.5459
 3730TIP3    H111154   0.681   5.127   5.752  0.7657  2.3345 -0.0336
 3730TIP3    H211155   0.719   5.049   5.628 -3.6475 -1.1301  0.5206
 3731TIP3   OH211156   5.641   0.222   2.997 -0.0388 -0.0930 -0.0574
 3731TIP3    H111157   5.564   0.274   2.975  0.3646  0.1062 -1.0609
 3731TIP3    H211158   5.621   0.184   3.082 -0.8924  0.6350  0.0786
 3732TIP3   OH211159   5.121   0.241   3.319 -0.1896 -0.5032  0.0466
 3732TIP3    H111160   5.070   0.211   3.394 -0.4222  1.9356  0.9641
 3732TIP3    H211161   5.056   0.270   3.255  0.0381 -0.3772 -0.1303
 3733TIP3   OH211162   0.761   5.084   3.734 -0.3443 -0.7731  0.0290
 3733TIP3    H111163   0.776   5.109   3.643 -0.5869 -0.0199  0.1841
 3733TIP3    H211164   0.846   5.095   3.776 -0.7154  1.1791  0.3892
 3734TIP3   OH211165   2.623   3.060   0.655 -0.5129 -0.3382 -0.0441
 3734TIP3    H111166   2.715   3.036   0.670 -0.9855 -1.8668  0.6320
 3734TIP3    H211167   2.620   3.088   0.564  0.6291 -0.1990 -0.0578
 3735TIP3   OH211168   4.535   5.535   5.747 -0.0916  0.0979 -0.0898
 3735TIP3    H111169   4.458   5.555   5.693  0.6339 -0.7557 -1.5065
 3735TIP3    H211170   4.529   5.440   5.762  0.8775 -0.0623 -0.5901
 3736TIP3   OH211171   6.349   5.070   2.844 -0.1926  0.0665 -0.2593
 3736TIP3    H111172   6.314   5.018   2.773  0.8868 -1.8094  0.5187
 3736TIP3    H211173   6.432   5.105   2.811 -0.1859  0.0456 -0.2641
 3737TIP3   OH211174   6.135   5.931   1.594 -0.0341  0.4577 -0.4104
 3737TIP3    H111175   6.102   6.007   1.547  0.2283 -0.5027 -2.2509
 3737TIP3    H211176   6.101   5.856   1.545  0.1089 -0.6113  1.0684
 3738TIP3   OH211177   0.029   4.340   5.531 -0.5491 -0.2724  0.1251
 3738TIP3    H111178   0.026   4.389   5.449  0.5856 -0.7525 -0.2216
 3738TIP3    H211179   0.045   4.249   5.504 -1.2758 -0.6277  0.8297
 3739TIP3   OH211180   0.986   5.905   5.473 -0.1643  0.1756  0.8052
 3739TIP3    H111181   0.900   5.875   5.442 -0.6708  1.5331  0.8268
 3739TIP3    H211182   0.990   5.997   5.447  0.1267  0.9031  3.1835
 3740TIP3   OH211183   5.811   1.597   3.439  0.2950  0.5509  0.2565
 3740TIP3    H111184   5.853   1.613   3.524  0.0051 -0.4190  0.5857
 3740TIP3    H211185   5.875   1.546   3.390  0.6229  1.4366 -0.2706
 3741TIP3   OH211186   3.754   5.151   4.639 -0.2209  0.0386 -0.1986
 3741TIP3    H111187   3.781   5.096   4.713  0.0194  1.7190  1.0350
 3741TIP3    H211188   3.668   5.118   4.614 -0.7298  0.0047  1.4739
 3742TIP3   OH211189   0.249   6.648   3.839  0.1823 -0.0693  0.5145
 3742TIP3    H111190   0.290   6.648   3.753  1.1556  1.5285  0.9294
 3742TIP3    H211191   0.166   6.603   3.827  0.8534 -0.9581 -0.9739
 3743TIP3   OH211192   6.140   0.869   3.401  0.3259 -0.1177 -0.0181
 3743TIP3    H111193   6.165   0.927   3.329 -2.2335  2.0860  0.6867
 3743TIP3    H211194   6.211   0.878   3.465  0.6081  1.2491 -0.4944
 3744TIP3   OH211195   2.228   1.068   5.051 -0.1998  0.4565  0.6348
 3744TIP3    H111196   2.314   1.040   5.022 -0.0049  1.0270  0.6416
 3744TIP3    H211197   2.236   1.082   5.145 -0.5683 -0.4378  0.8076
 3745TIP3   OH211198   4.441   6.455   3.112  0.3987  0.2243  0.0892
 3745TIP3    H111199   4.448   6.540   3.069 -1.0829  0.5229  0.3643
 3745TIP3    H211200   4.458   6.392   3.043  0.6364  0.7388 -0.3272
 3746TIP3   OH211201   6.640   6.311   3.298 -0.0784 -0.7842  0.4712
 3746TIP3    H111202   6.664   6.337   3.209  0.2957 -0.2895  0.7114
 3746TIP3    H211203   6.707   6.248   3.323  0.4212 -0.1539  0.7715
 3747TIP3   OH211204   2.482   0.695   4.343  0.3298 -0.1372  1.1767
 3747TIP3    H111205   2.406   0.652   4.304  0.6086 -0.8949  1.4439
 3747TIP3    H211206   2.480   0.669   4.435  1.7016 -1.3797  0.8965
 3748TIP3   OH211207   2.828   4.923   1.697  0.7591 -0.1511  0.2858
 3748TIP3    H111208   2.811   4.976   1.619  0.5585 -0.8358 -0.1469
 3748TIP3    H211209   2.745   4.923   1.744  0.2689 -1.3808 -0.5272
 3749TIP3   OH211210   6.633   1.811   0.157 -0.5105  0.2275  0.4758
 3749TIP3    H111211   6.655   1.752   0.229 -1.1389  2.2146  2.4046
 3749TIP3    H211212   6.717   1.847   0.128 -0.3765  0.6098  1.3169
 3750TIP3   OH211213   5.500   6.231   2.542 -0.2018  0.3579  0.1781
 3750TIP3    H111214   5.542   6.145   2.532  0.1189  0.6847 -1.8616
 3750TIP3    H211215   5.447   6.223   2.621  3.8050 -0.0337  3.1732
 3751TIP3   OH211216   0.088   0.210   1.697 -0.3434  0.2276  0.2573
 3751TIP3    H111217   0.109   0.193   1.790  2.4499  0.2436 -0.2672
 3751TIP3    H211218   0.018   0.148   1.677 -1.8018  0.9669  2.6135
 3752TIP3   OH211219   4.538   1.073   5.219 -0.2700  0.2080  0.7725
 3752TIP3    H111220   4.594   1.140   5.179  0.1546 -0.0824  0.8690
 3752TIP3    H211221   4.464   1.065   5.159  0.3621 -0.2164  0.0304
 3753TIP3   OH211222   6.921   0.150   2.231  0.2747 -0.3475  0.1890
 3753TIP3    H111223   6.884   0.239   2.234  0.4146 -0.1494 -2.2108
 3753TIP3    H211224   7.016   0.164   2.242  0.1795 -0.3445  1.0764
 3754TIP3   OH211225   7.231   4.073   3.442  0.2395  0.5429 -0.2908
 3754TIP3    H111226   7.266   3.985   3.431 -0.2484  0.4517 -1.1889
 3754TIP3    H211227   7.142   4.060   3.474  0.4381  0.7304  0.3416
 3755TIP3   OH211228   6.151   1.824   5.421  0.1977  0.2454  0.3496
 3755TIP3    H111229   6.104   1.776   5.353  0.0714  1.5313 -0.5081
 3755TIP3    H211230   6.225   1.768   5.443  0.5324  0.0143 -1.2290
 3756TIP3   OH211231   4.231   3.135   4.138 -0.1495  0.0101  0.2531
 3756TIP3    H111232   4.173   3.204   4.168 -0.1629 -0.5717  1.6494
 3756TIP3    H211233   4.195   3.108   4.053 -1.6703 -0.0305  0.8724
 3757TIP3   OH211234   0.652   6.080   2.400  0.3497 -0.2061  0.2765
 3757TIP3    H111235   0.742   6.053   2.420  0.3854  0.3004  0.8347
 3757TIP3    H211236   0.662   6.156   2.342  0.3365  1.0480  1.8609
 3758TIP3   OH211237   1.034   1.027   3.949  0.0489 -0.4299  0.1072
 3758TIP3    H111238   0.948   1.017   3.907  0.1067  1.8280 -0.6758
 3758TIP3    H211239   1.097   1.008   3.880  0.1744  0.0368  0.0967
 3759TIP3   OH211240   4.519   4.853   3.180 -0.0940 -0.7638  0.0672
 3759TIP3    H111241   4.510   4.944   3.150  1.0202 -1.2138 -1.8143
 3759TIP3    H211242   4.437   4.811   3.152 -0.3640 -0.4833  0.4257
 3760TIP3   OH211243   0.382   4.244   1.989  0.3419  0.2318 -0.0772
 3760TIP3    H111244   0.410   4.331   1.960  1.4450 -0.1801 -0.3318
 3760TIP3    H211245   0.410   4.239   2.081 -0.9283  0.6246  0.3512
 3761TIP3   OH211246   0.153   3.043   0.609  0.5967 -0.4318 -0.0913
 3761TIP3    H111247   0.196   2.959   0.625  1.3539  0.0225  0.3069
 3761TIP3    H211248   0.203   3.083   0.538  0.6297 -0.0519  0.1387
 3762TIP3   OH211249   5.969   0.298   0.612 -0.0868  0.0902  0.2464
 3762TIP3    H111250   5.981   0.316   0.705 -0.5003 -0.0372  0.3258
 3762TIP3    H211251   6.053   0.322   0.572  0.1107  0.0956  0.6570
 3763TIP3   OH211252   6.529   4.628   1.379 -0.6469  0.1528 -0.2320
 3763TIP3    H111253   6.607   4.593   1.336 -1.2164  0.5992 -1.6820
 3763TIP3    H211254   6.482   4.550   1.407  0.0362 -0.1346  0.1456
 3764TIP3   OH211255   6.668   3.102   2.288 -0.2324  0.4785  0.0089
 3764TIP3    H111256   6.599   3.130   2.227  1.5421  1.5793 -1.5852
 3764TIP3    H211257   6.744   3.155   2.264  0.7998  0.3166  2.6579
 3765TIP3   OH211258   2.426   4.924   0.962  0.5405  0.0054 -0.3116
 3765TIP3    H111259   2.362   4.973   1.014  0.4210 -0.2552 -0.2150
 3765TIP3    H211260   2.488   4.991   0.932 -0.0290  0.3412 -0.7850
 3766TIP3   OH211261   1.794   6.613   1.300 -0.0063  0.1153  0.1181
 3766TIP3    H111262   1.704   6.609   1.271 -0.1511 -0.0570  0.5748
 3766TIP3    H211263   1.839   6.542   1.253  0.0865  0.7462 -0.7542
 3767TIP3   OH211264   3.155   1.135   0.704 -0.0997 -0.1523  0.2370
 3767TIP3    H111265   3.210   1.110   0.630  0.5471  1.6070  0.0526
 3767TIP3    H211266   3.067   1.109   0.679  0.4228 -1.6242 -0.1450
 3768TIP3   OH211267   3.821   1.423   1.967  0.2672  0.1886 -0.3507
 3768TIP3    H111268   3.906   1.380   1.957  0.5682  0.1813  1.7484
 3768TIP3    H211269   3.837   1.493   2.030 -0.9873  1.1339 -1.0487
 3769TIP3   OH211270   3.313   2.051   3.338  0.2309  0.3772  0.1135
 3769TIP3    H111271   3.322   2.050   3.243 -1.5764  1.7914 -0.1201
 3769TIP3    H211272   3.302   1.959   3.362 -0.7461  0.1235 -1.2153
 3770TIP3   OH211273   2.521   2.904   2.920  0.0126  0.1103  0.4735
 3770TIP3    H111274   2.530   2.997   2.936 -1.9386  0.9958 -2.6446
 3770TIP3    H211275   2.558   2.890   2.833  0.3997 -2.0690  0.9223
 3771TIP3   OH211276   3.130   1.215   5.584 -0.2197  0.2155 -0.5437
 3771TIP3    H111277   3.122   1.124   5.612  0.8680  0.5510  0.9653
 3771TIP3    H211278   3.188   1.211   5.508 -0.6865 -0.3991 -0.8831
 3772TIP3   OH211279   1.692   5.275   1.335  0.4895 -0.1361 -0.0491
 3772TIP3    H111280   1.735   5.276   1.420 -0.4706 -1.5942  0.4931
 3772TIP3    H211281   1.643   5.357   1.332  0.3810 -0.1609  0.8867
 3773TIP3   OH211282   2.908   4.309   1.908 -0.0035 -0.3598 -0.2196
 3773TIP3    H111283   2.966   4.289   1.981 -0.7257 -0.2851  0.3831
 3773TIP3    H211284   2.861   4.227   1.891  0.1569 -0.3768 -0.6043
 3774TIP3   OH211285   4.585   3.157   5.817 -0.1670 -0.6662  0.0976
 3774TIP3    H111286   4.581   3.213   5.894 -1.2326  0.7405 -0.9240
 3774TIP3    H211287   4.674   3.122   5.818  0.6468  1.2689  0.6586
 3775TIP3   OH211288   7.024   2.361   1.216 -0.1414 -0.1666  0.0524
 3775TIP3    H111289   7.049   2.300   1.286 -2.2040  0.0803  1.0694
 3775TIP3    H211290   6.935   2.337   1.193 -0.3100  1.2404 -0.8924
 3776TIP3   OH211291   0.671   2.185   2.684 -0.3434  0.4771 -0.0231
 3776TIP3    H111292   0.716   2.200   2.601  0.6580 -0.2832  0.3554
 3776TIP3    H211293   0.741   2.173   2.748 -1.0222 -1.4387  0.4623
 3777TIP3   OH211294   5.901   2.084   0.798  0.4106  0.3851  0.1166
 3777TIP3    H111295   5.816   2.108   0.833  0.8295  0.5444  1.0693
 3777TIP3    H211296   5.953   2.060   0.875  1.5906  1.4271 -0.3098
 3778TIP3   OH211297   7.086   6.289   1.170 -0.1168  0.0772 -0.1313
 3778TIP3    H111298   7.002   6.328   1.144 -0.0666 -0.7700 -1.7181
 3778TIP3    H211299   7.065   6.200   1.196  0.3893 -0.5401 -1.6978
 3779TIP3   OH211300   5.749   2.042   1.507 -0.2024 -0.3093  0.3763
 3779TIP3    H111301   5.701   2.012   1.430  0.1598 -2.4578  0.9092
 3779TIP3    H211302   5.819   1.978   1.518 -0.0032  0.1685  2.2497
 3780TIP3   OH211303   5.977   3.728   5.581  0.1490  0.0301 -0.3638
 3780TIP3    H111304   5.916   3.658   5.559  0.8358 -0.3624 -1.0958
 3780TIP3    H211305   5.977   3.785   5.504  0.1073  0.4605 -0.0465
 3781TIP3   OH211306   6.398   3.112   3.335  0.7043 -0.0908 -0.8647
 3781TIP3    H111307   6.372   3.107   3.427 -0.1025 -1.8858 -1.1517
 3781TIP3    H211308   6.317   3.134   3.289  0.4147 -2.1490 -1.4112
 3782TIP3   OH211309   1.779   1.155   1.712 -0.0421  0.2221  0.1083
 3782TIP3    H111310   1.727   1.075   1.703 -1.6214  1.3036 -0.9003
 3782TIP3    H211311   1.845   1.149   1.644 -0.6382  0.1081 -0.4666
 3783TIP3   OH211312   6.658   1.628   4.166 -0.3523 -0.0179 -0.2924
 3783TIP3    H111313   6.718   1.563   4.128 -0.8192 -0.4959 -0.2276
 3783TIP3    H211314   6.571   1.589   4.155 -0.4482 -0.6059  2.1057
 3784TIP3   OH211315   7.074   2.383   3.651 -0.0541 -0.1553 -0.0935
 3784TIP3    H111316   7.102   2.316   3.589 -2.9614 -0.6886 -1.0092
 3784TIP3    H211317   7.044   2.334   3.728  0.1036  0.2600  0.2344
 3785TIP3   OH211318   2.261   0.301   2.416  1.1226  0.5584 -0.5523
 3785TIP3    H111319   2.187   0.278   2.360  0.1535  0.7210  0.6013
 3785TIP3    H211320   2.240   0.389   2.448  1.7129  0.5235 -0.0498
 3786TIP3   OH211321   3.093   5.574   5.263  0.4080 -0.1861 -0.1790
 3786TIP3    H111322   3.177   5.576   5.217  0.2067 -0.0476 -0.5489
 3786TIP3    H211323   3.112   5.609   5.350  0.7421 -0.1964 -0.2447
 3787TIP3   OH211324   4.843   5.177   3.212 -0.0872  0.3986  0.6719
 3787TIP3    H111325   4.800   5.232   3.277 -1.8982 -0.3412  0.1596
 3787TIP3    H211326   4.836   5.227   3.131  1.0197  0.7517  0.7839
 3788TIP3   OH211327   5.313   4.854   3.784 -0.0324 -0.7010  0.1409
 3788TIP3    H111328   5.242   4.797   3.815 -0.2095 -1.0397 -0.8489
 3788TIP3    H211329   5.275   4.942   3.785 -0.7393 -0.9662 -1.0826
 3789TIP3   OH211330   5.265   3.615   3.509  0.9847  0.8437  0.8017
 3789TIP3    H111331   5.246   3.614   3.415  0.7652  1.7876  0.8272
 3789TIP3    H211332   5.359   3.595   3.514  0.5653 -1.5095  0.5426
 3790TIP3   OH211333   5.035   2.483   3.277  0.1219  0.3484  0.3820
 3790TIP3    H111334   5.093   2.478   3.353  0.7593  1.1439 -0.0261
 3790TIP3    H211335   5.081   2.542   3.217  1.9286 -3.6715 -2.6184
 3791TIP3   OH211336   4.499   1.206   4.636  0.0395  0.2886  0.6143
 3791TIP3    H111337   4.410   1.239   4.649 -0.2788 -0.9910  1.9794
 3791TIP3    H211338   4.492   1.147   4.561 -0.0925  0.7945  0.2269
 3792TIP3   OH211339   6.156   1.478   2.749  0.9515  0.4886 -0.5803
 3792TIP3    H111340   6.150   1.481   2.845  0.9357  0.7093 -0.5879
 3792TIP3    H211341   6.094   1.410   2.723  1.4694 -0.0739 -0.3887
 3793TIP3   OH211342   4.079  -0.003   4.533  0.1722  0.1181 -0.0322
 3793TIP3    H111343   4.134   0.066   4.568  0.8882  0.0221 -0.9383
 3793TIP3    H211344   4.067   0.020   4.441 -0.7245 -0.2372 -0.0169
 3794TIP3   OH211345   1.468   0.393   2.554  0.0647 -0.2590  0.4694
 3794TIP3    H111346   1.556   0.392   2.590  1.1044 -1.0424 -1.8907
 3794TIP3    H211347   1.445   0.485   2.546  1.3702  0.0216 -0.3771
 3795TIP3   OH211348   2.350   3.476   3.788 -0.1424  0.6761  0.9388
 3795TIP3    H111349   2.283   3.512   3.730  1.2112  0.9429 -0.5546
 3795TIP3    H211350   2.431   3.483   3.737  0.9253 -0.1695  2.4461
 3796TIP3   OH211351   3.666   1.333   5.848  0.3810  0.2426 -0.3861
 3796TIP3    H111352   3.664   1.350   5.943  1.8862 -0.6606 -0.1639
 3796TIP3    H211353   3.755   1.355   5.821  0.2109 -0.2829 -1.4407
 3797TIP3   OH211354   6.687   4.518   1.844  0.2420  0.1358 -0.3041
 3797TIP3    H111355   6.779   4.532   1.864 -0.1487  0.4310  1.4029
 3797TIP3    H211356   6.686   4.445   1.782  1.6403  0.5064 -0.7911
 3798TIP3   OH211357   2.114   5.617   4.771  0.2171  0.4560 -0.3198
 3798TIP3    H111358   2.091   5.659   4.853 -0.2283  0.1976 -0.3038
 3798TIP3    H211359   2.101   5.523   4.788 -0.3806  0.4409 -0.8339
 3799TIP3   OH211360   3.366   6.790   5.133 -0.0757  0.2202 -0.3239
 3799TIP3    H111361   3.432   6.724   5.115 -0.1189  0.5960 -2.1153
 3799TIP3    H211362   3.320   6.758   5.210  0.1684 -1.6349 -0.8971
 3800TIP3   OH211363   2.731   0.509   2.103 -0.3373  0.2816 -0.6118
 3800TIP3    H111364   2.800   0.446   2.080 -1.8228 -2.5718  2.0121
 3800TIP3    H211365   2.777   0.581   2.145  1.1781 -0.7014 -0.5185
 3801TIP3   OH211366   6.661   3.207   3.347 -0.6814 -0.0081 -0.1887
 3801TIP3    H111367   6.577   3.165   3.330  0.1276 -2.1132  0.6671
 3801TIP3    H211368   6.688   3.174   3.433  1.9824 -1.1158 -1.3334
 3802TIP3   OH211369   6.160   2.803   4.533  0.2626  0.2567 -0.3037
 3802TIP3    H111370   6.103   2.786   4.458 -1.5347  0.6696  0.9254
 3802TIP3    H211371   6.213   2.879   4.506 -0.2258  0.2843 -1.2182
 3803TIP3   OH211372   3.757   3.948   4.814 -0.2783 -0.7796 -0.0400
 3803TIP3    H111373   3.686   3.935   4.878 -1.2661  0.3799 -0.8457
 3803TIP3    H211374   3.797   4.030   4.839  0.6493 -1.3118  0.2610
 3804TIP3   OH211375   3.848   5.098   4.012 -0.1774 -0.3806  0.0180
 3804TIP3    H111376   3.923   5.154   3.994 -0.0227 -0.8426 -0.8480
 3804TIP3    H211377   3.793   5.105   3.934  0.6409 -2.6697 -0.8718
 3805TIP3   OH211378   6.842   6.695   1.048  0.2885 -0.3743 -0.6639
 3805TIP3    H111379   6.808   6.694   1.137  2.2478  1.1642  0.1896
 3805TIP3    H211380   6.908   6.765   1.048  1.3543 -1.2562 -2.9443
 3806TIP3   OH211381   6.529   4.107   3.179  0.2023 -0.3079 -0.0974
 3806TIP3    H111382   6.532   4.201   3.161  1.7110 -0.6162 -1.6352
 3806TIP3    H211383   6.607   4.091   3.233  1.0818 -0.9563 -1.5016
 3807TIP3   OH211384   2.909   4.365   3.848 -0.2530  0.1732  0.1011
 3807TIP3    H111385   2.843   4.331   3.788 -0.4509 -0.3136  0.5839
 3807TIP3    H211386   2.950   4.286   3.885  0.5153  0.4666 -0.1116
 3808TIP3   OH211387   7.059   6.245   0.224  0.0307 -0.1132  0.2665
 3808TIP3    H111388   6.965   6.249   0.245 -0.2023  2.2309 -0.9309
 3808TIP3    H211389   7.090   6.334   0.239  1.7063 -0.4562 -1.0140
 3809TIP3   OH211390   5.370   2.008   0.946 -0.0802  0.3928 -0.0823
 3809TIP3    H111391   5.338   2.087   0.903 -0.7356 -0.0520 -0.4174
 3809TIP3    H211392   5.325   2.006   1.030  0.1502  0.5246  0.0443
 3810TIP3   OH211393   1.590   6.010   5.579  0.0032  0.2640  0.7293
 3810TIP3    H111394   1.559   5.940   5.637  0.2815 -0.8819 -0.4515
 3810TIP3    H211395   1.517   6.026   5.519  0.2697  0.3406  0.4193
 3811TIP3   OH211396   4.133   2.745   1.694 -0.3354  0.3253  0.3691
 3811TIP3    H111397   4.173   2.824   1.730 -1.0290  1.1529 -0.6248
 3811TIP3    H211398   4.083   2.775   1.618  0.8885 -1.3207 -1.1714
 3812TIP3   OH211399   4.266   3.347   0.316 -0.3749  0.2592  0.0000
 3812TIP3    H111400   4.236   3.371   0.403 -0.4907 -1.8434  0.5914
 3812TIP3    H211401   4.197   3.380   0.257 -1.5670 -0.4673  0.9421
 3813TIP3   OH211402   6.883   0.805   1.354 -0.7058  0.2788 -0.2051
 3813TIP3    H111403   6.796   0.772   1.377  0.1388 -1.3407  0.8995
 3813TIP3    H211404   6.925   0.820   1.439  0.3025  0.3972 -0.7148
 3814TIP3   OH211405   6.725   4.567   5.837  0.1289 -0.1314 -0.3422
 3814TIP3    H111406   6.692   4.549   5.750  0.2552 -1.2031 -0.1774
 3814TIP3    H211407   6.756   4.658   5.833 -1.4322  0.4053 -0.9119
 3815TIP3   OH211408   4.898   4.512   3.698 -0.9296 -0.5376  0.1313
 3815TIP3    H111409   4.935   4.600   3.705  0.0422 -1.0366  1.7019
 3815TIP3    H211410   4.903   4.476   3.786 -2.0612 -1.8918 -0.3158
 3816TIP3   OH211411   5.521   0.661   2.913 -0.1233  0.1008 -0.2326
 3816TIP3    H111412   5.489   0.750   2.901 -0.6552 -0.2419 -1.4982
 3816TIP3    H211413   5.607   0.661   2.871  0.9060  0.5876  1.7482
 3817TIP3   OH211414   0.848   6.525   0.910 -0.4833  0.0104 -0.2176
 3817TIP3    H111415   0.917   6.586   0.883  1.5965 -1.0355  2.2651
 3817TIP3    H211416   0.817   6.559   0.994 -0.6270 -1.3191  0.2942
 3818TIP3   OH211417   4.159   3.601   0.604 -0.1877 -0.5267  0.1809
 3818TIP3    H111418   4.099   3.619   0.531  0.1985 -1.6756 -0.4427
 3818TIP3    H211419   4.241   3.643   0.578  0.5236 -2.4880 -0.9804
 3819TIP3   OH211420   2.719   2.571   0.586 -0.1527 -0.1176 -0.2753
 3819TIP3    H111421   2.689   2.523   0.663  0.7261 -0.6691 -0.2678
 3819TIP3    H211422   2.719   2.506   0.515  0.4191  0.0213 -0.4096
 3820TIP3   OH211423   0.502   2.974   2.813 -0.3865  0.3185 -0.5232
 3820TIP3    H111424   0.510   3.026   2.893  2.0660  0.0722 -0.5367
 3820TIP3    H211425   0.408   2.959   2.804 -0.7261 -0.5124  2.8718
 3821TIP3   OH211426   2.834   1.570   5.740  0.3387 -0.6526  1.1255
 3821TIP3    H111427   2.823   1.665   5.748  1.4128 -0.4517  0.4634
 3821TIP3    H211428   2.928   1.558   5.726  0.2002 -1.8103  1.0763
 3822TIP3   OH211429   3.409   6.034   1.021 -0.4449 -0.5949 -0.1016
 3822TIP3    H111430   3.448   5.962   0.971  1.1382  0.5178 -0.5547
 3822TIP3    H211431   3.416   6.110   0.963 -0.7405  0.2294  0.9107
 3823TIP3   OH211432   1.688   4.163   1.544 -0.2718  0.3692 -0.3175
 3823TIP3    H111433   1.727   4.134   1.462  3.0801  0.3010  1.1375
 3823TIP3    H211434   1.753   4.223   1.582 -1.1959 -0.3369  2.6917
 3824TIP3   OH211435   5.729   0.883   2.058 -0.1471 -0.0270 -0.1329
 3824TIP3    H111436   5.673   0.858   2.131  1.4858  0.8495  1.5327
 3824TIP3    H211437   5.813   0.906   2.099  0.5882  1.3402 -2.2075
 3825TIP3   OH211438   3.776   6.261   3.897 -0.1742 -0.1275  0.1740
 3825TIP3    H111439   3.868   6.245   3.874  0.1787  0.8071  0.8659
 3825TIP3    H211440   3.728   6.241   3.816  0.7838  0.6741 -0.6303
 3826TIP3   OH211441   5.981   4.282   2.049 -0.2609  0.0309 -0.2079
 3826TIP3    H111442   6.060   4.276   2.103 -0.7089 -0.2391  0.4285
 3826TIP3    H211443   5.915   4.233   2.098 -0.9587  0.6713 -0.4894
 3827TIP3   OH211444   0.837   2.239   3.884 -0.6295 -0.7549 -0.5696
 3827TIP3    H111445   0.876   2.321   3.912  1.0320 -0.7097 -2.6938
 3827TIP3    H211446   0.894   2.171   3.921 -0.1524 -0.7990 -1.3562
 3828TIP3   OH211447   2.989   3.830   3.129 -0.3249 -0.0587  0.1328
 3828TIP3    H111448   2.984   3.892   3.201  1.2971  0.3991 -0.0997
 3828TIP3    H211449   2.932   3.758   3.155 -0.0730  0.2655  1.6962
 3829TIP3   OH211450   2.916   1.022   2.978 -0.1129  0.4149  0.1964
 3829TIP3    H111451   3.010   1.031   2.962  0.3142  1.0386  2.6146
 3829TIP3    H211452   2.910   0.986   3.066 -2.1632 -1.2644 -0.5463
 3830TIP3   OH211453   3.489   3.857   2.536 -0.7344  0.0739  0.2054
 3830TIP3    H111454   3.474   3.932   2.478 -0.3595  1.1937  1.4989
 3830TIP3    H211455   3.405   3.844   2.581 -0.5294  0.3483  0.6771
 3831TIP3   OH211456   0.624   2.255   4.181  0.2657  0.1219  0.0965
 3831TIP3    H111457   0.716   2.270   4.161 -0.1141  1.5613 -0.6863
 3831TIP3    H211458   0.612   2.161   4.167  1.0078  0.3369 -2.5273
 3832TIP3   OH211459   4.931   5.643   5.522 -0.1714  0.1939  0.2854
 3832TIP3    H111460   4.941   5.558   5.479  0.0213  0.2689  0.1798
 3832TIP3    H211461   4.953   5.707   5.454  2.0496  0.2616  1.0005
 3833TIP3   OH211462   2.618   0.916   4.023 -0.0972 -0.2665 -0.1307
 3833TIP3    H111463   2.687   0.970   4.062 -0.1661  0.6881 -1.2799
 3833TIP3    H211464   2.569   0.976   3.967 -0.1585 -1.5042 -1.4671
 3834TIP3   OH211465   6.713   0.937   1.698  0.0570 -0.1398 -0.1364
 3834TIP3    H111466   6.703   0.910   1.789 -0.5396 -0.3655 -0.2635
 3834TIP3    H211467   6.624   0.956   1.669  0.2727  0.1779 -0.5978
 3835TIP3   OH211468   0.162   6.095   1.142  0.2775  0.2591  0.1859
 3835TIP3    H111469   0.253   6.066   1.148  0.5156  1.0488  0.4679
 3835TIP3    H211470   0.162   6.166   1.078  0.2113  1.5623  1.5839
 3836TIP3   OH211471   0.983   6.180   3.442 -0.0898  0.0312  0.2302
 3836TIP3    H111472   1.052   6.161   3.506 -0.6935 -1.6285  0.4298
 3836TIP3    H211473   0.925   6.241   3.486  0.5042  0.3757  0.5537
 3837TIP3   OH211474   2.257   4.024   4.566 -0.6727  0.1591  0.1076
 3837TIP3    H111475   2.258   3.965   4.490  1.3390 -0.3637  0.4816
 3837TIP3    H211476   2.178   4.000   4.614 -0.3208 -1.7132 -0.1827
 3838TIP3   OH211477   0.277   0.368   3.580 -0.2503  0.1833 -0.0024
 3838TIP3    H111478   0.205   0.330   3.530  1.3976 -0.9156 -1.6864
 3838TIP3    H211479   0.284   0.458   3.547 -0.7463  0.2489  0.0660
 3839TIP3   OH211480   1.102   1.405   2.953  0.0776  0.4979 -0.0078
 3839TIP3    H111481   1.049   1.370   3.025  0.0728  1.3027  0.3883
 3839TIP3    H211482   1.065   1.365   2.874  1.3761 -2.0605  0.5430
 3840TIP3   OH211483   1.301   5.253   3.286  0.4598  0.0754  0.4662
 3840TIP3    H111484   1.386   5.227   3.249 -0.0489 -0.4183 -0.3801
 3840TIP3    H211485   1.260   5.170   3.313 -0.4965  0.1208 -0.7734
 3841TIP3   OH211486   6.249   3.338   0.232 -0.0167  0.5374 -0.0079
 3841TIP3    H111487   6.214   3.302   0.151 -1.1971  1.6083 -0.0058
 3841TIP3    H211488   6.185   3.405   0.258  2.5825  3.5139 -0.6563
 3842TIP3   OH211489   4.451   2.362   2.776  0.1410  0.0068 -0.3405
 3842TIP3    H111490   4.526   2.326   2.824 -0.5111 -0.7746  0.1060
 3842TIP3    H211491   4.407   2.286   2.738 -1.1117  0.3377  0.3949
 3843TIP3   OH211492   0.366   1.513   1.608  0.3296 -0.6932 -0.1283
 3843TIP3    H111493   0.366   1.557   1.693 -0.2046  0.4877 -0.7171
 3843TIP3    H211494   0.334   1.425   1.627 -2.5792  0.3909  0.5413
 3844TIP3   OH211495   5.741   2.335   1.479  0.7194  0.7708  0.1714
 3844TIP3    H111496   5.696   2.334   1.563 -1.7280  0.6777 -1.0446
 3844TIP3    H211497   5.772   2.245   1.467  0.6528  0.6672  0.7714
 3845TIP3   OH211498   6.029   4.533   4.678  0.9458  0.0625  0.1533
 3845TIP3    H111499   5.992   4.560   4.762  2.0455  0.9016  0.3922
 3845TIP3    H211500   6.031   4.437   4.683 -2.5974 -0.1815 -0.5370
 3846TIP3   OH211501   3.097   3.546   4.917 -0.7115  0.6941  0.4132
 3846TIP3    H111502   3.127   3.455   4.922  0.2366  0.9720  0.0799
 3846TIP3    H211503   3.030   3.553   4.984 -1.2250 -0.4140  0.0327
 3847TIP3   OH211504   4.164   2.642   2.869 -0.2469  0.2279 -0.0236
 3847TIP3    H111505   4.094   2.625   2.806  0.2306  0.2058 -0.5580
 3847TIP3    H211506   4.196   2.729   2.847 -0.8600  0.7291  0.9590
 3848TIP3   OH211507   1.312   4.132   3.444 -0.0853 -0.0995 -0.3198
 3848TIP3    H111508   1.274   4.198   3.386 -0.6117 -0.2430 -0.1435
 3848TIP3    H211509   1.246   4.118   3.511  1.4085  1.8213  1.7170
 3849TIP3   OH211510   7.135   0.418   3.960 -0.0200 -0.3048  0.1791
 3849TIP3    H111511   7.230   0.414   3.950 -0.0339 -1.0474  0.2945
 3849TIP3    H211512   7.100   0.390   3.875 -0.1396 -0.4496  0.2765
 3850TIP3   OH211513   5.131   2.049   4.953 -0.5274 -0.3178 -0.0359
 3850TIP3    H111514   5.223   2.038   4.977 -0.5907 -0.2660  0.2306
 3850TIP3    H211515   5.087   2.072   5.035 -0.6079  0.6830 -0.3395
 3851TIP3   OH211516   2.956   6.640   1.826 -0.0709 -0.3014  0.4068
 3851TIP3    H111517   2.864   6.649   1.851  0.1143  1.3556  0.5759
 3851TIP3    H211518   2.993   6.580   1.890 -1.4764 -2.7520 -0.9024
 3852TIP3   OH211519   1.908   3.578   1.390  0.2569 -0.5308 -0.6663
 3852TIP3    H111520   1.855   3.638   1.443  1.3742 -0.4049  0.3447
 3852TIP3    H211521   1.953   3.635   1.328  1.6083 -0.2351  0.5388
 3853TIP3   OH211522   6.079   6.251   3.531 -0.8725 -0.1341 -0.2431
 3853TIP3    H111523   6.050   6.220   3.617 -0.6484 -1.3733 -0.6094
 3853TIP3    H211524   6.076   6.174   3.475  0.3928  0.3445 -0.9980
 3854TIP3   OH211525   0.928   3.580   0.838 -0.2407  0.7117  0.2272
 3854TIP3    H111526   0.938   3.662   0.790 -1.3052  0.1285 -1.0668
 3854TIP3    H211527   0.833   3.570   0.849 -0.1244 -0.3295  0.3787
 3855TIP3   OH211528   5.720   0.440   1.635 -0.4809 -0.0443 -0.3186
 3855TIP3    H111529   5.806   0.419   1.600 -0.6827 -0.0224 -0.8441
 3855TIP3    H211530   5.685   0.356   1.665 -0.0819  0.0244  0.3539
 3856TIP3   OH211531   3.884   2.560   3.744  0.5623 -0.1503  0.3302
 3856TIP3    H111532   3.914   2.624   3.679 -1.9693 -0.3613 -1.1782
 3856TIP3    H211533   3.851   2.613   3.817  1.1403  0.1511  0.3814
 3857TIP3   OH211534   1.506   6.133   3.908  0.0235  0.2368 -0.2625
 3857TIP3    H111535   1.454   6.208   3.936 -0.3003  0.5716 -1.6507
 3857TIP3    H211536   1.588   6.140   3.956 -0.8393  0.2374  1.2519
 3858TIP3   OH211537   1.511   3.473   0.629 -0.5917 -0.0408 -0.3969
 3858TIP3    H111538   1.531   3.389   0.670  3.0409  1.9460  2.4959
 3858TIP3    H211539   1.419   3.489   0.650 -0.7785 -2.3668  0.7937
 3859TIP3   OH211540   6.608   3.159   1.139  0.5655 -0.4740  0.4684
 3859TIP3    H111541   6.534   3.131   1.084  0.9903  0.2805 -0.5183
 3859TIP3    H211542   6.663   3.081   1.146 -0.8089 -1.3633  2.1045
 3860TIP3   OH211543   5.341   5.192   2.240 -0.4137  0.0563 -0.2088
 3860TIP3    H111544   5.391   5.149   2.171 -0.6756  0.4153 -0.6327
 3860TIP3    H211545   5.341   5.130   2.313  1.0226  0.2333 -0.0326
 3861TIP3   OH211546   5.091   3.730   4.275  0.4084 -0.0192  0.5642
 3861TIP3    H111547   5.135   3.798   4.325 -1.5610  0.7968  1.2769
 3861TIP3    H211548   5.002   3.761   4.264 -0.1435 -1.7795 -0.4687
 3862TIP3   OH211549   4.428   3.818   0.271  0.3584 -0.1126  0.1500
 3862TIP3    H111550   4.343   3.862   0.263  0.7716  0.7071  0.0687
 3862TIP3    H211551   4.422   3.770   0.353 -0.6818 -1.2136 -0.5433
 3863TIP3   OH211552   0.328   2.148   0.934 -0.7209  0.6183  0.2712
 3863TIP3    H111553   0.296   2.073   0.984  0.3018 -1.2051 -1.6654
 3863TIP3    H211554   0.401   2.181   0.986 -1.3443  0.4602  1.2799
 3864TIP3   OH211555   3.842   4.552   3.107  0.4037  0.4334  0.3103
 3864TIP3    H111556   3.854   4.535   3.014  3.5075 -1.8848  0.9786
 3864TIP3    H211557   3.874   4.642   3.119 -0.7125  1.0306 -0.8847
 3865TIP3   OH211558   0.207   1.543   0.574  0.3361  0.5506  0.0226
 3865TIP3    H111559   0.129   1.517   0.624 -0.8745  3.1843 -0.3108
 3865TIP3    H211560   0.277   1.543   0.639 -0.1631 -0.6925  0.6097
 3866TIP3   OH211561   0.627   2.998   4.029 -0.2617  0.1607 -0.2554
 3866TIP3    H111562   0.612   3.090   4.048 -0.6251  0.3063 -1.1949
 3866TIP3    H211563   0.568   2.978   3.956 -0.0103 -0.7491 -0.2272
 3867TIP3   OH211564   6.229   3.530   2.066 -0.0753 -0.1533  0.0501
 3867TIP3    H111565   6.305   3.479   2.038  1.4812  2.1350 -0.1226
 3867TIP3    H211566   6.218   3.507   2.158  1.4664  0.2215  0.3455
 3868TIP3   OH211567   5.503   1.854   5.887 -0.0547  0.0537 -0.2065
 3868TIP3    H111568   5.474   1.906   5.963  0.7185 -0.3518  0.3716
 3868TIP3    H211569   5.476   1.907   5.811 -0.0858  0.8711  0.3581
 3869TIP3   OH211570   2.942   2.942   3.257 -0.3930 -0.3907  0.1888
 3869TIP3    H111571   2.979   2.977   3.176 -0.0541 -0.5543  0.2708
 3869TIP3    H211572   2.848   2.935   3.239 -0.7039  1.8726  0.6337
 3870TIP3   OH211573   7.075   0.843   0.774 -0.3970  0.3381 -0.7772
 3870TIP3    H111574   7.002   0.791   0.741 -0.0198 -0.0499 -1.0106
 3870TIP3    H211575   7.132   0.780   0.818 -0.4998  0.7304 -0.0657
 3871TIP3   OH211576   0.939   4.199   4.731  0.2895  0.0414 -0.1977
 3871TIP3    H111577   0.962   4.263   4.663  0.9556 -1.1899 -1.1880
 3871TIP3    H211578   0.852   4.225   4.760  0.4344  1.2366 -0.7679
 3872TIP3   OH211579   3.934   6.321   1.071  0.1036 -0.0748  0.5481
 3872TIP3    H111580   3.943   6.371   0.990 -0.6419 -0.2335  0.3619
 3872TIP3    H211581   4.023   6.291   1.091  0.2388 -0.3261 -0.4033
 3873TIP3   OH211582   0.885   6.360   2.556 -0.1728  0.3796 -0.7320
 3873TIP3    H111583   0.811   6.400   2.601  0.2371  1.5721 -1.0886
 3873TIP3    H211584   0.907   6.421   2.486  0.1808 -0.7017 -1.5906
 3874TIP3   OH211585   5.259   0.642   5.318  0.2827 -0.0024  0.2870
 3874TIP3    H111586   5.325   0.573   5.317 -0.2850 -0.5641  0.5663
 3874TIP3    H211587   5.195   0.615   5.252 -0.4871 -0.3082  1.1304
 3875TIP3   OH211588   4.074   5.802   5.501 -0.1923 -0.0491  0.0174
 3875TIP3    H111589   4.119   5.856   5.437  1.2324  0.0293  1.0325
 3875TIP3    H211590   4.071   5.714   5.462  2.1948 -0.4006  0.4942
 3876TIP3   OH211591   2.965   6.087   4.565 -0.1756  0.7634 -0.4557
 3876TIP3    H111592   3.013   6.014   4.527 -1.0237 -0.6949  1.1200
 3876TIP3    H211593   2.942   6.142   4.491  1.1647 -0.1508 -1.6007
 3877TIP3   OH211594   0.437   6.261   4.296 -0.0262 -0.0112  0.9101
 3877TIP3    H111595   0.418   6.170   4.319 -0.6891  0.1672  1.0894
 3877TIP3    H211596   0.382   6.279   4.220  1.4068 -0.2863 -0.2288
 3878TIP3   OH211597   3.872   1.438   3.843  0.0466 -0.2225  0.1195
 3878TIP3    H111598   3.880   1.525   3.880 -1.7223 -0.9060  2.2992
 3878TIP3    H211599   3.961   1.414   3.818  0.8150  1.5212  1.0396
 3879TIP3   OH211600   7.068   0.984   3.057 -0.2057 -0.3585  0.5847
 3879TIP3    H111601   7.048   1.024   2.972  0.7391 -0.2137  0.4200
 3879TIP3    H211602   7.146   0.931   3.041 -0.1802 -0.5445  1.3004
 3880TIP3   OH211603   3.641   5.557   1.536  0.6022  0.1119 -0.1072
 3880TIP3    H111604   3.580   5.486   1.556  0.9028 -0.5419 -1.4549
 3880TIP3    H211605   3.608   5.631   1.587 -0.9044 -0.4218 -0.2518
 3881TIP3   OH211606   0.116   4.011   0.721  0.0908  0.0290  1.0908
 3881TIP3    H111607   0.104   4.068   0.645 -1.6165  1.7140  2.5351
 3881TIP3    H211608   0.044   3.948   0.716  1.6730 -1.8172 -0.2113
 3882TIP3   OH211609   2.187   5.126   0.235 -0.7314  0.7916  0.3035
 3882TIP3    H111610   2.189   5.034   0.262  0.2661  0.4472 -0.8671
 3882TIP3    H211611   2.095   5.151   0.242 -1.3908 -0.9165 -1.3546
 3883TIP3   OH211612   0.213   2.222   0.105  0.0953  0.1760  0.0755
 3883TIP3    H111613   0.175   2.146   0.148  2.2380 -0.2587  1.3512
 3883TIP3    H211614   0.138   2.268   0.066 -1.6147 -0.9152  1.8932
 3884TIP3   OH211615   4.825   4.237   2.748  0.1219 -0.3671  0.0955
 3884TIP3    H111616   4.829   4.185   2.828  1.5066 -0.3530  0.0588
 3884TIP3    H211617   4.899   4.297   2.755  0.7342 -0.8822 -1.5375
 3885TIP3   OH211618   3.910   0.547   0.532  0.5246 -0.3674 -0.7253
 3885TIP3    H111619   3.871   0.460   0.533 -0.3644  0.0016  1.2630
 3885TIP3    H211620   4.004   0.531   0.536  0.3343 -1.2744  1.1371
 3886TIP3   OH211621   3.298   2.772   2.424  0.4038 -0.1503 -0.1839
 3886TIP3    H111622   3.233   2.719   2.470  2.3439 -0.0120  3.0577
 3886TIP3    H211623   3.338   2.712   2.361  0.6951 -1.8322  1.5070
 3887TIP3   OH211624   0.041   4.296   0.073 -0.1354  0.4461 -0.1299
 3887TIP3    H111625   0.087   4.228   0.121  1.3335  1.5106  0.0572
 3887TIP3    H211626   0.031   4.261  -0.015 -0.6522 -0.5429  0.3056
 3888TIP3   OH211627   0.884   0.333   1.484 -0.0544 -0.2645  0.2079
 3888TIP3    H111628   0.851   0.243   1.482 -0.3600 -0.1746  0.9394
 3888TIP3    H211629   0.830   0.379   1.420 -0.7040 -0.3429  0.6822
 3889TIP3   OH211630   5.210   5.331   1.865 -0.1721 -0.2702  0.1765
 3889TIP3    H111631   5.247   5.363   1.947 -0.7458  2.5842 -0.5694
 3889TIP3    H211632   5.124   5.373   1.860  0.0630  0.0362 -2.1146
 3890TIP3   OH211633   1.645   3.196   0.303 -0.1500  0.0302 -0.0241
 3890TIP3    H111634   1.594   3.243   0.238  0.2924 -0.7541 -0.9751
 3890TIP3    H211635   1.690   3.264   0.353 -1.8318  0.7180  0.6199
 3891TIP3   OH211636   4.461   5.288   0.860 -0.1993 -0.1535 -0.1270
 3891TIP3    H111637   4.530   5.252   0.915 -0.8395 -1.6981 -0.2850
 3891TIP3    H211638   4.454   5.379   0.887  2.8196  0.4842 -1.0297
 3892TIP3   OH211639   4.589   1.055   2.920  0.2918 -0.3826 -0.5463
 3892TIP3    H111640   4.593   1.146   2.890 -0.6221  0.8603  2.6636
 3892TIP3    H211641   4.674   1.040   2.962 -0.1418 -0.4404  0.3223
 3893TIP3   OH211642   4.560   2.996   4.042 -0.1775  0.4775  0.1631
 3893TIP3    H111643   4.578   2.923   3.982 -1.7051  0.2955 -0.1310
 3893TIP3    H211644   4.641   3.046   4.045  0.4664 -0.4804 -0.7171
 3894TIP3   OH211645   7.155   2.375   0.089  0.1343 -0.1992 -0.4014
 3894TIP3    H111646   7.167   2.333   0.004 -0.3563 -1.2299  0.0217
 3894TIP3    H211647   7.060   2.382   0.098  0.0875 -1.9354  0.9059
 3895TIP3   OH211648   2.254   3.538   3.177 -0.2032  0.9222 -0.5525
 3895TIP3    H111649   2.166   3.509   3.153 -0.1119  1.8393 -2.1612
 3895TIP3    H211650   2.241   3.626   3.213  0.0420  0.9858 -0.6194
 3896TIP3   OH211651   3.753   5.933   5.103  0.5317 -0.2825 -0.3350
 3896TIP3    H111652   3.704   5.932   5.021  0.1646  2.8187 -0.2684
 3896TIP3    H211653   3.766   5.840   5.124  0.1813 -1.2039 -3.5782
 3897TIP3   OH211654   7.204   1.674   0.209  0.1500 -0.1949  0.3049
 3897TIP3    H111655   7.256   1.734   0.155  0.1584  0.4252  1.0007
 3897TIP3    H211656   7.176   1.726   0.284  0.1884 -1.0716  0.9441
 3898TIP3   OH211657   2.771   0.075   4.560 -0.0100  0.2531 -0.2796
 3898TIP3    H111658   2.823   0.145   4.520  0.7760  1.0799  2.0705
 3898TIP3    H211659   2.774   0.092   4.654  0.1774 -2.9300  0.4122
 3899TIP3   OH211660   6.407   5.467   0.188 -0.0518  0.3617  0.5032
 3899TIP3    H111661   6.501   5.455   0.201 -0.5338 -2.6907  1.9092
 3899TIP3    H211662   6.386   5.413   0.113 -0.8027  0.4173  0.6684
 3900TIP3   OH211663   0.068   6.241   0.600  0.4710  0.4754 -0.2891
 3900TIP3    H111664   0.033   6.216   0.685  2.1968 -3.0081 -0.4086
 3900TIP3    H211665   0.144   6.296   0.619  0.8995 -0.3555  0.4777
 3901TIP3   OH211666   1.283   6.041   1.772 -0.4309 -0.4254  0.6066
 3901TIP3    H111667   1.366   6.053   1.726 -1.0964  0.1787 -0.4648
 3901TIP3    H211668   1.309   6.030   1.864  0.7303  2.2150  0.6971
 3902TIP3   OH211669   6.004   6.349   1.281 -0.1916 -0.6066 -0.3745
 3902TIP3    H111670   5.957   6.293   1.219  0.0304  0.4736 -1.5747
 3902TIP3    H211671   5.940   6.414   1.308 -0.3427 -1.1902  0.7178
 3903TIP3   OH211672   4.604   5.357   4.752  0.0819  0.6098  0.6068
 3903TIP3    H111673   4.664   5.334   4.681 -1.6130  1.3451 -1.1375
 3903TIP3    H211674   4.613   5.284   4.815  1.2123 -0.3509 -0.6126
 3904TIP3   OH211675   5.382   2.051   4.146 -0.3887 -0.1421  0.0788
 3904TIP3    H111676   5.364   2.041   4.053 -0.1157  1.0297 -0.1280
 3904TIP3    H211677   5.346   1.973   4.187 -0.5547 -0.6500 -1.0023
 3905TIP3   OH211678   0.989   0.643   0.885 -0.1916  0.4951  0.7369
 3905TIP3    H111679   0.959   0.565   0.838  0.4185  0.2130  0.8089
 3905TIP3    H211680   1.064   0.613   0.937 -0.4638  0.9432  1.4112
 3906TIP3   OH211681   3.081   0.380   5.353 -0.6210 -1.0837 -0.8024
 3906TIP3    H111682   3.135   0.459   5.364 -1.4279 -0.7993  1.8994
 3906TIP3    H211683   2.999   0.412   5.316 -0.0258 -1.0767 -2.1529
 3907TIP3   OH211684   4.060   5.225   0.908 -0.0885 -0.1904  0.0099
 3907TIP3    H111685   4.128   5.283   0.941  0.2360 -0.5761  0.0297
 3907TIP3    H211686   3.978   5.262   0.940  0.1011  0.3705 -0.1548
 3908TIP3   OH211687   5.636   3.846   1.085  0.6123  0.4229 -0.2746
 3908TIP3    H111688   5.553   3.882   1.117 -0.3293 -0.2697 -1.8349
 3908TIP3    H211689   5.625   3.840   0.990  2.5636  0.5664 -0.5641
 3909TIP3   OH211690   1.094   0.202   0.733 -0.3194 -0.2113  0.2873
 3909TIP3    H111691   1.023   0.138   0.726 -0.6772  0.2595 -0.5121
 3909TIP3    H211692   1.060   0.269   0.793 -0.5365 -0.0155 -0.0500
 3910TIP3   OH211693   1.845   4.439   0.386 -0.1946  0.2144 -0.0877
 3910TIP3    H111694   1.907   4.366   0.383  0.0804  0.4489 -0.1688
 3910TIP3    H211695   1.896   4.511   0.423 -0.4416  0.3910 -0.0926
 3911TIP3   OH211696   2.807   0.681   3.307  0.0813 -0.0008 -0.1421
 3911TIP3    H111697   2.784   0.592   3.279 -0.6530  0.2242 -0.2726
 3911TIP3    H211698   2.723   0.725   3.317  0.4602  0.9404 -0.9269
 3912TIP3   OH211699   5.248   3.221   5.591  0.1095  0.3000 -0.1520
 3912TIP3    H111700   5.229   3.264   5.674 -0.5050  1.8722 -1.0711
 3912TIP3    H211701   5.331   3.176   5.605 -0.2956  0.0049  1.4855
 3913TIP3   OH211702   2.086   5.434   2.654  0.0481  0.2391  0.7018
 3913TIP3    H111703   2.035   5.353   2.663  0.1814  0.2760  2.1005
 3913TIP3    H211704   2.041   5.483   2.586  0.4440 -1.3567 -0.7688
 3914TIP3   OH211705   2.986   1.809   4.838  0.2850  0.1625  0.1304
 3914TIP3    H111706   3.067   1.853   4.865  0.4434  0.0015 -0.0830
 3914TIP3    H211707   2.951   1.773   4.920  0.8793 -0.5076  0.0996
 3915TIP3   OH211708   6.740   3.083   5.202  0.2956  0.3613 -0.0442
 3915TIP3    H111709   6.776   3.139   5.133 -0.2845 -2.3633 -2.8102
 3915TIP3    H211710   6.738   2.995   5.163 -2.1140 -0.9997  2.7145
 3916TIP3   OH211711   6.956   0.985   2.555  0.3153 -0.0215  0.3285
 3916TIP3    H111712   6.943   1.031   2.638 -2.0880  1.4264 -0.7400
 3916TIP3    H211713   7.001   1.048   2.500  1.0384 -0.6292  0.2092
 3917TIP3   OH211714   6.936   6.780   2.389  0.4267 -0.0644  0.5891
 3917TIP3    H111715   6.849   6.742   2.389  0.4724 -0.1777  1.3355
 3917TIP3    H211716   6.930   6.855   2.329 -0.5616  0.7631  1.6726
 3918TIP3   OH211717   2.821   4.424   3.242  0.6168 -0.3245  0.1740
 3918TIP3    H111718   2.855   4.382   3.164 -1.3572  1.1892 -1.6299
 3918TIP3    H211719   2.884   4.494   3.261  0.9370 -0.4930 -0.2557
 3919TIP3   OH211720   2.469   4.761   5.228  0.4417 -0.0847 -0.5234
 3919TIP3    H111721   2.439   4.762   5.319  1.6592  0.4179 -0.1014
 3919TIP3    H211722   2.403   4.711   5.181 -0.4404  0.0352  0.5571
 3920TIP3   OH211723   6.084   0.420   2.047 -0.4848 -0.5182  0.1129
 3920TIP3    H111724   6.094   0.457   2.135 -1.2156 -0.5856  0.2293
 3920TIP3    H211725   6.167   0.375   2.031 -0.8333 -1.6698  1.3278
 3921TIP3   OH211726   6.491   1.923   1.522  0.1257  0.7154  0.0571
 3921TIP3    H111727   6.516   2.015   1.509 -1.1594  0.9505 -0.9058
 3921TIP3    H211728   6.561   1.874   1.478 -0.6511  1.3450 -2.0158
 3922TIP3   OH211729   7.059   5.560   0.584 -0.0193  0.0460  0.2663
 3922TIP3    H111730   7.027   5.643   0.547  0.6200 -0.6390 -2.0173
 3922TIP3    H211731   7.154   5.565   0.575 -0.0578 -1.8006 -2.1290
 3923TIP3   OH211732   6.720   5.880   3.510 -0.2445 -0.2750  0.5834
 3923TIP3    H111733   6.734   5.930   3.591  0.7047 -0.6862  0.6849
 3923TIP3    H211734   6.784   5.810   3.514  0.7107  0.4424 -1.1332
 3924TIP3   OH211735   6.940   4.565   3.171 -0.1349  0.0891  0.6668
 3924TIP3    H111736   6.952   4.500   3.240 -1.0035 -1.0174 -0.1942
 3924TIP3    H211737   6.847   4.587   3.174 -0.1611  0.1150 -0.0525
 3925TIP3   OH211738   5.092   0.584   2.912 -0.1740  0.4827  0.0900
 3925TIP3    H111739   5.117   0.547   2.827 -1.1407 -1.8211  0.7416
 3925TIP3    H211740   5.175   0.614   2.949  0.4389  0.4132 -1.1495
 3926TIP3   OH211741   0.072   6.617   5.835  0.1860 -0.4108 -0.7638
 3926TIP3    H111742   0.021   6.695   5.855  1.3670  0.1830 -0.0226
 3926TIP3    H211743   0.156   6.649   5.804  0.4729 -1.3887 -1.0499
 3927TIP3   OH211744   0.584   6.705   1.050 -0.2755  0.1365 -0.3852
 3927TIP3    H111745   0.617   6.791   1.022 -1.7423  0.2286 -1.9838
 3927TIP3    H211746   0.509   6.725   1.107 -0.7538 -0.0603 -0.9323
 3928TIP3   OH211747   1.116   2.402   0.283 -0.1539  0.2064 -0.0672
 3928TIP3    H111748   1.153   2.480   0.241  0.5263  0.1134  0.3360
 3928TIP3    H211749   1.164   2.395   0.365 -0.3293 -0.5537 -0.0259
 3929TIP3   OH211750   1.524   3.985   4.851 -0.3854 -0.2505 -0.5480
 3929TIP3    H111751   1.550   3.931   4.777 -0.3090  1.7684 -2.0912
 3929TIP3    H211752   1.606   4.002   4.898 -0.1428 -0.1236 -1.0104
 3930TIP3   OH211753   2.138   2.569   0.046  0.5207 -0.2645  0.3537
 3930TIP3    H111754   2.155   2.492   0.101  1.1961 -0.6279 -0.3406
 3930TIP3    H211755   2.201   2.562  -0.025 -1.9274 -1.1941 -1.9164
 3931TIP3   OH211756   6.403   1.204   4.614 -0.2435  0.4545  0.4125
 3931TIP3    H111757   6.332   1.139   4.613  0.4333 -0.3330 -1.7391
 3931TIP3    H211758   6.358   1.288   4.628 -1.2052 -0.3358  2.5155
 3932TIP3   OH211759   6.828   2.248   2.081 -0.2454  0.9535  0.0418
 3932TIP3    H111760   6.790   2.214   2.000 -0.9784  2.0382 -0.0911
 3932TIP3    H211761   6.778   2.327   2.100  0.3105  1.0410  1.2415
 3933TIP3   OH211762   1.793   4.335   0.630 -0.2580 -0.0425 -0.9110
 3933TIP3    H111763   1.874   4.286   0.644  0.5450  1.8958  2.2362
 3933TIP3    H211764   1.728   4.268   0.610  1.6520 -1.8639 -1.4465
 3934TIP3   OH211765   1.830   0.117   3.570 -0.4628 -0.4573  0.4359
 3934TIP3    H111766   1.821   0.025   3.544 -1.4325 -0.3581  0.4070
 3934TIP3    H211767   1.815   0.166   3.489  0.2799 -0.2701  0.4024
 3935TIP3   OH211768   0.778   5.807   4.673 -0.2201  0.1776  0.1271
 3935TIP3    H111769   0.772   5.842   4.761 -0.1564  0.1827  0.1298
 3935TIP3    H211770   0.840   5.734   4.680 -2.2113 -1.5384  0.6270
 3936TIP3   OH211771   0.699   1.115   4.796 -0.1387 -0.0656 -0.7159
 3936TIP3    H111772   0.774   1.069   4.835 -0.5063  0.6166  0.8725
 3936TIP3    H211773   0.711   1.105   4.702  0.9720 -1.5219 -0.4565
 3937TIP3   OH211774   2.321   2.129   5.108 -1.1428  0.5136 -0.5104
 3937TIP3    H111775   2.383   2.136   5.035 -1.3163  0.1248 -0.6984
 3937TIP3    H211776   2.268   2.052   5.087 -0.1392 -0.5997  0.8319
 3938TIP3   OH211777   6.720   2.835   5.125 -0.3868  0.2705  0.4395
 3938TIP3    H111778   6.797   2.780   5.115 -0.5283 -0.3391  2.2686
 3938TIP3    H211779   6.649   2.786   5.083 -0.3990 -0.7408  1.5764
 3939TIP3   OH211780   0.884   4.458   2.071  0.0970  0.2632 -0.2052
 3939TIP3    H111781   0.912   4.436   2.160 -0.4220 -0.8371 -0.3029
 3939TIP3    H211782   0.919   4.546   2.056  1.1279  0.0246  0.6819
 3940TIP3   OH211783   1.336   1.144   5.421 -0.3488  0.1438  0.0227
 3940TIP3    H111784   1.272   1.073   5.430 -0.6725 -0.0041 -2.4849
 3940TIP3    H211785   1.419   1.099   5.407  0.3372  0.3378  2.9501
 3941TIP3   OH211786   1.383   3.751   2.702  0.7092 -0.3116  0.0951
 3941TIP3    H111787   1.455   3.689   2.694  0.9584  0.1664 -2.0841
 3941TIP3    H211788   1.398   3.797   2.785  1.9462 -1.3701  0.4756
 3942TIP3   OH211789   4.338   0.562   0.992  0.1759 -0.3701  0.1939
 3942TIP3    H111790   4.395   0.636   0.970 -0.6486 -0.1620 -1.3444
 3942TIP3    H211791   4.385   0.485   0.958 -0.7253 -0.1305 -1.6845
 3943TIP3   OH211792   2.612   4.916   1.848  0.2402 -0.2560  0.3182
 3943TIP3    H111793   2.572   4.974   1.783 -0.9119 -0.3775  0.8983
 3943TIP3    H211794   2.628   4.973   1.923  1.7143 -0.0806 -0.0966
 3944TIP3   OH211795   4.856   2.396   1.763  0.4003  0.0123 -0.3215
 3944TIP3    H111796   4.823   2.486   1.761 -0.8814 -0.4323  0.1371
 3944TIP3    H211797   4.779   2.343   1.783  1.4218 -1.0401  0.9965
 3945TIP3   OH211798   1.883   0.516   5.344 -0.3314 -0.9473  0.0484
 3945TIP3    H111799   1.836   0.461   5.407  0.1800 -1.8769 -0.3699
 3945TIP3    H211800   1.849   0.491   5.259  0.2983 -1.0129 -0.1920
 3946TIP3   OH211801   0.975   2.377   1.139 -0.2761  0.1862 -0.3794
 3946TIP3    H111802   0.908   2.362   1.206  1.0988 -1.9376  0.6114
 3946TIP3    H211803   1.056   2.347   1.179  1.2304  2.2646 -1.7310
 3947TIP3   OH211804   6.253   0.134   0.557 -0.4154  0.7607 -0.6013
 3947TIP3    H111805   6.209   0.187   0.623  1.3303  1.9782 -0.3353
 3947TIP3    H211806   6.335   0.180   0.540  0.1187 -0.6291 -2.1181
 3948TIP3   OH211807   0.498   0.337   4.696 -0.0241  0.8517  0.1870
 3948TIP3    H111808   0.479   0.425   4.727 -0.5058  0.6985  0.3403
 3948TIP3    H211809   0.434   0.321   4.627  0.1080  0.6475  0.1089
 3949TIP3   OH211810   6.188   6.037   2.835  0.3345  0.2590 -0.5596
 3949TIP3    H111811   6.256   6.084   2.882  0.5010 -0.7092  0.2248
 3949TIP3    H211812   6.185   6.077   2.748 -1.2932  3.4254  0.8031
 3950TIP3   OH211813   6.863   6.533   3.738 -0.0853  0.5555 -0.1640
 3950TIP3    H111814   6.848   6.599   3.671 -1.9738 -1.0979 -1.4960
 3950TIP3    H211815   6.870   6.450   3.690 -1.5889 -0.7223  1.6390
 3951TIP3   OH211816   6.716   1.525   3.627 -0.4813  0.2653  0.4590
 3951TIP3    H111817   6.641   1.542   3.684  0.7079 -0.8184  2.4301
 3951TIP3    H211818   6.712   1.431   3.609  0.6584  0.1111  0.9683
 3952TIP3   OH211819   4.232   5.772   3.195  0.2443 -0.0293  0.3406
 3952TIP3    H111820   4.257   5.688   3.156  2.6431  1.1601 -0.9374
 3952TIP3    H211821   4.315   5.816   3.213 -0.9133  2.6623 -0.3713
 3953TIP3   OH211822   6.511   1.899   5.654 -0.4040  0.7596  0.1214
 3953TIP3    H111823   6.462   1.905   5.572 -3.8132 -0.2461  1.8705
 3953TIP3    H211824   6.602   1.890   5.627 -1.5213 -1.9885 -3.7035
 3954TIP3   OH211825   4.295   3.483   5.699  0.0416 -0.0827 -0.8006
 3954TIP3    H111826   4.300   3.572   5.665 -1.1881  0.7421  0.9994
 3954TIP3    H211827   4.382   3.466   5.733  1.0455 -0.6077 -3.4200
 3955TIP3   OH211828   5.488   6.593   1.218 -0.2255 -0.2262 -0.0147
 3955TIP3    H111829   5.459   6.666   1.271 -0.1741 -0.4169  0.2775
 3955TIP3    H211830   5.501   6.630   1.130  2.2167  0.7058  0.6496
 3956TIP3   OH211831   3.341   1.257   5.424  0.1574  0.4735  0.2978
 3956TIP3    H111832   3.388   1.213   5.353  0.6866 -1.5107  1.7778
 3956TIP3    H211833   3.403   1.256   5.497 -1.4531 -0.4209  1.7109
 3957TIP3   OH211834   4.843   2.564   4.639  0.2847 -0.3840 -0.2920
 3957TIP3    H111835   4.755   2.595   4.658  0.1381 -0.4535 -0.8499
 3957TIP3    H211836   4.867   2.607   4.557 -0.1919 -2.2273 -1.4536
 3958TIP3   OH211837   0.470   3.076   3.063  0.0772 -0.1293 -0.2020
 3958TIP3    H111838   0.509   3.150   3.109  0.9121 -0.2792 -0.6549
 3958TIP3    H211839   0.414   3.034   3.128 -1.2302  1.4894 -0.2181
 3959TIP3   OH211840   5.976   5.195   4.064 -0.1914  0.5514 -0.3546
 3959TIP3    H111841   5.976   5.113   4.113  0.6360  0.9400  0.3068
 3959TIP3    H211842   5.899   5.188   4.007 -0.1389 -0.6813 -0.3130
 3960TIP3   OH211843   0.603   6.014   3.788 -0.0977 -0.3363  0.1299
 3960TIP3    H111844   0.513   5.985   3.804 -0.0394 -0.4192  0.3019
 3960TIP3    H211845   0.657   5.937   3.804  0.2390  0.3143  2.3555
 3961TIP3   OH211846   2.870   6.601   3.026 -0.5196  0.4116 -0.2203
 3961TIP3    H111847   2.861   6.695   3.046  0.9645  0.1824  1.7858
 3961TIP3    H211848   2.823   6.557   3.097  0.7881 -0.3888  0.1677
 3962TIP3   OH211849   4.956   3.303   0.575  0.0080 -0.1328  1.0252
 3962TIP3    H111850   5.027   3.244   0.549 -0.0422 -0.1335  0.8921
 3962TIP3    H211851   5.001   3.383   0.604 -0.0071  0.5920 -0.8660
 3963TIP3   OH211852   3.076   3.938   4.629  0.2592  0.0964 -0.0449
 3963TIP3    H111853   3.133   3.998   4.677 -0.3752  0.1325  0.6622
 3963TIP3    H211854   2.990   3.947   4.670  0.2150 -1.5145  0.2695
 3964TIP3   OH211855   2.551   5.868   3.925 -0.4082 -0.7025 -0.0620
 3964TIP3    H111856   2.500   5.828   3.854  1.5605 -2.4015 -0.6148
 3964TIP3    H211857   2.641   5.843   3.907  0.7163  2.3116  0.7992
 3965TIP3   OH211858   1.086   1.495   5.149  0.0789 -0.0710 -0.1281
 3965TIP3    H111859   1.152   1.431   5.173 -0.0053 -0.0685  0.1127
 3965TIP3    H211860   1.090   1.561   5.218 -0.7468 -0.4968  0.3522
 3966TIP3   OH211861   6.234   3.439   5.280 -0.1749  0.0375  0.3686
 3966TIP3    H111862   6.170   3.491   5.231 -0.3991  0.4302  1.0718
 3966TIP3    H211863   6.181   3.380   5.334  0.0283 -2.6071 -2.0753
 3967TIP3   OH211864   0.805   6.603   0.302  0.3370 -0.4531 -0.2560
 3967TIP3    H111865   0.808   6.537   0.371 -0.7941 -0.4684 -0.2045
 3967TIP3    H211866   0.893   6.642   0.302  0.6205 -1.0708  0.5737
 3968TIP3   OH211867   4.963   5.749   3.057  0.1156 -0.7752  0.4583
 3968TIP3    H111868   5.039   5.690   3.059  1.1543  0.5244  1.9903
 3968TIP3    H211869   4.990   5.821   2.999  0.0242 -0.3605  0.9251
 3969TIP3   OH211870   3.623   5.002   2.726 -0.0990 -0.1481 -0.2985
 3969TIP3    H111871   3.643   4.978   2.636  2.4798  1.5940 -0.2880
 3969TIP3    H211872   3.627   5.098   2.727 -3.2757  0.1155  1.0581
 3970TIP3   OH211873   4.755   3.339   3.875  0.5822  0.3536  0.1923
 3970TIP3    H111874   4.772   3.258   3.923 -1.0339  1.1023  2.1515
 3970TIP3    H211875   4.769   3.315   3.783  1.1159 -1.8583  0.7774
 3971TIP3   OH211876   0.610   4.366   0.745 -0.7136  0.2541  0.4270
 3971TIP3    H111877   0.597   4.412   0.663 -0.9225 -1.2786 -0.4518
 3971TIP3    H211878   0.704   4.347   0.748 -0.7135  0.2660  0.5092
 3972TIP3   OH211879   2.011   3.935   0.975 -0.1045  0.1232  0.1951
 3972TIP3    H111880   1.936   3.993   0.967  0.1319  0.5997  1.2345
 3972TIP3    H211881   2.085   3.993   0.992  0.0016 -0.4687  2.0893
 3973TIP3   OH211882   1.098   5.259   2.268  0.1746 -0.0560  0.4263
 3973TIP3    H111883   1.165   5.192   2.277  0.5948  0.1387 -0.9761
 3973TIP3    H211884   1.141   5.340   2.295 -0.2734 -0.2834  1.9264
 3974TIP3   OH211885   5.403   1.125   0.668 -0.0825 -0.2824  0.2319
 3974TIP3    H111886   5.379   1.185   0.598  1.3292  0.6439  0.4920
 3974TIP3    H211887   5.346   1.150   0.741 -0.5123 -0.2414 -0.1117
 3975TIP3   OH211888   2.826   6.416   3.587  0.4600  0.0700  0.6064
 3975TIP3    H111889   2.808   6.366   3.507 -2.3420 -2.6866  2.6964
 3975TIP3    H211890   2.915   6.390   3.612  0.6638 -0.4749 -0.6242
 3976TIP3   OH211891   2.316   2.156   1.901 -0.0226 -0.3187  0.0616
 3976TIP3    H111892   2.374   2.181   1.973 -1.1901 -1.7658  1.5715
 3976TIP3    H211893   2.292   2.066   1.919  0.5985 -1.1782 -2.8579
 3977TIP3   OH211894   1.367   0.493   3.020  0.0011 -0.3000 -0.5791
 3977TIP3    H111895   1.401   0.453   3.100  0.5752  0.8873 -0.2193
 3977TIP3    H211896   1.395   0.433   2.950 -0.0610 -1.0737  0.0521
 3978TIP3   OH211897   6.739   3.723   1.950 -0.6668  0.2519  0.1608
 3978TIP3    H111898   6.681   3.794   1.976 -0.7943  0.0554  0.4127
 3978TIP3    H211899   6.756   3.739   1.857 -1.1669  0.2737  0.0742
 3979TIP3   OH211900   5.596   2.079   0.758  0.4958  0.5489 -0.2942
 3979TIP3    H111901   5.625   2.021   0.688  2.3094 -0.6464  1.3546
 3979TIP3    H211902   5.532   2.028   0.806  0.1182  0.9331 -0.3809
 3980TIP3   OH211903   4.047   2.428   5.751 -0.1284  0.3647 -0.2256
 3980TIP3    H111904   4.062   2.336   5.725 -0.2159  0.2785  0.0299
 3980TIP3    H211905   4.043   2.425   5.846  3.3737  1.1288  0.0912
 3981TIP3   OH211906   0.491   4.099   1.414  0.3255  0.3167 -0.5504
 3981TIP3    H111907   0.482   4.111   1.319  0.0563  1.2108 -0.4207
 3981TIP3    H211908   0.402   4.078   1.443  0.4579 -0.2201 -0.5285
 3982TIP3   OH211909   0.467   5.406   3.597 -0.1514 -0.3468  0.1731
 3982TIP3    H111910   0.411   5.381   3.671 -2.7590 -0.2720 -1.6659
 3982TIP3    H211911   0.446   5.498   3.581  0.1692 -0.4481 -0.8573
 3983TIP3   OH211912   4.980   5.619   5.145 -0.4243 -0.1740 -0.4322
 3983TIP3    H111913   4.946   5.560   5.077 -1.6561 -0.2078  0.2019
 3983TIP3    H211914   5.003   5.561   5.218 -0.1934 -0.0124 -0.3728
 3984TIP3   OH211915   6.489   2.188   3.565 -0.3388 -0.2984 -0.3929
 3984TIP3    H111916   6.582   2.206   3.580 -0.3620  1.3806 -2.0117
 3984TIP3    H211917   6.445   2.228   3.640  0.1583 -0.3494 -0.0645
 3985TIP3   OH211918   4.166  -0.020   5.001 -0.2243  0.1689  0.0479
 3985TIP3    H111919   4.159  -0.027   4.906  3.3677  1.3933 -0.4474
 3985TIP3    H211920   4.131   0.067   5.021  0.5950  0.6274 -0.4435
 3986TIP3   OH211921   6.429   4.249   1.900 -0.4201  0.2105  0.3777
 3986TIP3    H111922   6.338   4.260   1.873 -0.5745 -0.9093  0.3967
 3986TIP3    H211923   6.448   4.328   1.951 -1.6221  0.1333  1.0017
 3987TIP3   OH211924   6.496   3.713   3.795  0.5755 -0.1269  0.3596
 3987TIP3    H111925   6.462   3.709   3.885  0.7372  1.1026  0.4928
 3987TIP3    H211926   6.591   3.714   3.806  0.6291 -1.0341  0.1052
 3988TIP3   OH211927   5.662   0.758   2.593  0.8915 -0.0919 -0.1150
 3988TIP3    H111928   5.725   0.820   2.556  1.5773 -0.4736  0.3789
 3988TIP3    H211929   5.703   0.728   2.674  2.1998 -3.6303 -1.8496
 3989TIP3   OH211930   0.550   5.125   4.584 -0.7865  0.4741  0.0416
 3989TIP3    H111931   0.479   5.067   4.555 -0.0333 -0.6431  0.3567
 3989TIP3    H211932   0.507   5.193   4.636 -1.4403 -1.5340  2.3032
 3990TIP3   OH211933   3.393   3.636   4.514 -0.3547 -0.2839  0.3236
 3990TIP3    H111934   3.308   3.605   4.543 -0.9525  0.2096 -0.8300
 3990TIP3    H211935   3.408   3.716   4.565  0.1105 -1.1529  1.5857
 3991TIP3   OH211936   3.371   1.311   0.160  0.0423 -0.2249 -0.3785
 3991TIP3    H111937   3.385   1.343   0.071 -0.4961  1.2701  0.0317
 3991TIP3    H211938   3.355   1.218   0.150  1.9117 -0.4753 -1.6453
 3992TIP3   OH211939   3.702   5.942   0.947 -0.4522 -0.0637 -0.4664
 3992TIP3    H111940   3.655   6.025   0.956 -0.7347 -0.0449 -1.8240
 3992TIP3    H211941   3.791   5.968   0.921  0.4495 -0.0896  2.2740
 3993TIP3   OH211942   1.670   5.337   1.954  0.7204  0.3114 -0.5501
 3993TIP3    H111943   1.623   5.260   1.987  0.2867  0.4315 -0.8683
 3993TIP3    H211944   1.635   5.410   2.006  0.0314  0.5012 -1.2589
 3994TIP3   OH211945   0.205   1.570   2.977 -0.0708 -0.5338 -0.5161
 3994TIP3    H111946   0.277   1.520   3.016 -0.4359 -0.5468  0.1598
 3994TIP3    H211947   0.126   1.529   3.013 -0.4101 -0.3371 -1.0267
 3995TIP3   OH211948   1.269   5.696   3.266 -0.0328 -0.4291 -0.0498
 3995TIP3    H111949   1.237   5.772   3.315  2.8091  3.4774 -3.5717
 3995TIP3    H211950   1.344   5.665   3.317 -0.6714 -0.3464  0.9734
 3996TIP3   OH211951   1.704   0.064   1.125 -0.3237  0.3063  0.4686
 3996TIP3    H111952   1.768   0.105   1.066 -1.8751  0.6009 -1.0930
 3996TIP3    H211953   1.739  -0.024   1.141 -0.1850 -0.0560 -1.5294
 3997TIP3   OH211954   1.370   0.125   5.340 -0.0919 -0.2292 -0.3098
 3997TIP3    H111955   1.310   0.050   5.341  1.4660 -1.5203 -0.5170
 3997TIP3    H211956   1.356   0.164   5.254 -1.3424  0.1072  0.0187
 3998TIP3   OH211957   5.696   2.538   1.018 -0.4109 -0.3043 -0.3942
 3998TIP3    H111958   5.723   2.523   1.109  1.8503 -1.6563 -1.2201
 3998TIP3    H211959   5.695   2.634   1.009 -0.9712 -0.1407  1.1113
 3999TIP3   OH211960   1.914   4.410   0.897 -0.5586  0.2588  0.1176
 3999TIP3    H111961   1.863   4.460   0.833 -1.6189  0.5871  1.1798
 3999TIP3    H211962   1.876   4.322   0.892 -0.5530  0.2525  0.1979
 4000TIP3   OH211963   1.396   1.242   3.036  0.3678  0.3312 -0.1532
 4000TIP3    H111964   1.405   1.242   3.131  2.1465  0.3245 -0.2887
 4000TIP3    H211965   1.310   1.203   3.020  1.8599 -4.1675  1.3262
 4001TIP3   OH211966   3.935   3.895   0.196  0.4426  0.4799  0.4204
 4001TIP3    H111967   3.876   3.965   0.223  1.3252  1.4830 -0.1569
 4001TIP3    H211968   3.886   3.846   0.129  0.0525  0.9533  0.3569
 4002TIP3   OH211969   0.812   0.651   0.400 -0.3751 -0.3260 -0.3223
 4002TIP3    H111970   0.813   0.741   0.430  2.0460 -0.2722 -0.3496
 4002TIP3    H211971   0.722   0.621   0.415 -0.8246  1.5779  1.1489
 4003TIP3   OH211972   6.268   6.321   2.379  0.4036  0.1508  0.1925
 4003TIP3    H111973   6.306   6.300   2.293 -0.8665 -1.0567 -0.1016
 4003TIP3    H211974   6.311   6.403   2.404  0.6257  0.6603 -1.7022
 4004TIP3   OH211975   3.092   4.055   3.785  0.0065 -0.1605  0.2433
 4004TIP3    H111976   3.124   3.990   3.847  0.1185 -2.7364 -2.2899
 4004TIP3    H211977   3.171   4.087   3.741 -0.0724  1.5884  1.2916
 4005TIP3   OH211978   3.314   1.532   3.087 -0.3395 -0.2711 -0.6737
 4005TIP3    H111979   3.351   1.492   3.008 -0.2485  0.5149 -1.0416
 4005TIP3    H211980   3.367   1.610   3.101 -1.0141  0.1489 -0.4297
 4006TIP3   OH211981   2.234   5.050   5.375  0.0479 -0.0748 -0.5317
 4006TIP3    H111982   2.271   5.138   5.371 -0.6215  0.2115 -0.4947
 4006TIP3    H211983   2.263   5.016   5.460  1.1614 -0.2821 -0.9782
 4007TIP3   OH211984   6.590   2.907   1.015 -0.5766  0.3718 -0.0808
 4007TIP3    H111985   6.517   2.889   1.074 -0.8828 -1.0992 -0.8686
 4007TIP3    H211986   6.549   2.923   0.930 -0.0432  0.8642 -0.2581
 4008TIP3   OH211987   2.007   0.312   3.725  0.0574 -0.3546 -0.2224
 4008TIP3    H111988   1.966   0.398   3.716  0.5146 -0.1697 -0.6045
 4008TIP3    H211989   1.956   0.254   3.670  0.4086 -0.0853 -0.8495
 4009TIP3   OH211990   5.512   1.476   2.390 -0.4554 -0.0702  0.8381
 4009TIP3    H111991   5.566   1.527   2.329  0.8086 -0.8287  1.2995
 4009TIP3    H211992   5.452   1.541   2.428 -0.0632  0.7384  0.1321
 4010TIP3   OH211993   5.084   6.399   4.629  0.2056 -0.3662  0.3340
 4010TIP3    H111994   5.119   6.372   4.544  2.9367 -2.8732  2.0645
 4010TIP3    H211995   4.998   6.357   4.634  0.4054 -0.9554 -0.8038
 4011TIP3   OH211996   4.221   1.501   0.901 -0.0617 -0.2238  0.3321
 4011TIP3    H111997   4.173   1.437   0.848 -0.2702  1.3736 -1.5488
 4011TIP3    H211998   4.166   1.515   0.978 -1.4785 -0.1328 -0.6614
 4012TIP3   OH211999   4.047   4.317   2.037  0.3716 -0.3088 -0.2605
 4012TIP3    H112000   3.975   4.277   1.989 -0.1689 -1.4067  1.3639
 4012TIP3    H212001   4.119   4.319   1.975 -0.6029 -0.6852 -1.4348
 4013TIP3   OH212002   6.781   4.174   4.443 -0.4080  0.0967 -0.0672
 4013TIP3    H112003   6.778   4.162   4.348  0.2237  0.3454 -0.1252
 4013TIP3    H212004   6.752   4.090   4.479 -0.2081 -0.1500 -0.4769
 4014TIP3   OH212005   1.445   0.586   4.753  0.0231  0.4831 -0.9268
 4014TIP3    H112006   1.536   0.569   4.776 -0.3780  2.8774  3.4711
 4014TIP3    H212007   1.450   0.646   4.678  1.9854 -0.2047 -1.3933
 4015TIP3   OH212008   3.015   1.527   2.548 -0.1446 -0.3258  0.0107
 4015TIP3    H112009   3.019   1.435   2.576  1.4940  0.1496  1.4913
 4015TIP3    H212010   3.097   1.540   2.500 -0.4418  0.3281 -0.3175
 4016TIP3   OH212011   7.009   3.789   5.860  0.3315 -0.1961  0.1436
 4016TIP3    H112012   6.953   3.867   5.861  1.8523  0.9281 -0.1887
 4016TIP3    H212013   6.958   3.724   5.811  0.0684  1.3991 -1.8171
 4017TIP3   OH212014   1.770   6.170   3.986 -0.6754  0.0028 -0.0759
 4017TIP3    H112015   1.801   6.242   3.931 -1.2540  0.3936  0.0928
 4017TIP3    H212016   1.848   6.141   4.033 -0.3859  0.3593 -0.3296
 4018TIP3   OH212017   7.065   3.698   2.113  0.3357  0.1059  0.8436
 4018TIP3    H112018   7.077   3.646   2.193  0.3296  0.3561  1.0104
 4018TIP3    H212019   7.147   3.688   2.065  0.4906  0.2650  1.0679
 4019TIP3   OH212020   3.554   2.789   1.063  0.1238 -0.1198  0.6406
 4019TIP3    H112021   3.530   2.813   1.152 -2.9349  1.5588 -0.4923
 4019TIP3    H212022   3.559   2.872   1.016 -1.4536 -1.1012 -1.4021
 4020TIP3   OH212023   1.918   2.532   4.644 -0.0718  0.1013  0.6479
 4020TIP3    H112024   1.873   2.561   4.724  0.6909  1.1229  0.7240
 4020TIP3    H212025   1.944   2.613   4.600  0.3362 -0.4605 -0.1757
 4021TIP3   OH212026   4.343   0.632   3.912  0.1032 -0.7345  0.0665
 4021TIP3    H112027   4.401   0.616   3.837 -0.6058  0.6609 -0.8275
 4021TIP3    H212028   4.291   0.551   3.919 -0.5777 -0.5001 -1.6860
 4022TIP3   OH212029   2.562   4.183   1.870  0.1808  0.3836  0.0445
 4022TIP3    H112030   2.521   4.098   1.854  0.3556  0.1174  0.9268
 4022TIP3    H212031   2.654   4.170   1.844  0.8910 -0.5800  2.6769
 4023TIP3   OH212032   5.659   5.843   3.791 -0.3697  0.1628  0.1451
 4023TIP3    H112033   5.702   5.928   3.790  0.8922 -0.4429  0.7398
 4023TIP3    H212034   5.614   5.838   3.707 -1.3157  1.8200  0.5112
 4024TIP3   OH212035   5.107   6.012   1.183 -0.2170 -0.0822  0.4321
 4024TIP3    H112036   5.119   6.023   1.089 -1.7759  0.1228  0.2344
 4024TIP3    H212037   5.126   5.920   1.199  0.5811 -0.0015  0.0217
 4025TIP3   OH212038   0.207   1.164   2.952 -0.8292 -0.0361  0.2693
 4025TIP3    H112039   0.214   1.097   2.884 -0.4415 -2.7917  2.7964
 4025TIP3    H212040   0.280   1.224   2.934  1.0073 -2.2690 -0.2009
 4026TIP3   OH212041   5.925   2.323   0.662  0.8286 -0.4363  0.2559
 4026TIP3    H112042   5.934   2.350   0.754 -1.1780  0.1790  0.3176
 4026TIP3    H212043   5.899   2.231   0.666 -0.6763 -0.0365  0.4087
 4027TIP3   OH212044   3.512   1.036   5.023 -0.3228  0.1872  0.0562
 4027TIP3    H112045   3.532   0.958   4.973  1.6139 -0.5739  1.8917
 4027TIP3    H212046   3.455   1.006   5.094  0.3308  0.4323  0.7010
 4028TIP3   OH212047   3.432   6.282   5.135  0.6142  0.0291 -0.0749
 4028TIP3    H112048   3.396   6.338   5.066 -0.1493  0.5252  0.7111
 4028TIP3    H212049   3.410   6.193   5.106 -1.6334  0.3322  0.5548
 4029TIP3   OH212050   4.178   6.207   5.620  0.2511  0.4754 -0.6828
 4029TIP3    H112051   4.221   6.186   5.703 -1.4276 -0.5899 -0.0193
 4029TIP3    H212052   4.229   6.162   5.553  0.3573 -0.5065  0.0390
 4030TIP3   OH212053   1.551   1.653   0.428  0.4381  0.3436 -0.4596
 4030TIP3    H112054   1.554   1.570   0.381  2.0094 -0.4756  0.9949
 4030TIP3    H212055   1.634   1.695   0.407  0.8467  0.2870  0.9619
 4031TIP3   OH212056   0.771   5.019   4.743 -0.3487  0.2569 -0.4825
 4031TIP3    H112057   0.689   5.064   4.721 -0.3534  0.0321 -0.9488
 4031TIP3    H212058   0.823   5.024   4.662 -0.1450 -0.1315 -0.3778
 4032TIP3   OH212059   3.624   5.828   4.486 -0.1803 -0.5332  0.1868
 4032TIP3    H112060   3.614   5.903   4.427  2.0611 -0.4472 -0.1392
 4032TIP3    H212061   3.649   5.756   4.429 -0.3097 -1.0328  0.7583
 4033TIP3   OH212062   0.020   1.197   3.882 -0.4598  0.1570 -0.3713
 4033TIP3    H112063  -0.045   1.176   3.815 -1.4618  1.1373  0.2589
 4033TIP3    H212064   0.038   1.290   3.868  1.9533 -0.3959 -1.4815
 4034TIP3   OH212065   2.563   0.782   3.354  0.4816 -0.2887 -0.5726
 4034TIP3    H112066   2.534   0.746   3.437  2.4975  0.2888  0.4584
 4034TIP3    H212067   2.525   0.870   3.350  1.3555  0.1553  0.3722
 4035TIP3   OH212068   4.290   4.350   0.180 -0.1120 -0.1907 -0.4884
 4035TIP3    H112069   4.226   4.280   0.191 -2.0258  1.5942  0.6469
 4035TIP3    H212070   4.374   4.311   0.201 -1.1303 -2.0687  0.2929
 4036TIP3   OH212071   0.574   1.380   2.144 -0.3874  0.2339 -0.0958
 4036TIP3    H112072   0.483   1.353   2.153 -0.1040 -0.2748  1.4710
 4036TIP3    H212073   0.618   1.344   2.221  0.7405  2.1075  0.1992
 4037TIP3   OH212074   0.290   5.660   4.900 -0.6009 -1.0255  0.3866
 4037TIP3    H112075   0.262   5.600   4.970  2.8019 -2.0523  1.0449
 4037TIP3    H212076   0.325   5.736   4.947 -0.2844 -0.7522 -0.2790
 4038TIP3   OH212077   3.139   0.738   2.379  0.6972  0.1504 -0.4499
 4038TIP3    H112078   3.111   0.721   2.289  0.4749  2.4008 -0.8860
 4038TIP3    H212079   3.073   0.696   2.434 -0.9654  1.3412 -1.4202
 4039TIP3   OH212080   1.099   1.441   4.079  0.4014 -1.2672 -0.5962
 4039TIP3    H112081   1.097   1.413   3.987 -0.5816 -1.7969 -0.4233
 4039TIP3    H212082   1.191   1.438   4.103  0.5655 -2.0751 -1.2847
 4040TIP3   OH212083   1.942   3.382   0.512  0.0715 -0.8397 -0.3618
 4040TIP3    H112084   1.938   3.396   0.417 -1.4827  0.0740 -0.1773
 4040TIP3    H212085   1.973   3.292   0.521  1.3352 -0.5808 -1.7045
 4041TIP3   OH212086   1.089   4.860   0.278 -0.8991  0.4338  0.2774
 4041TIP3    H112087   1.053   4.784   0.231 -0.0361  0.2514 -0.1144
 4041TIP3    H212088   1.181   4.836   0.294 -0.6055  1.4189  0.0973
 4042TIP3   OH212089   5.059   2.340   3.866  0.2715  0.1718 -0.7858
 4042TIP3    H112090   5.077   2.434   3.862 -1.1147  0.5154  0.4002
 4042TIP3    H212091   4.970   2.334   3.899  0.1433 -1.5663 -1.3709
 4043TIP3   OH212092   3.751   2.318   3.582  0.5071  0.3952  0.1439
 4043TIP3    H112093   3.708   2.403   3.575  1.1244  0.6927 -0.0569
 4043TIP3    H212094   3.791   2.304   3.496 -0.6919 -0.7028 -0.2711
 4044TIP3   OH212095   5.257   0.277   1.186  0.3644  0.2762  0.5403
 4044TIP3    H112096   5.163   0.290   1.194  0.4117  0.7589  0.3549
 4044TIP3    H212097   5.266   0.204   1.125  0.1182  0.9228 -0.2998
 4045TIP3   OH212098   6.744   4.683   3.711 -0.6570 -0.0576 -0.0516
 4045TIP3    H112099   6.822   4.739   3.715 -0.1132 -0.5900 -2.1707
 4045TIP3    H212100   6.777   4.595   3.695 -1.6072 -0.7775  1.5658
 4046TIP3   OH212101   0.294   1.645   5.249 -0.1705 -0.1638  0.4890
 4046TIP3    H112102   0.233   1.644   5.323  0.4102 -1.7799  0.9868
 4046TIP3    H212103   0.357   1.575   5.268  1.4305  0.9659 -0.3639
 4047TIP3   OH212104   3.200   5.729   2.842  0.7009 -0.7854  0.4813
 4047TIP3    H112105   3.132   5.693   2.900  0.1505  1.1656  1.1278
 4047TIP3    H212106   3.241   5.798   2.894  0.2244  0.9962 -1.4026
 4048TIP3   OH212107   1.466   4.819   3.941  0.2872 -0.1717  0.1278
 4048TIP3    H112108   1.392   4.843   3.997 -0.0887  0.4793 -0.6240
 4048TIP3    H212109   1.465   4.723   3.939 -2.1399 -0.2178 -1.8975
 4049TIP3   OH212110   6.352   3.140   2.382 -0.3598  0.2941 -0.1237
 4049TIP3    H112111   6.390   3.108   2.300 -2.6531  0.0364 -1.1456
 4049TIP3    H212112   6.287   3.074   2.406  0.2364  0.3936  1.9138
 4050TIP3   OH212113   4.895   4.232   0.829  0.4495  0.3558 -0.4450
 4050TIP3    H112114   4.925   4.184   0.906  0.9160  0.8885 -0.2846
 4050TIP3    H212115   4.941   4.191   0.755 -1.1554 -1.1687 -0.6617
 4051TIP3   OH212116   6.438   4.682   3.630 -0.1776  0.1943 -0.0241
 4051TIP3    H112117   6.345   4.664   3.621  0.0268 -0.4141 -1.0617
 4051TIP3    H212118   6.473   4.677   3.541  0.6367  1.6776  0.1756
 4052TIP3   OH212119   4.783   3.559   5.229 -0.1471 -0.2305  1.0211
 4052TIP3    H112120   4.706   3.502   5.231 -0.0252 -0.5407 -0.9911
 4052TIP3    H212121   4.840   3.520   5.163  1.6594  0.1263  2.3278
 4053TIP3   OH212122   0.670   3.537   0.884  0.0432  0.3857 -0.0677
 4053TIP3    H112123   0.603   3.560   0.818  1.5250 -0.0991 -1.8240
 4053TIP3    H212124   0.679   3.442   0.875  0.6396  0.3910  0.4795
 4054TIP3   OH212125   7.002   4.083   3.214  0.2867 -0.1124 -0.1547
 4054TIP3    H112126   7.058   4.009   3.188 -0.2101 -0.8721  0.8361
 4054TIP3    H212127   6.916   4.044   3.226 -0.9673  1.3645 -3.4123
 4055TIP3   OH212128   5.014   2.415   2.009 -0.5214  0.1329 -0.3310
 4055TIP3    H112129   4.979   2.421   1.920 -0.1203 -0.4237 -0.5323
 4055TIP3    H212130   4.941   2.442   2.065 -1.9670 -2.7697 -0.6199
 4056TIP3   OH212131   4.423   6.531   3.555 -0.8364 -0.3230  0.2232
 4056TIP3    H112132   4.494   6.568   3.608 -1.2483  1.2536 -0.2674
 4056TIP3    H212133   4.410   6.443   3.591  0.9652 -0.4482  0.6973
 4057TIP3   OH212134   0.176   3.531   1.635 -0.0942 -0.4627 -0.3638
 4057TIP3    H112135   0.172   3.470   1.561  0.1803 -1.7278  0.6293
 4057TIP3    H212136   0.231   3.487   1.699 -0.1832  0.6922  0.5343
 4058TIP3   OH212137   1.534   3.851   5.616 -0.5956 -0.0242 -0.3436
 4058TIP3    H112138   1.570   3.776   5.663 -0.6686  0.6850  0.9040
 4058TIP3    H212139   1.611   3.899   5.584 -0.5553 -0.7631 -1.3932
 4059TIP3   OH212140   7.043   3.818   3.467  0.7755  0.0835 -0.0128
 4059TIP3    H112141   6.964   3.769   3.445 -0.6667  2.2880 -0.0358
 4059TIP3    H212142   7.115   3.764   3.435 -0.6844 -2.0828  0.1865
 4060TIP3   OH212143   6.501   1.175   4.290 -0.1639 -0.3079  0.0163
 4060TIP3    H112144   6.565   1.133   4.348 -1.5331 -1.2607  0.9101
 4060TIP3    H212145   6.486   1.261   4.330  0.3995 -0.1598 -0.0855
 4061TIP3   OH212146   1.839   4.531   1.375 -0.2989 -0.0919  0.7196
 4061TIP3    H112147   1.834   4.549   1.282 -0.2963  0.3243  0.7986
 4061TIP3    H212148   1.890   4.450   1.382 -0.7943 -0.4472  0.3292
 4062TIP3   OH212149   6.930   1.577   4.859  0.1065 -0.2355 -0.2336
 4062TIP3    H112150   6.909   1.584   4.952  0.9608 -0.2676 -0.0258
 4062TIP3    H212151   6.855   1.615   4.814  0.8158  2.3035  0.5524
 4063TIP3   OH212152   6.703   5.995   3.882 -0.0605 -0.3409 -0.2480
 4063TIP3    H112153   6.788   6.039   3.872 -0.6061  1.2598  1.5785
 4063TIP3    H212154   6.715   5.937   3.957 -0.5774 -0.1302 -0.0023
 4064TIP3   OH212155   0.551   3.794   4.611  0.1175  0.0958 -0.0309
 4064TIP3    H112156   0.514   3.814   4.697 -1.4569 -0.7676 -0.4581
 4064TIP3    H212157   0.618   3.727   4.629 -1.4098 -1.4019  0.3944
 4065TIP3   OH212158   3.617   1.567   0.118 -0.1344 -0.1460 -0.5610
 4065TIP3    H112159   3.656   1.649   0.149  0.7224 -0.7648  0.0613
 4065TIP3    H212160   3.596   1.584   0.026 -2.3723  1.6193  0.1852
 4066TIP3   OH212161   6.040   2.962   1.728 -0.5385  0.0954 -0.4390
 4066TIP3    H112162   6.043   3.058   1.726  0.4590  0.1027  0.3454
 4066TIP3    H212163   5.947   2.941   1.724 -0.7239  1.0596 -1.6038
 4067TIP3   OH212164   3.269   0.562   1.034  0.3156 -0.1854  1.1283
 4067TIP3    H112165   3.345   0.585   1.087  0.3383  1.8193  0.3186
 4067TIP3    H212166   3.303   0.505   0.965  1.2820  1.3026  0.3214
 4068TIP3   OH212167   2.918   5.195   3.449 -0.2634 -0.1005  0.2036
 4068TIP3    H112168   2.942   5.252   3.521 -0.9846 -1.7399  1.8275
 4068TIP3    H212169   2.830   5.223   3.424 -1.1345 -1.2044  1.8356
 4069TIP3   OH212170   1.074   4.109   0.317 -0.9561 -0.8459  0.1551
 4069TIP3    H112171   1.061   4.198   0.350 -1.4058 -0.9074  0.1484
 4069TIP3    H212172   1.131   4.067   0.382 -1.8946 -0.9906  0.8941
 4070TIP3   OH212173   0.385   3.106   1.208 -0.1082 -0.9055  0.0949
 4070TIP3    H112174   0.430   3.175   1.159  0.9790 -0.3676  1.7875
 4070TIP3    H212175   0.394   3.028   1.153 -1.2863  0.2155 -1.8184
 4071TIP3   OH212176   2.393   5.269   2.479  0.0550 -0.1491  0.1200
 4071TIP3    H112177   2.336   5.247   2.406  0.4788 -1.5766  0.1811
 4071TIP3    H212178   2.466   5.316   2.439 -0.3068  0.1414 -0.2048
 4072TIP3   OH212179   1.371   2.363   3.562 -0.4337 -0.5663  0.0032
 4072TIP3    H112180   1.448   2.308   3.553 -0.2747 -0.4839  0.8525
 4072TIP3    H212181   1.404   2.453   3.554 -0.1756 -0.4480  1.9406
 4073TIP3   OH212182   4.111   5.970   2.884  0.0524 -0.4359 -0.4738
 4073TIP3    H112183   4.119   6.065   2.893  2.4310 -0.2614 -3.0059
 4073TIP3    H212184   4.193   5.936   2.920 -1.2054 -1.7156  1.3810
 4074TIP3   OH212185   3.863   0.633   5.223  0.2038  0.0392  0.1766
 4074TIP3    H112186   3.819   0.692   5.283  1.7750 -0.4752  1.9435
 4074TIP3    H212187   3.920   0.580   5.279  0.9077 -1.2459 -1.6538
 4075TIP3   OH212188   2.807   3.712   1.870  0.9991 -0.2589  0.4422
 4075TIP3    H112189   2.834   3.758   1.949 -0.1267  1.5372 -0.1426
 4075TIP3    H212190   2.857   3.755   1.800 -1.1013  1.1395 -0.2888
 4076TIP3   OH212191   3.970   5.021   1.687 -0.0054  0.2163  0.6414
 4076TIP3    H112192   4.055   5.059   1.708  1.0854 -0.7048 -1.7593
 4076TIP3    H212193   3.952   5.050   1.598 -1.1766 -1.3430  0.3262
 4077TIP3   OH212194   5.515   3.540   4.838  0.7241  0.5705  0.5013
 4077TIP3    H112195   5.523   3.447   4.860  0.1159  0.7520  1.5583
 4077TIP3    H212196   5.543   3.545   4.746 -1.6093 -1.0857 -0.4313
 4078TIP3   OH212197   5.378   5.019   5.794  0.1024  0.3428 -0.0965
 4078TIP3    H112198   5.284   5.038   5.791 -0.0724 -0.5158 -0.4731
 4078TIP3    H212199   5.410   5.068   5.869 -0.3777  1.7887 -0.8039
 4079TIP3   OH212200   1.776   4.353   5.297 -0.9792  0.4565  0.0981
 4079TIP3    H112201   1.795   4.438   5.258 -1.6309  0.6738  0.2251
 4079TIP3    H212202   1.695   4.325   5.254 -0.0769 -0.7177 -0.8896
 4080TIP3   OH212203   3.296   5.855   3.464 -0.8534  0.0379  0.0242
 4080TIP3    H112204   3.250   5.903   3.532  2.9521  0.8405  2.3511
 4080TIP3    H212205   3.332   5.922   3.406  2.4900  0.1579  1.9431
 4081TIP3   OH212206   0.917   4.831   3.882 -0.0395  0.4948 -0.5652
 4081TIP3    H112207   0.877   4.773   3.947  0.6692 -0.4496 -0.9381
 4081TIP3    H212208   0.867   4.816   3.802 -0.2267  0.8479 -0.5166
 4082TIP3   OH212209   2.905   1.725   5.370  0.0561  0.4499  0.5546
 4082TIP3    H112210   2.817   1.690   5.386 -0.2588  1.2618  0.6318
 4082TIP3    H212211   2.948   1.719   5.456 -0.0108  0.2918  0.5781
 4083TIP3   OH212212   6.713   6.391   3.054 -0.1003  0.6779 -0.8287
 4083TIP3    H112213   6.711   6.315   2.996  0.6614  1.4069 -1.8314
 4083TIP3    H212214   6.644   6.448   3.021 -0.1550  0.7731 -0.5527
 4084TIP3   OH212215   0.798   5.099   3.468 -0.0518  0.5962 -0.2477
 4084TIP3    H112216   0.876   5.130   3.421  0.8243 -0.2526  0.5862
 4084TIP3    H212217   0.778   5.015   3.427  0.5556 -0.0212  0.6769
 4085TIP3   OH212218   1.844   1.537   5.326  0.2219 -0.5589  0.3002
 4085TIP3    H112219   1.883   1.483   5.395  0.1862  0.1857  0.9052
 4085TIP3    H212220   1.869   1.492   5.245 -1.3787 -2.5486  0.8344
 4086TIP3   OH212221   3.225   1.511   5.334  0.8827 -0.3017 -0.1019
 4086TIP3    H112222   3.258   1.591   5.374  0.7118  1.1129 -2.5691
 4086TIP3    H212223   3.294   1.446   5.351  0.8617  0.2033  2.2372
 4087TIP3   OH212224   5.946   3.781   3.944 -0.4492 -0.5614 -0.0406
 4087TIP3    H112225   5.914   3.793   4.033 -0.2707  1.3585 -0.1953
 4087TIP3    H212226   5.948   3.869   3.907  1.5269 -1.0419 -1.2495
 4088TIP3   OH212227   3.293   2.402   3.019  0.3276  0.1171 -0.0167
 4088TIP3    H112228   3.316   2.383   2.928 -1.7667 -1.3164 -0.3251
 4088TIP3    H212229   3.375   2.394   3.067  1.0931 -1.3866 -1.4709
 4089TIP3   OH212230   0.525   6.197   2.667  0.4652 -0.2176 -0.3291
 4089TIP3    H112231   0.556   6.159   2.750 -0.2022  0.9320  0.4760
 4089TIP3    H212232   0.537   6.127   2.603  1.0980 -1.1029  0.7154
 4090TIP3   OH212233   7.161   2.584   3.064 -0.1273 -0.4836 -0.4032
 4090TIP3    H112234   7.212   2.548   2.991  0.4148 -1.5256  0.4538
 4090TIP3    H212235   7.203   2.668   3.084 -1.7681  1.0366 -2.8152
 4091TIP3   OH212236   5.521   5.320   2.766 -0.4397  0.6018  0.4257
 4091TIP3    H112237   5.429   5.299   2.781 -0.2039 -1.6764 -0.9853
 4091TIP3    H212238   5.525   5.416   2.772 -3.2793  0.9387 -1.3876
 4092TIP3   OH212239   7.151   4.329   3.358 -0.3659  0.3450 -0.7375
 4092TIP3    H112240   7.215   4.277   3.406 -1.5621  0.0916  0.6464
 4092TIP3    H212241   7.096   4.264   3.313 -1.3792  0.4137  0.3657
 4093TIP3   OH212242   2.289   5.903   0.469 -0.0984 -0.2791  0.3272
 4093TIP3    H112243   2.278   5.816   0.509 -1.7320 -0.1165  0.3163
 4093TIP3    H212244   2.290   5.886   0.375 -1.3717 -0.2255  0.2890
 4094TIP3   OH212245   0.232   3.999   2.447 -0.3158 -0.6087 -0.2006
 4094TIP3    H112246   0.297   3.962   2.506 -0.0279 -1.0611 -0.7895
 4094TIP3    H212247   0.265   3.980   2.359  0.0050  1.3284 -0.5535
 4095TIP3   OH212248   2.718   0.513   4.766 -0.3496 -0.1319 -1.1361
 4095TIP3    H112249   2.714   0.443   4.832  0.1546  1.3609  0.5404
 4095TIP3    H212250   2.811   0.528   4.751 -0.4245  0.9060 -0.6540
 4096TIP3   OH212251   4.002   2.724   5.817  0.3123 -0.3222  0.1162
 4096TIP3    H112252   3.987   2.683   5.732 -3.4827 -0.6099  0.7334
 4096TIP3    H212253   4.063   2.665   5.862  1.3043 -0.8832 -1.8494
 4097TIP3   OH212254   5.192   2.668   3.114 -0.2278 -0.3166  0.4991
 4097TIP3    H112255   5.215   2.636   3.027 -1.1333 -2.2063  0.9153
 4097TIP3    H212256   5.136   2.744   3.096  1.1970  0.5481 -0.5189
 4098TIP3   OH212257   3.660   3.320   5.607 -0.7210 -0.0527  0.0388
 4098TIP3    H112258   3.691   3.318   5.698 -0.6111  1.5238  0.0561
 4098TIP3    H212259   3.647   3.228   5.585  0.4436 -0.5397  1.2410
 4099TIP3   OH212260   0.874   6.405   1.965 -0.3789  0.1378 -0.1979
 4099TIP3    H112261   0.885   6.451   1.881 -1.4121  1.1851  0.2100
 4099TIP3    H212262   0.781   6.380   1.966 -0.7314  1.3965  1.2285
 4100TIP3   OH212263   3.735   6.746   1.466 -0.7944 -0.6750  0.6620
 4100TIP3    H112264   3.800   6.687   1.505  0.0334 -0.3519 -0.1961
 4100TIP3    H212265   3.745   6.828   1.514 -0.1004 -0.4232  0.1042
 4101TIP3   OH212266   1.328   1.676   4.647 -0.0413  0.0668  0.1510
 4101TIP3    H112267   1.408   1.624   4.654  0.5882  1.0405  0.4022
 4101TIP3    H212268   1.298   1.662   4.557 -0.7759 -1.9627  0.6529
 4102TIP3   OH212269   0.095   5.658   4.642  0.2435  0.5386 -0.1562
 4102TIP3    H112270   0.012   5.628   4.680  0.6134  0.5178  0.6732
 4102TIP3    H212271   0.153   5.666   4.717  0.4235  2.5103 -0.4542
 4103TIP3   OH212272   3.185   0.596   5.074  0.4126 -0.7208 -0.2301
 4103TIP3    H112273   3.222   0.680   5.101 -0.2245 -0.5063 -0.0251
 4103TIP3    H212274   3.253   0.532   5.097  0.7691 -0.3008 -0.0998
 4104TIP3   OH212275   5.277   2.175   1.720 -0.5459  0.4753 -0.0540
 4104TIP3    H112276   5.228   2.224   1.787  1.3936  0.3181  1.5892
 4104TIP3    H212277   5.362   2.219   1.715 -0.1049 -0.4460 -1.3411
 4105TIP3   OH212278   0.201   2.582   5.342 -0.4345  0.2992  0.1017
 4105TIP3    H112279   0.276   2.554   5.394 -0.3114 -1.8793 -1.1503
 4105TIP3    H212280   0.127   2.536   5.379 -0.7950  0.7416 -0.0508
 4106TIP3   OH212281   3.316   6.790   4.396 -0.2458  0.2481  0.0664
 4106TIP3    H112282   3.296   6.846   4.321 -0.2433  0.2443  0.0629
 4106TIP3    H212283   3.400   6.750   4.375 -0.1340  0.4254  0.1738
 4107TIP3   OH212284   6.422   6.751   4.887 -0.1198  0.2527 -0.7802
 4107TIP3    H112285   6.343   6.699   4.901  0.5885 -0.2574  1.8444
 4107TIP3    H212286   6.486   6.690   4.850 -0.1984  0.0159 -0.5271
 4108TIP3   OH212287   6.726   1.607   3.237 -0.2030 -0.9192 -0.2016
 4108TIP3    H112288   6.703   1.619   3.329  0.4053  0.1901 -0.1799
 4108TIP3    H212289   6.643   1.587   3.194 -0.8454  0.6562  0.2522
 4109TIP3   OH212290   0.763   3.285   2.533 -0.2343  0.0875  0.8181
 4109TIP3    H112291   0.812   3.251   2.607 -0.4933  1.8078  1.8307
 4109TIP3    H212292   0.671   3.274   2.558 -0.3760 -1.1014 -0.1198
 4110TIP3   OH212293   1.924   4.906   2.623  0.0787 -0.0996 -0.6016
 4110TIP3    H112294   1.868   4.849   2.571 -1.5861 -0.3976  1.4046
 4110TIP3    H212295   1.875   4.988   2.630  1.1012  0.5738 -0.9593
 4111TIP3   OH212296   2.994   4.694   2.897 -0.6430 -0.0200  0.2998
 4111TIP3    H112297   3.012   4.603   2.920 -0.3898 -0.1480 -0.3603
 4111TIP3    H212298   2.986   4.692   2.801 -0.0493  0.7471  0.2265
 4112TIP3   OH212299   5.218   3.599   1.177  0.0008  0.2695 -0.2748
 4112TIP3    H112300   5.175   3.515   1.156 -1.5009  0.3914  1.9028
 4112TIP3    H212301   5.173   3.663   1.122 -0.9416  0.0294  0.1827
 4113TIP3   OH212302   5.068   4.400   5.592 -0.4798 -0.2908 -0.1013
 4113TIP3    H112303   5.008   4.424   5.521  1.8899  0.0599 -2.1327
 4113TIP3    H212304   5.047   4.460   5.663 -1.4845  0.8757 -1.3238
 4114TIP3   OH212305   2.928   2.986   1.507 -0.3152 -0.1375  0.5237
 4114TIP3    H112306   2.884   2.903   1.490 -1.9752  0.1802  2.8496
 4114TIP3    H212307   2.870   3.052   1.470  0.4219  0.0688 -0.2847
 4115TIP3   OH212308   4.667   5.777   2.518  0.2833  0.4435  0.1199
 4115TIP3    H112309   4.697   5.828   2.442  0.2925  0.1643 -0.0672
 4115TIP3    H212310   4.579   5.810   2.535 -0.1586 -0.2496 -0.7126
 4116TIP3   OH212311   3.846   3.666   3.261 -0.2103 -0.2916 -0.5687
 4116TIP3    H112312   3.837   3.579   3.301  0.5820 -0.1688 -0.1166
 4116TIP3    H212313   3.762   3.679   3.215 -0.8200 -0.7730  0.3685
 4117TIP3   OH212314   1.729   2.773   3.531 -0.1370  0.1719  0.3685
 4117TIP3    H112315   1.692   2.860   3.541  0.3439  0.3967  0.1931
 4117TIP3    H212316   1.823   2.787   3.517 -0.1214 -0.3451 -0.1083
 4118TIP3   OH212317   6.387   6.052   2.199 -0.0066 -0.3287  0.0038
 4118TIP3    H112318   6.409   6.117   2.132  1.4249 -2.4525 -1.7233
 4118TIP3    H212319   6.320   5.997   2.158 -0.0594 -0.8945  0.8158
 4119TIP3   OH212320   6.024   2.913   2.657 -0.3704  0.6560  0.1186
 4119TIP3    H112321   6.033   2.884   2.566 -1.7339  1.5216 -0.3311
 4119TIP3    H212322   6.110   2.897   2.696  0.0991 -0.1898 -1.1806
 4120TIP3   OH212323   0.220   4.097   0.962 -0.4888  0.1219  0.1668
 4120TIP3    H112324   0.182   4.184   0.949  1.6337  1.2737  1.0256
 4120TIP3    H212325   0.199   4.049   0.882 -3.2292  0.7754  0.3824
 4121TIP3   OH212326   2.497   2.314   1.610  0.3134 -0.1263 -0.0637
 4121TIP3    H112327   2.569   2.250   1.605  0.7718  0.2695  1.0475
 4121TIP3    H212328   2.484   2.327   1.704 -0.9042  0.1683 -0.2613
 4122TIP3   OH212329   3.651   5.363   4.251  0.0465  0.0774  0.5469
 4122TIP3    H112330   3.669   5.269   4.252 -0.1291  0.0366  2.2963
 4122TIP3    H212331   3.584   5.374   4.183  1.4175 -0.7644 -1.0121
 4123TIP3   OH212332   2.714   1.707   0.277  0.1023 -0.3988 -0.2388
 4123TIP3    H112333   2.802   1.674   0.260 -0.0184 -1.1566  0.5135
 4123TIP3    H212334   2.670   1.634   0.320 -0.8905 -0.0201 -0.5836
 4124TIP3   OH212335   6.437   0.777   4.819 -0.3207 -0.0470  0.2767
 4124TIP3    H112336   6.448   0.745   4.729  0.8491  0.6504  0.1515
 4124TIP3    H212337   6.352   0.821   4.818 -0.4336 -0.2594 -0.4231
 4125TIP3   OH212338   2.116   1.854   2.269 -0.4859  0.3389  0.3601
 4125TIP3    H112339   2.055   1.852   2.195 -0.2269  0.6283  0.1394
 4125TIP3    H212340   2.071   1.804   2.337 -0.5234 -0.3279 -0.1458
 4126TIP3   OH212341   5.564   0.279   4.825  0.1085 -0.3226 -0.2410
 4126TIP3    H112342   5.621   0.306   4.753  0.6259 -1.8545 -0.4554
 4126TIP3    H212343   5.488   0.337   4.819  1.2681  1.2423 -0.4345
 4127TIP3   OH212344   5.427   1.556   1.377  0.6252 -0.2720  0.5773
 4127TIP3    H112345   5.502   1.551   1.318  0.6237  0.4365  0.4996
 4127TIP3    H212346   5.442   1.487   1.441  0.0405 -1.8493 -0.9102
 4128TIP3   OH212347   6.653   2.446   2.906  0.3859  0.2623  0.4708
 4128TIP3    H112348   6.606   2.527   2.885 -1.7288 -1.2308 -0.8490
 4128TIP3    H212349   6.656   2.445   3.002 -1.3299  0.9606  0.5720
 4129TIP3   OH212350   1.356   1.821   0.057 -0.0515  0.4343 -0.3955
 4129TIP3    H112351   1.303   1.869  -0.006 -0.4727 -0.1604 -0.4930
 4129TIP3    H212352   1.312   1.737   0.068  0.4247  0.2443  0.1302
 4130TIP3   OH212353   7.115   5.564   5.426  0.2293  0.0409  0.2554
 4130TIP3    H112354   7.043   5.604   5.475  0.4706  0.3715  0.3423
 4130TIP3    H212355   7.152   5.635   5.374 -1.1500 -0.6598 -1.8241
 4131TIP3   OH212356   0.258   3.114   0.359 -0.1341 -0.3845 -0.1080
 4131TIP3    H112357   0.344   3.073   0.365 -0.3294 -0.7290  0.3964
 4131TIP3    H212358   0.276   3.205   0.336  0.3605 -0.4701 -0.0529
 4132TIP3   OH212359   3.321   1.388   2.006 -0.6922  0.1006 -0.0645
 4132TIP3    H112360   3.230   1.406   2.027 -0.5296 -0.3473  1.1104
 4132TIP3    H212361   3.349   1.325   2.073  0.6619  0.7401  0.0145
 4133TIP3   OH212362   4.607   5.231   1.465  0.3230  0.3317  0.0623
 4133TIP3    H112363   4.691   5.261   1.498  0.3720  0.4020 -0.1282
 4133TIP3    H212364   4.628   5.184   1.384 -0.0095  2.0199 -1.0410
 4134TIP3   OH212365   6.229   0.514   4.900 -0.2786  0.6430 -0.3173
 4134TIP3    H112366   6.148   0.550   4.862  0.9454 -0.0781 -4.0771
 4134TIP3    H212367   6.297   0.575   4.872  0.8361 -0.3280  0.2179
 4135TIP3   OH212368   5.025   0.684   1.436 -0.1646  0.3835  0.1096
 4135TIP3    H112369   5.033   0.772   1.472  0.5779  0.3854 -0.0425
 4135TIP3    H212370   5.109   0.668   1.391 -0.6286 -0.0556 -0.6263
 4136TIP3   OH212371   6.965   6.247   0.597  0.0758 -0.8429 -0.4041
 4136TIP3    H112372   7.024   6.289   0.534 -1.3392 -0.0004 -1.2351
 4136TIP3    H212373   6.975   6.299   0.677  0.9218 -1.1053 -0.3339
 4137TIP3   OH212374   4.085   4.098   1.203 -0.3525  0.1903  0.4788
 4137TIP3    H112375   4.099   4.008   1.175  0.7382  0.3132  0.5648
 4137TIP3    H212376   4.049   4.090   1.292  1.7509 -0.1912  1.3674
 4138TIP3   OH212377   6.155   4.427   1.578 -0.5866  0.1701  0.6094
 4138TIP3    H112378   6.165   4.517   1.545  0.8170 -0.7159 -1.6102
 4138TIP3    H212379   6.199   4.428   1.663  1.3468  1.1196 -0.3248
 4139TIP3   OH212380   2.396   0.706   5.342  0.1091 -0.0019 -0.3827
 4139TIP3    H112381   2.435   0.788   5.373  0.2655 -0.1981 -0.0515
 4139TIP3    H212382   2.324   0.690   5.403 -1.1178  0.8478 -1.5328
 4140TIP3   OH212383   0.276   2.735   5.813  0.1085 -0.1451  0.1520
 4140TIP3    H112384   0.335   2.698   5.747 -0.0530  0.0355 -0.0977
 4140TIP3    H212385   0.308   2.700   5.896 -0.3859 -1.3100 -0.1284
 4141TIP3   OH212386   0.094   6.421   2.816 -0.4392  0.2972 -0.0393
 4141TIP3    H112387   0.077   6.459   2.730  1.6945  1.5192  0.0073
 4141TIP3    H212388   0.007   6.411   2.855 -1.6922 -2.3440 -3.0703
 4142TIP3   OH212389   0.656   0.655   4.175  0.3668  0.4237 -0.1212
 4142TIP3    H112390   0.691   0.675   4.088  1.1392  2.3586  0.5752
 4142TIP3    H212391   0.719   0.593   4.212  0.4230  0.1467 -0.6711
 4143TIP3   OH212392   4.595   6.136   1.779 -0.2888  0.1506 -0.2189
 4143TIP3    H112393   4.578   6.162   1.689 -0.5806  0.9491  0.0586
 4143TIP3    H212394   4.528   6.071   1.798 -1.3841  1.3001 -0.0119
 4144TIP3   OH212395   1.034   1.971   3.109  0.0073  0.1282 -0.1625
 4144TIP3    H112396   0.991   2.017   3.181 -1.1713  2.2490 -2.0981
 4144TIP3    H212397   1.004   1.881   3.117 -1.1651  0.6017  1.1953
 4145TIP3   OH212398   4.371   0.948   3.865 -0.3193  0.7794 -0.1923
 4145TIP3    H112399   4.462   0.920   3.869 -0.2201  0.8500 -1.6405
 4145TIP3    H212400   4.340   0.920   3.779 -1.3082  1.8036 -0.2038
 4146TIP3   OH212401   6.508   6.070   5.178  0.1236 -0.0234  0.3908
 4146TIP3    H112402   6.557   6.035   5.252  1.9762  2.2083  0.3568
 4146TIP3    H212403   6.543   6.024   5.102  1.6793  0.9781  0.4578
 4147TIP3   OH212404   3.000   2.079   5.591 -1.0861  0.3608  0.5420
 4147TIP3    H112405   3.083   2.121   5.571 -0.7308 -1.4106 -2.1859
 4147TIP3    H212406   2.965   2.128   5.665  1.9510  1.7043  1.2154
 4148TIP3   OH212407   0.683   1.655   3.591 -0.1869  0.1450 -0.4612
 4148TIP3    H112408   0.617   1.588   3.612 -0.5593  0.6378 -0.0288
 4148TIP3    H212409   0.653   1.692   3.508 -0.5365  0.4623 -0.1970
 4149TIP3   OH212410   6.530   6.388   1.845 -0.1550  0.0487 -0.2485
 4149TIP3    H112411   6.522   6.475   1.885  1.4764  0.1842 -0.1312
 4149TIP3    H212412   6.620   6.385   1.812 -0.4111 -1.3347 -0.9061
 4150TIP3   OH212413   1.056   2.841   2.761  0.3397 -0.1474  0.0230
 4150TIP3    H112414   0.970   2.852   2.801  0.4380  2.0355 -0.2096
 4150TIP3    H212415   1.037   2.833   2.667  0.3731  1.4437 -0.1602
 4151TIP3   OH212416   3.093   4.962   1.080 -0.0936  0.0947  0.2976
 4151TIP3    H112417   3.103   4.935   0.989  2.1015 -1.3867  0.8922
 4151TIP3    H212418   3.095   5.058   1.077 -2.3730  0.1755 -1.3612
 4152TIP3   OH212419   1.324   1.354   5.243  0.3956 -0.0465  0.1832
 4152TIP3    H112420   1.409   1.330   5.205  1.4251  0.3901  2.0761
 4152TIP3    H212421   1.291   1.272   5.280 -0.0609 -0.2215 -0.5738
 4153TIP3   OH212422   2.241   4.730   1.973 -0.3406  0.4172 -0.5745
 4153TIP3    H112423   2.227   4.821   1.948  0.6540 -0.0199 -3.1018
 4153TIP3    H212424   2.246   4.731   2.068 -1.0776  2.8776 -0.4975
 4154TIP3   OH212425   3.613   2.168   2.604  0.2213  0.0855  0.2334
 4154TIP3    H112426   3.547   2.109   2.569  0.4024 -0.2376  0.4286
 4154TIP3    H212427   3.637   2.223   2.530  0.6930 -0.6724 -0.1933
 4155TIP3   OH212428   1.923   2.124   3.878  0.0726 -0.5084  0.6430
 4155TIP3    H112429   1.969   2.198   3.838 -0.8358 -0.2876 -0.0354
 4155TIP3    H212430   1.983   2.092   3.945  0.9021  0.2153  0.2701
 4156TIP3   OH212431   3.189   5.426   3.268 -0.2799 -0.0628 -0.0266
 4156TIP3    H112432   3.255   5.399   3.331  1.5662 -1.4225 -2.3462
 4156TIP3    H212433   3.198   5.522   3.262  1.1336 -0.1719  0.1090
 4157TIP3   OH212434   7.152   4.646   1.710 -0.1660 -0.0941 -0.5411
 4157TIP3    H112435   7.171   4.696   1.790  0.5720  0.0929 -0.8275
 4157TIP3    H212436   7.127   4.712   1.646  0.6698 -0.1044 -0.8808
 4158TIP3   OH212437   4.412   3.198   3.938 -0.2124 -0.0404 -0.2340
 4158TIP3    H112438   4.334   3.148   3.962 -0.8441  1.2835  0.6130
 4158TIP3    H212439   4.485   3.145   3.971 -0.7655 -1.0526 -0.5831
 4159TIP3   OH212440   2.776   1.936   5.524  0.3355  0.3911  0.1969
 4159TIP3    H112441   2.791   1.867   5.589  1.9416  0.3652 -0.1516
 4159TIP3    H212442   2.840   2.004   5.546  1.6141 -0.0459 -1.8839
 4160TIP3   OH212443   5.127   5.246   4.009  0.5646  0.1055  0.1648
 4160TIP3    H112444   5.162   5.164   3.975  0.6938  0.0070  0.5300
 4160TIP3    H212445   5.147   5.310   3.941  1.1689 -0.0114  0.2245
 4161TIP3   OH212446   0.020   2.133   4.059 -0.7266 -0.3053 -0.0233
 4161TIP3    H112447   0.042   2.207   4.114 -0.7492  0.2282 -0.7174
 4161TIP3    H212448  -0.004   2.063   4.120  0.8283 -0.2493  0.6808
 4162TIP3   OH212449   3.265   6.722   3.439 -0.5448  0.3088 -0.5497
 4162TIP3    H112450   3.276   6.628   3.453  1.0784  0.4573 -0.6747
 4162TIP3    H212451   3.196   6.748   3.500  1.0259 -0.4401  1.6871
 4163TIP3   OH212452   6.310   5.076   5.176 -0.9237 -0.0125  0.3534
 4163TIP3    H112453   6.303   5.160   5.222  0.2771  0.1384  0.3110
 4163TIP3    H212454   6.313   5.100   5.083 -2.6420 -0.2678  0.2069
 4164TIP3   OH212455   3.894   4.811   3.622 -0.4510  0.3147 -0.1333
 4164TIP3    H112456   3.968   4.830   3.679 -0.3860  0.1063 -0.1491
 4164TIP3    H212457   3.817   4.841   3.671 -0.2194  2.4016 -0.9171
 4165TIP3   OH212458   2.937   5.356   3.659 -0.3180  0.6619  0.2948
 4165TIP3    H112459   2.941   5.298   3.735 -0.9217  1.7018  1.1471
 4165TIP3    H212460   3.006   5.420   3.673  0.2977  0.2152 -0.6058
 4166TIP3   OH212461   5.837   5.436   4.661  0.6847 -0.2345  0.3055
 4166TIP3    H112462   5.915   5.402   4.704 -0.5451 -1.3823  1.7190
 4166TIP3    H212463   5.811   5.511   4.714  1.2168  0.6215 -0.6046
 4167TIP3   OH212464   5.443   3.084   5.056  0.3500 -0.0813  0.1128
 4167TIP3    H112465   5.492   3.163   5.035  0.4682  0.1185  1.0710
 4167TIP3    H212466   5.480   3.055   5.140  0.3596 -1.1941 -0.2539
 4168TIP3   OH212467   0.902   0.205   4.326 -0.0037  0.2203  0.3280
 4168TIP3    H112468   0.953   0.142   4.377  1.0101  0.5783 -0.2014
 4168TIP3    H212469   0.966   0.244   4.266 -0.8347  0.9728 -0.0934
 4169TIP3   OH212470   0.218   5.389   0.670  0.2614 -0.1354  0.2263
 4169TIP3    H112471   0.301   5.420   0.705 -0.6425  1.3236  1.1901
 4169TIP3    H212472   0.178   5.342   0.743 -0.1669 -0.0135  0.0746
 4170TIP3   OH212473   6.353   1.264   4.067  0.3386  0.4784  0.1724
 4170TIP3    H112474   6.422   1.286   4.004 -0.4245  0.3423 -0.7316
 4170TIP3    H212475   6.399   1.215   4.136  0.7842 -1.8761 -1.6504
 4171TIP3   OH212476   3.490   3.171   1.741 -0.0204 -0.3949 -0.3316
 4171TIP3    H112477   3.443   3.240   1.786 -0.1100 -1.1276  0.7351
 4171TIP3    H212478   3.582   3.185   1.765  0.1477  0.2158 -1.2999
 4172TIP3   OH212479   1.161   5.497   0.485 -0.0923 -0.0737  0.5160
 4172TIP3    H112480   1.109   5.554   0.428 -0.1754  0.3791  1.0358
 4172TIP3    H212481   1.241   5.481   0.435 -0.4240 -0.1911  0.0129
 4173TIP3   OH212482   3.830   4.667   0.452  0.1847 -0.1821  0.0364
 4173TIP3    H112483   3.827   4.682   0.547 -0.6979  1.1328 -0.1707
 4173TIP3    H212484   3.762   4.602   0.436  0.8470 -0.9779  0.3842
 4174TIP3   OH212485   4.677   5.976   0.646 -0.0046 -0.1364 -0.0551
 4174TIP3    H112486   4.651   6.058   0.688  2.1084  0.8678 -0.5502
 4174TIP3    H212487   4.711   5.922   0.718  0.0232  0.0474  0.0715
 4175TIP3   OH212488   3.955   3.618   2.556  0.2136 -0.6792 -0.8618
 4175TIP3    H112489   3.926   3.593   2.643  1.9640  1.2873  0.3836
 4175TIP3    H212490   3.888   3.680   2.525  1.0065  0.8049  0.3173
 4176TIP3   OH212491  -0.011   1.750   2.301 -0.1947 -0.1380  0.2192
 4176TIP3    H112492   0.034   1.677   2.342  0.5586 -0.2160 -0.7289
 4176TIP3    H212493   0.027   1.757   2.214 -2.1683 -0.3537 -0.7240
 4177TIP3   OH212494   6.829   1.527   1.871 -0.0383 -0.7043  0.1948
 4177TIP3    H112495   6.842   1.586   1.797 -0.0814 -0.3102  0.5008
 4177TIP3    H212496   6.896   1.459   1.858 -1.3806 -1.8119 -1.3565
 4178TIP3   OH212497   4.899   0.299   2.837  0.1763 -0.3460  0.1484
 4178TIP3    H112498   4.851   0.358   2.893 -0.7186  0.1001 -1.0466
 4178TIP3    H212499   4.920   0.351   2.759  1.2770 -0.9741  0.0004
 4179TIP3   OH212500   5.295   3.068   2.351 -0.0917  0.7115 -0.0896
 4179TIP3    H112501   5.314   3.095   2.261 -0.7668  0.0976 -0.4297
 4179TIP3    H212502   5.311   3.147   2.404 -0.6229  1.3647 -0.8687
 4180TIP3   OH212503   6.124   6.240   5.431  0.3403 -0.3190  0.3220
 4180TIP3    H112504   6.185   6.220   5.360  1.1103 -0.8552  1.1073
 4180TIP3    H212505   6.175   6.229   5.511 -0.2904  1.0410  0.9553
 4181TIP3   OH212506   6.165   2.316   0.518  0.4378 -0.2308  0.4795
 4181TIP3    H112507   6.142   2.241   0.463 -1.1863 -0.3656  1.3050
 4181TIP3    H212508   6.089   2.330   0.573 -0.4936  3.6903 -1.4181
 4182TIP3   OH212509   1.846   0.835   1.428 -0.2052 -0.0502 -0.6954
 4182TIP3    H112510   1.798   0.854   1.347 -0.6266 -0.9866 -0.6776
 4182TIP3    H212511   1.873   0.744   1.419 -0.2060 -0.1488  0.1912
 4183TIP3   OH212512   2.198   2.974   3.621  0.0886 -0.3015 -0.8201
 4183TIP3    H112513   2.164   2.941   3.538  1.1839  0.1284 -1.4630
 4183TIP3    H212514   2.293   2.968   3.613  0.2524  0.8342 -0.0673
 4184TIP3   OH212515   6.647   5.904   5.016 -0.4634 -0.0252 -0.0658
 4184TIP3    H112516   6.685   5.963   4.951 -1.4189 -0.2678 -0.8657
 4184TIP3    H212517   6.717   5.890   5.080  0.7614 -0.3944 -1.4447
 4185TIP3   OH212518   2.827   0.886   2.720 -0.1554  0.0313 -0.1314
 4185TIP3    H112519   2.864   0.953   2.778 -0.5257  0.4907 -0.4093
 4185TIP3    H212520   2.798   0.936   2.643 -2.8786 -0.0458  0.7661
 4186TIP3   OH212521   3.327   2.953   2.958  0.0012 -0.1618 -0.4210
 4186TIP3    H112522   3.419   2.979   2.947 -0.0759  0.6502  0.6442
 4186TIP3    H212523   3.331   2.863   2.990  0.3715 -0.5252 -1.4360
 4187TIP3   OH212524   6.021   5.376   0.889 -0.1372 -0.5428  0.1980
 4187TIP3    H112525   6.065   5.373   0.974 -0.1817 -0.8213  0.2120
 4187TIP3    H212526   5.937   5.334   0.905 -0.4205 -0.0021  0.1752
 4188TIP3   OH212527   4.084   4.983   4.780  0.0155  0.0787  0.0436
 4188TIP3    H112528   4.161   4.954   4.733 -0.2750  0.8953 -0.9720
 4188TIP3    H212529   4.016   4.920   4.757 -0.2527  0.7472 -1.0453
 4189TIP3   OH212530   0.357   6.262   3.146  0.5121  0.1830 -0.1240
 4189TIP3    H112531   0.391   6.332   3.202  0.9391 -0.0675 -0.0616
 4189TIP3    H212532   0.412   6.187   3.167  1.6902  0.4664 -1.9547
 4190TIP3   OH212533   0.584   0.117   4.240  0.5084  0.1081 -0.0086
 4190TIP3    H112534   0.502   0.087   4.278  0.1371  1.1428  0.0304
 4190TIP3    H212535   0.570   0.115   4.146  0.4723  0.2117 -0.0046
 4191TIP3   OH212536   3.914   3.013   4.264 -0.2888 -0.2602  0.5196
 4191TIP3    H112537   3.938   2.987   4.175  1.2180  0.6690  0.6109
 4191TIP3    H212538   3.943   3.104   4.270 -2.9487  0.6405  1.0707
 4192TIP3   OH212539   7.173   4.570   3.455  0.5248  0.2100 -0.1077
 4192TIP3    H112540   7.175   4.494   3.396  0.6948  0.8510 -0.9490
 4192TIP3    H212541   7.158   4.645   3.397 -0.4639  0.7369  0.7920
 4193TIP3   OH212542   2.742   3.503   1.088 -0.0905 -0.2057 -0.0428
 4193TIP3    H112543   2.710   3.567   1.025  0.1490 -0.6275 -0.6027
 4193TIP3    H212544   2.793   3.554   1.151  0.2971  0.1259 -0.6193
 4194TIP3   OH212545   3.855   1.615   0.333 -0.2424  0.4418 -0.1421
 4194TIP3    H112546   3.760   1.625   0.345 -0.7486  0.1018 -3.1308
 4194TIP3    H212547   3.866   1.526   0.301  1.3799 -0.1766  1.9034
 4195TIP3   OH212548   3.040   2.600   1.671 -0.1213  0.2217 -0.3209
 4195TIP3    H112549   3.023   2.664   1.740 -1.9793  0.0479 -0.5727
 4195TIP3    H212550   3.063   2.519   1.718 -0.4710  0.3499  0.0773
 4196TIP3   OH212551   0.651   6.460   2.704 -0.8908  0.6862  0.3063
 4196TIP3    H112552   0.633   6.410   2.784 -0.8455  0.3190  0.0896
 4196TIP3    H212553   0.591   6.424   2.639 -0.8154  0.8734  0.1328
 4197TIP3   OH212554   1.246   3.752   0.610 -0.6397 -0.7302  0.3389
 4197TIP3    H112555   1.229   3.663   0.639  0.0179 -0.8268  0.4450
 4197TIP3    H212556   1.171   3.775   0.555 -0.2065 -1.8036 -0.7324
 4198TIP3   OH212557   3.489   0.779   2.605 -0.4175  0.1770  0.3355
 4198TIP3    H112558   3.413   0.825   2.570 -0.0019 -0.5398 -1.6535
 4198TIP3    H212559   3.500   0.704   2.547  2.7936  1.1596 -0.4843
 4199TIP3   OH212560   4.628   5.816   2.927  0.1396 -0.1302 -0.1165
 4199TIP3    H112561   4.696   5.865   2.880 -0.2204  1.3939  0.8539
 4199TIP3    H212562   4.650   5.724   2.914  2.1098  0.3234 -0.2376
 4200TIP3   OH212563   3.939   0.288   4.483  0.2953 -0.2694 -0.1091
 4200TIP3    H112564   3.914   0.197   4.500 -0.5215 -0.1586 -0.6541
 4200TIP3    H212565   4.014   0.303   4.540  0.5019 -1.3150 -0.0796
 4201TIP3   OH212566   5.989   4.163   4.252  0.4447  0.2083 -0.0167
 4201TIP3    H112567   5.904   4.187   4.288  0.9222  2.5924 -0.3226
 4201TIP3    H212568   5.988   4.198   4.163  2.2656  1.6711  0.4791
 4202TIP3   OH212569   5.090   2.813   1.565 -0.0850  0.0610 -0.0115
 4202TIP3    H112570   5.018   2.752   1.578 -0.8205  0.8052 -0.4831
 4202TIP3    H212571   5.167   2.757   1.552 -1.0207 -0.8240 -2.1960
 4203TIP3   OH212572   3.219   2.332   0.893  0.0134 -0.2069 -1.1612
 4203TIP3    H112573   3.142   2.345   0.838 -0.7227  0.3183 -0.0358
 4203TIP3    H212574   3.200   2.381   0.973  1.0052 -1.0450 -0.3916
 4204TIP3   OH212575   5.502   5.983   0.590  0.3401  0.5594 -0.0617
 4204TIP3    H112576   5.494   5.955   0.499  2.1184 -0.4153  0.0277
 4204TIP3    H212577   5.438   5.931   0.638  1.6054 -1.3664 -0.3289
 4205TIP3   OH212578   2.100   1.118   4.756  0.2218  0.1523 -0.4954
 4205TIP3    H112579   2.192   1.107   4.778  0.9524  0.1299 -3.2438
 4205TIP3    H212580   2.057   1.132   4.841  2.5323 -1.0219  0.9937
 4206TIP3   OH212581   5.729   0.681   4.745  0.0274 -0.3509  0.1434
 4206TIP3    H112582   5.687   0.762   4.772  0.3271 -0.2533  0.3155
 4206TIP3    H212583   5.788   0.707   4.674  0.5734 -0.3194  0.6063
 4207TIP3   OH212584   1.788   6.304   1.258  0.1954 -0.4413  0.2398
 4207TIP3    H112585   1.828   6.345   1.182  1.2577 -1.2633  0.3382
 4207TIP3    H212586   1.695   6.298   1.235  0.3399  0.2156 -0.5755
 4208TIP3   OH212587   2.809   5.115   1.486 -0.4836  0.5526  0.3413
 4208TIP3    H112588   2.833   5.050   1.421 -0.0898 -1.4634  2.3674
 4208TIP3    H212589   2.890   5.164   1.502 -0.3753  0.5054 -0.0645
 4209TIP3   OH212590   4.360   2.353   5.201  0.5999 -0.1179 -0.0422
 4209TIP3    H112591   4.312   2.288   5.150 -0.6768  2.1162 -1.8700
 4209TIP3    H212592   4.338   2.437   5.160  2.5143  1.4556  1.9155
 4210TIP3   OH212593   0.266   2.977   2.581 -0.2837  0.1341 -0.1490
 4210TIP3    H112594   0.281   2.885   2.602  0.4223  0.0793 -0.8594
 4210TIP3    H212595   0.229   2.976   2.493  0.7214  0.5734 -0.5949
 4211TIP3   OH212596   1.696   2.247   0.772 -0.2174  0.5334  0.3282
 4211TIP3    H112597   1.603   2.223   0.779  0.3890 -1.7519  1.5699
 4211TIP3    H212598   1.725   2.205   0.691 -0.0431  0.3257  0.4952
 4212TIP3   OH212599   4.624   1.770   0.343 -0.1987 -0.5119  0.3388
 4212TIP3    H112600   4.591   1.687   0.310 -0.4356 -0.2874  0.0070
 4212TIP3    H212601   4.546   1.822   0.362 -0.1356  0.8191 -2.4367
 4213TIP3   OH212602   2.792   4.123   4.916  0.3891 -0.4896  0.0994
 4213TIP3    H112603   2.880   4.118   4.953  0.5869  0.1630 -0.2652
 4213TIP3    H212604   2.773   4.217   4.912 -0.4563 -0.6342  0.4776
 4214TIP3   OH212605   0.016   3.626   3.357  0.3293 -0.0876  0.1311
 4214TIP3    H112606  -0.001   3.638   3.264  0.8569  0.9665  0.1572
 4214TIP3    H212607   0.010   3.531   3.371 -0.4137 -0.1913 -0.8339
 4215TIP3   OH212608   4.516   0.251   4.957  0.6095 -0.2969 -0.1494
 4215TIP3    H112609   4.515   0.198   4.877 -1.2962 -1.1118  0.3576
 4215TIP3    H212610   4.516   0.341   4.926 -1.6976 -0.5821 -1.1565
 4216TIP3   OH212611   1.619   4.314   5.665 -0.5601 -0.3146 -0.1198
 4216TIP3    H112612   1.532   4.274   5.666 -0.1661 -1.2655  1.5845
 4216TIP3    H212613   1.603   4.407   5.682 -1.2090 -0.7003  1.6375
 4217TIP3   OH212614   4.691   3.241   0.495  0.0369 -0.1391  0.1725
 4217TIP3    H112615   4.782   3.253   0.521  0.5503 -0.5779 -1.3189
 4217TIP3    H212616   4.677   3.146   0.497 -0.0213 -0.1583 -0.7412
 4218TIP3   OH212617   6.500   1.338   5.135  0.2736 -0.1001 -0.6517
 4218TIP3    H112618   6.521   1.247   5.114 -1.8533 -0.3390 -2.0927
 4218TIP3    H212619   6.558   1.389   5.079  2.3740 -0.4467  1.0536
 4219TIP3   OH212620   0.857   0.770   4.982 -0.0358 -0.1397  0.1617
 4219TIP3    H112621   0.894   0.747   5.067  1.0704  0.4358 -0.1463
 4219TIP3    H212622   0.845   0.687   4.937  2.1047 -0.2970 -0.2082
 4220TIP3   OH212623   1.784   0.875   5.182 -0.1375  0.3280  0.2080
 4220TIP3    H112624   1.767   0.796   5.131 -2.3183  0.8628 -0.0232
 4220TIP3    H212625   1.856   0.918   5.136 -0.0884 -0.6588 -0.6745
 4221TIP3   OH212626   6.718   2.313   5.140 -0.2152 -0.3698  0.5017
 4221TIP3    H112627   6.771   2.257   5.083 -1.3783  1.9506 -3.2451
 4221TIP3    H212628   6.778   2.383   5.167 -0.3766  0.1512 -0.4590
 4222TIP3   OH212629   1.211   4.545   5.100 -0.0556 -0.1741 -0.3260
 4222TIP3    H112630   1.227   4.479   5.168 -0.9106 -0.7527 -0.6657
 4222TIP3    H212631   1.242   4.504   5.019  0.1031  0.1373 -0.4211
 4223TIP3   OH212632   4.243   6.638   2.221 -0.2025 -0.1616  0.9142
 4223TIP3    H112633   4.195   6.721   2.227 -0.1750 -0.1944  1.7325
 4223TIP3    H212634   4.334   6.664   2.209 -0.2023 -0.0730  1.1020
 4224TIP3   OH212635   3.947   4.146   5.172  0.2542  0.0714 -0.1711
 4224TIP3    H112636   4.028   4.137   5.122 -0.0590 -2.2172 -0.3553
 4224TIP3    H212637   3.883   4.095   5.124 -0.8639  0.4145  0.9056
 4225TIP3   OH212638   5.075   0.654   0.559  0.2487 -0.2246 -0.0862
 4225TIP3    H112639   5.137   0.658   0.632  1.2214  0.5667 -0.9199
 4225TIP3    H212640   5.042   0.744   0.552  0.4728 -0.1945 -0.8634
 4226TIP3   OH212641   6.234   0.570   0.904  0.2890  0.0752 -0.2545
 4226TIP3    H112642   6.219   0.663   0.916 -1.4960 -0.4204  2.2364
 4226TIP3    H212643   6.300   0.547   0.969 -0.3672 -0.6035  0.2021
 4227TIP3   OH212644   6.515   3.268   0.151 -0.5511 -0.3271 -0.1182
 4227TIP3    H112645   6.431   3.301   0.182 -1.0338  2.7448 -3.9321
 4227TIP3    H212646   6.579   3.300   0.214 -1.8123  1.6953  0.2005
 4228TIP3   OH212647   0.515   0.730   4.564 -0.0200  0.6081 -0.0279
 4228TIP3    H112648   0.470   0.672   4.503 -2.0469  2.3158 -0.2498
 4228TIP3    H212649   0.573   0.783   4.508  0.7635 -0.2080 -0.0014
 4229TIP3   OH212650   4.618   6.693   2.229  0.5630  0.0471  0.4503
 4229TIP3    H112651   4.615   6.702   2.325 -0.3762  2.9348  0.2609
 4229TIP3    H212652   4.606   6.782   2.197 -1.6139 -1.1270 -2.4048
 4230TIP3   OH212653   7.024   0.141   3.675  0.2410  0.1527  0.1657
 4230TIP3    H112654   7.039   0.235   3.683  2.7122 -0.1283 -0.2228
 4230TIP3    H212655   7.102   0.101   3.716 -0.5215 -1.7145 -0.0915
 4231TIP3   OH212656   2.618   1.700   0.912  0.9599 -0.1832 -0.3692
 4231TIP3    H112657   2.634   1.780   0.862  1.2450 -0.3613 -0.5611
 4231TIP3    H212658   2.704   1.661   0.924  1.5926  1.8955  3.7899
 4232TIP3   OH212659   6.547   4.442   5.649  0.1077  0.4552 -0.3708
 4232TIP3    H112660   6.478   4.467   5.710  0.3480 -1.5974  0.8441
 4232TIP3    H212661   6.505   4.379   5.590  0.3523  1.0347 -1.1847
 4233TIP3   OH212662   0.177   4.912   0.235 -0.1235  0.3057 -0.6101
 4233TIP3    H112663   0.234   4.871   0.170 -0.7176  0.3779 -1.1959
 4233TIP3    H212664   0.121   4.840   0.266 -1.6103  0.7404 -2.1151
 4234TIP3   OH212665   0.288   6.825   1.908 -0.5271 -0.4029 -0.9000
 4234TIP3    H112666   0.298   6.807   1.814  1.7743 -0.6575 -0.6666
 4234TIP3    H212667   0.298   6.740   1.950 -1.3964 -0.2657 -0.3998
 4235TIP3   OH212668   4.424   2.600   1.079  0.1210 -0.5432  0.1300
 4235TIP3    H112669   4.355   2.553   1.032  0.4650 -0.6140 -0.3104
 4235TIP3    H212670   4.396   2.599   1.170 -0.6620 -0.2115 -0.1019
 4236TIP3   OH212671   2.556   6.322   1.433 -0.9917 -0.1204  0.3934
 4236TIP3    H112672   2.481   6.381   1.433 -0.5500  0.4670  1.3858
 4236TIP3    H212673   2.517   6.234   1.436 -1.6558  0.0743 -1.3210
 4237TIP3   OH212674   5.329   4.818   3.498  0.0336 -0.0750 -0.6184
 4237TIP3    H112675   5.321   4.844   3.589  0.2697  0.7362 -0.8184
 4237TIP3    H212676   5.316   4.899   3.448 -1.5056 -0.7513 -1.3765
 4238TIP3   OH212677   5.434   3.500   1.989 -0.4891  0.1174  0.1355
 4238TIP3    H112678   5.501   3.522   2.053 -0.3455 -0.2444  0.1117
 4238TIP3    H212679   5.397   3.417   2.021  1.0383 -1.2274 -1.3691
 4239TIP3   OH212680   0.488   5.122   0.378  0.7227  0.4421  0.0317
 4239TIP3    H112681   0.495   5.116   0.282  0.0080  0.1505 -0.0057
 4239TIP3    H212682   0.579   5.121   0.408  0.9609  0.6985 -0.6526
 4240TIP3   OH212683   2.995   4.909   2.651 -0.2132  0.1106 -0.1230
 4240TIP3    H112684   3.004   4.817   2.626  0.6353  0.1934 -0.1629
 4240TIP3    H212685   3.070   4.926   2.707 -0.8320  0.5602  0.5892
 4241TIP3   OH212686   1.681   0.994   3.738 -0.0669  0.1802  0.1623
 4241TIP3    H112687   1.612   1.023   3.798  0.6524  1.1728  0.5180
 4241TIP3    H212688   1.754   0.970   3.795 -0.2088 -1.2148 -0.1910
 4242TIP3   OH212689   6.024   1.672   4.155  0.2214 -0.0028  0.5313
 4242TIP3    H112690   5.956   1.608   4.134  0.1889  0.5354 -1.1974
 4242TIP3    H212691   5.987   1.724   4.226 -1.2732  0.3692 -0.4656
 4243TIP3   OH212692   0.936   0.753   5.254 -0.2727  0.1235  0.1785
 4243TIP3    H112693   0.981   0.818   5.309  0.5336  0.3025 -0.6634
 4243TIP3    H212694   0.854   0.735   5.301  1.2441 -1.2468  2.4732
 4244TIP3   OH212695   5.838   3.619   1.422 -0.3424 -0.0263  0.2066
 4244TIP3    H112696   5.832   3.709   1.392 -1.0471  0.0943  0.6797
 4244TIP3    H212697   5.904   3.579   1.365  0.0912  0.8193  0.0980
 4245TIP3   OH212698   4.692   5.822   0.875 -0.2767  0.1652  0.0787
 4245TIP3    H112699   4.606   5.844   0.912 -0.4967 -0.9071  0.2462
 4245TIP3    H212700   4.737   5.775   0.945  1.2619  2.4358  0.7209
 4246TIP3   OH212701   7.083   3.179   3.807 -0.0509 -0.1579 -0.0516
 4246TIP3    H112702   7.099   3.160   3.899  0.6240 -0.4021 -0.2146
 4246TIP3    H212703   7.101   3.096   3.762  0.6003  0.2244 -0.5128
 4247TIP3   OH212704   5.413   2.187   5.382 -0.1613  0.2261 -0.5452
 4247TIP3    H112705   5.448   2.098   5.374  0.7830  0.3933  1.2313
 4247TIP3    H212706   5.354   2.183   5.457  1.3792  1.4809  0.8162
 4248TIP3   OH212707   4.817   0.190   5.104 -0.0828 -0.6084  0.3665
 4248TIP3    H112708   4.770   0.147   5.032  0.3794 -0.2743 -0.1420
 4248TIP3    H212709   4.852   0.117   5.156  0.8101 -0.8721 -0.5651
 4249TIP3   OH212710   5.639   1.141   4.970  0.3855  0.1316 -0.1145
 4249TIP3    H112711   5.678   1.218   4.930  0.5289  0.3013  0.3514
 4249TIP3    H212712   5.655   1.151   5.064  0.2962 -0.3993 -0.0373
 4250TIP3   OH212713   5.081   4.699   3.912 -0.4347  0.1771 -0.3167
 4250TIP3    H112714   5.089   4.604   3.923  1.1083  0.2469 -0.5302
 4250TIP3    H212715   5.029   4.727   3.987 -0.7908 -0.8146 -0.1681
 4251TIP3   OH212716   3.980   1.556   1.617  0.3747  0.3223  0.4092
 4251TIP3    H112717   3.954   1.637   1.573 -1.9935 -0.0711  0.9475
 4251TIP3    H212718   3.939   1.487   1.565  0.5757 -0.3872  1.1843
 4252TIP3   OH212719   2.987   5.002   4.081 -0.4453  0.3689 -0.3929
 4252TIP3    H112720   2.938   4.939   4.028  0.3036 -0.8393  0.2895
 4252TIP3    H212721   2.933   5.015   4.159 -0.3355  0.1039 -0.2694
 4253TIP3   OH212722   6.046   2.754   2.438  0.1810 -0.2184  0.0558
 4253TIP3    H112723   6.027   2.661   2.455 -0.8528 -0.0350 -0.0173
 4253TIP3    H212724   6.022   2.767   2.347  0.3600  0.1180  0.0564
 4254TIP3   OH212725   3.223   4.422   2.549  0.1816  0.0540  0.9224
 4254TIP3    H112726   3.308   4.391   2.580 -0.2966 -2.2408  0.1430
 4254TIP3    H212727   3.159   4.372   2.600 -0.6436 -0.3682 -0.4512
 4255TIP3   OH212728   6.585   2.588   1.207 -0.2420 -0.2909 -0.1348
 4255TIP3    H112729   6.518   2.648   1.239 -0.2856  1.2070 -2.6905
 4255TIP3    H212730   6.537   2.520   1.160 -0.1687 -2.2546  2.4638
 4256TIP3   OH212731   1.989   3.674   0.888  0.0074 -0.2466  0.1216
 4256TIP3    H112732   1.955   3.654   0.801  1.6248  0.7185 -0.7869
 4256TIP3    H212733   1.992   3.770   0.891  1.6900 -0.2726  0.4888
 4257TIP3   OH212734   2.103   5.709   2.249  0.2096 -0.0150 -0.0573
 4257TIP3    H112735   2.053   5.669   2.178  1.4951 -0.9644 -0.4518
 4257TIP3    H212736   2.159   5.773   2.206 -2.1283  2.7138  0.5979
 4258TIP3   OH212737   1.144   6.548   4.566  0.0650 -0.2604 -0.5436
 4258TIP3    H112738   1.111   6.581   4.482  0.4977 -1.8452 -1.3713
 4258TIP3    H212739   1.233   6.584   4.572 -0.0103 -0.0430 -0.7039
 4259TIP3   OH212740   6.502   6.177   3.972 -0.1999 -0.2193 -0.1572
 4259TIP3    H112741   6.575   6.124   3.940  1.7321  1.8186  0.6086
 4259TIP3    H212742   6.491   6.150   4.063  0.7873  0.6292  0.2352
 4260TIP3   OH212743   5.546   6.093   2.065 -0.1014  0.0348 -0.6171
 4260TIP3    H112744   5.458   6.061   2.083 -0.2212  1.2100  1.1513
 4260TIP3    H212745   5.565   6.063   1.976 -2.1307 -0.5475 -0.9007
 4261TIP3   OH212746   5.119   3.498   0.895  0.4977 -0.3720  0.0566
 4261TIP3    H112747   5.099   3.585   0.928 -2.0117 -1.4024  1.5582
 4261TIP3    H212748   5.112   3.506   0.800 -0.2975  0.9353  0.2016
 4262TIP3   OH212749   3.125   0.267   1.254 -0.2304 -0.3858  0.1938
 4262TIP3    H112750   3.094   0.270   1.345 -2.0561  1.2337 -0.4401
 4262TIP3    H212751   3.218   0.291   1.260 -0.2557 -0.5515  1.6330
 4263TIP3   OH212752   4.854   5.710   4.878  0.1063 -0.3310 -0.3503
 4263TIP3    H112753   4.949   5.724   4.880  0.3812 -2.0303  1.0884
 4263TIP3    H212754   4.843   5.628   4.829 -0.7054  0.2817 -1.2188
 4264TIP3   OH212755   1.073   1.660   5.400 -0.3797 -0.1028  0.5138
 4264TIP3    H112756   1.053   1.711   5.479 -1.0421  0.5666 -0.0677
 4264TIP3    H212757   1.000   1.597   5.394 -0.0342 -0.5322  0.7349
 4265TIP3   OH212758   3.520   6.406   1.833 -0.5692  0.2343  0.5381
 4265TIP3    H112759   3.456   6.389   1.764 -0.8094  1.5998  0.4121
 4265TIP3    H212760   3.548   6.496   1.819  0.5553  0.0218  1.2795
 4266TIP3   OH212761   6.037   1.610   2.534 -0.7950  0.4170 -0.6522
 4266TIP3    H112762   6.066   1.569   2.615 -1.0334  0.4853 -0.5318
 4266TIP3    H212763   6.091   1.689   2.526 -0.1267 -0.0668 -1.0377
 4267TIP3   OH212764   3.313   1.522   4.288  0.0852 -0.2542  0.0963
 4267TIP3    H112765   3.297   1.608   4.327 -1.6802 -1.1961  1.5729
 4267TIP3    H212766   3.273   1.527   4.201 -2.5070 -0.4089  1.2084
 4268TIP3   OH212767   0.456   0.735   2.447  0.1001 -0.2098  0.0135
 4268TIP3    H112768   0.399   0.693   2.512  0.1670 -2.2206 -1.1585
 4268TIP3    H212769   0.511   0.665   2.415  2.3140  1.4011  0.0634
 4269TIP3   OH212770   1.294   6.249   1.346  0.5842 -0.1369 -0.1223
 4269TIP3    H112771   1.252   6.187   1.405 -1.0468  1.2783  0.2940
 4269TIP3    H212772   1.223   6.280   1.289  1.3552  1.2183 -0.4025
 4270TIP3   OH212773   4.382   6.080   5.483 -0.1728 -0.5246 -0.4565
 4270TIP3    H112774   4.473   6.111   5.483 -0.9811  2.1037 -0.4323
 4270TIP3    H212775   4.379   6.016   5.554  1.3907  0.2645  0.3819
 4271TIP3   OH212776   1.597   0.045   3.350  0.1123  0.8141  0.4413
 4271TIP3    H112777   1.647   0.126   3.366 -0.6940  1.3006  0.5564
 4271TIP3    H212778   1.664  -0.022   3.338  0.8358  1.7333 -0.9915
 4272TIP3   OH212779   2.308   3.333   1.139  0.2150 -0.4563 -0.4359
 4272TIP3    H112780   2.303   3.289   1.055 -1.6560  1.1827 -1.2570
 4272TIP3    H212781   2.217   3.347   1.165  0.7444  0.7025  0.9764
 4273TIP3   OH212782   5.174   3.849   3.719  0.1074  0.4081 -0.1314
 4273TIP3    H112783   5.260   3.808   3.723 -0.1234  0.0130  1.3502
 4273TIP3    H212784   5.115   3.778   3.691  0.1815  0.5780 -0.7472
 4274TIP3   OH212785   6.270   2.491   2.468  0.4598  0.2266 -0.0634
 4274TIP3    H112786   6.249   2.458   2.381 -2.6445  0.0323  0.6369
 4274TIP3    H212787   6.273   2.586   2.458 -0.0839  0.2177 -0.3609
 4275TIP3   OH212788   5.030   3.199   3.420 -0.7049  0.5234 -0.3179
 4275TIP3    H112789   4.943   3.235   3.403 -0.8022 -0.0723 -1.1678
 4275TIP3    H212790   5.028   3.112   3.380  0.7207  1.0254 -1.5861
 4276TIP3   OH212791   0.102   0.606   1.866  0.4272  0.0084  0.2316
 4276TIP3    H112792   0.172   0.545   1.889  1.7305  1.4876  0.3424
 4276TIP3    H212793   0.021   0.555   1.876  1.3895 -1.3743  1.3647
 4277TIP3   OH212794   0.985   5.170   3.241  0.7805 -0.1626 -0.0359
 4277TIP3    H112795   1.054   5.117   3.281  0.7409 -1.2143 -1.3143
 4277TIP3    H212796   0.955   5.119   3.166 -0.5456  0.8396 -0.2320
 4278TIP3   OH212797   6.843   3.369   1.252 -0.1918  0.4783 -0.0662
 4278TIP3    H112798   6.827   3.277   1.230 -0.5339  0.5022  0.0732
 4278TIP3    H212799   6.926   3.390   1.210 -1.4213  0.9046 -2.4488
 4279TIP3   OH212800   2.742   0.571   1.149 -0.6757  0.1599  0.2913
 4279TIP3    H112801   2.743   0.665   1.163 -2.8910  0.2297  0.4067
 4279TIP3    H212802   2.831   0.549   1.122  0.0062  2.1903  0.7213
 4280TIP3   OH212803   5.615   3.067   1.081  0.1224 -0.1234  0.3328
 4280TIP3    H112804   5.664   3.023   1.150 -0.2664  0.3379  0.9251
 4280TIP3    H212805   5.662   3.149   1.067 -0.2250  0.1325  0.6115
 4281TIP3   OH212806   3.732   3.645   2.849 -0.5053  0.1643 -0.6966
 4281TIP3    H112807   3.731   3.659   2.754 -0.6259  0.7185 -0.6179
 4281TIP3    H212808   3.820   3.613   2.868 -1.3191 -2.7879 -1.3795
 4282TIP3   OH212809   2.284   0.687   1.918 -0.0421 -0.1418  0.0631
 4282TIP3    H112810   2.247   0.773   1.936  0.8701  0.4019 -0.5266
 4282TIP3    H212811   2.375   0.705   1.893 -0.0968 -1.1819 -0.9953
 4283TIP3   OH212812   1.149   1.666   2.842  0.2936 -0.0085  0.0860
 4283TIP3    H112813   1.189   1.683   2.757  2.8653  1.5439  1.4757
 4283TIP3    H212814   1.187   1.583   2.871 -0.8237 -0.7015 -0.3620
 4284TIP3   OH212815   0.020   4.150   2.751  0.1193 -0.5881 -0.3398
 4284TIP3    H112816  -0.009   4.222   2.808 -0.1619 -1.4673  0.6510
 4284TIP3    H212817   0.023   4.189   2.664  2.1704  1.2745  0.4648
 4285TIP3   OH212818   6.970   4.473   3.773 -0.1172  0.0819  0.1613
 4285TIP3    H112819   6.899   4.448   3.832  0.1156 -0.3098  0.2795
 4285TIP3    H212820   6.966   4.411   3.701  0.5785 -0.4243  0.5476
 4286TIP3   OH212821   1.390   4.324   0.387 -0.0033 -0.2963 -0.4992
 4286TIP3    H112822   1.476   4.305   0.350  0.8741 -2.0375  2.1188
 4286TIP3    H212823   1.329   4.317   0.313  2.1585  2.4610 -2.7247
 4287TIP3   OH212824   6.435   6.747   0.254 -0.0276 -0.5360 -0.1641
 4287TIP3    H112825   6.369   6.816   0.256  0.2979 -0.2325  0.1046
 4287TIP3    H212826   6.392   6.672   0.294 -0.1258 -0.2633  0.2476
 4288TIP3   OH212827   4.830   0.950   0.348 -0.0082 -0.2363  0.3165
 4288TIP3    H112828   4.785   0.878   0.391 -0.5888  0.0888  0.2673
 4288TIP3    H212829   4.773   0.974   0.275  0.1524  0.2994  0.3629
 4289TIP3   OH212830   6.501   2.152   2.184  0.0175 -0.0260  0.0062
 4289TIP3    H112831   6.515   2.135   2.278  2.0044 -0.4913 -0.3201
 4289TIP3    H212832   6.426   2.097   2.161  2.2449 -3.5329  0.4205
 4290TIP3   OH212833   7.242   0.564   3.378  0.2519 -0.0108 -0.1018
 4290TIP3    H112834   7.164   0.519   3.410 -0.6970  2.7749  1.8169
 4290TIP3    H212835   7.217   0.601   3.294 -1.1829  2.2732  1.2379
 4291TIP3   OH212836   6.162   1.432   5.882  0.3557  0.0520 -0.2489
 4291TIP3    H112837   6.079   1.479   5.869  0.0691 -0.5716 -0.6875
 4291TIP3    H212838   6.139   1.359   5.940  0.0031 -1.7000 -2.4629
 4292TIP3   OH212839   0.382   2.000   3.389 -0.1760  0.3955  0.0784
 4292TIP3    H112840   0.327   1.981   3.313 -0.6530  2.4189 -0.1272
 4292TIP3    H212841   0.454   1.937   3.382 -1.6313 -1.2731 -0.4927
 4293TIP3   OH212842   5.042   4.788   4.385 -0.0783  0.1184  0.0899
 4293TIP3    H112843   5.046   4.793   4.290  1.2027 -2.6371 -0.1095
 4293TIP3    H212844   5.131   4.808   4.414  0.2484 -1.7033  0.4533
 4294TIP3   OH212845   4.559   6.734   0.452  0.2692 -0.0165  0.0740
 4294TIP3    H112846   4.499   6.746   0.525 -0.1526 -0.7747 -0.1379
 4294TIP3    H212847   4.509   6.760   0.375 -0.5544 -2.5407 -0.3574
 4295TIP3   OH212848   7.177   0.178   3.193 -0.5226  0.6236  0.5251
 4295TIP3    H112849   7.268   0.197   3.218 -0.5042  1.3918 -0.0770
 4295TIP3    H212850   7.130   0.174   3.276  0.0165  0.4671  0.8303
 4296TIP3   OH212851   7.214   1.128   1.745  0.1501  0.1056  0.4212
 4296TIP3    H112852   7.196   1.034   1.750 -1.2719  0.3496  0.2898
 4296TIP3    H212853   7.216   1.147   1.652 -0.3796  0.3449  0.4560
 4297TIP3   OH212854   3.324   0.299   5.403 -0.0035  0.3106  0.3989
 4297TIP3    H112855   3.234   0.329   5.389 -0.5673 -0.9309  1.1641
 4297TIP3    H212856   3.338   0.233   5.335  0.6075  1.0213 -0.1836
 4298TIP3   OH212857   2.277   3.626   0.933  0.9210 -0.0804 -0.2576
 4298TIP3    H112858   2.304   3.569   0.861  0.0270 -1.3454  0.3722
 4298TIP3    H212859   2.182   3.629   0.927  0.6945 -1.4330  1.7214
 4299TIP3   OH212860   1.460   1.741   2.987 -0.3135 -0.3207 -0.3974
 4299TIP3    H112861   1.486   1.821   3.032 -0.6110  0.0436 -0.8592
 4299TIP3    H212862   1.510   1.742   2.905 -0.2180 -0.6773 -0.3459
 4300TIP3   OH212863   6.118   0.464   2.319  0.0457 -0.2905 -0.0703
 4300TIP3    H112864   6.039   0.462   2.373 -0.6532  0.4264 -1.0185
 4300TIP3    H212865   6.186   0.498   2.378  0.1598 -2.6741  1.3134
 4301TIP3   OH212866   2.951   3.919   0.156 -0.7741  0.6689 -0.8028
 4301TIP3    H112867   2.921   3.863   0.227 -1.0100 -0.0469 -1.4482
 4301TIP3    H212868   3.018   3.975   0.195 -0.3470 -0.2419 -0.2009
 4302TIP3   OH212869   0.465   5.647   3.804  0.0437  0.4325 -0.4782
 4302TIP3    H112870   0.402   5.685   3.743 -0.0075  0.5997 -0.3231
 4302TIP3    H212871   0.417   5.576   3.846  0.2976 -0.1408 -1.1341
 4303TIP3   OH212872   6.386   3.765   5.361  0.0607  0.0993  0.1019
 4303TIP3    H112873   6.402   3.852   5.398 -0.9255  0.0368  0.7084
 4303TIP3    H212874   6.334   3.720   5.427  0.5033 -0.9396 -0.2347
 4304TIP3   OH212875   0.817   2.688   0.846  0.1153 -0.3978  0.0014
 4304TIP3    H112876   0.785   2.609   0.890 -0.6811 -0.2264 -0.2651
 4304TIP3    H212877   0.829   2.751   0.917  0.6637 -0.7178  0.2043
 4305TIP3   OH212878   4.974   2.767   1.165  0.4175  0.0969 -0.3828
 4305TIP3    H112879   4.885   2.735   1.151 -0.3669  1.8765  0.1924
 4305TIP3    H212880   4.991   2.824   1.089  0.6964  0.4841 -0.0358
 4306TIP3   OH212881   0.032   3.111   1.510  0.3327 -0.1511 -0.7537
 4306TIP3    H112882   0.066   3.092   1.423 -0.6054 -0.1150 -1.1405
 4306TIP3    H212883  -0.042   3.170   1.495 -1.3250 -1.9421 -0.1774
 4307TIP3   OH212884   7.090   4.538   0.446  0.2090 -0.2267  0.0651
 4307TIP3    H112885   7.085   4.490   0.364  1.3446 -0.6026  0.2052
 4307TIP3    H212886   7.156   4.606   0.431  0.0223  0.0567  0.4906
 4308TIP3   OH212887   5.069   5.294   0.655  0.2060 -0.3281 -0.1475
 4308TIP3    H112888   5.127   5.221   0.630  0.9448  0.1228  0.2113
 4308TIP3    H212889   5.000   5.293   0.588  0.1303 -1.4307 -0.0799
 4309TIP3   OH212890   1.164   3.491   2.621  0.2571  0.2224  0.6846
 4309TIP3    H112891   1.236   3.513   2.681 -0.0667 -1.0393  1.5688
 4309TIP3    H212892   1.085   3.506   2.673 -0.0820  0.3600  0.1363
 4310TIP3   OH212893   4.849   2.959   4.910  0.4210 -0.4909  0.2510
 4310TIP3    H112894   4.872   3.050   4.927 -0.2372 -0.6483  2.3067
 4310TIP3    H212895   4.812   2.959   4.822  0.6506  1.1807  0.1275
 4311TIP3   OH212896   5.626   5.431   5.564  0.0988  0.1489  1.1576
 4311TIP3    H112897   5.554   5.375   5.592 -0.7793  1.1244  0.9238
 4311TIP3    H212898   5.583   5.508   5.526  1.2657  0.4319  0.3669
 4312TIP3   OH212899   5.167   5.571   0.739 -0.1495 -0.5050  0.1555
 4312TIP3    H112900   5.149   5.577   0.833 -1.4841  0.0020 -0.1006
 4312TIP3    H212901   5.086   5.534   0.702  1.0645 -2.5535 -0.5883
 4313TIP3   OH212902   4.383   5.587   5.507 -0.2936 -0.1378 -0.3923
 4313TIP3    H112903   4.302   5.543   5.533 -0.7297 -0.0817 -1.5835
 4313TIP3    H212904   4.365   5.619   5.418 -0.3035  3.2517  0.7126
 4314TIP3   OH212905   3.705   6.794   5.763  0.4846  0.0245 -0.0371
 4314TIP3    H112906   3.757   6.760   5.690  0.6606 -1.7676  0.8650
 4314TIP3    H212907   3.667   6.716   5.804  0.5908  0.9501  1.9360
 4315TIP3   OH212908   6.879   6.085   1.249  0.1531 -0.5195  0.0505
 4315TIP3    H112909   6.818   6.157   1.236  0.6790 -0.0347  0.2085
 4315TIP3    H212910   6.855   6.048   1.334  1.7976  1.4271  1.4381
 4316TIP3   OH212911   4.122   5.592   4.023 -0.2602  0.2319 -0.2404
 4316TIP3    H112912   4.041   5.617   3.977 -0.5317  0.4583  0.3416
 4316TIP3    H212913   4.096   5.589   4.115  0.3226 -0.0151 -0.0843
 4317TIP3   OH212914   1.494   2.831   1.197  0.2428  0.4827  0.0752
 4317TIP3    H112915   1.454   2.828   1.110 -3.8640 -1.0924  1.7656
 4317TIP3    H212916   1.511   2.740   1.219 -1.6461  0.5174  1.9679
 4318TIP3   OH212917   6.640   6.506   2.224 -0.4117 -0.1461 -0.0293
 4318TIP3    H112918   6.717   6.464   2.187 -0.8184 -0.5483 -0.4332
 4318TIP3    H212919   6.567   6.473   2.172 -0.7546  0.9789 -0.2905
 4319TIP3   OH212920   5.831   6.130   1.690  0.2387  0.1047 -0.1045
 4319TIP3    H112921   5.870   6.117   1.604  0.6621 -0.4246  0.1658
 4319TIP3    H212922   5.885   6.198   1.731 -0.3885  0.8783 -0.5108
 4320TIP3   OH212923   5.505   6.272   3.390  0.4622 -0.1499  0.2878
 4320TIP3    H112924   5.421   6.258   3.434 -0.4023  1.5053 -0.7360
 4320TIP3    H212925   5.491   6.350   3.336  1.4116 -2.0547 -2.9654
 4321TIP3   OH212926   3.380   3.329   1.935  0.2777 -0.2530  0.1045
 4321TIP3    H112927   3.419   3.417   1.940 -1.8511  0.6912  1.0061
 4321TIP3    H212928   3.295   3.342   1.895  0.1773 -2.0388 -0.3531
 4322TIP3   OH212929   3.178   0.454   4.723  0.1843 -0.3155  0.3644
 4322TIP3    H112930   3.255   0.451   4.780  1.5031  0.3498 -1.2953
 4322TIP3    H212931   3.180   0.371   4.676  1.1435  0.5527 -1.1977
 4323TIP3   OH212932   1.854   1.943   0.144  0.1709 -0.1950  0.0487
 4323TIP3    H112933   1.789   1.938   0.073  0.6683 -0.3602 -0.4006
 4323TIP3    H212934   1.920   1.878   0.121  0.2575 -0.3581  0.7537
 4324TIP3   OH212935   2.074   5.846   4.572  0.0223  0.0938  0.1652
 4324TIP3    H112936   2.110   5.852   4.483  0.2211  0.3515  0.2631
 4324TIP3    H212937   2.124   5.775   4.613 -1.2147 -1.1751 -0.4650
 4325TIP3   OH212938   0.109   6.763   1.215 -0.0615 -0.4041 -0.0455
 4325TIP3    H112939   0.151   6.765   1.129 -2.1995 -0.4029 -1.1514
 4325TIP3    H212940   0.049   6.837   1.215 -1.0206 -1.1438  0.9504
 4326TIP3   OH212941   6.234   6.424   1.859  0.5025  0.6169  0.9971
 4326TIP3    H112942   6.232   6.443   1.953  1.9133  1.6063  0.8631
 4326TIP3    H212943   6.326   6.437   1.835  0.3273 -0.5230 -0.3493
 4327TIP3   OH212944   2.611   5.326   4.569 -0.0363 -0.5115 -0.5189
 4327TIP3    H112945   2.593   5.249   4.516 -1.0810 -0.4570 -0.2861
 4327TIP3    H212946   2.691   5.305   4.617  0.2706 -1.0211 -1.2442
 4328TIP3   OH212947   2.604   1.924   0.131 -0.2571  0.3424  0.0889
 4328TIP3    H112948   2.525   1.898   0.178  0.4800  0.0694  1.2168
 4328TIP3    H212949   2.667   1.854   0.147  0.4010  0.8197 -0.3235
 4329TIP3   OH212950   5.512   0.936   1.307 -0.5990 -0.2578  0.6775
 4329TIP3    H112951   5.506   1.007   1.371  0.8257  0.5667 -0.0503
 4329TIP3    H212952   5.474   0.972   1.227  0.0780 -0.3130  0.3196
 4330TIP3   OH212953   2.545   1.299   4.248 -0.2825  0.5049  0.1620
 4330TIP3    H112954   2.556   1.241   4.324  0.9272  2.2865  1.4120
 4330TIP3    H212955   2.514   1.241   4.178  0.7735 -1.6363  1.3701
 4331TIP3   OH212956   2.106   4.394   2.670  0.3435  0.1772  0.5274
 4331TIP3    H112957   2.116   4.300   2.656 -0.7492  0.0399  0.5921
 4331TIP3    H212958   2.179   4.417   2.728  1.2521 -0.4152 -0.3497
 4332TIP3   OH212959   0.503   1.065   2.948 -0.6934  0.6136 -0.2216
 4332TIP3    H112960   0.587   1.037   2.984 -0.5301  0.0072 -1.0308
 4332TIP3    H212961   0.455   0.983   2.933 -1.4655  0.9640  0.3247
 4333TIP3   OH212962   4.166   6.194   0.619 -0.1512 -0.8707 -0.1869
 4333TIP3    H112963   4.198   6.278   0.652  1.3814 -0.4988 -2.4156
 4333TIP3    H212964   4.130   6.150   0.696  0.4038  1.1732  1.3254
 4334TIP3   OH212965   3.360   5.820   5.865  0.0872 -0.3777 -0.1414
 4334TIP3    H112966   3.453   5.842   5.873  0.1757 -1.0684  0.9125
 4334TIP3    H212967   3.359   5.729   5.834 -0.2525 -0.1451 -0.8453
 4335TIP3   OH212968   6.408   5.127   4.552  0.4657 -0.4781 -0.0186
 4335TIP3    H112969   6.379   5.211   4.517  0.2207 -1.1396 -1.4958
 4335TIP3    H212970   6.456   5.086   4.479  2.1250 -0.8855  1.2233
 4336TIP3   OH212971   4.250   0.866   0.325  0.0127  0.1230 -0.4131
 4336TIP3    H112972   4.343   0.882   0.340  0.5152 -1.7221 -1.1875
 4336TIP3    H212973   4.218   0.833   0.409  0.2505  0.0095 -0.3653
 4337TIP3   OH212974   4.022   2.520   1.776  0.4121  0.1324  0.5793
 4337TIP3    H112975   4.059   2.603   1.749  2.0724 -0.7687 -0.0631
 4337TIP3    H212976   3.943   2.543   1.826  0.1511  2.0190 -0.6184
 4338TIP3   OH212977   0.898   0.195   0.372 -0.3213  0.6252  0.1645
 4338TIP3    H112978   0.862   0.201   0.460 -0.0341  1.2715  0.2435
 4338TIP3    H212979   0.892   0.285   0.338  2.8308  1.2047  0.8402
 4339TIP3   OH212980   5.172   3.697   4.590 -0.1391 -0.8894 -0.1891
 4339TIP3    H112981   5.115   3.621   4.582  0.7818 -1.6587  0.3582
 4339TIP3    H212982   5.251   3.674   4.542 -0.9178  0.8791 -2.5004
 4340TIP3   OH212983   2.149   1.055   2.215 -0.3318  0.0812  0.1618
 4340TIP3    H112984   2.201   1.039   2.294 -0.4346  0.6768  0.3575
 4340TIP3    H212985   2.059   1.040   2.243 -0.2044 -2.8114 -0.6407
 4341TIP3   OH212986   5.427   1.405   4.556  0.1378 -0.1202 -0.2474
 4341TIP3    H112987   5.375   1.462   4.498  1.0678  1.5905  0.5141
 4341TIP3    H212988   5.405   1.316   4.528 -2.7670  0.5233 -0.2952
 4342TIP3   OH212989   5.461   4.403   4.147 -0.2107 -0.0395 -0.6256
 4342TIP3    H112990   5.485   4.424   4.238  0.7699  0.6958 -1.0308
 4342TIP3    H212991   5.412   4.321   4.153  1.3111 -0.9182  0.4210
 4343TIP3   OH212992   3.983   2.182   5.347  0.0261 -0.1923 -0.3379
 4343TIP3    H112993   3.956   2.273   5.338 -0.0749  0.1855  2.6572
 4343TIP3    H212994   3.905   2.130   5.327 -0.7096  0.5345  0.5877
 4344TIP3   OH212995   0.881   6.259   0.896 -0.5373  0.3634 -0.2582
 4344TIP3    H112996   0.856   6.352   0.892  0.0022  0.5274  0.0754
 4344TIP3    H212997   0.947   6.250   0.827 -1.3158 -0.0090 -0.9669
 4345TIP3   OH212998   3.280   5.312   4.288 -0.0899 -0.5674  0.7395
 4345TIP3    H112999   3.281   5.395   4.337  1.3354 -0.1246 -0.0004
 4345TIP3    H213000   3.190   5.304   4.257 -0.0004  1.2794 -0.1189
 4346TIP3   OH213001   6.063   0.733   1.164  0.0109  0.2607 -0.0673
 4346TIP3    H113002   6.091   0.782   1.087  1.7468 -0.4420  0.0578
 4346TIP3    H213003   5.974   0.705   1.144  0.3052  0.3812 -1.6756
 4347TIP3   OH213004   4.525   2.519   4.448 -0.3143 -0.0948 -0.3161
 4347TIP3    H113005   4.545   2.584   4.516 -1.1417 -0.4252  0.2750
 4347TIP3    H213006   4.507   2.438   4.497 -0.9061 -0.3445 -0.9253
 4348TIP3   OH213007   6.309   1.289   2.246  0.5269 -0.0203  0.0669
 4348TIP3    H113008   6.308   1.339   2.164  1.3662  1.1795  0.7479
 4348TIP3    H213009   6.232   1.320   2.293  1.2038  0.8807  0.6109
 4349TIP3   OH213010   3.446   5.528   0.005  0.3479  0.0919  0.4332
 4349TIP3    H113011   3.433   5.560   0.095  2.0941 -0.0129  0.7450
 4349TIP3    H213012   3.538   5.502   0.002  0.3432  0.2065 -1.4399
 4350TIP3   OH213013   0.075   3.590   2.008  0.5475 -0.0020 -0.2501
 4350TIP3    H113014   0.145   3.654   1.997  0.9545 -0.2828  0.6053
 4350TIP3    H213015   0.120   3.506   2.018  0.0729 -0.2480 -0.1280
 4351TIP3   OH213016   6.131   2.154   4.871  0.6898  0.5626 -0.1415
 4351TIP3    H113017   6.171   2.073   4.903  0.7134  1.5299  2.5380
 4351TIP3    H213018   6.205   2.207   4.840  1.0061  0.5303  0.5192
 4352TIP3   OH213019   7.016   3.252   2.276  0.5045 -0.1175 -0.5239
 4352TIP3    H113020   7.059   3.317   2.221  0.5852  1.1828  1.0270
 4352TIP3    H213021   6.968   3.197   2.214 -1.7587  2.9902 -1.8279
 4353TIP3   OH213022   3.949   0.978   2.767  0.7886 -0.1359 -0.1320
 4353TIP3    H113023   3.945   1.050   2.829  2.2819  0.3438 -0.5666
 4353TIP3    H213024   3.905   1.011   2.688 -0.3336 -0.4452  0.3361
 4354TIP3   OH213025   3.401   0.275   1.308  0.1409  0.0686  0.3823
 4354TIP3    H113026   3.380   0.324   1.388  0.0941  0.0938  0.3541
 4354TIP3    H213027   3.486   0.309   1.281 -0.0547  0.3839  0.1630
 4355TIP3   OH213028   3.355   4.709   1.497 -0.3573  0.4558  0.2714
 4355TIP3    H113029   3.295   4.666   1.558 -1.0735 -0.5476 -1.0959
 4355TIP3    H213030   3.298   4.752   1.434  0.3763  1.0484 -0.0034
 4356TIP3   OH213031   3.995   0.172   2.487  0.0661  0.0982 -0.3263
 4356TIP3    H113032   3.986   0.204   2.397 -0.3041 -0.3141 -0.4366
 4356TIP3    H213033   3.996   0.252   2.540 -2.0432  0.2908 -0.4991
 4357TIP3   OH213034   1.715   2.993   3.326  0.2728  0.1667 -0.0386
 4357TIP3    H113035   1.646   2.928   3.314 -1.8043  1.6492  2.5854
 4357TIP3    H213036   1.782   2.949   3.379  0.4176 -0.6998 -0.9225
 4358TIP3   OH213037   1.281   2.448   4.584 -0.5035 -0.0663 -0.1532
 4358TIP3    H113038   1.358   2.465   4.639  0.3648  0.1411 -1.4015
 4358TIP3    H213039   1.287   2.512   4.513 -1.6531 -0.2734 -0.4614
 4359TIP3   OH213040   6.382  -0.005   2.289 -0.8503  0.0987 -0.0026
 4359TIP3    H113041   6.335  -0.012   2.206 -3.3086  2.6256  0.9730
 4359TIP3    H213042   6.392   0.090   2.302  1.0649 -0.2799  1.7552
 4360TIP3   OH213043   2.169   4.356   3.419  0.0271  0.1663  0.3450
 4360TIP3    H113044   2.252   4.399   3.441  0.5591  0.0016 -1.2687
 4360TIP3    H213045   2.169   4.276   3.472  1.6548 -0.6218 -0.7571
 4361TIP3   OH213046   0.505   3.933   5.809 -0.1664  0.2212 -0.0024
 4361TIP3    H113047   0.513   4.008   5.869 -0.2230  0.2645 -0.0486
 4361TIP3    H213048   0.413   3.906   5.818 -0.4286  0.8143 -0.7666
 4362TIP3   OH213049   5.146   2.646   5.785  0.4701  0.1940 -0.1898
 4362TIP3    H113050   5.150   2.606   5.699  1.0877  0.4518 -0.2855
 4362TIP3    H213051   5.214   2.602   5.836 -0.5148 -0.6280  0.4658
 4363TIP3   OH213052   4.886   2.239   3.459 -0.0304 -0.1578 -0.4277
 4363TIP3    H113053   4.971   2.212   3.427 -0.6061 -0.4163 -1.8214
 4363TIP3    H213054   4.879   2.332   3.435  0.7328  0.5086  1.6906
 4364TIP3   OH213055   0.425   1.496   1.071 -0.4358 -0.8026 -0.8850
 4364TIP3    H113056   0.499   1.546   1.035 -0.3552 -0.9710 -0.9583
 4364TIP3    H213057   0.457   1.461   1.154 -0.7138 -0.1905 -0.5177
 4365TIP3   OH213058   5.077   6.288   5.498 -0.7113  0.4525  0.8222
 4365TIP3    H113059   5.137   6.319   5.431 -0.3903  3.1099  2.1998
 4365TIP3    H213060   5.114   6.320   5.581 -2.0824 -1.0373  2.0813
 4366TIP3   OH213061   4.310   2.168   4.887 -0.5272  0.0977  0.0903
 4366TIP3    H113062   4.268   2.121   4.959  0.5540 -1.0297  0.0176
 4366TIP3    H213063   4.384   2.113   4.863 -0.0082  1.1974 -0.9078
 4367TIP3   OH213064   5.102   1.221   2.605 -0.5106  0.1034  0.3528
 4367TIP3    H113065   5.160   1.236   2.531 -0.6767 -0.7697  0.0284
 4367TIP3    H213066   5.160   1.189   2.675 -0.4068  0.5702  0.4813
 4368TIP3   OH213067   0.925   3.078   3.549 -0.3515 -0.7922  0.4442
 4368TIP3    H113068   0.982   3.101   3.622  0.7395 -2.3016  0.1099
 4368TIP3    H213069   0.886   3.162   3.523  2.2164  0.4796  0.2818
 4369TIP3   OH213070   7.104   5.212   0.909 -0.0465  0.2715 -0.3434
 4369TIP3    H113071   7.034   5.274   0.928 -0.7970 -0.8813  0.8964
 4369TIP3    H213072   7.078   5.171   0.827 -1.1004 -0.4535  0.3183
 4370TIP3   OH213073   0.092   2.521   4.061 -0.6785 -0.4341  0.9817
 4370TIP3    H113074   0.086   2.454   4.128  2.7708 -2.2283 -0.2847
 4370TIP3    H213075   0.147   2.483   3.993  2.5146  3.9501  0.6234
 4371TIP3   OH213076   5.246   6.648   5.296 -0.4417 -0.0505  0.2797
 4371TIP3    H113077   5.276   6.734   5.268 -1.7915 -0.2092 -1.9315
 4371TIP3    H213078   5.325   6.602   5.324  0.4553  1.5069  0.3912
 4372TIP3   OH213079   5.645   1.727   5.624  0.4867 -0.0054 -0.7921
 4372TIP3    H113080   5.690   1.795   5.673  1.1924 -0.6867 -0.4836
 4372TIP3    H213081   5.711   1.691   5.566  0.5545 -1.4783  0.1500
 4373TIP3   OH213082   2.935   1.410   1.146  0.2385  0.0735  0.5073
 4373TIP3    H113083   3.012   1.409   1.090  1.1591 -2.0795  1.6759
 4373TIP3    H213084   2.875   1.347   1.106 -0.0276  0.1731  0.7445
 4374TIP3   OH213085   1.199   0.955   3.666  0.4634 -0.2794 -0.0250
 4374TIP3    H113086   1.152   1.017   3.610  0.7107  0.5077  0.6172
 4374TIP3    H213087   1.182   0.869   3.627 -0.0809  0.1679 -0.7934
 4375TIP3   OH213088   7.080   2.974   0.611 -0.0459  0.0801 -0.4446
 4375TIP3    H113089   7.064   2.965   0.517 -1.4687  3.2880 -0.6394
 4375TIP3    H213090   7.173   2.995   0.617  0.1465 -0.5204 -1.0691
 4376TIP3   OH213091   5.567   4.230   3.925  0.1757 -0.4471  0.0809
 4376TIP3    H113092   5.603   4.254   4.011 -0.5544  0.9213  0.0173
 4376TIP3    H213093   5.500   4.295   3.907 -0.4255 -1.3404 -1.0699
 4377TIP3   OH213094   6.628   3.455   4.375  0.0906 -0.1983 -0.2711
 4377TIP3    H113095   6.709   3.477   4.419 -0.3619  0.6448  0.1748
 4377TIP3    H213096   6.603   3.370   4.409  0.6089 -0.3031 -0.1578
 4378TIP3   OH213097   6.674   4.184   1.249  0.3034  0.4313 -0.2901
 4378TIP3    H113098   6.720   4.268   1.250  1.9035 -0.3950  0.8170
 4378TIP3    H213099   6.618   4.186   1.327 -0.2811  0.7639 -0.7072
 4379TIP3   OH213100   3.956   5.505   4.847  0.2734 -0.1693 -0.1461
 4379TIP3    H113101   3.881   5.541   4.799  0.9437  0.2097 -0.9370
 4379TIP3    H213102   3.964   5.415   4.815  0.5798  0.0116 -0.5883
 4380TIP3   OH213103   3.940   5.129   4.963  0.2801  0.0133  0.3107
 4380TIP3    H113104   4.006   5.070   4.928 -0.1226  0.0289 -0.4882
 4380TIP3    H213105   3.859   5.105   4.919 -0.0191  0.7421  0.4382
 4381TIP3   OH213106   1.420   2.929   4.371 -0.5204 -0.0228 -0.5262
 4381TIP3    H113107   1.475   2.870   4.422 -1.3212  1.1771  1.8688
 4381TIP3    H213108   1.466   2.937   4.287  0.7906 -2.1942 -0.1090
 4382TIP3   OH213109   7.163   0.085   4.503 -0.0427  0.3707 -0.2515
 4382TIP3    H113110   7.198   0.149   4.440  1.5865 -0.2743 -0.0401
 4382TIP3    H213111   7.240   0.048   4.545 -1.0524 -0.2878  1.0902
 4383TIP3   OH213112   0.282   5.068   5.876 -0.2203  0.0891 -0.0425
 4383TIP3    H113113   0.230   5.148   5.880  0.1330  0.2918  0.7872
 4383TIP3    H213114   0.234   5.005   5.930 -0.9824 -0.5686 -1.4372
 4384TIP3   OH213115   3.464   3.540   2.463 -0.0510  0.5433  0.3263
 4384TIP3    H113116   3.485   3.449   2.484  0.1392  0.0959 -1.6716
 4384TIP3    H213117   3.517   3.591   2.525 -0.4149 -0.6648  1.7146
 4385TIP3   OH213118   3.357   1.929   1.104  0.3880 -0.3337  0.1769
 4385TIP3    H113119   3.307   1.952   1.026 -0.3991 -0.6236  0.5745
 4385TIP3    H213120   3.435   1.884   1.072  0.4168  0.1701 -0.4645
 4386TIP3   OH213121   4.495   1.459   4.975 -0.1972  0.0293 -0.4356
 4386TIP3    H113122   4.588   1.437   4.971 -0.1801  0.2373 -2.9226
 4386TIP3    H213123   4.479   1.481   5.067  1.8331 -1.4908  0.3609
 4387TIP3   OH213124   0.753   5.981   1.685  0.1723  0.0705 -0.2553
 4387TIP3    H113125   0.842   5.970   1.717 -0.1991 -1.1180  0.4393
 4387TIP3    H213126   0.716   5.893   1.685 -1.6540  0.7715  1.4158
 4388TIP3   OH213127   5.544   1.531   3.493 -0.4821  0.2648  0.1145
 4388TIP3    H113128   5.527   1.463   3.427 -0.0575 -0.6922  0.9603
 4388TIP3    H213129   5.638   1.547   3.486 -0.5796  0.7664 -0.0693
 4389TIP3   OH213130   4.776   0.587   4.431 -0.5964 -0.5017  0.6026
 4389TIP3    H113131   4.721   0.655   4.469 -2.6245 -0.5921 -1.9118
 4389TIP3    H213132   4.818   0.629   4.356 -0.6378 -1.5723 -0.0462
 4390TIP3   OH213133   6.575   3.937   2.018  0.3845  0.2600  0.1112
 4390TIP3    H113134   6.492   3.952   1.973  1.5012  1.6859 -1.6329
 4390TIP3    H213135   6.562   3.972   2.106 -0.5450  1.5135 -0.4934
 4391TIP3   OH213136   6.417   3.289   1.294  0.4774 -0.2787  0.3797
 4391TIP3    H113137   6.482   3.307   1.362  0.6092 -0.2112  0.2366
 4391TIP3    H213138   6.459   3.225   1.237 -0.3232 -1.7648  1.3901
 4392TIP3   OH213139   4.500   1.976   4.957 -0.3941  0.0250  0.1467
 4392TIP3    H113140   4.572   1.941   5.010  1.4474  1.8786 -0.9520
 4392TIP3    H213141   4.453   1.898   4.926  0.3149 -1.1892  1.9786
 4393TIP3   OH213142   6.682   4.466   5.109 -0.7420  0.6079  1.0215
 4393TIP3    H113143   6.624   4.392   5.095  0.3010 -0.2357  1.0421
 4393TIP3    H213144   6.629   4.530   5.157 -1.2262 -0.7144  2.2944
 4394TIP3   OH213145   0.580   0.700   5.747 -0.3266  0.0788  0.0905
 4394TIP3    H113146   0.504   0.721   5.693 -1.0804 -0.2540  0.9978
 4394TIP3    H213147   0.605   0.784   5.786 -0.1411  0.2099 -0.2975
 4395TIP3   OH213148   4.945   0.320   0.835  0.0320 -0.0017 -0.3579
 4395TIP3    H113149   4.903   0.236   0.851  0.8474 -0.2787  0.4047
 4395TIP3    H213150   5.038   0.299   0.828  0.4625  1.0330  1.5885
 4396TIP3   OH213151   5.688   3.246   0.665  0.4829 -0.1802 -0.4735
 4396TIP3    H113152   5.751   3.183   0.700  0.0760 -1.3442 -1.7072
 4396TIP3    H213153   5.740   3.307   0.613  0.6718 -0.9403 -1.2149
 4397TIP3   OH213154   7.112   4.210   5.783 -0.0410 -0.4139 -0.8915
 4397TIP3    H113155   7.091   4.284   5.727 -1.5827 -0.3181 -0.2123
 4397TIP3    H213156   7.190   4.171   5.742  2.0436  2.6621 -0.1911
 4398TIP3   OH213157   6.336   4.040   3.976 -0.0215 -0.1694 -0.2848
 4398TIP3    H113158   6.355   3.947   3.990  0.6849 -0.0784 -0.5888
 4398TIP3    H213159   6.241   4.045   3.973 -0.1544 -0.6206  1.5430
 4399TIP3   OH213160   7.084   3.931   2.305 -0.0646  0.0095 -0.0488
 4399TIP3    H113161   7.061   3.863   2.241 -0.6545 -0.9743  1.1593
 4399TIP3    H213162   7.136   3.885   2.371 -0.6439  0.6842  0.8931
 4400TIP3   OH213163   6.732   0.320   3.230 -0.1631  0.2236  0.1768
 4400TIP3    H113164   6.784   0.258   3.179 -2.7776 -2.7663  0.8652
 4400TIP3    H213165   6.645   0.281   3.235 -1.1183  2.3537  3.5141
 4401TIP3   OH213166   0.217   3.722   0.672  0.1265 -0.5680 -0.4644
 4401TIP3    H113167   0.223   3.790   0.605 -2.1823 -2.2646 -2.5687
 4401TIP3    H213168   0.304   3.681   0.672  0.5520  0.2737 -1.5280
 4402TIP3   OH213169   4.009   5.977   4.980  0.3134  0.3707 -0.3164
 4402TIP3    H113170   3.937   5.962   5.041  0.7250 -0.9552 -0.1127
 4402TIP3    H213171   3.995   6.066   4.947 -2.3477 -0.3516 -1.4922
 4403TIP3   OH213172   2.152   3.897   5.368 -0.2001 -0.8221  0.2281
 4403TIP3    H113173   2.223   3.834   5.357  0.7125 -0.0541  1.4864
 4403TIP3    H213174   2.188   3.964   5.426 -1.4521  0.3836 -0.3380
 4404TIP3   OH213175   0.917   1.508   3.692  0.3396 -0.7977  0.0125
 4404TIP3    H113176   0.939   1.522   3.600 -1.3999 -1.2318 -0.5047
 4404TIP3    H213177   0.838   1.560   3.706  1.4586  0.5662  1.7358
 4405TIP3   OH213178   5.963   4.564   0.466 -0.2803 -0.7388  0.3460
 4405TIP3    H113179   6.047   4.561   0.420  0.0277  0.7832  0.7363
 4405TIP3    H213180   5.981   4.530   0.553  0.5996  1.8464  1.2781
 4406TIP3   OH213181   4.435   3.480   0.129  0.3159  0.5365 -0.3715
 4406TIP3    H113182   4.428   3.575   0.117 -0.9031  0.3401 -1.3627
 4406TIP3    H213183   4.380   3.461   0.205 -0.0058  0.5324 -0.6063
 4407TIP3   OH213184   2.830   0.418   3.698 -0.1669 -0.3349  0.0994
 4407TIP3    H113185   2.846   0.398   3.790  0.1951  0.9050  0.3271
 4407TIP3    H213186   2.899   0.372   3.651  0.6564  0.3634  0.6014
 4408TIP3   OH213187   0.722   2.411   1.026  0.0565  0.2630  0.2295
 4408TIP3    H113188   0.816   2.393   1.030 -0.1252 -0.9212 -0.3799
 4408TIP3    H213189   0.682   2.326   1.013 -0.9848  0.9573 -1.3676
 4409TIP3   OH213190   0.507   4.717   3.857 -0.0792 -0.3224 -0.3971
 4409TIP3    H113191   0.468   4.804   3.870  3.3805  1.6963 -2.1887
 4409TIP3    H213192   0.577   4.713   3.921  0.5379 -1.3042 -1.1161
 4410TIP3   OH213193   4.190   5.045   3.885 -0.0007  0.1721 -0.2719
 4410TIP3    H113194   4.249   5.072   3.955 -0.2595  0.3165 -0.1112
 4410TIP3    H213195   4.128   5.117   3.876  0.3991  0.4304 -1.0680
 4411TIP3   OH213196   6.338   6.530   0.393  0.3336  0.1033  0.9386
 4411TIP3    H113197   6.244   6.533   0.379  0.4978 -1.2273 -0.6552
 4411TIP3    H213198   6.349   6.467   0.465  0.0946 -1.2697 -0.1898
 4412TIP3   OH213199   5.271   6.151   5.077 -0.2899 -0.5242  0.0262
 4412TIP3    H113200   5.196   6.174   5.023 -1.2489 -1.5164  0.8900
 4412TIP3    H213201   5.284   6.057   5.063 -0.3741 -0.7433  1.2534
 4413TIP3   OH213202   1.396   6.296   5.836  0.2591  0.3073  0.5215
 4413TIP3    H113203   1.458   6.364   5.808  0.4442 -0.1039 -0.0813
 4413TIP3    H213204   1.448   6.216   5.838  0.0213  0.1634  1.1661
 4414TIP3   OH213205   6.230   4.366   3.036 -0.0791  0.0556 -0.4158
 4414TIP3    H113206   6.281   4.363   2.955  0.0251  1.3367 -0.4208
 4414TIP3    H213207   6.268   4.297   3.091  2.0405  1.3011 -0.2224
 4415TIP3   OH213208   6.303   1.452   4.932  0.2663  0.0471  0.4574
 4415TIP3    H113209   6.282   1.452   4.838 -0.2635 -0.8423  0.5715
 4415TIP3    H213210   6.398   1.462   4.934  0.0723  2.9573 -0.0878
 4416TIP3   OH213211   5.446   0.106   0.532 -0.0684  0.8198 -0.5300
 4416TIP3    H113212   5.454   0.148   0.446 -0.7735  0.7959 -0.6180
 4416TIP3    H213213   5.414   0.175   0.590 -0.6337  0.5674 -0.5349
 4417TIP3   OH213214   2.636   4.626   0.572  0.1625 -0.2428  0.3395
 4417TIP3    H113215   2.714   4.595   0.527  0.9803  0.3415  1.3023
 4417TIP3    H213216   2.632   4.575   0.653 -0.0229  0.2491  0.6480
 4418TIP3   OH213217   6.238   4.920   4.876 -0.0991 -0.2417 -0.3772
 4418TIP3    H113218   6.213   5.011   4.895  0.6193 -0.2064  0.4917
 4418TIP3    H213219   6.332   4.924   4.860  0.3607 -1.1108  1.7868
 4419TIP3   OH213220   5.954   1.985   0.527  0.7727 -0.2299  0.6680
 4419TIP3    H113221   6.048   1.978   0.546  0.8793  2.3616  1.4633
 4419TIP3    H213222   5.914   2.007   0.612 -0.1877  1.2102 -0.1128
 4420TIP3   OH213223   3.163   1.855   1.582 -0.1627 -0.7863 -0.1117
 4420TIP3    H113224   3.222   1.929   1.599 -0.4753 -0.1266 -1.7081
 4420TIP3    H213225   3.221   1.787   1.548  0.1831 -1.4620  1.7014
 4421TIP3   OH213226   1.091   1.853   0.997 -0.5140  0.2926 -0.5518
 4421TIP3    H113227   1.034   1.911   0.946  0.2670 -0.1963 -2.0393
 4421TIP3    H213228   1.130   1.795   0.932  0.7025 -0.2180  0.5956
 4422TIP3   OH213229   2.912   3.631   4.569 -0.4447 -0.2487 -0.7921
 4422TIP3    H113230   2.899   3.712   4.618 -1.7898 -0.8065 -0.1809
 4422TIP3    H213231   2.827   3.614   4.526 -0.5368 -1.8644 -0.0548
 4423TIP3   OH213232   1.053   5.327   0.252 -0.0466 -0.0936 -0.0679
 4423TIP3    H113233   1.039   5.278   0.333 -0.9148 -0.9243 -0.7017
 4423TIP3    H213234   1.134   5.291   0.216 -0.0061 -0.1712  0.0971
 4424TIP3   OH213235   0.424   4.411   0.977  0.1084 -0.2681 -0.1402
 4424TIP3    H113236   0.489   4.386   0.912 -2.8401 -2.0196 -2.6740
 4424TIP3    H213237   0.393   4.497   0.948  1.8763  1.0897  1.6956
 4425TIP3   OH213238   2.258   0.007   1.921 -0.0408 -0.3913  0.0412
 4425TIP3    H113239   2.199  -0.010   1.848  0.4245  0.2291 -0.4922
 4425TIP3    H213240   2.261   0.103   1.928  0.1537 -0.4385  0.6812
 4426TIP3   OH213241   5.414   0.212   5.229  0.9399 -0.4523  0.2117
 4426TIP3    H113242   5.486   0.221   5.167  0.6491 -2.0398 -0.3836
 4426TIP3    H213243   5.385   0.121   5.221 -2.8356  0.6867 -1.4491
 4427TIP3   OH213244   6.549   1.969   4.043 -0.1769 -0.1105  0.6100
 4427TIP3    H113245   6.486   1.920   4.095 -0.8948 -0.5368 -0.6231
 4427TIP3    H213246   6.497   2.007   3.972  0.7327  0.6822  0.3506
 4428TIP3   OH213247   1.660   3.105   5.570 -0.0277 -0.0509  0.6130
 4428TIP3    H113248   1.695   3.069   5.651 -0.7835  0.9230  1.4082
 4428TIP3    H213249   1.576   3.143   5.595  0.0592  0.9295 -0.4693
 4429TIP3   OH213250   4.136   4.551   5.510 -0.0360 -0.5259  0.4075
 4429TIP3    H113251   4.091   4.625   5.552  1.8733 -0.3630  2.3186
 4429TIP3    H213252   4.100   4.473   5.553 -0.5846 -0.6140 -0.1836
 4430TIP3   OH213253   3.116   3.341   3.412 -0.0949  0.0027 -0.3757
 4430TIP3    H113254   3.038   3.289   3.432 -0.0817  0.2506  0.3706
 4430TIP3    H213255   3.190   3.286   3.439  0.0455 -0.6025 -1.9241
 4431TIP3   OH213256   4.214   1.215   5.860 -0.0770 -0.6422 -0.1414
 4431TIP3    H113257   4.120   1.206   5.845  0.1592 -1.7836 -1.0615
 4431TIP3    H213258   4.235   1.303   5.829 -0.8598 -0.3416  0.1752
 4432TIP3   OH213259   7.147   1.227   0.940 -0.5303  0.5130  0.1261
 4432TIP3    H113260   7.155   1.321   0.923 -2.5001  0.7940  0.5152
 4432TIP3    H213261   7.164   1.218   1.033 -0.6105  0.5097  0.1399
 4433TIP3   OH213262   4.917   3.365   0.223  0.0384  0.0101  0.0222
 4433TIP3    H113263   4.886   3.399   0.139  0.7606 -0.6245 -0.5183
 4433TIP3    H213264   4.845   3.311   0.256 -0.5595  0.9024  0.2103
 4434TIP3   OH213265   6.557   0.373   5.223 -0.1041 -0.3203  0.1409
 4434TIP3    H113266   6.464   0.394   5.214 -0.0229  0.0233  0.0996
 4434TIP3    H213267   6.602   0.450   5.188  0.1910 -0.8856 -0.7637
 4435TIP3   OH213268   2.189   2.082   3.628  0.0151  0.2569  0.1922
 4435TIP3    H113269   2.254   2.014   3.615 -0.1374  0.2406 -0.5525
 4435TIP3    H213270   2.164   2.074   3.720  0.7981  0.0349  0.3946
 4436TIP3   OH213271   1.369   1.072   0.784 -0.5052  0.0297 -0.1011
 4436TIP3    H113272   1.324   1.137   0.838  0.9726  0.2095  0.9532
 4436TIP3    H213273   1.383   1.115   0.700  0.0202  0.8981  0.4279
 4437TIP3   OH213274   1.450   1.209   5.015 -0.3093  0.3804 -0.4534
 4437TIP3    H113275   1.386   1.141   5.037 -1.1065  1.0996 -0.5200
 4437TIP3    H213276   1.481   1.184   4.927  0.1561 -0.4375 -0.0779
 4438TIP3   OH213277   5.731   5.577   3.472  0.0867  0.3234 -0.0444
 4438TIP3    H113278   5.710   5.503   3.415 -0.9719  1.3098 -0.9958
 4438TIP3    H213279   5.810   5.550   3.519  2.1702  0.0889 -3.3279
 4439TIP3   OH213280   6.397   2.329   1.144 -0.0669  0.6516  0.2122
 4439TIP3    H113281   6.445   2.291   1.217 -0.3523  0.1664  0.1533
 4439TIP3    H213282   6.464   2.348   1.078  0.1845  1.0507  0.5811
 4440TIP3   OH213283   4.943   0.681   5.794  0.4008 -0.4964 -1.0038
 4440TIP3    H113284   5.018   0.724   5.753  0.4952 -0.4115 -0.7443
 4440TIP3    H213285   4.901   0.633   5.722  0.0798  0.3186 -1.3737
 4441TIP3   OH213286   2.663   0.211   1.660 -0.3937  0.6001 -0.3819
 4441TIP3    H113287   2.600   0.273   1.625 -2.9308 -0.4137  2.0414
 4441TIP3    H213288   2.621   0.126   1.652  1.8072 -0.5086 -1.0414
 4442TIP3   OH213289   6.862   1.410   0.705  0.4849 -0.1797 -0.1346
 4442TIP3    H113290   6.824   1.375   0.625 -0.6031  2.0617 -0.6787
 4442TIP3    H213291   6.832   1.350   0.774  0.0334 -1.1987 -1.1905
 4443TIP3   OH213292   3.667   1.241   2.138 -0.1767  0.0255  0.1932
 4443TIP3    H113293   3.713   1.247   2.054 -0.1306 -1.5578  0.0745
 4443TIP3    H213294   3.616   1.322   2.143 -2.8042 -1.1990 -2.9398
 4444TIP3   OH213295   5.377   4.808   1.344  0.0151  0.1984  0.3477
 4444TIP3    H113296   5.332   4.886   1.313  0.5453  0.3690  0.0159
 4444TIP3    H213297   5.326   4.780   1.421 -1.4808 -0.3978 -0.8121
 4445TIP3   OH213298   5.794   5.315   5.731 -0.0820  0.0719 -0.1632
 4445TIP3    H113299   5.755   5.324   5.818 -0.2839  0.9727 -0.3391
 4445TIP3    H213300   5.739   5.369   5.674 -0.0923 -0.6944 -0.8981
 4446TIP3   OH213301   0.190   2.303   4.530 -0.0728 -0.6843 -0.0173
 4446TIP3    H113302   0.199   2.219   4.485 -0.7898  0.0940 -1.6915
 4446TIP3    H213303   0.273   2.314   4.576  1.2203 -0.9923 -2.1523
 4447TIP3   OH213304   1.548   0.202   1.797  0.0189  0.1616 -0.3073
 4447TIP3    H113305   1.585   0.283   1.833 -2.3979  1.3228 -0.2472
 4447TIP3    H213306   1.521   0.151   1.873  1.2215 -0.5884 -0.3569
 4448TIP3   OH213307   1.946   1.949   2.068  0.1198 -0.2267  0.5245
 4448TIP3    H113308   1.927   2.043   2.067 -1.7128 -0.5562 -0.1200
 4448TIP3    H213309   1.996   1.934   1.988  2.0729  0.4597  1.5611
 4449TIP3   OH213310   6.678   3.809   2.538  0.1153  0.1449  0.3734
 4449TIP3    H113311   6.771   3.832   2.539 -0.3672  2.2644 -0.1073
 4449TIP3    H213312   6.663   3.765   2.621  1.9674 -2.1807 -0.3975
 4450TIP3   OH213313   0.848   2.162   2.452  0.1248  0.2150  0.0798
 4450TIP3    H113314   0.775   2.110   2.419 -1.6508  2.6112 -0.0042
 4450TIP3    H213315   0.921   2.142   2.393 -1.6321  0.8190 -2.4272
 4451TIP3   OH213316   3.604   1.824   2.084  0.1742  0.3470 -0.0023
 4451TIP3    H113317   3.517   1.815   2.044  0.1260  0.3210  0.1089
 4451TIP3    H213318   3.593   1.891   2.151 -0.0288 -0.4520  0.7780
 4452TIP3   OH213319   1.547   0.671   1.091  0.3058  0.7825 -0.1150
 4452TIP3    H113320   1.549   0.674   1.186  2.3485 -0.7513 -0.0288
 4452TIP3    H213321   1.572   0.759   1.063  0.6583  0.9749  0.7815
 4453TIP3   OH213322   0.156   4.537   0.095 -0.1094  0.2324  0.3030
 4453TIP3    H113323   0.247   4.520   0.118 -0.0506  0.8237  0.5253
 4453TIP3    H213324   0.115   4.451   0.095 -0.1521  0.1825  2.8150
 4454TIP3   OH213325   2.610   5.050   5.021 -0.4891 -0.0759  0.6213
 4454TIP3    H113326   2.599   5.035   5.115 -0.9744  0.9308  0.7334
 4454TIP3    H213327   2.573   5.137   5.006  0.4570  0.1846 -0.3344
 4455TIP3   OH213328   1.071   6.239   1.159  0.4178 -0.0123 -0.0579
 4455TIP3    H113329   1.057   6.203   1.071 -0.2424 -0.8080  0.3601
 4455TIP3    H213330   1.002   6.200   1.212  0.9093  0.3366  0.8549
 4456TIP3   OH213331   3.543   0.637   3.498  0.7977  0.2727 -0.0013
 4456TIP3    H113332   3.541   0.560   3.555 -0.3106  0.7255  0.5987
 4456TIP3    H213333   3.600   0.699   3.543  2.0861 -0.3466 -0.7213
 4457TIP3   OH213334   2.384   3.645   4.822 -0.0083 -0.5634  0.0553
 4457TIP3    H113335   2.436   3.702   4.765 -1.4311 -0.4625 -1.1997
 4457TIP3    H213336   2.375   3.694   4.904  1.8108 -0.5808  0.3066
 4458TIP3   OH213337   1.201   2.209   2.471  0.3849  0.0750  0.0629
 4458TIP3    H113338   1.262   2.268   2.516 -0.3606  0.9176 -0.0028
 4458TIP3    H213339   1.114   2.243   2.494 -0.0270 -0.2821 -0.9430
 4459TIP3   OH213340   6.445   5.663   2.135 -0.3096 -0.2925  0.3362
 4459TIP3    H113341   6.496   5.587   2.163 -0.6368 -0.7024 -0.1514
 4459TIP3    H213342   6.393   5.687   2.211 -1.1812 -1.3764  0.1068
 4460TIP3   OH213343   6.950   1.846   3.457  0.1204  0.0070  0.2945
 4460TIP3    H113344   7.036   1.886   3.466  0.0877  0.1718 -0.1239
 4460TIP3    H213345   6.946   1.782   3.529  0.4326  0.2736  0.5537
 4461TIP3   OH213346   6.502   6.636   5.664  0.1474 -0.8496  0.5689
 4461TIP3    H113347   6.491   6.726   5.634  0.1310 -0.9603  0.2473
 4461TIP3    H213348   6.596   6.625   5.678  0.0488 -0.4308  1.7016
 4462TIP3   OH213349   2.219   0.170   3.856  0.1609 -0.2870  0.1798
 4462TIP3    H113350   2.146   0.215   3.812 -0.6653 -0.7053  1.0761
 4462TIP3    H213351   2.212   0.197   3.947  0.8364 -0.7210  0.3664
 4463TIP3   OH213352   1.530   4.057   3.286  0.3947  0.6088 -0.3194
 4463TIP3    H113353   1.449   4.051   3.337  0.8467  0.0148  0.3572
 4463TIP3    H213354   1.533   3.976   3.236  1.3817 -0.1633  0.9331
 4464TIP3   OH213355   4.013   5.416   0.311 -0.1150 -0.3903 -0.5370
 4464TIP3    H113356   4.013   5.449   0.400 -2.0495 -0.8942 -0.3007
 4464TIP3    H213357   4.090   5.360   0.306  0.8341  0.7993  0.3445
 4465TIP3   OH213358   0.995   2.082   4.049 -0.0740  0.1782 -0.0043
 4465TIP3    H113359   1.037   2.057   4.132 -0.6206  1.1360  0.5745
 4465TIP3    H213360   0.932   2.012   4.032  0.1420 -0.0980  0.3072
 4466TIP3   OH213361   5.375   3.951   4.518  0.3339 -0.0198 -0.3417
 4466TIP3    H113362   5.288   3.971   4.483  0.0348 -0.7505 -0.0489
 4466TIP3    H213363   5.424   4.032   4.509 -0.3861  0.4100 -0.4886
 4467TIP3   OH213364   0.682   0.947   1.976  0.2120  0.3303  0.2729
 4467TIP3    H113365   0.652   0.988   1.896  1.1013 -2.3694 -1.5654
 4467TIP3    H213366   0.602   0.922   2.023 -0.3893 -0.7383 -1.2603
 4468TIP3   OH213367   1.261   5.417   5.374 -0.4804  0.0891  0.7141
 4468TIP3    H113368   1.189   5.470   5.409  0.3961  2.2178 -0.5142
 4468TIP3    H213369   1.340   5.464   5.400  0.4476 -1.4794  0.8770
 4469TIP3   OH213370   1.599   6.295   4.204  0.5969  0.2710 -0.0780
 4469TIP3    H113371   1.532   6.228   4.192  0.5234  0.1960  0.7390
 4469TIP3    H213372   1.669   6.270   4.144  1.2308 -1.4019  1.3062
 4470TIP3   OH213373   4.426   1.971   3.902  0.4264 -0.3794 -0.8315
 4470TIP3    H113374   4.332   1.985   3.891  0.5295  1.7735  0.4398
 4470TIP3    H213375   4.433   1.886   3.945 -0.9534 -0.4653 -0.7333
 4471TIP3   OH213376   5.913   1.352   4.348 -0.6906  0.3040  0.5101
 4471TIP3    H113377   5.887   1.380   4.260 -1.2292 -2.0929 -0.1675
 4471TIP3    H213378   5.830   1.345   4.396 -0.6142 -0.4042  0.5482
 4472TIP3   OH213379   6.366   2.631   3.665 -0.0074  0.2897 -0.3655
 4472TIP3    H113380   6.353   2.722   3.640 -0.1829  0.2907 -0.2767
 4472TIP3    H213381   6.457   2.612   3.644  0.6620  1.1065  1.5713
 4473TIP3   OH213382   2.207   3.654   0.379  0.3019 -0.0062  0.4634
 4473TIP3    H113383   2.267   3.698   0.440 -0.9557  1.5286  0.6602
 4473TIP3    H213384   2.248   3.665   0.293  1.6246 -1.3823  0.8631
 4474TIP3   OH213385   2.403   1.512   2.404 -0.0320  0.0995 -0.3508
 4474TIP3    H113386   2.385   1.606   2.401  0.3519  0.2417  1.2107
 4474TIP3    H213387   2.421   1.493   2.496 -0.6684 -1.6213 -0.5367
 4475TIP3   OH213388   5.940   5.928   2.874 -0.1717 -0.2225  0.0947
 4475TIP3    H113389   6.016   5.974   2.840 -0.8425 -0.7784 -2.3962
 4475TIP3    H213390   5.953   5.837   2.848 -0.1393 -1.0060  2.5943
 4476TIP3   OH213391   4.047   4.831   3.137  0.4896 -0.1163 -0.2591
 4476TIP3    H113392   4.068   4.901   3.074 -0.1862  0.5519  0.2476
 4476TIP3    H213393   4.131   4.788   3.152  0.8540  0.3563 -0.8543
 4477TIP3   OH213394   5.549   6.116   1.323  0.0199  0.1084  0.1048
 4477TIP3    H113395   5.457   6.093   1.317 -0.1979  0.4592  1.7726
 4477TIP3    H213396   5.561   6.147   1.413  1.7393  0.1747 -0.1097
 4478TIP3   OH213397   6.002   0.172   5.350 -0.5132 -0.0636  0.5215
 4478TIP3    H113398   6.048   0.140   5.272 -0.8059  1.7812 -0.4743
 4478TIP3    H213399   5.987   0.094   5.403  1.3060 -1.1188 -0.4152
 4479TIP3   OH213400   6.864   4.027   5.817 -0.4000 -0.1299 -0.0847
 4479TIP3    H113401   6.797   4.094   5.802 -0.3570  0.1368  0.8715
 4479TIP3    H213402   6.945   4.077   5.829 -0.0559 -0.4411 -1.0522
 4480TIP3   OH213403   0.236   2.938   4.450 -0.1724  0.1355 -0.3155
 4480TIP3    H113404   0.289   2.936   4.529  1.9016 -0.1115 -1.6228
 4480TIP3    H213405   0.234   2.847   4.420 -3.2016 -0.2551  0.7964
 4481TIP3   OH213406   4.957   0.913   4.813  0.8621 -0.1712  0.0659
 4481TIP3    H113407   4.873   0.926   4.858  0.7637 -2.9155  0.8496
 4481TIP3    H213408   4.940   0.942   4.724 -1.2655 -1.4547 -0.0368
 4482TIP3   OH213409   3.769   4.955   4.830 -0.0151 -0.5197  0.1040
 4482TIP3    H113410   3.679   4.984   4.850 -0.3629 -1.0933 -0.5864
 4482TIP3    H213411   3.798   4.910   4.909  0.1889  0.8791  0.8538
 4483TIP3   OH213412   5.056   6.101   3.787  0.8733 -0.0424 -0.1394
 4483TIP3    H113413   4.991   6.043   3.826  2.1941 -1.1802  0.4908
 4483TIP3    H213414   5.009   6.182   3.769 -1.3396 -1.6204 -2.0732
 4484TIP3   OH213415   5.483   5.466   5.910  0.0582  0.0715  0.3891
 4484TIP3    H113416   5.414   5.470   5.843  0.8157 -0.3828 -0.4528
 4484TIP3    H213417   5.558   5.428   5.864  0.2398 -1.4054  1.8151
 4485TIP3   OH213418   5.436   2.410   1.314 -0.5233  0.2850 -0.1400
 4485TIP3    H113419   5.365   2.357   1.278  0.1095  0.3413 -1.5307
 4485TIP3    H213420   5.512   2.351   1.314 -0.4450  0.3546  0.9428
 4486TIP3   OH213421   7.140   2.893   5.080 -0.1435  0.3854 -0.3248
 4486TIP3    H113422   7.125   2.987   5.074  2.3534  0.9047  0.4124
 4486TIP3    H213423   7.189   2.871   5.000  2.4808  0.5185  1.1252
 4487TIP3   OH213424   5.255   5.932   3.960 -0.4120 -0.0525  0.3119
 4487TIP3    H113425   5.206   5.985   3.898 -0.9206  2.0794  2.3684
 4487TIP3    H213426   5.194   5.862   3.985 -1.0381  0.4045  0.0991
 4488TIP3   OH213427   2.156   2.017   5.501 -0.1658  0.4361 -0.6640
 4488TIP3    H113428   2.207   1.936   5.494  1.3436  1.1867  0.7732
 4488TIP3    H213429   2.220   2.086   5.483 -0.8937  1.3791  0.2457
 4489TIP3   OH213430   0.448   5.480   4.186  0.2106  0.3637 -0.1822
 4489TIP3    H113431   0.541   5.465   4.168  0.3587 -0.4092  1.1287
 4489TIP3    H213432   0.429   5.426   4.262 -0.7963  2.1295  0.9055
 4490TIP3   OH213433   2.743   3.608   3.865  0.0103 -0.1692  0.2416
 4490TIP3    H113434   2.828   3.628   3.825  0.3573 -1.7316  0.1543
 4490TIP3    H213435   2.759   3.617   3.959  0.0904  0.1584  0.2013
 4491TIP3   OH213436   5.686   1.575   2.166  0.3226 -0.0817 -0.1231
 4491TIP3    H113437   5.615   1.580   2.102 -0.6964  1.8147  1.0458
 4491TIP3    H213438   5.763   1.608   2.119  0.7542 -2.9462 -1.6677
 4492TIP3   OH213439   4.883   1.484   0.099 -0.8504 -0.1255  0.2249
 4492TIP3    H113440   4.906   1.447   0.184 -1.0491 -0.4407  0.1426
 4492TIP3    H213441   4.883   1.410   0.039  1.3782  0.3899 -0.5106
 4493TIP3   OH213442   6.579   0.517   3.020  0.3588 -0.8492 -0.2711
 4493TIP3    H113443   6.573   0.458   3.095  1.8827  0.7874  1.2409
 4493TIP3    H213444   6.522   0.590   3.043 -1.8623 -1.8003 -2.3168
 4494TIP3   OH213445   2.373   5.090   3.373 -0.2999 -0.3674  0.5468
 4494TIP3    H113446   2.330   5.170   3.403  1.6894  0.5349  1.1454
 4494TIP3    H213447   2.410   5.051   3.452  0.7022 -0.6562 -0.0531
 4495TIP3   OH213448   0.098   6.252   1.610 -0.3613  0.0359  0.3396
 4495TIP3    H113449   0.100   6.183   1.543  0.0069 -0.4308  0.8282
 4495TIP3    H213450   0.042   6.319   1.572 -0.3882 -0.3457 -0.3254
 4496TIP3   OH213451   3.809   6.619   2.790  0.5820  0.0746  0.4094
 4496TIP3    H113452   3.814   6.696   2.734  0.4631 -1.5434 -1.9672
 4496TIP3    H213453   3.721   6.622   2.828 -0.7305 -0.5015 -2.2957
 4497TIP3   OH213454   2.620   3.118   2.437  0.2284 -0.2121 -0.1846
 4497TIP3    H113455   2.695   3.176   2.447 -0.8343  1.0378  0.9578
 4497TIP3    H213456   2.657   3.030   2.441  1.4004  0.2743  3.3582
 4498TIP3   OH213457   3.038   1.599   3.140 -0.1001  0.3521  0.2865
 4498TIP3    H113458   3.114   1.552   3.105  1.0578  0.6379  2.2620
 4498TIP3    H213459   3.051   1.689   3.111  0.8321  0.5843  1.3638
 4499TIP3   OH213460   5.933   5.092   2.585  0.3934  0.0526 -0.0932
 4499TIP3    H113461   5.985   5.170   2.566 -0.3197  0.6788  0.5165
 4499TIP3    H213462   5.903   5.104   2.675 -1.7300  0.2186 -0.7895
 4500TIP3   OH213463   4.819   0.403   3.465 -0.3644  0.2301 -0.0604
 4500TIP3    H113464   4.776   0.320   3.447  2.1505 -0.6367 -2.7853
 4500TIP3    H213465   4.751   0.469   3.449 -2.4159 -1.1892  2.2410
 4501TIP3   OH213466   4.151   1.737   4.570 -0.2309 -0.0412  0.0929
 4501TIP3    H113467   4.093   1.660   4.570 -0.1998 -0.0886 -1.0665
 4501TIP3    H213468   4.184   1.741   4.480  1.6691 -0.0848  0.7634
 4502TIP3   OH213469   7.038   6.541   3.091 -0.0824  0.1178 -0.0320
 4502TIP3    H113470   7.012   6.486   3.018 -1.7517 -1.5486  1.7038
 4502TIP3    H213471   7.075   6.619   3.050  1.2979 -1.7422 -2.5968
 4503TIP3   OH213472   1.171   1.136   5.859  0.1051 -0.0296 -0.7303
 4503TIP3    H113473   1.117   1.210   5.830  0.0219  0.5439  0.7854
 4503TIP3    H213474   1.260   1.161   5.837  0.2442  1.2109  1.0102
 4504TIP3   OH213475   1.030   4.205   3.490  0.4445 -0.1269  0.3982
 4504TIP3    H113476   0.939   4.218   3.463  0.3375 -0.9649  0.3284
 4504TIP3    H213477   1.033   4.236   3.580 -0.7208 -3.0336  1.5542
 4505TIP3   OH213478   1.635   1.454   1.104  0.0304 -0.5784 -0.6202
 4505TIP3    H113479   1.620   1.429   1.013  1.0556 -0.1151 -0.9320
 4505TIP3    H213480   1.727   1.433   1.120  0.2548  0.6821 -0.1457
 4506TIP3   OH213481   4.752   3.160   3.411 -0.0599  0.3585  0.5026
 4506TIP3    H113482   4.692   3.089   3.389 -0.5751  0.6368  1.0025
 4506TIP3    H213483   4.774   3.200   3.327 -0.8717  0.4992  0.3513
 4507TIP3   OH213484   5.833   4.221   1.610  0.0778  0.5329  0.1935
 4507TIP3    H113485   5.776   4.204   1.685 -1.1445  1.1445 -0.5679
 4507TIP3    H213486   5.901   4.154   1.616 -1.3782 -0.9705  0.4595
 4508TIP3   OH213487   0.107   3.692   4.099 -0.3544 -0.7443 -0.2242
 4508TIP3    H113488   0.185   3.741   4.127  0.0830  1.0102 -3.9010
 4508TIP3    H213489   0.134   3.600   4.101  0.5274 -0.4992  2.0156
 4509TIP3   OH213490   2.336   2.083   0.102 -0.0957  0.1476 -0.3081
 4509TIP3    H113491   2.335   2.119   0.013 -1.1312  0.6257 -0.1209
 4509TIP3    H213492   2.426   2.054   0.115 -0.0590 -0.4585 -1.7166
 4510TIP3   OH213493   3.139   2.488   2.206  0.1222  0.6092  0.1736
 4510TIP3    H113494   3.203   2.555   2.230 -0.0635  1.1442 -0.7744
 4510TIP3    H213495   3.190   2.410   2.186  0.3198  0.3261  1.6734
 4511TIP3   OH213496   5.813   6.060   3.748  0.0353  0.6987 -0.0054
 4511TIP3    H113497   5.906   6.039   3.743 -0.1859 -0.9693  1.7520
 4511TIP3    H213498   5.801   6.133   3.687  2.1273 -0.2301 -1.6657
 4512TIP3   OH213499   0.523   6.710   5.539 -0.2020 -0.6766 -0.8901
 4512TIP3    H113500   0.466   6.683   5.468 -2.3423  0.3985  0.3235
 4512TIP3    H213501   0.558   6.795   5.510 -1.0495 -0.2510 -0.7009
 4513TIP3   OH213502   1.682   3.136   2.531 -0.4022  0.0235  0.4952
 4513TIP3    H113503   1.589   3.152   2.515 -0.2109  1.6484  0.8993
 4513TIP3    H213504   1.692   3.041   2.517 -2.2503 -0.3176  1.1514
 4514TIP3   OH213505   6.070   2.742   1.006  0.3323  0.3281 -0.3391
 4514TIP3    H113506   6.043   2.741   1.098 -0.9155  3.5458 -0.5142
 4514TIP3    H213507   6.115   2.826   0.996  1.5706 -0.5052 -2.4257
 4515TIP3   OH213508   2.702   1.844   2.268  0.0323  0.9250 -0.0536
 4515TIP3    H113509   2.671   1.869   2.355  0.1664  1.6863 -0.2164
 4515TIP3    H213510   2.623   1.829   2.216 -0.2050 -3.3075  1.1541
 4516TIP3   OH213511   0.746   5.196   4.399 -0.4177  0.1368  0.3343
 4516TIP3    H113512   0.807   5.252   4.446 -0.1687 -0.5139  0.8012
 4516TIP3    H213513   0.694   5.154   4.467  0.2870 -1.2039  0.0947
 4517TIP3   OH213514   3.296   2.404   1.893  0.5196 -0.2650 -0.0786
 4517TIP3    H113515   3.329   2.325   1.850  0.1253 -0.8707  0.6956
 4517TIP3    H213516   3.291   2.469   1.823  0.9319 -0.8986 -0.7155
 4518TIP3   OH213517   1.291   4.046   4.290  0.1451 -0.1268  0.2621
 4518TIP3    H113518   1.341   3.965   4.289  1.0112  0.3657 -1.7932
 4518TIP3    H213519   1.227   4.036   4.219  1.2467  1.5168 -1.0244
 4519TIP3   OH213520   0.151   2.969   1.254  0.2644 -0.3473  0.0739
 4519TIP3    H113521   0.229   3.021   1.236  0.7851 -1.5775 -1.4120
 4519TIP3    H213522   0.092   2.988   1.180 -0.0862 -0.8199  0.2272
 4520TIP3   OH213523   5.479   2.094   2.059  0.3044  0.1743 -0.9921
 4520TIP3    H113524   5.490   2.033   1.985  1.9394  0.2043 -0.8149
 4520TIP3    H213525   5.562   2.088   2.107 -0.4102  0.7911  0.3735
 4521TIP3   OH213526   1.394   1.776   0.628  0.0519  0.5449 -0.7167
 4521TIP3    H113527   1.450   1.734   0.562 -0.7260 -1.3688 -0.2371
 4521TIP3    H213528   1.454   1.800   0.698  0.3705 -1.2537 -0.3139
 4522TIP3   OH213529   4.271   5.229   2.763  0.4459 -0.1700  0.2760
 4522TIP3    H113530   4.231   5.305   2.807 -0.2825  0.0345 -0.6953
 4522TIP3    H213531   4.353   5.215   2.809  1.2293  2.0358 -0.3050
 4523TIP3   OH213532   7.226   3.109   3.144 -0.3042  0.0895 -0.4389
 4523TIP3    H113533   7.181   3.056   3.209 -0.3451  0.7200  0.0505
 4523TIP3    H213534   7.156   3.153   3.096 -0.2307  1.7206  0.8654
 4524TIP3   OH213535   2.995   6.615   2.123 -0.7124  0.5271  0.4420
 4524TIP3    H113536   2.955   6.533   2.152 -0.0308  0.3104  0.7711
 4524TIP3    H213537   3.055   6.639   2.193 -0.6929  1.1603  0.2141
 4525TIP3   OH213538   2.411   0.165   2.616 -0.3296  0.1497 -0.0341
 4525TIP3    H113539   2.494   0.213   2.609 -0.6438  1.2843  2.7788
 4525TIP3    H213540   2.361   0.193   2.539  1.1623  0.9649 -0.7434
 4526TIP3   OH213541   5.223   4.550   1.934  0.2760 -0.5255 -0.8337
 4526TIP3    H113542   5.295   4.490   1.953  0.7832  0.8034  1.9553
 4526TIP3    H213543   5.263   4.637   1.935 -1.2584  0.2379  0.7467
 4527TIP3   OH213544   0.704   4.439   3.932  0.3307  0.0254  0.1668
 4527TIP3    H113545   0.639   4.378   3.898  0.6909 -0.1591 -0.2092
 4527TIP3    H213546   0.729   4.492   3.856 -0.8347  1.4537  0.7298
 4528TIP3   OH213547   1.825   2.371   5.698  0.6160 -0.1626 -0.0410
 4528TIP3    H113548   1.832   2.419   5.781  0.6824  1.0635 -0.7208
 4528TIP3    H213549   1.819   2.279   5.724  0.5647  0.1938  1.3227
 4529TIP3   OH213550   1.534   6.313   4.496 -0.3468  0.2491  0.3977
 4529TIP3    H113551   1.558   6.360   4.417 -2.6646  0.0997 -0.4740
 4529TIP3    H213552   1.519   6.223   4.467 -3.5748  0.6591  0.3890
 4530TIP3   OH213553   6.404   4.005   5.594  0.2711 -0.2961  0.3161
 4530TIP3    H113554   6.414   4.086   5.543 -0.8679 -0.9228 -0.9486
 4530TIP3    H213555   6.458   4.020   5.672  0.7400  1.3534 -0.2721
 4531TIP3   OH213556   6.951   2.485   5.627 -0.0073  0.6242 -0.4405
 4531TIP3    H113557   6.988   2.439   5.552 -1.6457  0.4652 -1.1759
 4531TIP3    H213558   6.943   2.418   5.695 -1.4554  0.0239 -1.1794
 4532TIP3   OH213559   1.798   4.229   4.256  0.5481  0.0811 -0.1297
 4532TIP3    H113560   1.707   4.244   4.280  1.1824  1.9762  1.3387
 4532TIP3    H213561   1.795   4.204   4.163 -1.4892 -0.7699  0.1167
 4533TIP3   OH213562   4.352   4.201   4.690  0.3423  0.1013 -0.0616
 4533TIP3    H113563   4.396   4.201   4.605  0.7541  0.3732  0.1477
 4533TIP3    H213564   4.342   4.109   4.712  0.8471  0.0337 -0.0932
 4534TIP3   OH213565   5.504   4.215   4.539  0.0440  0.3451  0.0127
 4534TIP3    H113566   5.423   4.266   4.531  1.3529  2.5303 -0.0069
 4534TIP3    H213567   5.524   4.217   4.632 -1.2038 -2.4394  0.4544
 4535TIP3   OH213568   5.679   1.580   4.409  0.7432 -0.3151  0.1632
 4535TIP3    H113569   5.646   1.669   4.413  0.7844 -0.3048  0.2861
 4535TIP3    H213570   5.655   1.541   4.493  1.2965 -0.2176  0.3722
 4536TIP3   OH213571   0.200   0.363   3.839 -0.5098 -0.3126  0.0682
 4536TIP3    H113572   0.264   0.390   3.906 -1.1618 -0.9988  0.9826
 4536TIP3    H213573   0.254   0.342   3.763  0.2062  1.1415  0.1174
 4537TIP3   OH213574   3.352   2.084   4.568 -0.0591 -0.5412 -0.1577
 4537TIP3    H113575   3.338   2.018   4.636 -0.7360  1.1213  1.4055
 4537TIP3    H213576   3.264   2.117   4.548  0.4440  1.6183  0.9615
 4538TIP3   OH213577   0.033   6.826   1.704 -0.4748  0.1701  0.3281
 4538TIP3    H113578  -0.037   6.817   1.768 -0.8502  1.5799  0.1626
 4538TIP3    H213579   0.086   6.747   1.714 -1.7436 -0.6407  0.8646
 4539TIP3   OH213580   4.388   6.725   0.196  0.3415  0.3960 -0.1058
 4539TIP3    H113581   4.302   6.721   0.154 -0.4396 -0.5762  1.4661
 4539TIP3    H213582   4.411   6.818   0.194  0.0049  0.4784 -1.9298
 4540TIP3   OH213583   2.075   3.679   5.913 -0.2618  0.2817 -1.1781
 4540TIP3    H113584   2.040   3.608   5.859  1.7192 -0.8092 -1.1288
 4540TIP3    H213585   2.155   3.706   5.868  0.4970  0.5485  0.2690
 4541TIP3   OH213586   3.757   6.198   1.261 -0.5680  0.2410 -0.1716
 4541TIP3    H113587   3.822   6.227   1.198 -0.0265 -0.3770  0.0928
 4541TIP3    H213588   3.803   6.196   1.345 -1.0012  0.0831  0.0678
 4542TIP3   OH213589   0.662   2.802   5.039  0.1385 -0.8916 -0.2717
 4542TIP3    H113590   0.612   2.810   5.121  0.0477  0.9981 -0.4687
 4542TIP3    H213591   0.739   2.857   5.053  1.4614 -2.6171 -0.5276
 4543TIP3   OH213592   4.923   1.834   3.425 -0.0929 -0.1814  0.5376
 4543TIP3    H113593   4.901   1.882   3.345  3.2660  1.2681  0.3420
 4543TIP3    H213594   4.898   1.744   3.406 -1.1149  0.4411 -1.4101
 4544TIP3   OH213595   5.813   0.047   2.698  0.2416  0.2276 -0.3413
 4544TIP3    H113596   5.832   0.060   2.791  0.1793  1.4694 -0.4906
 4544TIP3    H213597   5.802  -0.048   2.689 -0.2491  0.1356  1.0129
 4545TIP3   OH213598   4.233   4.282   5.232  0.2569 -0.4088  0.4351
 4545TIP3    H113599   4.216   4.227   5.155 -1.7550 -2.3586  2.1308
 4545TIP3    H213600   4.226   4.222   5.306  1.0623  1.6024  2.2259
 4546TIP3   OH213601   5.201   5.760   4.464 -0.4254 -0.0769 -0.1639
 4546TIP3    H113602   5.126   5.817   4.445  0.1061  0.5182 -0.5077
 4546TIP3    H213603   5.268   5.786   4.401  0.4688  0.1627  0.8456
 4547TIP3   OH213604   0.122   5.017   2.890 -0.1431 -0.4592  0.6768
 4547TIP3    H113605   0.060   5.089   2.880 -1.0395 -1.4297 -1.3685
 4547TIP3    H213606   0.133   4.981   2.802  2.6864 -0.9083  1.0890
 4548TIP3   OH213607   5.759   3.859   5.765  0.1126 -0.3459  0.7575
 4548TIP3    H113608   5.690   3.891   5.823  0.6786  2.7417 -0.0982
 4548TIP3    H213609   5.723   3.869   5.677  2.3467  3.9549  0.0630
 4549TIP3   OH213610   0.134   5.607   0.352 -0.1598  0.1402  0.2255
 4549TIP3    H113611   0.085   5.683   0.320  0.6827  0.1916 -1.0003
 4549TIP3    H213612   0.150   5.554   0.274  3.9761  1.4013  0.0096
 4550TIP3   OH213613   5.474   4.646   0.402  0.0608 -0.6144 -0.0961
 4550TIP3    H113614   5.541   4.577   0.397  1.6514  0.7385  1.2893
 4550TIP3    H213615   5.407   4.609   0.459  0.8398 -1.0948  0.5460
 4551TIP3   OH213616   5.856   4.780   5.805 -0.1311 -0.3059 -0.0379
 4551TIP3    H113617   5.763   4.798   5.794 -0.5728 -1.7407  1.1980
 4551TIP3    H213618   5.898   4.866   5.795 -1.7332  0.6653  1.1557
 4552TIP3   OH213619   7.007   0.230   1.435  0.4332 -0.2666 -0.0395
 4552TIP3    H113620   7.070   0.208   1.366 -0.7204 -1.5886 -0.7065
 4552TIP3    H213621   7.013   0.325   1.443  0.3350 -0.0254 -2.2207
 4553TIP3   OH213622   5.537   2.121   4.638 -0.0140 -0.1838 -0.2481
 4553TIP3    H113623   5.544   2.213   4.664  0.2077 -0.4464  0.6780
 4553TIP3    H213624   5.447   2.098   4.659  0.3230 -0.5528  0.8808
 4554TIP3   OH213625   5.650   5.272   2.384 -0.3083  0.4555  0.2268
 4554TIP3    H113626   5.695   5.211   2.325 -1.3861  0.0179 -0.1715
 4554TIP3    H213627   5.620   5.217   2.456 -0.4891  0.6799  0.3235
 4555TIP3   OH213628   2.215   5.445   0.896  0.6650 -0.0584 -0.5998
 4555TIP3    H113629   2.249   5.458   0.807 -0.3756 -1.2222 -1.2000
 4555TIP3    H213630   2.184   5.354   0.896  0.7223 -0.0920  0.9839
 4556TIP3   OH213631   4.365   2.790   0.405  0.0535 -0.0131  0.1709
 4556TIP3    H113632   4.370   2.880   0.373  1.2251  0.1953  0.8872
 4556TIP3    H213633   4.437   2.744   0.362  0.2202 -0.2928  0.7280
 4557TIP3   OH213634   5.997   5.290   2.037  0.5696  0.2543  0.0943
 4557TIP3    H113635   6.091   5.278   2.049  0.3667  0.5544  2.5860
 4557TIP3    H213636   5.958   5.259   2.119 -1.5140  0.0881 -0.8996
 4558TIP3   OH213637   5.105   3.367   4.807  0.5797 -0.1283  0.0312
 4558TIP3    H113638   5.106   3.393   4.715  0.4573 -0.3304 -0.0292
 4558TIP3    H213639   5.192   3.330   4.823  1.2019  1.4274  0.4509
 4559TIP3   OH213640   6.112   2.603   1.541 -0.3092  0.1781 -0.3227
 4559TIP3    H113641   6.130   2.581   1.632  0.2155  1.5866 -0.0558
 4559TIP3    H213642   6.136   2.695   1.533  2.1871 -0.5368 -2.5248
 4560TIP3   OH213643   6.243   4.624   2.019 -0.5599 -0.6756 -0.0451
 4560TIP3    H113644   6.250   4.616   1.923 -0.4162 -0.4856 -0.0522
 4560TIP3    H213645   6.326   4.591   2.052  0.1366  0.9287 -0.0890
 4561TIP3   OH213646   5.786   6.140   2.704  0.2545  0.1193 -0.2509
 4561TIP3    H113647   5.764   6.214   2.648  1.9981 -0.4048 -1.7156
 4561TIP3    H213648   5.877   6.154   2.728 -0.2039 -0.1050  1.8414
 4562TIP3   OH213649   4.240   1.257   1.192  0.2722  0.4991  0.3503
 4562TIP3    H113650   4.282   1.214   1.267 -0.1659  0.1470  0.3979
 4562TIP3    H213651   4.227   1.187   1.129 -1.4773  0.3093  0.8741
 4563TIP3   OH213652   7.087   5.340   5.164  0.0871 -0.9571  0.3883
 4563TIP3    H113653   7.136   5.423   5.159 -1.5474  0.1178  1.2103
 4563TIP3    H213654   7.111   5.304   5.249 -1.7170  0.4181  1.5619
 4564TIP3   OH213655   0.985   5.839   1.437  0.4841  0.0772  0.4499
 4564TIP3    H113656   1.068   5.867   1.477  2.1757 -2.2765 -1.1286
 4564TIP3    H213657   0.940   5.792   1.507  2.4751 -2.2280  0.3378
 4565TIP3   OH213658   0.194   1.957   5.517 -0.2186  0.5582 -0.2179
 4565TIP3    H113659   0.223   2.048   5.507 -1.6240  0.9582 -0.8263
 4565TIP3    H213660   0.196   1.942   5.611  0.2269  1.1428 -0.1235
 4566TIP3   OH213661   0.377   3.988   3.762 -0.6290  0.0328 -0.0366
 4566TIP3    H113662   0.344   4.068   3.722 -0.9681  0.4304  1.0071
 4566TIP3    H213663   0.472   3.992   3.750 -0.5910  0.8556  0.4680
 4567TIP3   OH213664   6.427   5.998   2.615 -0.0993 -0.8061  0.1050
 4567TIP3    H113665   6.490   6.023   2.547 -0.3972 -1.8165 -0.5544
 4567TIP3    H213666   6.342   6.021   2.579 -0.1611  0.2833  0.8778
 4568TIP3   OH213667   1.061   3.926   2.056  0.0546  0.1107 -0.2464
 4568TIP3    H113668   1.003   3.957   1.987  2.3742  1.4970 -1.7454
 4568TIP3    H213669   1.147   3.963   2.033  1.6109 -2.0475  1.6362
 4569TIP3   OH213670   1.889   6.727   5.773 -0.2434  0.0140  0.4003
 4569TIP3    H113671   1.974   6.756   5.806 -0.6897  1.0141  0.6793
 4569TIP3    H213672   1.892   6.631   5.782  0.6429  0.0771  0.9013
 4570TIP3   OH213673   0.471   2.684   0.813 -0.4294  0.5077  0.1787
 4570TIP3    H113674   0.482   2.628   0.890 -0.5346 -0.2112 -0.3278
 4570TIP3    H213675   0.486   2.627   0.739 -0.8598  1.0793 -0.3597
 4571TIP3   OH213676   5.400   2.058   3.233  0.0253  0.4187  0.3988
 4571TIP3    H113677   5.389   2.137   3.286  0.1415  0.9883 -0.4123
 4571TIP3    H213678   5.494   2.040   3.235  0.3107  1.5651 -1.1764
 4572TIP3   OH213679   3.564   4.054   5.780 -0.4022  0.1441 -0.5259
 4572TIP3    H113680   3.563   3.964   5.749 -1.7958 -0.5320  1.3348
 4572TIP3    H213681   3.640   4.093   5.736 -0.5500 -1.5064 -2.4313
 4573TIP3   OH213682   0.865   4.006   1.894 -0.2482  0.1400  0.2096
 4573TIP3    H113683   0.781   3.960   1.898 -0.0060 -0.6218 -1.8712
 4573TIP3    H213684   0.842   4.098   1.881 -0.7513  0.0298  0.3189
 4574TIP3   OH213685   3.095   4.745   2.337 -0.2534  0.1640  0.0255
 4574TIP3    H113686   3.125   4.795   2.261 -0.1079 -0.6108 -0.4430
 4574TIP3    H213687   3.134   4.789   2.413  1.2655 -0.2322 -0.4901
 4575TIP3   OH213688   2.486   3.423   5.405 -0.1003 -0.0483  0.1180
 4575TIP3    H113689   2.412   3.365   5.385  0.6515 -0.9973  0.0397
 4575TIP3    H213690   2.533   3.432   5.323 -0.2682  0.7959  0.0981
 4576TIP3   OH213691   1.300   2.193   3.328 -0.0592 -0.2403  0.6003
 4576TIP3    H113692   1.306   2.288   3.333  0.7895 -0.3346  1.6689
 4576TIP3    H213693   1.355   2.169   3.253 -0.7889  0.1346 -0.0754
 4577TIP3   OH213694   2.023   2.352   5.498 -0.4698 -0.5370  0.4398
 4577TIP3    H113695   1.988   2.285   5.440 -0.1953 -0.4966  0.2288
 4577TIP3    H213696   1.956   2.363   5.565 -0.3655 -1.2691  0.6696
 4578TIP3   OH213697   1.476   1.532   3.183  0.2299  0.0650  0.1250
 4578TIP3    H113698   1.471   1.579   3.099  2.2889  1.6085  0.8012
 4578TIP3    H213699   1.554   1.566   3.225 -1.5512  0.4907  3.3971
 4579TIP3   OH213700   4.219   4.347   3.384  0.5639  0.7424  0.3962
 4579TIP3    H113701   4.139   4.348   3.332  0.6578  1.4867  0.2532
 4579TIP3    H213702   4.274   4.415   3.345  1.8963 -0.7427 -0.4590
 4580TIP3   OH213703   4.251   4.569   3.858 -0.0759  0.3861  0.0938
 4580TIP3    H113704   4.222   4.502   3.919  0.9330  0.1985  0.3748
 4580TIP3    H213705   4.304   4.522   3.794  0.0608  0.8118 -0.1086
 4581TIP3   OH213706   4.430   1.457   3.597  0.0632  0.0379  0.2054
 4581TIP3    H113707   4.486   1.432   3.670 -0.7223  0.2946  0.9118
 4581TIP3    H213708   4.409   1.374   3.554  1.8395  0.0240 -0.7450
 4582TIP3   OH213709   1.091   3.708   1.582 -0.0880  0.3309 -0.6071
 4582TIP3    H113710   1.097   3.736   1.491 -0.8598 -1.3134 -1.2066
 4582TIP3    H213711   0.997   3.698   1.598  0.1047 -0.7608 -0.0786
 4583TIP3   OH213712   6.187   5.383   1.733 -0.1759  0.2564 -0.0545
 4583TIP3    H113713   6.141   5.318   1.680 -0.8762  0.0346  0.8021
 4583TIP3    H213714   6.266   5.403   1.683 -1.0630  0.4479 -1.4434
 4584TIP3   OH213715   0.313   1.167   4.808  0.2099  0.1805  0.2021
 4584TIP3    H113716   0.247   1.122   4.861  0.6993 -1.3327 -0.4108
 4584TIP3    H213717   0.365   1.096   4.770  1.8142  1.3140  0.1863
 4585TIP3   OH213718   6.739   3.438   3.912  0.8172  0.1216 -0.2992
 4585TIP3    H113719   6.738   3.533   3.929 -0.3936  0.2800 -1.1626
 4585TIP3    H213720   6.786   3.402   3.987  1.0790  1.3777  0.1800
 4586TIP3   OH213721   5.604   5.819   4.140  0.6370  0.2538  0.5501
 4586TIP3    H113722   5.603   5.911   4.112  1.8089 -0.1678 -1.0528
 4586TIP3    H213723   5.696   5.796   4.142  0.3290 -1.0978  0.1614
 4587TIP3   OH213724   4.427   1.179   3.481 -0.5690 -0.0292 -0.5387
 4587TIP3    H113725   4.373   1.100   3.492 -2.4589  1.1243 -0.9310
 4587TIP3    H213726   4.514   1.146   3.459 -1.1065 -2.0055  0.0491
 4588TIP3   OH213727   3.542   1.656   2.647 -0.4025  0.1320  0.1885
 4588TIP3    H113728   3.584   1.731   2.690  1.9103 -0.1113 -1.4642
 4588TIP3    H213729   3.448   1.672   2.659  0.0383  2.3531  1.4147
 4589TIP3   OH213730   5.042   1.614   2.072 -0.2140 -0.0277 -0.0783
 4589TIP3    H113731   4.996   1.611   2.156  2.1326 -0.2920  1.2747
 4589TIP3    H213732   5.085   1.700   2.071 -0.3221  0.0285 -1.0762
 4590TIP3   OH213733   7.016   6.637   5.255 -0.3921  0.6885  0.1599
 4590TIP3    H113734   6.927   6.671   5.248 -0.5730 -0.1138 -2.2618
 4590TIP3    H213735   7.005   6.543   5.272 -0.1445  0.0961 -2.5331
 4591TIP3   OH213736   4.414   2.018   0.191 -0.6760  0.2047  0.2507
 4591TIP3    H113737   4.378   1.998   0.277  0.7106 -2.8753  0.2346
 4591TIP3    H213738   4.410   1.935   0.143 -0.5282  1.5902 -2.3588
 4592TIP3   OH213739   4.401   3.531   3.209  0.0590  0.3690 -0.2885
 4592TIP3    H113740   4.345   3.593   3.160 -0.7434  0.5386  0.8064
 4592TIP3    H213741   4.466   3.587   3.252 -1.6506  0.7189  2.0381
 4593TIP3   OH213742   5.695   4.575   5.521  0.2590  0.0873 -0.3282
 4593TIP3    H113743   5.759   4.601   5.455  1.2335  0.3823  0.6939
 4593TIP3    H213744   5.633   4.647   5.525  0.3669  0.2016 -0.7106
 4594TIP3   OH213745   5.515   5.422   1.317 -1.1874  0.1703  0.2895
 4594TIP3    H113746   5.566   5.412   1.396 -1.2765  0.5298  0.3914
 4594TIP3    H213747   5.553   5.358   1.256 -0.6850  0.3667  0.3935
 4595TIP3   OH213748   3.240   3.520   0.619  0.5190  0.1380  0.1650
 4595TIP3    H113749   3.183   3.444   0.629 -1.1526  1.0771 -1.5720
 4595TIP3    H213750   3.290   3.523   0.700  0.2976 -2.5078  0.4911
 4596TIP3   OH213751   1.928   5.245   0.307 -0.1838  0.2305  0.1761
 4596TIP3    H113752   1.945   5.330   0.347 -1.1950  0.1192  0.8988
 4596TIP3    H213753   1.902   5.189   0.381  1.5693 -1.0369 -0.1040
 4597TIP3   OH213754   1.070   3.602   4.247 -0.0579 -0.3233 -0.1965
 4597TIP3    H113755   1.110   3.517   4.229  1.5039  0.3667 -0.0936
 4597TIP3    H213756   1.091   3.620   4.339 -0.0775  0.3287 -0.3114
 4598TIP3   OH213757   6.302   2.225   1.465  0.3778 -0.2535 -0.2106
 4598TIP3    H113758   6.320   2.179   1.547  1.9726  1.1122  0.2590
 4598TIP3    H213759   6.388   2.232   1.422  0.3610  2.6491 -0.0079
 4599TIP3   OH213760   4.791   2.029   0.467 -0.0158 -0.3982 -0.0041
 4599TIP3    H113761   4.851   2.094   0.503 -0.6021  0.4343 -0.5079
 4599TIP3    H213762   4.716   2.028   0.527 -0.2318 -0.2430 -0.2679
 4600TIP3   OH213763   5.552   4.663   5.209  0.0099  0.5209 -0.3041
 4600TIP3    H113764   5.474   4.630   5.255 -0.7391  3.4650  0.7202
 4600TIP3    H213765   5.562   4.753   5.240  2.3246  1.0766 -2.3854
 4601TIP3   OH213766   4.123   3.852   1.072  0.1173 -0.1908  0.1697
 4601TIP3    H113767   4.063   3.900   1.016  1.1042  0.2487 -0.5449
 4601TIP3    H213768   4.128   3.764   1.035  0.1923 -0.1195  0.0116
 4602TIP3   OH213769   2.543   0.264   0.408  0.1312 -0.2764 -0.1009
 4602TIP3    H113770   2.623   0.314   0.425 -0.3782  0.4055  0.3589
 4602TIP3    H213771   2.474   0.330   0.405 -0.7104 -1.0248  1.5169
 4603TIP3   OH213772   1.897   3.721   4.904  0.5399  0.2357 -0.1048
 4603TIP3    H113773   1.942   3.744   4.986  0.4847  0.1081 -0.0383
 4603TIP3    H213774   1.966   3.687   4.847  0.3727 -0.9249  0.3582
 4604TIP3   OH213775   5.802   4.417   5.746  0.4038 -0.6371 -0.3623
 4604TIP3    H113776   5.894   4.419   5.720  0.7949  0.5474  0.9581
 4604TIP3    H213777   5.760   4.482   5.689  0.8749  0.5418  0.5936
 4605TIP3   OH213778   0.726   0.871   3.572 -0.0023 -0.6764 -0.1005
 4605TIP3    H113779   0.697   0.793   3.620  0.9398 -1.0382 -0.1022
 4605TIP3    H213780   0.667   0.940   3.601  0.2526 -0.9957  1.2307
 4606TIP3   OH213781   2.565   2.842   4.686  0.0730 -0.5111  0.1024
 4606TIP3    H113782   2.529   2.771   4.739  0.3173  0.2808  1.3446
 4606TIP3    H213783   2.514   2.839   4.605 -0.6746 -1.3697  0.5877
 4607TIP3   OH213784   0.457   4.114   0.392 -0.1954  0.1647 -0.6986
 4607TIP3    H113785   0.524   4.178   0.416 -0.3382  0.2403 -0.5001
 4607TIP3    H213786   0.505   4.046   0.344  0.4236 -0.9427  1.3904
 4608TIP3   OH213787   3.304   3.248   3.039 -0.3195 -0.4361 -0.1585
 4608TIP3    H113788   3.257   3.330   3.057 -1.0060 -0.6132 -1.0850
 4608TIP3    H213789   3.349   3.265   2.956 -1.0213 -1.2265 -0.7098
 4609TIP3   OH213790   0.420   3.015   3.337  0.0530 -0.1556  0.1189
 4609TIP3    H113791   0.511   3.028   3.362 -0.5685  1.0913  1.9659
 4609TIP3    H213792   0.386   2.952   3.401 -0.5583 -0.0198 -0.0645
 4610TIP3   OH213793   4.540   0.769   4.222 -0.1355 -0.4228 -0.4600
 4610TIP3    H113794   4.579   0.697   4.173 -0.6733 -1.1306  0.1187
 4610TIP3    H213795   4.453   0.779   4.185 -0.2268 -0.3777 -0.2381
 4611TIP3   OH213796   0.203   6.507   4.902 -0.3445 -0.1240  0.4470
 4611TIP3    H113797   0.160   6.543   4.979  1.7948 -0.6944  1.9801
 4611TIP3    H213798   0.256   6.580   4.869  0.9365 -0.6812  1.2268
 4612TIP3   OH213799   4.011   5.952   3.678 -0.8113  0.4928  0.3964
 4612TIP3    H113800   3.968   6.003   3.609 -2.1654  0.7966  1.4281
 4612TIP3    H213801   4.023   5.865   3.640 -0.9708  0.8257 -0.4343
 4613TIP3   OH213802   4.189   5.473   5.622 -0.0176 -0.0390 -0.1263
 4613TIP3    H113803   4.107   5.500   5.665 -0.3519 -0.5434 -0.4367
 4613TIP3    H213804   4.206   5.386   5.657 -0.2991 -0.4623 -1.0222
 4614TIP3   OH213805   2.542   2.239   5.326 -0.6507  0.1600  0.1609
 4614TIP3    H113806   2.540   2.306   5.258  0.3670 -0.1703 -0.2090
 4614TIP3    H213807   2.613   2.267   5.385  0.0711 -0.7867 -0.2278
 4615TIP3   OH213808   5.215   0.223   0.147 -0.2496  0.2854  0.3084
 4615TIP3    H113809   5.171   0.184   0.223  1.7085  0.8092  1.7915
 4615TIP3    H213810   5.165   0.192   0.072 -2.4746 -0.0145  1.8081
 4616TIP3   OH213811   6.528   4.682   2.270  0.2032  0.5707 -0.2507
 4616TIP3    H113812   6.607   4.675   2.324 -0.5679  0.2959  0.8618
 4616TIP3    H213813   6.475   4.606   2.295  0.2105 -0.1095 -2.0744
 4617TIP3   OH213814   7.189   4.641   3.711  0.0607  0.4729  0.1561
 4617TIP3    H113815   7.166   4.628   3.619 -1.3002  0.3984  0.4777
 4617TIP3    H213816   7.120   4.595   3.760  2.3530 -2.0976  1.2244
 4618TIP3   OH213817   1.649   5.570   2.119 -0.1673 -0.2745  0.2532
 4618TIP3    H113818   1.560   5.563   2.155 -0.0620  0.2997  0.6195
 4618TIP3    H213819   1.697   5.622   2.182  0.2072  0.1475 -0.3680
 4619TIP3   OH213820   3.790   0.506   4.741 -0.1678  0.1528 -0.1936
 4619TIP3    H113821   3.768   0.501   4.834  0.3446 -1.7505 -0.1334
 4619TIP3    H213822   3.883   0.530   4.740  0.0413 -0.6161 -0.1640
 4620TIP3   OH213823   1.788   1.999   3.609 -0.1497  0.3875  0.0257
 4620TIP3    H113824   1.842   2.020   3.685  0.6240  0.9634 -0.6544
 4620TIP3    H213825   1.808   1.907   3.591 -0.6390  0.1356  0.7468
 4621TIP3   OH213826   3.844   1.282   5.464  0.5194 -0.2968  0.0775
 4621TIP3    H113827   3.895   1.305   5.542 -0.3708 -0.4870  0.7341
 4621TIP3    H213828   3.824   1.366   5.423 -0.8600  0.0156  1.2734
 4622TIP3   OH213829   4.687   0.972   0.104 -0.4893 -0.2961 -0.0330
 4622TIP3    H113830   4.601   0.974   0.145 -0.1764  0.2871  0.6198
 4622TIP3    H213831   4.677   0.914   0.028 -1.3981 -0.3862  0.1516
 4623TIP3   OH213832   2.450   1.530   4.074  0.1773  0.3236 -0.1176
 4623TIP3    H113833   2.506   1.565   4.143 -2.0227  1.1415  1.3946
 4623TIP3    H213834   2.372   1.586   4.077 -0.5120 -0.4116 -2.4695
 4624TIP3   OH213835   4.956   1.347   0.325 -0.6120  0.1717 -0.0677
 4624TIP3    H113836   4.971   1.258   0.295 -1.4371 -0.1680  0.4957
 4624TIP3    H213837   4.882   1.340   0.385 -0.4620  1.1808  0.2537
 4625TIP3   OH213838   3.639   6.619   2.096 -0.5058  0.1954  0.1813
 4625TIP3    H113839   3.549   6.627   2.065 -0.5230  0.4388  0.2943
 4625TIP3    H213840   3.663   6.529   2.076  0.0440  0.7707 -2.1113
 4626TIP3   OH213841   1.159   1.089   3.033  0.1796 -0.2282  0.6685
 4626TIP3    H113842   1.068   1.101   3.004  0.8388  1.1170 -1.0299
 4626TIP3    H213843   1.153   1.084   3.128 -1.6188  0.5003  0.6373
 4627TIP3   OH213844   5.574   5.840   3.541 -0.0857 -0.1655  0.1257
 4627TIP3    H113845   5.638   5.771   3.521 -0.0876 -0.3463  0.7254
 4627TIP3    H213846   5.572   5.894   3.462 -0.1408 -0.8963 -0.3833
 4628TIP3   OH213847   6.964   6.735   4.574  0.4838 -0.3828 -0.3352
 4628TIP3    H113848   6.920   6.751   4.658 -0.4162  2.0435 -1.1750
 4628TIP3    H213849   7.039   6.794   4.575  0.0647  0.2027 -1.4851
 4629TIP3   OH213850   5.895   4.849   1.795  0.0645  0.0662 -0.0527
 4629TIP3    H113851   5.855   4.861   1.708 -0.0790  2.2398  0.2448
 4629TIP3    H213852   5.930   4.936   1.817  0.9313 -0.6713  1.6728
 4630TIP3   OH213853   6.833   1.369   5.638 -0.1583 -0.4258 -0.2130
 4630TIP3    H113854   6.740   1.371   5.617 -0.5852  0.1435  1.5808
 4630TIP3    H213855   6.841   1.301   5.705  0.5673  0.1852  0.3278
 4631TIP3   OH213856   2.694   4.071   0.131  0.0521 -0.4728 -0.6519
 4631TIP3    H113857   2.767   4.009   0.129 -0.4078 -0.9939 -1.5114
 4631TIP3    H213858   2.660   4.065   0.220  2.7735  1.8443  0.7406
 4632TIP3   OH213859  -0.014   2.754   1.931 -0.5456 -0.7581 -0.3138
 4632TIP3    H113860  -0.002   2.785   2.021  1.8764 -2.5992  0.1182
 4632TIP3    H213861   0.039   2.814   1.878 -1.9116  0.2808 -0.5377
 4633TIP3   OH213862   5.579   6.092   4.146 -0.5111  0.2310  0.1185
 4633TIP3    H113863   5.601   6.184   4.134 -2.0094  0.6785  0.5491
 4633TIP3    H213864   5.484   6.089   4.139 -0.4858 -1.2953  0.0868
 4634TIP3   OH213865   1.252   0.174   0.505  0.0595 -0.2688 -0.7305
 4634TIP3    H113866   1.183   0.206   0.564  2.3300  0.8369  1.5322
 4634TIP3    H213867   1.284   0.253   0.461  0.2115 -0.6956 -1.3956
 4635TIP3   OH213868   5.197   0.292   2.949 -0.0167  0.0558 -0.0918
 4635TIP3    H113869   5.204   0.264   2.858  0.4877  0.0799 -0.0612
 4635TIP3    H213870   5.125   0.355   2.949  0.9637  1.2009 -0.7531
 4636TIP3   OH213871   2.679   5.618   1.099 -0.3731  0.1539  0.0364
 4636TIP3    H113872   2.630   5.547   1.141  0.3079  0.9812  2.4145
 4636TIP3    H213873   2.704   5.583   1.014 -0.9147 -2.0838  0.7333
 4637TIP3   OH213874   6.484   0.498   0.664  0.4249  0.3618  0.3965
 4637TIP3    H113875   6.476   0.429   0.599  1.4302  0.9673 -0.4097
 4637TIP3    H213876   6.522   0.456   0.741 -0.9166 -0.3929  0.6787
 4638TIP3   OH213877   1.529   1.755   1.836  0.6980 -0.3192  0.6988
 4638TIP3    H113878   1.539   1.738   1.930 -0.7682  1.2605  1.1928
 4638TIP3    H213879   1.615   1.783   1.807  0.4846  2.3555  2.3373
 4639TIP3   OH213880   6.833   6.648   1.846  0.3522 -0.2795  0.1518
 4639TIP3    H113881   6.861   6.588   1.777 -1.1693 -0.2670 -0.5330
 4639TIP3    H213882   6.854   6.603   1.928  0.9385 -0.9071 -0.3351
 4640TIP3   OH213883   3.656   4.505   5.576  0.2054  0.5561  0.4386
 4640TIP3    H113884   3.652   4.457   5.493 -0.8876  0.5134  0.4967
 4640TIP3    H213885   3.740   4.481   5.614  0.0951 -0.5598  0.0102
 4641TIP3   OH213886   1.960   5.553   2.443 -0.2485  0.0420  0.4020
 4641TIP3    H113887   1.981   5.622   2.381 -0.2733  0.3220  0.7015
 4641TIP3    H213888   1.864   5.550   2.445 -0.2551 -0.8230 -0.5091
 4642TIP3   OH213889   3.573   5.235   3.183 -0.5416  0.2481  0.1449
 4642TIP3    H113890   3.528   5.201   3.261 -0.2456 -2.2903 -0.7000
 4642TIP3    H213891   3.524   5.198   3.109  0.3160  1.0468 -0.8508
 4643TIP3   OH213892   7.099   1.361   1.831  0.0871  0.1136  0.4454
 4643TIP3    H113893   7.165   1.293   1.818 -0.1180 -0.1567  0.7865
 4643TIP3    H213894   7.016   1.314   1.831  0.0451  0.0774  2.4989
 4644TIP3   OH213895   3.416   4.629   5.584  0.0501  0.0749  0.4380
 4644TIP3    H113896   3.490   4.570   5.592 -1.1036 -1.4083  0.7129
 4644TIP3    H213897   3.445   4.711   5.625  2.4092  0.4714 -1.7569
 4645TIP3   OH213898   1.372   0.007   5.852  0.5507 -0.0936 -0.1323
 4645TIP3    H113899   1.433   0.066   5.808 -0.3483  0.5150 -0.6231
 4645TIP3    H213900   1.407  -0.003   5.940  1.4263  0.1230 -0.4432
 4646TIP3   OH213901   5.470   3.361   1.715  0.1602 -0.1781  0.2678
 4646TIP3    H113902   5.476   3.418   1.791  2.2211 -0.1815  0.1754
 4646TIP3    H213903   5.500   3.415   1.642 -1.4934 -0.2686 -0.5133
 4647TIP3   OH213904   6.616   1.078   5.090 -0.2358  0.0919  0.0626
 4647TIP3    H113905   6.673   1.037   5.025 -0.2052 -0.4867  0.4462
 4647TIP3    H213906   6.554   1.010   5.114  0.5012 -0.1076  1.5374
 4648TIP3   OH213907   1.352   2.486   3.242  0.4672 -0.7296  0.1153
 4648TIP3    H113908   1.321   2.550   3.306 -0.0881 -0.4504 -0.4151
 4648TIP3    H213909   1.401   2.538   3.178  1.8369 -1.1317  0.7988
 4649TIP3   OH213910   1.714   5.391   1.092  0.5286 -1.2162  0.5610
 4649TIP3    H113911   1.709   5.327   1.163 -2.2888  0.0236  1.6330
 4649TIP3    H213912   1.703   5.476   1.136  1.9369 -0.1265 -1.0624
 4650TIP3   OH213913   5.409   1.670   3.947  0.2104  0.1086  0.6251
 4650TIP3    H113914   5.364   1.588   3.966 -1.7281  0.0607 -3.2448
 4650TIP3    H213915   5.484   1.644   3.893  0.9740  0.7750  1.3239
 4651TIP3   OH213916   4.608   1.744   3.009 -0.8695  0.3319 -0.3114
 4651TIP3    H113917   4.588   1.686   3.083 -0.0571 -0.2829 -0.5572
 4651TIP3    H213918   4.690   1.786   3.033 -0.6940  0.2659 -0.7806
 4652TIP3   OH213919   2.462   6.218   2.180  0.2706  0.4248  0.2394
 4652TIP3    H113920   2.458   6.161   2.257 -1.8752 -0.0189 -0.1574
 4652TIP3    H213921   2.436   6.304   2.212 -1.0018  0.1559 -0.0471
 4653TIP3   OH213922   4.180   1.274   4.405  0.0021 -0.0997  0.0393
 4653TIP3    H113923   4.231   1.341   4.451 -0.7780  0.4459  0.1306
 4653TIP3    H213924   4.229   1.194   4.418  1.4794  0.6135 -0.9018
 4654TIP3   OH213925   3.054   0.760   5.240 -0.2257  0.1910  0.1058
 4654TIP3    H113926   3.079   0.686   5.184 -1.9018  0.0688 -0.5395
 4654TIP3    H213927   3.134   0.812   5.248  0.4918 -0.6880 -1.0187
 4655TIP3   OH213928   5.040   2.539   4.194  0.0821  0.4541  0.1318
 4655TIP3    H113929   4.992   2.462   4.161 -1.4779  1.1199  0.7185
 4655TIP3    H213930   5.129   2.528   4.161 -1.0050  0.4145 -3.1688
 4656TIP3   OH213931   0.318   2.109   4.129 -0.1792 -0.4062  0.2902
 4656TIP3    H113932   0.412   2.122   4.142 -0.2190  0.6222 -0.3573
 4656TIP3    H213933   0.298   2.153   4.046 -1.2506 -0.5048  0.4725
 4657TIP3   OH213934   6.383   2.406   3.156 -0.0553  0.1507  0.2834
 4657TIP3    H113935   6.420   2.325   3.191 -0.7912  0.3189  1.5043
 4657TIP3    H213936   6.288   2.397   3.168 -0.3033  0.4829 -1.1431
 4658TIP3   OH213937   3.580   2.109   4.723 -0.2366 -0.4784 -0.1761
 4658TIP3    H113938   3.540   2.086   4.807 -2.4981  0.3232 -0.9688
 4658TIP3    H213939   3.513   2.087   4.658  1.1812 -0.3876 -1.7274
 4659TIP3   OH213940   6.469   6.554   1.152  0.1365 -0.0159  0.0957
 4659TIP3    H113941   6.460   6.488   1.221  0.2293  0.7435  0.8580
 4659TIP3    H213942   6.379   6.578   1.130  0.0898 -0.7692 -0.5630
 4660TIP3   OH213943   2.059   2.999   2.824  0.6023 -0.3486 -0.2456
 4660TIP3    H113944   2.108   3.023   2.903 -2.8078  2.3596  1.3341
 4660TIP3    H213945   1.976   2.964   2.858 -0.3519 -0.5924 -2.6633
 4661TIP3   OH213946   1.235   5.124   0.195  0.6738  0.3274 -0.1395
 4661TIP3    H113947   1.228   5.074   0.114 -2.7256  0.8130 -0.2973
 4661TIP3    H213948   1.210   5.063   0.264  0.6829  0.6955  0.1941
 4662TIP3   OH213949   4.716   5.192   0.999  0.3886  0.2779 -0.1413
 4662TIP3    H113950   4.778   5.253   1.039  1.0022  0.5449 -1.4111
 4662TIP3    H213951   4.762   5.161   0.920  0.5690 -2.6990  1.0179
 4663TIP3   OH213952   5.853   1.750   4.554  0.3098 -0.1155 -0.3003
 4663TIP3    H113953   5.917   1.809   4.594  0.4378 -0.3011 -0.2329
 4663TIP3    H213954   5.847   1.779   4.463 -0.2364  0.5303 -0.0706
 4664TIP3   OH213955   5.051   0.568   0.011  0.1214  0.3033 -0.5966
 4664TIP3    H113956   4.990   0.503   0.047  1.7329 -0.5039  0.8120
 4664TIP3    H213957   5.023   0.651   0.049 -0.5191  0.0517 -0.5127
 4665TIP3   OH213958   5.909   2.405   1.855  0.7767 -0.5577 -0.2195
 4665TIP3    H113959   5.840   2.466   1.880  0.3449 -0.7103 -0.9987
 4665TIP3    H213960   5.955   2.385   1.937 -0.2533 -0.6384  0.3523
 4666TIP3   OH213961   1.900   0.380   2.388  0.3776 -0.1314  0.3017
 4666TIP3    H113962   1.914   0.388   2.293  1.4592 -2.5227  0.1908
 4666TIP3    H213963   1.904   0.470   2.420 -0.6981  0.8317 -1.9874
 4667TIP3   OH213964   1.459   6.065   1.231 -0.0923 -0.7398  1.1201
 4667TIP3    H113965   1.410   6.135   1.273  0.5408  0.4945 -0.1298
 4667TIP3    H213966   1.534   6.049   1.289  0.3443  0.3876  0.8887
 4668TIP3   OH213967   2.088   1.799   3.831  0.1136 -0.4279  0.0820
 4668TIP3    H113968   2.073   1.873   3.891  0.7421  0.5098 -0.8764
 4668TIP3    H213969   2.001   1.768   3.809 -0.2911  1.2386 -0.9103
 4669TIP3   OH213970   6.672   0.400   4.586  0.1969  0.6078 -0.3761
 4669TIP3    H113971   6.602   0.401   4.521 -0.9067 -0.3504  0.7262
 4669TIP3    H213972   6.674   0.309   4.617  1.6662  0.7179 -0.0991
 4670TIP3   OH213973   5.141   2.159   2.452 -0.4531  0.7117  0.0073
 4670TIP3    H113974   5.211   2.158   2.386  0.4208  0.8881  0.9057
 4670TIP3    H213975   5.080   2.225   2.420 -0.1468  0.6474 -0.7367
 4671TIP3   OH213976   4.489   1.523   2.674  0.2114  0.1148  0.2369
 4671TIP3    H113977   4.432   1.477   2.612 -1.2425  1.3154  0.6212
 4671TIP3    H213978   4.481   1.615   2.649  0.6020  0.4810  1.3999
 4672TIP3   OH213979   3.877   5.274   3.044 -0.3136 -0.4519 -0.0741
 4672TIP3    H113980   3.788   5.255   3.012 -0.6900 -1.1936  1.3198
 4672TIP3    H213981   3.869   5.359   3.087 -0.0478  0.0498 -0.9818
 4673TIP3   OH213982   4.130   6.220   3.019  0.4339 -0.2384 -0.1414
 4673TIP3    H113983   4.119   6.299   2.966 -0.6162 -0.4428 -0.2561
 4673TIP3    H213984   4.165   6.252   3.103 -0.4973  0.4273  0.0092
 4674TIP3   OH213985   4.492   3.959   4.032 -0.3728  0.2551 -0.6194
 4674TIP3    H113986   4.550   4.035   4.036  0.9026 -0.6610 -1.0397
 4674TIP3    H213987   4.538   3.897   3.976 -0.3398 -1.7097  1.4740
 4675TIP3   OH213988   6.513   2.953   5.656 -0.6658 -0.3362 -0.1102
 4675TIP3    H113989   6.550   2.939   5.568  1.6447 -1.1094  0.9135
 4675TIP3    H213990   6.532   2.872   5.703 -1.6096  0.1854  1.2202
 4676TIP3   OH213991   4.635   5.123   4.226  0.0092 -0.1970  0.2336
 4676TIP3    H113992   4.695   5.064   4.271  0.1245 -0.8043 -0.6915
 4676TIP3    H213993   4.688   5.199   4.204 -0.1276  0.2543  1.3796
 4677TIP3   OH213994   0.980   4.148   4.421 -0.5809  0.0648  0.4402
 4677TIP3    H113995   0.890   4.159   4.450 -1.0070  0.6209 -0.9753
 4677TIP3    H213996   0.973   4.119   4.330  0.6428  1.1363 -0.0412
 4678TIP3   OH213997   6.846   4.284   0.069  0.0036  0.1750  0.1715
 4678TIP3    H113998   6.914   4.255   0.008  0.3892  1.1350  0.1308
 4678TIP3    H213999   6.771   4.227   0.051  0.8440 -1.0273  0.3403
 4679TIP3   OH214000   2.087   0.431   4.955 -0.1512 -0.1145 -0.1172
 4679TIP3    H114001   2.172   0.471   4.968  0.0109 -1.0484  2.0614
 4679TIP3    H214002   2.106   0.342   4.926 -0.4673  0.2305 -1.5062
 4680TIP3   OH214003   1.015   0.862   3.450 -0.0624  0.8193 -0.0895
 4680TIP3    H114004   0.932   0.906   3.432 -0.0270  1.2783  0.8308
 4680TIP3    H214005   1.038   0.820   3.367 -0.9251  1.1605 -0.5142
 4681TIP3   OH214006   0.694   5.044   4.004  0.2998 -0.0763 -0.5297
 4681TIP3    H114007   0.709   5.074   3.914 -0.1925  1.1578 -0.2232
 4681TIP3    H214008   0.754   5.096   4.057  2.1734 -2.3195 -0.3183
 4682TIP3   OH214009   5.954   5.517   3.251 -0.5710  0.1656 -0.6052
 4682TIP3    H114010   5.888   5.470   3.302  0.7738 -0.4542  0.6133
 4682TIP3    H214011   6.017   5.548   3.316 -0.0046  1.3281 -1.6751
 4683TIP3   OH214012   1.503   1.398   0.020  0.4612  0.0213  0.3720
 4683TIP3    H114013   1.567   1.467   0.033 -0.0860  0.3719  1.2981
 4683TIP3    H214014   1.418   1.442   0.024  0.1297 -0.2571 -1.8898
 4684TIP3   OH214015   4.751   0.109   0.795 -0.0376  0.0820  0.0595
 4684TIP3    H114016   4.695   0.042   0.756 -1.4629  1.2393  0.0598
 4684TIP3    H214017   4.838   0.069   0.796 -0.8613 -1.8362  0.2068
 4685TIP3   OH214018   0.134   0.843   5.233 -0.2544  0.0932  0.2938
 4685TIP3    H114019   0.076   0.910   5.269  0.1483  0.9833 -0.6942
 4685TIP3    H214020   0.098   0.760   5.266 -0.4796  0.8018  1.9180
 4686TIP3   OH214021   5.141   5.700   4.099 -0.4866 -0.1829  0.5097
 4686TIP3    H114022   5.228   5.676   4.132  0.1194 -0.8589 -1.4949
 4686TIP3    H214023   5.108   5.621   4.058 -0.9300  0.7740 -1.0532
 4687TIP3   OH214024   3.006   0.210   1.491 -0.4604 -0.3076  0.7018
 4687TIP3    H114025   2.967   0.220   1.578  0.2240 -0.1113  0.9908
 4687TIP3    H214026   2.998   0.117   1.471 -2.0456 -0.1121  0.2882
 4688TIP3   OH214027   3.610   5.091   2.243  0.0989 -0.4820  0.2081
 4688TIP3    H114028   3.581   5.004   2.271  1.0665 -0.3470  1.7470
 4688TIP3    H214029   3.629   5.138   2.325  0.2004  0.9712 -0.6099
 4689TIP3   OH214030   5.836   3.567   2.770  0.3742 -0.4570  0.8556
 4689TIP3    H114031   5.788   3.554   2.852  0.6363 -2.0214  0.7888
 4689TIP3    H214032   5.928   3.562   2.796  0.4586 -1.2210  0.4417
 4690TIP3   OH214033   6.767   0.150   3.775 -0.5142 -0.3866 -0.1079
 4690TIP3    H114034   6.707   0.116   3.709  1.1978 -1.0669 -1.3895
 4690TIP3    H214035   6.849   0.163   3.728  0.6067 -0.3357  1.7682
 4691TIP3   OH214036   0.759   5.728   5.365 -0.0888 -0.2427 -0.0146
 4691TIP3    H114037   0.675   5.688   5.345 -0.2782 -0.2174  0.6850
 4691TIP3    H214038   0.773   5.708   5.458  1.2286 -1.2455 -0.4054
 4692TIP3   OH214039   3.454   0.869   5.649  0.7153 -0.1076  0.0350
 4692TIP3    H114040   3.477   0.810   5.577 -0.2757  0.8279 -1.1070
 4692TIP3    H214041   3.536   0.912   5.673  1.0643 -0.4531 -0.5372
 4693TIP3   OH214042   3.002   5.958   0.885 -0.0470  0.2119  0.1479
 4693TIP3    H114043   3.079   5.927   0.837 -0.0521 -1.1164  0.9374
 4693TIP3    H214044   3.027   5.951   0.977 -0.9579  0.1571  0.4036
 4694TIP3   OH214045   2.960   4.666   3.333  0.0741 -0.0842  0.0314
 4694TIP3    H114046   3.025   4.732   3.358  1.3301 -1.3678  0.3110
 4694TIP3    H214047   2.911   4.707   3.262  0.6785  1.2295  0.3439
 4695TIP3   OH214048   6.668   5.597   4.033  0.3542  0.5724  0.2629
 4695TIP3    H114049   6.749   5.633   3.997  1.1635 -0.4834  0.9530
 4695TIP3    H214050   6.697   5.542   4.106 -1.0583  0.8267  1.0413
 4696TIP3   OH214051   3.516   2.385   2.289 -0.0085 -0.0482  0.3642
 4696TIP3    H114052   3.591   2.328   2.275  0.1025  0.1199  0.2717
 4696TIP3    H214053   3.442   2.336   2.255  0.4464  0.9491 -2.3030
 4697TIP3   OH214054   3.972   4.869   0.310  0.7440  0.2657  0.1632
 4697TIP3    H114055   3.947   4.792   0.361  0.5557 -0.5897 -1.1764
 4697TIP3    H214056   4.023   4.922   0.371  1.2745 -1.1341  0.9972
 4698TIP3   OH214057   5.648   5.201   4.459  0.2048  0.6034  0.2689
 4698TIP3    H114058   5.620   5.146   4.532 -0.7505  0.8000  0.0606
 4698TIP3    H214059   5.638   5.145   4.382  0.0129  0.8055  0.1476
 4699TIP3   OH214060   1.807   0.092   0.679 -0.1304  0.3802 -0.0406
 4699TIP3    H114061   1.789   0.183   0.699 -2.2565 -0.0813  0.4044
 4699TIP3    H214062   1.720   0.051   0.673  0.7581 -1.9677  1.5285
 4700TIP3   OH214063   1.449   0.313   2.827  0.0698  0.4086 -0.4312
 4700TIP3    H114064   1.445   0.339   2.735 -1.2591  0.9485 -0.2507
 4700TIP3    H214065   1.541   0.294   2.843  0.5808  1.8358 -1.4736
 4701TIP3   OH214066   5.728   5.160   1.724  0.2338 -0.3055 -0.2108
 4701TIP3    H114067   5.813   5.147   1.767  0.3180  0.1526 -0.2359
 4701TIP3    H214068   5.680   5.079   1.741 -0.3214  0.4288  2.1180
 4702TIP3   OH214069   0.855   5.451   1.068  0.6757 -0.2855 -0.5580
 4702TIP3    H114070   0.866   5.496   1.151  1.2273 -0.4550 -0.5324
 4702TIP3    H214071   0.761   5.456   1.049  0.6445  0.3055 -0.2440
 4703TIP3   OH214072   4.981   2.673   4.431 -0.1925 -0.2239 -0.4568
 4703TIP3    H114073   4.977   2.615   4.355 -0.8951  0.5153 -0.9928
 4703TIP3    H214074   5.058   2.643   4.480  0.4942 -0.4638 -1.6560
 4704TIP3   OH214075   4.696   3.756   0.426  0.2051  1.0857 -0.4232
 4704TIP3    H114076   4.671   3.678   0.476  0.1016  1.8046  0.6897
 4704TIP3    H214077   4.785   3.738   0.396 -0.6452 -0.4195 -2.2045
 4705TIP3   OH214078   3.637   3.016   4.977  0.1292  0.2210 -0.0670
 4705TIP3    H114079   3.654   2.956   4.904 -0.8725 -0.1230 -0.0365
 4705TIP3    H214080   3.586   2.964   5.039  1.3790  0.3645  1.1164
 4706TIP3   OH214081   6.111   5.680   1.479  0.4020 -0.1186  0.0006
 4706TIP3    H114082   6.123   5.647   1.390 -0.0409  0.5314 -0.3118
 4706TIP3    H214083   6.048   5.619   1.518 -1.2962  0.9526 -0.9460
 4707TIP3   OH214084   2.234   1.832   5.070 -0.4784 -0.1515 -0.1548
 4707TIP3    H114085   2.281   1.856   4.990 -2.9795 -0.3850 -1.8025
 4707TIP3    H214086   2.217   1.738   5.061  0.5974 -0.5486  1.4783
 4708TIP3   OH214087   0.745   2.614   4.221 -0.2810  0.0042 -0.0595
 4708TIP3    H114088   0.656   2.637   4.196 -0.1705  0.6565  0.1160
 4708TIP3    H214089   0.738   2.580   4.311 -0.3666 -0.0659 -0.0932
 4709TIP3   OH214090   3.356   0.521   1.888 -0.2878 -0.1826  0.7408
 4709TIP3    H114091   3.318   0.605   1.866 -3.2490 -1.5447  0.2214
 4709TIP3    H214092   3.397   0.491   1.807 -1.8620 -0.5358  0.0588
 4710TIP3   OH214093   1.337   5.469   1.227 -0.2994  0.6699  0.1697
 4710TIP3    H114094   1.412   5.490   1.171 -0.7263  2.9448  0.3483
 4710TIP3    H214095   1.263   5.513   1.185 -1.3210 -0.4876  0.6772
 4711TIP3   OH214096   2.589   3.014   1.158  0.3523 -0.7489  0.1966
 4711TIP3    H114097   2.497   2.989   1.167 -0.6352  1.7315 -1.9020
 4711TIP3    H214098   2.589   3.109   1.163  2.4235 -0.5037 -2.2735
 4712TIP3   OH214099   6.096   5.720   0.408 -0.5270  0.1472  0.7169
 4712TIP3    H114100   6.103   5.625   0.396 -1.5123  0.2032 -0.5507
 4712TIP3    H214101   6.184   5.753   0.392 -0.1140 -0.5547  1.4218
 4713TIP3   OH214102   1.988   5.353   0.042  0.5393 -0.5791  0.0758
 4713TIP3    H114103   1.948   5.315   0.120  0.3900  0.6388  0.6237
 4713TIP3    H214104   1.914   5.374  -0.015  0.4457  0.6708  0.6242
 4714TIP3   OH214105   6.521   2.967   4.645 -0.2618 -0.0631 -0.0498
 4714TIP3    H114106   6.464   3.015   4.706 -1.3192 -0.1748 -0.9230
 4714TIP3    H214107   6.465   2.948   4.570  0.7859 -0.6777 -0.6963
 4715TIP3   OH214108   3.803   2.910   2.278  0.4088 -0.3444  0.4437
 4715TIP3    H114109   3.744   2.923   2.353  0.3785  2.8176  0.0271
 4715TIP3    H214110   3.889   2.897   2.319  0.1340 -0.3243  1.0513
 4716TIP3   OH214111   0.378   4.817   3.245  0.8032  0.2905 -0.0599
 4716TIP3    H114112   0.357   4.749   3.181 -0.2383 -0.4343  0.9978
 4716TIP3    H214113   0.370   4.899   3.198 -0.9384 -0.1680 -0.6208
 4717TIP3   OH214114   4.531   0.790   4.890  0.4649  0.3922  0.1107
 4717TIP3    H114115   4.518   0.834   4.806  0.2390 -1.0522 -0.6512
 4717TIP3    H214116   4.614   0.825   4.922  1.2053  0.0610 -1.3364
 4718TIP3   OH214117   4.199   0.366   4.864 -0.2229  1.0824  0.0689
 4718TIP3    H114118   4.187   0.428   4.935 -0.7728  0.5104  0.4898
 4718TIP3    H214119   4.134   0.297   4.881  0.4790  0.3118 -0.2912
 4719TIP3   OH214120   1.478   3.867   0.174  0.5246  0.3194  0.2426
 4719TIP3    H114121   1.495   3.899   0.085  0.1585  0.1640  0.1148
 4719TIP3    H214122   1.385   3.883   0.189  0.2737 -0.8629  0.0863
 4720TIP3   OH214123   4.637   6.559   1.017 -0.4225  0.3906 -0.7733
 4720TIP3    H114124   4.702   6.500   1.056  3.3553  4.0749 -0.7006
 4720TIP3    H214125   4.651   6.551   0.923  0.7201  1.5780 -0.7448
 4721TIP3   OH214126   6.621   3.235   3.752 -0.3224  0.2346  0.6698
 4721TIP3    H114127   6.704   3.192   3.730 -1.3427 -0.7645 -1.5552
 4721TIP3    H214128   6.645   3.300   3.818  2.1529 -0.3236  0.4375
 4722TIP3   OH214129   4.335   2.970   2.166 -0.6562  0.0942 -0.5025
 4722TIP3    H114130   4.331   2.971   2.070 -1.9519  3.3315 -0.5253
 4722TIP3    H214131   4.283   2.894   2.191 -0.5724 -0.6227 -2.3281
 4723TIP3   OH214132   2.134   1.195   3.759  0.8533  0.7864  0.3343
 4723TIP3    H114133   2.041   1.205   3.780  1.0423  0.3737  1.4057
 4723TIP3    H214134   2.135   1.148   3.676  0.0976  1.8357 -0.3001
 4724TIP3   OH214135   7.081   4.309   2.941  0.3600 -0.5022  0.0301
 4724TIP3    H114136   7.060   4.290   3.033  2.4600 -1.8426  0.3074
 4724TIP3    H214137   7.055   4.401   2.929  0.9709  0.0277  2.2716
 4725TIP3   OH214138   4.576   6.776   4.823  0.3146  0.8196 -0.2735
 4725TIP3    H114139   4.615   6.693   4.851  0.0898  0.9934  0.6002
 4725TIP3    H214140   4.621   6.842   4.876 -1.3410  0.9985  1.0009
 4726TIP3   OH214141   6.284   1.777   3.731  0.0146 -0.0110 -0.3974
 4726TIP3    H114142   6.284   1.681   3.727  0.9048 -0.0696  0.5362
 4726TIP3    H214143   6.194   1.799   3.758  0.1085 -0.6639  0.5126
 4727TIP3   OH214144   1.834   1.156   0.756  0.0238 -0.1018 -0.0867
 4727TIP3    H114145   1.900   1.221   0.733  0.1213  0.0263  0.5452
 4727TIP3    H214146   1.847   1.140   0.849 -0.7443 -0.1754  0.0145
 4728TIP3   OH214147   0.621   6.428   4.128 -0.1018 -0.0740  0.3865
 4728TIP3    H114148   0.581   6.391   4.049 -1.8801 -0.8821  1.5783
 4728TIP3    H214149   0.547   6.464   4.178  0.8519 -0.2255  1.9944
 4729TIP3   OH214150   5.773   4.446   4.170  0.1239 -0.3600  0.0563
 4729TIP3    H114151   5.689   4.493   4.168 -0.4725 -1.3964  0.4130
 4729TIP3    H214152   5.766   4.387   4.245  1.3815 -0.1017  0.3997
 4730TIP3   OH214153   6.561   0.205   2.129 -0.8421  0.0915  0.0165
 4730TIP3    H114154   6.622   0.278   2.139 -0.8251  0.0548  0.1997
 4730TIP3    H214155   6.593   0.139   2.191 -0.8450 -0.0782 -0.1639
 4731TIP3   OH214156   4.549   0.444   5.357 -0.7524  0.4905 -0.3200
 4731TIP3    H114157   4.618   0.447   5.290 -0.9208  0.4128 -0.4964
 4731TIP3    H214158   4.478   0.496   5.320 -0.4757  1.2686  0.2206
 4732TIP3   OH214159   5.525   2.932   1.318 -0.0887  0.2188  0.7767
 4732TIP3    H114160   5.485   2.908   1.401 -0.5157 -0.2734  0.4340
 4732TIP3    H214161   5.500   2.862   1.258  0.0516  0.6656  0.1859
 4733TIP3   OH214162   5.314   2.828   4.420  0.4738  0.4189  0.3751
 4733TIP3    H114163   5.284   2.755   4.473 -0.6612  0.7836  0.2646
 4733TIP3    H214164   5.262   2.902   4.450 -0.4271  0.5672 -1.4425
 4734TIP3   OH214165   4.346   1.372   0.682  0.0230  0.2044  0.0572
 4734TIP3    H114166   4.369   1.300   0.741  1.6530 -0.1071 -0.8907
 4734TIP3    H214167   4.317   1.443   0.740  0.2450 -0.5640  1.1274
 4735TIP3   OH214168   4.564   6.338   4.566  0.2547 -0.2651  0.9314
 4735TIP3    H114169   4.494   6.276   4.547  1.0843 -1.4218  1.4879
 4735TIP3    H214170   4.574   6.389   4.486  0.8624 -2.1906 -0.2751
 4736TIP3   OH214171   5.071   4.069   4.116 -0.0701 -0.4812  0.0672
 4736TIP3    H114172   5.161   4.037   4.109 -0.3354 -1.1418 -0.3344
 4736TIP3    H214173   5.021   4.016   4.054 -0.8912 -0.6647  0.8699
 4737TIP3   OH214174   0.602   3.904   1.598 -0.6410 -0.1378 -0.0978
 4737TIP3    H114175   0.528   3.845   1.610 -1.5064  0.6122 -1.5408
 4737TIP3    H214176   0.568   3.976   1.545  0.0973  2.2145  2.3686
 4738TIP3   OH214177   4.978   1.958   3.669  0.0808 -0.2802 -0.2040
 4738TIP3    H114178   4.923   1.927   3.597  1.2191 -0.3004 -1.1026
 4738TIP3    H214179   5.042   2.015   3.627  1.0488 -0.6565  0.7198
 4739TIP3   OH214180   5.929   1.025   4.334  0.4327  0.7628 -0.0527
 4739TIP3    H114181   5.838   1.019   4.362  0.1854  0.2272 -0.9259
 4739TIP3    H214182   5.971   1.082   4.399 -0.2198 -0.0280  1.0920
 4740TIP3   OH214183   6.303   0.523   5.816 -0.4559  0.4041 -0.7320
 4740TIP3    H114184   6.232   0.570   5.771  0.6421  0.3670 -2.6136
 4740TIP3    H214185   6.293   0.432   5.790  0.1545  0.3626 -0.8477
 4741TIP3   OH214186   7.030   5.315   4.822 -0.2962 -0.2655  0.1203
 4741TIP3    H114187   6.964   5.340   4.887  0.1970  0.1906  0.4479
 4741TIP3    H214188   7.077   5.243   4.863 -0.1625 -0.1572  0.1566
 4742TIP3   OH214189   2.927   1.009   0.234  0.2547  0.0893 -0.5875
 4742TIP3    H114190   2.958   0.997   0.144  0.1757  0.6301 -0.6874
 4742TIP3    H214191   2.853   0.949   0.241  0.9381 -0.7679 -0.5323
 4743TIP3   OH214192   5.352   2.974   3.758 -0.3848 -0.5011 -0.1289
 4743TIP3    H114193   5.402   3.044   3.799 -1.4550  1.2175 -1.6128
 4743TIP3    H214194   5.417   2.907   3.737  0.8682  0.5599  0.2518
 4744TIP3   OH214195   3.142   1.850   3.061  0.0270  0.3803  0.3108
 4744TIP3    H114196   3.164   1.893   3.144 -2.1308  0.4105  0.9378
 4744TIP3    H214197   3.176   1.909   2.994  0.2556  1.2836  1.1832
 4745TIP3   OH214198   4.952   1.923   2.382  0.1358  0.0418 -0.1735
 4745TIP3    H114199   4.959   2.017   2.365  0.7310 -0.0560 -0.5191
 4745TIP3    H214200   4.870   1.913   2.429  0.2612  0.7869  0.2254
 4746TIP3   OH214201   0.311   5.301   1.736  0.1239  0.1476  0.0046
 4746TIP3    H114202   0.217   5.282   1.739  0.4213 -2.1410 -1.8479
 4746TIP3    H214203   0.342   5.282   1.824 -1.1119  0.9863  0.6597
 4747TIP3   OH214204   2.193   3.818   3.570  0.6089 -0.2226  0.7430
 4747TIP3    H114205   2.161   3.799   3.481 -3.2485  1.6625  1.4952
 4747TIP3    H214206   2.157   3.749   3.624  1.3492 -0.3264  1.1102
 4748TIP3   OH214207   6.208   0.976   4.009  0.0423  0.5927 -0.2390
 4748TIP3    H114208   6.232   1.068   3.995 -1.8284  0.9955 -1.1348
 4748TIP3    H214209   6.223   0.962   4.103  1.5449  1.4059 -0.3148
 4749TIP3   OH214210   0.513   2.027   4.379  0.4678 -0.2868 -0.2684
 4749TIP3    H114211   0.523   2.104   4.436  2.1523 -0.5989 -0.0819
 4749TIP3    H214212   0.596   2.022   4.332  0.0425 -1.4985 -0.9148
 4750TIP3   OH214213   0.683   3.277   5.639  0.1608  0.4019  0.6953
 4750TIP3    H114214   0.647   3.301   5.555  1.6886 -1.3145 -0.5410
 4750TIP3    H214215   0.612   3.292   5.702 -1.6928 -0.1661 -1.1629
 4751TIP3   OH214216   0.891   1.684   3.012 -0.1346 -0.3012  0.1775
 4751TIP3    H114217   0.967   1.665   2.957 -0.4164 -1.1616  0.0710
 4751TIP3    H214218   0.832   1.609   2.999 -1.8813  1.2393 -1.2197
 4752TIP3   OH214219   2.895   3.569   0.624 -0.2905  0.4606  0.2372
 4752TIP3    H114220   2.920   3.477   0.616 -0.1071  0.4663  0.6995
 4752TIP3    H214221   2.809   3.574   0.584 -0.0213  0.2183 -0.3794
 4753TIP3   OH214222   4.820   5.250   2.857 -0.4969 -0.0742  0.2473
 4753TIP3    H114223   4.784   5.166   2.884 -0.0921  0.1548  1.5502
 4753TIP3    H214224   4.808   5.307   2.933  1.2045  0.4296  0.1727
 4754TIP3   OH214225   2.581   3.666   5.828  0.4626 -0.2077 -0.3577
 4754TIP3    H114226   2.576   3.578   5.864  0.6112 -0.2753 -0.5015
 4754TIP3    H214227   2.508   3.670   5.766 -0.0159  0.0323  0.2150
 4755TIP3   OH214228   5.031   5.756   2.658  0.2659 -0.1332 -0.1318
 4755TIP3    H114229   5.103   5.697   2.639  0.2674 -0.0274 -0.4694
 4755TIP3    H214230   5.024   5.811   2.580 -1.1599 -1.1278 -0.7592
 4756TIP3   OH214231   1.026   5.400   1.427  0.5076  0.3267 -0.1734
 4756TIP3    H114232   0.938   5.368   1.445  0.6990 -0.3610 -0.3870
 4756TIP3    H214233   1.082   5.324   1.444  1.2512  1.1984  1.5810
 4757TIP3   OH214234   6.826   1.954   4.288  0.0783  0.0324 -0.9044
 4757TIP3    H114235   6.840   1.930   4.196 -0.0604 -2.7257 -0.2855
 4757TIP3    H214236   6.739   1.920   4.308  0.1910  0.4268  0.3180
 4758TIP3   OH214237   2.574   1.145   5.213 -0.4233 -0.6881 -0.3400
 4758TIP3    H114238   2.532   1.110   5.135  1.0839 -1.8524 -0.6745
 4758TIP3    H214239   2.655   1.185   5.180 -1.9058  3.0169  0.0392
 4759TIP3   OH214240   0.270   1.682   2.496 -0.1187 -0.3829  0.2737
 4759TIP3    H114241   0.200   1.616   2.496 -0.6753  0.1817  1.2489
 4759TIP3    H214242   0.349   1.634   2.471 -0.4102 -1.5306  1.4494
 4760TIP3   OH214243   4.996   5.440   5.350 -0.5813 -0.1917  0.0798
 4760TIP3    H114244   5.066   5.379   5.374  0.6825  1.4278  0.6615
 4760TIP3    H214245   4.923   5.383   5.325  1.2621 -1.9702 -1.6634
 4761TIP3   OH214246   4.674   4.993   5.173  0.0406  0.5704  0.5738
 4761TIP3    H114247   4.643   4.930   5.238 -0.4676  1.2026  0.9478
 4761TIP3    H214248   4.651   4.953   5.089 -0.7165  0.4857  0.8202
 4762TIP3   OH214249   3.592   3.532   0.412 -0.3005  0.5534 -0.1458
 4762TIP3    H114250   3.637   3.575   0.485 -1.0026 -0.9207  1.2117
 4762TIP3    H214251   3.654   3.466   0.381 -0.3895  0.4941 -0.1987
 4763TIP3   OH214252   3.758   6.754   3.389  0.1002  0.2149 -0.0865
 4763TIP3    H114253   3.780   6.782   3.478 -0.0267  0.4678 -0.1351
 4763TIP3    H214254   3.662   6.758   3.386  0.1608  1.7923 -0.7541
 4764TIP3   OH214255   2.554   1.140   4.524  0.3437 -0.1800  0.1074
 4764TIP3    H114256   2.541   1.045   4.519 -0.5550 -0.0088 -2.4423
 4764TIP3    H214257   2.646   1.151   4.547  0.8998 -1.7228 -1.2242
 4765TIP3   OH214258   4.590   1.315   4.382  0.0339  0.2971 -0.8986
 4765TIP3    H114259   4.623   1.387   4.436  3.1973  0.2476 -2.4783
 4765TIP3    H214260   4.544   1.257   4.443 -0.1373  2.2392  0.9205
 4766TIP3   OH214261   6.083   4.153   2.833  0.2869 -0.2697  0.2280
 4766TIP3    H114262   6.033   4.159   2.914 -0.4646  0.8404 -0.3013
 4766TIP3    H214263   6.174   4.170   2.859  0.4455 -2.2509  1.1850
 4767TIP3   OH214264   6.326   2.325   5.449  0.6638 -0.4557 -0.0191
 4767TIP3    H114265   6.330   2.417   5.477  1.5585 -0.1641 -1.0743
 4767TIP3    H214266   6.396   2.316   5.385  0.3644 -1.7998 -0.1771
 4768TIP3   OH214267   1.171   6.527   1.179  0.1787 -0.1753 -0.5678
 4768TIP3    H114268   1.105   6.458   1.184  0.5292 -0.4999 -0.4024
 4768TIP3    H214269   1.211   6.514   1.093  0.7294 -0.6242 -0.2459
 4769TIP3   OH214270   3.714   5.735   3.022  0.9342  0.4770 -0.0503
 4769TIP3    H114271   3.634   5.729   2.970  0.1542  0.4610  1.1310
 4769TIP3    H214272   3.689   5.783   3.100  2.1834  0.8330  0.1511
 4770TIP3   OH214273   6.433   6.483   3.788 -0.1369  0.4615  0.3883
 4770TIP3    H114274   6.421   6.389   3.793 -4.4871  0.8554  1.0655
 4770TIP3    H214275   6.351   6.516   3.750  1.5736  3.9422 -0.7568
 4771TIP3   OH214276   0.059   2.946   5.470 -0.2023 -0.5021  0.1781
 4771TIP3    H114277   0.048   2.903   5.386 -1.1085 -0.2705  0.1641
 4771TIP3    H214278   0.002   3.023   5.466  0.9238  0.3782  0.4273
 4772TIP3   OH214279   0.397   0.572   4.382 -0.6723 -0.5001  0.2305
 4772TIP3    H114280   0.327   0.508   4.391 -0.9077 -0.6339 -1.9091
 4772TIP3    H214281   0.377   0.618   4.300  0.8221  0.6113  0.4356
 4773TIP3   OH214282   1.742   2.646   4.083 -0.6032 -0.0708  0.2962
 4773TIP3    H114283   1.737   2.610   3.995 -0.6477  1.2995 -0.2830
 4773TIP3    H214284   1.799   2.723   4.075  0.7743 -0.8601  1.7969
 4774TIP3   OH214285   4.634   2.716   3.253  0.1625 -0.4946  0.0835
 4774TIP3    H114286   4.667   2.719   3.343  1.3660 -0.1374 -0.3576
 4774TIP3    H214287   4.686   2.648   3.210 -0.0426 -0.2998 -0.4808
 4775TIP3   OH214288   0.775   3.328   4.268 -0.7241 -0.2631 -0.0968
 4775TIP3    H114289   0.835   3.284   4.328  1.4615 -0.2052 -2.1024
 4775TIP3    H214290   0.736   3.398   4.321  1.1907 -0.1288  1.2377
 4776TIP3   OH214291   2.506   6.116   4.033  0.5491 -0.3167 -0.6803
 4776TIP3    H114292   2.571   6.095   4.100  2.0991  0.7377 -1.7792
 4776TIP3    H214293   2.511   6.042   3.972  1.7382  0.3651 -1.4585
 4777TIP3   OH214294   6.797   0.513   1.243 -0.2082 -0.5887 -0.0840
 4777TIP3    H114295   6.846   0.464   1.309  1.0314 -0.2018 -0.6884
 4777TIP3    H214296   6.859   0.579   1.212 -1.1761  0.0191 -0.7673
 4778TIP3   OH214297   1.455   0.883   5.148  0.0556 -0.6500 -0.0317
 4778TIP3    H114298   1.489   0.969   5.172  1.4554 -1.2218  0.1162
 4778TIP3    H214299   1.360   0.896   5.142  0.0978  0.5715  1.3522
 4779TIP3   OH214300   4.172   5.290   0.007  0.0594  0.1065 -0.3527
 4779TIP3    H114301   4.138   5.202   0.024  0.9210 -0.0909  0.4876
 4779TIP3    H214302   4.261   5.288   0.044  0.0689  1.3430 -0.2767
 4780TIP3   OH214303   4.246   5.747   0.773 -0.3161 -0.1708 -0.1742
 4780TIP3    H114304   4.303   5.685   0.818 -0.6882  0.0641  0.6382
 4780TIP3    H214305   4.306   5.805   0.726  0.0352 -1.0160 -0.7773
 4781TIP3   OH214306   0.331   5.527   1.050 -0.0785  0.0488 -0.3954
 4781TIP3    H114307   0.241   5.503   1.030  0.1910  0.1362 -1.7933
 4781TIP3    H214308   0.329   5.551   1.143 -1.5412  0.2953 -0.4612
 4782TIP3   OH214309   6.241   2.279   4.028  0.1868 -0.0846  0.3707
 4782TIP3    H114310   6.276   2.247   4.111 -0.3478  2.7371  1.8306
 4782TIP3    H214311   6.316   2.321   3.986  0.3799 -1.2265 -0.4700
 4783TIP3   OH214312   4.734   5.588   2.823  0.2471 -0.0872  0.0514
 4783TIP3    H114313   4.823   5.575   2.790  1.3518 -0.2306  2.8132
 4783TIP3    H214314   4.678   5.546   2.758  2.0469  1.1246 -2.4240
 4784TIP3   OH214315   5.861   1.433   3.201 -0.3452 -0.0693 -0.0830
 4784TIP3    H114316   5.832   1.342   3.187  2.7515 -0.8563 -2.3462
 4784TIP3    H214317   5.840   1.477   3.119  1.4891  0.2253 -0.4369
 4785TIP3   OH214318   0.897   4.023   3.843 -0.2308  0.4358 -0.0403
 4785TIP3    H114319   0.933   3.960   3.905  0.0321 -0.9058 -1.5101
 4785TIP3    H214320   0.917   3.987   3.757 -1.3267  1.8246 -0.9247
 4786TIP3   OH214321   2.727   1.183   2.120 -0.6584  0.2975 -0.2799
 4786TIP3    H114322   2.808   1.193   2.169  0.3785  0.2499 -1.9334
 4786TIP3    H214323   2.660   1.167   2.188  1.0373 -1.9894  0.9915
 4787TIP3   OH214324   2.635   4.656   3.335  0.3456  0.1578  0.1704
 4787TIP3    H114325   2.631   4.600   3.257  0.1045  0.7458 -0.2413
 4787TIP3    H214326   2.717   4.703   3.326 -1.1868  2.7824 -1.5325
 4788TIP3   OH214327   1.076   5.544   4.345  0.3119  0.2630 -0.7843
 4788TIP3    H114328   1.039   5.456   4.346  0.2198  0.2492 -2.4368
 4788TIP3    H214329   1.140   5.542   4.274  0.3185  1.5286 -0.8355
 4789TIP3   OH214330   3.799   2.126   1.221  0.4932 -0.1442  0.5436
 4789TIP3    H114331   3.716   2.166   1.194  0.6749 -0.0386  0.1280
 4789TIP3    H214332   3.818   2.062   1.153  1.2410  0.5245  0.1075
 4790TIP3   OH214333   0.595   2.113   3.005 -0.8245 -0.2043 -0.2878
 4790TIP3    H114334   0.617   2.201   2.976  1.1338 -0.3743  0.4739
 4790TIP3    H214335   0.627   2.056   2.935  0.7386 -0.4260  0.5511
 4791TIP3   OH214336   2.181   0.340   3.514  0.1521  0.0891  0.2111
 4791TIP3    H114337   2.273   0.322   3.532  0.2899 -0.8118 -1.2862
 4791TIP3    H214338   2.138   0.325   3.598  1.3105  0.1654  0.8477
 4792TIP3   OH214339   2.792   2.957   0.204  0.0677 -1.2707 -0.0707
 4792TIP3    H114340   2.726   2.895   0.235  0.1712 -1.3155  0.0642
 4792TIP3    H214341   2.872   2.933   0.252  0.5212 -2.0493 -1.1616
 4793TIP3   OH214342   1.432   5.370   4.454  0.3596 -0.0269  0.4335
 4793TIP3    H114343   1.392   5.454   4.431  1.9968  1.0815  1.3760
 4793TIP3    H214344   1.468   5.384   4.541 -0.1102 -2.0326  0.9806
 4794TIP3   OH214345   2.356   3.697   2.758  0.0069  0.1038  0.4189
 4794TIP3    H114346   2.292   3.634   2.792  0.9088 -2.7807 -2.7601
 4794TIP3    H214347   2.306   3.750   2.696  0.5920 -2.7864 -2.8141
 4795TIP3   OH214348   5.498   3.529   5.191  0.0808  0.3761  0.2660
 4795TIP3    H114349   5.546   3.449   5.213  0.6383  1.2422  2.4869
 4795TIP3    H214350   5.565   3.598   5.190 -0.2091  0.7376 -2.6797
 4796TIP3   OH214351   3.270   0.273   0.337 -0.3213 -0.1335 -0.1828
 4796TIP3    H114352   3.245   0.267   0.245 -0.6952  0.5439 -0.1299
 4796TIP3    H214353   3.354   0.320   0.335  1.1368 -2.5714 -0.3763
 4797TIP3   OH214354   2.346   5.473   2.635  0.1216  0.3503 -0.8307
 4797TIP3    H114355   2.255   5.467   2.665  0.7881 -2.3198  1.0438
 4797TIP3    H214356   2.357   5.398   2.577  1.4331 -0.1544  0.0271
 4798TIP3   OH214357   4.976   4.992   5.295 -0.2563 -0.1898 -0.5600
 4798TIP3    H114358   4.891   4.959   5.267  0.1494 -0.8696 -1.0235
 4798TIP3    H214359   5.040   4.932   5.255  0.3516 -2.2304  3.0406
 4799TIP3   OH214360   3.208   4.066   0.214  0.1280  0.0695 -0.1222
 4799TIP3    H114361   3.288   4.115   0.229 -0.6881  1.1518  0.8891
 4799TIP3    H214362   3.237   3.980   0.185  1.6303  0.6178 -0.3165
 4800TIP3   OH214363   3.225   5.295   5.406 -0.6597 -0.5114 -0.2948
 4800TIP3    H114364   3.255   5.255   5.324  0.2184 -0.1460 -0.1608
 4800TIP3    H214365   3.130   5.305   5.394 -0.5397 -0.4289 -1.2809
 4801TIP3   OH214366   0.858   5.888   2.376  0.0605 -0.8762 -0.6044
 4801TIP3    H114367   0.890   5.882   2.466 -0.2331  0.1394 -0.4190
 4801TIP3    H214368   0.764   5.873   2.383 -0.1575  0.4421 -0.5684
 4802TIP3   OH214369   1.407   2.015   4.201  0.3872 -0.0095 -0.1482
 4802TIP3    H114370   1.389   1.925   4.175  0.8608  0.5770 -2.9287
 4802TIP3    H214371   1.497   2.031   4.172  0.1537  1.4573 -0.1673
 4803TIP3   OH214372   2.440   0.728   1.321  0.2268 -0.3197  0.3247
 4803TIP3    H114373   2.425   0.634   1.308 -0.2469 -0.0902 -0.8947
 4803TIP3    H214374   2.481   0.757   1.239  0.4443  0.5234  0.7278
 4804TIP3   OH214375   6.526   2.378   3.965  0.7519  0.5619  0.3902
 4804TIP3    H114376   6.544   2.312   4.032  1.3395 -0.0641 -0.3646
 4804TIP3    H214377   6.613   2.410   3.940  0.4378  2.3242  1.4148
 4805TIP3   OH214378   0.997   1.489   3.427 -0.0204 -0.2864 -0.3846
 4805TIP3    H114379   0.915   1.514   3.384  0.1174  0.3861 -0.2724
 4805TIP3    H214380   1.059   1.477   3.356 -0.4411 -1.7446 -0.5432
 4806TIP3   OH214381   3.404   6.571   0.024  0.4632 -0.9016 -0.2850
 4806TIP3    H114382   3.393   6.644  -0.037  0.8741 -0.3127  0.3288
 4806TIP3    H214383   3.428   6.613   0.107  0.7375 -1.7386  0.0670
 4807TIP3   OH214384   5.044   1.201   0.094  0.3323 -0.1756 -0.3134
 4807TIP3    H114385   5.030   1.141   0.021  1.4531  1.3025 -1.8292
 4807TIP3    H214386   5.131   1.181   0.126  1.0185  1.0518 -1.3090
 4808TIP3   OH214387   0.588   5.737   5.741  0.7990 -0.6012  0.3014
 4808TIP3    H114388   0.554   5.744   5.830  0.1801 -1.4309  0.1381
 4808TIP3    H214389   0.535   5.800   5.690 -0.7994 -2.1372 -0.0232
 4809TIP3   OH214390   4.334   4.756   1.172  0.3844 -0.2522  0.3157
 4809TIP3    H114391   4.411   4.708   1.203  0.8453  0.1982 -0.1160
 4809TIP3    H214392   4.314   4.717   1.087 -0.0862 -0.6039  0.5793
 4810TIP3   OH214393   3.251   5.538   3.901  0.0912  0.2435 -0.5485
 4810TIP3    H114394   3.169   5.534   3.950  0.3186 -3.0331 -0.2456
 4810TIP3    H214395   3.224   5.563   3.813 -0.6584  3.2936  0.4177
 4811TIP3   OH214396   4.656   2.256   1.903  0.3224 -0.4362 -0.1038
 4811TIP3    H114397   4.626   2.263   1.994 -1.6704  1.0266 -0.8095
 4811TIP3    H214398   4.607   2.323   1.856  0.0886 -2.2069 -2.5800
 4812TIP3   OH214399   2.408   3.636   3.429  0.1496 -0.6987  0.0938
 4812TIP3    H114400   2.474   3.642   3.498  0.3279 -2.9757  0.2031
 4812TIP3    H214401   2.395   3.542   3.417  0.9396 -0.4775 -3.7323
 4813TIP3   OH214402   5.378   3.705   1.479 -0.3372 -0.2727  0.0592
 4813TIP3    H114403   5.350   3.645   1.410 -0.8090 -0.5542  0.4903
 4813TIP3    H214404   5.472   3.717   1.464 -0.2969 -0.8968 -0.1953
 4814TIP3   OH214405   4.828   1.620   3.720  0.4540  0.9938 -0.5138
 4814TIP3    H114406   4.760   1.677   3.755 -0.7133  0.0434 -1.1490
 4814TIP3    H214407   4.905   1.640   3.772 -1.2549 -0.6673  3.0172
 4815TIP3   OH214408   6.668   0.209   4.868 -0.6179  0.4727 -0.1399
 4815TIP3    H114409   6.727   0.259   4.924  0.3562 -0.5726 -0.1961
 4815TIP3    H214410   6.580   0.228   4.902 -0.1302  0.8051  0.9700
 4816TIP3   OH214411   4.746   1.342   3.322 -0.0976 -0.0508  0.0315
 4816TIP3    H114412   4.745   1.312   3.413  0.4692  0.7002  0.2959
 4816TIP3    H214413   4.805   1.281   3.277  1.5902  1.0138  0.7113
 4817TIP3   OH214414   1.606   1.013   5.373  0.1356  1.2576  0.1654
 4817TIP3    H114415   1.609   0.967   5.457  0.6844  2.3673  0.7771
 4817TIP3    H214416   1.677   0.974   5.321  1.5732  2.3912  1.2147
 4818TIP3   OH214417   5.715   1.799   0.842  0.0163  0.1960  0.0830
 4818TIP3    H114418   5.623   1.793   0.813  0.0206 -1.2866  0.3435
 4818TIP3    H214419   5.757   1.722   0.805  0.8249  0.0890  1.1911
 4819TIP3   OH214420   0.300   0.370   2.957  0.0462 -0.2236 -0.3968
 4819TIP3    H114421   0.302   0.437   2.890  1.1554  1.0494  0.8452
 4819TIP3    H214422   0.238   0.305   2.924  0.0964  0.6412 -2.3378
 4820TIP3   OH214423   5.283   2.341   3.049 -0.2325  0.5036  0.2843
 4820TIP3    H114424   5.314   2.345   3.140 -0.9072  2.7599  0.4874
 4820TIP3    H214425   5.347   2.394   3.000 -1.3019  1.5290 -0.0545
 4821TIP3   OH214426   4.673   5.012   1.689  0.3494  0.0058 -0.2911
 4821TIP3    H114427   4.613   5.081   1.717  0.2714 -0.6504  1.2359
 4821TIP3    H214428   4.619   4.952   1.638 -0.0974 -0.1220  0.3292
 4822TIP3   OH214429   1.048   1.051   1.502  0.3818 -0.2301 -0.4480
 4822TIP3    H114430   1.023   1.127   1.450  1.9690 -0.5324 -1.7232
 4822TIP3    H214431   0.969   1.029   1.551 -0.0372  2.3795  0.1748
 4823TIP3   OH214432   2.078   2.302   1.863  0.1360  0.1282  0.0515
 4823TIP3    H114433   2.166   2.265   1.861  0.6442  1.2762  0.2519
 4823TIP3    H214434   2.020   2.226   1.873  1.0652 -0.6808 -0.5291
 4824TIP3   OH214435   3.625   6.091   3.445  0.3599  0.0821  0.0003
 4824TIP3    H114436   3.586   6.171   3.480  0.3975 -0.2973  0.9336
 4824TIP3    H214437   3.719   6.108   3.446  0.3727  0.0095  0.2665
 4825TIP3   OH214438   2.280   1.205   2.914 -0.2373  0.0402  0.4856
 4825TIP3    H114439   2.279   1.301   2.918 -2.5156  0.1345 -0.4918
 4825TIP3    H214440   2.306   1.177   3.002  0.2547  1.5430  0.8470
 4826TIP3   OH214441   2.048   3.469   5.251 -0.2021 -0.0650 -0.1083
 4826TIP3    H114442   2.069   3.542   5.309  2.9008 -0.5832 -0.4258
 4826TIP3    H214443   2.047   3.508   5.163 -1.0743  0.0168 -0.0720
 4827TIP3   OH214444   2.438   0.637   1.609  0.0601 -0.2730  0.5195
 4827TIP3    H114445   2.369   0.702   1.621 -1.3015 -1.6028  0.2338
 4827TIP3    H214446   2.455   0.638   1.515 -0.9007 -1.1929  0.3098
 4828TIP3   OH214447   4.125   1.153   3.795  0.0467  0.1123 -0.6318
 4828TIP3    H114448   4.056   1.096   3.762  1.0148 -0.5321 -1.5934
 4828TIP3    H214449   4.151   1.113   3.878  0.7230 -0.8801 -1.2996
 4829TIP3   OH214450   3.530   3.165   3.660 -0.6137 -0.3058  0.2634
 4829TIP3    H114451   3.534   3.261   3.660  2.3510 -0.3174 -1.1318
 4829TIP3    H214452   3.587   3.139   3.733  2.7402 -0.8590 -2.2784
 4830TIP3   OH214453   5.838   0.123   3.859 -0.2903 -0.3647 -0.0526
 4830TIP3    H114454   5.743   0.111   3.862 -0.2426 -0.8258 -0.3921
 4830TIP3    H214455   5.867   0.108   3.949 -0.5534 -0.0834  0.0812
 4831TIP3   OH214456   4.535   3.210   2.598  0.0484  0.4977 -0.1881
 4831TIP3    H114457   4.499   3.228   2.512 -0.9744 -1.0766 -0.1234
 4831TIP3    H214458   4.569   3.295   2.628 -2.1433  1.7200 -0.9294
 4832TIP3   OH214459   5.903   2.623   2.220 -0.4991  0.1259  0.2638
 4832TIP3    H114460   5.889   2.685   2.149  0.1695  0.3227  0.2986
 4832TIP3    H214461   5.925   2.540   2.177  1.9092  0.7140  0.2163
 4833TIP3   OH214462   4.154   5.895   4.758  0.2152  0.2627  0.3158
 4833TIP3    H114463   4.116   5.878   4.844  0.0242 -1.1697 -0.0355
 4833TIP3    H214464   4.168   5.990   4.757 -0.7075  0.4385  1.5354
 4834TIP3   OH214465   2.033   2.976   1.124 -0.3431  0.3733 -0.0202
 4834TIP3    H114466   2.062   2.948   1.211 -3.2613 -2.4736  0.1878
 4834TIP3    H214467   1.950   3.020   1.139 -1.6081 -1.3975 -1.4056
 4835TIP3   OH214468   1.038   0.614   2.549 -0.6026  0.2631 -0.3200
 4835TIP3    H114469   1.026   0.688   2.489 -4.1282  0.1315  0.0477
 4835TIP3    H214470   1.056   0.655   2.634  1.4123  0.5080 -0.8072
 4836TIP3   OH214471   6.596   4.573   1.087  0.1578  0.0659 -0.0675
 4836TIP3    H114472   6.679   4.525   1.087 -0.3266 -0.8291 -1.2672
 4836TIP3    H214473   6.601   4.629   1.010 -0.7358 -0.7314 -0.7322
 4837TIP3   OH214474   5.293   3.048   3.391 -0.3500 -0.2685  0.1444
 4837TIP3    H114475   5.300   3.068   3.485  0.6554  0.5171 -0.0870
 4837TIP3    H214476   5.214   2.993   3.385 -1.1758  0.7244  1.2795
 4838TIP3   OH214477   5.650   1.908   2.532  0.2120 -0.3443 -0.4413
 4838TIP3    H114478   5.580   1.893   2.468  1.4482 -0.6970 -1.7690
 4838TIP3    H214479   5.611   1.968   2.596 -0.2479  2.3590 -3.0323
 4839TIP3   OH214480   0.747   0.690   3.903 -0.3852  0.1822 -0.2417
 4839TIP3    H114481   0.819   0.689   3.839  0.0076 -1.8112  0.1531
 4839TIP3    H214482   0.685   0.755   3.868  0.4715  0.1749 -1.8935
 4840TIP3   OH214483   0.888   0.041   0.729 -0.5012 -0.4360 -0.1233
 4840TIP3    H114484   0.887  -0.053   0.711 -0.2920 -0.5165  0.2680
 4840TIP3    H214485   0.796   0.063   0.746 -0.2852 -1.1093  2.3939
 4841TIP3   OH214486   7.099   2.279   2.107 -0.2013  0.2749 -0.4225
 4841TIP3    H114487   7.133   2.301   2.021 -0.3416  1.7302 -0.1431
 4841TIP3    H214488   7.005   2.264   2.093 -0.2697  0.7446 -0.5091
 4842TIP3   OH214489   3.415   0.434   4.450 -0.2855  0.6537 -0.4269
 4842TIP3    H114490   3.360   0.504   4.484 -0.4190 -0.0297  0.8140
 4842TIP3    H214491   3.455   0.394   4.527  0.9169  0.2789 -1.2132
 4843TIP3   OH214492   0.361   1.113   5.311  0.0588  0.1665  0.2599
 4843TIP3    H114493   0.376   1.067   5.228 -1.6445 -0.1261  0.0839
 4843TIP3    H214494   0.442   1.161   5.326  0.9901 -1.0007 -0.7771
 4844TIP3   OH214495   5.904   0.719   4.524  0.1893 -0.4180  0.0198
 4844TIP3    H114496   5.990   0.678   4.537  1.5320  2.5749  1.5532
 4844TIP3    H214497   5.913   0.766   4.441  1.8397  3.5199  2.1578
 4845TIP3   OH214498   6.894   1.467   2.744  0.0994 -0.2612  0.2901
 4845TIP3    H114499   6.864   1.398   2.804 -0.6613 -1.9238 -1.8830
 4845TIP3    H214500   6.871   1.435   2.657 -0.5478  2.8977 -0.8363
 4846TIP3   OH214501   3.045   3.440   5.676 -0.2215  0.4797 -0.2053
 4846TIP3    H114502   3.132   3.403   5.658  0.2738  1.6457 -0.3359
 4846TIP3    H214503   3.055   3.483   5.761 -0.9997 -0.3172  0.3056
 4847TIP3   OH214504   0.209   0.283   3.316 -0.3986  0.7519  0.0711
 4847TIP3    H114505   0.296   0.319   3.296  0.4671 -0.3959  1.5708
 4847TIP3    H214506   0.217   0.190   3.296 -0.8667  0.4040  1.4138
 4848TIP3   OH214507   4.062   0.670   4.625 -0.1706  0.2270 -0.2618
 4848TIP3    H114508   4.055   0.641   4.534 -0.9740  0.9125 -0.4286
 4848TIP3    H214509   4.139   0.624   4.659  1.1943  1.2550 -1.7827
 4849TIP3   OH214510   6.098   6.014   3.737 -0.6667 -0.5421 -0.2505
 4849TIP3    H114511   6.142   5.949   3.792 -2.9822 -1.3829  0.7396
 4849TIP3    H214512   6.129   5.996   3.648  1.2575 -0.7896  0.4408
 4850TIP3   OH214513   6.488   1.164   2.995  0.1541 -0.4881  0.2227
 4850TIP3    H114514   6.422   1.097   2.975  0.0442  0.0975 -1.5312
 4850TIP3    H214515   6.491   1.166   3.091 -2.2031 -0.7016  0.3719
 4851TIP3   OH214516   5.684   3.326   5.219 -0.1930 -0.6610 -0.3148
 4851TIP3    H114517   5.754   3.262   5.204 -1.1749 -1.6747 -0.7295
 4851TIP3    H214518   5.656   3.309   5.309  0.3493  0.0121 -0.0137
 4852TIP3   OH214519   4.770   2.301   5.234 -0.0981  0.2917 -0.1474
 4852TIP3    H114520   4.826   2.254   5.172 -0.0856  0.9859 -0.6709
 4852TIP3    H214521   4.699   2.240   5.254 -0.3715  0.2424 -1.2296
 4853TIP3   OH214522   1.280   6.735   3.279  0.0435 -0.8631  0.4346
 4853TIP3    H114523   1.185   6.737   3.272  0.0331 -0.1087  0.6997
 4853TIP3    H214524   1.299   6.655   3.327 -0.5387 -0.4490  1.3828
 4854TIP3   OH214525   0.483   2.370   5.837  0.0348 -0.2814 -0.2746
 4854TIP3    H114526   0.566   2.334   5.806  0.4303 -1.2453  1.7950
 4854TIP3    H214527   0.508   2.450   5.884 -0.0734 -1.1141  1.2280
 4855TIP3   OH214528   5.638   2.975   0.213 -0.3431  0.1767  0.1933
 4855TIP3    H114529   5.658   2.897   0.265 -0.1332  0.0365 -0.0948
 4855TIP3    H214530   5.611   2.940   0.128  0.4517  0.4433 -0.1707
 4856TIP3   OH214531   3.524   1.194   1.005  0.9054 -0.0971 -0.6901
 4856TIP3    H114532   3.465   1.119   1.000 -0.6826  0.9784  0.8760
 4856TIP3    H214533   3.554   1.195   1.096  0.7890  1.2310 -0.6468
 4857TIP3   OH214534   5.838   3.294   5.882  0.3459  0.5020 -0.4084
 4857TIP3    H114535   5.815   3.219   5.828  1.5462  0.1974 -0.5309
 4857TIP3    H214536   5.928   3.277   5.910  0.1787  1.2509  0.6643
 4858TIP3   OH214537   7.195   0.623   4.991  0.1208  0.3322 -0.2406
 4858TIP3    H114538   7.232   0.545   5.033 -0.0254  0.0114 -0.6969
 4858TIP3    H214539   7.151   0.669   5.062 -0.4745 -0.4153 -0.1047
 4859TIP3   OH214540   4.711   5.361   0.036  0.2879 -0.2878 -0.5689
 4859TIP3    H114541   4.739   5.453   0.039  1.7521 -0.7175 -0.4670
 4859TIP3    H214542   4.791   5.311   0.050 -0.9196 -1.5691  2.5903
 4860TIP3   OH214543   3.623   5.174   4.934  0.3807  0.9079 -0.5874
 4860TIP3    H114544   3.558   5.129   4.987 -0.2928 -1.1592 -2.9968
 4860TIP3    H214545   3.574   5.205   4.857  1.6850  1.9658 -1.0313
 4861TIP3   OH214546   5.065   0.586   5.103 -0.0090  0.8008  0.3369
 4861TIP3    H114547   5.085   0.497   5.131  3.6188  1.0976 -0.7075
 4861TIP3    H214548   4.994   0.576   5.039  2.1382 -1.8249 -1.9175
 4862TIP3   OH214549   3.444   5.077   3.853  0.2533  0.2124  0.2054
 4862TIP3    H114550   3.381   5.007   3.870 -0.0800  0.3941 -0.2378
 4862TIP3    H214551   3.395   5.158   3.870 -0.3628  0.4457 -2.1994
 4863TIP3   OH214552   4.874   0.802   0.755  0.3149 -0.1835  0.9582
 4863TIP3    H114553   4.828   0.758   0.683 -1.1996  0.2664  1.6260
 4863TIP3    H214554   4.889   0.732   0.819 -0.8696 -0.0366  1.4198
 4864TIP3   OH214555   2.673   5.620   1.966 -0.2730 -0.0793  0.6324
 4864TIP3    H114556   2.735   5.547   1.975  0.0387  0.0591 -0.2336
 4864TIP3    H214557   2.720   5.685   1.915 -0.9128  0.2919  0.5034
 4865TIP3   OH214558   3.378   5.475   1.164 -0.7415 -0.4269  0.6890
 4865TIP3    H114559   3.455   5.434   1.125 -1.6056 -0.7864 -0.7252
 4865TIP3    H214560   3.338   5.524   1.093 -1.1520  0.7834  1.7141
 4866TIP3   OH214561   5.600   5.757   4.995  0.0185 -0.5739  0.2329
 4866TIP3    H114562   5.515   5.732   4.958  0.6553 -0.4914 -1.3592
 4866TIP3    H214563   5.664   5.706   4.945  1.0061  0.4672  0.3896
 4867TIP3   OH214564   2.465   2.849   2.466 -0.1721 -0.5948 -0.1506
 4867TIP3    H114565   2.403   2.825   2.398 -1.2868  0.4391  0.4717
 4867TIP3    H214566   2.421   2.917   2.517  2.3413  1.9363 -1.0991
 4868TIP3   OH214567   1.774   3.554   5.571 -0.0217 -0.3343  0.9071
 4868TIP3    H114568   1.683   3.540   5.598  0.7126 -0.2582  3.6436
 4868TIP3    H214569   1.767   3.588   5.482 -2.5181 -3.1139 -0.1318
 4869TIP3   OH214570   5.960   2.238   5.402 -0.1493  0.7863  0.1970
 4869TIP3    H114571   5.891   2.189   5.446 -1.1594  1.7416 -0.2956
 4869TIP3    H214572   6.041   2.203   5.440 -0.9355  0.6281  1.8240
 4870TIP3   OH214573   3.657   3.279   2.456  0.6537 -0.0803  0.4617
 4870TIP3    H114574   3.586   3.236   2.409  0.5045 -1.0434  1.5183
 4870TIP3    H214575   3.660   3.234   2.541  0.5453  1.9420  1.6006
 4871TIP3   OH214576   0.489   3.788   2.985  0.0670 -0.0839 -0.5054
 4871TIP3    H114577   0.398   3.759   2.973  0.3768 -1.4876  0.3630
 4871TIP3    H214578   0.526   3.785   2.897 -0.4252 -0.5789 -0.7034
 4872TIP3   OH214579   5.437   5.135   4.268  0.2510  0.2042  0.2315
 4872TIP3    H114580   5.389   5.146   4.186  1.7431 -0.4753 -0.7573
 4872TIP3    H214581   5.491   5.057   4.255  3.3066  2.1373  0.4487
 4873TIP3   OH214582   0.212   5.473   5.093  0.3159 -0.2243 -0.5832
 4873TIP3    H114583   0.187   5.386   5.063  1.9183  0.1082 -3.1601
 4873TIP3    H214584   0.128   5.518   5.107 -0.5140 -1.6593 -0.7037
 4874TIP3   OH214585   6.690   5.111   0.536 -0.1300 -0.8622  0.7694
 4874TIP3    H114586   6.602   5.073   0.543 -0.6570 -0.2818 -1.6505
 4874TIP3    H214587   6.675   5.201   0.508  1.2119 -1.0285 -0.6499
 4875TIP3   OH214588   3.023   4.881   1.892  0.0394  0.8242  0.1491
 4875TIP3    H114589   2.958   4.920   1.833 -1.0655 -0.5068  0.4416
 4875TIP3    H214590   2.972   4.832   1.956  1.3247 -1.8732 -0.7411
 4876TIP3   OH214591   6.656   4.682   2.522  0.0955  1.1414 -0.2495
 4876TIP3    H114592   6.747   4.652   2.514  0.2760  0.9888  1.7839
 4876TIP3    H214593   6.640   4.683   2.616 -1.1086  3.9019 -0.3958
 4877TIP3   OH214594   4.683   2.692   1.149 -0.3054 -0.1426 -0.6306
 4877TIP3    H114595   4.622   2.669   1.218 -1.0276  1.2649 -0.7649
 4877TIP3    H214596   4.659   2.781   1.124  1.8099  0.4788 -0.6807
 4878TIP3   OH214597   4.204   2.267   0.932  0.1877  0.5020  0.3518
 4878TIP3    H114598   4.247   2.324   0.869 -0.0889 -0.5683 -0.8503
 4878TIP3    H214599   4.132   2.227   0.883  1.4101 -2.2110  0.5473
 4879TIP3   OH214600   4.991   5.006   2.289  0.4297  0.4600  0.8372
 4879TIP3    H114601   5.065   4.984   2.231 -1.1274  1.6214 -1.7469
 4879TIP3    H214602   5.014   5.091   2.326  1.8496 -0.6851  2.8267
 4880TIP3   OH214603   1.402   5.235   3.758  0.6024  0.2858 -0.3568
 4880TIP3    H114604   1.450   5.172   3.703  0.5234  0.6278 -0.8240
 4880TIP3    H214605   1.453   5.239   3.839  0.2682 -0.8486 -0.0728
 4881TIP3   OH214606   5.792   0.465   1.222 -0.1392  0.3812  0.2482
 4881TIP3    H114607   5.838   0.478   1.139  0.8482 -0.5761  0.6178
 4881TIP3    H214608   5.837   0.391   1.263 -1.3152  0.1327  1.1431
 4882TIP3   OH214609   3.958   2.430   2.375  0.1436 -0.4131 -0.5973
 4882TIP3    H114610   3.989   2.374   2.304  1.8126  0.4175 -0.5757
 4882TIP3    H214611   3.917   2.504   2.331  0.3178 -0.3662 -0.6822
 4883TIP3   OH214612   2.135   3.258   3.710  0.1767 -0.1754 -0.4862
 4883TIP3    H114613   2.047   3.280   3.739  0.7535 -0.1355  1.3357
 4883TIP3    H214614   2.129   3.167   3.683 -0.3506 -0.2653 -0.0843
 4884TIP3   OH214615   4.039   5.114   2.138  1.1547 -0.4709 -0.4451
 4884TIP3    H114616   4.025   5.083   2.227 -0.4510 -1.1316 -0.8752
 4884TIP3    H214617   3.961   5.167   2.119  1.3874 -0.4823 -1.4960
 4885TIP3   OH214618   3.994   2.765   5.102 -0.0556  0.2518  0.0594
 4885TIP3    H114619   3.961   2.850   5.132  1.5666  1.1372 -0.4819
 4885TIP3    H214620   3.927   2.702   5.128 -1.6630  1.7859 -0.1807
 4886TIP3   OH214621   5.217   6.062   4.517  0.1963 -0.1038  0.6198
 4886TIP3    H114622   5.147   6.099   4.571 -0.3935 -1.3573  0.7775
 4886TIP3    H214623   5.248   5.986   4.568  0.3015 -0.7232 -0.3406
 4887TIP3   OH214624   3.754   5.690   2.437  0.5566 -0.3710 -0.0021
 4887TIP3    H114625   3.711   5.734   2.364  0.0834 -0.1858  0.3890
 4887TIP3    H214626   3.841   5.730   2.441 -0.2260  1.3414  1.0414
 4888TIP3   OH214627   1.814   5.055   1.684  0.0157  0.2097  0.2654
 4888TIP3    H114628   1.763   4.974   1.681  0.4774 -0.0846  0.2456
 4888TIP3    H214629   1.749   5.125   1.675 -0.1935 -0.1944 -1.8262
 4889TIP3   OH214630   6.039   3.710   3.455  0.0285 -0.1593 -0.2125
 4889TIP3    H114631   6.055   3.619   3.481  0.5667  0.2401  0.9786
 4889TIP3    H214632   6.105   3.760   3.504 -0.0484  0.8382 -1.0993
 4890TIP3   OH214633   1.708   0.386   2.649  0.0835 -0.0451 -0.1956
 4890TIP3    H114634   1.775   0.453   2.638 -0.7140  1.5067  3.1348
 4890TIP3    H214635   1.733   0.339   2.728 -1.8543 -0.5408  0.1844
 4891TIP3   OH214636   2.945   6.442   5.670  0.2665  0.3006 -0.5232
 4891TIP3    H114637   2.930   6.502   5.744  2.2211  0.2048  0.0020
 4891TIP3    H214638   2.949   6.500   5.594  0.3383  0.6460 -0.2638
 4892TIP3   OH214639   4.206   3.824   3.530 -0.0533 -0.6002 -0.1086
 4892TIP3    H114640   4.191   3.914   3.502  1.1075 -0.6392 -0.9148
 4892TIP3    H214641   4.119   3.784   3.531 -0.7636  0.8416  1.4887
 4893TIP3   OH214642   1.450   4.317   1.720  0.3813 -0.0391  0.1806
 4893TIP3    H114643   1.530   4.276   1.689  0.5456  1.1196 -1.0536
 4893TIP3    H214644   1.404   4.248   1.767  1.0532 -1.3636 -1.0218
 4894TIP3   OH214645   2.905   6.194   1.906  0.0778 -0.0346  0.2110
 4894TIP3    H114646   2.981   6.232   1.948 -0.2058  0.4811  0.2674
 4894TIP3    H214647   2.858   6.149   1.976  0.0496  0.1005  0.2772
 4895TIP3   OH214648   5.837   4.258   0.112 -0.4353 -0.1653  0.1188
 4895TIP3    H114649   5.885   4.212   0.181 -0.9895 -0.5269  0.2719
 4895TIP3    H214650   5.904   4.307   0.065  0.2218 -1.2880 -0.1675
 4896TIP3   OH214651   3.493   0.421   1.671  0.7921 -0.7591 -0.1494
 4896TIP3    H114652   3.549   0.498   1.657  0.5090 -0.9577 -2.9158
 4896TIP3    H214653   3.553   0.352   1.696  1.2121  0.0287  1.1118
 4897TIP3   OH214654   6.934   4.675   5.119 -1.0121  0.1908 -0.4604
 4897TIP3    H114655   6.878   4.648   5.046 -1.1858 -0.4605 -0.0977
 4897TIP3    H214656   6.914   4.768   5.132 -0.5004  0.4791 -1.6535
 4898TIP3   OH214657   5.470   2.965   0.857  0.3129 -0.1787  0.1693
 4898TIP3    H114658   5.491   2.876   0.829 -0.5300 -0.7060  1.1557
 4898TIP3    H214659   5.527   2.980   0.933  0.5995  0.2138 -0.1136
 4899TIP3   OH214660   3.569   5.078   1.291 -0.0813  0.0039 -0.0847
 4899TIP3    H114661   3.509   5.111   1.224 -1.6524  0.3398  1.4269
 4899TIP3    H214662   3.572   4.984   1.277 -0.8454  0.0078 -0.2845
 4900TIP3   OH214663   3.960   0.692   4.187  0.3474 -0.3849 -0.1565
 4900TIP3    H114664   3.954   0.633   4.112 -1.3880 -0.1902 -0.2196
 4900TIP3    H214665   3.919   0.644   4.258  0.8853 -0.0831  0.3678
 4901TIP3   OH214666   5.967   1.824   4.957 -0.2296  0.5131 -0.5872
 4901TIP3    H114667   6.000   1.894   5.013  0.5445  0.2910 -0.7500
 4901TIP3    H214668   5.984   1.744   5.007  0.4757  0.3125 -1.1282
 4902TIP3   OH214669   0.337   1.845   2.309 -0.2443 -0.0009 -0.5115
 4902TIP3    H114670   0.314   1.820   2.220 -0.4116 -1.1995 -0.1451
 4902TIP3    H214671   0.274   1.798   2.364 -0.0240  0.5775  0.2487
 4903TIP3   OH214672   3.605   4.456   0.898  0.0681  0.0033  0.0084
 4903TIP3    H114673   3.536   4.440   0.834 -0.4130 -3.0528  1.0850
 4903TIP3    H214674   3.559   4.455   0.982  1.3513 -2.5661  0.7799
 4904TIP3   OH214675   3.599   0.708   1.688 -0.1658  0.1633 -0.4109
 4904TIP3    H114676   3.664   0.671   1.627 -0.5598  0.2565 -0.8905
 4904TIP3    H214677   3.576   0.792   1.651 -1.3859 -0.3443 -0.8463
 4905TIP3   OH214678   6.511   0.564   3.442  0.0979 -0.4787  0.3064
 4905TIP3    H114679   6.500   0.493   3.379 -0.7742  1.0280 -1.3449
 4905TIP3    H214680   6.475   0.641   3.398 -1.2638  0.5426  2.9467
 4906TIP3   OH214681   2.267   1.290   2.360  0.1200 -0.0387 -0.3172
 4906TIP3    H114682   2.309   1.372   2.388 -1.5071  1.4963 -2.1066
 4906TIP3    H214683   2.208   1.268   2.432  0.0786  0.7320 -0.1054
 4907TIP3   OH214684   4.962   1.081   4.033  0.0582  0.0459 -0.4697
 4907TIP3    H114685   4.996   1.015   4.094 -0.4018 -0.4580 -0.7488
 4907TIP3    H214686   4.957   1.035   3.949 -1.1210  0.1522 -0.4813
 4908TIP3   OH214687   6.204   1.506   1.864  0.0370 -0.0047 -0.1506
 4908TIP3    H114688   6.130   1.450   1.888  0.4691  0.3269  2.1004
 4908TIP3    H214689   6.229   1.475   1.777 -2.1548 -0.7242 -0.5971
 4909TIP3   OH214690   3.217   2.237   5.597  0.1147  0.0947  0.5685
 4909TIP3    H114691   3.187   2.280   5.677 -0.1335 -0.2355  0.6540
 4909TIP3    H214692   3.250   2.309   5.542 -1.8023  0.6270  0.0395
 4910TIP3   OH214693   5.141   3.880   2.775 -0.5292  0.3076  0.2924
 4910TIP3    H114694   5.066   3.851   2.827 -0.2198 -1.0019  0.0419
 4910TIP3    H214695   5.169   3.962   2.817 -0.8826 -0.2112  1.5914
 4911TIP3   OH214696   5.351   6.453   3.239 -0.0103 -0.0367 -0.0597
 4911TIP3    H114697   5.315   6.542   3.244  0.5945  0.2794 -1.1437
 4911TIP3    H214698   5.276   6.396   3.260 -0.3641  0.7138  0.8064
 4912TIP3   OH214699   4.384   1.095   4.978  0.3566  0.3447 -0.3518
 4912TIP3    H114700   4.301   1.141   4.984  0.5311  0.4991  1.0271
 4912TIP3    H214701   4.368   1.025   4.914 -0.4035  1.2271 -1.1522
 4913TIP3   OH214702   4.198   4.867   5.173  0.1867 -0.5248 -0.0267
 4913TIP3    H114703   4.231   4.842   5.087 -0.4265 -3.0253  0.3883
 4913TIP3    H214704   4.151   4.790   5.204 -0.0956  0.5114  2.3260
 4914TIP3   OH214705   3.277   3.052   3.245  0.0264 -0.0484 -0.2303
 4914TIP3    H114706   3.276   3.110   3.321 -0.8912  0.0056 -0.2707
 4914TIP3    H214707   3.254   3.110   3.171  0.0714 -0.2682 -0.4172
 4915TIP3   OH214708   3.655   0.170   4.998  0.3746  0.4205  0.6201
 4915TIP3    H114709   3.561   0.157   4.986  0.1837  1.0659  1.3705
 4915TIP3    H214710   3.687   0.088   5.035  0.5675 -0.7469 -1.8803
 4916TIP3   OH214711   1.281   6.081   3.293 -0.9496 -0.3344 -0.9850
 4916TIP3    H114712   1.196   6.124   3.294 -1.2931 -0.9886  0.0905
 4916TIP3    H214713   1.279   6.022   3.368  0.2835 -0.7020 -1.2109
 4917TIP3   OH214714   4.577   5.821   5.259  0.2940  0.2365 -0.2301
 4917TIP3    H114715   4.516   5.748   5.256  0.3664  0.1461  0.5074
 4917TIP3    H214716   4.633   5.809   5.182  1.6306 -1.6296  0.9765
 4918TIP3   OH214717   2.197   5.327   3.423 -0.4351 -0.1010  0.2740
 4918TIP3    H114718   2.146   5.282   3.356 -0.6211  0.0679  0.2997
 4918TIP3    H214719   2.144   5.320   3.503 -0.4291  0.0911  0.2970
 4919TIP3   OH214720   0.605   5.565   1.057  0.1660  0.1028  0.3062
 4919TIP3    H114721   0.597   5.653   1.094  0.9609 -0.8021  2.9335
 4919TIP3    H214722   0.515   5.538   1.039 -0.0737  1.4825 -0.6800
 4920TIP3   OH214723   4.891   2.741   0.824  0.3544 -0.4043  0.0440
 4920TIP3    H114724   4.907   2.783   0.740  1.2756 -0.1648  0.3262
 4920TIP3    H214725   4.871   2.813   0.884  0.0037 -0.5458  0.1004
 4921TIP3   OH214726   3.589   2.215   5.235  0.1352  0.0929 -0.0863
 4921TIP3    H114727   3.499   2.203   5.266 -0.0531 -1.5258 -1.1544
 4921TIP3    H214728   3.596   2.309   5.219 -0.8198  0.4889  1.5600
 4922TIP3   OH214729   5.046   4.977   0.916 -0.3093 -0.4474 -0.1504
 4922TIP3    H114730   5.113   5.040   0.892 -0.8641  1.7039  3.3968
 4922TIP3    H214731   4.964   5.016   0.885 -0.4122 -0.8549 -0.4137
 4923TIP3   OH214732   4.433   0.444   5.608  0.2649 -0.5988 -0.0571
 4923TIP3    H114733   4.380   0.365   5.616 -0.6347  0.1760  2.7825
 4923TIP3    H214734   4.458   0.447   5.516 -0.8481 -3.4048 -0.5455
 4924TIP3   OH214735   1.591   4.651   5.401 -0.5033  0.0751 -0.4630
 4924TIP3    H114736   1.588   4.747   5.392 -0.4865  0.1518  0.2873
 4924TIP3    H214737   1.524   4.631   5.466  1.1563 -0.1630  1.2940
 4925TIP3   OH214738   1.956   5.866   0.960 -0.3572  0.3872  0.2108
 4925TIP3    H114739   1.974   5.801   0.893  0.1067 -1.0673  1.6653
 4925TIP3    H214740   1.965   5.950   0.916 -1.2661 -0.5203 -1.8046
 4926TIP3   OH214741   5.327   2.145   0.242  0.0394  0.0660 -0.0760
 4926TIP3    H114742   5.288   2.204   0.177  0.4586 -0.1231 -0.4988
 4926TIP3    H214743   5.313   2.057   0.206 -0.5643 -0.1000  0.5421
 4927TIP3   OH214744   5.884   1.163   4.109 -0.1238 -0.2528  0.5279
 4927TIP3    H114745   5.796   1.184   4.140 -0.8816 -0.5731 -1.2619
 4927TIP3    H214746   5.915   1.094   4.167 -1.2316 -0.4202  0.9341
 4928TIP3   OH214747   6.554   4.471   3.814  0.0332  0.4373 -0.3291
 4928TIP3    H114748   6.466   4.447   3.842  0.6861 -0.0726  1.4245
 4928TIP3    H214749   6.609   4.397   3.840  1.0647  0.9760 -0.8998
 4929TIP3   OH214750   2.085   6.645   4.132 -0.5675 -0.3242 -0.2171
 4929TIP3    H114751   2.021   6.642   4.203 -0.1701 -2.2370  0.1223
 4929TIP3    H214752   2.034   6.624   4.053 -0.2721 -2.8457  0.1869
 4930TIP3   OH214753   4.014   1.835   3.592  0.3988  0.0593  0.3354
 4930TIP3    H114754   4.088   1.777   3.575  0.2089 -0.9649  2.6884
 4930TIP3    H214755   3.945   1.777   3.622 -1.3259  1.0401 -1.4973
 4931TIP3   OH214756   0.116   2.162   3.703  0.0297 -0.1717  0.2236
 4931TIP3    H114757   0.068   2.201   3.630 -0.5222 -1.1452  0.0519
 4931TIP3    H214758   0.208   2.175   3.681 -0.0963 -1.5755 -1.2988
 4932TIP3   OH214759   6.952   5.483   4.150  0.0620  0.5270 -0.8295
 4932TIP3    H114760   6.942   5.389   4.163 -1.0752  0.7597  0.1737
 4932TIP3    H214761   6.958   5.494   4.055  1.2142 -0.6331 -0.9030
 4933TIP3   OH214762   6.375   3.386   4.019  0.8756 -0.4524 -0.3558
 4933TIP3    H114763   6.436   3.313   4.019  0.8568 -0.4682 -0.4454
 4933TIP3    H214764   6.309   3.363   4.084  0.4710 -0.8464 -0.9011
 4934TIP3   OH214765   4.995   0.356   1.252 -0.2322 -0.1740 -0.4429
 4934TIP3    H114766   4.900   0.340   1.257 -0.5329  1.5566  0.0420
 4934TIP3    H214767   5.032   0.304   1.324 -1.0428  0.6270  0.5769
 4935TIP3   OH214768   3.374   1.810   1.904  0.7208  0.0194  0.2236
 4935TIP3    H114769   3.375   1.893   1.857  0.1573  0.0266  0.2243
 4935TIP3    H214770   3.282   1.794   1.924  1.0611  0.8292  2.7614
 4936TIP3   OH214771   2.540   6.136   0.221  0.2157  0.0885 -0.3417
 4936TIP3    H114772   2.466   6.143   0.282  0.6566 -0.1651  0.2386
 4936TIP3    H214773   2.500   6.115   0.137 -0.6026  2.4324 -0.6330
 4937TIP3   OH214774   0.204   5.174   4.127  0.1304  0.3142  0.1248
 4937TIP3    H114775   0.115   5.197   4.153 -0.5691 -1.0685 -0.9516
 4937TIP3    H214776   0.259   5.215   4.194 -1.3167  0.9306  0.9902
 4938TIP3   OH214777   5.256   5.670   5.200 -0.0541 -0.2199  0.3903
 4938TIP3    H114778   5.310   5.737   5.157  1.1287 -1.8235 -0.7183
 4938TIP3    H214779   5.170   5.679   5.159  0.3856 -0.0797 -0.5253
 4939TIP3   OH214780   0.537   2.887   3.789  0.2028  0.1652  0.3538
 4939TIP3    H114781   0.478   2.952   3.752  0.6938  0.6135  0.3536
 4939TIP3    H214782   0.589   2.856   3.715 -0.0374 -0.2433  0.3511
 4940TIP3   OH214783   1.676   6.039   1.389  0.0169  0.5084  0.2213
 4940TIP3    H114784   1.721   5.983   1.452  0.4432 -1.3775 -1.6370
 4940TIP3    H214785   1.747   6.090   1.348  0.2885 -1.0487 -1.3421
 4941TIP3   OH214786   1.272   1.148   1.215  0.4259  0.5015 -0.3186
 4941TIP3    H114787   1.194   1.194   1.244  0.3557  0.0464  0.2219
 4941TIP3    H214788   1.240   1.081   1.154  0.3386  0.0040  0.2661
 4942TIP3   OH214789   3.288   1.647   0.103 -0.2332  0.3227  0.4213
 4942TIP3    H114790   3.331   1.650   0.018 -0.6636 -0.1458  0.1863
 4942TIP3    H214791   3.357   1.619   0.164 -0.5447 -1.9383 -0.1852
 4943TIP3   OH214792   5.985   6.726   0.562  0.4144 -0.3125 -0.3292
 4943TIP3    H114793   5.984   6.728   0.658 -0.0602 -0.5332 -0.3252
 4943TIP3    H214794   6.017   6.812   0.536  1.4745 -0.5853  0.0387
 4944TIP3   OH214795   5.463   2.689   1.196  0.6381  0.4220 -0.3382
 4944TIP3    H114796   5.457   2.686   1.100 -0.4189 -0.3485 -0.2633
 4944TIP3    H214797   5.483   2.599   1.221 -0.6899  0.2752  0.2497
 4945TIP3   OH214798   4.914   1.724   1.341 -0.2483  0.1563  0.0304
 4945TIP3    H114799   4.876   1.810   1.360  0.4050  0.3126  0.7197
 4945TIP3    H214800   5.005   1.743   1.319  0.1808 -0.4179  1.1828
 4946TIP3   OH214801   4.252   4.731   1.497 -0.2234  0.3414  0.1795
 4946TIP3    H114802   4.172   4.752   1.545 -0.0304 -0.0996  0.7097
 4946TIP3    H214803   4.271   4.640   1.521 -0.6369 -0.2289 -1.4598
 4947TIP3   OH214804   0.045   0.552   4.655  0.5621 -0.0701 -0.0830
 4947TIP3    H114805  -0.006   0.486   4.703  1.6576 -0.4116  0.6479
 4947TIP3    H214806   0.083   0.504   4.582  0.2373  0.0795 -0.3547
 4948TIP3   OH214807   4.287   0.726   1.355  0.0318 -0.0495 -0.4818
 4948TIP3    H114808   4.342   0.794   1.317 -0.0809  0.6159  0.5115
 4948TIP3    H214809   4.348   0.663   1.393  0.1176  0.4696  0.2466
 4949TIP3   OH214810   5.606   4.834   0.833 -0.4338  0.1427 -0.1278
 4949TIP3    H114811   5.666   4.898   0.869  1.5629 -1.8010  0.2043
 4949TIP3    H214812   5.655   4.792   0.762 -2.0102 -0.3983 -0.9489
 4950TIP3   OH214813   0.380   1.146   2.697 -0.4837  0.4870  0.3489
 4950TIP3    H114814   0.430   1.108   2.770  0.0702  0.2832 -0.1324
 4950TIP3    H214815   0.440   1.209   2.657  0.1013 -1.1052 -1.3969
 4951TIP3   OH214816   2.568   5.537   2.780 -0.4359 -0.3172  0.0375
 4951TIP3    H114817   2.484   5.514   2.741 -1.4815  1.3691  1.1323
 4951TIP3    H214818   2.618   5.455   2.782 -3.3662 -2.2485  2.5658
 4952TIP3   OH214819   4.015   1.506   4.614 -1.1629  0.1775 -0.0583
 4952TIP3    H114820   3.920   1.490   4.614 -1.4351  1.6124 -0.9314
 4952TIP3    H214821   4.048   1.450   4.544 -1.5684  0.6111 -0.6122
 4953TIP3   OH214822   3.583   3.235   2.713  1.0364 -0.2659  0.1536
 4953TIP3    H114823   3.635   3.183   2.774 -0.6791  0.4789  2.3753
 4953TIP3    H214824   3.494   3.203   2.724  0.6936 -0.3483 -2.3048
 4954TIP3   OH214825   5.165   2.586   1.306 -0.2497 -0.2333  0.2970
 4954TIP3    H114826   5.238   2.640   1.278 -1.0383  0.4668 -0.4488
 4954TIP3    H214827   5.087   2.631   1.273 -0.9415 -1.6888 -0.1310
 4955TIP3   OH214828   0.423   1.514   4.652 -0.0130  0.1085 -0.4351
 4955TIP3    H114829   0.411   1.500   4.746 -0.0754 -0.8785 -0.5846
 4955TIP3    H214830   0.506   1.561   4.646 -0.8057  1.6733  0.2050
 4956TIP3   OH214831   4.647   0.226   5.528 -0.1369 -0.0853 -0.2977
 4956TIP3    H114832   4.621   0.309   5.487 -0.8761 -0.4413 -0.5745
 4956TIP3    H214833   4.584   0.214   5.599 -0.4316 -0.7215 -0.6600
 4957TIP3   OH214834   0.298   0.963   5.552  0.0763 -0.5286  0.1140
 4957TIP3    H114835   0.283   1.015   5.473 -0.8606 -0.5512  0.2670
 4957TIP3    H214836   0.327   0.878   5.520 -0.2075 -0.5056 -0.2059
 4958TIP3   OH214837   4.898   5.543   0.573 -0.1150 -0.4597 -0.3857
 4958TIP3    H114838   4.840   5.609   0.535 -1.4245 -0.0165  2.1977
 4958TIP3    H214839   4.889   5.467   0.514 -1.8760  0.2352 -1.0839
 4959TIP3   OH214840   2.734   0.254   5.501  0.5792  0.0691 -0.1051
 4959TIP3    H114841   2.786   0.270   5.580 -1.6206  3.7019  0.8434
 4959TIP3    H214842   2.647   0.231   5.534 -0.6325  2.5563 -1.3107
 4960TIP3   OH214843   2.256   1.531   5.506 -0.4346 -0.1828  0.1528
 4960TIP3    H114844   2.260   1.558   5.598 -1.7127  0.7165 -0.0384
 4960TIP3    H214845   2.307   1.597   5.460 -2.0884  0.9550 -0.0994
 4961TIP3   OH214846   5.479   0.488   5.278 -0.0942  0.1555 -0.4223
 4961TIP3    H114847   5.563   0.511   5.318 -0.2725  1.7937 -0.9379
 4961TIP3    H214848   5.454   0.407   5.322  0.7448  0.7519  1.2485
 4962TIP3   OH214849   5.749   1.540   1.805 -0.0312  0.5929  0.1732
 4962TIP3    H114850   5.706   1.616   1.766 -0.9028  0.3530  0.6510
 4962TIP3    H214851   5.803   1.577   1.875  0.4305  0.8823 -0.3296
 4963TIP3   OH214852   0.615   1.756   1.752 -0.3267  0.2039 -0.0549
 4963TIP3    H114853   0.587   1.802   1.831  0.3641 -0.1769  0.4236
 4963TIP3    H214854   0.569   1.801   1.681  0.2959  1.6299  0.3974
 4964TIP3   OH214855   2.679   5.827   1.521  0.5670 -0.2807 -0.0590
 4964TIP3    H114856   2.765   5.789   1.537  1.3033  0.5921 -1.6884
 4964TIP3    H214857   2.622   5.752   1.504  0.9095 -0.8798  1.2958
 4965TIP3   OH214858   0.660   2.048   5.325  0.0755  0.0889 -0.3197
 4965TIP3    H114859   0.583   2.002   5.357  0.4751 -0.8829 -0.7227
 4965TIP3    H214860   0.730   1.982   5.326  0.5834  0.5864 -1.2379
 4966TIP3   OH214861   6.669   1.625   0.338  0.5159  0.1170 -0.4412
 4966TIP3    H114862   6.660   1.557   0.271  1.1092  0.1495 -0.5601
 4966TIP3    H214863   6.743   1.596   0.392 -1.1848 -0.9394  1.4528
 4967TIP3   OH214864   5.586   1.376   3.719  0.5715  0.3925 -0.0343
 4967TIP3    H114865   5.510   1.320   3.736  0.5745  0.4500  0.1672
 4967TIP3    H214866   5.552   1.445   3.661 -0.2324  2.0027  2.2045
 4968TIP3   OH214867   5.046   2.505   0.063  0.2023 -0.0944 -0.2186
 4968TIP3    H114868   5.019   2.486   0.153 -0.2598 -1.3929 -0.6106
 4968TIP3    H214869   4.996   2.583   0.039  0.1630  0.1327  0.5669
 4969TIP3   OH214870   3.447   5.889   5.186 -0.2762  0.0505  0.0586
 4969TIP3    H114871   3.374   5.924   5.135 -0.2754 -0.7716 -0.5204
 4969TIP3    H214872   3.523   5.896   5.128  0.2642  1.5248  0.8964
 4970TIP3   OH214873   5.009   3.861   3.216 -0.4774 -0.1689  0.1066
 4970TIP3    H114874   4.975   3.940   3.258 -1.7286 -0.3433 -0.5287
 4970TIP3    H214875   4.996   3.792   3.280 -1.6977 -0.2995 -0.2554
 4971TIP3   OH214876   4.770   5.061   3.617 -0.2510  0.7874 -0.0348
 4971TIP3    H114877   4.721   5.092   3.541  0.3977  2.1690  0.0834
 4971TIP3    H214878   4.818   4.984   3.585 -0.6073  0.8706 -0.7908
 4972TIP3   OH214879   4.860   4.427   3.010  0.4682 -0.1874  0.0598
 4972TIP3    H114880   4.851   4.440   3.105 -2.1393  0.6318 -0.2271
 4972TIP3    H214881   4.775   4.395   2.982  1.0236  0.0791 -2.1064
 4973TIP3   OH214882   0.967   3.066   2.241 -0.3594  0.2535  0.2243
 4973TIP3    H114883   0.952   2.973   2.224 -0.1077  0.2582 -0.0250
 4973TIP3    H214884   0.889   3.094   2.289 -1.1294  0.2621 -1.0062
 4974TIP3   OH214885   2.552   2.735   1.189 -0.4344  0.1251  0.1412
 4974TIP3    H114886   2.597   2.808   1.144 -2.0420  1.0571 -0.0335
 4974TIP3    H214887   2.460   2.762   1.192 -1.0567 -1.8430  0.2315
 4975TIP3   OH214888   3.534   4.641   3.467  0.1148  0.5028 -0.5984
 4975TIP3    H114889   3.468   4.701   3.434 -0.9860  0.5905  1.5766
 4975TIP3    H214890   3.514   4.631   3.560  1.0793 -2.1874 -0.5715
 4976TIP3   OH214891   2.733   6.144   2.132 -0.2931 -0.2420  1.2513
 4976TIP3    H114892   2.652   6.187   2.106 -0.9788 -0.6753  2.5914
 4976TIP3    H214893   2.708   6.052   2.147  0.8611 -0.8412 -0.2310
 4977TIP3   OH214894   4.820   3.267   3.177 -0.2847  0.1221  0.2922
 4977TIP3    H114895   4.771   3.269   3.095 -2.4339  1.8825  1.5189
 4977TIP3    H214896   4.865   3.351   3.181 -1.5326  0.7713  1.6159
 4978TIP3   OH214897   7.082   6.134   2.710 -0.7416  0.0448  0.5482
 4978TIP3    H114898   7.140   6.071   2.753 -0.2945  1.0339  1.4458
 4978TIP3    H214899   7.053   6.090   2.630  1.3443 -0.4369  0.0052
 4979TIP3   OH214900   3.018   0.192   2.725  0.1273  0.0660 -0.2949
 4979TIP3    H114901   2.968   0.110   2.723 -2.7940  1.6832  0.3861
 4979TIP3    H214902   3.102   0.168   2.763 -0.6985 -2.5716  0.0726
 4980TIP3   OH214903   1.509   1.308   4.123 -0.0015 -0.0612 -0.0757
 4980TIP3    H114904   1.486   1.373   4.190  0.5193 -0.5041  0.5586
 4980TIP3    H214905   1.426   1.274   4.092 -0.3529  1.9764 -1.5217
 4981TIP3   OH214906   5.114   3.777   5.091  0.2338 -0.4371  0.2239
 4981TIP3    H114907   5.174   3.757   5.020 -0.4218  0.3425 -0.5691
 4981TIP3    H214908   5.154   3.738   5.169  2.0465  0.5273 -0.1732
 4982TIP3   OH214909   5.436   0.179   1.379 -0.5048  0.0597 -0.2494
 4982TIP3    H114910   5.376   0.222   1.318 -2.1494 -1.7588 -0.0159
 4982TIP3    H214911   5.378   0.137   1.443  1.0502 -1.2101  0.3893
 4983TIP3   OH214912   4.886   3.248   4.891 -0.1678  0.0367 -0.0100
 4983TIP3    H114913   4.877   3.271   4.983  0.6241  0.9884 -0.1582
 4983TIP3    H214914   4.963   3.297   4.861  0.4299 -1.3469 -0.8304
 4984TIP3   OH214915   5.798   5.145   2.193  0.5584 -0.2226 -0.4248
 4984TIP3    H114916   5.742   5.109   2.125 -1.8016  0.7833  0.8888
 4984TIP3    H214917   5.832   5.068   2.239 -0.0268 -0.8393 -1.0068
 4985TIP3   OH214918   3.540   3.294   1.519  0.5874 -0.0799  0.1664
 4985TIP3    H114919   3.463   3.348   1.503  0.6372 -0.4059 -1.3935
 4985TIP3    H214920   3.521   3.247   1.600  0.4444  2.0391  1.4215
 4986TIP3   OH214921   2.914   5.448   2.476  0.4431  0.1143 -0.5647
 4986TIP3    H114922   2.928   5.433   2.383 -0.5500  0.4600 -0.7805
 4986TIP3    H214923   2.821   5.431   2.490  0.2031  1.7326  0.0253
 4987TIP3   OH214924   5.178   4.195   2.547 -0.0276  0.1890  0.2253
 4987TIP3    H114925   5.119   4.238   2.486  0.0399 -1.2507 -0.8969
 4987TIP3    H214926   5.175   4.250   2.626 -0.5394  1.7686 -0.8574
 4988TIP3   OH214927   6.142   4.344   4.443 -0.6076 -0.0029  0.2068
 4988TIP3    H114928   6.106   4.267   4.400  1.3100 -0.8770  0.0919
 4988TIP3    H214929   6.132   4.327   4.536  3.3373 -2.3486  0.3990
 4989TIP3   OH214930   2.892   4.469   5.392 -0.5020  0.0030  0.1769
 4989TIP3    H114931   2.978   4.475   5.433 -1.0207 -2.3961  1.8643
 4989TIP3    H214932   2.852   4.555   5.406  1.3080  0.9054  0.0198
 4990TIP3   OH214933   6.358   6.561   4.215 -0.0508 -0.1262  0.1302
 4990TIP3    H114934   6.342   6.635   4.156  1.3411  0.9843  1.0928
 4990TIP3    H214935   6.442   6.525   4.188  0.9134  0.7775  1.7478
 4991TIP3   OH214936   6.438   0.223   1.242 -0.0705 -0.5953 -0.5113
 4991TIP3    H114937   6.522   0.203   1.201 -0.5777 -0.3523 -1.7128
 4991TIP3    H214938   6.376   0.229   1.169 -0.3041  3.6810 -0.2184
 4992TIP3   OH214939   3.804   2.460   0.377 -0.6665 -0.2617 -0.9369
 4992TIP3    H114940   3.734   2.409   0.337 -1.3256 -0.6963  0.6948
 4992TIP3    H214941   3.762   2.541   0.405 -0.7686 -0.8809  0.8340
 4993TIP3   OH214942   4.937   5.918   3.562 -0.1594  0.5990 -0.0225
 4993TIP3    H114943   4.985   5.953   3.638  1.4890  0.3725 -0.8970
 4993TIP3    H214944   4.904   5.995   3.517  1.2157  0.9397 -0.5196
 4994TIP3   OH214945   2.840   0.929   1.037 -0.0553  0.2426  0.5474
 4994TIP3    H114946   2.902   0.935   1.109  0.4773  0.8153  0.0570
 4994TIP3    H214947   2.889   0.886   0.967 -0.5948 -0.3917  0.5499
 4995TIP3   OH214948   7.143   1.738   0.723 -0.0158 -0.1153  0.0216
 4995TIP3    H114949   7.154   1.773   0.811  1.0155 -0.4656  0.0415
 4995TIP3    H214950   7.129   1.815   0.668 -4.5507  0.0065  0.9315
 4996TIP3   OH214951   1.545   1.078   0.287  0.1432  0.4613 -0.6508
 4996TIP3    H114952   1.610   1.112   0.349 -0.7155  0.7905  0.0994
 4996TIP3    H214953   1.570   0.987   0.273 -0.3728 -0.0179  1.2240
 4997TIP3   OH214954   3.752   3.868   3.872 -0.6859  0.0882 -0.2752
 4997TIP3    H114955   3.770   3.961   3.864 -0.8550  0.1747  0.2947
 4997TIP3    H214956   3.819   3.826   3.817 -1.4097  0.5894 -1.5762
 4998TIP3   OH214957   4.207   1.860   5.292 -0.4603  0.0027  0.4487
 4998TIP3    H114958   4.279   1.865   5.356  0.2664 -0.0523 -0.3397
 4998TIP3    H214959   4.205   1.768   5.266 -0.9531 -0.0321  0.6092
 4999TIP3   OH214960   4.848   0.783   3.570 -0.4644 -0.2986  0.4564
 4999TIP3    H114961   4.820   0.700   3.609  0.8703 -0.1842  1.7410
 4999TIP3    H214962   4.943   0.780   3.574 -0.3365  2.5719  3.4881
 5000TIP3   OH214963   2.062   4.657   2.459  0.4538  0.1936 -0.3345
 5000TIP3    H114964   2.006   4.712   2.513  0.2046  0.8366 -1.2354
 5000TIP3    H214965   2.082   4.582   2.515 -1.0919  0.0679  0.0921
 5001TIP3   OH214966   1.129   3.876   2.636  0.6159  0.5727 -0.2078
 5001TIP3    H114967   1.207   3.826   2.662  0.1382 -0.8681 -1.4521
 5001TIP3    H214968   1.146   3.902   2.546 -0.2525  0.4500 -0.4130
 5002TIP3   OH214969   4.263   4.675   2.133  0.0370  0.1842  0.3209
 5002TIP3    H114970   4.272   4.752   2.189  1.4967 -0.5511  1.1546
 5002TIP3    H214971   4.252   4.711   2.045  1.5463  1.3894  0.5704
 5003TIP3   OH214972   2.018   0.773   3.626 -0.6505  0.0279  0.0119
 5003TIP3    H114973   2.005   0.704   3.561  1.7217  0.2163 -0.7553
 5003TIP3    H214974   2.047   0.727   3.705 -1.1692 -0.0102  0.1827
 5004TIP3   OH214975   6.333   4.403   0.534 -0.0917  0.3375 -0.1649
 5004TIP3    H114976   6.331   4.478   0.475 -3.6585  0.9266  0.5191
 5004TIP3    H214977   6.291   4.333   0.485  0.9427 -0.5220  0.1295
 5005TIP3   OH214978   2.541   6.320   2.465  0.0231 -0.3145 -0.0773
 5005TIP3    H114979   2.450   6.347   2.468  0.6345  1.8705  0.9672
 5005TIP3    H214980   2.590   6.396   2.497  2.1433 -1.7693  0.3663
 5006TIP3   OH214981   2.659   3.047   5.208  0.7624  0.7503 -0.0235
 5006TIP3    H114982   2.696   3.001   5.282  2.8763  1.0317 -0.8468
 5006TIP3    H214983   2.721   3.118   5.189 -1.0279  2.3166 -0.4508
 5007TIP3   OH214984   3.454   3.257   5.416 -0.2790  0.0598  0.1575
 5007TIP3    H114985   3.507   3.313   5.358 -0.1341 -1.0869 -0.8597
 5007TIP3    H214986   3.466   3.168   5.381 -2.1811 -0.3538  0.4240
 5008TIP3   OH214987   2.278   6.094   3.578 -0.3821 -0.1382 -0.1197
 5008TIP3    H114988   2.231   6.155   3.521 -1.2534  0.3509  1.0602
 5008TIP3    H214989   2.307   6.148   3.652  0.1945 -0.8583  0.1914
 5009TIP3   OH214990   2.273   1.721   4.038  0.1284 -0.0097  0.4136
 5009TIP3    H114991   2.189   1.720   3.993  0.1687 -3.7405  0.1317
 5009TIP3    H214992   2.326   1.783   3.988 -2.3285  2.4187  0.5814
 5010TIP3   OH214993   0.373   1.726   4.995 -0.2948 -0.0422 -0.0429
 5010TIP3    H114994   0.453   1.776   5.009 -0.0642  0.0080 -1.3770
 5010TIP3    H214995   0.357   1.682   5.078  1.7962 -0.9988 -0.0633
 5011TIP3   OH214996   4.191   3.356   4.426 -0.0247 -0.0981  0.4310
 5011TIP3    H114997   4.267   3.346   4.369 -0.5511 -1.2670 -0.1098
 5011TIP3    H214998   4.170   3.449   4.422  1.3013  0.2258  0.5099
 5012TIP3   OH214999   2.214   1.788   3.322 -0.7102 -0.0460  0.2769
 5012TIP3    H115000   2.238   1.718   3.382 -2.2406  0.0830  1.0998
 5012TIP3    H215001   2.119   1.797   3.333 -0.7177  1.3570 -0.6830
 5013TIP3   OH215002   2.804   4.054   4.085 -0.2887 -0.3608 -0.5481
 5013TIP3    H115003   2.775   4.029   4.173  1.1800  0.3530  0.1598
 5013TIP3    H215004   2.729   4.032   4.029 -2.3958  1.6574  1.2096
 5014TIP3   OH215005   5.064   4.825   4.715  0.0891 -0.2661  0.0021
 5014TIP3    H115006   4.988   4.812   4.659 -1.0939  0.2987  1.4098
 5014TIP3    H215007   5.097   4.737   4.733  1.0973 -0.4232 -2.3131
 5015TIP3   OH215008   3.431   6.227   4.065 -0.2263 -0.0953 -0.0701
 5015TIP3    H115009   3.432   6.175   3.985  1.9113 -1.4883  0.7697
 5015TIP3    H215010   3.366   6.184   4.121  0.8936 -1.4124  0.2805
 5016TIP3   OH215011   1.858   6.558   4.446  0.0985 -0.2416  0.3470
 5016TIP3    H115012   1.920   6.487   4.431 -0.4783 -0.7012  0.1165
 5016TIP3    H215013   1.774   6.523   4.418 -0.6230 -0.3157  2.4785
 5017TIP3   OH215014   6.369   0.078   0.101  0.1867 -0.4114 -0.3673
 5017TIP3    H115015   6.371   0.174   0.105  0.2442 -0.3678 -1.2551
 5017TIP3    H215016   6.309   0.052   0.171 -2.1171  0.4125 -1.9228
 5018TIP3   OH215017   3.466   1.590   5.692 -0.3683 -0.0357  0.0612
 5018TIP3    H115018   3.435   1.529   5.759 -0.8113 -0.0286 -0.1344
 5018TIP3    H215019   3.490   1.534   5.619 -2.2767  0.0987 -0.7231
 5019TIP3   OH215020   7.186   2.975   4.476 -0.3358  0.4517 -0.1273
 5019TIP3    H115021   7.167   3.036   4.547  0.7649  0.8139 -0.1320
 5019TIP3    H215022   7.281   2.978   4.466 -0.2870 -1.0242 -0.3403
 5020TIP3   OH215023   1.258   5.797   5.546  0.3498 -0.8798  0.1456
 5020TIP3    H115024   1.174   5.764   5.514 -1.2426  0.4354  2.5903
 5020TIP3    H215025   1.278   5.870   5.488  0.1679 -1.6082 -0.8629
 5021TIP3   OH215026   4.463   3.745   3.588 -0.1944 -0.2932  0.2922
 5021TIP3    H115027   4.462   3.651   3.607  1.6908 -0.3657  0.2281
 5021TIP3    H215028   4.370   3.769   3.583 -0.7664 -2.4239 -1.0909
 5022TIP3   OH215029   4.658   1.228   1.987 -0.5370  0.0932  0.6641
 5022TIP3    H115030   4.562   1.234   1.982 -0.4893  0.9008  0.5905
 5022TIP3    H215031   4.682   1.287   2.058  0.0713  1.6635 -0.7888
 5023TIP3   OH215032   7.145   0.058   1.039 -0.0124 -0.0066  0.0453
 5023TIP3    H115033   7.094   0.034   0.962  1.6221 -1.2083 -0.7323
 5023TIP3    H215034   7.223   0.002   1.034  0.3125  0.1406  2.3770
 5024TIP3   OH215035   2.617   3.340   5.620  0.1875  0.0358 -0.5395
 5024TIP3    H115036   2.588   3.373   5.535 -0.5051  0.2124 -0.2398
 5024TIP3    H215037   2.537   3.308   5.662  0.5638 -0.2948 -0.0586
 5025TIP3   OH215038   2.145   0.784   1.592 -0.3884 -0.1134 -0.0386
 5025TIP3    H115039   2.158   0.833   1.674  0.0855 -0.8056  0.3175
 5025TIP3    H215040   2.061   0.740   1.604  1.0724 -2.7456  1.4679
 5026TIP3   OH215041   2.809   4.310   5.201 -0.1337  0.3904 -1.0224
 5026TIP3    H115042   2.740   4.353   5.151 -0.3355  0.4960 -0.6606
 5026TIP3    H215043   2.832   4.373   5.269 -1.0548 -0.4003  0.0638
 5027TIP3   OH215044   0.142   3.103   0.937  0.9051 -0.7248  0.1075
 5027TIP3    H115045   0.119   3.182   0.888  0.1362 -0.2524  1.1882
 5027TIP3    H215046   0.126   3.031   0.875  1.3167 -0.0659 -0.7901
 5028TIP3   OH215047   6.905   5.775   5.438  0.4546  0.1329 -0.3857
 5028TIP3    H115048   6.902   5.810   5.349 -0.1698  2.0887  0.3664
 5028TIP3    H215049   6.942   5.845   5.491  0.0761 -0.7051  1.0471
 5029TIP3   OH215050   2.982   2.687   4.117  0.1941  0.1833 -0.4947
 5029TIP3    H115051   2.970   2.745   4.192 -0.3348  0.9862 -1.1820
 5029TIP3    H215052   3.018   2.607   4.154  1.3474  1.0979  0.4121
 5030TIP3   OH215053   5.902   3.830   4.975 -0.3011 -0.1126 -0.5095
 5030TIP3    H115054   5.923   3.768   4.905 -0.1221  0.7745 -1.2595
 5030TIP3    H215055   5.809   3.848   4.964  0.0081  1.0208 -1.3444
 5031TIP3   OH215056   6.292   4.529   5.366  0.3818 -0.1836  0.2752
 5031TIP3    H115057   6.324   4.548   5.277  2.4930  1.7679  1.3474
 5031TIP3    H215058   6.257   4.613   5.397 -1.3612 -1.1095  0.9436
 5032TIP3   OH215059   0.061   0.425   1.505 -0.1572 -0.0820  0.4360
 5032TIP3    H115060   0.062   0.520   1.492  0.2258 -0.2073 -0.5451
 5032TIP3    H215061   0.057   0.414   1.600  0.0105  0.9110  0.5702
 5033TIP3   OH215062   6.118   6.288   5.873 -0.5149 -0.0450 -0.0277
 5033TIP3    H115063   6.078   6.212   5.831  0.0454  0.1032 -0.8429
 5033TIP3    H215064   6.191   6.312   5.816  0.9414 -0.4995  1.5695
 5034TIP3   OH215065   1.848   0.015   1.959  0.0506  0.1936 -0.5668
 5034TIP3    H115066   1.902  -0.052   1.917  2.9477  0.6990  1.9741
 5034TIP3    H215067   1.852   0.090   1.900  1.5958 -0.0487 -0.8102
 5035TIP3   OH215068   4.495   3.474   4.674 -0.3355  0.0164  0.2431
 5035TIP3    H115069   4.537   3.465   4.588 -0.8777  2.1088 -0.2836
 5035TIP3    H215070   4.532   3.402   4.726  0.6663 -0.7621 -1.4595
 5036TIP3   OH215071   3.774   1.078   2.570 -0.2511 -0.2122  0.2945
 5036TIP3    H115072   3.734   1.032   2.496  2.0426  0.3945 -1.4137
 5036TIP3    H215073   3.770   1.170   2.547 -1.1353  0.1646  1.8123
 5037TIP3   OH215074   3.268   1.006   4.440 -0.0666 -0.0691 -0.0233
 5037TIP3    H115075   3.281   0.945   4.512  0.5087 -1.7876 -1.4882
 5037TIP3    H215076   3.264   1.092   4.481 -1.4494 -1.1130  2.1872
 5038TIP3   OH215077   0.903   0.227   3.034 -0.0414  0.4063 -0.2083
 5038TIP3    H115078   0.838   0.157   3.023  1.5367 -1.0547 -0.5538
 5038TIP3    H215079   0.877   0.271   3.115 -1.8896  0.3778 -0.7356
 5039TIP3   OH215080   2.041   0.791   2.443 -0.2130  0.3898  0.0353
 5039TIP3    H115081   2.082   0.818   2.361  1.1102 -0.6627  0.3017
 5039TIP3    H215082   1.987   0.865   2.469  1.7357  1.9837 -0.2358
 5040TIP3   OH215083   5.307   0.065   1.028  0.0507 -0.1121 -0.0440
 5040TIP3    H115084   5.290  -0.009   0.970  1.2060 -0.9649  0.6772
 5040TIP3    H215085   5.401   0.079   1.024 -0.0018  0.5880  0.7104
 5041TIP3   OH215086   2.401   1.566   1.002 -0.7061 -0.0905 -0.8381
 5041TIP3    H115087   2.485   1.608   0.982 -1.2601  0.5464 -1.9534
 5041TIP3    H215088   2.415   1.523   1.086  0.4697  0.7434 -0.5797
 5042TIP3   OH215089   0.494   4.403   3.089 -0.3408  0.3289 -0.3954
 5042TIP3    H115090   0.475   4.437   3.176  4.4328  3.0471 -0.0982
 5042TIP3    H215091   0.473   4.475   3.029 -1.7724 -0.8414 -1.4024
 5043TIP3   OH215092   1.223   2.603   2.701 -0.3558  0.0440 -0.2587
 5043TIP3    H115093   1.219   2.670   2.769  1.3062  0.3681 -0.4273
 5043TIP3    H215094   1.161   2.633   2.634 -1.3094  0.2085  0.6706
 5044TIP3   OH215095   5.172   3.546   1.830 -1.0019  0.2949 -0.1275
 5044TIP3    H115096   5.154   3.455   1.807  0.2875 -0.1187  0.4437
 5044TIP3    H215097   5.230   3.541   1.905 -1.0004  1.5975 -0.0249
 5045TIP3   OH215098   5.597   4.380   1.721  0.6777 -0.3321 -0.2675
 5045TIP3    H115099   5.621   4.449   1.783 -0.9091  0.1202 -0.1364
 5045TIP3    H215100   5.510   4.404   1.690 -0.1245 -2.5180  0.1491
 5046TIP3   OH215101   4.092   2.614   2.542  0.2832  0.1939  0.6546
 5046TIP3    H115102   4.054   2.542   2.491 -0.2592  1.1525 -0.3489
 5046TIP3    H215103   4.182   2.620   2.511  0.1089  0.4334  0.1925
 5047TIP3   OH215104   4.129   0.496   4.374 -0.4342  0.6025 -0.1442
 5047TIP3    H115105   4.054   0.446   4.341  1.2034 -2.4190  0.3146
 5047TIP3    H215106   4.197   0.481   4.309  0.1422  2.3049  0.0385
 5048TIP3   OH215107   3.124   4.688   4.161 -0.1131 -0.2658  0.2188
 5048TIP3    H115108   3.157   4.771   4.127 -1.3359  0.1257 -0.0533
 5048TIP3    H215109   3.145   4.624   4.093  1.5065 -0.3598  0.7516
 5049TIP3   OH215110   4.274   0.072   1.268  0.1078 -0.0147 -0.4976
 5049TIP3    H115111   4.259  -0.022   1.259 -0.3135  0.0632 -0.6043
 5049TIP3    H215112   4.229   0.095   1.349 -0.3630  0.2207 -0.8249
 5050TIP3   OH215113   2.810   1.071   4.163 -0.4456  0.3092  0.2490
 5050TIP3    H115114   2.789   1.096   4.253  1.2388  1.6774  0.3087
 5050TIP3    H215115   2.904   1.052   4.165  0.1946  2.8022 -1.6662
 5051TIP3   OH215116   0.637   3.356   3.763  0.1402  0.3481  0.1785
 5051TIP3    H115117   0.599   3.291   3.704  0.8593  1.2614 -1.3522
 5051TIP3    H215118   0.613   3.326   3.851 -3.5221  0.5388 -0.6116
 5052TIP3   OH215119   0.729   5.349   0.460  0.1050 -0.3540 -0.0952
 5052TIP3    H115120   0.698   5.426   0.508 -1.6478 -0.0633 -1.5784
 5052TIP3    H215121   0.763   5.291   0.528 -0.4167  0.8692  1.2732
 5053TIP3   OH215122   6.079   4.005   5.120  0.1435 -0.1055 -0.6915
 5053TIP3    H115123   6.098   4.098   5.127  0.9787 -0.2719 -0.6203
 5053TIP3    H215124   6.050   3.993   5.030 -2.0598  0.5620 -0.1398
 5054TIP3   OH215125   0.339   1.712  -0.013 -0.2627 -0.0377  0.2638
 5054TIP3    H115126   0.338   1.621   0.017  0.5119  0.0366  0.5312
 5054TIP3    H215127   0.428   1.742   0.005 -0.5687  0.8296  0.3460
 5055TIP3   OH215128   7.066   1.205   4.472 -0.9322 -0.1095 -0.2142
 5055TIP3    H115129   7.044   1.117   4.503  0.1451  0.0102  0.9419
 5055TIP3    H215130   7.033   1.264   4.539 -0.3007  0.2782 -0.2295
 5056TIP3   OH215131   2.846   1.854   1.414  0.6579 -0.7035  0.0574
 5056TIP3    H115132   2.894   1.826   1.492 -0.5623  0.2639  1.2050
 5056TIP3    H215133   2.878   1.943   1.397 -0.6955 -0.0286  0.8624
 5057TIP3   OH215134   5.326   4.081   5.414  0.2939  0.4634  0.0216
 5057TIP3    H115135   5.373   3.998   5.429 -0.9162 -0.4177 -0.8984
 5057TIP3    H215136   5.241   4.055   5.379 -0.8286  2.0330  1.4107
 5058TIP3   OH215137   0.932   3.860   2.309 -0.2342  0.0421  0.3937
 5058TIP3    H115138   0.968   3.775   2.334  0.9807  0.1993 -0.7346
 5058TIP3    H215139   0.962   3.874   2.219 -1.6334  1.0192  0.0317
 5059TIP3   OH215140   5.248   4.366   0.753 -0.0573  0.7793 -0.2507
 5059TIP3    H115141   5.158   4.377   0.784 -1.1121 -2.1713 -1.7925
 5059TIP3    H215142   5.297   4.339   0.830  0.3669  5.1734  1.2828
 5060TIP3   OH215143   7.160   1.734   4.807 -0.1366 -0.1953  1.0006
 5060TIP3    H115144   7.238   1.681   4.824  0.3589  0.0061 -0.5205
 5060TIP3    H215145   7.087   1.673   4.815  0.2099 -0.5188  1.8380
 5061TIP3   OH215146   3.530   3.885   4.080 -0.1969  0.2751 -0.2824
 5061TIP3    H115147   3.593   3.944   4.040 -0.8108  0.8362 -0.4391
 5061TIP3    H215148   3.477   3.941   4.137 -0.2830 -0.2575  0.1735
 5062TIP3   OH215149   1.021   5.395   2.028  0.0251 -0.3090  0.3838
 5062TIP3    H115150   1.015   5.302   2.048 -0.7295 -0.6055 -1.1240
 5062TIP3    H215151   0.956   5.436   2.085 -2.1598 -1.1455 -1.3676
 5063TIP3   OH215152   5.869   2.183   4.883 -0.0136  0.3540  0.2405
 5063TIP3    H115153   5.862   2.179   4.978  2.1214 -1.4063  0.4003
 5063TIP3    H215154   5.960   2.160   4.865 -0.6436 -0.4353 -2.2954
 5064TIP3   OH215155   4.626   4.460   1.039 -0.4867 -0.1588 -0.2563
 5064TIP3    H115156   4.622   4.524   1.110  1.3695  0.6483 -0.8075
 5064TIP3    H215157   4.549   4.405   1.052 -0.7897  0.6331  1.7263
 5065TIP3   OH215158   3.390   4.067   4.529  0.7839  0.6331 -0.5398
 5065TIP3    H115159   3.414   4.116   4.608 -0.9734  1.4630 -0.4793
 5065TIP3    H215160   3.433   3.982   4.540  0.6713  0.7715  1.2760
 5066TIP3   OH215161   2.461   4.817   1.339  0.2233 -0.2199 -0.2525
 5066TIP3    H115162   2.390   4.880   1.329 -1.8556 -2.5050 -0.8593
 5066TIP3    H215163   2.504   4.814   1.254  0.1270  0.1474 -0.3115
 5067TIP3   OH215164   1.019   5.855   5.747  0.4915  0.3600 -0.1081
 5067TIP3    H115165   0.996   5.937   5.792  0.6122  0.2735  0.1147
 5067TIP3    H215166   1.037   5.881   5.657  2.0743  0.8310  0.3131
 5068TIP3   OH215167   2.233   0.386   0.067 -0.2079 -0.0681 -0.0688
 5068TIP3    H115168   2.167   0.318   0.075  1.6678 -1.9472  0.3260
 5068TIP3    H215169   2.269   0.375  -0.021  0.1199  0.3909  0.0015
 5069TIP3   OH215170   1.676   3.457   4.467  0.0247 -0.1295 -0.0499
 5069TIP3    H115171   1.659   3.369   4.501  1.4052 -0.4369 -0.0721
 5069TIP3    H215172   1.690   3.511   4.545 -0.6167  0.0346 -0.0424
 5070TIP3   OH215173   2.662   5.890   1.151  0.1334  0.1481 -0.1469
 5070TIP3    H115174   2.735   5.922   1.204 -0.4348  0.4042  0.4881
 5070TIP3    H215175   2.679   5.796   1.142  0.8409  0.3028 -0.4834
 5071TIP3   OH215176   3.866   6.569   4.939  0.7051  0.4403  0.4330
 5071TIP3    H115177   3.957   6.571   4.971  0.9803  1.9578 -0.3424
 5071TIP3    H215178   3.840   6.662   4.937 -1.6744 -0.0285  2.8448
 5072TIP3   OH215179   0.916   1.127   2.931  0.8152 -0.0544 -0.3773
 5072TIP3    H115180   0.893   1.151   2.840  0.0286  0.2774 -0.1079
 5072TIP3    H215181   0.850   1.062   2.955  0.6085  0.3447  0.1671
 5073TIP3   OH215182   5.409   3.830   1.973  0.0106 -0.0716  0.3969
 5073TIP3    H115183   5.442   3.740   1.970 -1.0509 -0.4632  0.1285
 5073TIP3    H215184   5.325   3.822   2.017 -0.7536  0.5848 -0.9040
 5074TIP3   OH215185   4.934   2.422   0.292  0.1278  0.0454  0.0100
 5074TIP3    H115186   4.979   2.349   0.335 -0.3416  0.2447  0.8610
 5074TIP3    H215187   4.929   2.489   0.359  0.2399  0.7392 -0.6650
 5075TIP3   OH215188   3.475   1.867   0.372  0.3282  0.4172 -0.3019
 5075TIP3    H115189   3.506   1.780   0.396  0.4956  0.5787  0.0677
 5075TIP3    H215190   3.438   1.856   0.284 -1.1182 -0.3725  0.3756
 5076TIP3   OH215191   0.852   2.551   3.083 -0.3802 -0.8779  0.6342
 5076TIP3    H115192   0.941   2.585   3.083 -0.0363 -1.7068 -0.2553
 5076TIP3    H215193   0.796   2.629   3.083  0.3776 -0.2182 -2.2218
 5077TIP3   OH215194   0.944   4.088   2.530  0.3642 -0.8471  0.2245
 5077TIP3    H115195   1.034   4.120   2.535  0.3448 -0.8337  0.5036
 5077TIP3    H215196   0.950   4.008   2.478  0.2226  0.3194 -1.7094
 5078TIP3   OH215197   1.910   5.349   4.545  0.5203 -0.1001  0.1326
 5078TIP3    H115198   1.876   5.290   4.478 -1.1931 -0.7270  1.4754
 5078TIP3    H215199   1.838   5.410   4.562  2.0481  2.1202 -0.8309
 5079TIP3   OH215200   7.086   5.549   3.925  0.1320 -0.5175  0.0367
 5079TIP3    H115201   7.153   5.494   3.884  0.2464  1.1947 -2.3011
 5079TIP3    H215202   7.035   5.583   3.852 -0.8347  1.3061  1.4712
 5080TIP3   OH215203   0.817   0.308   5.717  0.1810 -0.2709  0.1671
 5080TIP3    H115204   0.733   0.299   5.763 -0.9052  1.3427 -1.3596
 5080TIP3    H215205   0.859   0.383   5.760  1.4416 -1.7778  1.6956
 5081TIP3   OH215206   1.638   6.771   5.301 -0.1649 -0.0539 -0.1640
 5081TIP3    H115207   1.629   6.696   5.243 -0.3126  0.2237 -0.5039
 5081TIP3    H215208   1.687   6.835   5.249  1.1582 -0.4169  0.5990
 5082TIP3   OH215209   6.767   3.728   4.704  0.4039  0.1124  0.3591
 5082TIP3    H115210   6.778   3.796   4.770  2.4250  0.9922 -0.8005
 5082TIP3    H215211   6.752   3.775   4.622 -0.2746 -0.9158 -0.1433
 5083TIP3   OH215212   0.719   4.354   4.235 -0.3093 -0.0052  0.6195
 5083TIP3    H115213   0.711   4.379   4.143  2.0694 -1.1120  0.0264
 5083TIP3    H215214   0.727   4.437   4.282  0.2436  0.5503 -0.4128
 5084TIP3   OH215215   2.698   0.824   1.978 -0.2383  0.0476  0.1021
 5084TIP3    H115216   2.729   0.783   2.059 -1.5311  2.2018  1.7983
 5084TIP3    H215217   2.769   0.883   1.952 -0.4119  0.4827  0.5779
 5085TIP3   OH215218   5.565   4.669   3.525  0.5744 -0.7792 -0.5336
 5085TIP3    H115219   5.483   4.714   3.504  0.9786  0.1582 -0.1850
 5085TIP3    H215220   5.538   4.588   3.568 -0.1767 -0.7547 -0.9459
 5086TIP3   OH215221   4.783   5.251   5.254 -0.3454 -0.7442  0.1128
 5086TIP3    H115222   4.725   5.274   5.327  1.9466 -0.5013  1.9738
 5086TIP3    H215223   4.750   5.167   5.222 -1.3308 -0.9244  1.5232
 5087TIP3   OH215224   0.634   4.117   2.691 -0.1025  0.4087  0.3511
 5087TIP3    H115225   0.547   4.142   2.723  0.1509 -0.5837  1.8805
 5087TIP3    H215226   0.695   4.164   2.747  0.3746  0.6226 -0.3300
 5088TIP3   OH215227   1.153   6.071   4.524  0.4409 -0.1995  0.6175
 5088TIP3    H115228   1.242   6.104   4.531  0.6166 -0.8271  1.6828
 5088TIP3    H215229   1.099   6.150   4.514  1.0186  0.2666  1.0872
 5089TIP3   OH215230   6.792   3.730   3.671  0.2613 -0.0045 -0.3188
 5089TIP3    H115231   6.847   3.661   3.633  1.4654  0.6529  0.1749
 5089TIP3    H215232   6.833   3.812   3.641 -0.6550  0.5067 -0.2086
 5090TIP3   OH215233   0.571   0.087   2.633 -0.1994 -0.3493 -0.2530
 5090TIP3    H115234   0.598   0.170   2.594 -0.7383 -0.2527 -0.4374
 5090TIP3    H215235   0.570   0.105   2.727 -0.9844  0.0742 -0.3300
 5091TIP3   OH215236   4.600   1.502   3.150  0.1319 -0.0704  0.8015
 5091TIP3    H115237   4.661   1.498   3.077  1.2815  1.1039  1.6487
 5091TIP3    H215238   4.627   1.431   3.208 -1.8264 -2.1221 -0.5821
 5092TIP3   OH215239   0.428   6.783   1.305  0.0998 -0.0872 -0.6523
 5092TIP3    H115240   0.511   6.756   1.343 -0.1008 -0.6222 -0.5838
 5092TIP3    H215241   0.365   6.718   1.336 -0.3142  0.2148 -0.8411
 5093TIP3   OH215242   6.457   4.352   4.756 -0.4467 -0.0169  0.2923
 5093TIP3    H115243   6.396   4.417   4.792  0.1126  0.2351  0.7943
 5093TIP3    H215244   6.410   4.269   4.764 -0.5164  0.0993  1.1795
 5094TIP3   OH215245   4.995   3.059   2.041 -0.1979 -0.3566 -0.0627
 5094TIP3    H115246   5.075   3.112   2.031 -0.1221 -0.5713 -0.6058
 5094TIP3    H215247   4.991   3.006   1.962 -1.1106 -0.0401 -0.2433
 5095TIP3   OH215248   5.705   6.455   2.322  0.1765  0.1842  0.0117
 5095TIP3    H115249   5.716   6.526   2.259 -0.5241  0.6217  0.3763
 5095TIP3    H215250   5.766   6.387   2.292 -1.0063 -0.1171 -1.8600
 5096TIP3   OH215251   5.700   4.257   4.348  0.2501 -0.2136 -0.2493
 5096TIP3    H115252   5.633   4.246   4.415  0.2965  1.3252  0.1014
 5096TIP3    H215253   5.686   4.184   4.287 -1.2149 -0.3836  0.2570
 5097TIP3   OH215254   5.650   3.543   4.609  0.5821  0.2382  0.1464
 5097TIP3    H115255   5.701   3.612   4.651 -0.2223  1.2692 -0.5072
 5097TIP3    H215256   5.638   3.575   4.519  0.4936 -0.9255 -0.2643
 5098TIP3   OH215257   1.998   6.520   3.174  0.0635  0.4803 -1.0748
 5098TIP3    H115258   2.018   6.426   3.173  1.1346  0.6777 -0.0771
 5098TIP3    H215259   2.082   6.562   3.193 -0.7810  1.5015  0.6182
 5099TIP3   OH215260   4.506   4.642   3.940  0.5395 -0.5772  0.2367
 5099TIP3    H115261   4.583   4.685   3.904  0.5438 -0.9048 -0.1437
 5099TIP3    H215262   4.435   4.663   3.879  0.5778 -1.2505 -0.0517
 5100TIP3   OH215263   4.688   5.883   4.681 -0.0176 -0.4377  0.6319
 5100TIP3    H115264   4.704   5.790   4.664 -3.1012 -0.6928 -1.6058
 5100TIP3    H215265   4.606   5.885   4.731 -0.4096  1.0768 -0.0032
 5101TIP3   OH215266   2.685   1.199   3.020 -0.4379 -0.3946 -0.3079
 5101TIP3    H115267   2.770   1.225   3.054 -1.0307  2.1611 -0.5390
 5101TIP3    H215268   2.702   1.122   2.966  1.6907 -0.0275 -0.2283
 5102TIP3   OH215269   2.040   4.123   3.764  0.4485  0.3964 -0.5098
 5102TIP3    H115270   1.964   4.066   3.763  0.4108  0.4401 -2.3022
 5102TIP3    H215271   2.103   4.078   3.821 -0.4411 -0.2377 -0.0007
 5103TIP3   OH215272   3.715   2.535   4.767 -0.6354 -1.0797  0.1444
 5103TIP3    H115273   3.782   2.482   4.723  1.1629  1.1512 -0.0167
 5103TIP3    H215274   3.701   2.491   4.851  0.2915 -2.1533 -0.2289
 5104TIP3   OH215275   5.807   6.030   0.070  0.1524 -0.2943  0.2620
 5104TIP3    H115276   5.731   6.079   0.103 -0.5592 -1.2701  0.0977
 5104TIP3    H215277   5.841   5.985   0.147  1.1271  0.8305  0.5239
 5105TIP3   OH215278   0.576   1.388   5.591 -0.4046  0.8156  0.1833
 5105TIP3    H115279   0.543   1.401   5.679  0.5351  0.3486  0.6238
 5105TIP3    H215280   0.571   1.474   5.550 -2.2140  0.7494  0.1889
 5106TIP3   OH215281   3.319   1.073   0.506 -0.4661  0.1258 -0.0868
 5106TIP3    H115282   3.311   0.979   0.486  1.6984 -0.3699  1.0566
 5106TIP3    H215283   3.410   1.084   0.533 -0.8932  2.4160  0.6405
 5107TIP3   OH215284   4.678   6.514   4.801  0.0690  0.1142  0.4863
 5107TIP3    H115285   4.619   6.479   4.735  0.9999 -0.8930  0.1576
 5107TIP3    H215286   4.714   6.437   4.846  0.0513  0.7478  1.6496
 5108TIP3   OH215287   5.077   6.232   0.313 -0.2867  0.2820 -0.0302
 5108TIP3    H115288   5.071   6.181   0.232  0.3934 -1.9961  1.2936
 5108TIP3    H215289   5.005   6.201   0.367  0.6462  0.0823  1.1377
 5109TIP3   OH215290   2.043   1.341   2.227 -0.3416  0.4187 -0.2290
 5109TIP3    H115291   2.028   1.322   2.134 -0.8952  0.7813 -0.2167
 5109TIP3    H215292   2.136   1.322   2.240 -0.4487 -0.4522 -0.6556
 5110TIP3   OH215293   0.932   2.017   5.065 -0.0395 -0.1413 -0.2452
 5110TIP3    H115294   0.847   2.061   5.070 -1.8800 -3.3781 -0.0482
 5110TIP3    H215295   0.923   1.943   5.125  2.6220 -1.1085 -0.9373
 5111TIP3   OH215296   0.580   0.330   5.841  0.5719  0.2408  0.3140
 5111TIP3    H115297   0.510   0.266   5.833  1.7204 -1.0078 -0.2652
 5111TIP3    H215298   0.554   0.386   5.914 -1.7143  0.7709 -0.8313
 5112TIP3   OH215299   5.713   5.891   3.011 -0.7560  0.1007 -0.5899
 5112TIP3    H115300   5.766   5.927   2.940 -0.1068 -0.4525 -0.3971
 5112TIP3    H215301   5.774   5.837   3.061 -1.5616 -0.7289 -0.4935
 5113TIP3   OH215302   0.176   1.153   2.035  0.6365  0.1248 -0.6362
 5113TIP3    H115303   0.184   1.071   2.083  1.8046  0.2961 -0.5149
 5113TIP3    H215304   0.088   1.186   2.058  0.8783 -0.1596  0.7922
 5114TIP3   OH215305   6.596   3.630   3.025 -0.5364  0.1336  0.5473
 5114TIP3    H115306   6.628   3.616   3.114 -1.0189  1.7354  1.0111
 5114TIP3    H215307   6.675   3.648   2.974 -0.3235 -0.0716  0.7997
 5115TIP3   OH215308   4.980   3.017   0.403  0.0010  0.0439  0.3353
 5115TIP3    H115309   5.075   3.021   0.396 -0.1102 -0.2535 -2.4637
 5115TIP3    H215310   4.949   3.035   0.314 -2.5320 -0.5484  1.0286
 5116TIP3   OH215311   2.589   1.215   3.286 -0.0114  0.5895  0.1930
 5116TIP3    H115312   2.518   1.279   3.277  0.4905  0.9899 -1.1869
 5116TIP3    H215313   2.620   1.201   3.196 -0.4583 -2.0143  0.3972
 5117TIP3   OH215314   6.295   2.353   4.797 -0.2871 -1.0068  0.0094
 5117TIP3    H115315   6.382   2.392   4.809 -1.1666  0.6399  1.6796
 5117TIP3    H215316   6.262   2.392   4.716 -0.0569 -0.4113  0.1934
 5118TIP3   OH215317   3.903   0.807   1.290  0.7063 -0.1083 -0.1724
 5118TIP3    H115318   3.809   0.824   1.289  0.8227  0.5453 -0.9563
 5118TIP3    H215319   3.943   0.893   1.304  1.2317 -0.1188 -1.4636
 5119TIP3   OH215320   2.142   2.846   4.068 -0.5431 -0.0482  0.2902
 5119TIP3    H115321   2.065   2.858   4.123  0.9925 -1.2630  2.9040
 5119TIP3    H215322   2.182   2.933   4.063 -2.4725  0.8211 -1.9237
 5120TIP3   OH215323   0.694   4.330   0.083 -0.6130 -0.5986 -0.2568
 5120TIP3    H115324   0.747   4.255   0.111  2.6005  0.8688 -1.8571
 5120TIP3    H215325   0.692   4.388   0.159 -0.4032 -0.9382  0.0081
 5121TIP3   OH215326   7.089   2.948   3.656 -0.0777 -0.1969  1.2148
 5121TIP3    H115327   7.176   2.951   3.615  0.2924  0.4686  2.0271
 5121TIP3    H215328   7.081   2.857   3.687 -0.6113 -0.8854 -0.8042
 5122TIP3   OH215329   0.337   1.314   5.081 -0.0816  0.3882 -0.2297
 5122TIP3    H115330   0.351   1.387   5.019  1.3439  2.3691  2.2276
 5122TIP3    H215331   0.405   1.251   5.059  0.6989  1.2728 -0.4122
 5123TIP3   OH215332   4.135   2.893   0.989 -0.1039  0.0706  0.0342
 5123TIP3    H115333   4.207   2.928   0.937  0.2566 -0.1870  0.3472
 5123TIP3    H215334   4.088   2.834   0.930  0.1897 -0.0772 -0.0523
 5124TIP3   OH215335   1.267   2.748   5.311  0.2994  0.0933 -0.5352
 5124TIP3    H115336   1.212   2.734   5.234  0.4967 -1.4131 -0.4260
 5124TIP3    H215337   1.260   2.667   5.360  0.1987  1.0169  1.0440
 5125TIP3   OH215338   6.335   1.233   0.340  0.3276  0.2343  0.3603
 5125TIP3    H115339   6.354   1.142   0.362 -0.1764  0.4218  1.6773
 5125TIP3    H215340   6.361   1.282   0.418 -1.1686  0.9998  0.4014
 5126TIP3   OH215341   5.148   2.698   1.884 -0.1169 -0.0457  0.4476
 5126TIP3    H115342   5.206   2.761   1.841 -0.7848  1.9315  2.2625
 5126TIP3    H215343   5.194   2.674   1.964 -0.3807 -1.0426  0.3166
 5127TIP3   OH215344   2.352   4.073   0.564 -0.2533  0.3521  0.1727
 5127TIP3    H115345   2.378   4.075   0.472  0.3603 -0.3652  0.3220
 5127TIP3    H215346   2.435   4.069   0.612 -0.5574 -2.4611  0.6507
 5128TIP3   OH215347   0.573   4.377   3.461 -1.5323  0.6565 -0.0123
 5128TIP3    H115348   0.506   4.420   3.407 -1.3660  1.2754  0.2686
 5128TIP3    H215349   0.541   4.385   3.551 -0.4717  2.1038  0.2587
 5129TIP3   OH215350   5.104   2.946   2.796  0.3052  0.8631  0.1169
 5129TIP3    H115351   5.164   2.950   2.721  0.5009  1.4624  0.2989
 5129TIP3    H215352   5.023   2.985   2.764 -0.4258 -1.0715 -0.5115
 5130TIP3   OH215353   0.593   6.365   5.032 -0.0595  0.1641 -0.2362
 5130TIP3    H115354   0.622   6.317   4.954  1.2871 -0.0196  0.3454
 5130TIP3    H215355   0.511   6.323   5.058  0.6913 -1.3331 -0.2007
 5131TIP3   OH215356   4.916   0.105   5.830  0.8113 -0.2264 -0.3081
 5131TIP3    H115357   4.850   0.136   5.892  1.7242  0.4959  0.3130
 5131TIP3    H215358   4.924   0.177   5.767  0.9292 -0.3605 -0.4442
 5132TIP3   OH215359   7.173   1.559   5.108  0.2142 -0.3996 -0.1640
 5132TIP3    H115360   7.243   1.548   5.043 -0.7324  0.5939 -1.4211
 5132TIP3    H215361   7.115   1.485   5.093  0.1809 -0.3637 -0.2155
 5133TIP3   OH215362   4.490   2.389   0.224 -0.5557  0.0305 -0.3618
 5133TIP3    H115363   4.552   2.322   0.254  0.6638  0.4051 -1.9498
 5133TIP3    H215364   4.404   2.353   0.247  0.1795 -0.8107  1.2763
 5134TIP3   OH215365   6.350   3.188   1.868  0.5060  0.2146  0.5128
 5134TIP3    H115366   6.399   3.263   1.903  0.0429  1.1419 -0.7746
 5134TIP3    H215367   6.272   3.182   1.923  1.6837 -0.8859  2.1822
 5135TIP3   OH215368   2.926   2.100   1.183  0.0170 -0.2596  0.0406
 5135TIP3    H115369   2.839   2.060   1.184  0.6438 -1.6634  0.4850
 5135TIP3    H215370   2.983   2.033   1.147  1.5647 -0.8463  3.2221
 5136TIP3   OH215371   6.410   5.909   1.687  0.2328  0.2906 -0.1481
 5136TIP3    H115372   6.334   5.904   1.630  0.0618  0.4845  0.0583
 5136TIP3    H215373   6.391   5.848   1.758  0.9875 -0.8801 -0.9094
 5137TIP3   OH215374   6.175   5.860   2.432  0.5539  0.0733 -0.0484
 5137TIP3    H115375   6.146   5.940   2.476  1.5300  0.1154  0.5328
 5137TIP3    H215376   6.100   5.800   2.440  0.2022  0.5675  0.4226
 5138TIP3   OH215377   0.574   6.534   3.527 -0.2243  0.8120  0.1378
 5138TIP3    H115378   0.586   6.442   3.503  1.9839  1.2412 -0.7216
 5138TIP3    H215379   0.567   6.534   3.622 -1.2115 -0.3090  0.0831
 5139TIP3   OH215380   3.999   6.651   1.600 -0.2642  0.7044  0.0850
 5139TIP3    H115381   4.041   6.721   1.550  0.6904  0.0927  0.0038
 5139TIP3    H215382   3.991   6.687   1.689  0.2358  0.9163  0.0490
 5140TIP3   OH215383   5.873   3.606   5.833  0.0606 -0.9836  0.0352
 5140TIP3    H115384   5.828   3.674   5.782  1.1963  0.9779  1.5235
 5140TIP3    H215385   5.962   3.604   5.796  0.2646 -1.0870  0.5337
 5141TIP3   OH215386   2.888   5.704   2.596 -0.6454 -0.2778 -0.3396
 5141TIP3    H115387   2.896   5.694   2.691  0.6164 -1.0175 -0.4985
 5141TIP3    H215388   2.926   5.624   2.560  0.6075  0.7717 -1.5005
 5142TIP3   OH215389   2.126   0.186   2.191 -0.2846 -0.2504  0.0690
 5142TIP3    H115390   2.165   0.152   2.110 -2.3054 -1.9300 -0.2704
 5142TIP3    H215391   2.050   0.237   2.162 -0.1554  0.4245  0.8604
 5143TIP3   OH215392   3.015   2.246   4.783 -0.2844  0.2720 -0.0866
 5143TIP3    H115393   2.980   2.326   4.823  0.7373  0.9636 -0.5358
 5143TIP3    H215394   2.941   2.186   4.781 -1.3370  1.5508 -0.6600
 5144TIP3   OH215395   2.871   6.021   3.143 -0.1207 -0.2076 -0.8154
 5144TIP3    H115396   2.944   6.077   3.167  0.3631 -1.0761 -0.1683
 5144TIP3    H215397   2.903   5.932   3.158 -1.4335 -0.5995 -0.1018
 5145TIP3   OH215398   1.736   4.606   1.124 -0.4299 -0.0616 -0.0551
 5145TIP3    H115399   1.673   4.677   1.140  1.1568  1.4687 -0.3079
 5145TIP3    H215400   1.820   4.651   1.111  0.7880 -2.0496  0.5469
 5146TIP3   OH215401   5.055   0.366   3.590  0.2908  0.2338 -0.1395
 5146TIP3    H115402   4.977   0.363   3.535  1.6234  0.5391 -2.1525
 5146TIP3    H215403   5.026   0.332   3.674 -1.4172 -2.1365 -1.5531
 5147TIP3   OH215404   3.169   1.073   2.923  0.1034 -0.7324  0.4444
 5147TIP3    H115405   3.228   1.118   2.863 -1.3219  0.9296  0.2309
 5147TIP3    H215406   3.201   1.096   3.010  0.7261 -1.1780  0.3408
 5148TIP3   OH215407   6.802   2.678   4.620  0.3045 -0.1415 -0.1601
 5148TIP3    H115408   6.825   2.586   4.636  0.1382 -0.2153 -0.3492
 5148TIP3    H215409   6.879   2.715   4.579  0.0904 -0.3874 -0.7879
 5149TIP3   OH215410   0.700   6.290   1.476 -0.4634  0.0190 -0.2527
 5149TIP3    H115411   0.739   6.210   1.441  2.1669  0.8084  0.6419
 5149TIP3    H215412   0.770   6.355   1.471 -1.7782  1.6348  1.2049
 5150TIP3   OH215413   6.241   5.386   1.062 -0.1732 -0.4584  0.3812
 5150TIP3    H115414   6.270   5.295   1.056 -0.1995 -0.4194 -0.4554
 5150TIP3    H215415   6.313   5.437   1.024 -0.1674 -0.1314  0.8227
 5151TIP3   OH215416   4.535   4.625   5.147  0.4851 -0.2447 -0.1261
 5151TIP3    H115417   4.578   4.541   5.132 -0.6938 -1.3704  2.2391
 5151TIP3    H215418   4.447   4.601   5.177 -0.8740  1.9199 -2.0535
 5152TIP3   OH215419   4.840   2.686   5.535 -0.0446  0.2560  0.1121
 5152TIP3    H115420   4.895   2.650   5.466 -0.4997 -0.4537  0.1143
 5152TIP3    H215421   4.811   2.610   5.585  0.4227  0.7686  1.2051
 5153TIP3   OH215422   0.383   0.919   4.704 -0.5314 -0.1920  0.0471
 5153TIP3    H115423   0.325   0.867   4.760 -1.2453 -0.0594 -0.5476
 5153TIP3    H215424   0.443   0.855   4.665  0.7133 -0.1446  1.8140
 5154TIP3   OH215425   2.070   0.268   5.502  0.1754  0.0931 -0.3787
 5154TIP3    H115426   2.066   0.359   5.472 -0.8555 -0.2184 -1.2902
 5154TIP3    H215427   1.983   0.233   5.481 -0.3257 -0.4169  2.2690
 5155TIP3   OH215428   1.943   3.226   5.806 -0.4473  0.8030  0.2466
 5155TIP3    H115429   2.025   3.183   5.781 -1.0775  0.3935 -1.2172
 5155TIP3    H215430   1.944   3.225   5.902  0.5073 -0.6386  0.2525
 5156TIP3   OH215431   6.460   1.374   3.659 -0.9746 -0.2918 -0.2914
 5156TIP3    H115432   6.442   1.318   3.735 -0.0602  0.0502  0.1947
 5156TIP3    H215433   6.478   1.313   3.588 -1.5490 -0.6155 -0.1662
 5157TIP3   OH215434   6.107   2.367   1.148 -0.4093 -0.0209  0.2114
 5157TIP3    H115435   6.202   2.372   1.135 -0.6558  1.2856 -1.3927
 5157TIP3    H215436   6.097   2.354   1.243  1.3631  0.0164  0.4391
 5158TIP3   OH215437   0.688   6.612   4.960 -0.2332 -0.1602 -0.5001
 5158TIP3    H115438   0.669   6.637   4.870  0.0137 -2.5345 -1.2969
 5158TIP3    H215439   0.627   6.541   4.979  1.3167 -1.3515  0.3115
 5159TIP3   OH215440   7.085   2.959   3.322  0.1088  0.5083  0.3587
 5159TIP3    H115441   7.011   3.019   3.327 -0.2793 -0.0965  2.4992
 5159TIP3    H215442   7.064   2.888   3.383  1.2894 -1.0180 -0.9063
 5160TIP3   OH215443   6.073   3.979   4.741 -0.1613  0.2288 -0.0133
 5160TIP3    H115444   6.098   3.905   4.797 -1.2634  0.2622  0.5594
 5160TIP3    H215445   6.024   3.939   4.669 -0.4762  0.3602  0.1245
 5161TIP3   OH215446   0.979   6.796   2.809  0.3880 -0.0157 -0.4576
 5161TIP3    H115447   1.031   6.744   2.747  1.5444 -0.5946  0.9516
 5161TIP3    H215448   1.042   6.824   2.875 -0.8959  0.1879  0.7098
 5162TIP3   OH215449   4.595   2.962   3.062  0.4287 -0.4405 -0.0133
 5162TIP3    H115450   4.575   3.044   3.016  0.6030  0.2881  1.1715
 5162TIP3    H215451   4.674   2.929   3.018 -0.0407 -0.3359 -0.9505
 5163TIP3   OH215452   0.799   5.279   1.569  0.1045  0.4493 -0.3203
 5163TIP3    H115453   0.744   5.309   1.642 -0.5659 -0.3709 -0.4783
 5163TIP3    H215454   0.782   5.185   1.563  0.4430  0.4392 -1.2923
 5164TIP3   OH215455   2.824   4.924   3.548  0.4375 -0.7940  0.0377
 5164TIP3    H115456   2.908   4.879   3.547  0.7784 -0.1852  0.4319
 5164TIP3    H215457   2.842   5.009   3.509 -0.3085 -1.1666 -1.1811
 5165TIP3   OH215458   5.868   6.411   3.875  0.1117 -0.0442 -0.0239
 5165TIP3    H115459   5.947   6.456   3.905 -1.0991  0.6557  2.4197
 5165TIP3    H215460   5.881   6.319   3.899 -0.0868  0.2043  1.1092
 5166TIP3   OH215461   3.205   0.680   2.850  0.7302 -0.6391 -0.4029
 5166TIP3    H115462   3.192   0.682   2.944  0.7078  0.9768 -0.4163
 5166TIP3    H215463   3.140   0.617   2.818  0.2833 -0.6874  0.5833
 5167TIP3   OH215464   2.616   5.265   2.875  0.1372 -0.3192  0.0419
 5167TIP3    H115465   2.675   5.299   2.942 -0.9475 -0.0838  0.8931
 5167TIP3    H215466   2.646   5.175   2.860 -0.1072 -0.6583  1.4508
 5168TIP3   OH215467   1.456   2.544   1.638 -0.3703  0.5881 -0.4243
 5168TIP3    H115468   1.403   2.555   1.717 -0.8082  0.5340 -0.7047
 5168TIP3    H215469   1.503   2.461   1.652 -1.5981 -0.2053 -0.8590
 5169TIP3   OH215470   3.245   4.920   2.191 -0.0748 -0.1878 -0.4224
 5169TIP3    H115471   3.209   4.979   2.258  0.9400  0.6732 -0.6138
 5169TIP3    H215472   3.339   4.938   2.191  0.3078 -1.9931 -0.3288
 5170TIP3   OH215473   6.845   0.176   2.991  0.0900 -0.1251  0.3236
 5170TIP3    H115474   6.934   0.205   3.011  0.1544 -0.0344 -0.0888
 5170TIP3    H215475   6.850   0.080   2.994 -0.4432 -0.1590  3.1175
 5171TIP3   OH215476   4.665   5.921   0.152  0.1261  0.5296  0.4628
 5171TIP3    H115477   4.651   5.975   0.230  1.8782  1.2439  0.3120
 5171TIP3    H215478   4.617   5.840   0.171 -0.3416  1.0950  1.8238
 5172TIP3   OH215479   0.279   4.402   2.573 -0.2276 -0.1003  0.1394
 5172TIP3    H115480   0.215   4.472   2.579  0.4934  0.6102 -0.3076
 5172TIP3    H215481   0.298   4.394   2.479 -0.0093 -0.6272  0.2197
 5173TIP3   OH215482   0.130   4.493   5.286 -0.7405 -0.6969  0.5622
 5173TIP3    H115483   0.201   4.540   5.330 -1.1945 -0.6324  1.2306
 5173TIP3    H215484   0.156   4.401   5.288  0.0088 -0.5265 -0.4835
 5174TIP3   OH215485   2.175   4.985   4.839  0.2340 -0.3455 -0.0532
 5174TIP3    H115486   2.234   5.007   4.767 -0.4318  0.1419 -0.4625
 5174TIP3    H215487   2.187   5.055   4.902 -0.4555  0.1688 -0.4806
 5175TIP3   OH215488   1.376   3.758   3.195  0.4961  0.3246  0.7531
 5175TIP3    H115489   1.341   3.838   3.155 -0.3662 -0.7258 -0.6964
 5175TIP3    H215490   1.309   3.732   3.259  1.8484  1.9726  2.9614
 5176TIP3   OH215491   3.984   4.451   0.493 -0.1836 -0.2578  0.1215
 5176TIP3    H115492   3.981   4.381   0.428  2.1369  0.0599 -0.4130
 5176TIP3    H215493   3.945   4.526   0.448  1.1355 -0.1204 -0.8572
 5177TIP3   OH215494   4.276   2.466   5.462  0.3260  0.1418  0.1417
 5177TIP3    H115495   4.219   2.405   5.509  1.7372  0.4353  2.3763
 5177TIP3    H215496   4.326   2.410   5.402 -1.8797 -0.1661 -1.5314
 5178TIP3   OH215497   6.281   5.690   3.838 -0.4909  0.1726 -0.1926
 5178TIP3    H115498   6.227   5.660   3.911  0.1499  0.5727  0.4568
 5178TIP3    H215499   6.361   5.724   3.879  0.6119 -1.1147 -1.1666
 5179TIP3   OH215500   2.664   5.343   1.301  0.4702 -0.0700  0.2708
 5179TIP3    H115501   2.612   5.282   1.353 -1.1685 -0.8229 -2.0811
 5179TIP3    H215502   2.705   5.402   1.365 -2.4636 -0.0880  2.3270
 5180TIP3   OH215503   4.729   4.704   4.579  0.4032  0.7040 -0.1909
 5180TIP3    H115504   4.640   4.731   4.554  0.3015 -0.6622 -1.3944
 5180TIP3    H215505   4.760   4.653   4.505 -0.0112 -3.8882  2.4342
 5181TIP3   OH215506   5.707   6.637   2.115 -0.4391 -0.0860  0.0832
 5181TIP3    H115507   5.759   6.627   2.035 -2.2078  2.0273 -1.4581
 5181TIP3    H215508   5.704   6.731   2.130 -1.7291 -0.3315  1.5695
 5182TIP3   OH215509   6.479   4.915   0.053 -0.1807 -0.0892 -0.2326
 5182TIP3    H115510   6.442   4.987   0.105 -1.6059 -1.0470  0.1429
 5182TIP3    H215511   6.423   4.840   0.073  0.4818 -0.9939 -1.6130
 5183TIP3   OH215512   5.238   5.695   5.527 -0.2794  0.2723 -0.0334
 5183TIP3    H115513   5.246   5.604   5.497  1.4740 -0.5456  2.5907
 5183TIP3    H215514   5.145   5.704   5.548 -0.1782 -1.7066  1.6775
 5184TIP3   OH215515   3.276   4.321   1.862 -0.3642  0.1786  0.1081
 5184TIP3    H115516   3.274   4.408   1.822 -0.6524  0.3012  0.3905
 5184TIP3    H215517   3.356   4.281   1.827  0.6158  1.1275  1.2054
 5185TIP3   OH215518   5.597   3.858   0.781  0.0944  0.3685 -0.4974
 5185TIP3    H115519   5.650   3.916   0.727  0.0534 -0.4660 -1.4731
 5185TIP3    H215520   5.510   3.861   0.742 -0.6136  1.6678  1.0430
 5186TIP3   OH215521   0.535   1.929   1.974 -0.6359 -0.1326 -0.4208
 5186TIP3    H115522   0.558   2.002   2.032 -1.4421  1.2823 -1.7708
 5186TIP3    H215523   0.485   1.869   2.029 -0.9191  0.8948  0.4933
 5187TIP3   OH215524   0.106   2.630   0.970  0.0743 -0.3940  0.4580
 5187TIP3    H115525   0.063   2.544   0.965 -0.3333 -0.3380  2.3397
 5187TIP3    H215526   0.191   2.612   1.010  1.8026 -0.4493 -2.9178
 5188TIP3   OH215527   4.940   2.163   0.624  0.6786 -1.3435 -0.2997
 5188TIP3    H115528   4.877   2.235   0.624  0.2220 -1.6281  2.3991
 5188TIP3    H215529   5.024   2.205   0.645  0.5266 -1.5015  0.6536
 5189TIP3   OH215530   4.167   0.793   3.745  0.3796  0.1627  0.0309
 5189TIP3    H115531   4.236   0.745   3.791 -0.9819 -0.0554  1.9329
 5189TIP3    H215532   4.113   0.725   3.706  0.3205  0.2778 -0.0885
 5190TIP3   OH215533   5.875   1.886   2.857 -0.6321  0.8169  0.1059
 5190TIP3    H115534   5.863   1.932   2.774  0.5202 -0.1536 -0.6376
 5190TIP3    H215535   5.920   1.949   2.914 -2.7504  2.0195  0.5625
 5191TIP3   OH215536   7.142   6.300   3.919 -0.4755 -0.7570 -0.7965
 5191TIP3    H115537   7.135   6.351   3.999 -1.4053 -0.3599 -1.1173
 5191TIP3    H215538   7.231   6.263   3.921 -0.3992 -0.5326  0.2714
 5192TIP3   OH215539   1.645   3.947   1.707 -0.1398 -0.0662 -0.3828
 5192TIP3    H115540   1.730   3.957   1.751  0.4292 -0.6456 -1.3074
 5192TIP3    H215541   1.648   4.011   1.636 -1.2570  1.2223  0.6708
 5193TIP3   OH215542   3.999   5.804   0.678  0.0786 -0.6968  0.1849
 5193TIP3    H115543   4.080   5.772   0.718  0.8831 -0.8267 -1.4839
 5193TIP3    H215544   4.027   5.849   0.599 -1.4152  0.1652  0.1116
 5194TIP3   OH215545   1.707   5.806   4.920  0.2751 -0.2641  0.3394
 5194TIP3    H115546   1.708   5.710   4.918  2.4395 -0.2962  1.0200
 5194TIP3    H215547   1.730   5.831   4.830  0.5359 -0.4003  0.3668
 5195TIP3   OH215548   1.433   6.282   2.908 -0.2823 -0.0059 -0.1766
 5195TIP3    H115549   1.412   6.202   2.956  0.6587  0.7967  1.6371
 5195TIP3    H215550   1.353   6.335   2.914 -0.2125  0.0371  0.4240
 5196TIP3   OH215551   2.933   5.311   0.822 -0.4561  0.1473 -0.4330
 5196TIP3    H115552   2.958   5.377   0.887  0.1102  0.7185 -1.2160
 5196TIP3    H215553   3.013   5.293   0.774 -1.3814  1.7420 -2.7521
 5197TIP3   OH215554   4.882   1.871   4.173 -0.5828 -0.1569  0.1157
 5197TIP3    H115555   4.929   1.953   4.156  1.1516 -0.6567  2.1659
 5197TIP3    H215556   4.815   1.894   4.237 -0.6089 -0.2070  0.1069
 5198TIP3   OH215557   4.346   1.160   1.429  0.4165  0.2487 -0.2035
 5198TIP3    H115558   4.297   1.196   1.503  1.6780 -0.5938  1.0941
 5198TIP3    H215559   4.430   1.206   1.430  1.4732 -1.5859  0.5596
 5199TIP3   OH215560   1.005   6.329   4.561 -0.5946 -0.9319  0.0787
 5199TIP3    H115561   0.927   6.354   4.511 -3.1252 -0.7852  3.7597
 5199TIP3    H215562   1.055   6.410   4.570 -1.0332 -0.5754 -0.6039
 5200TIP3   OH215563   1.760   1.995   5.088 -0.0175  0.7729  0.2175
 5200TIP3    H115564   1.670   2.000   5.121 -0.3930  0.7702 -0.7542
 5200TIP3    H215565   1.803   1.930   5.143 -0.4603  1.1394  1.0181
 5201TIP3   OH215566   5.971   1.936   1.919 -0.3553 -0.3023  0.0333
 5201TIP3    H115567   5.925   2.008   1.876 -1.7544 -1.4006 -0.4014
 5201TIP3    H215568   6.038   1.909   1.856 -0.8392 -0.3754 -0.4517
 5202TIP3   OH215569   4.053   4.871   4.428 -0.2729 -0.7561  0.0205
 5202TIP3    H115570   3.977   4.914   4.390 -0.2474 -1.8795 -1.3689
 5202TIP3    H215571   4.018   4.819   4.500 -0.9179 -1.6294 -0.8957
 5203TIP3   OH215572   3.618   6.050   3.074 -0.0047 -0.4458 -0.0201
 5203TIP3    H115573   3.595   6.021   2.986 -0.1859 -0.5464  0.0580
 5203TIP3    H215574   3.558   6.123   3.091 -1.2921 -1.6285  0.7373
 5204TIP3   OH215575   1.963   1.323   5.464 -0.5372 -0.2972  0.3284
 5204TIP3    H115576   1.988   1.344   5.555 -0.8373 -1.2270  0.6404
 5204TIP3    H215577   2.046   1.320   5.417 -0.4425  0.9895  0.3917
 5205TIP3   OH215578   2.060   0.175   1.342 -0.0721  0.3545 -0.1239
 5205TIP3    H115579   2.020   0.168   1.428  1.2886  1.4328  0.6369
 5205TIP3    H215580   2.026   0.258   1.307 -0.7088 -0.1325 -0.7044
 5206TIP3   OH215581   3.992   1.192   2.959  0.1063  0.3533 -0.0359
 5206TIP3    H115582   3.961   1.282   2.945  2.1403  0.9114 -1.6648
 5206TIP3    H215583   4.080   1.203   2.996  1.0491 -0.8642 -1.7537
 5207TIP3   OH215584   7.089   3.718   5.354  0.5486 -0.1170  0.4909
 5207TIP3    H115585   7.023   3.674   5.407 -1.0185  0.9617 -0.4357
 5207TIP3    H215586   7.170   3.711   5.404  0.6522 -4.5693  0.1133
 5208TIP3   OH215587   3.930   1.629   2.736 -0.2320 -0.0512  0.8882
 5208TIP3    H115588   3.841   1.660   2.753 -0.0138  0.5675  0.9244
 5208TIP3    H215589   3.984   1.708   2.742  0.1871 -0.2569 -0.1182
 5209TIP3   OH215590   0.189   1.386   5.694  0.2275 -0.4143 -0.2251
 5209TIP3    H115591   0.141   1.418   5.770  0.0174 -0.7606 -0.2065
 5209TIP3    H215592   0.265   1.443   5.687  0.4502 -0.6192  0.4737
 5210TIP3   OH215593   3.330   4.997   1.694 -0.6990 -0.5461 -0.4488
 5210TIP3    H115594   3.410   4.962   1.733 -0.0638 -0.6684 -1.7731
 5210TIP3    H215595   3.289   4.922   1.651 -0.3609 -0.0817 -1.6280
 5211TIP3   OH215596   0.506   5.564   1.757 -0.6544 -0.2791 -0.0350
 5211TIP3    H115597   0.415   5.591   1.768 -1.1614 -2.2977  1.0944
 5211TIP3    H215598   0.508   5.473   1.786  1.6996 -0.3312 -0.1929
 5212TIP3   OH215599   3.445   1.901   4.263  0.2920  0.0283  0.4314
 5212TIP3    H115600   3.526   1.851   4.276  0.1884 -0.4727 -0.7769
 5212TIP3    H215601   3.394   1.884   4.342  1.9953  1.6580  2.0122
 5213TIP3   OH215602   5.266   0.504   3.470 -0.0056  0.3326  0.4925
 5213TIP3    H115603   5.279   0.469   3.382 -0.2023 -0.6816  0.8569
 5213TIP3    H215604   5.197   0.450   3.508 -0.8381  1.5749  0.8321
 5214TIP3   OH215605   0.710   2.829   2.676 -0.2026  0.5858  0.3244
 5214TIP3    H115606   0.634   2.870   2.717 -0.1669  0.3809  0.5954
 5214TIP3    H215607   0.679   2.742   2.650  0.1053  0.2738  0.9766
 5215TIP3   OH215608   6.682  -0.012   5.164  0.0380  0.1851 -0.1026
 5215TIP3    H115609   6.678   0.072   5.119  2.5507  0.1780 -0.4874
 5215TIP3    H215610   6.775  -0.033   5.167 -0.0911 -0.5827  3.7344
 5216TIP3   OH215611   4.413   1.830   1.071 -0.6249  0.5485  0.3530
 5216TIP3    H115612   4.489   1.885   1.091  0.2073 -0.5198  0.2090
 5216TIP3    H215613   4.406   1.834   0.976  0.7413 -1.2076  0.1182
 5217TIP3   OH215614   0.277   0.935   0.456  0.4861 -0.3115  0.3680
 5217TIP3    H115615   0.245   1.019   0.422 -1.5216 -1.9040 -2.0505
 5217TIP3    H215616   0.271   0.943   0.551  0.1116  2.1661  0.2014
 5218TIP3   OH215617   7.181   0.522   0.707  0.0900 -0.4396 -0.3577
 5218TIP3    H115618   7.217   0.591   0.651  0.4058  0.7143  1.1753
 5218TIP3    H215619   7.223   0.536   0.792 -0.3826 -2.1055  0.1950
 5219TIP3   OH215620   5.091   6.348   4.299  0.2880 -0.2792  0.1788
 5219TIP3    H115621   5.131   6.268   4.266  0.0204 -1.2571  2.0559
 5219TIP3    H215622   4.997   6.337   4.282  0.4980  0.9713 -2.1299
 5220TIP3   OH215623   3.421   0.366   0.857 -0.3589 -0.0299 -0.2965
 5220TIP3    H115624   3.484   0.324   0.916  1.7812  0.1078 -2.3318
 5220TIP3    H215625   3.386   0.294   0.804 -1.8429 -0.0775  0.7012
 5221TIP3   OH215626   6.245   6.553   5.684  0.2946 -0.3387 -0.1010
 5221TIP3    H115627   6.334   6.579   5.663  0.3498 -0.5963 -0.1989
 5221TIP3    H215628   6.223   6.601   5.763 -0.4482  1.8020 -1.5101
 5222TIP3   OH215629   6.643   6.167   3.657  0.4264  0.1203 -0.0759
 5222TIP3    H115630   6.660   6.181   3.750 -1.8952 -0.0524  0.4130
 5222TIP3    H215631   6.709   6.221   3.613  1.3935  0.4231  1.6526
 5223TIP3   OH215632   3.911   4.563   3.867 -0.1285  0.1884  0.1651
 5223TIP3    H115633   3.905   4.641   3.922  1.1058  0.8615 -0.6060
 5223TIP3    H215634   3.981   4.511   3.907  2.0950  1.5428 -1.6929
 5224TIP3   OH215635   6.342   3.030   4.914  0.0748 -0.2817  0.3958
 5224TIP3    H115636   6.282   2.955   4.913 -0.4882  0.0744 -3.0587
 5224TIP3    H215637   6.285   3.106   4.909  0.6948  0.1028 -1.8214
 5225TIP3   OH215638   5.760   3.604   3.018  0.1606  0.3655  0.3923
 5225TIP3    H115639   5.826   3.627   3.084  0.2502  0.3363  0.3121
 5225TIP3    H215640   5.680   3.588   3.069  0.4105 -0.3841  0.5587
 5226TIP3   OH215641   1.951   6.685   2.237 -0.6509 -0.4765  0.1566
 5226TIP3    H115642   2.037   6.703   2.276 -0.0805  0.4106 -1.4218
 5226TIP3    H215643   1.950   6.590   2.225 -0.8160 -0.7680  2.2026
 5227TIP3   OH215644   5.474   2.685   3.556 -0.1598  0.4224  0.0024
 5227TIP3    H115645   5.494   2.686   3.462 -1.3345  0.2138 -0.2604
 5227TIP3    H215646   5.387   2.724   3.563 -0.8766 -1.2357  0.7991
 5228TIP3   OH215647   1.326   2.725   3.452  0.3064  0.3856 -0.0615
 5228TIP3    H115648   1.363   2.716   3.539  1.1077  1.8770 -0.2217
 5228TIP3    H215649   1.233   2.705   3.463  0.2465  1.3124  1.3031
 5229TIP3   OH215650   4.494   4.728   4.477  0.1151 -0.2399  0.3775
 5229TIP3    H115651   4.510   4.687   4.392 -0.1683  0.0414  0.1853
 5229TIP3    H215652   4.449   4.810   4.456 -2.7571 -1.5215  0.9081
 5230TIP3   OH215653   3.190   2.985   5.628  0.5078  0.4779  0.1205
 5230TIP3    H115654   3.100   3.016   5.642  0.3790 -0.0820  0.5888
 5230TIP3    H215655   3.241   3.031   5.696  0.4817  0.3843  0.2033
 5231TIP3   OH215656   6.706   1.581   0.872 -0.0893 -0.0431  0.1025
 5231TIP3    H115657   6.634   1.629   0.833 -0.7357 -0.1516  1.1391
 5231TIP3    H215658   6.724   1.510   0.810 -1.3054 -0.4097  0.1656
 5232TIP3   OH215659   2.692   6.146   4.636  0.0407 -0.1064 -0.2136
 5232TIP3    H115660   2.767   6.096   4.604 -0.7262 -1.0556 -0.6256
 5232TIP3    H215661   2.654   6.090   4.704 -0.4154  0.2525 -0.1701
 5233TIP3   OH215662   2.063   5.816   2.514 -0.4865 -0.3368 -0.6941
 5233TIP3    H115663   1.997   5.885   2.503 -2.3309 -1.7971  0.6178
 5233TIP3    H215664   2.066   5.773   2.428 -1.2373 -0.2539 -0.7674
 5234TIP3   OH215665   0.526   3.117   3.622 -0.2376 -0.2428  0.5719
 5234TIP3    H115666   0.547   3.188   3.561 -1.4770  0.5639  1.0421
 5234TIP3    H215667   0.452   3.151   3.674 -1.1649 -2.0454  0.5003
 5235TIP3   OH215668   1.584   3.690   4.096  0.2771  0.4138 -0.1325
 5235TIP3    H115669   1.652   3.658   4.155 -0.4444  2.5714  2.0391
 5235TIP3    H215670   1.538   3.612   4.068  2.2194 -0.8958  0.1423
 5236TIP3   OH215671   1.821   3.029   3.846  0.1392 -0.2351 -0.4038
 5236TIP3    H115672   1.875   3.095   3.891 -0.3034 -0.5400  0.5869
 5236TIP3    H215673   1.876   2.951   3.845  0.6078  0.0855 -1.4528
 5237TIP3   OH215674   3.828   0.137   5.277  0.0091  0.0373 -0.2999
 5237TIP3    H115675   3.857   0.046   5.274  0.3701  0.0474  1.5349
 5237TIP3    H215676   3.905   0.187   5.250  0.2600 -0.1554  0.0380
 5238TIP3   OH215677   1.727   4.233   3.773  0.0960 -0.0856  0.9118
 5238TIP3    H115678   1.791   4.227   3.702  2.5057  0.3976  2.9218
 5238TIP3    H215679   1.738   4.152   3.823  0.4224  0.7618  2.2640
 5239TIP3   OH215680   3.912   6.700   0.694 -0.2343 -0.2853  0.3063
 5239TIP3    H115681   4.004   6.714   0.716  0.3202 -0.8911 -1.4885
 5239TIP3    H215682   3.882   6.786   0.662 -0.6767  0.2427  2.0308
 5240TIP3   OH215683   2.122   4.741   0.742 -0.1977 -0.4378 -0.1242
 5240TIP3    H115684   2.074   4.683   0.683 -1.4399  1.1420 -0.7394
 5240TIP3    H215685   2.213   4.712   0.735 -0.7277 -2.0663 -0.6580
 5241TIP3   OH215686   3.762   3.649   5.895 -0.4107  0.0251 -0.1737
 5241TIP3    H115687   3.806   3.732   5.910  2.1523 -1.0732 -1.1095
 5241TIP3    H215688   3.711   3.663   5.815 -0.8969  0.9965  0.2928
 5242TIP3   OH215689   0.411   2.707   3.230 -0.8349 -0.2084 -0.1680
 5242TIP3    H115690   0.462   2.737   3.305 -1.4039  1.7245 -0.5011
 5242TIP3    H215691   0.321   2.732   3.250 -1.2297 -1.0646 -0.8184
 5243TIP3   OH215692   1.104   6.487   5.838  0.0679  0.5276  0.2838
 5243TIP3    H115693   1.065   6.567   5.804 -1.2002  0.3082  1.1437
 5243TIP3    H215694   1.066   6.417   5.785  0.5460  0.4171  0.0749
 5244TIP3   OH215695   0.877   1.620   4.134 -0.2922 -0.0122 -0.1456
 5244TIP3    H115696   0.958   1.569   4.129 -0.6556 -0.6987  0.6250
 5244TIP3    H215697   0.888   1.676   4.210 -0.4221  0.1045 -0.2122
 5245TIP3   OH215698   4.951   5.151   4.813  0.1405  0.6246  0.1825
 5245TIP3    H115699   4.903   5.186   4.738 -0.3732  0.0398  0.2266
 5245TIP3    H215700   4.888   5.091   4.855  1.3549 -1.2533 -0.5535
 5246TIP3   OH215701   3.406   3.593   0.838 -0.2600 -0.4079 -0.1218
 5246TIP3    H115702   3.319   3.631   0.853 -0.5354 -0.9724 -0.2647
 5246TIP3    H215703   3.466   3.658   0.873 -0.7345  0.0513 -0.1426
 5247TIP3   OH215704   0.623   5.706   4.297 -0.6386  0.3003 -0.3794
 5247TIP3    H115705   0.653   5.620   4.265  0.3132  0.4441  0.0719
 5247TIP3    H215706   0.588   5.750   4.220 -1.5340 -0.6562 -0.5337
 5248TIP3   OH215707   5.357   4.030   3.195 -0.6139 -0.3732 -0.5074
 5248TIP3    H115708   5.367   4.040   3.290 -1.1117  0.0456 -0.4933
 5248TIP3    H215709   5.445   4.045   3.160  0.2023 -3.2500  0.0694
 5249TIP3   OH215710   4.075   0.652   2.209 -0.0953 -0.3769  0.2836
 5249TIP3    H115711   3.979   0.645   2.212 -0.0207 -1.1711  2.1364
 5249TIP3    H215712   4.105   0.601   2.284  1.7464  0.7958  0.3980
 5250TIP3   OH215713   4.444   2.564   5.907 -0.1578 -0.3625  0.0369
 5250TIP3    H115714   4.390   2.593   5.833 -1.5630 -0.6836  0.9035
 5250TIP3    H215715   4.534   2.578   5.878 -0.7066  1.7570 -0.8570
 5251TIP3   OH215716   2.572   1.659   4.273  0.0197  0.0983 -0.0226
 5251TIP3    H115717   2.588   1.751   4.298 -1.6244  0.1711  0.9263
 5251TIP3    H215718   2.548   1.616   4.355 -1.1461 -0.7275 -0.7678
 5252TIP3   OH215719   0.207   6.596   1.417  0.4155  0.5420 -0.2665
 5252TIP3    H115720   0.169   6.649   1.346 -2.5048  0.0209  0.7996
 5252TIP3    H215721   0.177   6.507   1.400  0.5970  0.2125  1.0298
 5253TIP3   OH215722   2.482   2.441   3.469 -0.2538  0.2210 -0.5704
 5253TIP3    H115723   2.547   2.436   3.538  1.0621  0.2204 -1.7598
 5253TIP3    H215724   2.400   2.412   3.510  0.6449 -0.4945  0.7674
 5254TIP3   OH215725   1.510   3.429   3.579 -0.2586  0.6617  0.3588
 5254TIP3    H115726   1.548   3.377   3.508  0.8479  1.9970 -0.0830
 5254TIP3    H215727   1.457   3.367   3.628  1.5032 -1.0485  0.2615
 5255TIP3   OH215728   6.387   2.693   4.315  0.3112 -0.7215  0.6502
 5255TIP3    H115729   6.321   2.641   4.268 -0.8849  0.6216  0.7961
 5255TIP3    H215730   6.465   2.688   4.260 -0.5365 -0.6251 -0.5988
 5256TIP3   OH215731   4.263   2.282   2.455 -0.5698 -0.3525  0.5638
 5256TIP3    H115732   4.277   2.201   2.405 -3.0511 -1.6073  1.7199
 5256TIP3    H215733   4.284   2.258   2.545 -0.7419  0.4557  0.8250
 5257TIP3   OH215734   4.186   0.323   0.759  0.4062  0.0205 -0.0683
 5257TIP3    H115735   4.091   0.312   0.766  0.4042  1.0916  3.5079
 5257TIP3    H215736   4.221   0.272   0.832  2.6071 -0.0666 -1.0995
 5258TIP3   OH215737   1.751   4.500   0.059 -0.5587 -0.0272  0.1706
 5258TIP3    H115738   1.721   4.537  -0.024  2.0893  0.9177 -0.4597
 5258TIP3    H215739   1.822   4.442   0.036 -0.0558 -0.0943  1.7465
 5259TIP3   OH215740   5.360   0.037   4.247 -0.1281 -0.4358 -0.1240
 5259TIP3    H115741   5.323  -0.049   4.233  1.2233 -1.4074  1.7768
 5259TIP3    H215742   5.454   0.022   4.255  0.3149  1.4262 -1.1535
 5260TIP3   OH215743   3.497   6.712   1.337 -0.4527  1.0259 -0.3924
 5260TIP3    H115744   3.575   6.750   1.378 -0.5930  0.3814  0.5011
 5260TIP3    H215745   3.478   6.634   1.389 -0.5765  0.1019 -1.7868
 5261TIP3   OH215746   4.829   2.860   5.156  0.5493  0.1041 -0.0759
 5261TIP3    H115747   4.848   2.872   5.063 -1.9166  1.5925 -0.4973
 5261TIP3    H215748   4.875   2.932   5.199  1.7898 -0.6546 -0.0859
 5262TIP3   OH215749   3.176   0.768   5.878  0.6758 -0.4461 -0.1833
 5262TIP3    H115750   3.131   0.853   5.881  0.2406 -0.6290 -1.1111
 5262TIP3    H215751   3.268   0.790   5.891  0.7760  0.3698 -1.9316
 5263TIP3   OH215752   2.095   5.352   2.283  0.1743  0.0608 -0.2326
 5263TIP3    H115753   2.029   5.417   2.307  0.1419 -0.2180  0.4724
 5263TIP3    H215754   2.064   5.271   2.322  0.6391 -0.1960 -0.3853
 5264TIP3   OH215755   4.961   5.943   1.892  0.5350  0.1094  0.5384
 5264TIP3    H115756   4.977   6.029   1.855 -0.5950  0.3909  0.6537
 5264TIP3    H215757   4.881   5.913   1.848  0.1319 -0.2690  1.5104
 5265TIP3   OH215758   2.691   6.776   1.789  0.0850 -0.0503 -0.7970
 5265TIP3    H115759   2.688   6.848   1.853  0.6071  1.6096 -2.5663
 5265TIP3    H215760   2.600   6.747   1.781  0.1032 -0.8597  1.2507
 5266TIP3   OH215761   0.885   3.249   2.040  0.6657  0.3891  0.0955
 5266TIP3    H115762   0.868   3.189   2.112  2.8744  0.1497  0.4684
 5266TIP3    H215763   0.801   3.255   1.994 -0.3698 -0.6780  1.7460
 5267TIP3   OH215764   3.817   6.130   2.835  0.2304 -0.1342 -0.1178
 5267TIP3    H115765   3.750   6.193   2.810 -1.2712 -1.9103 -0.8258
 5267TIP3    H215766   3.898   6.181   2.839 -1.1410  2.1239  0.9210
 5268TIP3   OH215767   4.769   2.553   3.085  0.3259  0.0303  0.2574
 5268TIP3    H115768   4.818   2.494   3.029 -0.6650 -1.6776  1.1223
 5268TIP3    H215769   4.773   2.638   3.041  0.3183 -1.0634 -1.9359
 5269TIP3   OH215770   6.755   0.060   2.643  0.0119  0.1123 -0.1950
 5269TIP3    H115771   6.819  -0.006   2.669 -0.2403  0.0817  0.3738
 5269TIP3    H215772   6.675   0.034   2.689 -0.0293  0.9381  0.2130
 5270TIP3   OH215773   3.248   0.547   4.107  0.6352 -0.4296 -0.2085
 5270TIP3    H115774   3.290   0.462   4.122  0.2935 -0.6394 -0.4316
 5270TIP3    H215775   3.157   0.526   4.084  0.3651  0.0238  0.4073
 5271TIP3   OH215776   6.920   2.916   4.349  0.5015 -0.0033  0.5375
 5271TIP3    H115777   6.954   2.906   4.261  0.2866 -2.0995  0.6417
 5271TIP3    H215778   6.997   2.930   4.404  0.5412  2.8632 -0.0877
 5272TIP3   OH215779   6.959   0.856   1.615  0.4163 -0.1075 -0.2894
 5272TIP3    H115780   6.876   0.866   1.661 -0.2033 -0.9887 -1.1765
 5272TIP3    H215781   7.022   0.833   1.684  0.3726  2.4131  0.6792
 5273TIP3   OH215782   1.071   2.750   5.116  0.6808  0.1778  0.0622
 5273TIP3    H115783   1.039   2.687   5.051 -0.2587  1.1926 -0.5086
 5273TIP3    H215784   1.005   2.819   5.116  1.4699  0.9634  0.9787
 5274TIP3   OH215785   5.659   4.062   1.394  0.1534 -0.5247  0.3291
 5274TIP3    H115786   5.615   4.022   1.469 -1.4712  1.8611  0.7544
 5274TIP3    H215787   5.655   4.156   1.411  0.5039  0.0570 -2.3459
 5275TIP3   OH215788   6.036   0.208   4.348 -0.0899 -0.3611  0.0774
 5275TIP3    H115789   6.091   0.287   4.343 -1.2286  0.4539  0.1118
 5275TIP3    H215790   6.091   0.144   4.393  2.1699 -0.7430 -2.8580
 5276TIP3   OH215791   3.720   0.957   0.836 -0.2343 -0.2115  0.1637
 5276TIP3    H115792   3.675   0.881   0.873 -0.7033 -0.4954 -0.9268
 5276TIP3    H215793   3.782   0.919   0.773  1.0419  0.2129  1.1287
 5277TIP3   OH215794   2.153   4.173   1.500 -0.6829 -0.5232 -0.2764
 5277TIP3    H115795   2.167   4.265   1.478  2.7117 -1.1456 -1.4083
 5277TIP3    H215796   2.117   4.135   1.420 -0.3718 -0.4728 -0.4452
 5278TIP3   OH215797   5.953   4.030   3.077  0.3674  0.5882  0.2696
 5278TIP3    H115798   6.031   3.981   3.103 -0.5746 -1.3688 -0.3929
 5278TIP3    H215799   5.904   3.969   3.021 -1.0882  2.1576 -0.2522
 5279TIP3   OH215800   5.193   4.121   4.855 -0.7439 -0.7177 -0.2571
 5279TIP3    H115801   5.252   4.108   4.929 -2.1205  1.0980  1.2597
 5279TIP3    H215802   5.147   4.038   4.845 -0.3562 -1.0624  0.7707
 5280TIP3   OH215803   3.646   1.314   0.217  0.7869 -0.0612 -0.0560
 5280TIP3    H115804   3.555   1.292   0.197  0.5408  0.8928 -0.0199
 5280TIP3    H215805   3.654   1.407   0.197  1.9603 -0.2903 -0.7847
 5281TIP3   OH215806   0.426   4.947   2.802  0.7635 -0.3408 -0.3877
 5281TIP3    H115807   0.356   4.970   2.863  0.2882  0.5014 -1.2323
 5281TIP3    H215808   0.503   4.994   2.834  0.8641 -0.9663  0.3213
 5282TIP3   OH215809   6.507   2.688   4.984 -0.8394 -0.5566 -0.2180
 5282TIP3    H115810   6.533   2.602   4.951  0.6452 -0.3715  0.3724
 5282TIP3    H215811   6.513   2.745   4.907 -0.6898 -0.7718 -0.3686
 5283TIP3   OH215812   2.242   2.141   1.488  0.3067 -0.5221  0.2945
 5283TIP3    H115813   2.255   2.135   1.393 -0.8949  1.1455 -0.0268
 5283TIP3    H215814   2.286   2.222   1.513 -1.8542  0.6451  0.5969
 5284TIP3   OH215815   2.235   1.490   0.312 -0.2557 -0.4377  0.3872
 5284TIP3    H115816   2.201   1.564   0.362  0.6926 -0.1486  0.6319
 5284TIP3    H215817   2.307   1.456   0.365  1.9340  0.9438 -1.4631
 5285TIP3   OH215818   1.966   3.755   0.018  0.4658 -0.4421 -0.6206
 5285TIP3    H115819   1.888   3.762   0.073  2.1339  1.6232  1.6992
 5285TIP3    H215820   1.932   3.754  -0.071 -2.3095 -2.6021  0.3042
 5286TIP3   OH215821   3.582   1.070   0.330 -0.1066  0.9275  0.3207
 5286TIP3    H115822   3.627   1.152   0.310  0.5636  0.6180  0.5369
 5286TIP3    H215823   3.523   1.057   0.255 -1.3555  2.3685  1.0026
 5287TIP3   OH215824   4.652   2.983   3.648  0.0826 -0.5355 -0.2010
 5287TIP3    H115825   4.572   3.023   3.613 -0.0647 -1.8564 -1.4656
 5287TIP3    H215826   4.715   3.054   3.652 -0.0984 -0.1717 -2.5914
 5288TIP3   OH215827   6.705   5.400   2.200 -0.1793 -0.4331 -0.4376
 5288TIP3    H115828   6.649   5.352   2.139 -2.0320 -0.2560  1.0492
 5288TIP3    H215829   6.645   5.442   2.261  1.5200  1.3050  0.1423
 5289TIP3   OH215830   2.820   4.161   2.256 -0.0028  0.6239  0.1506
 5289TIP3    H115831   2.743   4.217   2.267 -0.5234 -0.5269  3.4040
 5289TIP3    H215832   2.787   4.072   2.265  1.5376  0.0461  0.3543
 5290TIP3   OH215833   6.150   0.719   1.667 -0.3712 -0.1759 -0.0387
 5290TIP3    H115834   6.152   0.793   1.607  1.8687 -1.3245 -1.5069
 5290TIP3    H215835   6.196   0.649   1.621  1.0375 -1.2736  2.8175
 5291TIP3   OH215836   2.279   6.749   5.035 -0.1206  0.3918 -0.4316
 5291TIP3    H115837   2.202   6.784   5.080  0.9358  0.5592  1.3431
 5291TIP3    H215838   2.271   6.654   5.042  0.3404  0.4217  0.7152
 5292TIP3   OH215839   3.044   2.156   3.023  0.1652 -0.5578 -0.3001
 5292TIP3    H115840   3.064   2.248   3.042  0.9871 -0.9654  0.9893
 5292TIP3    H215841   3.015   2.156   2.932  0.9655  0.8718 -0.5949
 5293TIP3   OH215842   6.176   2.143   0.294  0.8010  0.2369  0.1108
 5293TIP3    H115843   6.101   2.170   0.241  0.9965 -1.4045 -1.1010
 5293TIP3    H215844   6.234   2.100   0.232  1.4421 -0.9975  1.5083
 5294TIP3   OH215845   0.810   2.028   5.795  0.3871  0.1764 -0.0610
 5294TIP3    H115846   0.755   2.100   5.764 -1.0560 -0.3645  1.1112
 5294TIP3    H215847   0.876   2.070   5.851  0.3235  0.7099 -0.3888
 5295TIP3   OH215848   5.813   2.529   1.273 -0.4746  0.4787  0.5052
 5295TIP3    H115849   5.776   2.461   1.329  0.0800 -0.1003  0.1849
 5295TIP3    H215850   5.907   2.511   1.271 -0.5560 -0.0075 -1.2402
 5296TIP3   OH215851   1.765   0.962   5.677  0.0908  0.4259 -0.2132
 5296TIP3    H115852   1.720   0.879   5.661  0.0535 -0.2255  2.7553
 5296TIP3    H215853   1.708   1.009   5.737  0.4821  2.3271 -1.2524
 5297TIP3   OH215854   1.153   0.570   3.969  0.2800  0.3229 -0.8187
 5297TIP3    H115855   1.118   0.495   4.018  1.0892 -0.4390 -1.3599
 5297TIP3    H215856   1.239   0.586   4.008  0.1130  0.9760 -0.7105
 5298TIP3   OH215857   5.062   4.175   1.077  0.5120  0.0400 -0.1732
 5298TIP3    H115858   5.142   4.172   1.131  1.1717  0.7050 -1.0761
 5298TIP3    H215859   5.019   4.256   1.103 -0.4548 -0.8529  1.0903
 5299TIP3   OH215860   5.403   4.485   4.418  0.4314  0.6055  0.0307
 5299TIP3    H115861   5.348   4.509   4.344  0.7185 -0.3741 -0.5139
 5299TIP3    H215862   5.342   4.465   4.489  0.1054  0.0093 -0.4189
 5300TIP3   OH215863   0.102   0.166   4.092  0.0858  0.3103 -0.7365
 5300TIP3    H115864   0.063   0.080   4.108 -0.3018  0.8625  1.8373
 5300TIP3    H215865   0.045   0.227   4.139  2.4362  1.4800  0.7882
 5301TIP3   OH215866   4.374   3.920   4.762  0.7956  0.7444  0.0463
 5301TIP3    H115867   4.446   3.879   4.715 -0.3583  0.2398 -1.3464
 5301TIP3    H215868   4.373   3.877   4.847  1.4786  0.0266 -0.2975
 5302TIP3   OH215869   5.024   1.003   3.394  0.4227  0.2554 -0.5995
 5302TIP3    H115870   5.087   0.965   3.455 -0.3283  0.8499  0.5858
 5302TIP3    H215871   4.977   0.928   3.358  1.0248 -0.1138 -0.6324
 5303TIP3   OH215872   5.309   4.887   4.421  0.0503  0.5145  0.4618
 5303TIP3    H115873   5.269   4.937   4.350 -0.8143 -1.0479 -0.2035
 5303TIP3    H215874   5.385   4.844   4.381 -0.8087 -0.8811  0.2848
 5304TIP3   OH215875   4.182   5.152   5.120 -0.4908  0.5958  0.5148
 5304TIP3    H115876   4.154   5.072   5.164  2.6445 -1.2288 -0.4815
 5304TIP3    H215877   4.105   5.180   5.069 -2.5733 -0.0366  3.1210
 5305TIP3   OH215878   0.484   4.820   5.445 -0.6357  0.0083 -0.3411
 5305TIP3    H115879   0.574   4.839   5.473  1.0655 -1.9052 -3.7476
 5305TIP3    H215880   0.473   4.871   5.365 -2.9499  0.8234  0.4398
 5306TIP3   OH215881   4.400   2.614   1.678  0.3809  0.1345  0.0218
 5306TIP3    H115882   4.427   2.621   1.769 -0.9655  0.0028  0.4439
 5306TIP3    H215883   4.323   2.670   1.670  0.6811  0.4179 -1.1211
 5307TIP3   OH215884   7.031   2.889   4.019  0.1810 -0.8861  0.2762
 5307TIP3    H115885   7.053   2.974   4.058  0.6441 -1.8724  2.3012
 5307TIP3    H215886   6.937   2.895   4.003 -0.0167 -0.3553  1.4685
 5308TIP3   OH215887   1.352   0.087   4.623  0.1862 -0.4461  0.7459
 5308TIP3    H115888   1.352  -0.008   4.612  1.7338 -0.3419 -0.4162
 5308TIP3    H215889   1.326   0.101   4.715 -0.3961 -1.9585  0.8275
 5309TIP3   OH215890   1.167   2.553   3.922  0.7536  0.1987 -0.0717
 5309TIP3    H115891   1.170   2.457   3.917  0.9806  0.1417  1.0002
 5309TIP3    H215892   1.078   2.573   3.950  0.3113  0.3874 -1.4977
 5310TIP3   OH215893   6.767   4.211   2.904 -0.2500 -0.1150  0.2167
 5310TIP3    H115894   6.774   4.269   2.829  0.6349  0.0887  0.4445
 5310TIP3    H215895   6.716   4.260   2.969 -1.4714 -0.4910 -0.4149
 5311TIP3   OH215896   2.791   4.948   0.702 -0.7660  0.6446 -0.2155
 5311TIP3    H115897   2.777   5.042   0.711  0.3600  0.8399 -0.3456
 5311TIP3    H215898   2.822   4.936   0.612  0.9779  0.4183  0.3811
 5312TIP3   OH215899   0.562   0.096   3.530  1.2847  0.3334  0.3618
 5312TIP3    H115900   0.657   0.099   3.536  1.3562  0.9664 -0.7386
 5312TIP3    H215901   0.534   0.183   3.556  1.2254  1.0739 -1.9097
 5313TIP3   OH215902   1.809   5.737   2.263  0.1454 -0.1809  0.6099
 5313TIP3    H115903   1.761   5.811   2.299 -1.0857 -0.7748  0.2657
 5313TIP3    H215904   1.850   5.770   2.183 -1.4256 -0.1556 -0.2189
 5314TIP3   OH215905   3.782   2.914   1.772  0.4150  0.5426 -0.5684
 5314TIP3    H115906   3.735   2.880   1.848  0.6029 -1.7993 -1.4283
 5314TIP3    H215907   3.867   2.940   1.807 -0.5255  2.3573  0.5192
 5315TIP3   OH215908   0.500   5.003   3.630  0.0299 -0.2500  0.2979
 5315TIP3    H115909   0.570   5.036   3.686  2.1819 -5.1334  0.9813
 5315TIP3    H215910   0.420   5.021   3.679  1.1903  1.5405  1.6543
 5316TIP3   OH215911   2.002   4.634   3.353 -0.0549  0.0098  0.6262
 5316TIP3    H115912   2.070   4.571   3.331  0.1376  0.4527 -0.1147
 5316TIP3    H215913   1.970   4.608   3.439  0.6920 -0.5102  0.7473
 5317TIP3   OH215914   6.403   3.224   3.591 -0.0586 -0.6244 -0.2672
 5317TIP3    H115915   6.482   3.214   3.644  0.3923  3.1362  0.0224
 5317TIP3    H215916   6.368   3.309   3.616 -2.0219 -0.3973 -3.2544
 5318TIP3   OH215917   1.904   4.191   3.369  0.1868 -0.0832  0.2244
 5318TIP3    H115918   1.920   4.099   3.349 -0.2542 -0.2216  0.4879
 5318TIP3    H215919   1.990   4.232   3.363  0.3926 -0.5177  0.1305
 5319TIP3   OH215920   2.278   2.625   4.082 -0.2879 -0.2275  0.1410
 5319TIP3    H115921   2.234   2.702   4.045 -0.8101 -0.9851 -0.8373
 5319TIP3    H215922   2.282   2.644   4.176  0.9164  1.6508 -0.2350
 5320TIP3   OH215923   6.322   3.110   5.424  0.6609 -0.1035 -0.1686
 5320TIP3    H115924   6.370   3.142   5.347 -0.9385 -0.4296 -1.3641
 5320TIP3    H215925   6.235   3.149   5.416  1.0473  1.6369  2.7076
 5321TIP3   OH215926   0.115   4.474   5.754 -0.2599  0.2656 -0.0039
 5321TIP3    H115927   0.090   4.434   5.671 -0.6640 -0.2850  0.3759
 5321TIP3    H215928   0.205   4.503   5.741 -0.1344 -0.3172 -0.4497
 5322TIP3   OH215929   3.100   6.655   0.439 -0.1975  0.0588 -0.3028
 5322TIP3    H115930   3.053   6.729   0.478 -3.4805 -0.7724 -2.2688
 5322TIP3    H215931   3.049   6.578   0.466  1.6384 -1.2461 -0.4028
 5323TIP3   OH215932   0.235   2.269   5.868 -0.5661  0.1083  0.2050
 5323TIP3    H115933   0.176   2.342   5.886 -1.2596 -0.3992  0.0334
 5323TIP3    H215934   0.323   2.307   5.875 -0.9162  1.0333 -0.2299
 5324TIP3   OH215935   6.831   5.340   5.021  0.3326  0.1221  0.2702
 5324TIP3    H115936   6.835   5.286   5.100 -2.0849  0.1507  0.4829
 5324TIP3    H215937   6.856   5.428   5.051  2.3894 -0.4403  0.3249
 5325TIP3   OH215938   1.697   6.040   0.649 -0.0798  0.0099  0.0592
 5325TIP3    H115939   1.654   5.968   0.696 -0.0667  0.5183  0.8596
 5325TIP3    H215940   1.740   6.091   0.718 -1.0119  1.4154 -0.3737
 5326TIP3   OH215941   6.417   0.325   3.244  0.0818  0.3045  0.8782
 5326TIP3    H115942   6.337   0.335   3.192  0.8906  0.5165 -0.3740
 5326TIP3    H215943   6.427   0.231   3.255  0.4000  0.2014 -0.1855
 5327TIP3   OH215944   5.357   5.788   1.101  0.3835  0.1288  0.4638
 5327TIP3    H115945   5.265   5.762   1.108  0.3091  0.1695 -0.2664
 5327TIP3    H215946   5.400   5.745   1.175 -0.3420  0.6741  1.2282
 5328TIP3   OH215947   2.984   0.571   3.518  0.9582  0.5765  0.7005
 5328TIP3    H115948   3.010   0.663   3.511  0.7235  0.6202  0.3834
 5328TIP3    H215949   2.893   0.575   3.546  0.9442  0.4394  0.6724
 5329TIP3   OH215950   4.503   1.756   5.384 -0.0062 -0.3689 -0.2399
 5329TIP3    H115951   4.466   1.674   5.352  0.5616 -0.4622 -0.6927
 5329TIP3    H215952   4.540   1.735   5.469 -2.3855  0.1021  0.9941
 5330TIP3   OH215953   3.563   2.117   4.109 -0.0334  0.0242  0.0382
 5330TIP3    H115954   3.531   2.136   4.020 -0.7926 -0.0746  0.2850
 5330TIP3    H215955   3.534   2.028   4.127  0.1512  0.0290  0.3758
 5331TIP3   OH215956   5.303   0.803   3.091  0.6119  0.0809 -0.0083
 5331TIP3    H115957   5.302   0.785   3.185 -0.5192 -0.3254 -0.0808
 5331TIP3    H215958   5.344   0.889   3.083  0.6329  0.1566  0.8671
 5332TIP3   OH215959   2.867   6.380   2.244 -0.8500  0.0305 -0.2250
 5332TIP3    H115960   2.820   6.304   2.209 -0.7388 -0.3826  0.4982
 5332TIP3    H215961   2.949   6.344   2.277 -0.7065  0.5026 -0.0651
 5333TIP3   OH215962   6.901   3.114   2.072  0.7740  0.4921 -0.3709
 5333TIP3    H115963   6.872   3.164   1.995 -0.4862  3.0016  1.5738
 5333TIP3    H215964   6.857   3.029   2.063 -1.0503  1.4743 -1.3937
 5334TIP3   OH215965   7.062   2.679   2.665  0.1763  0.3428 -0.0915
 5334TIP3    H115966   7.039   2.588   2.643 -1.4039  0.5791  0.4499
 5334TIP3    H215967   6.991   2.709   2.722  1.6865  1.3012  1.3800
 5335TIP3   OH215968   0.494   2.358   2.810 -0.6566  0.1033 -0.2849
 5335TIP3    H115969   0.438   2.402   2.746  1.2616  0.2533 -1.9443
 5335TIP3    H215970   0.532   2.284   2.762 -0.2644 -0.6577  1.1231
 5336TIP3   OH215971   4.362   6.788   3.295  0.3088 -0.0067 -0.0442
 5336TIP3    H115972   4.278   6.771   3.251  0.3437  2.2407 -1.1300
 5336TIP3    H215973   4.428   6.754   3.234  0.2392 -0.2716  0.0286
 5337TIP3   OH215974   3.983   3.044   5.748  0.2264 -0.7284 -0.1840
 5337TIP3    H115975   3.919   3.115   5.745 -0.0549 -0.8152  2.0614
 5337TIP3    H215976   4.052   3.072   5.688 -0.0949  1.2518  0.2820
 5338TIP3   OH215977   5.802   6.405   2.604 -0.7514 -0.0140  0.5800
 5338TIP3    H115978   5.894   6.418   2.582 -0.9802  0.7528  0.0254
 5338TIP3    H215979   5.755   6.420   2.522 -1.7270  3.9971  1.6517
 5339TIP3   OH215980   3.312  -0.004   5.535  0.3228 -0.3301  0.1074
 5339TIP3    H115981   3.233   0.038   5.570 -0.4529 -1.9389  0.3707
 5339TIP3    H215982   3.359   0.067   5.491 -1.3953  0.6197 -0.2862
 5340TIP3   OH215983   6.360   2.997   2.691  0.0878 -0.1560 -0.1066
 5340TIP3    H115984   6.342   2.939   2.617  0.5772 -0.1004 -0.2755
 5340TIP3    H215985   6.450   3.026   2.677 -0.5690  1.7031 -0.7285
 5341TIP3   OH215986   5.105   0.994   4.486 -0.4719  0.0843 -0.4405
 5341TIP3    H115987   5.142   0.907   4.469 -0.1749  0.6792 -3.2386
 5341TIP3    H215988   5.011   0.982   4.475 -0.5712 -0.1276  0.5250
 5342TIP3   OH215989   4.211   0.431   2.738  0.3604  0.3332  0.3171
 5342TIP3    H115990   4.241   0.346   2.767 -0.5456  0.5598  2.0435
 5342TIP3    H215991   4.291   0.478   2.712  0.7819 -1.3562 -1.7574
 5343TIP3   OH215992   6.876   2.716   3.476 -0.3671 -0.1865  0.1536
 5343TIP3    H115993   6.891   2.651   3.407  0.4897  1.4635 -1.3053
 5343TIP3    H215994   6.948   2.702   3.537  0.6196  0.2385 -0.8712
 5344TIP3   OH215995   2.001   2.631   2.267  0.2051  0.6455 -0.5200
 5344TIP3    H115996   2.006   2.535   2.273 -2.8163  0.4195 -0.0009
 5344TIP3    H215997   2.024   2.651   2.177 -0.5935 -0.7382 -1.0584
 5345TIP3   OH215998   6.220   0.708   4.134  0.4573 -0.2651 -0.2008
 5345TIP3    H115999   6.200   0.731   4.044  0.2444 -2.0492 -0.6507
 5345TIP3    H216000   6.310   0.674   4.130  0.2633 -0.8294  0.1601
 5346TIP3   OH216001   0.961   2.779   0.180  0.1455  0.2548  0.2718
 5346TIP3    H116002   1.003   2.695   0.160  3.4928  1.8737 -0.2054
 5346TIP3    H216003   0.950   2.777   0.276  0.4493 -0.6100  0.3001
 5347TIP3   OH216004   6.737   3.411   3.163  0.6300  0.3134 -0.3496
 5347TIP3    H116005   6.702   3.364   3.239 -2.1285  2.5263 -0.0647
 5347TIP3    H216006   6.678   3.387   3.091  0.6678  1.3984 -0.7576
 5348TIP3   OH216007   7.065   3.292   5.230  0.5892 -0.8740  0.1644
 5348TIP3    H116008   7.134   3.307   5.165  0.3796  4.0200  0.6534
 5348TIP3    H216009   7.111   3.286   5.313  0.5885 -2.2645  0.0858
 5349TIP3   OH216010   1.137   5.492   4.077  0.4074 -0.1950  0.4017
 5349TIP3    H116011   1.073   5.424   4.057  0.2300 -0.1137  0.6969
 5349TIP3    H216012   1.204   5.481   4.009 -0.2642  0.1859 -0.3428
 5350TIP3   OH216013   1.121   0.365   4.137  0.3644 -0.2124  0.1727
 5350TIP3    H116014   1.206   0.342   4.174  0.3651 -0.1712  0.1963
 5350TIP3    H216015   1.082   0.281   4.113  1.7246 -0.1022 -2.8062
 5351TIP3   OH216016   3.812   4.643   4.277 -0.4798  0.1434 -0.4342
 5351TIP3    H116017   3.808   4.679   4.188 -0.9406  0.7526 -0.1704
 5351TIP3    H216018   3.726   4.661   4.314  0.1688  1.1544  0.6180
 5352TIP3   OH216019   5.621   2.131   4.018 -0.3840  0.4212 -0.2461
 5352TIP3    H116020   5.642   2.219   4.052 -0.9339  0.9448 -1.2094
 5352TIP3    H216021   5.542   2.106   4.065 -1.5391  1.4363 -1.5598
 5353TIP3   OH216022   3.619   1.411   0.864 -0.0313 -0.5462  0.3440
 5353TIP3    H116023   3.713   1.393   0.861  0.0135 -0.2059 -0.4341
 5353TIP3    H216024   3.585   1.349   0.930  0.2513 -2.9481 -1.6015
 5354TIP3   OH216025   4.664   3.904   2.531 -0.2510  0.0673 -0.1314
 5354TIP3    H116026   4.697   3.917   2.443 -0.7208  1.4932 -0.1195
 5354TIP3    H216027   4.733   3.855   2.576  1.3659  1.9237 -0.4490
 5355TIP3   OH216028   1.961   4.085   2.495 -0.2103 -0.3220  0.1953
 5355TIP3    H116029   2.043   4.076   2.544  0.0272 -0.0577 -0.1452
 5355TIP3    H216030   1.986   4.133   2.416 -1.1498  2.0904  1.2678
 5356TIP3   OH216031   3.708   4.034   3.227 -0.1535  0.0323 -0.3753
 5356TIP3    H116032   3.789   3.985   3.241 -0.4742 -0.4100 -0.0039
 5356TIP3    H216033   3.704   4.095   3.301 -0.6713 -0.6701  0.1930
 5357TIP3   OH216034   2.699   3.322   3.837  0.6052  0.5927 -0.7269
 5357TIP3    H116035   2.689   3.415   3.860 -1.5942 -0.1669  1.8292
 5357TIP3    H216036   2.625   3.305   3.779 -0.5276 -0.0689  0.8384
 5358TIP3   OH216037   6.972   2.263   2.920 -0.4681  0.4109 -0.3557
 5358TIP3    H116038   6.898   2.255   2.981 -0.4405  0.7118 -0.2803
 5358TIP3    H216039   7.050   2.252   2.975 -0.4648 -0.1614 -0.4783
 5359TIP3   OH216040   4.540   2.403   5.011  0.1938 -0.2017  0.0528
 5359TIP3    H116041   4.550   2.327   5.068 -0.0850  0.2709  0.7459
 5359TIP3    H216042   4.516   2.366   4.926 -0.1653 -0.8821  0.4379
 5360TIP3   OH216043   2.515   2.262   3.132 -0.1059  0.3816  0.5242
 5360TIP3    H116044   2.610   2.258   3.144  0.2576  1.2598 -1.6065
 5360TIP3    H216045   2.481   2.189   3.184  1.8095 -0.5199  0.5874
 5361TIP3   OH216046   0.085   2.925   1.714 -0.1851  0.2173  0.0972
 5361TIP3    H116047   0.171   2.927   1.756 -0.1183  1.6128 -0.0585
 5361TIP3    H216048   0.081   3.006   1.663 -2.6308  1.6283  2.2570
 5362TIP3   OH216049   6.772   0.204   1.558  0.5153  0.3749  0.3461
 5362TIP3    H116050   6.845   0.194   1.497 -0.7069 -1.8966 -0.8553
 5362TIP3    H216051   6.768   0.121   1.606 -1.0514  0.5684  0.6224
 5363TIP3   OH216052   5.818   2.138   5.143 -0.0345  0.4273  0.0843
 5363TIP3    H116053   5.876   2.135   5.219 -0.8989  1.9382  0.8531
 5363TIP3    H216054   5.733   2.163   5.178 -0.7658 -0.1385 -1.2265
 5364TIP3   OH216055   4.527   5.510   1.868 -0.4208 -0.6213  0.5713
 5364TIP3    H116056   4.440   5.551   1.872 -0.9256 -1.2053 -2.3050
 5364TIP3    H216057   4.510   5.416   1.872  0.1300 -0.7250  0.5434
 5365TIP3   OH216058   2.028   5.179   1.372  0.0107 -0.5920 -0.9246
 5365TIP3    H116059   1.968   5.120   1.327 -0.6533 -1.5533  1.1147
 5365TIP3    H216060   2.073   5.124   1.436 -1.7822  1.2487  2.2057
 5366TIP3   OH216061   0.741   1.469   2.953 -0.1560  0.0721 -0.0242
 5366TIP3    H116062   0.669   1.514   2.908  0.4395  1.5563  0.4308
 5366TIP3    H216063   0.797   1.437   2.883 -0.4061  0.3766 -0.3691
 5367TIP3   OH216064   3.620   1.619   3.941 -0.6881 -0.0538  0.3352
 5367TIP3    H116065   3.702   1.605   3.894 -0.2554  1.5896  0.5499
 5367TIP3    H216066   3.617   1.549   4.006 -0.4617 -1.3410 -0.9823
 5368TIP3   OH216067   0.259   3.537   0.941 -0.3204 -0.3482  0.2280
 5368TIP3    H116068   0.321   3.492   0.883  0.0353 -1.0060  1.0927
 5368TIP3    H216069   0.298   3.623   0.955  0.2644 -0.6505  0.5265
 5369TIP3   OH216070   1.572   2.600  -0.003 -0.0176  0.2686  0.1274
 5369TIP3    H116071   1.531   2.545   0.064 -0.4319 -0.7698 -0.9371
 5369TIP3    H216072   1.665   2.601   0.021 -0.3463  1.1256  1.5211
 5370TIP3   OH216073   3.891   6.070   5.282  0.4151 -0.1445 -0.5654
 5370TIP3    H116074   3.853   6.001   5.227 -0.0195 -1.9394  1.7905
 5370TIP3    H216075   3.815   6.109   5.326  0.6547  1.9767 -1.9128
 5371TIP3   OH216076   1.543   2.162   2.070 -0.1683 -0.7588 -1.0693
 5371TIP3    H116077   1.455   2.159   2.108  0.3663 -1.3210  0.1714
 5371TIP3    H216078   1.579   2.075   2.085  0.9166 -0.2773 -0.7690
 5372TIP3   OH216079   5.085   5.263   2.335  0.0316  0.1741 -0.2315
 5372TIP3    H116080   5.179   5.270   2.315 -0.4537  1.7038 -2.4160
 5372TIP3    H216081   5.061   5.350   2.366 -0.8553  0.0736 -0.6211
 5373TIP3   OH216082   0.367   4.108   3.163  0.8518  0.0092  0.0156
 5373TIP3    H116083   0.401   4.193   3.133  0.8678 -0.0835 -0.2304
 5373TIP3    H216084   0.445   4.055   3.176  0.7829 -0.7697 -2.2011
 5374TIP3   OH216085   2.079   4.935   3.398 -0.2143  0.1585 -0.2813
 5374TIP3    H116086   2.097   4.875   3.325  1.6314  0.6977 -0.3056
 5374TIP3    H216087   2.055   5.017   3.355 -0.7781  0.0111 -0.2566
 5375TIP3   OH216088   5.307   3.709   4.125 -1.0528  0.2153  0.1910
 5375TIP3    H116089   5.236   3.691   4.187 -0.8051  0.8457  0.6704
 5375TIP3    H216090   5.387   3.687   4.173 -0.8276  1.2537  0.3088
 5376TIP3   OH216091   0.083   2.499   5.803 -0.0725 -0.1912  0.1300
 5376TIP3    H116092   0.027   2.468   5.732  0.1082  0.1073 -0.1451
 5376TIP3    H216093   0.132   2.572   5.765  0.4902 -0.4380  0.3666
 5377TIP3   OH216094   7.003   2.867   1.299  0.1312  0.0712 -0.4019
 5377TIP3    H116095   7.096   2.860   1.277  0.1167  1.6971 -1.0717
 5377TIP3    H216096   6.961   2.795   1.251  0.9009 -0.0794 -0.8572
 5378TIP3   OH216097   4.025   4.330   3.681  0.3725  0.4512 -0.0145
 5378TIP3    H116098   3.996   4.389   3.612  0.0088  2.6546  1.8822
 5378TIP3    H216099   4.092   4.379   3.728  0.1246 -0.6672  1.6028
 5379TIP3   OH216100   1.185   0.647   2.788  0.3786 -0.2326 -0.7561
 5379TIP3    H116101   1.250   0.596   2.838  0.8934 -0.4418 -1.6163
 5379TIP3    H216102   1.205   0.738   2.809  0.9906 -0.2934 -1.0436
 5380TIP3   OH216103   4.893   0.625   4.159 -0.2366  0.1449  0.1942
 5380TIP3    H116104   4.812   0.603   4.113  0.7834  1.0936 -2.2326
 5380TIP3    H216105   4.943   0.543   4.159 -0.6283 -0.0956  0.4394
 5381TIP3   OH216106   0.076   2.824   4.874 -0.0335  0.0347 -0.6427
 5381TIP3    H116107   0.172   2.825   4.866 -0.0552 -0.6530 -1.2035
 5381TIP3    H216108   0.053   2.732   4.857 -0.8535  0.3693 -1.4283
 5382TIP3   OH216109   0.309   6.616   3.586  0.4081 -0.6553  0.4851
 5382TIP3    H116110   0.255   6.600   3.509 -0.8039 -0.3325  1.2387
 5382TIP3    H216111   0.392   6.573   3.566  0.7873  0.9710 -1.7395
 5383TIP3   OH216112   0.491   4.794   0.989  0.7278 -0.1642 -0.3720
 5383TIP3    H116113   0.545   4.753   1.056  0.3694  0.3233  0.2199
 5383TIP3    H216114   0.473   4.882   1.022 -1.6993 -0.7960  0.2175
 5384TIP3   OH216115   2.343   6.215   5.770 -0.4494  0.4289  0.1738
 5384TIP3    H116116   2.268   6.210   5.829 -0.0761 -2.1830  0.5379
 5384TIP3    H216117   2.414   6.172   5.818  0.9631  1.7345 -0.6601
 5385TIP3   OH216118   0.212   0.644   1.256  0.0477 -0.5097 -0.5880
 5385TIP3    H116119   0.272   0.592   1.310  0.3344  1.2153  0.8398
 5385TIP3    H216120   0.267   0.676   1.184  0.3009 -0.6994 -0.4824
 5386TIP3   OH216121   4.053   4.929   0.987 -0.0070  0.4344  0.2844
 5386TIP3    H116122   4.004   5.003   0.950 -0.1964  1.1666  1.9102
 5386TIP3    H216123   4.057   4.948   1.081  1.7344 -0.5856  0.4525
 5387TIP3   OH216124   5.219   0.320   4.905 -0.2012  0.5384 -0.2278
 5387TIP3    H116125   5.254   0.236   4.935 -1.3073  0.3721  0.6730
 5387TIP3    H216126   5.248   0.327   4.814  0.1068 -0.7086 -0.2462
 5388TIP3   OH216127   4.384   5.111   4.077  0.1732  0.5836 -0.3543
 5388TIP3    H116128   4.460   5.134   4.131  0.7262 -0.5165 -0.6435
 5388TIP3    H216129   4.309   5.137   4.130  0.6941 -0.5465  1.0084
 5389TIP3   OH216130   1.799   2.081   4.387  0.0185 -0.5674 -0.2013
 5389TIP3    H116131   1.822   2.099   4.478 -0.1934 -1.0392 -0.0536
 5389TIP3    H216132   1.819   2.163   4.340 -0.8911  0.0430  0.4474
 5390TIP3   OH216133   5.580   0.484   4.603 -0.2037  0.0611 -0.0919
 5390TIP3    H116134   5.611   0.493   4.513 -0.9135 -2.1924 -0.6354
 5390TIP3    H216135   5.643   0.535   4.655  1.3591 -0.1507 -1.6596
 5391TIP3   OH216136   5.782   5.616   4.845 -0.3652  0.6736  0.5936
 5391TIP3    H116137   5.856   5.597   4.902 -1.5289  2.3494  2.8028
 5391TIP3    H216138   5.798   5.705   4.813 -1.1624  0.8696  0.7040
 5392TIP3   OH216139   4.047   6.269   2.203  0.6896  0.2700  0.2259
 5392TIP3    H116140   4.089   6.329   2.265 -1.7325  2.1014  0.2385
 5392TIP3    H216141   3.954   6.275   2.223 -0.0945  0.0861 -2.8485
 5393TIP3   OH216142   1.345   6.158   5.062 -0.4972 -0.0704  0.0335
 5393TIP3    H116143   1.428   6.168   5.015 -0.3654 -0.6640  0.1297
 5393TIP3    H216144   1.316   6.248   5.079 -0.8425  0.1742 -1.6740
 5394TIP3   OH216145   4.478   2.865   5.644 -0.0341 -0.4798  0.4275
 5394TIP3    H116146   4.447   2.814   5.569 -2.3468  2.0197 -0.4926
 5394TIP3    H216147   4.550   2.918   5.608 -0.6363  0.1624  0.1529
 5395TIP3   OH216148   2.782   2.458   3.122  0.2781 -0.1791 -0.0096
 5395TIP3    H116149   2.875   2.478   3.116  0.2288  0.0615  0.0254
 5395TIP3    H216150   2.738   2.534   3.083 -0.0164  0.9355  2.3018
 5396TIP3   OH216151   4.116   4.351   4.486 -0.5268  0.5113  0.2688
 5396TIP3    H116152   4.028   4.349   4.448 -0.9340 -1.8574  1.1719
 5396TIP3    H216153   4.110   4.416   4.557 -1.5070  0.4734  0.2360
 5397TIP3   OH216154   5.334   6.219   0.438 -0.0793  0.0802  0.2031
 5397TIP3    H116155   5.319   6.170   0.519  2.3064 -3.0466 -1.0342
 5397TIP3    H216156   5.253   6.208   0.389 -0.2078 -1.2593  0.6668
 5398TIP3   OH216157   0.346   3.417   5.666  0.8337  0.6086 -0.3394
 5398TIP3    H116158   0.407   3.385   5.732  0.2492  0.8735  0.3441
 5398TIP3    H216159   0.277   3.460   5.716 -1.1576 -1.7033 -0.9407
 5399TIP3   OH216160   6.061   4.960   3.667 -0.4815 -0.1397 -0.5369
 5399TIP3    H116161   6.012   4.908   3.731  0.6831 -1.2227 -0.4866
 5399TIP3    H216162   6.045   5.051   3.692 -0.1437 -0.5390  1.2268
 5400TIP3   OH216163   3.175   6.356   0.175 -0.6251  0.1996  0.0356
 5400TIP3    H116164   3.184   6.441   0.218  2.1557  0.8073 -1.5045
 5400TIP3    H216165   3.239   6.299   0.219  1.6471  0.5969 -2.4783
 5401TIP3   OH216166   5.708   4.156   3.574  0.3728 -0.2028  0.4118
 5401TIP3    H116167   5.738   4.136   3.485 -3.2607 -0.1854 -0.9869
 5401TIP3    H216168   5.762   4.231   3.601  1.5066 -0.1296 -1.7899
 5402TIP3   OH216169   5.952   6.678   3.673  0.0948  0.0669 -0.3196
 5402TIP3    H116170   5.946   6.729   3.592 -1.9600 -0.1756 -0.3546
 5402TIP3    H216171   5.870   6.631   3.679  1.9403 -3.4750 -0.3465
 5403TIP3   OH216172   5.979   0.196   2.172  0.1015 -0.3998 -0.2478
 5403TIP3    H116173   5.991   0.191   2.267  1.3145 -0.3685 -0.3831
 5403TIP3    H216174   5.968   0.290   2.155 -1.6738 -0.5270  0.0084
 5404TIP3   OH216175   5.100   5.867   1.662 -0.3741  0.0570 -0.1391
 5404TIP3    H116176   5.049   5.855   1.742 -1.6070 -0.7383 -1.0065
 5404TIP3    H216177   5.155   5.789   1.657 -1.3903 -0.6422 -0.8124
 5405TIP3   OH216178   4.661   0.175   3.163 -0.0821  0.4113 -0.8006
 5405TIP3    H116179   4.688   0.120   3.089 -0.4694  1.4273 -1.7191
 5405TIP3    H216180   4.588   0.227   3.129 -0.7232  0.4058  0.5116
 5406TIP3   OH216181   6.048   1.896   3.853 -0.0760 -0.0488  0.7968
 5406TIP3    H116182   6.022   1.979   3.813  1.3618 -1.0783 -2.6792
 5406TIP3    H216183   5.969   1.842   3.853  0.0719 -0.4102 -2.0602
 5407TIP3   OH216184   1.842   0.141   5.431  0.1663 -0.1058  0.0185
 5407TIP3    H116185   1.794   0.179   5.357 -0.4263  1.8517  1.3460
 5407TIP3    H216186   1.801   0.056   5.445 -2.5739  1.2332  0.7022
 5408TIP3   OH216187   2.362   6.484   5.108 -0.7878 -0.3182 -0.1385
 5408TIP3    H116188   2.372   6.396   5.143 -1.1683 -0.9900 -1.6478
 5408TIP3    H216189   2.434   6.534   5.147 -0.6803 -1.2385  0.8743
 5409TIP3   OH216190   0.230   1.083   2.480 -0.3065  0.2721 -0.2779
 5409TIP3    H116191   0.289   1.047   2.413 -0.4853  2.0028 -1.4309
 5409TIP3    H216192   0.289   1.116   2.548 -0.1588 -3.8313  1.8492
 5410TIP3   OH216193   6.112   3.880   1.211  0.2670 -0.0679  0.4211
 5410TIP3    H116194   6.017   3.880   1.218 -0.1062 -1.6603 -2.7776
 5410TIP3    H216195   6.142   3.832   1.288 -1.3239  1.6679  2.2373
 5411TIP3   OH216196   4.626   2.576   0.580  0.0619  0.6167  0.2968
 5411TIP3    H116197   4.611   2.600   0.672  1.1220  1.8405  0.1845
 5411TIP3    H216198   4.656   2.485   0.584  0.8863  0.9004  1.2635
 5412TIP3   OH216199   3.867   1.160   1.085 -0.0837  0.2368  0.1750
 5412TIP3    H116200   3.922   1.085   1.106 -0.1452  0.0947 -0.1630
 5412TIP3    H216201   3.782   1.122   1.061  0.0598  0.3681 -0.5805
 5413TIP3   OH216202   5.888   5.995   5.489 -0.1742 -0.4432  0.3560
 5413TIP3    H116203   5.884   5.968   5.398 -1.0350 -0.8897  0.5143
 5413TIP3    H216204   5.964   5.949   5.525  1.0092  0.8155 -0.4635
 5414TIP3   OH216205   2.624   0.258   4.852 -0.1543  0.3875  0.2917
 5414TIP3    H116206   2.583   0.176   4.825 -0.5210 -0.1086  2.1757
 5414TIP3    H216207   2.714   0.251   4.821  0.1346 -1.2508  1.3506
 5415TIP3   OH216208   0.878   5.637   4.898 -0.6681 -0.8701  0.2731
 5415TIP3    H116209   0.815   5.617   4.968 -1.9237 -0.6528 -0.7628
 5415TIP3    H216210   0.924   5.715   4.930 -0.0134 -1.7451  1.5923
 5416TIP3   OH216211   0.276   3.220   4.867 -0.6266  0.4237 -0.4139
 5416TIP3    H116212   0.262   3.185   4.955 -0.9977  1.1394 -0.1808
 5416TIP3    H216213   0.196   3.267   4.846 -0.3162  0.7536 -0.8980
 5417TIP3   OH216214  -0.012   3.259   0.719  0.2293  0.3007  0.6707
 5417TIP3    H116215   0.046   3.197   0.675 -1.5308 -1.0361  0.1055
 5417TIP3    H216216   0.035   3.342   0.718  1.3753 -0.3205 -1.3182
 5418TIP3   OH216217   3.712   2.598   1.191  0.3225 -0.1394  0.2734
 5418TIP3    H116218   3.649   2.651   1.142 -1.1946 -2.6631 -0.6986
 5418TIP3    H216219   3.794   2.605   1.141 -0.2772  0.0228 -0.6967
 5419TIP3   OH216220   3.639   4.662   4.584  0.1453 -0.0762  0.3206
 5419TIP3    H116221   3.669   4.600   4.651  1.6862 -0.8300 -0.9874
 5419TIP3    H216222   3.544   4.653   4.584  0.2879 -2.1985  0.4631
 5420TIP3   OH216223   4.513   6.384   0.074  0.1001 -0.6500 -0.1274
 5420TIP3    H116224   4.489   6.296   0.102 -2.6329 -0.3641 -1.2983
 5420TIP3    H216225   4.488   6.440   0.147  0.6096 -0.6834  0.0807
 5421TIP3   OH216226   0.835   4.478   5.864  0.3034 -0.1435  0.0123
 5421TIP3    H116227   0.807   4.479   5.956 -1.1347 -0.4563 -0.4047
 5421TIP3    H216228   0.780   4.542   5.820  0.7453 -0.2405 -0.7070
 5422TIP3   OH216229   4.805   3.718   1.040 -0.1358 -0.8066 -0.3506
 5422TIP3    H116230   4.835   3.677   1.121 -0.8019 -0.2764  0.1790
 5422TIP3    H216231   4.732   3.773   1.067  0.9549  1.0495 -0.9456
 5423TIP3   OH216232   5.730   5.346   3.347 -0.1850 -0.1622 -0.0789
 5423TIP3    H116233   5.787   5.270   3.337 -0.1155 -0.2032  0.5814
 5423TIP3    H216234   5.643   5.314   3.319 -0.2270 -0.5845  0.5106
 5424TIP3   OH216235   2.925   5.278   2.732 -0.1154 -0.1268 -0.5342
 5424TIP3    H116236   2.934   5.289   2.637  0.9248  1.6707 -0.2852
 5424TIP3    H216237   2.841   5.235   2.744 -0.7375  0.5214 -2.2389
 5425TIP3   OH216238   1.209   2.806   1.335  0.5954  0.0097 -0.1713
 5425TIP3    H116239   1.293   2.759   1.337  0.9493  0.6572  1.0134
 5425TIP3    H216240   1.222   2.873   1.268  1.3795  0.6842  0.6154
 5426TIP3   OH216241   4.039   6.714   4.461  0.4199 -0.2228 -0.0037
 5426TIP3    H116242   4.064   6.652   4.530 -1.0448 -0.4276  0.3745
 5426TIP3    H216243   4.013   6.658   4.388 -0.2063 -0.0436  0.0797
 5427TIP3   OH216244   1.035   1.268   1.341  0.2858 -0.1131  0.2093
 5427TIP3    H116245   0.956   1.321   1.345  0.5091  0.2281  0.1843
 5427TIP3    H216246   1.100   1.317   1.391  1.0533  0.6331 -1.4202
 5428TIP3   OH216247   4.121   5.456   3.500  0.1733 -0.3530  0.1870
 5428TIP3    H116248   4.056   5.402   3.544 -0.6646  0.8698  0.4802
 5428TIP3    H216249   4.074   5.499   3.429  0.6732  0.4735  0.3389
 5429TIP3   OH216250   6.497   2.271   5.840  0.2477 -0.4708  0.0249
 5429TIP3    H116251   6.423   2.299   5.894 -1.6103 -1.7869 -1.6691
 5429TIP3    H216252   6.528   2.352   5.799  0.0312  0.1620  1.0499
 5430TIP3   OH216253   4.503   4.868   1.527 -0.2616  0.3922  0.2530
 5430TIP3    H116254   4.427   4.811   1.531  1.3435 -1.8831  0.7915
 5430TIP3    H216255   4.534   4.861   1.436  1.0559 -1.2867  0.7736
 5431TIP3   OH216256   6.954   5.807   0.505  0.1334 -0.0973  0.4641
 5431TIP3    H116257   6.967   5.813   0.410 -1.4883 -1.2787  0.1238
 5431TIP3    H216258   7.028   5.856   0.542 -0.1630  1.9518 -1.4097
 5432TIP3   OH216259   3.459   5.629   2.778 -0.3139 -0.0945 -0.1842
 5432TIP3    H116260   3.449   5.549   2.830 -3.4834 -0.4177 -1.0591
 5432TIP3    H216261   3.369   5.656   2.759  0.5677  0.3672 -4.9595
 5433TIP3   OH216262   3.621   4.479   3.999  0.4831 -0.2728 -0.0387
 5433TIP3    H116263   3.564   4.516   3.932  1.0467  1.7987  0.5269
 5433TIP3    H216264   3.710   4.497   3.968  0.7740 -0.8443  0.4460
 5434TIP3   OH216265   4.184   0.455   2.387 -0.3988 -0.3536 -0.2357
 5434TIP3    H116266   4.148   0.426   2.470 -0.0867 -1.6341 -0.5149
 5434TIP3    H216267   4.202   0.374   2.339  0.9331  0.2937 -0.9033
 5435TIP3   OH216268   6.048   1.364   0.835 -0.2772 -0.0269 -0.3035
 5435TIP3    H116269   6.037   1.451   0.873 -0.6770 -0.8094  1.5105
 5435TIP3    H216270   6.140   1.342   0.849 -0.1089  0.2071 -1.0185
 5436TIP3   OH216271   3.155   2.284   5.093 -0.0147 -0.1371  0.8463
 5436TIP3    H116272   3.186   2.373   5.111  0.1791 -0.7748  4.4594
 5436TIP3    H216273   3.060   2.289   5.100  0.0022 -0.2256  1.1490
 5437TIP3   OH216274   1.229   1.161   4.696 -0.5207 -0.0682 -0.3753
 5437TIP3    H116275   1.223   1.254   4.716 -2.5294 -0.6060  1.9815
 5437TIP3    H216276   1.141   1.137   4.667 -0.4319 -1.4776  0.4242
 5438TIP3   OH216277   4.196   1.244   0.221 -0.4475  0.2733  0.4530
 5438TIP3    H116278   4.183   1.163   0.170 -0.6727  0.2538  0.5376
 5438TIP3    H216279   4.170   1.314   0.161 -0.0935  0.2958  0.3231
 5439TIP3   OH216280   6.251   5.574   4.151  0.0012 -0.1303  0.4064
 5439TIP3    H116281   6.316   5.548   4.085  1.1128  0.9995  0.9936
 5439TIP3    H216282   6.213   5.492   4.181  1.8089 -0.9186  0.6708
 5440TIP3   OH216283   6.379   3.174   0.965 -0.1200  0.4774  0.0830
 5440TIP3    H116284   6.320   3.245   0.990 -2.0102 -0.0749 -2.3735
 5440TIP3    H216285   6.425   3.208   0.888 -0.5565 -0.6827 -0.7125
 5441TIP3   OH216286   4.241   4.917   2.298 -0.2466  0.2984  0.4105
 5441TIP3    H116287   4.193   4.994   2.329 -1.4535 -0.0384 -0.5098
 5441TIP3    H216288   4.333   4.938   2.312 -0.3024  3.1235 -2.3116
 5442TIP3   OH216289   2.526   3.669   4.113 -0.0501 -0.0024 -0.2255
 5442TIP3    H116290   2.492   3.678   4.202  0.6334 -0.7004  0.1201
 5442TIP3    H216291   2.522   3.575   4.095  0.2930  0.0733 -0.7333
 5443TIP3   OH216292   6.333   0.304   1.003  0.3063 -0.5190 -0.0164
 5443TIP3    H116293   6.315   0.244   0.931 -1.7288 -2.3237  1.8606
 5443TIP3    H216294   6.256   0.360   1.008  0.7949  0.1500  0.2862
 5444TIP3   OH216295   3.661   0.970   5.911 -0.1650  0.2089 -0.4319
 5444TIP3    H116296   3.705   0.888   5.889 -4.4190 -1.8400 -2.4931
 5444TIP3    H216297   3.680   1.028   5.837  0.6845  0.1555 -0.2673
 5445TIP3   OH216298   2.397   3.646   2.190 -0.2642  0.8811  0.2327
 5445TIP3    H116299   2.359   3.692   2.116 -1.9547 -0.0159  0.5006
 5445TIP3    H216300   2.463   3.588   2.152 -1.1670  0.3786 -0.5951
 5446TIP3   OH216301   4.507   6.735   1.912  0.5230 -0.6522 -0.5340
 5446TIP3    H116302   4.464   6.649   1.914 -0.0125 -0.4053 -1.0277
 5446TIP3    H216303   4.599   6.716   1.931 -0.1230 -0.9490  2.8955
 5447TIP3   OH216304   5.824   1.217   0.470 -0.2245 -0.3315  0.2581
 5447TIP3    H116305   5.841   1.289   0.409  1.5477  0.0346  1.1055
 5447TIP3    H216306   5.823   1.139   0.415  0.2598  0.1051 -0.3905
 5448TIP3   OH216307   2.300   3.439   5.073 -0.4303  0.3045  0.1726
 5448TIP3    H116308   2.269   3.354   5.042  0.7926  0.0808 -0.5384
 5448TIP3    H216309   2.387   3.448   5.033 -0.2236  1.5480  0.8549
 5449TIP3   OH216310   6.518   3.699   2.324  0.7421  0.1659 -0.2033
 5449TIP3    H116311   6.570   3.744   2.391 -1.3626  0.3741  1.3767
 5449TIP3    H216312   6.468   3.769   2.282  0.9527 -0.1500 -0.9820
 5450TIP3   OH216313   1.181   1.731   3.373  0.0048  0.2941 -0.4127
 5450TIP3    H116314   1.249   1.783   3.330  1.5820 -1.0615  0.3226
 5450TIP3    H216315   1.175   1.651   3.321 -0.7659  0.2429 -0.2569
 5451TIP3   OH216316   5.637   4.856   2.674 -0.3540  0.1150 -0.4792
 5451TIP3    H116317   5.626   4.785   2.611  0.1001  0.4568 -0.9520
 5451TIP3    H216318   5.731   4.866   2.684 -0.4177  0.4307 -0.1601
 5452TIP3   OH216319   1.033   2.097   3.376 -0.1194  0.2545 -0.2679
 5452TIP3    H116320   0.999   2.179   3.341  0.6037  1.1362  1.0225
 5452TIP3    H216321   1.128   2.103   3.363  0.1500  0.5097  1.5608
 5453TIP3   OH216322   2.422   2.016   3.270 -0.0032  0.7126 -0.0306
 5453TIP3    H116323   2.465   1.945   3.223  2.7461  1.9836  0.4044
 5453TIP3    H216324   2.352   1.973   3.319  1.4774 -1.6675  0.1280
 5454TIP3   OH216325   4.489   3.501   1.019  0.2689  0.0348  0.1735
 5454TIP3    H116326   4.519   3.421   0.975 -0.4411  0.1428 -0.5427
 5454TIP3    H216327   4.548   3.511   1.094 -0.2930 -1.7758  0.9289
 5455TIP3   OH216328   0.540   6.475   2.983 -0.1328 -0.1579 -0.2361
 5455TIP3    H116329   0.452   6.513   2.974  0.2452  1.0068  0.6856
 5455TIP3    H216330   0.526   6.398   3.038 -0.4234  0.8363  1.1609
 5456TIP3   OH216331   5.765   1.661   1.457  0.8024 -0.0900 -0.6278
 5456TIP3    H116332   5.821   1.738   1.453  0.8587  0.0447  1.4117
 5456TIP3    H216333   5.698   1.684   1.521  0.5095 -1.5283 -0.3856
 5457TIP3   OH216334   5.340   0.824   3.687 -0.3035  0.3741  0.5456
 5457TIP3    H116335   5.405   0.894   3.685 -1.2254  1.2729 -2.0571
 5457TIP3    H216336   5.387   0.749   3.722  1.6498  1.4306  0.3409
 5458TIP3   OH216337   6.879   3.569   5.454 -0.2983  0.6055  0.8634
 5458TIP3    H116338   6.866   3.479   5.425  2.3068  0.4627 -0.1192
 5458TIP3    H216339   6.807   3.618   5.415  0.0962 -0.5069 -1.4293
 5459TIP3   OH216340   4.392   5.484   3.676  0.6271 -0.2983  0.4210
 5459TIP3    H116341   4.312   5.459   3.630 -0.1503  1.7100  0.5454
 5459TIP3    H216342   4.417   5.407   3.726 -0.3290 -1.4845 -0.8474
 5460TIP3   OH216343   4.593   3.697   1.459  0.4195  0.2271  0.2654
 5460TIP3    H116344   4.620   3.648   1.537  1.7426  1.0817  0.3654
 5460TIP3    H216345   4.517   3.648   1.426  0.1916 -0.4832  1.7392
 5461TIP3   OH216346   0.838   5.667   5.634 -0.6627  0.2129 -0.9678
 5461TIP3    H116347   0.760   5.699   5.679 -0.5652  1.0299 -1.3693
 5461TIP3    H216348   0.911   5.715   5.674 -0.4007 -0.2325 -0.8941
 5462TIP3   OH216349   7.023   4.860   2.885  0.7952  0.0496  0.4484
 5462TIP3    H116350   7.008   4.832   2.794 -1.1551 -0.5965  0.9130
 5462TIP3    H216351   7.012   4.955   2.883 -1.5694 -0.1599  0.3389
 5463TIP3   OH216352   1.360   4.895   1.792  0.0751 -0.4487  0.3085
 5463TIP3    H116353   1.360   4.829   1.861  0.2228 -1.7264 -0.8601
 5463TIP3    H216354   1.363   4.844   1.711 -1.7960  0.9304 -0.6976
 5464TIP3   OH216355   1.286   6.660   1.702 -0.7818 -0.2848  0.4179
 5464TIP3    H116356   1.326   6.594   1.759 -0.5038 -1.2287 -0.8344
 5464TIP3    H216357   1.356   6.686   1.642 -1.3294 -0.0213 -0.1215
 5465TIP3   OH216358   3.750   2.871   4.751  0.0192 -0.0053  0.1460
 5465TIP3    H116359   3.807   2.943   4.724  0.7612 -1.2621 -1.8902
 5465TIP3    H216360   3.810   2.797   4.764 -0.9215 -0.7998  0.0855
 5466TIP3   OH216361   4.184   4.301   1.472  0.3209  0.2323  0.1205
 5466TIP3    H116362   4.109   4.352   1.443 -0.2124 -0.9517 -0.6388
 5466TIP3    H216363   4.260   4.349   1.440 -0.1711  0.5747 -0.5563
 5467TIP3   OH216364   2.880   3.860   2.082  0.0687 -0.5298  0.3651
 5467TIP3    H116365   2.826   3.887   2.156  0.5758  1.3185  0.1353
 5467TIP3    H216366   2.941   3.796   2.118  0.1932  0.2106  1.5146
 5468TIP3   OH216367   6.168   2.076   5.512  0.9781 -0.3724  0.1360
 5468TIP3    H116368   6.168   1.981   5.499 -0.5197 -0.3063 -0.5249
 5468TIP3    H216369   6.248   2.107   5.470  1.6130 -1.3580  0.5861
 5469TIP3   OH216370   4.210   1.344   2.698  0.4038  0.0484 -0.3516
 5469TIP3    H116371   4.257   1.325   2.617 -1.6621 -1.3900 -1.2885
 5469TIP3    H216372   4.127   1.383   2.670 -0.3021 -0.3586  1.0572
 5470TIP3   OH216373   3.596   0.200   1.770  0.3061  0.1922  0.3270
 5470TIP3    H116374   3.523   0.139   1.774 -0.5821  1.2157  0.1616
 5470TIP3    H216375   3.650   0.177   1.845  0.3845 -1.2553 -0.1423
 5471TIP3   OH216376   5.422   2.744   5.096  0.2106  0.1906 -0.2549
 5471TIP3    H116377   5.345   2.800   5.105 -0.2098  0.0452 -2.3104
 5471TIP3    H216378   5.414   2.707   5.008  1.7846 -1.1357  0.1103
 5472TIP3   OH216379   6.299   1.760   0.124 -0.6763 -0.5672  0.1489
 5472TIP3    H116380   6.329   1.669   0.117 -0.1489 -0.5778  1.9907
 5472TIP3    H216381   6.273   1.784   0.035  1.0412 -1.8760 -0.7584
 5473TIP3   OH216382   3.013   2.485   4.512  0.2379  0.3556  0.3318
 5473TIP3    H116383   2.957   2.538   4.568 -0.0322  0.1309  0.2747
 5473TIP3    H216384   2.956   2.457   4.440  0.7258  1.1507 -0.3938
 5474TIP3   OH216385   6.391   5.558   1.362  0.1452  0.1774 -0.2235
 5474TIP3    H116386   6.449   5.589   1.432 -0.1510 -0.1069  0.1477
 5474TIP3    H216387   6.410   5.616   1.288  1.3584 -0.2993 -0.3121
 5475TIP3   OH216388   2.529   2.039   5.714  0.0762  0.2470  0.7573
 5475TIP3    H116389   2.596   2.085   5.663  1.1453 -0.9066  1.0673
 5475TIP3    H216390   2.455   2.031   5.655  0.8316  0.0454 -0.1871
 5476TIP3   OH216391   1.454   1.443   4.361 -0.1975  0.3179 -0.1110
 5476TIP3    H116392   1.463   1.367   4.419  0.9450 -1.3094 -2.2865
 5476TIP3    H216393   1.540   1.484   4.361  0.4626 -0.9768 -2.2705
 5477TIP3   OH216394   3.297   6.471   0.529 -0.0668 -0.4274 -0.3800
 5477TIP3    H116395   3.258   6.554   0.502  0.5857  0.0932  0.2204
 5477TIP3    H216396   3.312   6.424   0.447 -3.7389 -1.5436 -0.5964
 5478TIP3   OH216397   3.600   1.389   2.586  0.4410  0.1987  0.3023
 5478TIP3    H116398   3.569   1.479   2.594  0.0431 -0.0237  1.6224
 5478TIP3    H216399   3.660   1.377   2.660  0.1713 -0.7216  0.3918
 5479TIP3   OH216400   3.795   1.991   5.235 -0.2261  0.3389  0.5756
 5479TIP3    H116401   3.714   2.042   5.224 -1.1113 -0.8419  1.3493
 5479TIP3    H216402   3.808   1.949   5.150  1.1546  2.6498 -0.4658
 5480TIP3   OH216403   2.688   6.075   4.245 -0.2835 -0.6121  0.5478
 5480TIP3    H116404   2.702   6.146   4.307  0.1154 -1.8004  1.8608
 5480TIP3    H216405   2.773   6.034   4.235 -0.8523 -2.0292  1.2388
 5481TIP3   OH216406   3.025   2.871   4.621  0.3379 -0.2416  0.3199
 5481TIP3    H116407   2.944   2.820   4.622  1.0073 -1.3547 -0.4945
 5481TIP3    H216408   3.089   2.815   4.578  1.2286  1.1187 -0.2025
 5482TIP3   OH216409   1.905   6.452   5.734  0.1750 -0.0437 -0.3735
 5482TIP3    H116410   1.869   6.363   5.731 -0.6540  0.2709  0.0222
 5482TIP3    H216411   1.913   6.477   5.642 -3.2451  0.8840 -0.5560
 5483TIP3   OH216412   2.213   5.985   0.863 -0.0046 -0.0778  0.7073
 5483TIP3    H116413   2.246   5.912   0.916  1.4245 -0.3713 -0.5483
 5483TIP3    H216414   2.181   6.048   0.928  0.4302 -1.0161  1.8797
 5484TIP3   OH216415   6.834   5.755   2.769  0.2703  0.0425  0.2109
 5484TIP3    H116416   6.774   5.812   2.816 -0.5309 -0.2714 -0.3896
 5484TIP3    H216417   6.899   5.814   2.730 -0.4849  0.5500 -0.3154
 5485TIP3   OH216418   1.385   6.670   2.628  0.2766 -0.2126 -0.5255
 5485TIP3    H116419   1.400   6.590   2.679 -2.1106  1.2780  2.8993
 5485TIP3    H216420   1.466   6.720   2.640 -0.1066 -0.0217  1.7678
 5486TIP3   OH216421   4.310   0.787   4.448 -1.0077  0.2945 -0.3591
 5486TIP3    H116422   4.305   0.709   4.503  0.3141  0.0901 -0.5085
 5486TIP3    H216423   4.272   0.761   4.364  0.3893 -0.5228 -0.7588
 5487TIP3   OH216424   1.083   1.839   3.608  0.4472 -0.0702 -0.3320
 5487TIP3    H116425   1.116   1.789   3.533  1.3826 -1.3625  0.8744
 5487TIP3    H216426   0.999   1.872   3.579  0.7191 -0.6483 -1.9100
 5488TIP3   OH216427   6.600   4.197   0.420  0.3768  0.6505  0.5030
 5488TIP3    H116428   6.652   4.273   0.392  1.9888 -0.3870  0.5415
 5488TIP3    H216429   6.643   4.166   0.500 -2.7054  2.1045  2.9680
 5489TIP3   OH216430   0.256   3.018   2.300  0.0801 -0.1672 -0.0481
 5489TIP3    H116431   0.347   2.996   2.317  0.1202  0.4887  0.6142
 5489TIP3    H216432   0.248   3.111   2.322 -0.4695  0.0960 -1.2426
 5490TIP3   OH216433   2.392   0.639   4.023 -0.1751 -0.5588  0.0501
 5490TIP3    H116434   2.485   0.623   4.004 -0.3061  0.4291 -1.5850
 5490TIP3    H216435   2.347   0.616   3.942 -1.3642 -0.9763  0.8168
 5491TIP3   OH216436   0.692   0.429   5.163 -0.3959 -0.4615  0.1738
 5491TIP3    H116437   0.782   0.397   5.159  0.8200  2.4452  1.2657
 5491TIP3    H216438   0.648   0.388   5.088  2.3663 -0.4303 -1.6105
 5492TIP3   OH216439   3.822   1.666   2.362 -0.8948  0.2120  0.3536
 5492TIP3    H116440   3.834   1.573   2.345 -0.0348  0.5030 -0.7928
 5492TIP3    H216441   3.804   1.704   2.276 -0.4618  1.2097  0.6788
 5493TIP3   OH216442   0.965   3.721   0.093  0.5151 -0.3306 -0.5443
 5493TIP3    H116443   0.964   3.636   0.049 -4.3006 -1.3557  1.0023
 5493TIP3    H216444   0.934   3.783   0.027 -2.5877 -1.1351  0.0012
 5494TIP3   OH216445   0.924   4.593   5.433 -0.6243  0.3616 -0.1323
 5494TIP3    H116446   0.980   4.637   5.496  0.0623  0.5358 -0.8506
 5494TIP3    H216447   0.970   4.512   5.411 -0.6556  0.4937 -0.7083
 5495TIP3   OH216448   1.317   3.128   4.588  0.5448  0.0080 -0.1704
 5495TIP3    H116449   1.306   3.062   4.519 -0.2961  0.3397 -0.3651
 5495TIP3    H216450   1.323   3.077   4.669 -1.0067 -0.3054 -0.2138
 5496TIP3   OH216451   4.206   4.729   4.941 -0.0581  0.3351 -0.9809
 5496TIP3    H116452   4.270   4.748   4.872  2.0463  0.9177  1.0337
 5496TIP3    H216453   4.214   4.635   4.956  2.5022  0.8108  1.1959
 5497TIP3   OH216454   5.597   6.208   0.808 -0.2723  0.4622  0.2397
 5497TIP3    H116455   5.690   6.216   0.825 -0.4340  1.7289  0.6054
 5497TIP3    H216456   5.556   6.208   0.894 -0.6169 -0.0936  0.0820
 5498TIP3   OH216457   6.967   5.447   0.813  0.6784  0.2418 -0.0553
 5498TIP3    H116458   7.000   5.497   0.739  0.1348  0.4690 -0.1536
 5498TIP3    H216459   6.942   5.513   0.878  0.1139  0.0945 -0.1190
 5499TIP3   OH216460   4.699   1.685   4.757 -0.2572 -0.5220  0.2229
 5499TIP3    H116461   4.733   1.774   4.768 -0.0881  0.0555 -3.7908
 5499TIP3    H216462   4.605   1.698   4.746 -0.3172 -0.9425  0.2430
 5500TIP3   OH216463   0.771   2.556   4.501 -0.2045  0.5499  0.0093
 5500TIP3    H116464   0.853   2.604   4.513  0.6300 -0.9472  0.5107
 5500TIP3    H216465   0.770   2.492   4.572 -1.6304  0.2818 -0.2190
 5501TIP3   OH216466   1.985   2.198   2.628  0.5923  0.0820  0.3333
 5501TIP3    H116467   1.979   2.103   2.641  1.5006 -0.0635 -0.2078
 5501TIP3    H216468   2.036   2.229   2.703 -0.8566  0.3619  1.2566
 5502TIP3   OH216469   5.641   3.137   1.748 -0.0183 -0.0020  0.2366
 5502TIP3    H116470   5.582   3.103   1.815 -0.0166 -0.0910  0.1940
 5502TIP3    H216471   5.599   3.217   1.717  0.2370  0.3236  0.7108
 5503TIP3   OH216472   0.724   2.763   3.340 -0.1067  0.2373  0.0378
 5503TIP3    H116473   0.704   2.819   3.416 -0.1676  1.6091 -0.9597
 5503TIP3    H216474   0.795   2.808   3.295  0.6368 -1.1045 -0.1868
 5504TIP3   OH216475   3.535   5.466   4.510 -0.2882 -0.0046 -0.3816
 5504TIP3    H116476   3.466   5.523   4.475 -0.3310  0.3621  0.2905
 5504TIP3    H216477   3.578   5.431   4.432 -2.1502 -1.3899 -0.8562
 5505TIP3   OH216478   1.258   4.966   3.756  0.0232 -0.2037  0.0037
 5505TIP3    H116479   1.269   5.056   3.727  1.6661 -0.5318 -0.5086
 5505TIP3    H216480   1.312   4.959   3.834  0.2211 -0.8291 -0.1801
 5506TIP3   OH216481   0.823   2.888   2.908  0.1044 -0.4021 -0.0906
 5506TIP3    H116482   0.772   2.834   2.968 -0.7376  0.4582 -0.0173
 5506TIP3    H216483   0.777   2.881   2.824  0.1942 -0.0855 -0.1677
 5507TIP3   OH216484   4.718   1.975   2.101 -0.5178  0.5845  0.3350
 5507TIP3    H116485   4.688   1.891   2.135 -1.3538  0.8079  0.1921
 5507TIP3    H216486   4.793   1.999   2.156  2.1268 -1.9562 -1.8721
 5508TIP3   OH216487   0.267   2.792   0.615 -0.5686 -0.5795  0.2027
 5508TIP3    H116488   0.201   2.786   0.684 -0.6995  0.2424  0.1593
 5508TIP3    H216489   0.348   2.765   0.656 -0.7040 -0.3780  0.6033
 5509TIP3   OH216490   6.671   5.382   1.597  0.2737  0.7960  0.5826
 5509TIP3    H116491   6.674   5.464   1.548 -0.2891 -0.0645 -0.9699
 5509TIP3    H216492   6.692   5.406   1.687  0.1406  2.6274  0.1496
 5510TIP3   OH216493   1.822   2.400   2.568 -0.2514  0.1740 -0.0693
 5510TIP3    H116494   1.808   2.433   2.479 -0.5550 -0.1669 -0.1518
 5510TIP3    H216495   1.888   2.331   2.557  1.5932  1.7867  0.3209
 5511TIP3   OH216496   4.749   4.137   4.090  0.0978 -0.0924  0.1330
 5511TIP3    H116497   4.778   4.139   3.999  1.5454  1.8688  0.5900
 5511TIP3    H216498   4.809   4.077   4.134 -0.3669 -0.7440 -0.1048
 5512TIP3   OH216499   5.747   3.515   2.521  0.0180 -0.3493 -0.0714
 5512TIP3    H116500   5.655   3.540   2.525 -0.1661 -1.0884  0.6191
 5512TIP3    H216501   5.776   3.518   2.612  0.8428  0.4565 -0.3489
 5513TIP3   OH216502   3.195   0.276   5.880  0.1331 -0.1602 -0.1782
 5513TIP3    H116503   3.134   0.349   5.876 -1.2329 -1.2844 -0.6648
 5513TIP3    H216504   3.276   0.310   5.842 -0.7036  0.8737 -1.1046
 5514TIP3   OH216505   6.778   1.935   3.700 -0.0430 -0.3360  0.0183
 5514TIP3    H116506   6.689   1.967   3.688  0.1039 -0.2627 -1.0000
 5514TIP3    H216507   6.768   1.851   3.746 -0.6410 -0.3847 -0.1966
 5515TIP3   OH216508   3.170   4.087   1.723 -0.3117  0.3654 -0.2497
 5515TIP3    H116509   3.263   4.083   1.746 -0.6421 -0.7860  1.0491
 5515TIP3    H216510   3.140   4.170   1.762  0.1309  0.6535 -0.5168
 5516TIP3   OH216511   6.896   5.615   2.200 -0.4790  0.0209 -0.0265
 5516TIP3    H116512   6.844   5.536   2.187  2.0204 -1.7557  0.0613
 5516TIP3    H216513   6.953   5.619   2.123  0.4907  0.8485  0.7062
 5517TIP3   OH216514   4.555   0.374   3.889 -0.7770  0.1058 -0.5636
 5517TIP3    H116515   4.521   0.425   3.815 -0.4222  1.3228  0.0948
 5517TIP3    H216516   4.601   0.301   3.848  1.1690  1.8387 -1.6714
 5518TIP3   OH216517   4.251   0.195   1.866  0.2939 -0.1191  0.3252
 5518TIP3    H116518   4.172   0.242   1.892 -1.2919 -2.4582  0.1079
 5518TIP3    H216519   4.253   0.202   1.770  1.0344  0.8913  0.3976
 5519TIP3   OH216520   5.352   0.972   4.687  0.4061  0.4255  0.3091
 5519TIP3    H116521   5.309   1.023   4.756 -0.7868 -1.1812  0.8001
 5519TIP3    H216522   5.349   1.030   4.610 -0.9159  1.1077  0.8394
 5520TIP3   OH216523   6.233   6.525   3.064  0.1798 -0.5688  0.5993
 5520TIP3    H116524   6.143   6.553   3.050  0.3786 -0.1112  0.2123
 5520TIP3    H216525   6.239   6.508   3.158  0.5455  2.4352  1.2007
 5521TIP3   OH216526   2.583   2.438   5.107  0.4088 -0.2959 -0.1715
 5521TIP3    H116527   2.494   2.454   5.075  0.1836 -0.1451  0.5227
 5521TIP3    H216528   2.631   2.409   5.029 -0.1355  0.0444 -0.6455
 5522TIP3   OH216529   6.960   6.396   5.453  0.2946  0.4795  0.2603
 5522TIP3    H116530   6.947   6.306   5.421  0.1574  0.7853 -0.5655
 5522TIP3    H216531   7.038   6.391   5.507  1.2354  0.1637 -1.0751
 5523TIP3   OH216532   1.842   0.988   4.782 -0.2710 -0.2074  0.6169
 5523TIP3    H116533   1.873   0.989   4.873 -0.0860 -0.1380  0.5529
 5523TIP3    H216534   1.913   0.949   4.733 -0.7645 -1.1699  0.6462
 5524TIP3   OH216535   3.052   5.664   3.728  1.0853  0.1524 -0.2862
 5524TIP3    H116536   3.026   5.599   3.793  0.3591  0.1652 -0.5609
 5524TIP3    H216537   3.055   5.747   3.777  0.4050  0.1862 -0.2942
 5525TIP3   OH216538   6.457   2.632   2.795 -0.3549 -0.5382  0.4417
 5525TIP3    H116539   6.403   2.703   2.831  0.9558 -0.7938  3.1120
 5525TIP3    H216540   6.514   2.675   2.731  0.1019  0.7546  1.6771
 5526TIP3   OH216541   3.674   2.014   0.519 -0.0648 -0.5142 -0.5283
 5526TIP3    H116542   3.649   2.001   0.611 -2.3008  0.6872 -0.8704
 5526TIP3    H216543   3.605   1.971   0.469  0.6472 -0.3987 -1.6459
 5527TIP3   OH216544   1.400   4.112   4.533  0.8361 -0.1273  0.6837
 5527TIP3    H116545   1.324   4.124   4.591  1.2559  2.3469  0.8110
 5527TIP3    H216546   1.363   4.075   4.453 -0.4961  0.8236  0.8254
 5528TIP3   OH216547   6.959   3.450   2.828 -0.2778  0.3307 -0.3321
 5528TIP3    H116548   6.958   3.525   2.769 -1.0154  1.1731  0.7234
 5528TIP3    H216549   6.877   3.404   2.811  1.0734 -1.4951 -2.4747
 5529TIP3   OH216550   6.883   3.264   5.036  0.3960 -1.0561 -0.5046
 5529TIP3    H116551   6.932   3.284   5.115 -0.9122 -4.3383  1.3456
 5529TIP3    H216552   6.879   3.347   4.988  2.0505  0.8518  2.3816
 5530TIP3   OH216553   1.288   3.136   2.817 -0.6769 -0.7532  0.5931
 5530TIP3    H116554   1.302   3.219   2.862 -1.4873 -1.1001  1.5111
 5530TIP3    H216555   1.361   3.081   2.845  0.6378  0.0552 -1.0902
 5531TIP3   OH216556   3.706   1.764   0.773  0.0645 -0.0859 -0.3755
 5531TIP3    H116557   3.635   1.733   0.716 -0.3645  1.5583 -0.7921
 5531TIP3    H216558   3.785   1.754   0.719  0.5792 -3.9189  0.8233
 5532TIP3   OH216559   2.879   0.252   4.759  0.0401 -0.0862  0.0003
 5532TIP3    H116560   2.929   0.257   4.677  2.0976  0.5567  1.2259
 5532TIP3    H216561   2.925   0.186   4.811  0.4582  1.4988  1.7026
 5533TIP3   OH216562   5.087   3.734   0.060  0.2631 -0.3167  0.1131
 5533TIP3    H116563   5.113   3.666   0.123 -0.3790  1.2525  2.1809
 5533TIP3    H216564   5.078   3.813   0.113 -0.1501  1.1374 -2.0252
 5534TIP3   OH216565   6.151   4.995   1.074  0.1654  0.1155 -0.3727
 5534TIP3    H116566   6.196   4.989   0.990  0.8598  0.1328 -0.0069
 5534TIP3    H216567   6.064   4.957   1.057  0.5858 -0.6571 -0.8917
 5535TIP3   OH216568   0.200   2.441   3.532 -0.1268 -0.4840  0.5399
 5535TIP3    H116569   0.198   2.513   3.596 -0.8011  0.7917 -0.8718
 5535TIP3    H216570   0.286   2.449   3.490  0.2668 -1.2494  1.1616
 5536TIP3   OH216571   0.177   1.212   0.383  0.3527  0.2832  0.1366
 5536TIP3    H116572   0.214   1.294   0.350  0.2708  0.0172 -0.6378
 5536TIP3    H216573   0.093   1.238   0.422  1.1526  0.8331  1.5846
 5537TIP3   OH216574   1.379   5.244   5.783  0.5692 -0.0987  0.0296
 5537TIP3    H116575   1.295   5.289   5.769  0.1021 -1.3791 -1.4772
 5537TIP3    H216576   1.442   5.295   5.733  0.8116  1.0623  1.4307
 5538TIP3   OH216577   4.479   0.613   0.422 -0.3376 -0.5426 -0.3056
 5538TIP3    H116578   4.426   0.589   0.346  0.1781 -0.5161 -0.6766
 5538TIP3    H216579   4.543   0.542   0.431 -0.4271 -0.5729  0.1359
 5539TIP3   OH216580   2.855   1.127   4.425 -0.0743  0.5405 -0.5019
 5539TIP3    H116581   2.893   1.054   4.475 -0.7905 -0.5382 -1.4561
 5539TIP3    H216582   2.886   1.206   4.469  0.7393 -0.3439  0.5670
 5540TIP3   OH216583   3.365   5.573   5.143 -0.1301 -0.4861  0.0352
 5540TIP3    H116584   3.412   5.607   5.066 -0.4443  1.0914  0.4967
 5540TIP3    H216585   3.434   5.537   5.198  0.1472 -1.2441 -0.7813
 5541TIP3   OH216586   4.175   5.742   3.502 -0.8864  0.0855 -0.4913
 5541TIP3    H116587   4.222   5.660   3.507 -2.1884 -0.8631 -2.2643
 5541TIP3    H216588   4.143   5.746   3.411  0.6486  3.4281 -1.0421
 5542TIP3   OH216589   0.759   0.828   2.595 -0.0952 -0.4457 -0.1139
 5542TIP3    H116590   0.748   0.774   2.673  0.3593 -1.1160 -0.5001
 5542TIP3    H216591   0.675   0.821   2.549 -1.7392  2.7719  1.9639
 5543TIP3   OH216592   6.571   0.356   1.449  0.2561  0.0322 -0.4538
 5543TIP3    H116593   6.658   0.316   1.458  0.5290  0.1068 -2.3284
 5543TIP3    H216594   6.540   0.326   1.364 -1.3693  0.4106 -0.0242
 5544TIP3   OH216595   6.729   6.077   4.827  0.5858 -0.2356 -0.1966
 5544TIP3    H116596   6.796   6.145   4.839  2.6304 -1.4138 -3.5817
 5544TIP3    H216597   6.673   6.109   4.756 -1.2672 -0.2027  1.1930
 5545TIP3   OH216598   2.431   6.443   0.513  0.4125 -0.4471 -0.0782
 5545TIP3    H116599   2.388   6.433   0.598  2.5608  0.0565  1.1284
 5545TIP3    H216600   2.450   6.353   0.486  0.7585 -0.5639  0.5387
 5546TIP3   OH216601   0.423   2.778   5.170  0.2941  0.8632  0.0641
 5546TIP3    H116602   0.444   2.852   5.227  0.6043 -1.1269  2.7377
 5546TIP3    H216603   0.331   2.760   5.186  0.4822  0.0359  0.2659
 5547TIP3   OH216604   4.759   5.174   5.811  0.0692  0.1804 -0.0700
 5547TIP3    H116605   4.670   5.209   5.805  0.1060  0.1633 -0.7753
 5547TIP3    H216606   4.811   5.230   5.753  0.1727 -0.9050 -1.0599
 5548TIP3   OH216607   6.480   4.839   5.160  0.6234  0.1209 -0.1219
 5548TIP3    H116608   6.413   4.901   5.188  0.3078 -0.5156  0.5832
 5548TIP3    H216609   6.498   4.862   5.070  0.2033  0.9641  0.0004
 5549TIP3   OH216610   2.516   0.437   1.335  0.3076 -0.1546 -0.1587
 5549TIP3    H116611   2.609   0.440   1.316  0.3844  1.4681  0.4048
 5549TIP3    H216612   2.509   0.380   1.412  0.6369 -1.5889 -1.1505
 5550TIP3   OH216613   0.638   3.233   1.883  0.3054  0.0523  0.1152
 5550TIP3    H116614   0.673   3.148   1.855  1.0134 -0.0166  1.1623
 5550TIP3    H216615   0.629   3.283   1.802  0.5934 -0.7595 -0.4326
 5551TIP3   OH216616   5.688   0.101   2.142 -0.1640  0.1260 -0.3049
 5551TIP3    H116617   5.766   0.155   2.128  0.9626 -1.7022 -1.7558
 5551TIP3    H216618   5.615   0.157   2.117  0.5418  2.1288  1.7357
 5552TIP3   OH216619   3.654   1.557   4.629  0.1882  0.5019  0.7956
 5552TIP3    H116620   3.594   1.489   4.600 -0.3970  1.2196  0.2798
 5552TIP3    H216621   3.707   1.515   4.696 -0.1224 -0.4744  0.4522
 5553TIP3   OH216622   7.199   2.776   5.674 -0.6525 -0.1264  0.3396
 5553TIP3    H116623   7.130   2.744   5.617 -0.1036 -0.9624  0.1288
 5553TIP3    H216624   7.246   2.841   5.622 -0.1251 -0.9182 -0.1977
 5554TIP3   OH216625   4.223   3.594   0.984  0.0235 -0.3230 -0.2443
 5554TIP3    H116626   4.189   3.554   1.064 -0.5394  1.0297  0.2335
 5554TIP3    H216627   4.317   3.581   0.988 -0.1452 -1.6059 -0.1302
 5555TIP3   OH216628   4.554   0.402   4.541 -0.0328  0.0723 -0.5787
 5555TIP3    H116629   4.636   0.414   4.588 -1.1438  0.7205  1.2990
 5555TIP3    H216630   4.577   0.415   4.449  1.6287  2.1764  0.0486
 5556TIP3   OH216631   0.393   3.282   2.247  0.4251 -0.0275 -0.1481
 5556TIP3    H116632   0.470   3.322   2.207  1.2601 -1.0843  0.3704
 5556TIP3    H216633   0.396   3.310   2.339 -0.4270  0.8121 -0.3530
 5557TIP3   OH216634   5.495   6.060   5.409 -0.5475 -0.6973 -0.1592
 5557TIP3    H116635   5.573   6.006   5.422 -1.8648 -2.4902  0.8388
 5557TIP3    H216636   5.502   6.128   5.476  0.2152 -0.7611 -0.1648
 5558TIP3   OH216637   6.919   3.550   3.447  0.0161 -0.1104  0.6169
 5558TIP3    H116638   6.948   3.486   3.513 -1.8657 -0.9885  0.6595
 5558TIP3    H216639   6.981   3.538   3.375  0.8032 -0.6725  1.3506
 5559TIP3   OH216640   1.794   4.138   0.872 -0.2484  0.1947 -0.6213
 5559TIP3    H116641   1.707   4.105   0.850 -0.2461  0.4261 -0.9870
 5559TIP3    H216642   1.843   4.133   0.790  0.9505 -2.5264  0.1454
 5560TIP3   OH216643   6.082   5.094   0.408  0.0543  0.3393  0.9038
 5560TIP3    H116644   5.999   5.118   0.366 -0.4827 -1.6824  0.7261
 5560TIP3    H216645   6.080   5.137   0.493 -0.0765  2.2514 -0.0052
 5561TIP3   OH216646   7.189   4.073   4.588 -0.1538  0.4871 -0.2676
 5561TIP3    H116647   7.122   4.136   4.560  1.9750  2.1372 -1.9816
 5561TIP3    H216648   7.229   4.113   4.665 -0.5454 -0.0960  0.2507
 5562TIP3   OH216649   5.474   2.156   2.330 -0.1380  0.1859 -0.2398
 5562TIP3    H116650   5.459   2.146   2.236  2.7756 -1.1075 -0.6824
 5562TIP3    H216651   5.450   2.071   2.367 -0.1316  0.2855 -0.0105
 5563TIP3   OH216652   5.431   4.735   4.714 -0.1396 -0.6141 -0.2890
 5563TIP3    H116653   5.351   4.686   4.698 -0.1295 -0.5054 -0.7087
 5563TIP3    H216654   5.417   4.779   4.797 -0.6019 -0.4284 -0.4639
 5564TIP3   OH216655   5.016   0.821   2.689  0.3751  0.0389  0.5376
 5564TIP3    H116656   5.100   0.866   2.697 -0.6479  1.8887  1.6092
 5564TIP3    H216657   4.961   0.862   2.755 -1.7917 -0.1414 -1.0526
 5565TIP3   OH216658   6.470   2.174   3.287 -0.2511 -0.1386 -0.2344
 5565TIP3    H116659   6.427   2.091   3.268 -1.5171  0.4826 -0.1747
 5565TIP3    H216660   6.486   2.172   3.381 -3.3770  1.0240  0.4444
 5566TIP3   OH216661   3.185   1.952   4.187 -0.2896  0.1815  0.4366
 5566TIP3    H116662   3.269   1.908   4.192 -0.2813 -0.2497 -2.1078
 5566TIP3    H216663   3.122   1.888   4.221  0.0827 -0.7136 -0.4928
 5567TIP3   OH216664   6.041   3.549   4.478 -0.3377 -0.4767  0.0728
 5567TIP3    H116665   5.974   3.482   4.460  0.4157 -0.6391 -2.6444
 5567TIP3    H216666   6.123   3.504   4.459  0.2531  0.8639 -0.6194
 5568TIP3   OH216667   0.873   6.129   5.057 -0.2501  0.2191 -0.6022
 5568TIP3    H116668   0.915   6.215   5.056  0.9231 -0.3404 -0.7184
 5568TIP3    H216669   0.836   6.122   5.145  2.0451 -0.2568  0.3973
 5569TIP3   OH216670   3.637   5.773   5.425  0.3959  0.3625  0.1560
 5569TIP3    H116671   3.600   5.771   5.337  0.4944  0.6112  0.1074
 5569TIP3    H216672   3.732   5.766   5.412  0.3220 -1.1893  0.3269
 5570TIP3   OH216673   3.333   0.881   3.808 -0.1406 -0.0443 -0.2260
 5570TIP3    H116674   3.360   0.916   3.724  0.3800  0.4523  0.1384
 5570TIP3    H216675   3.391   0.924   3.872 -0.4679 -0.4718  0.3728
 5571TIP3   OH216676   3.431   0.585   5.810  0.6019  0.1250  0.0262
 5571TIP3    H116677   3.474   0.530   5.745  1.1160 -1.1191  1.3510
 5571TIP3    H216678   3.371   0.639   5.760  0.5592 -1.1777 -1.4168
 5572TIP3   OH216679   6.768   6.689   4.396  0.1662  0.1655  0.2943
 5572TIP3    H116680   6.858   6.712   4.419  0.2062  1.9928 -1.5023
 5572TIP3    H216681   6.774   6.599   4.362  1.4321  0.5326 -0.4920
 5573TIP3   OH216682   2.197   2.303   0.458 -0.8179  0.6750 -0.9387
 5573TIP3    H116683   2.180   2.353   0.538 -3.9664 -1.0198 -0.3937
 5573TIP3    H216684   2.275   2.252   0.479 -1.3179  0.5972  0.9264
 5574TIP3   OH216685   4.139   5.946   2.520  0.0003  0.1725 -0.0261
 5574TIP3    H116686   4.098   5.954   2.607  0.5601 -0.2682  0.2841
 5574TIP3    H216687   4.072   5.905   2.466 -0.4379  0.6588  0.1362
 5575TIP3   OH216688   5.284   1.128   2.008  0.4542 -0.1315  0.4869
 5575TIP3    H116689   5.354   1.128   1.943 -0.6424 -0.7188 -0.7363
 5575TIP3    H216690   5.257   1.219   2.015 -2.3520 -0.4522 -3.2524
 5576TIP3   OH216691   0.641   2.199   0.237  0.7206 -0.5195 -0.1684
 5576TIP3    H116692   0.729   2.235   0.248  1.0319 -0.2239 -2.9323
 5576TIP3    H216693   0.601   2.253   0.168 -0.7291 -2.1701 -0.7127
 5577TIP3   OH216694   3.762   0.583   1.531 -0.1744  0.4638 -0.2488
 5577TIP3    H116695   3.763   0.516   1.463  0.7384  0.7340 -0.5169
 5577TIP3    H216696   3.847   0.626   1.524 -0.1890  0.7165  0.8520
 5578TIP3   OH216697   1.635   0.742   5.595 -0.2908  0.0773  0.7633
 5578TIP3    H116698   1.573   0.707   5.660 -0.0461 -2.9754 -0.4812
 5578TIP3    H216699   1.597   0.718   5.511  0.3799  2.2312 -0.2209
 5579TIP3   OH216700   3.096   1.480   0.497 -0.0591  0.2957  0.1136
 5579TIP3    H116701   3.082   1.394   0.457 -0.4436  0.3807  0.0631
 5579TIP3    H216702   3.009   1.519   0.502 -0.1502 -0.0509  1.8112
 5580TIP3   OH216703   4.464   4.221   3.368 -0.5756 -0.3529 -0.3767
 5580TIP3    H116704   4.393   4.275   3.335  0.6117  1.1856 -0.5519
 5580TIP3    H216705   4.541   4.279   3.367  0.5034 -1.6856  0.6022
 5581TIP3   OH216706   6.186   3.690   4.241 -0.5328  0.4352  0.2119
 5581TIP3    H116707   6.129   3.635   4.187 -1.2861  0.4380  0.9790
 5581TIP3    H216708   6.219   3.631   4.309 -0.1211  0.5837  0.1460
 5582TIP3   OH216709   2.847   0.406   1.370  0.1542  0.3647 -0.4574
 5582TIP3    H116710   2.899   0.486   1.358 -0.1959  1.1081  2.2534
 5582TIP3    H216711   2.903   0.349   1.423 -1.6660  1.3263  2.8472
 5583TIP3   OH216712   1.020   6.551   5.371 -0.0737 -0.0998  0.3040
 5583TIP3    H116713   0.989   6.628   5.418  0.2288 -0.7979  1.7230
 5583TIP3    H216714   0.941   6.505   5.343 -0.2690  0.0795  0.5677
 5584TIP3   OH216715   5.568   3.158   3.576 -0.6604 -0.0754 -0.5623
 5584TIP3    H116716   5.564   3.087   3.512 -0.0293  0.1744 -0.8855
 5584TIP3    H216717   5.660   3.164   3.599 -0.9815 -0.6537  0.9501
 5585TIP3   OH216718   1.462   0.636   5.240  0.0958 -0.5246  0.3903
 5585TIP3    H116719   1.429   0.635   5.329  1.5283  1.0283  0.9901
 5585TIP3    H216720   1.436   0.721   5.205  0.3504 -0.7347 -0.3520
 5586TIP3   OH216721   1.694   3.266   2.772  0.0590  0.0312 -0.3257
 5586TIP3    H116722   1.645   3.234   2.696  1.1156 -1.3548 -0.4648
 5586TIP3    H216723   1.785   3.245   2.753  0.4406  0.4107  0.9576
 5587TIP3   OH216724   2.180   5.892   1.411  0.4688 -0.0316 -0.2914
 5587TIP3    H116725   2.142   5.922   1.494  0.1146 -1.4376  0.0671
 5587TIP3    H216726   2.109   5.902   1.348 -0.5946 -2.6222  0.3694
 5588TIP3   OH216727   2.922   0.221   1.765 -0.5731  0.5475 -0.5162
 5588TIP3    H116728   2.833   0.195   1.742 -1.0254  1.2476  0.3614
 5588TIP3    H216729   2.913   0.265   1.849  0.5212  1.2045 -0.7208
 5589TIP3   OH216730   0.432   0.802   3.589  0.3719  0.3653  0.0078
 5589TIP3    H116731   0.341   0.824   3.571  0.4800  1.3898  0.6419
 5589TIP3    H216732   0.450   0.727   3.532 -0.2134  1.5218 -1.7810
 5590TIP3   OH216733   6.079   6.312   4.189 -0.0323  0.3430 -0.0373
 5590TIP3    H116734   6.123   6.338   4.108  0.5138  1.6433  0.6498
 5590TIP3    H216735   6.010   6.252   4.161  0.0769  0.8514 -1.4727
 5591TIP3   OH216736   1.458   4.252   2.458 -0.3218 -0.1429 -0.4127
 5591TIP3    H116737   1.454   4.347   2.453  0.3908 -0.1049 -0.3529
 5591TIP3    H216738   1.551   4.231   2.446 -0.4302 -0.8108 -0.1419
 5592TIP3   OH216739   1.352   2.418   2.539  0.7975 -0.4528 -0.1133
 5592TIP3    H116740   1.379   2.475   2.468 -2.1287  0.2028 -0.8168
 5592TIP3    H216741   1.303   2.475   2.599 -0.2396 -1.7673  0.3422
 5593TIP3   OH216742   1.268   0.615   2.230 -0.1378  0.0616 -0.1530
 5593TIP3    H116743   1.284   0.709   2.227 -0.7021  0.2682  1.9024
 5593TIP3    H216744   1.192   0.602   2.172 -0.2853  0.9305 -0.1670
 5594TIP3   OH216745   5.207   6.322   5.798 -0.1328  0.4918 -0.1162
 5594TIP3    H116746   5.220   6.230   5.775  0.7722  0.2204  1.3570
 5594TIP3    H216747   5.205   6.323   5.893  0.1303  2.0444 -0.1012
 5595TIP3   OH216748   6.905   0.483   0.436 -0.3522 -0.3946  0.1669
 5595TIP3    H116749   6.914   0.575   0.411 -1.2517 -0.6149 -1.1066
 5595TIP3    H216750   6.967   0.436   0.380  2.1990 -0.3515  2.7774
 5596TIP3   OH216751   2.597   3.828   0.671  0.1685 -0.0743 -0.3438
 5596TIP3    H116752   2.626   3.916   0.692 -1.5552  0.3500  0.4906
 5596TIP3    H216753   2.637   3.773   0.739  0.6186  0.1767 -0.4019
 5597TIP3   OH216754   5.635   3.989   5.160 -1.0077 -1.2470  0.5429
 5597TIP3    H116755   5.610   3.904   5.122  0.3553 -0.5560 -2.1160
 5597TIP3    H216756   5.728   3.980   5.180 -0.8458 -0.3729  0.2220
 5598TIP3   OH216757   3.209   6.036   1.764 -0.4522 -0.3204  0.5975
 5598TIP3    H116758   3.137   6.076   1.715 -0.2326 -1.5780 -0.8461
 5598TIP3    H216759   3.191   5.942   1.759  1.0126 -0.6208  0.6785
 5599TIP3   OH216760   5.391   6.494   2.505  0.2764 -0.0173 -0.3514
 5599TIP3    H116761   5.422   6.534   2.424  0.1087  0.2677 -0.2766
 5599TIP3    H216762   5.435   6.409   2.509 -0.3670 -0.3943 -1.1652
 5600TIP3   OH216763   0.078   2.871   3.883 -0.4157  0.1742  0.2630
 5600TIP3    H116764   0.119   2.870   3.970  0.5560  1.8633 -0.1278
 5600TIP3    H216765  -0.008   2.832   3.897  0.2235 -0.8082  1.7085
 5601TIP3   OH216766   5.036   5.453   3.524  0.3652 -0.0490 -0.3034
 5601TIP3    H116767   4.989   5.534   3.542 -1.3476 -1.1916  0.5903
 5601TIP3    H216768   5.025   5.439   3.430 -0.0088  0.3353 -0.3174
 5602TIP3   OH216769   1.191   2.347   5.607 -0.7508  0.2658  0.1104
 5602TIP3    H116770   1.172   2.441   5.599  0.9240  0.4975 -3.0349
 5602TIP3    H216771   1.256   2.342   5.677  0.3173  1.7419 -0.7066
 5603TIP3   OH216772   5.273   0.229   4.428  0.4955  0.5353 -0.6192
 5603TIP3    H116773   5.363   0.252   4.405 -0.3488  1.3682 -3.4134
 5603TIP3    H216774   5.265   0.136   4.407  0.4318  0.6958 -1.3065
 5604TIP3   OH216775   1.836   2.744   0.374 -0.3133 -0.4708 -0.4516
 5604TIP3    H116776   1.885   2.666   0.400  0.1037 -0.2381 -0.5194
 5604TIP3    H216777   1.787   2.717   0.296 -0.7894 -0.8832 -0.0169
 5605TIP3   OH216778   6.064   6.170   0.219  0.0236 -0.1427  0.1284
 5605TIP3    H116779   6.068   6.130   0.306  0.9195 -0.2059  0.0611
 5605TIP3    H216780   6.079   6.097   0.159  0.2229  0.0432 -0.0470
 5606TIP3   OH216781   0.924   0.990   4.837 -0.5597  0.1314  0.2238
 5606TIP3    H116782   0.917   0.916   4.897  0.6211  0.5842  0.9407
 5606TIP3    H216783   0.909   0.952   4.751  0.1815 -0.9783  0.5670
 5607TIP3   OH216784   2.378   3.431   0.122 -0.4744  0.2267 -0.0041
 5607TIP3    H116785   2.362   3.525   0.129 -0.5283  0.1479  0.9989
 5607TIP3    H216786   2.304   3.398   0.071 -0.8439  0.6214  0.2725
 5608TIP3   OH216787   1.712   2.955   3.009  0.7860  0.0713  0.0329
 5608TIP3    H116788   1.767   3.025   3.045  0.5235 -0.4528  1.5452
 5608TIP3    H216789   1.748   2.874   3.047 -0.4885 -0.3639  0.3770
 5609TIP3   OH216790   0.521   0.733   0.765 -0.2481 -0.0577  0.3404
 5609TIP3    H116791   0.432   0.769   0.759  0.5087  1.7639 -0.6762
 5609TIP3    H216792   0.552   0.762   0.851 -0.2348  0.2896  0.2204
 5610TIP3   OH216793   3.243   0.768   1.756  0.4931  0.2044  0.1131
 5610TIP3    H116794   3.175   0.821   1.713 -0.1157 -0.7315 -0.0928
 5610TIP3    H216795   3.316   0.767   1.694 -0.3087 -0.9891 -0.8626
 5611TIP3   OH216796   6.075   3.429   4.854 -0.1362 -0.1087  0.7652
 5611TIP3    H116797   6.107   3.350   4.897 -0.7718 -1.4099 -1.0364
 5611TIP3    H216798   5.988   3.405   4.821  0.2686  0.8140 -1.1263
 5612TIP3   OH216799   0.354   2.612   4.499 -0.4506 -0.1959  0.3614
 5612TIP3    H116800   0.380   2.548   4.566 -0.7591 -0.0604  0.6134
 5612TIP3    H216801   0.432   2.665   4.485  0.2725 -1.5048 -0.8845
 5613TIP3   OH216802   2.893   3.733   3.393 -0.1738  0.3996  0.2091
 5613TIP3    H116803   2.850   3.786   3.461 -2.9103  1.1968 -1.9369
 5613TIP3    H216804   2.972   3.700   3.435  0.0242  3.5313  2.7287
 5614TIP3   OH216805   5.874   2.866   5.301 -0.2421 -0.3085 -0.1150
 5614TIP3    H116806   5.812   2.853   5.229  0.6921 -1.7506 -0.6947
 5614TIP3    H216807   5.953   2.820   5.273  0.9979  1.2082  0.7555
 5615TIP3   OH216808   3.509   1.088   1.287  0.2080 -0.4889  0.1505
 5615TIP3    H116809   3.478   1.001   1.312 -0.3957 -0.3940 -0.2419
 5615TIP3    H216810   3.451   1.149   1.333 -0.7844 -0.3152 -1.2800
 5616TIP3   OH216811   4.429   2.793   4.405 -0.7270  0.0955 -0.2496
 5616TIP3    H116812   4.468   2.786   4.492  0.5629  0.2540 -0.7857
 5616TIP3    H216813   4.444   2.884   4.380 -0.5012 -0.1141 -0.8963
 5617TIP3   OH216814   0.624   1.158   3.624 -0.1555  0.1818  0.1700
 5617TIP3    H116815   0.692   1.224   3.637 -0.1219  0.3873 -0.9168
 5617TIP3    H216816   0.577   1.188   3.546 -1.1857 -0.2131  0.6317
 5618TIP3   OH216817   1.150   2.407   5.172  0.0653  0.5233  0.2954
 5618TIP3    H116818   1.184   2.341   5.233 -1.2886 -1.5923 -1.0731
 5618TIP3    H216819   1.056   2.409   5.190 -0.0854  1.2081 -0.5176
 5619TIP3   OH216820   6.198   4.511   3.943 -0.1065  0.0227  0.0070
 5619TIP3    H116821   6.265   4.577   3.926  0.1659 -0.1018  0.5469
 5619TIP3    H216822   6.170   4.529   4.033 -0.2198 -0.4296  0.0636
 5620TIP3   OH216823   4.284   1.673   1.560  0.7498  0.3352  0.6503
 5620TIP3    H116824   4.316   1.677   1.470  0.9011 -0.3678  0.6687
 5620TIP3    H216825   4.226   1.597   1.562 -0.5580  1.3011  0.7443
 5621TIP3   OH216826   6.403   5.858   4.933  0.1234  0.1704 -0.2269
 5621TIP3    H116827   6.494   5.861   4.963 -0.0134  1.6002  0.0921
 5621TIP3    H216828   6.351   5.861   5.013 -0.2257  2.5065 -0.4823
 5622TIP3   OH216829   0.030   2.191   5.127  0.2943 -0.2090  0.3096
 5622TIP3    H116830   0.108   2.241   5.150 -1.4154  1.8213  2.0155
 5622TIP3    H216831   0.064   2.103   5.109  2.8790  0.3962  1.6528
 5623TIP3   OH216832   4.736   5.591   1.698 -0.0602 -0.0943 -0.5524
 5623TIP3    H116833   4.658   5.553   1.738  0.9210 -0.8374  0.7311
 5623TIP3    H216834   4.789   5.516   1.674  0.1522  0.4017 -1.6661
 5624TIP3   OH216835   1.441   5.871   5.777  0.2371 -0.3106 -0.1534
 5624TIP3    H116836   1.373   5.894   5.712  0.5773  0.9675 -0.0964
 5624TIP3    H216837   1.397   5.880   5.861 -0.5777 -3.2417 -0.1752
 5625TIP3   OH216838   2.908   0.291   4.463 -0.0884  0.1101 -0.1394
 5625TIP3    H116839   2.880   0.255   4.379 -0.3521 -0.2041  0.0831
 5625TIP3    H216840   2.851   0.366   4.478 -0.6114 -0.3506  0.1707
 5626TIP3   OH216841   6.025   0.389   0.854 -0.4661  0.6179 -0.2380
 5626TIP3    H116842   5.938   0.428   0.849 -0.2697  1.3944  1.4303
 5626TIP3    H216843   6.084   0.464   0.862  0.2508  0.0704 -0.3055
 5627TIP3   OH216844   4.452   5.256   4.393 -0.4092 -0.0834  0.0977
 5627TIP3    H116845   4.431   5.311   4.317  0.8097  0.3493  0.0625
 5627TIP3    H216846   4.519   5.196   4.361  0.8383  0.7404  1.0714
 5628TIP3   OH216847   5.498   5.100   2.002  0.2334  0.0975 -0.1408
 5628TIP3    H116848   5.566   5.035   2.018  0.0546  0.0856  0.6069
 5628TIP3    H216849   5.443   5.062   1.934 -0.2983 -0.8702  0.7988
 5629TIP3   OH216850   0.407   4.580   2.169  0.2363  0.2763  0.2197
 5629TIP3    H116851   0.361   4.628   2.101 -1.2994 -1.6198 -0.1439
 5629TIP3    H216852   0.479   4.536   2.124  0.4181  0.6123  0.1843
 5630TIP3   OH216853   1.884   3.126   3.158 -0.3230  0.6025  0.3350
 5630TIP3    H116854   1.963   3.077   3.179  0.3445  1.3461 -0.3656
 5630TIP3    H216855   1.819   3.095   3.221  0.9048  0.9989  1.8554
 5631TIP3   OH216856   4.220   2.503   0.511  0.0649 -0.2515  0.3072
 5631TIP3    H116857   4.279   2.527   0.583 -1.0262  0.2934  1.0332
 5631TIP3    H216858   4.279   2.467   0.444  1.3388  1.1210  0.6363
 5632TIP3   OH216859   7.045   4.358   1.406 -0.4648  0.4085  0.2608
 5632TIP3    H116860   7.066   4.348   1.499 -2.1125 -3.0251  0.4152
 5632TIP3    H216861   7.060   4.271   1.368 -2.7943  0.8693 -1.9942
 5633TIP3   OH216862   0.017   2.314   1.871  0.2425  0.0106 -0.2796
 5633TIP3    H116863   0.032   2.290   1.779  0.3991 -0.0944 -0.2280
 5633TIP3    H216864   0.071   2.392   1.884  0.8958 -0.4686 -0.0457
 5634TIP3   OH216865   5.764   2.840   2.798 -0.1457  0.4190 -0.4614
 5634TIP3    H116866   5.836   2.877   2.746 -0.7384  2.0471 -0.1564
 5634TIP3    H216867   5.689   2.894   2.777 -0.0928  2.1987  3.2363
 5635TIP3   OH216868   0.441   1.571   3.705 -0.1076  0.1903  0.3470
 5635TIP3    H116869   0.407   1.648   3.750 -0.6888  0.2262 -0.1452
 5635TIP3    H216870   0.427   1.499   3.767  0.3925  0.4634  0.7854
 5636TIP3   OH216871   2.001   1.011   3.232 -0.1639 -0.2044  0.3175
 5636TIP3    H116872   1.948   1.089   3.213  0.5548 -0.1841 -1.8975
 5636TIP3    H216873   1.947   0.938   3.201  0.4532 -0.2981 -0.5801
 5637TIP3   OH216874   6.190   5.062   3.351  0.3165  0.2139 -0.1835
 5637TIP3    H116875   6.245   5.137   3.373  2.8509 -1.6065  0.0995
 5637TIP3    H216876   6.250   4.997   3.314 -1.5662 -2.0788  0.4784
 5638TIP3   OH216877   4.083   1.858   2.741 -0.4114 -0.3248  0.2142
 5638TIP3    H116878   4.135   1.903   2.807  0.8931 -0.0630 -0.9441
 5638TIP3    H216879   4.020   1.925   2.711 -0.0725 -0.0070  0.2037
 5639TIP3   OH216880   3.122   1.971   5.366  0.3088  0.3346 -0.3864
 5639TIP3    H116881   3.116   1.877   5.383 -0.6772  0.3766 -0.4543
 5639TIP3    H216882   3.053   2.010   5.419  1.6464  1.1990  0.7846
 5640TIP3   OH216883   3.416   6.372   2.805 -0.0401  0.1190 -0.5290
 5640TIP3    H116884   3.509   6.367   2.786  0.1463  1.6755 -0.1128
 5640TIP3    H216885   3.375   6.314   2.740  1.1716 -0.3271 -0.9166
 5641TIP3   OH216886   4.812   6.566   4.048 -0.0265 -0.2153  0.1062
 5641TIP3    H116887   4.757   6.635   4.086  0.7880 -0.1525  1.2310
 5641TIP3    H216888   4.779   6.554   3.959 -0.3914  1.3998  0.0045
 5642TIP3   OH216889   1.474   0.814   3.914  0.0633 -0.7715  0.0260
 5642TIP3    H116890   1.434   0.885   3.863  0.9260 -0.1519  0.1915
 5642TIP3    H216891   1.557   0.851   3.945  0.5831 -1.9023  0.0115
 5643TIP3   OH216892   6.111   0.663   0.616  0.1881  0.3881  0.0321
 5643TIP3    H116893   6.122   0.669   0.711  2.4733  0.6518 -0.1834
 5643TIP3    H216894   6.024   0.698   0.600  0.1310  1.2785  1.9592
 5644TIP3   OH216895   7.045   3.148   4.093 -0.2530 -0.1748 -0.2679
 5644TIP3    H116896   7.032   3.151   4.188 -0.6846  0.1858 -0.3341
 5644TIP3    H216897   7.057   3.239   4.068 -1.9352 -0.0558 -0.7938
 5645TIP3   OH216898   3.174   4.799   0.131 -0.1324 -0.5109 -0.2926
 5645TIP3    H116899   3.210   4.822   0.046  2.5601  0.5834  1.0337
 5645TIP3    H216900   3.177   4.703   0.134  0.0583 -0.5415 -1.2641
 5646TIP3   OH216901   1.933   2.460   2.803 -0.6815 -0.3978  0.0552
 5646TIP3    H116902   1.896   2.422   2.723 -3.0694 -0.6284  1.1570
 5646TIP3    H216903   1.984   2.389   2.841  0.0454 -0.4529 -0.9880
 5647TIP3   OH216904   1.415   3.341   4.452 -0.0259  0.2830  0.3153
 5647TIP3    H116905   1.354   3.273   4.482 -0.6234  0.9238  0.5718
 5647TIP3    H216906   1.500   3.311   4.482 -0.0880 -0.9898 -0.6425
 5648TIP3   OH216907   6.316   4.739   4.488 -0.3186 -0.4152 -0.0299
 5648TIP3    H116908   6.224   4.739   4.463 -0.4760 -0.3353  0.5296
 5648TIP3    H216909   6.339   4.646   4.498  0.1188 -0.5298 -1.7544
 5649TIP3   OH216910   5.094   3.747   0.989  0.1772 -0.1913 -0.2155
 5649TIP3    H116911   5.142   3.828   0.971  1.3012 -0.5927  0.8601
 5649TIP3    H216912   5.006   3.777   1.014  0.0957  0.5960 -1.3485
 5650TIP3   OH216913   2.241   5.535   3.238 -0.0470 -0.4207  0.3837
 5650TIP3    H116914   2.205   5.473   3.301  0.8892 -0.4604  0.9026
 5650TIP3    H216915   2.314   5.576   3.284  0.0821  0.2160 -0.3625
 5651TIP3   OH216916   5.349   6.379   3.686 -0.0996  0.1312  0.5081
 5651TIP3    H116917   5.354   6.456   3.629 -0.2460  0.4317  0.8893
 5651TIP3    H216918   5.372   6.413   3.773 -2.0122  0.1699  1.0449
 5652TIP3   OH216919   6.632   5.719   2.562 -0.2736 -0.1907  0.1416
 5652TIP3    H116920   6.707   5.766   2.597 -2.3568  1.2681  3.0849
 5652TIP3    H216921   6.595   5.779   2.496  0.0232 -0.0386  0.1118
 5653TIP3   OH216922   6.164   6.113   2.550 -0.5202 -0.1243 -0.1628
 5653TIP3    H116923   6.098   6.165   2.595  1.1065  1.0884  0.9299
 5653TIP3    H216924   6.193   6.169   2.478  0.2626 -0.0747  0.1852
 5654TIP3   OH216925   3.914   4.414   5.126 -0.1410  0.0828  0.1180
 5654TIP3    H116926   3.963   4.343   5.168  0.2928  0.5143  0.3476
 5654TIP3    H216927   3.903   4.386   5.035 -1.3735 -1.0138  0.5692
 5655TIP3   OH216928   6.298   1.979   2.308 -0.0422 -0.5277 -0.1537
 5655TIP3    H116929   6.308   1.959   2.401 -0.3265  0.0921  0.0179
 5655TIP3    H216930   6.314   1.896   2.263 -0.6755 -1.0028  0.4916
 5656TIP3   OH216931   4.412   5.040   0.526  0.6456  0.1376  0.2247
 5656TIP3    H116932   4.435   5.043   0.433 -0.7020 -0.1407 -0.1405
 5656TIP3    H216933   4.376   4.952   0.539 -0.0258  0.4854  0.7944
 5657TIP3   OH216934   0.179   3.356   1.132  0.0516  0.3386 -0.2233
 5657TIP3    H116935   0.209   3.406   1.056 -1.8063  1.1183 -0.4892
 5657TIP3    H216936   0.158   3.269   1.096  0.1303  0.3935 -0.4058
 5658TIP3   OH216937   4.828   4.116   2.312  0.1056  0.4394  0.2621
 5658TIP3    H116938   4.888   4.100   2.239  0.6501 -1.4622  1.0830
 5658TIP3    H216939   4.872   4.182   2.366 -0.0553  1.4496 -0.8032
 5659TIP3   OH216940   6.217   2.526   4.170  0.3779 -0.2377 -0.4238
 5659TIP3    H116941   6.203   2.532   4.076  0.8228  0.9368 -0.4273
 5659TIP3    H216942   6.133   2.553   4.208  0.1700 -0.7961 -0.4707
 5660TIP3   OH216943   1.040   6.759   1.772 -0.3184  0.2093 -0.4448
 5660TIP3    H116944   1.129   6.739   1.743 -0.2457  0.7275 -0.5911
 5660TIP3    H216945   1.000   6.674   1.787  0.6564 -0.0078  1.0592
 5661TIP3   OH216946   6.901   3.150   3.232 -0.0298 -0.3887  0.2276
 5661TIP3    H116947   6.926   3.234   3.193 -1.4065 -0.8515 -1.8518
 5661TIP3    H216948   6.821   3.169   3.282  0.2303 -0.2805  0.6025
 5662TIP3   OH216949   0.315   0.783   1.034  0.1943 -0.0685 -0.1374
 5662TIP3    H116950   0.260   0.860   1.026 -0.2431 -0.5234 -2.0047
 5662TIP3    H216951   0.404   0.817   1.043  0.1101  0.6938 -1.8097
 5663TIP3   OH216952   5.320   0.367   4.669 -0.3587  0.1603 -0.2654
 5663TIP3    H116953   5.392   0.431   4.662  1.2951 -1.5924 -0.1450
 5663TIP3    H216954   5.328   0.313   4.591 -1.0593 -0.5619  0.1452
 5664TIP3   OH216955   3.336   6.214   5.389  0.3160  0.2438  0.4243
 5664TIP3    H116956   3.335   6.275   5.315  0.4711 -0.5242 -0.2269
 5664TIP3    H216957   3.246   6.181   5.393 -0.4953  2.3982  2.4166
 5665TIP3   OH216958   4.317   1.745   0.801  0.2620 -0.2332 -0.9116
 5665TIP3    H116959   4.277   1.668   0.842 -2.3313  1.7187  0.5614
 5665TIP3    H216960   4.255   1.771   0.733  0.5419  1.1568 -0.6618
 5666TIP3   OH216961   3.301   2.582   2.707  0.1491  0.1409  0.1746
 5666TIP3    H116962   3.386   2.582   2.665 -0.4487  0.7075 -1.0767
 5666TIP3    H216963   3.256   2.505   2.673 -0.2093  0.4046  0.0368
 5667TIP3   OH216964   3.884   2.750   2.622 -0.3098  0.0653 -0.2657
 5667TIP3    H116965   3.847   2.703   2.697  0.8506  0.8765  0.8632
 5667TIP3    H216966   3.960   2.698   2.596  0.4701  0.8416  0.4323
 5668TIP3   OH216967   2.709   4.142   2.584  0.1372  0.7054 -0.3339
 5668TIP3    H116968   2.646   4.147   2.512 -0.1140  1.0586 -0.0947
 5668TIP3    H216969   2.794   4.132   2.541 -0.0817  0.2198 -0.6590
 5669TIP3   OH216970   0.580   5.442   0.231  0.7259 -0.4604 -0.0035
 5669TIP3    H116971   0.503   5.440   0.289 -0.5577  1.7406 -1.4800
 5669TIP3    H216972   0.652   5.410   0.286 -0.8749 -0.8446  2.0084
 5670TIP3   OH216973   0.621   3.465   2.182 -0.6276  0.1221  0.3778
 5670TIP3    H116974   0.626   3.482   2.088  1.1064  0.7471  0.5525
 5670TIP3    H216975   0.623   3.552   2.222  2.2343 -0.1660  1.0782
 5671TIP3   OH216976   5.517   3.517   4.098 -0.5363 -0.0047 -0.0268
 5671TIP3    H116977   5.544   3.486   4.012  1.3280 -1.3340  0.9547
 5671TIP3    H216978   5.501   3.437   4.149 -3.4702  0.7364  0.3873
 5672TIP3   OH216979   1.094   2.239   4.595 -0.2326 -0.2487  0.2597
 5672TIP3    H116980   1.147   2.315   4.618  0.2291 -0.6435  0.5041
 5672TIP3    H216981   1.143   2.196   4.525 -0.0617 -0.7988  0.7132
 5673TIP3   OH216982   0.430   0.099   1.952 -0.1055 -0.3272  0.0454
 5673TIP3    H116983   0.479   0.174   1.985  1.3579 -1.8514  1.5281
 5673TIP3    H216984   0.343   0.109   1.991 -0.6961  1.7519 -1.6313
 5674TIP3   OH216985   0.360   1.558   0.791 -0.1278  0.0900 -0.1925
 5674TIP3    H116986   0.447   1.519   0.787 -1.0476 -1.9935 -0.9042
 5674TIP3    H216987   0.342   1.567   0.885  1.0044  0.9907 -0.0371
 5675TIP3   OH216988   5.592   3.555   1.071 -0.6464  0.1262  0.9363
 5675TIP3    H116989   5.508   3.529   1.034 -0.9732  1.4273  0.7131
 5675TIP3    H216990   5.593   3.650   1.064  0.9524  0.1301  0.6878
 5676TIP3   OH216991   5.849   1.519   0.346 -0.1160 -0.3659  0.5054
 5676TIP3    H116992   5.845   1.543   0.254  1.6853 -0.5276  0.3459
 5676TIP3    H216993   5.761   1.535   0.379 -0.4370  1.0258 -0.9050
 5677TIP3   OH216994   1.134   0.452   0.134 -0.3654 -0.0257 -0.4511
 5677TIP3    H116995   1.044   0.485   0.140 -0.3700 -0.1552  0.2920
 5677TIP3    H216996   1.188   0.531   0.130 -0.3932  0.1013  1.0751
 5678TIP3   OH216997   4.520   5.179   2.480 -0.2496  0.1948  0.2339
 5678TIP3    H116998   4.615   5.184   2.495 -0.0699 -1.3985 -0.1917
 5678TIP3    H216999   4.504   5.088   2.458 -1.5062  0.9294 -2.2704
 5679TIP3   OH217000   7.099   4.771   3.270  0.5947 -0.4230 -0.3734
 5679TIP3    H117001   7.036   4.707   3.236  1.2854 -1.3832  0.0918
 5679TIP3    H217002   7.149   4.799   3.193  1.2387 -1.5495 -0.3939
 5680TIP3   OH217003   2.766   0.010   5.124  0.0508 -0.1871 -0.6484
 5680TIP3    H117004   2.758   0.104   5.140 -0.7292 -0.2194 -0.8106
 5680TIP3    H217005   2.679  -0.025   5.139  0.2641 -0.8439 -0.8776
 5681TIP3   OH217006   4.119   6.261   1.738 -0.2963  0.1103  0.1491
 5681TIP3    H117007   4.124   6.350   1.775  0.1725 -0.0742  0.5280
 5681TIP3    H217008   4.046   6.220   1.785  0.6532 -0.3121  1.2914
 5682TIP3   OH217009   2.047   4.475   0.608 -0.0721  0.4236 -0.3031
 5682TIP3    H117010   1.956   4.452   0.626 -0.1565  1.3928  0.6156
 5682TIP3    H217011   2.098   4.416   0.664 -0.2917  2.4433  2.1923
 5683TIP3   OH217012   5.650   1.303   4.224  0.3286 -0.0111  0.2440
 5683TIP3    H117013   5.563   1.294   4.262  0.6006 -0.3777  0.7965
 5683TIP3    H217014   5.648   1.387   4.179 -0.1754  0.1793  0.6121
 5684TIP3   OH217015   4.037   4.973   5.550  0.0265 -0.0242 -0.3401
 5684TIP3    H117016   3.975   4.961   5.478  0.3003 -0.6183 -0.4781
 5684TIP3    H217017   4.053   4.885   5.583  0.0835  0.2233  0.2995
 5685TIP3   OH217018   2.233   6.366   1.922  0.2341 -0.4454  0.1954
 5685TIP3    H117019   2.306   6.420   1.951 -0.8561  0.4748  1.3822
 5685TIP3    H217020   2.264   6.276   1.931  1.3908 -0.0684  0.1493
 5686TIP3   OH217021   0.910   5.906   3.589  0.0163  0.4498  0.1504
 5686TIP3    H117022   0.942   5.877   3.503  1.8184  0.7834  0.6607
 5686TIP3    H217023   0.963   5.856   3.652 -2.3740 -1.0147  1.1438
 5687TIP3   OH217024   0.890   5.792   4.383 -0.1499 -0.0138  0.0369
 5687TIP3    H117025   0.885   5.885   4.405  2.0175  0.6849 -2.0342
 5687TIP3    H217026   0.806   5.773   4.343 -0.2956  1.3089 -0.3437
 5688TIP3   OH217027   1.199   0.605   3.684 -0.0613 -0.1047 -0.7157
 5688TIP3    H117028   1.237   0.570   3.765 -0.9376 -0.9680 -0.6584
 5688TIP3    H217029   1.266   0.588   3.618  0.9442  1.1965 -0.0839
 5689TIP3   OH217030   6.281   1.616   4.298  0.0719 -0.3135 -0.2241
 5689TIP3    H117031   6.197   1.605   4.253 -0.1801 -1.4524  0.4859
 5689TIP3    H217032   6.260   1.665   4.377  0.6077  2.2291 -1.5427
 5690TIP3   OH217033   4.195   5.124   1.766 -0.2408 -0.3071  0.5151
 5690TIP3    H117034   4.254   5.162   1.702  0.5990 -0.3222  1.2585
 5690TIP3    H217035   4.196   5.186   1.839 -0.2286 -0.8829  1.0137
 5691TIP3   OH217036   5.964   2.447   0.916 -0.3228  0.1800  0.7349
 5691TIP3    H117037   6.007   2.449   1.001  0.9190  2.0005  0.1195
 5691TIP3    H217038   5.875   2.479   0.933  0.0724  1.0050  1.2752
 5692TIP3   OH217039   3.649   3.722   1.381 -0.2918 -0.2378  0.0865
 5692TIP3    H117040   3.647   3.633   1.415 -0.7146 -0.1626  0.2681
 5692TIP3    H217041   3.737   3.732   1.344  0.1529 -0.3410  1.0987
 5693TIP3   OH217042   3.106   4.847   4.896  0.1662  0.0281 -0.0332
 5693TIP3    H117043   3.062   4.899   4.964  0.0235 -0.8765  0.5896
 5693TIP3    H217044   3.075   4.758   4.911 -0.2000 -0.1258 -1.5790
 5694TIP3   OH217045   4.938   6.262   3.252  0.1353 -0.1060 -0.1281
 5694TIP3    H117046   4.937   6.357   3.259 -1.8596 -0.1730  1.8030
 5694TIP3    H217047   4.936   6.244   3.158  2.7684  1.6643 -0.6354
 5695TIP3   OH217048   2.861   4.683   4.091  0.3931  0.1508 -0.4236
 5695TIP3    H117049   2.824   4.604   4.128 -1.3708  1.0407 -0.1980
 5695TIP3    H217050   2.942   4.697   4.140 -0.5436 -0.1479  1.2681
 5696TIP3   OH217051   3.662   6.378   2.703 -0.3492  0.2122 -0.1052
 5696TIP3    H117052   3.661   6.331   2.620 -0.5513 -0.3646  0.2197
 5696TIP3    H217053   3.716   6.456   2.686 -0.5208  0.1816 -0.8149
 5697TIP3   OH217054   5.661   6.735   5.392 -0.2048  0.5717  0.3707
 5697TIP3    H117055   5.716   6.810   5.368  0.3794  1.3044  3.4523
 5697TIP3    H217056   5.708   6.659   5.359  0.5570  1.4251 -0.5732
 5698TIP3   OH217057   1.173   6.471   2.002  0.5007 -0.4541  0.1659
 5698TIP3    H117058   1.196   6.415   2.077 -0.2739  0.4203  1.0837
 5698TIP3    H217059   1.083   6.446   1.981 -0.5375  1.6261  1.7553
 5699TIP3   OH217060   5.471   5.800   2.216  0.6963  0.2441 -0.2176
 5699TIP3    H117061   5.403   5.815   2.151  0.0299  1.8740  0.7789
 5699TIP3    H217062   5.447   5.718   2.258  0.2480 -0.0062 -0.9487
 5700TIP3   OH217063   1.828   3.541   1.773  0.2322 -0.0043  0.1631
 5700TIP3    H117064   1.797   3.582   1.692 -2.6645 -0.5644  0.8752
 5700TIP3    H217065   1.827   3.612   1.837  0.4278 -0.0250  0.1884
 5701TIP3   OH217066   1.594   0.537   4.437 -0.3893  0.4316  0.1493
 5701TIP3    H117067   1.553   0.451   4.449 -0.0652  0.0223 -1.4548
 5701TIP3    H217068   1.523   0.599   4.453 -0.5715 -0.1036  1.5504
 5702TIP3   OH217069   0.885   3.403   2.981  0.4421  0.0279 -0.5247
 5702TIP3    H117070   0.960   3.450   3.018  0.2377 -1.0417  1.3768
 5702TIP3    H217071   0.915   3.313   2.972  0.3339  0.1616 -2.6730
 5703TIP3   OH217072   5.777   3.062   5.738 -0.1309  0.2887  0.5848
 5703TIP3    H117073   5.821   2.984   5.773 -4.3810 -1.6878  2.3225
 5703TIP3    H217074   5.775   3.048   5.644  1.2926 -0.4100  0.6278
 5704TIP3   OH217075   7.141   5.477   3.591  0.0399  0.2755  0.3228
 5704TIP3    H117076   7.171   5.386   3.586 -1.0090 -0.0834  0.5072
 5704TIP3    H217077   7.205   5.520   3.648  0.6738 -0.2839  0.0481
 5705TIP3   OH217078   5.134   5.195   5.386 -0.0709 -0.3789 -0.3299
 5705TIP3    H117079   5.081   5.151   5.319  1.1339 -0.9648 -0.9272
 5705TIP3    H217080   5.224   5.166   5.368  0.4588  0.6067  0.6418
 5706TIP3   OH217081   5.525   2.120   3.496 -0.0591  0.5545  0.0951
 5706TIP3    H117082   5.530   2.203   3.447 -3.0341  1.2769  0.8223
 5706TIP3    H217083   5.587   2.132   3.569  0.5015  1.6073 -0.5192
 5707TIP3   OH217084   3.533   0.487   2.105  0.0187  0.1319 -0.1213
 5707TIP3    H117085   3.523   0.426   2.178 -0.0706  0.9199  0.5450
 5707TIP3    H217086   3.456   0.472   2.051 -0.4278  0.2224  0.4759
 5708TIP3   OH217087   1.877   5.485   3.843  0.5803 -0.1902  0.2158
 5708TIP3    H117088   1.941   5.447   3.903  1.5686  2.5877  1.0438
 5708TIP3    H217089   1.837   5.557   3.892 -0.6335  0.3832 -1.5084
 5709TIP3   OH217090   3.535   2.060   2.187 -0.2403  0.5869  0.5249
 5709TIP3    H117091   3.606   2.082   2.128  0.1414 -0.4555  0.5677
 5709TIP3    H217092   3.552   2.112   2.266  0.4346  0.4053  0.5037
 5710TIP3   OH217093   3.175   5.768   5.053  0.1816 -0.2913 -0.0030
 5710TIP3    H117094   3.128   5.695   5.011 -0.7877  0.6239 -0.5666
 5710TIP3    H217095   3.244   5.726   5.104 -0.9405 -1.6811  0.4484
 5711TIP3   OH217096   0.241   4.127   0.252  0.3718 -0.6263  0.1578
 5711TIP3    H117097   0.313   4.143   0.313  1.0013  0.3959 -0.8112
 5711TIP3    H217098   0.275   4.062   0.191  0.6656  0.1768 -0.5624
 5712TIP3   OH217099   6.176   5.693   3.401  0.4581  0.0986  0.1966
 5712TIP3    H117100   6.181   5.745   3.321 -1.9240 -0.6985 -0.5720
 5712TIP3    H217101   6.248   5.725   3.456  0.1528  2.9729 -0.9068
 5713TIP3   OH217102   6.673   2.463   2.208  0.0727  0.0918 -0.3051
 5713TIP3    H117103   6.634   2.429   2.288 -0.4858  1.5448  0.0652
 5713TIP3    H217104   6.754   2.505   2.235  0.7630 -0.8939 -0.7615
 5714TIP3   OH217105   5.775   0.846   5.459  0.0532  0.3427  0.3536
 5714TIP3    H117106   5.855   0.874   5.416  0.7378 -0.2757  1.1817
 5714TIP3    H217107   5.710   0.841   5.389  0.2194  2.6383 -0.0498
 5715TIP3   OH217108   5.421   1.418   4.825  0.0767  0.1808 -0.4634
 5715TIP3    H117109   5.435   1.425   4.731  2.4352 -1.7494 -0.3310
 5715TIP3    H217110   5.508   1.405   4.862 -0.8702  0.0846  1.9316
 5716TIP3   OH217111   1.015   4.850   4.268 -0.5390 -0.1273  0.3730
 5716TIP3    H117112   1.033   4.757   4.254 -0.2733  0.3218 -3.1728
 5716TIP3    H217113   0.921   4.858   4.252 -0.1864  0.4681 -1.7147
 5717TIP3   OH217114   5.356   2.299   4.888  0.2934  0.2578 -0.1883
 5717TIP3    H117115   5.448   2.294   4.863  0.2069  0.8089 -0.6300
 5717TIP3    H217116   5.358   2.302   4.984  0.6695 -0.9111 -0.1417
 5718TIP3   OH217117   3.524   2.749   4.608  0.4903  0.4721 -0.2605
 5718TIP3    H117118   3.502   2.667   4.652 -0.7500  0.6225 -0.5708
 5718TIP3    H217119   3.601   2.781   4.654  0.8371 -0.7333  0.0306
 5719TIP3   OH217120   1.062   0.740   4.413 -0.1681 -0.9236 -0.6815
 5719TIP3    H117121   1.148   0.774   4.390 -0.9334  0.7872 -1.1596
 5719TIP3    H217122   1.036   0.687   4.337  0.0595 -0.6408 -0.9591
 5720TIP3   OH217123   1.097   5.490   5.159 -0.0658  0.8244 -0.5618
 5720TIP3    H117124   1.164   5.475   5.226 -0.8898  1.6863  0.4822
 5720TIP3    H217125   1.050   5.407   5.153 -1.0552  1.2185  1.1696
 5721TIP3   OH217126   2.907   5.503   0.147  0.3934 -0.1637 -0.4786
 5721TIP3    H117127   2.971   5.523   0.215 -0.3628 -0.0845  0.2187
 5721TIP3    H217128   2.941   5.547   0.069  1.4975 -0.6247 -0.2785
 5722TIP3   OH217129   4.933   3.620   3.493 -0.4924  0.2050 -0.5741
 5722TIP3    H117130   5.017   3.615   3.539 -0.8781  1.9261  0.3949
 5722TIP3    H217131   4.884   3.687   3.540 -2.1183 -0.1939 -1.6271
 5723TIP3   OH217132   1.801   3.383   3.420 -0.5117  0.1082 -0.7756
 5723TIP3    H117133   1.725   3.348   3.375 -0.4089  0.2735 -1.0791
 5723TIP3    H217134   1.809   3.329   3.500  0.0911 -1.0642 -1.5939
 5724TIP3   OH217135   1.320   2.685   3.723 -0.8506 -0.6310 -0.9041
 5724TIP3    H117136   1.281   2.656   3.805 -1.3297 -0.3448 -1.0324
 5724TIP3    H217137   1.396   2.627   3.712 -0.2754 -0.1188  0.1637
 5725TIP3   OH217138   5.207   0.313   0.788 -0.4432  0.0447  0.4198
 5725TIP3    H117139   5.232   0.357   0.706  0.1020 -0.2310  0.4313
 5725TIP3    H217140   5.287   0.268   0.816 -0.9011 -0.7012  0.5689
 5726TIP3   OH217141   6.821   3.075   1.359  0.2122  0.1412  0.4389
 5726TIP3    H117142   6.754   3.034   1.412  0.2303 -0.5546 -0.0635
 5726TIP3    H217143   6.878   3.003   1.332 -0.2002  0.3608 -1.1030
 5727TIP3   OH217144   4.300   0.127   4.179 -0.1068 -0.0856 -0.7615
 5727TIP3    H117145   4.339   0.065   4.241  0.0265 -1.2352 -1.9579
 5727TIP3    H217146   4.358   0.203   4.180  0.6640 -0.6730 -0.5219
 5728TIP3   OH217147   1.570   2.604   4.298 -0.0505 -0.1781  0.7673
 5728TIP3    H117148   1.602   2.543   4.364  0.3683  1.3939  2.0626
 5728TIP3    H217149   1.643   2.614   4.236 -1.1204 -3.2332 -1.2354
 5729TIP3   OH217150   5.091   5.005   5.792  0.1061 -0.3474  0.4542
 5729TIP3    H117151   5.047   4.993   5.877 -1.0081 -0.0919 -0.0669
 5729TIP3    H217152   5.029   4.970   5.728  0.7304 -0.1071 -0.2903
 5730TIP3   OH217153   6.186   2.859   1.492  0.0639  0.0108  0.7890
 5730TIP3    H117154   6.223   2.933   1.443  1.1297  0.2059  1.8505
 5730TIP3    H217155   6.178   2.891   1.582 -0.4899 -0.8121  1.0446
 5731TIP3   OH217156   1.173   4.647   3.850 -0.4316  0.0400 -0.2066
 5731TIP3    H117157   1.151   4.695   3.770 -0.8418 -0.1680 -0.2170
 5731TIP3    H217158   1.134   4.699   3.920 -0.0988  0.2053 -0.1402
 5732TIP3   OH217159   6.562   1.334   5.664  0.0709 -0.0601  0.0841
 5732TIP3    H117160   6.529   1.391   5.733 -1.0474  0.4048 -0.8111
 5732TIP3    H217161   6.501   1.260   5.663 -1.3161  1.0487 -1.9215
 5733TIP3   OH217162   2.574   1.723   0.590  0.5210 -0.0558 -0.3233
 5733TIP3    H117163   2.486   1.730   0.627  0.9752  0.5819  0.6786
 5733TIP3    H217164   2.569   1.768   0.506 -0.4934 -1.3890 -1.0047
 5734TIP3   OH217165   4.889   0.924   2.238  0.5525 -0.0396  0.5342
 5734TIP3    H117166   4.875   0.891   2.150  0.3703  1.2393  0.0511
 5734TIP3    H217167   4.984   0.936   2.244  0.4554  1.2911 -0.0715
 5735TIP3   OH217168   6.425   4.146   5.300  0.4043 -0.0914 -0.1856
 5735TIP3    H117169   6.444   4.200   5.224 -1.7026  1.7361  0.4823
 5735TIP3    H217170   6.377   4.203   5.359 -1.7291 -2.5915  0.7235
 5736TIP3   OH217171   1.258   4.746   1.170  0.3913  0.0898 -0.2344
 5736TIP3    H117172   1.230   4.793   1.249  1.1404  0.4420 -0.1704
 5736TIP3    H217173   1.198   4.672   1.163 -0.0734  0.4099  0.3150
 5737TIP3   OH217174   0.528   5.098   3.365 -0.0320 -0.6367  0.1474
 5737TIP3    H117175   0.581   5.038   3.312  1.3651  0.7338 -0.0727
 5737TIP3    H217176   0.517   5.052   3.449  0.5328 -1.4316 -0.1976
 5738TIP3   OH217177   1.270   1.582   1.969 -0.5020  0.0374  0.0018
 5738TIP3    H117178   1.361   1.605   1.985 -0.5019 -0.1689  0.2983
 5738TIP3    H217179   1.238   1.550   2.053 -0.8503  0.1216 -0.0988
 5739TIP3   OH217180   2.922   5.693   2.866  0.0227 -0.1930  0.0101
 5739TIP3    H117181   2.947   5.607   2.898  0.2097 -0.2534 -0.2987
 5739TIP3    H217182   2.865   5.728   2.935 -1.0336 -1.0513 -0.3976
 5740TIP3   OH217183   3.657   3.821   2.055 -0.7441 -0.1090  0.4988
 5740TIP3    H117184   3.694   3.735   2.072  1.6883  0.6668 -0.4637
 5740TIP3    H217185   3.608   3.843   2.134 -0.4760 -1.8821  1.1852
 5741TIP3   OH217186   1.346   6.714   0.595  0.4458  0.4044  0.3647
 5741TIP3    H117187   1.259   6.726   0.558  0.6863 -1.0109 -0.7634
 5741TIP3    H217188   1.360   6.619   0.594  2.6340  0.6704 -1.0596
 5742TIP3   OH217189   0.420   2.348   4.663  0.3139 -0.4925 -0.0365
 5742TIP3    H117190   0.461   2.409   4.724 -0.0013  1.6623 -1.8649
 5742TIP3    H217191   0.490   2.324   4.602  0.0519 -0.7520 -0.2411
 5743TIP3   OH217192   5.375   2.071   0.520 -0.4077 -0.1225 -0.3458
 5743TIP3    H117193   5.458   2.026   0.530  0.0639  0.8152  0.0564
 5743TIP3    H217194   5.383   2.119   0.437 -0.2884  0.4812  0.0064
 5744TIP3   OH217195   1.058   4.356   5.403  0.0853 -0.2803  0.4472
 5744TIP3    H117196   1.051   4.319   5.491 -0.7851  0.3173  0.6385
 5744TIP3    H217197   1.024   4.287   5.345 -0.2626 -0.2967  0.6708
 5745TIP3   OH217198   5.968   4.826   4.715  0.3313 -0.2563  0.1542
 5745TIP3    H117199   6.001   4.832   4.805 -0.0565 -0.9514  0.3459
 5745TIP3    H217200   5.878   4.795   4.724  0.2677 -0.2627 -0.4698
 5746TIP3   OH217201   5.704   5.691   1.399  0.1778  0.5841 -0.1101
 5746TIP3    H117202   5.769   5.755   1.369  0.6481  0.6987  1.0650
 5746TIP3    H217203   5.748   5.645   1.471 -0.9723  0.5413  0.6013
 5747TIP3   OH217204   0.667   4.186   2.407 -0.1791  0.2510  0.1021
 5747TIP3    H117205   0.674   4.168   2.500  0.7199  0.4025  0.0688
 5747TIP3    H217206   0.670   4.100   2.365  0.1527  0.2307  0.1690
 5748TIP3   OH217207   6.899   4.885   1.686  0.2103 -0.4235 -0.2337
 5748TIP3    H117208   6.845   4.817   1.645  1.9419 -1.2402 -1.2429
 5748TIP3    H217209   6.863   4.893   1.774 -2.6167  0.2704 -1.3352
 5749TIP3   OH217210   5.243   4.276   4.572  0.0717 -0.3923  0.1191
 5749TIP3    H117211   5.201   4.275   4.658  0.5095 -1.5301  0.3323
 5749TIP3    H217212   5.176   4.243   4.512 -0.2141  0.3457  0.0234
 5750TIP3   OH217213   2.020   0.347   2.705  0.3430  0.0110 -0.0390
 5750TIP3    H117214   2.047   0.266   2.660 -0.9569 -0.4323 -0.0728
 5750TIP3    H217215   2.039   0.417   2.642  0.8454 -0.3370 -0.2817
 5751TIP3   OH217216   2.328   4.944   3.618 -0.4849 -0.3231  0.0084
 5751TIP3    H117217   2.419   4.930   3.591  0.1701  1.4218  1.1074
 5751TIP3    H217218   2.286   4.859   3.607  1.2795 -1.1703 -0.5400
 5752TIP3   OH217219   4.520   4.865   0.749  0.3177  0.3010 -0.0285
 5752TIP3    H117220   4.585   4.865   0.820  2.4194  2.6684 -1.7644
 5752TIP3    H217221   4.449   4.921   0.781  0.5687  0.1839  0.7455
 5753TIP3   OH217222   5.393   3.870   0.574 -0.0617 -0.1074  0.2095
 5753TIP3    H117223   5.382   3.965   0.581 -1.5975 -0.3475  1.5220
 5753TIP3    H217224   5.477   3.859   0.530 -0.2698  1.8628 -0.7838
 5754TIP3   OH217225   1.630   6.425   0.400 -0.5004  0.1592 -0.2412
 5754TIP3    H117226   1.717   6.385   0.395  0.0235  1.3813 -1.7394
 5754TIP3    H217227   1.646   6.517   0.380 -1.6621  1.1734  3.0021
 5755TIP3   OH217228   3.082   0.251   0.550  0.5168  0.0405  0.3241
 5755TIP3    H117229   3.113   0.163   0.571 -0.5613 -0.1369  1.2231
 5755TIP3    H217230   3.131   0.275   0.471  0.0107 -1.8208 -0.6100
 5756TIP3   OH217231   1.477   5.144   1.978  0.4616 -0.5487 -0.4302
 5756TIP3    H117232   1.429   5.085   2.038 -2.2514  0.9314 -0.9578
 5756TIP3    H217233   1.411   5.172   1.915  2.0533  1.7315 -1.2032
 5757TIP3   OH217234   5.574   0.135   2.535  0.1684 -0.0213  0.3868
 5757TIP3    H117235   5.533   0.086   2.605  1.0405 -1.4884 -0.0691
 5757TIP3    H217236   5.668   0.127   2.552  0.4006 -0.4971 -0.9769
 5758TIP3   OH217237   6.426   5.459   3.227 -0.4695  0.1627 -0.1333
 5758TIP3    H117238   6.483   5.419   3.162 -0.8956  1.5852 -1.4698
 5758TIP3    H217239   6.339   5.456   3.187 -0.9752 -0.1052  0.9611
 5759TIP3   OH217240   2.103   2.253   0.135 -0.1149  0.4414  0.3565
 5759TIP3    H117241   2.112   2.219   0.047 -1.6494  0.5060  0.1467
 5759TIP3    H217242   2.177   2.215   0.184  0.5488  0.1412 -0.8532
 5760TIP3   OH217243   1.441   0.069   4.282 -0.1745 -0.2393  0.6311
 5760TIP3    H117244   1.346   0.074   4.275  0.0068  1.3330 -1.9683
 5760TIP3    H217245   1.469   0.015   4.209  1.0164  1.2210 -0.0592
 5761TIP3   OH217246   0.258   2.163   2.819 -0.5492  0.4290  0.3461
 5761TIP3    H117247   0.261   2.125   2.907 -0.9219 -1.0099 -0.2369
 5761TIP3    H217248   0.334   2.221   2.816  1.2724 -1.7885  0.6479
 5762TIP3   OH217249   1.414   2.489   5.186 -0.0129 -0.1913  0.2011
 5762TIP3    H117250   1.426   2.453   5.274  0.6363 -0.4450  0.0158
 5762TIP3    H217251   1.321   2.477   5.168 -0.5007  1.3145  1.4743
 5763TIP3   OH217252   6.616   4.777   5.405 -0.0556 -0.1758  0.3045
 5763TIP3    H117253   6.547   4.830   5.444  0.9996 -0.1836  2.2994
 5763TIP3    H217254   6.594   4.775   5.312 -1.1065  2.2611  0.4091
 5764TIP3   OH217255   5.831   0.792   3.550 -0.1418 -0.4258  0.4204
 5764TIP3    H117256   5.755   0.733   3.550 -1.2460  0.9394  0.9069
 5764TIP3    H217257   5.899   0.742   3.506 -1.4714 -1.5165 -0.5088
 5765TIP3   OH217258   1.138   3.587   4.504  0.1438  0.1185  0.4153
 5765TIP3    H117259   1.157   3.506   4.552  1.7343  0.5660  0.5863
 5765TIP3    H217260   1.074   3.633   4.558 -0.5030 -0.8511  0.4994
 5766TIP3   OH217261   5.129   4.212   3.399  0.3759  0.1408  0.1596
 5766TIP3    H117262   5.141   4.176   3.311  2.1829  0.8622  0.0765
 5766TIP3    H217263   5.066   4.153   3.440  1.3934 -1.7094 -0.7824
 5767TIP3   OH217264   4.247   5.619   1.860 -0.2414 -0.1559  0.0753
 5767TIP3    H117265   4.171   5.562   1.851 -0.5540  0.2591  0.0779
 5767TIP3    H217266   4.213   5.708   1.853  0.4705  0.0153 -1.6056
 5768TIP3   OH217267   1.357   4.804   4.698  0.1007 -0.0819 -0.1529
 5768TIP3    H117268   1.282   4.786   4.755 -0.5669  2.2654 -0.1704
 5768TIP3    H217269   1.321   4.800   4.609  0.2483 -0.0503 -0.2140
 5769TIP3   OH217270   0.747   5.010   1.345  0.4371  0.9167 -0.4838
 5769TIP3    H117271   0.667   5.062   1.345  0.8869  1.6443 -1.4935
 5769TIP3    H217272   0.764   4.993   1.252  0.8754 -0.1491 -0.2265
 5770TIP3   OH217273   4.161   0.895   1.996  0.1349  0.4626 -0.2168
 5770TIP3    H117274   4.131   0.962   2.058 -3.3206 -0.5637 -0.5596
 5770TIP3    H217275   4.087   0.883   1.937  1.4726 -2.1302 -1.5282
 5771TIP3   OH217276   1.223   5.438   4.930 -0.0447 -0.8784  0.7368
 5771TIP3    H117277   1.281   5.374   4.973  0.1102 -0.6282  0.8993
 5771TIP3    H217278   1.171   5.475   5.001  1.7412  1.1599  1.0868
 5772TIP3   OH217279   0.940   5.673   2.240  0.2950  0.3033  0.4567
 5772TIP3    H117280   0.947   5.766   2.261 -0.2046  0.1739  1.2104
 5772TIP3    H217281   0.865   5.642   2.291 -0.1029 -0.3222 -0.4647
 5773TIP3   OH217282   6.202   0.175   5.145 -0.4713  0.1266 -0.4856
 5773TIP3    H117283   6.217   0.266   5.171  1.1997  0.0365 -1.0383
 5773TIP3    H217284   6.278   0.128   5.178 -1.6736 -1.2409  0.4570
 5774TIP3   OH217285   5.521   0.961   2.839 -0.6526  0.5112  0.1529
 5774TIP3    H117286   5.549   0.996   2.754  0.7301  2.0299  1.1833
 5774TIP3    H217287   5.597   0.972   2.896 -1.9608  0.7087  1.9419
 5775TIP3   OH217288   2.864   4.747   4.520  0.0448 -0.2627  0.1854
 5775TIP3    H117289   2.899   4.690   4.589  1.3729  1.3883  0.9576
 5775TIP3    H217290   2.779   4.776   4.554 -0.3565 -1.2565  0.0640
 5776TIP3   OH217291   2.543   6.367   4.703  0.4469  0.1224  0.0844
 5776TIP3    H117292   2.457   6.341   4.736  0.5320  0.6458  0.7517
 5776TIP3    H217293   2.575   6.291   4.654  0.4294 -0.7901  1.4492
 5777TIP3   OH217294   2.596   5.797   2.797 -1.2623 -0.0777 -0.0045
 5777TIP3    H117295   2.680   5.801   2.752  0.2735 -0.7372  2.6692
 5777TIP3    H217296   2.562   5.710   2.777 -0.8156 -0.2056 -0.2196
 5778TIP3   OH217297   5.769   6.538   1.050 -0.0084  0.2633  0.5170
 5778TIP3    H117298   5.811   6.462   1.009 -0.7395  0.2693 -0.2696
 5778TIP3    H217299   5.683   6.506   1.077 -1.2324  1.3177 -1.8035
 5779TIP3   OH217300   4.767   6.428   2.942 -0.5543 -0.3973  0.3193
 5779TIP3    H117301   4.829   6.356   2.956 -0.7504 -0.7040 -0.3329
 5779TIP3    H217302   4.688   6.401   2.989  0.2996  0.7512  2.5832
 5780TIP3   OH217303   3.519   1.724   2.382  0.2831 -0.3445 -0.4307
 5780TIP3    H117304   3.520   1.816   2.407  2.9518 -0.1418 -0.9808
 5780TIP3    H217305   3.577   1.681   2.445  0.9127 -1.2109 -1.5499
 5781TIP3   OH217306   7.120   3.643   1.344  0.1116 -0.3308 -0.2001
 5781TIP3    H117307   7.106   3.604   1.257 -1.9813 -5.1678  1.9787
 5781TIP3    H217308   7.032   3.669   1.373  1.1240  4.3088 -0.4977
 5782TIP3   OH217309   6.584   4.540   2.848  0.1038 -0.5838  0.3218
 5782TIP3    H117310   6.499   4.574   2.821 -0.7823 -2.1209  1.0656
 5782TIP3    H217311   6.608   4.591   2.924  1.3313  1.9099 -1.5856
 5783TIP3   OH217312   1.479   2.649   3.059  0.6533 -0.7305 -0.1226
 5783TIP3    H117313   1.543   2.629   2.990  0.7092 -0.9264 -0.0146
 5783TIP3    H217314   1.397   2.661   3.012  0.8282 -0.1584 -0.2975
 5784TIP3   OH217315   0.400   0.821   2.876 -1.1220  0.5863  0.0402
 5784TIP3    H117316   0.391   0.749   2.813 -3.3675  1.3368 -0.5757
 5784TIP3    H217317   0.418   0.777   2.959  0.5984 -0.4852 -0.8428
 5785TIP3   OH217318   4.855   2.736   3.432  0.2108  0.4781 -0.0622
 5785TIP3    H117319   4.899   2.753   3.515  1.0619  0.3477 -0.4793
 5785TIP3    H217320   4.864   2.641   3.418 -0.9385  0.3024  0.2498
 5786TIP3   OH217321   6.115   4.993   5.417  0.1548 -0.3174  0.1785
 5786TIP3    H117322   6.139   4.970   5.327 -0.8503  0.9824 -0.4586
 5786TIP3    H217323   6.141   5.085   5.427 -1.9117  0.3177  0.3534
 5787TIP3   OH217324   3.921   5.892   2.705 -0.2391  0.6017 -0.4548
 5787TIP3    H117325   3.852   5.948   2.741 -0.2097 -0.0399  0.6667
 5787TIP3    H217326   4.000   5.919   2.753 -0.1694 -0.1943 -0.1192
 5788TIP3   OH217327   2.126   3.586   2.291 -0.2433 -0.1885  1.0872
 5788TIP3    H117328   2.186   3.565   2.219 -0.2804  1.7924  0.4253
 5788TIP3    H217329   2.065   3.649   2.253 -0.4816  0.6187  2.7507
 5789TIP3   OH217330   6.419   0.781   2.880  0.6608  0.3468  0.1195
 5789TIP3    H117331   6.387   0.733   2.956 -0.7703  0.3637 -0.4437
 5789TIP3    H217332   6.514   0.763   2.878  0.3715 -1.4220  0.6276
 5790TIP3   OH217333   3.492   4.147   4.790  0.0271  0.0580 -0.2189
 5790TIP3    H117334   3.526   4.104   4.868 -0.3828  1.0713  0.5470
 5790TIP3    H217335   3.534   4.234   4.791 -1.6516  0.9034  0.1155
 5791TIP3   OH217336   3.819   1.130   0.534 -0.1919  0.5408  0.0556
 5791TIP3    H117337   3.874   1.181   0.594  1.4724 -0.6337 -0.4059
 5791TIP3    H217338   3.730   1.142   0.567  0.5577  0.8129  2.1177
 5792TIP3   OH217339   5.355   0.569   1.661  0.2300  0.9170  0.2777
 5792TIP3    H117340   5.404   0.520   1.726 -0.0110  1.0690  0.5755
 5792TIP3    H217341   5.273   0.593   1.705  0.0410  0.9702 -0.0978
 5793TIP3   OH217342   4.137   6.563   5.051 -0.0070  0.5798  0.1047
 5793TIP3    H117343   4.194   6.620   5.103  0.4870  1.0179 -0.8813
 5793TIP3    H217344   4.089   6.511   5.115  0.2483  1.4263  0.9972
 5794TIP3   OH217345   3.308   3.392   4.261 -0.2119  0.3350 -0.1755
 5794TIP3    H117346   3.213   3.388   4.274 -0.2543 -0.4337 -0.6592
 5794TIP3    H217347   3.344   3.346   4.338 -0.1987  1.1002  0.2869
 5795TIP3   OH217348   4.548   1.849   2.342  0.1308 -0.2088  0.3413
 5795TIP3    H117349   4.574   1.776   2.285 -1.8102 -0.9090  0.2353
 5795TIP3    H217350   4.506   1.806   2.417 -0.9709  0.7698  0.3208
 5796TIP3   OH217351   5.785   4.884   1.530  0.0960 -0.0091  0.5185
 5796TIP3    H117352   5.836   4.947   1.478  2.1799 -1.3357  0.8589
 5796TIP3    H217353   5.765   4.813   1.469 -2.9327  1.2124 -0.0828
 5797TIP3   OH217354   1.756   0.393   5.555  0.1034  0.5308 -0.1757
 5797TIP3    H117355   1.668   0.371   5.524 -0.9614 -0.3118  3.0106
 5797TIP3    H217356   1.792   0.311   5.588  2.3140  0.7852 -1.7613
 5798TIP3   OH217357   7.008   6.548   0.442 -0.2772 -0.2132  0.2440
 5798TIP3    H117358   6.920   6.519   0.417 -0.1532 -2.2941  1.9028
 5798TIP3    H217359   7.066   6.495   0.387 -0.0392  0.4008 -0.1058
 5799TIP3   OH217360   6.319   3.501   3.764  0.5342 -0.5379  0.2205
 5799TIP3    H117361   6.377   3.576   3.764  0.4698 -0.4652  1.3190
 5799TIP3    H217362   6.343   3.452   3.843  0.5902 -1.6826 -0.4817
 5800TIP3   OH217363   1.765   4.705   1.605 -0.0689  0.4248  0.5768
 5800TIP3    H117364   1.795   4.647   1.536 -0.7036  1.0059 -0.1969
 5800TIP3    H217365   1.795   4.664   1.686  2.5547  0.8023 -0.1159
 5801TIP3   OH217366   0.337   6.274   4.961  0.0290  0.2871  0.0030
 5801TIP3    H117367   0.296   6.360   4.947 -0.6239  0.3453  1.9379
 5801TIP3    H217368   0.354   6.241   4.873 -3.0499  0.8277 -0.9294
 5802TIP3   OH217369   1.336   0.996   1.523 -0.0729  0.1719  0.0803
 5802TIP3    H117370   1.241   1.006   1.514 -0.1336  1.0110  1.3076
 5802TIP3    H217371   1.372   1.029   1.441 -0.7568  2.1179  0.5072
 5803TIP3   OH217372   3.867   5.642   0.110  0.3236  0.0715  0.1980
 5803TIP3    H117373   3.824   5.559   0.087  0.2597  0.1261  0.1154
 5803TIP3    H217374   3.960   5.622   0.113  0.3193  0.0284  0.0395
 5804TIP3   OH217375   1.757   4.786   3.464  0.2455 -0.6716  0.6421
 5804TIP3    H117376   1.773   4.756   3.554 -2.0329 -5.5164 -0.2917
 5804TIP3    H217377   1.839   4.768   3.418  0.8027  0.0852  1.3030
 5805TIP3   OH217378   0.752   4.151   1.085  0.3280 -0.3595  0.0617
 5805TIP3    H117379   0.780   4.236   1.050 -1.2570 -0.9303 -2.9744
 5805TIP3    H217380   0.826   4.093   1.069  0.4864 -0.0713 -0.2777
 5806TIP3   OH217381   6.572   4.391   3.086  0.0591  0.2922  0.3377
 5806TIP3    H117382   6.542   4.429   3.003 -1.2787  0.1386  0.7323
 5806TIP3    H217383   6.601   4.466   3.137  2.0755  0.2892 -0.6872
 5807TIP3   OH217384   0.920   0.912   4.582  0.4647  0.4532 -0.1504
 5807TIP3    H117385   0.840   0.890   4.534 -0.0234  1.5301  0.1241
 5807TIP3    H217386   0.987   0.856   4.544 -0.3679 -0.3167 -0.5432
 5808TIP3   OH217387   3.078   1.254   3.669 -0.4885 -0.3674  0.0127
 5808TIP3    H117388   3.165   1.255   3.710 -0.7405  0.1340  0.5469
 5808TIP3    H217389   3.039   1.172   3.699  0.3730 -1.3771 -1.4883
 5809TIP3   OH217390   2.483   5.931   5.645 -0.1511 -0.0704 -0.1934
 5809TIP3    H117391   2.525   6.007   5.685 -0.6173  0.1240 -0.0733
 5809TIP3    H217392   2.405   5.965   5.602 -0.1011 -0.4078 -0.5568
 5810TIP3   OH217393   0.328   5.294   4.335 -0.5926  0.2997 -0.3040
 5810TIP3    H117394   0.381   5.284   4.414 -0.9061 -0.4714 -0.1772
 5810TIP3    H217395   0.245   5.331   4.367 -0.9846 -0.6693 -0.1486
 5811TIP3   OH217396   2.628   2.098   3.468 -0.1645  0.1636 -0.5299
 5811TIP3    H117397   2.549   2.071   3.421  0.0333  0.1278 -0.8468
 5811TIP3    H217398   2.680   2.144   3.402  1.2761 -2.1095 -1.0890
 5812TIP3   OH217399   4.148   4.146   5.000 -0.0879  0.8349 -0.4004
 5812TIP3    H117400   4.175   4.055   5.013  0.3852  1.0392  0.0808
 5812TIP3    H217401   4.175   4.165   4.910  2.0718  1.2412  0.2661
 5813TIP3   OH217402   0.374   4.343   5.878  0.0283  0.6343  0.2403
 5813TIP3    H117403   0.304   4.306   5.824 -0.5031 -1.0334  1.9816
 5813TIP3    H217404   0.429   4.268   5.902  3.1906  2.0163 -1.9928
 5814TIP3   OH217405   5.535   2.671   3.879  0.2761  0.3333 -0.7495
 5814TIP3    H117406   5.568   2.737   3.818 -0.4060  0.7606 -0.6797
 5814TIP3    H217407   5.598   2.669   3.950 -0.6134  2.2829  0.1646
 5815TIP3   OH217408   3.342   4.166   5.925 -0.0771  0.2375  0.4890
 5815TIP3    H117409   3.413   4.129   5.871 -0.6205 -0.2013  0.0579
 5815TIP3    H217410   3.281   4.204   5.861 -1.1009 -0.9484  0.7265
 5816TIP3   OH217411   3.366   0.007   3.572 -0.2130  0.0551 -0.2354
 5816TIP3    H117412   3.420   0.085   3.554 -1.4364  1.0561  0.2631
 5816TIP3    H217413   3.393  -0.057   3.507  0.8897  0.8739 -0.6038
 5817TIP3   OH217414   6.955   4.862   3.719 -0.4135 -0.0887  0.0543
 5817TIP3    H117415   7.015   4.857   3.793 -1.2481  0.0692  0.7508
 5817TIP3    H217416   6.929   4.954   3.716 -0.0729 -0.0057 -0.7005
 5818TIP3   OH217417   4.440   6.160   4.216  0.1893  0.5045 -0.0318
 5818TIP3    H117418   4.516   6.201   4.174  0.0955 -1.0239 -1.8363
 5818TIP3    H217419   4.369   6.171   4.152 -0.5002 -0.1274  0.6133
 5819TIP3   OH217420   0.337   3.838   0.469 -0.4958 -0.1242 -0.1292
 5819TIP3    H117421   0.346   3.928   0.438 -0.7363  0.3304  1.0859
 5819TIP3    H217422   0.425   3.801   0.463 -0.1096  0.6398  0.6911
 5820TIP3   OH217423   1.816   6.042   5.413  0.1667  0.3209  0.0177
 5820TIP3    H117424   1.741   6.024   5.470 -0.1119  0.8668 -0.1614
 5820TIP3    H217425   1.777   6.084   5.336  0.6122  0.2067 -0.2690
 5821TIP3   OH217426   5.595   0.833   0.914  0.0666  0.1087 -0.7018
 5821TIP3    H117427   5.678   0.878   0.899  0.1573  0.1723 -0.0592
 5821TIP3    H217428   5.546   0.892   0.971 -0.2120 -0.1575 -0.6636
 5822TIP3   OH217429   1.465   0.800   1.667  0.8389 -0.1214 -0.1560
 5822TIP3    H117430   1.414   0.719   1.659 -0.1140  0.5179 -0.7681
 5822TIP3    H217431   1.406   0.868   1.636  1.6417  0.8132  0.3315
 5823TIP3   OH217432   5.264   6.070   5.616  0.1453  0.5616  0.9307
 5823TIP3    H117433   5.351   6.110   5.620 -1.1333  3.8798 -0.3196
 5823TIP3    H217434   5.243   6.068   5.522 -0.0656 -2.9182  0.9541
 5824TIP3   OH217435   3.819   1.972   4.642 -0.5200  0.3630  0.2338
 5824TIP3    H117436   3.784   1.899   4.591  1.1371 -2.8537  3.3038
 5824TIP3    H217437   3.741   2.012   4.682 -1.3567 -1.3892  0.4675
 5825TIP3   OH217438   2.982   3.210   3.733  0.5764  0.5096 -0.1980
 5825TIP3    H117439   3.002   3.198   3.826  0.0995 -0.3572 -0.1966
 5825TIP3    H217440   3.013   3.298   3.713  0.9416  0.5990  0.7138
 5826TIP3   OH217441   2.839   6.299   1.448 -0.0072 -0.3847  0.0139
 5826TIP3    H117442   2.751   6.321   1.417  1.0890  2.0926 -1.6174
 5826TIP3    H217443   2.876   6.382   1.476  2.1414 -1.2124 -0.2004
 5827TIP3   OH217444   2.359   2.787   5.025 -0.8915 -0.1294  0.0489
 5827TIP3    H117445   2.378   2.802   5.117 -0.5027 -0.1396 -0.0248
 5827TIP3    H217446   2.277   2.833   5.009 -0.5426  0.5692  0.2102
 5828TIP3   OH217447   0.290   5.013   1.954 -0.1515 -0.6680 -0.3037
 5828TIP3    H117448   0.301   5.102   1.986 -1.5125 -0.8844  0.8585
 5828TIP3    H217449   0.379   4.981   1.941  0.3819  0.3576  0.6924
 5829TIP3   OH217450   4.166   3.242   1.405 -0.1235  0.1501 -0.2038
 5829TIP3    H117451   4.104   3.290   1.459  0.0081 -0.6120  0.6560
 5829TIP3    H217452   4.222   3.197   1.468  1.5011  1.0412 -0.9347
 5830TIP3   OH217453   1.749   1.653   0.024  0.7418  0.3766  0.3736
 5830TIP3    H117454   1.798   1.616  -0.050 -1.0844 -0.5121 -0.4504
 5830TIP3    H217455   1.796   1.624   0.101  1.1991 -0.9649 -0.3735
 5831TIP3   OH217456   6.232   5.057   0.194 -0.3693  0.2672  0.2535
 5831TIP3    H117457   6.313   5.099   0.224  0.0374 -0.4800  0.2412
 5831TIP3    H217458   6.171   5.069   0.267  0.7037 -1.8070  1.6109
 5832TIP3   OH217459   4.673   1.981   4.352 -0.5918 -0.8013  0.0266
 5832TIP3    H117460   4.696   2.073   4.360  1.7378 -1.1930 -1.1814
 5832TIP3    H217461   4.580   1.977   4.373 -0.6580  1.7374  0.5129
 5833TIP3   OH217462   5.042   0.846   3.012 -0.0830 -0.4276 -0.0765
 5833TIP3    H117463   5.036   0.765   2.962  0.5338 -1.5340  1.5559
 5833TIP3    H217464   5.124   0.838   3.062  1.2295  2.2565 -1.5930
 5834TIP3   OH217465   2.571   4.693   2.236  0.1938 -0.4309 -0.2830
 5834TIP3    H117466   2.492   4.744   2.256  0.2397 -0.7321  0.7625
 5834TIP3    H217467   2.643   4.752   2.260  0.2731 -0.4665 -0.4353
 5835TIP3   OH217468   6.484   3.186   0.687 -0.0481 -0.8458 -0.3742
 5835TIP3    H117469   6.434   3.105   0.691 -3.1495  0.9645  0.9575
 5835TIP3    H217470   6.427   3.247   0.640  1.3539  1.0729  0.3132
 5836TIP3   OH217471   6.130   6.732   1.705  0.2329  0.1980  0.2988
 5836TIP3    H117472   6.072   6.668   1.664  0.0495  1.2692 -1.1636
 5836TIP3    H217473   6.078   6.767   1.778 -0.4373  0.1205 -0.1266
 5837TIP3   OH217474   0.019   3.765   5.566  0.2360  0.6585 -0.8045
 5837TIP3    H117475   0.004   3.834   5.631 -2.7503  0.9705 -1.6833
 5837TIP3    H217476   0.114   3.751   5.567  0.5787  2.5576  1.6322
 5838TIP3   OH217477   0.614   1.820   0.720 -0.0772 -0.4602 -0.3782
 5838TIP3    H117478   0.544   1.815   0.655 -0.0718  1.2613 -0.5652
 5838TIP3    H217479   0.678   1.755   0.692  0.3320  0.8178 -2.6325
 5839TIP3   OH217480   2.758   4.283   3.634  0.1696 -0.1526  0.4512
 5839TIP3    H117481   2.723   4.199   3.604  0.2522 -0.1496  0.3458
 5839TIP3    H217482   2.823   4.307   3.568 -0.7025  0.5779 -0.1639
 5840TIP3   OH217483   5.377   4.259   1.005 -0.0996  0.1152  0.2543
 5840TIP3    H117484   5.467   4.285   0.985 -0.5551  2.1961  0.5966
 5840TIP3    H217485   5.373   4.257   1.100 -0.7154  1.3804  0.2797
 5841TIP3   OH217486   4.013   1.295   4.896  0.5897  0.5418 -0.7331
 5841TIP3    H117487   4.054   1.332   4.975  2.2574 -0.0718 -1.2781
 5841TIP3    H217488   3.976   1.211   4.926 -2.8178  2.2569  0.4014
 5842TIP3   OH217489   1.136   1.246   3.542  0.2863  0.2242 -0.1356
 5842TIP3    H117490   1.046   1.222   3.522 -0.0503  1.4518 -0.1585
 5842TIP3    H217491   1.132   1.339   3.565  1.3584 -0.0065  1.1068
 5843TIP3   OH217492   5.381   0.956   5.205  0.1317  0.2012  0.3167
 5843TIP3    H117493   5.367   1.032   5.147  1.0122 -0.7220 -1.1606
 5843TIP3    H217494   5.349   0.882   5.155  0.6478 -0.5940  1.1400
 5844TIP3   OH217495   3.378   0.054   5.266  0.1964 -0.3539 -0.4848
 5844TIP3    H117496   3.297   0.003   5.258  0.4186 -0.8099  0.1053
 5844TIP3    H217497   3.443   0.002   5.219  0.4404 -0.6631  0.1822
 5845TIP3   OH217498   1.997   4.921   3.874  0.0467  0.1766 -0.4085
 5845TIP3    H117499   1.987   4.868   3.952  0.4204  1.0594  0.2600
 5845TIP3    H217500   2.024   4.860   3.805 -2.5244 -1.0385 -0.4580
 5846TIP3   OH217501   6.550   2.447   4.866 -0.0039  0.3070 -0.1461
 5846TIP3    H117502   6.594   2.458   4.782  0.7629  0.9503  0.3118
 5846TIP3    H217503   6.588   2.368   4.903  1.7342  1.4803  0.7629
 5847TIP3   OH217504   1.675   0.267   4.092 -0.0448 -0.2049  0.4375
 5847TIP3    H117505   1.727   0.249   4.015  1.6021  3.9382  0.3359
 5847TIP3    H217506   1.708   0.207   4.159 -0.8162 -3.1454 -1.6517
 5848TIP3   OH217507   6.348   6.750   2.973  0.1499  0.6403  0.2104
 5848TIP3    H117508   6.294   6.699   3.034 -0.1697  0.2746 -0.3719
 5848TIP3    H217509   6.314   6.839   2.980  1.3436  1.0230  1.9677
 5849TIP3   OH217510   5.080   1.894   3.109 -0.7807  0.1410  0.2298
 5849TIP3    H117511   5.103   1.899   3.016 -0.6531  2.2537  0.3133
 5849TIP3    H217512   5.106   1.979   3.144  2.6076 -1.7565  3.0230
 5850TIP3   OH217513   1.003   3.207   4.391 -0.3302 -0.0008 -0.2858
 5850TIP3    H117514   1.032   3.116   4.401  0.9699 -0.0517 -3.5889
 5850TIP3    H217515   1.014   3.245   4.478  0.5869 -2.5708  0.8127
 5851TIP3   OH217516   2.968   5.758   1.356 -0.6048  0.0929  0.2149
 5851TIP3    H117517   2.934   5.804   1.278  0.8073 -0.2102 -0.6094
 5851TIP3    H217518   3.060   5.783   1.360  0.1830 -2.4328 -0.1300
 5852TIP3   OH217519   5.894   6.405   4.602 -0.6145  0.1726  0.2649
 5852TIP3    H117520   5.936   6.490   4.588 -0.5511  0.0381 -0.4192
 5852TIP3    H217521   5.958   6.355   4.653  0.0339  0.0044 -0.6802
 5853TIP3   OH217522   4.434   6.573   4.017 -0.0375  0.1769 -0.0823
 5853TIP3    H117523   4.467   6.549   3.930 -1.3286  0.2231 -0.6101
 5853TIP3    H217524   4.440   6.669   4.019  0.6938  0.1265  0.1735
 5854TIP3   OH217525   1.824   5.052   3.649 -0.1086  0.0739  0.1898
 5854TIP3    H117526   1.880   5.004   3.709 -0.9738 -0.0714  0.8996
 5854TIP3    H217527   1.735   5.029   3.675 -0.5432  1.6206  0.1956
 5855TIP3   OH217528   5.699   4.908   2.036 -0.2223 -0.1583  0.0777
 5855TIP3    H117529   5.668   4.820   2.058  0.2474 -0.7009 -1.3328
 5855TIP3    H217530   5.762   4.895   1.966  0.8364  1.2095  0.7223
 5856TIP3   OH217531   4.053   3.472   0.215  0.0633 -0.0493  0.1838
 5856TIP3    H117532   3.986   3.408   0.239  0.0814 -0.1027  0.0891
 5856TIP3    H217533   4.029   3.551   0.264  0.3035 -0.2710  0.6643
 5857TIP3   OH217534   1.179   1.782   3.876  0.0043  0.1283  0.0157
 5857TIP3    H117535   1.162   1.762   3.784  0.0035 -1.5119  0.3260
 5857TIP3    H217536   1.094   1.773   3.919 -0.0618  1.2315  0.1413
 5858TIP3   OH217537   6.048   0.600   5.712 -0.6623  0.0731  0.1766
 5858TIP3    H117538   5.970   0.599   5.768 -0.9043 -3.2870 -0.0161
 5858TIP3    H217539   6.021   0.552   5.634  1.0719  0.6116 -0.8021
 5859TIP3   OH217540   1.982   6.313   1.448  0.2206 -0.0391 -0.2136
 5859TIP3    H117541   1.989   6.403   1.477 -1.2252 -0.5569  1.9492
 5859TIP3    H217542   1.922   6.316   1.373 -0.8567  0.6663  0.6555
 5860TIP3   OH217543   4.037   0.241   5.153  0.2360 -0.2755  0.3703
 5860TIP3    H117544   4.029   0.279   5.066 -1.4508 -1.5002 -0.0534
 5860TIP3    H217545   4.121   0.274   5.186  0.5960  0.7349 -1.4320
 5861TIP3   OH217546   5.609   1.504   3.028  0.1367  0.4821  0.1565
 5861TIP3    H117547   5.694   1.512   2.983 -0.4474 -0.5482 -1.2019
 5861TIP3    H217548   5.571   1.592   3.021  1.6488  1.3745  2.0713
 5862TIP3   OH217549   2.226   1.553   3.748  0.3470 -0.0234  0.0380
 5862TIP3    H117550   2.301   1.577   3.694 -0.5203  0.7296 -0.8728
 5862TIP3    H217551   2.189   1.636   3.776 -1.9804 -0.2154 -2.1371
 5863TIP3   OH217552   0.183   3.440   4.089  0.0009 -0.8198  0.0254
 5863TIP3    H117553   0.246   3.402   4.150  0.3453 -1.3994 -0.6736
 5863TIP3    H217554   0.231   3.450   4.007 -0.2484  0.6259  0.0276
 5864TIP3   OH217555   0.100   6.191   0.169  0.5596  0.0650 -0.0005
 5864TIP3    H117556   0.108   6.201   0.074  0.2955  0.6475  0.0335
 5864TIP3    H217557   0.006   6.199   0.185  0.7974  2.4975  0.5708
 5865TIP3   OH217558   2.602   5.387   1.700  0.2198  0.4465 -0.1185
 5865TIP3    H117559   2.690   5.353   1.719  0.9811  0.3620 -3.1456
 5865TIP3    H217560   2.543   5.316   1.726  1.1873 -0.1974  0.3956
 5866TIP3   OH217561   0.400   5.949   5.686  0.0697  0.5572 -0.5894
 5866TIP3    H117562   0.352   6.027   5.659 -1.2110  0.6716  1.7217
 5866TIP3    H217563   0.351   5.915   5.761  2.8039 -0.1522  1.0550
 5867TIP3   OH217564   7.006   2.171   0.638  0.4143 -0.2548  0.6935
 5867TIP3    H117565   6.958   2.091   0.660  1.8844 -1.4656 -0.3858
 5867TIP3    H217566   7.084   2.141   0.592  0.9132  1.8242  0.0977
 5868TIP3   OH217567   1.919   6.575   2.566  0.4293  0.1590 -0.6716
 5868TIP3    H117568   1.851   6.564   2.499 -1.0509 -0.5988  0.9019
 5868TIP3    H217569   1.973   6.647   2.532 -2.1407  2.0014 -1.2075
 5869TIP3   OH217570   0.592   1.964   1.237 -0.2240  0.0337  0.2247
 5869TIP3    H117571   0.606   1.879   1.278 -0.5736  0.0934  0.4796
 5869TIP3    H217572   0.518   2.002   1.285  0.0900  0.5890  0.2830
 5870TIP3   OH217573   2.220   3.171   0.643 -0.3976 -0.3860  0.0675
 5870TIP3    H117574   2.149   3.180   0.579  0.7388 -1.5640 -1.4362
 5870TIP3    H217575   2.297   3.206   0.597  0.1516  0.1736  1.3843
 5871TIP3   OH217576   3.082   0.970   1.206  0.6794  0.1492  0.1059
 5871TIP3    H117577   3.080   1.047   1.263 -0.3693  0.0106  0.2771
 5871TIP3    H217578   3.104   1.005   1.119  0.6483  0.5851  0.2715
 5872TIP3   OH217579   1.906   2.912   0.589  0.3265  0.0461 -1.3058
 5872TIP3    H117580   1.891   2.850   0.518 -2.1886 -0.8572 -0.0788
 5872TIP3    H217581   1.927   2.858   0.665 -0.5842  0.7641 -0.5236
 5873TIP3   OH217582   1.764   1.473   4.379 -0.2143  0.0053 -0.3565
 5873TIP3    H117583   1.830   1.482   4.447  0.5545  0.2842 -1.1204
 5873TIP3    H217584   1.755   1.379   4.366  0.3061 -0.0316 -0.4917
 5874TIP3   OH217585   5.901   1.594   5.507  0.3075 -0.1005  0.3428
 5874TIP3    H117586   5.957   1.624   5.435 -0.0439 -0.8416 -0.2529
 5874TIP3    H217587   5.930   1.504   5.523 -1.2726 -0.8245 -0.5782
 5875TIP3   OH217588   4.663   0.186   3.437 -0.2807 -0.0368 -0.0426
 5875TIP3    H117589   4.717   0.113   3.469 -1.4681 -0.6588  0.5747
 5875TIP3    H217590   4.672   0.181   3.341  0.1197 -0.6333  0.0196
 5876TIP3   OH217591   6.204   0.420   0.535 -0.3767 -0.3173  0.0906
 5876TIP3    H117592   6.229   0.474   0.611  0.9103  0.2916 -0.7367
 5876TIP3    H217593   6.171   0.483   0.471  0.1247 -0.6403 -0.4851
 5877TIP3   OH217594   6.637   5.587   0.899  0.0765 -0.2319  0.4490
 5877TIP3    H117595   6.656   5.497   0.876 -1.3870 -0.3361 -0.4359
 5877TIP3    H217596   6.572   5.616   0.835 -0.7936  0.8813  1.7692
 5878TIP3   OH217597   7.144   4.986   4.229 -0.2987 -0.3585  0.3830
 5878TIP3    H117598   7.123   5.064   4.280 -1.2234 -1.8180  2.3666
 5878TIP3    H217599   7.235   4.966   4.252  0.8782  1.4929 -2.1364
 5879TIP3   OH217600   3.687   5.451   2.124  0.2475 -0.1063  0.1079
 5879TIP3    H117601   3.592   5.440   2.126  0.1624 -0.2311 -1.9473
 5879TIP3    H217602   3.721   5.362   2.115  0.4135  0.0588 -1.1406
 5880TIP3   OH217603   1.818   2.182   4.628  0.2337 -0.2746 -0.5068
 5880TIP3    H117604   1.878   2.246   4.666 -0.8201  0.7534 -0.5183
 5880TIP3    H217605   1.740   2.187   4.683 -0.1524 -0.9793 -0.9863
 5881TIP3   OH217606   7.165   3.157   2.741  0.0857  0.3317 -0.2237
 5881TIP3    H117607   7.195   3.068   2.761  0.1006  0.8531  2.3926
 5881TIP3    H217608   7.130   3.190   2.824 -2.4117  1.8504 -1.7292
 5882TIP3   OH217609   1.991   4.967   0.512  0.2249  0.3693  0.1664
 5882TIP3    H117610   1.972   4.873   0.512 -1.5394  0.5343 -4.1077
 5882TIP3    H217611   2.081   4.973   0.545  0.7728 -2.9178 -0.3924
 5883TIP3   OH217612   3.629   6.415   4.057 -0.2554 -0.1058 -0.1704
 5883TIP3    H117613   3.555   6.356   4.050 -0.0202 -0.4699  0.3354
 5883TIP3    H217614   3.693   6.383   3.993  0.4912 -1.3370  1.1421
 5884TIP3   OH217615   6.213   3.328   1.602  0.5766  0.5091  0.0926
 5884TIP3    H117616   6.275   3.256   1.612  0.5737  0.2671 -1.3476
 5884TIP3    H217617   6.128   3.285   1.596  0.5680  0.6181 -0.6896
 5885TIP3   OH217618   5.262   1.528   4.370 -0.0395  0.5636  0.0527
 5885TIP3    H117619   5.190   1.579   4.333  0.4195  0.4721 -1.0122
 5885TIP3    H217620   5.263   1.447   4.320  1.2716  0.8823 -0.5002
 5886TIP3   OH217621   2.113   1.415   1.755  0.0770 -0.0655 -0.5375
 5886TIP3    H117622   2.102   1.507   1.734  0.3509  0.2019  0.4357
 5886TIP3    H217623   2.162   1.379   1.681  0.5034  0.7036 -0.6361
 5887TIP3   OH217624   1.980   6.206   1.891 -0.3609 -0.3058  0.2138
 5887TIP3    H117625   1.931   6.275   1.846  0.3750 -1.4112 -2.5089
 5887TIP3    H217626   2.069   6.239   1.895 -0.4229 -0.2160  0.8992
 5888TIP3   OH217627   0.050   1.527   2.439 -0.0894  0.4733  0.4376
 5888TIP3    H117628   0.055   1.486   2.353  1.5642 -0.1400  0.7795
 5888TIP3    H217629   0.054   1.454   2.501  3.1814  1.0130  1.0625
 5889TIP3   OH217630   0.135   5.246   0.904  0.2386 -0.0402 -0.1295
 5889TIP3    H117631   0.067   5.182   0.885 -1.0165  0.8209  1.3050
 5889TIP3    H217632   0.088   5.322   0.937  1.7958  1.1697 -0.5915
 5890TIP3   OH217633   5.585   6.564   0.697 -0.2383 -0.0432  0.0318
 5890TIP3    H117634   5.567   6.495   0.761  2.5432 -0.6022  0.3308
 5890TIP3    H217635   5.565   6.524   0.612  0.3703 -0.8744  0.2695
 5891TIP3   OH217636   4.469   0.223   0.592  0.7538 -0.2943 -0.1132
 5891TIP3    H117637   4.500   0.313   0.591  0.8025 -0.3111 -0.0878
 5891TIP3    H217638   4.483   0.191   0.503  0.4837 -0.1892 -0.1933
 5892TIP3   OH217639   6.897   2.607   3.014 -0.4450 -0.0705 -0.2494
 5892TIP3    H117640   6.861   2.557   3.087 -1.7011  1.1952  0.0402
 5892TIP3    H217641   6.992   2.605   3.028 -0.6428 -0.1119  1.2499
 5893TIP3   OH217642   1.945   6.694   3.417 -0.2274  0.3105 -0.3447
 5893TIP3    H117643   2.031   6.651   3.414  0.7332  2.0306  0.8738
 5893TIP3    H217644   1.895   6.651   3.349  1.6003 -0.7572 -1.1017
 5894TIP3   OH217645   0.403   5.955   1.193 -0.3031 -0.5170  0.2234
 5894TIP3    H117646   0.497   5.966   1.181 -0.3528 -1.1394 -0.8045
 5894TIP3    H217647   0.388   5.974   1.286  0.5905  1.1628  0.0431
 5895TIP3   OH217648   6.733   5.508   0.162  0.4023 -0.2640  0.3253
 5895TIP3    H117649   6.711   5.565   0.236  0.2844  0.5575 -0.3302
 5895TIP3    H217650   6.802   5.556   0.115 -0.3273 -0.2253 -0.7412
 5896TIP3   OH217651   6.530   5.688   1.551  0.2569 -0.6591 -0.4251
 5896TIP3    H117652   6.506   5.777   1.576 -1.6673 -1.2075 -0.1551
 5896TIP3    H217653   6.548   5.644   1.634 -0.1760 -0.8813 -0.4464
 5897TIP3   OH217654   4.313   6.418   4.889  0.2716  0.0728  0.3437
 5897TIP3    H117655   4.234   6.445   4.937 -0.7007 -1.7424 -0.1658
 5897TIP3    H217656   4.384   6.429   4.953 -0.3143  1.8661  0.7667
 5898TIP3   OH217657   3.921   5.284   3.657 -0.1789  0.5569  0.4950
 5898TIP3    H117658   3.860   5.269   3.586  1.1247 -0.2584 -0.4888
 5898TIP3    H217659   3.875   5.253   3.735 -0.8695 -0.4318 -0.2780
 5899TIP3   OH217660   6.360   1.137   5.715 -0.4543 -0.3277  0.1020
 5899TIP3    H117661   6.329   1.133   5.805  1.2895 -1.0006  0.7061
 5899TIP3    H217662   6.351   1.048   5.682  1.2281 -0.6727  0.4679
 5900TIP3   OH217663   6.345   0.198   3.846 -0.6314  0.1363  0.1016
 5900TIP3    H117664   6.293   0.275   3.820 -1.1073 -0.4234 -0.6257
 5900TIP3    H217665   6.298   0.124   3.809  1.4335 -0.3164 -1.7907
 5901TIP3   OH217666   6.453   6.143   1.459  0.0140  0.3198  0.0427
 5901TIP3    H117667   6.495   6.118   1.542  1.4859  2.1075 -0.0820
 5901TIP3    H217668   6.449   6.062   1.409  3.0902 -0.0867  0.2383
 5902TIP3   OH217669   2.344   6.154   1.260  0.1526 -0.2266  0.0700
 5902TIP3    H117670   2.367   6.091   1.329  0.8893  1.6406  1.6430
 5902TIP3    H217671   2.396   6.128   1.185  2.7956  0.2033  1.6321
 5903TIP3   OH217672   4.756   3.380   2.015  0.3961 -0.1929 -0.4709
 5903TIP3    H117673   4.776   3.389   1.921  0.5294  1.4667 -0.3149
 5903TIP3    H217674   4.667   3.347   2.017 -0.2872  1.4812 -1.2257
 5904TIP3   OH217675   6.379   2.458   0.634  0.5402 -0.1501 -0.5055
 5904TIP3    H117676   6.344   2.484   0.719  2.3012 -0.8328  0.4857
 5904TIP3    H217677   6.309   2.408   0.593  0.0173 -0.6948  0.9950
 5905TIP3   OH217678   5.962   6.526   5.572  0.1354  0.3697  0.2470
 5905TIP3    H117679   6.038   6.507   5.626  0.6347  1.0708 -0.1939
 5905TIP3    H217680   5.888   6.528   5.633  0.3891 -0.7691  0.6117
 5906TIP3   OH217681   6.628   0.023   5.804 -0.4306 -0.1866  0.4512
 5906TIP3    H117682   6.621  -0.072   5.804  0.6910 -0.3013  1.4894
 5906TIP3    H217683   6.569   0.051   5.874  1.1259 -0.3432  1.8861
 5907TIP3   OH217684   0.588   3.572   5.636 -0.4649 -0.4364 -0.2933
 5907TIP3    H117685   0.589   3.654   5.587 -0.9467  0.5048  1.2166
 5907TIP3    H217686   0.497   3.544   5.634 -0.2654 -1.0867 -0.9983
 5908TIP3   OH217687   6.530   6.340   0.103  0.3740  0.0816  0.0464
 5908TIP3    H117688   6.611   6.378   0.068  1.4419 -2.7282 -0.8392
 5908TIP3    H217689   6.559   6.280   0.172 -1.0018 -0.5676  0.0945
 5909TIP3   OH217690   3.165   0.011   5.810 -0.7476  0.2769 -0.0109
 5909TIP3    H117691   3.120  -0.022   5.887  2.0583 -0.3978  1.4790
 5909TIP3    H217692   3.163   0.106   5.819 -0.5517  0.2036  0.8360
 5910TIP3   OH217693   5.633   4.678   1.382  0.3687  0.2959  0.5379
 5910TIP3    H117694   5.606   4.609   1.443  0.7438 -0.5451 -0.2166
 5910TIP3    H217695   5.553   4.726   1.363 -0.3524 -1.2292 -0.4999
 5911TIP3   OH217696   6.398   2.833   5.220 -0.1269 -0.4413  0.3296
 5911TIP3    H117697   6.461   2.818   5.150 -0.8762 -3.7041  0.1963
 5911TIP3    H217698   6.451   2.856   5.297  0.7756  1.9005 -0.8752
 5912TIP3   OH217699   3.357   1.753   3.924  0.3387 -0.0543 -0.2414
 5912TIP3    H117700   3.359   1.704   3.842 -0.2912 -0.5354  0.0228
 5912TIP3    H217701   3.444   1.740   3.962  0.0310 -1.3891  0.0583
 5913TIP3   OH217702   3.263   3.590   3.850 -0.0631 -0.5135  0.1502
 5913TIP3    H117703   3.235   3.602   3.941  1.1440 -0.5227  0.5300
 5913TIP3    H217704   3.302   3.502   3.849  2.7422  0.6410  0.3758
 5914TIP3   OH217705   4.029   5.525   0.563 -0.2945 -0.6449  0.2449
 5914TIP3    H117706   4.026   5.599   0.624 -0.7276 -1.5921  1.4059
 5914TIP3    H217707   4.099   5.469   0.596  0.6925 -0.3090 -1.1887
 5915TIP3   OH217708   2.132   3.164   1.863 -0.0594 -0.1494 -0.0858
 5915TIP3    H117709   2.086   3.081   1.872 -0.0608  0.0357  2.1578
 5915TIP3    H217710   2.082   3.213   1.798 -1.2105 -1.1345  0.0352
 5916TIP3   OH217711   5.063   5.496   2.493  0.7142 -0.2292  0.1468
 5916TIP3    H117712   5.137   5.501   2.554  2.3073  0.4812 -1.7552
 5916TIP3    H217713   4.989   5.530   2.543  2.0311  0.6319  1.5974
 5917TIP3   OH217714   6.859   6.516   1.608  0.0276  0.9192 -0.1857
 5917TIP3    H117715   6.777   6.542   1.566 -0.8541 -2.3960 -0.8132
 5917TIP3    H217716   6.910   6.474   1.538  1.8720  1.9850  0.4352
 5918TIP3   OH217717   7.014   5.984   5.614  0.4129 -0.2023  0.3547
 5918TIP3    H117718   7.025   6.078   5.631  2.1001 -0.3628  0.3183
 5918TIP3    H217719   7.058   5.941   5.688 -0.5783 -0.9820  0.5168
 5919TIP3   OH217720   3.114   5.424   4.610  0.1882 -0.1699  0.0916
 5919TIP3    H117721   3.150   5.470   4.534  0.4688  1.7617  1.2988
 5919TIP3    H217722   3.095   5.336   4.579 -1.5131  1.0641 -2.7470
 5920TIP3   OH217723   0.112   5.414   2.315 -0.3194 -0.2566 -0.1423
 5920TIP3    H117724   0.073   5.331   2.290  0.5137 -0.6313 -0.2408
 5920TIP3    H217725   0.205   5.403   2.297 -0.2105  0.7380 -0.2616
 5921TIP3   OH217726   1.442   4.290   4.176  0.4506  0.3163  0.4078
 5921TIP3    H117727   1.397   4.206   4.177  0.0883  0.4276 -1.8952
 5921TIP3    H217728   1.376   4.353   4.203 -0.5947  0.3549 -2.0210
 5922TIP3   OH217729   5.974   5.953   4.192 -0.2569  0.1229 -0.5013
 5922TIP3    H117730   5.909   5.978   4.258  1.1202  1.5773  0.3601
 5922TIP3    H217731   5.945   5.867   4.162 -1.3021 -0.2793  1.4903
 5923TIP3   OH217732   6.069   0.592   2.675 -0.6292  0.0494 -0.1506
 5923TIP3    H117733   6.149   0.584   2.624 -0.6884 -0.9370 -0.1182
 5923TIP3    H217734   6.096   0.577   2.766 -0.8497 -0.3281 -0.1431
 5924TIP3   OH217735   4.893   1.397   3.555 -0.7728  0.1406  0.8831
 5924TIP3    H117736   4.860   1.477   3.595  0.2829 -0.3885  2.9649
 5924TIP3    H217737   4.947   1.427   3.483 -3.6062  1.1008 -1.0275
 5925TIP3   OH217738   0.540   0.911   3.348  0.6665  0.0152  0.0911
 5925TIP3    H117739   0.509   0.877   3.432  0.4131 -1.7278 -0.6467
 5925TIP3    H217740   0.468   0.966   3.316 -1.0735 -2.5233 -0.7646
 5926TIP3   OH217741   3.687   3.763   3.608  0.4010  0.4482  0.4697
 5926TIP3    H117742   3.612   3.757   3.550  0.6318 -1.0035  0.2707
 5926TIP3    H217743   3.652   3.795   3.691 -0.4290 -0.1189  0.3479
 5927TIP3   OH217744   0.588   2.371   2.447 -0.1202 -0.3015 -0.5483
 5927TIP3    H117745   0.531   2.297   2.468 -1.2066  0.5355 -0.4299
 5927TIP3    H217746   0.577   2.384   2.353  2.8315 -2.4899 -1.3248
 5928TIP3   OH217747   0.396   5.654   0.453  0.2581 -0.0727 -0.1711
 5928TIP3    H117748   0.398   5.560   0.436 -1.1213 -0.3918  1.2309
 5928TIP3    H217749   0.322   5.686   0.402  0.9041  0.3174 -0.8769
 5929TIP3   OH217750   0.318   3.757   1.928 -0.1606 -0.4786  0.2411
 5929TIP3    H117751   0.337   3.689   1.863  2.0563 -0.7075  1.0231
 5929TIP3    H217752   0.329   3.839   1.881  3.3435 -0.5803  0.6074
 5930TIP3   OH217753   2.790   4.871   2.288 -0.0414  0.1035 -0.1990
 5930TIP3    H117754   2.852   4.825   2.231 -0.7344  0.1989 -1.0651
 5930TIP3    H217755   2.780   4.957   2.247 -0.4490  0.2266  0.1529
 5931TIP3   OH217756   5.087   2.158   1.959  0.3239  0.1593  0.1655
 5931TIP3    H117757   5.065   2.248   1.981  0.3420  0.2108 -0.0272
 5931TIP3    H217758   5.003   2.117   1.937 -0.1108 -0.6456  2.9758
 5932TIP3   OH217759   0.987   3.200   1.258  0.1379  0.5880  0.0698
 5932TIP3    H117760   1.010   3.239   1.342 -2.2705  1.4354  0.4213
 5932TIP3    H217761   0.940   3.119   1.281 -0.1787  0.6140 -0.4516
 5933TIP3   OH217762   0.842   1.472   5.774 -0.6627 -0.6091 -0.6248
 5933TIP3    H117763   0.821   1.565   5.771  0.3101 -0.3734 -0.2965
 5933TIP3    H217764   0.827   1.441   5.685  0.4648  0.1891 -1.1103
 5934TIP3   OH217765   3.727   4.062   1.048 -0.1417 -0.0036 -0.1038
 5934TIP3    H117766   3.668   4.068   0.972 -0.8208 -0.3480  0.3841
 5934TIP3    H217767   3.756   4.152   1.062 -0.5818  0.1814 -0.3342
 5935TIP3   OH217768   0.893   3.174   3.962 -0.1807 -0.0650  0.1029
 5935TIP3    H117769   0.891   3.269   3.974  1.4952  0.0109 -0.0169
 5935TIP3    H217770   0.801   3.150   3.950 -0.5683  1.6761 -0.8772
 5936TIP3   OH217771   2.981   0.646   1.464  0.5520 -0.6162 -0.5234
 5936TIP3    H117772   2.897   0.685   1.488 -0.0482 -2.3316  0.3340
 5936TIP3    H217773   2.989   0.663   1.370 -0.1430  0.6529 -0.3758
 5937TIP3   OH217774   6.185   2.464   4.583 -0.4631 -0.0221 -0.5353
 5937TIP3    H117775   6.184   2.402   4.510  0.0006  0.6930 -1.1708
 5937TIP3    H217776   6.196   2.549   4.541 -0.3958  0.4210  0.3652
 5938TIP3   OH217777   4.028   2.680   5.544 -0.5515  0.5619  0.8020
 5938TIP3    H117778   4.055   2.596   5.505  2.0783  0.7601  1.9799
 5938TIP3    H217779   4.011   2.737   5.469  1.2594  0.0110 -0.0885
 5939TIP3   OH217780   6.997   5.896   0.249  0.3575  0.0926  0.2682
 5939TIP3    H117781   7.093   5.894   0.244  0.3240  0.7715 -1.0671
 5939TIP3    H217782   6.970   5.956   0.179 -1.0344  0.1702  0.8337
 5940TIP3   OH217783   6.689   0.915   0.757  0.2244 -0.5222  0.4844
 5940TIP3    H117784   6.732   0.831   0.738 -1.3150 -0.9929 -1.2060
 5940TIP3    H217785   6.643   0.900   0.839  1.3280 -0.7611  1.0804
 5941TIP3   OH217786   6.358   5.761   3.585 -0.2781  0.0985 -0.1627
 5941TIP3    H117787   6.383   5.841   3.632  1.3593 -0.8265  0.6494
 5941TIP3    H217788   6.324   5.704   3.653  0.7375 -0.7184 -0.3157
 5942TIP3   OH217789   5.554   3.013   5.318  0.0584  0.0762 -0.3152
 5942TIP3    H117790   5.626   2.976   5.369 -0.6157  0.3529  0.8858
 5942TIP3    H217791   5.475   2.980   5.361 -0.7014 -3.2735 -3.7211
 5943TIP3   OH217792   6.286   1.461   4.643  0.0748  0.1306 -0.3658
 5943TIP3    H117793   6.209   1.513   4.620  0.2770  1.0867  1.0216
 5943TIP3    H217794   6.353   1.526   4.667  0.3123 -0.7337  1.4840
 5944TIP3   OH217795   1.100   5.131   1.489 -0.1408 -0.7589 -0.3468
 5944TIP3    H117796   1.155   5.097   1.419 -1.5161  0.8334 -2.3155
 5944TIP3    H217797   1.036   5.061   1.504 -0.2781 -0.8419 -1.2349
 5945TIP3   OH217798   0.355   3.546   5.440  0.3364 -0.0388 -0.0681
 5945TIP3    H117799   0.340   3.494   5.518  1.1482 -1.2627 -0.6997
 5945TIP3    H217800   0.343   3.484   5.367  1.0864  0.7071 -0.8481
 5946TIP3   OH217801   5.998   6.270   5.130 -0.0240 -0.3391  0.1460
 5946TIP3    H117802   6.047   6.189   5.142  0.5545 -0.1303 -0.6940
 5946TIP3    H217803   5.973   6.296   5.219  1.9628 -0.1307  0.6988
 5947TIP3   OH217804   1.573   0.140   2.293  0.0563  0.0418  0.2780
 5947TIP3    H117805   1.625   0.139   2.373  1.4819  1.3805 -0.5871
 5947TIP3    H217806   1.510   0.210   2.306 -0.5359 -0.5455  0.6854
 5948TIP3   OH217807   5.788   3.472   1.764  0.3931  0.6510  0.8145
 5948TIP3    H117808   5.696   3.471   1.739  0.6775 -0.1449 -0.2401
 5948TIP3    H217809   5.835   3.499   1.685  1.1319  0.2827  1.1143
 5949TIP3   OH217810   0.331   3.639   2.802  0.5174 -0.0674  0.4625
 5949TIP3    H117811   0.382   3.568   2.764 -0.0759 -0.0559 -0.3774
 5949TIP3    H217812   0.267   3.595   2.858  0.1991 -0.1953  0.0028
 5950TIP3   OH217813   4.629   5.983   3.310 -0.2877  0.0897 -0.2995
 5950TIP3    H117814   4.545   5.941   3.328  0.6017 -1.7575 -0.2086
 5950TIP3    H217815   4.688   5.911   3.291  0.9727  1.4228 -1.7437
 5951TIP3   OH217816   1.591   1.088   0.986 -0.6158 -0.1531  0.5520
 5951TIP3    H117817   1.542   1.035   0.923 -0.3648  0.1997  0.0555
 5951TIP3    H217818   1.580   1.178   0.955 -0.3434  0.0062  0.9153
 5952TIP3   OH217819   5.130   2.631   2.325 -0.6140  0.5309 -0.1590
 5952TIP3    H117820   5.216   2.673   2.321  0.6568 -1.8750 -4.3942
 5952TIP3    H217821   5.069   2.701   2.304  0.6798  1.6558 -0.3702
 5953TIP3   OH217822   6.778   1.890   2.958  0.0337  0.1380 -0.0297
 5953TIP3    H117823   6.735   1.940   2.889  0.4626  0.4142 -0.1046
 5953TIP3    H217824   6.731   1.807   2.962 -2.0259  1.2837  1.4900
 5954TIP3   OH217825   4.013   3.885   5.513  0.0662  0.1313  0.2102
 5954TIP3    H117826   3.966   3.959   5.551 -1.3038 -0.2977 -0.5932
 5954TIP3    H217827   4.040   3.833   5.588  0.4308  1.0769  0.7471
 5955TIP3   OH217828   6.096   2.674   3.779  0.2000  0.6302  0.1704
 5955TIP3    H117829   6.178   2.700   3.822 -0.6872  0.2120  2.2077
 5955TIP3    H217830   6.059   2.606   3.836 -3.3486  3.2665  1.3719
 5956TIP3   OH217831   1.280   4.114   4.858 -0.4004  0.4720  0.1154
 5956TIP3    H117832   1.236   4.082   4.780 -0.1821  1.1526 -0.3029
 5956TIP3    H217833   1.364   4.067   4.861  0.3863  1.7231 -1.0849
 5957TIP3   OH217834   1.256   0.030   3.842 -0.3648 -0.0289 -0.6461
 5957TIP3    H117835   1.203  -0.022   3.782  1.1012 -1.6283 -0.6417
 5957TIP3    H217836   1.301   0.093   3.785  0.2149 -0.8428 -1.1156
 5958TIP3   OH217837   1.246   4.616   2.332  0.0348  0.4804 -0.8437
 5958TIP3    H117838   1.194   4.616   2.413  0.0384 -0.8962 -0.8167
 5958TIP3    H217839   1.277   4.706   2.324  0.4990  0.5299  0.9915
 5959TIP3   OH217840   5.837   5.737   5.727  0.3723 -0.5020 -0.5150
 5959TIP3    H117841   5.776   5.769   5.661  1.4742  1.1848 -0.8041
 5959TIP3    H217842   5.784   5.726   5.806 -0.4261  0.3582 -0.9065
 5960TIP3   OH217843   6.078   5.366   5.643 -0.4590 -0.1589 -0.0512
 5960TIP3    H117844   5.997   5.338   5.685 -0.5184  1.8908  1.3525
 5960TIP3    H217845   6.050   5.431   5.578  0.0924  1.9508  1.7024
 5961TIP3   OH217846   1.636   2.689   2.531  0.0452  0.0028 -0.1333
 5961TIP3    H117847   1.663   2.616   2.476 -1.3965  1.4816 -3.0192
 5961TIP3    H217848   1.712   2.746   2.535  0.3712 -0.4345 -0.0026
 5962TIP3   OH217849   0.373   1.420   2.459 -0.0387  0.3670 -0.2330
 5962TIP3    H117850   0.416   1.386   2.537  0.2985  1.9010  0.2883
 5962TIP3    H217851   0.362   1.344   2.402 -0.8724 -0.9114  1.5498
 5963TIP3   OH217852   0.191   4.121   1.227 -0.2837 -0.3671 -0.1393
 5963TIP3    H117853   0.192   4.105   1.132 -1.7976 -0.4660 -0.1645
 5963TIP3    H217854   0.098   4.124   1.249 -0.0285  2.2430  0.9158
 5964TIP3   OH217855   2.830   1.537   2.112 -0.2725  0.7177  0.5895
 5964TIP3    H117856   2.798   1.507   2.197  0.8625  1.8835  1.4635
 5964TIP3    H217857   2.794   1.626   2.103  2.8549  2.2493  1.7852
 5965TIP3   OH217858   0.898   2.496   4.014  0.6525  0.6424  0.2010
 5965TIP3    H117859   0.922   2.437   4.085 -2.6190 -0.5531  0.5080
 5965TIP3    H217860   0.859   2.572   4.058  2.3190  1.8295 -0.2805
 5966TIP3   OH217861   6.588   2.429   0.959 -0.0296  0.6130 -0.5469
 5966TIP3    H117862   6.603   2.524   0.958  0.5679  0.5441  0.3902
 5966TIP3    H217863   6.657   2.394   0.903  0.1322  0.6866 -0.3953
 5967TIP3   OH217864   1.814   6.725   3.723  0.3867  0.2400 -0.3563
 5967TIP3    H117865   1.791   6.703   3.632  1.1805  1.3571 -0.8392
 5967TIP3    H217866   1.800   6.819   3.729 -1.5387 -0.0895  1.2645
 5968TIP3   OH217867   6.965   0.613   2.325 -0.3730  0.0368  0.0905
 5968TIP3    H117868   7.013   0.536   2.358 -0.4301 -0.5033 -1.0478
 5968TIP3    H217869   6.968   0.675   2.398 -1.1364 -1.3892  1.4185
 5969TIP3   OH217870   0.518   6.145   1.663 -0.0784 -0.4052  0.0019
 5969TIP3    H117871   0.610   6.128   1.643  0.0895 -1.4807  1.5030
 5969TIP3    H217872   0.476   6.060   1.653 -1.3134  0.3909 -2.3780
 5970TIP3   OH217873   3.083   6.399   4.126 -0.2453 -0.6107  0.5859
 5970TIP3    H117874   3.144   6.440   4.186 -0.7669 -0.3362  0.9403
 5970TIP3    H217875   3.003   6.451   4.133  0.1819  0.4352 -1.5485
 5971TIP3   OH217876   1.879   1.903   2.740 -0.3038 -0.7141 -0.1184
 5971TIP3    H117877   1.831   1.821   2.732 -0.2264 -0.6818 -1.0672
 5971TIP3    H217878   1.903   1.909   2.832 -3.3525 -0.0533  0.7654
 5972TIP3   OH217879   3.309   3.844   0.101  0.6515 -0.0830  0.0279
 5972TIP3    H117880   3.262   3.767   0.131  1.4242 -0.5126  0.1393
 5972TIP3    H217881   3.401   3.819   0.102  0.9248  0.8879  0.2070
 5973TIP3   OH217882   4.746   3.660   1.723  0.2943 -0.2267  0.8386
 5973TIP3    H117883   4.674   3.723   1.732 -0.0188 -0.5227  0.4530
 5973TIP3    H217884   4.801   3.676   1.799  1.3690  1.9526 -0.3028
 5974TIP3   OH217885   5.971   2.238   4.228  0.1487 -0.7223 -0.0115
 5974TIP3    H117886   6.004   2.160   4.183  0.2487 -0.4137 -0.4692
 5974TIP3    H217887   6.032   2.251   4.301  0.6766 -0.5207 -0.4858
 5975TIP3   OH217888   3.613   3.683   1.753  0.1433 -0.2304 -0.4582
 5975TIP3    H117889   3.627   3.776   1.734  0.2089 -0.1564 -0.0539
 5975TIP3    H217890   3.574   3.683   1.840  1.8284 -0.6767  0.3239
 5976TIP3   OH217891   5.802   5.999   2.182 -0.5568  0.1608 -0.0528
 5976TIP3    H117892   5.740   6.010   2.110  0.1089  0.5334 -0.5888
 5976TIP3    H217893   5.865   5.934   2.149  0.7864  1.6444 -0.5505
 5977TIP3   OH217894   4.213   6.204   0.913  0.5152 -0.7399 -0.0521
 5977TIP3    H117895   4.217   6.233   1.004 -0.8105 -1.1564  0.1662
 5977TIP3    H217896   4.262   6.271   0.864 -0.5084  0.6277  0.7147
 5978TIP3   OH217897   7.213   4.140   0.521 -0.1540  0.0607 -0.2092
 5978TIP3    H117898   7.130   4.184   0.540 -0.1618 -0.3117  0.6921
 5978TIP3    H217899   7.192   4.078   0.452 -0.9045 -0.8231  0.7825
 5979TIP3   OH217900   2.409   0.403   5.017 -0.2599 -0.4745  0.2772
 5979TIP3    H117901   2.418   0.335   5.085 -1.5256 -2.2044 -1.1986
 5979TIP3    H217902   2.475   0.380   4.952 -0.0194  0.3337  0.2306
 5980TIP3   OH217903   0.224   4.216   3.376 -0.1812  0.4804 -0.0666
 5980TIP3    H117904   0.272   4.194   3.296  1.6822 -0.7859  1.2886
 5980TIP3    H217905   0.148   4.159   3.375 -0.4611  0.8495 -1.1692
 5981TIP3   OH217906   0.260   0.238   0.364 -0.3026 -0.1074 -0.2163
 5981TIP3    H117907   0.192   0.175   0.339 -0.3044 -0.6158  0.9839
 5981TIP3    H217908   0.216   0.297   0.425  0.3540 -0.5595  0.7273
 5982TIP3   OH217909   3.865   6.776   0.323 -0.3266  0.0086 -0.5189
 5982TIP3    H117910   3.863   6.784   0.419 -2.1104 -0.1138 -0.5058
 5982TIP3    H217911   3.883   6.683   0.308  0.8520  0.1894 -0.3426
 5983TIP3   OH217912   4.824   3.813   3.643 -0.0692  0.6350 -0.2357
 5983TIP3    H117913   4.728   3.818   3.641 -0.0783  0.8677  0.4245
 5983TIP3    H217914   4.844   3.779   3.731  0.4768  1.3357 -0.0830
 5984TIP3   OH217915   5.428   0.975   4.121 -0.0416 -0.1815  0.4175
 5984TIP3    H117916   5.348   0.922   4.126  0.2486 -0.6807 -0.1317
 5984TIP3    H217917   5.480   0.946   4.195  0.5766 -1.4505 -0.4841
 5985TIP3   OH217918   3.874   2.505   2.784  0.1235  0.6689 -0.8898
 5985TIP3    H117919   3.912   2.428   2.742  0.5594  0.3991 -0.0310
 5985TIP3    H217920   3.784   2.480   2.803  0.3159  0.2847 -0.4454
 5986TIP3   OH217921   4.505   5.753   3.158  0.5199 -0.3398 -0.0446
 5986TIP3    H117922   4.585   5.739   3.208 -0.4851  1.1099  2.0791
 5986TIP3    H217923   4.535   5.785   3.073  2.2052 -0.2430  0.5552
 5987TIP3   OH217924   2.052   4.628   4.641 -0.3022 -0.0173  0.0551
 5987TIP3    H117925   2.012   4.676   4.714  0.9840  0.0959  0.7067
 5987TIP3    H217926   2.140   4.665   4.634 -0.1207 -0.6253 -1.0145
 5988TIP3   OH217927   5.438   5.695   1.383 -0.3260  0.2136  0.2630
 5988TIP3    H117928   5.430   5.601   1.368 -0.0567  0.1735  0.3812
 5988TIP3    H217929   5.532   5.713   1.381 -0.3643  0.4471  0.4367
 5989TIP3   OH217930   4.527   0.286   1.147  0.7202  0.2688 -0.2397
 5989TIP3    H117931   4.479   0.209   1.178 -0.5963  1.3811  0.6585
 5989TIP3    H217932   4.525   0.279   1.052 -0.2664 -0.3120 -0.1960
 5990TIP3   OH217933   6.467   1.564   5.439  0.3848  0.1727 -0.2012
 5990TIP3    H117934   6.383   1.552   5.393  0.1091  0.5710  0.2000
 5990TIP3    H217935   6.446   1.553   5.531  0.5948  1.2471 -0.0194
 5991TIP3   OH217936   3.050   2.306   0.341  0.2438  0.5055  0.0545
 5991TIP3    H117937   2.958   2.334   0.347 -0.1311 -0.7250  0.2432
 5991TIP3    H217938   3.098   2.387   0.324 -0.6654  1.4514  1.7766
 5992TIP3   OH217939   6.331   4.673   0.121  0.7000 -0.0529  0.1531
 5992TIP3    H117940   6.361   4.663   0.211  0.8491 -1.1096 -0.0067
 5992TIP3    H217941   6.243   4.635   0.120 -0.3813  2.2453  0.4128
 5993TIP3   OH217942   1.096   3.052   5.042 -0.4167 -0.1069  0.2760
 5993TIP3    H117943   1.121   3.089   4.957  0.2994 -1.4822 -0.1308
 5993TIP3    H217944   1.137   3.110   5.106  0.7328 -0.2091 -0.3508
 5994TIP3   OH217945   7.091   3.706   4.309  0.4028 -0.2362 -0.3968
 5994TIP3    H117946   7.133   3.655   4.239  0.0067 -1.9602  0.5489
 5994TIP3    H217947   7.092   3.647   4.384 -0.0632  1.2145  0.7801
 5995TIP3   OH217948   4.194   4.068   0.149 -0.2789 -0.4643 -0.6128
 5995TIP3    H117949   4.250   4.087   0.074  1.4183  0.8231  0.9046
 5995TIP3    H217950   4.135   3.999   0.117  0.8007 -0.4328 -2.9025
 5996TIP3   OH217951   6.278   1.075   5.209  0.3550 -0.1331 -0.1817
 5996TIP3    H117952   6.279   1.080   5.114 -0.3448  0.7530 -0.1548
 5996TIP3    H217953   6.232   0.992   5.228  0.7302 -0.4409 -0.6059
 5997TIP3   OH217954   7.249   3.355   4.770 -0.7353 -0.8395 -0.2346
 5997TIP3    H117955   7.191   3.429   4.750 -0.7120 -1.1584 -1.5701
 5997TIP3    H217956   7.211   3.282   4.722  0.1238 -1.3268 -0.1817
 5998TIP3   OH217957   5.014   0.030   0.914  0.4224  0.3589 -0.9889
 5998TIP3    H117958   5.020  -0.063   0.935 -1.2545  0.5778  0.6461
 5998TIP3    H217959   5.098   0.066   0.943  1.5022 -0.7547 -2.5570
 5999TIP3   OH217960   3.233   4.741   0.522 -0.2178 -0.3441  0.2130
 5999TIP3    H117961   3.260   4.661   0.479 -0.4633 -0.4124  0.1832
 5999TIP3    H217962   3.198   4.712   0.606 -0.6564 -0.3067  0.0467
 6000TIP3   OH217963   4.975   3.364   5.350  1.0309  0.1878  0.0911
 6000TIP3    H117964   4.969   3.417   5.271 -0.3580 -1.5032 -1.0292
 6000TIP3    H217965   4.890   3.320   5.356  2.2682 -2.3662  0.5454
 6001TIP3   OH217966   4.432   5.860   3.515 -0.3940 -0.2554 -0.2296
 6001TIP3    H117967   4.420   5.954   3.524  0.5907 -0.0496 -0.8413
 6001TIP3    H217968   4.344   5.825   3.508 -0.7982  0.5337  0.7212
 6002TIP3   OH217969   3.957   4.263   4.189  1.1801  0.4743  0.1947
 6002TIP3    H117970   3.892   4.306   4.245 -0.6966 -2.0324  0.0777
 6002TIP3    H217971   3.958   4.172   4.218  2.5204 -0.2031 -1.7475
 6003TIP3   OH217972   2.643   5.069   2.058 -0.7346 -0.5481  0.5658
 6003TIP3    H117973   2.578   5.040   2.123 -1.2902  0.2745  0.3866
 6003TIP3    H217974   2.713   5.108   2.110 -0.5244 -1.1426  0.7420
 6004TIP3   OH217975   1.950   5.222   5.107  0.4610 -0.2702 -0.0636
 6004TIP3    H117976   1.922   5.202   5.018  1.7062 -0.4022 -0.4486
 6004TIP3    H217977   1.937   5.317   5.115  0.4881 -0.2339 -0.4421
 6005TIP3   OH217978   6.510   2.868   3.314  0.5240  0.2797  0.2544
 6005TIP3    H117979   6.485   2.960   3.318  1.9011  0.6724  0.5732
 6005TIP3    H217980   6.439   2.825   3.266  0.3491  1.6886 -0.8105
 6006TIP3   OH217981   5.612   6.693   0.055  0.2311  0.1162  0.3340
 6006TIP3    H117982   5.653   6.716  -0.029  0.9158  0.6338  0.8021
 6006TIP3    H217983   5.625   6.770   0.110  0.7623 -0.6238  1.2719
 6007TIP3   OH217984   0.368   1.500   0.152  0.0050 -0.5448  0.4556
 6007TIP3    H117985   0.423   1.500   0.230 -0.7417  0.0110  0.9994
 6007TIP3    H217986   0.280   1.481   0.185 -0.9011  2.6118  0.2219
 6008TIP3   OH217987   4.878   6.246   5.900 -1.3316 -0.1547  0.4481
 6008TIP3    H117988   4.903   6.208   5.815 -1.9991  1.9302 -0.7441
 6008TIP3    H217989   4.933   6.199   5.964  1.1273  0.0012 -1.4007
 6009TIP3   OH217990   3.963   2.282   3.052 -0.6324 -0.5639  0.3410
 6009TIP3    H117991   3.933   2.238   2.972 -0.5205  0.0915 -0.0696
 6009TIP3    H217992   3.904   2.356   3.062  1.1087  1.0644 -0.7771
 6010TIP3   OH217993   0.580   2.198   1.069  0.4935 -0.3464  0.0134
 6010TIP3    H117994   0.629   2.121   1.040  2.0497  0.4731  0.3763
 6010TIP3    H217995   0.591   2.200   1.164 -0.6018 -0.3641  0.1554
 6011TIP3   OH217996   1.394   2.214   0.512  0.2940 -0.2326  0.7397
 6011TIP3    H117997   1.404   2.303   0.548 -2.0610  0.1126  0.7260
 6011TIP3    H217998   1.381   2.227   0.418  0.0827 -0.5795  0.7172
 6012TIP3   OH217999   0.815   1.142   5.232  0.5620 -0.0992 -0.1960
 6012TIP3    H118000   0.871   1.070   5.204 -0.9068 -1.0245 -0.8947
 6012TIP3    H218001   0.762   1.104   5.303  0.1306  0.4326 -0.2285
 6013TIP3   OH218002   3.601   4.598   5.922 -0.4382 -0.3984  0.1815
 6013TIP3    H118003   3.603   4.599   5.826  1.1032  0.9886  0.1875
 6013TIP3    H218004   3.666   4.532   5.946  0.9110  0.9017  0.2400
 6014TIP3   OH218005   4.864   2.919   0.631 -0.3720  0.3549 -0.2329
 6014TIP3    H118006   4.908   2.945   0.550 -0.0055 -1.5017 -0.6892
 6014TIP3    H218007   4.771   2.925   0.611 -0.3067 -1.5507 -1.3803
 6015TIP3   OH218008   7.243   1.772   4.480  0.7120  0.2569 -0.1271
 6015TIP3    H118009   7.202   1.743   4.561  0.1880  1.0624 -0.0895
 6015TIP3    H218010   7.198   1.722   4.411  1.4005 -0.6843  0.0939
 6016TIP3   OH218011   0.805   4.497   3.657 -0.5963 -0.2913  0.0761
 6016TIP3    H118012   0.747   4.573   3.660  1.2291  1.1422  1.6315
 6016TIP3    H218013   0.862   4.514   3.581 -1.4144 -1.1266 -0.7544
 6017TIP3   OH218014   0.963   6.704   3.178  0.1938 -0.0515  0.0713
 6017TIP3    H118015   0.942   6.633   3.118  1.3563 -0.8431  0.5576
 6017TIP3    H218016   0.923   6.678   3.261  2.5870 -1.3655  0.8905
 6018TIP3   OH218017   6.391   1.926   1.786  0.1901  0.5157 -0.3204
 6018TIP3    H118018   6.468   1.973   1.820 -1.2853  2.7560  0.1548
 6018TIP3    H218019   6.400   1.932   1.691  0.8961  0.2257 -0.2767
 6019TIP3   OH218020   3.416   4.068   4.258  0.1921  0.2902 -0.2273
 6019TIP3    H118021   3.390   4.080   4.349  1.4218  0.8747  0.0734
 6019TIP3    H218022   3.484   4.134   4.244  0.3993 -0.1507 -1.4075
 6020TIP3   OH218023   2.986   6.753   2.700  0.2138 -0.1276  0.0378
 6020TIP3    H118024   3.060   6.734   2.758 -0.4959  0.5888  1.2012
 6020TIP3    H218025   2.952   6.667   2.676 -1.8946 -0.5625  3.8417
 6021TIP3   OH218026   6.714   6.698   1.276 -0.7242 -0.1222 -0.4145
 6021TIP3    H118027   6.704   6.776   1.330 -1.0351 -0.2258 -0.3228
 6021TIP3    H218028   6.634   6.648   1.290  0.0613 -1.1469  0.6520
 6022TIP3   OH218029   0.913   2.627   3.703  0.2842  0.2221  0.0231
 6022TIP3    H118030   0.840   2.584   3.659  0.2364  0.1258  0.1971
 6022TIP3    H218031   0.882   2.641   3.793  0.8339 -0.6760  0.3571
 6023TIP3   OH218032   1.452   3.259   5.713  0.1678  0.6483  0.8350
 6023TIP3    H118033   1.423   3.349   5.731 -1.0440  0.1921  1.2709
 6023TIP3    H218034   1.453   3.217   5.799  0.9669  0.2916  0.6658
 6024TIP3   OH218035   6.533   4.362   2.585  0.1827 -0.3008 -0.0255
 6024TIP3    H118036   6.620   4.400   2.575  0.7723 -1.2244  1.3247
 6024TIP3    H218037   6.548   4.267   2.585 -0.9232 -0.4971 -0.5339
 6025TIP3   OH218038   2.568   5.306   5.793 -0.4849 -0.6712 -0.1604
 6025TIP3    H118039   2.619   5.290   5.872  0.4387  1.2202 -0.3161
 6025TIP3    H218040   2.490   5.351   5.824 -2.0469 -3.3115  0.0449
 6026TIP3   OH218041   3.602   3.435   4.536  0.3591 -0.4059  0.2150
 6026TIP3    H118042   3.537   3.500   4.507  1.5991  0.7239 -0.1517
 6026TIP3    H218043   3.550   3.359   4.561 -1.1541  0.6916  0.5697
 6027TIP3   OH218044   2.160   2.864   0.037  0.0927 -0.1857  0.3767
 6027TIP3    H118045   2.226   2.888  -0.028 -1.0061  1.5182 -0.1702
 6027TIP3    H218046   2.161   2.768   0.037  0.4409 -0.2369 -1.8335
 6028TIP3   OH218047   5.270   4.184   3.875  0.1916 -0.0651 -0.0979
 6028TIP3    H118048   5.221   4.102   3.881  1.3513 -0.8025 -0.3316
 6028TIP3    H218049   5.306   4.184   3.787 -2.9427  2.5995 -1.5656
 6029TIP3   OH218050   4.925   0.300   1.980  0.1901 -0.0654  0.4707
 6029TIP3    H118051   5.014   0.304   1.945  0.1222  0.2165  0.3242
 6029TIP3    H218052   4.914   0.209   2.008 -0.0473 -0.5425 -1.0454
 6030TIP3   OH218053   6.612   3.600   5.351  0.1712 -0.1635  0.8629
 6030TIP3    H118054   6.530   3.650   5.355  0.6926  0.8788 -0.6302
 6030TIP3    H218055   6.606   3.550   5.271  1.9949  1.8828 -0.6778
 6031TIP3   OH218056   4.245   2.606   3.994 -0.5691 -0.2966 -0.5788
 6031TIP3    H118057   4.307   2.616   4.066 -1.1661  0.0320 -0.0953
 6031TIP3    H218058   4.269   2.523   3.953  0.1121 -0.2276 -0.3281
 6032TIP3   OH218059   6.681   1.148   4.656  0.3599  0.1797  0.7204
 6032TIP3    H118060   6.732   1.128   4.577  1.1290  2.0257  0.6982
 6032TIP3    H218061   6.594   1.170   4.625  0.5358  0.4526  0.4190
 6033TIP3   OH218062   1.970   1.513   4.598  0.1989  0.5019  1.0943
 6033TIP3    H118063   2.014   1.583   4.646 -0.5373  0.2921  2.1315
 6033TIP3    H218064   1.910   1.474   4.663  0.9661 -1.4344  0.7159
 6034TIP3   OH218065   7.108   6.587   2.322  0.3932 -0.5418 -0.3983
 6034TIP3    H118066   7.086   6.576   2.230  1.9467  0.5077 -0.9249
 6034TIP3    H218067   7.030   6.627   2.361  0.1394  0.0675 -1.5048
 6035TIP3   OH218068   0.767   0.445   5.480 -0.3554  0.1335 -0.4010
 6035TIP3    H118069   0.797   0.394   5.405  0.3726 -0.4350  0.2511
 6035TIP3    H218070   0.770   0.383   5.553 -1.4531  0.5613  0.0276
 6036TIP3   OH218071   7.124   5.840   2.729 -0.2123  0.0794 -0.5335
 6036TIP3    H118072   7.214   5.815   2.710 -0.0956  1.4860 -2.0920
 6036TIP3    H218073   7.120   5.845   2.825  0.3498 -3.3863 -0.2283
 6037TIP3   OH218074   5.849   2.970   0.657  0.2702 -0.4468 -0.3175
 6037TIP3    H118075   5.788   2.900   0.630  0.2413 -0.8095  0.6634
 6037TIP3    H218076   5.885   3.003   0.574 -1.8361  0.3241 -1.0030
 6038TIP3   OH218077   6.120   2.286   5.147  0.0283 -0.2033  0.7709
 6038TIP3    H118078   6.130   2.317   5.057 -1.2385  0.9883  1.0022
 6038TIP3    H218079   6.200   2.313   5.191  1.3751 -2.1827 -0.3212
 6039TIP3   OH218080   5.060   6.053   0.619  0.6139  0.6850 -0.1171
 6039TIP3    H118081   4.986   6.105   0.588  0.3206  1.5623  1.8741
 6039TIP3    H218082   5.039   5.963   0.594 -0.0223  1.2017 -1.5350
 6040TIP3   OH218083   4.537   2.676   1.426 -0.0409 -0.2955  0.0445
 6040TIP3    H118084   4.456   2.633   1.451 -2.0513  0.2862 -4.3960
 6040TIP3    H218085   4.599   2.604   1.409 -0.4589 -0.8889  0.9748
 6041TIP3   OH218086   0.122   3.844   0.070  0.3254 -0.0118 -0.1307
 6041TIP3    H118087   0.065   3.770   0.091 -0.2482  0.9699  2.1153
 6041TIP3    H218088   0.107   3.861  -0.023 -1.5478 -1.0489 -0.0606
 6042TIP3   OH218089   5.236   3.715   4.856 -0.6403 -0.1501  0.7586
 6042TIP3    H118090   5.311   3.656   4.862  0.0520  0.7139  0.9776
 6042TIP3    H218091   5.215   3.719   4.763  0.6141  0.7970  0.4819
 6043TIP3   OH218092   2.971   4.380   2.995  0.0445 -0.2308  0.2447
 6043TIP3    H118093   3.049   4.432   3.013 -0.8186  1.5119 -0.6922
 6043TIP3    H218094   3.002   4.290   2.988  2.1774  0.5411 -1.2718
 6044TIP3   OH218095   1.789   6.175   2.572 -0.1135  0.5739 -0.2107
 6044TIP3    H118096   1.783   6.183   2.667  0.4183 -2.1028  0.1130
 6044TIP3    H218097   1.728   6.242   2.539 -0.9576  0.9989  2.0040
 6045TIP3   OH218098   2.625   3.609   0.847  0.0569 -0.1950  0.0313
 6045TIP3    H118099   2.530   3.620   0.843  0.0006 -0.6719  0.0006
 6045TIP3    H218100   2.643   3.533   0.791  0.2419 -1.2885  1.4924
 6046TIP3   OH218101   3.287   0.866   2.020  0.0895 -0.6741  0.2190
 6046TIP3    H118102   3.298   0.833   1.931  0.1956  1.0346 -0.4314
 6046TIP3    H218103   3.200   0.835   2.046 -1.1789  1.1506 -1.5900
 6047TIP3   OH218104   0.836   2.901   2.443 -0.4298  0.0057 -0.0755
 6047TIP3    H118105   0.909   2.840   2.433  0.4491  0.9897  0.1452
 6047TIP3    H218106   0.787   2.869   2.518 -1.3691 -1.7692 -1.3684
 6048TIP3   OH218107   2.104   4.231   2.277 -0.1507  0.3673  0.0059
 6048TIP3    H118108   2.165   4.303   2.289  0.1481  0.1586 -0.2416
 6048TIP3    H218109   2.150   4.169   2.220 -0.7022  0.3432 -0.4273
 6049TIP3   OH218110   4.905   2.869   4.134  0.5642 -0.2281  0.3316
 6049TIP3    H118111   4.854   2.844   4.056  0.3220 -1.4567  0.8544
 6049TIP3    H218112   4.992   2.831   4.119  0.6167 -0.1730  0.4946
 6050TIP3   OH218113   3.158   0.119   2.107 -0.5441 -0.4729 -0.4002
 6050TIP3    H118114   3.079   0.089   2.152 -1.8884  2.5228 -0.5479
 6050TIP3    H218115   3.229   0.105   2.170 -1.9638  1.1882  1.7047
 6051TIP3   OH218116   5.990   6.643   3.389  0.0343 -0.2690  0.1481
 6051TIP3    H118117   6.034   6.559   3.374 -0.2483 -0.8510  2.2417
 6051TIP3    H218118   5.903   6.631   3.353  0.2020 -0.6553 -0.1393
 6052TIP3   OH218119   5.292   5.594   2.636  0.2964 -0.1691  0.1519
 6052TIP3    H118120   5.336   5.511   2.618  0.6999  0.2539 -0.9054
 6052TIP3    H218121   5.355   5.661   2.608  0.0372  0.4991  1.1403
 6053TIP3   OH218122   2.175   0.061   2.675 -0.2432 -0.0775  0.0806
 6053TIP3    H118123   2.253   0.115   2.659 -0.0307 -0.3107  0.3203
 6053TIP3    H218124   2.160   0.015   2.593  0.5886 -0.9459  0.4025
 6054TIP3   OH218125   6.478   0.848   3.710 -0.3770  0.1291  0.0983
 6054TIP3    H118126   6.490   0.847   3.805 -1.9189 -1.2766  0.3321
 6054TIP3    H218127   6.476   0.755   3.686  0.0390  0.4701 -1.3375
 6055TIP3   OH218128   7.110   5.569   4.788 -0.3899 -0.6210 -0.4555
 6055TIP3    H118129   7.094   5.475   4.785 -0.8948 -0.5564 -4.0967
 6055TIP3    H218130   7.023   5.607   4.804 -0.3641 -0.7072 -0.0859
 6056TIP3   OH218131   2.351   4.445   2.271 -0.1118 -0.3242  0.0386
 6056TIP3    H118132   2.404   4.445   2.191  2.0362 -0.4220  1.3874
 6056TIP3    H218133   2.341   4.538   2.293  2.5013 -0.3165  1.5812
 6057TIP3   OH218134   5.521   1.679   2.681 -0.4827  0.4298  0.0232
 6057TIP3    H118135   5.587   1.621   2.642 -1.5333 -0.9756  0.2740
 6057TIP3    H218136   5.543   1.766   2.648  1.1277 -0.0943 -0.3795
 6058TIP3   OH218137   6.929   2.691   0.420 -0.0621  0.6706 -0.0034
 6058TIP3    H118138   6.885   2.709   0.337 -1.5059  0.4695  0.6862
 6058TIP3    H218139   6.930   2.596   0.427  2.0563  0.5844 -0.7863
 6059TIP3   OH218140   6.085   3.456   1.383  0.5226 -0.1550  0.0097
 6059TIP3    H118141   6.152   3.518   1.411  0.2067 -0.1598  0.8035
 6059TIP3    H218142   6.084   3.389   1.452 -0.5752  0.0622  0.2325
 6060TIP3   OH218143   1.182   2.059   3.706 -0.6740 -0.2089 -0.6955
 6060TIP3    H118144   1.114   2.108   3.661 -0.4938 -0.2417 -1.0093
 6060TIP3    H218145   1.150   1.969   3.707 -1.2309 -0.0149  0.3163
 6061TIP3   OH218146   4.917   4.252   4.569 -0.1401  0.1554 -0.2299
 6061TIP3    H118147   4.863   4.294   4.636  0.7170  0.2299  0.4325
 6061TIP3    H218148   4.884   4.286   4.486 -0.8472  0.4921  0.1861
 6062TIP3   OH218149   4.712   0.854   1.531 -0.6438  0.4366 -0.0912
 6062TIP3    H118150   4.735   0.780   1.587 -0.3458  0.4296 -0.2175
 6062TIP3    H218151   4.797   0.892   1.506 -0.7974  0.9026  0.0842
 6063TIP3   OH218152   4.183   2.897   3.510 -0.3156 -0.2420 -0.1956
 6063TIP3    H118153   4.241   2.829   3.543 -0.7355 -0.5946 -0.1734
 6063TIP3    H218154   4.103   2.887   3.562 -0.0604  0.8490  0.4338
 6064TIP3   OH218155   0.867   1.191   5.637 -0.2488 -0.7333 -0.3654
 6064TIP3    H118156   0.782   1.208   5.678  0.9757  2.6472  1.1237
 6064TIP3    H218157   0.888   1.101   5.661 -1.7734 -0.4667  2.3343
 6065TIP3   OH218158   2.987   1.792   2.841 -0.1239 -0.0036 -0.3513
 6065TIP3    H118159   3.036   1.826   2.916  0.4247  1.3066 -1.2804
 6065TIP3    H218160   3.001   1.697   2.846  1.3798  0.2051  0.2010
 6066TIP3   OH218161   3.541   2.853   1.326  0.2503  0.2184 -0.5651
 6066TIP3    H118162   3.511   2.944   1.320 -0.1149  0.2704  1.2514
 6066TIP3    H218163   3.507   2.823   1.411 -1.6443 -2.3735 -2.0751
 6067TIP3   OH218164   1.806   4.638   5.237  0.2171 -0.3749 -0.2276
 6067TIP3    H118165   1.767   4.636   5.150 -1.2410 -0.5455  0.3954
 6067TIP3    H218166   1.731   4.651   5.296  1.3535  1.7552  0.8668
 6068TIP3   OH218167   4.097   1.631   5.112 -0.5106  0.4127  0.4273
 6068TIP3    H118168   4.143   1.568   5.166 -1.1913 -0.0249  0.5089
 6068TIP3    H218169   4.166   1.681   5.068  0.0767 -1.6604 -1.1479
 6069TIP3   OH218170   6.114   4.243   4.696  0.1480  0.3386  0.3066
 6069TIP3    H118171   6.089   4.151   4.699  0.4676  0.2680  0.9158
 6069TIP3    H218172   6.151   4.261   4.782 -0.0152  1.0690  0.2336
 6070TIP3   OH218173   6.923   1.434   5.306  0.1351 -0.2261 -0.1763
 6070TIP3    H118174   6.928   1.407   5.214  0.5896  2.2436 -0.9399
 6070TIP3    H218175   6.865   1.510   5.307  1.3353  0.7428  1.3156
 6071TIP3   OH218176   6.834   0.431   5.489 -0.7368 -0.0478  0.3176
 6071TIP3    H118177   6.884   0.355   5.461 -0.0673 -0.3561  2.2030
 6071TIP3    H218178   6.754   0.394   5.528  0.3172  0.0132  2.7484
 6072TIP3   OH218179   2.253   0.743   0.582 -0.0709 -0.0737  0.6607
 6072TIP3    H118180   2.306   0.665   0.597  0.1928  0.0372  0.3171
 6072TIP3    H218181   2.245   0.748   0.486  0.8143  0.9294  0.6321
 6073TIP3   OH218182   2.744   2.899   4.950 -0.5764 -0.2069  0.1021
 6073TIP3    H118183   2.703   2.814   4.931 -2.2763  0.9175 -1.5550
 6073TIP3    H218184   2.725   2.915   5.042 -2.4160 -0.5354 -0.1845
 6074TIP3   OH218185   1.693   3.451   0.408  0.2212  0.3985  0.4660
 6074TIP3    H118186   1.623   3.483   0.464 -0.5561 -2.0267  0.9788
 6074TIP3    H218187   1.771   3.455   0.463 -0.4038 -1.2890  1.5486
 6075TIP3   OH218188   0.280   1.859   3.190 -0.0621 -0.3269  0.0708
 6075TIP3    H118189   0.190   1.842   3.217 -0.0439  0.3906  0.6116
 6075TIP3    H218190   0.319   1.772   3.180 -0.6318 -0.6328  0.4590
 6076TIP3   OH218191   3.855   2.440   5.571  0.3520 -0.6607 -0.6627
 6076TIP3    H118192   3.925   2.445   5.636  0.1816  0.2403 -0.5471
 6076TIP3    H218193   3.899   2.456   5.488  0.5388 -1.6406 -0.7748
 6077TIP3   OH218194   5.501   1.497   5.744  0.1223 -0.1555 -0.0101
 6077TIP3    H118195   5.554   1.577   5.747  1.6711 -1.0924 -0.9706
 6077TIP3    H218196   5.467   1.494   5.655  0.8751 -1.0313 -0.2826
 6078TIP3   OH218197   3.220   6.328   0.886  0.5390 -0.8032 -0.4266
 6078TIP3    H118198   3.173   6.411   0.891  0.7110 -0.7071 -0.4099
 6078TIP3    H218199   3.312   6.353   0.872  0.7364 -0.9680  0.5400
 6079TIP3   OH218200   0.756   1.068   2.288  0.0986 -0.0668  0.4068
 6079TIP3    H118201   0.778   1.021   2.208 -1.7843  1.1326 -0.8859
 6079TIP3    H218202   0.660   1.073   2.287  0.1695  3.1313  0.8492
 6080TIP3   OH218203   0.475   5.393   2.783  0.0672  0.4140 -0.3003
 6080TIP3    H118204   0.395   5.445   2.790 -0.0574  0.1364  0.4339
 6080TIP3    H218205   0.514   5.396   2.870  0.7691  0.3990 -0.6092
 6081TIP3   OH218206   1.491   0.670   1.366  0.5771 -0.2070 -0.2506
 6081TIP3    H118207   1.422   0.624   1.318  0.0958 -1.1029  1.2212
 6081TIP3    H218208   1.446   0.742   1.409  0.9433  0.3894 -0.8482
 6082TIP3   OH218209   4.938   0.574   0.909 -0.2051 -0.5218  0.0168
 6082TIP3    H118210   4.849   0.576   0.944 -0.0676  0.7960  0.3378
 6082TIP3    H218211   4.950   0.484   0.879 -2.6023 -0.1133 -2.5100
 6083TIP3   OH218212   2.473   0.757   3.605  0.5252  0.3724  0.1053
 6083TIP3    H118213   2.459   0.769   3.698  2.6075 -0.3959  0.5739
 6083TIP3    H218214   2.494   0.664   3.595 -0.9018  0.1582 -1.3254
 6084TIP3   OH218215   5.990   2.736   1.964 -0.3631  0.1269 -0.1880
 6084TIP3    H118216   6.077   2.706   1.938 -0.6697 -0.7113 -0.2586
 6084TIP3    H218217   5.945   2.755   1.882 -0.5987 -0.4528 -0.1986
 6085TIP3   OH218218   3.857   0.316   5.878  0.3517 -0.0547 -0.1298
 6085TIP3    H118219   3.859   0.223   5.858  0.8902 -0.1441  0.3235
 6085TIP3    H218220   3.887   0.359   5.797 -2.0023 -0.1225 -1.1085
 6086TIP3   OH218221   4.974   4.167   3.049 -0.2139  0.2098 -0.3858
 6086TIP3    H118222   4.891   4.120   3.047 -1.3471  1.9818  1.4702
 6086TIP3    H218223   4.953   4.257   3.026  1.1426  0.7577  0.3639
 6087TIP3   OH218224   0.513   0.908   3.833  0.1759 -0.7298 -0.4928
 6087TIP3    H118225   0.484   0.890   3.744 -0.9416 -0.9799 -0.0983
 6087TIP3    H218226   0.432   0.928   3.880  0.6362 -1.5406  0.6834
 6088TIP3   OH218227   5.376   4.283   5.872 -0.0361  0.0168 -0.0958
 6088TIP3    H118228   5.468   4.268   5.849  0.1448  2.2662 -1.0859
 6088TIP3    H218229   5.331   4.285   5.788 -1.1835 -1.9018  0.4279
 6089TIP3   OH218230   0.016   3.108   0.228 -0.3208  0.0966  0.1972
 6089TIP3    H118231   0.101   3.105   0.271 -0.1432  1.2059 -0.0384
 6089TIP3    H218232  -0.029   3.182   0.269 -0.3785  0.7970 -1.0788
 6090TIP3   OH218233   3.066   4.711   3.591  0.4897 -0.1946 -0.4385
 6090TIP3    H118234   3.010   4.639   3.560  0.1613 -0.6118  1.0185
 6090TIP3    H218235   3.054   4.710   3.686  1.3064  1.1260 -0.3063
 6091TIP3   OH218236   4.880   6.684   2.936  0.2311  0.5620  0.5025
 6091TIP3    H118237   4.894   6.681   2.842 -1.7502  0.5423  0.1609
 6091TIP3    H218238   4.843   6.599   2.958  2.4369 -0.1751  1.6859
 6092TIP3   OH218239   0.836   6.503   3.003  0.3424  0.5308 -0.2989
 6092TIP3    H118240   0.831   6.521   2.909 -1.0314 -0.8036 -0.5074
 6092TIP3    H218241   0.746   6.505   3.033  0.6979  0.0615  0.8375
 6093TIP3   OH218242   6.150   1.547   3.028  0.0492  0.2140 -0.3928
 6093TIP3    H118243   6.149   1.455   3.055 -1.5636  0.1158 -0.6954
 6093TIP3    H218244   6.137   1.596   3.109  2.8002  0.3155  0.0679
 6094TIP3   OH218245   5.396   1.085   3.089  0.0217 -0.6591 -0.5330
 6094TIP3    H118246   5.356   1.128   3.013 -0.0494 -2.1060 -1.3499
 6094TIP3    H218247   5.489   1.107   3.082 -0.2928  1.0073  0.2092
 6095TIP3   OH218248   5.968   1.156   0.989  0.0670 -0.1177 -0.5385
 6095TIP3    H118249   6.003   1.228   0.937  0.4626 -0.9820 -1.5162
 6095TIP3    H218250   5.886   1.190   1.025  0.1405  0.7468 -1.1525
 6096TIP3   OH218251   5.916   1.826   0.309  0.4733  0.2701  0.5002
 6096TIP3    H118252   5.932   1.898   0.370  2.5571 -0.0401  0.3807
 6096TIP3    H218253   5.832   1.847   0.269  0.3877  1.9130  1.4662
 6097TIP3   OH218254   1.900   6.164   5.743  0.3072 -0.0876 -0.0140
 6097TIP3    H118255   1.908   6.101   5.814  0.1653 -0.6647 -0.5006
 6097TIP3    H218256   1.858   6.115   5.672 -0.7262  0.8248 -0.0577
 6098TIP3   OH218257   6.985   6.285   4.409  0.5498 -0.4269 -0.1403
 6098TIP3    H118258   7.013   6.203   4.450  0.1359 -0.8966 -0.7798
 6098TIP3    H218259   7.017   6.279   4.320 -0.9680 -0.6886 -0.7084
 6099TIP3   OH218260   4.910   1.481   5.786 -0.1778 -0.1893  0.4515
 6099TIP3    H118261   4.816   1.492   5.801 -0.2289  1.5451 -0.8277
 6099TIP3    H218262   4.922   1.505   5.694  1.1503 -3.0550 -0.2286
 6100TIP3   OH218263   6.447   4.209   3.737  0.6947  0.0745  0.2713
 6100TIP3    H118264   6.425   4.156   3.814  1.9269 -1.7010 -0.5456
 6100TIP3    H218265   6.364   4.216   3.689 -0.2700  1.8067  2.0193
 6101TIP3   OH218266   2.433   0.778   5.680 -0.2013 -0.3528  0.0598
 6101TIP3    H118267   2.364   0.782   5.613  0.2193  0.3954 -0.3469
 6101TIP3    H218268   2.386   0.764   5.762 -0.8208 -0.1153 -0.2473
 6102TIP3   OH218269   3.318   2.117   5.204 -0.2191  0.3129  0.2826
 6102TIP3    H118270   3.281   2.044   5.255 -0.3405  0.1454 -0.0406
 6102TIP3    H218271   3.242   2.171   5.182  0.1580  1.9284  2.6782
 6103TIP3   OH218272   1.377   4.866   0.350  0.0279  0.1235  0.2877
 6103TIP3    H118273   1.440   4.794   0.344  0.0029 -0.1707  2.6867
 6103TIP3    H218274   1.431   4.945   0.347  0.3488 -0.0840  0.4827
 6104TIP3   OH218275   4.306   2.451   3.002  0.0496 -0.3209 -0.2396
 6104TIP3    H118276   4.359   2.411   2.934 -1.1809 -0.3674 -1.2082
 6104TIP3    H218277   4.245   2.508   2.955 -1.5959 -1.2186  0.6923
 6105TIP3   OH218278   2.785   2.720   5.701 -0.9822  0.2280 -0.4211
 6105TIP3    H118279   2.794   2.663   5.777  0.6898  0.0557 -0.7011
 6105TIP3    H218280   2.819   2.805   5.730 -1.4463  0.4931 -0.6348
 6106TIP3   OH218281   0.388   4.973   3.881  0.3731 -0.7354 -0.4911
 6106TIP3    H118282   0.385   5.004   3.972  0.9122  0.1102 -0.7491
 6106TIP3    H218283   0.309   4.920   3.871  1.1772 -2.3284  0.9920
 6107TIP3   OH218284   4.722   4.154   1.872 -0.3866  1.0228  0.5660
 6107TIP3    H118285   4.799   4.129   1.924 -0.4224  2.4939  1.4007
 6107TIP3    H218286   4.650   4.102   1.908 -0.1331  0.9971  1.0397
 6108TIP3   OH218287   6.047   2.688   5.166  0.1174 -0.1059 -0.0460
 6108TIP3    H118288   5.999   2.616   5.206 -0.9697 -0.0095 -1.1229
 6108TIP3    H218289   6.120   2.646   5.121  0.2088 -0.4052  0.3731
 6109TIP3   OH218290   0.757   1.862   3.178  0.4117 -0.0792 -0.3165
 6109TIP3    H118291   0.801   1.788   3.137 -0.2104 -0.4331 -0.3597
 6109TIP3    H218292   0.707   1.903   3.107  0.1527 -0.0716 -0.1324
 6110TIP3   OH218293   2.946   6.201   0.665 -0.1130  0.4644 -0.2636
 6110TIP3    H118294   2.916   6.148   0.591  0.4579  0.4900 -0.5264
 6110TIP3    H218295   3.033   6.166   0.685  0.0558  0.9630 -0.1065
 6111TIP3   OH218296   6.228   5.282   4.259  0.7250  0.0593 -0.0747
 6111TIP3    H118297   6.301   5.220   4.261  0.6564 -0.0079  0.3592
 6111TIP3    H218298   6.150   5.227   4.262  0.6129  0.0545 -1.8676
 6112TIP3   OH218299   1.579   3.752   1.354  0.2275  0.8777 -0.2595
 6112TIP3    H118300   1.586   3.826   1.294 -2.1594  0.1580 -1.5165
 6112TIP3    H218301   1.511   3.697   1.317  1.0150 -1.3190  1.3538
 6113TIP3   OH218302   3.833   3.471   1.128 -0.0248  0.2788  0.0769
 6113TIP3    H118303   3.790   3.445   1.210 -0.5570 -1.1654 -0.6223
 6113TIP3    H218304   3.782   3.546   1.097 -1.0331 -0.3763  0.1064
 6114TIP3   OH218305   6.314   4.652   2.832  0.6081  0.5540  0.0021
 6114TIP3    H118306   6.306   4.557   2.823 -1.0302  0.5677  0.8292
 6114TIP3    H218307   6.251   4.675   2.901 -0.2180  2.4322 -1.2967
 6115TIP3   OH218308   5.570   4.837   1.700  0.2156 -0.1754 -0.3569
 6115TIP3    H118309   5.616   4.762   1.735  1.1578  0.3388 -0.4595
 6115TIP3    H218310   5.622   4.865   1.624  1.5618  2.3254  1.3469
 6116TIP3   OH218311   1.127   0.284   2.151 -0.0385  0.1343  0.5684
 6116TIP3    H118312   1.207   0.263   2.199 -0.2655  1.2940  1.4979
 6116TIP3    H218313   1.126   0.222   2.078  0.7062 -1.1731  1.6255
 6117TIP3   OH218314   1.154   4.733   5.333  0.6088  0.4981 -0.5259
 6117TIP3    H118315   1.187   4.706   5.247  1.4382  0.9917 -0.3749
 6117TIP3    H218316   1.059   4.726   5.325  0.6353  1.1769 -1.7084
 6118TIP3   OH218317   4.851   1.964   1.470  0.1763  0.2239 -0.4667
 6118TIP3    H118318   4.877   1.910   1.543 -2.0770 -0.1559  0.1372
 6118TIP3    H218319   4.872   2.054   1.497  1.5950 -0.0947 -0.4292
 6119TIP3   OH218320   3.858   3.380   4.461  0.4340  0.9319  0.5894
 6119TIP3    H118321   3.765   3.398   4.476 -0.1594 -1.4614  0.1124
 6119TIP3    H218322   3.903   3.433   4.528 -1.3313  1.1601  1.6761
 6120TIP3   OH218323   1.670   0.475   5.137  0.2880 -0.2069 -0.2697
 6120TIP3    H118324   1.680   0.484   5.043  0.8830 -1.3163 -0.3281
 6120TIP3    H218325   1.587   0.519   5.157  0.9870  1.5812 -1.0363
 6121TIP3   OH218326   3.195   1.818   3.407 -0.2877 -0.1383 -0.2573
 6121TIP3    H118327   3.174   1.730   3.376  0.8530 -0.4021 -0.3245
 6121TIP3    H218328   3.221   1.805   3.499  0.7050 -0.0002 -0.5124
 6122TIP3   OH218329   1.603   1.773   0.798 -0.1789  0.0065  0.2001
 6122TIP3    H118330   1.535   1.719   0.839 -1.1760  0.6535 -0.5638
 6122TIP3    H218331   1.661   1.796   0.871  0.1713 -1.9016  0.5809
 6123TIP3   OH218332   6.084   4.882   5.127  0.1969 -0.2926 -0.5889
 6123TIP3    H118333   6.002   4.924   5.102 -0.0276 -0.2313  0.2450
 6123TIP3    H218334   6.142   4.898   5.052 -1.1439 -2.1152 -2.1309
 6124TIP3   OH218335   5.811   3.245   1.353 -0.8050 -0.1692  0.2195
 6124TIP3    H118336   5.720   3.263   1.331 -1.0808  0.1530  1.5307
 6124TIP3    H218337   5.860   3.265   1.273 -1.5280  2.8778  0.4259
 6125TIP3   OH218338   4.246   0.982   3.564 -0.2121 -0.0185 -0.5867
 6125TIP3    H118339   4.215   1.046   3.628 -0.8229  0.0213 -0.9101
 6125TIP3    H218340   4.226   0.897   3.605  1.2444 -0.0290  0.1548
 6126TIP3   OH218341   5.991   2.536   3.558 -0.2376 -0.6542 -0.5542
 6126TIP3    H118342   6.063   2.474   3.545 -0.4179 -1.1004  0.4366
 6126TIP3    H218343   6.020   2.592   3.630 -1.4197 -1.7287  0.8155
 6127TIP3   OH218344   0.211   2.590   2.320  0.8141  0.2650 -0.6135
 6127TIP3    H118345   0.201   2.525   2.250  2.2397  0.4950 -1.0681
 6127TIP3    H218346   0.123   2.625   2.333  0.2233 -0.9849 -1.1142
 6128TIP3   OH218347   6.850   0.714   0.663  0.0219 -0.4556 -0.1629
 6128TIP3    H118348   6.845   0.619   0.677  1.5161 -0.2708  2.2169
 6128TIP3    H218349   6.855   0.724   0.568 -0.0116 -2.7824 -0.4694
 6129TIP3   OH218350   2.067   3.689   3.792 -0.2716  0.1628 -0.0704
 6129TIP3    H118351   1.978   3.656   3.777 -0.5096  0.7751 -0.0159
 6129TIP3    H218352   2.098   3.639   3.868 -0.6467  0.0929  0.0419
 6130TIP3   OH218353   1.635   5.784   3.406  0.2719 -0.5951  0.0217
 6130TIP3    H118354   1.604   5.751   3.491 -0.0469 -0.2816  0.0298
 6130TIP3    H218355   1.608   5.718   3.343  0.4095 -0.7744  0.1491
 6131TIP3   OH218356   0.434   1.310   5.829 -0.1103  0.4067  0.1137
 6131TIP3    H118357   0.356   1.335   5.879 -0.5585 -0.8042  0.0514
 6131TIP3    H218358   0.426   1.216   5.817  1.7219  0.1270  0.7162
 6132TIP3   OH218359   0.951   5.107   1.734 -0.0621 -0.7704 -0.4757
 6132TIP3    H118360   0.978   5.141   1.649 -1.2986 -2.3632 -1.5669
 6132TIP3    H218361   1.025   5.126   1.792  0.6668  0.6515 -1.7960
 6133TIP3   OH218362   1.032   3.319   0.788 -0.2920  0.0850  0.1065
 6133TIP3    H118363   0.947   3.281   0.765 -0.3437  0.9634 -1.3057
 6133TIP3    H218364   1.010   3.393   0.844 -0.2133 -1.6010  2.5310
 6134TIP3   OH218365   6.499   1.670   1.828 -0.5104  0.3788  0.0622
 6134TIP3    H118366   6.472   1.759   1.809 -0.1225  0.7039  0.9568
 6134TIP3    H218367   6.578   1.680   1.881  0.2691 -0.5124 -0.8864
 6135TIP3   OH218368   3.022   5.472   2.185  0.0928 -0.3960 -0.2087
 6135TIP3    H118369   2.950   5.455   2.124  0.0188 -1.2897  0.1092
 6135TIP3    H218370   3.087   5.404   2.164 -0.0592 -0.8957  0.8933
 6136TIP3   OH218371   3.335   6.715   4.858 -0.7205 -0.3714 -0.0490
 6136TIP3    H118372   3.320   6.783   4.923 -2.3992 -0.8887  0.1257
 6136TIP3    H218373   3.416   6.742   4.814 -2.4873  3.0408 -1.5869
 6137TIP3   OH218374   5.836   6.678   1.874  0.5045 -0.2235  0.0646
 6137TIP3    H118375   5.800   6.766   1.864  2.3847  0.5401 -0.4045
 6137TIP3    H218376   5.804   6.630   1.798 -0.7257 -0.0403  0.4466
 6138TIP3   OH218377   0.198   6.574   3.048 -0.2740  0.2917  0.2000
 6138TIP3    H118378   0.192   6.544   3.139 -1.9938  1.9200  0.7041
 6138TIP3    H218379   0.136   6.519   3.000  0.1270 -0.1199  0.1552
 6139TIP3   OH218380   0.195   2.806   2.120  0.5216 -0.0786 -0.3938
 6139TIP3    H118381   0.212   2.889   2.166  0.7533 -0.3578  0.0402
 6139TIP3    H218382   0.235   2.740   2.177 -1.3629 -0.6994  0.2800
 6140TIP3   OH218383   4.369   4.664   4.744 -0.1405 -0.0383  0.0083
 6140TIP3    H118384   4.418   4.584   4.765 -0.3577 -0.3956 -0.7860
 6140TIP3    H218385   4.404   4.690   4.659  0.1184  0.8712  0.3872
 6141TIP3   OH218386   4.609   2.642   0.850  0.3551 -0.0359  0.1245
 6141TIP3    H118387   4.568   2.602   0.926 -0.8839  0.9366 -0.0068
 6141TIP3    H218388   4.681   2.694   0.885 -1.2005  1.7435  0.8715
 6142TIP3   OH218389   1.819   4.720   0.210  0.0864  0.1619  0.2027
 6142TIP3    H118390   1.889   4.713   0.274 -0.2319  1.0551  0.6720
 6142TIP3    H218391   1.815   4.634   0.169  2.1018  0.3464 -0.5236
 6143TIP3   OH218392   3.466   3.148   5.832 -0.3230  0.1547  0.1668
 6143TIP3    H118393   3.529   3.186   5.893  1.3617  0.8643 -1.8689
 6143TIP3    H218394   3.490   3.055   5.828  1.6031  0.6443 -1.5744
 6144TIP3   OH218395   3.129   0.794   4.239  0.6371  0.2941 -0.0801
 6144TIP3    H118396   3.096   0.705   4.233  1.1812  0.0953 -0.1241
 6144TIP3    H218397   3.176   0.797   4.322  1.3103  0.3075 -0.4576
 6145TIP3   OH218398   2.852   6.185   4.924 -0.0306  0.0549 -0.5663
 6145TIP3    H118399   2.839   6.235   4.844  1.5358  3.0672  0.8912
 6145TIP3    H218400   2.794   6.226   4.988  0.2495 -0.9398  0.3623
 6146TIP3   OH218401   3.484   4.494   4.363  0.7173 -0.0357  0.1171
 6146TIP3    H118402   3.475   4.446   4.280  1.7681 -0.6688  0.3517
 6146TIP3    H218403   3.529   4.434   4.421 -2.0568 -0.5325  1.9777
 6147TIP3   OH218404   6.198   6.163   4.653  0.1411  0.0359  0.3512
 6147TIP3    H118405   6.252   6.084   4.661  2.3370  1.4771  0.8382
 6147TIP3    H218406   6.261   6.234   4.641 -1.8316  1.4387 -3.3522
 6148TIP3   OH218407   6.801   2.688   0.679  0.0010  0.4939 -0.0252
 6148TIP3    H118408   6.761   2.775   0.679 -0.9927  0.1289 -2.4877
 6148TIP3    H218409   6.832   2.676   0.589  0.7265 -1.4442  0.4329
 6149TIP3   OH218410   7.201   6.454   5.645  0.3703  0.2915  0.1282
 6149TIP3    H118411   7.238   6.497   5.722  0.7018  0.1150  0.0663
 6149TIP3    H218412   7.235   6.504   5.571 -0.0705  0.5561  0.0998
 6150TIP3   OH218413   0.858   0.657   5.666 -0.5964  0.1684 -0.2597
 6150TIP3    H118414   0.839   0.595   5.596  0.6114 -2.6976  1.7223
 6150TIP3    H218415   0.778   0.659   5.719 -0.4660 -0.1554 -0.0438
 6151TIP3   OH218416   0.772   6.008   0.784  0.3352  0.3430 -0.0823
 6151TIP3    H118417   0.803   6.084   0.833  1.4199  0.1859 -0.5114
 6151TIP3    H218418   0.688   6.036   0.747  0.7916  1.3799 -0.3501
 6152TIP3   OH218419   6.369   0.381   2.051 -0.2732  0.1126 -0.2563
 6152TIP3    H118420   6.390   0.470   2.078 -1.4840 -0.0388  1.2979
 6152TIP3    H218421   6.438   0.327   2.090 -1.3864  0.0278  1.7121
 6153TIP3   OH218422   2.102   6.432   4.433 -0.0258 -0.1935  0.5126
 6153TIP3    H118423   2.146   6.497   4.487 -1.6047  2.0499 -0.7593
 6153TIP3    H218424   2.148   6.435   4.349 -1.5722  1.0659 -0.3276
 6154TIP3   OH218425   0.874   2.947   5.151 -0.3264  0.5720 -0.2491
 6154TIP3    H118426   0.945   2.994   5.109  0.2131  0.9210  1.0326
 6154TIP3    H218427   0.860   2.992   5.234 -1.4304 -0.0502 -0.0759
 6155TIP3   OH218428   6.525   0.671   5.694 -0.1169 -0.3087  0.0620
 6155TIP3    H118429   6.460   0.630   5.751  1.0415 -1.8991  0.2981
 6155TIP3    H218430   6.601   0.686   5.750  0.2919  0.0606 -0.5777
 6156TIP3   OH218431   6.748   3.743   3.393  0.8947  0.3898 -0.0077
 6156TIP3    H118432   6.797   3.663   3.412  1.0858  0.1793 -1.3426
 6156TIP3    H218433   6.682   3.747   3.463  0.2996 -1.4047 -0.4118
 6157TIP3   OH218434   2.501   1.854   3.906 -0.5379  0.4074 -0.1493
 6157TIP3    H118435   2.482   1.835   3.814  1.8111  2.1363 -1.1220
 6157TIP3    H218436   2.559   1.783   3.934 -1.5546 -0.3214  0.1370
 6158TIP3   OH218437   5.930   3.093   2.861 -0.0995 -0.9835  0.3195
 6158TIP3    H118438   5.882   3.041   2.926 -0.2355  0.1329  1.1320
 6158TIP3    H218439   5.984   3.029   2.814 -1.7441 -2.1506 -0.0553
 6159TIP3   OH218440   6.964   3.992   5.045  0.9119 -0.4487  0.6981
 6159TIP3    H118441   6.933   4.082   5.031 -1.0055 -1.1561  0.0438
 6159TIP3    H218442   6.982   3.987   5.139  1.5401  0.7548  0.6601
 6160TIP3   OH218443   2.542   4.755   3.820 -0.1741 -0.2418  0.7151
 6160TIP3    H118444   2.510   4.791   3.737 -0.2323  0.1100  0.8858
 6160TIP3    H218445   2.521   4.662   3.816  1.0984 -0.5068 -0.2637
 6161TIP3   OH218446   2.537   4.553   2.711 -0.1599 -0.4318 -0.2130
 6161TIP3    H118447   2.612   4.501   2.740 -0.5990  0.0413  1.8778
 6161TIP3    H218448   2.503   4.504   2.635  2.4501 -0.4305 -1.5067
 6162TIP3   OH218449   5.325   0.575   5.816  0.4361  0.3561 -0.9550
 6162TIP3    H118450   5.363   0.661   5.797  0.7754  0.0975 -1.4925
 6162TIP3    H218451   5.268   0.557   5.741 -0.6543  0.6746 -0.2280
 6163TIP3   OH218452   6.746   1.525   1.148  0.2810 -0.4431 -0.3869
 6163TIP3    H118453   6.710   1.549   1.062  1.7022  0.1287 -0.8466
 6163TIP3    H218454   6.811   1.458   1.129  0.5801 -0.3416  0.2482
 6164TIP3   OH218455   0.455   3.586   1.769  0.3267  0.1079 -0.1949
 6164TIP3    H118456   0.457   3.625   1.681  0.2758  0.1187 -0.1915
 6164TIP3    H218457   0.529   3.626   1.815  1.6715 -1.4842 -0.9014
 6165TIP3   OH218458   0.325   6.306   5.913  0.0374 -0.0303 -0.1767
 6165TIP3    H118459   0.315   6.260   5.830 -1.3202 -1.2888  0.6351
 6165TIP3    H218460   0.395   6.369   5.897  0.2637 -0.6914 -2.0649
 6166TIP3   OH218461   6.047   0.319   4.680  0.1097 -0.6743  0.2360
 6166TIP3    H118462   6.027   0.320   4.774  1.4567 -0.2534  0.5309
 6166TIP3    H218463   5.964   0.292   4.639 -1.1565  1.1926  1.3801
 6167TIP3   OH218464   4.984   6.737   0.932 -0.4620 -0.7671 -0.2387
 6167TIP3    H118465   5.039   6.812   0.907 -1.1096 -0.7615 -1.7637
 6167TIP3    H218466   5.046   6.667   0.952  0.1275 -0.4860 -1.0276
 6168TIP3   OH218467   4.333   4.613   0.162  0.2927  0.5732  0.3790
 6168TIP3    H118468   4.400   4.630   0.229 -1.1185 -0.2039  2.0523
 6168TIP3    H218469   4.312   4.521   0.171 -2.7361  1.2757  1.6129
 6169TIP3   OH218470   5.477   6.507   2.097  0.4301  0.2455  0.2450
 6169TIP3    H118471   5.487   6.442   2.166 -0.2589 -0.2179 -0.0781
 6169TIP3    H218472   5.554   6.562   2.105  0.7277 -0.2490  0.9101
 6170TIP3   OH218473   2.054   6.536   1.618 -0.1996 -0.0768  0.4702
 6170TIP3    H118474   1.998   6.493   1.682 -2.6122  0.7823 -0.9495
 6170TIP3    H218475   2.030   6.628   1.622  0.6508  0.2268 -0.6258
 6171TIP3   OH218476   1.748   1.551   0.629 -0.0646  0.5012 -0.4872
 6171TIP3    H118477   1.726   1.476   0.574 -0.7593 -1.3112  2.1029
 6171TIP3    H218478   1.665   1.597   0.642 -0.6646 -1.0988  1.8129
 6172TIP3   OH218479   1.472   0.432   2.003  0.3875 -0.1966 -0.3087
 6172TIP3    H118480   1.438   0.424   2.092  1.7317 -0.5207  0.1958
 6172TIP3    H218481   1.395   0.455   1.950 -0.1658  1.4706  1.1361
 6173TIP3   OH218482   1.968   2.860   3.444 -0.0857 -0.2362  0.1911
 6173TIP3    H118483   1.983   2.777   3.399 -0.0840  0.3271 -0.8789
 6173TIP3    H218484   2.032   2.920   3.407 -0.3664  0.3585  0.6463
 6174TIP3   OH218485   2.406   0.315   1.628 -1.1036 -0.2271 -0.4682
 6174TIP3    H118486   2.397   0.369   1.706 -0.2292 -1.1584  0.2971
 6174TIP3    H218487   2.426   0.228   1.661 -1.0683 -0.7143 -1.7253
 6175TIP3   OH218488   0.440   5.154   0.733 -0.4782 -0.3973 -0.3170
 6175TIP3    H118489   0.458   5.102   0.655 -1.1141 -0.7685 -0.2202
 6175TIP3    H218490   0.356   5.196   0.716 -0.8869 -0.9097  0.3855
 6176TIP3   OH218491   4.139   1.970   3.789  0.1837 -0.0656 -0.3286
 6176TIP3    H118492   4.067   1.994   3.847 -0.6768  1.8576 -2.0668
 6176TIP3    H218493   4.097   1.921   3.718  0.7428  0.1940 -0.8427
 6177TIP3   OH218494   3.787   4.268   1.276  0.4474 -0.0367 -0.1201
 6177TIP3    H118495   3.870   4.223   1.293 -0.2012 -1.4601 -0.5339
 6177TIP3    H218496   3.787   4.283   1.181 -0.0980 -0.7695 -0.2466
 6178TIP3   OH218497   6.414   1.900   3.305 -0.0685  0.5351 -0.6420
 6178TIP3    H118498   6.354   1.852   3.364 -0.5232  1.7166 -0.1007
 6178TIP3    H218499   6.498   1.856   3.316 -0.4615 -0.1291 -0.1528
 6179TIP3   OH218500   4.215   1.828   4.986  0.4434 -0.3761 -0.1849
 6179TIP3    H118501   4.223   1.910   5.033  2.8220  0.0247 -1.1773
 6179TIP3    H218502   4.148   1.845   4.919 -0.0151  0.3172  0.4384
 6180TIP3   OH218503   6.805   3.517   2.111 -0.1030 -0.4261  0.5549
 6180TIP3    H118504   6.893   3.480   2.104  0.0147 -0.7776  2.9397
 6180TIP3    H218505   6.809   3.598   2.060  0.6799 -1.8635 -1.8247
 6181TIP3   OH218506   0.915   1.361   2.740  0.0322  0.1137 -0.3262
 6181TIP3    H118507   0.845   1.406   2.693 -0.7492 -0.5524  0.1866
 6181TIP3    H218508   0.980   1.341   2.673 -0.8863 -0.4731 -1.0546
 6182TIP3   OH218509   1.365   4.764   2.053  0.2255  0.0010 -0.3001
 6182TIP3    H118510   1.321   4.832   2.104  0.4231  0.2345 -0.4371
 6182TIP3    H218511   1.449   4.752   2.096  0.1637 -0.2092 -0.2348
 6183TIP3   OH218512   1.978   4.924   0.037  0.2610 -0.1860 -0.2433
 6183TIP3    H118513   2.062   4.882   0.055  0.4586 -0.2657 -1.3017
 6183TIP3    H218514   1.915   4.875   0.090  1.0299  0.6754  1.5636
 6184TIP3   OH218515   7.082   3.268   0.369 -0.1983  0.1300 -0.4206
 6184TIP3    H118516   7.049   3.240   0.455  2.1167 -0.4675  0.3509
 6184TIP3    H218517   7.108   3.359   0.382  2.2787 -0.5924  0.2772
 6185TIP3   OH218518   5.310   1.185   4.481  0.4435  0.1269  0.4821
 6185TIP3    H118519   5.231   1.132   4.472  0.8873 -0.4660  0.0452
 6185TIP3    H218520   5.341   1.199   4.392  1.5366 -0.7339  0.7012
 6186TIP3   OH218521   4.846   4.674   5.169  0.2801  0.0920  0.3769
 6186TIP3    H118522   4.754   4.682   5.144  0.8025  1.9205 -1.1747
 6186TIP3    H218523   4.893   4.726   5.105  2.4461 -0.9097  1.0527
 6187TIP3   OH218524   0.931   0.507   0.611 -0.7092  0.0294 -0.7430
 6187TIP3    H118525   0.856   0.529   0.555 -0.7250  1.2878 -0.2604
 6187TIP3    H218526   0.903   0.428   0.658 -1.8981  0.6797 -0.3059
 6188TIP3   OH218527   4.935   0.368   3.862 -0.2066  0.1868  0.3342
 6188TIP3    H118528   4.996   0.417   3.917  0.3176 -0.1720  0.0845
 6188TIP3    H218529   4.887   0.312   3.924  0.7170 -0.5671  0.3846
 6189TIP3   OH218530   0.160   6.610   3.318  0.5227  0.0416  0.1194
 6189TIP3    H118531   0.236   6.667   3.310  1.0030 -0.3742  1.4458
 6189TIP3    H218532   0.086   6.670   3.329  0.7845  0.4347 -0.2681
 6190TIP3   OH218533   2.976   2.731   0.490 -0.3804 -0.3631 -0.6772
 6190TIP3    H118534   2.881   2.727   0.483 -0.2374 -2.8692 -2.6812
 6190TIP3    H218535   3.002   2.806   0.437 -1.2184  0.8119  0.5100
 6191TIP3   OH218536   6.384   0.252   2.377  0.1292  0.4284 -0.3040
 6191TIP3    H118537   6.461   0.303   2.404 -0.8249  1.4731  0.5467
 6191TIP3    H218538   6.376   0.268   2.283 -0.1616  1.9052 -0.0467
 6192TIP3   OH218539   3.062   6.149   5.442  0.0803 -0.2354  0.3272
 6192TIP3    H118540   3.024   6.096   5.373 -1.5220  0.2080  0.8123
 6192TIP3    H218541   3.015   6.122   5.521 -1.1232  2.1165  0.5224
 6193TIP3   OH218542   6.628   2.162   5.391 -0.1872 -0.2904 -0.2612
 6193TIP3    H118543   6.664   2.196   5.473 -1.1341  0.8841 -0.3052
 6193TIP3    H218544   6.685   2.198   5.323  0.8617 -1.6213 -0.1192
 6194TIP3   OH218545   4.183   3.150   3.287 -0.1249 -0.3626 -0.0266
 6194TIP3    H118546   4.164   3.067   3.332  0.3288 -1.2394 -1.3783
 6194TIP3    H218547   4.213   3.208   3.356 -0.3695 -1.3587  0.9540
 6195TIP3   OH218548   1.119   6.471   1.538 -0.2027  0.1143  0.7294
 6195TIP3    H118549   1.190   6.504   1.592  0.7161 -0.9277  0.2140
 6195TIP3    H218550   1.116   6.377   1.556  0.9812 -0.5307 -1.8573
 6196TIP3   OH218551   2.889   3.949   5.636 -0.1418 -0.2836 -0.7676
 6196TIP3    H118552   2.867   3.860   5.609 -1.0474 -0.0475 -0.8327
 6196TIP3    H218553   2.805   3.989   5.658  0.3166  0.3697 -0.1649
 6197TIP3   OH218554   5.050   2.348   5.073  0.0882  0.0152  0.4224
 6197TIP3    H118555   5.048   2.429   5.124 -0.0697 -0.4819  1.2175
 6197TIP3    H218556   5.144   2.330   5.061  0.1915  1.7991 -2.2002
 6198TIP3   OH218557   4.660   1.271   0.232  0.3754 -0.5769 -0.1302
 6198TIP3    H118558   4.589   1.208   0.250 -0.7920  1.1111  1.5941
 6198TIP3    H218559   4.703   1.236   0.154 -1.9975 -1.9989 -0.9382
 6199TIP3   OH218560   1.588   3.637   1.934 -0.0395 -0.5405 -0.7358
 6199TIP3    H118561   1.525   3.581   1.888 -2.1551  1.4110 -0.3785
 6199TIP3    H218562   1.560   3.726   1.914  1.6031  0.4045  0.8584
 6200TIP3   OH218563   3.825   1.042   5.026  0.0702  0.1506  0.2237
 6200TIP3    H118564   3.784   1.084   5.101  0.7299  0.1956  0.5591
 6200TIP3    H218565   3.770   0.965   5.010  0.5192 -0.4346  1.4043
 6201TIP3   OH218566   2.836   4.787   3.092 -0.3518  0.0158  0.3571
 6201TIP3    H118567   2.840   4.882   3.080  0.0269 -0.2438 -1.8959
 6201TIP3    H218568   2.883   4.751   3.017 -0.4702 -1.9711  1.1816
 6202TIP3   OH218569   6.571   2.513   1.895 -0.1485 -0.6133 -0.3743
 6202TIP3    H118570   6.545   2.421   1.885  0.3696 -0.8495  0.3778
 6202TIP3    H218571   6.602   2.520   1.985 -0.6138  0.4179 -0.2714
 6203TIP3   OH218572   0.238   6.300   1.020  0.8954 -0.0018 -0.3724
 6203TIP3    H118573   0.295   6.334   0.950 -1.4508 -0.7575 -2.7844
 6203TIP3    H218574   0.176   6.371   1.037  0.1615 -0.5827 -0.5810
 6204TIP3   OH218575   0.061   4.908   4.942 -0.8104  0.4663  0.3247
 6204TIP3    H118576   0.028   4.882   4.856 -0.1057  0.7219 -0.0325
 6204TIP3    H218577   0.059   4.827   4.994  2.5654 -0.7677 -1.1543
 6205TIP3   OH218578   5.365   1.247   4.213  0.2978  0.7473  0.1938
 6205TIP3    H118579   5.350   1.160   4.177 -1.0183  1.3822 -0.8700
 6205TIP3    H218580   5.362   1.305   4.137  0.3696  1.8044  0.9819
 6206TIP3   OH218581   6.250   3.008   2.952 -0.2852  0.1647 -0.0279
 6206TIP3    H118582   6.216   2.919   2.945  1.4660 -0.6252  0.8887
 6206TIP3    H218583   6.282   3.029   2.864  0.3665 -0.5944  0.0185
 6207TIP3   OH218584   1.973   2.621   3.316 -0.2369 -0.4015 -0.1255
 6207TIP3    H118585   2.001   2.556   3.381 -0.2712 -1.6307 -1.2939
 6207TIP3    H218586   1.998   2.582   3.232  0.8712  1.6577 -0.8231
 6208TIP3   OH218587   2.092   5.446   4.067 -1.0193 -0.5766 -0.3605
 6208TIP3    H118588   2.149   5.396   4.009 -0.6693 -1.0040  0.3342
 6208TIP3    H218589   2.148   5.473   4.140 -1.0063  1.4895 -1.0605
 6209TIP3   OH218590   0.384   2.078   1.776  0.0752  0.4129 -1.3257
 6209TIP3    H118591   0.453   2.057   1.839 -0.2777 -1.3181 -1.4753
 6209TIP3    H218592   0.361   2.169   1.796  1.0459  0.4008  0.0164
 6210TIP3   OH218593   1.361   1.002   0.102  0.4976 -0.1614  0.0843
 6210TIP3    H118594   1.371   0.908   0.118 -0.4191 -0.4402 -0.8657
 6210TIP3    H218595   1.358   1.041   0.190 -3.1447 -1.4747  0.7348
 6211TIP3   OH218596   4.130   3.530   5.183 -0.2580 -0.2177  0.0591
 6211TIP3    H118597   4.218   3.565   5.171 -0.7785  0.7838 -0.9814
 6211TIP3    H218598   4.116   3.473   5.108 -0.7136  0.0948 -0.0977
 6212TIP3   OH218599   4.595   3.249   0.900  0.3482 -0.2850  0.4009
 6212TIP3    H118600   4.665   3.221   0.841  0.1890  1.4263 -0.6841
 6212TIP3    H218601   4.636   3.250   0.987  1.9505  1.3958 -0.3077
 6213TIP3   OH218602   5.104   6.619   5.024 -0.1153  0.3536 -0.1817
 6213TIP3    H118603   5.055   6.574   5.093 -0.6853  0.4935 -0.4849
 6213TIP3    H218604   5.151   6.689   5.069  0.5211 -0.3392  0.2465
 6214TIP3   OH218605   1.999   5.846   1.227 -0.0346  0.2395 -0.3064
 6214TIP3    H118606   1.989   5.877   1.136  0.3889 -0.0951 -0.4678
 6214TIP3    H218607   1.988   5.751   1.221  0.7121  0.1407 -0.1145
 6215TIP3   OH218608   4.270   0.186   5.622 -0.2708  0.7321  0.2957
 6215TIP3    H118609   4.250   0.167   5.714 -0.8945 -0.9570 -0.1453
 6215TIP3    H218610   4.184   0.192   5.580 -0.0399 -2.2254 -0.8249
 6216TIP3   OH218611   1.211   1.153   3.295  0.1575  0.0546 -0.3928
 6216TIP3    H118612   1.292   1.113   3.326  0.2398  1.2760  1.0591
 6216TIP3    H218613   1.177   1.201   3.370 -1.7884 -0.1949 -1.0410
 6217TIP3   OH218614   7.051   0.316   5.793 -0.4294  0.2182 -0.1891
 6217TIP3    H118615   6.980   0.377   5.811  0.0917  0.9432 -0.5395
 6217TIP3    H218616   7.008   0.231   5.782 -1.1029  0.4152  0.8512
 6218TIP3   OH218617   0.794   2.485   0.440  0.4247  0.0872 -0.6759
 6218TIP3    H118618   0.849   2.559   0.462 -0.0799  0.0883  0.6897
 6218TIP3    H218619   0.714   2.523   0.405  0.1285  0.2011  0.1133
 6219TIP3   OH218620   1.962   5.876   0.202  0.2226 -0.3824  0.3843
 6219TIP3    H118621   1.966   5.909   0.112 -3.0497 -0.4387  0.0712
 6219TIP3    H218622   1.961   5.781   0.193  1.3619 -0.4297  0.6332
 6220TIP3   OH218623   1.507   0.826   2.424 -0.0695  0.2586  0.3460
 6220TIP3    H118624   1.471   0.848   2.338 -0.5015 -0.3764  0.3582
 6220TIP3    H218625   1.465   0.743   2.447 -0.2134  0.5926  1.3270
 6221TIP3   OH218626   5.820   5.102   4.767 -0.2720 -0.0955  0.3194
 6221TIP3    H118627   5.734   5.083   4.730  0.1163 -1.3740  0.0187
 6221TIP3    H218628   5.865   5.018   4.767  0.8328  0.4745  0.8682
 6222TIP3   OH218629   4.347   2.157   3.392  0.3605 -0.2295  0.5152
 6222TIP3    H118630   4.269   2.183   3.343  0.0332  0.4207  1.3671
 6222TIP3    H218631   4.415   2.218   3.363  0.8535 -1.3884 -0.9469
 6223TIP3   OH218632   5.449   2.510   2.908 -0.1996  0.3688  0.0002
 6223TIP3    H118633   5.391   2.585   2.899 -0.5630 -0.0610 -1.6247
 6223TIP3    H218634   5.534   2.548   2.930 -0.8203  1.0839  1.2618
 6224TIP3   OH218635   4.979   3.526   5.028  0.1583  0.1946 -0.5131
 6224TIP3    H118636   5.016   3.612   5.048  0.9266 -0.2692  0.0949
 6224TIP3    H218637   5.052   3.478   4.988  0.2678 -0.7709  0.8081
 6225TIP3   OH218638   6.142   1.512   3.584 -0.7247  0.4626  0.1304
 6225TIP3    H118639   6.106   1.443   3.528 -1.1781  1.0458 -0.3122
 6225TIP3    H218640   6.208   1.555   3.528 -0.3556  0.3134  0.4456
 6226TIP3   OH218641   1.721   4.149   2.804  0.1008 -0.0248  0.0876
 6226TIP3    H118642   1.792   4.189   2.853 -0.2074  0.0292  0.4951
 6226TIP3    H218643   1.676   4.223   2.763  0.7198 -0.1154 -0.7766
 6227TIP3   OH218644   1.248   3.905   5.536 -0.6081 -0.3112  0.6931
 6227TIP3    H118645   1.225   3.819   5.501  2.6190  0.2040 -3.4774
 6227TIP3    H218646   1.330   3.892   5.583  0.3251  0.4855 -0.6312
 6228TIP3   OH218647   6.509   4.067   1.501  0.0676 -0.0127 -0.1847
 6228TIP3    H118648   6.522   4.063   1.596 -1.3815  0.3632  0.0544
 6228TIP3    H218649   6.543   3.984   1.468 -0.6185 -0.7147  0.8331
 6229TIP3   OH218650   1.766   2.623   4.877 -0.0162 -0.1687  0.0603
 6229TIP3    H118651   1.835   2.593   4.937  1.2628  1.4542 -0.5100
 6229TIP3    H218652   1.694   2.648   4.935  0.7537  0.2733  0.8633
 6230TIP3   OH218653   5.069   3.799   1.745  0.0529  0.0391  0.4402
 6230TIP3    H118654   5.103   3.710   1.757 -1.0749 -0.5450 -0.4631
 6230TIP3    H218655   5.041   3.801   1.653 -0.5828  1.1004  0.6448
 6231TIP3   OH218656   1.722   5.515   2.843  0.0081  0.4173 -0.2250
 6231TIP3    H118657   1.751   5.524   2.934  1.7076  1.6007 -0.8296
 6231TIP3    H218658   1.628   5.532   2.846 -0.6679 -2.8441  1.7254
 6232TIP3   OH218659   1.821   0.842   0.858 -0.3263 -0.5228  0.1023
 6232TIP3    H118660   1.733   0.846   0.819 -0.5406  0.1424  0.6319
 6232TIP3    H218661   1.863   0.768   0.814 -0.9211 -0.4395 -0.6383
 6233TIP3   OH218662   3.372   0.063   1.148 -0.1376  0.3052 -0.2843
 6233TIP3    H118663   3.334   0.145   1.179 -0.8672 -0.4299  0.8099
 6233TIP3    H218664   3.410   0.022   1.225 -1.7249 -1.4129 -0.3449
 6234TIP3   OH218665   5.074   4.560   4.528 -0.1592  0.2346 -0.5826
 6234TIP3    H118666   5.077   4.643   4.480  0.3857  0.3110 -0.4212
 6234TIP3    H218667   4.995   4.517   4.496  0.7646 -0.2210 -2.4233
 6235TIP3   OH218668   3.101   1.037   5.351  0.0055 -0.4565 -0.5994
 6235TIP3    H118669   3.091   0.978   5.426  0.3935  1.5631  1.1406
 6235TIP3    H218670   3.190   1.022   5.320  0.4852 -0.0648  0.5295
 6236TIP3   OH218671   4.327   1.579   2.310 -0.1345 -0.3248  0.2981
 6236TIP3    H118672   4.270   1.615   2.241 -0.8958 -1.1637  0.4681
 6236TIP3    H218673   4.286   1.607   2.392  1.9828  2.6182  0.5290
 6237TIP3   OH218674   4.725   1.498   3.976  0.7457 -0.4176  0.0956
 6237TIP3    H118675   4.790   1.436   3.943  0.1609 -0.7546 -0.4398
 6237TIP3    H218676   4.753   1.582   3.939  0.4376 -0.6909 -0.7932
 6238TIP3   OH218677   5.786   0.573   5.338  0.0530  0.0913  0.2544
 6238TIP3    H118678   5.825   0.584   5.425  0.7263 -1.1623  0.1508
 6238TIP3    H218679   5.773   0.478   5.331 -0.4685  0.2383 -0.8095
 6239TIP3   OH218680   1.445   2.816   5.706  0.2752 -0.3034  0.1779
 6239TIP3    H118681   1.411   2.847   5.622 -1.6634  1.0557  1.3781
 6239TIP3    H218682   1.493   2.890   5.741  0.4042 -0.5935  0.6216
 6240TIP3   OH218683   5.016  -0.028   1.417 -0.1181  0.2216  0.5665
 6240TIP3    H118684   4.933  -0.019   1.371  0.2439 -0.6220 -0.2824
 6240TIP3    H218685   5.037   0.061   1.445 -1.5559  0.3642  1.2659
 6241TIP3   OH218686   1.563   2.797   0.499 -0.0540 -0.3565  0.4045
 6241TIP3    H118687   1.498   2.740   0.539 -0.8937 -0.6079 -1.2181
 6241TIP3    H218688   1.644   2.747   0.502 -0.8670 -1.9414 -1.4403
 6242TIP3   OH218689   0.600   3.834   0.783 -0.1129 -0.4198 -0.1704
 6242TIP3    H118690   0.565   3.780   0.712 -0.6019 -0.2596 -0.0557
 6242TIP3    H218691   0.538   3.906   0.791  0.8522  0.5026 -0.7295
 6243TIP3   OH218692   5.058   3.030   5.651 -0.0464  0.0532 -0.2436
 6243TIP3    H118693   5.111   3.108   5.638 -1.0119  0.8305  0.3570
 6243TIP3    H218694   5.119   2.965   5.685  0.5687  0.8573  0.2088
 6244TIP3   OH218695   5.919   6.411   1.994  0.6979  0.5012 -0.5641
 6244TIP3    H118696   5.824   6.401   1.991  0.7078  0.1260  0.0453
 6244TIP3    H218697   5.949   6.375   1.911  0.4466 -1.3986  0.1101
 6245TIP3   OH218698   0.371   6.412   5.577  0.5441 -0.5681  0.5184
 6245TIP3    H118699   0.300   6.362   5.617 -1.9636  2.8380  0.7708
 6245TIP3    H218700   0.390   6.481   5.641  0.9542  1.2027 -1.4155
 6246TIP3   OH218701   5.177   3.329   0.133 -0.4188 -0.2122  0.0100
 6246TIP3    H118702   5.198   3.418   0.162  0.9238 -0.5883  0.2766
 6246TIP3    H218703   5.087   3.314   0.163 -0.2123  0.5980  1.0851
 6247TIP3   OH218704   0.334   3.321   0.677 -0.1096  0.0306 -0.2178
 6247TIP3    H118705   0.396   3.294   0.609  1.0878 -1.3789  1.3408
 6247TIP3    H218706   0.314   3.240   0.724 -0.1868  1.1033  1.6785
 6248TIP3   OH218707   4.385   4.150   2.235  0.2114 -0.1190 -0.1521
 6248TIP3    H118708   4.388   4.145   2.330  0.3299  1.0078 -0.0857
 6248TIP3    H218709   4.385   4.243   2.215 -0.6190 -0.3234 -1.2393
 6249TIP3   OH218710   6.282   6.177   5.635  0.5541 -0.3333 -0.0008
 6249TIP3    H118711   6.309   6.089   5.608  0.1083 -0.8314  1.1013
 6249TIP3    H218712   6.363   6.225   5.648  0.7879  0.0656 -2.5685
 6250TIP3   OH218713   3.445   6.421   0.748 -0.3750 -0.4312  0.2904
 6250TIP3    H118714   3.489   6.505   0.758 -0.1186 -0.7015  1.6336
 6250TIP3    H218715   3.394   6.430   0.667  0.7047  0.5221 -0.3127
 6251TIP3   OH218716   5.148   4.900   2.038 -0.4466  0.1661  0.4267
 6251TIP3    H118717   5.076   4.861   1.988 -0.0909  0.6902 -0.5194
 6251TIP3    H218718   5.206   4.937   1.972  1.7559 -1.9738  1.0289
 6252TIP3   OH218719   1.593   5.225   3.942 -0.5053 -0.2486 -0.2582
 6252TIP3    H118720   1.571   5.221   4.035 -0.1330  1.5592 -0.0517
 6252TIP3    H218721   1.689   5.234   3.941 -0.4436 -0.8742 -0.8587
 6253TIP3   OH218722   5.529   3.092   1.987  0.0226  0.5018  0.4846
 6253TIP3    H118723   5.462   3.101   2.054 -1.4666 -0.0889 -0.8656
 6253TIP3    H218724   5.576   3.175   1.988 -0.9672  1.0746  1.2107
 6254TIP3   OH218725   4.108   3.459   1.194  0.1611  0.4595  0.2651
 6254TIP3    H118726   4.014   3.472   1.180 -0.3990 -1.0009  2.1965
 6254TIP3    H218727   4.113   3.381   1.249  2.6297 -0.6345 -1.3349
 6255TIP3   OH218728   2.276   3.454   4.675  0.5646 -0.5458 -0.1210
 6255TIP3    H118729   2.279   3.460   4.579  0.5215 -1.1034 -0.1636
 6255TIP3    H218730   2.335   3.524   4.705 -1.5608  1.5034 -0.4581
 6256TIP3   OH218731   6.910   2.130   3.886  0.6123  0.8249 -0.1025
 6256TIP3    H118732   6.921   2.102   3.795 -2.8005 -0.6443 -0.1999
 6256TIP3    H218733   6.893   2.049   3.934 -0.5706  1.8544  1.3025
 6257TIP3   OH218734  -0.015   0.771   4.480 -0.4243 -0.1455  0.3967
 6257TIP3    H118735   0.014   0.705   4.544 -0.9036 -0.5311  0.2144
 6257TIP3    H218736   0.054   0.838   4.483  1.3829 -1.8254 -1.2415
 6258TIP3   OH218737   4.333   1.589   3.229 -0.0707 -0.0517 -0.0097
 6258TIP3    H118738   4.419   1.557   3.200  0.6153  0.2898  1.5545
 6258TIP3    H218739   4.353   1.658   3.292 -1.4844 -0.6471  1.1443
 6259TIP3   OH218740   6.163   5.307   3.926 -0.5547 -0.2741  0.3734
 6259TIP3    H118741   6.095   5.271   3.982 -0.9186  0.0523  0.1503
 6259TIP3    H218742   6.234   5.331   3.986 -0.7612 -0.3313  0.6418
 6260TIP3   OH218743   2.630   2.329   2.325 -0.4211 -0.0392 -0.1528
 6260TIP3    H118744   2.628   2.414   2.369  0.4233  0.2007 -0.5333
 6260TIP3    H218745   2.580   2.271   2.381 -2.4818  1.0769 -0.7153
 6261TIP3   OH218746   0.410   1.585   5.735 -0.3950  0.6447 -0.0625
 6261TIP3    H118747   0.422   1.626   5.821  0.2104  1.8033 -0.6753
 6261TIP3    H218748   0.484   1.617   5.683  0.6819 -1.9963 -0.3206
 6262TIP3   OH218749   6.947   5.161   3.755  0.4461 -0.2118  0.3032
 6262TIP3    H118750   6.971   5.146   3.846  1.7028  1.0569  0.2108
 6262TIP3    H218751   6.866   5.213   3.759  0.3117 -0.4461  0.6786
 6263TIP3   OH218752   5.162   2.819   0.300 -0.2048  0.4034 -0.2475
 6263TIP3    H118753   5.251   2.845   0.322  0.2833 -1.4334  0.0838
 6263TIP3    H218754   5.152   2.840   0.207  0.1670  1.6013 -0.0428
 6264TIP3   OH218755   4.590   1.222   4.131 -0.0204  0.0392  0.0334
 6264TIP3    H118756   4.599   1.265   4.216  1.9514  1.3757 -0.7912
 6264TIP3    H218757   4.580   1.293   4.068  1.0054 -0.7929 -1.1269
 6265TIP3   OH218758   4.735   4.603   0.798  0.2485  0.0932 -0.4051
 6265TIP3    H118759   4.681   4.569   0.869  1.5207 -0.8406  0.1414
 6265TIP3    H218760   4.780   4.679   0.835  0.2254  0.1472 -0.4867
 6266TIP3   OH218761   3.168   5.240   1.056 -0.0094  0.1976 -0.3830
 6266TIP3    H118762   3.177   5.245   0.960 -0.0227  0.5681 -0.3681
 6266TIP3    H218763   3.093   5.296   1.075 -0.5240 -0.5411 -0.2336
 6267TIP3   OH218764   0.921   2.306   4.291  0.1886  0.3037 -0.5979
 6267TIP3    H118765   0.998   2.252   4.311  0.2411 -0.1191 -1.8829
 6267TIP3    H218766   0.932   2.384   4.346  1.9504  0.6079 -1.3079
 6268TIP3   OH218767   3.857   0.410   1.036 -0.4951 -0.8402 -0.5701
 6268TIP3    H118768   3.885   0.387   0.948  1.8162  2.5060 -0.8771
 6268TIP3    H218769   3.927   0.465   1.071 -1.8789 -1.0071  2.9365
 6269TIP3   OH218770   5.578   6.178   1.596 -0.4308  0.0438 -0.6699
 6269TIP3    H118771   5.658   6.153   1.644 -0.9227  0.4947  0.4049
 6269TIP3    H218772   5.520   6.102   1.606  0.0058 -0.4686 -1.8304
 6270TIP3   OH218773   1.367   1.725   5.031  0.2672 -0.0046  0.6255
 6270TIP3    H118774   1.385   1.632   5.013  0.2755  0.0834  0.1674
 6270TIP3    H218775   1.380   1.734   5.125 -1.0314 -0.7657  0.9024
 6271TIP3   OH218776   5.930   2.492   5.713  0.1058 -0.3961  0.1943
 6271TIP3    H118777   5.861   2.428   5.699  0.8678 -1.0910 -0.4628
 6271TIP3    H218778   6.011   2.441   5.714  0.6213  0.4067  0.9183
 6272TIP3   OH218779   4.514   2.557   2.586 -0.0050 -0.0921 -0.1361
 6272TIP3    H118780   4.445   2.545   2.521 -1.7739  1.8099  1.2609
 6272TIP3    H218781   4.505   2.483   2.646 -0.0136 -0.4929 -0.6237
 6273TIP3   OH218782   1.988   3.889   2.140  0.7339  0.1080 -0.6917
 6273TIP3    H118783   1.920   3.956   2.154  1.5176  0.5411  1.3679
 6273TIP3    H218784   2.065   3.939   2.114  1.4378  0.1312  1.2484
 6274TIP3   OH218785   2.004   2.525   0.378 -0.4576  0.9361 -0.3057
 6274TIP3    H118786   2.051   2.443   0.389 -1.2649  0.3344 -1.1249
 6274TIP3    H218787   2.071   2.590   0.357 -0.0013  0.0327 -1.7982
 6275TIP3   OH218788   5.740   0.494   5.766  0.2051 -0.1434 -0.0440
 6275TIP3    H118789   5.680   0.563   5.737 -0.0149 -0.2005  0.2684
 6275TIP3    H218790   5.725   0.422   5.704 -0.0122 -0.1381  0.0026
 6276TIP3   OH218791   2.803   1.409   0.795  0.1896  0.5031 -0.0290
 6276TIP3    H118792   2.750   1.341   0.753  2.1516 -0.5567 -0.9195
 6276TIP3    H218793   2.848   1.365   0.866 -2.0172  1.9850  2.4942
 6277TIP3   OH218794   6.930   3.242   0.633  0.2840 -0.6604  0.5767
 6277TIP3    H118795   6.987   3.166   0.648  2.2552  0.9796  1.9805
 6277TIP3    H218796   6.871   3.242   0.708 -1.0805 -1.8796 -0.4460
 6278TIP3   OH218797   4.720   6.335   1.933  0.1057  0.2000  0.2974
 6278TIP3    H118798   4.786   6.384   1.884  1.0032 -0.7648  0.5067
 6278TIP3    H218799   4.671   6.287   1.865  1.3299 -1.1128  0.2918
 6279TIP3   OH218800   4.613   6.632   2.499  0.0190  0.1910  0.1857
 6279TIP3    H118801   4.706   6.655   2.501  0.2823 -0.1206 -2.9363
 6279TIP3    H218802   4.612   6.538   2.478 -0.9482  0.3348 -0.4988
 6280TIP3   OH218803   5.314   5.055   3.343  0.5559 -0.0322  0.4638
 6280TIP3    H118804   5.373   5.026   3.274  1.2487 -1.1860  1.4908
 6280TIP3    H218805   5.230   5.068   3.299  0.6582 -1.9304 -0.4153
 6281TIP3   OH218806   0.167   4.916   4.219  0.0760 -0.1166 -0.3508
 6281TIP3    H118807   0.259   4.905   4.241 -0.1585  0.3033  0.9056
 6281TIP3    H218808   0.165   4.996   4.165  0.4375 -0.0816 -0.3118
 6282TIP3   OH218809   3.746   4.457   2.649 -0.8929  0.0449  0.6459
 6282TIP3    H118810   3.793   4.428   2.727 -2.6467 -0.6119  1.5064
 6282TIP3    H218811   3.797   4.424   2.575  0.0352 -0.5350  1.5381
 6283TIP3   OH218812   0.757   5.262   2.755  0.3953 -0.2662 -0.1008
 6283TIP3    H118813   0.820   5.261   2.683  0.8920 -0.1939  0.3278
 6283TIP3    H218814   0.769   5.347   2.797 -0.6646  0.1421 -0.5976
 6284TIP3   OH218815   0.757   5.057   0.308 -1.3126  0.0380 -0.1571
 6284TIP3    H118816   0.808   5.053   0.227 -1.2544 -2.1146 -0.0533
 6284TIP3    H218817   0.803   5.122   0.362  0.1582 -0.4070 -0.8424
 6285TIP3   OH218818   6.249   1.547   0.531  0.0014 -0.7885  0.0982
 6285TIP3    H118819   6.245   1.553   0.626 -0.9331 -0.0975  0.0340
 6285TIP3    H218820   6.254   1.638   0.501  0.0854 -0.9894 -0.5186
 6286TIP3   OH218821   3.107   3.426   3.149 -0.8112  0.2601  0.2032
 6286TIP3    H118822   3.093   3.379   3.231 -0.8156  1.8038  1.1269
 6286TIP3    H218823   3.155   3.505   3.174  1.5011 -0.4220 -1.6351
 6287TIP3   OH218824   6.722   0.983   3.675 -0.5065 -0.1380  0.2058
 6287TIP3    H118825   6.654   0.916   3.687 -0.1109 -0.3888  1.1146
 6287TIP3    H218826   6.804   0.936   3.690 -0.1913  0.3959  0.1534
 6288TIP3   OH218827   1.674   3.952   2.980 -0.0080  0.0404 -0.3011
 6288TIP3    H118828   1.667   4.018   3.049  0.1082 -0.4250  0.1644
 6288TIP3    H218829   1.678   4.003   2.899  0.6967  0.6323  0.0844
 6289TIP3   OH218830   1.518   3.359   1.510  0.0092 -0.3791 -0.5327
 6289TIP3    H118831   1.504   3.264   1.512  1.0616 -0.5330  0.1563
 6289TIP3    H218832   1.447   3.392   1.455 -0.3010 -1.5762 -0.8881
 6290TIP3   OH218833   1.180   1.383   0.257 -0.0322  0.1523  0.1480
 6290TIP3    H118834   1.130   1.383   0.339  0.3834  0.2936  0.4074
 6290TIP3    H218835   1.182   1.291   0.230  0.4104  0.0046  0.6633
 6291TIP3   OH218836   1.611   4.908   1.904 -0.0535 -0.4505 -0.2112
 6291TIP3    H118837   1.603   4.987   1.958  2.1734 -0.5204  0.3492
 6291TIP3    H218838   1.541   4.915   1.840 -0.6871  1.3489  0.5993
 6292TIP3   OH218839   0.618   2.540   1.226  0.1643 -0.0856 -0.5097
 6292TIP3    H118840   0.632   2.634   1.237 -2.9343  0.5046 -0.7277
 6292TIP3    H218841   0.667   2.517   1.147  0.2644  1.5338 -0.9448
 6293TIP3   OH218842   2.175   5.169   0.880  0.5641 -0.2113  0.2029
 6293TIP3    H118843   2.207   5.130   0.799 -0.5003 -0.4683 -0.1193
 6293TIP3    H218844   2.188   5.101   0.947  0.8433 -0.2446  0.1143
 6294TIP3   OH218845   6.338   4.484   3.281  0.4923  0.0851 -0.1555
 6294TIP3    H118846   6.328   4.481   3.186 -0.1975 -1.0241 -0.0680
 6294TIP3    H218847   6.262   4.435   3.314  1.7521 -1.2556  0.8795
 6295TIP3   OH218848   2.368   1.960   2.947 -0.0577 -0.1641 -0.3057
 6295TIP3    H118849   2.342   1.871   2.971  0.6512 -0.7155 -1.4972
 6295TIP3    H218850   2.296   2.015   2.980 -1.0140 -1.2767 -0.4572
 6296TIP3   OH218851   4.928   5.134   0.111 -0.4227  0.0719 -0.0523
 6296TIP3    H118852   4.979   5.055   0.092 -0.5401  0.0679 -0.3481
 6296TIP3    H218853   4.882   5.114   0.192  0.9497  0.5024  0.8716
 6297TIP3   OH218854   1.328   2.914   1.757  0.1120 -0.2111 -0.3955
 6297TIP3    H118855   1.316   2.884   1.847  0.8695 -2.0571 -0.8521
 6297TIP3    H218856   1.240   2.926   1.723 -0.1774  0.8793  0.6839
 6298TIP3   OH218857   5.679   4.567   3.841  0.7632 -0.3993  0.8768
 6298TIP3    H118858   5.583   4.564   3.846  0.5756  0.4028 -1.2971
 6298TIP3    H218859   5.698   4.651   3.800  2.5366  0.2822  2.9190
 6299TIP3   OH218860   2.411   6.687   3.221 -0.0969 -0.3140  0.6279
 6299TIP3    H118861   2.353   6.651   3.154  0.2399 -0.5587  0.4632
 6299TIP3    H218862   2.490   6.712   3.174 -0.2477  0.4533  0.7770
 6300TIP3   OH218863   5.883   1.516   3.712 -0.2262  0.5170  0.1430
 6300TIP3    H118864   5.867   1.605   3.743  1.2915  1.1637 -0.7872
 6300TIP3    H218865   5.978   1.511   3.703 -0.3563 -0.8749 -0.7310
 6301TIP3   OH218866   3.819   3.409   0.659 -0.6092  0.5106  0.1994
 6301TIP3    H118867   3.867   3.430   0.738 -2.2964  0.5347  1.2654
 6301TIP3    H218868   3.737   3.371   0.690 -0.8337 -0.5527 -1.5553
 6302TIP3   OH218869   5.971   3.725   3.173  0.1452 -0.2883 -0.2477
 6302TIP3    H118870   6.048   3.769   3.139 -0.3332  0.0966 -0.8581
 6302TIP3    H218871   5.994   3.701   3.263  0.6013  0.7470 -0.0702
 6303TIP3   OH218872   6.741   6.416   4.383  0.4860  0.2498  0.2528
 6303TIP3    H118873   6.827   6.376   4.388  0.2023 -0.3681  0.3086
 6303TIP3    H218874   6.699   6.374   4.308 -0.9978 -1.9662  2.1607
 6304TIP3   OH218875   3.471   4.125   5.183 -0.7520  0.4624 -0.4649
 6304TIP3    H118876   3.552   4.166   5.213  0.0214 -0.8294 -0.7319
 6304TIP3    H218877   3.440   4.075   5.258 -0.9244  0.3809 -0.5897
 6305TIP3   OH218878   1.791   2.778   1.249 -0.2550  0.0547  0.2172
 6305TIP3    H118879   1.822   2.697   1.209  1.2475  0.7916 -0.1794
 6305TIP3    H218880   1.747   2.825   1.178  1.0610  0.6715 -0.2256
 6306TIP3   OH218881   6.426   1.744   4.707 -0.3967 -0.2652 -0.3540
 6306TIP3    H118882   6.500   1.780   4.657  0.6799 -3.4401 -1.3054
 6306TIP3    H218883   6.457   1.744   4.798 -0.4139  1.0680 -0.3320
 6307TIP3   OH218884   3.181   0.949   5.608 -0.3232 -0.4837  0.2533
 6307TIP3    H118885   3.152   0.861   5.584 -1.8046  0.0482 -0.0137
 6307TIP3    H218886   3.272   0.937   5.635 -0.3738 -2.0321 -0.1292
 6308TIP3   OH218887   0.309   4.206   4.442 -0.0690  0.0621  0.4860
 6308TIP3    H118888   0.235   4.248   4.485 -0.2378 -0.0507  0.3102
 6308TIP3    H218889   0.351   4.276   4.391  0.0668  0.1702  0.7478
 6309TIP3   OH218890   6.567   3.684   4.254 -0.2433  0.2284 -0.4030
 6309TIP3    H118891   6.656   3.711   4.232 -1.1571  2.3828 -1.8058
 6309TIP3    H218892   6.574   3.591   4.276  2.3880  0.4380 -0.0706
 6310TIP3   OH218893   5.702   5.882   5.220  0.1551 -0.1984 -0.2422
 6310TIP3    H118894   5.663   5.847   5.140 -2.3366  0.2901  0.6707
 6310TIP3    H218895   5.714   5.975   5.203  2.7423 -0.6148 -1.1380
 6311TIP3   OH218896   2.559   5.716   2.285  0.5981 -0.0086 -0.4667
 6311TIP3    H118897   2.544   5.811   2.285 -2.1018 -0.3535 -0.8707
 6311TIP3    H218898   2.473   5.679   2.302  1.7888 -2.4077  0.7895
 6312TIP3   OH218899   3.340   4.053   2.392  0.2944 -0.1380  0.1624
 6312TIP3    H118900   3.259   4.025   2.434 -0.2031  0.7194 -0.1890
 6312TIP3    H218901   3.312   4.090   2.308  1.3194 -2.6832 -1.4503
 6313TIP3   OH218902   0.555   0.221   2.867  0.5363  0.3682  0.2694
 6313TIP3    H118903   0.580   0.313   2.864  0.3957  0.3937 -0.1482
 6313TIP3    H218904   0.466   0.220   2.903  0.8965  0.3187  1.2039
 6314TIP3   OH218905   0.079   2.250   4.841 -0.2605 -0.2006 -0.6661
 6314TIP3    H118906   0.099   2.159   4.820  0.0620 -0.0976 -0.8091
 6314TIP3    H218907   0.052   2.248   4.932 -1.5447 -0.6319 -1.0424
 6315TIP3   OH218908   2.288   1.065   0.245  0.1398 -0.1939 -0.3612
 6315TIP3    H118909   2.242   1.102   0.169  0.1488 -0.7828 -0.6614
 6315TIP3    H218910   2.230   0.994   0.275  0.8445 -0.9570 -0.7553
 6316TIP3   OH218911   0.994   4.605   3.452  0.3576 -0.2599  0.0663
 6316TIP3    H118912   1.010   4.692   3.487  0.5701 -0.8760  1.6147
 6316TIP3    H218913   0.921   4.616   3.390 -0.5885  0.8020  1.3199
 6317TIP3   OH218914   6.189   2.152   3.080  0.8493 -0.4760  0.1751
 6317TIP3    H118915   6.264   2.095   3.065  1.8865  0.7859  0.3964
 6317TIP3    H218916   6.172   2.192   2.995  2.1548  1.2378  0.6638
 6318TIP3   OH218917   1.310   1.903   3.148 -0.3080 -0.0025 -0.4180
 6318TIP3    H118918   1.228   1.948   3.129  1.3136  3.2628 -0.4003
 6318TIP3    H218919   1.330   1.854   3.069 -1.8210 -0.1788 -0.7246
 6319TIP3   OH218920   0.593   5.329   1.898 -0.1512 -0.5645  0.0857
 6319TIP3    H118921   0.677   5.322   1.853 -0.5439 -0.4262 -0.6914
 6319TIP3    H218922   0.544   5.251   1.871 -1.2345  0.6123 -1.5871
 6320TIP3   OH218923   1.226   5.854   4.244 -0.4216  0.4521  0.0677
 6320TIP3    H118924   1.148   5.831   4.193 -1.2392  1.1030  0.9776
 6320TIP3    H218925   1.197   5.850   4.335  0.6996  0.4247  0.4455
 6321TIP3   OH218926   2.913   1.011   0.637  0.2625  0.3023 -0.3690
 6321TIP3    H118927   2.834   0.973   0.676 -0.5297  0.0087 -2.1543
 6321TIP3    H218928   2.951   0.940   0.586 -0.1523  1.2979 -2.1630
 6322TIP3   OH218929   5.101   4.591   3.025  0.2229  0.0213  0.1913
 6322TIP3    H118930   5.022   4.547   2.992  0.2663 -0.1022  0.2489
 6322TIP3    H218931   5.172   4.557   2.970  0.4586 -1.0030  1.0828
 6323TIP3   OH218932   0.656   0.127   1.102 -0.7959 -0.5670 -0.4094
 6323TIP3    H118933   0.581   0.151   1.155  0.4676  0.2568  1.0920
 6323TIP3    H218934   0.707   0.207   1.094  0.5952 -1.3881 -0.2101
 6324TIP3   OH218935   2.254   2.242   4.116  0.0268  0.1054  0.5133
 6324TIP3    H118936   2.330   2.188   4.093 -1.3967 -1.8822  0.2412
 6324TIP3    H218937   2.275   2.277   4.202  1.2208 -0.4766  0.4831
 6325TIP3   OH218938   5.292   4.822   1.801  0.3708  0.1770 -0.7852
 6325TIP3    H118939   5.246   4.898   1.765  0.8215 -0.1120 -2.0071
 6325TIP3    H218940   5.382   4.833   1.771  0.5913 -0.4758 -0.3739
 6326TIP3   OH218941   3.351   6.765   2.365  0.0650 -0.5421  0.3613
 6326TIP3    H118942   3.373   6.815   2.443 -2.1203  0.2310  0.5572
 6326TIP3    H218943   3.300   6.826   2.311  0.7308 -1.3498 -1.2745
 6327TIP3   OH218944   0.648   0.173   0.816 -0.1131  0.2121 -0.2896
 6327TIP3    H118945   0.660   0.187   0.910 -1.5485  0.3158 -0.0948
 6327TIP3    H218946   0.576   0.110   0.810 -0.5607  0.7949 -1.3200
 6328TIP3   OH218947   1.264   3.504   5.753 -0.1254 -0.5408  0.2425
 6328TIP3    H118948   1.270   3.443   5.827 -0.4716 -2.5147 -1.2692
 6328TIP3    H218949   1.179   3.546   5.764  0.2497 -0.0573  1.4845
 6329TIP3   OH218950   1.364   5.821   1.409  0.2118  0.2325  0.5068
 6329TIP3    H118951   1.366   5.784   1.320  1.4282 -1.1999  1.0778
 6329TIP3    H218952   1.453   5.852   1.424 -0.0576  0.7211  1.1395
 6330TIP3   OH218953   5.056   0.228   4.636 -0.3248  0.4229  0.0589
 6330TIP3    H118954   5.114   0.302   4.620  0.1897 -0.2527 -1.4809
 6330TIP3    H218955   5.109   0.151   4.614 -1.0715 -0.3542  0.8954
 6331TIP3   OH218956   6.325   5.178   4.918  0.8404  0.2242  0.2954
 6331TIP3    H118957   6.407   5.157   4.874 -0.3925  0.4547 -2.2584
 6331TIP3    H218958   6.301   5.265   4.884 -0.4363  0.1801  1.0335
 6332TIP3   OH218959   4.888   1.302   3.877  0.0613  0.3546  0.1518
 6332TIP3    H118960   4.934   1.238   3.931  1.6392  0.9700 -0.4058
 6332TIP3    H218961   4.956   1.362   3.848 -1.3400  2.1834  0.4728
 6333TIP3   OH218962   5.087   1.774   3.870 -0.6075  0.5215  0.3000
 6333TIP3    H118963   5.074   1.848   3.810 -0.3644  0.7343  0.5093
 6333TIP3    H218964   5.060   1.808   3.956  2.6951  1.5005  1.0935
 6334TIP3   OH218965   0.677   2.311   5.398  0.1256 -0.3851 -0.0335
 6334TIP3    H118966   0.694   2.292   5.491 -2.5243  0.3741  0.6885
 6334TIP3    H218967   0.654   2.226   5.361  0.7675 -0.6229  0.0986
 6335TIP3   OH218968   5.350   5.429   3.608 -0.2689  0.0068  0.4426
 6335TIP3    H118969   5.389   5.493   3.668  0.8547  1.4097 -1.6623
 6335TIP3    H218970   5.266   5.468   3.584  0.6481  1.0560 -1.2581
 6336TIP3   OH218971   4.684   4.138   0.048 -0.1438  0.5674 -0.3664
 6336TIP3    H118972   4.709   4.065   0.104 -1.2376 -0.9202 -1.7222
 6336TIP3    H218973   4.730   4.214   0.085  1.7504 -0.9453  0.5462
 6337TIP3   OH218974   2.277   4.087   3.124 -0.4963 -0.2447 -0.4634
 6337TIP3    H118975   2.334   4.147   3.076 -0.6571  0.5724  0.3394
 6337TIP3    H218976   2.189   4.106   3.090 -0.5328 -0.0797 -0.2853
 6338TIP3   OH218977   4.559   4.574   1.277 -0.0340 -0.0537 -0.2501
 6338TIP3    H118978   4.577   4.517   1.352 -1.9712 -0.7120 -0.2462
 6338TIP3    H218979   4.593   4.659   1.304  1.6567 -0.8538  0.2955
 6339TIP3   OH218980   3.730   1.784   5.859 -0.2431 -0.2768  0.5575
 6339TIP3    H118981   3.769   1.771   5.773  0.2088  1.6337  0.4375
 6339TIP3    H218982   3.759   1.709   5.910  1.1729 -0.4011 -0.3814
 6340TIP3   OH218983   5.631   4.916   5.233 -0.6797 -0.6373 -0.2578
 6340TIP3    H118984   5.602   4.980   5.169 -0.4541 -0.9286 -0.6634
 6340TIP3    H218985   5.659   4.967   5.309  0.1185 -0.2054 -0.8234
 6341TIP3   OH218986   6.484   4.277   5.073 -0.1590 -1.0969  0.0345
 6341TIP3    H118987   6.442   4.353   5.032 -1.7942 -0.7763  2.1108
 6341TIP3    H218988   6.447   4.202   5.026  0.7760 -0.6828 -1.4279
 6342TIP3   OH218989   1.333   2.914   5.083 -0.6285 -0.2019  0.0090
 6342TIP3    H118990   1.329   3.008   5.065  0.7162 -0.3760 -1.3712
 6342TIP3    H218991   1.245   2.882   5.065 -0.4801  0.4007 -1.9829
 6343TIP3   OH218992   2.150   6.553   1.092  0.3151 -0.2812  0.2127
 6343TIP3    H118993   2.181   6.530   1.179 -0.3108  1.2098  0.8614
 6343TIP3    H218994   2.115   6.642   1.101  1.2919  0.3961 -1.7909
 6344TIP3   OH218995   2.002   0.700   0.677 -0.4234 -0.5465  0.2813
 6344TIP3    H118996   1.966   0.638   0.614  0.3885 -0.3899 -0.3468
 6344TIP3    H218997   2.097   0.694   0.667 -0.1970 -1.4880  2.4284
 6345TIP3   OH218998   7.204   5.425   5.635  0.1223 -0.2574  0.0813
 6345TIP3    H118999   7.150   5.346   5.627  1.3691 -1.1908  0.5815
 6345TIP3    H219000   7.209   5.460   5.546 -1.0000 -0.3467 -0.0325
 6346TIP3   OH219001   1.127   4.801   4.968 -0.3046 -0.1390  0.2828
 6346TIP3    H119002   1.184   4.736   5.008  0.2484  0.9027  1.2606
 6346TIP3    H219003   1.039   4.766   4.979  0.0096 -0.8668  0.5026
 6347TIP3   OH219004   0.696   2.813   5.825 -0.0517  0.0412  0.8506
 6347TIP3    H119005   0.741   2.848   5.902  0.1202  1.6897  0.0410
 6347TIP3    H219006   0.629   2.878   5.805  1.6661  1.1400 -1.9801
 6348TIP3   OH219007   2.361   2.469   5.784 -0.4105 -0.1657  0.1612
 6348TIP3    H119008   2.322   2.520   5.714  0.1808  0.6542  0.4104
 6348TIP3    H219009   2.327   2.508   5.865  1.2493  0.8879  0.3995
 6349TIP3   OH219010   1.849   2.221   0.207  0.9451 -0.0961  0.2701
 6349TIP3    H119011   1.937   2.255   0.190  1.6807 -1.3466  1.4497
 6349TIP3    H219012   1.854   2.129   0.182 -0.4504  0.1474 -0.9899
 6350TIP3   OH219013   5.366   3.802   5.474 -0.2050  0.2997 -0.1484
 6350TIP3    H119014   5.386   3.750   5.552 -1.4539 -1.4083 -0.9156
 6350TIP3    H219015   5.352   3.737   5.405 -2.8985  1.5563 -0.9027
 6351TIP3   OH219016   3.209   5.669   2.574 -0.1416 -0.0295 -0.0784
 6351TIP3    H119017   3.233   5.578   2.589 -0.5594 -0.0992  0.1896
 6351TIP3    H219018   3.156   5.693   2.651 -0.0288  0.4376 -0.1411
 6352TIP3   OH219019   6.340   2.102   2.768 -0.2544 -0.5024 -0.1008
 6352TIP3    H119020   6.332   2.196   2.778 -0.1565 -0.6521  1.6989
 6352TIP3    H219021   6.379   2.072   2.851  2.2735 -1.8229 -1.6437
 6353TIP3   OH219022   2.173   4.339   4.818 -0.7747  0.5407  0.5465
 6353TIP3    H119023   2.243   4.317   4.878  0.3069  1.4969 -0.3216
 6353TIP3    H219024   2.116   4.262   4.817  1.3962 -1.1636 -0.3519
 6354TIP3   OH219025   1.289   1.155   4.041  0.1644 -0.0108 -0.4288
 6354TIP3    H119026   1.336   1.129   3.962  0.2517 -0.8958 -0.1065
 6354TIP3    H219027   1.197   1.155   4.015  0.3033  1.8111 -1.0854
 6355TIP3   OH219028   5.643   2.608   4.811 -0.1317 -0.4521  0.3573
 6355TIP3    H119029   5.653   2.702   4.826  0.3005 -0.1883 -1.3930
 6355TIP3    H219030   5.706   2.568   4.871  1.0675  0.4979 -0.2226
 6356TIP3   OH219031   6.227   6.745   4.052 -0.0819 -0.4262  0.3574
 6356TIP3    H119032   6.153   6.787   4.009 -0.6399 -0.6990  1.0243
 6356TIP3    H219033   6.303   6.768   3.998 -0.2048  2.1552  1.1303
 6357TIP3   OH219034   1.774   6.641   4.740  0.1748  1.0391  0.2277
 6357TIP3    H119035   1.718   6.661   4.665 -0.2255  2.9125  0.9732
 6357TIP3    H219036   1.722   6.580   4.793  0.4777 -0.3376 -0.9801
 6358TIP3   OH219037   4.082   1.152   0.469  0.0263  0.0925 -0.1558
 6358TIP3    H119038   4.079   1.227   0.410 -0.2548 -0.0666 -0.3491
 6358TIP3    H219039   4.013   1.094   0.437 -1.1854  0.6898  1.2687
 6359TIP3   OH219040   1.858   6.440   1.806  0.6320  0.3903 -0.4350
 6359TIP3    H119041   1.770   6.408   1.785  1.6658 -1.8665 -1.5433
 6359TIP3    H219042   1.848   6.535   1.809 -1.9313  0.1817 -0.0740
 6360TIP3   OH219043   3.888   4.780   4.654  0.4072 -0.3541 -0.2896
 6360TIP3    H119044   3.813   4.749   4.603 -0.8197  0.1576  1.1370
 6360TIP3    H219045   3.849   4.818   4.733  2.0818  1.6272 -0.3653
 6361TIP3   OH219046   1.798   6.612   0.818 -0.5861 -0.2393  0.3562
 6361TIP3    H119047   1.830   6.580   0.733  0.6655  0.2248  0.6310
 6361TIP3    H219048   1.725   6.670   0.796  0.5023  0.8531 -0.5168
 6362TIP3   OH219049   6.904   1.007   5.124 -0.0075 -0.2808  0.0559
 6362TIP3    H119050   6.819   1.033   5.159 -0.3241 -2.4251  1.0765
 6362TIP3    H219051   6.894   1.015   5.029 -1.8686 -1.7249  0.0586
 6363TIP3   OH219052   5.791   1.359   3.949  0.1215  0.7361  0.0032
 6363TIP3    H119053   5.799   1.428   4.014  0.1655  1.8360 -1.1208
 6363TIP3    H219054   5.841   1.286   3.985 -0.5502  1.0132  1.5589
 6364TIP3   OH219055   1.321   3.032   2.272 -0.2566 -0.4893 -0.4723
 6364TIP3    H119056   1.246   3.089   2.254  0.4694  0.8513  0.6200
 6364TIP3    H219057   1.283   2.944   2.276 -1.6439  0.0738 -0.6853
 6365TIP3   OH219058   6.570   6.341   0.388  0.0164 -0.0248 -1.0350
 6365TIP3    H119059   6.513   6.333   0.464  1.3092  1.7637  0.2104
 6365TIP3    H219060   6.520   6.391   0.325 -0.9640 -1.2787 -1.2947
 6366TIP3   OH219061   0.480   5.083   0.105  0.6024 -0.5447  0.8695
 6366TIP3    H119062   0.535   5.112   0.032  0.7233  0.5861  1.3965
 6366TIP3    H219063   0.462   4.991   0.086  1.8699 -0.6722  0.1866
 6367TIP3   OH219064   4.149   5.224   3.146  0.4083 -0.3378  0.1748
 6367TIP3    H119065   4.069   5.219   3.092  0.5006  0.7662 -0.0848
 6367TIP3    H219066   4.117   5.225   3.236 -0.0223  1.7628  0.0580
 6368TIP3   OH219067   6.449   2.187   4.228  0.2654 -0.2626 -0.0146
 6368TIP3    H119068   6.534   2.228   4.245  0.5799 -0.3649 -1.2430
 6368TIP3    H219069   6.453   2.103   4.274  0.8399 -0.2716 -0.0697
 6369TIP3   OH219070   4.288   3.423   4.178 -0.2865  0.4735 -0.1791
 6369TIP3    H119071   4.333   3.357   4.125 -1.9061  0.0685 -1.1251
 6369TIP3    H219072   4.325   3.506   4.148  1.7510  0.0719  0.9931
 6370TIP3   OH219073   4.483   0.333   4.170  0.2128 -1.1789 -0.1358
 6370TIP3    H119074   4.565   0.340   4.220  0.1090  0.8657 -0.1423
 6370TIP3    H219075   4.505   0.363   4.082 -0.7261  0.4678  0.1423
 6371TIP3   OH219076   4.308   0.144   3.435  0.2329 -0.2197  0.0503
 6371TIP3    H119077   4.329   0.051   3.430 -1.4328 -0.5632 -2.9921
 6371TIP3    H219078   4.252   0.160   3.359 -0.9896  2.9159  1.4513
 6372TIP3   OH219079   4.889   3.880   4.003 -0.2373 -0.1263 -0.7578
 6372TIP3    H119080   4.900   3.874   4.098 -1.0102  1.4252 -0.5473
 6372TIP3    H219081   4.916   3.794   3.971 -0.8875 -1.0189  0.9551
 6373TIP3   OH219082   5.367   4.334   2.402 -0.1438  0.1673  0.1494
 6373TIP3    H119083   5.324   4.327   2.317  2.2107 -2.1390 -1.0015
 6373TIP3    H219084   5.319   4.274   2.459 -1.1048  0.9509  0.1873
 6374TIP3   OH219085   0.395   0.467   5.170 -0.5083  0.0846  0.2711
 6374TIP3    H119086   0.412   0.558   5.194 -1.1792  0.1107  0.6729
 6374TIP3    H219087   0.453   0.415   5.226 -1.0036  0.2131  0.9096
 6375TIP3   OH219088   0.187   1.110   5.755  0.4611 -0.0657  0.1370
 6375TIP3    H119089   0.243   1.065   5.692  0.5825  0.4473 -0.1244
 6375TIP3    H219090   0.202   1.203   5.739 -0.1862  0.0749  0.3134
 6376TIP3   OH219091   5.591   1.903   0.487  0.0517  0.3199  0.5258
 6376TIP3    H119092   5.659   1.900   0.420 -0.7192 -0.4454 -0.2483
 6376TIP3    H219093   5.553   1.815   0.486 -1.8731  1.1147 -0.0550
 6377TIP3   OH219094   5.473   1.765   0.709  0.3350 -0.4169  0.2012
 6377TIP3    H119095   5.381   1.788   0.693  0.9421  1.1863 -1.2528
 6377TIP3    H219096   5.479   1.673   0.682 -0.8969 -0.6404  0.6145
 6378TIP3   OH219097   5.668   2.495   5.866  0.5592  0.2268  0.0174
 6378TIP3    H119098   5.741   2.477   5.925 -1.6703 -2.5210  2.2174
 6378TIP3    H219099   5.672   2.423   5.802 -0.6978 -0.5220  0.7454
 6379TIP3   OH219100   5.445   6.564   5.506  0.0410  0.2564 -0.1684
 6379TIP3    H119101   5.478   6.481   5.472  2.1110  0.5531  0.9616
 6379TIP3    H219102   5.425   6.545   5.598 -3.1998  0.0822 -0.7690
 6380TIP3   OH219103   1.741   0.300   3.356  0.0565 -0.6960  0.3576
 6380TIP3    H119104   1.798   0.275   3.284 -1.5618 -0.5719 -1.0360
 6380TIP3    H219105   1.749   0.395   3.361  1.8029 -0.8618  1.8318
 6381TIP3   OH219106   5.252   2.119   1.203  0.4321  0.7859 -0.0333
 6381TIP3    H119107   5.345   2.139   1.215  0.5232  0.9103 -0.9081
 6381TIP3    H219108   5.206   2.185   1.256  0.8408  0.3172  0.9462
 6382TIP3   OH219109   2.156   3.683   1.578 -0.4095 -0.4910 -0.6007
 6382TIP3    H119110   2.188   3.764   1.540 -0.7045  0.0110  0.2020
 6382TIP3    H219111   2.196   3.614   1.525  2.5699  0.0557  0.7311
 6383TIP3   OH219112   6.778   2.193   4.522 -0.1205 -0.3081  0.4603
 6383TIP3    H119113   6.720   2.243   4.463 -1.0279 -1.0701  0.6778
 6383TIP3    H219114   6.743   2.104   4.518  0.1225 -0.4664  1.7643
 6384TIP3   OH219115   3.654   4.034   1.560  0.2856 -0.1804 -0.5032
 6384TIP3    H119116   3.675   3.949   1.598  0.8789  0.5326  0.8371
 6384TIP3    H219117   3.649   4.018   1.466 -0.3223 -1.8242 -0.2190
 6385TIP3   OH219118   5.470   5.200   3.556  0.0518  0.3531 -0.3413
 6385TIP3    H119119   5.423   5.174   3.476 -0.4167  2.0149 -0.6392
 6385TIP3    H219120   5.434   5.286   3.578  0.2131 -0.0527  1.6482
 6386TIP3   OH219121   3.625   3.006   5.467  0.3968 -0.5749  0.2840
 6386TIP3    H119122   3.530   3.022   5.472  0.3827  0.5717 -2.0585
 6386TIP3    H219123   3.634   2.941   5.397  1.3780  0.1452 -0.2762
 6387TIP3   OH219124   6.684   5.471   1.874  0.2912 -0.3533 -0.2213
 6387TIP3    H119125   6.690   5.566   1.877 -1.0173 -0.1670 -1.8239
 6387TIP3    H219126   6.593   5.451   1.898  0.9129 -1.3270  1.4806
 6388TIP3   OH219127   0.414   3.997   1.854  0.4002 -0.3114 -0.7677
 6388TIP3    H119128   0.509   3.981   1.859  0.8382  1.9743 -0.6825
 6388TIP3    H219129   0.403   4.085   1.891 -1.7348 -0.4100 -1.0706
 6389TIP3   OH219130   4.127   4.804   3.742  0.4667 -0.0167  0.2961
 6389TIP3    H119131   4.133   4.865   3.815 -1.2497  0.1293  0.3521
 6389TIP3    H219132   4.157   4.720   3.777  0.1312  0.1664  1.0225
 6390TIP3   OH219133   5.841   4.370   3.700 -0.2437 -0.2096  0.1151
 6390TIP3    H119134   5.915   4.357   3.760 -0.3317  2.6687  0.9727
 6390TIP3    H219135   5.776   4.418   3.752 -0.6334  1.7435 -2.0421
 6391TIP3   OH219136   1.464   4.702   2.764 -0.0975 -0.0630  0.5012
 6391TIP3    H119137   1.475   4.650   2.844 -0.7705 -0.7028  0.1865
 6391TIP3    H219138   1.405   4.650   2.709  0.4571  0.3017 -0.4740
 6392TIP3   OH219139   3.689   6.765   2.495  0.1723 -0.0719 -0.1003
 6392TIP3    H119140   3.635   6.832   2.453  0.3369 -0.3708 -0.8099
 6392TIP3    H219141   3.715   6.804   2.579  0.6750  0.9657 -0.7076
 6393TIP3   OH219142   0.978   6.364   4.032 -0.4223 -0.3346  0.2670
 6393TIP3    H119143   0.899   6.313   4.013 -0.7377  0.3130 -0.1882
 6393TIP3    H219144   0.952   6.455   4.017  0.9305 -0.2258 -1.8066
 6394TIP3   OH219145   2.803   6.760   4.674  0.2263 -0.2812 -0.1233
 6394TIP3    H119146   2.888   6.765   4.632  0.5328 -1.5009  0.3174
 6394TIP3    H219147   2.818   6.795   4.762  0.4551 -1.1672  0.1993
 6395TIP3   OH219148   1.157   2.934   4.373  0.6789 -0.1167  0.0862
 6395TIP3    H119149   1.253   2.926   4.374  1.0007  2.8571 -0.1056
 6395TIP3    H219150   1.134   2.929   4.280  0.6779 -0.3894  0.0993
 6396TIP3   OH219151   6.852   1.328   2.480 -0.7856  0.7953  0.2307
 6396TIP3    H119152   6.822   1.238   2.467 -2.7804  1.4416  0.1744
 6396TIP3    H219153   6.813   1.377   2.408 -1.7267  2.1390  1.5975
 6397TIP3   OH219154   6.289   2.435   1.685 -0.2517  0.1980 -0.1355
 6397TIP3    H119155   6.264   2.344   1.669  1.7950 -0.5706  0.6824
 6397TIP3    H219156   6.368   2.448   1.633 -0.9817  1.8100 -0.9136
 6398TIP3   OH219157   0.886   0.827   1.887  0.1028  0.1981 -0.0181
 6398TIP3    H119158   0.805   0.879   1.887 -0.1525 -0.0595  2.6132
 6398TIP3    H219159   0.857   0.738   1.905  0.9561  0.2056  1.6140
 6399TIP3   OH219160   6.357   0.700   0.239 -0.0719 -0.3254  0.3418
 6399TIP3    H119161   6.402   0.704   0.324 -0.5367  1.6266  0.5364
 6399TIP3    H219162   6.378   0.783   0.197 -1.3324 -0.5133 -0.7007
 6400TIP3   OH219163   6.371   4.466   4.514 -0.0143 -0.6451 -0.4217
 6400TIP3    H119164   6.406   4.419   4.589  0.4216 -1.3207 -1.0361
 6400TIP3    H219165   6.285   4.427   4.499 -1.0818  0.9980  1.0727
 6401TIP3   OH219166   0.119   4.852   2.661 -0.3562  0.3463 -0.0407
 6401TIP3    H119167   0.184   4.852   2.591 -0.7380 -0.7271 -0.4354
 6401TIP3    H219168   0.050   4.910   2.629 -1.1209 -1.0927 -1.2027
 6402TIP3   OH219169   2.530   6.670   4.683 -0.0471  0.3204 -0.0747
 6402TIP3    H119170   2.524   6.575   4.685 -0.9985  0.3663  0.2471
 6402TIP3    H219171   2.623   6.690   4.680  0.1870 -0.6093  0.7958
 6403TIP3   OH219172   4.854   4.005   1.226 -0.0127  0.4983  0.1002
 6403TIP3    H119173   4.920   4.054   1.178  0.0887 -0.5022 -0.8377
 6403TIP3    H219174   4.773   4.054   1.212  0.3950  1.3398  0.6533
 6404TIP3   OH219175   6.460   4.439   2.085 -0.3026 -0.0706  0.2218
 6404TIP3    H119176   6.553   4.415   2.089 -0.1722  0.1987 -0.8983
 6404TIP3    H219177   6.431   4.434   2.176  0.2830 -2.2302  0.3664
 6405TIP3   OH219178   5.548   0.453   0.174 -0.2927 -0.9631 -0.4577
 6405TIP3    H119179   5.573   0.423   0.087  0.4455 -0.9517 -0.2606
 6405TIP3    H219180   5.629   0.489   0.211 -0.8388 -0.0046 -0.1592
 6406TIP3   OH219181   5.906   1.932   1.130  0.1466 -0.3024 -0.0408
 6406TIP3    H119182   5.969   1.860   1.128  0.5060 -0.0004  0.1704
 6406TIP3    H219183   5.960   2.011   1.121 -0.2627 -0.0696 -0.4823
 6407TIP3   OH219184   1.003   2.891   4.823 -0.1464  0.4474  0.1899
 6407TIP3    H119185   0.997   2.955   4.893 -0.3767  1.4378 -0.6999
 6407TIP3    H219186   1.089   2.906   4.783 -0.7286  1.1392 -0.8612
 6408TIP3   OH219187   6.198   0.787   4.679 -0.6082 -0.0276 -0.7358
 6408TIP3    H119188   6.217   0.710   4.626  2.4460  0.0441  0.0503
 6408TIP3    H219189   6.121   0.764   4.730  0.8187 -3.0501  0.2677
 6409TIP3   OH219190   1.842   2.638   0.720  0.3980  0.1894 -0.2079
 6409TIP3    H119191   1.767   2.603   0.673 -0.9293  0.4627  1.6137
 6409TIP3    H219192   1.867   2.569   0.781  2.0519 -0.1392 -1.1970
 6410TIP3   OH219193   1.542   2.891   2.346  0.7020 -0.0275 -0.1395
 6410TIP3    H119194   1.625   2.864   2.307 -0.4158 -0.3365 -2.4862
 6410TIP3    H219195   1.520   2.972   2.301 -0.7713 -0.5108 -0.3326
 6411TIP3   OH219196   4.841   5.266   0.498 -0.6861 -0.6305  0.2163
 6411TIP3    H119197   4.828   5.176   0.469 -0.5283 -0.3304 -0.8182
 6411TIP3    H219198   4.757   5.292   0.537 -1.5772 -0.4052 -1.7546
 6412TIP3   OH219199   4.453   5.856   1.772 -0.0734  0.1540 -0.1798
 6412TIP3    H119200   4.432   5.771   1.733  0.7260 -1.4999  2.7048
 6412TIP3    H219201   4.390   5.917   1.732 -1.7403 -2.0926 -1.2049
 6413TIP3   OH219202   2.769   1.464   4.221 -0.0626 -0.0404  0.2671
 6413TIP3    H119203   2.722   1.541   4.190 -0.0669 -0.4497 -0.7971
 6413TIP3    H219204   2.701   1.399   4.240  0.0088 -0.2847 -0.2884
 6414TIP3   OH219205   2.050   3.483   4.375  0.8254  0.7898 -0.2702
 6414TIP3    H119206   2.145   3.486   4.386  0.6870  2.5073  0.9815
 6414TIP3    H219207   2.032   3.548   4.307  0.6057 -0.3777 -1.3615
 6415TIP3   OH219208   6.400   0.891   5.588 -0.2933  0.0430  0.3999
 6415TIP3    H119209   6.458   0.825   5.628 -0.9833 -1.4679 -0.9857
 6415TIP3    H219210   6.454   0.931   5.519 -0.1822  0.2732  0.6168
 6416TIP3   OH219211   5.232   6.704   4.490  0.3045  0.1210 -0.1407
 6416TIP3    H119212   5.213   6.692   4.583 -0.5520 -1.8525 -0.5207
 6416TIP3    H219213   5.322   6.672   4.480 -0.1519 -1.1865 -0.2330
 6417TIP3   OH219214   4.268   1.363   3.993  0.6210 -0.6610 -0.1669
 6417TIP3    H119215   4.222   1.282   4.016  0.9945 -0.4576  1.4223
 6417TIP3    H219216   4.212   1.405   3.929 -0.3673 -1.4347  0.1634
 6418TIP3   OH219217   6.619   2.095   4.926 -0.4757 -0.0309 -0.1114
 6418TIP3    H119218   6.594   2.106   4.834  0.1336 -1.9259 -0.5396
 6418TIP3    H219219   6.708   2.129   4.931 -0.1682 -0.7732 -0.4462
 6419TIP3   OH219220   1.444   0.060   2.022  0.0777 -0.2814 -0.4749
 6419TIP3    H119221   1.358   0.020   2.026 -0.8928  1.5966 -1.0287
 6419TIP3    H219222   1.485   0.040   2.106  0.2156 -3.4364 -1.1788
 6420TIP3   OH219223   2.317   3.431   4.379 -0.4009 -0.2200  0.1433
 6420TIP3    H119224   2.349   3.451   4.291 -1.2589 -1.2332 -0.4230
 6420TIP3    H219225   2.392   3.391   4.423 -0.4137 -1.1838 -0.6644
 6421TIP3   OH219226   6.457   6.778   3.900 -0.2126 -0.0997 -0.5254
 6421TIP3    H119227   6.419   6.771   3.812 -0.1625 -1.0968 -0.4833
 6421TIP3    H219228   6.531   6.717   3.899  0.0927  0.2486  0.0614
 6422TIP3   OH219229   0.898   6.119   1.418 -0.3931 -0.1661 -0.1024
 6422TIP3    H119230   0.946   6.171   1.483 -0.4020  0.6558 -0.7402
 6422TIP3    H219231   0.935   6.031   1.426 -1.7664 -0.6011  2.4097
 6423TIP3   OH219232   1.113   6.544   0.308 -0.6010  0.1443  0.0026
 6423TIP3    H119233   1.100   6.453   0.283  2.4438 -0.8763  1.5922
 6423TIP3    H219234   1.172   6.579   0.241 -1.8884  1.0777 -0.6984
 6424TIP3   OH219235   4.049   0.203   3.513 -0.4381  0.3357  0.6098
 6424TIP3    H119236   4.009   0.288   3.532  0.2253  0.9543 -0.6413
 6424TIP3    H219237   4.142   0.222   3.505  0.0411 -0.9110  2.4578
 6425TIP3   OH219238   2.592   1.533   2.641 -0.1854  0.1896  0.1217
 6425TIP3    H119239   2.587   1.480   2.720 -0.1198  0.8418  0.5730
 6425TIP3    H219240   2.667   1.591   2.656  0.0907  0.0356 -0.5976
 6426TIP3   OH219241   2.335   1.351   1.602 -0.1693 -0.1027  0.1237
 6426TIP3    H119242   2.336   1.397   1.519  0.6236 -0.8573 -0.3033
 6426TIP3    H219243   2.411   1.293   1.598  0.2151  0.2620  1.6064
 6427TIP3   OH219244   6.818   5.281   4.603 -0.1754 -0.7231 -0.0967
 6427TIP3    H119245   6.747   5.260   4.664 -0.0941 -2.0019 -0.4027
 6427TIP3    H219246   6.840   5.372   4.622  0.6578 -1.3860  2.6660
 6428TIP3   OH219247   7.008   4.325   4.211  0.1671 -0.0633  0.2217
 6428TIP3    H119248   6.925   4.372   4.226  0.4374  0.0403  1.4495
 6428TIP3    H219249   7.076   4.391   4.224  0.5420 -0.7038  1.7456
 6429TIP3   OH219250   2.343   3.634   1.253 -0.8552  0.3293  0.8209
 6429TIP3    H119251   2.377   3.694   1.187  0.9756  0.3366  1.7098
 6429TIP3    H219252   2.316   3.557   1.203 -0.5701  0.7737 -0.0376
 6430TIP3   OH219253   5.933   1.874   4.321  0.1174  0.1718  0.5387
 6430TIP3    H119254   5.889   1.952   4.354  0.0443  0.5689 -0.4491
 6430TIP3    H219255   6.013   1.907   4.281  0.9717 -0.4702  1.6764
 6431TIP3   OH219256   6.025   3.881   0.827 -0.6247  0.5429  0.2152
 6431TIP3    H119257   6.110   3.911   0.794 -0.0681 -2.1653 -1.1104
 6431TIP3    H219258   6.046   3.803   0.879 -2.1863  0.6071  0.9952
 6432TIP3   OH219259   4.628   4.828   1.293 -0.1635  0.0703  0.7828
 6432TIP3    H119260   4.557   4.866   1.241 -1.4837 -0.2011  2.3333
 6432TIP3    H219261   4.684   4.902   1.314 -0.3455  0.4046  0.1382
 6433TIP3   OH219262   4.106   6.698   3.197  0.0077  0.5410  0.6310
 6433TIP3    H119263   4.083   6.636   3.128  1.0356 -0.1556  0.8971
 6433TIP3    H219264   4.030   6.755   3.204 -0.3362  0.2729 -0.6871
 6434TIP3   OH219265   4.796   6.359   4.997  0.3151 -0.2041  0.2715
 6434TIP3    H119266   4.816   6.266   4.983 -0.9573 -0.4929  0.2135
 6434TIP3    H219267   4.852   6.385   5.069 -0.6289 -1.5454  1.5604
 6435TIP3   OH219268   6.884   1.188   5.407 -0.4211 -0.3158  0.5063
 6435TIP3    H119269   6.906   1.277   5.379 -2.3907  0.0469 -0.0268
 6435TIP3    H219270   6.788   1.185   5.406 -0.4239 -2.2093  1.2922
 6436TIP3   OH219271   1.573   4.565   0.875  0.6465  0.2978  0.4401
 6436TIP3    H119272   1.530   4.489   0.914 -0.3915  0.6471  0.0278
 6436TIP3    H219273   1.641   4.589   0.938  0.3348 -0.3687  1.0474
 6437TIP3   OH219274   4.270   5.896   0.063 -0.0577  0.0065  0.2032
 6437TIP3    H119275   4.220   5.839   0.120 -1.7317 -0.7229 -1.8625
 6437TIP3    H219276   4.233   5.983   0.078 -1.6589 -0.4423 -0.9070
 6438TIP3   OH219277   0.665   3.059   4.839  0.4010 -0.1518 -0.1848
 6438TIP3    H119278   0.608   3.003   4.891 -1.6875  0.8062 -1.3437
 6438TIP3    H219279   0.692   3.128   4.899  1.8547 -1.5406  0.8556
 6439TIP3   OH219280   4.592   4.008   3.277  0.2687  0.3802  0.3770
 6439TIP3    H119281   4.682   4.035   3.258  0.0654 -0.5812 -2.3919
 6439TIP3    H219282   4.548   4.088   3.306  1.3727  1.5082 -0.9245
 6440TIP3   OH219283   1.693   4.366   3.994  0.2875 -0.5869 -0.0028
 6440TIP3    H119284   1.693   4.329   3.906 -0.0302 -1.3270  0.2959
 6440TIP3    H219285   1.604   4.352   4.026  0.2067  0.3100  0.1813
 6441TIP3   OH219286   7.208   4.596   4.277 -0.2555  0.1904  0.3473
 6441TIP3    H119287   7.267   4.622   4.206  1.1283  0.1800  1.4425
 6441TIP3    H219288   7.142   4.665   4.280  0.6477  1.0937  0.1351
 6442TIP3   OH219289   3.345   4.916   2.468 -0.0952 -0.7174 -0.3353
 6442TIP3    H119290   3.339   4.843   2.531  1.9978 -0.5311  0.1603
 6442TIP3    H219291   3.416   4.890   2.409 -0.4135  0.2234 -1.1562
 6443TIP3   OH219292   6.571   4.020   4.230 -0.1643  0.2008  0.6621
 6443TIP3    H119293   6.600   3.942   4.279  0.2398  0.2956  0.5698
 6443TIP3    H219294   6.649   4.051   4.184 -0.3751  0.5399  0.5294
 6444TIP3   OH219295   3.895   0.804   4.794 -0.2722 -0.9212  0.0090
 6444TIP3    H119296   3.949   0.839   4.865 -0.2408 -0.8494 -0.0509
 6444TIP3    H219297   3.956   0.757   4.737 -0.0913  0.1147 -0.6726
 6445TIP3   OH219298   4.091   2.240   0.614 -0.0435 -0.3576 -0.3397
 6445TIP3    H119299   3.998   2.243   0.591 -0.6126  0.9632  1.8686
 6445TIP3    H219300   4.118   2.331   0.616  0.5142 -0.5125  1.7781
 6446TIP3   OH219301   1.710   4.448   4.711 -0.5026  0.4784  0.3756
 6446TIP3    H119302   1.742   4.410   4.793 -1.4391  0.4499  0.7412
 6446TIP3    H219303   1.768   4.523   4.695 -0.2769  0.4528  1.0358
 6447TIP3   OH219304   4.426   3.680   0.538 -0.1038 -0.1994  0.0532
 6447TIP3    H119305   4.489   3.615   0.506 -0.0247  0.2022 -0.6278
 6447TIP3    H219306   4.421   3.663   0.632 -1.2897 -2.2423 -0.3088
 6448TIP3   OH219307   5.569   2.923   4.559  0.0645  0.3481  0.0562
 6448TIP3    H119308   5.527   2.866   4.496 -0.6347  0.5147  0.3611
 6448TIP3    H219309   5.504   2.934   4.629  1.3912 -1.1634  1.6418
 6449TIP3   OH219310   6.205   4.681   0.870  0.0646  0.0722  0.1144
 6449TIP3    H119311   6.224   4.775   0.868 -1.0548  0.4395  2.4949
 6449TIP3    H219312   6.247   4.651   0.950  0.8844 -1.6110 -0.9059
 6450TIP3   OH219313   0.970   2.424   2.329 -0.4749 -0.1295 -0.4901
 6450TIP3    H119314   0.876   2.408   2.333 -0.2553 -1.2177  1.1303
 6450TIP3    H219315   1.003   2.357   2.269 -0.4798 -1.2183  0.6810
 6451TIP3   OH219316   3.533   6.565   5.162  0.1293  0.0255 -0.3567
 6451TIP3    H119317   3.628   6.571   5.174  0.2352 -2.6167  0.8468
 6451TIP3    H219318   3.517   6.474   5.138 -2.1329  0.3339 -0.2873
 6452TIP3   OH219319   4.172   4.013   0.699 -0.1500  0.6413  0.5531
 6452TIP3    H119320   4.109   3.959   0.747  1.6929 -1.7443  0.5083
 6452TIP3    H219321   4.222   4.058   0.767  0.2072 -0.0302  0.7440
 6453TIP3   OH219322   3.118   2.628   0.691  0.0697 -0.9130 -0.1492
 6453TIP3    H119323   3.071   2.685   0.630 -0.8122 -0.7889  0.6326
 6453TIP3    H219324   3.052   2.566   0.722  0.0982 -0.0095  1.8650
 6454TIP3   OH219325   1.582   5.203   1.693  0.3102  0.0826 -0.3780
 6454TIP3    H119326   1.518   5.168   1.755  1.9420  0.2228  1.5240
 6454TIP3    H219327   1.533   5.220   1.613 -1.8391 -0.4813  0.7571
 6455TIP3   OH219328   4.842   1.916   4.587 -0.1235 -0.2290  0.0470
 6455TIP3    H119329   4.814   1.984   4.648 -0.0117  1.7009 -1.9419
 6455TIP3    H219330   4.776   1.918   4.517  1.1894 -0.4873 -1.2372
 6456TIP3   OH219331   5.574   6.447   1.534  0.1233  0.0381 -0.2203
 6456TIP3    H119332   5.562   6.354   1.551  0.2133 -0.0119 -0.4287
 6456TIP3    H219333   5.486   6.480   1.515  0.3162 -0.3653 -1.9465
 6457TIP3   OH219334   6.322   4.004   4.320 -0.5486 -0.9496 -0.0113
 6457TIP3    H119335   6.400   4.032   4.272 -1.4520 -3.0371 -2.9092
 6457TIP3    H219336   6.353   3.933   4.376  0.1568  0.2934  1.2467
 6458TIP3   OH219337   7.028   3.721   2.701  0.0174 -0.5763  0.1317
 6458TIP3    H119338   6.986   3.784   2.643 -0.6286 -0.2967  0.8865
 6458TIP3    H219339   7.111   3.762   2.726 -1.2460  0.9294  2.1980
 6459TIP3   OH219340   7.205   4.642   2.277 -0.3798 -0.5718 -0.3993
 6459TIP3    H119341   7.111   4.641   2.258 -0.3594 -0.8173 -0.4916
 6459TIP3    H219342   7.238   4.564   2.234 -0.4480 -1.5523  1.2823
 6460TIP3   OH219343   4.374   3.252   3.086  0.1662 -0.4197 -0.2563
 6460TIP3    H119344   4.395   3.345   3.097 -1.5219  0.3464 -2.6767
 6460TIP3    H219345   4.290   3.241   3.129 -0.3242 -0.4570 -1.2045
 6461TIP3   OH219346   4.193   2.588   3.653 -0.4139  0.0894  0.0420
 6461TIP3    H119347   4.126   2.553   3.593 -0.9138  1.0702  0.0172
 6461TIP3    H219348   4.260   2.520   3.655 -1.8078 -1.3464  0.7735
 6462TIP3   OH219349   6.067   0.683   0.284 -0.4285 -0.0028 -0.5544
 6462TIP3    H119350   6.159   0.664   0.263 -0.0013 -1.3403  2.1242
 6462TIP3    H219351   6.071   0.731   0.367 -2.1546  0.5297 -0.7430
 6463TIP3   OH219352   1.534   0.827   0.823 -0.2687  0.6490  0.3284
 6463TIP3    H119353   1.476   0.894   0.784  1.5934  1.5113 -1.1580
 6463TIP3    H219354   1.516   0.748   0.772  0.3190  1.0999 -0.6121
 6464TIP3   OH219355   4.852   2.368   2.539  0.0680  0.0397  0.3867
 6464TIP3    H119356   4.892   2.358   2.625 -0.9460  2.8495  1.3152
 6464TIP3    H219357   4.773   2.314   2.543 -0.0961  0.3274  1.3499
 6465TIP3   OH219358   1.405   4.345   0.849 -0.5727  0.5846 -0.2923
 6465TIP3    H119359   1.379   4.343   0.941 -0.7842  0.4241 -0.3549
 6465TIP3    H219360   1.330   4.381   0.803 -0.1445  1.4985 -0.3030
 6466TIP3   OH219361   5.330   1.357   0.525  0.4377  0.0647 -0.3165
 6466TIP3    H119362   5.294   1.357   0.436 -0.6194  1.2539  0.0652
 6466TIP3    H219363   5.269   1.412   0.575 -0.1923 -2.2544  1.6436
 6467TIP3   OH219364   6.370   1.432   0.126 -0.5133  0.1925 -0.5235
 6467TIP3    H119365   6.458   1.411   0.156 -0.4825 -1.2743 -1.5449
 6467TIP3    H219366   6.380   1.449   0.032 -1.2506  0.4103 -0.5695
 6468TIP3   OH219367   3.305   4.710   1.831 -0.3585 -0.3482 -0.3781
 6468TIP3    H119368   3.237   4.748   1.887 -1.7371 -2.9744 -0.1064
 6468TIP3    H219369   3.258   4.653   1.771  1.3281  0.5386 -2.6814
 6469TIP3   OH219370   4.212   4.396   0.627  0.2865 -0.1176 -0.4431
 6469TIP3    H119371   4.142   4.420   0.566 -0.6252  0.7460  0.8810
 6469TIP3    H219372   4.233   4.477   0.673  1.4802 -0.5839 -0.1309
 6470TIP3   OH219373   4.534   1.821   5.758 -0.1051 -0.3687 -0.2145
 6470TIP3    H119374   4.622   1.798   5.729  0.3275  1.4377 -0.4325
 6470TIP3    H219375   4.543   1.907   5.798 -2.0169  0.5888 -1.6603
 6471TIP3   OH219376   3.716   1.825   2.783  0.2421  0.0462 -0.0218
 6471TIP3    H119377   3.773   1.896   2.752 -0.2841  0.3155 -0.3834
 6471TIP3    H219378   3.713   1.836   2.878  1.2439 -0.3119  0.0662
 6472TIP3   OH219379   1.068   5.007   2.459  0.1213  0.3871  0.0162
 6472TIP3    H119380   1.140   5.004   2.397  0.2300  0.2994  0.1461
 6472TIP3    H219381   1.106   5.045   2.539 -0.4748  2.3834 -0.5807
 6473TIP3   OH219382   5.260   3.338   5.839  0.5608  0.0860 -0.1180
 6473TIP3    H119383   5.196   3.300   5.900 -1.3566  0.9713 -1.4877
 6473TIP3    H219384   5.345   3.322   5.881 -0.4528 -1.8968  1.3789
 6474TIP3   OH219385   3.179   2.978   4.124  0.0021  0.3642  0.1785
 6474TIP3    H119386   3.169   2.935   4.039 -1.0128 -1.4835  1.1474
 6474TIP3    H219387   3.109   3.043   4.127 -0.4946 -0.1448 -0.1071
 6475TIP3   OH219388   6.698   5.226   3.594  0.1668 -0.4247 -0.1590
 6475TIP3    H119389   6.691   5.135   3.621  2.3199 -0.9962 -1.3290
 6475TIP3    H219390   6.626   5.270   3.640 -1.5315 -2.8446 -0.3217
 6476TIP3   OH219391   2.957   0.762   4.877 -0.9647  0.5936 -0.7108
 6476TIP3    H119392   2.936   0.676   4.913  0.3548  1.1791  1.6681
 6476TIP3    H219393   3.004   0.742   4.796  2.6600 -1.2244  1.5436
 6477TIP3   OH219394   3.073   4.070   2.980  0.0575 -0.7493  0.8599
 6477TIP3    H119395   3.141   4.129   3.012 -0.8532  1.0881 -0.3781
 6477TIP3    H219396   3.038   4.028   3.058  1.2887 -0.2449  1.7103
 6478TIP3   OH219397   2.177   1.669   0.494 -0.0529  0.0408  0.3659
 6478TIP3    H119398   2.082   1.670   0.486 -0.1221  0.4932  1.1216
 6478TIP3    H219399   2.194   1.708   0.579  0.7106 -2.0801  1.2522
 6479TIP3   OH219400   3.558   3.478   3.812  0.3255  0.3991 -0.2111
 6479TIP3    H119401   3.620   3.511   3.877  0.0376  0.1570  0.1906
 6479TIP3    H219402   3.504   3.415   3.860 -0.6243  1.0550 -0.3964
 6480TIP3   OH219403   6.204   2.732   2.926 -0.5108 -0.1742  0.2167
 6480TIP3    H119404   6.125   2.739   2.980 -1.0645  0.3539 -0.6217
 6480TIP3    H219405   6.271   2.697   2.984 -1.5235 -1.2098  0.7896
 6481TIP3   OH219406   5.184   0.170   4.052  0.1791  0.1898 -0.2017
 6481TIP3    H119407   5.238   0.119   4.112 -0.4290 -0.7483 -0.4443
 6481TIP3    H219408   5.222   0.155   3.966  1.9895  2.7080  0.0153
 6482TIP3   OH219409   3.480   2.184   1.421 -0.1502 -0.2096 -0.0395
 6482TIP3    H119410   3.504   2.260   1.474  0.4494 -0.6526  0.3286
 6482TIP3    H219411   3.530   2.194   1.340 -0.0799 -0.2090  0.0042
 6483TIP3   OH219412   6.323   6.640   4.492 -0.1716  0.1374  0.9689
 6483TIP3    H119413   6.405   6.666   4.533  0.4973 -0.4177  0.0242
 6483TIP3    H219414   6.348   6.615   4.403 -1.3187 -0.3275  0.7648
 6484TIP3   OH219415   5.066   1.133   0.663  0.7251  0.0870  0.2992
 6484TIP3    H119416   5.086   1.217   0.705 -0.9097  0.2014  0.9477
 6484TIP3    H219417   5.065   1.070   0.735  2.1908 -0.5696 -0.2174
 6485TIP3   OH219418   0.381   5.397   0.395  0.7851  0.1339 -0.2626
 6485TIP3    H119419   0.306   5.389   0.454  0.5230  0.6027 -0.5234
 6485TIP3    H219420   0.398   5.308   0.366  0.8766 -0.0915  0.4706
 6486TIP3   OH219421   1.006   5.515   0.839  0.1230  0.2129  0.0844
 6486TIP3    H119422   0.948   5.591   0.833 -2.1466 -1.4429 -0.2752
 6486TIP3    H219423   0.979   5.471   0.920 -0.3119 -1.4931 -0.9451
 6487TIP3   OH219424   3.422   4.333   0.053 -0.8595 -0.1387  0.4254
 6487TIP3    H119425   3.477   4.409   0.032 -1.0004 -0.1177  0.1200
 6487TIP3    H219426   3.461   4.296   0.132  1.0559 -1.5362 -1.0857
 6488TIP3   OH219427   6.199   2.573   0.376  0.1819 -0.1939  0.7561
 6488TIP3    H119428   6.219   2.490   0.419 -0.1739 -0.1722  0.9678
 6488TIP3    H219429   6.161   2.548   0.292 -0.1947 -0.2495  0.9418
 6489TIP3   OH219430   2.347   3.154   1.354 -0.5201 -0.0655 -0.2761
 6489TIP3    H119431   2.335   3.231   1.299 -0.5165  1.3269  1.5577
 6489TIP3    H219432   2.292   3.171   1.431  2.7455  0.2457  2.2399
 6490TIP3   OH219433   0.318   5.908   1.645 -0.3631  0.2635 -0.0362
 6490TIP3    H119434   0.306   5.848   1.572  3.3015 -1.1382  0.2762
 6490TIP3    H219435   0.311   5.854   1.723  2.6395  0.0894  0.2575
 6491TIP3   OH219436   3.219   3.327   5.283 -0.5185  0.7524  0.1028
 6491TIP3    H119437   3.262   3.271   5.347 -4.7283 -0.4063  2.2720
 6491TIP3    H219438   3.245   3.291   5.198  1.9186 -0.3608  1.2311
 6492TIP3   OH219439   6.553   1.654   3.786  0.2759 -0.4310  0.1285
 6492TIP3    H119440   6.503   1.726   3.748 -1.0246 -2.2564 -1.8506
 6492TIP3    H219441   6.509   1.636   3.869 -0.3505  0.0821 -0.0807
 6493TIP3   OH219442   3.248   0.354   2.469  0.5176 -0.2911  0.1191
 6493TIP3    H119443   3.263   0.264   2.439 -1.5841 -0.9787  0.9189
 6493TIP3    H219444   3.292   0.358   2.554 -0.5014 -1.0621  0.7185
 6494TIP3   OH219445   1.080   6.200   4.229  0.1608 -0.5655  0.0633
 6494TIP3    H119446   1.030   6.266   4.181 -1.3948  0.0112  2.3207
 6494TIP3    H219447   1.017   6.131   4.248  0.2385 -0.0236  2.6181
 6495TIP3   OH219448   3.612   6.542   2.357  0.0472  0.1639 -0.1511
 6495TIP3    H119449   3.645   6.567   2.270 -0.1082  0.1698 -0.2084
 6495TIP3    H219450   3.607   6.624   2.405 -1.3787  0.3933 -0.6464
 6496TIP3   OH219451   4.720   3.252   5.274  0.0566  0.1856  0.4487
 6496TIP3    H119452   4.691   3.278   5.187 -0.0873 -0.0499  0.4263
 6496TIP3    H219453   4.671   3.173   5.294 -0.0174  0.3184  0.8063
 6497TIP3   OH219454   6.843   6.157   5.277  0.2031  0.2735 -0.4574
 6497TIP3    H119455   6.884   6.227   5.226  0.6539  0.4576  0.1596
 6497TIP3    H219456   6.877   6.076   5.238  1.0613  0.4200 -0.0337
 6498TIP3   OH219457   5.204   6.249   3.358 -0.0881 -0.4723 -0.4867
 6498TIP3    H119458   5.121   6.223   3.319  0.4649 -1.4646 -1.0471
 6498TIP3    H219459   5.232   6.173   3.409  1.5064 -1.0248 -2.0579
 6499TIP3   OH219460   5.821   5.299   4.960  0.0591  0.0022 -0.4442
 6499TIP3    H119461   5.894   5.251   4.999  1.8325  1.1533 -2.1381
 6499TIP3    H219462   5.804   5.253   4.878 -1.0636 -0.1753 -0.1231
 6500TIP3   OH219463   6.072   1.396   2.334 -0.0020  0.4472  0.1179
 6500TIP3    H119464   6.030   1.477   2.308 -1.6920 -1.0164 -2.0818
 6500TIP3    H219465   6.038   1.378   2.421 -1.6856  0.8271 -0.4159
 6501TIP3   OH219466   1.746   4.067   5.266  0.0662 -0.0429 -0.0178
 6501TIP3    H119467   1.746   4.021   5.182 -1.0472 -0.5706  0.2475
 6501TIP3    H219468   1.786   4.152   5.247  0.9693 -0.6159 -0.8003
 6502TIP3   OH219469   5.051   3.370   1.143 -0.1300 -0.2625  0.0465
 6502TIP3    H119470   5.036   3.407   1.057  1.3652  0.0667 -0.1082
 6502TIP3    H219471   5.043   3.275   1.131  0.6702 -0.2599 -0.6106
 6503TIP3   OH219472   2.454   2.255   2.118  0.3291 -0.4660  0.2697
 6503TIP3    H119473   2.509   2.279   2.193 -0.8657  1.7253  0.5261
 6503TIP3    H219474   2.387   2.198   2.155 -1.1483  1.7880  1.2915
 6504TIP3   OH219475   6.843   3.498   4.893 -0.4776 -0.8870 -0.3637
 6504TIP3    H119476   6.811   3.566   4.952 -1.2066 -0.3800 -1.3112
 6504TIP3    H219477   6.846   3.541   4.807 -1.4526 -2.1699 -1.0773
 6505TIP3   OH219478   7.043   5.654   0.996  0.4674 -0.0139 -0.3361
 6505TIP3    H119479   6.982   5.603   1.049  0.6642 -1.3247 -1.3118
 6505TIP3    H219480   6.987   5.700   0.933  0.4649 -1.8400 -1.7554
 6506TIP3   OH219481   7.082   2.906   5.896 -0.7643  0.2974  0.3214
 6506TIP3    H119482   7.127   2.891   5.813  0.0189 -0.9001  0.9240
 6506TIP3    H219483   7.074   2.818   5.935 -1.3615  0.8018  1.3875
 6507TIP3   OH219484   3.598   6.606   0.853 -0.1466  0.6093 -0.3976
 6507TIP3    H119485   3.619   6.689   0.810 -0.8937  0.5080 -0.9949
 6507TIP3    H219486   3.666   6.595   0.919 -0.1202  1.7782 -0.2032
 6508TIP3   OH219487   4.976   2.661   0.407  0.0190 -0.1150  0.7429
 6508TIP3    H119488   5.018   2.737   0.368  0.4818 -0.7480 -0.0248
 6508TIP3    H219489   4.887   2.662   0.372  0.3810 -0.5803 -0.2119
 6509TIP3   OH219490   6.927   1.407   4.343  0.2809 -0.0009 -0.4198
 6509TIP3    H119491   6.896   1.433   4.430 -0.6523 -0.8961 -0.4610
 6509TIP3    H219492   6.966   1.321   4.356 -2.0020 -1.2415 -1.2436
 6510TIP3   OH219493   5.752   6.411   5.747 -0.9613  0.1070 -0.4223
 6510TIP3    H119494   5.749   6.424   5.841  1.6225 -0.0889 -0.2442
 6510TIP3    H219495   5.808   6.334   5.735  0.0970  1.0678 -2.1179
 6511TIP3   OH219496   5.057   2.083   4.444 -1.1885 -0.0727  0.1336
 6511TIP3    H119497   4.984   2.030   4.476 -1.3343  0.3069  0.4331
 6511TIP3    H219498   5.052   2.164   4.495 -1.1995  0.3871 -0.5784
 6512TIP3   OH219499   2.436   5.828   4.844 -0.2265 -0.2781 -0.5858
 6512TIP3    H119500   2.495   5.799   4.775  0.2037 -1.5861  0.2860
 6512TIP3    H219501   2.465   5.917   4.865  0.4227 -0.3275 -1.2497
 6513TIP3   OH219502   6.557   4.102   2.612  0.9603  0.7301 -0.3167
 6513TIP3    H119503   6.531   4.021   2.569  0.3891  0.8776 -0.2549
 6513TIP3    H219504   6.613   4.074   2.684 -1.3262  0.1713  1.3395
 6514TIP3   OH219505   6.418   1.362   0.608  0.0513 -0.3713 -0.0900
 6514TIP3    H119506   6.411   1.385   0.701  2.7911  2.2721 -0.3963
 6514TIP3    H219507   6.368   1.430   0.563 -1.7742 -1.9853 -0.6038
 6515TIP3   OH219508   6.790   5.123   0.800  0.6935  0.0278 -0.2736
 6515TIP3    H119509   6.867   5.155   0.752  0.5186 -0.4015 -0.8409
 6515TIP3    H219510   6.729   5.094   0.733 -1.3879  3.3739 -0.0691
 6516TIP3   OH219511   4.531   2.246   0.849  0.2602 -0.3429  0.0011
 6516TIP3    H119512   4.565   2.253   0.939  1.1890 -0.0796 -0.3608
 6516TIP3    H219513   4.567   2.164   0.816  0.2948 -0.2156 -0.2810
 6517TIP3   OH219514   4.389   4.093   0.871  0.1703 -0.7264  0.0041
 6517TIP3    H119515   4.477   4.125   0.853  0.3144 -0.2561  1.4096
 6517TIP3    H219516   4.402   4.026   0.939 -0.6861  0.6351  1.5854
 6518TIP3   OH219517   2.242   0.233   0.614 -0.0398 -0.0871  0.3961
 6518TIP3    H119518   2.314   0.178   0.646 -0.0142 -0.1355  0.2542
 6518TIP3    H219519   2.163   0.188   0.643 -0.1792 -2.0797 -2.5944
 6519TIP3   OH219520   6.034   0.230   3.736 -1.0359  0.0125 -0.0601
 6519TIP3    H119521   6.110   0.177   3.759 -0.6949 -0.5546 -2.2239
 6519TIP3    H219522   5.961   0.189   3.783 -0.5192 -1.4685 -0.4883
 6520TIP3   OH219523   3.626   0.331   3.129 -0.3936  1.0348  0.3198
 6520TIP3    H119524   3.655   0.419   3.105 -0.4079  0.6877 -1.0514
 6520TIP3    H219525   3.576   0.343   3.209  1.4873  1.9674  1.4050
 6521TIP3   OH219526   2.734   6.668   0.203 -0.2836 -0.0260  0.2894
 6521TIP3    H119527   2.801   6.722   0.245  0.1834 -0.8180  0.5803
 6521TIP3    H219528   2.748   6.580   0.238 -1.4643 -0.2127  0.3303
 6522TIP3   OH219529   1.456   0.325   4.835 -0.0791  0.5461 -0.6331
 6522TIP3    H119530   1.489   0.253   4.782 -0.0546  0.3376 -0.3367
 6522TIP3    H219531   1.442   0.396   4.773  1.1530  0.7258 -0.7310
 6523TIP3   OH219532   5.179   1.944   0.122 -0.4538 -0.4590  0.0955
 6523TIP3    H119533   5.128   1.923   0.044  0.3507 -2.0170 -0.0403
 6523TIP3    H219534   5.123   1.917   0.195 -1.3213  1.2497  0.1231
 6524TIP3   OH219535   1.944   3.516   3.221  0.1876  0.6310  0.0911
 6524TIP3    H119536   1.898   3.477   3.295 -0.2210  1.2851  0.1956
 6524TIP3    H219537   1.903   3.602   3.210  1.7034  1.4582  0.4993
 6525TIP3   OH219538   2.385   0.215   2.874 -0.2160 -0.0142  0.2681
 6525TIP3    H119539   2.373   0.309   2.888 -1.1922 -0.2261  0.9579
 6525TIP3    H219540   2.398   0.206   2.779 -1.2552  0.7103  0.0415
 6526TIP3   OH219541   0.066   0.856   2.382  0.1182 -0.2027 -0.2035
 6526TIP3    H119542   0.059   0.890   2.293 -0.0954 -1.3711 -0.6441
 6526TIP3    H219543   0.108   0.927   2.431  0.7081  0.2547 -1.3395
 6527TIP3   OH219544   6.042   6.270   2.763 -0.2285  0.4791  0.0701
 6527TIP3    H119545   6.056   6.241   2.853  0.4565  1.2753  0.2219
 6527TIP3    H219546   6.083   6.356   2.758  2.4741 -0.7946 -1.8164
 6528TIP3   OH219547   3.345   3.710   5.840 -0.8922 -0.1050  0.1295
 6528TIP3    H119548   3.421   3.730   5.895 -1.4202  0.6486  0.6058
 6528TIP3    H219549   3.382   3.679   5.758 -0.0631  0.3580  0.3171
 6529TIP3   OH219550   5.096   1.611   0.539  0.2588  0.9045  0.0544
 6529TIP3    H119551   5.002   1.626   0.526  0.4866  0.6187 -2.4841
 6529TIP3    H219552   5.128   1.694   0.575 -1.1068  0.5965  2.1262
 6530TIP3   OH219553   4.900   2.931   4.426  0.2607 -0.1067 -0.2319
 6530TIP3    H119554   4.881   2.917   4.333 -0.0655  0.0687 -0.1934
 6530TIP3    H219555   4.943   2.850   4.454  0.3529 -0.1655 -0.5322
 6531TIP3   OH219556   5.308   1.365   3.947  0.0825 -0.0642  0.3750
 6531TIP3    H119557   5.336   1.308   3.876 -0.2030  1.2863 -0.8697
 6531TIP3    H219558   5.239   1.419   3.909  1.0078  1.7827  1.1799
 6532TIP3   OH219559   4.122   1.658   3.057 -0.2926  0.3591  0.3318
 6532TIP3    H119560   4.168   1.697   2.983 -0.1372 -1.6911 -0.7221
 6532TIP3    H219561   4.191   1.625   3.114 -0.4070 -0.1919  0.1634
 6533TIP3   OH219562   0.270   5.840   0.975  0.4358 -0.2372 -0.1145
 6533TIP3    H119563   0.297   5.868   1.062  3.9577  0.2277 -1.1700
 6533TIP3    H219564   0.176   5.826   0.982  0.2724  1.4476  3.2803
 6534TIP3   OH219565   2.136   6.392   5.447  0.2287  0.1263 -0.7406
 6534TIP3    H119566   2.126   6.303   5.412 -1.7386 -0.1136  0.3308
 6534TIP3    H219567   2.048   6.427   5.450  0.7851  1.5291  0.4173
 6535TIP3   OH219568   1.300   2.378   4.193 -0.5769 -0.6022  0.3701
 6535TIP3    H119569   1.254   2.319   4.133  0.2399 -0.1556 -0.7347
 6535TIP3    H219570   1.376   2.409   4.142  0.1809 -0.2680  1.6703
 6536TIP3   OH219571   6.718   6.207   5.534  0.0077 -0.0458 -0.0020
 6536TIP3    H119572   6.782   6.170   5.475 -1.0570  0.1253 -1.3115
 6536TIP3    H219573   6.732   6.162   5.618  0.4329 -1.5157 -0.8412
 6537TIP3   OH219574   4.616   2.167   3.968  0.1339 -0.3665 -0.3740
 6537TIP3    H119575   4.545   2.103   3.956 -0.4177  0.0578  0.4937
 6537TIP3    H219576   4.695   2.120   3.943 -0.3621 -1.1074 -0.5922
 6538TIP3   OH219577   2.956   3.559   5.167  0.0483  0.2196  0.4237
 6538TIP3    H119578   3.017   3.596   5.231  1.5384 -0.1123 -0.7442
 6538TIP3    H219579   2.957   3.465   5.185  0.6891  0.0914 -0.2413
 6539TIP3   OH219580   0.217   1.908   0.200  0.7266 -0.6284 -0.3408
 6539TIP3    H119581   0.308   1.938   0.195 -0.0125  2.1148  0.8659
 6539TIP3    H219582   0.209   1.870   0.287  0.1526  1.6280  0.6827
 6540TIP3   OH219583   0.368   2.322   2.106  0.0175  0.5423  0.7577
 6540TIP3    H119584   0.398   2.233   2.091  0.6594  1.1058 -1.9887
 6540TIP3    H219585   0.447   2.371   2.126  0.2218  1.0438 -1.0865
 6541TIP3   OH219586   2.304   6.027   0.069 -0.5586 -0.5470 -0.0907
 6541TIP3    H119587   2.350   6.003  -0.011  1.1816 -0.4389  0.8448
 6541TIP3    H219588   2.285   5.944   0.113 -2.3456 -0.6756 -1.0022
 6542TIP3   OH219589   2.878   5.915   2.411 -0.1433 -0.2954  0.3565
 6542TIP3    H119590   2.875   5.840   2.471  0.4070  0.4060  1.3014
 6542TIP3    H219591   2.823   5.982   2.453  0.1974  0.1871  0.0518
 6543TIP3   OH219592   2.990   5.762   2.084 -0.1280 -0.3268  0.3025
 6543TIP3    H119593   3.004   5.815   2.163  1.3841  0.2809 -0.3440
 6543TIP3    H219594   3.028   5.676   2.106  2.8091  0.6209 -0.6200
 6544TIP3   OH219595   0.964   5.814   1.052 -0.3131  0.0791 -0.0471
 6544TIP3    H119596   0.903   5.778   0.988 -0.6582  1.3524 -0.4653
 6544TIP3    H219597   0.908   5.855   1.118  0.0698  1.4591 -0.5501
 6545TIP3   OH219598   0.681   6.109  -0.005 -0.3551  0.3913  0.4826
 6545TIP3    H119599   0.594   6.072   0.010 -0.8022  0.8610 -0.8017
 6545TIP3    H219600   0.739   6.033  -0.003 -1.0001 -0.1420 -0.1697
 6546TIP3   OH219601   3.061   2.605   2.451 -1.0232  0.4235 -0.5257
 6546TIP3    H119602   3.039   2.544   2.381  0.6351 -1.2304  0.3088
 6546TIP3    H219603   3.045   2.555   2.531 -0.1397  1.2833  0.1990
 6547TIP3   OH219604   3.885   2.442   4.150  0.2288  0.4790 -0.2800
 6547TIP3    H119605   3.791   2.432   4.162  0.3692 -0.2337  0.3369
 6547TIP3    H219606   3.919   2.353   4.151  0.9918  0.7603  0.2781
 6548TIP3   OH219607   2.539   1.796   4.636 -0.0569 -0.0972  0.0048
 6548TIP3    H119608   2.547   1.760   4.724 -3.6201  0.5472  0.7404
 6548TIP3    H219609   2.545   1.720   4.578 -4.2369 -1.7640  1.3373
 6549TIP3   OH219610   2.255   6.625   4.568  0.0366  0.0629  0.2003
 6549TIP3    H119611   2.341   6.622   4.610 -0.5975  1.7801  1.7550
 6549TIP3    H219612   2.194   6.640   4.639 -1.4519 -0.0987 -0.9989
 6550TIP3   OH219613   4.714   2.814   3.866 -0.2905  0.0759 -0.1596
 6550TIP3    H119614   4.661   2.735   3.868 -2.0498  1.1943  0.7476
 6550TIP3    H219615   4.703   2.848   3.777  1.3301 -1.1956 -0.8865
 6551TIP3   OH219616   5.338   6.127   1.040 -0.5959 -0.0558  0.0880
 6551TIP3    H119617   5.328   6.114   0.945 -1.0646  0.4701  0.0636
 6551TIP3    H219618   5.410   6.068   1.064  0.3157  0.6539 -0.7899
 6552TIP3   OH219619   3.295   1.439   1.531  0.2553  0.3419 -0.4074
 6552TIP3    H119620   3.211   1.466   1.566 -0.1365 -0.0299 -1.0272
 6552TIP3    H219621   3.335   1.520   1.499 -0.6120  0.3082 -1.6416
 6553TIP3   OH219622   6.993   5.000   3.389  0.1394 -0.1006 -0.0697
 6553TIP3    H119623   7.070   4.948   3.366 -0.6207 -1.7307  0.8574
 6553TIP3    H219624   6.923   4.935   3.401 -0.9917  1.1941  0.6549
 6554TIP3   OH219625   1.568   4.563   2.483 -0.5706 -0.3412 -0.0909
 6554TIP3    H119626   1.606   4.650   2.490 -3.1946  0.8918 -0.0264
 6554TIP3    H219627   1.551   4.552   2.389  1.0337 -1.4231 -0.2882
 6555TIP3   OH219628   0.186   1.140   3.539  0.1902 -0.3048  0.0137
 6555TIP3    H119629   0.106   1.174   3.580  0.8035  0.6242  0.4726
 6555TIP3    H219630   0.257   1.171   3.596  1.0070  0.2919 -1.2950
 6556TIP3   OH219631   4.390   1.266   1.907  0.1648  0.4605  0.0657
 6556TIP3    H119632   4.378   1.354   1.871  0.8650 -0.1471 -1.7654
 6556TIP3    H219633   4.312   1.218   1.879  1.0254 -0.1992 -1.3388
 6557TIP3   OH219634   3.074   1.437   5.114 -0.3453 -0.0697 -0.1133
 6557TIP3    H119635   3.136   1.475   5.176  0.4817  0.1848 -1.0802
 6557TIP3    H219636   3.050   1.353   5.153  0.2941  0.0036  0.4624
 6558TIP3   OH219637   2.754   2.352   5.446 -0.2133 -0.1977  0.5243
 6558TIP3    H119638   2.814   2.425   5.441  0.4230 -0.7121  0.5578
 6558TIP3    H219639   2.671   2.391   5.475  0.2076  0.4490  0.8688
 6559TIP3   OH219640   3.722   4.911   5.206 -0.0418 -0.4073 -0.2552
 6559TIP3    H119641   3.657   4.940   5.142  0.2884 -1.1309 -0.9441
 6559TIP3    H219642   3.680   4.923   5.291 -0.2426  1.2111 -0.5588
 6560TIP3   OH219643   0.669   2.119   5.049  0.0325  0.0478  0.1666
 6560TIP3    H119644   0.662   2.091   5.140 -1.2635 -0.0068  0.0770
 6560TIP3    H219645   0.579   2.143   5.025  0.1331 -1.0233 -1.4360
 6561TIP3   OH219646   0.135   2.574   0.181  0.0834 -0.6197  0.5481
 6561TIP3    H119647   0.078   2.505   0.146 -0.7019 -0.7433  1.9882
 6561TIP3    H219648   0.078   2.625   0.239  0.4292  1.8054 -1.0905
 6562TIP3   OH219649   1.930   4.998   1.142 -0.2243 -0.1899  0.4432
 6562TIP3    H119650   1.895   5.031   1.059  0.3640  1.3316  0.7769
 6562TIP3    H219651   1.854   4.993   1.200 -0.8719 -2.4526 -0.5021
 6563TIP3   OH219652   3.527   2.022   0.766 -0.3687  0.0947  0.1817
 6563TIP3    H119653   3.588   2.003   0.838 -1.2040 -0.3662  0.7759
 6563TIP3    H219654   3.449   1.971   0.786 -0.7121  0.1596 -0.9271
 6564TIP3   OH219655   0.490   4.900   2.182  0.4666  0.0045 -0.1467
 6564TIP3    H119656   0.507   4.926   2.092 -0.2878  1.6176  0.1480
 6564TIP3    H219657   0.401   4.864   2.180  0.6997 -0.5952 -0.1482
 6565TIP3   OH219658   6.624   2.778   2.636 -0.4944  0.1533 -0.1624
 6565TIP3    H119659   6.628   2.872   2.617 -0.4617 -0.0795 -1.4176
 6565TIP3    H219660   6.711   2.757   2.669 -0.0451  0.3233 -1.1876
 6566TIP3   OH219661   6.823   4.094   2.246  0.4225  0.9093 -0.8218
 6566TIP3    H119662   6.884   4.022   2.264 -0.7152 -0.0455 -0.6714
 6566TIP3    H219663   6.818   4.097   2.150 -1.6727 -1.1694 -0.8816
 6567TIP3   OH219664   2.273   4.349   1.276 -0.4856  0.4426  0.6967
 6567TIP3    H119665   2.220   4.389   1.207 -0.7466  0.8872  1.1448
 6567TIP3    H219666   2.257   4.404   1.353  0.6690  0.6265  0.8305
 6568TIP3   OH219667   5.891   6.061   0.915 -0.0515  0.3931  0.0454
 6568TIP3    H119668   5.953   5.989   0.922  0.3692  0.6546 -0.8549
 6568TIP3    H219669   5.839   6.041   0.838 -0.0410  0.9624 -0.1135
 6569TIP3   OH219670   1.801   5.862   4.634  0.4689 -0.0582  0.1531
 6569TIP3    H119671   1.776   5.834   4.546  1.8293 -0.4722 -0.1286
 6569TIP3    H219672   1.896   5.860   4.634  0.5269  1.0881  1.2784
 6570TIP3   OH219673   1.867   2.830  -0.017 -0.3990  0.2799  0.0407
 6570TIP3    H119674   1.941   2.864   0.035 -2.9172  2.2105  2.6614
 6570TIP3    H219675   1.861   2.738   0.010  1.7615 -0.3038 -1.2254
 6571TIP3   OH219676   6.627   5.391   5.751  0.6000 -0.2351  0.9282
 6571TIP3    H119677   6.698   5.350   5.701 -1.3149 -0.3996 -1.8992
 6571TIP3    H219678   6.659   5.479   5.770  2.7926 -1.3065  2.6678
 6572TIP3   OH219679   4.951   1.277   3.024 -0.0370 -0.0711  0.4540
 6572TIP3    H119680   5.030   1.253   3.072 -0.0260  0.0372  0.4896
 6572TIP3    H219681   4.907   1.193   3.007 -0.0486 -0.1065  0.6650
 6573TIP3   OH219682   5.961   4.134   1.203 -0.2532 -0.1603 -0.1643
 6573TIP3    H119683   5.966   4.192   1.279 -1.3708 -2.1859  1.5616
 6573TIP3    H219684   5.980   4.047   1.238  0.6187 -0.9955 -2.5121
 6574TIP3   OH219685   6.343   1.729   2.205 -0.2405 -0.0421  0.0180
 6574TIP3    H119686   6.417   1.727   2.265  0.5870  1.2925 -0.8903
 6574TIP3    H219687   6.350   1.647   2.155  0.1945 -0.2574  0.4337
 6575TIP3   OH219688   1.492   4.928   3.463  0.4083  0.2211  0.2088
 6575TIP3    H119689   1.515   5.011   3.420  1.1499  0.8804  1.7884
 6575TIP3    H219690   1.561   4.867   3.437 -0.4084 -0.0823 -1.3654
 6576TIP3   OH219691   1.175   5.749   5.116  0.2131  0.3142  0.0615
 6576TIP3    H119692   1.264   5.715   5.115  0.0942 -0.3356 -3.5740
 6576TIP3    H219693   1.120   5.671   5.121 -0.1876  0.6564  1.3342
 6577TIP3   OH219694   4.180   5.953   5.296  0.7135 -0.5512 -0.1351
 6577TIP3    H119695   4.120   6.028   5.300 -0.0325 -1.1858  1.5253
 6577TIP3    H219696   4.263   5.986   5.330  0.3399 -0.5081  0.7485
 6578TIP3   OH219697   5.202   4.940   2.609 -0.7752 -0.0644  0.1226
 6578TIP3    H119698   5.136   5.009   2.618 -1.1955 -0.1370 -1.9321
 6578TIP3    H219699   5.267   4.977   2.549 -0.4839 -1.0668 -0.1988
 6579TIP3   OH219700   0.683   4.753   2.344  0.5982 -0.2384 -0.0475
 6579TIP3    H119701   0.601   4.777   2.301  0.4758  0.3018  0.4676
 6579TIP3    H219702   0.673   4.660   2.366  0.5534 -0.4517 -0.9155
 6580TIP3   OH219703   1.641   2.619   5.587 -0.2568 -0.1025  0.1292
 6580TIP3    H119704   1.715   2.632   5.645 -0.3358 -1.2823  0.5135
 6580TIP3    H219705   1.564   2.645   5.639 -0.1647  0.7698 -0.1475
 6581TIP3   OH219706   4.117   1.970   1.333 -0.0202 -0.1405  0.1646
 6581TIP3    H119707   4.127   1.892   1.278 -2.2934 -2.3291  2.5576
 6581TIP3    H219708   4.200   1.976   1.380  0.8213 -0.0421 -1.2768
 6582TIP3   OH219709   2.380   1.834   0.349 -0.0282 -0.1483  0.4908
 6582TIP3    H119710   2.309   1.897   0.360 -0.4334 -0.4756 -0.1861
 6582TIP3    H219711   2.337   1.752   0.326  0.4369 -0.9180  2.2089
 6583TIP3   OH219712   5.606   0.677   5.641 -0.2085  0.3249  0.5424
 6583TIP3    H119713   5.684   0.731   5.627 -0.5337  0.8593  0.7612
 6583TIP3    H219714   5.553   0.692   5.563 -0.5057  0.6825  0.8099
 6584TIP3   OH219715   6.314   3.863   5.107  0.3360  0.6058  0.5564
 6584TIP3    H119716   6.220   3.882   5.104  0.7001  2.5224 -0.7038
 6584TIP3    H219717   6.333   3.849   5.200 -0.4709  4.6136  1.5202
 6585TIP3   OH219718   2.835   5.540   1.453 -0.2057 -0.5215 -0.2695
 6585TIP3    H119719   2.876   5.622   1.426 -1.7397  0.3807  0.0304
 6585TIP3    H219720   2.876   5.518   1.536  1.4237 -0.9952 -1.1603
 6586TIP3   OH219721   1.449   1.246   5.807 -0.6002  0.2319  0.0126
 6586TIP3    H119722   1.453   1.335   5.841 -1.5250  0.5216 -0.6290
 6586TIP3    H219723   1.531   1.205   5.838  0.0578  1.4333 -0.0963
 6587TIP3   OH219724   3.967   0.138   0.350 -0.5565 -0.1329  0.1009
 6587TIP3    H119725   4.032   0.167   0.414 -1.6358  0.9954  0.7152
 6587TIP3    H219726   3.988   0.046   0.335  0.6675 -0.0033  0.9070
 6588TIP3   OH219727   3.736   5.001   1.879 -0.0568  0.1170 -0.7533
 6588TIP3    H119728   3.664   4.950   1.842 -0.1890 -2.1204  2.2313
 6588TIP3    H219729   3.802   5.004   1.810 -1.2517 -1.5925 -2.0488
 6589TIP3   OH219730   2.388   6.211   3.029 -0.2830  0.2754 -0.0531
 6589TIP3    H119731   2.372   6.131   2.978 -0.3869  0.6639 -0.6405
 6589TIP3    H219732   2.432   6.270   2.967  3.0866 -0.5771  1.3184
 6590TIP3   OH219733   2.606   3.900   1.580 -1.0547  0.5187  0.2902
 6590TIP3    H119734   2.625   3.846   1.656 -0.3194 -0.3433 -0.4699
 6590TIP3    H219735   2.649   3.984   1.598  0.5914 -0.2511  0.1039
 6591TIP3   OH219736   3.173   6.236   3.916  0.0310  0.0790  0.1037
 6591TIP3    H119737   3.163   6.148   3.952  0.6362  0.1369  0.4304
 6591TIP3    H219738   3.157   6.294   3.991 -0.8977  0.2747 -0.2259
 6592TIP3   OH219739   4.850   0.784   5.195  0.1553 -0.2620 -0.0441
 6592TIP3    H119740   4.910   0.711   5.185  0.2017 -0.3578  0.8656
 6592TIP3    H219741   4.890   0.839   5.263 -0.3667  0.0950 -0.0169
 6593TIP3   OH219742   6.636   6.075   1.675 -0.6938  0.2581  0.2690
 6593TIP3    H119743   6.605   5.984   1.679  0.4760 -0.1123  2.3150
 6593TIP3    H219744   6.585   6.120   1.742 -1.9986  1.4085 -1.4248
 6594TIP3   OH219745   5.674   3.934   2.025  0.1253 -0.0940 -0.6919
 6594TIP3    H119746   5.699   3.854   1.979  0.8014  0.1842 -0.8234
 6594TIP3    H219747   5.578   3.930   2.030  0.1197 -0.6625 -1.1441
 6595TIP3   OH219748   0.965   3.850   3.573  0.2865  0.1201  0.4057
 6595TIP3    H119749   0.937   3.921   3.515  1.9394  0.0379 -0.5313
 6595TIP3    H219750   0.900   3.781   3.559 -0.1079  0.6270 -0.3227
 6596TIP3   OH219751   2.965   1.244   0.431 -0.2437  0.4563 -0.0144
 6596TIP3    H119752   2.960   1.166   0.377  0.4988  0.7447 -0.5229
 6596TIP3    H219753   2.909   1.225   0.507  0.4819 -0.8369  0.2219
 6597TIP3   OH219754   1.810   5.996   3.422  0.3184 -0.3638  0.0278
 6597TIP3    H119755   1.745   5.931   3.396  0.1002  0.0495 -0.4886
 6597TIP3    H219756   1.820   6.052   3.345  2.4405 -1.3205 -0.4516
 6598TIP3   OH219757   4.905   0.486   5.362 -0.1841 -0.4765  0.2240
 6598TIP3    H119758   4.984   0.433   5.347 -0.3109 -0.0935 -2.2022
 6598TIP3    H219759   4.863   0.491   5.277 -3.3158 -1.3200  1.6021
 6599TIP3   OH219760   2.208   3.085   3.022  0.7200  0.0841  0.4061
 6599TIP3    H119761   2.276   3.100   2.955 -0.8110  2.0318 -0.8016
 6599TIP3    H219762   2.192   3.171   3.060 -1.7106 -0.1349  0.0075
 6600TIP3   OH219763   3.459   0.406   3.676  0.1411 -0.1653 -0.2466
 6600TIP3    H119764   3.428   0.441   3.759 -0.8980 -0.9970 -0.2599
 6600TIP3    H219765   3.545   0.370   3.695  0.0921  0.0406  0.3653
 6601TIP3   OH219766   2.531   6.818   0.075 -0.1737  0.3497 -0.2599
 6601TIP3    H119767   2.601   6.754   0.089  0.3282  1.0732  0.6583
 6601TIP3    H219768   2.459   6.767   0.037 -0.2159 -1.0148  1.5034
 6602TIP3   OH219769   4.640   3.253   4.774  0.2464 -0.8228  0.5000
 6602TIP3    H119770   4.667   3.189   4.709  0.8689 -1.3321  1.2459
 6602TIP3    H219771   4.720   3.274   4.822  0.1711  0.9484 -0.0892
 6603TIP3   OH219772   3.217   5.643   0.996 -0.4468  0.0127  0.2245
 6603TIP3    H119773   3.249   5.688   0.917 -0.0124  0.8477  0.8627
 6603TIP3    H219774   3.211   5.712   1.062  0.4665 -0.9026  1.2934
 6604TIP3   OH219775   0.138   4.931   1.759 -0.9110  0.3261  0.0104
 6604TIP3    H119776   0.198   4.979   1.703 -1.2790  1.5980  0.6668
 6604TIP3    H219777   0.156   4.964   1.847  1.1387 -3.1023  1.0542
 6605TIP3   OH219778   6.667   5.867   4.173  0.0470 -0.4903  0.2835
 6605TIP3    H119779   6.739   5.821   4.216 -0.5591 -2.9026 -1.1150
 6605TIP3    H219780   6.605   5.885   4.244  0.1390 -2.2423  0.8488
 6606TIP3   OH219781   5.427   2.266   3.832  0.1654 -0.0030 -0.5677
 6606TIP3    H119782   5.444   2.172   3.834 -1.7889 -0.3922  0.0582
 6606TIP3    H219783   5.485   2.302   3.899  1.6448 -0.5927 -1.4786
 6607TIP3   OH219784   6.288   0.529   1.524 -0.1286 -0.8351 -0.0363
 6607TIP3    H119785   6.251   0.474   1.456 -0.3556 -0.5066 -0.1799
 6607TIP3    H219786   6.341   0.469   1.578 -0.3748 -1.1893 -0.1886
 6608TIP3   OH219787   0.664   5.044   2.571  0.4877 -0.2473 -0.0230
 6608TIP3    H119788   0.714   5.116   2.610  1.1483  0.0417 -1.3322
 6608TIP3    H219789   0.593   5.087   2.524 -0.0875 -0.5656  0.5491
 6609TIP3   OH219790   3.823   3.800   4.428 -0.2964 -0.4626 -0.8063
 6609TIP3    H119791   3.735   3.774   4.401 -0.1872  0.3427 -2.0664
 6609TIP3    H219792   3.852   3.859   4.358  1.2303 -0.6900 -0.3921
 6610TIP3   OH219793   0.400   2.715   2.489 -0.1958 -0.2851  0.0213
 6610TIP3    H119794   0.332   2.683   2.429 -1.4948  1.9834  0.1918
 6610TIP3    H219795   0.457   2.769   2.435 -1.0467  1.3068  0.6324
 6611TIP3   OH219796   0.601   5.967   1.451 -0.4361  0.3395 -0.4024
 6611TIP3    H119797   0.608   5.876   1.423  0.2966  0.7418 -1.6274
 6611TIP3    H219798   0.649   5.971   1.533 -3.2383 -1.0439  1.4511
 6612TIP3   OH219799   6.627   5.676   5.288 -0.7262  0.4323 -0.3674
 6612TIP3    H119800   6.557   5.655   5.227  0.4652 -0.8196 -1.3813
 6612TIP3    H219801   6.706   5.640   5.248 -0.0692 -1.8247  2.5567
 6613TIP3   OH219802   2.586   0.293   4.252 -0.2905  0.3106  0.0648
 6613TIP3    H119803   2.672   0.254   4.243  0.6821  1.5596  2.7361
 6613TIP3    H219804   2.587   0.368   4.192 -0.5399 -1.1020 -1.7907
 6614TIP3   OH219805   1.443   4.568   0.097  0.3910  0.0148 -0.4565
 6614TIP3    H119806   1.500   4.611   0.160  0.6076  0.0264 -0.6596
 6614TIP3    H219807   1.427   4.481   0.135 -0.9488  0.6456  0.5046
 6615TIP3   OH219808   2.542   0.478   0.723 -0.1888  0.4605  0.0954
 6615TIP3    H119809   2.615   0.448   0.778  0.3929  2.6718  0.6458
 6615TIP3    H219810   2.469   0.421   0.747  1.2177 -1.5805 -0.2019
 6616TIP3   OH219811   6.947   5.312   0.513  0.0123 -0.8970  0.9972
 6616TIP3    H119812   6.978   5.394   0.551  0.7499 -0.3762 -0.6357
 6616TIP3    H219813   6.852   5.312   0.528 -0.1265  0.6935  0.2547
 6617TIP3   OH219814   5.595   4.365   0.258  0.1960  0.2721  0.0071
 6617TIP3    H119815   5.676   4.321   0.233  0.0454  0.5314 -0.9871
 6617TIP3    H219816   5.614   4.405   0.343  0.8759 -0.2641  0.1187
 6618TIP3   OH219817   4.783   3.385   3.579  0.0106  0.1216  0.5143
 6618TIP3    H119818   4.779   3.324   3.505 -0.4024 -0.4214  0.9740
 6618TIP3    H219819   4.837   3.458   3.547 -0.7950  0.2679 -0.5845
 6619TIP3   OH219820   3.543   5.361   5.225 -0.8954  0.9836 -0.0813
 6619TIP3    H119821   3.611   5.389   5.164  0.8494 -0.3172  1.1822
 6619TIP3    H219822   3.589   5.308   5.290 -3.1620 -0.1785  0.6820
 6620TIP3   OH219823   3.546   6.697   3.769 -0.1663 -0.2015  0.1916
 6620TIP3    H119824   3.514   6.780   3.804  2.0033  0.4589  0.7726
 6620TIP3    H219825   3.516   6.631   3.831 -0.0951  0.4175  0.8915
 6621TIP3   OH219826   2.448   4.243   3.433 -0.3604  0.5153 -0.3560
 6621TIP3    H119827   2.365   4.196   3.425  0.2247 -0.5091 -0.6840
 6621TIP3    H219828   2.493   4.201   3.507  0.1339  0.6108 -0.5928
 6622TIP3   OH219829   1.075   3.648   5.115  1.1822  0.0218  0.2000
 6622TIP3    H119830   1.152   3.599   5.144  0.7015 -0.4900  0.6228
 6622TIP3    H219831   1.088   3.659   5.020  1.5103 -0.5400  0.1741
 6623TIP3   OH219832   4.483   1.156   2.272 -0.4536 -0.4861 -0.8567
 6623TIP3    H119833   4.500   1.064   2.294  0.0822 -0.4956 -1.3112
 6623TIP3    H219834   4.569   1.194   2.258 -0.6858  0.0406 -0.8677
 6624TIP3   OH219835   6.141   6.802   3.219  0.2493  0.3057  0.0739
 6624TIP3    H119836   6.095   6.756   3.289  0.3774 -0.6276 -0.4361
 6624TIP3    H219837   6.231   6.809   3.249  0.0515  1.0177  0.5297
 6625TIP3   OH219838   5.886   5.187   3.637  0.4361 -0.2471  0.0714
 6625TIP3    H119839   5.847   5.188   3.549 -0.6173 -2.1613  0.4576
 6625TIP3    H219840   5.968   5.235   3.627  0.0807  0.0523 -1.8343
 6626TIP3   OH219841   6.913   1.655   1.623  0.8872 -0.2838  0.3432
 6626TIP3    H119842   6.984   1.600   1.590  0.8548 -0.5313  0.6868
 6626TIP3    H219843   6.837   1.632   1.569  1.1635  0.2711 -0.2966
 6627TIP3   OH219844   4.787   3.832   5.524 -0.5827 -0.2490 -0.2242
 6627TIP3    H119845   4.714   3.814   5.465 -1.3899  1.3599  0.2052
 6627TIP3    H219846   4.859   3.778   5.492 -1.8083 -1.4792 -0.9787
 6628TIP3   OH219847   0.011   1.674   3.758 -0.1039 -0.1823 -0.1007
 6628TIP3    H119848   0.034   1.699   3.669  2.3626 -0.0165  0.4988
 6628TIP3    H219849   0.028   1.753   3.810  0.8518 -0.9718  0.8258
 6629TIP3   OH219850   3.543   5.868   3.993 -0.2047  0.0697 -0.2860
 6629TIP3    H119851   3.576   5.778   3.991  0.4124  0.2091  1.5777
 6629TIP3    H219852   3.595   5.914   3.927  0.5629 -0.6082 -0.1680
 6630TIP3   OH219853   4.484   4.384   1.524 -0.0464  0.0026  0.0367
 6630TIP3    H119854   4.470   4.337   1.442  1.2568  1.7182 -1.2333
 6630TIP3    H219855   4.518   4.317   1.585  2.2115 -0.6936 -1.8358
 6631TIP3   OH219856   1.564   1.839   4.381 -0.2755 -0.1992  0.2517
 6631TIP3    H119857   1.597   1.922   4.349 -0.7800  0.3503  1.1260
 6631TIP3    H219858   1.496   1.862   4.444 -0.6914 -1.2771  0.2247
 6632TIP3   OH219859   4.309   5.912   4.550 -0.4092  0.1862  0.0104
 6632TIP3    H119860   4.357   5.832   4.571 -0.0493  0.6163  0.8578
 6632TIP3    H219861   4.250   5.926   4.625  0.0082  1.0724  0.1856
 6633TIP3   OH219862   3.665   0.151   5.540  0.6483 -0.1461  0.3300
 6633TIP3    H119863   3.617   0.084   5.589  0.3179  1.0726  1.7435
 6633TIP3    H219864   3.687   0.109   5.457 -2.5295 -0.9029 -0.2476
 6634TIP3   OH219865   0.909   4.343   2.322 -0.1015  0.6376 -0.2879
 6634TIP3    H119866   0.977   4.278   2.307 -1.6051 -0.7348 -1.5869
 6634TIP3    H219867   0.827   4.293   2.317 -1.2919  2.5150 -0.5761
 6635TIP3   OH219868   0.300   0.601   2.158 -0.0432  0.1756 -0.1844
 6635TIP3    H119869   0.368   0.564   2.214  0.9030  1.2743 -0.5514
 6635TIP3    H219870   0.296   0.543   2.083 -1.5699 -1.5120  1.1239
 6636TIP3   OH219871   0.012   3.365   5.037 -0.5751  0.1940  0.4758
 6636TIP3    H119872  -0.000   3.341   4.945 -0.0493  0.3425  0.3644
 6636TIP3    H219873   0.008   3.461   5.037  1.2828  0.3151  0.3055
 6637TIP3   OH219874   6.681   6.274   1.190  0.7322 -0.3657 -0.1177
 6637TIP3    H119875   6.612   6.337   1.210  1.9054  0.5594  1.2544
 6637TIP3    H219876   6.754   6.328   1.158  1.2519 -1.1796 -0.3342
 6638TIP3   OH219877   5.954   4.895   0.788 -0.3155 -0.4423  0.4254
 6638TIP3    H119878   6.047   4.918   0.776 -0.5671 -0.0667 -0.9941
 6638TIP3    H219879   5.914   4.976   0.819 -0.6076  0.1814 -1.4486
 6639TIP3   OH219880   5.319   4.854   5.460 -0.3087  0.6927 -0.0522
 6639TIP3    H119881   5.379   4.876   5.532  0.8571 -1.1968 -0.3836
 6639TIP3    H219882   5.358   4.895   5.383  0.5004 -0.3887 -0.2362
 6640TIP3   OH219883   4.057   6.521   5.576  0.3581 -0.2159 -0.2445
 6640TIP3    H119884   4.106   6.552   5.651  0.1398 -1.1376  0.2889
 6640TIP3    H219885   4.013   6.441   5.606  0.0353 -0.4419 -1.2548
 6641TIP3   OH219886   1.347   0.217   3.640 -0.3563  0.2187 -0.6421
 6641TIP3    H119887   1.400   0.139   3.624 -1.3229 -0.1073 -2.5613
 6641TIP3    H219888   1.407   0.279   3.681  0.8023 -1.0277 -0.3822
 6642TIP3   OH219889   1.155   3.189  -0.003  0.2842 -0.4280 -0.2650
 6642TIP3    H119890   1.191   3.132   0.064  1.7428 -0.3009 -0.9123
 6642TIP3    H219891   1.063   3.199   0.021 -0.2500 -3.6779 -0.5945
 6643TIP3   OH219892   1.783   2.364   3.004 -0.0890 -0.4126  0.3918
 6643TIP3    H119893   1.703   2.351   2.953  1.1093 -1.5040 -1.2963
 6643TIP3    H219894   1.842   2.410   2.944  0.5035  0.5999  1.7000
 6644TIP3   OH219895   7.176   1.276   2.923  0.1937 -0.3245 -0.4105
 6644TIP3    H119896   7.257   1.229   2.944 -1.1887 -2.5296  0.3057
 6644TIP3    H219897   7.150   1.317   3.006  1.1044  1.3110 -0.9013
 6645TIP3   OH219898   6.712   0.761   2.861 -0.4789  0.1440 -0.5589
 6645TIP3    H119899   6.722   0.746   2.767 -4.1450 -0.4442 -1.0208
 6645TIP3    H219900   6.731   0.676   2.901 -1.7197 -0.4307 -1.1275
 6646TIP3   OH219901   2.263   6.511   2.988 -0.1117 -0.0607 -0.9314
 6646TIP3    H119902   2.255   6.445   3.057  2.2777  1.1010  0.5414
 6646TIP3    H219903   2.192   6.489   2.927 -0.0807 -3.3393 -0.0009
 6647TIP3   OH219904   2.717   0.371   0.920  0.3987  0.2941  0.0192
 6647TIP3    H119905   2.794   0.428   0.920  0.1281  0.6800  0.8458
 6647TIP3    H219906   2.721   0.325   1.004 -0.3999  0.5039  0.1797
 6648TIP3   OH219907   6.904   3.704   5.126  0.0671 -0.9009  0.5158
 6648TIP3    H119908   6.893   3.779   5.067 -0.8225 -1.4645 -0.0591
 6648TIP3    H219909   6.945   3.741   5.204  0.4247  0.0309 -0.0944
 6649TIP3   OH219910   6.283   5.550   2.464 -0.0501  0.1114  0.6924
 6649TIP3    H119911   6.212   5.547   2.400 -0.2784  1.3189  0.8662
 6649TIP3    H219912   6.240   5.566   2.548  0.4443  1.2117  0.7455
 6650TIP3   OH219913   6.781   3.594   0.859  0.0932  0.0376 -0.5085
 6650TIP3    H119914   6.816   3.627   0.942 -1.5083 -0.8713  0.5876
 6650TIP3    H219915   6.831   3.514   0.842  0.0297 -0.0934 -0.1005
 6651TIP3   OH219916   3.348   1.455   3.339 -0.1923  0.2600 -0.5929
 6651TIP3    H119917   3.347   1.493   3.251 -0.1315  0.2982 -0.5777
 6651TIP3    H219918   3.285   1.384   3.335  0.3493 -0.2215 -0.8877
 6652TIP3   OH219919   6.131   6.773   2.571 -0.2797  0.3748  0.4105
 6652TIP3    H119920   6.061   6.804   2.630  0.4444 -0.4577  1.7459
 6652TIP3    H219921   6.212   6.791   2.619  0.2281 -2.5312  0.7821
 6653TIP3   OH219922   1.024   2.566   4.897  0.0623 -0.0939 -0.0335
 6653TIP3    H119923   1.031   2.471   4.895 -0.5116 -0.1604  0.8748
 6653TIP3    H219924   0.947   2.586   4.844  0.0473 -0.1501 -0.0327
 6654TIP3   OH219925   0.362   5.787   2.323 -0.0401  0.0457 -0.1258
 6654TIP3    H119926   0.272   5.821   2.325 -0.1114 -0.1668  0.2962
 6654TIP3    H219927   0.352   5.692   2.317  0.1472 -0.0537  1.0504
 6655TIP3   OH219928   1.044   4.453   2.596  0.4285 -0.5819 -0.1270
 6655TIP3    H119929   0.954   4.421   2.586  0.5274 -0.5946 -1.0310
 6655TIP3    H219930   1.096   4.375   2.611  0.3428 -0.6110  0.0237
 6656TIP3   OH219931   4.155   5.114   4.247 -0.0311  0.0329 -0.8800
 6656TIP3    H119932   4.153   5.200   4.288  0.1018 -0.5419  0.3805
 6656TIP3    H219933   4.069   5.076   4.269  0.2169 -0.4525 -0.7428
 6657TIP3   OH219934   1.694   6.396   3.593 -0.2835  0.1139 -0.3773
 6657TIP3    H119935   1.774   6.396   3.540  0.7271 -0.3439  1.0907
 6657TIP3    H219936   1.625   6.368   3.532  1.0316 -1.5362 -1.2029
 6658TIP3   OH219937   3.847   1.712   2.087 -0.2949 -0.3328  0.5353
 6658TIP3    H119938   3.894   1.786   2.048  0.0591 -0.2219  1.1453
 6658TIP3    H219939   3.758   1.746   2.102 -0.3315 -0.2623  0.1602
 6659TIP3   OH219940   5.942   6.694   0.862 -0.3847  0.3699  0.3097
 6659TIP3    H119941   5.886   6.772   0.862 -1.0510 -0.1049  0.0239
 6659TIP3    H219942   5.902   6.635   0.925 -0.7378 -0.3414 -0.5670
 6660TIP3   OH219943   5.429   4.938   2.829 -0.4488  0.1802  0.0572
 6660TIP3    H119944   5.463   4.965   2.914  0.5326  0.6642 -0.4727
 6660TIP3    H219945   5.506   4.913   2.779 -1.2197 -2.5186  0.1042
 6661TIP3   OH219946   4.893   2.639   2.668 -0.1623 -0.0604 -0.0760
 6661TIP3    H119947   4.813   2.607   2.627 -0.0435 -0.3024 -0.1237
 6661TIP3    H219948   4.959   2.572   2.647 -0.1921 -0.3968  0.8601
 6662TIP3   OH219949   0.120   0.266   1.110  0.1355 -0.2979 -0.4997
 6662TIP3    H119950   0.105   0.268   1.204 -1.7411  0.6352 -0.7697
 6662TIP3    H219951   0.055   0.205   1.076 -0.2097  0.5171 -1.3353
 6663TIP3   OH219952   3.865   2.478   3.206 -0.0567 -0.2020  0.7734
 6663TIP3    H119953   3.782   2.486   3.252 -1.3393 -0.1088 -1.3810
 6663TIP3    H219954   3.884   2.567   3.175  0.4318 -0.3714  0.5627
 6664TIP3   OH219955   5.170   2.324   1.365  0.8281 -0.0460  0.4876
 6664TIP3    H119956   5.149   2.281   1.448 -1.1411 -0.0117  0.0585
 6664TIP3    H219957   5.134   2.412   1.374 -0.5399 -0.4364 -0.8332
 6665TIP3   OH219958   3.685   1.209   3.031 -0.7042 -0.5430 -0.0236
 6665TIP3    H119959   3.629   1.132   3.046 -0.3153 -0.6666  0.8485
 6665TIP3    H219960   3.774   1.177   3.045 -0.3992 -0.3496 -1.4347
 6666TIP3   OH219961   4.098   5.060   0.481 -0.1633  0.4902  0.4462
 6666TIP3    H119962   4.155   5.123   0.438  0.4715 -0.5997 -0.3769
 6666TIP3    H219963   4.028   5.112   0.519  0.5046  1.7044  0.0606
 6667TIP3   OH219964   2.675   2.507   4.499 -0.4030 -0.4022 -0.2366
 6667TIP3    H119965   2.667   2.449   4.575 -1.5977 -0.9912 -0.7855
 6667TIP3    H219966   2.664   2.449   4.424 -2.9502  0.6868 -0.7949
 6668TIP3   OH219967   3.835   5.187   5.544 -0.0173 -0.7441 -0.0934
 6668TIP3    H119968   3.910   5.150   5.592  0.6422  0.8732  0.2024
 6668TIP3    H219969   3.875   5.245   5.479 -0.9957  0.7319  0.5594
 6669TIP3   OH219970   1.313   3.234   5.481 -0.7597  0.2076  0.8062
 6669TIP3    H119971   1.365   3.267   5.554 -0.3632 -0.7209  0.9591
 6669TIP3    H219972   1.311   3.139   5.494  0.9025 -0.1962 -1.3805
 6670TIP3   OH219973   3.811   4.420   0.210  0.2770  0.0602  0.4103
 6670TIP3    H119974   3.780   4.363   0.139  2.1252 -0.1429 -0.2870
 6670TIP3    H219975   3.731   4.459   0.246 -0.7979 -0.7230 -1.0184
 6671TIP3   OH219976   2.560   2.687   5.918 -0.5313 -0.0777 -0.0859
 6671TIP3    H119977   2.542   2.698   5.825  0.5690  1.6695 -0.1550
 6671TIP3    H219978   2.651   2.658   5.922  0.1157  1.8689  0.4440
 6672TIP3   OH219979   3.254   3.492   2.851  0.3669  0.4974  0.0563
 6672TIP3    H119980   3.219   3.577   2.879 -1.1341  0.3766 -1.3303
 6672TIP3    H219981   3.348   3.501   2.862  0.2968  2.5582 -0.5737
 6673TIP3   OH219982   5.889   2.402   0.239  0.4614 -0.0324  0.0405
 6673TIP3    H119983   5.892   2.430   0.331  0.2686 -1.9800  0.6793
 6673TIP3    H219984   5.805   2.357   0.231  0.6234 -0.1695 -1.0231
 6674TIP3   OH219985   3.925   2.661   2.232 -0.0815  0.1717 -0.4701
 6674TIP3    H119986   3.917   2.610   2.151 -1.1114  0.8663 -0.8351
 6674TIP3    H219987   3.861   2.732   2.221 -0.1629  0.3349  0.9126
 6675TIP3   OH219988   2.264   0.309   3.167  0.1933 -0.2203 -0.1536
 6675TIP3    H119989   2.254   0.270   3.080 -0.9004 -1.6054  0.5611
 6675TIP3    H219990   2.313   0.390   3.151 -1.2871  0.3415 -2.2513
 6676TIP3   OH219991   6.834   2.335   2.477 -0.1672 -0.1073  0.1192
 6676TIP3    H119992   6.752   2.303   2.514 -0.9009 -0.0753 -1.4017
 6676TIP3    H219993   6.856   2.412   2.529 -0.9959 -0.2282  0.6643
 6677TIP3   OH219994   2.448   6.014   2.363 -0.1311 -0.5105  0.1199
 6677TIP3    H119995   2.402   6.013   2.446 -0.1042 -0.9848  0.1338
 6677TIP3    H219996   2.394   5.961   2.304  1.2711 -2.6573  0.6409
 6678TIP3   OH219997   6.193   0.833   1.407 -0.2560 -0.3240  0.2690
 6678TIP3    H119998   6.275   0.786   1.420 -0.1435 -0.0575  0.5112
 6678TIP3    H219999   6.174   0.822   1.314  1.4624  1.9204 -0.4314
 6679TIP3   OH220000   4.523   2.733   1.931 -0.3302  0.1978 -0.0177
 6679TIP3    H120001   4.459   2.803   1.920 -0.5189  0.3514  1.7214
 6679TIP3    H220002   4.596   2.758   1.876 -0.5224  1.6209  0.3325
 6680TIP3   OH220003   3.237   3.271   1.291 -0.0129  0.6033  0.3678
 6680TIP3    H120004   3.318   3.225   1.269  0.0950  0.3021  1.3481
 6680TIP3    H220005   3.177   3.248   1.220  0.7300  0.7915 -0.3447
 6681TIP3   OH220006  -0.015   2.053   5.369 -0.2254 -0.0813 -0.0509
 6681TIP3    H120007   0.073   2.024   5.392 -0.0145  1.0231  0.5923
 6681TIP3    H220008  -0.002   2.107   5.291 -0.1405  1.1407  0.7809
 6682TIP3   OH220009   4.060   4.637   5.249  0.1605  0.1279  0.3029
 6682TIP3    H120010   4.093   4.589   5.325 -1.7754  1.3122  1.9752
 6682TIP3    H220011   4.002   4.575   5.204 -0.7949  0.2443  1.3401
 6683TIP3   OH220012   3.439   1.978   1.614  0.4174 -0.6880 -0.5091
 6683TIP3    H120013   3.461   2.049   1.554  1.5075 -1.7482 -1.4176
 6683TIP3    H220014   3.523   1.935   1.632  0.1295 -0.4117  1.7963
 6684TIP3   OH220015   0.351   5.891   4.727  0.1704  0.5894  0.6120
 6684TIP3    H120016   0.386   5.821   4.672  0.9005  2.5800 -1.6283
 6684TIP3    H220017   0.366   5.861   4.817 -0.4487 -2.5145 -0.2045
 6685TIP3   OH220018   5.162   1.952   5.248  0.2538 -0.1063  0.0977
 6685TIP3    H120019   5.069   1.967   5.231  0.1502  0.1369  0.8785
 6685TIP3    H220020   5.197   2.039   5.265  0.8588 -0.0540 -1.2983
 6686TIP3   OH220021   7.003   5.816   2.452  0.2889 -0.0023 -0.3877
 6686TIP3    H120022   7.069   5.761   2.408  0.1840 -0.7424  0.3518
 6686TIP3    H220023   7.031   5.818   2.543 -0.0705  0.6666 -0.2845
 6687TIP3   OH220024   0.330   6.373   0.625 -0.1250  0.3588  0.0821
 6687TIP3    H120025   0.410   6.416   0.653 -1.5795  2.8254  0.7689
 6687TIP3    H220026   0.326   6.293   0.677  1.5114  0.5314  0.5193
 6688TIP3   OH220027   1.723   5.087   2.413 -0.4053  0.7990 -0.0988
 6688TIP3    H120028   1.654   5.121   2.356 -0.8939 -1.1399 -0.7621
 6688TIP3    H220029   1.789   5.053   2.352 -0.6054 -0.6737  0.4533
 6689TIP3   OH220030   0.184   6.778   4.194 -0.0381 -0.1316  0.0355
 6689TIP3    H120031   0.122   6.805   4.127 -1.2688 -0.8214  0.8721
 6689TIP3    H220032   0.139   6.795   4.277  0.3888 -1.7874  0.6348
 6690TIP3   OH220033   2.190   1.279   0.073  0.2890 -0.3442  0.1699
 6690TIP3    H120034   2.207   1.346   0.006  0.1551 -0.8570 -0.3802
 6690TIP3    H220035   2.209   1.324   0.156 -1.6285  0.9688 -0.0426
 6691TIP3   OH220036   0.375   3.245   3.807 -0.4161 -0.0471  0.6254
 6691TIP3    H120037   0.302   3.183   3.804 -1.1640  0.8267  0.5420
 6691TIP3    H220038   0.335   3.329   3.828  0.2028  1.0195 -2.1344
 6692TIP3   OH220039   4.717   2.686   0.332  0.4907 -0.0556 -0.5424
 6692TIP3    H120040   4.652   2.663   0.266  1.5365 -1.4910 -1.1172
 6692TIP3    H220041   4.684   2.648   0.413  2.0643 -3.6716 -1.4189
 6693TIP3   OH220042   6.728   2.009   3.416 -0.0878 -0.5219 -0.0647
 6693TIP3    H120043   6.743   2.024   3.322 -0.3175 -2.7978 -0.5187
 6693TIP3    H220044   6.812   1.976   3.448 -0.2321 -0.4644  0.3663
 6694TIP3   OH220045   4.975   5.321   0.921  0.2382 -0.4776  0.5149
 6694TIP3    H120046   5.008   5.304   0.833 -0.2135 -1.8616  0.5924
 6694TIP3    H220047   4.905   5.386   0.908  2.0911  1.5722  0.2275
 6695TIP3   OH220048   4.391   0.227   2.474 -0.0870  0.0556 -0.8571
 6695TIP3    H120049   4.449   0.164   2.430 -1.2905 -0.0860 -2.3157
 6695TIP3    H220050   4.399   0.307   2.422  1.7642  1.3612  1.2321
 6696TIP3   OH220051   1.638   1.451   1.564 -0.6266  0.1131  0.2272
 6696TIP3    H120052   1.694   1.414   1.632  2.3128  0.2932 -1.9057
 6696TIP3    H220053   1.692   1.518   1.523 -1.9438 -0.5052 -2.7559
 6697TIP3   OH220054   0.896   1.303   2.279  0.6347 -0.9040 -0.4013
 6697TIP3    H120055   0.838   1.227   2.290  0.4981 -0.6812  0.5156
 6697TIP3    H220056   0.967   1.271   2.223  1.4635 -2.2424  1.3049
 6698TIP3   OH220057   6.200   6.608   1.066  0.2628 -0.5032  0.2076
 6698TIP3    H120058   6.176   6.563   0.985  0.2370  0.0904 -0.1183
 6698TIP3    H220059   6.117   6.617   1.113  0.0649  0.2392 -0.2579
 6699TIP3   OH220060   5.739   1.978   2.082  0.6631  0.2035  0.6460
 6699TIP3    H120061   5.771   1.908   2.026  2.5043 -0.2620  2.1688
 6699TIP3    H220062   5.761   1.950   2.171 -0.1470  1.9128  1.4426
 6700TIP3   OH220063   1.584   1.923   3.262 -0.3558  0.7411  0.0602
 6700TIP3    H120064   1.490   1.935   3.251 -0.6816 -1.8734 -0.7081
 6700TIP3    H220065   1.593   1.876   3.346 -0.0744 -1.4891 -1.1216
 6701TIP3   OH220066   0.981   5.084   3.894 -0.4002  1.0759 -0.2993
 6701TIP3    H120067   1.073   5.103   3.916 -0.3567 -0.6789  1.2917
 6701TIP3    H220068   0.975   4.989   3.898 -1.9091  1.0401 -2.1963
 6702TIP3   OH220069   1.595   4.891   4.277  0.3815  0.5119 -0.2204
 6702TIP3    H120070   1.689   4.889   4.258  0.4751  0.8759  0.1798
 6702TIP3    H220071   1.559   4.948   4.209  0.3679 -0.0750 -0.7069
 6703TIP3   OH220072   7.210   1.338   2.639 -0.1912 -0.1064  0.3508
 6703TIP3    H120073   7.117   1.358   2.647 -0.7687 -2.1502 -0.5547
 6703TIP3    H220074   7.243   1.343   2.728 -1.4314 -0.5055  0.8585
 6704TIP3   OH220075   4.051   5.288   3.980 -0.4329  0.2764  0.1573
 6704TIP3    H120076   4.054   5.349   3.906  0.8514  0.5805  0.4399
 6704TIP3    H220077   4.100   5.331   4.049 -0.8561 -0.4027  0.8992
 6705TIP3   OH220078   5.058   6.845   3.245 -0.1509 -0.4468  0.3308
 6705TIP3    H120079   5.028   6.760   3.277 -0.7577 -0.3867 -0.0544
 6705TIP3    H220080   5.108   6.824   3.166 -1.2157 -0.3735 -0.3753
 6706TIP3   OH220081   3.239   4.070   4.823  0.3180 -0.0143  0.5575
 6706TIP3    H120082   3.214   4.100   4.910  1.7288  1.0958  0.6214
 6706TIP3    H220083   3.332   4.093   4.815  0.2519 -0.1654 -1.2014
 6707TIP3   OH220084   3.434   5.546   4.124  0.1688  0.0528 -0.3689
 6707TIP3    H120085   3.372   5.590   4.066 -0.3243 -0.0101  0.0964
 6707TIP3    H220086   3.395   5.555   4.212  0.6399 -0.3001 -0.1180
 6708TIP3   OH220087   4.793   0.970   3.066 -0.0132 -0.6333 -0.1012
 6708TIP3    H120088   4.770   0.930   3.149 -3.4241 -3.6848 -2.2414
 6708TIP3    H220089   4.871   0.922   3.036  0.7252 -0.0790  0.8803
 6709TIP3   OH220090   5.026   4.834   0.330  0.4391  0.3501  0.3267
 6709TIP3    H120091   5.054   4.874   0.248  1.7578  0.8483  0.9741
 6709TIP3    H220092   5.051   4.742   0.321 -0.9588  0.0328 -0.4685
 6710TIP3   OH220093   0.752   4.056   5.161  0.1588 -0.4481  0.2112
 6710TIP3    H120094   0.695   4.111   5.216 -1.0623 -0.3154 -1.1221
 6710TIP3    H220095   0.825   4.113   5.136 -0.4210  0.1791 -0.0820
 6711TIP3   OH220096   0.564   0.587   0.504 -0.0875  0.1114  0.4763
 6711TIP3    H120097   0.553   0.618   0.594 -1.2175  0.6127  0.1888
 6711TIP3    H220098   0.482   0.611   0.461 -0.8027 -2.7516  0.0769
 6712TIP3   OH220099   6.969   0.487   1.472 -0.4992 -0.2746 -0.2466
 6712TIP3    H120100   6.959   0.580   1.450  2.7883 -0.1628 -1.7368
 6712TIP3    H220101   6.980   0.486   1.567 -1.7415  0.6743 -0.0634
 6713TIP3   OH220102   1.774   5.839   1.883  0.0185  0.0325 -0.0228
 6713TIP3    H120103   1.778   5.935   1.878  1.2063 -0.0055  0.0829
 6713TIP3    H220104   1.681   5.821   1.898 -0.0038  1.2401  1.5134
 6714TIP3   OH220105   6.630   0.290   1.857 -0.7460  0.0050  0.3510
 6714TIP3    H120106   6.601   0.235   1.929 -1.7690 -1.2628 -0.9890
 6714TIP3    H220107   6.722   0.267   1.844 -0.3740  0.6672  1.5732
 6715TIP3   OH220108   3.361   6.428   2.364  0.0825  0.0349 -0.0957
 6715TIP3    H120109   3.396   6.398   2.280 -0.5476  0.1551 -0.4108
 6715TIP3    H220110   3.422   6.495   2.394  1.1731 -1.1041  0.3077
 6716TIP3   OH220111   6.323   3.614   2.989  0.0486 -0.2011  0.6366
 6716TIP3    H120112   6.417   3.607   2.977 -0.0738 -1.6374  0.2400
 6716TIP3    H220113   6.302   3.546   3.053 -0.9745 -1.4832 -0.9706
 6717TIP3   OH220114   2.826   5.021   4.852 -0.3215 -0.4100  0.1700
 6717TIP3    H120115   2.826   4.926   4.865  1.6014 -0.1182  3.5360
 6717TIP3    H220116   2.756   5.052   4.911 -0.2057  0.3355 -0.0800
 6718TIP3   OH220117   7.163   0.144   1.938  0.2001 -0.0355  0.4308
 6718TIP3    H120118   7.163   0.049   1.948 -0.2746 -0.0169  0.6861
 6718TIP3    H220119   7.127   0.159   1.851 -2.8401 -0.0398  1.5475
 6719TIP3   OH220120   0.293   0.590   3.437  0.0755  0.1825  0.3588
 6719TIP3    H120121   0.204   0.625   3.425 -0.9321 -1.7501  1.6970
 6719TIP3    H220122   0.324   0.572   3.348 -1.2793 -0.0636 -0.0911
 6720TIP3   OH220123   4.638   6.707   5.828  0.3217 -0.6190 -0.0584
 6720TIP3    H120124   4.688   6.642   5.778 -0.4819  0.2589 -2.0902
 6720TIP3    H220125   4.561   6.659   5.860  1.3510 -1.4453  1.3128
 6721TIP3   OH220126   3.397   1.228   1.742  0.9604  0.6617  0.1183
 6721TIP3    H120127   3.472   1.271   1.783 -0.4129  1.1262  2.2589
 6721TIP3    H220128   3.359   1.296   1.686 -0.0199  1.6971  1.9447
 6722TIP3   OH220129   5.871   5.047   1.322  0.0631  0.4121  0.1479
 6722TIP3    H120130   5.881   4.975   1.260 -0.7474  1.6571 -1.4873
 6722TIP3    H220131   5.954   5.049   1.369  0.4498 -0.9862 -0.4196
 6723TIP3   OH220132   2.565   3.547   2.668  0.5784 -0.3878  0.1399
 6723TIP3    H120133   2.623   3.596   2.727  1.9864  0.9866 -2.2098
 6723TIP3    H220134   2.479   3.587   2.680  0.8556 -0.0689  1.1681
 6724TIP3   OH220135   2.890   6.022   1.260  0.1862 -0.0458  0.2110
 6724TIP3    H120136   2.937   6.038   1.342  0.6498  1.7456 -0.3714
 6724TIP3    H220137   2.885   6.107   1.218  1.4706 -1.1690 -2.4511
 6725TIP3   OH220138   1.882   0.130   0.943  0.0135  0.5684 -0.4314
 6725TIP3    H120139   1.908   0.068   0.874 -0.8871 -0.4703  0.1196
 6725TIP3    H220140   1.964   0.170   0.972  0.3737  1.3202 -2.3486
 6726TIP3   OH220141   7.136   2.090   0.989  0.3623 -0.4806  0.2304
 6726TIP3    H120142   7.048   2.077   0.954  0.6268 -0.8917 -0.2940
 6726TIP3    H220143   7.183   2.139   0.922 -0.1595  1.9273  1.5399
 6727TIP3   OH220144   4.747   2.553   4.929 -0.3656 -0.6212 -0.0522
 6727TIP3    H120145   4.670   2.530   4.980  0.6329 -2.4280  0.7153
 6727TIP3    H220146   4.722   2.633   4.883 -3.5737 -2.4721 -1.8031
 6728TIP3   OH220147   6.487   5.750   3.028  0.0147  0.2384  0.0674
 6728TIP3    H120148   6.480   5.816   3.097  1.8180 -0.4696  0.9609
 6728TIP3    H220149   6.396   5.723   3.012 -0.5527  1.3623  1.2012
 6729TIP3   OH220150   5.176   5.685   2.051 -0.1634  0.0086  0.1887
 6729TIP3    H120151   5.251   5.625   2.049 -1.0963 -1.2119  0.6313
 6729TIP3    H220152   5.101   5.629   2.072 -0.8893  1.5380  1.9327
 6730TIP3   OH220153   3.241   3.830   1.934 -0.0072 -0.1822  0.0081
 6730TIP3    H120154   3.220   3.910   1.982 -2.2356 -1.2839  1.0766
 6730TIP3    H220155   3.209   3.845   1.846  0.4210  0.4151 -0.0490
 6731TIP3   OH220156   1.640   4.299   0.240  0.0901  0.1611  0.3815
 6731TIP3    H120157   1.632   4.339   0.153  1.3902 -1.7412 -0.7004
 6731TIP3    H220158   1.704   4.354   0.286 -0.0393  0.7567 -0.1325
 6732TIP3   OH220159   6.934   4.435   5.633 -0.2978 -0.0121  0.4668
 6732TIP3    H120160   6.870   4.468   5.569  0.3230  0.4018  0.0459
 6732TIP3    H220161   7.006   4.499   5.629  1.4101 -1.8983 -1.0801
 6733TIP3   OH220162   5.223   4.336   1.638  0.0272  0.0763 -0.7398
 6733TIP3    H120163   5.216   4.242   1.619 -0.9228  0.0087 -0.1468
 6733TIP3    H220164   5.246   4.340   1.731 -0.6068  0.4206 -0.5895
 6734TIP3   OH220165   6.896   1.776   2.657  0.1329  0.3619 -0.5120
 6734TIP3    H120166   6.802   1.786   2.640 -0.3269 -2.0796  0.1368
 6734TIP3    H220167   6.938   1.808   2.578 -1.3975 -0.5876 -1.7873
 6735TIP3   OH220168   3.775   5.643   4.316  0.4060 -0.5441 -0.2409
 6735TIP3    H120169   3.737   5.556   4.308  0.2691 -0.6693  1.5488
 6735TIP3    H220170   3.869   5.629   4.302  0.5225 -1.1642  1.0282
 6736TIP3   OH220171   1.535   2.276   1.659  0.4735  0.0487 -0.3874
 6736TIP3    H120172   1.464   2.212   1.668  1.2342 -0.9435 -1.1861
 6736TIP3    H220173   1.600   2.247   1.723  1.3551 -0.7522 -1.5987
 6737TIP3   OH220174   3.053   4.936   3.261 -0.3118 -0.1488 -0.3458
 6737TIP3    H120175   3.142   4.906   3.280 -1.0269 -1.4111  1.3615
 6737TIP3    H220176   3.055   5.030   3.277  0.5064 -0.3147  0.6237
 6738TIP3   OH220177   1.409   2.834   0.271 -0.2660  0.3920 -0.1125
 6738TIP3    H120178   1.481   2.894   0.252  1.2796 -1.9018 -2.2529
 6738TIP3    H220179   1.427   2.803   0.360  1.1157  0.2957 -0.3970
 6739TIP3   OH220180   0.197   1.121   0.125  0.1959 -0.3958 -0.1442
 6739TIP3    H120181   0.184   1.126   0.220 -0.4612  2.4985 -0.2717
 6739TIP3    H220182   0.286   1.155   0.111  0.8126 -2.0864 -0.5171
 6740TIP3   OH220183   6.991   2.092   3.612  0.5400  0.0511 -0.0263
 6740TIP3    H120184   7.068   2.042   3.588  0.3934  0.0307 -0.4545
 6740TIP3    H220185   6.922   2.027   3.625  0.6379  0.0538  0.5382
 6741TIP3   OH220186   3.198   3.148   0.527 -0.4766 -0.3010  0.1689
 6741TIP3    H120187   3.292   3.131   0.528 -0.8775 -2.9081  1.0057
 6741TIP3    H220188   3.167   3.106   0.446 -1.1063 -0.8299  0.6739
 6742TIP3   OH220189   7.222   0.050   1.297  0.1174 -0.0287  0.3497
 6742TIP3    H120190   7.223  -0.035   1.341 -0.8207  0.8450  2.1865
 6742TIP3    H220191   7.165   0.037   1.221  2.3228 -1.7608 -1.1541
 6743TIP3   OH220192   0.316   1.287   2.225 -0.0322 -0.3906 -0.1927
 6743TIP3    H120193   0.291   1.219   2.162 -1.4647  0.5857 -0.7329
 6743TIP3    H220194   0.242   1.348   2.226  1.2703  1.2771  0.1238
 6744TIP3   OH220195   5.744   2.068   4.433 -0.0922  0.0517 -0.0624
 6744TIP3    H120196   5.671   2.103   4.484  1.2003  2.1188  0.4992
 6744TIP3    H220197   5.816   2.129   4.450  0.9374 -0.2346 -2.8778
 6745TIP3   OH220198   0.485   1.801   0.388  0.3606  0.4634  0.7306
 6745TIP3    H120199   0.486   1.879   0.332 -0.8539 -1.0707 -1.6039
 6745TIP3    H220200   0.563   1.752   0.364  0.0137 -0.0455  0.6260
 6746TIP3   OH220201   4.000   0.955   4.288 -0.0892 -0.4657  0.4654
 6746TIP3    H120202   3.970   0.872   4.252 -0.2028 -0.2485  0.0559
 6746TIP3    H220203   4.055   0.993   4.219 -2.4292  1.2014 -0.6295
 6747TIP3   OH220204   1.922   5.921   4.293 -0.8298 -0.1958  0.1915
 6747TIP3    H120205   1.952   6.006   4.260 -2.2653 -0.3354 -1.5960
 6747TIP3    H220206   1.999   5.864   4.288 -0.1302  0.7066  0.4132
 6748TIP3   OH220207   5.976   6.835   4.366  0.2171 -0.6838  0.4165
 6748TIP3    H120208   6.013   6.788   4.441  4.5338  1.1907 -0.2172
 6748TIP3    H220209   5.985   6.774   4.292 -0.0581 -1.0360  0.6709
 6749TIP3   OH220210   2.955   1.434   4.422  0.2956 -0.2823 -0.0690
 6749TIP3    H120211   2.890   1.413   4.489 -0.1869  0.4068 -0.3122
 6749TIP3    H220212   2.904   1.456   4.345  0.7756  1.0739 -0.0382
 6750TIP3   OH220213   5.167   1.559   4.692  0.6337 -0.2219 -0.1784
 6750TIP3    H120214   5.089   1.504   4.687 -0.5015  1.3450 -0.4819
 6750TIP3    H220215   5.222   1.517   4.759 -1.8591  0.2979  2.3865
 6751TIP3   OH220216   1.138   0.294   2.927  0.2453 -0.4741  0.0138
 6751TIP3    H120217   1.202   0.315   2.994 -0.8917  3.1888  0.1417
 6751TIP3    H220218   1.062   0.262   2.976  0.7441 -1.5503  0.1127
 6752TIP3   OH220219   1.356   1.252   0.514  0.3698 -0.1376  0.5018
 6752TIP3    H120220   1.425   1.274   0.451  0.2114  0.6852  0.5992
 6752TIP3    H220221   1.308   1.334   0.526  1.7380  0.3768  3.3887
 6753TIP3   OH220222   5.382   2.333   3.304 -0.0448  0.3550 -0.7129
 6753TIP3    H120223   5.441   2.408   3.313  0.2012  0.4215 -2.5403
 6753TIP3    H220224   5.315   2.347   3.371 -0.1474  2.3544 -1.1870
 6754TIP3   OH220225   5.177   0.503   5.589  0.0955  0.4022  0.9251
 6754TIP3    H120226   5.251   0.454   5.554 -1.0829 -0.5401 -0.3498
 6754TIP3    H220227   5.170   0.580   5.532  0.5729  0.9300  1.5569
 6755TIP3   OH220228   0.232   1.811   0.509 -0.8560 -0.3129 -0.1547
 6755TIP3    H120229   0.219   1.716   0.512 -1.2469 -0.3106 -1.2641
 6755TIP3    H220230   0.318   1.822   0.468 -1.1428 -0.1952 -0.7504
 6756TIP3   OH220231   0.334   5.199   4.779  0.5319 -0.2372  0.4886
 6756TIP3    H120232   0.265   5.183   4.843 -0.1193 -1.4320 -0.4771
 6756TIP3    H220233   0.345   5.294   4.779 -2.6748  0.2546 -0.8968
 6757TIP3   OH220234   3.638   4.442   2.040 -0.5502 -0.2253 -0.0728
 6757TIP3    H120235   3.572   4.505   2.069  0.4264  0.0714  1.6449
 6757TIP3    H220236   3.712   4.495   2.012 -0.9219 -0.5614 -1.7558
 6758TIP3   OH220237   3.067   3.367   2.034  0.4378  0.5642  0.5536
 6758TIP3    H120238   3.033   3.278   2.041  3.3891 -0.6601  0.4948
 6758TIP3    H220239   3.012   3.408   1.967 -2.1328 -0.5528  1.8454
 6759TIP3   OH220240   6.628   0.108   5.551  0.0409  0.1226  0.0620
 6759TIP3    H120241   6.628   0.066   5.637 -0.5549 -0.0110 -0.0012
 6759TIP3    H220242   6.673   0.045   5.494  0.5946  0.2885  0.3067
 6760TIP3   OH220243   5.663   4.344   2.222  0.2570 -0.1787  0.1726
 6760TIP3    H120244   5.614   4.273   2.264  1.8077 -0.7853  1.0716
 6760TIP3    H220245   5.684   4.311   2.135  0.3073 -0.5182  0.3114
 6761TIP3   OH220246   3.394   5.091   5.540  0.1306 -0.5535  0.2337
 6761TIP3    H120247   3.310   5.136   5.533  0.3473 -0.1383  0.2687
 6761TIP3    H220248   3.409   5.055   5.453 -1.3277 -2.9095  0.8671
 6762TIP3   OH220249   0.000   6.494   0.249 -0.1050 -0.1657 -0.1221
 6762TIP3    H120250   0.072   6.513   0.309 -0.3477 -0.0342  0.1240
 6762TIP3    H220251   0.039   6.504   0.162  0.0511  0.3784  0.0087
 6763TIP3   OH220252   5.704   2.605   2.954 -0.4522 -0.4308 -0.0201
 6763TIP3    H120253   5.747   2.678   2.910  1.5840 -2.4758 -1.7335
 6763TIP3    H220254   5.716   2.621   3.047  2.3407  0.1530 -0.3915
 6764TIP3   OH220255   4.665   0.514   0.997 -0.4267 -0.8857 -0.3462
 6764TIP3    H120256   4.626   0.449   1.056  2.1264 -2.5325 -0.3174
 6764TIP3    H220257   4.649   0.598   1.040 -1.2986 -1.7472  1.1142
 6765TIP3   OH220258   5.922   5.918   4.956  0.4090  0.2799 -0.2530
 6765TIP3    H120259   5.908   5.950   5.045 -0.0476  1.2230 -0.6504
 6765TIP3    H220260   5.985   5.846   4.966  0.2525  0.2782  0.8391
 6766TIP3   OH220261   3.896   3.785   1.315  0.7641 -0.0481 -0.0550
 6766TIP3    H120262   3.934   3.813   1.398 -0.7094 -0.2689  0.7333
 6766TIP3    H220263   3.966   3.799   1.251  1.1359  2.4740  0.7847
 6767TIP3   OH220264   3.894   6.142   1.886 -0.5422  0.4805 -0.3512
 6767TIP3    H120265   3.836   6.085   1.836  1.1295 -0.2447 -1.5794
 6767TIP3    H220266   3.904   6.099   1.971 -0.2552 -0.4437 -0.8405
 6768TIP3   OH220267   5.212   2.675   0.589  0.1653 -0.1748  0.1899
 6768TIP3    H120268   5.272   2.605   0.562  1.3595  0.6792  0.5209
 6768TIP3    H220269   5.131   2.657   0.542  1.1580 -0.5354 -1.4660
 6769TIP3   OH220270   5.985   6.141   3.077  0.4268  0.1525 -0.4712
 6769TIP3    H120271   6.075   6.170   3.095  0.8773 -0.5510 -1.5446
 6769TIP3    H220272   5.994   6.053   3.043 -0.8099 -0.5547  0.9197
 6770TIP3   OH220273   5.095   3.551   3.720  0.0519  0.3716  0.6734
 6770TIP3    H120274   5.137   3.541   3.806  1.9953  1.3851 -0.1091
 6770TIP3    H220275   5.149   3.498   3.661 -0.8699  0.2412 -0.0663
 6771TIP3   OH220276   2.739   6.325   4.422  0.1082  0.5085 -0.5357
 6771TIP3    H120277   2.721   6.270   4.498  4.0669  0.9189  0.9390
 6771TIP3    H220278   2.683   6.402   4.434 -0.5394 -0.1663  1.0751
 6772TIP3   OH220279   6.961   2.939   0.856  0.1612  0.2849  0.1144
 6772TIP3    H120280   6.977   2.971   0.767  2.0652 -1.0915 -0.1026
 6772TIP3    H220281   6.876   2.976   0.881  0.2810  1.9006 -1.7038
 6773TIP3   OH220282   4.921   0.297   2.311 -0.2436 -0.4728  0.3842
 6773TIP3    H120283   4.866   0.325   2.238  3.6671  0.4493 -2.5267
 6773TIP3    H220284   4.939   0.205   2.294  0.6745 -0.2606  0.1572
 6774TIP3   OH220285   1.428   1.481   4.952 -0.6333  0.7291 -0.3232
 6774TIP3    H120286   1.509   1.487   4.902 -0.7041  3.0598 -0.2595
 6774TIP3    H220287   1.428   1.391   4.986  0.9084  0.0410 -1.9436
 6775TIP3   OH220288   4.312   6.597   1.079 -0.4229 -0.3017 -0.3408
 6775TIP3    H120289   4.397   6.595   1.123 -0.4303  0.8207 -0.2419
 6775TIP3    H220290   4.331   6.634   0.992 -0.6662 -0.9402 -0.6694
 6776TIP3   OH220291   4.123   1.016   1.000  0.2868  0.0674 -0.1546
 6776TIP3    H120292   4.195   0.953   0.997  0.0659 -0.2068  0.1970
 6776TIP3    H220293   4.086   1.014   0.912  0.4989 -0.0378 -0.2434
 6777TIP3   OH220294   4.206   0.247   4.611  0.2004  0.5024 -0.4163
 6777TIP3    H120295   4.255   0.281   4.536  1.5434  1.6945  0.9393
 6777TIP3    H220296   4.224   0.309   4.682 -0.5550 -0.8920  1.0619
 6778TIP3   OH220297   3.815   2.768   4.351  0.0195  0.6382  0.2686
 6778TIP3    H120298   3.894   2.741   4.304 -0.8070  1.2676 -1.5985
 6778TIP3    H220299   3.832   2.860   4.375 -0.1530  0.7896 -0.1787
 6779TIP3   OH220300   4.535   4.641   1.745 -0.0070  0.0438  0.1078
 6779TIP3    H120301   4.590   4.563   1.750  2.3484  1.6127  0.3943
 6779TIP3    H220302   4.564   4.686   1.666  0.4172  1.7530  1.1583
 6780TIP3   OH220303   5.272   3.481   0.508 -0.0652  0.2967  0.2338
 6780TIP3    H120304   5.344   3.480   0.571  0.6446 -0.4659 -0.5613
 6780TIP3    H220305   5.230   3.395   0.519 -0.2111  0.3361 -0.0177
 6781TIP3   OH220306   5.640   4.312   0.932  0.3657 -0.1018 -0.1426
 6781TIP3    H120307   5.696   4.239   0.905  2.7558  1.9423 -1.2013
 6781TIP3    H220308   5.665   4.329   1.023  1.4924  0.7242 -0.5737
 6782TIP3   OH220309   0.720   3.418   1.120 -0.0376  0.0566  0.1091
 6782TIP3    H120310   0.634   3.389   1.151 -0.3185 -0.6361 -1.2754
 6782TIP3    H220311   0.701   3.466   1.040  0.7262  1.4264  0.7157
 6783TIP3   OH220312   2.776   2.132   4.783  0.3744 -1.0708 -0.1950
 6783TIP3    H120313   2.709   2.187   4.742  1.3692 -0.3026 -0.8219
 6783TIP3    H220314   2.741   2.113   4.870 -0.0697  0.4379 -0.0164
 6784TIP3   OH220315   7.174   4.431   4.920 -0.5770 -0.2757 -0.2557
 6784TIP3    H120316   7.083   4.415   4.893 -1.5241  0.8054  1.9949
 6784TIP3    H220317   7.178   4.397   5.010  1.7131 -1.6577 -0.8132
 6785TIP3   OH220318   0.897   4.349   0.792 -0.4901  0.2012  0.1823
 6785TIP3    H120319   0.980   4.316   0.828  0.2282  1.9878  0.2717
 6785TIP3    H220320   0.889   4.437   0.829 -1.3060  0.9097 -1.6048
 6786TIP3   OH220321   1.925   6.811   0.134 -0.0720 -0.1494 -0.1728
 6786TIP3    H120322   1.899   6.850   0.050  0.0742  0.8454  0.2319
 6786TIP3    H220323   1.875   6.730   0.139  1.6855 -1.4862 -2.3359
 6787TIP3   OH220324   2.479   1.578   0.061  0.4457 -0.3505  0.3478
 6787TIP3    H120325   2.444   1.646   0.003 -0.0350  0.6504  1.7462
 6787TIP3    H220326   2.402   1.530   0.090  0.5324 -0.0013  1.1724
 6788TIP3   OH220327   5.317   0.104   3.492  0.5448 -0.2663 -0.5957
 6788TIP3    H120328   5.246   0.105   3.427 -1.6825  0.4745  1.7044
 6788TIP3    H220329   5.374   0.176   3.466 -0.6948  0.5005 -1.3273
 6789TIP3   OH220330   2.873   1.102   3.801  0.2668  0.0960  0.4240
 6789TIP3    H120331   2.844   1.181   3.845 -0.6621 -0.1691  0.3180
 6789TIP3    H220332   2.935   1.061   3.862  0.2171  0.5474  0.7778
 6790TIP3   OH220333   6.903   5.533   2.919  0.0673 -0.8688 -0.2182
 6790TIP3    H120334   6.865   5.540   3.007  1.0100  0.1208  0.1380
 6790TIP3    H220335   6.900   5.623   2.884  1.2046 -0.9353 -0.5312
 6791TIP3   OH220336   3.083   6.770   4.565 -0.4995  0.1445  0.1725
 6791TIP3    H120337   3.106   6.745   4.654  2.6422  1.3733 -0.1664
 6791TIP3    H220338   3.162   6.754   4.514 -1.8052  0.6558 -2.1693
 6792TIP3   OH220339   2.326   0.471   3.808  0.4590 -0.2445  0.0200
 6792TIP3    H120340   2.414   0.491   3.776 -0.2828  1.0520 -1.3428
 6792TIP3    H220341   2.322   0.376   3.810  1.9313 -0.3273  0.2415
 6793TIP3   OH220342   1.911   6.095   2.124  0.2885 -0.0241  0.8786
 6793TIP3    H120343   1.901   6.128   2.035 -1.7110  0.3607  1.2068
 6793TIP3    H220344   2.006   6.093   2.138  0.6009  1.1849 -0.7753
 6794TIP3   OH220345   6.933   3.333   0.016 -0.4074  0.3219  0.4407
 6794TIP3    H120346   6.962   3.246  -0.010  0.2598 -0.1148  2.3988
 6794TIP3    H220347   7.009   3.389  -0.001 -0.6903  0.4521 -0.4272
 6795TIP3   OH220348   4.086   0.679   0.801  0.7491  0.2576 -0.6466
 6795TIP3    H120349   4.133   0.602   0.833  1.1225  0.5403 -0.5109
 6795TIP3    H220350   4.031   0.707   0.874 -1.1616 -1.2304 -1.4043
 6796TIP3   OH220351   0.306   0.192   4.541  0.1741  0.3434  0.2296
 6796TIP3    H120352   0.323   0.143   4.621  0.5460  1.1077  0.6308
 6796TIP3    H220353   0.355   0.145   4.473  0.2047 -0.0581  0.5257
 6797TIP3   OH220354   5.681   6.678   3.307  0.0419  0.1638  0.0977
 6797TIP3    H120355   5.696   6.593   3.264 -0.1514  1.0940 -1.8947
 6797TIP3    H220356   5.621   6.724   3.249 -1.6623  0.8585  2.2749
 6798TIP3   OH220357   1.848   5.404   4.198  0.4818 -0.1395 -0.3118
 6798TIP3    H120358   1.859   5.309   4.200  1.1918 -0.0537 -0.0560
 6798TIP3    H220359   1.937   5.439   4.204  0.3996  0.5358 -2.3565
 6799TIP3   OH220360   6.175   4.243   1.805 -0.5476 -0.1180 -0.5581
 6799TIP3    H120361   6.099   4.268   1.857 -1.0047 -0.0499 -1.2459
 6799TIP3    H220362   6.139   4.207   1.725  0.1383  1.0908 -1.4507
 6800TIP3   OH220363   2.383   5.483   3.665  0.5779 -0.3718  0.6251
 6800TIP3    H120364   2.455   5.546   3.658 -1.2216  1.8731  1.1910
 6800TIP3    H220365   2.321   5.509   3.597 -0.8370 -0.6395  1.7661
 6801TIP3   OH220366   6.731   1.479   1.538  0.2099 -0.5641  0.4550
 6801TIP3    H120367   6.688   1.395   1.553  0.7690 -0.8881  0.2834
 6801TIP3    H220368   6.803   1.459   1.479 -1.2715  0.4818 -1.8692
 6802TIP3   OH220369   3.366   5.302   3.436 -0.4484  0.4718  0.4546
 6802TIP3    H120370   3.424   5.364   3.479  0.8822  1.9732 -3.1496
 6802TIP3    H220371   3.415   5.220   3.434 -0.0502  0.7037  0.7470
 6803TIP3   OH220372   5.136   6.139   2.654  0.1583 -0.1993 -0.6848
 6803TIP3    H120373   5.186   6.109   2.578  1.6275  2.0823 -0.6905
 6803TIP3    H220374   5.199   6.186   2.707 -1.4276  0.4746  0.6807
 6804TIP3   OH220375   0.617   3.936   2.029  0.8600  0.1412 -0.0925
 6804TIP3    H120376   0.664   3.917   2.110  1.6642  0.7344 -0.3920
 6804TIP3    H220377   0.544   3.992   2.056  1.2474  0.5148  0.2059
 6805TIP3   OH220378   6.125   5.242   0.664  0.0427 -0.7240 -0.2485
 6805TIP3    H120379   6.081   5.306   0.721 -0.0601 -0.3868 -0.6959
 6805TIP3    H220380   6.134   5.164   0.718 -1.3991 -0.9116 -0.2471
 6806TIP3   OH220381   6.471   1.504   3.236  0.3999 -0.0603 -0.1789
 6806TIP3    H120382   6.475   1.533   3.327  0.2704 -1.1469  0.1925
 6806TIP3    H220383   6.491   1.410   3.240  3.0485  0.3551 -1.5590
 6807TIP3   OH220384   5.042   5.258   5.641 -0.6559 -0.2491  0.1944
 6807TIP3    H120385   5.088   5.254   5.557 -1.5717 -1.0913 -0.2769
 6807TIP3    H220386   5.057   5.172   5.681 -1.2225 -0.2738  0.3600
 6808TIP3   OH220387   6.269   4.869   5.919 -0.1896  0.7699 -0.2103
 6808TIP3    H120388   6.247   4.934   5.852 -0.3867  0.8730 -0.0472
 6808TIP3    H220389   6.227   4.789   5.888  0.4280  0.6068 -0.6402
 6809TIP3   OH220390   0.128   0.987   4.605  0.1135 -0.3107  0.7558
 6809TIP3    H120391   0.211   0.941   4.613  0.2550 -0.3184 -0.5029
 6809TIP3    H220392   0.152   1.076   4.581 -0.2292 -0.5297 -0.5032
 6810TIP3   OH220393   5.302   5.768   0.442  0.0402  0.2592  0.2367
 6810TIP3    H120394   5.344   5.768   0.356  0.0982  0.1797  0.2646
 6810TIP3    H220395   5.208   5.778   0.423 -0.0861 -1.0882  0.0958
 6811TIP3   OH220396   6.000   2.962   3.370  0.2155 -0.0903  0.3520
 6811TIP3    H120397   5.956   3.015   3.438  1.2357  1.1441  0.0988
 6811TIP3    H220398   6.068   3.020   3.336  1.3227 -1.5621 -0.0295
 6812TIP3   OH220399   5.753   0.409   0.896  0.2155 -0.0297  0.7980
 6812TIP3    H120400   5.677   0.420   0.953  0.3684 -0.8718  1.1770
 6812TIP3    H220401   5.737   0.327   0.849 -2.1027  2.6813 -3.8388
 6813TIP3   OH220402   2.211   0.538   1.162  0.3845 -0.0732 -0.1848
 6813TIP3    H120403   2.130   0.538   1.110  0.9514  0.2707 -1.0884
 6813TIP3    H220404   2.186   0.497   1.245 -0.3716 -1.2584 -0.9787
 6814TIP3   OH220405   4.280   2.818   4.707  0.1697 -0.0343 -0.1115
 6814TIP3    H120406   4.375   2.807   4.714  0.2843  0.9639 -0.0179
 6814TIP3    H220407   4.252   2.837   4.797 -0.7584 -4.5984  0.8505
 6815TIP3   OH220408   0.412   3.784   2.575 -0.0962  0.0769  0.0833
 6815TIP3    H120409   0.361   3.728   2.633  0.2398 -1.9877 -1.5239
 6815TIP3    H220410   0.493   3.801   2.623 -0.3581 -0.5118  0.7452
 6816TIP3   OH220411   6.529   2.502   5.658  0.4917 -0.1687  0.1171
 6816TIP3    H120412   6.571   2.494   5.572  0.3388  2.1711 -0.2423
 6816TIP3    H220413   6.436   2.511   5.639  0.6337  2.3067  0.3207
 6817TIP3   OH220414   1.567   3.930   2.288  0.0277  0.2129  0.1895
 6817TIP3    H120415   1.559   3.861   2.222 -0.2144  0.6216 -0.2101
 6817TIP3    H220416   1.560   3.883   2.372  0.9652 -0.3926 -0.0446
 6818TIP3   OH220417   5.861   2.040   2.647 -0.0220 -0.1656 -0.6178
 6818TIP3    H120418   5.806   2.118   2.658  0.3858  0.1532 -0.7957
 6818TIP3    H220419   5.804   1.976   2.605 -0.7098 -0.3763  0.5918
 6819TIP3   OH220420   5.892   1.231   3.689 -0.4178 -0.2307  0.0199
 6819TIP3    H120421   5.979   1.236   3.727 -0.4264  0.7928 -0.0639
 6819TIP3    H220422   5.897   1.158   3.627 -0.0346 -1.0751  1.0210
 6820TIP3   OH220423   0.176   5.875   2.615 -0.7475  0.6849  0.3735
 6820TIP3    H120424   0.180   5.780   2.607  0.5183  0.8461 -1.5802
 6820TIP3    H220425   0.154   5.890   2.707  2.1862 -1.4681  1.5855
 6821TIP3   OH220426   6.948   0.831   3.770 -0.3655 -0.1804 -0.1298
 6821TIP3    H120427   6.901   0.751   3.794 -1.3269  0.5254  0.4420
 6821TIP3    H220428   7.028   0.829   3.823 -0.7383 -0.4047  0.4326
 6822TIP3   OH220429   5.413   5.107   1.245  0.6839 -0.2200  0.3301
 6822TIP3    H120430   5.477   5.099   1.315 -0.8673 -0.6374  1.7769
 6822TIP3    H220431   5.450   5.172   1.185  1.7690  0.6237  1.8538
 6823TIP3   OH220432   4.771   2.653   2.133 -0.3388  0.2062  0.5085
 6823TIP3    H120433   4.794   2.634   2.042  0.3235 -0.3537  0.7853
 6823TIP3    H220434   4.821   2.731   2.155 -1.5593  1.1612 -0.0246
 6824TIP3   OH220435   0.543   3.683   2.366  0.1455  0.6328 -0.6019
 6824TIP3    H120436   0.589   3.630   2.431 -0.8052  0.6557  0.1161
 6824TIP3    H220437   0.460   3.705   2.408  1.0748  3.9838 -0.2368
 6825TIP3   OH220438   7.154   4.965   1.591 -0.0409  0.1143 -0.7495
 6825TIP3    H120439   7.226   4.952   1.652  0.1691  0.8609 -0.8296
 6825TIP3    H220440   7.075   4.952   1.644  0.1430  0.4658 -0.3832
 6826TIP3   OH220441   1.129   1.765   0.686 -0.4639  0.2898  0.1243
 6826TIP3    H120442   1.224   1.771   0.693 -0.5032  0.3777  0.5938
 6826TIP3    H220443   1.112   1.751   0.593  0.1079 -1.5328  0.2488
 6827TIP3   OH220444   6.218   0.314   1.372  0.3705 -0.6902 -0.3289
 6827TIP3    H120445   6.302   0.283   1.338 -0.0763 -0.1791 -2.0142
 6827TIP3    H220446   6.154   0.248   1.345  0.0819 -0.6119  0.1383
 6828TIP3   OH220447   1.565   2.771   4.567 -0.8221 -0.1812 -0.3466
 6828TIP3    H120448   1.555   2.678   4.583  2.2072 -0.7315 -0.9961
 6828TIP3    H220449   1.630   2.800   4.631 -0.1498  0.9946 -1.4989
 6829TIP3   OH220450   1.776   3.755   1.532  0.0848  0.1435 -0.5086
 6829TIP3    H120451   1.711   3.767   1.462  1.8626  1.8144 -1.9685
 6829TIP3    H220452   1.730   3.784   1.611 -1.4312 -0.1712 -1.2205
 6830TIP3   OH220453   0.214   0.171   0.757 -0.8597  0.1689 -0.0471
 6830TIP3    H120454   0.299   0.155   0.715 -1.8244 -0.8932 -1.7288
 6830TIP3    H220455   0.232   0.237   0.824  1.3076 -0.1480 -0.2498
 6831TIP3   OH220456   0.883   6.386   0.477 -0.1559 -0.1832 -0.3343
 6831TIP3    H120457   0.962   6.346   0.440  1.6294  0.0366  2.8726
 6831TIP3    H220458   0.817   6.318   0.472  0.1496 -0.3937 -3.0896
 6832TIP3   OH220459   1.122   2.431   0.589  0.5290  0.2511 -0.1006
 6832TIP3    H120460   1.068   2.359   0.620  2.1470 -1.0253 -0.1454
 6832TIP3    H220461   1.098   2.504   0.646 -0.5509 -0.5158  0.4748
 6833TIP3   OH220462   4.022   6.655   2.490  0.3380 -0.1244  0.0522
 6833TIP3    H120463   3.994   6.695   2.408  0.1088 -0.2149  0.0843
 6833TIP3    H220464   4.054   6.728   2.543  0.8985 -0.1241 -0.2850
 6834TIP3   OH220465   5.864   3.702   2.257  0.7232 -0.4992  0.5420
 6834TIP3    H120466   5.888   3.695   2.165 -0.7691 -1.5447  0.2003
 6834TIP3    H220467   5.919   3.637   2.301  2.0966  0.6249  0.5739
 6835TIP3   OH220468   3.015   6.513   3.383 -0.5316  0.0278  0.3721
 6835TIP3    H120469   3.021   6.579   3.453  1.6609  2.1491 -1.6292
 6835TIP3    H220470   3.106   6.500   3.355 -1.3521 -0.4592 -2.2994
 6836TIP3   OH220471   0.450   2.740   3.520 -0.2235  0.0763  0.1551
 6836TIP3    H120472   0.364   2.725   3.558 -0.0565  1.6315  1.2318
 6836TIP3    H220473   0.506   2.672   3.558 -0.7770 -0.4304  0.0796
 6837TIP3   OH220474   1.248   0.720   4.925  0.4753 -0.2371 -0.0433
 6837TIP3    H120475   1.328   0.668   4.923  0.9741  0.5313 -0.8805
 6837TIP3    H220476   1.250   0.771   4.844 -1.0447 -0.4601 -0.2547
 6838TIP3   OH220477   1.208   6.458   2.918 -0.2787  0.0608 -0.2503
 6838TIP3    H120478   1.243   6.538   2.957  1.0197 -0.4459 -0.3436
 6838TIP3    H220479   1.174   6.486   2.833  2.5252  0.1115 -1.4382
 6839TIP3   OH220480   5.175   2.462   3.509  0.1625  0.4704 -0.0355
 6839TIP3    H120481   5.086   2.459   3.546 -0.6622  2.0245 -1.7350
 6839TIP3    H220482   5.229   2.499   3.578 -0.4763 -0.5728  1.0586
 6840TIP3   OH220483   0.142   1.933   5.128  0.2290  0.6386  0.2859
 6840TIP3    H120484   0.148   1.910   5.035 -0.5268  0.7564  0.2098
 6840TIP3    H220485   0.192   1.864   5.172  1.2571  1.0086 -0.2617
 6841TIP3   OH220486   3.895   6.058   5.634  0.1806  0.1967  0.3413
 6841TIP3    H120487   3.942   5.993   5.581 -0.5077  0.3011 -0.4132
 6841TIP3    H220488   3.951   6.070   5.711  2.5460  1.9256 -1.4762
 6842TIP3   OH220489   3.677   1.801   4.504  0.3342  0.5103 -0.3419
 6842TIP3    H120490   3.655   1.725   4.557 -1.7293  1.3057  0.0355
 6842TIP3    H220491   3.680   1.768   4.414  1.2251 -0.3304 -0.0195
 6843TIP3   OH220492   2.159   3.532   2.857 -0.2105  0.1019  0.0258
 6843TIP3    H120493   2.079   3.583   2.841 -1.3357 -1.9534 -1.2259
 6843TIP3    H220494   2.128   3.450   2.896  1.4063 -0.3033  0.5320
 6844TIP3   OH220495   6.370   4.406   2.364  0.2135 -0.3387 -0.0531
 6844TIP3    H120496   6.404   4.426   2.451  1.1938 -1.0808 -0.2393
 6844TIP3    H220497   6.340   4.315   2.370 -0.4356 -0.1473 -0.2864
 6845TIP3   OH220498   6.114   3.278   0.765  0.1633  0.0654  0.1844
 6845TIP3    H120499   6.162   3.236   0.694 -0.3484 -0.5964  0.2157
 6845TIP3    H220500   6.059   3.208   0.801 -0.6976  0.7590  0.2585
 6846TIP3   OH220501   4.832   3.704   2.609 -0.1902  0.1306  0.0260
 6846TIP3    H120502   4.857   3.700   2.701  1.1391 -0.7982 -0.3466
 6846TIP3    H220503   4.826   3.612   2.581  0.1933  0.3904 -0.9874
 6847TIP3   OH220504   2.633   4.374   2.289 -0.4986  0.9746 -0.1231
 6847TIP3    H120505   2.711   4.428   2.274 -0.9392  1.2264 -1.6795
 6847TIP3    H220506   2.585   4.420   2.358  0.1538  1.4482  0.0269
 6848TIP3   OH220507   0.391   0.225   1.180 -0.2350 -0.0902  0.1302
 6848TIP3    H120508   0.309   0.242   1.135 -0.6983 -0.5936  0.7592
 6848TIP3    H220509   0.367   0.167   1.253  0.6624 -0.1914  0.3617
 6849TIP3   OH220510   6.216   6.635   5.042  0.3456 -0.6879 -0.3694
 6849TIP3    H120511   6.141   6.617   5.098  0.0577  0.4460 -0.3668
 6849TIP3    H220512   6.286   6.579   5.077  0.4053  0.5420  1.6634
 6850TIP3   OH220513   2.110   5.403   5.901 -0.1556 -0.0359  0.3036
 6850TIP3    H120514   2.044   5.465   5.868  0.0712 -0.0158 -0.1205
 6850TIP3    H220515   2.119   5.339   5.830 -0.8988 -0.9626  1.0104
 6851TIP3   OH220516   5.498   6.693   0.969 -0.1122 -0.1217  0.5277
 6851TIP3    H120517   5.515   6.710   0.876  1.1891  1.7881  1.0622
 6851TIP3    H220518   5.469   6.777   1.004 -0.4828 -0.7909  1.8855
 6852TIP3   OH220519   2.011   1.289   0.585  0.4903 -0.6608 -0.3558
 6852TIP3    H120520   1.996   1.202   0.548 -0.9930 -1.2634  1.4650
 6852TIP3    H220521   1.953   1.347   0.536  0.1926 -1.0331 -0.4460
 6853TIP3   OH220522   0.478   6.748   4.025 -0.0433  0.3610 -0.0555
 6853TIP3    H120523   0.402   6.704   3.985  0.8170 -1.3198  0.0801
 6853TIP3    H220524   0.468   6.732   4.119  2.2316 -3.0420 -0.2138
 6854TIP3   OH220525   4.654   4.833   0.491  0.3982  0.1017 -0.2858
 6854TIP3    H120526   4.606   4.879   0.560 -0.1769  0.7994 -1.1198
 6854TIP3    H220527   4.601   4.755   0.473  0.6034 -0.1349  0.1295
 6855TIP3   OH220528   2.679   4.477   1.468 -0.0383 -0.1338  0.0006
 6855TIP3    H120529   2.602   4.428   1.497 -2.4977  2.1601 -2.0653
 6855TIP3    H220530   2.698   4.443   1.381  0.9861 -0.3314  0.2924
 6856TIP3   OH220531   0.009   4.942   5.545  0.0365 -0.1805 -0.2463
 6856TIP3    H120532   0.084   4.915   5.598 -0.3401  0.0949  0.4391
 6856TIP3    H220533  -0.053   4.869   5.553 -0.1121 -0.0416 -0.1224
 6857TIP3   OH220534   6.708   3.935   2.830  0.1056 -0.0652  0.0102
 6857TIP3    H120535   6.743   4.020   2.855  1.6320 -0.5670 -0.2775
 6857TIP3    H220536   6.768   3.872   2.870 -1.9532 -1.0897  1.6545
 6858TIP3   OH220537   1.772   2.707   5.805 -0.0923  0.0208  0.4654
 6858TIP3    H120538   1.863   2.687   5.827 -0.1540  0.7399  1.4471
 6858TIP3    H220539   1.775   2.798   5.774 -0.3237 -0.3114 -0.5802
 6859TIP3   OH220540   0.472   2.999   5.794 -0.0303  0.3790 -0.4035
 6859TIP3    H120541   0.390   2.989   5.842  0.5916 -1.8798  0.3062
 6859TIP3    H220542   0.452   2.968   5.706  0.2952 -1.3515  0.0876
 6860TIP3   OH220543   3.831   5.681   5.156  0.2631 -0.7028  0.5268
 6860TIP3    H120544   3.864   5.629   5.084  0.7043  0.0448  0.1758
 6860TIP3    H220545   3.863   5.637   5.235  0.0802 -1.3193  0.2579
 6861TIP3   OH220546   2.332   5.212   0.595  0.0054  0.3893  0.1727
 6861TIP3    H120547   2.265   5.278   0.578  0.1456  0.8140  1.1611
 6861TIP3    H220548   2.283   5.131   0.608 -0.2350  0.4807 -0.1467
 6862TIP3   OH220549   1.227   0.465   1.847 -0.0143  0.6507  0.0266
 6862TIP3    H120550   1.183   0.514   1.916 -1.7278  0.0661 -0.5978
 6862TIP3    H220551   1.168   0.391   1.829 -0.2879  1.4734 -2.9327
 6863TIP3   OH220552   2.754   0.627   3.003  0.4285 -0.0576 -0.0941
 6863TIP3    H120553   2.767   0.566   3.076 -0.7268 -0.4684 -0.2188
 6863TIP3    H220554   2.746   0.572   2.926  0.4633  0.3200 -0.3711
 6864TIP3   OH220555   0.695   4.286   5.375  0.0165 -0.4502 -0.1428
 6864TIP3    H120556   0.727   4.277   5.465  0.0122  1.9882  0.1527
 6864TIP3    H220557   0.766   4.331   5.329 -0.2562 -1.0788 -1.2290
 6865TIP3   OH220558   1.982   1.814   4.794 -0.4014 -0.1725  0.0090
 6865TIP3    H120559   2.059   1.756   4.790  0.8168  1.3363  0.5957
 6865TIP3    H220560   1.936   1.798   4.712  0.4105 -1.2678 -0.2625
 6866TIP3   OH220561   0.521   4.720   4.528 -0.3278 -0.8144 -0.4314
 6866TIP3    H120562   0.566   4.749   4.608 -1.3911  0.1296 -0.1587
 6866TIP3    H220563   0.505   4.627   4.542 -1.6821 -0.3854  1.0539
 6867TIP3   OH220564   2.702   6.198   2.978 -0.5623 -0.5586  0.2061
 6867TIP3    H120565   2.743   6.173   2.895 -0.4887 -3.1449  0.9199
 6867TIP3    H220566   2.771   6.184   3.043 -0.5110  1.7751  0.7159
 6868TIP3   OH220567   0.447   0.921   1.400  0.7629 -0.4500  0.1365
 6868TIP3    H120568   0.435   0.879   1.485  1.6770 -1.6706 -0.3146
 6868TIP3    H220569   0.513   0.989   1.416  0.3598 -0.1465  0.5506
 6869TIP3   OH220570   1.111   4.156   3.236 -0.1782  0.1876 -0.1738
 6869TIP3    H120571   1.092   4.246   3.211 -0.7220  0.2820  0.5359
 6869TIP3    H220572   1.093   4.153   3.330 -0.5501 -0.7584 -0.2593
 6870TIP3   OH220573   4.685   0.819   1.046 -0.3954 -0.2813 -0.5191
 6870TIP3    H120574   4.720   0.877   1.113  0.6321  1.2147 -2.2260
 6870TIP3    H220575   4.688   0.872   0.965  0.2216 -2.5711 -2.0949
 6871TIP3   OH220576   0.452   6.780   2.696  0.2571  0.4021  0.4465
 6871TIP3    H120577   0.359   6.760   2.682  0.5755 -1.0034  0.1817
 6871TIP3    H220578   0.496   6.749   2.617  1.1992 -0.9832  1.4629
 6872TIP3   OH220579   0.214   5.094   5.267  0.0747  0.0399 -0.1517
 6872TIP3    H120580   0.174   5.125   5.348  1.5487 -0.3408  0.7824
 6872TIP3    H220581   0.308   5.106   5.282  0.3209  1.4909 -2.4741
 6873TIP3   OH220582   4.688   0.034   1.057  0.2415  0.3183  0.0762
 6873TIP3    H120583   4.755   0.034   0.989  1.6264 -0.7656  1.3520
 6873TIP3    H220584   4.605   0.033   1.010  1.1521 -1.7762 -1.6282
 6874TIP3   OH220585   6.589   4.946   3.531 -0.4255  0.3394 -0.2554
 6874TIP3    H120586   6.649   4.877   3.502 -0.6739  0.6891 -1.6814
 6874TIP3    H220587   6.582   5.005   3.456  2.3234  3.7819  1.8659
 6875TIP3   OH220588   1.815   0.914   3.431  0.2971  0.5013 -0.0952
 6875TIP3    H120589   1.864   0.994   3.448  2.1270 -0.5483 -0.2246
 6875TIP3    H220590   1.854   0.849   3.489 -0.6941 -0.4884 -0.4910
 6876TIP3   OH220591   0.631   5.776   3.556 -0.1092 -0.2030  0.0080
 6876TIP3    H120592   0.717   5.819   3.559 -0.4778  0.6622  3.7600
 6876TIP3    H220593   0.643   5.697   3.609 -0.8750 -1.8815 -2.1919
 6877TIP3   OH220594   0.044   5.155   4.558  0.0948  0.0254 -0.4037
 6877TIP3    H120595  -0.001   5.217   4.501  0.0466  0.2248 -0.1465
 6877TIP3    H220596   0.069   5.205   4.635  0.5914 -0.1289 -0.4574
 6878TIP3   OH220597   4.401   6.637   0.829 -0.4118 -0.0947  0.3225
 6878TIP3    H120598   4.394   6.717   0.777 -2.1469 -1.3559 -1.5495
 6878TIP3    H220599   4.492   6.610   0.820 -0.4954  0.1335 -1.4995
 6879TIP3   OH220600   1.622   5.046   2.965 -0.2627  0.0872 -0.0111
 6879TIP3    H120601   1.705   5.006   2.937 -0.2372  0.4254 -0.4256
 6879TIP3    H220602   1.563   5.033   2.891 -0.0674  1.3600 -0.4169
 6880TIP3   OH220603   0.495   3.155   2.590 -0.1800 -0.5441 -0.0845
 6880TIP3    H120604   0.537   3.107   2.662  0.9351 -1.4715 -1.2918
 6880TIP3    H220605   0.418   3.103   2.567 -1.3458  0.4963  1.3146
 6881TIP3   OH220606   6.777   0.628   3.810 -0.1166 -0.2981  0.0501
 6881TIP3    H120607   6.804   0.563   3.875  2.3491  0.2438 -0.3309
 6881TIP3    H220608   6.682   0.616   3.802 -0.0084 -2.5709  1.3239
 6882TIP3   OH220609   0.158   3.520   3.053  0.4117  0.2983  0.3150
 6882TIP3    H120610   0.229   3.457   3.064  0.9759  1.0241  0.9061
 6882TIP3    H220611   0.194   3.603   3.084 -1.1797  0.3822  2.1159
 6883TIP3   OH220612   0.529   2.921   0.427  0.7862 -0.2426 -0.1468
 6883TIP3    H120613   0.466   2.855   0.398 -0.3439  0.6587  0.2090
 6883TIP3    H220614   0.582   2.876   0.494 -0.8330 -0.4366  1.0684
 6884TIP3   OH220615   1.144   1.758   4.857 -0.2123  0.1463  0.0127
 6884TIP3    H120616   1.201   1.732   4.929  0.1121  1.3350  0.2164
 6884TIP3    H220617   1.196   1.742   4.778  0.6369  1.6611  0.2200
 6885TIP3   OH220618   1.351   0.296   5.101  0.1812  0.4301 -0.0302
 6885TIP3    H120619   1.391   0.327   5.020  0.5024 -1.4258 -0.6284
 6885TIP3    H220620   1.272   0.349   5.111 -0.9745 -0.6333 -2.6600
 6886TIP3   OH220621   4.006   2.753   0.806 -0.1416 -0.4147  0.2485
 6886TIP3    H120622   4.080   2.732   0.748  0.1740 -0.5297  0.6857
 6886TIP3    H220623   3.929   2.725   0.758  0.0756 -0.0407 -0.3382
 6887TIP3   OH220624   1.711   4.922   4.026  0.0216 -0.2238  0.3154
 6887TIP3    H120625   1.671   4.969   3.953 -1.8729 -1.0321  0.7933
 6887TIP3    H220626   1.679   4.833   4.019  1.4770 -0.8409  0.9667
 6888TIP3   OH220627   4.351   6.723   5.419  0.2907 -0.0134  0.8064
 6888TIP3    H120628   4.313   6.732   5.331 -2.0816 -0.9613  1.6506
 6888TIP3    H220629   4.361   6.629   5.431  0.4621  0.1019  1.6079
 6889TIP3   OH220630   7.165   4.693   5.853 -0.2073  0.0646  0.1170
 6889TIP3    H120631   7.151   4.715   5.761  1.7863  1.2451  0.0225
 6889TIP3    H220632   7.206   4.607   5.850  0.5649  0.4243 -0.1947
 6890TIP3   OH220633   3.725   4.434   3.675  0.1739 -0.1043  0.0643
 6890TIP3    H120634   3.807   4.455   3.720  0.0798  0.2852  0.0569
 6890TIP3    H220635   3.740   4.462   3.585  0.0266 -0.0244  0.0653
 6891TIP3   OH220636   2.039   6.514   0.601  0.2668  0.0075  0.1392
 6891TIP3    H120637   2.106   6.493   0.665 -0.3806  0.1464  0.8793
 6891TIP3    H220638   2.015   6.430   0.562  0.6939 -0.0708  0.0415
 6892TIP3   OH220639   5.634   2.922   3.746 -0.4463 -0.0934 -0.1772
 6892TIP3    H120640   5.630   2.961   3.658 -0.1981 -0.5985 -0.4201
 6892TIP3    H220641   5.688   2.844   3.734 -1.6931 -1.0251  0.0892
 6893TIP3   OH220642   4.161   2.479   1.161  0.0952  0.1368  0.2010
 6893TIP3    H120643   4.163   2.530   1.243 -0.1170  0.3317  0.0856
 6893TIP3    H220644   4.085   2.513   1.113 -1.6184 -2.0116  1.2067
 6894TIP3   OH220645   4.642   5.504   1.113  0.3516  0.3461  0.7070
 6894TIP3    H120646   4.714   5.442   1.109  1.3266  1.4993 -0.6210
 6894TIP3    H220647   4.646   5.541   1.201  0.2523 -0.8554  1.2353
 6895TIP3   OH220648   0.446   3.406   1.189 -0.3406  0.2249 -0.5311
 6895TIP3    H120649   0.351   3.393   1.180 -0.5394 -0.7107  2.0996
 6895TIP3    H220650   0.454   3.495   1.225 -0.1545  0.5905 -1.4623
 6896TIP3   OH220651   0.521   2.956   2.319  0.0356  0.0230  0.2676
 6896TIP3    H120652   0.586   3.022   2.344 -1.2057  1.3630  0.0897
 6896TIP3    H220653   0.568   2.898   2.260  0.8791  1.4004 -0.4777
 6897TIP3   OH220654   1.998   1.236   4.985 -0.0790  0.3436  0.1630
 6897TIP3    H120655   2.084   1.199   5.006 -0.0171  0.9142  0.9997
 6897TIP3    H220656   1.993   1.315   5.040 -0.9661  0.5390 -0.1907
 6898TIP3   OH220657   0.596   5.416   5.505  0.6648 -0.0373  0.5742
 6898TIP3    H120658   0.559   5.400   5.592  1.3151  0.3059  0.9193
 6898TIP3    H220659   0.690   5.412   5.517  0.7743  0.3993 -0.0394
 6899TIP3   OH220660   6.199   2.365   1.937 -0.1701 -0.5507 -0.4401
 6899TIP3    H120661   6.221   2.271   1.940 -0.6826 -0.7158 -1.3557
 6899TIP3    H220662   6.216   2.390   1.846 -0.1099  0.2366 -0.2183
 6900TIP3   OH220663   0.051   4.380   4.414  0.2170 -0.2839 -0.1789
 6900TIP3    H120664   0.038   4.462   4.365  0.9161  0.6274  1.0921
 6900TIP3    H220665  -0.035   4.360   4.450  0.1738  0.2601  0.0356
 6901TIP3   OH220666   0.323   2.991   4.710  0.4237  0.1033  0.5578
 6901TIP3    H120667   0.348   2.942   4.789  2.3489  1.0878  0.6299
 6901TIP3    H220668   0.283   3.071   4.744 -2.2396 -1.0831  0.4432
 6902TIP3   OH220669   3.183   1.002   2.366 -0.7483 -0.0000  0.1319
 6902TIP3    H120670   3.169   0.910   2.390 -1.8613  0.1095 -0.0526
 6902TIP3    H220671   3.278   1.013   2.369 -0.6741 -0.7346  1.7227
 6903TIP3   OH220672   6.715   4.448   0.268 -0.3204 -0.0264  0.5258
 6903TIP3    H120673   6.639   4.490   0.228  0.5483  2.4495  1.2903
 6903TIP3    H220674   6.771   4.425   0.194 -1.6903 -1.7687 -0.0332
 6904TIP3   OH220675   3.047   0.171   1.001 -0.2947  0.2990 -1.0295
 6904TIP3    H120676   3.071   0.200   1.089 -0.5085  2.1896 -1.5580
 6904TIP3    H220677   3.004   0.247   0.962 -1.6453 -1.0217 -2.2186
 6905TIP3   OH220678   4.527   0.895   1.902 -0.4847 -0.0184  0.2182
 6905TIP3    H120679   4.479   0.971   1.934 -1.6716 -0.7498  0.2546
 6905TIP3    H220680   4.586   0.929   1.835 -2.3612  0.7043 -1.1484
 6906TIP3   OH220681   1.569   3.099   2.007 -0.0494 -0.1479 -0.2357
 6906TIP3    H120682   1.643   3.110   1.948 -0.5138 -0.7633 -0.9643
 6906TIP3    H220683   1.604   3.117   2.094  0.5682  1.1393 -0.7250
 6907TIP3   OH220684   0.457   0.104   4.006  0.4463 -0.6982  0.0490
 6907TIP3    H120685   0.379   0.052   3.986  1.3492 -2.0972  0.0082
 6907TIP3    H220686   0.469   0.160   3.930  0.1330 -1.3229 -0.4733
 6908TIP3   OH220687   6.034   2.545   2.773 -0.4485  0.0621 -0.1222
 6908TIP3    H120688   6.076   2.620   2.814 -0.3473 -0.9802  1.8370
 6908TIP3    H220689   5.960   2.582   2.724  0.9407  1.6139 -1.1405
 6909TIP3   OH220690   6.048   5.089   4.363  0.3463  0.5068 -0.5079
 6909TIP3    H120691   6.100   5.018   4.326  0.8930  1.2153 -1.1440
 6909TIP3    H220692   6.082   5.100   4.452  0.8332  0.5097 -0.6880
 6910TIP3   OH220693   5.695   1.688   4.776  0.2648 -0.2283 -0.6420
 6910TIP3    H120694   5.674   1.774   4.812  0.0884 -0.1554 -0.9224
 6910TIP3    H220695   5.749   1.706   4.699  2.1838 -0.4189  0.5698
 6911TIP3   OH220696   3.868   0.181   3.991  0.3156 -0.3653  0.2640
 6911TIP3    H120697   3.955   0.146   3.974 -0.3125 -2.1454  0.5066
 6911TIP3    H220698   3.819   0.160   3.911 -0.2661 -0.7188  0.7067
 6912TIP3   OH220699   1.471   1.398   3.663 -0.4909 -0.0187  0.0243
 6912TIP3    H120700   1.404   1.460   3.635 -1.6789 -1.2655  0.0000
 6912TIP3    H220701   1.445   1.315   3.624  1.8808 -0.2735 -1.1686
 6913TIP3   OH220702   1.253   6.405   0.962  0.4391 -0.5747  1.0196
 6913TIP3    H120703   1.328   6.380   0.908 -0.7854  0.3540 -1.2161
 6913TIP3    H220704   1.231   6.326   1.011  2.3480 -1.0900  1.1356
 6914TIP3   OH220705   0.660   2.575   1.501  0.0257  0.2787 -0.1119
 6914TIP3    H120706   0.600   2.647   1.486 -1.5350 -0.5143  1.8986
 6914TIP3    H220707   0.705   2.563   1.417 -0.4714  2.8026 -0.8153
 6915TIP3   OH220708   6.829   4.925   5.102  0.4214 -0.1406 -0.2376
 6915TIP3    H120709   6.893   4.985   5.063  2.4607 -2.4087 -0.7006
 6915TIP3    H220710   6.751   4.977   5.115  1.0597  1.8592 -3.3725
 6916TIP3   OH220711   5.702   2.265   2.427 -0.0764  0.2362 -0.4902
 6916TIP3    H120712   5.757   2.252   2.349 -1.9834 -1.3247 -1.6651
 6916TIP3    H220713   5.613   2.248   2.397 -0.9108 -0.2132  2.0082
 6917TIP3   OH220714   0.758   1.626   1.563  0.2356  1.0665 -0.0664
 6917TIP3    H120715   0.698   1.669   1.623  1.3889  2.0063  0.4438
 6917TIP3    H220716   0.845   1.642   1.599  0.8179 -0.3451 -0.7300
 6918TIP3   OH220717   2.146   2.661   2.821 -0.7550 -0.4012  0.0676
 6918TIP3    H120718   2.081   2.708   2.873 -0.6455  0.7482 -0.8008
 6918TIP3    H220719   2.104   2.579   2.798 -2.8534  1.2005 -2.3560
 6919TIP3   OH220720   3.614   4.435   4.764 -0.4171  0.0046  0.2379
 6919TIP3    H120721   3.653   4.488   4.833 -1.9252  2.9729 -0.9811
 6919TIP3    H220722   3.527   4.413   4.798  0.1297 -1.6123  0.6522
 6920TIP3   OH220723   1.269   5.444   1.900 -0.0118  0.5918  0.0593
 6920TIP3    H120724   1.289   5.366   1.847  0.9168  0.8364  0.0442
 6920TIP3    H220725   1.186   5.422   1.942  0.2781 -0.4540  0.1306
 6921TIP3   OH220726   3.137   4.296   5.001 -0.7294 -0.4979  0.9041
 6921TIP3    H120727   3.139   4.203   5.022 -2.9318 -0.6700  0.6157
 6921TIP3    H220728   3.123   4.339   5.085 -1.8665 -0.6210  0.7979
 6922TIP3   OH220729   5.187   2.189   4.723 -0.2046 -0.1101 -0.3779
 6922TIP3    H120730   5.140   2.114   4.759  1.1717 -0.3612  0.9915
 6922TIP3    H220731   5.231   2.228   4.798 -0.9294  2.1403 -1.0371
 6923TIP3   OH220732   4.315   0.604   2.087  0.2328  0.0774 -0.5384
 6923TIP3    H120733   4.304   0.611   1.992  0.8451  0.6460 -0.5683
 6923TIP3    H220734   4.226   0.615   2.122  0.1744  1.1024 -0.9764
 6924TIP3   OH220735   0.050   6.075   4.864  0.2929 -0.5526  0.4365
 6924TIP3    H120736   0.047   6.158   4.817  0.2653 -0.9533 -0.2885
 6924TIP3    H220737   0.060   6.009   4.795 -0.4530 -1.2100  0.9346
 6925TIP3   OH220738   5.564   4.345   5.349 -0.1150  0.3950 -0.0441
 6925TIP3    H120739   5.476   4.314   5.370 -0.6986  1.9016 -0.0984
 6925TIP3    H220740   5.598   4.379   5.431  1.1926 -1.8138  0.4126
 6926TIP3   OH220741   2.680   5.113   0.219 -0.4406 -0.3163 -0.0635
 6926TIP3    H120742   2.701   5.167   0.295  0.2712 -0.6101 -0.0444
 6926TIP3    H220743   2.728   5.153   0.147 -0.5449 -0.4573 -0.2120
 6927TIP3   OH220744   0.553   2.557   1.761  0.1585  0.5889  0.1230
 6927TIP3    H120745   0.489   2.627   1.750 -2.1014 -1.3061  0.4558
 6927TIP3    H220746   0.600   2.553   1.678 -3.3625 -0.8965 -2.0085
 6928TIP3   OH220747   0.801   1.554   2.230 -0.2918 -0.0326 -0.4304
 6928TIP3    H120748   0.848   1.478   2.264 -1.9721 -0.7030  0.5204
 6928TIP3    H220749   0.777   1.529   2.141 -2.6151 -1.5656  0.5210
 6929TIP3   OH220750   0.848   4.221   0.560  0.4666  0.3897 -0.4346
 6929TIP3    H120751   0.861   4.264   0.645  2.9970  1.1113 -1.1140
 6929TIP3    H220752   0.834   4.129   0.582  0.2496  0.6914  0.7905
 6930TIP3   OH220753   4.533   0.805   3.633  0.4075  0.1002 -0.1111
 6930TIP3    H120754   4.621   0.794   3.670 -0.6691 -2.9061  1.9400
 6930TIP3    H220755   4.548   0.824   3.540  3.2042 -0.4140  0.1523
 6931TIP3   OH220756   5.788   4.965   4.268 -0.0988 -0.3996 -0.9303
 6931TIP3    H120757   5.817   4.890   4.215  0.0513 -0.6728 -0.4710
 6931TIP3    H220758   5.864   4.987   4.322 -0.6500 -0.9618  0.1112
 6932TIP3   OH220759   0.312   4.913   0.547 -0.4330 -0.0588 -0.4891
 6932TIP3    H120760   0.352   4.967   0.478  0.2873 -0.7314 -0.6162
 6932TIP3    H220761   0.385   4.890   0.604 -1.2082  1.4422  1.1878
 6933TIP3   OH220762   0.176   4.431   3.731 -0.0713 -0.1905  0.5066
 6933TIP3    H120763   0.093   4.471   3.703 -0.9936 -0.7467  2.2932
 6933TIP3    H220764   0.240   4.501   3.719 -0.8681  0.4135 -0.4651
 6934TIP3   OH220765   6.688   1.038   0.534  0.2286 -0.3088 -0.7041
 6934TIP3    H120766   6.771   1.015   0.493  0.7836 -0.1575  0.3022
 6934TIP3    H220767   6.697   1.010   0.625 -1.5123 -1.9343 -0.9753
 6935TIP3   OH220768   0.258   2.231   5.584 -0.0450 -0.8408 -0.1710
 6935TIP3    H120769   0.323   2.286   5.540  0.3296 -1.7588 -0.8089
 6935TIP3    H220770   0.266   2.253   5.676 -0.8015  1.0924 -0.5079
 6936TIP3   OH220771   5.222   5.661   0.171  0.1439  0.0059  0.5098
 6936TIP3    H120772   5.156   5.626   0.111  0.2719 -0.9744  0.9365
 6936TIP3    H220773   5.298   5.677   0.115  0.0702 -0.3489  0.3058
 6937TIP3   OH220774   2.458   4.512   3.503 -0.9357 -0.3034  0.4376
 6937TIP3    H120775   2.460   4.417   3.495 -2.1111 -0.2606 -0.5245
 6937TIP3    H220776   2.549   4.539   3.487 -0.7546 -1.1905 -0.1058
 6938TIP3   OH220777   0.108   2.817   3.112 -0.0529 -0.1748  0.0947
 6938TIP3    H120778   0.158   2.816   3.030  1.3081  0.2618  0.8937
 6938TIP3    H220779   0.079   2.908   3.121 -2.0393 -0.6493 -0.9401
 6939TIP3   OH220780   0.595   2.518   3.612 -0.2529 -0.2221  0.5278
 6939TIP3    H120781   0.670   2.460   3.604 -0.5733 -0.6867  0.8727
 6939TIP3    H220782   0.592   2.541   3.705  0.1147  0.6788  0.3299
 6940TIP3   OH220783   1.980   1.713   5.608 -0.3681 -0.0940  0.0510
 6940TIP3    H120784   2.050   1.711   5.542  1.7286  1.8804  2.0849
 6940TIP3    H220785   2.011   1.654   5.677 -0.0772  1.6989  1.5068
 6941TIP3   OH220786   5.204   2.276   0.938  0.4413  0.3292 -0.1130
 6941TIP3    H120787   5.293   2.294   0.970  1.2137 -0.7177 -1.5654
 6941TIP3    H220788   5.150   2.277   1.017  2.0687 -0.9628  1.0914
 6942TIP3   OH220789   5.126   6.307   1.064  0.1818  0.1102  0.0307
 6942TIP3    H120790   5.194   6.240   1.057 -0.5691 -0.6202 -0.3817
 6942TIP3    H220791   5.044   6.259   1.063 -0.3476  0.9583  0.8992
 6943TIP3   OH220792   3.587   2.307   0.312 -0.2219 -0.8821  0.2309
 6943TIP3    H120793   3.576   2.297   0.407  1.0780  1.7352  0.7236
 6943TIP3    H220794   3.506   2.349   0.283  0.6217  1.2529  0.7800
 6944TIP3   OH220795   3.575   3.772   0.209  0.5458  0.3618  0.5609
 6944TIP3    H120796   3.582   3.695   0.265  1.3921 -0.3482 -0.4774
 6944TIP3    H220797   3.658   3.774   0.161 -0.1363  0.9629 -0.6315
 6945TIP3   OH220798   4.203   1.990   2.931 -0.2955  0.4613  0.4944
 6945TIP3    H120799   4.156   2.068   2.960  1.2288  1.2875  0.8974
 6945TIP3    H220800   4.287   1.994   2.978 -0.1148 -1.3377  0.3874
 6946TIP3   OH220801   2.087   1.037   0.943  0.4481 -0.2540  0.1920
 6946TIP3    H120802   2.143   0.975   0.896  1.3965  0.5839  0.1694
 6946TIP3    H220803   2.004   0.992   0.953  0.8991 -1.2593 -0.4297
 6947TIP3   OH220804   6.123   1.986   4.141 -0.0115  0.2200  0.1803
 6947TIP3    H120805   6.116   1.955   4.051  0.6295  0.4993  0.0351
 6947TIP3    H220806   6.204   1.948   4.174  0.0821  0.6339  0.4386
 6948TIP3   OH220807   0.471   6.777   0.485  0.0239 -0.4385 -0.1858
 6948TIP3    H120808   0.394   6.788   0.429 -0.7747 -2.3751  0.4494
 6948TIP3    H220809   0.545   6.787   0.425 -0.7013  0.9557 -0.9002
 6949TIP3   OH220810   6.126   5.226   2.918 -0.9300  0.0724 -0.6323
 6949TIP3    H120811   6.209   5.195   2.882 -0.2718  0.1067  0.7914
 6949TIP3    H220812   6.095   5.153   2.971 -1.7841  0.0921 -1.0926
 6950TIP3   OH220813   6.271   2.052   4.647  0.3733  0.2886  0.5678
 6950TIP3    H120814   6.338   2.118   4.668  0.4959  0.4297 -0.2327
 6950TIP3    H220815   6.319   1.985   4.599 -0.2681  1.0121 -1.1838
 6951TIP3   OH220816   3.676   0.890   1.895 -0.9274  0.1543  0.1542
 6951TIP3    H120817   3.627   0.871   1.975  0.9446 -0.6955  1.1704
 6951TIP3    H220818   3.637   0.833   1.828 -1.2156 -0.6313  0.9785
 6952TIP3   OH220819   2.999   2.867   1.752  0.5734 -0.1429 -0.0330
 6952TIP3    H120820   3.060   2.919   1.803  1.0512 -0.9119  0.1966
 6952TIP3    H220821   2.977   2.923   1.677  1.4371  0.2048 -0.0414
 6953TIP3   OH220822   4.604   4.350   0.354 -0.4690  0.1191 -0.0967
 6953TIP3    H120823   4.541   4.280   0.343  0.7860 -0.9844 -0.4924
 6953TIP3    H220824   4.597   4.375   0.446 -0.3112 -1.1612  0.2838
 6954TIP3   OH220825   3.300   3.897   3.612  0.2341 -0.1993 -0.2267
 6954TIP3    H120826   3.374   3.864   3.662 -0.5722  0.7790  1.7060
 6954TIP3    H220827   3.231   3.831   3.625  0.7381 -1.1713 -2.1174
 6955TIP3   OH220828   0.034   4.490   1.260 -0.3926  0.2214 -0.1430
 6955TIP3    H120829   0.098   4.470   1.329 -0.6134 -0.5106 -0.1471
 6955TIP3    H220830  -0.050   4.492   1.306 -0.1636  3.9790  0.4351
 6956TIP3   OH220831   1.334   6.030   2.043 -0.1967 -0.0564  0.1906
 6956TIP3    H120832   1.406   5.967   2.033 -1.8252 -2.0438  0.3897
 6956TIP3    H220833   1.259   5.976   2.068 -1.2868  2.1879  2.1075
 6957TIP3   OH220834   5.846   6.779   4.903  0.2686 -0.1068 -0.5609
 6957TIP3    H120835   5.830   6.688   4.877  0.7133 -0.7719  1.3349
 6957TIP3    H220836   5.942   6.786   4.905  0.4151 -0.9349  3.2759
 6958TIP3   OH220837   1.544   0.258   4.449  0.9108 -0.6091  0.3048
 6958TIP3    H120838   1.509   0.182   4.402  0.4832 -0.7037  0.7639
 6958TIP3    H220839   1.543   0.231   4.541  0.5009  0.0505  0.4987
 6959TIP3   OH220840   5.007   6.423   1.273 -0.3865  0.1009  0.3930
 6959TIP3    H120841   5.056   6.406   1.193 -2.5004  1.1423 -1.2411
 6959TIP3    H220842   4.983   6.336   1.305  1.7277 -0.3890  0.7953
 6960TIP3   OH220843   5.746   6.789   1.188 -0.1914 -0.5333 -0.7325
 6960TIP3    H120844   5.665   6.830   1.157 -0.1945 -1.0913 -1.4906
 6960TIP3    H220845   5.761   6.716   1.128  1.4681  0.2179 -1.2768
 6961TIP3   OH220846   5.196   6.409   0.074 -0.6726  0.2427 -0.4685
 6961TIP3    H120847   5.179   6.454   0.157  1.2338  1.2665 -0.5672
 6961TIP3    H220848   5.278   6.362   0.089 -2.4612 -3.1389 -0.4550
 6962TIP3   OH220849   0.282   0.418   1.932 -0.8972  0.1626  0.1700
 6962TIP3    H120850   0.266   0.337   1.980 -0.0884  0.1697  0.4702
 6962TIP3    H220851   0.298   0.390   1.842 -3.6111  0.2373 -0.4162
 6963TIP3   OH220852   5.742   2.108   5.493 -0.0154 -0.0867  0.0276
 6963TIP3    H120853   5.669   2.158   5.458 -0.5143  0.4331  1.7064
 6963TIP3    H220854   5.702   2.029   5.530  0.5995 -1.0668 -1.3271
 6964TIP3   OH220855   4.259   3.967   2.552  0.2062 -0.3380 -0.2534
 6964TIP3    H120856   4.318   4.043   2.550  0.7964 -0.7832 -2.3403
 6964TIP3    H220857   4.185   3.995   2.606 -0.5960  2.5031 -2.5814
 6965TIP3   OH220858   2.790   4.885   0.994  0.2585  0.2580 -0.3682
 6965TIP3    H120859   2.761   4.954   1.053 -1.9622 -0.5338 -0.4402
 6965TIP3    H220860   2.800   4.928   0.909  0.7829  0.8437 -0.0171
 6966TIP3   OH220861   3.779   4.530   1.689  0.0653  0.0907  0.0343
 6966TIP3    H120862   3.710   4.465   1.700 -0.3253  0.3741 -0.7073
 6966TIP3    H220863   3.836   4.493   1.622 -0.1010  0.4705 -0.3152
 6967TIP3   OH220864   0.160   5.851   3.613  0.3836 -0.2041 -0.6475
 6967TIP3    H120865   0.173   5.758   3.631  1.4618 -0.1468 -1.0325
 6967TIP3    H220866   0.114   5.884   3.690  0.1462 -1.0163 -0.4266
 6968TIP3   OH220867   2.655   2.740   3.616 -0.1738 -0.3052 -0.1690
 6968TIP3    H120868   2.683   2.696   3.536  0.7722  0.7909 -0.4548
 6968TIP3    H220869   2.718   2.811   3.629 -0.4677 -0.2951  1.4061
 6969TIP3   OH220870   1.545   5.179   4.842 -0.1888 -0.3090 -0.4116
 6969TIP3    H120871   1.488   5.129   4.900  1.2509 -1.2978  0.2192
 6969TIP3    H220872   1.574   5.116   4.776  0.0098  0.2237 -0.8426
 6970TIP3   OH220873   3.946   4.559   3.523 -0.3112 -0.0808  0.0805
 6970TIP3    H120874   4.013   4.610   3.477 -1.4134  0.5711 -0.8573
 6970TIP3    H220875   3.900   4.623   3.578 -0.9876 -0.2509 -0.2679
 6971TIP3   OH220876   0.982   5.682   1.958  0.2870  0.3640  0.2758
 6971TIP3    H120877   0.891   5.677   1.989 -0.3355  1.1120 -1.3022
 6971TIP3    H220878   1.000   5.596   1.922 -0.8262  0.9581 -1.9249
 6972TIP3   OH220879   2.634   5.416   2.357 -0.2589  0.1190 -0.0038
 6972TIP3    H120880   2.613   5.397   2.265  1.6305  1.6026 -0.8082
 6972TIP3    H220881   2.618   5.510   2.366  0.0332  0.0778  1.0652
 6973TIP3   OH220882   4.931   3.770   2.940 -0.6189 -0.3117 -0.2016
 6973TIP3    H120883   4.960   3.789   3.029 -1.7535  0.1373  0.0970
 6973TIP3    H220884   4.936   3.675   2.933  0.9742 -0.2513 -0.2130
 6974TIP3   OH220885   0.619   4.755   1.232  0.0132  0.4019  0.4466
 6974TIP3    H120886   0.709   4.726   1.244  0.8120  1.7462 -1.7176
 6974TIP3    H220887   0.615   4.841   1.274  0.1580  0.9372 -0.5996
 6975TIP3   OH220888   6.880   2.209   4.949 -0.5548  0.4194 -0.2117
 6975TIP3    H120889   6.939   2.146   4.907  0.8393  1.6631 -0.1832
 6975TIP3    H220890   6.933   2.288   4.959 -1.3295  0.6787  2.4687
 6976TIP3   OH220891   5.537   0.651   3.516 -0.3575 -0.0577 -0.3070
 6976TIP3    H120892   5.455   0.603   3.506  0.7786 -2.2932  0.4033
 6976TIP3    H220893   5.533   0.686   3.606 -0.7313  0.2868 -0.4523
 6977TIP3   OH220894   3.475   6.407   4.404 -0.4913 -0.0497  0.3826
 6977TIP3    H120895   3.542   6.447   4.460  2.3219 -1.2643 -1.8384
 6977TIP3    H220896   3.465   6.318   4.438  1.0836 -0.7277 -0.7832
 6978TIP3   OH220897   4.136   2.232   5.579 -0.1890 -0.0351 -0.3150
 6978TIP3    H120898   4.194   2.163   5.610  0.1588  0.6634  0.6218
 6978TIP3    H220899   4.082   2.189   5.512  0.9851 -0.8499 -0.7824
 6979TIP3   OH220900   4.986   3.434   2.174  0.1477 -0.3325  0.0170
 6979TIP3    H120901   4.926   3.467   2.240  0.0358 -1.3613  0.4457
 6979TIP3    H220902   4.930   3.390   2.110  0.4351 -1.3486  0.4504
 6980TIP3   OH220903   2.126   5.321   5.596  0.2439 -0.5326 -0.0272
 6980TIP3    H120904   2.190   5.276   5.540  1.5209  1.7639 -0.5363
 6980TIP3    H220905   2.148   5.414   5.588 -2.0612  0.1997  1.2198
 6981TIP3   OH220906   2.850   1.267   5.672  0.3827 -0.1309  0.4671
 6981TIP3    H120907   2.938   1.278   5.636  0.2349 -0.4679 -0.0098
 6981TIP3    H220908   2.850   1.317   5.753  0.7096  0.7057 -0.0365
 6982TIP3   OH220909   6.364   2.070   0.902 -0.1849 -0.0089  0.3503
 6982TIP3    H120910   6.404   2.060   0.815  2.2068 -0.0944  1.3846
 6982TIP3    H220911   6.320   2.154   0.898 -2.0978 -0.9930 -1.6187
 6983TIP3   OH220912   5.339   5.715   4.906 -0.5151 -0.1519 -0.2891
 6983TIP3    H120913   5.333   5.674   4.820 -0.8545  1.3317 -1.0062
 6983TIP3    H220914   5.249   5.743   4.925 -0.0103  1.8940 -0.6946
 6984TIP3   OH220915   4.808   0.243   4.059  0.4006  0.0048  0.0950
 6984TIP3    H120916   4.735   0.182   4.064  0.7039 -0.3500  0.2995
 6984TIP3    H220917   4.797   0.301   4.135  0.3895 -0.1173  0.1869
 6985TIP3   OH220918   0.100   5.627   2.611  0.0623  0.1484  0.2296
 6985TIP3    H120919   0.040   5.559   2.641 -0.3361  0.4320  0.1004
 6985TIP3    H220920   0.097   5.621   2.515  0.2041  0.1957  0.2218
 6986TIP3   OH220921   1.529   3.543   5.727 -0.2393  0.5200  0.4763
 6986TIP3    H120922   1.434   3.558   5.728 -0.0981  1.4552  0.8575
 6986TIP3    H220923   1.546   3.490   5.804 -0.6213 -0.8585 -0.3528
 6987TIP3   OH220924   1.077   5.414   2.903  0.0580 -0.3167 -0.4457
 6987TIP3    H120925   1.038   5.480   2.846  2.2284  1.0546 -0.4764
 6987TIP3    H220926   1.067   5.448   2.992 -1.0087 -1.1847 -0.2138
 6988TIP3   OH220927   0.268   4.453   4.617  0.1595 -0.1216  0.3425
 6988TIP3    H120928   0.327   4.451   4.542 -1.3885  0.4736 -0.9445
 6988TIP3    H220929   0.182   4.470   4.579 -0.5963  0.6885  2.3028
 6989TIP3   OH220930   4.460   2.742   3.596  0.3803  0.6620  0.0216
 6989TIP3    H120931   4.512   2.819   3.621 -0.2541  0.2726  2.7948
 6989TIP3    H220932   4.437   2.700   3.679 -1.0154 -1.4104 -1.3243
 6990TIP3   OH220933   6.234   1.243   5.492  0.3814 -0.0079  0.2529
 6990TIP3    H120934   6.286   1.203   5.561 -0.3555 -0.0587  0.7906
 6990TIP3    H220935   6.262   1.199   5.412  1.0722 -0.1164  0.5520
 6991TIP3   OH220936   5.717   1.317   5.853 -0.2652 -0.1601  0.3649
 6991TIP3    H120937   5.650   1.374   5.818 -0.3714 -1.2663 -1.3508
 6991TIP3    H220938   5.795   1.372   5.859 -0.2913  0.1299 -1.4984
 6992TIP3   OH220939   6.124   2.006   5.171 -0.3653  0.1972  0.0801
 6992TIP3    H120940   6.106   1.997   5.265 -0.1116  0.5016  0.1604
 6992TIP3    H220941   6.115   2.100   5.154 -0.0272  0.1943 -0.1175
 6993TIP3   OH220942   3.819   6.807   1.072  0.8877  0.3435  0.3214
 6993TIP3    H120943   3.775   6.743   1.128  0.8226  0.3570  0.2864
 6993TIP3    H220944   3.911   6.784   1.077  0.9240  0.5476  0.6982
 6994TIP3   OH220945   1.130   0.928   1.100 -0.2842  0.1637 -0.3874
 6994TIP3    H120946   1.170   0.866   1.040  0.2844 -0.2230  0.3758
 6994TIP3    H220947   1.063   0.877   1.145  1.3222 -0.4200  1.4775
 6995TIP3   OH220948   6.935   4.838   2.633 -0.1066 -0.4479 -0.0404
 6995TIP3    H120949   6.956   4.765   2.574 -0.3474 -0.7230  0.2119
 6995TIP3    H220950   6.865   4.885   2.588  0.2631 -0.1855 -0.3517
 6996TIP3   OH220951   4.514   0.279   0.877 -0.5187  0.2876 -0.3972
 6996TIP3    H120952   4.478   0.273   0.789 -0.1953  1.9299 -0.6900
 6996TIP3    H220953   4.604   0.248   0.869 -0.2349  1.1736 -0.8572
 6997TIP3   OH220954   3.027   4.599   5.087  0.1837  0.0035 -0.0647
 6997TIP3    H120955   2.961   4.595   5.018 -0.1595  2.3030  0.0372
 6997TIP3    H220956   2.980   4.631   5.164  1.0520 -0.0951  0.5231
 6998TIP3   OH220957   1.096   2.967   1.558  0.0723  0.2825 -0.2878
 6998TIP3    H120958   1.148   2.922   1.492  0.0257  0.8951 -0.7470
 6998TIP3    H220959   1.072   3.051   1.518 -2.0940 -0.3633 -0.4707
 6999TIP3   OH220960   5.819   5.391   2.768  0.1407  0.1494  0.4018
 6999TIP3    H120961   5.741   5.371   2.716  1.3870  0.2303 -1.6269
 6999TIP3    H220962   5.785   5.427   2.850 -1.9601 -1.3221  0.2548
 7000TIP3   OH220963   5.289   2.960   2.595  0.0343  0.5658  0.0445
 7000TIP3    H120964   5.289   2.963   2.500  2.8002 -2.3870 -0.2158
 7000TIP3    H220965   5.368   3.008   2.621 -0.0682  0.3659  0.7705
 7001TIP3   OH220966   0.730   0.920   3.005  0.2938 -0.2564 -0.1839
 7001TIP3    H120967   0.696   0.884   2.923  1.3050 -0.1009 -0.6922
 7001TIP3    H220968   0.736   0.845   3.064  0.4741 -0.5573 -0.5784
 7002TIP3   OH220969   6.239   3.059   1.317  0.1883 -0.0435  0.3207
 7002TIP3    H120970   6.170   3.111   1.277  0.5738 -0.6394 -1.1607
 7002TIP3    H220971   6.306   3.122   1.343  0.0839  0.3170 -0.2923
 7003TIP3   OH220972   5.035   5.954   2.865 -0.2721 -0.0775 -0.4299
 7003TIP3    H120973   5.009   5.873   2.822  0.8352 -0.6792 -0.0228
 7003TIP3    H220974   5.091   5.999   2.801  0.2124 -0.2934 -0.1686
 7004TIP3   OH220975   5.463   2.726   2.325  0.0980 -0.3517 -0.0710
 7004TIP3    H120976   5.440   2.801   2.380 -0.8928 -0.9817  0.4154
 7004TIP3    H220977   5.558   2.732   2.315  0.1838  0.3173  0.9330
 7005TIP3   OH220978   1.930   1.504   5.075 -0.0442 -0.4619  0.0492
 7005TIP3    H120979   2.015   1.539   5.048 -0.2380 -0.4564 -0.5765
 7005TIP3    H220980   1.867   1.569   5.045 -0.2974 -0.6589  0.1543
 7006TIP3   OH220981   3.167   1.982   0.631 -0.1880 -0.1248 -0.3282
 7006TIP3    H120982   3.073   1.972   0.646 -0.1447 -1.2092 -0.6654
 7006TIP3    H220983   3.193   1.900   0.589  0.8206  0.3597 -0.6838
 7007TIP3   OH220984   2.603   6.207   1.726 -0.0069 -0.3508 -0.3793
 7007TIP3    H120985   2.621   6.262   1.649  1.3686  1.0509  0.8642
 7007TIP3    H220986   2.648   6.125   1.707 -0.2268 -0.2683 -1.3446
 7008TIP3   OH220987   0.967   0.750   3.741 -0.5388 -0.0470  0.2234
 7008TIP3    H120988   0.942   0.768   3.651 -2.5349  0.1292  0.7808
 7008TIP3    H220989   1.048   0.698   3.733 -0.3278  0.5041 -1.6202
 7009TIP3   OH220990   4.020   2.737   4.562 -0.0638  0.2925 -0.4726
 7009TIP3    H120991   4.004   2.734   4.656 -1.9877  1.0939 -0.7492
 7009TIP3    H220992   3.951   2.683   4.523  2.9018 -3.3729 -1.2925
 7010TIP3   OH220993   0.180   4.687   0.632  0.0102 -0.0035 -0.2798
 7010TIP3    H120994   0.102   4.636   0.653 -0.3300  1.3541  2.1385
 7010TIP3    H220995   0.150   4.777   0.625  1.3281  0.5819  0.8990
 7011TIP3   OH220996   2.314   5.782   0.194 -0.1122 -0.0986  0.1868
 7011TIP3    H120997   2.407   5.763   0.206  0.4570  2.3318  0.1239
 7011TIP3    H220998   2.284   5.718   0.130  1.9459  0.0875 -1.0366
 7012TIP3   OH220999   1.259   6.434   2.386 -0.3933  0.0114 -0.7292
 7012TIP3    H121000   1.266   6.357   2.330 -0.7732 -1.6001  1.3258
 7012TIP3    H221001   1.281   6.403   2.473 -0.2663  2.3194  0.1377
 7013TIP3   OH221002   3.111   0.972   5.021  0.6262 -0.6210  0.2127
 7013TIP3    H121003   3.189   0.965   5.077  0.2562 -2.7400  0.5344
 7013TIP3    H221004   3.081   0.882   5.011 -1.0211  0.0313 -1.0191
 7014TIP3   OH221005   2.940   4.438   0.069 -0.2547  0.2338  0.2215
 7014TIP3    H121006   3.022   4.452   0.117 -0.5811  1.1907  0.5236
 7014TIP3    H221007   2.880   4.405   0.135  0.3258 -2.1670 -0.3493
 7015TIP3   OH221008   1.735   3.771   0.179  0.2359 -0.1861 -0.1624
 7015TIP3    H121009   1.662   3.832   0.165  0.4043 -0.0446 -0.4357
 7015TIP3    H221010   1.698   3.685   0.163  0.4232 -0.0292 -1.4839
 7016TIP3   OH221011   5.177   2.177   3.678 -0.2117  0.5283  0.2568
 7016TIP3    H121012   5.265   2.150   3.706  0.3187  1.8464 -0.0442
 7016TIP3    H221013   5.143   2.228   3.751 -1.0249 -0.5527  0.6524
 7017TIP3   OH221014   2.889   1.715   4.040  0.3733  0.1923  0.3106
 7017TIP3    H121015   2.925   1.794   4.000 -0.9403  1.2323  1.0811
 7017TIP3    H221016   2.834   1.675   3.972  0.5019  0.3167  0.1348
 7018TIP3   OH221017   0.335   1.743   3.894  0.4517 -0.1482 -0.5112
 7018TIP3    H121018   0.267   1.779   3.951  0.5782 -0.5722 -0.0829
 7018TIP3    H221019   0.405   1.809   3.897  0.7399 -0.4672  0.3823
 7019TIP3   OH221020   3.511   4.373   5.020  0.1678 -0.0876  0.2939
 7019TIP3    H121021   3.448   4.438   5.052 -0.1842 -0.6318  0.7360
 7019TIP3    H221022   3.513   4.307   5.089  0.5227 -0.5446 -0.1515
 7020TIP3   OH221023   0.738   5.732   0.359  0.1145  0.1316 -0.1734
 7020TIP3    H121024   0.752   5.826   0.348  1.0377  0.3955  2.5379
 7020TIP3    H221025   0.679   5.725   0.434  0.2981 -1.4617 -0.1321
 7021TIP3   OH221026   0.531   2.277   1.339 -0.4490  0.0812  0.0311
 7021TIP3    H121027   0.457   2.289   1.398 -2.1051  1.3549 -2.1464
 7021TIP3    H221028   0.553   2.366   1.310 -2.7181 -0.5752 -4.6221
 7022TIP3   OH221029   5.929   0.174   2.465 -0.0039  0.2147 -0.1963
 7022TIP3    H121030   5.929   0.266   2.438 -3.9069  0.8514  1.2811
 7022TIP3    H221031   5.951   0.177   2.559 -1.9500 -0.0466  0.3137
 7023TIP3   OH221032   0.982   6.673   4.146  0.0669  0.6953  0.2569
 7023TIP3    H121033   1.011   6.701   4.059 -0.7288  0.9121  0.0497
 7023TIP3    H221034   0.890   6.650   4.134  0.1752 -0.0727  0.8694
 7024TIP3   OH221035   6.997   2.236   5.502  0.1486  0.6187 -0.3954
 7024TIP3    H121036   6.966   2.179   5.431  1.3740  0.3542 -0.7369
 7024TIP3    H221037   6.979   2.186   5.582 -0.1620  0.4079 -0.5905
 7025TIP3   OH221038   6.983   0.992   3.538 -0.4023 -0.0157 -0.7166
 7025TIP3    H121039   6.944   0.942   3.466  1.4132 -1.1293 -0.9846
 7025TIP3    H221040   6.991   0.929   3.610  1.7565 -0.1350 -1.0007
 7026TIP3   OH221041   2.204   0.675   5.502 -0.1557 -0.4141 -0.4367
 7026TIP3    H121042   2.123   0.720   5.478  1.1329  1.6420 -1.1000
 7026TIP3    H221043   2.180   0.623   5.579 -2.4324 -1.0214 -1.4502
 7027TIP3   OH221044   3.043   5.227   3.187 -0.0355  0.2135 -0.9922
 7027TIP3    H121045   3.120   5.283   3.191  1.8559 -2.2044 -1.2456
 7027TIP3    H221046   3.018   5.214   3.279  1.0436 -0.4446 -0.7682
 7028TIP3   OH221047   4.184   2.076   5.139  0.0521  0.3314  0.7124
 7028TIP3    H121048   4.124   2.131   5.189 -0.2136  0.9572 -0.2508
 7028TIP3    H221049   4.193   1.996   5.190 -0.8861  0.5988  1.3209
 7029TIP3   OH221050   2.601   3.288   1.162 -0.7790  0.2093  0.2635
 7029TIP3    H121051   2.651   3.366   1.137 -0.5968  0.7880  2.3090
 7029TIP3    H221052   2.510   3.311   1.141 -0.4565 -0.1431 -1.7354
 7030TIP3   OH221053   3.581   5.627   5.654  0.2068  0.4263 -0.1472
 7030TIP3    H121054   3.611   5.679   5.579  0.1944  1.7400  0.7174
 7030TIP3    H221055   3.492   5.601   5.631  0.3819  0.3665 -0.7963
 7031TIP3   OH221056   5.557   4.012   3.738 -0.0773 -0.1512 -0.1031
 7031TIP3    H121057   5.609   4.059   3.673 -2.0934 -0.1335 -1.8291
 7031TIP3    H221058   5.541   4.076   3.807  2.8111 -0.4144  0.9447
 7032TIP3   OH221059   5.053   4.457   5.188 -0.2894 -0.2384 -0.3067
 7032TIP3    H121060   5.122   4.519   5.213  0.1396 -0.5154 -0.7883
 7032TIP3    H221061   4.975   4.512   5.176 -0.1780  0.0644  0.3139
 7033TIP3   OH221062   2.268   4.672   3.644 -0.2068  0.7912  0.2240
 7033TIP3    H121063   2.309   4.629   3.569 -0.2131  0.4515  0.4142
 7033TIP3    H221064   2.310   4.633   3.721 -0.4179  0.9152  0.4045
 7034TIP3   OH221065   2.807   6.735   0.476 -0.0946 -0.4702  0.0543
 7034TIP3    H121066   2.803   6.831   0.477  0.5824 -0.4480  0.8748
 7034TIP3    H221067   2.722   6.707   0.512 -0.8490 -0.2129 -1.4348
 7035TIP3   OH221068   3.364   2.810   0.716  0.6556 -0.4345  0.1675
 7035TIP3    H121069   3.392   2.719   0.725  0.1795 -0.6207 -0.2162
 7035TIP3    H221070   3.275   2.812   0.750  0.7498 -0.0561  0.4051
 7036TIP3   OH221071   2.618   2.701   0.198  0.1421 -0.2365  0.5968
 7036TIP3    H121072   2.583   2.612   0.205  0.3966 -0.5725 -1.5679
 7036TIP3    H221073   2.713   2.690   0.209  0.4148 -0.5989 -1.6476
 7037TIP3   OH221074   5.436   3.359   2.645 -0.2666 -0.3635  0.1347
 7037TIP3    H121075   5.505   3.335   2.707  0.8731 -0.9742 -1.2901
 7037TIP3    H221076   5.465   3.444   2.609  0.4507 -1.1978 -1.3690
 7038TIP3   OH221077   0.642   4.065   3.768 -0.1581 -0.4884 -0.0516
 7038TIP3    H121078   0.644   4.064   3.864 -0.4405 -1.4923 -0.0454
 7038TIP3    H221079   0.726   4.102   3.743 -0.2421  0.1571  0.5865
 7039TIP3   OH221080   0.439   2.419   3.075 -0.4302 -0.5318  0.2208
 7039TIP3    H121081   0.439   2.511   3.104 -1.2697 -0.3647 -0.2759
 7039TIP3    H221082   0.483   2.422   2.990 -2.2124 -0.2442 -0.7460
 7040TIP3   OH221083   2.803   2.249   3.312 -0.1597  0.6411  0.2590
 7040TIP3    H121084   2.811   2.334   3.269 -0.3803  1.7872  2.3758
 7040TIP3    H221085   2.885   2.238   3.360 -0.2108 -0.2812  0.1605
 7041TIP3   OH221086   4.764   0.692   2.677 -0.2580 -0.6501  0.3030
 7041TIP3    H121087   4.733   0.710   2.766 -1.3508  0.2636 -0.2340
 7041TIP3    H221088   4.844   0.744   2.669 -1.6794  1.6168 -0.1572
 7042TIP3   OH221089   4.959   4.105   5.549  0.5596 -0.3147 -0.5337
 7042TIP3    H121090   5.029   4.040   5.543 -1.0322 -2.2895  1.0368
 7042TIP3    H221091   4.883   4.063   5.509 -0.5680  0.5020  0.6607
 7043TIP3   OH221092   3.719   2.060   5.890 -0.1045 -0.1853 -0.1711
 7043TIP3    H121093   3.718   1.970   5.856 -1.2912 -1.1625  2.2379
 7043TIP3    H221094   3.811   2.082   5.896  0.1996 -1.0746 -1.1670
 7044TIP3   OH221095   6.052   2.276   2.811  0.4317  0.1420  0.2766
 7044TIP3    H121096   6.036   2.368   2.789  3.0876  0.4100 -0.9770
 7044TIP3    H221097   6.073   2.235   2.727 -0.4388 -1.5878  0.8606
 7045TIP3   OH221098   4.137   5.346   4.374 -0.2432 -0.8439  0.0353
 7045TIP3    H121099   4.197   5.380   4.441 -1.4738 -2.4726  2.0746
 7045TIP3    H221100   4.095   5.424   4.337  0.9959  0.1323  0.6167
 7046TIP3   OH221101   0.484   3.124   4.351  0.1498 -0.2907 -0.9209
 7046TIP3    H121102   0.553   3.126   4.416 -0.0867  1.0577 -0.6826
 7046TIP3    H221103   0.433   3.046   4.371  0.3487 -0.1316  0.2260
 7047TIP3   OH221104   1.539   0.553   3.505 -0.9112  0.5360 -0.3088
 7047TIP3    H121105   1.505   0.643   3.510 -0.2611  0.7353  0.7896
 7047TIP3    H221106   1.535   0.521   3.595  1.7274  0.5488 -0.1228
 7048TIP3   OH221107   1.588   6.095   5.870  0.2293 -0.3491 -0.0202
 7048TIP3    H121108   1.676   6.059   5.879  0.9069  1.4287  0.9900
 7048TIP3    H221109   1.552   6.051   5.793  1.9443 -1.2271 -0.3714
 7049TIP3   OH221110   0.690   4.768   4.050 -0.1409  0.5577 -0.3016
 7049TIP3    H121111   0.691   4.861   4.026  1.0278  0.5232 -0.4239
 7049TIP3    H221112   0.688   4.769   4.146  0.1777  0.7108 -0.2956
 7050TIP3   OH221113   5.227   3.276   1.766  0.3844 -0.0224  0.2568
 7050TIP3    H121114   5.241   3.256   1.859  1.2959 -0.1542  0.0899
 7050TIP3    H221115   5.312   3.265   1.725  0.3676  1.6794 -0.3092
 7051TIP3   OH221116   1.608   5.686   3.680  0.2595  0.6819 -0.2750
 7051TIP3    H121117   1.547   5.735   3.734 -0.4876 -0.6473  0.1461
 7051TIP3    H221118   1.685   5.673   3.736 -0.4083 -0.4676  0.4173
 7052TIP3   OH221119   1.125   0.090   2.737  0.4884 -0.5730  0.1286
 7052TIP3    H121120   1.031   0.095   2.724  0.4458 -1.6306 -0.0401
 7052TIP3    H221121   1.148   0.174   2.776 -0.5608 -0.4056  0.4163
 7053TIP3   OH221122   3.514   0.593   2.397  0.2317  1.1937 -1.2765
 7053TIP3    H121123   3.570   0.516   2.399 -0.2725  0.8165  0.7045
 7053TIP3    H221124   3.457   0.579   2.321  0.4454 -0.1820 -1.2148
 7054TIP3   OH221125   5.357   3.856   1.187  0.1992  0.2926 -0.4766
 7054TIP3    H121126   5.324   3.897   1.107 -1.5540 -0.2327 -0.0655
 7054TIP3    H221127   5.293   3.787   1.206  0.3622  0.6754  1.5899
 7055TIP3   OH221128   5.251   1.056   0.241 -0.5828  0.4455  0.3918
 7055TIP3    H121129   5.201   1.041   0.321  2.6683 -1.3464  2.3244
 7055TIP3    H221130   5.221   0.988   0.181 -0.3978 -0.7035  1.5572
 7056TIP3   OH221131   2.216   5.173   5.050 -0.0592 -0.2326  0.2505
 7056TIP3    H121132   2.264   5.194   5.130  0.6908 -0.7668 -0.0477
 7056TIP3    H221133   2.126   5.201   5.067  0.4328  1.1763  0.6691
 7057TIP3   OH221134   5.043   1.172   5.711 -0.6261 -0.3535  0.1382
 7057TIP3    H121135   4.950   1.173   5.691 -0.5531 -0.5325 -0.2201
 7057TIP3    H221136   5.048   1.159   5.806 -1.0280  2.1990  0.5919
 7058TIP3   OH221137   5.820   6.098   4.355 -0.1595 -0.8025 -0.1210
 7058TIP3    H121138   5.731   6.063   4.361 -0.3457 -0.4346 -0.6277
 7058TIP3    H221139   5.809   6.193   4.362  0.2403 -0.7773  0.2413
 7059TIP3   OH221140   5.399   5.368   2.471  0.1851 -0.2511 -0.2420
 7059TIP3    H121141   5.480   5.344   2.427  1.1551  0.2511  1.2094
 7059TIP3    H221142   5.367   5.286   2.510  0.5117 -0.2631  0.0001
 7060TIP3   OH221143   2.254   2.372   3.605 -0.1159  0.0078 -0.0750
 7060TIP3    H121144   2.235   2.289   3.649 -0.5923 -0.0934 -0.4501
 7060TIP3    H221145   2.232   2.439   3.669 -1.6241 -0.1105 -0.4197
 7061TIP3   OH221146   3.253   0.267   1.885  0.1298  0.2334  0.1037
 7061TIP3    H121147   3.225   0.233   1.970  0.9827  1.0852  0.7418
 7061TIP3    H221148   3.313   0.338   1.906 -0.5171  1.2136 -1.1962
 7062TIP3   OH221149   3.315   4.722   2.669 -0.3848  0.8944  0.0971
 7062TIP3    H121150   3.390   4.695   2.723 -0.9918 -0.2067  0.4182
 7062TIP3    H221151   3.276   4.640   2.639 -0.3921  1.4781 -1.5956
 7063TIP3   OH221152   4.765   5.739   0.435 -0.0237  0.5215  0.4927
 7063TIP3    H121153   4.682   5.767   0.475  0.2450  0.4501  1.1119
 7063TIP3    H221154   4.749   5.746   0.341 -0.6303  0.8136  0.6072
 7064TIP3   OH221155   5.990   6.598   4.190 -0.2327 -0.6034 -0.2136
 7064TIP3    H121156   6.084   6.602   4.172 -0.3390 -0.8418 -0.8406
 7064TIP3    H221157   5.972   6.506   4.209 -0.0700 -0.3260  1.5041
 7065TIP3   OH221158   5.873   1.162   4.603  0.0616  0.0888 -0.0221
 7065TIP3    H121159   5.883   1.227   4.672  0.2699 -1.0602  1.0712
 7065TIP3    H221160   5.951   1.107   4.610  0.0392 -0.1098 -1.1174
 7066TIP3   OH221161   0.851   5.532   2.523 -0.6747  0.4600  0.7291
 7066TIP3    H121162   0.862   5.580   2.606 -1.3257  2.5031 -0.3000
 7066TIP3    H221163   0.776   5.573   2.482  1.2911  1.4813 -2.1525
 7067TIP3   OH221164   2.601   1.503   1.273 -0.4395  0.7008 -0.1477
 7067TIP3    H121165   2.657   1.581   1.272 -0.3281  0.6228 -0.0301
 7067TIP3    H221166   2.662   1.430   1.283 -0.5762  0.6286  0.1765
 7068TIP3   OH221167   2.055   3.376   1.269  0.1625 -0.2800  0.6475
 7068TIP3    H121168   2.022   3.449   1.322 -0.4187 -0.4845  0.5692
 7068TIP3    H221169   2.076   3.308   1.333 -0.1437 -0.3731  0.6503
 7069TIP3   OH221170   4.708   5.585   1.409 -0.1516 -0.0466 -0.5457
 7069TIP3    H121171   4.755   5.502   1.408  1.7245  0.9811 -0.3978
 7069TIP3    H221172   4.710   5.613   1.500 -1.2165 -0.0361 -0.5047
 7070TIP3   OH221173   4.123   5.669   0.284  0.0314  0.0767 -0.0812
 7070TIP3    H121174   4.064   5.594   0.284 -0.9519  0.7789  1.9302
 7070TIP3    H221175   4.210   5.631   0.294 -0.1305 -0.9121 -1.9588
 7071TIP3   OH221176   0.042   5.855   0.243 -0.3553  0.4745  0.2469
 7071TIP3    H121177   0.108   5.910   0.285 -0.9956  1.4050  0.0561
 7071TIP3    H221178   0.049   5.876   0.150  0.1550 -0.6085  0.0218
 7072TIP3   OH221179   1.636   3.024   0.628 -0.5390 -0.4638  0.2062
 7072TIP3    H121180   1.608   2.954   0.569 -0.7528  1.1064 -1.6643
 7072TIP3    H221181   1.731   3.024   0.622 -0.6066  0.7470 -1.5213
 7073TIP3   OH221182   1.481   3.802   5.277  0.8288 -0.2721 -0.4176
 7073TIP3    H121183   1.458   3.882   5.231  1.3969 -0.6176 -1.3366
 7073TIP3    H221184   1.475   3.825   5.370 -1.0876  0.2159 -0.6321
 7074TIP3   OH221185   1.204   5.910   2.333 -0.2505  0.0149  0.7117
 7074TIP3    H121186   1.184   5.941   2.244  0.1366 -0.3911  0.4735
 7074TIP3    H221187   1.172   5.979   2.391 -0.2235  0.4324  0.2375
 7075TIP3   OH221188   4.802   3.161   0.758  0.0347  0.2619  0.0063
 7075TIP3    H121189   4.848   3.077   0.748 -0.9701 -0.1821 -1.2297
 7075TIP3    H221190   4.858   3.225   0.714  0.7867  0.2526  0.9179
 7076TIP3   OH221191   2.381   5.253   5.418  0.5728 -0.4383  0.1552
 7076TIP3    H121192   2.420   5.335   5.388  1.3309 -1.2058 -1.0277
 7076TIP3    H221193   2.447   5.215   5.475  0.0589 -0.0703  1.0290
 7077TIP3   OH221194   4.686   2.994   1.538  0.0259  0.4412  0.0238
 7077TIP3    H121195   4.600   2.983   1.497  0.4981  0.9229 -1.1266
 7077TIP3    H221196   4.669   3.053   1.611 -0.5180  1.0952 -0.6048
 7078TIP3   OH221197   3.899   0.924   0.364 -0.4480 -0.4990 -0.6665
 7078TIP3    H121198   3.857   0.997   0.410 -0.6061 -0.1895 -1.2886
 7078TIP3    H221199   3.911   0.857   0.430  1.2581  0.7231  0.3681
 7079TIP3   OH221200   3.050   0.519   5.868  0.0861 -0.6427  0.0269
 7079TIP3    H121201   3.110   0.593   5.865 -0.8169  0.0972 -2.4991
 7079TIP3    H221202   3.001   0.530   5.949  1.0639  0.6107  0.4758
 7080TIP3   OH221203   2.199   3.181   5.025  0.1167 -0.1063  0.2315
 7080TIP3    H121204   2.150   3.164   5.106  0.8997 -0.1330  0.7119
 7080TIP3    H221205   2.286   3.144   5.042  0.9824  1.7983  0.2151
 7081TIP3   OH221206   2.566   3.398   0.303 -0.0725  0.3363  0.3138
 7081TIP3    H121207   2.516   3.427   0.227 -0.3835 -0.4864  0.1970
 7081TIP3    H221208   2.624   3.330   0.270 -0.7277 -0.5529  0.9294
 7082TIP3   OH221209   5.189   4.501   4.238  0.0671  0.6530  0.3250
 7082TIP3    H121210   5.197   4.468   4.149  1.0039 -1.2809  1.0614
 7082TIP3    H221211   5.107   4.463   4.270 -0.0025  0.9122  0.4529
 7083TIP3   OH221212   1.251   5.889   3.481 -0.1495  0.3980  0.3768
 7083TIP3    H121213   1.308   5.924   3.549  1.0296 -1.9241  0.6836
 7083TIP3    H221214   1.202   5.819   3.525  0.9599 -1.4585 -1.1530
 7084TIP3   OH221215   0.343   2.950   5.511  0.0257  0.9341  1.0137
 7084TIP3    H121216   0.249   2.940   5.500 -0.0661  1.6691  1.0464
 7084TIP3    H221217   0.366   3.024   5.454  0.9902 -0.7433 -0.8850
 7085TIP3   OH221218   1.433   2.701   4.051 -0.6159  0.0664  0.4292
 7085TIP3    H121219   1.473   2.638   4.111  1.0770  0.1322 -0.5412
 7085TIP3    H221220   1.350   2.662   4.025  0.5261 -1.9637 -0.3775
 7086TIP3   OH221221   2.417   5.529   1.150  0.7169 -0.2819 -0.5505
 7086TIP3    H121222   2.408   5.600   1.213 -0.7351  0.4361 -1.5013
 7086TIP3    H221223   2.353   5.549   1.082  1.1619 -1.8400 -1.4897
 7087TIP3   OH221224   3.383   3.736   1.578  0.6151 -0.1501 -0.2916
 7087TIP3    H121225   3.432   3.702   1.653 -0.1788  1.3287  0.9498
 7087TIP3    H221226   3.449   3.758   1.513  1.5496  0.9458  0.9852
 7088TIP3   OH221227   7.015   2.977   0.346 -0.4265 -0.0149  0.0390
 7088TIP3    H121228   7.012   2.916   0.272  1.3970  1.1233 -1.0679
 7088TIP3    H221229   7.048   3.059   0.308 -0.4553  0.9280  1.9298
 7089TIP3   OH221230   7.165   6.144   3.019 -0.0181  0.1284 -0.2396
 7089TIP3    H121231   7.258   6.156   2.997  0.2149 -0.1402  0.5493
 7089TIP3    H221232   7.143   6.058   2.984  0.0415  0.1759 -0.3939
 7090TIP3   OH221233   6.055   2.461   3.952 -0.5195  0.3856  0.8140
 7090TIP3    H121234   5.972   2.460   3.999 -1.2708 -0.9244 -0.4939
 7090TIP3    H221235   6.103   2.385   3.986 -0.6211  0.0696  0.2659
 7091TIP3   OH221236   4.798   5.239   4.577 -0.6129 -0.2901 -0.0711
 7091TIP3    H121237   4.798   5.320   4.525 -2.6316  0.6973  1.3299
 7091TIP3    H221238   4.776   5.170   4.514 -2.3945  0.7900 -0.7152
 7092TIP3   OH221239   6.534   0.425   2.760  0.3196  0.2783  0.2673
 7092TIP3    H121240   6.619   0.381   2.750 -0.7570 -2.4679  1.9791
 7092TIP3    H221241   6.537   0.463   2.848 -0.8320 -1.5310  1.1517
 7093TIP3   OH221242   6.246   4.035   1.425 -0.7599  0.2756  0.2462
 7093TIP3    H121243   6.258   4.027   1.331 -0.6309  2.1290  0.0795
 7093TIP3    H221244   6.335   4.030   1.461 -0.7942 -0.2382  0.2777
 7094TIP3   OH221245   5.565   2.936   3.423 -0.2953 -0.0311  0.5000
 7094TIP3    H121246   5.624   2.883   3.369  0.2309  3.2917 -2.5114
 7094TIP3    H221247   5.487   2.948   3.368 -0.5716  1.8919  1.2352
 7095TIP3   OH221248   3.070   2.099   1.489  0.0959 -0.0637  0.5601
 7095TIP3    H121249   3.113   2.014   1.493  0.9784  0.3197 -0.4189
 7095TIP3    H221250   3.110   2.143   1.414 -0.5322  1.1116  0.8896
 7096TIP3   OH221251   6.996   4.399   0.683  0.6992  0.6116  0.1666
 7096TIP3    H121252   7.066   4.451   0.722  1.4325 -0.1669 -0.0736
 7096TIP3    H221253   6.981   4.439   0.597  0.5339  1.0434  0.3903
 7097TIP3   OH221254   3.495   2.306   4.972 -0.1975  0.4368 -0.0006
 7097TIP3    H121255   3.441   2.315   4.893  1.4033  1.2570 -1.0630
 7097TIP3    H221256   3.463   2.227   5.014 -2.5567  1.1612 -0.2870
 7098TIP3   OH221257   6.135   4.542   1.218  0.0128  0.5053  0.1660
 7098TIP3    H121258   6.098   4.581   1.298 -1.7279 -1.1428  0.2467
 7098TIP3    H221259   6.064   4.488   1.184  1.5438 -0.7221 -1.1806
 7099TIP3   OH221260   5.088   4.578   0.252 -0.0151  0.1767 -0.1325
 7099TIP3    H121261   5.038   4.519   0.308 -0.8966 -0.7750 -1.8349
 7099TIP3    H221262   5.139   4.520   0.196  0.5808  1.0827 -0.5463
 7100TIP3   OH221263   5.631   6.106   0.340  0.1850  0.4933 -0.1155
 7100TIP3    H121264   5.720   6.107   0.375  0.0543  1.9084  0.2104
 7100TIP3    H221265   5.580   6.157   0.402 -0.9952 -0.7857  0.0024
 7101TIP3   OH221266   3.570   6.147   1.570 -0.1152 -0.5255  0.3771
 7101TIP3    H121267   3.608   6.234   1.585  0.8614 -0.9130  0.2230
 7101TIP3    H221268   3.562   6.109   1.658 -0.4733 -0.3096  0.4384
 7102TIP3   OH221269   3.826   5.755   3.637 -1.0584  0.3922 -0.2432
 7102TIP3    H121270   3.842   5.829   3.696 -1.5688  1.6365 -1.5998
 7102TIP3    H221271   3.735   5.766   3.609 -0.9029 -0.3134 -1.0575
 7103TIP3   OH221272   3.416   4.419   1.104 -0.1332 -0.1461  0.0656
 7103TIP3    H121273   3.358   4.343   1.115 -0.6405  0.2168 -0.0801
 7103TIP3    H221274   3.454   4.432   1.191 -1.3339  0.4566  0.5275
 7104TIP3   OH221275   3.696   0.029   1.043 -0.8782 -0.4489 -0.1883
 7104TIP3    H121276   3.777   0.042   1.093 -0.1413 -1.2119 -1.1476
 7104TIP3    H221277   3.656  -0.049   1.082 -1.6767  0.4628  0.9103
 7105TIP3   OH221278   2.108   2.489   4.458  0.3659 -0.0100  0.6584
 7105TIP3    H121279   2.050   2.479   4.534 -3.1718 -0.0950 -1.7713
 7105TIP3    H221280   2.096   2.580   4.430  0.9756 -0.1814 -0.2213
 7106TIP3   OH221281   6.079   2.565   0.120 -0.5700  0.7252 -0.3598
 7106TIP3    H121282   6.027   2.641   0.096 -1.5939  0.2035  0.1151
 7106TIP3    H221283   6.014   2.499   0.145  0.3467  0.5056  1.6261
 7107TIP3   OH221284   7.075   3.062   1.790  0.6603 -0.8688  0.0131
 7107TIP3    H121285   7.123   3.144   1.802 -0.1259 -0.5857  1.5571
 7107TIP3    H221286   7.142   2.996   1.778  1.3740 -0.2208  0.3309
 7108TIP3   OH221287   7.175   0.241   2.297  0.3668  0.1637 -0.2056
 7108TIP3    H121288   7.211   0.312   2.243  0.0991  0.9438  0.6100
 7108TIP3    H221289   7.161   0.281   2.383 -1.3633 -0.4006 -0.1737
 7109TIP3   OH221290   6.774   4.304   5.805  0.0713  0.3675  0.1436
 7109TIP3    H121291   6.741   4.383   5.848 -0.8190  0.3661 -0.5265
 7109TIP3    H221292   6.838   4.336   5.742 -1.1457  0.6760 -0.9675
 7110TIP3   OH221293   2.377   3.158   1.644  0.0354 -0.2869  0.7403
 7110TIP3    H121294   2.465   3.132   1.617 -0.8419 -0.8142 -1.8891
 7110TIP3    H221295   2.373   3.252   1.626  0.0016 -0.3016  0.6702
 7111TIP3   OH221296   6.968   4.558   2.909  0.6524  0.6108  0.0100
 7111TIP3    H121297   6.969   4.650   2.884 -1.7386  0.7748  0.2711
 7111TIP3    H221298   6.956   4.558   3.004 -2.5135  0.1556 -0.2786
 7112TIP3   OH221299   5.516   1.089   2.569 -0.0068  0.4616  1.1572
 7112TIP3    H121300   5.456   1.144   2.518 -0.7383  0.2469  1.7728
 7112TIP3    H221301   5.603   1.119   2.544 -0.2059 -1.1586 -1.9904
 7113TIP3   OH221302   4.439   6.494   0.338 -0.0096 -0.4929  0.4272
 7113TIP3    H121303   4.418   6.525   0.427 -1.1640  0.6714 -0.2138
 7113TIP3    H221304   4.412   6.566   0.281  1.8314 -0.7227 -0.8068
 7114TIP3   OH221305   3.089   1.061   4.180  0.2597 -0.5028 -0.4180
 7114TIP3    H121306   3.108   0.974   4.215  1.5856 -0.2362 -0.4531
 7114TIP3    H221307   3.128   1.122   4.243 -1.2174  0.1106 -0.0420
 7115TIP3   OH221308   1.460   0.998   5.669  0.0934  0.0665  0.2864
 7115TIP3    H121309   1.481   1.085   5.703 -0.9444  0.4778 -0.0571
 7115TIP3    H221310   1.429   0.949   5.745 -2.7013  1.1389 -0.0366
 7116TIP3   OH221311   2.341   1.501   1.374  0.4398 -0.0531  0.1798
 7116TIP3    H121312   2.421   1.476   1.329  1.9622  1.3607  1.9421
 7116TIP3    H221313   2.344   1.596   1.379 -0.0562 -0.0977  2.4552
 7117TIP3   OH221314   3.861   1.392   1.293  0.0127 -0.2823 -0.0930
 7117TIP3    H121315   3.908   1.352   1.365 -2.3252 -3.3175 -0.0500
 7117TIP3    H221316   3.851   1.322   1.228 -0.4178  1.5461 -2.1366
 7118TIP3   OH221317   5.192   5.046   4.943 -0.1189 -0.7440  0.6873
 7118TIP3    H121318   5.220   5.131   4.978  1.5202 -1.0955  0.3438
 7118TIP3    H221319   5.140   5.068   4.866 -0.9827 -0.0421  1.4479
 7119TIP3   OH221320   2.774   5.728   3.842  0.0205  0.0961  0.4005
 7119TIP3    H121321   2.799   5.636   3.846  1.4560  0.3830 -0.8533
 7119TIP3    H221322   2.854   5.776   3.861 -0.5044  1.0869  0.2225
 7120TIP3   OH221323   2.031   0.957   5.657 -0.8106 -0.9725  0.7094
 7120TIP3    H121324   1.937   0.969   5.667 -0.8385 -0.7758  0.2194
 7120TIP3    H221325   2.043   0.933   5.565 -0.1000  2.0412 -0.0739
 7121TIP3   OH221326   5.473   1.632   2.006  0.5774 -0.6147  0.4545
 7121TIP3    H121327   5.451   1.569   1.937  0.8096  1.1062 -1.2649
 7121TIP3    H221328   5.469   1.717   1.963 -1.5185  0.7895  3.1241
 7122TIP3   OH221329   4.664   6.722   3.163  0.1602 -0.4389 -0.2526
 7122TIP3    H121330   4.720   6.689   3.093  2.4129  0.6739  0.9267
 7122TIP3    H221331   4.694   6.811   3.179 -0.2316 -0.6687  2.1499
 7123TIP3   OH221332   2.266   0.450   0.882  0.5571  0.0941  0.2566
 7123TIP3    H121333   2.302   0.497   0.957  0.4560 -0.0519  0.3962
 7123TIP3    H221334   2.273   0.358   0.906  1.0828  0.0134 -0.1564
 7124TIP3   OH221335   2.198   0.809   3.277  0.1512 -0.3086 -0.0263
 7124TIP3    H121336   2.159   0.728   3.310  0.5130 -0.3697  0.2606
 7124TIP3    H221337   2.131   0.876   3.290  0.0614 -0.4536  0.2546
 7125TIP3   OH221338   3.683   4.129   4.041 -0.1363  0.1389  0.2380
 7125TIP3    H121339   3.717   4.173   3.963 -2.5477  0.2274 -0.8367
 7125TIP3    H221340   3.619   4.190   4.077  0.6903 -0.0454  2.1477
 7126TIP3   OH221341   5.712   2.096   1.033  0.1328  0.1236 -0.2114
 7126TIP3    H121342   5.682   2.031   0.969 -0.7270 -0.0280  0.3320
 7126TIP3    H221343   5.783   2.052   1.080  1.7655  0.7262 -1.9646
 7127TIP3   OH221344   4.872   4.117   3.836 -0.5239  0.5936 -0.1825
 7127TIP3    H121345   4.850   4.034   3.878  2.8801  0.6778  2.1762
 7127TIP3    H221346   4.906   4.092   3.750 -0.2290 -0.4158  0.2144
 7128TIP3   OH221347   6.375   4.376   2.794  0.1156 -0.4727 -0.2825
 7128TIP3    H121348   6.402   4.294   2.834  1.3048  0.0345 -0.0083
 7128TIP3    H221349   6.422   4.380   2.711 -0.0387 -0.1373 -0.3571
 7129TIP3   OH221350   1.224   5.690   2.990  0.0241 -0.1109  0.1117
 7129TIP3    H121351   1.198   5.782   2.988 -0.9424 -0.3421  1.2071
 7129TIP3    H221352   1.252   5.674   3.081 -0.1117 -0.9738  0.0134
 7130TIP3   OH221353   3.401   0.783   4.733 -0.3190  0.0008 -0.1010
 7130TIP3    H121354   3.466   0.773   4.663  0.9825  0.7097  0.9509
 7130TIP3    H221355   3.413   0.706   4.789 -0.5501  0.0088 -0.0390
 7131TIP3   OH221356   6.447   0.726   1.868  0.4364 -0.3964 -0.1631
 7131TIP3    H121357   6.357   0.695   1.880 -0.1312  0.3831 -2.1170
 7131TIP3    H221358   6.443   0.820   1.886  1.1421 -0.5463  0.9093
 7132TIP3   OH221359   4.666   0.901   3.892 -0.5361 -0.6610 -0.2171
 7132TIP3    H121360   4.722   0.909   3.969 -0.2568 -1.2123 -0.3599
 7132TIP3    H221361   4.645   0.992   3.869  1.8810 -0.2964 -1.3216
 7133TIP3   OH221362   0.706   3.800   5.066  0.1700  0.2964  0.0306
 7133TIP3    H121363   0.745   3.880   5.100 -0.9648  0.6631  0.5105
 7133TIP3    H221364   0.694   3.744   5.143 -0.3745  0.2515 -0.0791
 7134TIP3   OH221365   3.186   2.087   2.434 -0.2087 -0.3180 -0.3107
 7134TIP3    H121366   3.138   2.117   2.357 -1.8951  2.2677  1.5886
 7134TIP3    H221367   3.122   2.038   2.485  0.8396 -1.8361 -0.3752
 7135TIP3   OH221368   4.952   6.607   5.618  0.3709 -0.5232  0.4561
 7135TIP3    H121369   4.872   6.586   5.666  0.1111  1.6065  1.0646
 7135TIP3    H221370   5.007   6.654   5.681 -0.0299  2.4622 -1.2152
 7136TIP3   OH221371   5.538   4.422   3.622 -0.1780  0.3883  0.3169
 7136TIP3    H121372   5.507   4.349   3.568  0.0430  1.4581 -1.3263
 7136TIP3    H221373   5.629   4.400   3.641 -0.1843  0.1139  0.0460
 7137TIP3   OH221374   0.751   1.725   0.324 -0.1365 -0.8053  0.2523
 7137TIP3    H121375   0.786   1.728   0.235  1.0921  1.3320  0.7239
 7137TIP3    H221376   0.780   1.808   0.363 -0.6270 -1.6960  2.6496
 7138TIP3   OH221377   4.883   4.341   0.076  0.0441  0.0566  0.1347
 7138TIP3    H121378   4.876   4.381   0.163 -0.0875 -0.1085  0.1990
 7138TIP3    H221379   4.977   4.329   0.063  0.0019 -0.9714  0.7278
 7139TIP3   OH221380   1.522   6.115   1.666 -0.5819 -0.2042  0.0400
 7139TIP3    H121381   1.606   6.119   1.712 -0.7198  1.4530  0.2054
 7139TIP3    H221382   1.541   6.067   1.585  0.9012  1.4063 -0.6280
 7140TIP3   OH221383   0.892   3.554   0.403 -0.1652  0.3453  0.2680
 7140TIP3    H121384   0.918   3.646   0.408 -2.0184  0.9838 -0.7758
 7140TIP3    H221385   0.802   3.553   0.436 -1.2085 -0.5679 -2.3575
 7141TIP3   OH221386   6.243   6.132   5.195  0.1045 -0.3418 -0.4746
 7141TIP3    H121387   6.317   6.073   5.183  1.1412  0.8006  0.0304
 7141TIP3    H221388   6.226   6.166   5.108  0.2143 -0.5708 -0.5873
 7142TIP3   OH221389   2.380   5.298   0.168  0.2624 -0.5533  0.0992
 7142TIP3    H121390   2.308   5.246   0.204 -1.0952  0.1289 -1.4887
 7142TIP3    H221391   2.436   5.316   0.243 -0.4284 -2.3604  1.1123
 7143TIP3   OH221392   6.213   3.546   1.772 -0.0375  0.5715  0.4463
 7143TIP3    H121393   6.192   3.472   1.715  0.0223  1.4854 -0.8000
 7143TIP3    H221394   6.196   3.513   1.860 -2.4252 -0.1439 -0.2033
 7144TIP3   OH221395   2.589   6.116   5.857 -0.3428 -0.7476 -0.0413
 7144TIP3    H121396   2.584   6.064   5.937 -0.9596 -0.2740  0.2382
 7144TIP3    H221397   2.641   6.193   5.881 -1.6601  0.0619  0.2963
 7145TIP3   OH221398   5.570   3.274   4.250  0.7067  0.0026  0.1781
 7145TIP3    H121399   5.565   3.179   4.248  3.0991 -0.1467 -1.9031
 7145TIP3    H221400   5.652   3.293   4.295 -0.0392  1.1572  1.1282
 7146TIP3   OH221401   6.872   4.655   1.218  0.3903  0.2080  0.4944
 7146TIP3    H121402   6.947   4.702   1.256 -0.9974  2.2371  0.9132
 7146TIP3    H221403   6.847   4.708   1.142 -0.6843 -0.3791  0.4269
 7147TIP3   OH221404   2.204   6.024   5.117  0.1204 -0.0028 -0.1075
 7147TIP3    H121405   2.189   6.050   5.026  0.2364  0.9581  0.1368
 7147TIP3    H221406   2.192   5.929   5.117  2.4286 -0.3959 -1.6163
 7148TIP3   OH221407   6.115   0.943   0.478  0.6584 -0.4286  0.5625
 7148TIP3    H121408   6.202   0.981   0.464  0.9530 -0.7074  1.5730
 7148TIP3    H221409   6.071   1.006   0.536 -0.1215  0.1261 -0.5945
 7149TIP3   OH221410   6.196   4.817   3.944  0.0790 -0.2301 -0.3247
 7149TIP3    H121411   6.247   4.837   3.866  0.4473 -1.4180 -0.4008
 7149TIP3    H221412   6.105   4.825   3.915  0.2146 -0.0265 -0.7034
 7150TIP3   OH221413   4.709   3.207   1.136  0.3503  0.5379  0.1985
 7150TIP3    H121414   4.681   3.255   1.214 -1.3305  1.8444 -1.1373
 7150TIP3    H221415   4.803   3.193   1.149 -0.1654 -0.9453  3.2878
 7151TIP3   OH221416   2.430   5.185   1.746  0.2146 -0.1453  0.4032
 7151TIP3    H121417   2.390   5.136   1.818 -1.1425 -1.1922 -1.0079
 7151TIP3    H221418   2.446   5.120   1.678  0.0492  1.0679 -0.8390
 7152TIP3   OH221419   5.900   1.009   0.300  0.3058  0.1447  0.3184
 7152TIP3    H121420   5.970   0.974   0.354 -0.8095 -2.3652  0.2609
 7152TIP3    H221421   5.928   0.992   0.210  0.1048  0.1238  0.2592
 7153TIP3   OH221422   7.091   0.065   1.652 -0.1568 -0.3249 -0.4598
 7153TIP3    H121423   7.065  -0.022   1.623 -1.0522 -0.2030 -0.0531
 7153TIP3    H221424   7.063   0.124   1.582 -4.1653  0.2239  1.3371
 7154TIP3   OH221425   4.275   0.690   4.173  0.6296 -0.6035  0.5272
 7154TIP3    H121426   4.291   0.651   4.087 -2.1465  2.8189 -1.8378
 7154TIP3    H221427   4.183   0.670   4.191  0.1713  1.6024  0.9253
 7155TIP3   OH221428   6.890   0.098   5.763 -0.2481 -0.1990  0.2748
 7155TIP3    H121429   6.803   0.059   5.775  0.0577 -0.4484  1.9350
 7155TIP3    H221430   6.950   0.024   5.771  0.1453  0.0668 -0.2319
 7156TIP3   OH221431   5.708   5.654   2.102  0.4105  0.4329  0.3268
 7156TIP3    H121432   5.623   5.691   2.126  0.6569  0.3717  1.3119
 7156TIP3    H221433   5.760   5.730   2.075  0.0427  0.4679 -0.3040
 7157TIP3   OH221434   3.013   1.075   3.409  0.3604  0.2584  0.0699
 7157TIP3    H121435   3.040   1.167   3.414 -2.0138  1.2060 -2.0787
 7157TIP3    H221436   3.060   1.040   3.334 -0.0199  0.2600 -0.1748
 7158TIP3   OH221437   3.894   3.726   4.699  0.0994  0.4658  1.1217
 7158TIP3    H121438   3.866   3.743   4.609 -1.9991 -2.5826  1.0328
 7158TIP3    H221439   3.868   3.805   4.747 -3.2802  0.3050 -0.1569
 7159TIP3   OH221440   4.486   1.790   3.326  0.4418 -0.0213 -0.4315
 7159TIP3    H121441   4.572   1.779   3.365  1.0100 -0.2748 -1.7263
 7159TIP3    H221442   4.430   1.819   3.399  1.2596 -1.3057  0.7555
 7160TIP3   OH221443   3.888   1.020   3.689 -0.5781 -0.1499  0.0167
 7160TIP3    H121444   3.828   1.093   3.672 -0.0066  0.6020  1.1348
 7160TIP3    H221445   3.881   0.965   3.611 -1.6547  0.6574 -0.4808
 7161TIP3   OH221446   2.440   4.250   2.977 -0.3864  0.0728 -0.5795
 7161TIP3    H121447   2.485   4.304   3.042 -2.9054 -0.1546  1.5306
 7161TIP3    H221448   2.510   4.206   2.929  1.6267  1.8234  0.5928
 7162TIP3   OH221449   4.013   4.482   5.877 -0.6040 -0.8734 -0.4191
 7162TIP3    H121450   4.009   4.577   5.881 -0.2184 -0.8561 -0.3579
 7162TIP3    H221451   3.930   4.452   5.913  0.5843 -0.6213  2.7995
 7163TIP3   OH221452   0.673   5.650   5.090  0.2504  0.3085  0.0673
 7163TIP3    H121453   0.693   5.730   5.139 -0.2349 -0.7708  2.1335
 7163TIP3    H221454   0.594   5.671   5.040 -0.2964  0.9224  1.1527
 7164TIP3   OH221455   3.959   3.496   3.735 -0.4137 -0.1118 -0.3675
 7164TIP3    H121456   3.915   3.499   3.820 -1.7477 -1.0495 -0.9887
 7164TIP3    H221457   3.984   3.404   3.724  1.2144  0.2978 -0.3011
 7165TIP3   OH221458   6.400   6.821   5.465  0.1727  0.1508 -0.6392
 7165TIP3    H121459   6.395   6.728   5.442 -0.7151 -0.5970  2.1577
 7165TIP3    H221460   6.314   6.856   5.441 -0.0718 -0.1655 -0.2486
 7166TIP3   OH221461   4.767   4.422   1.745  0.3030  0.3017  0.4736
 7166TIP3    H121462   4.768   4.327   1.744 -0.7573  0.2777  0.3784
 7166TIP3    H221463   4.847   4.447   1.791  0.7639 -0.6209  0.1904
 7167TIP3   OH221464   1.561   1.805   4.774 -0.0230 -0.0041  0.0534
 7167TIP3    H121465   1.521   1.863   4.710  1.9048  3.4198  1.6435
 7167TIP3    H221466   1.490   1.781   4.833 -0.8636  0.8842 -0.5673
 7168TIP3   OH221467   0.159   1.367   5.404  0.1228 -0.1592 -0.2932
 7168TIP3    H121468   0.129   1.336   5.490 -0.3940 -2.1648 -1.1383
 7168TIP3    H221469   0.132   1.459   5.401 -0.6227 -0.2830  1.3312
 7169TIP3   OH221470   4.381   3.672   2.851  0.1417 -0.3397  0.4245
 7169TIP3    H121471   4.375   3.577   2.843 -0.7888 -0.3975  1.5410
 7169TIP3    H221472   4.292   3.703   2.837  0.3810  0.3404  0.3962
 7170TIP3   OH221473   3.052   0.545   1.825  0.0305  0.3974 -0.4329
 7170TIP3    H121474   3.062   0.457   1.861  1.6264  0.8178  0.2485
 7170TIP3    H221475   3.117   0.549   1.754  1.1708  1.5202  0.6089
 7171TIP3   OH221476   3.941   2.717   3.022  0.2935 -0.4375 -0.2170
 7171TIP3    H121477   3.869   2.703   2.962  0.1179 -0.4224 -0.0093
 7171TIP3    H221478   4.018   2.681   2.977  0.2671  0.0991 -0.6936
 7172TIP3   OH221479   5.958   2.167   1.735 -0.1148 -0.0619  0.1103
 7172TIP3    H121480   5.942   2.249   1.781  0.8250  0.6953 -0.8491
 7172TIP3    H221481   5.904   2.173   1.656  0.5523  0.0099 -0.3539
 7173TIP3   OH221482   0.427   3.620   4.382  0.7506 -0.2605 -0.0486
 7173TIP3    H121483   0.436   3.698   4.436  1.1159  0.1726 -0.7276
 7173TIP3    H221484   0.408   3.652   4.294  1.1136 -0.9189 -0.3805
 7174TIP3   OH221485   2.362   0.141   4.357 -0.6854  0.0178  0.2582
 7174TIP3    H121486   2.412   0.215   4.321 -0.6546 -0.0424  0.1770
 7174TIP3    H221487   2.409   0.118   4.437  1.0101 -1.7496 -1.1476
 7175TIP3   OH221488   3.708   0.690   5.888  0.4670  0.1209  0.1856
 7175TIP3    H121489   3.756   0.617   5.927  0.3890 -0.4531 -0.7752
 7175TIP3    H221490   3.619   0.657   5.876  0.6697  0.0206 -1.1597
 7176TIP3   OH221491   5.200   6.727   2.512 -0.4508  0.1256  0.1256
 7176TIP3    H121492   5.265   6.775   2.562 -0.7157 -0.8741  1.5035
 7176TIP3    H221493   5.244   6.646   2.486 -1.0379 -0.4316  0.8235
 7177TIP3   OH221494   1.357   0.828   5.902 -0.6747 -0.3015  0.0394
 7177TIP3    H121495   1.405   0.752   5.869  0.6945  0.3729  0.3959
 7177TIP3    H221496   1.269   0.795   5.921 -0.0261 -1.8667  0.4624
 7178TIP3   OH221497   3.590   4.799   0.868 -0.1091 -0.1259 -0.1335
 7178TIP3    H121498   3.515   4.848   0.833 -0.7448  0.4158  1.8616
 7178TIP3    H221499   3.566   4.780   0.959  1.7343 -0.8860  0.2403
 7179TIP3   OH221500   0.840   3.041   1.835 -0.2189 -0.1305 -0.2231
 7179TIP3    H121501   0.892   3.086   1.902  0.2014 -0.3211 -0.4194
 7179TIP3    H221502   0.874   2.952   1.835 -1.1501 -0.4971  0.2695
 7180TIP3   OH221503   3.541   2.938   0.414 -0.1000 -0.3334 -0.0675
 7180TIP3    H121504   3.570   2.915   0.502  1.0222 -1.4715 -0.7012
 7180TIP3    H221505   3.621   2.968   0.370 -0.5791 -0.1146 -0.8066
 7181TIP3   OH221506   3.572   3.341   5.190  0.1558 -0.7566 -0.1815
 7181TIP3    H121507   3.565   3.431   5.157 -0.8918 -0.3661  1.0303
 7181TIP3    H221508   3.666   3.322   5.189  0.4694  0.6417  0.2618
 7182TIP3   OH221509   5.668   1.587   1.181 -0.2923 -0.4570 -0.2167
 7182TIP3    H121510   5.724   1.649   1.228 -1.5091 -0.4204  1.2924
 7182TIP3    H221511   5.625   1.640   1.114 -0.4560  0.0881  0.3060
 7183TIP3   OH221512   1.088   5.643   2.756 -0.2290  0.3456 -0.2162
 7183TIP3    H121513   1.154   5.637   2.825  0.8761 -0.7881 -1.3228
 7183TIP3    H221514   1.138   5.655   2.675 -1.2869 -1.2986 -1.1794
 7184TIP3   OH221515   1.358   1.743   1.407 -0.2072 -0.0165 -0.2492
 7184TIP3    H121516   1.425   1.802   1.374  0.7323  0.9473  3.0469
 7184TIP3    H221517   1.375   1.660   1.362  0.8843  1.1502 -2.1139
 7185TIP3   OH221518   3.386   2.334   4.476 -0.5091  0.0725  0.3628
 7185TIP3    H121519   3.301   2.346   4.435 -0.3422  0.3863  0.1030
 7185TIP3    H221520   3.385   2.244   4.508  0.4468 -1.2446 -2.9371
 7186TIP3   OH221521   5.199   4.720   1.529 -0.5553  0.7566 -0.2963
 7186TIP3    H121522   5.175   4.717   1.622  0.4112  2.1739  0.0395
 7186TIP3    H221523   5.116   4.712   1.483 -0.9502 -1.0967  0.6350
 7187TIP3   OH221524   3.999   4.573   2.205  0.0862  0.0236  0.7022
 7187TIP3    H121525   4.011   4.483   2.176  0.4975  0.6167 -1.0199
 7187TIP3    H221526   4.080   4.617   2.184  0.1429  0.6828  2.1433
 7188TIP3   OH221527   5.331   5.370   0.260 -0.2312  0.3070  0.3230
 7188TIP3    H121528   5.361   5.351   0.348 -0.1147  1.2382  0.4923
 7188TIP3    H221529   5.360   5.460   0.243  4.5437 -1.4209 -2.6461
 7189TIP3   OH221530   7.174   5.843   5.786 -0.2796  0.4165  0.2769
 7189TIP3    H121531   7.216   5.806   5.708 -2.8432 -0.5840 -0.7352
 7189TIP3    H221532   7.224   5.807   5.859  0.7515 -0.5098 -0.8329
 7190TIP3   OH221533   1.072   2.399   0.895  0.7816  0.0269 -0.0138
 7190TIP3    H121534   1.042   2.400   0.986  0.6481 -3.4060  0.1081
 7190TIP3    H221535   0.993   2.380   0.844  1.2117 -0.1792 -0.6154
 7191TIP3   OH221536   3.382   1.208   2.529 -0.2726  0.1768 -0.9031
 7191TIP3    H121537   3.464   1.259   2.524  0.4685 -0.9979 -1.0480
 7191TIP3    H221538   3.331   1.238   2.454  0.4183  0.2725 -1.3461
 7192TIP3   OH221539   3.687   6.711   0.069 -0.2114 -0.2586  0.5250
 7192TIP3    H121540   3.620   6.692   0.134 -0.0820 -0.5108  0.5843
 7192TIP3    H221541   3.742   6.633   0.068 -0.3667 -0.3606 -0.0794
 7193TIP3   OH221542   5.098   3.453   4.514  0.1011  0.1061  0.4168
 7193TIP3    H121543   5.161   3.428   4.447  0.8377  1.4397  0.5697
 7193TIP3    H221544   5.035   3.381   4.517  0.0586 -0.0070 -1.6830
 7194TIP3   OH221545   1.689   5.590   2.561  0.1483  0.0596  0.3219
 7194TIP3    H121546   1.689   5.568   2.654  2.6415 -1.1540  0.1083
 7194TIP3    H221547   1.624   5.530   2.523 -1.5031  1.1297  1.3267
 7195TIP3   OH221548   6.686   5.970   0.355  0.0267 -0.1662  0.6084
 7195TIP3    H121549   6.699   6.002   0.444 -0.0126  0.0497  0.5355
 7195TIP3    H221550   6.774   5.956   0.320  0.0515  0.3758  0.4514
 7196TIP3   OH221551   2.689   6.562   1.256  0.4993  0.2222 -0.2734
 7196TIP3    H121552   2.783   6.561   1.235  0.4536  0.4307 -0.5010
 7196TIP3    H221553   2.680   6.634   1.319  0.4889  0.2174 -0.2696
 7197TIP3   OH221554   2.658   2.021   5.020  0.7885 -0.9852 -0.1534
 7197TIP3    H121555   2.602   1.950   5.051  1.2150 -0.5241  1.8261
 7197TIP3    H221556   2.726   2.028   5.087  1.5592  0.3706 -1.0382
 7198TIP3   OH221557   2.675   4.008   0.395 -0.0078 -0.0820 -0.0461
 7198TIP3    H121558   2.738   3.936   0.403 -0.0486 -0.1857 -0.6044
 7198TIP3    H221559   2.702   4.071   0.463 -0.1489 -0.7480  0.6356
 7199TIP3   OH221560   2.454   3.356   4.065  0.3641 -0.2359 -0.5415
 7199TIP3    H121561   2.465   3.364   3.970 -0.4786  1.0668 -0.5553
 7199TIP3    H221562   2.505   3.280   4.089  0.7734 -0.4492 -2.0203
 7200TIP3   OH221563   4.155   0.430   3.880  0.7327 -0.1875 -0.1167
 7200TIP3    H121564   4.071   0.475   3.873  1.7134  1.5972 -1.1987
 7200TIP3    H221565   4.151   0.360   3.816 -1.1918 -2.4429  2.2572
 7201TIP3   OH221566   5.014   4.453   2.701 -0.2476 -0.4156 -0.0262
 7201TIP3    H121567   5.076   4.401   2.753 -0.5349 -1.2902 -0.5446
 7201TIP3    H221568   5.066   4.485   2.627 -0.4800 -1.4161 -0.6328
 7202TIP3   OH221569   6.364   5.256   3.434 -0.1846  0.4181  0.4932
 7202TIP3    H121570   6.440   5.209   3.401 -0.6281 -0.1965  0.3297
 7202TIP3    H221571   6.374   5.344   3.399  0.6182  0.4388  0.7422
 7203TIP3   OH221572   3.205   5.660   2.275 -0.4023 -0.2680 -0.4414
 7203TIP3    H121573   3.227   5.672   2.368  1.5207 -3.7895 -0.2743
 7203TIP3    H221574   3.124   5.609   2.277 -1.4608  1.3187 -0.8260
 7204TIP3   OH221575   2.107   0.067   0.326 -0.5779 -0.0041  0.0635
 7204TIP3    H121576   2.014   0.059   0.350  0.0305  0.2241  2.8670
 7204TIP3    H221577   2.154   0.032   0.402  1.6692 -1.7526 -1.9897
 7205TIP3   OH221578   2.645   5.787   4.377  0.0024  0.4065  0.0238
 7205TIP3    H121579   2.711   5.840   4.332 -1.6170  1.8439 -0.7640
 7205TIP3    H221580   2.657   5.699   4.342  1.4103  0.6588 -0.1786
 7206TIP3   OH221581   3.742   0.013   2.412  0.0126 -0.3256  0.2290
 7206TIP3    H121582   3.767  -0.064   2.463  2.5557  0.6364  0.5865
 7206TIP3    H221583   3.789   0.086   2.454  0.8037  0.7718 -2.3688
 7207TIP3   OH221584   0.987   1.957   0.307 -0.0985  0.8628 -0.5703
 7207TIP3    H121585   1.055   1.977   0.372 -0.1993 -0.1614 -0.1253
 7207TIP3    H221586   0.950   2.042   0.283  1.5758  1.4910 -1.0907
 7208TIP3   OH221587   3.101   0.829   0.919  0.2379  0.3845 -0.2439
 7208TIP3    H121588   3.113   0.859   0.828  0.6438  0.7252 -0.0812
 7208TIP3    H221589   3.162   0.757   0.929  1.2425  1.2761  0.1890
 7209TIP3   OH221590   5.216   1.479   1.209 -0.8778  0.1866 -0.1847
 7209TIP3    H121591   5.268   1.487   1.289 -1.8728  1.5855  0.3530
 7209TIP3    H221592   5.235   1.559   1.160 -1.2680 -0.0615 -0.7493
 7210TIP3   OH221593   3.401   1.295   3.730 -0.2851  0.2420  0.2683
 7210TIP3    H121594   3.442   1.381   3.738  0.6133 -0.0025 -1.3191
 7210TIP3    H221595   3.363   1.279   3.816  0.6848  1.6439  1.0044
 7211TIP3   OH221596   3.515   3.458   3.530 -0.1648 -0.5000 -0.3133
 7211TIP3    H121597   3.523   3.474   3.624 -0.3477 -1.1739 -0.1847
 7211TIP3    H221598   3.510   3.546   3.492 -0.3293 -0.2289  0.3208
 7212TIP3   OH221599   3.512   0.090   3.023  0.0546  0.0014 -0.0061
 7212TIP3    H121600   3.542   0.169   3.067  0.1841  0.9358 -1.6996
 7212TIP3    H221601   3.472   0.037   3.093  1.9117  0.5476  1.5541
 7213TIP3   OH221602   2.445   4.524   0.989 -0.0401 -0.3422  0.1167
 7213TIP3    H121603   2.399   4.551   0.910  0.0207  1.6123  0.7055
 7213TIP3    H221604   2.395   4.562   1.061  0.4889 -1.2115  0.9781
 7214TIP3   OH221605   1.479   0.576   5.811 -0.0616 -0.1308  0.0353
 7214TIP3    H121606   1.574   0.564   5.811 -0.0431 -0.1004 -1.0471
 7214TIP3    H221607   1.443   0.490   5.792 -0.1562  0.2343 -1.5874
 7215TIP3   OH221608   1.946   0.463   3.021 -0.1421  0.2735 -0.1413
 7215TIP3    H121609   1.963   0.511   2.940  0.4063  0.6369  0.1795
 7215TIP3    H221610   2.014   0.395   3.023 -1.7638 -1.5069 -1.3134
 7216TIP3   OH221611   0.922   4.348   5.146  0.1136  0.2383  0.2921
 7216TIP3    H121612   0.989   4.294   5.104 -0.6665  0.3383 -1.1675
 7216TIP3    H221613   0.928   4.432   5.101 -1.2824  0.0950 -0.2121
 7217TIP3   OH221614   3.409   1.160   2.788  0.5200  0.2247  0.1872
 7217TIP3    H121615   3.396   1.172   2.694 -3.0445  0.5489  0.5672
 7217TIP3    H221616   3.474   1.091   2.794  1.5175  0.7909 -2.4766
 7218TIP3   OH221617   1.944   2.304   2.294 -0.6023 -0.6904 -0.5900
 7218TIP3    H121618   1.918   2.237   2.358 -0.2417 -0.0042  0.2988
 7218TIP3    H221619   1.887   2.288   2.218 -3.7675  0.7479  1.2543
 7219TIP3   OH221620   4.185   5.443   2.196 -0.0381  0.1671  0.1166
 7219TIP3    H121621   4.191   5.474   2.286  1.5003 -1.5969  0.6855
 7219TIP3    H221622   4.112   5.493   2.158 -0.1818  1.5524  2.0570
 7220TIP3   OH221623   3.915   3.833   1.924  0.2717  0.0149 -0.5217
 7220TIP3    H121624   3.833   3.827   1.972  1.1838  0.0152  1.0997
 7220TIP3    H221625   3.978   3.787   1.979  1.2676 -0.4097 -1.9698
 7221TIP3   OH221626   1.258   5.442   3.828 -0.1566  0.2891 -0.5712
 7221TIP3    H121627   1.318   5.510   3.858 -0.8018  0.9403 -0.7251
 7221TIP3    H221628   1.313   5.381   3.779  0.2892  1.1785 -1.2066
 7222TIP3   OH221629   4.651   6.320   0.362  0.2502  0.7604  0.4854
 7222TIP3    H121630   4.672   6.270   0.283  0.4476  0.3390  0.7976
 7222TIP3    H221631   4.569   6.365   0.341  0.6324  1.1579 -0.1828
 7223TIP3   OH221632   4.649   4.128   4.942  0.3115 -0.1769  0.3267
 7223TIP3    H121633   4.577   4.101   4.999  1.0577  0.1820  1.4822
 7223TIP3    H221634   4.703   4.050   4.933  0.0152 -0.3252 -0.1711
 7224TIP3   OH221635   5.584   2.739   4.307  0.2277  0.1117  0.5345
 7224TIP3    H121636   5.642   2.693   4.367  0.5192 -1.3421 -0.7810
 7224TIP3    H221637   5.497   2.703   4.325  0.2826 -0.1687  0.2616
 7225TIP3   OH221638   0.592   6.381   1.948 -0.2996  0.2281 -0.7585
 7225TIP3    H121639   0.501   6.363   1.975  0.2801 -0.8644  0.5890
 7225TIP3    H221640   0.585   6.405   1.855 -2.0874  1.3807 -0.3681
 7226TIP3   OH221641   0.453   3.565   0.704 -0.6496  0.2694  0.0814
 7226TIP3    H121642   0.500   3.596   0.627 -0.5266  0.6131  0.2922
 7226TIP3    H221643   0.428   3.475   0.682 -0.7652  0.4168 -0.4280
 7227TIP3   OH221644   0.922   5.558   3.786 -0.5946 -0.6969 -0.0234
 7227TIP3    H121645   1.013   5.587   3.781 -1.2171  1.4351 -0.1732
 7227TIP3    H221646   0.903   5.523   3.699 -0.4545  0.7424 -0.6653
 7228TIP3   OH221647   5.233   0.148   5.486 -0.2663  0.2298 -0.3288
 7228TIP3    H121648   5.255   0.057   5.504 -1.3125  0.1244  0.4468
 7228TIP3    H221649   5.138   0.149   5.477 -0.1957  1.1104 -1.1568
 7229TIP3   OH221650   5.538   5.033   0.092 -0.3015 -0.1779  0.2856
 7229TIP3    H121651   5.477   4.959   0.089  0.4186 -0.7613 -0.5717
 7229TIP3    H221652   5.625   4.994   0.086  0.1133  0.7134  0.2363
 7230TIP3   OH221653   4.249   1.741   1.258 -0.0719  0.1251  0.0033
 7230TIP3    H121654   4.325   1.786   1.221 -0.5360  0.8866 -0.0641
 7230TIP3    H221655   4.272   1.649   1.257  0.2515  0.1911 -1.4616
 7231TIP3   OH221656   4.025   0.354   4.160 -0.2754 -0.3361  0.0668
 7231TIP3    H121657   4.072   0.347   4.077  0.0412 -0.8749  0.2822
 7231TIP3    H221658   3.933   0.342   4.136 -0.0541 -2.0900 -0.0322
 7232TIP3   OH221659   6.622   3.462   5.794  0.5646 -0.5230  0.3613
 7232TIP3    H121660   6.556   3.527   5.769  1.5741  0.6898  0.7610
 7232TIP3    H221661   6.579   3.378   5.779 -0.9773  0.2247  0.3495
 7233TIP3   OH221662   1.476   1.359   2.188 -0.4073 -0.1317 -0.0754
 7233TIP3    H121663   1.486   1.442   2.141 -0.6250 -0.1781 -0.2037
 7233TIP3    H221664   1.508   1.292   2.127 -0.6945 -0.1921 -0.1621
 7234TIP3   OH221665   1.882   1.168   3.488  0.1990  0.2199  0.2358
 7234TIP3    H121666   1.807   1.223   3.465 -1.1877 -0.4691  2.8186
 7234TIP3    H221667   1.925   1.214   3.560  0.2371 -1.0131  1.0324
 7235TIP3   OH221668   2.591   5.146   3.863 -0.6909 -0.3006  0.2315
 7235TIP3    H121669   2.663   5.083   3.876  0.0030  0.7969  2.1413
 7235TIP3    H221670   2.572   5.141   3.769  3.2008  0.7207 -0.7970
 7236TIP3   OH221671   2.369   0.398   5.461 -0.3009  0.3726 -0.3818
 7236TIP3    H121672   2.324   0.348   5.392 -0.6395  0.8112 -0.4779
 7236TIP3    H221673   2.371   0.488   5.429  3.2106 -0.0290 -1.7569
 7237TIP3   OH221674   3.012   5.443   5.022  0.1938 -0.6864 -0.1172
 7237TIP3    H121675   3.090   5.443   4.966  0.1177 -0.0271 -0.2220
 7237TIP3    H221676   3.038   5.493   5.099 -0.6676  1.0994 -0.9253
 7238TIP3   OH221677   5.095   5.884   4.793  0.2386  0.0334 -0.3916
 7238TIP3    H121678   5.163   5.951   4.787 -0.0080  0.1587 -2.5846
 7238TIP3    H221679   5.021   5.920   4.744 -0.0992 -1.6188 -1.1571
 7239TIP3   OH221680   5.192   0.271   1.922 -0.2005  0.0037  0.2488
 7239TIP3    H121681   5.213   0.281   2.015 -0.9488  0.0673  0.4124
 7239TIP3    H221682   5.276   0.286   1.878 -0.2507  2.3465  0.7733
 7240TIP3   OH221683   2.537   1.162   2.309  0.3464  0.3741  0.1702
 7240TIP3    H121684   2.446   1.182   2.330  0.3567  0.2255  0.3610
 7240TIP3    H221685   2.540   1.066   2.311  0.1280  0.3051 -1.3989
 7241TIP3   OH221686   1.651   3.490   0.152 -0.1858 -0.3544 -0.4065
 7241TIP3    H121687   1.579   3.428   0.140  0.2662 -1.1341  0.8012
 7241TIP3    H221688   1.686   3.470   0.238  1.2535  0.2598 -0.8292
 7242TIP3   OH221689   2.807   3.945   4.668  0.7108  0.1425 -0.4348
 7242TIP3    H121690   2.807   3.995   4.750 -1.1662  0.4551 -0.5769
 7242TIP3    H221691   2.792   4.011   4.600 -0.4928 -0.4179 -0.7459
 7243TIP3   OH221692   5.482   6.635   4.388 -0.2774 -0.3582 -0.5692
 7243TIP3    H121693   5.562   6.624   4.336  0.8883  1.7949  0.6432
 7243TIP3    H221694   5.512   6.635   4.479 -1.4420  1.8041 -0.1272
 7244TIP3   OH221695   3.672   5.517   2.639 -0.4721  0.2160 -0.5794
 7244TIP3    H121696   3.605   5.565   2.688  2.1533  2.0736  1.5015
 7244TIP3    H221697   3.710   5.582   2.580  1.3035  0.0478  0.2907
 7245TIP3   OH221698   5.332   4.962   4.079  0.1093  0.3940 -0.1610
 7245TIP3    H121699   5.342   4.959   3.984  0.4234  0.4476 -0.1318
 7245TIP3    H221700   5.346   4.872   4.108 -1.4002  0.1009 -0.2931
 7246TIP3   OH221701   3.358   3.217   5.062 -0.0183 -0.1638 -0.6623
 7246TIP3    H121702   3.399   3.131   5.075  2.5290  1.4231  5.0394
 7246TIP3    H221703   3.431   3.278   5.054 -1.6231  1.8178 -1.1782
 7247TIP3   OH221704   5.665   5.242   1.161  0.2290  0.5501 -0.1360
 7247TIP3    H121705   5.690   5.282   1.077  0.7210  0.0932 -0.2130
 7247TIP3    H221706   5.742   5.191   1.186 -1.5106 -3.2935 -1.7761
 7248TIP3   OH221707   4.136   5.527   5.075  0.7025  0.8534  0.3707
 7248TIP3    H121708   4.074   5.537   5.003  0.3426  4.5832  1.0077
 7248TIP3    H221709   4.215   5.493   5.034 -0.3453  0.2743 -1.2641
 7249TIP3   OH221710   2.404   3.190   5.724  0.5576 -0.6491 -0.0310
 7249TIP3    H121711   2.369   3.109   5.760 -1.0241  0.3019  0.6589
 7249TIP3    H221712   2.355   3.203   5.642  1.0693 -0.5680 -0.3321
 7250TIP3   OH221713   1.948   3.760   2.834 -0.4271  0.0569  0.5505
 7250TIP3    H121714   1.950   3.799   2.922  0.8481  0.0589  0.5304
 7250TIP3    H221715   1.863   3.787   2.798 -1.5935 -1.0521  2.2823
 7251TIP3   OH221716   5.744   3.314   1.999 -0.4173 -0.4630  0.1208
 7251TIP3    H121717   5.763   3.371   1.925 -0.7706 -1.0342 -0.4168
 7251TIP3    H221718   5.764   3.368   2.076 -1.4206  0.6261 -0.3590
 7252TIP3   OH221719   3.506   1.248   5.639  0.3537  0.3289 -0.3189
 7252TIP3    H121720   3.444   1.216   5.704  0.8295 -0.6387 -0.3194
 7252TIP3    H221721   3.570   1.297   5.689  0.7273 -0.4267 -0.0359
 7253TIP3   OH221722   0.250   5.519   5.376 -0.3880  0.0009 -0.1336
 7253TIP3    H121723   0.229   5.492   5.287 -1.6665 -0.3730  0.2571
 7253TIP3    H221724   0.258   5.437   5.425 -2.3273  0.2318  0.6443
 7254TIP3   OH221725   7.029   3.440   0.834  0.1244  0.4737 -0.3675
 7254TIP3    H121726   7.098   3.498   0.801 -0.3402  1.0821 -0.2926
 7254TIP3    H221727   7.050   3.354   0.798  1.3219  0.5003  0.2243
 7255TIP3   OH221728   5.255   3.507   3.931  0.2520  0.1500  0.5125
 7255TIP3    H121729   5.300   3.583   3.969  1.2871 -0.4914  0.6123
 7255TIP3    H221730   5.210   3.466   4.004 -2.3646  1.9711  0.0843
 7256TIP3   OH221731   1.658   4.763   4.507 -1.0019  0.5569  0.1706
 7256TIP3    H121732   1.636   4.842   4.459  0.5349  0.6972 -0.3779
 7256TIP3    H221733   1.688   4.702   4.440 -0.7174  0.0525  0.7454
 7257TIP3   OH221734   5.369   4.312   1.980 -0.2711 -0.1739 -0.0184
 7257TIP3    H121735   5.284   4.268   1.983 -0.8174  0.8625  0.2869
 7257TIP3    H221736   5.432   4.244   2.004 -0.8735 -1.2659 -1.4084
 7258TIP3   OH221737   5.566   3.023   2.684 -0.3953  0.0053 -0.4165
 7258TIP3    H121738   5.611   3.107   2.676  0.1571 -0.3020 -0.5899
 7258TIP3    H221739   5.575   2.983   2.597 -0.3990 -0.3548 -0.2533
 7259TIP3   OH221740   2.006   4.185   3.088 -0.0348 -0.0638  0.1589
 7259TIP3    H121741   1.937   4.219   3.145 -2.5306 -2.7754 -0.9913
 7259TIP3    H221742   2.009   4.246   3.015 -0.4787  0.6219  0.6963
 7260TIP3   OH221743   3.270   3.654   4.158 -0.2150 -0.1108 -0.1531
 7260TIP3    H121744   3.206   3.699   4.213  1.0515  1.4082  0.1668
 7260TIP3    H221745   3.289   3.573   4.205 -0.0702  0.5936  1.0675
 7261TIP3   OH221746   4.353   5.402   4.174  0.7370 -0.5729 -0.0473
 7261TIP3    H121747   4.348   5.467   4.244 -2.1305 -0.3224 -0.3834
 7261TIP3    H221748   4.350   5.453   4.093 -1.4266 -1.0473 -0.3128
 7262TIP3   OH221749   6.790   4.644   1.574  0.3782  0.4127 -0.5582
 7262TIP3    H121750   6.774   4.676   1.485 -2.0071  1.9462  0.3444
 7262TIP3    H221751   6.795   4.549   1.565  0.1300  0.5439 -2.3254
 7263TIP3   OH221752   6.405   1.671   3.036  0.2016  0.0898 -0.2761
 7263TIP3    H121753   6.424   1.613   3.110  0.2691  1.2834  0.6699
 7263TIP3    H221754   6.309   1.677   3.034  0.1812 -0.2680 -0.5607
 7264TIP3   OH221755   3.115   0.821   3.599 -0.0209 -0.0594 -0.2580
 7264TIP3    H121756   3.101   0.916   3.602 -0.2706 -0.1108  2.7455
 7264TIP3    H221757   3.210   0.812   3.589  0.1533  0.5657  0.6436
 7265TIP3   OH221758   3.588   4.628   0.221 -0.2501  0.3325 -0.0111
 7265TIP3    H121759   3.602   4.620   0.127 -1.6422 -0.0644 -0.2118
 7265TIP3    H221760   3.584   4.723   0.237 -0.7447  0.3964 -0.4829
 7266TIP3   OH221761   1.288   0.063   4.912 -0.1492 -0.1267  0.0587
 7266TIP3    H121762   1.314   0.142   4.958 -0.2951 -0.9524  1.6297
 7266TIP3    H221763   1.343  -0.006   4.949 -2.1852 -1.3126  1.0741
 7267TIP3   OH221764   6.264   3.957   0.747  0.5422 -0.0985 -0.0669
 7267TIP3    H121765   6.305   4.042   0.732 -0.0258  0.2192  0.1609
 7267TIP3    H221766   6.334   3.903   0.784  1.4409 -0.3230 -1.9525
 7268TIP3   OH221767   2.900   6.635   3.891  0.7815 -0.1579  0.0631
 7268TIP3    H121768   2.882   6.541   3.892  0.9222 -0.2057  2.0040
 7268TIP3    H221769   2.814   6.675   3.905  0.1284  0.2223 -3.9923
 7269TIP3   OH221770   0.721   1.560   1.933 -0.5427  0.0063 -0.2597
 7269TIP3    H121771   0.809   1.541   1.900 -0.3290 -0.7108  0.6650
 7269TIP3    H221772   0.684   1.621   1.869  0.2621 -0.4370 -1.1804
 7270TIP3   OH221773   6.230   2.094   1.975 -0.1552  0.1212 -0.2021
 7270TIP3    H121774   6.147   2.068   2.016 -0.8168  1.3226 -0.7275
 7270TIP3    H221775   6.288   2.019   1.988 -1.6942 -1.2376 -0.9056
 7271TIP3   OH221776   4.835   2.947   1.000  0.1679  0.0170  0.4401
 7271TIP3    H121777   4.757   3.001   0.987  0.3449 -0.2281 -2.0912
 7271TIP3    H221778   4.892   3.001   1.055 -0.1898  1.8874 -0.9371
 7272TIP3   OH221779   1.339   4.725   5.535  0.3723  0.8155 -0.0775
 7272TIP3    H121780   1.282   4.735   5.459  0.1541  3.0057  0.2961
 7272TIP3    H221781   1.341   4.813   5.575  4.0256  0.8989 -0.0955
 7273TIP3   OH221782   3.365   5.754   2.031 -0.1062  0.3398  0.3696
 7273TIP3    H121783   3.325   5.728   1.948  1.3298 -2.6671  0.4662
 7273TIP3    H221784   3.298   5.737   2.097 -0.1995 -0.3914  0.0987
 7274TIP3   OH221785   6.788   2.990   3.022  0.0113  0.3152  0.1075
 7274TIP3    H121786   6.832   3.021   3.102 -0.7548  3.8679 -0.6766
 7274TIP3    H221787   6.695   2.988   3.045 -0.0941  0.1253 -0.3304
 7275TIP3   OH221788   5.738   2.260   2.134  0.1977  0.2765  0.0559
 7275TIP3    H121789   5.734   2.170   2.102 -1.2698  0.1706  0.4663
 7275TIP3    H221790   5.828   2.288   2.115  0.1026 -0.5680 -1.9422
 7276TIP3   OH221791   4.453   3.491   1.726  0.3535  0.0089  0.3500
 7276TIP3    H121792   4.384   3.435   1.763 -0.2777  1.0426  0.7875
 7276TIP3    H221793   4.512   3.508   1.799  0.3070  0.2499  0.3348
 7277TIP3   OH221794   0.576   5.947   5.463  0.0982  0.4722  0.0186
 7277TIP3    H121795   0.539   5.970   5.549  1.4323 -1.4819  1.1936
 7277TIP3    H221796   0.547   5.857   5.448  3.3345 -0.7772  0.4899
 7278TIP3   OH221797   1.875   4.561   5.763 -0.3281  0.6431 -0.1519
 7278TIP3    H121798   1.958   4.531   5.799  0.4638  0.1775 -2.2384
 7278TIP3    H221799   1.880   4.540   5.670 -3.0100  0.1233 -0.2416
 7279TIP3   OH221800   5.823   6.157   3.295 -0.1321  0.8586  0.5751
 7279TIP3    H121801   5.763   6.090   3.327  2.9969 -2.3427  0.3724
 7279TIP3    H221802   5.855   6.123   3.212  1.1384  2.9560  0.1233
 7280TIP3   OH221803   3.055   0.514   3.276 -0.0842  0.3617 -0.0451
 7280TIP3    H121804   3.001   0.439   3.251  1.1144 -0.3078 -0.7146
 7280TIP3    H221805   3.042   0.523   3.370 -1.0301 -0.0414 -0.1247
 7281TIP3   OH221806   0.075   2.437   2.543 -0.0022 -0.5998  0.0808
 7281TIP3    H121807   0.118   2.352   2.532  2.1035  0.3901  0.0388
 7281TIP3    H221808   0.028   2.451   2.461  0.0443 -1.4976 -0.1080
 7282TIP3   OH221809   6.337   2.423   2.181  0.0713 -0.1641 -0.3413
 7282TIP3    H121810   6.294   2.397   2.099  1.2968  0.1882 -1.1235
 7282TIP3    H221811   6.422   2.378   2.178  1.1660  1.7973 -0.4910
 7283TIP3   OH221812   6.806   2.416   3.946 -0.2983 -0.3288 -0.0441
 7283TIP3    H121813   6.860   2.484   3.905 -0.0690 -1.3187 -1.4617
 7283TIP3    H221814   6.856   2.336   3.935 -0.8208 -0.8296  1.1059
 7284TIP3   OH221815   5.926   2.759   0.043  0.0152  0.1748 -0.5818
 7284TIP3    H121816   5.838   2.743   0.077  0.5253 -0.1656  0.6489
 7284TIP3    H221817   5.912   2.786  -0.048 -1.4415  1.2917 -0.0735
 7285TIP3   OH221818   1.778   0.545   4.224 -0.3358 -0.1068  0.0064
 7285TIP3    H121819   1.761   0.626   4.272  0.1715  0.8569 -1.3827
 7285TIP3    H221820   1.753   0.475   4.285 -1.0913  1.0881  1.1129
 7286TIP3   OH221821   4.630   6.194   1.509  0.0059  0.1650  0.2652
 7286TIP3    H121822   4.597   6.283   1.492 -0.6074  0.2706  1.8712
 7286TIP3    H221823   4.716   6.208   1.548  0.3143 -0.0005 -0.3309
 7287TIP3   OH221824   4.868   6.244   0.841  0.5310 -0.0341 -0.2203
 7287TIP3    H121825   4.894   6.317   0.785 -0.1305  0.4807  0.1261
 7287TIP3    H221826   4.870   6.281   0.930 -0.5201 -0.2264 -0.1106
 7288TIP3   OH221827   3.818   0.550   2.090  0.2320  0.1525  0.5014
 7288TIP3    H121828   3.834   0.473   2.144  2.3104  1.4198  1.8492
 7288TIP3    H221829   3.723   0.553   2.080  0.0277 -1.9502  1.3109
 7289TIP3   OH221830   1.227   3.227   3.432  0.1385  0.4233  0.4941
 7289TIP3    H121831   1.228   3.217   3.336 -0.5235  1.3557  0.3713
 7289TIP3    H221832   1.248   3.140   3.465 -3.0092 -0.8786 -0.4661
 7290TIP3   OH221833   0.862   2.429   5.244 -0.4478  0.1304  0.6053
 7290TIP3    H121834   0.799   2.464   5.181 -0.5294  0.0123  0.6207
 7290TIP3    H221835   0.808   2.383   5.309 -0.5935  2.2960  2.1216
 7291TIP3   OH221836   5.217   0.586   2.338  0.5455 -0.2371  0.1630
 7291TIP3    H121837   5.143   0.629   2.380 -0.0124 -2.2060  1.3240
 7291TIP3    H221838   5.287   0.589   2.403  0.9232  0.0755 -0.2527
 7292TIP3   OH221839   4.665   4.878   5.787  0.6728 -0.2645  0.1266
 7292TIP3    H121840   4.665   4.815   5.715  0.6116 -0.7906  0.5732
 7292TIP3    H221841   4.681   4.962   5.746 -0.9417 -0.3260 -0.6969
 7293TIP3   OH221842   1.320   1.618   3.562  0.6258 -0.3323  0.4995
 7293TIP3    H121843   1.313   1.685   3.630 -2.2402 -0.3921  0.3815
 7293TIP3    H221844   1.276   1.656   3.486  0.4878 -1.6615 -0.1191
 7294TIP3   OH221845   0.097   5.067   1.357  0.4862  0.3311 -0.5618
 7294TIP3    H121846   0.126   5.158   1.353  2.1186 -0.1382  0.0958
 7294TIP3    H221847   0.043   5.062   1.436 -0.8643  1.0374 -1.3960
 7295TIP3   OH221848   5.066   5.905   5.739  0.5593  0.1072  0.4964
 7295TIP3    H121849   5.157   5.918   5.711  0.2941  0.6901 -0.1272
 7295TIP3    H221850   5.015   5.914   5.658  0.0442 -1.5039  0.6025
 7296TIP3   OH221851   6.193   4.144   3.631  0.0375  0.4986 -0.0407
 7296TIP3    H121852   6.170   4.135   3.724  1.9915  0.9779  0.5334
 7296TIP3    H221853   6.131   4.088   3.585 -0.5844 -0.2234  1.6138
 7297TIP3   OH221854   2.267   2.426   1.332  0.2265 -0.4219  0.1197
 7297TIP3    H121855   2.197   2.467   1.281  0.8578  1.3242  0.5840
 7297TIP3    H221856   2.280   2.341   1.289 -1.0016 -0.0798 -1.0270
 7298TIP3   OH221857   0.336   4.819   0.031 -0.5971  0.1470  0.7040
 7298TIP3    H121858   0.393   4.753  -0.007  0.6946  0.3408  2.1884
 7298TIP3    H221859   0.257   4.817  -0.023 -0.4336 -2.2983  0.4631
 7299TIP3   OH221860   6.893   3.817   1.041  0.0649 -0.5955  0.5641
 7299TIP3    H121861   6.835   3.879   1.085  0.5639  2.1195 -2.3015
 7299TIP3    H221862   6.981   3.842   1.070  0.2132 -0.6053  0.1239
 7300TIP3   OH221863   1.297   0.735   0.105 -0.1148  0.3856  0.4519
 7300TIP3    H121864   1.229   0.718   0.039  1.3755  0.5028 -1.1770
 7300TIP3    H221865   1.248   0.746   0.186 -2.1241  1.2841 -0.7956
 7301TIP3   OH221866   0.038   3.550   0.771 -0.3891 -0.6618 -0.4320
 7301TIP3    H121867   0.095   3.549   0.847 -0.5116 -1.1012 -0.3399
 7301TIP3    H221868   0.080   3.610   0.710 -1.1275  0.9685  0.6004
 7302TIP3   OH221869   6.557   2.429   4.541  0.4488  1.1575 -0.2874
 7302TIP3    H121870   6.562   2.438   4.445  1.4971  1.9646 -0.1779
 7302TIP3    H221871   6.522   2.513   4.571  1.4129  1.4350  0.1130
 7303TIP3   OH221872   3.939   4.557   2.851  0.4953 -0.0397 -0.8626
 7303TIP3    H121873   3.870   4.620   2.831 -0.6559 -0.7012  0.8052
 7303TIP3    H221874   4.013   4.610   2.878  0.0707  0.6321 -0.9983
 7304TIP3   OH221875   1.782   4.763   2.436  0.1435 -0.1408 -0.3458
 7304TIP3    H121876   1.703   4.796   2.394  0.5748 -0.3945 -1.3756
 7304TIP3    H221877   1.816   4.697   2.375  0.6867 -0.6492  0.4858
 7305TIP3   OH221878   2.358   2.050   0.872 -0.6059  0.2520 -0.4687
 7305TIP3    H121879   2.354   2.144   0.885 -0.7250  0.2007 -0.1401
 7305TIP3    H221880   2.442   2.035   0.828 -1.6084  0.7756 -2.6916
 7306TIP3   OH221881   1.684   1.854   1.076 -0.0736 -0.2392 -0.0174
 7306TIP3    H121882   1.734   1.905   1.141 -0.2681  0.8472 -0.7021
 7306TIP3    H221883   1.723   1.766   1.080 -1.2439 -0.7458  2.8512
 7307TIP3   OH221884   3.258   1.439   4.813 -0.2412 -0.8087 -0.2299
 7307TIP3    H121885   3.266   1.362   4.756 -0.7959 -0.0499 -1.3686
 7307TIP3    H221886   3.255   1.513   4.753  1.7187  0.2610  0.8939
 7308TIP3   OH221887   3.870   5.653   2.820  0.2090  0.0495 -0.2901
 7308TIP3    H121888   3.799   5.687   2.876 -0.9688 -0.0715 -1.6472
 7308TIP3    H221889   3.892   5.726   2.762 -0.1711 -0.5177 -1.1611
 7309TIP3   OH221890   2.521   4.979   0.022 -0.4385 -0.5593  0.3314
 7309TIP3    H121891   2.581   5.020   0.084 -0.3216 -1.2689  0.7084
 7309TIP3    H221892   2.491   5.050  -0.035  1.8622 -0.3863 -0.7933
 7310TIP3   OH221893   6.884   3.155   2.638 -0.3641  0.0452  0.2899
 7310TIP3    H121894   6.926   3.077   2.602 -3.1747 -0.8949 -1.2581
 7310TIP3    H221895   6.936   3.228   2.603  0.2388 -1.0246 -1.1962
 7311TIP3   OH221896   4.530   2.271   4.227  0.1038  0.0797 -0.6532
 7311TIP3    H121897   4.534   2.238   4.137 -1.5313 -2.7274  0.2009
 7311TIP3    H221898   4.617   2.252   4.263  0.2790 -0.1594 -1.1940
 7312TIP3   OH221899   1.192   2.071   5.160  0.6267  0.0778 -0.0675
 7312TIP3    H121900   1.248   2.104   5.089  2.1537 -0.7362  0.7126
 7312TIP3    H221901   1.111   2.046   5.117  1.8738 -1.3487 -1.7359
 7313TIP3   OH221902   4.685   3.590   4.851 -0.0754 -0.3742  0.0020
 7313TIP3    H121903   4.775   3.597   4.820  0.1750 -2.8671 -0.0375
 7313TIP3    H221904   4.635   3.569   4.772 -0.2235 -1.7794  0.4505
 7314TIP3   OH221905   2.076   3.411   1.726 -0.0976 -0.0754 -0.7406
 7314TIP3    H121906   2.095   3.451   1.641  1.6154  1.6367  0.3603
 7314TIP3    H221907   1.991   3.447   1.751  0.5197  1.4103 -0.6631
 7315TIP3   OH221908   0.025   2.018   4.617  0.5038  0.3866  0.3768
 7315TIP3    H121909   0.096   2.034   4.555  1.4523  0.1248  1.3793
 7315TIP3    H221910  -0.019   1.940   4.583  0.2124  0.9847 -0.6594
 7316TIP3   OH221911   4.633   5.796   5.551  0.1276 -0.5810 -0.1139
 7316TIP3    H121912   4.545   5.762   5.569 -1.1880  1.7523 -1.6062
 7316TIP3    H221913   4.635   5.809   5.456  1.6841  0.4022  0.0096
 7317TIP3   OH221914   4.553   6.332   3.319  0.3860  0.3510 -0.3446
 7317TIP3    H121915   4.632   6.387   3.323 -0.5225  1.7032 -0.4312
 7317TIP3    H221916   4.498   6.375   3.254 -0.8752 -0.0003  0.4753
 7318TIP3   OH221917   0.481   1.829   5.405  0.3479  0.5783 -0.0934
 7318TIP3    H121918   0.523   1.774   5.338  0.5802  1.3030 -0.5629
 7318TIP3    H221919   0.410   1.776   5.439  2.1742 -1.0617  1.3866
 7319TIP3   OH221920   0.479   3.051   2.022 -0.1166  0.2371  0.0063
 7319TIP3    H121921   0.521   3.129   1.987  0.1365 -0.0147 -0.2501
 7319TIP3    H221922   0.504   3.050   2.115 -0.3032  0.5779  0.0639
 7320TIP3   OH221923   6.379   5.686   0.388 -0.3236 -0.1756 -0.1613
 7320TIP3    H121924   6.471   5.690   0.414 -0.0383  0.4617 -1.2191
 7320TIP3    H221925   6.369   5.599   0.349  0.3932  0.4903 -1.9556
 7321TIP3   OH221926   5.548   1.737   3.694  0.1513  0.6502  0.2628
 7321TIP3    H121927   5.517   1.668   3.636  0.9239  0.7484 -0.2723
 7321TIP3    H221928   5.495   1.814   3.671 -0.3320  0.3868  0.4855
 7322TIP3   OH221929   6.642   0.412   0.364 -0.3256  0.6314  0.1543
 7322TIP3    H121930   6.629   0.458   0.281  2.1590  0.4127 -0.4205
 7322TIP3    H221931   6.722   0.450   0.400 -1.6060  1.0703  2.7515
 7323TIP3   OH221932   4.159   6.782   0.740  0.3007  0.1777 -0.1449
 7323TIP3    H121933   4.207   6.777   0.657 -0.3588  0.0220 -0.5282
 7323TIP3    H221934   4.189   6.863   0.781  0.0756  0.6421 -0.8898
 7324TIP3   OH221935   1.187   3.227   5.229 -0.2359  0.0854 -0.2718
 7324TIP3    H121936   1.235   3.235   5.311 -0.3632  0.1504 -0.2019
 7324TIP3    H221937   1.252   3.241   5.161  0.4933 -2.7924 -0.2820
 7325TIP3   OH221938   0.384   3.772   1.565 -0.1494  0.1806  0.4296
 7325TIP3    H121939   0.367   3.794   1.474 -0.4114  1.4169  0.7642
 7325TIP3    H221940   0.313   3.713   1.589 -0.4585  0.3879  0.0322
 7326TIP3   OH221941   7.050   1.726   5.813 -0.2947  0.0362 -0.0955
 7326TIP3    H121942   6.964   1.738   5.772 -1.3067  0.8298  2.1244
 7326TIP3    H221943   7.037   1.752   5.904  2.3063  0.1145  0.3208
 7327TIP3   OH221944   2.989   2.075   2.780 -0.0799  0.1138  0.4328
 7327TIP3    H121945   2.911   2.129   2.768 -1.0355 -1.3905 -0.4917
 7327TIP3    H221946   2.957   1.994   2.818  1.2434 -0.0330  1.2995
 7328TIP3   OH221947   5.970   3.587   0.007  0.0526 -0.2296  0.2083
 7328TIP3    H121948   6.020   3.668   0.020  1.3740 -1.2231  1.7496
 7328TIP3    H221949   5.980   3.539   0.089 -2.2254 -1.1795 -0.0039
 7329TIP3   OH221950   1.565   1.338   0.842 -0.0123  0.1116  0.4308
 7329TIP3    H121951   1.470   1.333   0.846 -0.1173  1.2955  0.0239
 7329TIP3    H221952   1.584   1.346   0.748  0.3385  1.6387  0.5979
 7330TIP3   OH221953   0.695   2.518   2.658 -0.2323  0.0814 -0.4122
 7330TIP3    H121954   0.649   2.481   2.582  0.4898  0.5604 -1.1055
 7330TIP3    H221955   0.676   2.458   2.729  1.3317 -1.9964 -1.6176
 7331TIP3   OH221956   2.179   0.524   4.617 -0.6506  0.3819  0.5755
 7331TIP3    H121957   2.211   0.582   4.685  1.8054 -2.6563  2.2927
 7331TIP3    H221958   2.084   0.533   4.620 -0.4449  3.0345  1.7740
 7332TIP3   OH221959   1.561   0.847   3.532  0.4386  0.2721 -0.3214
 7332TIP3    H121960   1.575   0.904   3.608  1.2342 -0.5390  0.1669
 7332TIP3    H221961   1.636   0.865   3.475 -0.0565  0.7383 -0.8363
 7333TIP3   OH221962   2.282   0.935   2.433 -0.3528 -0.0660 -0.2645
 7333TIP3    H121963   2.339   0.858   2.437 -1.1293 -0.6272  0.5323
 7333TIP3    H221964   2.271   0.960   2.525 -0.9455  0.3660 -0.4531
 7334TIP3   OH221965  -0.027   5.887   0.571 -0.1354 -0.4567  0.2973
 7334TIP3    H121966   0.035   5.816   0.585  1.9987  1.4390  1.0331
 7334TIP3    H221967   0.014   5.943   0.506 -1.3665  0.5587  0.3513
 7335TIP3   OH221968   0.615   4.481   2.017  0.3909  0.0476 -0.3516
 7335TIP3    H121969   0.603   4.485   1.922 -1.3452  1.3715 -0.1464
 7335TIP3    H221970   0.706   4.505   2.031  1.1786 -1.8629 -1.7410
 7336TIP3   OH221971   0.523   0.296   5.344 -1.0005  0.5408  0.4733
 7336TIP3    H121972   0.598   0.318   5.289 -0.2654  0.1150  1.2760
 7336TIP3    H221973   0.534   0.350   5.422 -0.5353 -0.7899  1.3643
 7337TIP3   OH221974   3.958   6.070   0.922 -0.4010  0.3394  0.5662
 7337TIP3    H121975   4.042   6.113   0.910 -0.6153  0.7067  0.3390
 7337TIP3    H221976   3.895   6.129   0.881 -0.3722 -1.6637 -2.6982
 7338TIP3   OH221977   1.670   2.147   5.840 -0.1554 -0.5751  0.4694
 7338TIP3    H121978   1.593   2.146   5.783  0.2543 -1.6695 -0.0990
 7338TIP3    H221979   1.698   2.055   5.844 -0.4598 -0.6298  2.8316
 7339TIP3   OH221980   2.895   2.886   0.810 -0.2662 -0.0650  0.0863
 7339TIP3    H121981   2.990   2.882   0.823  0.0024 -3.8701 -1.7195
 7339TIP3    H221982   2.884   2.914   0.719 -1.0884  2.4848  0.8802
 7340TIP3   OH221983   2.292   2.410   5.042  0.3308 -0.3996 -0.4424
 7340TIP3    H121984   2.214   2.425   4.989  1.1796  0.9264 -1.3801
 7340TIP3    H221985   2.299   2.314   5.048 -0.0515 -0.5862 -2.3694
 7341TIP3   OH221986   6.686   5.380   0.598  0.0976 -0.2745 -0.3813
 7341TIP3    H121987   6.602   5.398   0.640  0.9121  1.3670  0.6604
 7341TIP3    H221988   6.744   5.448   0.631  1.7538 -1.1422 -1.3743
 7342TIP3   OH221989   0.651   6.555   0.071 -0.2296 -0.2125 -0.7419
 7342TIP3    H121990   0.567   6.546   0.117  0.5557 -0.5582  0.6885
 7342TIP3    H221991   0.714   6.572   0.141  0.7176  1.2916 -1.9010
 7343TIP3   OH221992   2.051   3.923   4.729  0.1196 -0.9508 -0.6222
 7343TIP3    H121993   2.116   3.944   4.795  0.3811 -1.7696 -0.6030
 7343TIP3    H221994   1.978   3.982   4.747  0.4530 -0.7197 -0.0129
 7344TIP3   OH221995   0.445   4.523   3.656  0.2666  0.1576 -0.1165
 7344TIP3    H121996   0.467   4.574   3.733 -0.2603  0.5232 -0.2036
 7344TIP3    H221997   0.418   4.587   3.590 -0.3461 -0.2218 -0.2451
 7345TIP3   OH221998   2.814   4.652   0.327 -0.3577  0.6605 -0.5419
 7345TIP3    H121999   2.764   4.705   0.265 -1.7955 -0.2036 -0.1719
 7345TIP3    H222000   2.793   4.562   0.304  2.0619  0.1848 -1.1719
 7346TIP3   OH222001   0.592   0.235  -0.016 -0.1758  0.1071 -0.0603
 7346TIP3    H122002   0.521   0.275   0.035 -0.1437  0.5708 -0.3760
 7346TIP3    H222003   0.666   0.231   0.045 -0.5578 -0.6765  0.3726
 7347TIP3   OH222004   5.304   0.471   3.165 -0.4864  0.5623 -0.0565
 7347TIP3    H122005   5.228   0.524   3.191 -2.1963 -2.0377  0.6592
 7347TIP3    H222006   5.266   0.388   3.136  1.9390  0.2317 -2.7018
 7348TIP3   OH222007   1.671   0.262   2.039  0.4025  0.0909  0.9636
 7348TIP3    H122008   1.645   0.232   2.126  1.2497  0.6081  1.3960
 7348TIP3    H222009   1.609   0.333   2.019 -0.3664 -0.6139  0.7467
 7349TIP3   OH222010   3.284   6.052   5.047  1.0534 -0.5593  0.3405
 7349TIP3    H122011   3.199   6.088   5.070  1.1869  0.4592 -0.6812
 7349TIP3    H222012   3.271   6.011   4.962  1.3837 -1.1966  0.5865
 7350TIP3   OH222013   1.881   5.827   2.993  1.0608  0.1635 -0.3923
 7350TIP3    H122014   1.895   5.779   2.911 -2.6539 -1.4720 -0.2819
 7350TIP3    H222015   1.906   5.766   3.062  1.5031  0.4743 -0.2747
 7351TIP3   OH222016   6.865   5.205   5.932 -0.1265  0.4860 -0.0157
 7351TIP3    H122017   6.949   5.170   5.904 -0.7879  0.2349 -1.8440
 7351TIP3    H222018   6.823   5.234   5.851 -1.5470  1.1747  0.9214
 7352TIP3   OH222019   3.674   2.578   5.899 -0.2461 -0.2864  0.2256
 7352TIP3    H122020   3.625   2.498   5.878  0.1766 -0.3738 -0.4478
 7352TIP3    H222021   3.765   2.551   5.898 -0.1729 -0.2205  1.9070
 7353TIP3   OH222022   0.552   5.856   0.559 -0.1621 -0.1206  0.2067
 7353TIP3    H122023   0.497   5.788   0.519  0.3589 -1.2993  1.4054
 7353TIP3    H222024   0.543   5.842   0.653  1.9742 -0.2135  0.4501
 7354TIP3   OH222025   6.102   5.066   4.632  0.1348 -0.0602 -0.5604
 7354TIP3    H122026   6.188   5.025   4.638  0.0849 -0.1459 -0.4374
 7354TIP3    H222027   6.040   4.993   4.637  0.0829 -0.1546 -2.0166
 7355TIP3   OH222028   2.177   3.663   4.079  0.2492  0.0587  0.3717
 7355TIP3    H122029   2.127   3.707   4.148  0.5656  0.4034  0.3887
 7355TIP3    H222030   2.267   3.691   4.095  0.5380 -1.0283  0.7065
 7356TIP3   OH222031   2.230   4.486   1.494  0.5212 -0.1864 -0.0049
 7356TIP3    H122032   2.180   4.568   1.492  1.1293  0.1992 -1.8833
 7356TIP3    H222033   2.309   4.507   1.545 -0.1613 -0.1536  1.0673
 7357TIP3   OH222034   5.199   0.163   2.701  0.0043 -0.0322  0.1276
 7357TIP3    H122035   5.264   0.093   2.699  1.0102  0.7429  2.5189
 7357TIP3    H222036   5.197   0.197   2.611 -0.8608 -3.3183 -1.2504
 7358TIP3   OH222037   7.197   3.623   5.132 -0.0196  0.3966 -0.1760
 7358TIP3    H122038   7.149   3.626   5.215 -1.1355  0.6024 -0.7963
 7358TIP3    H222039   7.155   3.691   5.079  3.0677  2.8719  0.2934
 7359TIP3   OH222040   4.584   1.519   4.551 -0.0134 -0.1460  0.0271
 7359TIP3    H122041   4.553   1.609   4.542  0.9394  0.0722 -1.5670
 7359TIP3    H222042   4.669   1.527   4.594 -0.4628 -0.3944  0.9634
 7360TIP3   OH222043   5.355   3.353   4.424  0.0093  0.3978 -0.5286
 7360TIP3    H122044   5.387   3.426   4.476 -0.2794 -0.5051  0.9544
 7360TIP3    H222045   5.428   3.331   4.367  0.9335  0.3400  0.6527
 7361TIP3   OH222046   1.590   3.695   2.985  0.2540 -0.8419 -0.5891
 7361TIP3    H122047   1.514   3.702   3.042  0.5460  1.2574 -0.3539
 7361TIP3    H222048   1.637   3.778   2.998  2.8184 -2.2291 -0.4144
 7362TIP3   OH222049   0.580   2.293   4.437 -0.1079  0.2969  0.7478
 7362TIP3    H122050   0.600   2.330   4.351 -1.0006 -1.7878 -0.4451
 7362TIP3    H222051   0.666   2.276   4.476  0.3481 -0.1027 -0.3788
 7363TIP3   OH222052   5.726   1.525   2.615 -0.5122  0.1574  0.2827
 7363TIP3    H122053   5.812   1.564   2.601 -0.7062  0.5444  0.1511
 7363TIP3    H222054   5.710   1.475   2.535 -1.4998  2.1466 -0.8295
 7364TIP3   OH222055   2.452   3.763   0.461 -0.0796 -0.6385  0.5684
 7364TIP3    H122056   2.486   3.791   0.546  0.4088 -1.6761  0.7271
 7364TIP3    H222057   2.473   3.835   0.402 -0.1090 -0.0619  1.2488
 7365TIP3   OH222058   3.492   1.500   3.566  0.3152 -0.0086  0.4901
 7365TIP3    H122059   3.416   1.534   3.613  0.8577  0.3409  1.1447
 7365TIP3    H222060   3.469   1.508   3.474 -0.6087 -0.3143  0.6797
 7366TIP3   OH222061   4.120   0.503   1.181 -0.5050 -0.3512 -0.0734
 7366TIP3    H122062   4.131   0.567   1.252 -0.4856 -2.4172  1.9079
 7366TIP3    H222063   4.205   0.502   1.137  0.9864 -1.8933  2.5316
 7367TIP3   OH222064   2.650   4.343   4.479 -0.2340 -0.1119 -0.2161
 7367TIP3    H122065   2.615   4.404   4.543  0.1619 -1.1750  1.0500
 7367TIP3    H222066   2.576   4.326   4.420 -0.9405  0.0522  0.5995
 7368TIP3   OH222067   4.501   5.260   5.775 -0.4798  0.2854  0.4007
 7368TIP3    H122068   4.483   5.273   5.868  0.3178 -1.2194  0.8060
 7368TIP3    H222069   4.420   5.223   5.739 -0.4960  0.0264  0.7012
 7369TIP3   OH222070   3.068   2.437   3.658 -0.3338  0.0211  0.1426
 7369TIP3    H122071   3.136   2.477   3.604  0.5385  2.3639  2.7631
 7369TIP3    H222072   3.117   2.386   3.724 -1.2465 -0.5918  0.3699
 7370TIP3   OH222073   4.298   3.067   1.221  0.4923  0.5203 -0.0516
 7370TIP3    H122074   4.259   3.140   1.270 -1.3719  0.0247 -0.7454
 7370TIP3    H222075   4.224   3.022   1.182  1.8074 -0.2413 -1.7697
 7371TIP3   OH222076   4.660   1.443   1.751  0.0158 -0.1273 -0.2044
 7371TIP3    H122077   4.674   1.359   1.796 -0.4899 -0.9568 -1.5227
 7371TIP3    H222078   4.565   1.455   1.754  0.0014 -0.0542 -0.7573
 7372TIP3   OH222079   2.342   2.908   1.244  0.0180 -0.0095 -1.0994
 7372TIP3    H122080   2.274   2.849   1.275  1.8150 -1.9818 -0.7107
 7372TIP3    H222081   2.316   2.994   1.277 -1.3447 -1.0017  0.5580
 7373TIP3   OH222082   2.757   6.435   4.080  0.2465  0.5496  0.0624
 7373TIP3    H122083   2.754   6.500   4.150 -0.7436  1.4611 -0.7939
 7373TIP3    H222084   2.667   6.403   4.072  0.3909  0.2840 -0.6380
 7374TIP3   OH222085   2.537   6.804   2.024 -0.1642 -0.1573  0.5382
 7374TIP3    H122086   2.444   6.825   2.019  0.0948  0.8141 -0.9328
 7374TIP3    H222087   2.542   6.711   2.001 -0.8372 -0.4637  1.5721
 7375TIP3   OH222088   1.035   4.417   3.130 -0.0537  0.7724 -0.3862
 7375TIP3    H122089   1.070   4.506   3.135  1.6814  0.1496 -0.7070
 7375TIP3    H222090   0.956   4.426   3.076 -0.2016  2.1879  0.0127
 7376TIP3   OH222091   2.076   3.295   3.438  0.6469  1.1013  0.5335
 7376TIP3    H122092   2.088   3.271   3.530 -0.0405 -0.4696  0.2491
 7376TIP3    H222093   1.983   3.318   3.432  0.9434  2.3374  0.4533
 7377TIP3   OH222094   3.707   3.318   2.072  0.4991 -0.0138  0.2266
 7377TIP3    H122095   3.691   3.260   1.997 -0.9920  0.2889  0.2723
 7377TIP3    H222096   3.653   3.281   2.142  1.4307  0.0430  0.9876
 7378TIP3   OH222097   0.138   2.931   3.517  0.2175  0.2414 -0.6248
 7378TIP3    H122098   0.146   2.852   3.463 -2.4071  0.0533 -0.8328
 7378TIP3    H222099   0.125   3.002   3.453 -0.9989  0.3014 -0.3154
 7379TIP3   OH222100   0.198   4.607   3.122  0.9202  0.4094 -0.4999
 7379TIP3    H122101   0.194   4.551   3.045 -1.2240 -0.4223  0.1254
 7379TIP3    H222102   0.127   4.671   3.110 -0.3477 -0.5525  1.2953
 7380TIP3   OH222103   2.265   4.788   4.583  0.2400 -0.2264 -0.0609
 7380TIP3    H122104   2.298   4.878   4.591 -0.3521  0.0419 -0.5116
 7380TIP3    H222105   2.280   4.765   4.492  0.1400 -0.4844 -0.0110
 7381TIP3   OH222106   0.637   3.302   3.465 -0.6346  0.0609 -0.3056
 7381TIP3    H122107   0.716   3.318   3.414 -1.4435  0.6559 -1.4164
 7381TIP3    H222108   0.608   3.389   3.493 -1.0049 -0.1310 -0.0844
 7382TIP3   OH222109   4.344   5.585   0.074  0.1619  0.0977  0.0371
 7382TIP3    H122110   4.253   5.604   0.055 -0.6348 -1.1239  2.2344
 7382TIP3    H222111   4.378   5.546  -0.006 -1.2125  0.6016 -0.8206
 7383TIP3   OH222112   2.137   2.046   3.080  0.7192  0.1209  0.4577
 7383TIP3    H122113   2.046   2.019   3.067  0.6782 -0.1649  1.2862
 7383TIP3    H222114   2.145   2.058   3.175  1.0504  1.9118  0.2397
 7384TIP3   OH222115   2.585   5.019   4.203  0.4543  0.2990 -0.1093
 7384TIP3    H122116   2.557   4.929   4.192  2.1872 -0.3246  0.2801
 7384TIP3    H222117   2.544   5.066   4.130 -1.9212 -0.4008  0.7048
 7385TIP3   OH222118   6.446   3.800   4.500 -0.2615  0.4272 -0.6018
 7385TIP3    H122119   6.434   3.730   4.564  0.1782 -1.1288 -2.1587
 7385TIP3    H222120   6.507   3.764   4.436 -1.1156  1.7231 -2.2140
 7386TIP3   OH222121   5.520   5.025   5.528  0.1762  0.6252 -0.0898
 7386TIP3    H122122   5.614   5.009   5.522  0.0398 -0.1524 -0.2444
 7386TIP3    H222123   5.495   4.994   5.615 -0.3357 -1.4135 -0.9065
 7387TIP3   OH222124   4.917   1.510   1.583  0.2543 -0.4830 -0.2640
 7387TIP3    H122125   4.909   1.578   1.516  0.0138 -0.6118 -0.3648
 7387TIP3    H222126   4.827   1.490   1.609  0.1445 -2.4074 -1.8851
 7388TIP3   OH222127   6.383   1.513   2.070 -0.1903 -0.8646  0.4926
 7388TIP3    H122128   6.468   1.471   2.060  0.7977  1.1331  0.1603
 7388TIP3    H222129   6.354   1.531   1.981  0.0501  0.3473  0.6407
 7389TIP3   OH222130   6.302   4.581   5.866 -0.0422  0.3446 -0.0407
 7389TIP3    H122131   6.345   4.514   5.919 -0.4931  0.0725 -0.0206
 7389TIP3    H222132   6.210   4.557   5.866 -0.2823  1.2141  0.3322
 7390TIP3   OH222133   3.380   5.045   1.077 -0.8407 -0.1355  0.1905
 7390TIP3    H122134   3.292   5.060   1.110 -0.4300  1.4257  0.6663
 7390TIP3    H222135   3.370   5.043   0.982 -1.4617 -0.5838  0.2581
 7391TIP3   OH222136   3.704   6.354   4.927 -0.6524  0.4628  0.1105
 7391TIP3    H122137   3.638   6.345   4.858  1.1190 -0.1833 -1.5985
 7391TIP3    H222138   3.741   6.441   4.914  0.6965 -0.1923 -0.7955
 7392TIP3   OH222139   6.933   1.678   0.343  0.0492  0.0747  0.0415
 7392TIP3    H122140   6.954   1.638   0.259  0.8821 -0.8449  0.6548
 7392TIP3    H222141   6.971   1.765   0.338 -1.4149  0.6921 -1.1583
 7393TIP3   OH222142   0.290   6.660   1.676  0.0684 -0.1683  0.6749
 7393TIP3    H122143   0.311   6.575   1.715 -0.3687 -0.8651 -0.5713
 7393TIP3    H222144   0.259   6.640   1.588  2.6677  1.4629 -0.7321
 7394TIP3   OH222145   7.011   0.810   4.277  0.1801 -0.7708 -0.4954
 7394TIP3    H122146   7.037   0.779   4.190 -0.6219 -0.5119 -0.8332
 7394TIP3    H222147   7.088   0.793   4.332  0.7513 -0.8060 -1.2798
 7395TIP3   OH222148   2.906   1.452   0.286 -0.1298 -0.3701  0.1920
 7395TIP3    H122149   2.957   1.391   0.339 -1.8719 -1.1907  1.0124
 7395TIP3    H222150   2.815   1.433   0.309 -0.7752  1.9406 -0.2013
 7396TIP3   OH222151   1.631   2.453   0.924 -1.2851 -0.0880 -0.5754
 7396TIP3    H122152   1.674   2.381   0.877 -0.3732 -0.7708  1.2370
 7396TIP3    H222153   1.562   2.411   0.975 -0.9754  0.3544  0.2244
 7397TIP3   OH222154   5.691   4.282   1.191  0.1292 -0.3766 -0.1357
 7397TIP3    H122155   5.702   4.189   1.210  0.1047 -0.4118 -0.2920
 7397TIP3    H222156   5.630   4.313   1.258  1.0981 -0.1959  0.6848
 7398TIP3   OH222157   1.332   0.910   4.720 -0.8373 -0.1292 -1.0498
 7398TIP3    H122158   1.263   0.976   4.725 -0.9563 -0.3247  0.3705
 7398TIP3    H222159   1.413   0.957   4.739 -0.6965 -0.0892 -1.7182
 7399TIP3   OH222160   3.963   3.875   2.358  0.4358  0.3736 -0.1441
 7399TIP3    H122161   3.969   3.954   2.305  2.4741  0.1082 -0.3766
 7399TIP3    H222162   3.973   3.803   2.296  0.6417  0.0036  0.3109
 7400TIP3   OH222163   2.496   0.796   1.812 -0.2751  0.2439 -0.5641
 7400TIP3    H122164   2.531   0.778   1.724  1.0946  0.4712 -0.0851
 7400TIP3    H222165   2.572   0.789   1.870 -0.3970  3.6315  0.1740
 7401TIP3   OH222166   3.419   0.785   3.259  0.0297 -0.4048  0.5327
 7401TIP3    H122167   3.443   0.868   3.301 -0.8201 -0.0613  0.3760
 7401TIP3    H222168   3.436   0.719   3.325 -0.4762  0.0405  1.1267
 7402TIP3   OH222169   4.424   1.771   2.581  0.4094 -0.7210 -0.3664
 7402TIP3    H122170   4.411   1.834   2.652  1.0509 -1.6433  0.6194
 7402TIP3    H222171   4.344   1.719   2.580  0.2973 -0.5440 -0.4805
 7403TIP3   OH222172   6.047   4.045   1.610  0.4356 -0.6582  0.1682
 7403TIP3    H122173   6.071   3.956   1.638  1.3279 -0.8195 -1.0018
 7403TIP3    H222174   6.100   4.059   1.531 -1.7785 -0.1584 -1.3079
 7404TIP3   OH222175   3.113   3.090   1.865  0.0877 -0.3527 -0.4218
 7404TIP3    H122176   3.126   3.169   1.813  0.3725 -0.3731 -0.3841
 7404TIP3    H222177   3.087   3.122   1.951  2.1197 -0.1921  0.2051
 7405TIP3   OH222178   6.685   0.465   0.095  0.4329 -0.1824  0.5839
 7405TIP3    H122179   6.730   0.540   0.056  0.0766 -0.1580  0.2092
 7405TIP3    H222180   6.739   0.390   0.072 -1.3791 -0.6453 -2.8504
 7406TIP3   OH222181   4.347   4.514   4.316  0.4509 -0.1022 -0.4406
 7406TIP3    H122182   4.253   4.529   4.326  0.3348 -1.0778  0.0935
 7406TIP3    H222183   4.378   4.588   4.264 -0.5265  0.4838 -0.2175
 7407TIP3   OH222184   2.845   2.785   2.464  0.2618  0.4227 -0.3695
 7407TIP3    H122185   2.886   2.870   2.444  0.6802  0.1936 -0.4869
 7407TIP3    H222186   2.916   2.722   2.455 -0.3432 -0.1113 -1.5656
 7408TIP3   OH222187   6.450   3.825   0.897 -0.1620 -0.5795 -0.2535
 7408TIP3    H122188   6.458   3.757   0.964  1.6865 -2.9900 -2.6827
 7408TIP3    H222189   6.530   3.876   0.905 -0.6703  0.1601  0.3199
 7409TIP3   OH222190   7.006   4.307   4.544 -0.1464 -0.1583  0.5189
 7409TIP3    H122191   6.984   4.366   4.617  0.7308  0.6551  0.1458
 7409TIP3    H222192   6.922   4.271   4.517 -0.5807  0.1344  1.4273
 7410TIP3   OH222193   4.772   4.285   1.379  0.3759 -0.7481  0.1206
 7410TIP3    H122194   4.812   4.234   1.449 -0.9008 -1.0287  0.6668
 7410TIP3    H222195   4.691   4.239   1.358 -1.9695  2.0927  2.1405
 7411TIP3   OH222196   6.526   6.542   2.938  0.1757 -0.2334 -0.3316
 7411TIP3    H122197   6.452   6.601   2.951  0.9273  0.5117  0.7621
 7411TIP3    H222198   6.586   6.591   2.882  0.4601 -0.2516 -0.0483
 7412TIP3   OH222199   5.825   5.491   1.912 -0.2886  0.4605 -0.2155
 7412TIP3    H122200   5.784   5.557   1.968 -1.3620 -0.6589  0.3806
 7412TIP3    H222201   5.845   5.419   1.972  2.3925  0.8434 -0.5321
 7413TIP3   OH222202   5.630   2.077   1.746 -0.4082 -0.7835 -0.6561
 7413TIP3    H122203   5.613   2.171   1.754  1.4664 -0.4795  0.1715
 7413TIP3    H222204   5.657   2.066   1.654 -4.6969 -1.3161 -2.0849
 7414TIP3   OH222205   0.406   2.778   1.689  0.0722  0.2488 -0.0351
 7414TIP3    H122206   0.403   2.851   1.628 -0.1068  1.5354  1.4336
 7414TIP3    H222207   0.380   2.816   1.773  0.3194 -1.4350  0.8550
 7415TIP3   OH222208   3.941   3.375   2.377  0.6049  0.0803  0.0275
 7415TIP3    H122209   3.972   3.464   2.393 -0.2765  0.2414  0.9995
 7415TIP3    H222210   3.846   3.380   2.391  0.4112 -0.8162 -0.8384
 7416TIP3   OH222211   4.115   3.199   4.654  0.2098  0.1291 -0.1161
 7416TIP3    H122212   4.135   3.227   4.565  3.1432  0.7028  0.6219
 7416TIP3    H222213   4.201   3.190   4.696 -1.0687 -0.3678  2.5775
 7417TIP3   OH222214   2.690   2.402   0.809  0.3839  0.4070  0.4671
 7417TIP3    H122215   2.709   2.383   0.901 -0.8295  2.2210  1.1455
 7417TIP3    H222216   2.600   2.371   0.797  0.9151 -0.8345 -0.4495
 7418TIP3   OH222217   1.015   0.090   2.391  0.3742  0.2377 -0.0380
 7418TIP3    H122218   1.076   0.126   2.455  1.1320 -0.8917 -0.1111
 7418TIP3    H222219   1.048   0.002   2.372 -1.3440 -0.4552  0.0078
 7419TIP3   OH222220   2.874   2.317   4.223 -0.6626 -0.1009  0.3743
 7419TIP3    H122221   2.782   2.337   4.238 -1.0087 -1.6552  0.4681
 7419TIP3    H222222   2.882   2.224   4.243  0.9167 -0.0137  0.2836
 7420TIP3   OH222223   2.474   6.823   3.445  0.2480  0.3196  0.7940
 7420TIP3    H122224   2.450   6.770   3.369  0.3998  1.3304  0.0205
 7420TIP3    H222225   2.489   6.759   3.515 -2.1239 -0.5114  0.6307
 7421TIP3   OH222226   4.913   2.130   2.216  0.3564 -0.4114 -0.1308
 7421TIP3    H122227   4.837   2.188   2.223  0.4709 -0.3873  1.1373
 7421TIP3    H222228   4.988   2.188   2.227  0.5232 -0.6169 -0.1738
 7422TIP3   OH222229   5.905   2.348   3.006  0.0931 -0.5067 -0.3599
 7422TIP3    H122230   5.946   2.327   2.922 -0.3253  1.4928 -1.1218
 7422TIP3    H222231   5.854   2.270   3.027 -0.4742 -0.7620 -2.4215
 7423TIP3   OH222232   5.137   1.863   2.024 -0.5990  0.4076  0.5044
 7423TIP3    H122233   5.173   1.855   1.935 -1.8954 -0.8343  0.0602
 7423TIP3    H222234   5.147   1.955   2.045  0.3638  0.5996 -0.6548
 7424TIP3   OH222235   5.760   6.338   3.519  0.0883 -0.1147 -0.1405
 7424TIP3    H122236   5.816   6.298   3.452 -0.5562  0.3103 -0.9561
 7424TIP3    H222237   5.671   6.330   3.484 -0.0578  2.2441 -0.4862
 7425TIP3   OH222238   3.278   3.152   3.530 -0.2081  0.3960  0.0593
 7425TIP3    H122239   3.365   3.174   3.564  0.4167  1.5178 -2.0601
 7425TIP3    H222240   3.235   3.105   3.602  2.8596 -2.0282  0.5160
 7426TIP3   OH222241   3.835   1.934   2.395  0.5130 -0.0812  0.1343
 7426TIP3    H122242   3.816   1.840   2.398  0.3617 -0.0178  1.6827
 7426TIP3    H222243   3.911   1.941   2.337 -1.3831 -0.7916 -2.6666
 7427TIP3   OH222244   4.154   2.674   1.383 -0.1917 -0.0022 -0.6339
 7427TIP3    H122245   4.067   2.650   1.416  0.5198 -2.5814 -0.3691
 7427TIP3    H222246   4.168   2.763   1.414 -2.5998  0.3515 -0.4160
 7428TIP3   OH222247   0.145   0.408   4.447 -0.3645  0.0545  0.5596
 7428TIP3    H122248   0.180   0.322   4.470  1.6575  0.7870  0.4288
 7428TIP3    H222249   0.072   0.389   4.388  1.4152 -1.5772 -1.2757
 7429TIP3   OH222250   5.943   0.923   2.382 -0.2642 -0.1194  0.1763
 7429TIP3    H122251   6.005   0.886   2.319 -2.0464 -1.0739 -1.1116
 7429TIP3    H222252   5.912   1.003   2.340  1.1547  1.2104  1.5082
 7430TIP3   OH222253   2.528   5.444   4.086  0.0645 -0.0602 -0.0058
 7430TIP3    H122254   2.465   5.402   4.027  0.1556  0.0540 -0.1839
 7430TIP3    H222255   2.482   5.520   4.120 -0.0579 -0.2345  0.2227
 7431TIP3   OH222256   3.184   2.548   5.630  0.2335 -0.1781  0.9750
 7431TIP3    H122257   3.254   2.610   5.654 -0.7665  0.8933  1.2188
 7431TIP3    H222258   3.159   2.507   5.713 -0.2628  0.3450  1.0874
 7432TIP3   OH222259   0.710   2.932   3.561 -0.3444 -0.3805  0.0070
 7432TIP3    H122260   0.650   2.992   3.605 -1.4808 -0.2614 -1.6299
 7432TIP3    H222261   0.791   2.983   3.551 -0.1994 -0.2686  1.5126
 7433TIP3   OH222262   1.911   6.694   2.992 -0.0702 -0.4807 -0.4780
 7433TIP3    H122263   1.826   6.725   3.026  0.0286  0.7117 -1.2917
 7433TIP3    H222264   1.949   6.646   3.066 -0.4952  0.8333  0.6386
 7434TIP3   OH222265   4.832   1.089   2.738 -0.3665  0.3773  0.6224
 7434TIP3    H122266   4.817   1.045   2.655  0.3753  1.5176 -0.1289
 7434TIP3    H222267   4.761   1.153   2.745 -0.0810  0.7013  0.5720
 7435TIP3   OH222268   0.395   1.166   3.190 -0.8498 -0.1968 -0.3944
 7435TIP3    H122269   0.312   1.212   3.201  0.4019  2.3062 -0.7422
 7435TIP3    H222270   0.385   1.119   3.107 -1.4432  1.2909 -1.2066
 7436TIP3   OH222271   6.526   2.180   4.675 -0.8272  0.3585 -0.0282
 7436TIP3    H122272   6.537   2.108   4.613 -1.6906 -0.0401  0.2714
 7436TIP3    H222273   6.542   2.259   4.623 -1.1676  0.0094 -0.6733
 7437TIP3   OH222274   2.545   2.530   3.795 -0.7968  0.1188  0.3649
 7437TIP3    H122275   2.599   2.572   3.727 -2.5113 -0.3269 -1.3427
 7437TIP3    H222276   2.546   2.437   3.772  1.9832 -0.8051  3.4334
 7438TIP3   OH222277   2.716   5.876   2.159 -0.1680 -0.5066  0.1483
 7438TIP3    H122278   2.676   5.789   2.162 -0.6728 -0.2580  1.7611
 7438TIP3    H222279   2.810   5.860   2.163 -0.2814 -0.9771  1.2563
 7439TIP3   OH222280   5.345   3.970   2.484 -0.6714 -0.2481  0.0936
 7439TIP3    H122281   5.324   4.064   2.480  0.0306 -0.0964 -0.2048
 7439TIP3    H222282   5.262   3.928   2.504 -0.9202  0.4728  0.6172
 7440TIP3   OH222283   5.341   0.589   0.324 -0.2711 -0.0425 -0.6190
 7440TIP3    H122284   5.427   0.579   0.367 -0.5891  0.8644  0.2632
 7440TIP3    H222285   5.347   0.533   0.247  0.7669 -0.7743 -0.0457
 7441TIP3   OH222286   4.582   4.809   5.334  0.6725 -0.0416  0.4829
 7441TIP3    H122287   4.602   4.746   5.266  2.3128  0.6614  0.2677
 7441TIP3    H222288   4.540   4.758   5.403  0.1440 -0.9815 -0.5190
 7442TIP3   OH222289   4.035   2.306   2.161  0.3238  0.4429  0.1104
 7442TIP3    H122290   4.110   2.349   2.120  2.8019 -3.8780 -0.5286
 7442TIP3    H222291   3.981   2.276   2.088 -0.3266  0.7827  0.4428
 7443TIP3   OH222292   6.618   6.178   2.935 -0.0087 -0.2615  0.7059
 7443TIP3    H122293   6.612   6.234   2.858 -0.8951 -1.2780  0.0015
 7443TIP3    H222294   6.632   6.090   2.899 -0.3000 -0.7343  1.7095
 7444TIP3   OH222295   2.333   1.887   2.678 -0.7587 -0.2993  0.2911
 7444TIP3    H122296   2.389   1.961   2.653  2.2891 -2.7607 -0.8040
 7444TIP3    H222297   2.325   1.895   2.773 -0.3135  1.3112  0.2271
 7445TIP3   OH222298   3.965   4.716   5.640  0.1725 -0.3697 -0.2199
 7445TIP3    H122299   3.900   4.749   5.578  0.7211 -0.1196 -0.6732
 7445TIP3    H222300   3.921   4.718   5.725 -0.8869 -1.5596 -0.7179
 7446TIP3   OH222301   4.168   1.755   4.293 -0.0365 -0.4530  0.2240
 7446TIP3    H122302   4.101   1.809   4.252 -1.2867 -1.1256  1.3087
 7446TIP3    H222303   4.155   1.668   4.256  1.2512 -0.2982 -0.6806
 7447TIP3   OH222304   5.149   4.404   3.968 -0.1216 -0.4257 -0.9918
 7447TIP3    H122305   5.060   4.377   3.993  0.3388 -0.2613  0.9557
 7447TIP3    H222306   5.194   4.322   3.947  0.1995 -0.9159  1.3188
 7448TIP3   OH222307   6.215   1.042   4.943  0.0624  0.5178  0.3724
 7448TIP3    H122308   6.132   0.995   4.930 -1.0819  1.6468  2.8471
 7448TIP3    H222309   6.193   1.133   4.924  1.0628  0.6814 -0.0322
 7449TIP3   OH222310   2.235   4.598   5.140 -0.1190 -0.0573  0.4203
 7449TIP3    H122311   2.144   4.622   5.153 -0.1693 -0.8227  1.6090
 7449TIP3    H222312   2.259   4.548   5.218  0.8615 -1.2042 -0.5705
 7450TIP3   OH222313   1.941   4.150   4.824  0.2398 -0.0087  0.2046
 7450TIP3    H122314   1.877   4.178   4.890 -2.9752  0.0749 -2.6437
 7450TIP3    H222315   1.925   4.209   4.749  2.8766 -0.8107 -1.0967
 7451TIP3   OH222316   4.066   1.915   4.766 -0.4491  0.0038  0.5559
 7451TIP3    H122317   3.995   1.955   4.715  1.6266  1.6141 -1.2614
 7451TIP3    H222318   4.088   1.835   4.718  0.5214  0.7643 -0.3250
 7452TIP3   OH222319   3.444   5.482   2.292 -0.0473 -0.2436  0.4054
 7452TIP3    H122320   3.432   5.432   2.373  2.4542 -0.4717  0.7029
 7452TIP3    H222321   3.361   5.529   2.281 -1.5693 -2.5218  1.4261
 7453TIP3   OH222322   2.222   2.522   0.637 -0.1682 -0.2456  0.1526
 7453TIP3    H122323   2.146   2.568   0.601  0.7701  1.7776  0.5860
 7453TIP3    H222324   2.265   2.587   0.693  1.8314 -1.3430  0.0003
 7454TIP3   OH222325   2.485   4.813   0.412  0.2080  0.1875 -0.5375
 7454TIP3    H122326   2.542   4.746   0.450 -0.7877 -0.8071 -0.7471
 7454TIP3    H222327   2.537   4.850   0.340  1.3637  0.7483  0.5347
 7455TIP3   OH222328   4.451   4.630   5.515 -0.1691 -0.2257  0.0309
 7455TIP3    H122329   4.487   4.549   5.477 -0.6439  0.1147 -1.1911
 7455TIP3    H222330   4.377   4.601   5.567 -0.4236 -0.5718 -0.5124
 7456TIP3   OH222331   5.987   0.353   4.955  0.4122  0.2585 -0.1411
 7456TIP3    H122332   6.016   0.320   5.040 -1.3365  0.9205  0.7732
 7456TIP3    H222333   5.900   0.389   4.972 -0.7082 -1.0686 -2.5629
 7457TIP3   OH222334   3.200   4.710   3.091  0.0326  0.2644 -0.0842
 7457TIP3    H122335   3.226   4.618   3.088  0.1561  0.3225 -0.9198
 7457TIP3    H222336   3.133   4.718   3.023  1.0267  1.0979 -0.9892
 7458TIP3   OH222337   7.183   0.337   4.268  0.3113 -0.6466 -0.3443
 7458TIP3    H122338   7.140   0.344   4.183  0.0119  0.7501 -0.0968
 7458TIP3    H222339   7.117   0.366   4.331  0.4405 -1.9197  0.4065
 7459TIP3   OH222340   0.344   4.223   3.623 -0.1620  0.0898  0.4085
 7459TIP3    H122341   0.321   4.212   3.531 -0.9552 -1.1733  0.7332
 7459TIP3    H222342   0.279   4.286   3.656 -0.0114  0.3762  0.1632
 7460TIP3   OH222343   7.008   1.355   5.022 -0.5005 -0.1859 -0.0346
 7460TIP3    H122344   6.968   1.406   4.952  1.4224 -0.6351 -1.5694
 7460TIP3    H222345   7.026   1.270   4.981  2.5861  0.2219  0.2857
 7461TIP3   OH222346   6.340   3.889   3.331 -0.2246 -0.8660 -0.7357
 7461TIP3    H122347   6.408   3.951   3.304 -0.9415  1.2215  1.7636
 7461TIP3    H222348   6.383   3.835   3.397 -0.5028 -0.7287 -0.4394
 7462TIP3   OH222349   3.020   2.371   1.925 -0.5152  0.1094 -0.0290
 7462TIP3    H122350   3.114   2.374   1.942  0.0147 -1.1588 -2.2814
 7462TIP3    H222351   2.979   2.386   2.010  1.6943  1.7965  0.8246
 7463TIP3   OH222352   1.259   6.622   0.094  0.0619 -0.0597  0.1420
 7463TIP3    H122353   1.343   6.659   0.122  0.4586 -0.6057 -0.3081
 7463TIP3    H222354   1.280   6.570   0.017 -0.8346  0.4768 -0.4785
 7464TIP3   OH222355   3.478   3.946   1.851 -0.1887 -0.1275 -0.1361
 7464TIP3    H122356   3.408   3.946   1.916  0.3572  1.0312  0.4928
 7464TIP3    H222357   3.555   3.916   1.899 -0.3183 -1.8343 -0.9358
 7465TIP3   OH222358   4.605   2.965   2.186  0.4837 -0.6838 -0.1365
 7465TIP3    H122359   4.616   2.870   2.182 -1.1307 -0.9325  0.5121
 7465TIP3    H222360   4.510   2.978   2.193  0.7119  0.9483  0.3957
 7466TIP3   OH222361   7.190   3.346   2.929 -0.0033 -0.2152 -0.1213
 7466TIP3    H122362   7.121   3.410   2.912 -0.7966 -1.4104 -1.5918
 7466TIP3    H222363   7.270   3.398   2.936 -0.7140  0.9852 -0.6385
 7467TIP3   OH222364   3.735   3.356   1.351 -0.0922 -0.3487  0.2755
 7467TIP3    H122365   3.783   3.279   1.320  1.2443 -0.5460  2.5441
 7467TIP3    H222366   3.681   3.323   1.423 -0.0219  0.6895  0.8258
 7468TIP3   OH222367   4.441   3.515   5.202 -0.2220 -1.2683  0.1088
 7468TIP3    H122368   4.441   3.458   5.279  2.9564 -0.6259  0.7307
 7468TIP3    H222369   4.498   3.470   5.139  0.8227  0.2988 -0.1105
 7469TIP3   OH222370   7.112   0.389   4.811  0.3191 -0.3950  0.4867
 7469TIP3    H122371   7.165   0.349   4.880 -0.1541 -0.5630  0.7615
 7469TIP3    H222372   7.074   0.316   4.764 -0.8168 -0.2943  1.2001
 7470TIP3   OH222373   3.233   6.210   3.458 -0.2017 -0.8397 -0.1396
 7470TIP3    H122374   3.260   6.292   3.417 -1.1249  0.1338  1.1428
 7470TIP3    H222375   3.248   6.144   3.390  1.4111  0.2367 -0.8927
 7471TIP3   OH222376   0.086   2.073   3.259  0.5972  0.3262  0.6440
 7471TIP3    H122377   0.045   2.148   3.216  2.1051  1.9688  1.9146
 7471TIP3    H222378   0.165   2.057   3.208  0.4492 -0.2063  0.5774
 7472TIP3   OH222379   3.263   1.576   3.712 -0.1429  0.1953  0.1769
 7472TIP3    H122380   3.199   1.643   3.692  0.8081  2.0282  2.6551
 7472TIP3    H222381   3.222   1.494   3.687 -2.1825  1.5337 -1.0897
 7473TIP3   OH222382   4.471   5.938   1.219 -0.2283  0.1816 -0.9084
 7473TIP3    H122383   4.411   5.910   1.150 -0.2177 -3.1106  0.2422
 7473TIP3    H222384   4.541   5.873   1.217 -1.2566 -1.3920  3.3905
 7474TIP3   OH222385   4.678   4.390   3.342  0.6474  0.0645  0.3442
 7474TIP3    H122386   4.759   4.414   3.297  1.1203  0.2736  1.2995
 7474TIP3    H222387   4.696   4.403   3.435  0.5055 -2.7514  0.8528
 7475TIP3   OH222388   5.744   0.953   3.018 -0.3344 -0.1984  0.1467
 7475TIP3    H122389   5.825   0.923   2.978  0.5955  1.7474  0.4711
 7475TIP3    H222390   5.717   0.880   3.075  0.5682 -1.3099 -0.8020
 7476TIP3   OH222391   6.060   1.715   3.216 -0.1429  0.0299  0.1459
 7476TIP3    H122392   5.974   1.748   3.191 -0.9621 -1.0345  1.4882
 7476TIP3    H222393   6.087   1.771   3.289  0.0854  0.0408  0.0541
 7477TIP3   OH222394   6.399   6.324   0.583  0.2016 -0.1185 -0.4023
 7477TIP3    H122395   6.437   6.328   0.671 -0.0633 -0.5612 -0.2652
 7477TIP3    H222396   6.310   6.293   0.597  0.6269 -1.6521 -0.9747
 7478TIP3   OH222397   4.349   2.949   0.825 -0.2114 -0.0511  0.1984
 7478TIP3    H122398   4.352   3.044   0.814 -2.2735  0.0822  0.4107
 7478TIP3    H222399   4.439   2.925   0.851  0.1722  1.9193  0.8572
 7479TIP3   OH222400   3.429   0.412   5.157 -0.2836  0.0573 -0.2916
 7479TIP3    H122401   3.409   0.487   5.213 -1.6930 -0.2706 -0.2986
 7479TIP3    H222402   3.518   0.386   5.181 -0.7326  0.1308  1.5906
 7480TIP3   OH222403   1.667   0.515   3.961 -0.2194 -0.1666  0.0826
 7480TIP3    H122404   1.696   0.451   3.897  0.1000  0.3446 -0.2941
 7480TIP3    H222405   1.693   0.478   4.046  0.8675 -0.0814 -0.1936
 7481TIP3   OH222406   6.144   0.377   0.089  0.1644  0.4377  0.1430
 7481TIP3    H122407   6.115   0.303   0.141 -0.0300  0.7977  0.5576
 7481TIP3    H222408   6.239   0.370   0.086  0.0931 -0.3291 -0.5857
 7482TIP3   OH222409   1.934   5.574   1.218 -0.5445 -0.6319 -0.0249
 7482TIP3    H122410   1.923   5.551   1.310 -0.4715  0.4690  0.2712
 7482TIP3    H222411   1.999   5.512   1.186 -0.9377 -1.3466  0.5342
 7483TIP3   OH222412   4.236   5.243   0.314  0.0466 -1.0164  0.7651
 7483TIP3    H122413   4.325   5.275   0.332 -0.3351 -1.5208  4.0210
 7483TIP3    H222414   4.248   5.179   0.244  1.8506  0.6399 -0.5905
 7484TIP3   OH222415   3.553   5.776   0.763  0.2672 -0.4204 -0.3100
 7484TIP3    H122416   3.586   5.812   0.845 -0.6554 -1.1604  0.4108
 7484TIP3    H222417   3.561   5.848   0.700 -0.4475  0.6798  0.8019
 7485TIP3   OH222418   3.748   4.884   3.115  0.5738  0.2370 -0.0848
 7485TIP3    H122419   3.752   4.850   3.204 -0.3327 -1.5012 -0.6650
 7485TIP3    H222420   3.775   4.976   3.123 -1.7159  0.8200  2.3334
 7486TIP3   OH222421   6.526   4.514   4.250  0.6620 -0.2540  0.1365
 7486TIP3    H122422   6.504   4.502   4.342 -1.2001  1.8909  0.0549
 7486TIP3    H222423   6.494   4.435   4.206 -1.1269 -0.0430  0.9724
 7487TIP3   OH222424   1.616   0.460   1.505  0.6910 -0.1239  0.6835
 7487TIP3    H122425   1.601   0.403   1.429  0.4260  0.3144  0.3992
 7487TIP3    H222426   1.576   0.544   1.480 -0.0916 -0.1955  1.6118
 7488TIP3   OH222427   4.265   2.623   5.703  0.4224  0.0438 -0.6626
 7488TIP3    H122428   4.234   2.541   5.664 -3.3562  0.1437  1.6609
 7488TIP3    H222429   4.237   2.690   5.641 -0.0733 -0.1982 -0.7119
 7489TIP3   OH222430   7.037   1.415   3.469 -1.5678 -0.5743  0.1730
 7489TIP3    H122431   7.018   1.488   3.528 -0.5719 -0.6126  0.5602
 7489TIP3    H222432   7.132   1.407   3.472 -1.6173 -1.4274 -0.4288
 7490TIP3   OH222433   5.073   1.746   0.885 -0.4009 -0.7803 -0.2139
 7490TIP3    H122434   5.037   1.768   0.799 -1.5031 -1.2988  0.0881
 7490TIP3    H222435   5.000   1.762   0.945  0.0024 -1.4946  0.4753
 7491TIP3   OH222436   1.052   6.244   2.739 -0.1094 -0.0969  0.4989
 7491TIP3    H122437   1.011   6.286   2.664  0.9895 -0.7825 -0.5278
 7491TIP3    H222438   1.126   6.301   2.761 -0.6603  0.3092  1.3219
 7492TIP3   OH222439   0.625   5.407   2.177 -0.3444  0.1185  0.0223
 7492TIP3    H122440   0.704   5.355   2.194 -1.4422 -1.9016 -0.6806
 7492TIP3    H222441   0.599   5.383   2.088 -1.1358  1.6157 -0.1736
 7493TIP3   OH222442   6.112   3.968   5.672  0.8594 -0.3451  0.0081
 7493TIP3    H122443   6.206   3.978   5.658  0.9239 -0.6548  0.2133
 7493TIP3    H222444   6.097   3.874   5.668  0.4323 -0.2584 -0.8177
 7494TIP3   OH222445   4.348   2.440   0.771  0.0283  0.2807  0.2052
 7494TIP3    H122446   4.429   2.392   0.789  0.2825  0.0752 -1.3781
 7494TIP3    H222447   4.370   2.531   0.790 -0.5718 -0.1348  3.6364
 7495TIP3   OH222448   3.240   0.356   3.530  0.0143  0.1834  0.2427
 7495TIP3    H122449   3.285   0.336   3.612  1.5440  1.4993 -0.2295
 7495TIP3    H222450   3.242   0.451   3.525  1.4316  0.1035 -2.0604
 7496TIP3   OH222451   0.303   3.795   5.553 -0.0145 -0.0058  0.5396
 7496TIP3    H122452   0.382   3.846   5.572  1.1741 -1.0815 -1.2590
 7496TIP3    H222453   0.334   3.720   5.503 -2.2304 -0.2518 -0.6024
 7497TIP3   OH222454   0.484   1.416   5.330  1.2274 -0.2111 -0.2716
 7497TIP3    H122455   0.574   1.413   5.298  0.6531  0.5251 -2.0817
 7497TIP3    H222456   0.489   1.379   5.418  3.4503  0.6422  0.0425
 7498TIP3   OH222457   3.081   5.597   4.156  1.0069 -0.1818 -0.5577
 7498TIP3    H122458   3.127   5.680   4.145 -1.2543  1.1839 -0.3157
 7498TIP3    H222459   3.123   5.556   4.232  0.2781  2.1567  1.2167
 7499TIP3   OH222460   7.054   5.670   3.446 -0.3276 -0.1389 -0.1721
 7499TIP3    H122461   6.983   5.618   3.409  1.0299 -0.4137 -2.5829
 7499TIP3    H222462   7.109   5.605   3.492 -1.3909  0.0277  1.4080
 7500TIP3   OH222463   5.394   5.615   3.352  0.0415 -0.5050 -0.0717
 7500TIP3    H122464   5.348   5.680   3.406  0.1478  0.1399 -0.7501
 7500TIP3    H222465   5.410   5.542   3.412 -0.2490  0.0112  0.6521
 7501TIP3   OH222466   3.393   5.152   2.596  0.3158  0.2095  0.3176
 7501TIP3    H122467   3.345   5.127   2.675 -3.0491 -0.3177 -1.6642
 7501TIP3    H222468   3.388   5.075   2.539  2.4719  0.6276 -0.5469
 7502TIP3   OH222469   2.087   1.174   1.264  0.1497  0.6482 -0.1325
 7502TIP3    H122470   1.993   1.167   1.284 -0.6297  0.5752 -3.3262
 7502TIP3    H222471   2.109   1.088   1.228  0.9855  1.2434 -1.0632
 7503TIP3   OH222472   3.565   4.680   1.341 -0.2474  0.0447  0.1996
 7503TIP3    H122473   3.531   4.684   1.251  0.0456  2.0859  0.1233
 7503TIP3    H222474   3.486   4.688   1.395 -0.4231 -1.1704  0.1574
 7504TIP3   OH222475   4.396   5.922   5.695 -0.3430  0.5794  0.0770
 7504TIP3    H122476   4.329   5.861   5.728  2.3263 -2.2289  0.7217
 7504TIP3    H222477   4.459   5.930   5.767  0.8217  1.9047 -1.0392
 7505TIP3   OH222478   5.613   6.388   5.379 -0.1149  0.5620 -0.0918
 7505TIP3    H122479   5.703   6.373   5.406 -0.5303 -0.5913  0.7195
 7505TIP3    H222480   5.619   6.407   5.285  0.7722 -2.4532 -0.7835
 7506TIP3   OH222481   1.196   1.026   2.381 -0.6831 -0.3125  0.0599
 7506TIP3    H122482   1.269   1.003   2.438 -1.2193 -0.1476  0.8280
 7506TIP3    H222483   1.130   0.958   2.396 -1.1992  0.2342  0.3465
 7507TIP3   OH222484   5.458   2.641   2.063 -0.5685  0.1670 -0.3172
 7507TIP3    H122485   5.385   2.580   2.048 -0.7257  0.5652 -1.1974
 7507TIP3    H222486   5.443   2.675   2.152  0.3764 -2.2251  0.8497
 7508TIP3   OH222487   3.047   2.127   2.195  0.0778 -0.1719  0.0796
 7508TIP3    H122488   3.003   2.043   2.177  0.7443 -0.0607 -2.5871
 7508TIP3    H222489   2.986   2.193   2.162  0.5756  0.2125 -0.0886
 7509TIP3   OH222490   6.120   1.849   3.444  0.1577  0.9672 -0.1047
 7509TIP3    H122491   6.034   1.873   3.479 -0.2571 -0.6704  0.0699
 7509TIP3    H222492   6.169   1.817   3.520  0.2289  0.0434 -0.5243
 7510TIP3   OH222493   7.119   5.031   0.098  0.1759  0.1715  0.4739
 7510TIP3    H122494   7.190   4.969   0.112  0.6204  0.7297  0.7347
 7510TIP3    H222495   7.147   5.085   0.024  0.7218  1.3624  1.5115
 7511TIP3   OH222496   0.179   4.560   2.837  0.2653 -0.4779 -0.2354
 7511TIP3    H122497   0.149   4.651   2.827  0.2745 -0.6209 -1.8330
 7511TIP3    H222498   0.128   4.511   2.773  0.7600 -1.4873  0.1288
 7512TIP3   OH222499   6.763   5.526   3.603  0.0524 -0.5651  0.3305
 7512TIP3    H122500   6.681   5.515   3.554 -0.7730  0.2417  1.4725
 7512TIP3    H222501   6.796   5.437   3.615 -1.3860 -1.0334  1.0362
 7513TIP3   OH222502   3.509   6.046   5.564  0.1519 -0.4130 -0.1307
 7513TIP3    H122503   3.500   5.955   5.534 -1.5732 -0.0539 -0.8146
 7513TIP3    H222504   3.423   6.085   5.548  0.3161  0.8698  1.7769
 7514TIP3   OH222505   0.664   4.225   5.641  0.6076  0.1242 -0.7252
 7514TIP3    H122506   0.652   4.166   5.716 -2.3055 -0.2752 -1.3756
 7514TIP3    H222507   0.656   4.313   5.678  0.5579 -0.0227 -0.3827
 7515TIP3   OH222508   2.918   0.301   2.032 -0.3081  0.5039  0.0328
 7515TIP3    H122509   2.835   0.268   2.066 -0.9145  0.4297 -1.4633
 7515TIP3    H222510   2.985   0.246   2.074 -1.1788 -1.2516 -0.7958
 7516TIP3   OH222511   6.673   1.666   4.435  0.3772 -0.0389  0.2984
 7516TIP3    H122512   6.674   1.645   4.342 -0.0571  1.0099  0.0410
 7516TIP3    H222513   6.646   1.758   4.439  0.9741  0.1086  1.4262
 7517TIP3   OH222514   3.220   4.759   5.891  0.0758  0.1927  0.3186
 7517TIP3    H122515   3.219   4.671   5.928 -0.1434 -0.1404 -0.4557
 7517TIP3    H222516   3.128   4.777   5.870  0.1413  0.5419  0.3268
 7518TIP3   OH222517   1.935   5.601   0.189 -0.4313  0.1625  0.4218
 7518TIP3    H122518   1.973   5.537   0.129  0.7439  0.8847  0.3441
 7518TIP3    H222519   1.861   5.557   0.229 -0.3783 -0.8180 -0.5255
 7519TIP3   OH222520   4.656   3.700   3.096  0.0248  0.5365  0.0869
 7519TIP3    H122521   4.618   3.706   3.184 -2.8129 -1.8922 -0.8351
 7519TIP3    H222522   4.634   3.783   3.055 -1.2262  0.5528  0.7440
 7520TIP3   OH222523   6.666   2.010   2.741 -0.9484  0.1105  0.3902
 7520TIP3    H122524   6.618   1.959   2.675  0.8654 -0.1220 -0.8382
 7520TIP3    H222525   6.650   2.101   2.718 -0.0501  0.0332 -0.6636
 7521TIP3   OH222526   3.590   2.311   5.871  1.0109  0.2367  0.3928
 7521TIP3    H122527   3.644   2.236   5.895 -0.8416 -1.4362 -0.3289
 7521TIP3    H222528   3.603   2.321   5.776 -1.6857 -1.8589 -0.3485
 7522TIP3   OH222529   4.145   0.730   0.113  0.1671  0.6041  0.0834
 7522TIP3    H122530   4.189   0.773   0.186  0.5775  1.4473 -0.6441
 7522TIP3    H222531   4.058   0.709   0.147  1.7956 -3.5085  2.4780
 7523TIP3   OH222532   6.662   1.336   0.129 -0.7443  0.9426  0.2025
 7523TIP3    H122533   6.676   1.285   0.050 -1.1921  0.1397  0.6306
 7523TIP3    H222534   6.750   1.347   0.166 -0.5430  1.2543 -0.3563
 7524TIP3   OH222535   0.033   4.667   4.744  0.1764 -0.3940 -0.0124
 7524TIP3    H122536   0.122   4.701   4.743  0.1383 -0.2996 -0.7749
 7524TIP3    H222537   0.039   4.585   4.794  0.9180 -0.9669 -1.0000
 7525TIP3   OH222538   6.781   4.546   5.437  0.1394 -0.2894 -0.1095
 7525TIP3    H122539   6.785   4.628   5.387 -0.7112 -1.0512 -1.4908
 7525TIP3    H222540   6.687   4.529   5.447  0.3084 -0.8485  0.5924
 7526TIP3   OH222541   5.145   6.444   1.618 -0.2387  0.3967 -0.2980
 7526TIP3    H122542   5.220   6.497   1.644 -0.3773  0.8000 -0.7065
 7526TIP3    H222543   5.165   6.416   1.528  0.0255 -0.5976  0.0563
 7527TIP3   OH222544   2.280   2.568   3.807 -0.2472  0.0119 -0.2596
 7527TIP3    H122545   2.272   2.589   3.901  0.7216 -0.9359  0.0503
 7527TIP3    H222546   2.374   2.563   3.791 -0.3464  1.5373 -1.6346
 7528TIP3   OH222547   1.300   2.591   4.367  0.2830  0.6497 -0.1554
 7528TIP3    H122548   1.384   2.624   4.336  0.4988 -0.7279 -1.1698
 7528TIP3    H222549   1.270   2.533   4.297 -0.4437 -0.6190  1.1530
 7529TIP3   OH222550   2.767   4.117   1.590 -0.5165 -0.3543  0.0864
 7529TIP3    H122551   2.844   4.106   1.534 -0.8075 -0.4705 -0.3012
 7529TIP3    H222552   2.782   4.200   1.636 -1.7750  1.5914 -2.6765
 7530TIP3   OH222553   3.740   5.738   5.866  0.2300  0.1886 -0.2622
 7530TIP3    H122554   3.674   5.685   5.819  1.0923 -0.2627 -0.9935
 7530TIP3    H222555   3.749   5.817   5.812 -0.4371  0.7094  0.3761
 7531TIP3   OH222556   2.761   5.739   5.119  0.2667 -0.0809 -0.1732
 7531TIP3    H122557   2.780   5.795   5.044  1.3302  0.9516  0.8354
 7531TIP3    H222558   2.792   5.652   5.093  2.6145  0.7055 -0.1517
 7532TIP3   OH222559   2.142   3.998   4.997  0.7121 -0.5054  0.6939
 7532TIP3    H122560   2.141   4.076   5.052 -4.5653  1.1994 -1.1670
 7532TIP3    H222561   2.099   3.931   5.051  1.4625 -0.8706  0.8478
 7533TIP3   OH222562   0.719   4.800   4.327 -0.3266  0.0497 -0.3074
 7533TIP3    H122563   0.770   4.748   4.390  1.2638 -0.0493 -1.6085
 7533TIP3    H222564   0.644   4.832   4.378  0.4599 -0.6949  1.4175
 7534TIP3   OH222565   5.777   2.981   3.078 -0.2729  0.1028 -0.6374
 7534TIP3    H122566   5.695   2.940   3.107  0.3166 -1.0392 -0.5109
 7534TIP3    H222567   5.767   3.073   3.100 -1.8078  0.1185 -1.2605
 7535TIP3   OH222568   0.217   0.790   0.731  0.0875 -0.0748 -0.0511
 7535TIP3    H122569   0.165   0.801   0.652  3.2096 -0.7159 -2.3753
 7535TIP3    H222570   0.243   0.879   0.755  0.7639 -0.0034 -0.9898
 7536TIP3   OH222571   1.722   4.988   1.320 -0.3001  0.4967 -0.2323
 7536TIP3    H122572   1.632   4.959   1.305 -0.5090 -0.5710  2.4813
 7536TIP3    H222573   1.716   5.084   1.323 -1.0186  0.5246 -1.5712
 7537TIP3   OH222574   5.183   2.852   4.870 -0.1535  0.3176  0.4635
 7537TIP3    H122575   5.179   2.762   4.903 -0.7377  0.5255  0.9711
 7537TIP3    H222576   5.092   2.879   4.863  0.0100  0.7111 -0.1369
 7538TIP3   OH222577   2.922   4.444   0.823 -0.2051  0.3464  0.2017
 7538TIP3    H122578   2.912   4.537   0.803 -0.1053  0.1890 -0.6297
 7538TIP3    H222579   3.015   4.434   0.845  0.0964  0.2231 -1.0357
 7539TIP3   OH222580   4.929   5.084   1.732 -0.6369  0.5285  0.3892
 7539TIP3    H122581   4.929   5.158   1.671  0.9848  0.0135 -0.2726
 7539TIP3    H222582   4.859   5.027   1.701 -0.9079  1.0686 -0.0042
 7540TIP3   OH222583   7.128   5.160   5.703  0.1446 -0.3831 -0.1783
 7540TIP3    H122584   7.161   5.072   5.685  2.8196  0.8722 -2.2754
 7540TIP3    H222585   7.147   5.175   5.795 -0.8799 -2.1471  0.3601
 7541TIP3   OH222586   2.003   0.483   0.973 -0.1684  0.3632 -0.4854
 7541TIP3    H122587   2.066   0.462   0.904  0.5652 -0.6665  0.4761
 7541TIP3    H222588   1.926   0.513   0.925  0.7003  0.7461 -1.7223
 7542TIP3   OH222589   6.487   3.451   5.156 -0.1639 -0.4563 -0.6301
 7542TIP3    H122590   6.488   3.358   5.133  0.5531 -0.5199 -0.3619
 7542TIP3    H222591   6.404   3.464   5.202 -0.0979 -1.0491 -0.3384
 7543TIP3   OH222592   5.059   6.293   4.902 -0.0452 -0.4229  0.8081
 7543TIP3    H122593   5.100   6.337   4.828  2.6339  0.3274  2.6098
 7543TIP3    H222594   5.000   6.358   4.940  0.8171  0.2141  1.0654
 7544TIP3   OH222595   1.486   3.280   0.092  0.7637 -0.2726 -0.4065
 7544TIP3    H122596   1.402   3.305   0.052 -2.1548 -2.6275  3.4760
 7544TIP3    H222597   1.508   3.196   0.051 -0.5643 -1.1969  0.7042
 7545TIP3   OH222598   4.950   0.379   4.939  0.0126  0.3418 -0.7576
 7545TIP3    H122599   5.042   0.368   4.913  0.5584  1.0292  0.7588
 7545TIP3    H222600   4.937   0.316   5.009  0.0030  1.7054  0.5243
 7546TIP3   OH222601   3.455   5.499   0.834  0.7913  0.0692  0.2300
 7546TIP3    H122602   3.458   5.594   0.821  1.9982  0.1557  0.9730
 7546TIP3    H222603   3.454   5.463   0.745 -1.3026  0.7856 -0.0753
 7547TIP3   OH222604   4.145   4.399   4.080 -0.1371 -0.2331 -0.2429
 7547TIP3    H122605   4.071   4.353   4.119 -0.4765 -0.7459 -1.4395
 7547TIP3    H222606   4.145   4.486   4.121 -2.8744  0.6446 -1.8827
 7548TIP3   OH222607   4.649   0.394   5.793  0.2124 -0.1971 -0.7886
 7548TIP3    H122608   4.612   0.475   5.830 -0.1567  0.8247 -3.1780
 7548TIP3    H222609   4.732   0.422   5.753  1.6255 -1.6632  0.9569
 7549TIP3   OH222610   4.550   2.584   3.848  0.5771  0.2513  0.2490
 7549TIP3    H122611   4.467   2.538   3.863  0.5188  0.1674 -0.3150
 7549TIP3    H222612   4.616   2.515   3.844  0.2319 -0.0429 -2.6332
 7550TIP3   OH222613   3.630   2.089   0.132  0.0487 -0.2622 -0.0273
 7550TIP3    H122614   3.705   2.136   0.095 -1.8869  1.4511 -2.0541
 7550TIP3    H222615   3.602   2.143   0.205  1.0294 -1.1634  1.0465
 7551TIP3   OH222616   4.765   5.953   2.720  0.2658  0.0664  0.4676
 7551TIP3    H122617   4.793   5.900   2.646  0.3339 -0.6405  0.9873
 7551TIP3    H222618   4.833   6.021   2.727  0.7609 -0.4172  0.4517
 7552TIP3   OH222619   0.623   5.882   4.084  0.1046  0.1918 -0.1660
 7552TIP3    H122620   0.649   5.839   4.003 -0.8666  0.6845 -0.7619
 7552TIP3    H222621   0.704   5.915   4.122  0.4418  1.0793 -1.5966
 7553TIP3   OH222622   6.882   3.092   5.875  0.6604 -0.2945 -0.1897
 7553TIP3    H122623   6.899   3.144   5.796 -0.7672  0.3790 -0.0755
 7553TIP3    H222624   6.951   3.026   5.875 -0.1541 -1.2251 -2.7845
 7554TIP3   OH222625   4.291   4.427   2.618 -0.3810 -0.6316  0.2288
 7554TIP3    H122626   4.245   4.477   2.685 -0.3628 -1.9242  1.2483
 7554TIP3    H222627   4.301   4.488   2.545 -3.4112 -0.1849  0.0773
 7555TIP3   OH222628   4.974   2.253   1.542  0.5563  0.8651 -0.1478
 7555TIP3    H122629   4.902   2.287   1.489 -1.0374 -1.4625  0.3227
 7555TIP3    H222630   4.953   2.280   1.631 -0.1882 -0.3776  0.0880
 7556TIP3   OH222631   6.526   0.230   0.521 -0.6760  0.9000  0.5384
 7556TIP3    H122632   6.565   0.293   0.460  1.4093  0.3291  1.1776
 7556TIP3    H222633   6.580   0.236   0.599 -1.5161 -0.4308  1.2600
 7557TIP3   OH222634   2.191   5.580   5.596  0.1406 -0.2320  0.5821
 7557TIP3    H122635   2.260   5.620   5.648 -0.4752 -0.3891  1.5513
 7557TIP3    H222636   2.180   5.638   5.521  2.3249 -0.9709 -0.3918
 7558TIP3   OH222637   1.912   0.996   2.556 -0.3237 -0.4525 -0.4110
 7558TIP3    H122638   1.844   1.053   2.593  1.5971  1.5621  0.2483
 7558TIP3    H222639   1.972   0.981   2.629 -0.2944 -2.6662 -0.8299
 7559TIP3   OH222640   0.192   2.567   1.881 -0.6698 -0.5174 -0.1159
 7559TIP3    H122641   0.118   2.612   1.922  0.4102  2.1479 -0.8404
 7559TIP3    H222642   0.269   2.613   1.915  0.6508 -2.7329  0.0637
 7560TIP3   OH222643   5.837   1.397   1.418  0.2316  0.2269 -0.3972
 7560TIP3    H122644   5.927   1.401   1.388  0.0468 -0.2043 -1.0219
 7560TIP3    H222645   5.808   1.489   1.420  0.5808  0.3386 -0.5011
 7561TIP3   OH222646   6.642   3.476   1.762 -0.3483  0.1376  0.2284
 7561TIP3    H122647   6.639   3.428   1.679  0.5032 -0.2869  0.4269
 7561TIP3    H222648   6.675   3.563   1.738  0.8309 -0.2871  0.2285
 7562TIP3   OH222649   2.633   3.503   5.177  0.3827 -0.1101 -0.4472
 7562TIP3    H122650   2.661   3.584   5.134 -1.8237  1.1095  0.2423
 7562TIP3    H222651   2.632   3.438   5.107 -0.1893  1.0764 -1.5894
 7563TIP3   OH222652   1.292   1.729   4.140 -0.5717  0.1125 -0.0912
 7563TIP3    H122653   1.254   1.762   4.059  0.0350 -1.6626 -1.1447
 7563TIP3    H222654   1.380   1.701   4.116 -0.9802 -2.1182  0.6987
 7564TIP3   OH222655   5.903   6.077   1.456 -0.4510  0.2048 -0.7862
 7564TIP3    H122656   5.864   6.012   1.399  1.1018  0.4189 -2.1654
 7564TIP3    H222657   5.949   6.137   1.397  0.3717  1.0198  0.6072
 7565TIP3   OH222658   1.043   2.764   2.279  0.3567 -0.5145 -0.0012
 7565TIP3    H122659   1.008   2.706   2.347 -0.1383  0.3389  0.4938
 7565TIP3    H222660   1.138   2.753   2.285  0.2906 -0.9609  0.3641
 7566TIP3   OH222661   6.191   5.099   5.756  0.1422 -0.9173 -0.7162
 7566TIP3    H122662   6.177   5.172   5.695 -0.1043 -1.4007 -1.2522
 7566TIP3    H222663   6.184   5.139   5.843  1.8173  0.0346 -0.9787
 7567TIP3   OH222664   1.370   3.262   3.745  0.1494 -0.5150  0.2678
 7567TIP3    H122665   1.380   3.247   3.839  0.8598 -2.4556 -0.0808
 7567TIP3    H222666   1.286   3.222   3.722  0.9424 -1.9303 -0.2610
 7568TIP3   OH222667   3.865   3.116   4.638  0.4182 -0.2053  0.6513
 7568TIP3    H122668   3.957   3.139   4.654  0.3367  1.4447 -0.9140
 7568TIP3    H222669   3.844   3.160   4.556 -1.7891 -0.5615  0.9820
 7569TIP3   OH222670   1.507   6.196   0.270  0.2013 -0.0766  0.2302
 7569TIP3    H122671   1.555   6.119   0.299 -0.1314  0.1919  1.5984
 7569TIP3    H222672   1.533   6.265   0.331 -1.5949  0.1720  0.7880
 7570TIP3   OH222673   5.624   5.145   2.987  0.5707 -0.2684  0.1269
 7570TIP3    H122674   5.596   5.216   2.930  0.1145 -0.5942 -0.0599
 7570TIP3    H222675   5.709   5.118   2.952  0.9011  0.3950  0.3980
 7571TIP3   OH222676   3.794   4.640   0.756 -0.0203  0.3476 -0.0634
 7571TIP3    H122677   3.775   4.548   0.774 -0.0671  0.9329  3.6384
 7571TIP3    H222678   3.722   4.688   0.797 -0.1841  2.0946 -2.2177
 7572TIP3   OH222679   2.600   0.877   3.024  0.5564  0.3771  0.2749
 7572TIP3    H122680   2.649   0.923   3.093  0.8284  1.3120 -0.5104
 7572TIP3    H222681   2.664   0.818   2.985  0.1153 -0.9605  1.5141
 7573TIP3   OH222682   0.866   6.159   4.717  0.7040 -0.1080 -0.5371
 7573TIP3    H122683   0.927   6.216   4.670  0.2536  0.0027 -1.0064
 7573TIP3    H222684   0.846   6.089   4.654 -1.8699  1.3805 -1.5159
 7574TIP3   OH222685   5.971   5.100   1.830 -0.2187 -0.2379 -0.3692
 7574TIP3    H122686   6.060   5.099   1.795 -0.5966 -1.7899 -1.3571
 7574TIP3    H222687   5.974   5.166   1.900  2.1926 -1.5059  0.8663
 7575TIP3   OH222688   3.728   0.425   1.303  0.3458  0.5752  0.4526
 7575TIP3    H122689   3.788   0.446   1.232  0.3372  0.6641  0.4719
 7575TIP3    H222690   3.739   0.331   1.316 -1.1600  0.1374 -1.0740
 7576TIP3   OH222691   6.761   3.304   0.285  0.4404  0.0545 -0.1952
 7576TIP3    H122692   6.830   3.292   0.220  0.0945  0.8916 -0.7416
 7576TIP3    H222693   6.800   3.361   0.351  0.7969 -0.8083  0.3557
 7577TIP3   OH222694   6.006   2.361   2.126  0.2008  0.0424  0.9679
 7577TIP3    H122695   6.025   2.315   2.208  0.6389  0.8818  1.3509
 7577TIP3    H222696   6.090   2.363   2.080  0.2145  0.5538  1.0095
 7578TIP3   OH222697   2.836   5.591   5.845  0.5080 -0.1493  0.5475
 7578TIP3    H122698   2.890   5.669   5.858  0.4741  0.0171 -0.2625
 7578TIP3    H222699   2.758   5.607   5.897  0.4594  0.4035  0.3143
 7579TIP3   OH222700   4.328   3.223   5.192  0.3898 -0.0967 -0.3092
 7579TIP3    H122701   4.360   3.249   5.278  0.8668  0.8861 -0.7642
 7579TIP3    H222702   4.353   3.131   5.184  1.8028  0.2306 -0.0382
 7580TIP3   OH222703   3.267   1.985   2.835  0.3182  0.5397  0.0413
 7580TIP3    H122704   3.199   2.047   2.808  0.6067  0.6317 -0.4886
 7580TIP3    H222705   3.283   1.932   2.757  1.0928  0.7401  0.0549
 7581TIP3   OH222706   6.157   2.696   3.382 -0.2280 -0.7505  0.8661
 7581TIP3    H122707   6.103   2.774   3.400 -0.9834 -1.2877  0.9650
 7581TIP3    H222708   6.121   2.628   3.439  0.3853 -1.1980  0.7309
 7582TIP3   OH222709   3.143   6.199   2.086 -0.1703 -0.1333 -0.3186
 7582TIP3    H122710   3.223   6.164   2.046  1.4166  0.9916  1.7148
 7582TIP3    H222711   3.129   6.145   2.163  0.1735  1.2716  0.7727
 7583TIP3   OH222712   0.874   5.490   3.509  0.1605 -0.3191 -0.0452
 7583TIP3    H122713   0.791   5.451   3.484 -0.0563  0.6290 -0.8354
 7583TIP3    H222714   0.935   5.416   3.515 -1.2793 -1.4152  3.1588
 7584TIP3   OH222715   5.020   2.607   4.864 -0.0740 -0.3018  0.0093
 7584TIP3    H122716   4.930   2.620   4.894  0.1780 -0.9893  1.1072
 7584TIP3    H222717   5.010   2.576   4.774 -0.9781 -1.1506  0.3751
 7585TIP3   OH222718   0.607   3.946   3.204 -0.2763 -0.3314  0.4880
 7585TIP3    H122719   0.657   4.021   3.170  0.6311 -0.9802  0.3716
 7585TIP3    H222720   0.586   3.895   3.126  0.0092 -0.7438  0.6832
 7586TIP3   OH222721   0.506   2.292   0.744 -0.0539 -0.0923  0.3500
 7586TIP3    H122722   0.576   2.241   0.702  0.6019  0.0858  1.1883
 7586TIP3    H222723   0.451   2.226   0.786 -0.8723 -0.2942 -0.9682
 7587TIP3   OH222724   6.653   3.289   1.512  0.0983 -0.5264 -0.2372
 7587TIP3    H122725   6.591   3.221   1.539  1.0164 -0.3150  2.7382
 7587TIP3    H222726   6.723   3.240   1.468 -0.3250 -1.2201 -0.1668
 7588TIP3   OH222727   4.239   1.171   4.706 -0.3074  0.0382 -0.0446
 7588TIP3    H122728   4.176   1.102   4.683  0.0913 -0.7436  1.0868
 7588TIP3    H222729   4.193   1.223   4.773 -0.2201  0.2321 -0.1356
 7589TIP3   OH222730   0.978   3.896   3.038  0.4049  0.1950  0.5706
 7589TIP3    H122731   0.947   3.938   3.119 -0.7203  0.5707 -0.0344
 7589TIP3    H222732   1.046   3.956   3.006  1.0018 -0.0542  1.3174
 7590TIP3   OH222733   5.395   1.802   5.196  0.1492 -0.2227 -0.2562
 7590TIP3    H122734   5.417   1.856   5.121  0.2377 -0.4831 -0.4198
 7590TIP3    H222735   5.299   1.798   5.196  0.0614  1.1198  0.6033
 7591TIP3   OH222736   3.572   2.623   0.482 -0.2076 -0.0410 -0.1634
 7591TIP3    H122737   3.520   2.702   0.468 -0.0049  0.2954  0.8528
 7591TIP3    H222738   3.516   2.566   0.535  0.4332  0.3321  0.9555
 7592TIP3   OH222739   5.686   2.836   5.095 -0.5165  0.1430  0.2072
 7592TIP3    H122740   5.693   2.862   5.003  0.4226  1.2139  0.5513
 7592TIP3    H222741   5.595   2.806   5.105 -0.5568 -0.2438 -1.1165
 7593TIP3   OH222742   1.458   0.083   1.022 -0.2132 -0.1553  0.2729
 7593TIP3    H122743   1.552   0.070   1.031 -0.4918 -1.5383  1.5089
 7593TIP3    H222744   1.423  -0.005   1.008 -1.4003  0.2668  0.4944
 7594TIP3   OH222745   1.682   5.151   5.252  0.5068 -0.1056  0.0354
 7594TIP3    H122746   1.751   5.139   5.318  0.0518 -1.0913  0.3493
 7594TIP3    H222747   1.730   5.167   5.171  1.0831  0.4654  0.4771
 7595TIP3   OH222748   4.524   3.646   2.500  0.1839 -0.2211  0.2436
 7595TIP3    H122749   4.552   3.738   2.496  0.6799 -0.3612  0.4993
 7595TIP3    H222750   4.434   3.650   2.532  0.0872  0.1983 -0.0747
 7596TIP3   OH222751   5.601   3.423   5.813 -0.5081  0.4817  0.4763
 7596TIP3    H122752   5.682   3.413   5.863 -0.4912  0.5879  0.4716
 7596TIP3    H222753   5.579   3.335   5.784 -0.0200  0.5427 -0.1047
 7597TIP3   OH222754   2.569   3.160   3.004 -0.0141 -0.4709 -0.1946
 7597TIP3    H122755   2.511   3.235   3.018  1.6034  1.0461 -1.1771
 7597TIP3    H222756   2.638   3.170   3.070  0.1760 -1.1658 -0.2768
 7598TIP3   OH222757   4.702   4.749   3.005 -0.1276  0.0399  0.8913
 7598TIP3    H122758   4.641   4.792   3.065  0.0144  0.6007  0.6413
 7598TIP3    H222759   4.653   4.676   2.969 -1.0391  1.1077 -0.1183
 7599TIP3   OH222760   2.517   0.561   0.037 -0.1929 -0.1768  0.0828
 7599TIP3    H122761   2.440   0.617   0.036  0.6990  1.0792 -0.2412
 7599TIP3    H222762   2.589   0.618   0.010  0.3543 -2.0412 -2.9673
 7600TIP3   OH222763   4.523   6.473   5.089 -0.0748 -0.1512 -0.5022
 7600TIP3    H122764   4.489   6.449   5.175  0.6992  2.1003  0.5290
 7600TIP3    H222765   4.597   6.414   5.075 -0.8382 -1.2323 -0.1344
 7601TIP3   OH222766   6.962   0.164   5.395  0.2655  0.1786 -0.1282
 7601TIP3    H122767   6.972   0.124   5.309 -2.7655 -2.3038  0.4950
 7601TIP3    H222768   6.985   0.095   5.457 -1.3587  0.5988  1.0044
 7602TIP3   OH222769   5.162   3.356   3.201 -0.7580 -0.5013 -0.3603
 7602TIP3    H122770   5.131   3.359   3.292  0.1091  1.4320 -0.0681
 7602TIP3    H222771   5.153   3.446   3.170  1.8865 -0.4244 -1.1565
 7603TIP3   OH222772   5.399   5.144   5.327 -0.3602 -0.0536 -0.0506
 7603TIP3    H122773   5.467   5.205   5.298 -1.3313  1.4515  0.6519
 7603TIP3    H222774   5.434   5.105   5.407  0.6486 -1.1425 -1.0001
 7604TIP3   OH222775   7.115   4.781   0.966 -0.0996 -0.4268 -1.0857
 7604TIP3    H122776   7.028   4.820   0.955  0.3343 -0.0649 -4.2685
 7604TIP3    H222777   7.160   4.840   1.027 -1.6728  0.0594 -0.3486
 7605TIP3   OH222778   5.526   6.719   4.970 -0.1303  0.1089 -0.0624
 7605TIP3    H122779   5.452   6.779   4.980  0.5084  1.0784 -0.8879
 7605TIP3    H222780   5.599   6.763   5.014  1.3902  1.9880 -3.9494
 7606TIP3   OH222781   0.096   6.806   4.906  0.2056  0.3182 -0.1087
 7606TIP3    H122782   0.118   6.849   4.989  3.0968  0.9270 -1.1039
 7606TIP3    H222783   0.037   6.735   4.932 -0.7043  1.7701  2.1746
 7607TIP3   OH222784   0.308   6.608   2.074  0.1925 -0.3957 -0.7557
 7607TIP3    H122785   0.343   6.656   2.148 -2.0239  1.2408 -0.6914
 7607TIP3    H222786   0.347   6.520   2.082  1.9274  0.4540  0.8712
 7608TIP3   OH222787   3.136   6.475   1.948  0.4113  0.1256 -0.3714
 7608TIP3    H122788   3.138   6.550   2.008 -0.4074 -0.3246  0.2388
 7608TIP3    H222789   3.158   6.400   2.002  0.9561 -0.1182 -0.9219
 7609TIP3   OH222790   5.026   6.182   1.816  0.1431  0.2038  0.5971
 7609TIP3    H122791   5.105   6.168   1.764 -0.4517  0.4459 -0.4126
 7609TIP3    H222792   5.057   6.217   1.899  1.0598  1.0809 -0.0899
 7610TIP3   OH222793   0.616   1.673   5.571 -0.3124  0.1801  0.5338
 7610TIP3    H122794   0.601   1.739   5.504  0.4724  0.9025  1.0447
 7610TIP3    H222795   0.651   1.722   5.645  0.0229 -0.7711  1.0197
 7611TIP3   OH222796   3.658   4.472   3.267 -0.1621 -0.4289  0.1501
 7611TIP3    H122797   3.729   4.498   3.208  0.6836 -0.5445  1.0803
 7611TIP3    H222798   3.652   4.544   3.330 -0.2236 -0.8557  0.6375
 7612TIP3   OH222799   4.395   2.259   1.209 -0.7664  0.2346 -0.4032
 7612TIP3    H122800   4.428   2.340   1.246  0.7067 -1.2119  1.6744
 7612TIP3    H222801   4.436   2.190   1.261  0.5302 -1.9902 -4.0238
 7613TIP3   OH222802   4.791   5.514   0.849 -0.0427 -0.1897  0.2888
 7613TIP3    H122803   4.718   5.576   0.839  0.7138  0.9135  1.2717
 7613TIP3    H222804   4.833   5.514   0.763 -0.2206  0.4577  0.1929
 7614TIP3   OH222805   5.441   0.347   4.227 -0.1500 -0.5524  0.2530
 7614TIP3    H122806   5.450   0.335   4.133  2.6831  0.6974  0.2805
 7614TIP3    H222807   5.380   0.420   4.236  0.4246  0.0677 -0.6841
 7615TIP3   OH222808   2.596   4.118   0.707 -1.0747 -0.3819 -0.5502
 7615TIP3    H122809   2.563   4.142   0.794  0.3595 -0.8972  0.1774
 7615TIP3    H222810   2.655   4.190   0.683 -0.8329 -0.6330 -0.7194
 7616TIP3   OH222811   3.792   3.114   0.570  0.1365 -0.1844  1.0306
 7616TIP3    H122812   3.795   3.210   0.571  3.4247 -0.1473 -0.1023
 7616TIP3    H222813   3.862   3.088   0.630  0.2524 -1.8449  0.2121
 7617TIP3   OH222814   2.833   1.910   4.641  0.2631  0.5198  0.2517
 7617TIP3    H122815   2.780   1.973   4.689  0.5932  0.6833  0.4045
 7617TIP3    H222816   2.877   1.859   4.709 -2.0952 -1.7405  0.2361
 7618TIP3   OH222817   1.232   5.481   3.473 -0.1325  0.3664  0.5619
 7618TIP3    H122818   1.245   5.401   3.421 -0.2998  0.5124  0.2948
 7618TIP3    H222819   1.321   5.509   3.495  0.2433  2.3893 -2.8275
 7619TIP3   OH222820   4.873   2.441   0.882  0.1434 -0.0426  0.3022
 7619TIP3    H122821   4.966   2.423   0.893 -0.0733 -0.0852  2.4104
 7619TIP3    H222822   4.861   2.531   0.912 -0.3047  0.4715 -1.2981
 7620TIP3   OH222823   6.243   0.098   1.710 -0.3824  0.2217 -0.2555
 7620TIP3    H122824   6.178   0.150   1.759 -0.8638 -0.3225 -0.3122
 7620TIP3    H222825   6.308   0.163   1.683 -1.5492  1.0219 -1.3015
 7621TIP3   OH222826   3.937   4.095   2.177 -0.0651  0.2617 -0.0263
 7621TIP3    H122827   3.847   4.127   2.174  0.4121  1.6455 -0.2387
 7621TIP3    H222828   3.989   4.172   2.199  1.1880 -0.2832 -0.9949
 7622TIP3   OH222829   1.349   3.222   5.008  0.2137  0.0887 -0.1045
 7622TIP3    H122830   1.345   3.312   4.976 -0.6746 -0.4494 -1.6557
 7622TIP3    H222831   1.400   3.176   4.940  0.6104 -0.5920  0.6417
 7623TIP3   OH222832   0.946   2.428   1.537  0.6176 -0.2622  0.0434
 7623TIP3    H122833   0.891   2.370   1.485  0.9073  1.4990 -2.3826
 7623TIP3    H222834   1.035   2.404   1.514  0.8231 -0.6054  1.1168
 7624TIP3   OH222835   2.759   4.389   4.857 -0.4928  0.2483  0.2320
 7624TIP3    H122836   2.769   4.477   4.894 -2.2294  1.1765 -1.3369
 7624TIP3    H222837   2.708   4.402   4.777 -0.5370 -2.1694 -0.2126
 7625TIP3   OH222838   2.546   1.251   4.907 -0.2326 -0.0448  0.1207
 7625TIP3    H122839   2.634   1.256   4.870 -0.8518  0.4093 -1.4061
 7625TIP3    H222840   2.527   1.157   4.913 -0.2821 -0.1446 -1.2397
 7626TIP3   OH222841   3.382   1.989   5.526 -0.2236 -0.2240 -0.7826
 7626TIP3    H122842   3.462   2.041   5.525 -0.0434 -0.4139  1.0459
 7626TIP3    H222843   3.312   2.053   5.510 -0.0672  0.8139  2.1332
 7627TIP3   OH222844   6.570   6.003   0.103  0.3029 -0.0090  0.0584
 7627TIP3    H122845   6.593   5.992   0.195  0.8087 -0.3662 -0.1068
 7627TIP3    H222846   6.652   5.992   0.056 -0.0246 -0.2582 -0.4683
 7628TIP3   OH222847   2.415   2.601   0.927  0.1198  0.9552 -0.1026
 7628TIP3    H122848   2.411   2.652   0.846 -0.7928  1.7348  0.4147
 7628TIP3    H222849   2.502   2.620   0.963  0.0094  1.6863 -0.2089
 7629TIP3   OH222850   1.792   3.157   1.178 -0.0319  0.1573  0.0164
 7629TIP3    H122851   1.843   3.238   1.186 -0.5067  0.5536 -0.8665
 7629TIP3    H222852   1.743   3.167   1.096 -1.3289 -0.3318  0.7024
 7630TIP3   OH222853   4.811   5.387   5.613 -0.7726  0.0338 -0.2321
 7630TIP3    H122854   4.901   5.354   5.620 -0.5543  0.4892 -0.7622
 7630TIP3    H222855   4.805   5.457   5.677 -0.5676  0.3758 -0.5797
 7631TIP3   OH222856   0.258   5.004   4.505 -0.4748 -0.1801 -0.5142
 7631TIP3    H122857   0.192   5.060   4.547 -1.2425 -1.0692 -0.5051
 7631TIP3    H222858   0.216   4.974   4.424  0.1501 -0.2730 -0.8089
 7632TIP3   OH222859   6.625   2.948   1.522  0.2638 -0.3868  0.1364
 7632TIP3    H122860   6.702   2.946   1.578  1.9684 -2.4058 -2.0551
 7632TIP3    H222861   6.600   2.856   1.512 -2.1185  0.1745  0.2969
 7633TIP3   OH222862   5.447   0.588   2.505 -0.1176 -0.0926  0.5385
 7633TIP3    H122863   5.521   0.649   2.504  0.5163 -0.7710 -1.8245
 7633TIP3    H222864   5.476   0.516   2.561  0.3897  0.3362  0.8427
 7634TIP3   OH222865   0.796   4.880   5.555  0.5519 -0.7877  0.1660
 7634TIP3    H122866   0.872   4.852   5.605  0.9364 -0.8926 -0.4578
 7634TIP3    H222867   0.832   4.906   5.470 -0.1468 -1.1598 -0.2536
 7635TIP3   OH222868   5.459   3.773   3.674  0.4007 -0.3857  0.4075
 7635TIP3    H122869   5.508   3.847   3.710  1.7918 -0.6984 -0.7331
 7635TIP3    H222870   5.511   3.696   3.698 -0.1649 -0.8388  0.1847
 7636TIP3   OH222871   4.481   2.955   4.899  0.2223 -0.0298 -0.0300
 7636TIP3    H122872   4.408   2.900   4.927  1.3522 -1.1803  0.7017
 7636TIP3    H222873   4.535   2.899   4.845  1.0277  0.5521  0.1452
 7637TIP3   OH222874   2.400   5.774   1.276 -0.1217  0.1876  0.1074
 7637TIP3    H122875   2.468   5.817   1.326 -0.4056  0.8038 -0.0297
 7637TIP3    H222876   2.318   5.815   1.304 -0.2774  0.6336 -0.9258
 7638TIP3   OH222877   0.118   0.056   5.783  0.3480 -1.0432  0.0478
 7638TIP3    H122878   0.055   0.096   5.722 -0.5501 -1.8361  0.4172
 7638TIP3    H222879   0.064  -0.001   5.838  1.1493 -0.4268  1.5264
 7639TIP3   OH222880   6.539   4.408   0.827  0.1437  0.4083  0.1802
 7639TIP3    H122881   6.620   4.357   0.828 -0.5062 -0.6235  1.8195
 7639TIP3    H222882   6.501   4.396   0.913 -1.0370  2.0969 -0.0520
 7640TIP3   OH222883   5.599   2.569   0.736 -0.1034  0.1098  0.4550
 7640TIP3    H122884   5.667   2.511   0.769 -1.0024 -0.7250  0.8895
 7640TIP3    H222885   5.554   2.601   0.814  0.1887  1.1695  0.2027
 7641TIP3   OH222886   6.668   6.782   5.046 -0.2399  0.2971  0.0546
 7641TIP3    H122887   6.598   6.847   5.050  1.2285  1.9081  3.0130
 7641TIP3    H222888   6.652   6.724   5.120  1.5133  0.7992  0.8981
 7642TIP3   OH222889   3.528   4.827   2.288  0.2736 -0.3647  0.3996
 7642TIP3    H122890   3.594   4.775   2.333 -0.7892 -1.3693  0.8306
 7642TIP3    H222891   3.527   4.792   2.198  0.0217 -0.6352  0.5091
 7643TIP3   OH222892   2.250   6.004   3.278 -0.0235 -0.1502  0.3744
 7643TIP3    H122893   2.206   5.982   3.196  0.6446 -0.2453  0.0434
 7643TIP3    H222894   2.182   5.991   3.345 -0.6922  0.3392 -0.1968
 7644TIP3   OH222895   2.121   2.569   3.099  0.0873  0.0348  0.0208
 7644TIP3    H122896   2.200   2.521   3.124  0.2753  0.1887 -0.2656
 7644TIP3    H222897   2.154   2.655   3.072 -0.2764  0.4447  0.8498
 7645TIP3   OH222898   5.277   4.651   2.733  0.3895 -0.5766  0.3156
 7645TIP3    H122899   5.236   4.643   2.646 -1.1984 -1.5629  1.1016
 7645TIP3    H222900   5.321   4.568   2.746 -0.0228 -0.7325  0.7488
 7646TIP3   OH222901   1.839   2.210   3.431  0.2776  0.0327  0.1124
 7646TIP3    H122902   1.922   2.259   3.432  0.7565 -0.7466 -0.1929
 7646TIP3    H222903   1.854   2.138   3.493 -0.7208  0.7382  1.2090
 7647TIP3   OH222904   6.473   5.652   5.532 -0.3283  0.3125  0.1074
 7647TIP3    H122905   6.505   5.666   5.621 -0.8754  0.4089  0.2950
 7647TIP3    H222906   6.548   5.668   5.476 -0.2341  1.2645  0.4897
 7648TIP3   OH222907   4.511   5.224   1.919 -0.2736 -0.4251 -0.3641
 7648TIP3    H122908   4.486   5.262   2.003 -1.4301 -0.4755 -0.6669
 7648TIP3    H222909   4.477   5.134   1.922 -0.9033 -0.2201 -1.1362
 7649TIP3   OH222910   3.038   5.252   1.517 -0.0582  0.2160 -0.1180
 7649TIP3    H122911   3.011   5.332   1.562 -1.6782  0.3000 -1.1255
 7649TIP3    H222912   3.104   5.281   1.454  0.5617  0.4752  0.6423
 7650TIP3   OH222913   2.779   4.951   3.844 -0.0119 -0.2056  0.2210
 7650TIP3    H122914   2.830   4.952   3.762  0.0905  1.2863  0.2651
 7650TIP3    H222915   2.728   4.870   3.840 -1.1940  0.5528 -2.0872
 7651TIP3   OH222916   3.163   5.891   4.352 -0.3232  0.4462  0.1057
 7651TIP3    H122917   3.133   5.854   4.434 -1.3263 -1.5074 -1.0680
 7651TIP3    H222918   3.229   5.830   4.320  1.2562  2.0327  0.1954
 7652TIP3   OH222919   4.314   3.359   3.402 -0.0173 -0.6157 -0.1906
 7652TIP3    H122920   4.359   3.358   3.487 -0.0378  0.7864 -0.1326
 7652TIP3    H222921   4.366   3.420   3.348 -0.9355 -0.2053 -0.6324
 7653TIP3   OH222922   2.276   3.099   2.110  0.3977  0.3422 -0.2046
 7653TIP3    H122923   2.235   3.115   2.025 -1.0214  0.1052  0.3977
 7653TIP3    H222924   2.367   3.077   2.090 -0.0174 -0.1052 -1.6758
 7654TIP3   OH222925   2.256   4.733   2.297 -0.4960  0.1152  0.3797
 7654TIP3    H122926   2.236   4.825   2.276 -1.9693 -0.7023 -2.2880
 7654TIP3    H222927   2.179   4.702   2.345 -0.6098 -0.0731  0.0784
 7655TIP3   OH222928   2.102   0.234   2.959 -0.2612 -0.3727 -0.3615
 7655TIP3    H122929   2.074   0.269   2.874  1.0175  1.1505 -0.2049
 7655TIP3    H222930   2.160   0.161   2.938  0.3997  0.2795 -0.8161
 7656TIP3   OH222931   2.941   5.524   3.927  0.0824 -0.3016 -0.4239
 7656TIP3    H122932   2.891   5.444   3.944  1.0377 -0.9022 -0.3266
 7656TIP3    H222933   2.983   5.544   4.010 -0.5144  0.5815 -0.3243
 7657TIP3   OH222934   1.505   5.381   2.559 -0.3460  0.4907 -0.1448
 7657TIP3    H122935   1.502   5.302   2.504 -0.4624  0.1539  0.3358
 7657TIP3    H222936   1.415   5.397   2.584 -0.3511  0.9127 -0.4172
 7658TIP3   OH222937   1.530   5.226   4.226 -0.3158  0.0023  0.1809
 7658TIP3    H122938   1.456   5.220   4.286 -1.1139  1.3927 -0.6048
 7658TIP3    H222939   1.607   5.228   4.282 -0.9658  0.0342  1.0898
 7659TIP3   OH222940   3.066   6.347   3.673 -0.0959 -0.0432  0.3479
 7659TIP3    H122941   3.106   6.303   3.748 -1.0780 -0.4575  0.6445
 7659TIP3    H222942   3.092   6.294   3.597  0.8149  0.3178  0.3976
 7660TIP3   OH222943   0.853   1.913   3.469  0.3297  0.2214  0.5078
 7660TIP3    H122944   0.821   1.866   3.392 -0.7772  1.3010  0.2762
 7660TIP3    H222945   0.912   1.979   3.434 -1.1832  1.5790  0.4118
 7661TIP3   OH222946   1.974   4.329   1.194 -0.3373  0.0931  0.4279
 7661TIP3    H122947   1.966   4.400   1.132 -0.1602 -1.1710 -1.1070
 7661TIP3    H222948   2.048   4.276   1.162  0.5487  0.0308  2.3843
 7662TIP3   OH222949   6.384   3.724   4.053  0.0728  0.0555 -0.2988
 7662TIP3    H122950   6.452   3.668   4.092  1.9261  2.4000  0.0662
 7662TIP3    H222951   6.316   3.729   4.120  0.2789 -1.0435  0.0080
 7663TIP3   OH222952   6.614   1.258   5.391  0.2333 -0.5103 -0.5103
 7663TIP3    H122953   6.596   1.285   5.481  0.2302 -1.1641 -0.3154
 7663TIP3    H222954   6.582   1.331   5.338  0.6683  0.0933  0.0371
 7664TIP3   OH222955   5.491   3.148   5.710 -0.2177  0.1506  0.7630
 7664TIP3    H122956   5.580   3.112   5.714 -0.7832 -1.3449  0.7405
 7664TIP3    H222957   5.453   3.126   5.796 -0.1836  1.9308  1.2868
 7665TIP3   OH222958   1.699   6.788   2.160  0.0684 -0.7123 -0.3958
 7665TIP3    H122959   1.667   6.755   2.244 -0.3185  2.2766  0.7811
 7665TIP3    H222960   1.792   6.767   2.160  0.1419 -0.4993  0.9676
 7666TIP3   OH222961   3.249   5.897   1.181  0.4900 -0.5017  0.0773
 7666TIP3    H122962   3.284   5.966   1.125  0.0931 -1.2890 -1.2025
 7666TIP3    H222963   3.324   5.867   1.232  1.3151 -1.0043 -1.3736
 7667TIP3   OH222964   0.081   0.035   0.268  0.1913  0.3925 -0.0023
 7667TIP3    H122965  -0.008   0.070   0.280  0.0963 -0.3303  1.7040
 7667TIP3    H222966   0.069  -0.041   0.212 -0.5683 -0.7533  1.6272
 7668TIP3   OH222967   3.807   1.908   4.960  0.5680  0.2440 -0.6291
 7668TIP3    H122968   3.861   1.829   4.947  1.1011  0.3440  0.8008
 7668TIP3    H222969   3.717   1.879   4.944  0.9836  0.0710 -3.0638
 7669TIP3   OH222970   1.604   2.612   2.826  0.8064  0.3370 -0.3027
 7669TIP3    H122971   1.596   2.654   2.740 -0.3503 -2.4976 -1.7140
 7669TIP3    H222972   1.591   2.519   2.809  1.5017 -0.4730  2.8539
 7670TIP3   OH222973   2.643   1.277   0.555 -0.3590 -0.2145  0.0452
 7670TIP3    H122974   2.641   1.225   0.636 -0.0480  0.2450  0.3533
 7670TIP3    H222975   2.574   1.342   0.567 -0.7977 -0.5948 -0.3719
 7671TIP3   OH222976   6.811   5.974   1.499  0.0883  0.0883 -0.3040
 7671TIP3    H122977   6.878   5.935   1.555  0.0250 -0.5768 -0.6753
 7671TIP3    H222978   6.759   6.028   1.558 -0.8799 -1.7434  0.6278
 7672TIP3   OH222979   5.330   2.383   4.587  0.4878  0.3601  0.0331
 7672TIP3    H122980   5.319   2.302   4.636 -2.6336 -0.0178 -1.0447
 7672TIP3    H222981   5.344   2.354   4.496  0.2558  1.0346 -0.2231
 7673TIP3   OH222982   1.091   5.289   0.670  0.5729 -0.9972  0.3039
 7673TIP3    H122983   1.097   5.329   0.757 -0.9481 -1.3289  0.5993
 7673TIP3    H222984   1.121   5.357   0.610 -0.7952  0.1882  0.8970
 7674TIP3   OH222985   5.994   5.528   3.553 -0.6658  0.6264  0.1659
 7674TIP3    H122986   6.049   5.459   3.591 -0.7177  1.9675  2.9414
 7674TIP3    H222987   6.056   5.595   3.525 -0.7431  0.8079  0.4256
 7675TIP3   OH222988   5.773   5.009   5.447 -0.4464  0.3428  0.7563
 7675TIP3    H122989   5.843   4.947   5.465 -0.5437  0.4694  1.6392
 7675TIP3    H222990   5.816   5.094   5.444 -0.5848  0.4491  1.5467
 7676TIP3   OH222991   4.432   2.999   3.307  0.1152  0.2717 -0.1509
 7676TIP3    H122992   4.374   3.059   3.260 -0.6370 -0.7153 -0.5368
 7676TIP3    H222993   4.405   3.005   3.398 -3.6500 -3.2043 -0.7291
 7677TIP3   OH222994   5.204   5.092   0.533  0.2239 -0.3674  0.2683
 7677TIP3    H122995   5.287   5.092   0.582 -0.2236 -1.3264  1.0766
 7677TIP3    H222996   5.228   5.060   0.446  0.7789 -0.2025  0.3555
 7678TIP3   OH222997   0.149   5.611   3.778  0.6411  0.5601 -0.1705
 7678TIP3    H122998   0.173   5.528   3.818 -1.9881  0.2241  0.8553
 7678TIP3    H222999   0.126   5.668   3.851  0.5969  1.5976 -0.9642
 7679TIP3   OH223000   2.994   3.126   2.161  0.1478 -0.4691  0.6162
 7679TIP3    H123001   3.012   3.076   2.241  0.6073  0.8732  1.3988
 7679TIP3    H223002   2.909   3.167   2.177  0.3529 -0.0030  0.5263
 7680TIP3   OH223003   4.261   1.772   5.832 -0.5250 -0.1786  0.8483
 7680TIP3    H123004   4.273   1.771   5.927  0.9111 -0.4732  0.6865
 7680TIP3    H223005   4.350   1.764   5.797 -0.8925  1.2793 -0.5209
 7681TIP3   OH223006   0.823   5.010   2.314  0.5140 -0.0773  0.3776
 7681TIP3    H123007   0.905   4.994   2.362  1.2238 -1.9594 -1.3266
 7681TIP3    H223008   0.767   4.937   2.339 -0.6783  1.1567  1.4595
 7682TIP3   OH223009   7.016   0.447   3.423  0.0931 -0.1951  0.3543
 7682TIP3    H123010   7.010   0.352   3.416 -0.0602 -0.2676  1.3533
 7682TIP3    H223011   6.931   0.474   3.458 -0.0103  0.3554 -0.2945
 7683TIP3   OH223012   3.967   0.321   2.156  0.4560  0.2371  0.0224
 7683TIP3    H123013   4.058   0.310   2.186  0.4983  0.5237  0.0038
 7683TIP3    H223014   3.973   0.320   2.061 -0.0280 -3.7299 -0.1285
 7684TIP3   OH223015   0.508   0.283   4.961  0.3375  0.8709 -0.2162
 7684TIP3    H123016   0.422   0.264   4.998  0.3335 -2.1314 -1.4839
 7684TIP3    H223017   0.490   0.304   4.869  0.9048  0.8666 -0.3306
 7685TIP3   OH223018   4.993   3.924   4.836  0.1796 -0.4384  0.5766
 7685TIP3    H123019   4.910   3.887   4.865 -0.6288 -0.9079 -2.0642
 7685TIP3    H223020   5.057   3.855   4.854 -0.3296 -0.8440  0.8898
 7686TIP3   OH223021   6.420   0.370   0.156 -0.2991  0.3395  0.5935
 7686TIP3    H123022   6.420   0.380   0.252 -0.7071 -0.1292  0.6488
 7686TIP3    H223023   6.508   0.395   0.129  1.4820 -3.9189  1.5859
 7687TIP3   OH223024   5.577   6.294   1.108 -0.1061 -0.2221 -0.1070
 7687TIP3    H123025   5.490   6.310   1.071  0.3601  0.8236 -0.8103
 7687TIP3    H223026   5.566   6.216   1.162 -0.9470 -1.4991 -2.0298
 7688TIP3   OH223027   4.166   3.705   4.856  0.0138  0.1841 -0.3411
 7688TIP3    H123028   4.085   3.718   4.807 -0.9935 -0.1449  1.1673
 7688TIP3    H223029   4.189   3.613   4.841  0.9667  0.6531 -1.9718
 7689TIP3   OH223030   3.235   1.841   4.988 -0.2858 -0.0057  0.3776
 7689TIP3    H123031   3.275   1.796   5.062 -2.6975 -0.0148  1.7722
 7689TIP3    H223032   3.270   1.931   4.993 -0.9252  0.1800  1.9667
 7690TIP3   OH223033   3.483   4.784   4.299  0.8212 -0.3061 -0.0348
 7690TIP3    H123034   3.393   4.816   4.308  0.9964  0.4716 -0.9201
 7690TIP3    H223035   3.484   4.702   4.348 -0.4069 -0.3857 -0.1093
 7691TIP3   OH223036   3.932   3.084   2.665  0.4963  0.5264  0.3878
 7691TIP3    H123037   3.849   3.076   2.619  0.2707 -1.9817  1.0744
 7691TIP3    H223038   3.998   3.060   2.600  0.5490  1.0826  0.2373
 7692TIP3   OH223039   1.643   5.467   0.287 -0.1355 -0.4533  0.1699
 7692TIP3    H123040   1.652   5.404   0.359 -2.2606  0.4969  1.3685
 7692TIP3    H223041   1.636   5.552   0.330  2.9350  0.7854 -1.4125
 7693TIP3   OH223042   3.441   3.340   4.036 -0.0844 -0.3474 -0.1279
 7693TIP3    H123043   3.465   3.251   4.062  2.4952  0.3767  0.2684
 7693TIP3    H223044   3.412   3.382   4.117  0.7192 -0.2483  0.1173
 7694TIP3   OH223045   2.874   3.916   3.692  0.2107  0.0167 -0.3759
 7694TIP3    H123046   2.917   3.844   3.736 -0.9115  0.1771  1.0510
 7694TIP3    H223047   2.941   3.984   3.685  0.8786 -0.6436 -0.4961
 7695TIP3   OH223048   0.541   0.702   3.140  0.2810  0.0831  0.0006
 7695TIP3    H123049   0.539   0.772   3.206  0.0095 -0.5131  0.6454
 7695TIP3    H223050   0.481   0.636   3.175  3.1696 -2.0983  1.2450
 7696TIP3   OH223051   4.670   4.416   3.621  0.4040 -0.4659  0.0313
 7696TIP3    H123052   4.622   4.420   3.704 -0.4539  4.0763 -0.4536
 7696TIP3    H223053   4.756   4.454   3.641  0.4554  0.0033 -1.0234
 7697TIP3   OH223054   1.536   4.077   3.962  0.3708 -0.2170  0.2216
 7697TIP3    H123055   1.483   3.997   3.960 -0.6121  0.4228 -0.2717
 7697TIP3    H223056   1.492   4.133   4.026  0.9919 -0.0279  0.4850
 7698TIP3   OH223057   2.546   0.740   0.844  0.0304 -0.6808  0.6419
 7698TIP3    H123058   2.518   0.653   0.817 -0.4007 -0.9171  1.8123
 7698TIP3    H223059   2.530   0.743   0.938  1.2695  0.2001  0.8531
 7699TIP3   OH223060   0.387   1.027   4.078 -0.0255 -0.4442 -0.2064
 7699TIP3    H123061   0.476   1.059   4.098  0.8406 -1.7349 -1.7398
 7699TIP3    H223062   0.331   1.103   4.091  1.5473  0.8979 -0.8113
 7700TIP3   OH223063   6.932   1.761   2.387  0.2231  0.5230 -0.0208
 7700TIP3    H123064   7.011   1.744   2.335  0.1377 -0.2764  0.1019
 7700TIP3    H223065   6.901   1.846   2.356 -0.0345 -0.1023 -1.5370
 7701TIP3   OH223066   0.454   1.679   2.087 -0.3672  0.0429  0.3360
 7701TIP3    H123067   0.446   1.673   2.182  0.1281 -0.4013  0.3571
 7701TIP3    H223068   0.507   1.603   2.063 -0.5796  0.0939 -0.3082
 7702TIP3   OH223069   1.535   1.644   2.103  0.0780 -0.1976  0.3564
 7702TIP3    H123070   1.486   1.709   2.153  1.3886  1.0200  0.1122
 7702TIP3    H223071   1.627   1.663   2.123  0.7206  0.7958 -2.9684
 7703TIP3   OH223072   3.219   6.020   0.404  0.4047  0.0514  0.1190
 7703TIP3    H123073   3.263   6.031   0.488  0.0700 -0.0136  0.3085
 7703TIP3    H223074   3.132   5.987   0.427 -0.3618  1.7780 -0.1162
 7704TIP3   OH223075   2.672   5.521   0.275 -0.1611  0.4477  0.0955
 7704TIP3    H123076   2.747   5.485   0.229 -0.2190 -1.0338  1.1016
 7704TIP3    H223077   2.626   5.445   0.310 -2.0657  1.3148 -0.3652
 7705TIP3   OH223078   1.523   6.128   2.470 -0.3279  0.7367  0.0053
 7705TIP3    H123079   1.525   6.040   2.507 -0.1553  0.5504 -0.4320
 7705TIP3    H223080   1.573   6.121   2.388 -1.8545  0.8122 -0.9652
 7706TIP3   OH223081   2.382   0.794   0.325  0.3155  0.4606  0.6883
 7706TIP3    H123082   2.422   0.708   0.335  1.1614  0.7613  0.0951
 7706TIP3    H223083   2.443   0.854   0.368 -1.0122  0.6311  2.4446
 7707TIP3   OH223084   4.575   3.797   4.609 -0.5108 -0.0445  0.1318
 7707TIP3    H123085   4.597   3.798   4.516  0.8753 -1.5014  0.3905
 7707TIP3    H223086   4.555   3.705   4.628 -1.6224  0.3661  1.1066
 7708TIP3   OH223087   5.686   6.647   2.999 -0.9696 -0.5228 -0.5762
 7708TIP3    H123088   5.745   6.576   3.025  1.5134  1.3519 -0.7908
 7708TIP3    H223089   5.695   6.651   2.903  0.2815  1.1375 -0.4283
 7709TIP3   OH223090   2.805   2.707   4.620 -0.1234 -0.3344 -0.1547
 7709TIP3    H123091   2.748   2.657   4.562  0.2345 -0.4222 -0.4363
 7709TIP3    H223092   2.747   2.766   4.667 -0.7482 -1.9153  1.1492
 7710TIP3   OH223093   0.518   4.702   0.716 -0.2536  0.1197 -0.2317
 7710TIP3    H123094   0.598   4.651   0.703  0.7668  1.8009 -0.9098
 7710TIP3    H223095   0.528   4.741   0.803 -2.0474 -2.4548  1.2653
 7711TIP3   OH223096   7.041   1.519   1.395  0.2507 -0.9005  0.0185
 7711TIP3    H123097   7.043   1.423   1.392  2.0127 -0.8862 -0.3606
 7711TIP3    H223098   7.083   1.546   1.313 -0.8689  0.2289 -0.2137
 7712TIP3   OH223099   3.972   1.270   1.496  0.1422  0.2124  0.1005
 7712TIP3    H123100   3.984   1.192   1.441  0.2383 -1.2848  2.1368
 7712TIP3    H223101   3.928   1.237   1.574 -1.5555  2.5764  0.2349
 7713TIP3   OH223102   1.011   4.552   1.174  0.2515  0.2413  0.2100
 7713TIP3    H123103   0.952   4.582   1.243  1.2675  0.0397  1.2137
 7713TIP3    H223104   1.020   4.458   1.190 -1.6678 -0.3858 -1.9313
 7714TIP3   OH223105   6.487   3.371   2.524  0.1604  0.1424 -0.1296
 7714TIP3    H123106   6.461   3.290   2.480 -0.8249  0.0640  0.5555
 7714TIP3    H223107   6.520   3.427   2.454 -0.1156 -0.4763 -0.7652
 7715TIP3   OH223108   3.734   6.531   3.108  0.1300 -0.2134 -0.5622
 7715TIP3    H123109   3.754   6.453   3.160 -0.0625 -0.6557 -1.1440
 7715TIP3    H223110   3.774   6.603   3.157 -0.8537 -0.4847  0.6921
 7716TIP3   OH223111   5.549   4.788   5.772  0.0378 -0.6984 -0.1230
 7716TIP3    H123112   5.489   4.862   5.786  0.1060 -0.6190 -0.2504
 7716TIP3    H223113   5.494   4.711   5.782 -0.1809 -0.6190 -0.6885
 7717TIP3   OH223114   0.957   0.350   1.780  0.3158  0.8796  0.1853
 7717TIP3    H123115   0.966   0.348   1.684 -0.9072  1.8717  0.0169
 7717TIP3    H223116   0.875   0.397   1.795 -0.3201 -0.6226  1.6922
 7718TIP3   OH223117   6.011   3.570   3.812  0.4359  0.1631 -0.3320
 7718TIP3    H123118   6.091   3.588   3.763  1.5581 -1.5059  0.7853
 7718TIP3    H223119   5.994   3.651   3.861  1.2767  0.6267 -0.7824
 7719TIP3   OH223120   6.516   4.788   3.909  0.3065  0.4448  0.4216
 7719TIP3    H123121   6.538   4.809   4.000 -0.9388  0.4199  0.7472
 7719TIP3    H223122   6.464   4.862   3.879  0.8713  0.5392 -0.3443
 7720TIP3   OH223123   3.752   0.372   3.623 -0.1675 -0.4540 -0.2809
 7720TIP3    H123124   3.795   0.325   3.552 -0.4946  0.2476 -0.9500
 7720TIP3    H223125   3.824   0.412   3.672  0.1355 -1.8385  0.4548
 7721TIP3   OH223126   1.613   6.548   4.291 -0.2175 -0.2021  0.0671
 7721TIP3    H123127   1.647   6.603   4.220  1.3489  1.0759  1.7113
 7721TIP3    H223128   1.617   6.459   4.256  0.9111  0.3400 -1.2995
 7722TIP3   OH223129   4.435   6.157   0.205  0.4345  0.2016 -0.0415
 7722TIP3    H123130   4.476   6.130   0.287  0.8591 -0.3091 -0.4148
 7722TIP3    H223131   4.341   6.158   0.224  0.5338  0.1320  0.4597
 7723TIP3   OH223132   5.652   2.934   2.441  0.5087 -0.1182  0.0612
 7723TIP3    H123133   5.683   2.851   2.476  1.5370  0.4764  0.6365
 7723TIP3    H223134   5.728   2.971   2.395  0.6179  1.2440  1.2502
 7724TIP3   OH223135   5.731   1.285   0.196  0.2237  1.1752 -0.0428
 7724TIP3    H123136   5.718   1.191   0.190  0.0378  1.0469  1.7806
 7724TIP3    H223137   5.802   1.304   0.134  0.4301 -0.1822 -0.2549
 7725TIP3   OH223138   1.270   4.374   4.568 -0.0869  0.1914 -0.5415
 7725TIP3    H123139   1.333   4.439   4.598 -0.2361  0.0514  0.1114
 7725TIP3    H223140   1.318   4.320   4.506  0.6628 -0.3384  0.4598
 7726TIP3   OH223141   2.187   0.551   0.284  0.4164 -0.3576 -0.0711
 7726TIP3    H123142   2.223   0.497   0.215 -1.0311 -0.1410 -1.0341
 7726TIP3    H223143   2.256   0.555   0.350  0.6023 -3.3428  0.0482
 7727TIP3   OH223144   6.340   3.496   4.416  0.0254  0.3279 -0.2269
 7727TIP3    H123145   6.345   3.521   4.508 -0.0568  1.1390 -0.4271
 7727TIP3    H223146   6.411   3.432   4.404 -0.7832 -0.7674  0.6762
 7728TIP3   OH223147   3.690   2.697   5.543  0.3809  0.9212  0.2624
 7728TIP3    H123148   3.775   2.653   5.543 -0.0122  0.1403  0.3499
 7728TIP3    H223149   3.711   2.790   5.555  1.2643  0.8460 -0.6142
 7729TIP3   OH223150   1.951   1.315   1.972 -0.0313  0.5680  0.3622
 7729TIP3    H123151   1.864   1.343   1.942  0.0311  2.5035  1.7880
 7729TIP3    H223152   2.011   1.343   1.903 -0.2463  1.9617  0.7161
 7730TIP3   OH223153   3.125   3.603   3.501 -0.0583  0.4942  0.3235
 7730TIP3    H123154   3.185   3.633   3.432  1.0784 -1.3318  0.4561
 7730TIP3    H223155   3.123   3.508   3.491 -1.9898  0.4036  1.1405
 7731TIP3   OH223156   5.004   4.491   0.906  0.0851  0.1569 -0.6937
 7731TIP3    H123157   4.956   4.423   0.859 -0.1190 -0.2391  0.0677
 7731TIP3    H223158   4.980   4.478   0.998  0.6795  0.7475 -0.4462
 7732TIP3   OH223159   5.312   2.096   2.950  0.0888  0.0575 -0.4936
 7732TIP3    H123160   5.328   2.190   2.958 -1.7182  0.2962  0.9596
 7732TIP3    H223161   5.345   2.059   3.032  0.0685 -0.4802 -0.7246
 7733TIP3   OH223162   0.763   2.369   4.964 -0.0600  0.5884 -0.0840
 7733TIP3    H123163   0.858   2.365   4.977 -0.1100  0.1261  0.1546
 7733TIP3    H223164   0.733   2.280   4.978 -0.8071  1.1106  2.0192
 7734TIP3   OH223165   2.486   6.392   2.795  0.0983  0.2347 -0.4775
 7734TIP3    H123166   2.492   6.478   2.755 -0.4928  0.2867 -0.4635
 7734TIP3    H223167   2.559   6.343   2.758  0.9001  0.9689  0.0952
 7735TIP3   OH223168   4.732   5.985   5.719 -0.7562  0.2909  0.3317
 7735TIP3    H123169   4.820   6.010   5.688 -1.1197  0.1851 -0.8601
 7735TIP3    H223170   4.706   5.914   5.660 -0.4242 -1.8318  2.6115
 7736TIP3   OH223171   2.563   5.322   5.037 -0.0100  0.1231 -0.1396
 7736TIP3    H123172   2.570   5.364   5.122  1.9780 -3.0521  1.4613
 7736TIP3    H223173   2.637   5.357   4.986 -1.8658  2.9081 -1.1699
 7737TIP3   OH223174   6.865   4.954   0.209 -0.4563  0.4257  0.3979
 7737TIP3    H123175   6.911   4.958   0.125 -2.4521  0.2239 -0.7861
 7737TIP3    H223176   6.799   4.886   0.197 -1.5242  1.1635  1.7296
 7738TIP3   OH223177   7.052   3.710   1.807  1.4763 -0.3210  0.0028
 7738TIP3    H123178   7.034   3.632   1.755 -0.4718  0.7003 -0.9778
 7738TIP3    H223179   7.014   3.692   1.893  2.5333 -1.0712  0.3290
 7739TIP3   OH223180   1.777   4.069   2.211 -0.1400 -0.5368 -0.3928
 7739TIP3    H123181   1.703   4.020   2.246 -1.6874  1.1804 -1.0556
 7739TIP3    H223182   1.782   4.148   2.265 -0.4533  0.5732 -1.8956
 7740TIP3   OH223183   1.556   5.137   3.244 -0.2258 -0.0952 -0.2722
 7740TIP3    H123184   1.645   5.169   3.260  0.1334 -0.8785 -0.6379
 7740TIP3    H223185   1.561   5.093   3.159  0.0333 -3.4987  1.3265
 7741TIP3   OH223186   1.720   0.510   4.865 -0.3184  0.4827 -0.2562
 7741TIP3    H123187   1.775   0.580   4.902 -0.7948  0.5220  0.3979
 7741TIP3    H223188   1.774   0.472   4.795  0.7319  0.2088  0.6729
 7742TIP3   OH223189   4.831   6.085   5.049  0.1609 -0.0315 -0.1475
 7742TIP3    H123190   4.914   6.037   5.044 -0.0714 -0.5758  0.9992
 7742TIP3    H223191   4.765   6.024   5.016 -0.1127 -0.4887  1.1770
 7743TIP3   OH223192   2.609   4.059   3.554 -0.4299 -0.0333 -0.0927
 7743TIP3    H123193   2.584   4.012   3.633 -1.3071  0.4296 -0.0849
 7743TIP3    H223194   2.664   3.997   3.505  0.2932 -0.2509  0.9595
 7744TIP3   OH223195   0.053   0.585   5.363 -0.1047 -0.0252  0.2051
 7744TIP3    H123196   0.057   0.520   5.293  2.2045 -0.3825  0.5901
 7744TIP3    H223197   0.070   0.535   5.443  0.3997  0.8409  0.6553
 7745TIP3   OH223198   4.635   2.186   4.582 -0.0993 -0.0822 -0.0745
 7745TIP3    H123199   4.542   2.171   4.596 -0.3562  1.7826  0.3817
 7745TIP3    H223200   4.678   2.149   4.659 -0.4173 -1.0759 -0.3548
 7746TIP3   OH223201   3.152   2.563   0.368  0.3572 -0.3546  0.3281
 7746TIP3    H123202   3.210   2.632   0.337  0.4902 -0.6578 -0.1210
 7746TIP3    H223203   3.077   2.609   0.404 -0.0733  0.0131 -0.9923
 7747TIP3   OH223204   4.016   3.988   4.571  0.0744  0.2472 -0.6929
 7747TIP3    H123205   3.934   4.020   4.609 -0.2042 -0.4258 -0.7029
 7747TIP3    H223206   4.051   4.062   4.522  0.7410  1.3218  1.3084
 7748TIP3   OH223207   6.887   6.833   0.706  0.3115  0.2023  0.0596
 7748TIP3    H123208   6.892   6.738   0.719  1.9153  0.2467 -0.1077
 7748TIP3    H223209   6.794   6.849   0.687  0.3498 -1.6061 -2.0688
 7749TIP3   OH223210   1.013   4.396   4.534  0.9669  0.0166  0.2630
 7749TIP3    H123211   1.107   4.391   4.551  1.0744 -1.1904 -0.5715
 7749TIP3    H223212   0.998   4.330   4.466 -0.6936 -0.7578  1.3303
 7750TIP3   OH223213   4.736   1.698   2.736 -0.2970 -0.2673  0.4944
 7750TIP3    H123214   4.697   1.692   2.823 -0.8813  0.3287  0.2870
 7750TIP3    H223215   4.714   1.615   2.694 -1.0337 -0.0866  0.5129
 7751TIP3   OH223216   5.781   5.135   0.312 -0.2302  0.0696 -0.5794
 7751TIP3    H123217   5.826   5.192   0.250 -1.3281  2.3258  0.5681
 7751TIP3    H223218   5.717   5.088   0.258  0.4280  0.2160 -1.5109
 7752TIP3   OH223219   5.747   5.341   0.902 -0.1500 -0.3016  0.6625
 7752TIP3    H123220   5.674   5.384   0.856  0.0641  0.1196  0.7126
 7752TIP3    H223221   5.781   5.408   0.961 -0.4085 -0.8317  1.4318
 7753TIP3   OH223222   3.004   1.357   4.852  0.5592 -0.0496 -0.3024
 7753TIP3    H123223   3.082   1.407   4.827  0.7898  0.1815  0.8093
 7753TIP3    H223224   2.997   1.370   4.946 -1.5062  0.8960 -0.5253
 7754TIP3   OH223225   5.854   5.286   5.440 -0.2624 -0.2699 -0.7058
 7754TIP3    H123226   5.918   5.340   5.394  1.9651  0.0776  2.4771
 7754TIP3    H223227   5.809   5.347   5.498  0.8499 -1.3512  1.4271
 7755TIP3   OH223228   0.943   5.721   3.361  0.3985 -0.0039 -0.1395
 7755TIP3    H123229   1.017   5.684   3.313  0.1366 -0.0160 -0.5438
 7755TIP3    H223230   0.913   5.650   3.418  1.5469  0.4354  1.0351
 7756TIP3   OH223231   1.930   4.153   4.476 -0.1638  0.3562 -0.4310
 7756TIP3    H123232   1.974   4.231   4.511  1.7195 -1.2001  0.8968
 7756TIP3    H223233   1.897   4.181   4.391 -0.4399  2.8674  0.4074
 7757TIP3   OH223234   0.386   6.400   2.367  0.1314  0.7590 -0.1240
 7757TIP3    H123235   0.344   6.364   2.446 -0.0520  0.6481 -0.2711
 7757TIP3    H223236   0.373   6.494   2.374 -0.6220  0.6842 -0.4378
 7758TIP3   OH223237   2.354   5.365   1.383  0.5667  0.0036  0.1851
 7758TIP3    H123238   2.396   5.445   1.414 -0.6905  0.5805  0.4697
 7758TIP3    H223239   2.329   5.384   1.293 -1.9159  0.9009  0.9699
 7759TIP3   OH223240   1.112   2.165   1.277 -0.7603  0.2553 -0.0755
 7759TIP3    H123241   1.041   2.103   1.263 -1.1170  0.5333  0.4634
 7759TIP3    H223242   1.155   2.135   1.357 -0.4770  0.2821 -0.2136
 7760TIP3   OH223243   1.862   4.301   1.730 -0.5042 -0.4052  0.6323
 7760TIP3    H123244   1.953   4.273   1.735 -1.2865 -3.2105  1.8083
 7760TIP3    H223245   1.821   4.259   1.806 -2.8581  0.3621 -0.1297
 7761TIP3   OH223246   0.916   4.774   0.491  0.3024  0.4934  0.1168
 7761TIP3    H123247   0.968   4.731   0.558 -0.2138 -0.5011 -0.1025
 7761TIP3    H223248   0.980   4.822   0.438  1.1302 -1.3804 -0.6655
 7762TIP3   OH223249   4.117   4.565   1.290 -0.4589  0.3578 -0.1540
 7762TIP3    H123250   4.081   4.594   1.206  1.5832  0.1109 -1.1762
 7762TIP3    H223251   4.163   4.642   1.325  1.6893 -0.4568 -1.0157
 7763TIP3   OH223252   5.409   5.542   4.119  0.3882  0.1830  0.0102
 7763TIP3    H123253   5.408   5.501   4.205 -0.2093 -0.0329 -0.0973
 7763TIP3    H223254   5.475   5.612   4.126  1.7052 -1.0329  0.0759
 7764TIP3   OH223255   6.348   0.989   0.750  0.2157  0.4288 -0.0585
 7764TIP3    H123256   6.350   1.004   0.655  0.7432 -2.1698 -0.5444
 7764TIP3    H223257   6.410   1.052   0.786  1.5502  0.1351 -1.7024
 7765TIP3   OH223258   3.246   1.309   2.327  0.4723 -0.5212  0.7122
 7765TIP3    H123259   3.268   1.245   2.259  0.0518  1.7725 -1.7687
 7765TIP3    H223260   3.157   1.285   2.354  0.0048 -0.5776 -0.7571
 7766TIP3   OH223261   1.149   0.082   5.695  0.0999 -0.6385 -0.1877
 7766TIP3    H123262   1.241   0.057   5.706  0.2730 -0.8888 -1.8995
 7766TIP3    H223263   1.107   0.058   5.778  1.8221  0.8186  1.2004
 7767TIP3   OH223264   4.770   0.408   4.718  0.3261  0.1880  0.4286
 7767TIP3    H123265   4.808   0.334   4.766  0.7123 -2.0642 -3.0027
 7767TIP3    H223266   4.842   0.442   4.666 -0.9911 -0.4569 -1.9246
 7768TIP3   OH223267   4.926   1.866   1.718  0.6782  0.6400 -0.4363
 7768TIP3    H123268   4.888   1.789   1.760  0.0429  0.4737 -1.2773
 7768TIP3    H223269   4.919   1.935   1.784 -1.4922  0.7146 -0.6793
 7769TIP3   OH223270   1.295   0.271   1.590  0.4079  0.5165  0.1226
 7769TIP3    H123271   1.368   0.217   1.561  1.2661  1.8345 -0.2580
 7769TIP3    H223272   1.313   0.290   1.682 -0.1177 -0.1757  0.3785
 7770TIP3   OH223273   1.722   0.881   1.677 -0.4135 -0.2912 -0.0851
 7770TIP3    H123274   1.763   0.881   1.590 -0.5407  0.2047 -0.1496
 7770TIP3    H223275   1.630   0.865   1.660 -0.5354  0.4147 -0.0924
 7771TIP3   OH223276   0.902   5.121   0.067  0.1260 -0.1449  0.5796
 7771TIP3    H123277   0.962   5.189   0.098  1.5605 -1.2345  0.2633
 7771TIP3    H223278   0.825   5.170   0.037  0.0990  1.1723  2.5865
 7772TIP3   OH223279   2.651   4.132   2.853  0.6312  0.0129  0.0126
 7772TIP3    H123280   2.683   4.151   2.764  0.1920 -0.6586 -0.2939
 7772TIP3    H223281   2.705   4.059   2.882  1.4339  0.8471  0.6872
 7773TIP3   OH223282   4.930   2.346   3.027 -0.2424 -0.3955  0.0115
 7773TIP3    H123283   4.987   2.271   3.044  0.8393  0.4240  0.0880
 7773TIP3    H223284   4.944   2.405   3.102 -2.1668 -0.7259  0.6993
 7774TIP3   OH223285   3.601   4.294   4.517  0.2629 -0.0898 -0.3268
 7774TIP3    H123286   3.621   4.201   4.525  3.2578  0.3811 -0.9700
 7774TIP3    H223287   3.625   4.331   4.602 -1.0967  0.1134 -0.0083
 7775TIP3   OH223288   0.880   5.319   5.559 -0.0167  0.0616 -0.1599
 7775TIP3    H123289   0.832   5.252   5.606  1.6557 -1.4177 -0.4179
 7775TIP3    H223290   0.921   5.271   5.486  2.0354  1.1226  0.2238
 7776TIP3   OH223291   3.004   2.879   3.622  0.6654  0.7924  0.1310
 7776TIP3    H123292   3.037   2.853   3.708 -0.7567  1.7526  1.0234
 7776TIP3    H223293   3.005   2.975   3.625  1.1852  0.8389 -1.1752
 7777TIP3   OH223294   4.536   4.455   4.824  0.7785 -0.1144  0.4281
 7777TIP3    H123295   4.520   4.437   4.917  1.5272  0.2230  0.6286
 7777TIP3    H223296   4.627   4.432   4.810  0.0073 -2.7205 -0.8897
 7778TIP3   OH223297   3.953   3.905   0.876  0.4235 -0.0599 -0.0391
 7778TIP3    H123298   3.912   3.991   0.882  2.3630  0.8421  1.7257
 7778TIP3    H223299   3.880   3.843   0.876 -1.0044  1.5372 -0.8778
 7779TIP3   OH223300   6.736   6.113   0.591  0.3491 -0.3034 -0.0777
 7779TIP3    H123301   6.829   6.133   0.582  0.0897  2.7082  2.3341
 7779TIP3    H223302   6.708   6.165   0.666 -2.4058 -4.3603  2.0385
 7780TIP3   OH223303   4.075   0.678   1.518  0.1055 -0.1619 -1.1193
 7780TIP3    H123304   4.143   0.690   1.452  1.3025  0.8414  0.2144
 7780TIP3    H223305   4.064   0.765   1.558 -1.3744 -0.4952 -0.7525
 7781TIP3   OH223306   4.572   1.788   1.703 -0.3636  0.1005 -0.4638
 7781TIP3    H123307   4.561   1.735   1.625 -1.1164 -2.2273  1.1208
 7781TIP3    H223308   4.659   1.765   1.737 -0.8613 -0.4969  0.4584
 7782TIP3   OH223309   1.195   5.574   2.307 -0.0867  0.7116 -0.1861
 7782TIP3    H123310   1.198   5.618   2.392 -0.0393  3.0650 -1.3417
 7782TIP3    H223311   1.104   5.581   2.280 -0.5577 -1.8389  0.4961
 7783TIP3   OH223312   5.277   5.923   5.381  0.1572 -0.5763  0.3533
 7783TIP3    H123313   5.296   5.859   5.449  0.7616 -0.1131  0.6367
 7783TIP3    H223314   5.352   5.982   5.383 -0.5937  0.4079  0.4271
 7784TIP3   OH223315   3.967   4.002   2.875 -0.2572 -0.0474 -0.3600
 7784TIP3    H123316   3.951   3.988   2.782  1.7825  0.7526 -0.8797
 7784TIP3    H223317   4.008   3.920   2.904  1.4706  0.6124 -0.8117
 7785TIP3   OH223318   6.650   2.522   3.532 -0.2941 -0.0715 -0.7117
 7785TIP3    H123319   6.656   2.543   3.439  2.0767 -0.6965 -0.7632
 7785TIP3    H223320   6.681   2.432   3.539 -1.5674 -0.4575  0.5777
 7786TIP3   OH223321   5.118   0.569   1.112  0.0464 -0.7227 -0.6768
 7786TIP3    H123322   5.062   0.579   1.035  0.2811 -0.4617 -0.8185
 7786TIP3    H223323   5.082   0.495   1.159  0.1373 -1.1379 -1.2505
 7787TIP3   OH223324   1.363   4.349   5.813 -0.3422  0.3777  0.4024
 7787TIP3    H123325   1.274   4.358   5.847 -0.3009 -0.2746  0.6810
 7787TIP3    H223326   1.370   4.258   5.785 -0.4159  0.9067 -1.4768
 7788TIP3   OH223327   1.469   3.659   4.781 -0.0299 -0.2385  0.1658
 7788TIP3    H123328   1.481   3.669   4.687 -0.0531  0.0447  0.1932
 7788TIP3    H223329   1.382   3.695   4.798 -0.6027 -1.5417  0.0872
 7789TIP3   OH223330   2.742   2.861   1.809 -0.2093 -0.5126 -0.0825
 7789TIP3    H123331   2.725   2.937   1.753 -1.0887 -0.6740 -0.0528
 7789TIP3    H223332   2.837   2.860   1.820 -0.2349  0.9540  0.4513
 7790TIP3   OH223333   1.475   5.620   1.843 -0.3064 -0.4815  0.1880
 7790TIP3    H123334   1.541   5.569   1.796 -1.0693  0.3248 -1.8948
 7790TIP3    H223335   1.402   5.559   1.854 -0.7094 -0.2587 -1.1079
 7791TIP3   OH223336   3.793   5.675   4.022  0.5558  0.0874  0.0002
 7791TIP3    H123337   3.794   5.682   4.118 -0.6838 -0.1127  0.0331
 7791TIP3    H223338   3.796   5.765   3.991 -0.5344  0.2246  0.2585
 7792TIP3   OH223339   4.193   3.146   5.572  0.4429 -0.3896  0.4771
 7792TIP3    H123340   4.280   3.110   5.555  1.2522  2.2601 -1.5735
 7792TIP3    H223341   4.148   3.141   5.488 -1.2057 -1.0324  1.3347
 7793TIP3   OH223342   2.868   2.762   5.282 -0.0953  0.1738  0.1301
 7793TIP3    H123343   2.890   2.692   5.344  0.3425 -1.0506 -1.3552
 7793TIP3    H223344   2.781   2.739   5.250  0.2291  0.0574 -0.6866
 7794TIP3   OH223345   3.024   5.747   4.564 -0.4165  0.5087  0.4727
 7794TIP3    H123346   2.945   5.716   4.520  0.3106  0.4626 -0.8511
 7794TIP3    H223347   3.086   5.674   4.556 -0.2002  0.5675  1.4341
 7795TIP3   OH223348   1.435   5.572   5.502 -0.5152  0.6780 -0.0444
 7795TIP3    H123349   1.409   5.661   5.526 -2.2302  0.4760 -1.0083
 7795TIP3    H223350   1.422   5.521   5.582 -0.4691  1.0943  0.2354
 7796TIP3   OH223351   3.987   2.466   5.327  0.2167 -0.0961  0.5083
 7796TIP3    H123352   3.910   2.507   5.287  0.1816  1.0179  1.6616
 7796TIP3    H223353   4.055   2.472   5.259 -0.5200 -0.5254 -0.2916
 7797TIP3   OH223354   5.236   4.291   0.348  0.6678  0.3095 -0.6313
 7797TIP3    H123355   5.226   4.373   0.395 -1.0108 -0.3226  0.2360
 7797TIP3    H223356   5.220   4.313   0.256 -1.4797  0.7520 -0.2207
 7798TIP3   OH223357   2.815   0.946   5.260 -0.2331 -0.2889 -0.2038
 7798TIP3    H123358   2.825   0.994   5.342 -0.4812 -1.1149  0.3269
 7798TIP3    H223359   2.883   0.879   5.263  2.2116  1.8828 -2.3620
 7799TIP3   OH223360   1.368   5.443   2.152  0.2949 -0.0062  0.1404
 7799TIP3    H123361   1.290   5.488   2.185 -0.2607  0.0043 -1.1559
 7799TIP3    H223362   1.346   5.418   2.063  1.5118 -0.6716  0.0043
 7800TIP3   OH223363   2.356   5.787   4.455  0.3527  0.2047 -0.4048
 7800TIP3    H123364   2.449   5.793   4.433  0.2052  1.0645 -0.8102
 7800TIP3    H223365   2.353   5.723   4.527  1.3514  0.8123  0.2024
 7801TIP3   OH223366   4.960   6.456   5.198  0.6911 -0.0803  0.1266
 7801TIP3    H123367   4.924   6.517   5.263  1.2736 -0.2697  0.6320
 7801TIP3    H223368   5.044   6.429   5.235  0.2274 -1.5619  0.1335
 7802TIP3   OH223369   0.367   6.686   2.350 -0.3669 -0.5553  0.0156
 7802TIP3    H123370   0.272   6.698   2.361 -0.3071  0.2627 -0.3325
 7802TIP3    H223371   0.404   6.773   2.361  0.4588 -1.0303  1.1517
 7803TIP3   OH223372   3.485   3.541   5.639  0.0070  0.0190 -0.2166
 7803TIP3    H123373   3.548   3.472   5.618  0.3273  0.0330  0.6499
 7803TIP3    H223374   3.414   3.528   5.576 -0.1887 -1.4419  0.2648
 7804TIP3   OH223375   4.489   5.294   2.194  0.0147 -0.1828  0.5960
 7804TIP3    H123376   4.516   5.247   2.273  0.5134  0.5252  0.8541
 7804TIP3    H223377   4.406   5.335   2.217 -1.9721 -3.2545 -0.5397
 7805TIP3   OH223378   1.542   1.100   1.269 -0.2819  0.7038  0.4251
 7805TIP3    H123379   1.581   1.103   1.182 -1.3241 -1.2573 -0.1766
 7805TIP3    H223380   1.459   1.147   1.260  0.4626  2.1488  0.8856
 7806TIP3   OH223381   5.441   0.383   2.886 -0.1310  0.5020  0.5348
 7806TIP3    H123382   5.352   0.351   2.902 -0.7924  1.2258 -1.3325
 7806TIP3    H223383   5.436   0.477   2.905 -1.5401  1.9265 -4.8257
 7807TIP3   OH223384   6.842   1.660   3.885  0.4040 -0.6276 -0.2792
 7807TIP3    H123385   6.852   1.579   3.936 -2.4697 -2.0360 -1.7183
 7807TIP3    H223386   6.747   1.668   3.871  0.5369  3.1054 -0.1198
 7808TIP3   OH223387   4.987   0.055   2.828 -0.3325 -0.2622  0.4511
 7808TIP3    H123388   5.078   0.070   2.804  0.1562  0.1290  2.3750
 7808TIP3    H223389   4.949   0.142   2.834 -0.3343 -0.3149  1.3794
 7809TIP3   OH223390   1.749   1.197   4.054 -0.1555 -0.0165  0.0947
 7809TIP3    H123391   1.654   1.205   4.047 -0.0118  2.4012  0.1401
 7809TIP3    H223392   1.767   1.213   4.147  0.2627 -1.2177  0.2338
 7810TIP3   OH223393   4.799   5.618   5.756 -0.0498  0.2249 -0.2665
 7810TIP3    H123394   4.856   5.657   5.690  0.7436  1.5407  1.1513
 7810TIP3    H223395   4.715   5.606   5.711  0.5977  0.6468 -1.6395
 7811TIP3   OH223396   6.217   2.678   1.828 -0.0416  1.1134 -0.1560
 7811TIP3    H123397   6.261   2.601   1.792 -2.2154  0.7213 -2.2709
 7811TIP3    H223398   6.288   2.738   1.849  1.7663 -1.4857  1.8785
 7812TIP3   OH223399   6.799   2.289   0.816 -0.1111  0.3310  0.0403
 7812TIP3    H123400   6.814   2.200   0.783  0.0957  0.9278 -1.5638
 7812TIP3    H223401   6.885   2.320   0.843 -0.3768 -0.3907  1.8462
 7813TIP3   OH223402   7.021   5.843   2.993 -0.2152 -0.5297 -0.2338
 7813TIP3    H123403   7.049   5.872   3.080 -1.0113  1.2579 -0.5382
 7813TIP3    H223404   6.926   5.837   3.000 -0.3982  0.8440 -1.3145
 7814TIP3   OH223405   6.508   6.323   5.696 -0.4308  0.3188 -0.2009
 7814TIP3    H123406   6.493   6.417   5.694 -0.4440  0.3092 -1.3951
 7814TIP3    H223407   6.570   6.307   5.625  2.8889 -0.0613  2.5174
 7815TIP3   OH223408   5.704   4.608   4.989 -0.6071  0.8273 -0.0706
 7815TIP3    H123409   5.665   4.540   4.934  1.3343 -2.0173  1.7922
 7815TIP3    H223410   5.647   4.612   5.066  0.5847 -0.6030  0.9432
 7816TIP3   OH223411   1.147   2.279   3.939 -0.1496 -0.3009 -0.2697
 7816TIP3    H123412   1.092   2.214   3.982  0.3175 -1.8023 -1.8238
 7816TIP3    H223413   1.223   2.229   3.908  1.0734  1.3219 -0.0391
 7817TIP3   OH223414   7.096   1.894   0.353 -0.1988 -0.5698 -0.0557
 7817TIP3    H123415   7.158   1.932   0.415  1.0645 -0.8698 -1.1075
 7817TIP3    H223416   7.063   1.969   0.303  1.4132 -0.6744 -1.3422
 7818TIP3   OH223417   2.394   3.992   1.772 -0.2414 -0.5688  0.1905
 7818TIP3    H123418   2.439   3.908   1.775  1.1558  0.0596 -1.7444
 7818TIP3    H223419   2.309   3.973   1.734 -0.0525 -1.1511  0.0603
 7819TIP3   OH223420   5.279   4.530   0.532 -0.1501  0.0178 -0.1579
 7819TIP3    H123421   5.204   4.564   0.581 -1.1000 -1.4849 -0.5096
 7819TIP3    H223422   5.311   4.458   0.585 -0.9498 -1.3862 -1.5003
 7820TIP3   OH223423   1.186   2.717   2.982 -0.2490 -1.1974 -0.0572
 7820TIP3    H123424   1.158   2.714   3.073 -1.3113  2.8348 -0.0597
 7820TIP3    H223425   1.117   2.766   2.937  1.5169 -0.7030 -2.4745
 7821TIP3   OH223426   6.349   4.072   4.941 -0.0607  0.1834  0.6232
 7821TIP3    H123427   6.339   4.034   4.854  2.0443  0.0591  0.4069
 7821TIP3    H223428   6.344   3.998   5.001  1.1620 -0.0794  0.4088
 7822TIP3   OH223429   3.029   2.463   2.698 -0.0164  0.0286  0.0381
 7822TIP3    H123430   3.053   2.516   2.774  0.0601 -0.3700  0.2933
 7822TIP3    H223431   2.954   2.412   2.727  1.4157 -1.8844  0.6574
 7823TIP3   OH223432   0.721   0.509   1.343 -0.7021 -0.2425 -0.4572
 7823TIP3    H123433   0.767   0.556   1.273 -0.6234 -0.3178 -0.4563
 7823TIP3    H223434   0.639   0.481   1.302  0.1866 -2.0129 -1.1365
 7824TIP3   OH223435   1.243   4.874   4.084 -0.0112  0.5904  0.1380
 7824TIP3    H123436   1.186   4.846   4.155  0.8709 -0.3360  0.5046
 7824TIP3    H223437   1.223   4.967   4.072 -1.0673  0.4554  0.7388
 7825TIP3   OH223438   2.116   5.912   1.827 -0.6889  0.2656 -0.3243
 7825TIP3    H123439   2.169   5.945   1.900 -1.3611 -0.7294  0.6537
 7825TIP3    H223440   2.122   5.980   1.760 -0.8076  1.6485  1.0202
 7826TIP3   OH223441   6.601   2.567   3.263 -0.2402 -0.3773 -0.3020
 7826TIP3    H123442   6.514   2.530   3.252 -0.8584  0.9333  0.0846
 7826TIP3    H223443   6.590   2.661   3.253  0.9809 -0.1008  0.6293
 7827TIP3   OH223444   0.291   2.696   1.154  0.5929 -0.5196  0.2180
 7827TIP3    H123445   0.235   2.714   1.229  0.2624  2.1803 -0.5747
 7827TIP3    H223446   0.379   2.692   1.191  0.5273  1.5553  0.7232
 7828TIP3   OH223447   1.553   2.118   3.632 -0.1931  0.3352 -0.6101
 7828TIP3    H123448   1.491   2.047   3.615  0.0513 -0.2439  0.7971
 7828TIP3    H223449   1.639   2.079   3.616 -0.0597  0.3223  0.1325
 7829TIP3   OH223450   5.122   5.388   3.040  0.4916 -0.2339 -0.4361
 7829TIP3    H123451   5.089   5.399   3.129  1.4223 -0.4551 -0.0552
 7829TIP3    H223452   5.123   5.477   3.004 -1.7800 -0.3538 -0.9431
 7830TIP3   OH223453   5.437   0.617   2.173  0.0658  0.0124  0.6929
 7830TIP3    H123454   5.352   0.609   2.217  1.1426 -0.1166  2.9301
 7830TIP3    H223455   5.481   0.687   2.220  0.7855  0.9147 -1.2388
 7831TIP3   OH223456   6.004   1.699   0.083 -0.3842  0.6308 -0.1975
 7831TIP3    H123457   5.968   1.730   0.166 -2.0072  1.7039 -1.2441
 7831TIP3    H223458   6.078   1.758   0.065  0.9836 -0.5753  1.1803
 7832TIP3   OH223459   6.193   1.556   3.911  0.0323 -0.3608  0.2816
 7832TIP3    H123460   6.141   1.482   3.943 -0.2643 -0.6304 -0.7711
 7832TIP3    H223461   6.158   1.632   3.958 -1.6328 -0.4780 -0.6870
 7833TIP3   OH223462   2.797   6.428   4.802  0.0718 -0.8790  0.1677
 7833TIP3    H123463   2.720   6.399   4.753  0.3339 -1.7174  0.2381
 7833TIP3    H223464   2.761   6.461   4.884 -0.1610 -2.0796  0.5673
 7834TIP3   OH223465   6.674   6.772   2.255 -0.3173 -0.0977 -0.1978
 7834TIP3    H123466   6.680   6.679   2.231  3.6248  0.6241 -3.0986
 7834TIP3    H223467   6.655   6.816   2.172  1.7140  1.8622  0.2916
 7835TIP3   OH223468   1.496   6.725   5.556 -0.1958  0.0433 -0.2679
 7835TIP3    H123469   1.555   6.693   5.488 -1.6401 -0.7285 -1.2014
 7835TIP3    H223470   1.409   6.723   5.516 -0.9348  0.7256  1.2064
 7836TIP3   OH223471   6.349   5.721   1.852  0.0772  0.0919  0.0933
 7836TIP3    H123472   6.374   5.670   1.928  0.9641 -1.3397 -1.1003
 7836TIP3    H223473   6.253   5.719   1.851  0.0926 -1.2509  0.2768
 7837TIP3   OH223474   0.912   0.924   5.707  0.2325 -0.2784 -0.1493
 7837TIP3    H123475   0.964   0.941   5.786 -1.6297  0.4428  0.9803
 7837TIP3    H223476   0.884   0.833   5.716 -1.3273  0.2637  0.9116
 7838TIP3   OH223477   1.986   2.302   0.683  0.2007 -0.0005 -0.1804
 7838TIP3    H123478   1.918   2.275   0.622 -0.9437  0.7638  0.7209
 7838TIP3    H223479   2.049   2.230   0.682 -0.1768 -0.3532 -1.6463
 7839TIP3   OH223480   1.931   3.329   2.105  0.2880  0.3072 -0.3160
 7839TIP3    H123481   1.839   3.345   2.123  0.0807  0.3992 -1.3970
 7839TIP3    H223482   1.977   3.375   2.175 -0.4571  1.4571 -0.5455
 7840TIP3   OH223483   3.172   2.179   1.724 -0.1167  0.3460 -0.3539
 7840TIP3    H123484   3.108   2.198   1.792 -1.2349 -2.9967 -0.2767
 7840TIP3    H223485   3.121   2.177   1.643 -0.5570 -3.4936 -0.1466
 7841TIP3   OH223486   0.591   3.612   3.156  0.1918  0.1276 -0.2908
 7841TIP3    H123487   0.556   3.674   3.092  0.0370  1.3766  0.9461
 7841TIP3    H223488   0.532   3.619   3.231  0.1280 -1.6039 -0.1348
 7842TIP3   OH223489   1.531   3.058   4.798  0.2680  0.2534  0.7753
 7842TIP3    H123490   1.591   3.106   4.856  0.3040  1.5288 -0.2945
 7842TIP3    H223491   1.586   2.988   4.761  1.4814  2.0088 -0.9857
 7843TIP3   OH223492   5.483   2.650   5.508 -0.3373  0.0589  0.0268
 7843TIP3    H123493   5.495   2.571   5.561 -2.4658  0.5654  1.3710
 7843TIP3    H223494   5.559   2.705   5.530  0.9281 -1.3881 -0.5861
 7844TIP3   OH223495   7.075   6.736   0.123 -0.5918 -0.3185 -0.4187
 7844TIP3    H123496   7.064   6.694   0.208 -3.4965  0.5856 -0.2474
 7844TIP3    H223497   7.136   6.808   0.140  1.5371 -2.1179  0.0623
 7845TIP3   OH223498   0.568   0.910   1.074  0.1184  0.3816  0.1051
 7845TIP3    H123499   0.516   0.986   1.099 -3.5802 -1.6492 -0.7288
 7845TIP3    H223500   0.622   0.891   1.151  0.2995  3.0477  0.7389
 7846TIP3   OH223501   4.766   1.746   0.072  0.2020  0.5311 -0.2305
 7846TIP3    H123502   4.805   1.658   0.076 -1.3137 -0.3314 -2.3113
 7846TIP3    H223503   4.717   1.754   0.153 -0.1339 -0.8239 -0.2694
 7847TIP3   OH223504   4.266   4.954   4.572 -0.5253  0.7811 -0.0946
 7847TIP3    H123505   4.198   4.965   4.506 -0.1603  0.3592 -0.5430
 7847TIP3    H223506   4.311   5.038   4.575 -0.0005  0.5382 -0.9906
 7848TIP3   OH223507   7.031   4.034   3.636 -0.0981  0.2840  0.4924
 7848TIP3    H123508   7.026   3.951   3.589 -0.0177 -0.1183  1.1754
 7848TIP3    H223509   7.015   4.011   3.727  0.6819  0.9105  0.8045
 7849TIP3   OH223510   6.138   0.864   5.657  0.6210 -0.0359  0.4969
 7849TIP3    H123511   6.120   0.778   5.695 -0.3821 -0.3513 -0.6200
 7849TIP3    H223512   6.232   0.863   5.637  0.5398 -1.0213  0.1300
 7850TIP3   OH223513   5.685   2.110   3.730  1.1664 -0.2112  0.5560
 7850TIP3    H123514   5.656   2.108   3.821  1.2352 -1.1065  0.5698
 7850TIP3    H223515   5.774   2.147   3.734  0.8171  0.6428  0.7337
 7851TIP3   OH223516   4.014   0.474   5.388  0.0613 -0.2844 -0.0550
 7851TIP3    H123517   3.971   0.459   5.472 -0.3899 -0.6259 -0.3388
 7851TIP3    H223518   4.062   0.392   5.371 -0.4013 -0.4770 -0.4477
 7852TIP3   OH223519   1.422   0.337   4.186  0.6132 -0.1721 -0.6342
 7852TIP3    H123520   1.452   0.312   4.274 -0.4145 -0.9421 -0.4866
 7852TIP3    H223521   1.493   0.311   4.128  0.7596 -0.8413 -0.1672
 7853TIP3   OH223522   3.295   2.971   3.759  0.8360 -0.0296  0.2513
 7853TIP3    H123523   3.242   2.908   3.809  1.1655  0.5326  1.3356
 7853TIP3    H223524   3.346   2.916   3.699 -0.7567 -0.6026 -0.6435
 7854TIP3   OH223525   4.480   5.288   2.931  0.1896  0.2915 -0.6388
 7854TIP3    H123526   4.490   5.343   3.009 -0.3382  0.7342 -0.8738
 7854TIP3    H223527   4.488   5.348   2.858  0.0790 -0.0231 -0.9112
 7855TIP3   OH223528   5.296   4.454   3.341  0.3589 -0.3389  0.0534
 7855TIP3    H123529   5.224   4.516   3.332  0.3203 -0.4157 -0.1749
 7855TIP3    H223530   5.254   4.373   3.371  0.2074 -0.6834 -1.0552
 7856TIP3   OH223531   6.461   1.994   5.130 -0.7510  0.3430  0.5344
 7856TIP3    H123532   6.513   1.999   5.049 -2.8065 -0.4899 -0.9172
 7856TIP3    H223533   6.500   2.059   5.188 -0.7898  2.8644 -2.0689
 7857TIP3   OH223534   6.296   5.919   4.213  0.1480 -0.4955  0.0447
 7857TIP3    H123535   6.265   5.862   4.284 -0.9215  2.1008  1.8287
 7857TIP3    H223536   6.218   5.966   4.185  1.2461  1.2036 -0.2760
 7858TIP3   OH223537   0.805   0.975   4.215 -0.1162 -0.7458 -0.5236
 7858TIP3    H123538   0.861   1.052   4.223 -1.2763  0.1728 -0.8763
 7858TIP3    H223539   0.862   0.906   4.183  1.2722 -0.4260  1.1275
 7859TIP3   OH223540   1.006   6.750   0.862  0.4185 -0.0558 -0.6785
 7859TIP3    H123541   1.005   6.823   0.800  1.3564 -0.1092 -0.7768
 7859TIP3    H223542   1.013   6.792   0.948 -0.7588  0.0142 -0.6071
 7860TIP3   OH223543   1.725   5.106   2.682  0.3848 -0.4265 -0.0432
 7860TIP3    H123544   1.640   5.065   2.693 -0.3890  1.1883  0.2507
 7860TIP3    H223545   1.720   5.149   2.596  1.2522 -1.0828 -0.4438
 7861TIP3   OH223546   1.129   2.987   2.477  0.0645  0.3244 -0.1708
 7861TIP3    H123547   1.158   3.075   2.501  0.8880 -0.1036  0.4302
 7861TIP3    H223548   1.054   3.002   2.419  0.9165  1.4347 -1.0211
 7862TIP3   OH223549   7.128   1.017   5.369  0.2301  0.0342 -0.5160
 7862TIP3    H123550   7.157   1.069   5.444 -0.0914  0.1628 -0.4791
 7862TIP3    H223551   7.038   1.046   5.353  0.4311  0.2926 -1.2072
 7863TIP3   OH223552   6.493   3.257   4.530  0.0476  0.0643 -0.9369
 7863TIP3    H123553   6.534   3.279   4.614 -0.0098  1.4992 -1.2663
 7863TIP3    H223554   6.531   3.172   4.507  1.3168  0.4141 -0.2472
 7864TIP3   OH223555   5.860   4.102   0.937 -0.1836  0.0837 -0.7278
 7864TIP3    H123556   5.919   4.032   0.911  2.0566  1.7770 -0.5066
 7864TIP3    H223557   5.861   4.099   1.033 -0.6138  0.0182 -0.7225
 7865TIP3   OH223558   0.210   0.975   4.969  0.3145  0.3936  0.1658
 7865TIP3    H123559   0.122   0.967   4.932 -0.1055 -0.2827  1.2581
 7865TIP3    H223560   0.204   0.932   5.054  1.5447  0.9107  0.5335
 7866TIP3   OH223561   4.575   5.076   4.827  0.2887  0.4223  0.1327
 7866TIP3    H123562   4.527   5.112   4.901  0.7039  0.1532  0.5407
 7866TIP3    H223563   4.574   4.981   4.841  1.9380  0.4672  0.8042
 7867TIP3   OH223564   2.663   0.126   0.774  0.2087  0.0130  0.0384
 7867TIP3    H123565   2.697   0.071   0.844 -1.8653  1.2091  2.0914
 7867TIP3    H223566   2.732   0.190   0.757  1.0150 -0.7398  0.4445
 7868TIP3   OH223567   3.305   2.782   4.850  0.8617  0.4162  0.0135
 7868TIP3    H123568   3.264   2.729   4.782  2.0318  1.2573 -1.3911
 7868TIP3    H223569   3.251   2.861   4.855  0.3776  0.0604  0.5755
 7869TIP3   OH223570   6.162   2.264   3.573  0.5617 -0.0432 -0.6889
 7869TIP3    H123571   6.213   2.294   3.647 -1.8013 -0.5977  1.2924
 7869TIP3    H223572   6.214   2.192   3.535  1.9794  0.4964  0.1653
 7870TIP3   OH223573   2.464   4.442   2.017 -0.4028  0.1961 -0.0477
 7870TIP3    H123574   2.502   4.379   1.955  0.8113  1.4986 -0.6828
 7870TIP3    H223575   2.499   4.527   1.989  0.1133  0.8439  2.3877
 7871TIP3   OH223576   5.396   4.533   5.748  0.0945 -0.2637 -0.1550
 7871TIP3    H123577   5.325   4.538   5.813  1.3017 -2.1463  1.4251
 7871TIP3    H223578   5.389   4.446   5.710  0.9722 -0.1281 -0.6683
 7872TIP3   OH223579   0.409   1.304   4.427  0.5695 -0.2144  0.1512
 7872TIP3    H123580   0.318   1.279   4.407  0.5456  0.6104 -0.9145
 7872TIP3    H223581   0.401   1.384   4.479  0.6689 -1.5556  2.3358
 7873TIP3   OH223582   2.826   3.327   0.893  0.0093  0.5962 -0.8780
 7873TIP3    H123583   2.869   3.281   0.966  1.7363  2.7785 -0.4220
 7873TIP3    H223584   2.777   3.398   0.935 -0.9931  0.4135 -1.7053
 7874TIP3   OH223585   1.222   2.400   1.487  0.2918  0.0117 -0.5273
 7874TIP3    H123586   1.261   2.314   1.470 -1.2669 -0.6109 -1.1484
 7874TIP3    H223587   1.297   2.459   1.493  1.5048 -1.5398  1.0500
 7875TIP3   OH223588   6.805   5.466   3.211  0.2113 -0.2210  0.0139
 7875TIP3    H123589   6.810   5.387   3.265 -0.0916 -0.7506 -0.7194
 7875TIP3    H223590   6.729   5.452   3.155 -0.5138  1.0888  0.6411
 7876TIP3   OH223591   5.101   3.311   2.411 -0.2557  0.4587 -0.2502
 7876TIP3    H123592   5.012   3.308   2.448 -1.4437 -1.7456 -2.8998
 7876TIP3    H223593   5.158   3.305   2.487 -2.3916  0.8530  1.5025
 7877TIP3   OH223594   5.038   5.547   4.393 -0.1747 -0.1650  0.6448
 7877TIP3    H123595   5.089   5.623   4.420 -0.9966  0.8864 -0.6394
 7877TIP3    H223596   5.081   5.473   4.434  1.9496  0.7594  0.1876
 7878TIP3   OH223597   0.029   5.203   3.232  0.3358  0.4996  0.6642
 7878TIP3    H123598   0.100   5.199   3.295 -0.1014  0.3764  1.1621
 7878TIP3    H223599   0.001   5.112   3.221 -0.4389  0.6359  1.3073
 7879TIP3   OH223600   1.381   5.435   3.089  0.2094 -0.5863 -0.2785
 7879TIP3    H123601   1.374   5.433   2.993 -0.1318  0.2281 -0.2875
 7879TIP3    H223602   1.314   5.374   3.119  0.3851 -0.9200 -0.5668
 7880TIP3   OH223603   5.710   3.825   2.441  0.3942 -0.4767 -0.4990
 7880TIP3    H123604   5.759   3.816   2.523  0.4265 -2.2619 -0.6732
 7880TIP3    H223605   5.770   3.795   2.373 -0.2431 -0.7133 -0.9674
 7881TIP3   OH223606   5.217   3.199   0.482  0.1423  0.5537 -0.2875
 7881TIP3    H123607   5.253   3.129   0.536  0.6806  1.9467  1.2224
 7881TIP3    H223608   5.272   3.199   0.404  0.7957 -0.0379  0.1575
 7882TIP3   OH223609   0.954   0.147   5.503 -0.4796 -0.3912 -0.1227
 7882TIP3    H123610   1.031   0.109   5.546 -1.4138 -1.2327  0.8593
 7882TIP3    H223611   0.896   0.172   5.575 -2.3907 -2.4583 -0.8418
 7883TIP3   OH223612   1.134   1.418   5.723  0.6460  0.5403  0.4837
 7883TIP3    H123613   1.147   1.501   5.769  0.2861  1.1196 -0.4241
 7883TIP3    H223614   1.042   1.418   5.699  0.7190  0.0289  0.1823
 7884TIP3   OH223615   0.019   4.166   2.308  0.4702  0.1237 -0.1042
 7884TIP3    H123616   0.085   4.118   2.359 -1.6657 -1.2773  1.5027
 7884TIP3    H223617  -0.020   4.101   2.251  0.3866  0.9207 -0.9835
 7885TIP3   OH223618   6.441   6.477   5.012 -0.3973 -0.2713  0.1782
 7885TIP3    H123619   6.442   6.382   4.996 -0.3722 -0.1754 -0.4100
 7885TIP3    H223620   6.500   6.490   5.086 -0.3590 -0.7091  0.2270
 7886TIP3   OH223621   5.570   5.011   4.648 -0.0474  0.4618 -0.4314
 7886TIP3    H123622   5.476   5.020   4.666  0.4706  0.6778  2.5249
 7886TIP3    H223623   5.583   4.917   4.637 -0.3548  0.2207  1.0340
 7887TIP3   OH223624   3.608   3.140   0.052 -0.4084  0.1869  0.4352
 7887TIP3    H123625   3.666   3.137   0.128  1.0910 -0.6643 -0.6968
 7887TIP3    H223626   3.590   3.048   0.031 -2.6342  0.4190  1.0543
 7888TIP3   OH223627   4.920   6.171   2.991 -0.2264  0.0276 -0.3864
 7888TIP3    H123628   4.843   6.118   3.009  1.0475 -1.2337  1.7287
 7888TIP3    H223629   4.979   6.113   2.943  0.3453  0.2016  0.0912
 7889TIP3   OH223630   1.537   5.072   0.422 -0.4389  0.2487 -0.6469
 7889TIP3    H123631   1.538   5.157   0.465  1.2171  0.5581 -1.2215
 7889TIP3    H223632   1.581   5.013   0.483 -1.2463 -0.1276 -0.4136
 7890TIP3   OH223633   1.577   6.491   5.730 -0.2888  0.0410 -0.0887
 7890TIP3    H123634   1.594   6.551   5.657  0.7247 -2.0320 -1.6701
 7890TIP3    H223635   1.656   6.496   5.783  0.4772 -0.9944 -1.0822
 7891TIP3   OH223636   2.361   1.324   4.563 -0.4339 -0.2709  0.2964
 7891TIP3    H123637   2.423   1.252   4.560  0.7651  0.7103  0.7237
 7891TIP3    H223638   2.317   1.322   4.478  2.7903  1.2120 -1.6055
 7892TIP3   OH223639   2.107   6.465   0.297 -0.0435  0.5968  0.4810
 7892TIP3    H123640   2.158   6.545   0.308 -0.9026  1.0973  0.9980
 7892TIP3    H223641   2.066   6.474   0.211 -1.8305  1.7502  1.3950
 7893TIP3   OH223642   1.262   2.572   0.877 -0.1084 -0.3759 -0.2339
 7893TIP3    H123643   1.301   2.567   0.790  0.2769 -0.0388 -0.0812
 7893TIP3    H223644   1.191   2.507   0.875 -1.5360  1.1396 -1.5202
 7894TIP3   OH223645   4.791   0.521   1.431 -0.3261  0.3608 -0.0280
 7894TIP3    H123646   4.879   0.558   1.434  0.3100 -0.9803 -0.8630
 7894TIP3    H223647   4.804   0.433   1.395 -2.0061  0.1156 -0.1012
 7895TIP3   OH223648   4.808   2.379   4.097 -0.0242 -0.1778 -0.2773
 7895TIP3    H123649   4.737   2.351   4.039  0.2529 -0.8135 -0.3204
 7895TIP3    H223650   4.788   2.337   4.181  0.7272 -1.0334 -0.5130
 7896TIP3   OH223651   2.005   2.045   4.959  0.1283  0.6526  0.4244
 7896TIP3    H123652   2.009   1.957   4.922 -0.4752  1.1398 -0.8652
 7896TIP3    H223653   1.932   2.041   5.021  1.7367 -0.4261  2.3747
 7897TIP3   OH223654   2.245   2.507   2.127 -0.4237  0.4521 -0.2406
 7897TIP3    H123655   2.249   2.422   2.173  0.7257 -0.1934 -1.4503
 7897TIP3    H223656   2.317   2.557   2.165 -0.2538  0.3796 -0.4661
 7898TIP3   OH223657   5.896   0.050   3.391  0.0430 -0.1003  0.6648
 7898TIP3    H123658   5.820   0.004   3.427 -0.1164 -1.0221 -0.7276
 7898TIP3    H223659   5.893   0.137   3.431  0.1007 -1.1398  3.0500
 7899TIP3   OH223660   5.944   4.509   4.943 -0.6661 -0.0789 -0.8189
 7899TIP3    H123661   5.890   4.588   4.935 -0.0286  0.4622  0.0089
 7899TIP3    H223662   5.919   4.470   5.027 -1.0124 -0.7969 -1.2468
 7900TIP3   OH223663   6.410   4.374   1.451  0.3676  0.6272 -0.3452
 7900TIP3    H123664   6.331   4.422   1.475  0.6972  0.4574  1.1979
 7900TIP3    H223665   6.383   4.282   1.451  0.7856  0.4642  1.3490
 7901TIP3   OH223666   4.609   3.837   1.207  0.5114  0.0060  0.2221
 7901TIP3    H123667   4.692   3.878   1.231  1.3111 -1.6781  0.4102
 7901TIP3    H223668   4.598   3.765   1.269 -1.5380  0.6824  0.7583
 7902TIP3   OH223669   2.449   0.099   0.208 -0.2341 -0.8276  0.7401
 7902TIP3    H123670   2.469   0.172   0.150 -0.8110 -1.6989 -0.6192
 7902TIP3    H223671   2.411   0.140   0.286  2.3620  0.5035  1.4017
 7903TIP3   OH223672   6.419   0.815   5.080  0.0786 -0.3523  0.3800
 7903TIP3    H123673   6.412   0.791   4.988 -0.1453  1.3559 -0.0754
 7903TIP3    H223674   6.330   0.812   5.113 -0.0424  0.4443  0.1484
 7904TIP3   OH223675   1.213   1.996   0.505  0.2966  0.3293 -0.2800
 7904TIP3    H123676   1.259   1.918   0.537 -0.3784 -0.1384 -0.4220
 7904TIP3    H223677   1.282   2.060   0.487  0.9496 -0.5985 -1.1611
 7905TIP3   OH223678   1.385   5.296   1.488 -0.7862 -0.8721 -0.7809
 7905TIP3    H123679   1.375   5.209   1.449 -1.2378 -0.3061 -1.9464
 7905TIP3    H223680   1.370   5.357   1.416  1.3423  0.1706 -0.4206
 7906TIP3   OH223681   0.558   5.012   1.646  0.0610 -0.2746  0.2715
 7906TIP3    H123682   0.472   5.020   1.605  0.7341 -2.8443 -1.9485
 7906TIP3    H223683   0.565   4.920   1.669  1.6420  0.2042  1.9603
 7907TIP3   OH223684   6.322   0.055   3.197 -0.2238 -0.3897  0.5826
 7907TIP3    H123685   6.260  -0.004   3.241 -0.3697 -1.6786 -1.2076
 7907TIP3    H223686   6.266   0.116   3.149 -0.0678  0.2440  1.1843
 7908TIP3   OH223687   3.158   2.065   3.614  0.1159  0.0632  0.0390
 7908TIP3    H123688   3.171   2.141   3.670  0.3069 -0.7620  1.1571
 7908TIP3    H223689   3.233   2.009   3.632 -0.9809 -1.2549  0.7070
 7909TIP3   OH223690   4.264   6.417   0.750 -0.2594 -0.5181  0.0397
 7909TIP3    H123691   4.250   6.456   0.664 -0.3532 -0.5479  0.0416
 7909TIP3    H223692   4.323   6.478   0.795  1.4716 -1.5091 -0.7737
 7910TIP3   OH223693   2.579   3.946   5.641 -0.1076 -0.1468 -0.8893
 7910TIP3    H123694   2.524   3.966   5.717 -0.2915 -0.6058 -0.8983
 7910TIP3    H223695   2.528   3.976   5.566  0.2402  0.6639 -0.8155
 7911TIP3   OH223696   3.785   1.420   4.808  0.3446  0.7379 -0.2558
 7911TIP3    H123697   3.864   1.369   4.827  0.2401  0.1464 -1.3411
 7911TIP3    H223698   3.713   1.362   4.831  0.2098  1.2370  0.6281
 7912TIP3   OH223699   3.820   1.522   5.332 -0.9284 -0.1752  0.4476
 7912TIP3    H123700   3.775   1.577   5.268 -1.2071  0.0941  0.8703
 7912TIP3    H223701   3.913   1.547   5.325 -1.3418  2.5715  2.6991
 7913TIP3   OH223702   6.062   0.400   4.001  0.6745  0.2706 -0.5401
 7913TIP3    H123703   6.011   0.344   3.942  0.4813 -0.3402  0.1991
 7913TIP3    H223704   5.997   0.447   4.053  0.8412  1.0255 -1.0031
 7914TIP3   OH223705   4.347   2.830   3.077 -0.5862 -0.4821  0.2722
 7914TIP3    H123706   4.337   2.859   2.986  0.3408 -0.2383  0.2371
 7914TIP3    H223707   4.299   2.747   3.082 -0.3381 -0.6796 -0.5307
 7915TIP3   OH223708   2.801   5.889   4.907  0.1420  0.1344  0.3169
 7915TIP3    H123709   2.790   5.983   4.922 -0.9788 -0.0953  1.0586
 7915TIP3    H223710   2.817   5.881   4.813 -2.6015  0.8730 -0.2952
 7916TIP3   OH223711   2.295   1.468   2.909  0.5071  0.0765  0.4998
 7916TIP3    H123712   2.283   1.513   2.825  0.0193  0.8467  0.9765
 7916TIP3    H223713   2.312   1.539   2.971  0.5783 -0.4727  1.1070
 7917TIP3   OH223714   6.524   2.490   1.564  0.4288 -0.3252  0.3649
 7917TIP3    H123715   6.570   2.407   1.558 -0.8681 -1.0833  0.5770
 7917TIP3    H223716   6.591   2.553   1.588  1.3299 -1.4156  0.7745
 7918TIP3   OH223717   1.520   6.728   0.081  0.6535  0.8282 -0.2104
 7918TIP3    H123718   1.559   6.720   0.169  0.5651 -0.4214 -0.2782
 7918TIP3    H223719   1.590   6.702   0.022  0.2559  0.2572 -0.4313
 7919TIP3   OH223720   4.853   5.340   1.183 -0.0979 -0.2173 -0.1189
 7919TIP3    H123721   4.932   5.302   1.143  1.3833  0.7394  1.7239
 7919TIP3    H223722   4.887   5.396   1.253 -2.4886 -1.1323  1.8938
 7920TIP3   OH223723   6.577   6.737   4.586 -0.1597  0.2277  0.1536
 7920TIP3    H123724   6.534   6.819   4.611  0.0519 -0.0272  1.4385
 7920TIP3    H223725   6.651   6.764   4.531  0.2806  0.9555  1.0776
 7921TIP3   OH223726   0.633   2.531   3.873 -0.2358  0.2996 -0.0710
 7921TIP3    H123727   0.721   2.540   3.910  0.7512 -2.1565 -1.5999
 7921TIP3    H223728   0.576   2.523   3.950  1.1793 -0.3980  0.9634
 7922TIP3   OH223729   3.261   4.092   2.019 -0.4625 -0.3389  0.2003
 7922TIP3    H123730   3.266   4.173   1.968 -2.2669  0.8763  1.7929
 7922TIP3    H223731   3.198   4.112   2.088  1.6187 -1.9905  2.7467
 7923TIP3   OH223732   6.963   3.289   5.668 -0.0050  0.2660  0.1880
 7923TIP3    H123733   6.987   3.382   5.676  1.6574 -0.1179  0.1999
 7923TIP3    H223734   6.898   3.287   5.597 -1.4606  1.6217  1.4159
 7924TIP3   OH223735   6.056   3.657   5.147 -0.1849  0.1144  0.6349
 7924TIP3    H123736   5.997   3.585   5.124  1.0819 -0.3990 -1.2476
 7924TIP3    H223737   6.018   3.734   5.106 -1.1678  0.4209  2.0604
 7925TIP3   OH223738   2.398   1.270   0.411 -0.0300  0.8445 -0.4249
 7925TIP3    H123739   2.344   1.228   0.345  0.7772 -1.3207  0.2234
 7925TIP3    H223740   2.366   1.235   0.494  0.6062  1.6053  0.1623
 7926TIP3   OH223741   6.325   4.142   2.408 -0.7288  0.0159  0.2787
 7926TIP3    H123742   6.234   4.157   2.436 -1.1430 -0.5007 -0.7348
 7926TIP3    H223743   6.337   4.047   2.417 -0.4306  0.0284  0.0013
 7927TIP3   OH223744   5.856   3.690   4.218  0.2183  0.3210 -0.2080
 7927TIP3    H123745   5.914   3.615   4.212  0.3176  0.4744 -1.3825
 7927TIP3    H223746   5.909   3.758   4.259  1.6398  1.1206 -3.0977
 7928TIP3   OH223747   3.428   1.997   2.508  0.1397 -0.1901 -0.0812
 7928TIP3    H123748   3.360   2.014   2.443 -0.5525 -0.7994  0.4688
 7928TIP3    H223749   3.387   1.938   2.571  0.9090  0.1081  0.7251
 7929TIP3   OH223750   5.464   5.711   3.075 -0.5747  0.1343 -0.4835
 7929TIP3    H123751   5.447   5.704   3.169 -0.2094 -1.0322 -0.4824
 7929TIP3    H223752   5.528   5.782   3.068  0.0181 -0.3035  0.2462
 7930TIP3   OH223753   1.770   4.626   2.783 -0.2787 -0.1769  0.4820
 7930TIP3    H123754   1.815   4.677   2.850 -0.3626 -0.4060  0.7163
 7930TIP3    H223755   1.684   4.667   2.776 -0.1433  0.0723  0.2521
 7931TIP3   OH223756   1.727   0.489   5.804  0.0038 -0.0069 -0.1598
 7931TIP3    H123757   1.733   0.461   5.713 -0.3403 -2.5652  0.5142
 7931TIP3    H223758   1.810   0.460   5.843 -1.2765 -2.3418  1.0794
 7932TIP3   OH223759   6.986   2.281   4.127 -0.4924 -0.0844  0.6665
 7932TIP3    H123760   7.034   2.232   4.060 -2.8074 -0.7136 -0.6191
 7932TIP3    H223761   6.997   2.229   4.207 -1.2905 -1.7025 -0.2352
 7933TIP3   OH223762   3.850   1.663   5.608  1.1054 -0.6467  0.1718
 7933TIP3    H123763   3.870   1.576   5.573  3.4795 -0.3787  0.6820
 7933TIP3    H223764   3.850   1.720   5.532  1.9219 -0.7362  0.0991
 7934TIP3   OH223765   6.612   0.398   2.436  0.1070 -0.1347  0.2044
 7934TIP3    H123766   6.648   0.434   2.517  2.0038  0.4564 -0.8217
 7934TIP3    H223767   6.688   0.359   2.392 -1.2819 -2.3789 -0.3067
 7935TIP3   OH223768   6.725   3.198   2.854  0.0228  0.2898  0.0281
 7935TIP3    H123769   6.731   3.114   2.899 -1.3412  0.4496  0.5696
 7935TIP3    H223770   6.790   3.193   2.784 -0.9871 -1.7808 -0.8383
 7936TIP3   OH223771   5.386   6.531   5.777  0.4645 -0.1580  0.3334
 7936TIP3    H123772   5.314   6.472   5.801  0.5726 -0.4819 -0.1099
 7936TIP3    H223773   5.440   6.536   5.856 -0.5977  0.9350  1.0224
 7937TIP3   OH223774   6.958   0.029   5.153  0.1850  0.5053 -0.5582
 7937TIP3    H123775   6.965   0.101   5.090  0.1824  0.8337 -0.1890
 7937TIP3    H223776   7.008  -0.042   5.113  1.3590  1.1577 -0.3098
 7938TIP3   OH223777   2.301   2.722   4.681 -0.1648 -0.0796  0.2711
 7938TIP3    H123778   2.282   2.798   4.626  1.5764  0.7766  0.7832
 7938TIP3    H223779   2.275   2.748   4.769 -0.6802 -0.5430  0.2634
 7939TIP3   OH223780   4.365   2.353   3.889 -0.1535  0.1353 -0.0235
 7939TIP3    H123781   4.404   2.276   3.931  0.9220 -0.7347 -2.4331
 7939TIP3    H223782   4.295   2.317   3.834 -0.4287  1.0154 -0.2551
 7940TIP3   OH223783   5.613   4.095   2.375  0.4562  0.1054  0.1160
 7940TIP3    H123784   5.612   4.004   2.405 -0.9757  0.4794  1.3265
 7940TIP3    H223785   5.521   4.120   2.372  0.8277  1.5046 -0.2714
 7941TIP3   OH223786   4.151   4.687   2.442  0.1794  0.0722 -0.2101
 7941TIP3    H123787   4.161   4.771   2.398  0.1456 -0.4393 -1.2148
 7941TIP3    H223788   4.072   4.697   2.495  0.6797  0.9663  0.3768
 7942TIP3   OH223789   1.494   5.602   1.041 -0.0603  0.0476 -0.1602
 7942TIP3    H123790   1.587   5.593   1.019 -0.6834 -1.7420 -2.4560
 7942TIP3    H223791   1.480   5.696   1.049  2.1131  0.3239  1.2876
 7943TIP3   OH223792   2.707   0.836   4.348  0.4194 -0.2557  0.4599
 7943TIP3    H123793   2.634   0.780   4.322  0.8106 -0.2267 -0.7412
 7943TIP3    H223794   2.737   0.876   4.267  2.1764 -0.7389  0.8181
 7944TIP3   OH223795   1.010   0.557   3.406  0.1407  0.6222 -0.5308
 7944TIP3    H123796   1.082   0.554   3.469 -0.3787 -1.5403  0.0244
 7944TIP3    H223797   1.037   0.624   3.342  3.1673 -0.8727 -0.9831
 7945TIP3   OH223798   4.453   5.864   2.050 -0.2660 -0.2384 -0.4032
 7945TIP3    H123799   4.502   5.946   2.048 -2.1089  0.9486  0.4315
 7945TIP3    H223800   4.441   5.841   1.958 -0.6976  1.0688 -0.6931
 7946TIP3   OH223801   4.588   4.381   3.896  0.2919  0.0988  0.1599
 7946TIP3    H123802   4.583   4.472   3.926 -1.3055  0.1393 -0.1506
 7946TIP3    H223803   4.504   4.343   3.921 -0.9746 -0.0239 -3.6525
 7947TIP3   OH223804   1.366   5.022   1.444  0.2683  0.1204  0.4248
 7947TIP3    H123805   1.314   4.947   1.415  0.2025  0.7150 -1.0697
 7947TIP3    H223806   1.441   4.983   1.488  0.2287 -0.8368 -0.3242
 7948TIP3   OH223807   0.487   0.479   1.240 -0.3305 -0.3211  0.7435
 7948TIP3    H123808   0.506   0.493   1.147  1.5286  1.3863  1.2905
 7948TIP3    H223809   0.449   0.392   1.244  1.1430 -1.1640 -1.4497
 7949TIP3   OH223810   2.063   2.637   5.853 -0.1890 -0.7216  0.1633
 7949TIP3    H123811   2.110   2.660   5.933  0.3168 -1.9233  0.2337
 7949TIP3    H223812   2.037   2.546   5.865 -1.2025 -0.5489 -0.5293
 7950TIP3   OH223813   5.950   1.937   2.341  1.0246  0.1817  0.2955
 7950TIP3    H123814   5.957   1.930   2.436  3.1194 -2.1383  0.0883
 7950TIP3    H223815   5.979   2.026   2.321 -0.6277  1.1299  1.8447
 7951TIP3   OH223816   5.158   1.632   3.012  0.2413 -0.4540 -0.2765
 7951TIP3    H123817   5.143   1.691   3.086 -0.1807  0.2377 -0.8908
 7951TIP3    H223818   5.246   1.655   2.981  0.7444 -1.2943  0.4811
 7952TIP3   OH223819   4.837   6.608   3.638 -0.4750  0.4471  0.3014
 7952TIP3    H123820   4.891   6.687   3.631  0.9064 -0.2714  1.9999
 7952TIP3    H223821   4.899   6.536   3.626 -0.7173 -0.4372  3.3502
 7953TIP3   OH223822   5.313   5.983   3.132 -0.2890  0.2485  0.2134
 7953TIP3    H123823   5.229   5.957   3.094  0.4316 -2.2249  0.1807
 7953TIP3    H223824   5.342   6.057   3.078 -1.8338  0.3187 -0.5656
 7954TIP3   OH223825   6.672  -0.006   0.470 -0.4219  0.1011  0.0078
 7954TIP3    H123826   6.713   0.022   0.388  0.1272  0.0975  0.2752
 7954TIP3    H223827   6.590   0.044   0.474 -0.2808  0.3701 -0.3703
 7955TIP3   OH223828   6.976   4.443   1.947  0.0088 -0.2076  0.7848
 7955TIP3    H123829   6.999   4.443   1.854 -1.6222  0.6163  0.3452
 7955TIP3    H223830   6.995   4.354   1.976  2.5486  0.0726  0.2323
 7956TIP3   OH223831   5.114   2.205   5.373 -0.3423  0.1848 -0.5914
 7956TIP3    H123832   5.087   2.247   5.292 -1.1128 -1.6345 -1.3455
 7956TIP3    H223833   5.033   2.167   5.408 -0.0626  1.1142  1.1507
 7957TIP3   OH223834   1.830   1.885   1.348  0.0906 -0.1494 -0.0076
 7957TIP3    H123835   1.830   1.795   1.382 -0.1703 -0.6279 -1.2081
 7957TIP3    H223836   1.916   1.897   1.310  0.4533  0.4562  0.9586
 7958TIP3   OH223837   6.918   1.133   5.875 -0.0138  0.4077  0.8153
 7958TIP3    H123838   6.935   1.099   5.787 -1.7396  0.8055  0.2877
 7958TIP3    H223839   6.880   1.059   5.922 -0.8636  0.7052  0.6201
 7959TIP3   OH223840   0.006   1.233   1.207 -0.7150 -0.0377 -0.4423
 7959TIP3    H123841   0.026   1.181   1.285 -1.6374  0.6962  0.3129
 7959TIP3    H223842   0.076   1.298   1.204 -0.4984 -0.2675 -0.4076
 7960TIP3   OH223843   3.450   3.078   4.060  0.5229 -0.5713  0.5883
 7960TIP3    H123844   3.378   3.029   4.101 -0.0011 -0.0988  0.2450
 7960TIP3    H223845   3.508   3.010   4.025 -0.3603 -0.9646 -0.1754
 7961TIP3   OH223846   1.418   2.030   1.718 -0.1868 -0.0167  0.5302
 7961TIP3    H123847   1.377   1.951   1.753 -1.0450  0.4251  0.5461
 7961TIP3    H223848   1.510   2.020   1.740 -0.2601 -1.0643  0.4415
 7962TIP3   OH223849   4.872   3.623   1.296 -0.1269  0.1343 -0.2295
 7962TIP3    H123850   4.926   3.626   1.376  1.5790  0.0058 -1.3325
 7962TIP3    H223851   4.798   3.567   1.320  1.5776 -1.9204  0.5655
 7963TIP3   OH223852   3.974  -0.011   3.331  0.3870 -0.0354  0.0710
 7963TIP3    H123853   3.986   0.047   3.406  0.7018 -0.5795  0.4452
 7963TIP3    H223854   3.880  -0.013   3.317  0.1659 -1.2542  1.5200
 7964TIP3   OH223855   0.043   1.945   3.853  0.5199  0.3013 -0.3132
 7964TIP3    H123856   0.005   2.001   3.921  1.1822  0.5155 -0.1102
 7964TIP3    H223857   0.091   2.005   3.796 -0.6529  0.2244 -1.4264
 7965TIP3   OH223858   1.758   0.799   2.133 -0.4589  0.1690  0.3539
 7965TIP3    H123859   1.749   0.728   2.196  0.9050 -0.6996 -0.3720
 7965TIP3    H223860   1.722   0.764   2.052 -0.3095  0.5151  0.1336
 7966TIP3   OH223861   0.811   1.101   3.818 -0.2789 -0.0925  0.1790
 7966TIP3    H123862   0.784   1.165   3.884 -1.1637 -2.4667  2.2764
 7966TIP3    H223863   0.734   1.091   3.762 -0.2328  0.4887  0.0099
 7967TIP3   OH223864   4.890   6.692   5.360  0.2906 -0.1914  0.0321
 7967TIP3    H123865   4.910   6.665   5.450  1.2748  1.7354  0.4520
 7967TIP3    H223866   4.796   6.710   5.360  0.7004  2.6007  1.5818
 7968TIP3   OH223867   1.918   6.127   0.832  0.0367 -0.0604 -0.3093
 7968TIP3    H123868   1.977   6.145   0.905  1.6010 -0.4360 -1.4288
 7968TIP3    H223869   1.946   6.188   0.763  1.3987 -2.5034 -2.0438
 7969TIP3   OH223870   3.603   2.160   3.110  0.1646 -0.0212  0.0266
 7969TIP3    H123871   3.660   2.175   3.035 -0.0921  0.6501 -0.0412
 7969TIP3    H223872   3.576   2.247   3.137 -1.3175 -0.3510 -0.3205
 7970TIP3   OH223873   5.520   3.307   1.300 -0.4828  0.0352  0.3819
 7970TIP3    H123874   5.491   3.323   1.210  1.3274  1.4705 -0.0114
 7970TIP3    H223875   5.478   3.224   1.324 -2.2007  0.3565 -1.2282
 7971TIP3   OH223876   2.069   4.632   1.753  0.1330 -0.0848  0.1400
 7971TIP3    H123877   2.152   4.650   1.798  1.0790 -1.0029 -1.1774
 7971TIP3    H223878   2.029   4.718   1.742  0.0502  0.2301  2.3035
 7972TIP3   OH223879   5.393   6.603   2.798  0.4257  0.5362 -0.1973
 7972TIP3    H123880   5.376   6.600   2.703  2.6949  1.2685 -0.6875
 7972TIP3    H223881   5.488   6.593   2.805  0.4235  1.6644  1.9401
 7973TIP3   OH223882   5.746   5.867   2.610  0.0473  0.8968  0.5925
 7973TIP3    H123883   5.822   5.812   2.591  0.0466  0.6921  1.1625
 7973TIP3    H223884   5.778   5.928   2.677 -0.1413  1.1522  0.4480
 7974TIP3   OH223885   0.399   5.975   4.340  0.1891  0.3680 -0.3358
 7974TIP3    H123886   0.396   5.880   4.347  1.2655  0.3361 -0.2639
 7974TIP3    H223887   0.309   5.999   4.315 -0.0417 -0.6746 -0.5738
 7975TIP3   OH223888   3.838   2.250   0.552  0.0447 -0.3863  0.2558
 7975TIP3    H123889   3.807   2.325   0.501  0.9303 -0.3001 -0.1733
 7975TIP3    H223890   3.779   2.179   0.527  0.5599 -0.3889 -1.0425
 7976TIP3   OH223891   1.766   3.949   5.013 -0.8910  0.0398 -0.6342
 7976TIP3    H123892   1.753   3.858   4.987  0.8618 -1.2357  2.4271
 7976TIP3    H223893   1.850   3.973   4.973 -1.8948  0.8296 -2.4181
 7977TIP3   OH223894   2.603   6.546   5.256  0.9056 -0.0284  0.1622
 7977TIP3    H123895   2.665   6.475   5.239  1.8275 -0.0144  2.9603
 7977TIP3    H223896   2.633   6.584   5.339  0.1875  3.3877 -1.0120
 7978TIP3   OH223897   3.333   6.658   2.061 -0.0703 -0.1120 -0.1625
 7978TIP3    H123898   3.319   6.704   1.978  0.1993  0.8673  0.3242
 7978TIP3    H223899   3.335   6.727   2.127 -0.5802 -0.9159  0.7044
 7979TIP3   OH223900   2.645   6.283   3.403 -0.4903 -0.1343 -0.1133
 7979TIP3    H123901   2.659   6.355   3.342  0.1756  0.4397  0.6971
 7979TIP3    H223902   2.568   6.237   3.368 -1.7324  1.7145  0.0266
 7980TIP3   OH223903   4.922   0.987   1.443  0.1229  0.3992  0.3598
 7980TIP3    H123904   4.894   1.064   1.493 -0.9526  0.1725  0.1205
 7980TIP3    H223905   5.016   1.000   1.430  0.2647  0.8770  1.7051
 7981TIP3   OH223906   5.505   2.045   2.728  0.0130  0.2443  0.0356
 7981TIP3    H123907   5.515   2.139   2.713  0.1051  0.0994 -0.8482
 7981TIP3    H223908   5.410   2.032   2.739 -0.0856  0.3150 -0.7202
 7982TIP3   OH223909   3.463   4.337   2.639 -0.2639 -0.2146 -0.2989
 7982TIP3    H123910   3.543   4.376   2.603 -0.3617  0.1341 -0.1491
 7982TIP3    H223911   3.490   4.251   2.670 -0.1692 -0.5094 -1.1654
 7983TIP3   OH223912   3.747   2.900   3.142  0.1259 -0.3672  0.3275
 7983TIP3    H123913   3.771   2.992   3.151  0.5753 -0.5282  0.8133
 7983TIP3    H223914   3.821   2.859   3.098  0.7986 -0.8701  1.8659
 7984TIP3   OH223915   4.423   0.374   3.480  0.7000  0.1360  0.2866
 7984TIP3    H123916   4.401   0.281   3.481  0.0848  0.2810  0.9385
 7984TIP3    H223917   4.413   0.401   3.389 -1.9195  0.2103  0.5317
 7985TIP3   OH223918   6.617   3.287   4.780 -0.4865 -0.0555  0.2509
 7985TIP3    H123919   6.653   3.206   4.815 -0.9460  0.1251  1.1742
 7985TIP3    H223920   6.682   3.354   4.802 -0.6856  0.0273  0.5890
 7986TIP3   OH223921   0.784   5.301   0.759 -0.1847 -0.0024 -0.3387
 7986TIP3    H123922   0.859   5.279   0.815 -0.8251  0.1320  0.5910
 7986TIP3    H223923   0.786   5.397   0.754 -0.7535  0.0596  0.3672
 7987TIP3   OH223924   4.878   1.426   2.701 -0.7633  0.2650 -0.1608
 7987TIP3    H123925   4.923   1.343   2.717 -0.9843  0.1453 -0.1562
 7987TIP3    H223926   4.936   1.492   2.738 -0.7581  0.0812  0.1662
 7988TIP3   OH223927   5.176   0.304   2.451 -0.5996  0.2707 -0.1047
 7988TIP3    H123928   5.246   0.271   2.395 -0.7578 -1.1690  0.5038
 7988TIP3    H223929   5.097   0.297   2.398 -0.6581 -0.5112  0.0833
 7989TIP3   OH223930   3.608   6.655   1.756  0.2314  0.1645 -0.0722
 7989TIP3    H123931   3.537   6.698   1.804  0.6875 -0.3140  1.0571
 7989TIP3    H223932   3.684   6.711   1.771  0.9369 -1.2142  1.7769
 7990TIP3   OH223933   0.536   5.454   5.780 -0.1821 -0.0754  0.2854
 7990TIP3    H123934   0.469   5.437   5.846 -0.6321  0.3162 -0.0640
 7990TIP3    H223935   0.526   5.547   5.758 -0.6388 -0.3929 -0.9720
 7991TIP3   OH223936   2.658   0.083   3.514 -0.1035  0.1894 -0.3554
 7991TIP3    H123937   2.711   0.093   3.434 -0.2139 -0.6974 -0.5502
 7991TIP3    H223938   2.704   0.015   3.564  1.5365  2.5817  1.6598
 7992TIP3   OH223939   5.979   1.301   2.585 -0.4114  0.6401  0.2036
 7992TIP3    H123940   5.922   1.257   2.521 -0.1597 -0.9724  1.0450
 7992TIP3    H223941   5.942   1.278   2.670  1.8673 -1.0750  0.8232
 7993TIP3   OH223942   5.503   1.144   1.810 -0.3641  0.2362 -0.2990
 7993TIP3    H123943   5.477   1.087   1.738 -1.1875 -0.2998  0.3972
 7993TIP3    H223944   5.596   1.125   1.824 -0.7748 -1.4796  0.3639
 7994TIP3   OH223945   6.849   2.627   1.316  0.0922 -0.3531 -0.2279
 7994TIP3    H123946   6.896   2.576   1.250  1.1687 -0.7449  0.7873
 7994TIP3    H223947   6.759   2.631   1.284  0.8427  0.6763 -2.3887
 7995TIP3   OH223948   7.199   1.153   2.436 -0.0298  0.0563  0.4628
 7995TIP3    H123949   7.292   1.134   2.448 -0.0391 -1.0792 -0.9649
 7995TIP3    H223950   7.179   1.216   2.505  1.4520 -0.7277  1.6866
 7996TIP3   OH223951   6.851   4.681   0.759 -0.2365  0.2588 -0.4090
 7996TIP3    H123952   6.853   4.619   0.686  0.3041  0.0931 -0.2595
 7996TIP3    H223953   6.841   4.625   0.836  0.8766  0.3081 -0.2224
 7997TIP3   OH223954   5.553   0.540   0.476 -0.5675 -0.2560  0.2534
 7997TIP3    H123955   5.603   0.463   0.501 -0.4926 -0.1683  0.3789
 7997TIP3    H223956   5.555   0.596   0.553 -1.7259 -0.6849  0.6184
 7998TIP3   OH223957   1.159   1.700   1.212  0.0267 -0.3660  0.3697
 7998TIP3    H123958   1.121   1.765   1.153 -2.7641  0.1566  2.5339
 7998TIP3    H223959   1.241   1.738   1.242  0.3745  0.3390 -1.3462
 7999TIP3   OH223960   1.654   4.494   3.543 -0.3266 -0.4290  0.1487
 7999TIP3    H123961   1.673   4.436   3.470 -2.0014  0.4010 -1.0073
 7999TIP3    H223962   1.731   4.488   3.599 -0.4356 -3.7718  0.1375
 8000TIP3   OH223963   3.266   2.064   0.866  0.1269 -0.2842 -0.2004
 8000TIP3    H123964   3.234   2.024   0.785  0.0383 -1.7906  0.5577
 8000TIP3    H223965   3.247   2.158   0.855  2.0975 -0.0867 -2.8421
 8001TIP3   OH223966   4.968   1.856   0.312 -0.4399  0.5279  0.0607
 8001TIP3    H123967   4.907   1.926   0.336 -1.4282  0.4675 -1.9936
 8001TIP3    H223968   4.943   1.782   0.367 -0.8971  1.1197  0.6582
 8002TIP3   OH223969   3.970   3.474   2.846 -0.0722 -0.0299  0.2858
 8002TIP3    H123970   4.013   3.474   2.931  2.0811 -2.0145 -0.6892
 8002TIP3    H223971   4.020   3.411   2.794 -2.6969 -0.6189 -1.7600
 8003TIP3   OH223972   2.931   3.593   2.905  0.5067 -0.6318 -0.2026
 8003TIP3    H123973   2.859   3.619   2.963  0.9823  1.0980 -0.3290
 8003TIP3    H223974   2.988   3.540   2.960 -0.7486 -1.9124 -0.0557
 8004TIP3   OH223975   7.069   6.366   2.858  0.4205  0.0532  0.3142
 8004TIP3    H123976   7.062   6.302   2.787 -0.4766  1.1137 -0.5887
 8004TIP3    H223977   7.090   6.313   2.935 -0.9366 -1.4294 -0.2694
 8005TIP3   OH223978   7.199   1.509   3.132  0.3883  0.1552 -0.4024
 8005TIP3    H123979   7.135   1.576   3.158 -0.0188 -0.1373 -0.6317
 8005TIP3    H223980   7.222   1.466   3.215  1.1793  1.0225 -0.1529
 8006TIP3   OH223981   0.743   2.334   5.698 -0.3867  0.2536 -0.2777
 8006TIP3    H123982   0.812   2.336   5.764 -0.7213 -2.0682  0.2318
 8006TIP3    H223983   0.752   2.417   5.651  1.2758  0.9891  1.2356
 8007TIP3   OH223984   1.964   4.996   5.311 -0.0784 -0.1789 -0.6811
 8007TIP3    H123985   2.054   5.023   5.326  0.2026 -1.0104 -0.8496
 8007TIP3    H223986   1.940   5.036   5.228  0.3397 -0.4668 -0.9388
 8008TIP3   OH223987   2.435   0.872   2.791 -0.0207  0.1113  0.5207
 8008TIP3    H123988   2.501   0.887   2.858 -0.5333 -0.0882  1.0821
 8008TIP3    H223989   2.453   0.939   2.725  1.8964 -1.1004 -0.2556
 8009TIP3   OH223990   4.148   2.325   4.522  0.7182  0.1421  0.3648
 8009TIP3    H123991   4.083   2.389   4.497  0.3821 -0.1503  0.4864
 8009TIP3    H223992   4.127   2.247   4.469 -0.6619 -0.8612  2.2809
 8010TIP3   OH223993   1.570   1.981   1.391  0.1061  0.0405 -0.1588
 8010TIP3    H123994   1.572   1.974   1.486 -1.6757  0.5090 -0.0452
 8010TIP3    H223995   1.650   1.938   1.362 -0.7554 -2.8857  1.3808
 8011TIP3   OH223996   5.361   6.321   4.456  0.7011  0.0550 -0.0082
 8011TIP3    H123997   5.360   6.244   4.400  3.2066  0.3043 -0.5116
 8011TIP3    H223998   5.339   6.394   4.398 -0.5752 -0.1210  0.2288
 8012TIP3   OH223999   6.083   4.010   3.421  0.3721 -0.2093  0.2703
 8012TIP3    H124000   6.048   3.923   3.439 -0.6531 -0.4327 -2.2925
 8012TIP3    H224001   6.166   3.994   3.376 -0.3474  0.0442 -1.2189
 8013TIP3   OH224002   4.936   5.382   5.004  0.6907  0.6728  0.7496
 8013TIP3    H124003   4.950   5.304   4.952 -1.5614  1.0293 -0.5290
 8013TIP3    H224004   4.890   5.351   5.082  0.0307  0.6504  0.3641
 8014TIP3   OH224005   4.694   2.345   3.761  0.2810 -0.3096  0.7417
 8014TIP3    H124006   4.663   2.320   3.674  1.0096  1.4334 -0.0683
 8014TIP3    H224007   4.648   2.286   3.821 -0.7329 -1.1180 -0.7739
 8015TIP3   OH224008   1.749   1.675   4.964  0.2683  0.2084  0.6251
 8015TIP3    H124009   1.671   1.709   4.921  0.7067 -0.1212 -0.4888
 8015TIP3    H224010   1.805   1.752   4.978  1.1406  0.0697 -1.6291
 8016TIP3   OH224011   2.279   4.911   2.547  0.3537  0.3939  0.5526
 8016TIP3    H124012   2.202   4.883   2.598 -2.0202  1.1630 -2.3244
 8016TIP3    H224013   2.289   4.844   2.480  1.8969  0.6260  0.5123
 8017TIP3   OH224014   5.481   2.530   5.256 -0.4876 -0.3987  0.3597
 8017TIP3    H124015   5.496   2.557   5.346  2.7145  0.9638 -0.4041
 8017TIP3    H224016   5.455   2.611   5.211 -3.0013 -1.2511  0.1598
 8018TIP3   OH224017   5.905   3.666   4.769  0.4770 -0.1053 -0.0722
 8018TIP3    H124018   5.973   3.604   4.741  1.6068  1.3656 -0.7466
 8018TIP3    H224019   5.910   3.737   4.705 -2.2696 -0.2924 -0.6095
 8019TIP3   OH224020   1.523   4.792   1.147  0.2938  0.5783  0.2781
 8019TIP3    H124021   1.516   4.883   1.119  0.1275  0.6047  0.4049
 8019TIP3    H224022   1.433   4.760   1.149  0.4689 -0.3469 -2.2213
 8020TIP3   OH224023   2.141   3.432   3.954 -0.1809 -0.4513  0.5525
 8020TIP3    H124024   2.145   3.503   4.018  0.3140 -0.6714  0.7715
 8020TIP3    H224025   2.223   3.438   3.905  0.1505 -1.2357  0.9805
 8021TIP3   OH224026   4.046   1.064   1.297  0.4428  0.4691  0.1011
 8021TIP3    H124027   4.082   1.132   1.240  1.0597 -0.4444 -0.6372
 8021TIP3    H224028   4.121   1.007   1.316 -0.3388 -0.7850 -0.4486
 8022TIP3   OH224029   2.942   1.276   3.105  0.2304  0.0508  0.4110
 8022TIP3    H124030   2.993   1.203   3.071 -0.8819 -0.0303 -1.2494
 8022TIP3    H224031   2.993   1.310   3.178  2.6515  0.0035 -1.1606
 8023TIP3   OH224032   4.039   2.891   3.258  0.0462  0.9345  0.3150
 8023TIP3    H124033   4.131   2.878   3.281  0.3271  2.1535 -0.0574
 8023TIP3    H224034   4.033   2.864   3.166 -0.3254 -0.6422  0.7831
 8024TIP3   OH224035   1.116   3.578   1.808 -0.3839 -0.2678 -0.2119
 8024TIP3    H124036   1.177   3.507   1.827  1.6289  1.4502 -0.0216
 8024TIP3    H224037   1.139   3.606   1.720 -1.9435 -0.5470 -0.7478
 8025TIP3   OH224038   1.439   0.545   0.752  0.0406 -0.0816 -0.4504
 8025TIP3    H124039   1.369   0.573   0.693 -1.6601 -1.6625  0.6839
 8025TIP3    H224040   1.405   0.466   0.794  1.9616 -0.1261  1.2001
 8026TIP3   OH224041   3.604   2.565   3.931  0.4091  0.0478  0.2374
 8026TIP3    H124042   3.600   2.518   4.014 -0.3511 -0.9855 -0.3674
 8026TIP3    H224043   3.689   2.608   3.932  1.1046 -1.2897  0.8348
 8027TIP3   OH224044   1.417   4.684   0.707  0.6043 -0.2874 -0.1283
 8027TIP3    H124045   1.350   4.737   0.750 -1.1811 -1.8814 -0.8433
 8027TIP3    H224046   1.460   4.637   0.778  1.3948  1.1818  0.3908
 8028TIP3   OH224047   5.114   2.640   5.331 -0.2701  0.2307 -0.6522
 8028TIP3    H124048   5.041   2.620   5.272 -0.7821  2.3164 -0.8155
 8028TIP3    H224049   5.177   2.686   5.276  0.8378 -0.8290 -0.3127
 8029TIP3   OH224050   1.606   5.533   1.310 -0.1390 -0.1162  0.2928
 8029TIP3    H124051   1.645   5.582   1.383  2.2654 -1.3924 -0.0377
 8029TIP3    H224052   1.516   5.566   1.305  0.4626  2.0601  1.9853
 8030TIP3   OH224053   5.559   2.980   4.171 -0.1288  0.0917 -0.0092
 8030TIP3    H124054   5.464   2.995   4.176  0.1527  1.7057  2.0750
 8030TIP3    H224055   5.570   2.889   4.199 -1.0716 -0.2361 -0.6464
 8031TIP3   OH224056   3.918   2.327   1.375  0.0767 -0.4214  0.3752
 8031TIP3    H124057   3.852   2.263   1.349 -0.1986  0.4511 -1.2180
 8031TIP3    H224058   3.992   2.311   1.316 -0.1196  0.8824 -0.2756
 8032TIP3   OH224059   4.143   5.301   1.974 -0.2709 -0.6175  0.4745
 8032TIP3    H124060   4.170   5.366   2.039  1.3186  0.3695 -1.0600
 8032TIP3    H224061   4.122   5.223   2.024 -1.8458  0.9207  2.3689
 8033TIP3   OH224062   3.009   3.425  -0.017  0.2876 -0.8180  0.1559
 8033TIP3    H124063   3.041   3.342   0.017  0.7261 -0.1932  1.2849
 8033TIP3    H224064   3.055   3.492   0.033  0.3196  0.1246 -1.0875
 8034TIP3   OH224065   4.385   5.951   2.303  0.5387  0.6035  0.1919
 8034TIP3    H124066   4.438   5.941   2.224 -0.4891  0.6171 -0.5113
 8034TIP3    H224067   4.310   5.894   2.289  0.3595  0.5934  1.1719
 8035TIP3   OH224068   1.482   5.849   4.185  0.2076 -0.6946 -0.2447
 8035TIP3    H124069   1.391   5.869   4.208  0.0376 -1.7561  0.0681
 8035TIP3    H224070   1.481   5.842   4.089  0.0934 -0.1060 -0.2896
 8036TIP3   OH224071   5.232   0.494   2.700 -0.2967 -1.0929  0.0702
 8036TIP3    H124072   5.171   0.470   2.631 -1.0009  1.6468 -0.3531
 8036TIP3    H224073   5.304   0.537   2.654 -0.5123  0.2757  0.9779
 8037TIP3   OH224074   6.999   5.450   0.023  0.1179 -0.0655  0.4505
 8037TIP3    H124075   6.979   5.541   0.045  1.1641 -0.0419  1.4327
 8037TIP3    H224076   7.009   5.407   0.108  0.5556 -0.8729  0.0003
 8038TIP3   OH224077   5.206   6.757   3.010  0.5164 -0.2635 -0.1554
 8038TIP3    H124078   5.203   6.701   2.933  1.7245 -0.8809  0.2179
 8038TIP3    H224079   5.300   6.768   3.028  0.2766  0.9724  0.4377
 8039TIP3   OH224080   4.270   2.746   0.665 -0.1825  0.5000  0.0306
 8039TIP3    H124081   4.312   2.748   0.579  2.8827 -0.9112  1.3428
 8039TIP3    H224082   4.310   2.819   0.713 -1.2013  0.7283  0.5576
 8040TIP3   OH224083   4.659   3.061   2.791  0.0865 -0.1618  0.3700
 8040TIP3    H124084   4.637   2.971   2.764  1.8647 -0.9804  1.4693
 8040TIP3    H224085   4.606   3.116   2.735 -4.0335 -1.8787  2.1159
 8041TIP3   OH224086   5.438   0.372   5.524 -0.6039  0.9648 -0.3115
 8041TIP3    H124087   5.516   0.344   5.573 -0.6724  1.7562  0.2764
 8041TIP3    H224088   5.388   0.292   5.511  0.6152  0.3257 -1.2708
 8042TIP3   OH224089   5.390   4.027   1.768 -0.0171  0.4505  0.1413
 8042TIP3    H124090   5.338   4.071   1.835  0.0362 -0.3373  0.7119
 8042TIP3    H224091   5.439   3.959   1.815  0.5587  0.3423 -0.5829
 8043TIP3   OH224092   5.197   3.545   2.679  0.0091  0.5904 -0.3903
 8043TIP3    H124093   5.235   3.458   2.685  1.7437  1.2224 -1.2960
 8043TIP3    H224094   5.118   3.541   2.732 -0.3803 -1.7358 -1.0400
 8044TIP3   OH224095   0.621   1.951   2.392 -0.5826 -0.1312  0.6031
 8044TIP3    H124096   0.677   1.901   2.451  0.1783  0.8360  0.7252
 8044TIP3    H224097   0.560   1.886   2.356 -0.0653 -1.0096  1.2699
 8045TIP3   OH224098   1.990   2.465   0.905  0.2102 -0.0541 -0.8886
 8045TIP3    H124099   2.075   2.458   0.950 -0.3303 -1.5193 -0.0306
 8045TIP3    H224100   2.000   2.412   0.826 -0.1696 -1.0253 -0.3109
 8046TIP3   OH224101   2.082   0.687   5.234  0.1042  0.1410 -0.0058
 8046TIP3    H124102   2.158   0.692   5.293  0.1631  1.2409 -0.1607
 8046TIP3    H224103   2.021   0.630   5.280  1.2120 -1.1846 -0.1037
 8047TIP3   OH224104   7.146   6.564   4.958  0.2590  0.1168 -0.1449
 8047TIP3    H124105   7.114   6.550   5.047  1.7873  0.0160  0.4118
 8047TIP3    H224106   7.069   6.552   4.903 -0.6478 -0.1252  1.1384
 8048TIP3   OH224107   6.850   1.205   1.845  0.0592 -0.0662 -0.1231
 8048TIP3    H124108   6.855   1.117   1.809  0.1199 -0.3904  0.6560
 8048TIP3    H224109   6.867   1.194   1.939  2.0530  0.9883 -0.2882
 8049TIP3   OH224110   0.362   2.726   3.964 -0.2971  0.6464 -0.1038
 8049TIP3    H124111   0.426   2.796   3.949 -1.2438  1.8621  1.2089
 8049TIP3    H224112   0.407   2.665   4.022 -0.3352  1.5544  0.9121
 8050TIP3   OH224113   0.214   5.201   0.128 -0.4535  0.7853 -0.1119
 8050TIP3    H124114   0.303   5.166   0.131 -0.7982 -0.2788 -1.5038
 8050TIP3    H224115   0.168   5.157   0.200 -0.9151 -1.8667 -1.9071
 8051TIP3   OH224116   1.138   2.060   5.611 -0.1438  0.6768  1.2425
 8051TIP3    H124117   1.144   2.154   5.594 -1.6060  0.7544  1.0372
 8051TIP3    H224118   1.140   2.052   5.706  3.0734  0.6316  1.2758
 8052TIP3   OH224119   1.592   4.383   2.746  0.4543  0.2763 -0.2375
 8052TIP3    H124120   1.596   4.452   2.681 -1.2413  1.6253  0.9769
 8052TIP3    H224121   1.595   4.429   2.830 -0.9969 -1.0712  0.6090
 8053TIP3   OH224122   3.421   5.378   2.862  0.8039 -0.8531 -0.0867
 8053TIP3    H124123   3.506   5.343   2.838  0.7262  0.3719 -2.4860
 8053TIP3    H224124   3.363   5.302   2.865  1.7801 -1.5873  0.6979
 8054TIP3   OH224125   2.964   4.594   0.538 -0.1379  0.3303  0.0312
 8054TIP3    H124126   2.914   4.617   0.460 -0.4400 -1.5652 -0.3941
 8054TIP3    H224127   3.036   4.540   0.505  0.0311 -0.0569  0.9974
 8055TIP3   OH224128   1.548   6.799   1.933  0.0301 -0.2485  0.0437
 8055TIP3    H124129   1.468   6.761   1.969  0.0861  0.1143  0.5655
 8055TIP3    H224130   1.603   6.814   2.010  0.3505  0.0880 -0.2500
 8056TIP3   OH224131   1.582   3.500   0.922  0.3667  0.1903 -0.2790
 8056TIP3    H124132   1.565   3.581   0.874 -0.9742  1.3362  1.9698
 8056TIP3    H224133   1.673   3.508   0.952  0.3594  0.6785 -0.3855
 8057TIP3   OH224134   6.294   3.449   1.073  0.4487  0.3375  0.3814
 8057TIP3    H124135   6.373   3.481   1.029  0.1611  0.2327 -0.2350
 8057TIP3    H224136   6.324   3.417   1.157  1.2733 -0.8703 -0.3457
 8058TIP3   OH224137   4.917   3.008   0.129 -0.0647 -0.3505 -0.0286
 8058TIP3    H124138   4.918   3.076   0.063 -1.9092 -1.5675 -1.4081
 8058TIP3    H224139   4.993   2.953   0.108 -1.1211 -1.2270 -1.7551
 8059TIP3   OH224140   5.645   1.959   4.841 -0.3702 -0.0133  0.2830
 8059TIP3    H124141   5.717   2.011   4.877  0.1773  0.9528 -2.0299
 8059TIP3    H224142   5.617   2.007   4.763 -1.7003 -1.8103 -0.4248
 8060TIP3   OH224143   1.084   2.862   3.814  0.0023  0.2160  0.7665
 8060TIP3    H124144   1.162   2.814   3.787 -0.7680 -1.0724  0.7700
 8060TIP3    H224145   1.012   2.817   3.770 -0.8228  0.8806  1.4078
 8061TIP3   OH224146   2.817   2.321   2.876 -0.1046 -0.0121  0.0285
 8061TIP3    H124147   2.759   2.246   2.878  0.0910 -0.1592  0.6595
 8061TIP3    H224148   2.784   2.379   2.944 -0.4240  0.6083 -0.6454
 8062TIP3   OH224149   4.454   6.707   2.942  0.2944 -0.2030  0.0035
 8062TIP3    H124150   4.514   6.719   2.868 -0.5394  0.3096 -0.5994
 8062TIP3    H224151   4.391   6.641   2.913 -0.8232  0.9436 -0.2639
 8063TIP3   OH224152   6.672   1.137   2.417 -0.1949 -0.0482  0.4184
 8063TIP3    H124153   6.632   1.139   2.330  0.6820 -2.4573 -0.1440
 8063TIP3    H224154   6.609   1.179   2.474 -0.3695  2.5146 -1.4972
 8064TIP3   OH224155   5.691   1.433   4.896 -0.3798  0.1879  0.3849
 8064TIP3    H124156   5.658   1.518   4.869 -0.3336  0.3717  0.8872
 8064TIP3    H224157   5.772   1.422   4.847 -0.8639  0.0107 -0.3860
 8065TIP3   OH224158   0.272   2.303   3.930 -0.3760 -0.1016  0.6116
 8065TIP3    H124159   0.335   2.309   3.859 -0.3275 -0.1014  0.6546
 8065TIP3    H224160   0.199   2.254   3.893  0.8568 -2.7157  1.3949
 8066TIP3   OH224161   6.479   0.078   2.643  0.2745 -0.0718  0.3753
 8066TIP3    H124162   6.452   0.125   2.722  1.6983 -0.2771  1.0096
 8066TIP3    H224163   6.446   0.132   2.571 -2.3728 -0.6531  1.0570
 8067TIP3   OH224164   6.563   1.205   3.885  0.2090 -0.1366 -0.6940
 8067TIP3    H124165   6.654   1.232   3.878 -0.3639  1.6804 -1.8632
 8067TIP3    H224166   6.566   1.109   3.883  2.0534 -0.1059 -1.0062
 8068TIP3   OH224167   6.204   1.773   4.516  0.9999 -0.2702 -0.1219
 8068TIP3    H124168   6.257   1.782   4.595 -1.0554 -0.4150  1.3758
 8068TIP3    H224169   6.139   1.844   4.522  0.1009 -0.9725 -1.0813
 8069TIP3   OH224170   1.980   2.161   1.586  0.2375 -0.0273  0.3626
 8069TIP3    H124171   2.070   2.146   1.558  0.6121  0.7349  1.1261
 8069TIP3    H224172   1.939   2.205   1.511  0.2710 -1.0533 -0.2805
 8070TIP3   OH224173   4.202   2.465   2.022  0.0803 -0.4000  0.3817
 8070TIP3    H124174   4.141   2.507   1.962  0.9640  3.2380  1.7815
 8070TIP3    H224175   4.259   2.412   1.966 -1.8622 -0.7641 -1.3699
 8071TIP3   OH224176   6.074   0.776   2.169 -0.1564 -0.1976 -0.3962
 8071TIP3    H124177   6.085   0.733   2.085  3.1037  0.0693 -0.2129
 8071TIP3    H224178   6.161   0.807   2.193 -0.4435 -1.9583  3.9916
 8072TIP3   OH224179   5.759   6.307   4.983 -0.1119  0.2259  0.0059
 8072TIP3    H124180   5.841   6.273   5.018  0.5085  0.5128 -1.1443
 8072TIP3    H224181   5.693   6.244   5.013  0.6387 -0.4915  0.2013
 8073TIP3   OH224182   6.118   6.600   0.055  0.7628 -0.4029 -0.2827
 8073TIP3    H124183   6.183   6.666   0.030 -0.5002  0.7303 -0.7284
 8073TIP3    H224184   6.090   6.626   0.143  1.6920 -1.5535  0.3866
 8074TIP3   OH224185   1.264   1.460   1.130 -0.1214 -0.2832  0.0544
 8074TIP3    H124186   1.215   1.541   1.144 -0.4689 -0.5372  0.3137
 8074TIP3    H224187   1.309   1.445   1.213 -0.6752 -0.7707  0.2735
 8075TIP3   OH224188   6.377   4.048   4.654  0.3052 -0.7730 -0.4381
 8075TIP3    H124189   6.352   4.117   4.593  2.8714  0.4643 -0.2408
 8075TIP3    H224190   6.402   3.974   4.599 -1.4352 -1.2353 -0.6763
 8076TIP3   OH224191   2.841   2.294   5.730  0.1239  0.5095 -0.0003
 8076TIP3    H124192   2.821   2.316   5.639 -0.0863  0.4493  0.0326
 8076TIP3    H224193   2.769   2.333   5.781 -0.4651 -0.5899  0.0327
 8077TIP3   OH224194   6.555   1.694   5.835  0.0863 -0.4519  0.0237
 8077TIP3    H124195   6.643   1.694   5.799 -0.1130 -3.2805 -0.6778
 8077TIP3    H224196   6.548   1.610   5.881 -1.5566  0.6249  1.8893
 8078TIP3   OH224197   2.473   0.956   5.009  0.1499 -0.0885  0.0413
 8078TIP3    H124198   2.425   0.879   4.977 -2.1576  1.5520 -0.7443
 8078TIP3    H224199   2.562   0.944   4.977 -0.2419 -2.2214 -0.4125
 8079TIP3   OH224200   1.083   4.125   2.241  0.7250 -0.2783  0.2186
 8079TIP3    H124201   1.164   4.075   2.255  2.4665  1.5152 -2.4304
 8079TIP3    H224202   1.029   4.068   2.187  0.0870 -1.5278  2.0740
 8080TIP3   OH224203   3.119   4.034   5.077  0.0810  0.0232 -0.1111
 8080TIP3    H124204   3.139   3.960   5.135  0.8738  0.1372 -0.2366
 8080TIP3    H224205   3.061   3.996   5.011 -1.3915  0.0347  1.0962
 8081TIP3   OH224206   5.814   4.105   2.183 -0.1252  0.6682  0.0211
 8081TIP3    H124207   5.767   4.115   2.266 -1.9237  2.3442 -1.1124
 8081TIP3    H224208   5.755   4.053   2.128 -0.7603  2.7720 -1.4189
 8082TIP3   OH224209   5.722   3.918   0.169 -0.8388 -0.3151 -0.5248
 8082TIP3    H124210   5.793   3.951   0.224 -0.7334 -1.8386  0.2993
 8082TIP3    H224211   5.751   3.936   0.079  1.1125 -1.8483 -0.2510
 8083TIP3   OH224212   3.409   2.890   5.101  0.2214  0.3270 -0.5677
 8083TIP3    H124213   3.386   2.830   5.030  1.9871 -0.2077 -0.7273
 8083TIP3    H224214   3.326   2.907   5.145 -0.7819  0.0389 -2.2656
 8084TIP3   OH224215   3.949   3.913   3.342  0.3129  0.1512  0.2170
 8084TIP3    H124216   3.901   3.830   3.345 -1.2935  0.9088 -1.8954
 8084TIP3    H224217   3.949   3.944   3.433 -0.2763 -1.4907  0.8145
 8085TIP3   OH224218   0.896   5.019   4.993 -0.8614  0.0419  0.3423
 8085TIP3    H124219   0.912   4.925   4.990  2.0765  0.4759 -1.6203
 8085TIP3    H224220   0.828   5.034   4.926 -0.6799 -0.5782  0.0188
 8086TIP3   OH224221   1.799   4.902   5.552  0.0799 -0.0499 -0.0597
 8086TIP3    H124222   1.838   4.927   5.468 -0.5606 -0.4515 -0.4897
 8086TIP3    H224223   1.792   4.807   5.547 -0.7324 -0.0085  0.0942
 8087TIP3   OH224224   5.194   6.604   2.028 -0.4691  0.0760 -0.4966
 8087TIP3    H124225   5.249   6.621   1.950 -1.3981 -0.6305 -1.3295
 8087TIP3    H224226   5.250   6.553   2.085 -0.1445 -0.3870 -1.2098
 8088TIP3   OH224227   5.739   0.925   3.813 -0.0711 -0.8919  0.3234
 8088TIP3    H124228   5.798   0.909   3.887  1.2584 -0.2076 -0.5327
 8088TIP3    H224229   5.727   0.838   3.773  0.3574 -1.0467  0.5218
 8089TIP3   OH224230   2.531   6.559   5.731  0.2849  0.1420  0.3755
 8089TIP3    H124231   2.501   6.645   5.762 -0.0043 -0.3443  1.4823
 8089TIP3    H224232   2.458   6.525   5.680  0.6474  0.8196 -0.6275
 8090TIP3   OH224233   0.633   1.943   4.674 -0.0634  0.4724  0.9537
 8090TIP3    H124234   0.566   1.919   4.609 -0.2435  1.2726  0.8200
 8090TIP3    H224235   0.584   1.995   4.739  0.1646 -0.1156  1.5986
 8091TIP3   OH224236   0.985   4.589   0.905  0.1049 -0.7466 -0.7320
 8091TIP3    H124237   0.971   4.683   0.888 -0.0131 -0.7737 -0.7786
 8091TIP3    H224238   1.000   4.584   1.000  3.0425 -0.2785 -1.0496
 8092TIP3   OH224239   5.792   3.748   1.853 -0.1828  0.5753 -0.1871
 8092TIP3    H124240   5.850   3.706   1.916 -0.5452  0.1946 -0.1010
 8092TIP3    H224241   5.750   3.675   1.806 -0.4034  0.8450 -0.4158
 8093TIP3   OH224242   4.780   6.539   0.451 -0.0171 -0.4551  0.3088
 8093TIP3    H124243   4.731   6.619   0.433  0.8730 -0.1544 -0.8770
 8093TIP3    H224244   4.721   6.469   0.425 -0.8473 -0.2174  1.4616
 8094TIP3   OH224245   4.404   1.495   1.760  0.4068 -0.1914 -0.2211
 8094TIP3    H124246   4.343   1.467   1.691 -1.2255 -0.9461  1.4558
 8094TIP3    H224247   4.396   1.591   1.760  1.1316 -0.1069 -1.6652
 8095TIP3   OH224248   3.826   2.519   2.021 -1.1051 -0.0518  0.6619
 8095TIP3    H124249   3.768   2.591   1.998 -1.5057  0.0607  1.9750
 8095TIP3    H224250   3.785   2.442   1.983 -0.1720  0.4929 -1.6129
 8096TIP3   OH224251   6.428   0.930   0.087 -0.1156 -0.2166 -0.0031
 8096TIP3    H124252   6.351   0.944   0.033 -1.4065 -2.6774  1.0161
 8096TIP3    H224253   6.491   0.886   0.029 -0.1615  0.2180 -0.3812
 8097TIP3   OH224254   3.582   0.675   5.471 -0.1163 -0.1878 -0.8005
 8097TIP3    H124255   3.496   0.636   5.453 -0.9403  1.1436  0.1261
 8097TIP3    H224256   3.605   0.720   5.390 -1.0274  0.7576 -0.5489
 8098TIP3   OH224257   3.232   1.152   0.970 -0.8309  0.1280  0.0789
 8098TIP3    H124258   3.200   1.157   0.879  1.0246 -1.2142 -0.7194
 8098TIP3    H224259   3.254   1.243   0.992 -0.7826  0.4087 -1.0320
 8099TIP3   OH224260   0.937   4.908   1.515  0.0184 -0.1847 -0.3757
 8099TIP3    H124261   0.863   4.945   1.466 -0.4315 -2.0357 -1.1782
 8099TIP3    H224262   0.903   4.898   1.605 -0.1472  0.4499 -0.3577
 8100TIP3   OH224263   2.368   4.305   4.436 -0.1491 -0.2261  0.3373
 8100TIP3    H124264   2.338   4.238   4.374 -1.3852 -1.3462  2.0639
 8100TIP3    H224265   2.304   4.375   4.428 -0.2399 -0.3170  0.2641
 8101TIP3   OH224266   5.521   3.863   2.920 -0.7701  0.2666  0.5983
 8101TIP3    H124267   5.477   3.837   3.001  1.2652 -2.6924  0.9332
 8101TIP3    H224268   5.480   3.808   2.852 -0.1602  0.2336  0.2525
 8102TIP3   OH224269   0.757   4.894   3.273  0.1392 -0.2366 -0.5379
 8102TIP3    H124270   0.848   4.872   3.252  0.4619 -2.2842  2.3912
 8102TIP3    H224271   0.713   4.809   3.278 -0.8120  0.3268  2.4601
 8103TIP3   OH224272   4.199   6.349   1.157  0.0574 -0.3742 -0.4690
 8103TIP3    H124273   4.213   6.331   1.250 -1.5628 -2.3667 -0.5535
 8103TIP3    H224274   4.226   6.440   1.146  1.8260 -0.5784  1.5873
 8104TIP3   OH224275   2.755   1.911   3.653  0.2811  0.3606  0.2143
 8104TIP3    H124276   2.824   1.895   3.589 -0.2627  1.3212 -0.6477
 8104TIP3    H224277   2.729   2.002   3.638  0.9999  1.0469  2.6682
 8105TIP3   OH224278   5.465   6.255   2.254 -0.1551  1.0917  0.1948
 8105TIP3    H124279   5.502   6.183   2.203 -2.4252 -0.2936  0.3559
 8105TIP3    H224280   5.512   6.252   2.338 -0.4532 -0.5085  0.3485
 8106TIP3   OH224281   2.902   3.158   3.413  0.2854 -0.3598  0.0059
 8106TIP3    H124282   2.832   3.136   3.475 -0.6906  0.1483 -0.8796
 8106TIP3    H224283   2.939   3.074   3.388  0.2815 -0.6090  0.8154
 8107TIP3   OH224284   1.967   1.868   4.289 -0.3223  0.3023  0.2505
 8107TIP3    H124285   2.018   1.803   4.336 -1.8150 -1.8510 -0.9478
 8107TIP3    H224286   1.915   1.912   4.357  1.2469  0.8188  1.1609
 8108TIP3   OH224287   1.424   1.260   1.635  0.0202  0.3119 -0.2165
 8108TIP3    H124288   1.419   1.168   1.611 -1.5439  0.7195 -1.7044
 8108TIP3    H224289   1.513   1.286   1.612  1.0468 -1.1668  1.7926
 8109TIP3   OH224290   3.843   2.702   3.990  0.1461 -0.5619  0.1219
 8109TIP3    H124291   3.880   2.790   3.990 -1.3132  0.0748  0.3933
 8109TIP3    H224292   3.898   2.653   4.051  0.6954  0.2719  0.3176
 8110TIP3   OH224293   2.666   3.928   4.304 -0.0080 -0.2744  0.1303
 8110TIP3    H124294   2.578   3.891   4.306  0.2489 -0.8849  0.5583
 8110TIP3    H224295   2.716   3.873   4.364  0.2222  1.2265  1.3616
 8111TIP3   OH224296   2.505   0.884   2.192  0.2111  0.2262  0.3678
 8111TIP3    H124297   2.562   0.844   2.127  0.9281  0.0480  1.0976
 8111TIP3    H224298   2.436   0.926   2.140 -0.1659 -1.3238 -0.4449
 8112TIP3   OH224299   2.788   1.336   4.623  0.1781 -0.6284 -0.1347
 8112TIP3    H124300   2.828   1.274   4.683  0.3736 -0.4775 -0.1093
 8112TIP3    H224301   2.826   1.420   4.646  0.5042 -0.6217 -0.6875
 8113TIP3   OH224302   6.496   3.849   0.102  0.1712 -0.0691  0.1383
 8113TIP3    H124303   6.555   3.780   0.132 -0.5131 -0.0241  1.6896
 8113TIP3    H224304   6.424   3.802   0.059  0.1407 -0.2702  0.4063
 8114TIP3   OH224305   6.334   6.566   5.367  0.1743 -0.0050  0.4868
 8114TIP3    H124306   6.376   6.481   5.380  2.1052  0.6523 -0.9891
 8114TIP3    H224307   6.242   6.551   5.387  0.2886 -2.6799 -0.6320
 8115TIP3   OH224308   5.810   5.102   0.588  0.1552  0.3704  0.1172
 8115TIP3    H124309   5.780   5.012   0.585 -0.0552  0.4537 -0.5680
 8115TIP3    H224310   5.788   5.137   0.501  0.0098  1.1464  0.4572
 8116TIP3   OH224311   0.218   6.197   5.660 -0.7493 -0.1606 -0.2148
 8116TIP3    H124312   0.153   6.166   5.724  0.3958 -1.9092  0.1954
 8116TIP3    H224313   0.200   6.146   5.581 -1.7133  1.4906 -1.0887
 8117TIP3   OH224314   1.210   0.675   3.232 -0.5000 -0.3827  0.3975
 8117TIP3    H124315   1.261   0.747   3.268 -0.5589  0.4011 -1.0220
 8117TIP3    H224316   1.267   0.637   3.165 -0.9323 -0.9116  0.3241
 8118TIP3   OH224317   6.673   4.005   0.906 -0.3941 -0.3084  0.3109
 8118TIP3    H124318   6.613   4.072   0.938 -1.8771 -0.7461 -1.3818
 8118TIP3    H224319   6.746   4.007   0.968 -0.9326  2.0256  0.9795
 8119TIP3   OH224320   0.931   3.563   2.726 -0.4680  0.9779  0.1052
 8119TIP3    H124321   0.881   3.514   2.792 -0.9569  1.0160 -0.2340
 8119TIP3    H224322   0.925   3.654   2.755 -1.1708  1.0684 -0.2951
 8120TIP3   OH224323   3.460   0.962   1.635  0.2695 -0.4611  0.1360
 8120TIP3    H124324   3.432   1.039   1.684  0.3780 -0.9946  1.0593
 8120TIP3    H224325   3.406   0.963   1.556 -1.2381 -0.5890  1.1228
 8121TIP3   OH224326   2.738   3.228   0.169 -0.1376  0.8934  0.1225
 8121TIP3    H124327   2.726   3.245   0.075 -0.1844  0.7064  0.0940
 8121TIP3    H224328   2.798   3.154   0.172 -1.2456 -0.0289  0.2101
 8122TIP3   OH224329   1.736   2.180   1.808 -0.1003  0.2147  0.2544
 8122TIP3    H124330   1.802   2.243   1.780  0.2303  0.2973  1.1686
 8122TIP3    H224331   1.747   2.176   1.903 -0.8183 -0.4406  0.3135
 8123TIP3   OH224332   5.728   2.682   2.405  0.4655 -0.2180 -0.1193
 8123TIP3    H124333   5.759   2.640   2.485 -0.4183 -1.2896 -0.3035
 8123TIP3    H224334   5.785   2.648   2.336 -0.4311 -1.4072 -0.3121
 8124TIP3   OH224335   4.672   0.018   1.967  0.8304  0.1585 -0.2061
 8124TIP3    H124336   4.617   0.095   1.952  2.3868  1.4569  0.3826
 8124TIP3    H224337   4.638  -0.048   1.907 -1.3918  0.8467  0.1937
 8125TIP3   OH224338   2.639   4.462   0.790 -0.2133  0.1762 -0.6318
 8125TIP3    H124339   2.600   4.473   0.877  2.3257 -0.4483  0.6861
 8125TIP3    H224340   2.730   4.435   0.808  0.6999  1.0385 -3.4679
 8126TIP3   OH224341   1.714   1.628   3.327  0.2330  0.1505 -0.1047
 8126TIP3    H124342   1.662   1.669   3.396  1.7156  0.0634  1.1410
 8126TIP3    H224343   1.734   1.699   3.266 -0.8601  0.2922 -0.3140
 8127TIP3   OH224344   6.281   0.214   4.545 -0.1590  0.3858  0.7401
 8127TIP3    H124345   6.205   0.245   4.593 -0.7015 -0.8043  0.6867
 8127TIP3    H224346   6.277   0.119   4.553 -0.9188  0.0246 -2.5890
 8128TIP3   OH224347   6.754   0.218   1.233 -0.3258 -0.5764  0.0113
 8128TIP3    H124348   6.757   0.285   1.164 -1.8644 -0.2589  0.2188
 8128TIP3    H224349   6.832   0.236   1.286 -0.1593  0.4128 -0.5288
 8129TIP3   OH224350   1.456   0.357   3.265  0.1067  0.1949 -0.1400
 8129TIP3    H124351   1.490   0.391   3.348 -0.0677  0.9480 -0.3723
 8129TIP3    H224352   1.504   0.275   3.252  1.4429  0.9408 -0.1626
 8130TIP3   OH224353   3.058   3.047   2.975 -0.1907 -0.5426 -0.1519
 8130TIP3    H124354   3.057   3.142   2.986  1.0706 -0.5909  0.5882
 8130TIP3    H224355   3.150   3.023   2.988 -0.5023 -1.8714 -0.3032
 8131TIP3   OH224356   1.201   5.034   3.392  0.4711  0.5375 -0.3012
 8131TIP3    H124357   1.249   4.963   3.348 -0.7127 -0.1123 -0.5840
 8131TIP3    H224358   1.183   4.999   3.480 -0.8933  0.0930 -0.7274
 8132TIP3   OH224359   0.861   4.950   2.963 -0.0167  0.3432 -0.0358
 8132TIP3    H124360   0.772   4.981   2.977 -0.4710 -0.3695 -1.1824
 8132TIP3    H224361   0.853   4.883   2.895  1.6674  1.9187 -1.9459
 8133TIP3   OH224362   0.452   6.802   4.844  0.1739 -0.3301 -0.0909
 8133TIP3    H124363   0.440   6.778   4.936 -0.0600  0.4829  0.1008
 8133TIP3    H224364   0.441   6.720   4.796 -1.5656 -0.4450  0.4551
 8134TIP3   OH224365   0.020   2.545   4.426 -0.0260 -0.4315 -0.5109
 8134TIP3    H124366   0.084   2.590   4.370  0.7875 -2.6589 -1.4665
 8134TIP3    H224367   0.072   2.509   4.498 -0.6675  0.0853  0.2369
 8135TIP3   OH224368   6.692   4.117   5.360  0.3399  0.0870  0.0887
 8135TIP3    H124369   6.601   4.141   5.339  1.7858  4.1326 -3.2132
 8135TIP3    H224370   6.704   4.030   5.322 -2.1967 -0.7267  0.9942
 8136TIP3   OH224371   0.470   6.637   4.286 -0.1881 -0.3244 -0.0224
 8136TIP3    H124372   0.416   6.716   4.287 -2.6215 -1.8883  0.9823
 8136TIP3    H224373   0.429   6.581   4.219  0.7160 -1.2099  0.1440
 8137TIP3   OH224374   1.953   0.969   3.806 -0.3276 -0.0054  0.2643
 8137TIP3    H124375   2.041   0.994   3.833 -0.5365 -0.1762  1.1182
 8137TIP3    H224376   1.966   0.895   3.747  0.0853 -0.2565  0.6657
 8138TIP3   OH224377   0.096   2.345   0.401 -0.4363 -0.1317 -0.0184
 8138TIP3    H124378   0.189   2.369   0.391 -0.0296 -1.7352 -0.3503
 8138TIP3    H224379   0.065   2.401   0.472  0.8508  0.2744  0.2607
 8139TIP3   OH224380   5.029   3.575   1.534  0.6327  0.3030 -0.5200
 8139TIP3    H124381   5.103   3.556   1.476  1.1591 -0.4756  0.3770
 8139TIP3    H224382   5.022   3.498   1.591  0.4586  1.2346  0.7791
 8140TIP3   OH224383   1.587   3.235   3.347 -0.3272  0.4073  0.8037
 8140TIP3    H124384   1.621   3.146   3.336 -2.9848 -0.7675  1.3406
 8140TIP3    H224385   1.541   3.253   3.266  0.5770  1.5317  0.5136
 8141TIP3   OH224386   0.011   6.324   4.762 -0.0452  0.1363 -0.5307
 8141TIP3    H124387  -0.039   6.393   4.718 -1.6005 -0.2305  0.5586
 8141TIP3    H224388   0.068   6.371   4.823 -2.1581  0.4992  1.2874
 8142TIP3   OH224389   3.702   1.916   1.651 -0.4718  0.4515  1.3539
 8142TIP3    H124390   3.753   1.933   1.571 -1.3486  0.6847  0.8337
 8142TIP3    H224391   3.726   1.827   1.676  0.9097  0.8903  1.6658
 8143TIP3   OH224392   4.766   5.469   4.415 -0.5163 -0.8868 -0.2873
 8143TIP3    H124393   4.851   5.513   4.407 -0.6483 -0.3392  1.0307
 8143TIP3    H224394   4.748   5.435   4.327  0.2175  0.5563 -1.0266
 8144TIP3   OH224395   5.834   2.514   0.493  0.1923 -0.3824  0.1496
 8144TIP3    H124396   5.885   2.594   0.510 -0.8607  0.1342  0.9547
 8144TIP3    H224397   5.858   2.455   0.564 -0.8110  0.1149  0.9297
 8145TIP3   OH224398   3.332   1.737   5.450  0.1445 -0.6442  0.4558
 8145TIP3    H124399   3.359   1.828   5.462 -2.6135  0.0985  1.8010
 8145TIP3    H224400   3.378   1.689   5.519 -0.7914  0.3409  1.8267
 8146TIP3   OH224401   4.731   3.311   4.326 -0.0797 -0.3305 -0.9246
 8146TIP3    H124402   4.668   3.262   4.379  1.3922 -0.9981  0.2620
 8146TIP3    H224403   4.681   3.338   4.249 -2.0104 -0.1971  0.3095
 8147TIP3   OH224404   6.353   3.887   2.495  0.5501  0.1499 -0.6027
 8147TIP3    H124405   6.388   3.798   2.494 -1.1623 -0.5701 -2.1604
 8147TIP3    H224406   6.267   3.879   2.537 -0.1456  0.8117 -1.8271
 8148TIP3   OH224407   4.087   1.473   0.491  0.4320  0.0409  0.0611
 8148TIP3    H124408   4.049   1.452   0.406  1.4987 -3.5705  0.3029
 8148TIP3    H224409   4.181   1.457   0.481  0.7849  0.9337  1.5602
 8149TIP3   OH224410   5.384   2.986   0.334 -0.2455  0.7365 -0.0782
 8149TIP3    H124411   5.467   3.026   0.310 -0.5438  0.3246 -1.9646
 8149TIP3    H224412   5.391   2.971   0.428  1.0756  2.3679  0.1290
 8150TIP3   OH224413   5.190   6.713   5.752 -0.2930 -0.6563 -0.0588
 8150TIP3    H124414   5.187   6.745   5.662 -3.1654  0.3193  0.2844
 8150TIP3    H224415   5.278   6.679   5.762  1.0251  1.6867 -2.3774
 8151TIP3   OH224416   1.073   4.098   5.317  0.2314 -0.3291 -0.6104
 8151TIP3    H124417   1.149   4.053   5.355  0.5784  0.6534 -0.1000
 8151TIP3    H224418   1.101   4.122   5.229  0.2002 -0.7353 -0.7307
 8152TIP3   OH224419   2.929   3.062   0.574 -0.2271 -0.2167 -0.5223
 8152TIP3    H124420   2.948   3.155   0.584 -0.2142 -0.3062  0.3762
 8152TIP3    H224421   3.009   3.025   0.536 -0.3465  0.1852 -1.1792
 8153TIP3   OH224422   3.804   6.328   2.411  0.3714  0.3723 -0.3707
 8153TIP3    H124423   3.850   6.393   2.464 -0.0483  1.1822 -0.9649
 8153TIP3    H224424   3.735   6.378   2.367  2.0778  0.2604 -3.4465
 8154TIP3   OH224425   3.936   2.825   3.669  0.4941 -0.0499  0.0584
 8154TIP3    H124426   3.906   2.873   3.592  0.1070 -0.7417 -0.2335
 8154TIP3    H224427   3.949   2.892   3.736 -3.3465  0.1821  0.7540
 8155TIP3   OH224428   5.238   0.628   0.789 -0.1601 -0.0776 -0.2370
 8155TIP3    H124429   5.185   0.587   0.857  0.1695  0.4875  0.3777
 8155TIP3    H224430   5.320   0.578   0.789 -0.6907 -0.9948 -1.2345
 8156TIP3   OH224431   2.338   5.052   2.003 -0.4908 -0.4820 -0.0194
 8156TIP3    H124432   2.303   5.013   2.084 -1.1978 -0.9878 -0.5544
 8156TIP3    H224433   2.285   5.131   1.990 -1.3628 -1.1590 -0.7392
 8157TIP3   OH224434   5.696   0.205   1.500  0.2999  0.3798  0.0297
 8157TIP3    H124435   5.683   0.158   1.582  0.1602 -0.6419 -0.5645
 8157TIP3    H224436   5.612   0.199   1.456  0.4478  0.7156 -0.2989
 8158TIP3   OH224437   4.021   3.573   4.151 -0.0552  0.5962 -0.7344
 8158TIP3    H124438   4.017   3.586   4.245  0.9591  0.7835 -0.7009
 8158TIP3    H224439   4.115   3.565   4.132 -0.3085 -0.7001 -1.5618
 8159TIP3   OH224440   2.598   2.681   4.936  0.2982 -0.0795  0.4930
 8159TIP3    H124441   2.606   2.638   5.022  0.0710  0.6241  0.8707
 8159TIP3    H224442   2.512   2.722   4.938  0.5338  0.4386  0.1541
 8160TIP3   OH224443   0.029   3.243   1.864  0.4962  0.0490  0.2609
 8160TIP3    H124444   0.097   3.292   1.816  0.4608  1.2683  1.3950
 8160TIP3    H224445   0.060   3.241   1.954 -1.0040  0.7237  0.8220
 8161TIP3   OH224446   1.450   5.570   2.838 -0.0649  0.3490 -0.3257
 8161TIP3    H124447   1.383   5.596   2.901 -1.3809 -2.3920 -0.4143
 8161TIP3    H224448   1.400   5.548   2.759  1.2575  0.9414 -1.3670
 8162TIP3   OH224449   3.471   5.610   0.289 -0.2517 -0.1201 -0.3545
 8162TIP3    H124450   3.540   5.558   0.330  0.5455  1.9200  1.0783
 8162TIP3    H224451   3.511   5.697   0.278 -2.8172  1.3965  1.3158
 8163TIP3   OH224452   2.889   2.269   5.174  0.2926 -0.2950  0.4746
 8163TIP3    H124453   2.856   2.317   5.249  0.4958 -1.4675  1.3490
 8163TIP3    H224454   2.864   2.178   5.191 -1.6395 -0.3235 -1.9742
 8164TIP3   OH224455   5.946   5.553   5.508  0.2197 -0.1518 -0.3747
 8164TIP3    H124456   5.923   5.591   5.423  2.3381  1.5018 -0.2798
 8164TIP3    H224457   5.930   5.623   5.571  0.4640 -0.7344  0.3420
 8165TIP3   OH224458   1.349   0.291   0.851  0.1468  0.0781 -0.0510
 8165TIP3    H124459   1.377   0.220   0.909  0.2510 -1.0170 -1.3912
 8165TIP3    H224460   1.269   0.258   0.810 -1.0259  1.6281  0.8785
 8166TIP3   OH224461   5.643   1.001   4.519  0.0125 -0.5338  0.0485
 8166TIP3    H124462   5.639   0.950   4.600  1.4268 -0.0448  0.4477
 8166TIP3    H224463   5.699   1.075   4.540 -0.5891  0.2571 -1.0406
 8167TIP3   OH224464   6.640   2.120   0.508  0.2345  0.8704 -0.1760
 8167TIP3    H124465   6.657   2.028   0.488  0.4715  0.9946 -0.5527
 8167TIP3    H224466   6.556   2.119   0.555  0.1449  0.4810 -0.3357
 8168TIP3   OH224467   1.421   3.956   0.688 -1.0413  0.0547 -0.7592
 8168TIP3    H124468   1.359   3.894   0.649 -1.4434 -1.2180  1.7536
 8168TIP3    H224469   1.442   3.919   0.773  1.7249  1.4462 -0.7323
 8169TIP3   OH224470   4.918   4.793   2.434 -0.2003 -0.1088 -0.0518
 8169TIP3    H124471   4.952   4.855   2.370  0.2103 -0.4557 -0.1757
 8169TIP3    H224472   4.823   4.792   2.418 -0.1210 -0.0604 -0.5379
 8170TIP3   OH224473   5.227   2.661   2.840  0.6012  0.3759 -0.2824
 8170TIP3    H124474   5.229   2.621   2.753  0.7888  0.0650 -0.1339
 8170TIP3    H224475   5.188   2.748   2.825 -1.5521 -0.5273 -0.3398
 8171TIP3   OH224476   4.590   5.675   3.627 -0.4436 -0.0750 -0.2411
 8171TIP3    H124477   4.528   5.606   3.652 -0.0908 -0.5101 -0.5454
 8171TIP3    H224478   4.539   5.735   3.573 -0.7305 -0.1427 -0.0495
 8172TIP3   OH224479   0.216   1.822   1.302 -0.3558 -0.2571  0.1328
 8172TIP3    H124480   0.259   1.905   1.321 -0.2827 -0.6526  1.8502
 8172TIP3    H224481   0.223   1.812   1.207  2.3085  0.2537  0.2196
 8173TIP3   OH224482   6.854   1.168   3.961 -0.2849  0.2328 -0.2431
 8173TIP3    H124483   6.895   1.151   4.046  0.9683 -0.0680 -0.8816
 8173TIP3    H224484   6.869   1.087   3.911 -1.9689 -0.0045 -0.3949
 8174TIP3   OH224485   6.723   3.110   4.379 -0.2505 -0.0349  0.5937
 8174TIP3    H124486   6.660   3.071   4.318 -0.1027 -0.3913  0.6645
 8174TIP3    H224487   6.789   3.042   4.392  0.0230  0.2466  0.7077
 8175TIP3   OH224488   2.233   0.472   1.434  0.4998 -0.3086  0.8322
 8175TIP3    H124489   2.271   0.557   1.458  2.6913 -1.3257  1.2008
 8175TIP3    H224490   2.288   0.408   1.479 -0.9257 -1.9500  0.3241
 8176TIP3   OH224491   3.138   0.996   1.628  0.0660  0.2864  0.1712
 8176TIP3    H124492   3.124   1.070   1.568  0.6378  0.3332  0.0871
 8176TIP3    H224493   3.139   1.035   1.715  3.1830  0.8523 -0.0126
 8177TIP3   OH224494   7.036   0.403   4.484 -0.4308  0.4140 -0.4818
 8177TIP3    H124495   7.033   0.478   4.543 -1.6547 -0.6630  0.9179
 8177TIP3    H224496   7.014   0.328   4.540  1.4923 -1.1247 -1.6573
 8178TIP3   OH224497   1.393   0.351   2.299  0.2186  0.3308  0.2079
 8178TIP3    H124498   1.348   0.435   2.287 -1.2024 -0.1622  1.6857
 8178TIP3    H224499   1.409   0.346   2.393  3.0706  0.2627 -0.1875
 8179TIP3   OH224500   5.233   1.727   1.097 -0.2105  0.2214  0.2245
 8179TIP3    H124501   5.173   1.706   1.026 -1.2115 -0.8125  1.3324
 8179TIP3    H224502   5.183   1.784   1.155 -0.1961 -0.7134  1.2000
 8180TIP3   OH224503   6.924   4.191   2.594 -0.1935  0.2356 -0.1234
 8180TIP3    H124504   7.011   4.226   2.575 -0.1188 -0.2746 -0.7573
 8180TIP3    H224505   6.870   4.269   2.606 -0.0833  0.6115 -1.7843
 8181TIP3   OH224506   6.565   6.475   4.065  0.0662  0.2982  0.4280
 8181TIP3    H124507   6.557   6.420   3.988  0.3401  1.5744 -0.5464
 8181TIP3    H224508   6.656   6.505   4.064  0.5939 -1.0496  2.2457
 8182TIP3   OH224509   5.261   3.643   5.281  0.3084  0.3443  0.0904
 8182TIP3    H124510   5.333   3.594   5.240  0.2960  0.7353 -0.4043
 8182TIP3    H224511   5.230   3.585   5.350  1.9234  0.6746  1.1624
 8183TIP3   OH224512   6.197   5.455   3.073 -0.0457  0.2934 -0.0218
 8183TIP3    H124513   6.127   5.452   3.138  2.6839  1.8120  3.2844
 8183TIP3    H224514   6.177   5.382   3.013 -3.8154  0.0543  1.2490
 8184TIP3   OH224515   5.811   4.063   3.892  0.3618 -0.5226  0.0196
 8184TIP3    H124516   5.796   4.006   3.817 -1.9113 -1.4213  1.0703
 8184TIP3    H224517   5.733   4.119   3.896  1.4118  0.9992  0.4821
 8185TIP3   OH224518   7.108   6.447   4.148  0.1357  0.0820 -0.0855
 8185TIP3    H124519   7.190   6.478   4.186  0.9427 -0.0306 -1.6587
 8185TIP3    H224520   7.064   6.527   4.118  0.5493  0.0068 -0.9150
 8186TIP3   OH224521   2.548   2.522   5.483 -0.2353  0.1326 -0.1076
 8186TIP3    H124522   2.462   2.480   5.479  0.4431 -1.2425 -1.2261
 8186TIP3    H224523   2.535   2.600   5.537 -2.6738  1.1227 -1.9597
 8187TIP3   OH224524   5.800   5.724   0.930 -0.5946  0.1883  0.1767
 8187TIP3    H124525   5.776   5.658   0.995 -1.7958 -0.2774 -0.7000
 8187TIP3    H224526   5.716   5.760   0.901 -0.0837  0.3843 -1.1039
 8188TIP3   OH224527   7.059   0.748   4.775 -0.1289  0.1328  0.6495
 8188TIP3    H124528   6.986   0.706   4.728 -0.4507 -0.4220  1.6277
 8188TIP3    H224529   7.099   0.677   4.825  0.6767  0.5751  0.6435
 8189TIP3   OH224530   6.651   0.708   2.050 -0.1427  0.3233  0.2953
 8189TIP3    H124531   6.598   0.778   2.010 -0.0547  1.8540  2.6225
 8189TIP3    H224532   6.586   0.644   2.080 -0.3542  0.2126 -0.3797
 8190TIP3   OH224533   3.346   2.462   5.406 -0.5196  0.3602 -0.0962
 8190TIP3    H124534   3.299   2.510   5.474 -2.0205 -0.3473 -0.6015
 8190TIP3    H224535   3.282   2.450   5.336 -0.1544 -2.1952 -0.0735
 8191TIP3   OH224536   2.302   0.933   1.435 -0.2280  0.1987  0.4832
 8191TIP3    H124537   2.355   0.868   1.389  1.6491  3.0269 -1.6895
 8191TIP3    H224538   2.230   0.883   1.473  1.1151 -3.1027 -0.9491
 8192TIP3   OH224539   4.234   6.136   5.072  0.3160 -0.3018 -0.6924
 8192TIP3    H124540   4.156   6.160   5.023 -0.1442 -1.7165 -0.6895
 8192TIP3    H224541   4.225   6.042   5.088  0.9460 -0.0699  1.2338
 8193TIP3   OH224542   4.413   3.769   5.292  0.2373 -0.3403  0.3392
 8193TIP3    H124543   4.504   3.797   5.280  0.3079 -0.6157  0.2311
 8193TIP3    H224544   4.399   3.702   5.225 -0.4344  0.5953 -0.4956
 8194TIP3   OH224545   3.532   4.042   0.012 -0.4163 -0.0462 -0.3488
 8194TIP3    H124546   3.437   4.044   0.016 -0.4005  0.2333  0.0597
 8194TIP3    H224547   3.558   3.995   0.092 -0.1527  2.1434  0.9334
 8195TIP3   OH224548   1.598   5.803   1.242 -0.1155 -0.2439 -0.1678
 8195TIP3    H124549   1.643   5.744   1.182  0.4605  0.6703 -0.6691
 8195TIP3    H224550   1.666   5.862   1.274 -0.5915 -0.1155  0.6568
 8196TIP3   OH224551   5.789   2.486   5.010 -0.7069 -1.0594  0.0356
 8196TIP3    H124552   5.748   2.561   5.052  0.2859 -0.2824 -0.3608
 8196TIP3    H224553   5.851   2.453   5.074 -0.3065 -0.8234 -0.2279
 8197TIP3   OH224554   4.029   3.592   5.441  0.2544  0.2762 -0.2162
 8197TIP3    H124555   4.066   3.523   5.496 -2.4842 -0.1847  1.2572
 8197TIP3    H224556   4.062   3.574   5.353  3.1019 -0.2365  0.8799
 8198TIP3   OH224557   3.850   6.228   3.127 -0.2266  0.5477 -0.4071
 8198TIP3    H124558   3.782   6.169   3.094  0.3807 -0.2196 -0.3075
 8198TIP3    H224559   3.931   6.194   3.091  0.3014  0.4983  0.7778
 8199TIP3   OH224560   3.037   1.697   3.663 -0.7174  0.0412 -0.4958
 8199TIP3    H124561   2.976   1.743   3.606 -1.5463 -0.9209 -0.4059
 8199TIP3    H224562   2.985   1.628   3.703  0.5222 -1.0450 -0.7035
 8200TIP3   OH224563   0.907   0.420   3.805 -0.5469 -0.4584 -0.0901
 8200TIP3    H124564   0.854   0.477   3.750  0.6166 -0.9149 -1.7459
 8200TIP3    H224565   0.988   0.469   3.820 -0.3680 -0.8357  0.1963
 8201TIP3   OH224566   6.841   0.742   0.394  0.4559 -0.4551 -0.5918
 8201TIP3    H124567   6.901   0.817   0.394  1.6506 -1.3712 -0.7262
 8201TIP3    H224568   6.804   0.741   0.305  0.4552 -0.0431 -0.5978
 8202TIP3   OH224569   5.470   6.764   1.830 -0.3991  0.5453 -0.0805
 8202TIP3    H124570   5.554   6.800   1.859  0.1118  0.4610 -1.3731
 8202TIP3    H224571   5.407   6.834   1.845 -0.3387  0.2333  1.9277
 8203TIP3   OH224572   0.399   4.330   2.310 -0.2352  0.4248  0.2812
 8203TIP3    H124573   0.464   4.397   2.287 -0.3866  0.6529  0.5045
 8203TIP3    H224574   0.450   4.251   2.323 -0.0534  0.4932 -0.0005
 8204TIP3   OH224575   2.444   2.644   2.217 -0.1549  0.0010 -0.0488
 8204TIP3    H124576   2.496   2.692   2.153 -1.0074 -0.0208 -0.7913
 8204TIP3    H224577   2.502   2.630   2.291 -0.0188  2.6120  0.4175
 8205TIP3   OH224578   6.772   5.758   3.102 -0.5465 -0.2961  0.2127
 8205TIP3    H124579   6.682   5.773   3.071 -0.3738 -1.1456 -0.7590
 8205TIP3    H224580   6.761   5.719   3.189 -1.0420  2.2446  1.3789
 8206TIP3   OH224581   3.146   0.181   4.201  0.3019  0.4198 -0.7564
 8206TIP3    H124582   3.150   0.105   4.259  1.8664 -1.1386 -2.7439
 8206TIP3    H224583   3.221   0.235   4.225  0.4071  0.2613 -0.7311
 8207TIP3   OH224584   2.276   1.137   5.308 -0.8463 -0.5913 -0.3186
 8207TIP3    H124585   2.222   1.215   5.324 -1.7790 -1.1427 -0.6862
 8207TIP3    H224586   2.360   1.157   5.349 -0.7407  1.0030 -1.2144
 8208TIP3   OH224587   4.706   6.439   5.561  0.5056 -0.1323 -0.5116
 8208TIP3    H124588   4.784   6.446   5.506  1.3239 -3.3314  0.0788
 8208TIP3    H224589   4.683   6.346   5.559 -2.0207  0.3570  1.1151
 8209TIP3   OH224590   7.017   3.455   1.725  0.5460  0.2441 -0.0382
 8209TIP3    H124591   7.042   3.407   1.646  0.1950  0.3846 -0.2356
 8209TIP3    H224592   6.972   3.390   1.779  2.7128 -0.4743  1.0568
 8210TIP3   OH224593   6.094   1.332   4.044  0.4261  0.0559  0.2407
 8210TIP3    H124594   6.045   1.259   4.082  1.4017 -1.4959 -1.3741
 8210TIP3    H224595   6.179   1.330   4.088  1.1768 -1.0847 -1.1941
 8211TIP3   OH224596   0.241   6.074   2.034  0.0503  0.6959 -0.0443
 8211TIP3    H124597   0.191   5.993   2.046  1.0532  0.2662  1.4009
 8211TIP3    H224598   0.323   6.046   1.995  0.2830  1.0551  0.1814
 8212TIP3   OH224599   2.462   5.031   2.278 -0.2247 -0.4791  0.0080
 8212TIP3    H124600   2.371   5.010   2.296  0.2438 -2.3755  0.4232
 8212TIP3    H224601   2.505   5.028   2.364  0.1226  1.0386 -0.0934
 8213TIP3   OH224602   5.133   1.892   1.289 -0.7267  0.2856 -0.2416
 8213TIP3    H124603   5.177   1.969   1.253 -0.4115  0.1710 -0.1010
 8213TIP3    H224604   5.113   1.916   1.379 -0.7877  0.2669 -0.2500
 8214TIP3   OH224605   4.289   6.306   3.756  0.6397  0.4020  0.1465
 8214TIP3    H124606   4.304   6.244   3.827 -0.7294  0.8592  0.8720
 8214TIP3    H224607   4.333   6.267   3.680  1.7515 -0.3070  1.1203
 8215TIP3   OH224608   0.535   0.798   0.181 -0.2830  0.1188 -0.7308
 8215TIP3    H124609   0.598   0.740   0.224 -0.0222 -1.0520 -2.5534
 8215TIP3    H224610   0.449   0.763   0.204 -0.1917  0.2272 -0.2213
 8216TIP3   OH224611   0.497   5.896   0.041 -0.0761 -0.9892  0.2792
 8216TIP3    H124612   0.532   5.808   0.045 -1.2964 -1.4728  0.9055
 8216TIP3    H224613   0.446   5.906   0.121 -0.2978  0.1380  0.0230
 8217TIP3   OH224614   3.721   2.803   0.610  0.3014  0.3691  0.1407
 8217TIP3    H124615   3.794   2.834   0.556  0.3143  0.2472  0.0882
 8217TIP3    H224616   3.679   2.735   0.558 -0.4010  1.0561 -0.2102
 8218TIP3   OH224617   4.548   0.504   4.898  0.3330 -0.1748 -0.1089
 8218TIP3    H124618   4.627   0.494   4.845  0.1274 -0.4203 -0.3771
 8218TIP3    H224619   4.537   0.598   4.907  1.4294 -0.1391  1.1236
 8219TIP3   OH224620   3.070   5.436   5.647  0.5870  0.2137  0.2676
 8219TIP3    H124621   3.044   5.527   5.665  0.8526  0.0835  1.3444
 8219TIP3    H224622   3.004   5.405   5.584 -0.5564  0.6087  1.2244
 8220TIP3   OH224623   5.977   6.550   5.144 -0.1174 -0.0304  0.1067
 8220TIP3    H124624   5.884   6.567   5.129 -0.0172  0.7271  0.3412
 8220TIP3    H224625   5.990   6.461   5.110 -1.0415 -0.3541  0.5617
 8221TIP3   OH224626   6.428   5.394   2.715  0.6024  0.0599  0.4380
 8221TIP3    H124627   6.479   5.325   2.673  0.0249 -0.6432  0.8863
 8221TIP3    H224628   6.494   5.454   2.749  1.1016 -0.1169 -0.1876
 8222TIP3   OH224629   2.355   6.434   5.583 -0.0212  0.1037 -0.1968
 8222TIP3    H124630   2.277   6.434   5.528 -0.2841  0.9702  0.1613
 8222TIP3    H224631   2.338   6.365   5.648 -0.0864 -0.3298 -0.6686
 8223TIP3   OH224632   2.946   5.779   3.226 -0.0156  0.3005 -0.0230
 8223TIP3    H124633   3.031   5.751   3.193  0.8121  1.0220  1.3914
 8223TIP3    H224634   2.948   5.758   3.319 -1.9622 -0.9771 -0.2052
 8224TIP3   OH224635   3.867   5.510   3.153  0.0516  0.0701  0.2777
 8224TIP3    H124636   3.824   5.581   3.105  0.1679 -0.0422  0.0048
 8224TIP3    H224637   3.908   5.552   3.228  2.2472  0.6996 -1.1728
 8225TIP3   OH224638   2.983   0.712   0.264 -0.2811  0.0979 -0.4566
 8225TIP3    H124639   2.963   0.745   0.352  0.1068  0.0466 -0.3453
 8225TIP3    H224640   2.909   0.656   0.242 -0.3476  0.0546 -0.1289
 8226TIP3   OH224641   0.622   6.440   1.684 -0.1407 -0.4641 -0.6781
 8226TIP3    H124642   0.527   6.428   1.677 -0.3296 -1.1180  1.8773
 8226TIP3    H224643   0.659   6.361   1.644 -0.6497 -0.2422 -1.6150
 8227TIP3   OH224644   1.302   4.004   1.124  0.0563  0.2269 -0.0702
 8227TIP3    H124645   1.281   4.080   1.179  1.1274  0.3320  0.2262
 8227TIP3    H224646   1.397   3.993   1.134  0.1986 -0.0656 -1.5127
 8228TIP3   OH224647   0.806   1.421   1.389 -0.0420  0.2953  0.4933
 8228TIP3    H124648   0.739   1.359   1.416 -0.4510  0.0989 -0.8800
 8228TIP3    H224649   0.793   1.497   1.446 -0.9996 -0.0023  0.6815
 8229TIP3   OH224650   0.266   2.346   5.153 -0.3079  0.3927  0.0705
 8229TIP3    H124651   0.362   2.348   5.147 -0.3624  1.5696 -0.6156
 8229TIP3    H224652   0.242   2.435   5.180 -1.2561  0.3363 -0.5500
 8230TIP3   OH224653   6.635   0.100   4.479  0.1745 -0.0898 -0.0255
 8230TIP3    H124654   6.672   0.048   4.550  1.1416  0.9303  0.2528
 8230TIP3    H224655   6.545   0.069   4.470  0.5206 -1.3177  0.5778
 8231TIP3   OH224656   1.760   1.925   0.625 -0.1026  0.8019  0.2383
 8231TIP3    H124657   1.733   1.927   0.533 -1.7819 -0.3560  0.6627
 8231TIP3    H224658   1.708   1.855   0.664  1.3548  0.5401  1.8533
 8232TIP3   OH224659   2.428   0.149   2.242  0.1159 -0.6532 -0.2159
 8232TIP3    H124660   2.392   0.164   2.155 -0.2832 -0.9265 -0.1045
 8232TIP3    H224661   2.356   0.171   2.301  0.7001  0.5014  0.0962
 8233TIP3   OH224662   4.093   5.724   1.570  0.0531  0.3776 -0.1428
 8233TIP3    H124663   4.051   5.638   1.575  1.4338 -0.2942  0.5929
 8233TIP3    H224664   4.114   5.746   1.661  2.1459  0.2062 -0.5175
 8234TIP3   OH224665   5.673   0.230   5.095 -0.0258 -0.1680 -0.8640
 8234TIP3    H124666   5.677   0.252   5.002  0.3656 -0.1834 -0.8533
 8234TIP3    H224667   5.700   0.138   5.098 -1.3563 -0.5845 -0.8785
 8235TIP3   OH224668   1.364   5.042   4.970  0.0243 -0.1814 -0.4916
 8235TIP3    H124669   1.306   5.039   4.894 -0.1364  2.0255 -0.5178
 8235TIP3    H224670   1.306   5.031   5.045 -0.2288  0.4453 -0.5869
 8236TIP3   OH224671   3.371   0.590   3.872  0.1181 -0.2429  0.2546
 8236TIP3    H124672   3.333   0.675   3.847  0.7320  0.1632  0.6715
 8236TIP3    H224673   3.340   0.576   3.962  1.7147  0.5716  0.9768
 8237TIP3   OH224674   1.683   0.970   0.521  0.2351  0.2140  0.2405
 8237TIP3    H124675   1.773   1.001   0.536  1.4290 -0.9673 -3.4174
 8237TIP3    H224676   1.686   0.878   0.546 -0.6951  0.6678  2.2337
 8238TIP3   OH224677   5.923   3.438   0.650  0.2020 -0.4742  0.4899
 8238TIP3    H124678   6.004   3.388   0.665 -0.6682 -1.8699  0.7505
 8238TIP3    H224679   5.886   3.450   0.737  0.9308  1.6671  0.5696
 8239TIP3   OH224680   4.566   2.304   3.032  0.1533  0.0127 -0.0099
 8239TIP3    H124681   4.629   2.358   3.080  1.3704 -1.0750 -0.3582
 8239TIP3    H224682   4.481   2.327   3.072  1.0512 -0.5530  2.4440
 8240TIP3   OH224683   2.648   0.671   3.939  0.2710  0.2880 -0.0389
 8240TIP3    H124684   2.695   0.698   3.860 -0.4069  0.1669 -0.4935
 8240TIP3    H224685   2.633   0.753   3.987 -0.0737  0.4793 -0.4634
 8241TIP3   OH224686   5.271   1.249   2.908  0.2155 -0.3250 -0.2606
 8241TIP3    H124687   5.313   1.257   2.822 -0.5287 -1.5510 -0.7640
 8241TIP3    H224688   5.259   1.339   2.937 -0.6097  0.1716 -1.9974
 8242TIP3   OH224689   6.252   4.657   4.848 -0.3697 -0.8768  0.2549
 8242TIP3    H124690   6.221   4.635   4.760  2.0383  0.2342 -0.9668
 8242TIP3    H224691   6.230   4.749   4.859 -1.6462 -1.2779  1.3198
 8243TIP3   OH224692   4.976   1.688   4.519 -0.9301  0.2309  0.1376
 8243TIP3    H124693   4.929   1.766   4.550 -0.3674  0.6053  0.0640
 8243TIP3    H224694   5.033   1.664   4.591 -0.7417  0.1826 -0.0260
 8244TIP3   OH224695   3.698   2.568   3.399  0.1933 -0.7191  0.0895
 8244TIP3    H124696   3.645   2.566   3.478 -0.9544 -1.6752 -0.6793
 8244TIP3    H224697   3.777   2.615   3.425 -0.7070  0.1117  1.4513
 8245TIP3   OH224698   4.502   0.871   3.366  0.0566 -0.3668 -0.7027
 8245TIP3    H124699   4.524   0.962   3.387 -1.5453 -0.1335  0.1341
 8245TIP3    H224700   4.417   0.876   3.322 -0.6773 -1.5169  0.5080
 8246TIP3   OH224701   2.846   5.057   5.414 -0.4302  0.4998 -0.1159
 8246TIP3    H124702   2.758   5.046   5.377 -1.0225 -0.0565  1.3999
 8246TIP3    H224703   2.881   5.134   5.369 -0.7331 -0.6410 -2.4866
 8247TIP3   OH224704   1.944   0.649   4.900  0.2782  0.0963 -0.0893
 8247TIP3    H124705   1.998   0.572   4.919 -0.3350 -0.9631 -2.2344
 8247TIP3    H224706   1.999   0.703   4.843 -0.5849 -0.6653 -1.7296
 8248TIP3   OH224707   2.432   1.128   2.637  0.2837  0.7884 -0.2167
 8248TIP3    H124708   2.447   1.179   2.717 -1.5938 -1.6072  1.8676
 8248TIP3    H224709   2.363   1.176   2.590  0.4348  1.5356  0.3072
 8249TIP3   OH224710   1.838   0.027   0.389 -0.1163 -0.1119 -0.2265
 8249TIP3    H124711   1.777   0.061   0.454  1.6420 -0.4208  1.6663
 8249TIP3    H224712   1.799  -0.055   0.359 -0.8679 -0.0440  0.5482
 8250TIP3   OH224713   0.946   0.571   4.245  0.4291  0.2327  0.7293
 8250TIP3    H124714   0.980   0.488   4.212 -2.1287 -0.1425 -1.2910
 8250TIP3    H224715   0.947   0.629   4.169  0.9495  1.6841  1.7965
 8251TIP3   OH224716   5.256   0.601   4.063  0.8114 -0.5120 -0.1108
 8251TIP3    H124717   5.209   0.651   3.995  1.3588  0.5315  0.2581
 8251TIP3    H224718   5.214   0.515   4.062 -2.4041  0.8504  1.4168
 8252TIP3   OH224719   3.255   3.804   2.647 -0.0582 -0.2706  0.0228
 8252TIP3    H124720   3.222   3.783   2.735 -0.8662  0.7781 -0.0118
 8252TIP3    H224721   3.213   3.740   2.590 -0.2999 -0.3334  0.2665
 8253TIP3   OH224722   1.653   6.505   2.750  0.4856 -0.3374 -0.2525
 8253TIP3    H124723   1.718   6.514   2.680 -0.9917 -3.2428 -2.2180
 8253TIP3    H224724   1.672   6.420   2.790 -0.4953 -0.0449  0.8867
 8254TIP3   OH224725   2.743   3.276   3.195  0.5917 -0.3703  0.3109
 8254TIP3    H124726   2.785   3.313   3.118  0.1138  1.3030  0.8097
 8254TIP3    H224727   2.815   3.256   3.255  0.8764 -0.5894 -0.1003
 8255TIP3   OH224728   5.244   1.569   3.562 -0.1893 -0.1840  0.0030
 8255TIP3    H124729   5.212   1.506   3.498 -1.0870  0.3933 -0.1279
 8255TIP3    H224730   5.281   1.640   3.510 -0.6811  0.1632  0.1236
 8256TIP3   OH224731   4.667   5.853   4.995  0.3316  0.3633 -0.2721
 8256TIP3    H124732   4.583   5.828   4.955  0.0290  0.4502  0.2949
 8256TIP3    H224733   4.730   5.791   4.959  0.1024  0.5654 -1.0347
 8257TIP3   OH224734   0.625   4.789   4.766 -0.0312  0.0271 -0.1752
 8257TIP3    H124735   0.633   4.762   4.858  0.3664  1.7904  0.3585
 8257TIP3    H224736   0.654   4.881   4.766 -1.6045  0.5779 -1.7684
 8258TIP3   OH224737   0.102   0.614   2.476  0.0382 -0.0709 -0.1876
 8258TIP3    H124738   0.181   0.611   2.530 -0.6829  1.3322  1.0185
 8258TIP3    H224739   0.089   0.707   2.458 -2.7923  0.1009  1.9621
 8259TIP3   OH224740   5.119   0.851   5.636 -0.2474  0.0414  1.0383
 8259TIP3    H124741   5.104   0.935   5.679 -1.3706 -0.4797  1.7359
 8259TIP3    H224742   5.211   0.830   5.653  0.1609  1.3264  0.4666
 8260TIP3   OH224743   6.361   5.048   4.225 -0.0105 -0.0370  0.5733
 8260TIP3    H124744   6.303   4.972   4.213  1.5506 -1.3125  0.7992
 8260TIP3    H224745   6.401   5.061   4.139  2.0011 -1.4439  1.2335
 8261TIP3   OH224746   6.274   1.512   5.252 -0.2695 -0.2834  0.2578
 8261TIP3    H124747   6.319   1.445   5.202  0.3185  0.3823 -0.1230
 8261TIP3    H224748   6.279   1.591   5.198  1.0362  0.6508  1.6505
 8262TIP3   OH224749   5.506   6.205   5.659  0.3754 -0.1289 -0.1181
 8262TIP3    H124750   5.499   6.165   5.746 -0.1494  0.2536  0.0217
 8262TIP3    H224751   5.599   6.229   5.651  0.2752  0.5505  0.6635
 8263TIP3   OH224752   4.100   6.478   1.394  0.3896  0.3957 -0.7781
 8263TIP3    H124753   4.042   6.405   1.413  3.2151 -1.9401 -0.4572
 8263TIP3    H224754   4.068   6.549   1.449 -1.8926 -0.8425 -0.3898
 8264TIP3   OH224755   5.217   3.476   5.489 -0.5281 -0.0714 -0.3353
 8264TIP3    H124756   5.218   3.382   5.508 -1.9001  0.0006  0.1631
 8264TIP3    H224757   5.203   3.517   5.574 -0.0098  0.6004 -0.5656
 8265TIP3   OH224758   2.325   5.686   1.755 -0.4012 -0.9610  0.2393
 8265TIP3    H124759   2.361   5.659   1.839 -1.0320  0.3862  0.9777
 8265TIP3    H224760   2.236   5.714   1.776 -0.1411  0.6000 -0.6504
 8266TIP3   OH224761   1.348   6.666   2.040 -0.5092 -0.3392 -0.3592
 8266TIP3    H124762   1.281   6.598   2.026 -0.0182 -0.2498 -4.1187
 8266TIP3    H224763   1.393   6.639   2.120 -3.2354 -1.8785  0.8122
 8267TIP3   OH224764   0.881   3.419   3.651  0.2329 -0.0212  0.1887
 8267TIP3    H124765   0.928   3.475   3.713 -0.0384  0.4973 -0.0649
 8267TIP3    H224766   0.793   3.411   3.687  0.2975 -0.3618  0.2716
 8268TIP3   OH224767   2.624   2.883   5.470  0.1925  0.2622  0.0282
 8268TIP3    H124768   2.573   2.964   5.465  1.3412  0.9464 -1.3126
 8268TIP3    H224769   2.686   2.898   5.541  0.1410  0.3904  0.0473
 8269TIP3   OH224770   2.841   0.301   5.740  0.3717  0.0569 -0.1948
 8269TIP3    H124771   2.902   0.367   5.770 -0.8766  1.1128  0.1274
 8269TIP3    H224772   2.781   0.288   5.813 -0.5678  0.0115 -0.9486
 8270TIP3   OH224773   4.273   0.283   3.066  0.4541 -0.0447  0.4274
 8270TIP3    H124774   4.185   0.263   3.095  0.3766  0.3304  0.4518
 8270TIP3    H224775   4.284   0.232   2.985 -0.1429  0.6900 -0.1242
 8271TIP3   OH224776   7.217   4.141   4.235 -0.2333  0.0113  0.6039
 8271TIP3    H124777   7.268   4.181   4.307  2.3006  0.4534 -1.2819
 8271TIP3    H224778   7.148   4.204   4.217  2.7616  3.0858 -1.2782
 8272TIP3   OH224779   3.958   1.466   2.953  0.1928 -0.1338  0.4478
 8272TIP3    H124780   3.991   1.527   3.020 -3.1567  0.8428  1.3874
 8272TIP3    H224781   3.955   1.518   2.873 -1.0947  0.4691  0.8693
 8273TIP3   OH224782   6.261   5.263   2.160  0.7590 -0.2060  0.1499
 8273TIP3    H124783   6.204   5.225   2.228 -0.3962 -1.1959 -1.3146
 8273TIP3    H224784   6.349   5.244   2.191  0.2497 -1.7210  0.8266
 8274TIP3   OH224785   3.180   4.297   0.881  0.1539 -0.9567 -0.8830
 8274TIP3    H124786   3.240   4.282   0.809 -1.5721 -1.0692 -2.3746
 8274TIP3    H224787   3.175   4.214   0.927 -0.0160 -1.3954 -1.6812
 8275TIP3   OH224788   3.714   5.509   0.380 -0.6336 -0.3334  0.1524
 8275TIP3    H124789   3.749   5.520   0.469 -0.3256  2.0482 -0.1878
 8275TIP3    H224790   3.790   5.525   0.323 -1.6400  2.5851 -0.5515
 8276TIP3   OH224791   6.231   6.353   0.090 -0.0392 -0.0100  0.4614
 8276TIP3    H124792   6.187   6.437   0.086 -0.2374 -0.1550 -1.1733
 8276TIP3    H224793   6.173   6.297   0.142 -0.6568  0.4430  0.2658
 8277TIP3   OH224794   6.390   4.933   5.529  0.5091 -0.3574 -0.5367
 8277TIP3    H124795   6.330   4.988   5.478 -1.3594 -1.3876  0.4465
 8277TIP3    H224796   6.417   4.989   5.602 -1.6551 -0.7576  0.6557
 8278TIP3   OH224797   0.638   5.653   0.064  0.1276 -0.2898  0.1569
 8278TIP3    H124798   0.605   5.570   0.097  2.2659 -1.5179 -0.6030
 8278TIP3    H224799   0.696   5.685   0.133 -0.3974  0.3971  0.2889
 8279TIP3   OH224800   6.681   4.468   4.484 -0.3422  0.1164 -0.1192
 8279TIP3    H124801   6.677   4.373   4.495  2.7691  0.1347  2.8422
 8279TIP3    H224802   6.727   4.481   4.401 -0.9560 -0.9258 -0.6373
 8280TIP3   OH224803   2.497   0.709   2.416  0.8005  0.5040  0.5798
 8280TIP3    H124804   2.505   0.769   2.341 -1.0275  1.0762  0.7969
 8280TIP3    H224805   2.511   0.622   2.379  0.2620  0.8071 -0.3779
 8281TIP3   OH224806   4.278   3.104   2.426 -0.2100 -0.0197  0.8268
 8281TIP3    H124807   4.199   3.058   2.452 -0.5874 -0.0634 -0.3242
 8281TIP3    H224808   4.316   3.049   2.357 -0.5898  1.2943 -0.4715
 8282TIP3   OH224809   3.850   3.387   5.834  0.1018  0.2786 -0.4790
 8282TIP3    H124810   3.918   3.376   5.767 -1.3796 -1.1344 -1.8134
 8282TIP3    H224811   3.843   3.482   5.845  1.4390  0.4830 -1.1945
 8283TIP3   OH224812   3.235   5.371   4.894  0.3532  0.8022  0.2321
 8283TIP3    H124813   3.303   5.352   4.829 -0.5353  1.4350 -0.9180
 8283TIP3    H224814   3.169   5.302   4.881 -1.0167  2.3214 -1.2883
 8284TIP3   OH224815   6.820   1.908   4.022 -0.0223  0.0511  0.0198
 8284TIP3    H124816   6.729   1.934   4.007 -0.1676 -1.1168 -1.3007
 8284TIP3    H224817   6.825   1.818   3.989  0.9747 -0.8774  2.4021
 8285TIP3   OH224818   4.204   6.178   4.718  0.2458 -0.2474  0.1786
 8285TIP3    H124819   4.243   6.221   4.794  0.1348 -0.5279  0.3953
 8285TIP3    H224820   4.253   6.212   4.643  0.6694 -0.3361  0.4164
 8286TIP3   OH224821   3.482   2.680   0.079  0.0362 -0.5460  0.4116
 8286TIP3    H124822   3.421   2.640   0.141 -0.0910  1.8070  1.9193
 8286TIP3    H224823   3.493   2.769   0.111  2.5224 -0.2177 -1.1560
 8287TIP3   OH224824   6.813   2.825   2.316  0.1008 -0.3980  0.0867
 8287TIP3    H124825   6.887   2.885   2.303  1.2027 -1.5491  0.8061
 8287TIP3    H224826   6.738   2.883   2.333  0.7595  0.8025 -0.9218
 8288TIP3   OH224827   5.152   5.052   1.342  0.2274  0.2575 -0.1540
 8288TIP3    H124828   5.124   5.102   1.418  2.3106 -0.6668  1.3166
 8288TIP3    H224829   5.242   5.079   1.327  0.3436 -0.7031 -1.3659
 8289TIP3   OH224830   7.112   5.483   2.720  0.3897 -0.2194  0.2175
 8289TIP3    H124831   7.039   5.477   2.781  0.1112 -0.7016 -0.1520
 8289TIP3    H224832   7.077   5.533   2.646  0.9109  0.9054  0.7081
 8290TIP3   OH224833   3.579   2.553   0.886 -0.1922  0.4569  0.1890
 8290TIP3    H124834   3.497   2.537   0.840 -0.0078  0.0678 -0.0133
 8290TIP3    H224835   3.558   2.620   0.951 -0.7133  0.2112  0.2775
 8291TIP3   OH224836   6.565  -0.016   1.408  0.3796 -0.4261 -0.2298
 8291TIP3    H124837   6.527  -0.036   1.322  0.4904  1.5509 -0.7955
 8291TIP3    H224838   6.566   0.080   1.412  3.2367 -0.4052  0.6836
 8292TIP3   OH224839   5.670   5.776   5.519  0.7051  0.0180  0.1607
 8292TIP3    H124840   5.614   5.738   5.451 -0.9397  2.2637  0.1294
 8292TIP3    H224841   5.739   5.822   5.470  0.2751  0.5393  0.0336
 8293TIP3   OH224842   5.857   4.894   1.079  0.3789  0.0741  0.0456
 8293TIP3    H124843   5.791   4.941   1.028  0.5585  0.8482  0.5115
 8293TIP3    H224844   5.871   4.813   1.030 -2.0978 -0.8879  0.7647
 8294TIP3   OH224845   2.094   5.427   4.363 -0.7204  0.1124 -0.5624
 8294TIP3    H124846   2.177   5.429   4.410  0.4203  2.5596 -2.4533
 8294TIP3    H224847   2.029   5.405   4.430  1.3134 -1.2359  1.1032
 8295TIP3   OH224848   0.820   4.985   1.042  0.1162  0.3524 -0.1159
 8295TIP3    H124849   0.853   4.937   0.966  2.2089  1.0361  0.2901
 8295TIP3    H224850   0.729   5.003   1.022 -0.2667 -2.2517 -1.0431
 8296TIP3   OH224851   2.661   5.205   3.332  0.4189 -1.2293  0.4123
 8296TIP3    H124852   2.576   5.165   3.314  0.7482 -1.7759  0.0714
 8296TIP3    H224853   2.651   5.244   3.419 -0.0836 -1.5562  0.5011
 8297TIP3   OH224854   3.934   1.331   0.281 -0.6138  0.2508 -0.1662
 8297TIP3    H124855   3.845   1.297   0.271 -1.7919  2.9209  0.1947
 8297TIP3    H224856   3.959   1.360   0.194 -0.6319  0.6619 -0.0375
 8298TIP3   OH224857   3.366   5.596   4.845  0.8270  0.2200 -0.6766
 8298TIP3    H124858   3.278   5.559   4.852  0.8643  0.1086 -0.7958
 8298TIP3    H224859   3.360   5.662   4.776  0.2860  1.8275  0.8388
 8299TIP3   OH224860   0.284   4.684   1.672  0.4650 -0.0968  0.8220
 8299TIP3    H124861   0.220   4.755   1.664  0.1711 -0.4053  0.4031
 8299TIP3    H224862   0.313   4.668   1.582 -0.3879 -1.3484  0.7549
 8300TIP3   OH224863   3.555   2.927   1.629  0.0051  0.3697  0.1110
 8300TIP3    H124864   3.644   2.939   1.662 -0.3296 -0.7194  1.5195
 8300TIP3    H224865   3.504   2.995   1.673 -0.4528 -1.1204  2.0044
 8301TIP3   OH224866   5.505   4.988   3.176 -0.1633  0.5700 -0.0392
 8301TIP3    H124867   5.583   4.961   3.224  0.8026  1.8637 -0.8105
 8301TIP3    H224868   5.538   5.045   3.106 -1.8082  1.2561 -0.3124
 8302TIP3   OH224869   6.986   1.881   5.053  0.7488  0.0716 -0.5387
 8302TIP3    H124870   7.069   1.836   5.032  0.1587 -0.3041 -2.1752
 8302TIP3    H224871   6.970   1.938   4.978 -0.4330  0.2092 -0.1917
 8303TIP3   OH224872   4.829   4.170   0.463 -0.0332  0.1600  0.6881
 8303TIP3    H124873   4.750   4.168   0.517  0.2175 -0.3343  1.0517
 8303TIP3    H224874   4.807   4.118   0.386 -0.0184 -0.1198  0.8680
 8304TIP3   OH224875   0.181   3.166   3.401  0.4908  0.3547  0.8608
 8304TIP3    H124876   0.262   3.139   3.358 -0.3285  0.6607 -0.9938
 8304TIP3    H224877   0.190   3.261   3.413  0.3086  0.4375  0.3798
 8305TIP3   OH224878   5.445   4.583   1.576  0.1444 -0.7190 -0.5182
 8305TIP3    H124879   5.467   4.634   1.653  1.3312 -0.6922 -0.8444
 8305TIP3    H224880   5.368   4.625   1.539  0.9590  0.7129 -0.6501
 8306TIP3   OH224881   6.351   4.546   1.777 -0.0689 -1.2708 -0.8905
 8306TIP3    H124882   6.380   4.629   1.739 -2.2545  0.2720  0.6077
 8306TIP3    H224883   6.420   4.483   1.752  1.9979  1.0796 -1.5228
 8307TIP3   OH224884   2.363   0.509   0.499  0.4576 -0.7076 -0.1790
 8307TIP3    H124885   2.434   0.495   0.562  1.1729 -0.3184 -0.8784
 8307TIP3    H224886   2.293   0.451   0.529  0.8585 -0.6905  0.8433
 8308TIP3   OH224887   0.586   0.423   0.271 -0.5728  0.7350 -0.7175
 8308TIP3    H124888   0.548   0.462   0.351 -1.7282 -1.4817 -0.0938
 8308TIP3    H224889   0.510   0.404   0.217 -0.0619 -0.6854 -0.9529
 8309TIP3   OH224890   2.293   6.375   2.535  0.3659  0.4069 -0.0517
 8309TIP3    H124891   2.319   6.364   2.627  1.8573 -2.4696 -0.7090
 8309TIP3    H224892   2.217   6.318   2.525  0.1069  0.8417 -0.5793
 8310TIP3   OH224893   1.365   1.723   5.306 -0.1015 -0.2191 -0.0732
 8310TIP3    H124894   1.383   1.809   5.343  1.3420  0.0291 -1.2629
 8310TIP3    H224895   1.276   1.703   5.334 -0.5770  1.7847 -0.0188
 8311TIP3   OH224896   3.981   4.330   3.251  0.0745 -0.6119  0.6474
 8311TIP3    H124897   4.018   4.281   3.178  1.0224 -0.9564  1.3298
 8311TIP3    H224898   3.937   4.405   3.211 -0.1502 -1.2518 -0.3156
 8312TIP3   OH224899   5.150   4.458   1.343  0.1893  0.1054  0.0539
 8312TIP3    H124900   5.176   4.445   1.435 -1.1550 -1.8257  0.2187
 8312TIP3    H224901   5.114   4.546   1.340 -0.4452 -0.0771  1.5711
 8313TIP3   OH224902   1.006   4.705   2.096  0.3293 -0.0285 -0.5719
 8313TIP3    H124903   1.001   4.679   2.188 -0.2488  1.0423 -0.2918
 8313TIP3    H224904   1.096   4.736   2.085  0.4878 -0.4397 -0.4515
 8314TIP3   OH224905   5.456   4.388   2.857 -0.3282 -0.2328  0.0805
 8314TIP3    H124906   5.453   4.422   2.946  1.0683 -0.0897  0.1034
 8314TIP3    H224907   5.545   4.409   2.827 -0.5227 -0.9693 -1.0627
 8315TIP3   OH224908   0.296   1.638   3.480 -0.6604 -0.1820 -0.0451
 8315TIP3    H124909   0.346   1.600   3.552 -2.5355 -2.7852  0.0176
 8315TIP3    H224910   0.302   1.732   3.494  1.9183 -0.4839  1.4614
 8316TIP3   OH224911   4.632   0.591   3.336  0.2390 -0.1257 -0.6645
 8316TIP3    H124912   4.559   0.645   3.369 -0.3619 -0.2289 -1.7676
 8316TIP3    H224913   4.589   0.525   3.282  0.9874 -1.6366  0.5409
 8317TIP3   OH224914   3.580   6.376   1.263  0.3042 -0.5467  0.4826
 8317TIP3    H124915   3.598   6.430   1.340  0.4577  1.0337 -0.6166
 8317TIP3    H224916   3.637   6.299   1.275  0.2685 -0.3854  1.9587
 8318TIP3   OH224917   2.104   6.171   1.061  0.0885 -0.2831 -0.2943
 8318TIP3    H124918   2.152   6.140   1.137  0.5728 -0.2286 -0.5774
 8318TIP3    H224919   2.153   6.246   1.030  0.0268 -0.4482 -0.8030
 8319TIP3   OH224920   6.866   3.726   1.386 -0.3942 -0.2260 -0.6782
 8319TIP3    H124921   6.823   3.802   1.348 -1.3319 -0.7146 -0.6201
 8319TIP3    H224922   6.827   3.651   1.342 -0.8458 -0.7627  0.5690
 8320TIP3   OH224923   6.057   5.031   3.104 -0.0038 -0.1021  0.3350
 8320TIP3    H124924   6.149   5.006   3.111  0.1892  0.2442 -0.7879
 8320TIP3    H224925   6.025   5.032   3.195  0.5866 -2.0843  0.6090
 8321TIP3   OH224926   4.086   1.795   1.039  0.3749  0.3665  0.2156
 8321TIP3    H124927   4.181   1.792   1.053  0.8268  0.0621 -2.4085
 8321TIP3    H224928   4.058   1.704   1.051 -0.0553  0.7689  3.1503
 8322TIP3   OH224929   1.570   2.010   2.991 -0.3416  0.2348  0.4670
 8322TIP3    H124930   1.584   2.043   2.903  0.5197  0.0301  0.5169
 8322TIP3    H224931   1.514   2.075   3.033 -2.8130 -0.8359 -0.9573
 8323TIP3   OH224932   1.323   5.165   5.503 -0.3253  0.0912 -0.2040
 8323TIP3    H124933   1.262   5.231   5.470 -0.7287  0.8208  1.8618
 8323TIP3    H224934   1.406   5.211   5.512 -0.1807 -0.1450 -0.3182
 8324TIP3   OH224935   6.408   1.994   5.417 -0.1509  0.5511 -0.0341
 8324TIP3    H124936   6.392   1.979   5.324 -1.8441  2.9337 -0.2266
 8324TIP3    H224937   6.475   2.063   5.419 -0.0671  0.4548  0.5232
 8325TIP3   OH224938   4.587   0.904   5.743  0.4305 -0.4337  0.0005
 8325TIP3    H124939   4.515   0.967   5.735  0.7048 -0.2880 -1.8234
 8325TIP3    H224940   4.578   0.847   5.667  1.5571 -1.1580  0.3804
 8326TIP3   OH224941   1.643   1.950   4.042  0.2400  0.0376  0.3395
 8326TIP3    H124942   1.732   1.973   4.069 -0.2442 -0.0636  2.1686
 8326TIP3    H224943   1.613   2.024   3.989  0.6686  1.0761  1.4991
 8327TIP3   OH224944   5.338   5.408   2.086 -0.1205  0.9130  0.2840
 8327TIP3    H124945   5.335   5.346   2.159 -0.4125  0.1098 -0.4050
 8327TIP3    H224946   5.425   5.396   2.048 -0.3331  0.6062 -0.1156
 8328TIP3   OH224947   7.025   6.016   0.772  0.4114 -0.2900  0.5071
 8328TIP3    H124948   7.036   6.095   0.719  1.9154  0.0120  1.2120
 8328TIP3    H224949   7.089   5.954   0.736 -0.0441 -0.8238  0.6128
 8329TIP3   OH224950   1.373   5.623   4.347  0.1617 -0.8597  0.2817
 8329TIP3    H124951   1.344   5.715   4.348  0.2708 -0.8299  0.5503
 8329TIP3    H224952   1.455   5.625   4.298  0.9606 -0.5781  1.5818
 8330TIP3   OH224953   1.321   5.653   0.085 -0.0708 -0.5999 -0.2325
 8330TIP3    H124954   1.279   5.695   0.010 -0.0019  1.2298  0.6974
 8330TIP3    H224955   1.405   5.698   0.094  0.1885 -1.2254  0.5607
 8331TIP3   OH224956   2.144   4.210   4.235  0.2247 -0.1435  0.0548
 8331TIP3    H124957   2.103   4.219   4.149  0.5968  0.4318 -0.0691
 8331TIP3    H224958   2.071   4.197   4.296 -0.1087  0.3441 -0.2317
 8332TIP3   OH224959   0.516   1.386   3.904 -0.1610  0.3249  0.3748
 8332TIP3    H124960   0.525   1.474   3.940 -1.6190  0.7492 -0.2265
 8332TIP3    H224961   0.546   1.328   3.974 -0.3123  1.2468  1.2166
 8333TIP3   OH224962   4.026   0.476   3.599  0.1851  0.8685 -0.7394
 8333TIP3    H124963   4.020   0.469   3.504  2.4245  2.8865 -1.1237
 8333TIP3    H224964   3.990   0.563   3.619  3.1461  2.0926 -0.2631
 8334TIP3   OH224965   3.581   3.023   2.882  0.4008  0.1324 -0.1573
 8334TIP3    H124966   3.593   3.071   2.964  0.3333  1.1015 -0.6938
 8334TIP3    H224967   3.642   2.950   2.887  0.5705  0.3245  0.6467
 8335TIP3   OH224968   2.537   3.751   1.796  0.0597 -0.1994 -0.2586
 8335TIP3    H124969   2.463   3.715   1.846  0.7112 -1.2859 -0.0504
 8335TIP3    H224970   2.614   3.707   1.831  0.7722  0.5909 -0.7864
 8336TIP3   OH224971   2.609   1.789   1.196 -0.2102  0.1377 -0.1376
 8336TIP3    H124972   2.703   1.797   1.216 -0.4878  0.8580  0.9872
 8336TIP3    H224973   2.607   1.757   1.106  1.1208 -1.5462  0.3626
 8337TIP3   OH224974   4.262   5.494   3.137  0.4742 -0.1536 -1.3546
 8337TIP3    H124975   4.243   5.407   3.172  2.0477 -0.1105 -0.2590
 8337TIP3    H224976   4.267   5.481   3.042  2.4192 -1.6993 -1.1236
 8338TIP3   OH224977   1.612   5.821   0.812 -0.0384 -0.1311  0.0795
 8338TIP3    H124978   1.597   5.777   0.895 -0.8835  0.2570  0.1562
 8338TIP3    H224979   1.536   5.880   0.803 -0.1200 -0.3898 -1.1049
 8339TIP3   OH224980   0.139   1.727   2.774 -0.5685 -0.1386  0.2244
 8339TIP3    H124981   0.225   1.723   2.731 -0.7197  1.6548 -0.3353
 8339TIP3    H224982   0.143   1.659   2.841 -0.4730 -3.4559 -2.8261
 8340TIP3   OH224983   0.802   1.096   2.642  0.0850 -0.1490 -0.2879
 8340TIP3    H124984   0.873   1.124   2.585 -0.8012  1.1321 -0.8095
 8340TIP3    H224985   0.772   1.013   2.604  0.5897 -0.1453 -0.7011
 8341TIP3   OH224986   1.123   2.593   5.564 -0.0984 -0.0318  1.3198
 8341TIP3    H124987   1.051   2.645   5.528 -0.1144  1.2537  3.0595
 8341TIP3    H224988   1.143   2.635   5.648  2.3110 -0.6978  1.1499
 8342TIP3   OH224989   2.033   0.967   0.550 -0.0190 -0.2561  0.0538
 8342TIP3    H124990   2.120   0.959   0.587  0.0488 -0.8466 -0.2170
 8342TIP3    H224991   1.978   0.911   0.604 -0.5748  1.3365  1.2227
 8343TIP3   OH224992   0.629   3.588   3.983  0.3239 -0.4224  0.7721
 8343TIP3    H124993   0.684   3.615   4.057 -0.1145 -1.8707  1.6631
 8343TIP3    H224994   0.666   3.504   3.956 -1.2187 -1.2662  1.1796
 8344TIP3   OH224995   6.799   1.214   3.475 -0.3697 -0.4217  0.0817
 8344TIP3    H124996   6.876   1.270   3.475 -0.7148  0.0585 -0.0391
 8344TIP3    H224997   6.825   1.137   3.526  0.2976 -0.4240 -0.2518
 8345TIP3   OH224998   6.498   1.074   3.491 -0.2566 -0.2719 -0.1030
 8345TIP3    H124999   6.580   1.073   3.539 -0.8071  1.2701  0.9509
 8345TIP3    H225000   6.446   1.003   3.530  0.6610 -1.4877 -1.0195
 8346TIP3   OH225001   5.516   3.108   3.942  0.0109 -0.3039 -0.5359
 8346TIP3    H125002   5.524   3.074   4.031  0.2608  0.5275 -0.2361
 8346TIP3    H225003   5.564   3.045   3.888  0.1340 -0.6371 -0.0425
 8347TIP3   OH225004   5.618   4.648   2.111  0.0707  0.4532  0.9291
 8347TIP3    H125005   5.553   4.584   2.141 -0.3904  0.1262 -0.6646
 8347TIP3    H225006   5.702   4.602   2.118 -0.2679 -0.3800 -0.2869
 8348TIP3   OH225007   3.941   5.410   2.719  0.0054 -0.2277  0.0142
 8348TIP3    H125008   3.914   5.489   2.765 -1.6889  0.1277 -1.4621
 8348TIP3    H225009   3.899   5.417   2.633  1.4424 -1.7830 -0.8790
 8349TIP3   OH225010   6.578   4.156   5.709  0.3378 -0.5034 -0.4564
 8349TIP3    H125011   6.529   4.179   5.788 -1.7724 -1.9043 -1.2732
 8349TIP3    H225012   6.654   4.213   5.711  0.9635 -1.2126  3.1458
 8350TIP3   OH225013   4.805   6.135   3.448  0.4572  0.1143 -0.3906
 8350TIP3    H125014   4.739   6.102   3.387 -0.8274  2.5140 -0.4132
 8350TIP3    H225015   4.851   6.204   3.399  0.8366  0.6270  0.6587
 8351TIP3   OH225016   1.322   6.325   3.995  0.0846  0.3605 -0.1947
 8351TIP3    H125017   1.283   6.412   3.999  0.7721  0.6705 -0.0907
 8351TIP3    H225018   1.319   6.292   4.085  2.7942  1.6284  0.4546
 8352TIP3   OH225019   6.679   5.074   4.361 -0.1219 -0.3314 -0.2284
 8352TIP3    H125020   6.628   4.994   4.351  1.0077 -0.9801 -1.0692
 8352TIP3    H225021   6.734   5.057   4.438  1.3034 -1.0623 -1.3703
 8353TIP3   OH225022   2.686   6.406   0.317  0.0766 -0.1098 -0.2989
 8353TIP3    H125023   2.678   6.376   0.408  0.3497 -1.6549 -0.7555
 8353TIP3    H225024   2.596   6.414   0.286 -0.0062 -0.1935 -0.0831
 8354TIP3   OH225025   1.884   6.096   4.783 -0.4069  0.2172  0.4320
 8354TIP3    H125026   1.955   6.150   4.748 -0.0045 -1.0232 -0.7837
 8354TIP3    H225027   1.858   6.040   4.709  0.5158 -2.6168  2.0799
 8355TIP3   OH225028   2.099   5.611   2.943 -0.6466 -0.3414  0.3810
 8355TIP3    H125029   2.088   5.622   2.848 -3.0503 -0.0964  0.6196
 8355TIP3    H225030   2.074   5.520   2.959 -2.2271  0.1717  0.9829
 8356TIP3   OH225031   6.744   1.753   5.086 -0.1276 -0.1844 -0.3532
 8356TIP3    H125032   6.739   1.748   5.182 -0.5070 -0.8878 -0.4025
 8356TIP3    H225033   6.826   1.800   5.069  0.0460 -0.2268  0.3174
 8357TIP3   OH225034   2.751   1.307   1.411  0.1273 -0.7133 -0.5385
 8357TIP3    H125035   2.794   1.369   1.471 -1.0282  0.0951 -0.5104
 8357TIP3    H225036   2.693   1.257   1.467 -0.8127 -0.0896 -0.9338
 8358TIP3   OH225037  -0.021   0.020   0.715 -0.4400  0.1844 -0.0641
 8358TIP3    H125038   0.030   0.015   0.634  0.1354 -4.2001  0.3462
 8358TIP3    H225039   0.042   0.049   0.781 -0.2734  1.3108 -0.6833
 8359TIP3   OH225040   6.612   2.850   0.346 -0.6342 -0.1097 -0.0785
 8359TIP3    H125041   6.660   2.918   0.394  0.4496 -0.5191 -0.5538
 8359TIP3    H225042   6.611   2.880   0.255  2.2566 -1.9547 -0.8323
 8360TIP3   OH225043   5.458   0.287   3.316  0.0319 -0.5186  0.1680
 8360TIP3    H125044   5.553   0.289   3.309 -0.0845  0.2297 -1.8766
 8360TIP3    H225045   5.428   0.355   3.257 -1.8226 -1.7295 -0.3706
 8361TIP3   OH225046   2.720   5.523   3.387 -0.5237  0.6315  0.0886
 8361TIP3    H125047   2.722   5.612   3.354  0.2282  0.4206 -0.4830
 8361TIP3    H225048   2.710   5.532   3.481  1.3162  1.3887  0.2511
 8362TIP3   OH225049   3.669   1.183   3.632 -0.2424 -0.3471 -0.0050
 8362TIP3    H125050   3.637   1.231   3.555  1.9451  0.6762 -0.3460
 8362TIP3    H225051   3.602   1.198   3.699 -1.4757 -0.0281 -1.2518
 8363TIP3   OH225052   6.063   5.433   5.273 -0.1753 -0.8246 -0.3869
 8363TIP3    H125053   6.007   5.508   5.250 -0.3400 -1.4914 -2.3150
 8363TIP3    H225054   6.144   5.473   5.303 -0.9680  0.1341  0.5777
 8364TIP3   OH225055   2.440   1.389   5.703 -0.2021 -0.3456  0.2653
 8364TIP3    H125056   2.445   1.307   5.753  1.7956 -0.3946  0.0564
 8364TIP3    H225057   2.463   1.364   5.614  1.4385  0.5673  0.3945
 8365TIP3   OH225058   4.925   3.969   4.558  0.1929  0.2047  0.2278
 8365TIP3    H125059   4.892   4.059   4.569 -0.7122 -0.1626  0.6474
 8365TIP3    H225060   4.959   3.945   4.644  1.3823  0.4988 -0.1491
 8366TIP3   OH225061   4.113   0.534   5.069  0.1273  0.0668  0.3102
 8366TIP3    H125062   4.043   0.533   5.134 -1.9816  1.9910 -1.7556
 8366TIP3    H225063   4.132   0.627   5.055  0.5327 -0.2743 -1.7590
 8367TIP3   OH225064   5.777   0.398   2.206  0.0121  0.0939 -0.7774
 8367TIP3    H125065   5.774   0.384   2.301 -2.0111  0.5449 -0.7160
 8367TIP3    H225066   5.797   0.491   2.196  1.3151 -0.1770 -0.8489
 8368TIP3   OH225067   5.061   1.620   2.754 -0.2156 -0.5793  0.2742
 8368TIP3    H125068   5.103   1.618   2.840 -0.6475  0.1642  0.5164
 8368TIP3    H225069   5.059   1.713   2.730 -1.4475 -0.6222  0.1437
 8369TIP3   OH225070   0.558   1.275   3.365 -0.0249  0.0130 -0.0388
 8369TIP3    H125071   0.624   1.315   3.308 -0.0624 -0.3739 -0.3603
 8369TIP3    H225072   0.501   1.227   3.304  0.0319 -0.5447  0.3452
 8370TIP3   OH225073   2.841   5.269   4.702 -0.3288 -0.1644  0.5607
 8370TIP3    H125074   2.859   5.222   4.783  1.5159  2.7116  1.9830
 8370TIP3    H225075   2.898   5.228   4.637  0.4538 -0.5822  1.4859
 8371TIP3   OH225076   3.966   2.866   1.534 -0.0312 -0.0580  0.2686
 8371TIP3    H125077   3.894   2.847   1.594  0.4255 -1.1315  0.4955
 8371TIP3    H225078   3.933   2.841   1.447  0.0878 -0.6532  0.3867
 8372TIP3   OH225079   4.483   1.934   2.813 -0.1088 -0.2447 -0.1868
 8372TIP3    H125080   4.570   1.905   2.785  0.9304  1.9205  0.5578
 8372TIP3    H225081   4.488   1.936   2.909 -0.3447  1.5301 -0.1711
 8373TIP3   OH225082   4.918   3.027   1.414 -0.1181  0.2053  0.3350
 8373TIP3    H125083   4.971   2.950   1.436 -1.0809 -0.2480  1.1053
 8373TIP3    H225084   4.841   3.021   1.469 -0.0580  1.9353  0.6782
 8374TIP3   OH225085   1.402   2.877   2.019  0.1928  0.1340 -0.2398
 8374TIP3    H125086   1.451   2.960   2.021  2.0686 -0.7926  4.5313
 8374TIP3    H225087   1.315   2.900   2.049  0.6434  0.4485  0.8611
 8375TIP3   OH225088   6.698   2.248   4.167  0.1175  0.3013  0.1484
 8375TIP3    H125089   6.725   2.157   4.179  0.4109  0.5100  1.1814
 8375TIP3    H225090   6.770   2.289   4.119  0.0983  0.0481 -0.0944
 8376TIP3   OH225091   4.254   5.171   5.621 -0.4274  0.9721 -0.6472
 8376TIP3    H125092   4.172   5.127   5.599 -0.3494  1.2476 -1.5101
 8376TIP3    H225093   4.322   5.114   5.585 -0.0218 -0.7860  2.5270
 8377TIP3   OH225094   5.039   4.515   1.755  0.4759 -0.0499  0.2911
 8377TIP3    H125095   5.117   4.505   1.809  0.1258 -1.4157  0.6063
 8377TIP3    H225096   5.054   4.459   1.679 -0.6055 -1.2292  0.8894
 8378TIP3   OH225097   2.029   1.247   4.524 -0.4348 -0.0673 -0.0992
 8378TIP3    H125098   2.055   1.204   4.606 -1.3313 -0.5376 -0.0482
 8378TIP3    H225099   2.028   1.340   4.546 -1.0048 -0.2117  0.5337
 8379TIP3   OH225100   2.420   0.022   3.955 -0.0850 -0.2460  0.1281
 8379TIP3    H125101   2.337   0.066   3.936  0.7246  0.5761 -1.7281
 8379TIP3    H225102   2.424  -0.050   3.892  1.1546  0.4817 -0.6641
 8380TIP3   OH225103   2.350   1.883   4.251 -0.5660 -0.9219  0.2451
 8380TIP3    H125104   2.307   1.836   4.180  0.2491 -0.4621 -0.5829
 8380TIP3    H225105   2.443   1.880   4.229 -0.3892  0.0763  0.7745
 8381TIP3   OH225106   2.323   1.754   2.440  0.2601  0.1775  0.1366
 8381TIP3    H125107   2.279   1.792   2.365 -1.3610 -0.6539  0.6216
 8381TIP3    H225108   2.304   1.815   2.512 -1.0965 -0.7416  0.5900
 8382TIP3   OH225109   5.497   0.521   0.836 -0.0206 -0.7469 -0.2277
 8382TIP3    H125110   5.531   0.583   0.900  1.1271 -2.5681  1.0271
 8382TIP3    H225111   5.564   0.518   0.767  0.4643 -1.3756  0.2593
 8383TIP3   OH225112   0.470   6.037   3.278  0.2549  0.2790  0.5553
 8383TIP3    H125113   0.563   6.028   3.297  0.0261 -1.8134  0.8855
 8383TIP3    H225114   0.429   6.053   3.363  0.3212  1.4550  0.3773
 8384TIP3   OH225115   3.071   2.666   3.294  0.0879 -0.0100  0.0059
 8384TIP3    H125116   3.009   2.639   3.361 -0.8058 -3.2621 -1.9557
 8384TIP3    H225117   3.050   2.758   3.278 -2.1792 -0.1948  1.5017
 8385TIP3   OH225118   4.346   5.237   4.649  0.1173  1.0680 -0.0418
 8385TIP3    H125119   4.398   5.277   4.579  1.1432 -0.8231 -0.4315
 8385TIP3    H225120   4.410   5.221   4.719  0.1583 -1.3056 -0.5302
 8386TIP3   OH225121   4.919   1.131   1.934 -0.2924  0.4069  0.1244
 8386TIP3    H125122   4.974   1.208   1.932 -0.6820  0.6824 -1.0146
 8386TIP3    H225123   4.847   1.153   1.993  0.5585  0.2126  1.2538
 8387TIP3   OH225124   2.061   3.782   1.819 -0.2022 -0.0157 -0.4357
 8387TIP3    H125125   2.083   3.745   1.734  1.2614 -0.6811  0.1890
 8387TIP3    H225126   2.053   3.876   1.803  2.3355  0.1781 -0.9246
 8388TIP3   OH225127   4.358   6.168   4.490  0.1851 -0.4617 -0.0130
 8388TIP3    H125128   4.387   6.162   4.399  4.7658 -1.4227  1.2483
 8388TIP3    H225129   4.339   6.077   4.515 -1.6414 -0.1358 -0.0607
 8389TIP3   OH225130   6.737   3.906   4.899 -0.1346 -0.0019  0.1145
 8389TIP3    H125131   6.749   3.977   4.962 -1.3386  0.0206  0.3264
 8389TIP3    H225132   6.652   3.869   4.920  0.1450 -1.0253 -0.4900
 8390TIP3   OH225133   6.640   3.531   1.361  0.6827 -0.1107  0.2257
 8390TIP3    H125134   6.621   3.490   1.445 -1.9759  1.7294  0.6656
 8390TIP3    H225135   6.682   3.463   1.309  0.2287 -2.0344  2.2389
 8391TIP3   OH225136   5.228   2.007   2.679  0.2441  0.3954 -0.5715
 8391TIP3    H125137   5.183   2.073   2.626  1.7481  1.9954  0.0529
 8391TIP3    H225138   5.224   2.041   2.768 -1.3722 -1.7738  0.2808
 8392TIP3   OH225139   4.968   4.769   1.869 -0.3873  0.1072  0.0038
 8392TIP3    H125140   4.875   4.784   1.885 -0.3049 -0.5853  1.2461
 8392TIP3    H225141   4.971   4.685   1.824 -0.2892 -0.5982  1.2922
 8393TIP3   OH225142   3.859   5.175   1.441  0.6161 -0.0379  0.7607
 8393TIP3    H125143   3.955   5.179   1.446  0.5609  0.5928  1.7265
 8393TIP3    H225144   3.840   5.173   1.348  1.5155  2.4930  0.4408
 8394TIP3   OH225145   0.044   4.572   2.550  0.5086 -0.1840 -0.3319
 8394TIP3    H125146   0.074   4.655   2.588 -0.4080 -0.0285  0.0978
 8394TIP3    H225147  -0.006   4.598   2.472 -0.1412 -0.2860  0.0398
 8395TIP3   OH225148   2.980   0.125   5.412 -0.3744 -0.1338 -0.7483
 8395TIP3    H125149   2.887   0.141   5.427 -0.1469 -0.6526  1.4457
 8395TIP3    H225150   3.018   0.212   5.401 -1.0291  0.0973 -1.2906
 8396TIP3   OH225151   5.860   4.521   2.288  0.1920 -0.4915 -0.2428
 8396TIP3    H125152   5.797   4.449   2.287 -1.8381  1.1726 -0.3750
 8396TIP3    H225153   5.905   4.514   2.204  1.0889 -2.3995  0.3338
 8397TIP3   OH225154   5.057   1.258   1.534  0.2946  0.2619 -0.1968
 8397TIP3    H125155   4.969   1.234   1.562  0.5881  0.9218  1.4509
 8397TIP3    H225156   5.055   1.354   1.529  0.4949  0.2017 -1.7143
 8398TIP3   OH225157   0.139   6.263   4.502  0.2235  0.1417 -0.4693
 8398TIP3    H125158   0.151   6.348   4.461 -1.7411 -0.0840 -1.6608
 8398TIP3    H225159   0.077   6.279   4.573  1.0329 -0.0520  0.2948
 8399TIP3   OH225160   4.521   2.135   1.660 -0.5440  0.0487  0.2507
 8399TIP3    H125161   4.534   2.230   1.648 -0.6822 -0.0745 -1.0151
 8399TIP3    H225162   4.513   2.124   1.754 -2.2205  1.5296  0.3291
 8400TIP3   OH225163   6.859   2.778   2.819 -0.0681 -0.1753  0.1881
 8400TIP3    H125164   6.843   2.850   2.880 -1.6058 -0.4714  0.1629
 8400TIP3    H225165   6.871   2.701   2.874 -0.7653 -0.3193  0.1379
 8401TIP3   OH225166   1.825   6.534   0.124  0.1535  0.7351 -0.5151
 8401TIP3    H125167   1.762   6.530   0.052 -0.7066  0.5405  0.2436
 8401TIP3    H225168   1.907   6.502   0.086 -0.6342 -0.7238 -1.0303
 8402TIP3   OH225169   3.143   2.842   0.922  0.1699  0.0288 -0.2244
 8402TIP3    H125170   3.165   2.852   1.014 -0.7365  0.3272 -0.0253
 8402TIP3    H225171   3.128   2.748   0.911  3.8508 -0.6014 -0.9452
 8403TIP3   OH225172   4.807   6.343   1.102 -0.3077 -0.4189 -0.2478
 8403TIP3    H125173   4.843   6.411   1.159 -0.4998  1.2372 -2.0110
 8403TIP3    H225174   4.759   6.285   1.161  0.1878  0.7364  1.3616
 8404TIP3   OH225175   4.385   5.447   4.963 -0.5550 -0.6252 -0.4793
 8404TIP3    H125176   4.408   5.360   4.995 -0.2375 -0.5118 -0.3865
 8404TIP3    H225177   4.415   5.447   4.872 -2.3531 -1.2866 -1.1055
 8405TIP3   OH225178   1.818   0.324   4.383  0.3823 -0.2445 -0.2109
 8405TIP3    H125179   1.837   0.256   4.319  1.1649 -0.4868  0.2655
 8405TIP3    H225180   1.726   0.309   4.407  0.9931 -2.2318  1.1396
 8406TIP3   OH225181   2.844   1.502   3.319  0.6436 -0.2300 -0.3856
 8406TIP3    H125182   2.756   1.516   3.284 -0.2163  0.1166  1.8190
 8406TIP3    H225183   2.902   1.540   3.252 -0.8940  0.1738 -1.5497
 8407TIP3   OH225184   4.037   0.733   5.566 -0.0398  0.0197 -0.0617
 8407TIP3    H125185   4.093   0.701   5.495  0.0638  0.6883 -0.2836
 8407TIP3    H225186   4.069   0.821   5.585 -1.0292  0.4324 -0.2214
 8408TIP3   OH225187   0.376   5.926   3.961 -0.1453 -0.0522 -0.1920
 8408TIP3    H125188   0.334   6.008   3.988  0.0429 -0.0465  0.0900
 8408TIP3    H225189   0.455   5.921   4.014 -1.2436 -1.5101  1.4315
 8409TIP3   OH225190   2.620   6.331   3.775 -0.7136  0.6453 -0.7812
 8409TIP3    H125191   2.678   6.348   3.849 -1.6993  1.3087 -0.1409
 8409TIP3    H225192   2.670   6.360   3.698 -0.4124  1.7469 -0.1956
 8410TIP3   OH225193   1.141   4.211   0.824  0.4004 -0.3430  0.3401
 8410TIP3    H125194   1.169   4.164   0.746 -0.9664  0.3669 -0.6273
 8410TIP3    H225195   1.085   4.149   0.871  0.9605 -0.6599  0.5925
 8411TIP3   OH225196   6.297   6.169   1.012 -0.2484  0.3497  0.0101
 8411TIP3    H125197   6.244   6.161   1.091 -1.2806  0.9483 -0.6009
 8411TIP3    H225198   6.354   6.092   1.013  0.9603  1.1679  2.1884
 8412TIP3   OH225199   6.004   1.054   5.799  0.8770  0.6946 -0.1585
 8412TIP3    H125200   5.934   1.094   5.746  0.1469  1.6305  1.4485
 8412TIP3    H225201   6.041   0.986   5.742 -2.1174 -0.6749 -0.7027
 8413TIP3   OH225202   1.099   2.347   3.617 -0.2148  0.0404 -0.4402
 8413TIP3    H125203   1.089   2.405   3.693 -0.4800  0.6730 -0.9519
 8413TIP3    H225204   1.194   2.336   3.607 -0.1904 -0.6258  0.4071
 8414TIP3   OH225205   1.544   3.009   0.023  0.4024  0.1934 -0.2152
 8414TIP3    H125206   1.587   2.928   0.050  0.0588 -0.1072 -0.5411
 8414TIP3    H225207   1.479   2.980  -0.042 -1.6752  0.3502  1.6567
 8415TIP3   OH225208   7.196   0.995   4.861  0.1607  0.5722 -0.0411
 8415TIP3    H125209   7.147   0.913   4.869 -0.5086  1.0057  0.3766
 8415TIP3    H225210   7.248   0.984   4.781  1.5256 -1.0001  1.0225
 8416TIP3   OH225211   1.620   5.970   0.394  0.4857 -0.0949 -0.4764
 8416TIP3    H125212   1.642   5.877   0.387  1.6499  0.0613  0.6133
 8416TIP3    H225213   1.673   6.001   0.468 -0.9920  1.1045  0.1317
 8417TIP3   OH225214   5.122   2.255   4.244 -0.2459  0.5754 -0.0144
 8417TIP3    H125215   5.218   2.260   4.242 -0.1163 -1.3446 -1.6365
 8417TIP3    H225216   5.103   2.179   4.299 -0.5641 -1.7690 -3.0986
 8418TIP3   OH225217   3.531   4.965   4.547 -0.3498  0.2369  0.2945
 8418TIP3    H125218   3.505   4.915   4.624 -2.0532 -1.1189 -1.0743
 8418TIP3    H225219   3.538   4.900   4.477  1.9585  1.3048 -0.5694
 8419TIP3   OH225220   4.512   0.114   4.676 -0.6057  0.6690 -0.1717
 8419TIP3    H125221   4.495   0.189   4.619 -1.3890  1.1519  0.6794
 8419TIP3    H225222   4.603   0.127   4.705 -1.4452  2.6671  1.9006
 8420TIP3   OH225223   5.472   1.920   5.434  0.6866 -1.1208  0.5036
 8420TIP3    H125224   5.457   1.883   5.347 -0.1972  0.5475 -0.1109
 8420TIP3    H225225   5.419   1.867   5.493 -1.3837 -0.2677 -0.4952
 8421TIP3   OH225226   0.702   3.263   0.843 -0.6077 -0.6201 -0.2372
 8421TIP3    H125227   0.656   3.183   0.868 -1.1948 -0.3147 -0.3024
 8421TIP3    H225228   0.716   3.254   0.749 -0.9817 -0.4956 -0.3058
 8422TIP3   OH225229   4.589   3.971   0.604 -0.2842  0.3215 -0.2282
 8422TIP3    H125230   4.609   3.889   0.559 -0.6308  0.1568 -0.0808
 8422TIP3    H225231   4.506   3.955   0.649  0.6892  0.0381  1.5448
 8423TIP3   OH225232   0.139   1.368   4.728 -0.3956  0.0235 -0.4185
 8423TIP3    H125233   0.218   1.316   4.742  0.0504  0.4390 -1.3187
 8423TIP3    H225234   0.073   1.303   4.702 -0.6114 -0.4409  1.1644
 8424TIP3   OH225235   0.602   5.844   2.154 -0.4498  0.2106  0.0997
 8424TIP3    H125236   0.660   5.769   2.147 -0.8031 -0.1224  0.6489
 8424TIP3    H225237   0.539   5.819   2.222 -0.2896  1.1886  0.6212
 8425TIP3   OH225238   2.575   2.273   3.703 -0.5938  0.2851 -0.9743
 8425TIP3    H125239   2.505   2.209   3.690  1.2819 -1.9910 -0.5371
 8425TIP3    H225240   2.651   2.235   3.658  1.7303  0.0787  2.7006
 8426TIP3   OH225241   6.994   2.435   1.492  0.1168  0.3022  0.1382
 8426TIP3    H125242   6.975   2.449   1.584  0.1318 -0.5263  0.2729
 8426TIP3    H225243   6.951   2.508   1.447  0.6151  1.0449  0.8408
 8427TIP3   OH225244   3.519   3.248   0.327 -0.3504 -0.3619 -0.1943
 8427TIP3    H125245   3.450   3.314   0.337  0.3128  0.2482  0.4998
 8427TIP3    H225246   3.523   3.205   0.412  1.3678  0.8804  0.4051
 8428TIP3   OH225247   1.127   2.111   4.291 -0.1577  0.6076  0.3131
 8428TIP3    H125248   1.223   2.117   4.290 -0.1948  1.4150  0.8348
 8428TIP3    H225249   1.108   2.042   4.355  0.0779  0.0483 -0.2006
 8429TIP3   OH225250   3.149   4.996   2.986  0.0154 -0.2545 -0.0121
 8429TIP3    H125251   3.175   4.909   2.958 -1.4899 -0.3308 -1.3555
 8429TIP3    H225252   3.096   4.982   3.064 -1.3861 -0.7219 -1.0065
 8430TIP3   OH225253   1.554   4.405   1.304  0.2360 -0.3159  0.1527
 8430TIP3    H125254   1.485   4.437   1.362 -1.0085 -1.1890 -0.8086
 8430TIP3    H225255   1.589   4.484   1.263  0.6251  0.2401  1.4955
 8431TIP3   OH225256   1.877   2.682   5.439 -0.2616 -0.1409  0.0405
 8431TIP3    H125257   1.812   2.752   5.436  0.0358  0.1302 -0.2014
 8431TIP3    H225258   1.829   2.605   5.469  0.0494  0.9027  3.6893
 8432TIP3   OH225259   4.794   1.679   1.853 -0.3887 -0.4709 -0.3208
 8432TIP3    H125260   4.836   1.652   1.935 -1.6492 -0.6827  0.2688
 8432TIP3    H225261   4.748   1.601   1.822 -0.4581 -0.2101 -0.8971
 8433TIP3   OH225262   4.924   5.016   5.572  0.1373 -0.0043 -0.1450
 8433TIP3    H125263   4.927   5.056   5.485  0.5228 -0.6890 -0.4597
 8433TIP3    H225264   4.831   5.000   5.588 -0.0991  1.6267  0.2923
 8434TIP3   OH225265   0.019   6.402   5.183 -0.0763 -0.2656 -0.1005
 8434TIP3    H125266   0.078   6.354   5.241 -0.4590 -0.4663  0.1288
 8434TIP3    H225267  -0.029   6.333   5.136  1.0051 -0.1174 -1.4659
 8435TIP3   OH225268   1.507   6.236   3.411  0.1511  0.1274  0.2516
 8435TIP3    H125269   1.452   6.163   3.383  1.0392 -0.0001 -1.2850
 8435TIP3    H225270   1.526   6.284   3.330 -0.3599  2.0382  1.2279
 8436TIP3   OH225271   4.051   1.323   0.728 -0.3185  0.0674 -0.0215
 8436TIP3    H125272   4.076   1.354   0.641  1.7111  1.0734  0.8274
 8436TIP3    H225273   4.079   1.232   0.730 -0.1805  0.0998 -0.3516
 8437TIP3   OH225274   6.042   1.668   2.215  0.6969  0.4569 -0.1414
 8437TIP3    H125275   6.137   1.685   2.218  1.0696 -1.5016  1.9515
 8437TIP3    H225276   6.004   1.738   2.269  0.8816  1.3583 -1.1369
 8438TIP3   OH225277   0.810   6.215   3.136  0.1009 -0.0256  0.4991
 8438TIP3    H125278   0.846   6.127   3.127  0.6001  0.3890 -2.2948
 8438TIP3    H225279   0.883   6.274   3.117 -1.0716  0.8866 -1.4811
 8439TIP3   OH225280   5.917   3.060   4.754  0.6061 -0.2767 -0.4483
 8439TIP3    H125281   5.961   3.031   4.674 -1.1374 -1.5993 -0.9929
 8439TIP3    H225282   5.883   3.147   4.733 -1.0261 -1.1625 -1.6992
 8440TIP3   OH225283   5.230   6.581   4.775  0.0664  0.1182 -0.3152
 8440TIP3    H125284   5.182   6.512   4.730  0.2596  0.7347 -1.5023
 8440TIP3    H225285   5.199   6.576   4.866  0.4065 -1.7932 -0.2515
 8441TIP3   OH225286   3.565   2.907   3.353 -0.0246  0.6426  0.0191
 8441TIP3    H125287   3.475   2.879   3.338 -0.3457  1.3698  0.4801
 8441TIP3    H225288   3.592   2.947   3.270  0.2841 -0.5800 -0.4917
 8442TIP3   OH225289   0.021   6.492   1.045 -0.3634  0.0830  0.0520
 8442TIP3    H125290  -0.033   6.430   1.095 -0.8070 -0.3957 -0.9804
 8442TIP3    H225291   0.054   6.553   1.110 -2.0202  0.2897  0.7463
 8443TIP3   OH225292   6.151   2.304   5.678 -0.5726 -0.6597  0.6523
 8443TIP3    H125293   6.208   2.299   5.601 -0.7424  0.7332  0.4065
 8443TIP3    H225294   6.102   2.222   5.677 -0.7895 -0.5461 -0.9158
 8444TIP3   OH225295   6.142   0.581   2.940  0.0827  0.3134 -0.1131
 8444TIP3    H125296   6.116   0.496   2.977  1.9656 -0.6038 -0.7348
 8444TIP3    H225297   6.212   0.611   2.998 -1.5484  2.2495  0.9934
 8445TIP3   OH225298   7.023   0.946   2.251  0.0111  0.4576 -0.0506
 8445TIP3    H125299   6.953   0.882   2.264  1.7110 -1.5776 -0.4157
 8445TIP3    H225300   7.084   0.930   2.323  1.1385  0.7333 -0.9166
 8446TIP3   OH225301   3.302   4.054   3.376 -0.2739  0.5202 -0.0090
 8446TIP3    H125302   3.315   4.014   3.462 -3.1432  0.8046  0.6377
 8446TIP3    H225303   3.332   4.145   3.387 -0.7924  0.6077  0.7421
 8447TIP3   OH225304   1.376   5.540   5.782  0.0656 -0.5915  0.6784
 8447TIP3    H125305   1.282   5.528   5.788 -0.1209  1.0807  1.6887
 8447TIP3    H225306   1.391   5.629   5.813  1.7647 -0.0367 -1.4718
 8448TIP3   OH225307   7.132   3.484   4.441  0.1089 -0.1060  0.2811
 8448TIP3    H125308   7.124   3.397   4.404  1.6399 -0.2857  0.3135
 8448TIP3    H225309   7.227   3.501   4.443 -0.1765  2.6128 -2.2291
 8449TIP3   OH225310   2.968   2.159   0.576  0.3003 -0.8634  0.4353
 8449TIP3    H125311   2.964   2.066   0.555  1.8180 -0.8301 -0.1136
 8449TIP3    H225312   2.993   2.201   0.494 -1.1510  0.1407  0.4727
 8450TIP3   OH225313   2.577   1.918   1.892 -0.4578 -0.0118  0.3661
 8450TIP3    H125314   2.655   1.902   1.839 -1.0365 -0.6789 -0.3061
 8450TIP3    H225315   2.537   1.996   1.853 -0.4989 -0.0787  0.2746
 8451TIP3   OH225316   6.280   4.095   1.112  0.1130  0.2327  0.2108
 8451TIP3    H125317   6.229   4.014   1.108 -0.7605  0.8042 -0.8314
 8451TIP3    H225318   6.215   4.164   1.116  0.7653  1.0080 -1.5055
 8452TIP3   OH225319   4.953   6.142   1.373 -0.0144 -0.2404  0.6449
 8452TIP3    H125320   4.926   6.056   1.405 -0.0317 -0.3417  0.3612
 8452TIP3    H225321   5.005   6.123   1.294 -1.3452  0.0882 -0.3427
 8453TIP3   OH225322   7.161   3.642   0.095  0.2667 -0.4084  0.6704
 8453TIP3    H125323   7.099   3.698   0.048  2.5545  2.4618  0.7070
 8453TIP3    H225324   7.121   3.626   0.180 -0.6859  0.8775  0.4853
 8454TIP3   OH225325   0.944   3.446   3.997  0.2669 -0.6223 -0.2399
 8454TIP3    H125326   0.984   3.492   4.071  1.1571  0.9759 -1.6447
 8454TIP3    H225327   0.985   3.485   3.919 -0.8758 -2.0034 -1.6068
 8455TIP3   OH225328   2.694   5.779   3.319  0.7057  0.3108 -0.1420
 8455TIP3    H125329   2.780   5.791   3.281  0.5288  0.5383 -0.4725
 8455TIP3    H225330   2.636   5.833   3.266  0.2785 -0.2213 -0.2278
 8456TIP3   OH225331   4.948   2.305   4.613  0.2122  0.1511 -0.0238
 8456TIP3    H125332   4.893   2.377   4.646 -2.1067 -1.3987 -0.2244
 8456TIP3    H225333   5.016   2.294   4.679 -0.6023  1.1979  1.0251
 8457TIP3   OH225334   3.665   5.079   4.243  0.2637 -0.4496 -0.0981
 8457TIP3    H125335   3.731   5.038   4.298  0.4625 -1.8082 -1.3179
 8457TIP3    H225336   3.693   5.063   4.154 -1.0773  0.0174 -0.6385
 8458TIP3   OH225337   2.704   3.242   1.774  0.1018  0.0278 -0.0763
 8458TIP3    H125338   2.686   3.153   1.744  2.4256  0.0803 -2.0161
 8458TIP3    H225339   2.687   3.297   1.697  0.3874  1.0047  0.5406
 8459TIP3   OH225340   4.386   4.114   3.098  0.0501 -0.0696 -0.2686
 8459TIP3    H125341   4.443   4.038   3.094  0.5365  0.3129 -0.8425
 8459TIP3    H225342   4.300   4.079   3.123  0.5959 -0.6071  0.9026
 8460TIP3   OH225343   6.574   5.110   3.295  0.2262 -0.8416  0.1388
 8460TIP3    H125344   6.670   5.112   3.296  0.2302 -0.7792 -0.3844
 8460TIP3    H225345   6.552   5.067   3.213 -0.1559 -3.4233  1.4821
 8461TIP3   OH225346   1.987   4.687   0.439  0.0033  0.0714  0.5786
 8461TIP3    H125347   2.020   4.626   0.505  0.2650  0.6814  1.0284
 8461TIP3    H225348   2.064   4.735   0.410 -0.4067  1.2997  1.4196
 8462TIP3   OH225349   3.454   3.788   3.789 -0.7869  0.0333  0.5546
 8462TIP3    H125350   3.395   3.714   3.799 -0.1194 -0.6304 -0.2363
 8462TIP3    H225351   3.491   3.801   3.877  0.2844 -1.6210  0.3984
 8463TIP3   OH225352   5.192   1.875   3.434  0.1555  0.1866 -0.2063
 8463TIP3    H125353   5.100   1.855   3.450  0.5913 -0.2846  2.0634
 8463TIP3    H225354   5.218   1.814   3.365 -0.8738 -0.7143  0.1723
 8464TIP3   OH225355   0.017   6.620   2.079  0.1307 -0.1363 -0.6169
 8464TIP3    H125356  -0.036   6.691   2.045  0.4009  0.3722  0.0129
 8464TIP3    H225357   0.107   6.645   2.058  0.0935 -1.9948 -3.6204
 8465TIP3   OH225358   3.582   4.138   3.549 -0.6695  0.3337  0.2160
 8465TIP3    H125359   3.532   4.205   3.503  0.1426 -0.3775 -1.8368
 8465TIP3    H225360   3.673   4.158   3.529 -0.4357 -1.7370 -1.0891
 8466TIP3   OH225361   1.300   2.283   5.360 -0.6074 -0.8155  0.3762
 8466TIP3    H125362   1.388   2.286   5.397  0.0694 -2.5241 -0.9727
 8466TIP3    H225363   1.242   2.300   5.435  0.8460  1.8347  1.0297
 8467TIP3   OH225364   3.158   1.235   5.882  0.4998 -0.1487 -0.1253
 8467TIP3    H125365   3.240   1.185   5.881  0.2258 -0.6557  1.0254
 8467TIP3    H225366   3.166   1.294   5.807  1.7225 -0.4933 -0.3025
 8468TIP3   OH225367   0.394   3.678   4.092  0.0357 -0.3953  0.5458
 8468TIP3    H125368   0.410   3.767   4.061 -0.7537  0.2653  1.9289
 8468TIP3    H225369   0.424   3.622   4.021  2.2071  0.9130  0.3555
 8469TIP3   OH225370   6.445   4.966   3.092 -0.3612  0.2817  0.4547
 8469TIP3    H125371   6.430   4.994   3.001  0.7097 -0.3587  0.0633
 8469TIP3    H225372   6.485   4.879   3.084  1.9949  1.2196  1.4619
 8470TIP3   OH225373   3.908   6.304   1.502  0.2255 -0.4186 -0.3942
 8470TIP3    H125374   3.932   6.279   1.591  2.5723  1.1839 -0.4939
 8470TIP3    H225375   3.829   6.356   1.513  0.5114 -0.1987  0.7697
 8471TIP3   OH225376   4.218   3.649   1.748 -0.4639 -0.1596 -0.5661
 8471TIP3    H125377   4.293   3.604   1.709 -1.4004 -1.0467 -1.3778
 8471TIP3    H225378   4.254   3.733   1.777  0.5536  0.0139 -2.2018
 8472TIP3   OH225379   2.343   3.469   5.651 -0.0190 -0.0290 -0.4826
 8472TIP3    H125380   2.395   3.494   5.575 -1.6300 -0.0049 -1.6261
 8472TIP3    H225381   2.276   3.409   5.616  0.7605 -2.1188  1.3536
 8473TIP3   OH225382   3.536   3.187   0.617 -0.0332 -0.6228  0.1506
 8473TIP3    H125383   3.553   3.231   0.701  1.2737 -1.0855  0.1551
 8473TIP3    H225384   3.609   3.126   0.607  0.9464  0.7980 -2.2487
 8474TIP3   OH225385   2.722   3.527   2.443 -0.2264 -0.7715 -0.7160
 8474TIP3    H125386   2.665   3.549   2.517  1.1156  0.3838  0.0122
 8474TIP3    H225387   2.764   3.445   2.469  0.1627 -0.4242 -0.2446
 8475TIP3   OH225388   1.622   6.428   4.910 -0.1631 -0.1135 -0.0692
 8475TIP3    H125389   1.670   6.462   4.985  0.5262  1.3283 -1.1102
 8475TIP3    H225390   1.661   6.342   4.893  1.5301  0.6831 -0.3870
 8476TIP3   OH225391   2.316   5.361   3.894 -0.8395  0.4906  0.5977
 8476TIP3    H125392   2.260   5.285   3.881 -1.6124  1.1105  0.2471
 8476TIP3    H225393   2.320   5.403   3.809  2.2831 -0.9203 -0.0928
 8477TIP3   OH225394   5.356   4.144   4.233  0.4764 -0.5738  0.1860
 8477TIP3    H125395   5.309   4.101   4.305  0.6057 -1.1422 -0.0646
 8477TIP3    H225396   5.346   4.085   4.159  3.3778 -1.8494  0.6453
 8478TIP3   OH225397   3.313   6.052   0.154 -0.1228 -0.1750 -0.0830
 8478TIP3    H125398   3.283   6.048   0.245 -2.4529  0.6448 -0.7403
 8478TIP3    H225399   3.257   5.988   0.108  2.0182 -1.6828 -0.7521
 8479TIP3   OH225400   6.193   6.514   1.378 -0.6222 -0.0250  0.4135
 8479TIP3    H125401   6.278   6.470   1.377 -0.2302  0.4770  3.3118
 8479TIP3    H225402   6.132   6.451   1.340  0.5044 -1.7312  1.3291
 8480TIP3   OH225403   5.332   2.529   3.759  0.2596  0.1678 -0.3109
 8480TIP3    H125404   5.353   2.435   3.754  0.2705  0.1670 -0.2464
 8480TIP3    H225405   5.415   2.571   3.778  0.4188  0.2721 -1.1977
 8481TIP3   OH225406   5.982   4.323   4.017 -0.0785  0.0236  0.1650
 8481TIP3    H125407   6.057   4.382   4.019 -0.7793  1.0637 -1.6316
 8481TIP3    H225408   5.915   4.368   4.067  0.0201 -0.2037  0.5031
 8482TIP3   OH225409   5.574   0.129   1.048  0.2106 -0.2010 -0.2331
 8482TIP3    H125410   5.616   0.062   1.103  0.0132  1.1369  1.6390
 8482TIP3    H225411   5.584   0.210   1.097 -1.9027  0.6981 -1.1648
 8483TIP3   OH225412   3.260   2.250   3.801 -0.0882  0.3088  0.2729
 8483TIP3    H125413   3.351   2.276   3.815 -0.4433  1.8341 -0.0581
 8483TIP3    H225414   3.253   2.163   3.842  1.5287  0.1113  0.1969
 8484TIP3   OH225415   0.178   3.519   4.431  0.0576 -0.3984  0.5577
 8484TIP3    H125416   0.267   3.553   4.442 -0.4726  1.8887 -1.2979
 8484TIP3    H225417   0.190   3.426   4.411  2.0706 -0.0635 -0.0409
 8485TIP3   OH225418   0.893   0.562   4.556 -0.0990  0.2955 -0.3905
 8485TIP3    H125419   0.976   0.527   4.591 -0.2337 -0.0901 -0.4459
 8485TIP3    H225420   0.920   0.618   4.483  0.1696  0.9326  0.1944
 8486TIP3   OH225421   3.904   5.101   4.368  0.3986  0.0977  0.4603
 8486TIP3    H125422   3.876   5.113   4.459 -0.4826  0.0761  0.2010
 8486TIP3    H225423   3.895   5.188   4.329 -0.8240 -0.2148 -0.0195
 8487TIP3   OH225424   2.243   6.189   4.879 -0.1076 -0.1306  0.2120
 8487TIP3    H125425   2.190   6.163   4.804  0.5265 -1.9382  0.3482
 8487TIP3    H225426   2.250   6.285   4.872  0.4572 -0.2949 -2.3949
 8488TIP3   OH225427   6.143   6.099   4.937 -0.3135 -0.7461 -0.6275
 8488TIP3    H125428   6.168   6.155   4.863 -1.0056  0.2883 -0.0908
 8488TIP3    H225429   6.053   6.073   4.918 -2.3344  3.3643  2.0088
 8489TIP3   OH225430   0.459   6.413   1.350  0.1474 -0.0705 -0.1333
 8489TIP3    H125431   0.386   6.379   1.402 -0.2530  1.3520  0.2953
 8489TIP3    H225432   0.535   6.405   1.407 -0.0426  0.2508  0.1693
 8490TIP3   OH225433   1.362   1.645   0.924  0.2519 -0.2576 -0.1020
 8490TIP3    H125434   1.373   1.723   0.978 -1.5129  0.5846 -0.8465
 8490TIP3    H225435   1.367   1.572   0.985  0.6199  0.5141  0.8189
 8491TIP3   OH225436   4.609  -0.018   5.414  0.6075  0.0372  0.1756
 8491TIP3    H125437   4.520  -0.034   5.445  1.8379 -2.0606  3.0929
 8491TIP3    H225438   4.634   0.066   5.454  0.3878 -0.0495  0.4964
 8492TIP3   OH225439   0.227   6.252   3.432  0.2192  0.1929  0.6049
 8492TIP3    H125440   0.227   6.305   3.353  0.2951  0.1497  0.5757
 8492TIP3    H225441   0.167   6.180   3.412 -0.5123  0.6945  0.9334
 8493TIP3   OH225442   1.741   2.916   5.408 -1.2942 -0.0924  0.0356
 8493TIP3    H125443   1.706   2.982   5.468 -0.7241 -0.2842  0.5896
 8493TIP3    H225444   1.680   2.917   5.334 -0.9177  1.5434 -0.3025
 8494TIP3   OH225445   1.938   4.466   4.357 -0.2427  0.0246  0.6614
 8494TIP3    H125446   1.973   4.417   4.431 -1.4510 -0.5985  0.8445
 8494TIP3    H225447   1.890   4.401   4.306  0.2983  0.5168 -0.4948
 8495TIP3   OH225448   1.456   1.970   0.250  0.2918  0.3939  0.0365
 8495TIP3    H125449   1.411   1.914   0.187  0.6035  1.6218 -1.3265
 8495TIP3    H225450   1.395   2.041   0.267  1.2597  1.5354 -1.0443
 8496TIP3   OH225451   6.157   3.332   2.275 -0.4289 -0.7580  0.2077
 8496TIP3    H125452   6.216   3.284   2.333 -2.2553 -2.4373  0.7825
 8496TIP3    H225453   6.112   3.394   2.332 -0.0524 -0.2830 -0.0079
 8497TIP3   OH225454   1.119   5.434   5.731  0.1885 -0.3781  0.1641
 8497TIP3    H125455   1.033   5.404   5.701 -0.9155  0.5254  2.2409
 8497TIP3    H225456   1.100   5.503   5.793  2.5319  1.6314 -1.1814
 8498TIP3   OH225457   3.549   0.319   4.675 -0.0059  0.2789  0.1372
 8498TIP3    H125458   3.558   0.224   4.662 -0.5819 -0.0863  2.0287
 8498TIP3    H225459   3.639   0.351   4.674  0.3717 -0.6239  1.4179
 8499TIP3   OH225460   2.935   3.066   2.663  0.0035  0.3892 -0.0403
 8499TIP3    H125461   2.936   2.975   2.693  0.3938  0.2553 -0.4554
 8499TIP3    H225462   2.958   3.117   2.741  2.0358 -0.0279 -0.3154
 8500TIP3   OH225463   5.267   2.939   0.587  0.8342  0.2024 -1.0010
 8500TIP3    H125464   5.271   2.846   0.564 -3.4815 -0.0443 -1.7571
 8500TIP3    H225465   5.265   2.940   0.682  3.2368 -0.1670 -0.8841
 8501TIP3   OH225466   5.819   1.880   3.255  0.1399  0.7024 -0.3982
 8501TIP3    H125467   5.879   1.933   3.308 -1.8257  1.7198  0.9560
 8501TIP3    H225468   5.792   1.809   3.313  2.5037 -1.7515 -2.1066
 8502TIP3   OH225469   6.273   1.016   2.927 -0.4155 -0.0517  0.1375
 8502TIP3    H125470   6.279   1.029   2.832 -0.2997  1.0327  0.2847
 8502TIP3    H225471   6.304   0.927   2.940 -0.0682 -0.0843 -0.8063
 8503TIP3   OH225472   4.038   5.075   2.893  0.0324 -0.0460 -0.4188
 8503TIP3    H125473   3.974   5.126   2.943  1.6860  0.1976  1.6036
 8503TIP3    H225474   4.085   5.139   2.840  0.9484  0.3389  0.8124
 8504TIP3   OH225475   3.718   2.311   0.896 -0.3167  0.3669  0.6266
 8504TIP3    H125476   3.679   2.398   0.906 -0.6995  0.6735 -2.5145
 8504TIP3    H225477   3.645   2.251   0.901  0.0901 -0.0419  4.1329
 8505TIP3   OH225478   0.327   0.034   4.784  0.1923  0.2181 -0.5181
 8505TIP3    H125479   0.355  -0.057   4.773  2.1014  0.3549  2.1637
 8505TIP3    H225480   0.235   0.028   4.811  0.0669 -0.8417 -1.1337
 8506TIP3   OH225481   0.153   5.750   3.278 -0.5476 -0.3893  0.5806
 8506TIP3    H125482   0.236   5.761   3.325 -1.5223 -1.4359  2.7166
 8506TIP3    H225483   0.157   5.660   3.244  0.1180  0.3373 -1.3671
 8507TIP3   OH225484   5.898   4.763   2.805 -0.0957  0.7846 -0.4501
 8507TIP3    H125485   5.966   4.706   2.769 -0.1797  0.7620 -0.5693
 8507TIP3    H225486   5.834   4.703   2.844  0.2133  0.8187  0.1263
 8508TIP3   OH225487   4.612   6.209   2.660  0.8811  0.9736  0.1338
 8508TIP3    H125488   4.636   6.129   2.707  0.4032  0.9225  0.2938
 8508TIP3    H225489   4.684   6.222   2.598  0.1370 -0.5829 -1.1403
 8509TIP3   OH225490   6.829   3.273   1.847  0.6100  0.2425 -0.3169
 8509TIP3    H125491   6.797   3.195   1.801  0.9640 -0.4157  0.5344
 8509TIP3    H225492   6.755   3.333   1.845  0.3703 -0.0585 -1.0911
 8510TIP3   OH225493   0.865   1.637   5.021  0.9018 -0.3492 -0.2123
 8510TIP3    H125494   0.918   1.655   4.944 -0.1837 -1.1612 -1.1778
 8510TIP3    H225495   0.905   1.560   5.061  1.2509 -0.1413 -0.1578
 8511TIP3   OH225496   2.272   5.314   4.593 -0.2286  0.0287  0.2467
 8511TIP3    H125497   2.220   5.340   4.670 -0.8225 -2.5124  0.8142
 8511TIP3    H225498   2.359   5.350   4.609 -0.7119  0.7347  1.4150
 8512TIP3   OH225499   4.584   6.306   4.059 -0.4356 -0.1123  0.0585
 8512TIP3    H125500   4.519   6.376   4.054 -0.8517 -0.2904  2.1332
 8512TIP3    H225501   4.663   6.344   4.020 -1.1235  0.9167 -0.3735
 8513TIP3   OH225502   5.985   6.534   1.579  0.1902  0.2387  0.6390
 8513TIP3    H125503   5.900   6.547   1.537  0.6312  0.9984 -0.0583
 8513TIP3    H225504   6.044   6.511   1.507  0.4134 -1.1302  1.2297
 8514TIP3   OH225505   6.065   3.258   1.181  0.1381  0.2361  0.2010
 8514TIP3    H125506   6.127   3.322   1.217 -0.5292  0.4531  1.0125
 8514TIP3    H225507   6.016   3.307   1.115 -0.2817  0.5498  0.7276
 8515TIP3   OH225508   5.558   4.846   4.296 -0.2434 -0.3557 -0.0481
 8515TIP3    H125509   5.543   4.786   4.223 -0.3652  0.2361 -0.5125
 8515TIP3    H225510   5.650   4.872   4.287  0.4524 -2.0674  1.3692
 8516TIP3   OH225511   6.000   1.802   5.726 -0.1726 -0.4063 -0.0849
 8516TIP3    H125512   5.906   1.817   5.735  0.0285  1.2677 -0.3778
 8516TIP3    H225513   6.023   1.842   5.642  0.9016 -0.1833  0.2916
 8517TIP3   OH225514   3.471   3.125   1.282  0.4349 -0.4719  0.1251
 8517TIP3    H125515   3.546   3.121   1.222 -0.4216  1.1428 -1.1168
 8517TIP3    H225516   3.504   3.172   1.358  0.6396  0.4068 -0.4967
 8518TIP3   OH225517   6.076   0.156   0.265 -0.5604  0.4367  0.5103
 8518TIP3    H125518   6.033   0.086   0.216  1.8089 -0.1169 -0.9697
 8518TIP3    H225519   6.136   0.110   0.324 -0.2666  1.1954  0.8156
 8519TIP3   OH225520   2.569   0.961   0.463  0.6103 -0.2447 -1.2098
 8519TIP3    H125521   2.600   1.039   0.417  0.3029  0.3456 -0.4324
 8519TIP3    H225522   2.520   0.995   0.538  0.4449 -1.1846 -0.8802
 8520TIP3   OH225523   2.442   4.676   1.587  0.3038 -0.7416  0.0541
 8520TIP3    H125524   2.370   4.731   1.555  1.2089  0.7867  0.5454
 8520TIP3    H225525   2.515   4.696   1.528  1.5840  1.0522  2.1044
 8521TIP3   OH225526   2.812   3.690   5.666  0.0908 -0.6558 -0.4499
 8521TIP3    H125527   2.740   3.692   5.729  0.1097 -1.1927 -0.4076
 8521TIP3    H225528   2.891   3.688   5.719  0.1461  0.1639 -0.4976
 8522TIP3   OH225529   3.435   4.774   1.119 -0.6109 -0.2574  0.0436
 8522TIP3    H125530   3.406   4.865   1.110 -1.1841 -0.4918 -0.5271
 8522TIP3    H225531   3.356   4.722   1.101 -0.5127 -0.8552  1.2371
 8523TIP3   OH225532   1.215   3.823   3.690  0.3364  0.3832  0.2466
 8523TIP3    H125533   1.261   3.904   3.712 -1.4282  1.2609  0.8566
 8523TIP3    H225534   1.145   3.850   3.631  0.5710 -0.9287 -0.6767
 8524TIP3   OH225535   4.974   0.198   5.444  0.0200 -0.3776 -0.3437
 8524TIP3    H125536   4.937   0.134   5.384 -0.2966 -1.3215  0.8183
 8524TIP3    H225537   4.899   0.231   5.493 -0.2426  2.8373 -2.6162
 8525TIP3   OH225538   0.306   3.381   0.300  0.3483  0.4167 -0.0752
 8525TIP3    H125539   0.241   3.451   0.298  0.0977  0.1751 -0.7582
 8525TIP3    H225540   0.346   3.383   0.213 -1.4180 -1.9255 -1.0362
 8526TIP3   OH225541   6.574   4.579   3.400  0.4777 -0.5191 -0.0834
 8526TIP3    H125542   6.503   4.518   3.379  1.4370 -1.5568 -0.4732
 8526TIP3    H225543   6.587   4.630   3.320  0.0998 -0.2620  0.0220
 8527TIP3   OH225544   6.077   2.903   2.178 -0.2845  0.1968  0.1989
 8527TIP3    H125545   6.023   2.897   2.099  0.1044  2.2290 -0.2800
 8527TIP3    H225546   6.156   2.853   2.157 -2.0502 -3.2962  1.1141
 8528TIP3   OH225547   3.760   3.338   4.063 -0.0128 -0.5666 -0.0661
 8528TIP3    H125548   3.749   3.433   4.061  4.9433  0.2329 -0.1126
 8528TIP3    H225549   3.750   3.314   4.155  2.6474  0.7713  0.6459
 8529TIP3   OH225550   0.452   5.210   5.380 -0.4665 -0.0060  0.1356
 8529TIP3    H125551   0.509   5.280   5.413 -1.0125  1.3299 -1.6280
 8529TIP3    H225552   0.443   5.150   5.454  0.5439  1.4501  1.5056
 8530TIP3   OH225553   4.660   2.017   0.825 -0.7874 -0.1131  0.2387
 8530TIP3    H125554   4.656   1.923   0.810 -0.0041 -0.1180  0.0316
 8530TIP3    H225555   4.669   2.026   0.920 -1.5478 -0.2175  0.3278
 8531TIP3   OH225556   0.139   2.159   2.566  0.5716  0.3392  0.7697
 8531TIP3    H125557   0.171   2.142   2.654  1.9440  1.1764  0.4474
 8531TIP3    H225558   0.217   2.168   2.512 -0.2298  0.5874 -0.4061
 8532TIP3   OH225559   2.124   0.111   4.252  0.5402  0.0950  0.0902
 8532TIP3    H125560   2.125   0.171   4.178  0.8878 -0.7500 -0.6077
 8532TIP3    H225561   2.202   0.132   4.303  1.1016 -0.2877 -0.5945
 8533TIP3   OH225562   6.840   3.705   4.194  0.0285  0.5385 -0.0588
 8533TIP3    H125563   6.849   3.611   4.183 -2.5994  0.2103 -0.0616
 8533TIP3    H225564   6.920   3.732   4.239  1.0167 -1.5962 -0.4175
 8534TIP3   OH225565   2.216   6.702   3.677 -0.2901 -0.0285  0.1119
 8534TIP3    H125566   2.178   6.616   3.696 -0.6158  0.1366  0.2172
 8534TIP3    H225567   2.309   6.693   3.700 -0.3416 -0.3220  0.2109
 8535TIP3   OH225568   3.415   3.605   1.938 -0.6863  0.1194 -0.5714
 8535TIP3    H125569   3.440   3.620   2.030  1.8682 -0.1094 -1.1448
 8535TIP3    H225570   3.349   3.671   1.920 -1.9353 -0.4150  1.6778
 8536TIP3   OH225571   5.697   6.521   5.132  0.0283 -0.3734 -0.5876
 8536TIP3    H125572   5.712   6.451   5.068 -2.0548 -0.7031 -0.7860
 8536TIP3    H225573   5.621   6.569   5.098 -0.2800  0.2926  0.9491
 8537TIP3   OH225574   3.600   5.148   1.614  0.2059  0.3208 -0.5645
 8537TIP3    H125575   3.650   5.159   1.533 -1.2517 -0.3854 -1.6144
 8537TIP3    H225576   3.608   5.055   1.635  0.2158  0.4139 -0.1402
 8538TIP3   OH225577   3.358   2.979   4.504 -0.0579  0.5673  0.6081
 8538TIP3    H125578   3.393   2.894   4.527  0.4717  0.3220 -0.9700
 8538TIP3    H225579   3.289   2.961   4.441 -0.3258  1.2792  0.6800
 8539TIP3   OH225580   4.885   1.660   2.291  0.5143 -0.6095 -0.0689
 8539TIP3    H125581   4.893   1.743   2.338 -1.3157 -0.8524  0.7591
 8539TIP3    H225582   4.797   1.629   2.312  0.8965 -2.4187 -0.9421
 8540TIP3   OH225583   5.994   6.009   4.551 -0.0909  0.0077  0.3226
 8540TIP3    H125584   5.940   6.049   4.483  0.5659 -0.2088 -0.3591
 8540TIP3    H225585   6.068   6.068   4.561  0.3142 -0.4507  0.1214
 8541TIP3   OH225586   6.412   4.104   0.236 -0.0215 -0.2752 -0.1061
 8541TIP3    H125587   6.418   4.008   0.238 -1.6761 -0.4094  1.3922
 8541TIP3    H225588   6.469   4.132   0.308 -0.9791 -0.2765  0.6707
 8542TIP3   OH225589   5.461   3.661   3.096 -0.0693  0.0906 -0.6761
 8542TIP3    H125590   5.458   3.591   3.031 -0.7428 -0.4663 -0.0570
 8542TIP3    H225591   5.523   3.630   3.162  0.0576  0.3296 -0.6828
 8543TIP3   OH225592   2.668   2.112   1.257  0.1799  0.1201  0.3270
 8543TIP3    H125593   2.696   2.171   1.327  1.5382 -1.3031  1.0585
 8543TIP3    H225594   2.626   2.039   1.303 -0.0979 -0.2011 -0.4267
 8544TIP3   OH225595   6.335   6.683   2.238  0.6803  0.4020 -0.0834
 8544TIP3    H125596   6.378   6.768   2.236  2.0038 -0.2029  1.1680
 8544TIP3    H225597   6.353   6.648   2.325 -0.5146 -0.8291 -0.2926
 8545TIP3   OH225598   6.002   3.308   3.027 -0.1361  0.4158  0.3649
 8545TIP3    H125599   5.970   3.236   2.971  1.5658  1.2675 -1.8474
 8545TIP3    H225600   6.011   3.382   2.967  0.8295  1.6932  2.0136
 8546TIP3   OH225601   6.159   1.102   1.180 -0.0287 -0.5301 -1.1581
 8546TIP3    H125602   6.089   1.117   1.118 -1.7508 -1.5851  0.4219
 8546TIP3    H225603   6.176   1.007   1.175  0.5957 -0.4459 -0.8364
 8547TIP3   OH225604   6.261   3.355   5.616 -0.0821 -0.1249 -0.0106
 8547TIP3    H125605   6.207   3.278   5.631 -1.3413  0.5195 -1.0335
 8547TIP3    H225606   6.262   3.366   5.521 -0.2143  1.2942  0.1222
 8548TIP3   OH225607   6.761   3.065   0.424  0.1443 -0.2662 -0.2921
 8548TIP3    H125608   6.847   3.052   0.384 -0.2525 -3.0533 -0.4363
 8548TIP3    H225609   6.755   3.160   0.437  2.9058  0.0966 -0.9525
 8549TIP3   OH225610   2.930   3.480   1.423 -0.0218  0.5917  0.2403
 8549TIP3    H125611   2.987   3.408   1.450 -0.8950  0.2371  1.2325
 8549TIP3    H225612   2.978   3.524   1.353  1.2461  0.0253  0.7240
 8550TIP3   OH225613   2.738   3.717   5.024  0.5842 -0.0778 -0.1080
 8550TIP3    H125614   2.812   3.662   5.049  1.3655  0.9827 -0.0027
 8550TIP3    H225615   2.742   3.792   5.084 -1.9718 -1.0690  1.4445
 8551TIP3   OH225616   6.416   2.716   0.552 -0.5619 -0.4521  0.1144
 8551TIP3    H125617   6.403   2.625   0.578 -1.4461 -0.0637  1.1068
 8551TIP3    H225618   6.441   2.761   0.632  0.1366  0.1480 -0.4184
 8552TIP3   OH225619   7.022   0.391   3.034  0.0596 -0.5136 -0.3906
 8552TIP3    H125620   6.973   0.446   3.095  0.6311  1.5896 -1.7251
 8552TIP3    H225621   7.091   0.352   3.088  0.3849  1.0655  0.4081
 8553TIP3   OH225622   6.141   5.086   2.314  0.3120 -0.4381 -0.0305
 8553TIP3    H125623   6.164   5.019   2.250  1.6693 -0.4213  0.4090
 8553TIP3    H225624   6.160   5.046   2.399  0.9415  0.4255  0.2469
 8554TIP3   OH225625   7.072   1.198   0.226 -0.7885 -0.0371 -0.0013
 8554TIP3    H125626   7.129   1.150   0.165 -2.0511 -0.2984 -1.0265
 8554TIP3    H225627   7.130   1.225   0.297  0.5162 -0.6682 -0.7882
 8555TIP3   OH225628   1.023   3.272   1.711 -0.2363 -0.3501  0.2526
 8555TIP3    H125629   1.067   3.232   1.786 -0.0192 -0.9516 -0.1891
 8555TIP3    H225630   0.936   3.295   1.743  0.2773  0.5846  1.0533
 8556TIP3   OH225631   5.496   1.039   3.852  0.1891  0.2546  0.6674
 8556TIP3    H125632   5.468   1.018   3.941  0.1201 -1.0971  0.3504
 8556TIP3    H225633   5.592   1.032   3.854  0.2074  0.5077  0.7022
 8557TIP3   OH225634   2.755   5.040   2.728  0.4627  0.1155 -0.5977
 8557TIP3    H125635   2.837   5.003   2.696  0.0044  1.0557 -3.1099
 8557TIP3    H225636   2.693   4.967   2.725  0.6647 -0.0438 -0.9146
 8558TIP3   OH225637   3.590   2.965   0.788  0.1422 -0.1761 -0.1432
 8558TIP3    H125638   3.506   2.931   0.758 -0.6075  3.1923 -2.5972
 8558TIP3    H225639   3.655   2.914   0.741 -0.7434 -0.4246 -1.1319
 8559TIP3   OH225640   3.083   4.579   1.319  0.7860  0.1965  0.5163
 8559TIP3    H125641   3.154   4.636   1.351  0.8087 -0.6121  1.9837
 8559TIP3    H225642   3.052   4.623   1.240  2.4014  0.9864  0.2681
 8560TIP3   OH225643   2.959   4.792   5.843 -0.5695 -0.3384 -0.3219
 8560TIP3    H125644   2.910   4.833   5.914 -1.6005 -0.1560 -1.1199
 8560TIP3    H225645   2.942   4.846   5.766  1.7738  0.3714 -0.4395
 8561TIP3   OH225646   2.530   0.414   1.859 -0.2505 -0.1995 -0.0386
 8561TIP3    H125647   2.618   0.410   1.896 -0.1846 -0.2177 -0.1971
 8561TIP3    H225648   2.526   0.501   1.819 -0.0907 -0.4324 -0.5652
 8562TIP3   OH225649   7.156   2.465   2.297 -0.2493  0.1038 -0.1537
 8562TIP3    H125650   7.081   2.524   2.297 -0.2398  0.1484  1.3460
 8562TIP3    H225651   7.127   2.390   2.245 -1.7697 -0.3776  1.2853
 8563TIP3   OH225652   3.946   3.157   3.093 -0.0998  0.3029 -0.1898
 8563TIP3    H125653   3.971   3.135   3.004  2.3909  3.1931 -0.3798
 8563TIP3    H225654   4.019   3.127   3.147 -0.6295  0.4096  0.6063
 8564TIP3   OH225655   5.658   6.329   4.711  0.1377 -0.3772 -0.4433
 8564TIP3    H125656   5.732   6.354   4.656  0.4210 -2.2236 -0.9532
 8564TIP3    H225657   5.696   6.321   4.799 -0.0552  1.3265 -0.1730
 8565TIP3   OH225658   0.979   1.182   4.557 -0.0969  0.0479 -0.0414
 8565TIP3    H125659   0.942   1.095   4.565  1.2685 -0.7944 -2.0342
 8565TIP3    H225660   0.969   1.205   4.465  2.1952  0.6913 -0.2121
 8566TIP3   OH225661   5.236   5.997   0.056 -0.3642  0.0115 -0.5522
 8566TIP3    H125662   5.259   5.921   0.110 -1.7569  0.0503  0.1492
 8566TIP3    H225663   5.290   6.067   0.091 -2.3059  0.4305  1.9758
 8567TIP3   OH225664   6.997   3.042   4.903  0.0416  0.0717 -0.2704
 8567TIP3    H125665   6.966   3.126   4.937 -1.7649 -0.0478 -1.4722
 8567TIP3    H225666   6.928   2.980   4.926  0.2478 -0.6131 -1.4268
 8568TIP3   OH225667   3.272   6.810   0.657  0.6518  0.5636  0.0134
 8568TIP3    H125668   3.189   6.822   0.610  0.5625  1.3690  0.3522
 8568TIP3    H225669   3.286   6.716   0.658 -1.8984  0.0592  2.7274
 8569TIP3   OH225670   5.285   5.089   0.259 -0.4530  0.1303 -0.6678
 8569TIP3    H125671   5.308   5.180   0.240 -1.1386  0.6561  0.8725
 8569TIP3    H225672   5.368   5.042   0.254  0.4390  1.3758  1.3867
 8570TIP3   OH225673   0.486   0.423   5.589  0.0836 -0.1216  0.7806
 8570TIP3    H125674   0.539   0.418   5.668  2.0975  0.0512 -0.4728
 8570TIP3    H225675   0.396   0.405   5.618  0.9290 -1.2847  2.8779
 8571TIP3   OH225676   4.138   6.682   0.108 -0.7555 -0.2283 -0.1978
 8571TIP3    H125677   4.077   6.608   0.102 -0.6374 -0.6888  2.7272
 8571TIP3    H225678   4.082   6.760   0.105 -1.1195 -0.5073 -0.8544
 8572TIP3   OH225679   6.131   4.740   3.027  0.3711  0.0646  0.4749
 8572TIP3    H125680   6.073   4.665   3.015  1.6896 -0.8916 -0.0835
 8572TIP3    H225681   6.084   4.813   2.985  0.5396 -1.1655 -2.0255
 8573TIP3   OH225682   3.651   1.495   3.183 -0.2852 -0.0635 -0.0664
 8573TIP3    H125683   3.648   1.437   3.108 -1.3646  1.0984 -0.9568
 8573TIP3    H225684   3.597   1.570   3.158 -0.5973  0.3985  1.8240
 8574TIP3   OH225685   6.088   1.597   0.949  0.5133 -0.1099  0.6485
 8574TIP3    H125686   6.096   1.692   0.950  2.1493 -0.2075  1.7412
 8574TIP3    H225687   6.083   1.572   1.041  0.8737 -1.1144  0.4143
 8575TIP3   OH225688   1.024   4.317   3.770 -0.4314 -0.2098  0.0172
 8575TIP3    H125689   0.983   4.401   3.754  0.3004  0.5522  1.8555
 8575TIP3    H225690   0.982   4.283   3.849  1.0022 -0.3681  0.7479
 8576TIP3   OH225691   3.792   5.295   3.347  0.0626  0.5113  0.1995
 8576TIP3    H125692   3.816   5.381   3.312  1.3644 -0.2901 -0.9649
 8576TIP3    H225693   3.740   5.255   3.277  2.9641 -1.2398 -1.1451
 8577TIP3   OH225694   4.882   1.355   4.208 -0.7148  0.5987  0.1627
 8577TIP3    H125695   4.882   1.262   4.185 -0.8037  0.5249  0.4606
 8577TIP3    H225696   4.846   1.399   4.131  0.1604  0.4737 -0.3329
 8578TIP3   OH225697   3.855   1.594   3.299  0.0728 -0.3223 -0.4970
 8578TIP3    H125698   3.784   1.543   3.261  0.9235 -0.5312 -1.8936
 8578TIP3    H225699   3.833   1.602   3.391 -1.8069 -0.2937 -0.9110
 8579TIP3   OH225700   2.832   3.305   2.957  0.0112  0.4964  0.4039
 8579TIP3    H125701   2.752   3.307   2.904  1.0399  1.5461 -1.1825
 8579TIP3    H225702   2.903   3.297   2.893  1.1920 -0.8530  1.7970
 8580TIP3   OH225703   0.627   2.864   0.113 -0.2492 -0.4624  0.2289
 8580TIP3    H125704   0.557   2.918   0.075  1.2494  1.2847 -0.1737
 8580TIP3    H225705   0.640   2.794   0.050 -0.9228 -0.2103 -0.2073
 8581TIP3   OH225706   1.174   1.506   2.460  0.0717 -0.0729 -0.0596
 8581TIP3    H125707   1.169   1.507   2.556 -1.6380 -0.6795 -0.1151
 8581TIP3    H225708   1.213   1.591   2.438  0.7831 -0.0533  1.1730
 8582TIP3   OH225709   4.173   5.345   1.125 -0.4005  0.2148  0.2332
 8582TIP3    H125710   4.249   5.339   1.182 -0.2662  1.1643  0.1763
 8582TIP3    H225711   4.157   5.439   1.116 -1.5086  0.0420  0.1538
 8583TIP3   OH225712   2.506   4.812   4.917  0.3030  0.3332  0.2820
 8583TIP3    H125713   2.525   4.905   4.933  2.1027  0.2136 -0.8940
 8583TIP3    H225714   2.587   4.767   4.939 -0.4592 -0.9494  0.5537
 8584TIP3   OH225715   5.614   6.762   2.513  0.0092  0.0780  0.4546
 8584TIP3    H125716   5.525   6.796   2.525 -0.2104 -0.2620 -0.1939
 8584TIP3    H225717   5.668   6.840   2.499  0.1550  0.4562  2.7191
 8585TIP3   OH225718   1.127   3.771   1.298  0.1585  0.4525  0.1559
 8585TIP3    H125719   1.073   3.711   1.247  1.2614 -2.1675  1.8606
 8585TIP3    H225720   1.186   3.811   1.234 -1.4700  0.7547 -1.2176
 8586TIP3   OH225721   3.274   5.106   1.413 -0.6893 -0.4072  0.2353
 8586TIP3    H125722   3.369   5.096   1.401 -0.5052  0.2061  1.0936
 8586TIP3    H225723   3.253   5.044   1.484 -1.1212 -1.2969 -0.6454
 8587TIP3   OH225724   4.008   3.199   0.306 -0.0135 -0.4993 -0.3141
 8587TIP3    H125725   4.036   3.240   0.388  2.9566 -0.9462 -0.9731
 8587TIP3    H225726   4.046   3.111   0.310 -1.3942 -1.1791 -1.4000
 8588TIP3   OH225727   5.878   1.931   3.576 -0.4007 -0.0489 -0.1261
 8588TIP3    H125728   5.852   2.012   3.532  1.3349  1.7256  1.8922
 8588TIP3    H225729   5.831   1.933   3.660  1.1457 -0.1100  0.7743
 8589TIP3   OH225730   4.987   2.829   2.233 -0.0264 -0.6890 -0.2818
 8589TIP3    H125731   4.994   2.911   2.184 -1.8468 -1.3041 -1.6865
 8589TIP3    H225732   4.989   2.855   2.325  0.7482  0.7790 -0.6905
 8590TIP3   OH225733   6.494   3.420   1.992 -0.1249  0.3204 -0.1200
 8590TIP3    H125734   6.544   3.442   2.071  0.0094 -0.8448  0.1452
 8590TIP3    H225735   6.545   3.456   1.920 -0.8912  2.5371  0.3595
 8591TIP3   OH225736   5.409   2.430   0.597  0.0321 -0.1217 -0.0758
 8591TIP3    H125737   5.452   2.510   0.628 -0.9744  0.0300  1.0308
 8591TIP3    H225738   5.471   2.360   0.617  0.8596  0.3496 -0.9100
 8592TIP3   OH225739   5.179   0.763   4.720  0.5041  0.0001 -0.6793
 8592TIP3    H125740   5.109   0.816   4.758 -0.2507 -1.0047 -0.6542
 8592TIP3    H225741   5.255   0.821   4.720  0.3516  0.2659  1.6792
 8593TIP3   OH225742   3.540   3.694   5.298  0.0151 -0.8835 -0.0622
 8593TIP3    H125743   3.535   3.656   5.210 -0.2474  0.4090 -0.6425
 8593TIP3    H225744   3.615   3.651   5.339  0.3008 -1.3250 -1.0138
 8594TIP3   OH225745   2.462   2.729   5.662  0.4309  0.1962 -0.0866
 8594TIP3    H125746   2.511   2.790   5.606  0.7040 -0.3162 -0.4170
 8594TIP3    H225747   2.378   2.772   5.678 -0.6547 -0.6532 -2.8941
 8595TIP3   OH225748   4.136   5.157   1.434  0.2571  0.0218 -0.6287
 8595TIP3    H125749   4.160   5.126   1.346  0.3880 -0.1811 -0.5213
 8595TIP3    H225750   4.220   5.176   1.476  0.2184 -0.3592 -0.3730
 8596TIP3   OH225751   3.335   6.475   3.653 -0.5211  0.3705 -0.0295
 8596TIP3    H125752   3.356   6.501   3.743  1.6873 -1.1644  0.0035
 8596TIP3    H225753   3.245   6.443   3.657  0.0251 -1.1379  2.0583
 8597TIP3   OH225754   0.655   2.630   2.356  0.0070 -0.3766  0.5914
 8597TIP3    H125755   0.672   2.558   2.417  0.8283 -0.2187  0.5602
 8597TIP3    H225756   0.615   2.588   2.280 -0.8221 -0.6041  1.1292
 8598TIP3   OH225757   2.116   5.903   4.867 -0.0718  0.1045 -0.1342
 8598TIP3    H125758   2.091   5.908   4.775  0.4050  0.5297 -0.2442
 8598TIP3    H225759   2.211   5.892   4.866 -0.0302  0.3990  0.3086
 8599TIP3   OH225760   6.580   6.116   2.400  0.5395 -0.5485  0.2870
 8599TIP3    H125761   6.662   6.099   2.354  0.8903 -0.2667  0.7897
 8599TIP3    H225762   6.514   6.122   2.331  0.7740 -1.7244 -0.0565
 8600TIP3   OH225763   7.242   2.787   0.732  0.0805  0.8648 -0.0623
 8600TIP3    H125764   7.209   2.730   0.801  0.6274  1.9916  1.1837
 8600TIP3    H225765   7.164   2.833   0.699 -0.0940  0.8640  0.3414
 8601TIP3   OH225766   3.289   5.389   1.826  0.1856 -0.3239 -0.3012
 8601TIP3    H125767   3.343   5.371   1.749  2.6108  0.9219  0.9890
 8601TIP3    H225768   3.287   5.307   1.874  2.1721 -0.0936  0.2816
 8602TIP3   OH225769   0.106   6.368   1.311 -0.0325 -0.0131  0.4340
 8602TIP3    H125770   0.166   6.296   1.290 -1.5080 -0.7278 -1.6161
 8602TIP3    H225771   0.020   6.335   1.285 -1.9521 -0.1689  5.8521
 8603TIP3   OH225772   0.037   0.530   2.193 -0.6576 -0.0946 -0.2345
 8603TIP3    H125773   0.128   0.560   2.196 -0.7310  0.2940 -1.3239
 8603TIP3    H225774   0.004   0.543   2.281  0.6285 -1.1810  0.4550
 8604TIP3   OH225775   7.202   6.492   1.550 -0.0294  0.0433 -0.0534
 8604TIP3    H125776   7.182   6.505   1.643  2.7253  0.1030  0.6249
 8604TIP3    H225777   7.255   6.568   1.526  0.9050 -0.9149 -1.1299
 8605TIP3   OH225778   4.088   5.281   4.712  0.4284 -0.0459 -0.2406
 8605TIP3    H125779   4.054   5.194   4.734  0.1414 -0.0137 -0.5622
 8605TIP3    H225780   4.180   5.265   4.691  0.6223 -0.1312  0.6206
 8606TIP3   OH225781   5.025   0.001   3.080 -0.0377 -0.2448  0.3095
 8606TIP3    H125782   5.015   0.017   2.986  0.5158  0.0709  0.3010
 8606TIP3    H225783   5.114   0.032   3.101 -0.0155 -0.6551  0.8614
 8607TIP3   OH225784   1.739   5.121   5.807 -0.0507 -0.1654  0.6507
 8607TIP3    H125785   1.746   5.151   5.897  0.9636  0.2930  0.4368
 8607TIP3    H225786   1.785   5.187   5.756 -0.2874 -0.6115 -0.1646
 8608TIP3   OH225787   4.017   0.199   5.520 -0.2725 -0.0731 -0.1141
 8608TIP3    H125788   3.930   0.233   5.543 -0.5932  0.2490 -1.6810
 8608TIP3    H225789   3.999   0.119   5.472  0.3323 -0.3070  0.0450
 8609TIP3   OH225790   4.635   5.063   5.560  0.6724  0.5287  0.5408
 8609TIP3    H125791   4.582   5.010   5.501  2.2897 -0.9554  0.3188
 8609TIP3    H225792   4.617   5.153   5.535 -0.6214  0.0070 -0.4727
 8610TIP3   OH225793   1.380   1.386   5.566  0.0141 -0.2225 -0.4336
 8610TIP3    H125794   1.313   1.388   5.634  1.7081 -0.6961  1.3403
 8610TIP3    H225795   1.340   1.337   5.494 -0.8893 -2.1776  1.3185
 8611TIP3   OH225796   2.461   3.215   3.722 -0.0836  0.1342  0.6060
 8611TIP3    H125797   2.453   3.126   3.687 -0.7198  1.3290 -2.6226
 8611TIP3    H225798   2.378   3.230   3.767 -0.4097 -0.5845  0.2696
 8612TIP3   OH225799   5.239   2.056   5.596 -0.5387 -0.1256 -0.3485
 8612TIP3    H125800   5.185   2.036   5.672  1.1332 -1.7177  0.4898
 8612TIP3    H225801   5.180   2.047   5.521 -1.7374 -0.4645  0.6054
 8613TIP3   OH225802   4.132   1.581   5.666 -0.0100  0.1875  0.3078
 8613TIP3    H125803   4.049   1.627   5.665  0.6299  1.3918  0.3770
 8613TIP3    H225804   4.188   1.632   5.725  1.2692  0.3301 -0.9550
 8614TIP3   OH225805   1.469   2.248   3.095  0.7088 -0.4695 -0.1516
 8614TIP3    H125806   1.415   2.301   3.036 -0.7987 -0.5398  1.1023
 8614TIP3    H225807   1.488   2.306   3.169  0.9728 -0.9679  0.1772
 8615TIP3   OH225808   4.526   6.446   1.475 -0.1646 -0.3260  0.7376
 8615TIP3    H125809   4.466   6.496   1.530  0.4269 -1.2513  2.3042
 8615TIP3    H225810   4.478   6.431   1.394 -2.0714 -0.9983  1.9237
 8616TIP3   OH225811   4.222   6.430   4.388  0.3094  0.4239 -0.5881
 8616TIP3    H125812   4.243   6.422   4.481  1.7997  0.5047 -0.9000
 8616TIP3    H225813   4.161   6.358   4.371 -0.3162  0.6582  0.5255
 8617TIP3   OH225814   3.812   3.175   5.138 -0.1479  0.3124  0.3040
 8617TIP3    H125815   3.739   3.154   5.080 -0.5174  1.3217  0.3726
 8617TIP3    H225816   3.879   3.111   5.116 -0.5273  0.2517 -0.7725
 8618TIP3   OH225817   1.036   2.096   0.843 -0.3546 -0.2721  0.2534
 8618TIP3    H125818   0.947   2.118   0.814 -0.0322 -0.2623 -0.7748
 8618TIP3    H225819   1.093   2.141   0.781  0.3625 -0.6703  0.6171
 8619TIP3   OH225820   3.426   6.396   2.082 -0.0748 -0.1496  0.2666
 8619TIP3    H125821   3.402   6.486   2.063  0.9408  0.2576  0.8416
 8619TIP3    H225822   3.471   6.365   2.004 -1.3691 -0.5344 -0.3572
 8620TIP3   OH225823   5.294   5.032   4.630  0.4405 -0.2779  0.0682
 8620TIP3    H125824   5.323   4.998   4.546  0.3650 -0.4697  0.1188
 8620TIP3    H225825   5.262   4.955   4.677  0.9645 -0.2558  0.4729
 8621TIP3   OH225826   5.868   5.872   1.247 -0.7223 -0.3723 -0.0725
 8621TIP3    H125827   5.950   5.859   1.201  0.7344  1.3831  1.8505
 8621TIP3    H225828   5.828   5.948   1.205 -0.6558 -0.3404 -0.0781
 8622TIP3   OH225829   0.935   5.098   0.536  0.2066 -0.0700  0.4005
 8622TIP3    H125830   0.980   5.016   0.553  0.9313  0.0523 -0.7997
 8622TIP3    H225831   0.977   5.161   0.594  1.4606 -0.0092 -0.5237
 8623TIP3   OH225832   0.522   1.176   1.136 -0.4500 -0.0953 -0.5232
 8623TIP3    H125833   0.582   1.248   1.117 -0.4619  0.2763  0.7853
 8623TIP3    H225834   0.537   1.155   1.228 -1.4867 -0.7890 -0.4928
 8624TIP3   OH225835   0.891   2.261   0.310  0.7066  0.0230 -0.6383
 8624TIP3    H125836   0.963   2.299   0.260  0.2724  1.1170 -0.4589
 8624TIP3    H225837   0.864   2.330   0.370 -1.4842  0.1829 -1.7286
 8625TIP3   OH225838   0.291   6.659   5.696  0.0793 -0.0400 -0.0489
 8625TIP3    H125839   0.243   6.673   5.615  0.1619 -0.3204 -0.1477
 8625TIP3    H225840   0.383   6.672   5.672  0.4297 -3.0013 -0.7162
 8626TIP3   OH225841   0.398   0.738   4.149  0.5517 -0.2435  0.2437
 8626TIP3    H125842   0.491   0.733   4.168  0.8307  0.8546 -0.6835
 8626TIP3    H225843   0.382   0.831   4.133 -0.4628 -0.5685 -0.7711
 8627TIP3   OH225844   6.640   3.681   0.637 -0.1849 -0.1874 -0.0030
 8627TIP3    H125845   6.710   3.737   0.603  1.7808 -2.6252 -0.3303
 8627TIP3    H225846   6.672   3.652   0.722 -0.9554 -1.0401  0.0137
 8628TIP3   OH225847   0.799   3.657   3.544 -0.0843 -0.1966  0.4178
 8628TIP3    H125848   0.714   3.687   3.578 -0.2622 -0.8237  0.5268
 8628TIP3    H225849   0.816   3.575   3.589  0.7249  0.0603  0.6083
 8629TIP3   OH225850   0.584   3.806   1.074 -0.4442  0.1424  0.2463
 8629TIP3    H125851   0.571   3.900   1.077 -2.1398 -0.0851  1.4360
 8629TIP3    H225852   0.597   3.787   0.981  3.3998  1.8543  0.2168
 8630TIP3   OH225853   6.718   0.819   4.539  0.1107  0.3508 -0.6501
 8630TIP3    H125854   6.637   0.771   4.556  0.4021  0.5211  1.4659
 8630TIP3    H225855   6.788   0.760   4.569  0.7072  0.7414 -1.2256
 8631TIP3   OH225856   3.082   1.479   5.580 -0.0364  0.3608 -0.2699
 8631TIP3    H125857   3.098   1.507   5.489  1.4983  1.3141  0.2566
 8631TIP3    H225858   3.105   1.386   5.581 -0.6283  0.1972 -0.9862
 8632TIP3   OH225859   6.340   2.374   3.762  0.1767  0.4436 -0.1729
 8632TIP3    H125860   6.316   2.463   3.736 -1.0013 -0.1146 -1.0836
 8632TIP3    H225861   6.404   2.386   3.832 -0.3247  2.0061  0.0527
 8633TIP3   OH225862   0.485   0.298   3.786 -0.5183  1.3397  0.1886
 8633TIP3    H125863   0.490   0.332   3.696 -1.2447  3.2150  0.8106
 8633TIP3    H225864   0.509   0.373   3.841 -0.7451  0.4136  1.5943
 8634TIP3   OH225865   2.543   0.292   3.900 -0.6297 -0.2949 -0.1191
 8634TIP3    H125866   2.496   0.215   3.932 -0.7606 -0.2923 -0.3003
 8634TIP3    H225867   2.568   0.270   3.811 -0.5510 -0.1791 -0.1262
 8635TIP3   OH225868   2.609   1.441   0.267 -0.1864  0.6067  0.1417
 8635TIP3    H125869   2.540   1.383   0.298 -1.9136  1.9944 -0.8748
 8635TIP3    H225870   2.576   1.476   0.184  1.7775  1.2953 -0.4185
 8636TIP3   OH225871   7.045   5.317   3.090 -0.1950  0.0732 -0.6054
 8636TIP3    H125872   7.098   5.299   3.168 -0.8291 -2.3314 -0.6477
 8636TIP3    H225873   6.981   5.382   3.119 -0.7886 -1.1901  1.1109
 8637TIP3   OH225874   4.379   3.146   4.734  0.2375  0.3837  0.4285
 8637TIP3    H125875   4.369   3.061   4.777 -0.2409  0.6149  0.7797
 8637TIP3    H225876   4.459   3.183   4.770  1.2314 -0.5288 -0.7700
 8638TIP3   OH225877   1.795   1.203   4.323 -0.1596 -0.0054  0.1119
 8638TIP3    H125878   1.880   1.214   4.367 -0.2044 -0.5380  0.3323
 8638TIP3    H225879   1.747   1.142   4.379 -1.4918  1.8674  1.1091
 8639TIP3   OH225880   6.035   0.244   1.803  0.0549  0.0906 -0.4873
 8639TIP3    H125881   6.025   0.312   1.870 -0.6967 -0.2352 -0.2575
 8639TIP3    H225882   6.029   0.292   1.720  0.6211  0.4451 -0.3333
 8640TIP3   OH225883   6.301   0.554   1.200  0.0229 -0.1350  0.0475
 8640TIP3    H125884   6.225   0.611   1.206  0.0119 -0.2329  0.8371
 8640TIP3    H225885   6.279   0.477   1.253  0.6560 -0.1798  0.2529
 8641TIP3   OH225886   1.301   3.249   3.160  0.0161  0.1413 -0.2003
 8641TIP3    H125887   1.298   3.343   3.141  0.7539 -0.2545 -2.6867
 8641TIP3    H225888   1.375   3.217   3.108  0.2018 -1.7278  1.1362
 8642TIP3   OH225889   4.043   0.390   1.903 -0.4417 -0.0859  0.2115
 8642TIP3    H125890   3.999   0.463   1.946 -0.5451 -0.4823  0.8052
 8642TIP3    H225891   4.073   0.425   1.819 -1.0413  0.4585  0.2161
 8643TIP3   OH225892   2.331   3.120   4.311  0.0611 -0.0800  0.1759
 8643TIP3    H125893   2.398   3.077   4.257 -0.1658  0.4495 -0.5347
 8643TIP3    H225894   2.258   3.134   4.252 -1.0461 -1.4536  1.1539
 8644TIP3   OH225895   6.998   1.639   3.640 -0.3611 -0.2029 -0.1734
 8644TIP3    H125896   7.077   1.643   3.695 -0.8923 -2.1139  0.8197
 8644TIP3    H225897   6.928   1.620   3.702 -1.6380  1.4252 -1.0540
 8645TIP3   OH225898   2.258   6.692   0.254 -0.3987 -0.0855 -0.3135
 8645TIP3    H125899   2.291   6.670   0.167 -2.3441 -1.6053 -0.7146
 8645TIP3    H225900   2.332   6.738   0.296  1.9749 -2.6358 -1.3797
 8646TIP3   OH225901   4.147   6.439   2.387  0.1247 -0.2369  0.2805
 8646TIP3    H125902   4.170   6.494   2.313 -1.6716 -0.2569 -0.3236
 8646TIP3    H225903   4.093   6.494   2.443 -0.4366 -0.9224  0.4289
 8647TIP3   OH225904   6.581   6.617   5.251  0.7819  1.1328  0.3012
 8647TIP3    H125905   6.636   6.578   5.320 -0.9007 -1.0174  0.5211
 8647TIP3    H225906   6.499   6.639   5.295  0.0474  0.6719 -0.7867
 8648TIP3   OH225907   2.405   3.042   5.380 -0.3346 -0.0967  0.1077
 8648TIP3    H125908   2.349   2.965   5.392  0.2440 -0.5372  0.0727
 8648TIP3    H225909   2.436   3.034   5.289 -2.6229  1.7946 -0.9344
 8649TIP3   OH225910   5.693   4.098   0.628  0.0281  0.3111  0.0381
 8649TIP3    H125911   5.641   4.156   0.572 -0.0857 -0.2850 -0.4974
 8649TIP3    H225912   5.761   4.154   0.665 -1.2994  1.2369  1.1924
 8650TIP3   OH225913   5.599   1.614   0.444  0.1693  0.1078  0.4530
 8650TIP3    H125914   5.581   1.592   0.535  0.7210  1.4584  0.9009
 8650TIP3    H225915   5.541   1.555   0.394 -0.8986  0.0577  1.6829
 8651TIP3   OH225916   7.102   1.837   1.777  0.6108  0.6194  0.1120
 8651TIP3    H125917   7.054   1.780   1.718 -0.2750  0.4776  0.9265
 8651TIP3    H225918   7.072   1.925   1.755  1.9161  0.8000 -1.0891
 8652TIP3   OH225919   2.467   3.971   3.271  0.0842 -0.4884  0.1263
 8652TIP3    H125920   2.401   4.021   3.222  0.5118 -0.3549 -0.3275
 8652TIP3    H225921   2.516   4.038   3.319  1.3266 -0.3224 -1.2807
 8653TIP3   OH225922   1.039   0.530   2.067 -0.2952  0.0671  0.0686
 8653TIP3    H125923   1.036   0.435   2.082 -0.2215 -0.3993 -2.4811
 8653TIP3    H225924   0.953   0.551   2.030 -0.8427  1.3045  1.9024
 8654TIP3   OH225925   4.824   3.652   0.760 -0.1634 -0.0310 -0.5304
 8654TIP3    H125926   4.792   3.637   0.849  1.3196  1.4881  0.3394
 8654TIP3    H225927   4.809   3.745   0.745 -1.9414 -0.5795 -2.5957
 8655TIP3   OH225928   7.062   2.857   3.036  0.6763  0.8453 -0.3116
 8655TIP3    H125929   6.967   2.870   3.043  0.5067  0.4344 -1.6567
 8655TIP3    H225930   7.092   2.858   3.127 -0.7199  0.1676  0.1931
 8656TIP3   OH225931   1.683   5.034   4.639  0.0844 -0.0697  0.1269
 8656TIP3    H125932   1.770   5.007   4.608 -0.2205  0.2879 -1.1124
 8656TIP3    H225933   1.647   4.956   4.681  1.3791  0.0496  1.5665
 8657TIP3   OH225934   1.593   2.924   4.131  0.5405  0.4991 -0.0966
 8657TIP3    H125935   1.565   2.938   4.041 -2.1149  0.9067  0.6894
 8657TIP3    H225936   1.571   2.832   4.148  0.2275  0.6531  0.3597
 8658TIP3   OH225937   6.648   0.347   5.680 -0.1798  0.3822  0.9917
 8658TIP3    H125938   6.681   0.274   5.628  0.4883  0.1634  1.7087
 8658TIP3    H225939   6.554   0.347   5.665 -0.1987 -0.6861  1.0624
 8659TIP3   OH225940   5.517   5.408   3.140 -0.0997  0.0041 -0.2010
 8659TIP3    H125941   5.464   5.483   3.170 -0.8182 -0.0162 -1.3594
 8659TIP3    H225942   5.455   5.352   3.094  0.8267 -0.3228 -1.0719
 8660TIP3   OH225943   3.254   4.421   4.509  0.3612 -0.3445  0.6474
 8660TIP3    H125944   3.279   4.330   4.524 -0.6165 -0.8297 -0.5145
 8660TIP3    H225945   3.322   4.455   4.451 -1.3049 -1.5614 -2.2357
 8661TIP3   OH225946   2.902   1.877   0.598  0.1228 -0.1473  0.1496
 8661TIP3    H125947   2.883   1.798   0.649  0.1706  0.2425  0.7827
 8661TIP3    H225948   2.919   1.845   0.509 -0.9984 -0.7385  0.1263
 8662TIP3   OH225949   5.613   4.840   3.802  0.9973 -0.8415 -0.7332
 8662TIP3    H125950   5.521   4.853   3.821  0.8230 -1.7039 -0.9573
 8662TIP3    H225951   5.625   4.877   3.714  0.8357 -0.8505 -0.7587
 8663TIP3   OH225952   4.929   4.472   3.272  0.2931 -0.0674 -0.7583
 8663TIP3    H125953   4.973   4.526   3.338 -1.1249 -0.0192  0.1772
 8663TIP3    H225954   5.001   4.425   3.229  1.2108 -1.1862  1.7729
 8664TIP3   OH225955   6.665   0.787   5.236  0.3260 -0.0570 -0.4119
 8664TIP3    H125956   6.572   0.773   5.216  0.2677  0.1851 -0.3176
 8664TIP3    H225957   6.673   0.882   5.245  0.0220 -0.2219  2.3151
 8665TIP3   OH225958   1.897   4.541   3.696  0.0445  0.4029  0.8438
 8665TIP3    H125959   1.959   4.610   3.671 -0.4444  0.6212  0.2160
 8665TIP3    H225960   1.893   4.546   3.792  1.5532 -0.1013  0.9569
 8666TIP3   OH225961   5.088   5.721   1.227 -0.0844 -0.0236 -0.0288
 8666TIP3    H125962   5.126   5.686   1.307 -0.1659  1.6020  0.7635
 8666TIP3    H225963   4.993   5.715   1.241 -0.2264 -2.8560 -1.4597
 8667TIP3   OH225964   1.131   5.069   4.828  0.5449  0.2808 -0.6836
 8667TIP3    H125965   1.085   5.037   4.905 -0.6200  1.1631 -0.9854
 8667TIP3    H225966   1.117   5.001   4.762 -0.0398  0.3712 -0.6626
 8668TIP3   OH225967   0.600   0.483   2.791  0.3127  0.5340  0.1560
 8668TIP3    H125968   0.626   0.454   2.703  1.9297  2.1644  0.0375
 8668TIP3    H225969   0.516   0.526   2.777  0.6345  0.9311 -0.6336
 8669TIP3   OH225970   5.976   0.760   4.266  0.1855 -0.2486 -0.4950
 8669TIP3    H125971   5.969   0.855   4.251  1.1780  0.2515  1.7838
 8669TIP3    H225972   6.069   0.741   4.257  0.3166 -0.5499  1.1770
 8670TIP3   OH225973   0.658   1.326   4.321 -0.8046  0.4669  0.3656
 8670TIP3    H125974   0.722   1.356   4.385  0.2063 -0.8878  0.0324
 8670TIP3    H225975   0.577   1.315   4.371 -0.3510  0.6013  1.1504
 8671TIP3   OH225976   4.324   0.760   2.742  0.2851  0.1189 -0.5078
 8671TIP3    H125977   4.301   0.852   2.725  0.3854 -0.0401 -1.6156
 8671TIP3    H225978   4.353   0.727   2.657 -0.0705 -1.0380 -0.1972
 8672TIP3   OH225979   6.096   5.804   5.579  0.4733 -0.1799  0.0241
 8672TIP3    H125980   6.056   5.786   5.664  1.3904 -0.5705  0.3841
 8672TIP3    H225981   6.171   5.860   5.598  0.8560 -0.5054 -0.4911
 8673TIP3   OH225982   5.000   2.327   2.766  0.6289 -0.3660 -0.3139
 8673TIP3    H125983   5.091   2.357   2.758  1.8555 -2.8614  2.4184
 8673TIP3    H225984   4.977   2.343   2.858 -2.4775  1.8582 -1.2940
 8674TIP3   OH225985   6.572   4.773   0.882  0.3354  0.0107 -0.5467
 8674TIP3    H125986   6.578   4.741   0.792  0.9408  0.0537 -0.5230
 8674TIP3    H225987   6.478   4.788   0.896  0.3097  0.6883 -1.4056
 8675TIP3   OH225988   0.834   5.401   1.812 -0.8747  0.1083 -0.6728
 8675TIP3    H125989   0.906   5.381   1.872 -1.1136  1.1740  0.0075
 8675TIP3    H225990   0.874   5.456   1.745 -0.6123 -1.0662 -1.5196
 8676TIP3   OH225991   0.855   3.631   3.289  0.6532 -0.1277  0.1386
 8676TIP3    H125992   0.839   3.640   3.383 -1.2837 -1.9517  0.0531
 8676TIP3    H225993   0.769   3.614   3.252  1.2936  1.1441 -2.0939
 8677TIP3   OH225994   3.724   1.380   2.831 -0.4246 -0.0008 -0.2821
 8677TIP3    H125995   3.818   1.367   2.843 -0.3351  1.0063  0.2781
 8677TIP3    H225996   3.683   1.311   2.883  0.0123  0.7697  1.1391
 8678TIP3   OH225997   3.598   5.604   3.337 -0.8115  0.1113 -0.4653
 8678TIP3    H125998   3.565   5.693   3.325  0.3340  0.5964 -0.1136
 8678TIP3    H225999   3.592   5.565   3.250 -3.3132 -0.1996 -0.2216
 8679TIP3   OH226000   0.660   5.993   4.887 -0.0255 -0.0162  0.2664
 8679TIP3    H126001   0.695   5.983   4.976 -2.3064 -1.1106  1.1351
 8679TIP3    H226002   0.706   6.069   4.852  0.3588  0.9872  2.7146
 8680TIP3   OH226003   4.332   6.797   4.701  0.4551  0.2203  0.0113
 8680TIP3    H126004   4.285   6.850   4.766  0.8272  0.4742  0.0767
 8680TIP3    H226005   4.420   6.785   4.739 -0.1486 -2.0420  0.9043
 8681TIP3   OH226006   6.032   2.901   4.302  0.6221  0.6538 -0.3870
 8681TIP3    H126007   5.960   2.926   4.359  0.8363 -1.6792  1.0223
 8681TIP3    H226008   6.086   2.979   4.295 -0.8797  1.7904  0.3138
 8682TIP3   OH226009   5.620   5.295   0.510  0.3171 -0.3587 -0.3141
 8682TIP3    H126010   5.620   5.337   0.596  0.3607 -0.7107 -0.1407
 8682TIP3    H226011   5.710   5.302   0.480  0.6477 -1.5947  0.3428
 8683TIP3   OH226012   6.806   5.158   4.118  0.4620  0.1765 -0.4390
 8683TIP3    H126013   6.730   5.210   4.145  1.0496  0.5261  0.5765
 8683TIP3    H226014   6.777   5.067   4.128 -0.2798  0.2758 -1.4113
 8684TIP3   OH226015   6.627   2.289   2.666 -0.1693 -0.4409 -0.2899
 8684TIP3    H126016   6.645   2.319   2.755  1.3900  0.0945 -0.7460
 8684TIP3    H226017   6.532   2.293   2.658 -0.4588 -1.8802  1.7983
 8685TIP3   OH226018   5.819   3.510   5.072 -0.5499  0.4821 -0.1298
 8685TIP3    H126019   5.831   3.468   4.987 -0.2319  0.0407  0.1261
 8685TIP3    H226020   5.753   3.456   5.116  1.5195 -1.1925  1.1073
 8686TIP3   OH226021   3.104   3.382   4.425 -0.2612 -0.4233 -0.0482
 8686TIP3    H126022   3.102   3.314   4.493  0.2716  0.4182  0.8473
 8686TIP3    H226023   3.114   3.464   4.474  2.4558  0.0537 -1.2021
 8687TIP3   OH226024   0.646   6.231   0.392 -0.1233 -0.1278 -0.5364
 8687TIP3    H126025   0.569   6.177   0.411 -0.8636  0.4139 -1.8476
 8687TIP3    H226026   0.620   6.320   0.418  0.4556 -0.0976 -0.0205
 8688TIP3   OH226027   2.544   4.986   1.557 -0.0367 -0.2154  0.1814
 8688TIP3    H126028   2.601   5.056   1.527 -1.0895  0.2137 -0.8829
 8688TIP3    H226029   2.553   4.917   1.490  0.8347 -1.0434  1.1095
 8689TIP3   OH226030   3.313   6.069   3.231 -0.3040  0.2229  0.8347
 8689TIP3    H126031   3.379   6.135   3.209 -0.3802  0.4175  1.1709
 8689TIP3    H226032   3.289   6.029   3.148 -0.2395  0.6069  0.6321
 8690TIP3   OH226033   0.238   2.866   2.860 -0.2566  0.7980 -0.5657
 8690TIP3    H126034   0.161   2.852   2.804 -0.7407 -0.0208  0.2821
 8690TIP3    H226035   0.212   2.939   2.917 -1.8026 -1.5537  2.0086
 8691TIP3   OH226036   2.079   2.865   1.373 -0.7403  0.2318  0.1608
 8691TIP3    H126037   2.042   2.779   1.389  0.1799 -0.4083 -1.0369
 8691TIP3    H226038   2.100   2.899   1.460 -1.2507 -0.6764  0.6444
 8692TIP3   OH226039   6.764   5.604   5.878  0.4093  0.1024  0.5862
 8692TIP3    H126040   6.853   5.609   5.843  0.7668  2.8676  1.6027
 8692TIP3    H226041   6.775   5.571   5.967  0.6416  1.6110  1.1535
 8693TIP3   OH226042   0.916   5.269   2.511 -0.3125 -0.1822 -0.3220
 8693TIP3    H126043   0.902   5.363   2.503 -1.7703 -0.2939  0.4818
 8693TIP3    H226044   0.929   5.239   2.421 -1.3541  0.5942 -0.7541
 8694TIP3   OH226045   2.585   3.221   3.422 -0.7425 -0.0623  0.0574
 8694TIP3    H126046   2.607   3.261   3.338 -0.6864  0.3144  0.2491
 8694TIP3    H226047   2.505   3.171   3.404  0.4071 -1.6900 -0.7089
 8695TIP3   OH226048   3.762   1.550   3.568 -0.1421 -0.6346 -0.1024
 8695TIP3    H126049   3.808   1.479   3.613  0.1658 -0.2301  0.2227
 8695TIP3    H226050   3.669   1.534   3.586  0.0313  0.3188  1.9001
 8696TIP3   OH226051   3.803   0.218   3.315  0.2477 -0.2535 -0.4113
 8696TIP3    H126052   3.887   0.263   3.307  0.2742 -0.2715 -0.2359
 8696TIP3    H226053   3.774   0.205   3.225  0.7594 -0.8507 -0.5016
 8697TIP3   OH226054   2.495   3.724   3.145  0.5035 -0.5021 -0.3914
 8697TIP3    H126055   2.488   3.808   3.191  0.2190 -0.2778 -0.8356
 8697TIP3    H226056   2.432   3.668   3.188 -0.2434 -0.0914 -0.9363
 8698TIP3   OH226057   0.220   3.797   5.171  0.7735 -0.4570  0.2377
 8698TIP3    H126058   0.227   3.862   5.241  2.0410 -1.3280  0.9622
 8698TIP3    H226059   0.135   3.755   5.185  1.0446 -0.6774  1.3193
 8699TIP3   OH226060   6.013   2.986   4.021  0.6605  0.4434 -0.0537
 8699TIP3    H126061   6.014   2.943   4.107  1.7086  0.2339 -0.1558
 8699TIP3    H226062   6.095   2.959   3.980  1.6167  2.9438  0.0724
 8700TIP3   OH226063   2.920   6.201   5.793 -0.1817 -0.5656 -0.0769
 8700TIP3    H126064   2.932   6.271   5.729  2.0830 -1.3281 -0.5890
 8700TIP3    H226065   2.833   6.165   5.774 -0.2261  0.2921 -1.6637
 8701TIP3   OH226066   6.166   3.000   0.981 -0.0499 -0.2781 -0.2504
 8701TIP3    H126067   6.081   3.039   1.003 -0.2785 -1.6695  1.6459
 8701TIP3    H226068   6.223   3.074   0.965 -1.4021  0.7099 -0.7315
 8702TIP3   OH226069   4.340   6.295   2.054  0.5193 -0.5464 -0.4328
 8702TIP3    H126070   4.410   6.361   2.053  0.1716 -0.1720 -0.7287
 8702TIP3    H226071   4.351   6.249   2.138 -0.8684  1.6821  1.0868
 8703TIP3   OH226072   4.890   3.948   5.164 -0.1278  0.7970  0.3796
 8703TIP3    H126073   4.923   4.018   5.220  1.1378 -0.2892  1.0594
 8703TIP3    H226074   4.969   3.910   5.124 -0.5141 -1.5690  1.6718
 8704TIP3   OH226075   2.228   1.552   5.025 -0.1880 -0.3773  0.1929
 8704TIP3    H126076   2.266   1.520   4.943 -0.0986  1.1442 -0.4045
 8704TIP3    H226077   2.303   1.563   5.084 -0.1430 -0.6742  0.1909
 8705TIP3   OH226078   4.369   2.077   2.301 -0.3473 -0.5482 -0.0359
 8705TIP3    H126079   4.441   2.015   2.306  0.4400  0.1725 -1.7043
 8705TIP3    H226080   4.294   2.025   2.272 -0.0208 -0.9645 -0.1385
 8706TIP3   OH226081   4.871   0.634   4.911  0.1880 -0.5807  0.2661
 8706TIP3    H126082   4.888   0.712   4.858  0.4720 -0.5485  0.4038
 8706TIP3    H226083   4.879   0.561   4.849  1.4268 -0.6108  0.4487
 8707TIP3   OH226084   1.445   5.720   5.085  0.3654  0.0514 -0.1141
 8707TIP3    H126085   1.487   5.797   5.048  0.0920  0.4959  0.4841
 8707TIP3    H226086   1.490   5.706   5.168 -0.3053  0.2097  0.2787
 8708TIP3   OH226087   2.128   4.566   5.567  0.5429  0.1173  0.0105
 8708TIP3    H126088   2.104   4.476   5.546  0.5106  0.2878 -0.7100
 8708TIP3    H226089   2.090   4.618   5.497 -1.0617  0.9151  1.4089
 8709TIP3   OH226090   6.142   4.638   3.624  0.3902  0.2027  0.5362
 8709TIP3    H126091   6.089   4.604   3.696 -0.4149  1.5027  0.5795
 8709TIP3    H226092   6.114   4.729   3.613 -0.6731 -0.3572 -2.4633
 8710TIP3   OH226093   4.456   5.818   4.831 -0.1505  0.5619 -0.4493
 8710TIP3    H126094   4.426   5.737   4.789 -0.0422 -1.4749  2.9923
 8710TIP3    H226095   4.377   5.856   4.869  0.0809  1.1509 -0.5436
 8711TIP3   OH226096   0.537   0.489   3.958  0.4609 -0.0685  0.1674
 8711TIP3    H126097   0.606   0.546   3.924 -1.2099  1.4548 -0.8405
 8711TIP3    H226098   0.534   0.508   4.051  1.7921 -0.6316  0.3508
 8712TIP3   OH226099   4.921   2.061   5.208 -0.6360 -0.1420 -0.1006
 8712TIP3    H126100   4.852   2.016   5.159 -0.6316  0.0812 -0.3127
 8712TIP3    H226101   4.898   2.048   5.300 -1.6259  0.9713 -0.1746
 8713TIP3   OH226102   4.258   2.857   4.999 -0.2155 -0.1321 -0.5931
 8713TIP3    H126103   4.297   2.809   5.072 -0.5952  1.2098  0.5277
 8713TIP3    H226104   4.173   2.885   5.031  0.6810  2.8406 -0.4752
 8714TIP3   OH226105   3.644   3.725   0.610 -0.1732 -0.2206  0.0910
 8714TIP3    H126106   3.553   3.731   0.581  0.1339  0.1734 -0.7964
 8714TIP3    H226107   3.684   3.806   0.581  0.0773  0.3614  1.9356
 8715TIP3   OH226108   5.190   3.578   5.735  0.3422  0.5032 -0.1319
 8715TIP3    H126109   5.243   3.507   5.771 -0.7451 -0.2322  0.0771
 8715TIP3    H226110   5.125   3.597   5.803  0.2359  1.2776 -0.4357
 8716TIP3   OH226111   5.253   0.438   0.545  0.1863 -0.7258  0.4314
 8716TIP3    H126112   5.196   0.512   0.561  0.2815 -0.7228  0.7786
 8716TIP3    H226113   5.327   0.474   0.497 -0.3178 -0.8165 -0.4304
 8717TIP3   OH226114   2.983   4.448   4.460 -0.4609  0.7424 -0.1157
 8717TIP3    H126115   3.077   4.432   4.470 -0.4744  1.3112  1.0645
 8717TIP3    H226116   2.959   4.501   4.536 -2.0721 -0.7475  0.4751
 8718TIP3   OH226117   4.368   4.143   1.166  0.3471  0.4158 -0.5477
 8718TIP3    H126118   4.359   4.224   1.217  1.2203 -0.0186  0.3472
 8718TIP3    H226119   4.278   4.113   1.153  0.0852  0.6228  0.6422
 8719TIP3   OH226120   5.375   6.436   3.955  0.2544  0.3585  0.6012
 8719TIP3    H126121   5.354   6.508   4.016 -2.0630 -0.6228  1.0818
 8719TIP3    H226122   5.453   6.396   3.992  0.7296  1.7151  1.1470
 8720TIP3   OH226123   3.492  -0.024   3.907 -0.6782 -0.4688 -0.6215
 8720TIP3    H126124   3.570  -0.004   3.856 -0.7448 -0.7453 -0.8363
 8720TIP3    H226125   3.433   0.049   3.889  0.1567  0.6305  0.8915
 8721TIP3   OH226126   6.369   4.289   4.175  0.0186  0.1439 -0.1783
 8721TIP3    H126127   6.357   4.274   4.269 -0.5926  0.8477 -0.1359
 8721TIP3    H226128   6.375   4.201   4.137  1.3895 -0.1436  0.6471
 8722TIP3   OH226129   2.195   4.549   1.089  0.1265  0.5591 -0.0824
 8722TIP3    H126130   2.134   4.592   1.148  0.3380  0.3996  0.2509
 8722TIP3    H226131   2.151   4.552   1.003 -0.9556 -0.7429  0.3862
 8723TIP3   OH226132   5.624   3.795   4.023  0.5514 -0.0923 -0.0241
 8723TIP3    H126133   5.661   3.785   3.935 -0.9415 -1.4295 -0.5563
 8723TIP3    H226134   5.581   3.711   4.040 -0.9201  0.8471  1.1563
 8724TIP3   OH226135   2.700   0.178   2.130 -0.3335 -0.3270 -0.2238
 8724TIP3    H126136   2.605   0.185   2.139 -0.4675  0.9174 -1.9349
 8724TIP3    H226137   2.714   0.109   2.066 -0.0199 -1.0266  0.5757
 8725TIP3   OH226138   5.932   1.366   4.763  0.1386  0.5096 -0.7242
 8725TIP3    H126139   5.996   1.373   4.834 -0.6981 -0.0051  0.1003
 8725TIP3    H226140   5.970   1.417   4.692  0.8676  1.2883  0.1897
 8726TIP3   OH226141   2.272   0.699   4.790  0.5836 -0.1469 -0.0833
 8726TIP3    H126142   2.289   0.792   4.779 -1.6085  0.2305 -0.6576
 8726TIP3    H226143   2.298   0.680   4.881 -3.5993  2.2681  1.9146
 8727TIP3   OH226144   3.564   4.392   2.986  0.0722 -0.4059 -0.0480
 8727TIP3    H126145   3.578   4.425   3.075 -1.2151  0.8870 -0.3036
 8727TIP3    H226146   3.650   4.359   2.959  1.5052  2.8481  0.1741
 8728TIP3   OH226147   1.039   4.274   1.130 -0.2415 -0.2030 -0.5571
 8728TIP3    H126148   1.061   4.185   1.155  2.9070  0.7204  0.5065
 8728TIP3    H226149   1.066   4.280   1.038  0.2442 -0.1568 -0.4133
 8729TIP3   OH226150   3.683   5.184   3.800  0.2485 -0.4864 -0.4725
 8729TIP3    H126151   3.596   5.150   3.777  0.8331 -1.5494 -1.2021
 8729TIP3    H226152   3.673   5.280   3.796 -1.2115 -0.5476  0.7664
 8730TIP3   OH226153   2.486   2.280   0.489  0.4102 -0.4003 -0.1028
 8730TIP3    H126154   2.542   2.230   0.548  0.1947  0.5931  0.9764
 8730TIP3    H226155   2.544   2.347   0.451  0.1019  0.2606  0.5714
 8731TIP3   OH226156   2.176   3.905   0.648 -0.0150 -0.1391  0.9594
 8731TIP3    H126157   2.179   3.888   0.742 -1.2997  1.3014  1.3004
 8731TIP3    H226158   2.252   3.961   0.631  0.0073 -0.0946  1.2064
 8732TIP3   OH226159   0.823   4.432   2.903  0.2209  0.3837  0.1514
 8732TIP3    H126160   0.845   4.359   2.845 -0.6212  0.1604  0.0994
 8732TIP3    H226161   0.786   4.499   2.845  1.1710  0.9451  0.1716
 8733TIP3   OH226162   6.185   3.564   0.489 -0.2092 -0.4291 -0.2323
 8733TIP3    H126163   6.210   3.620   0.416  1.2029  0.4293  0.8493
 8733TIP3    H226164   6.098   3.592   0.514 -0.5202 -0.4274 -1.2784
 8734TIP3   OH226165   5.631   1.914   1.278  0.0692  0.3285 -0.3575
 8734TIP3    H126166   5.706   1.908   1.218  0.2973 -0.7893  0.0291
 8734TIP3    H226167   5.571   1.846   1.249 -0.7679  1.1566 -0.6002
 8735TIP3   OH226168   1.186   5.654   1.079 -0.3993  0.1190 -0.2561
 8735TIP3    H126169   1.251   5.724   1.082 -0.6208  0.3294 -0.2673
 8735TIP3    H226170   1.102   5.700   1.072 -0.4898 -0.1727 -1.1759
 8736TIP3   OH226171   3.541   2.284   0.602 -0.0670  0.0714  0.2159
 8736TIP3    H126172   3.447   2.266   0.594 -0.0168 -0.6169  1.0016
 8736TIP3    H226173   3.568   2.235   0.680  0.7967  0.8445  0.4232
 8737TIP3   OH226174   0.802   0.154   0.123  0.4743 -0.1297 -0.1292
 8737TIP3    H126175   0.871   0.209   0.084  0.6788 -0.2309  0.0931
 8737TIP3    H226176   0.821   0.154   0.216 -1.1107  1.6856  0.2620
 8738TIP3   OH226177   0.230   0.050   3.621  0.0830 -0.0441 -0.3268
 8738TIP3    H126178   0.303  -0.009   3.638  0.5385  0.4410 -0.5737
 8738TIP3    H226179   0.270   0.128   3.584 -0.7713 -0.6648 -2.7362
 8739TIP3   OH226180   3.077   3.663   5.443  0.1710  0.4240  0.3754
 8739TIP3    H126181   3.013   3.606   5.486  0.5794 -0.2860  0.0508
 8739TIP3    H226182   3.162   3.632   5.474  0.4092  0.6827 -0.0139
 8740TIP3   OH226183   2.350   5.407   4.879  0.1925  0.6220 -0.3587
 8740TIP3    H126184   2.260   5.374   4.876 -0.0141  0.5230  2.9074
 8740TIP3    H226185   2.402   5.331   4.904  1.4933  0.3852 -3.3688
 8741TIP3   OH226186   4.121   4.800   2.795  0.3878 -0.2162 -0.1307
 8741TIP3    H126187   4.107   4.891   2.820  0.1424 -0.0044 -1.0066
 8741TIP3    H226188   4.046   4.779   2.739 -0.6893 -1.6002  1.7346
 8742TIP3   OH226189   3.065   1.768   5.602  0.3800  0.0939  0.3383
 8742TIP3    H126190   3.134   1.707   5.626  0.4954  0.2571  0.4208
 8742TIP3    H226191   3.088   1.849   5.647  1.4623  0.9013 -1.5374
 8743TIP3   OH226192   7.175   0.302   0.147 -0.8913 -0.4676 -0.0270
 8743TIP3    H126193   7.113   0.273   0.214  1.4469 -0.4897  2.2635
 8743TIP3    H226194   7.214   0.221   0.114  1.8601 -0.3917  2.6251
 8744TIP3   OH226195   2.355   5.918   2.109  0.3689  0.0721  0.2593
 8744TIP3    H126196   2.381   5.834   2.072  2.5159 -0.0077  1.7677
 8744TIP3    H226197   2.418   5.981   2.073 -0.4956  0.8297  0.0452
 8745TIP3   OH226198   1.583   5.698   0.449 -0.3000 -0.0754 -0.1504
 8745TIP3    H126199   1.492   5.697   0.480 -0.3597  0.3420 -0.3113
 8745TIP3    H226200   1.635   5.704   0.529 -0.4420  0.6137 -0.1086
 8746TIP3   OH226201   1.837   1.234   3.777  1.1219 -0.0365 -0.2407
 8746TIP3    H126202   1.803   1.169   3.714 -0.3329  1.3492 -0.9410
 8746TIP3    H226203   1.790   1.215   3.858  1.3486 -0.3932 -0.1868
 8747TIP3   OH226204   2.842   2.005   5.201 -0.0249  1.0118  0.2678
 8747TIP3    H126205   2.892   1.950   5.140  1.5160  3.0145 -0.3627
 8747TIP3    H226206   2.869   1.975   5.287 -0.8521 -0.6248  0.0063
 8748TIP3   OH226207   4.034   4.230   2.497 -0.3790  0.1022  0.8483
 8748TIP3    H126208   3.991   4.311   2.469  0.3969  0.2242 -0.0699
 8748TIP3    H226209   4.114   4.260   2.540 -1.0296 -0.1310  2.2680
 8749TIP3   OH226210   1.920   1.821   5.243 -0.3276 -0.3921 -0.5017
 8749TIP3    H126211   2.014   1.836   5.240 -0.4395  0.4625 -0.1646
 8749TIP3    H226212   1.910   1.728   5.263  0.4429 -0.3300  0.1920
 8750TIP3   OH226213   3.047   0.694   1.193 -0.0703 -0.0797  0.1231
 8750TIP3    H126214   3.051   0.790   1.194 -1.6346  0.0535 -1.6581
 8750TIP3    H226215   3.131   0.667   1.156  0.8941  0.4958  1.7638
 8751TIP3   OH226216   1.065   0.240   1.221 -0.1116  0.0495 -0.3219
 8751TIP3    H126217   1.055   0.146   1.235 -0.0683 -0.0631 -1.0270
 8751TIP3    H226218   1.052   0.279   1.308  0.9716 -0.6882  0.1834
 8752TIP3   OH226219   3.558   2.812   4.241  0.5797 -0.0525 -0.0488
 8752TIP3    H126220   3.643   2.789   4.278  0.2935 -2.0340 -0.5169
 8752TIP3    H226221   3.499   2.815   4.317  0.9639  0.9616  0.2303
 8753TIP3   OH226222   2.213   0.830   2.920  0.0060 -0.2115  0.2788
 8753TIP3    H126223   2.223   0.893   2.991  0.4369  0.9519 -0.7725
 8753TIP3    H226224   2.296   0.835   2.872 -0.0089 -1.4836  0.0982
 8754TIP3   OH226225   4.144   5.522   4.592  0.2810  0.4343 -0.1915
 8754TIP3    H126226   4.091   5.453   4.632 -0.8697 -0.2687 -2.7230
 8754TIP3    H226227   4.083   5.594   4.577  0.4017  0.2703 -1.6033
 8755TIP3   OH226228   2.302   5.823   5.418  0.6335 -0.6407  0.3076
 8755TIP3    H126229   2.320   5.916   5.431  1.8534 -0.8130 -0.0820
 8755TIP3    H226230   2.365   5.794   5.352  0.9208 -1.9734  1.1233
 8756TIP3   OH226231   1.861   1.720   3.626  0.2178 -0.0120  0.1715
 8756TIP3    H126232   1.919   1.643   3.622 -0.0263 -0.2495  1.0851
 8756TIP3    H226233   1.776   1.684   3.650  0.3424  0.6529  1.6917
 8757TIP3   OH226234   5.340   1.671   3.283  0.3322 -0.4397 -0.1065
 8757TIP3    H126235   5.372   1.679   3.194  2.0802 -0.3461  0.4989
 8757TIP3    H226236   5.405   1.617   3.328  0.0313  0.3604  1.3748
 8758TIP3   OH226237   6.664   2.445   0.525 -0.1187  0.2165  0.1860
 8758TIP3    H126238   6.639   2.480   0.610 -1.3607  0.1955 -0.1391
 8758TIP3    H226239   6.709   2.363   0.544  0.5320  0.7224  0.8553
 8759TIP3   OH226240   4.748   0.246   1.292 -0.1458 -0.2077  0.0996
 8759TIP3    H126241   4.689   0.251   1.218 -0.1296  1.6533  0.1786
 8759TIP3    H226242   4.698   0.200   1.360 -1.2515  0.7203 -0.0660
 8760TIP3   OH226243   4.011   0.875   1.706 -0.1079 -0.3614  0.1533
 8760TIP3    H126244   3.963   0.826   1.772 -0.0524  1.0383  1.2829
 8760TIP3    H226245   3.974   0.963   1.710  0.8307  0.0955 -0.7363
 8761TIP3   OH226246   0.252   3.362   5.223 -0.3948  0.0173 -0.1920
 8761TIP3    H126247   0.165   3.344   5.189 -0.0199  0.8929 -1.6958
 8761TIP3    H226248   0.287   3.432   5.167  1.2076 -0.1729  0.4860
 8762TIP3   OH226249   3.197   3.027   1.436 -0.5460  0.6784 -0.3886
 8762TIP3    H126250   3.104   3.012   1.454 -0.7188  0.3668 -1.4653
 8762TIP3    H226251   3.206   3.122   1.433 -0.1064  0.9059  3.1621
 8763TIP3   OH226252   1.961   5.002   4.671 -0.2264  0.1689  0.0969
 8763TIP3    H126253   2.023   4.975   4.738 -0.6354  0.0083  0.4165
 8763TIP3    H226254   2.015   5.022   4.594  0.0966 -1.9710 -0.3004
 8764TIP3   OH226255   1.953   0.734   1.778 -0.3139 -0.0023  0.7926
 8764TIP3    H126256   1.880   0.768   1.726  0.5692  1.0372  0.1843
 8764TIP3    H226257   1.959   0.794   1.852 -0.1894 -0.1873  0.9315
 8765TIP3   OH226258   0.864   1.855   5.299  0.2047 -0.5188 -0.0978
 8765TIP3    H126259   0.824   1.770   5.281 -0.4613 -1.1359  3.4178
 8765TIP3    H226260   0.922   1.838   5.374 -1.4090  2.3590  2.0263
 8766TIP3   OH226261   4.873   6.727   4.795  0.3243  0.4486  0.1204
 8766TIP3    H126262   4.885   6.735   4.701 -0.5056  0.5858  0.0209
 8766TIP3    H226263   4.800   6.666   4.805  1.1231 -0.4424  0.7027
 8767TIP3   OH226264   2.215   0.546   4.360 -0.2500 -0.5760 -0.0059
 8767TIP3    H126265   2.136   0.495   4.340  0.6201 -1.9400 -0.1157
 8767TIP3    H226266   2.217   0.551   4.455  0.1388 -1.5612  0.0458
 8768TIP3   OH226267   5.386   1.949   4.944  0.4531 -0.0415 -0.3778
 8768TIP3    H126268   5.332   1.904   4.878 -0.3787  0.4727 -0.0586
 8768TIP3    H226269   5.473   1.950   4.906 -0.2652  1.4586 -2.1194
 8769TIP3   OH226270   1.502   2.633   5.915 -0.4790 -0.0086 -0.1589
 8769TIP3    H126271   1.592   2.641   5.885 -0.0708  1.2945  1.2754
 8769TIP3    H226272   1.453   2.694   5.860 -0.1126  0.7505  0.3321
 8770TIP3   OH226273   1.319   0.637   2.492  0.1595  0.0335  0.2855
 8770TIP3    H126274   1.241   0.621   2.544  1.3391 -0.9216  1.8652
 8770TIP3    H226275   1.295   0.611   2.403 -1.5668  0.6248  0.5464
 8771TIP3   OH226276   0.668   3.908   4.340 -0.4169  0.4774 -0.2642
 8771TIP3    H126277   0.574   3.914   4.354 -0.3753  1.5828 -0.3719
 8771TIP3    H226278   0.706   3.943   4.421 -0.0948  0.4032 -0.3831
 8772TIP3   OH226279   1.465   3.093   1.291  0.2240 -0.7487 -0.3800
 8772TIP3    H126280   1.486   3.140   1.210 -1.3312  0.3998 -0.1652
 8772TIP3    H226281   1.454   3.002   1.264 -0.8587 -0.2840 -1.5870
 8773TIP3   OH226282   1.576   3.983   1.189 -0.0226 -0.3513 -0.0722
 8773TIP3    H126283   1.600   4.052   1.250 -0.4668 -0.4858  0.2640
 8773TIP3    H226284   1.647   3.981   1.124 -0.6203  1.2616 -0.8218
 8774TIP3   OH226285   0.834   4.288   1.849  0.5402  0.7814  0.4565
 8774TIP3    H126286   0.855   4.365   1.902 -1.3270  1.4778  0.2602
 8774TIP3    H226287   0.745   4.304   1.817  1.1665 -0.1522 -1.9715
 8775TIP3   OH226288   7.180   6.476   2.575  0.2607  0.8736  0.5055
 8775TIP3    H126289   7.154   6.531   2.501  1.5354 -0.0426 -0.6763
 8775TIP3    H226290   7.151   6.388   2.551 -0.1405  0.7115  1.5425
 8776TIP3   OH226291   1.431   5.859   2.703 -0.4598  0.4363 -0.0861
 8776TIP3    H126292   1.445   5.790   2.768 -0.3971  0.1728 -0.3691
 8776TIP3    H226293   1.509   5.855   2.648  0.1845  1.6656  0.7073
 8777TIP3   OH226294   0.719   5.759   3.839 -0.5689  0.1289  0.0529
 8777TIP3    H126295   0.792   5.701   3.820 -0.6127 -0.8100  2.3742
 8777TIP3    H226296   0.641   5.706   3.822 -0.6141 -0.3599  1.6091
 8778TIP3   OH226297   2.090   5.350   4.846  0.2733  0.6642  0.0770
 8778TIP3    H126298   2.036   5.275   4.818 -0.5552  1.7589 -1.4304
 8778TIP3    H226299   2.042   5.387   4.920 -0.9387  1.4046 -1.0150
 8779TIP3   OH226300   6.062   6.625   4.556 -0.2388 -0.6304 -0.2365
 8779TIP3    H126301   6.146   6.613   4.512 -0.8716 -3.1327 -0.9012
 8779TIP3    H226302   6.081   6.609   4.648  0.2209  0.1113 -0.1889
 8780TIP3   OH226303   1.846   2.584   0.090 -0.0438 -0.0041  0.6037
 8780TIP3    H126304   1.840   2.502   0.041  2.1119  0.8220 -1.2180
 8780TIP3    H226305   1.896   2.562   0.169  1.3440 -0.3395 -0.3262
 8781TIP3   OH226306   3.084   3.380   2.388  0.4816  0.1006  0.2088
 8781TIP3    H126307   3.135   3.403   2.465  0.1088 -0.3149  0.5840
 8781TIP3    H226308   3.146   3.386   2.315  0.9716 -0.0530  0.6109
 8782TIP3   OH226309   7.122   0.992   1.444  0.4520 -0.7482 -0.2268
 8782TIP3    H126310   7.043   0.943   1.467  0.4381 -1.9205 -2.4526
 8782TIP3    H226311   7.185   0.924   1.418  2.3871  0.1306  1.8933
 8783TIP3   OH226312   6.427   6.343   2.125 -0.1667  0.4459  0.2427
 8783TIP3    H126313   6.478   6.324   2.046 -0.0265  0.3790  0.3487
 8783TIP3    H226314   6.342   6.373   2.092 -0.5986 -0.9020  0.0598
 8784TIP3   OH226315   5.064   5.293   4.257 -0.4704  0.6985  0.2597
 8784TIP3    H126316   5.048   5.387   4.267 -1.4880  0.8194 -1.9611
 8784TIP3    H226317   5.070   5.280   4.162  0.9509 -1.2903  0.5777
 8785TIP3   OH226318   3.495   4.812   3.114  0.3982 -0.6107 -0.2674
 8785TIP3    H126319   3.477   4.797   3.021  0.8856  1.9016 -0.8440
 8785TIP3    H226320   3.589   4.825   3.118  0.2011  0.8444  0.2850
 8786TIP3   OH226321   3.352   5.130   0.592 -0.5667 -0.4635  0.1020
 8786TIP3    H126322   3.412   5.175   0.532  0.1945 -0.0132  1.1715
 8786TIP3    H226323   3.315   5.059   0.540 -1.2630  0.9419 -1.4377
 8787TIP3   OH226324   7.230   2.356   0.952  0.0870 -0.6186  0.4075
 8787TIP3    H126325   7.148   2.333   0.995  1.1686 -0.9165  2.4439
 8787TIP3    H226326   7.296   2.346   1.020  1.4829  2.4049 -0.3410
 8788TIP3   OH226327   4.508   3.933   5.578 -0.0755 -0.1362  0.1395
 8788TIP3    H126328   4.593   3.917   5.619  0.2600 -0.2682 -0.5906
 8788TIP3    H226329   4.520   4.014   5.528 -0.3167 -0.2602 -0.1235
 8789TIP3   OH226330   3.300   4.553   5.103  0.0563 -0.3420 -0.1227
 8789TIP3    H126331   3.207   4.573   5.116 -0.1985 -1.2851 -0.4047
 8789TIP3    H226332   3.346   4.608   5.166 -0.6629  0.4858 -0.3171
 8790TIP3   OH226333   5.891   3.139   2.521 -0.9330  0.2813  0.1656
 8790TIP3    H126334   5.919   3.066   2.576 -0.4741  1.5097  1.6270
 8790TIP3    H226335   5.901   3.106   2.431  0.0479 -1.1573  0.7651
 8791TIP3   OH226336   5.613   2.457   3.193 -0.7441  0.1387 -0.4743
 8791TIP3    H126337   5.697   2.459   3.238 -0.4376 -0.3884 -1.0240
 8791TIP3    H226338   5.621   2.387   3.128 -1.2225  0.8156 -1.2846
 8792TIP3   OH226339   2.819   5.379   1.978 -0.4305 -0.0692 -0.6160
 8792TIP3    H126340   2.755   5.348   2.042  0.2086  0.1049  0.1153
 8792TIP3    H226341   2.806   5.321   1.902 -0.4478 -0.9990  0.0735
 8793TIP3   OH226342   5.452   2.313   2.695  0.3060 -0.1182 -0.0068
 8793TIP3    H126343   5.442   2.377   2.765  1.3233  0.7020 -0.5881
 8793TIP3    H226344   5.419   2.358   2.617 -2.0464 -1.4718  0.1130
 8794TIP3   OH226345   2.009   2.365   3.765 -0.6087  0.3539 -0.6110
 8794TIP3    H126346   2.008   2.441   3.707 -0.2129  0.1199 -0.9365
 8794TIP3    H226347   2.036   2.399   3.850 -0.9223  0.6584 -0.6367
 8795TIP3   OH226348   5.910   1.535   5.878  1.2167 -0.3039 -0.1006
 8795TIP3    H126349   5.838   1.570   5.932  2.9510 -0.3727  2.4635
 8795TIP3    H226350   5.905   1.584   5.796 -1.0989  0.4140  0.3961
 8796TIP3   OH226351   4.736   2.327   0.674  0.3108  0.3229 -0.3601
 8796TIP3    H126352   4.792   2.375   0.735  0.5529 -1.7959  1.2068
 8796TIP3    H226353   4.666   2.291   0.728 -0.7631  0.2397 -1.7471
 8797TIP3   OH226354   0.670   3.325   4.532 -0.2312  0.1212 -0.0324
 8797TIP3    H126355   0.577   3.321   4.554 -0.4368 -0.1091 -0.9066
 8797TIP3    H226356   0.708   3.246   4.570 -0.2459  0.5590  0.9304
 8798TIP3   OH226357   6.736   6.174   5.826 -0.3256  0.7286  0.3460
 8798TIP3    H126358   6.686   6.243   5.869 -1.0811  0.2086  0.3306
 8798TIP3    H226359   6.676   6.100   5.822  0.1242  0.3870 -0.5324
 8799TIP3   OH226360   3.278   0.361   2.969 -0.2356  0.2316  0.3045
 8799TIP3    H126361   3.289   0.447   3.008  0.8160  0.2302  0.0446
 8799TIP3    H226362   3.246   0.306   3.041 -0.0955  0.6451  0.6879
 8800TIP3   OH226363   3.273   6.455   3.319 -0.4123 -0.3257 -0.4530
 8800TIP3    H126364   3.269   6.459   3.223  0.2637 -1.5674 -0.5576
 8800TIP3    H226365   3.362   6.483   3.340  0.6952 -3.3900 -0.4952
 8801TIP3   OH226366   6.309   2.827   5.505  0.0806 -0.1102 -0.1572
 8801TIP3    H126367   6.339   2.918   5.511 -0.3186 -0.0471  1.2887
 8801TIP3    H226368   6.332   2.800   5.416  0.1911  1.4030 -0.6165
 8802TIP3   OH226369   5.043   3.547   0.641 -0.3037 -1.2406  0.0803
 8802TIP3    H126370   5.059   3.618   0.578 -0.3369 -0.9569  0.3883
 8802TIP3    H226371   4.964   3.574   0.688 -2.0784 -2.8812 -1.7675
 8803TIP3   OH226372   2.122   6.685   1.357 -0.2213 -0.2582  0.4408
 8803TIP3    H126373   2.130   6.655   1.447  0.1256 -0.1972  0.4306
 8803TIP3    H226374   2.045   6.742   1.358 -0.2828 -0.3453  0.6753
 8804TIP3   OH226375   0.645   2.220   3.263  0.2061  0.0011  0.2762
 8804TIP3    H126376   0.624   2.307   3.228  2.5286  0.6943  0.3986
 8804TIP3    H226377   0.652   2.164   3.187  0.9113  0.4778 -0.0243
 8805TIP3   OH226378   2.824   6.096   2.760  0.3722 -0.1296  0.3440
 8805TIP3    H126379   2.805   6.110   2.667 -0.9719  0.8929  0.7365
 8805TIP3    H226380   2.882   6.021   2.761  2.6488  1.4505 -1.5211
 8806TIP3   OH226381   7.190   0.900   0.208 -0.4538 -0.2519  0.2498
 8806TIP3    H126382   7.097   0.918   0.209 -0.4008  0.0836 -0.5426
 8806TIP3    H226383   7.218   0.919   0.119  0.1586 -1.4339  0.1615
 8807TIP3   OH226384   4.768   4.548   1.500  0.2554 -0.1346  0.4659
 8807TIP3    H126385   4.766   4.510   1.588 -0.1029  1.0691  0.9928
 8807TIP3    H226386   4.762   4.473   1.441  1.0862 -1.0081  1.4525
 8808TIP3   OH226387   3.916   0.542   3.949  0.2126  0.6775  0.2200
 8808TIP3    H126388   3.897   0.586   3.866 -0.4918 -0.7839 -0.4195
 8808TIP3    H226389   3.836   0.553   4.001 -0.2702 -0.4747 -0.2438
 8809TIP3   OH226390   2.538   5.291   0.433 -0.4113  0.1367 -0.0529
 8809TIP3    H126391   2.474   5.355   0.464 -0.5395  0.0007 -0.0356
 8809TIP3    H226392   2.509   5.208   0.470  0.1305  0.1764  0.4574
 8810TIP3   OH226393   4.064   6.659   1.187  0.4253  0.2768  0.4759
 8810TIP3    H126394   4.061   6.573   1.229  0.4008 -0.1050 -0.2871
 8810TIP3    H226395   4.156   6.672   1.164  0.2049 -0.2558 -0.8084
 8811TIP3   OH226396   0.596   0.853   4.987  0.0606 -0.0707  0.0841
 8811TIP3    H126397   0.680   0.806   4.984 -0.8281 -1.6800 -0.9737
 8811TIP3    H226398   0.541   0.808   4.923 -1.5070  1.1987  0.4759
 8812TIP3   OH226399   3.273   2.214   0.569  0.2576 -0.0798 -0.2490
 8812TIP3    H126400   3.195   2.267   0.560 -0.1024 -0.6162 -0.3466
 8812TIP3    H226401   3.241   2.124   0.576  0.7912 -0.1931  1.0546
 8813TIP3   OH226402   6.013   2.971   3.717  0.3532 -0.4359 -0.3645
 8813TIP3    H126403   6.028   2.996   3.808  1.0175  1.3712 -0.9277
 8813TIP3    H226404   5.993   2.877   3.721 -0.5783 -0.2177  1.7247
 8814TIP3   OH226405   3.019   1.306   2.038 -0.2697  0.0302 -0.2703
 8814TIP3    H126406   2.995   1.267   2.122 -0.5600 -0.1168 -0.4158
 8814TIP3    H226407   2.966   1.386   2.033  0.4564  0.5469  0.1056
 8815TIP3   OH226408   2.266   4.403   5.337  0.6636  0.2265  0.5822
 8815TIP3    H126409   2.216   4.369   5.411  1.6170  0.1407  1.1992
 8815TIP3    H226410   2.309   4.326   5.300  1.8770  0.5538  1.2513
 8816TIP3   OH226411   3.540   3.176   4.784  0.0269 -0.2946  0.2545
 8816TIP3    H126412   3.567   3.118   4.712 -0.3706  0.8238 -0.8443
 8816TIP3    H226413   3.576   3.136   4.862 -1.4205 -2.8111 -0.2494
 8817TIP3   OH226414   5.994   3.493   4.109  0.5927 -0.0581 -0.7327
 8817TIP3    H126415   6.009   3.513   4.016 -0.7014  0.1010 -0.9191
 8817TIP3    H226416   5.933   3.419   4.108 -1.5008  1.5910 -0.0258
 8818TIP3   OH226417   1.074   5.105   1.999 -0.2237 -0.4929  0.1291
 8818TIP3    H126418   1.122   5.091   2.081 -0.5887  2.4281  0.9609
 8818TIP3    H226419   0.988   5.065   2.015 -0.1781 -0.2428  1.0769
 8819TIP3   OH226420   2.758   3.928   0.965  0.3440 -0.2493  0.8711
 8819TIP3    H126421   2.817   3.985   1.014  0.1699 -0.6399  1.5452
 8819TIP3    H226422   2.807   3.906   0.886  0.4384  0.7773  0.6207
 8820TIP3   OH226423   7.139   6.234   2.382  0.4765 -0.0388  0.3951
 8820TIP3    H126424   7.217   6.195   2.420  0.1119 -1.5756 -0.3868
 8820TIP3    H226425   7.172   6.301   2.323  1.2601 -1.2232 -0.5483
 8821TIP3   OH226426   2.265   6.115   4.509 -0.5865  0.0264  0.5809
 8821TIP3    H126427   2.307   6.166   4.439  0.7943  0.4640  1.6919
 8821TIP3    H226428   2.315   6.033   4.512  1.4674  1.2328  3.0636
 8822TIP3   OH226429   4.941   1.881   0.663 -0.1172  0.4154  0.1904
 8822TIP3    H126430   4.866   1.833   0.627 -2.0021  2.3782  1.2371
 8822TIP3    H226431   4.912   1.972   0.665  3.0381  1.6028 -1.1058
 8823TIP3   OH226432   0.358   6.104   1.449 -0.3828  0.0675 -0.2649
 8823TIP3    H126433   0.452   6.091   1.446 -0.5321 -1.1184 -0.1379
 8823TIP3    H226434   0.327   6.043   1.515 -1.2947  0.0932 -0.6486
 8824TIP3   OH226435   1.655   4.822   0.004  0.0894 -0.1584  0.0580
 8824TIP3    H126436   1.685   4.802   0.093  1.8056  1.6176 -0.0487
 8824TIP3    H226437   1.562   4.840   0.014 -0.1113 -1.6135  1.1956
 8825TIP3   OH226438   3.044   5.255   5.890 -0.2655  0.1180 -0.1898
 8825TIP3    H126439   3.134   5.226   5.904  0.0178  1.7064  1.5795
 8825TIP3    H226440   3.053   5.335   5.839 -0.6888  0.2836 -0.0021
 8826TIP3   OH226441   3.723   1.075   5.647  0.5167 -0.0746  0.0616
 8826TIP3    H126442   3.755   1.028   5.570  0.5794 -0.2572  0.2000
 8826TIP3    H226443   3.655   1.134   5.612 -0.7280 -1.4340  0.1081
 8827TIP3   OH226444   3.365   1.995   0.084 -0.0749 -0.2124 -0.0650
 8827TIP3    H126445   3.452   2.031   0.100 -0.8709  2.1996 -0.7844
 8827TIP3    H226446   3.311   2.029   0.156 -0.4732 -1.7054  0.3915
 8828TIP3   OH226447   4.752   4.234   5.309 -0.2774  0.0970  0.2229
 8828TIP3    H126448   4.775   4.260   5.398  0.4381 -0.2329  0.1430
 8828TIP3    H226449   4.835   4.204   5.271 -0.3842  1.0951 -0.8527
 8829TIP3   OH226450   1.211   4.459   3.405 -0.2189  0.0145 -0.3806
 8829TIP3    H126451   1.232   4.483   3.495  0.5931  0.1850 -0.5990
 8829TIP3    H226452   1.120   4.485   3.393 -0.5978 -0.8250  0.6556
 8830TIP3   OH226453   6.806   6.285   0.879 -0.6529 -1.1151 -0.1415
 8830TIP3    H126454   6.782   6.193   0.885 -2.7037 -0.7112 -1.3165
 8830TIP3    H226455   6.727   6.329   0.847  0.7810  0.8031 -1.2690
 8831TIP3   OH226456   0.143   6.498   4.334 -0.4269 -0.3430 -0.5129
 8831TIP3    H126457   0.198   6.508   4.257  0.4720  1.0920  0.2739
 8831TIP3    H226458   0.127   6.587   4.365 -2.0691 -0.7985  0.0855
 8832TIP3   OH226459   4.785   2.237   4.357  0.1438  0.6152 -0.1690
 8832TIP3    H126460   4.862   2.291   4.374  0.9381 -0.9169  1.4469
 8832TIP3    H226461   4.750   2.217   4.444  0.7315 -2.5587 -0.5348
 8833TIP3   OH226462   3.610   4.150   2.464  0.6222 -0.3605 -0.0231
 8833TIP3    H126463   3.600   4.234   2.419  0.4809 -0.2558  0.2018
 8833TIP3    H226464   3.522   4.113   2.466  0.4456  0.0841  1.0306
 8834TIP3   OH226465   0.405   3.381   4.245  0.5140  0.5770  0.5692
 8834TIP3    H126466   0.462   3.315   4.285 -0.0122 -0.1377  0.1701
 8834TIP3    H226467   0.388   3.444   4.314  0.0492 -0.3518  1.3199
 8835TIP3   OH226468   1.889   0.606   2.602  0.0831 -0.1690 -0.1330
 8835TIP3    H126469   1.926   0.676   2.547  0.0161 -0.4870 -0.5862
 8835TIP3    H226470   1.925   0.623   2.689  1.5411 -0.6234 -0.6125
 8836TIP3   OH226471   0.908   0.317   5.290 -0.5370 -0.4051  0.9133
 8836TIP3    H126472   0.967   0.383   5.326  0.3173 -0.2496 -0.7168
 8836TIP3    H226473   0.926   0.239   5.342 -0.3191  0.1681  1.7208
 8837TIP3   OH226474   6.015   2.824   1.276 -0.8273  0.0335 -0.3619
 8837TIP3    H126475   6.083   2.852   1.338 -1.3263 -0.5029  0.4501
 8837TIP3    H226476   5.941   2.801   1.332 -0.8553 -1.7215 -1.0681
 8838TIP3   OH226477   0.233   6.728   0.961  0.1218 -0.1777  0.0802
 8838TIP3    H126478   0.151   6.682   0.943  0.2618  0.0821 -1.2661
 8838TIP3    H226479   0.294   6.696   0.895  1.5410 -1.3762  1.8574
 8839TIP3   OH226480   0.822   1.440   4.522  0.3814 -0.4481 -0.1082
 8839TIP3    H126481   0.883   1.372   4.550 -0.7293 -1.6412 -0.4915
 8839TIP3    H226482   0.796   1.484   4.603  0.8421 -0.6977  0.1804
 8840TIP3   OH226483   6.994   3.411   3.180  0.6665 -0.1872 -0.4200
 8840TIP3    H126484   6.899   3.423   3.180  0.7244  0.3850  0.4100
 8840TIP3    H226485   7.028   3.486   3.131  0.7452  0.3563  0.4278
 8841TIP3   OH226486   0.443   2.444   5.465 -0.4174  0.8829  0.5598
 8841TIP3    H126487   0.520   2.420   5.413 -0.8219  1.3982 -0.3001
 8841TIP3    H226488   0.470   2.522   5.514 -0.8884  2.1126 -1.0415
 8842TIP3   OH226489   4.187   3.076   3.873 -0.1020  0.8985 -0.2051
 8842TIP3    H126490   4.226   2.997   3.838 -0.6020  0.1491  0.8658
 8842TIP3    H226491   4.114   3.095   3.815 -1.3844 -0.7506  0.7756
 8843TIP3   OH226492   0.400   5.675   3.424  0.0447 -0.1471  0.3376
 8843TIP3    H126493   0.401   5.597   3.370 -0.2477 -0.8153  1.2714
 8843TIP3    H226494   0.479   5.722   3.400  0.7990 -1.2767  0.5234
 8844TIP3   OH226495   5.824   4.402   3.368  1.0278 -0.4734  0.2940
 8844TIP3    H126496   5.798   4.310   3.370 -0.2043 -0.1415  0.3374
 8844TIP3    H226497   5.903   4.406   3.421  1.9325 -1.7535 -0.8926
 8845TIP3   OH226498   3.928   6.672   3.996 -0.1305 -0.0151  0.3088
 8845TIP3    H126499   3.933   6.678   3.901  0.4008 -1.0456  0.2601
 8845TIP3    H226500   4.010   6.630   4.022 -0.6250 -0.4965  1.1427
 8846TIP3   OH226501   6.101   1.401   0.321 -0.3487  0.1958  0.0371
 8846TIP3    H126502   6.125   1.436   0.407 -0.6564 -0.4453  0.3862
 8846TIP3    H226503   6.023   1.451   0.296  0.5368  1.3604 -0.5103
 8847TIP3   OH226504   4.345   5.969   0.600  0.2725  0.2259  0.5876
 8847TIP3    H126505   4.398   6.030   0.652 -0.0402  0.8370  0.1962
 8847TIP3    H226506   4.295   6.025   0.541 -1.5189 -0.2673  1.5745
 8848TIP3   OH226507   7.139   1.089   0.705 -0.5892 -0.0141 -0.7189
 8848TIP3    H126508   7.139   1.145   0.783  0.8409 -0.7586 -0.1462
 8848TIP3    H226509   7.106   1.004   0.736 -0.2885 -0.2315 -0.9859
 8849TIP3   OH226510   3.099   2.536   1.068  0.3029 -0.1687  0.1000
 8849TIP3    H126511   3.172   2.491   1.110  0.1198  0.4115  1.0786
 8849TIP3    H226512   3.021   2.503   1.113  0.1235  0.6637  0.4200
 8850TIP3   OH226513   6.387   2.886   1.908 -0.2859  0.2419  0.2973
 8850TIP3    H126514   6.460   2.870   1.848 -0.2978 -0.8743  0.5571
 8850TIP3    H226515   6.358   2.975   1.887 -1.3261 -0.6252 -2.4862
 8851TIP3   OH226516   4.030   5.153   3.402 -0.0470  0.6868 -0.8165
 8851TIP3    H126517   3.946   5.200   3.407 -0.5683 -0.3106  0.2589
 8851TIP3    H226518   4.005   5.060   3.402  1.0363  0.3896 -1.0942
 8852TIP3   OH226519   5.268   6.784   0.819  0.4279 -0.1600  0.3837
 8852TIP3    H126520   5.269   6.702   0.868  0.4995 -0.6863 -0.4697
 8852TIP3    H226521   5.216   6.764   0.741  2.6586 -0.2243 -1.1963
 8853TIP3   OH226522   1.554   2.581   3.630 -0.5280  0.0958 -0.3967
 8853TIP3    H126523   1.595   2.667   3.623 -0.9452  0.3109 -0.2657
 8853TIP3    H226524   1.593   2.529   3.560 -2.5707  1.3286 -2.6022
 8854TIP3   OH226525   0.895   3.395   5.768  0.1539  0.0478  0.0185
 8854TIP3    H126526   0.912   3.480   5.729 -0.3459 -0.3224 -1.0272
 8854TIP3    H226527   0.822   3.359   5.718 -0.2099 -0.6396  0.9982
 8855TIP3   OH226528   2.850   0.232   4.176  0.3108 -0.3372 -0.1502
 8855TIP3    H126529   2.827   0.297   4.111  1.2192  1.2633  1.0514
 8855TIP3    H226530   2.937   0.201   4.150  0.7151  0.3714  0.2933
 8856TIP3   OH226531   3.719   2.172   1.800  0.1589  0.4771  0.4172
 8856TIP3    H126532   3.712   2.234   1.727 -1.7095  1.3213  1.2319
 8856TIP3    H226533   3.684   2.090   1.764 -0.5212  0.8193  0.2746
 8857TIP3   OH226534   4.835   6.508   5.865  0.8023  0.0535  0.0376
 8857TIP3    H126535   4.847   6.413   5.860  1.3190  0.0865  0.5742
 8857TIP3    H226536   4.838   6.527   5.958  0.2872  0.5525 -0.0452
 8858TIP3   OH226537   1.304   6.509   3.470  0.2063 -0.5753  0.1793
 8858TIP3    H126538   1.342   6.432   3.513 -0.7831 -0.9414  0.4313
 8858TIP3    H226539   1.216   6.516   3.508  0.5327  1.1142  0.7081
 8859TIP3   OH226540   6.277   2.571   5.575  0.7413 -0.6369  0.3514
 8859TIP3    H126541   6.279   2.663   5.549  0.7029 -0.5557  0.6317
 8859TIP3    H226542   6.185   2.554   5.597  0.9428 -0.4235  1.4215
 8860TIP3   OH226543   0.305   2.264   1.495  0.0084  0.4968 -0.3364
 8860TIP3    H126544   0.214   2.292   1.494  0.0012  0.4695 -0.8839
 8860TIP3    H226545   0.328   2.257   1.588 -0.8949 -0.6428 -0.1878
 8861TIP3   OH226546   6.960   6.237   4.805 -0.6953 -0.1378  0.6884
 8861TIP3    H126547   6.969   6.247   4.900 -3.1238  1.0698  0.8949
 8861TIP3    H226548   6.983   6.323   4.770 -0.3855 -0.4010  0.2454
 8862TIP3   OH226549   6.098   4.408   3.449 -0.2438 -0.3897  0.6927
 8862TIP3    H126550   6.136   4.327   3.484 -1.5771 -0.7133  1.4698
 8862TIP3    H226551   6.114   4.474   3.516 -0.1321 -0.2764  0.5549
 8863TIP3   OH226552   0.870   3.891   3.309 -0.4096  0.2721  1.0776
 8863TIP3    H126553   0.779   3.911   3.284 -0.6643 -1.1291  0.7918
 8863TIP3    H226554   0.874   3.795   3.309  1.0070  0.3139  1.3514
 8864TIP3   OH226555   7.020   2.988   2.326 -0.1103 -0.1433  0.5738
 8864TIP3    H126556   7.048   3.078   2.307  1.1054 -0.5200  0.5346
 8864TIP3    H226557   7.095   2.948   2.368 -0.6550 -1.1525  0.6048
 8865TIP3   OH226558   4.310   0.697   5.648 -0.7834  0.1878 -0.1728
 8865TIP3    H126559   4.326   0.605   5.666  0.8910  0.6492  0.9129
 8865TIP3    H226560   4.275   0.732   5.731  1.7366  1.1685  0.5756
 8866TIP3   OH226561   0.898   1.915   0.637  0.0964 -0.0747  0.1816
 8866TIP3    H126562   0.881   1.822   0.656  1.4937 -0.5097 -0.5167
 8866TIP3    H226563   0.989   1.928   0.661 -0.1710  1.2246  0.5619
 8867TIP3   OH226564   4.738   6.590   1.591 -0.0291  0.2511  0.0759
 8867TIP3    H126565   4.668   6.538   1.551 -0.0903  1.6111 -1.7304
 8867TIP3    H226566   4.798   6.608   1.519  0.3241  2.0688  0.7728
 8868TIP3   OH226567   5.443   1.255   5.312  0.0741  0.1338 -0.1105
 8868TIP3    H126568   5.374   1.276   5.376  0.0067  0.4368 -0.2842
 8868TIP3    H226569   5.396   1.233   5.232  0.1266 -1.0382  0.1622
 8869TIP3   OH226570   1.187   6.670   5.112 -0.1719 -0.0242  0.4077
 8869TIP3    H126571   1.268   6.664   5.062 -0.6153 -1.6084 -0.1778
 8869TIP3    H226572   1.120   6.695   5.048 -0.6549 -1.5906  0.2638
 8870TIP3   OH226573   1.509   6.650   1.242 -0.0312 -0.6337 -0.1275
 8870TIP3    H126574   1.527   6.717   1.175  0.5380 -1.6252 -1.0046
 8870TIP3    H226575   1.444   6.690   1.299  0.0396  0.5363 -0.8305
 8871TIP3   OH226576   5.193   0.811   5.040 -0.4556  0.1524  0.0650
 8871TIP3    H126577   5.131   0.842   4.974  0.0053 -1.0658 -0.9816
 8871TIP3    H226578   5.158   0.727   5.068 -0.4296  0.4729  1.1016
 8872TIP3   OH226579   3.378   5.778   4.644 -0.1906  0.2932 -0.0445
 8872TIP3    H126580   3.458   5.806   4.600 -0.2583 -0.9763 -1.0338
 8872TIP3    H226581   3.345   5.706   4.591 -2.1799  0.9778  0.1513
 8873TIP3   OH226582   2.500   1.412   2.085 -0.0673  0.4200 -0.3575
 8873TIP3    H126583   2.504   1.360   2.165  1.4055 -1.2246 -1.4304
 8873TIP3    H226584   2.430   1.372   2.034  0.1944  0.2983 -0.6289
 8874TIP3   OH226585   4.932   1.864   4.970 -0.7023  0.5341  0.4988
 8874TIP3    H126586   4.972   1.796   5.025  0.5116 -0.9734 -2.0497
 8874TIP3    H226587   5.004   1.924   4.951 -0.9891  0.7773  0.1823
 8875TIP3   OH226588   3.005   2.958   4.945 -0.3207 -0.3698  0.2586
 8875TIP3    H126589   2.911   2.977   4.942  0.1088  2.4362  1.3710
 8875TIP3    H226590   3.035   2.971   4.855 -0.7670  0.1997  0.1861
 8876TIP3   OH226591   1.821   1.674   1.900  0.0440  0.0821 -0.2927
 8876TIP3    H126592   1.854   1.685   1.989 -0.4653  1.0465 -0.2097
 8876TIP3    H226593   1.770   1.593   1.903 -0.2494  0.2831  0.3799
 8877TIP3   OH226594   6.453   5.960   3.753 -0.0306  0.5605  0.1497
 8877TIP3    H126595   6.546   5.978   3.764 -0.5833  3.0350  1.7040
 8877TIP3    H226596   6.429   5.907   3.829  0.2601 -1.0033 -0.8074
 8878TIP3   OH226597   2.686   4.596   1.145 -0.4314  0.4204  0.7024
 8878TIP3    H126598   2.675   4.677   1.096 -0.7893  1.3559  2.2758
 8878TIP3    H226599   2.597   4.564   1.159 -0.2670 -1.1069 -1.1876
 8879TIP3   OH226600   2.782   5.553   4.679 -0.4367 -0.2339  0.4167
 8879TIP3    H126601   2.845   5.572   4.610 -0.4774  0.4686  0.5629
 8879TIP3    H226602   2.797   5.461   4.701  0.5519 -0.0782  0.4633
 8880TIP3   OH226603   0.641   3.315   5.350  0.0604  0.3703 -0.5626
 8880TIP3    H126604   0.605   3.393   5.307  2.5440  2.3248  0.6722
 8880TIP3    H226605   0.735   3.321   5.336  0.6525 -0.5880  2.4446
 8881TIP3   OH226606   5.870   0.523   4.127  0.2117 -0.3402 -0.0892
 8881TIP3    H126607   5.894   0.602   4.175  1.2262 -0.4969 -0.2969
 8881TIP3    H226608   5.802   0.482   4.180  1.4803 -0.6512  1.3767
 8882TIP3   OH226609   0.353   4.883   4.990 -0.2093  0.5543 -0.0196
 8882TIP3    H126610   0.369   4.882   4.896  0.1182 -0.1599  0.0340
 8882TIP3    H226611   0.265   4.918   5.000 -0.4478  0.1361 -0.6253
 8883TIP3   OH226612   5.087   2.154   3.140  0.7667 -0.6627 -0.2787
 8883TIP3    H126613   5.156   2.198   3.090  0.0200 -0.4234 -1.1019
 8883TIP3    H226614   5.103   2.182   3.230  2.3463 -1.3853 -0.2954
 8884TIP3   OH226615   0.760   1.747   5.816 -0.1680  0.2253  0.1238
 8884TIP3    H126616   0.821   1.742   5.889 -0.2809 -0.0250  0.2003
 8884TIP3    H226617   0.768   1.837   5.784  1.1472 -0.1546 -0.6616
 8885TIP3   OH226618   2.785   2.358   1.056  0.5200 -0.0655  0.2860
 8885TIP3    H126619   2.747   2.415   1.123  1.9009  0.4281  0.6972
 8885TIP3    H226620   2.815   2.281   1.104 -1.0803 -1.0622 -0.2273
 8886TIP3   OH226621   4.453   3.665   0.798  0.3094  0.5200 -0.7647
 8886TIP3    H126622   4.452   3.746   0.849 -0.9284  0.1480 -0.1598
 8886TIP3    H226623   4.473   3.597   0.862 -1.6066  0.0057 -0.6595
 8887TIP3   OH226624   1.747   3.715   3.841  0.5480  0.0588 -0.1935
 8887TIP3    H126625   1.718   3.712   3.932  0.8801  1.7694  0.0003
 8887TIP3    H226626   1.676   3.673   3.792 -1.3704  2.2999  0.4933
 8888TIP3   OH226627   7.152   4.367   1.656 -0.0485  0.6629 -0.8882
 8888TIP3    H126628   7.186   4.339   1.741 -1.4306  1.8133  0.0895
 8888TIP3    H226629   7.152   4.463   1.660 -0.4671  0.7366 -2.0579
 8889TIP3   OH226630   4.001   3.514   0.827  0.2317  0.2995  0.4637
 8889TIP3    H126631   4.039   3.542   0.744 -0.1483 -3.0304 -1.0069
 8889TIP3    H226632   4.074   3.520   0.890  0.9260  1.4999 -0.4046
 8890TIP3   OH226633   4.856   4.060   3.350 -0.3546  0.2237 -0.7315
 8890TIP3    H126634   4.870   4.019   3.435  0.1826  0.9482 -0.4638
 8890TIP3    H226635   4.861   4.154   3.367 -0.7111  0.3884 -1.4834
 8891TIP3   OH226636   1.827   0.820   1.136 -0.5779 -0.5111 -0.2279
 8891TIP3    H126637   1.822   0.824   1.041  0.8506 -0.6237 -0.3311
 8891TIP3    H226638   1.902   0.763   1.154  0.7291  1.4317  0.9175
 8892TIP3   OH226639   3.830   0.075   4.637  0.3777  0.6525 -0.4166
 8892TIP3    H126640   3.889   0.004   4.613  0.7026  0.2872  1.2968
 8892TIP3    H226641   3.742   0.040   4.619  0.6025  0.4767 -1.1917
 8893TIP3   OH226642   3.330   5.543   5.590  0.2992 -0.2918  0.3054
 8893TIP3    H126643   3.257   5.579   5.641 -0.2285 -0.0420 -0.5988
 8893TIP3    H226644   3.292   5.470   5.542  0.8808 -0.7617  0.5558
 8894TIP3   OH226645   4.439   1.755   4.547 -0.4948  0.1795  0.0607
 8894TIP3    H126646   4.426   1.814   4.473 -2.4564  0.5209  0.6160
 8894TIP3    H226647   4.408   1.804   4.623  2.1262  0.1097  1.2997
 8895TIP3   OH226648   4.835   0.777   3.274 -0.0803  0.1832  0.0057
 8895TIP3    H126649   4.780   0.712   3.230 -0.2734  0.3792 -0.0484
 8895TIP3    H226650   4.800   0.783   3.363  0.1102  0.0158  0.0934
 8896TIP3   OH226651   3.230   0.880   2.666  0.3486  0.1235  0.1004
 8896TIP3    H126652   3.151   0.847   2.622  0.8125  0.9201 -1.4288
 8896TIP3    H226653   3.244   0.819   2.738 -0.9009 -0.8233 -0.3999
 8897TIP3   OH226654   1.765   2.730   3.154 -0.0410 -0.0892  0.6245
 8897TIP3    H126655   1.687   2.693   3.196  1.1301 -0.5736  2.4752
 8897TIP3    H226656   1.838   2.695   3.204  1.3440  1.0360 -0.5346
 8898TIP3   OH226657   5.991   2.786   3.102  0.0493 -0.0151 -0.5088
 8898TIP3    H126658   5.919   2.848   3.112  0.2946  0.2241 -0.2521
 8898TIP3    H226659   5.952   2.701   3.123  0.5806  0.4390  2.8974
 8899TIP3   OH226660   4.042   1.530   1.097  0.4739 -0.2842 -0.4484
 8899TIP3    H126661   3.961   1.494   1.062 -1.4547  1.1787  2.1573
 8899TIP3    H226662   4.058   1.481   1.178  0.2910  1.5756  0.7829
 8900TIP3   OH226663   1.312   4.385   1.096 -0.4926 -0.1099 -0.0812
 8900TIP3    H126664   1.387   4.367   1.153  0.5542  0.9203 -1.0735
 8900TIP3    H226665   1.237   4.390   1.155 -0.0869 -2.6612  0.7882
 8901TIP3   OH226666   3.327   2.774   1.470  0.3812  0.4067  0.0380
 8901TIP3    H126667   3.277   2.855   1.472 -1.3521 -0.5617 -1.4811
 8901TIP3    H226668   3.273   2.712   1.421  1.7812 -1.6003  0.8496
 8902TIP3   OH226669   4.669   2.748   1.678 -0.0066 -0.2594  0.2008
 8902TIP3    H126670   4.580   2.752   1.642  0.2750 -2.2243 -0.8556
 8902TIP3    H226671   4.715   2.822   1.638 -0.7536 -0.1498 -0.4818
 8903TIP3   OH226672   0.497   5.690   5.420  0.3522  0.0677 -0.2670
 8903TIP3    H126673   0.534   5.627   5.483  2.5311 -0.0134 -1.5092
 8903TIP3    H226674   0.432   5.639   5.371 -0.2024 -0.3078  0.8276
 8904TIP3   OH226675   6.556   2.763   2.142  0.0417 -0.0960  0.4132
 8904TIP3    H126676   6.601   2.687   2.180  0.2967 -0.3690 -0.4279
 8904TIP3    H226677   6.624   2.830   2.137  0.5877 -0.7178 -1.4891
 8905TIP3   OH226678   6.442   0.813   3.328 -0.2716 -0.4920 -0.1528
 8905TIP3    H126679   6.412   0.898   3.359 -0.2521 -0.6592  0.3330
 8905TIP3    H226680   6.528   0.831   3.289  0.1793 -0.4373  0.8256
 8906TIP3   OH226681   6.757   0.483   4.046 -0.2758  0.0061  0.3895
 8906TIP3    H126682   6.766   0.473   4.141  1.5342  2.8373  0.6363
 8906TIP3    H226683   6.727   0.398   4.016  0.2354 -1.3618  3.3673
 8907TIP3   OH226684   3.357   2.413   0.226 -0.1580 -0.0169 -0.5904
 8907TIP3    H126685   3.295   2.388   0.157  1.2037 -0.5992 -1.6367
 8907TIP3    H226686   3.306   2.471   0.283 -1.1451  1.0674 -2.4640
 8908TIP3   OH226687   6.005   6.782   2.045 -0.0462  0.6454  0.3119
 8908TIP3    H126688   5.981   6.762   2.136  0.8994 -0.1323  0.4127
 8908TIP3    H226689   5.937   6.740   1.993 -0.6928  1.2459  0.6617
 8909TIP3   OH226690   6.576   5.332   4.228  0.9878  0.0637 -0.1378
 8909TIP3    H126691   6.577   5.400   4.295  0.2107 -0.4871  0.4489
 8909TIP3    H226692   6.595   5.251   4.275 -1.0484 -0.5582 -0.2659
 8910TIP3   OH226693   2.961   5.863   0.334 -0.1510 -0.1521  0.0555
 8910TIP3    H126694   2.866   5.876   0.332 -0.0067  1.0431  0.3596
 8910TIP3    H226695   2.990   5.890   0.247 -0.1325 -1.0259 -0.2237
 8911TIP3   OH226696   3.994   6.566   5.302 -0.2488  0.6033  1.2174
 8911TIP3    H126697   4.014   6.515   5.381  0.5352  1.2686  1.4631
 8911TIP3    H226698   3.909   6.532   5.273  0.5974 -1.4182  0.8925
 8912TIP3   OH226699   2.587   3.100   4.145  0.3124  0.2574  0.6590
 8912TIP3    H126700   2.671   3.145   4.138  0.3757 -0.0011 -0.3859
 8912TIP3    H226701   2.609   3.007   4.135 -0.1707  0.2449 -0.3580
 8913TIP3   OH226702   1.520   0.997   1.903 -0.2774  0.4311 -0.2570
 8913TIP3    H126703   1.559   0.917   1.868 -1.1777 -0.5438  0.8822
 8913TIP3    H226704   1.594   1.049   1.933  0.2970 -0.1587 -0.6212
 8914TIP3   OH226705   3.280   0.529   2.262  0.6700  0.0297  0.2497
 8914TIP3    H126706   3.258   0.464   2.329  0.0309 -0.2367 -0.2201
 8914TIP3    H226707   3.283   0.612   2.310 -0.0050 -0.1261  0.5716
 8915TIP3   OH226708   3.992   3.697   0.387  0.2785  0.4593  0.3679
 8915TIP3    H126709   3.918   3.697   0.448 -0.9866 -1.8742 -1.0338
 8915TIP3    H226710   3.987   3.782   0.343 -1.7463  0.2522  0.1316
 8916TIP3   OH226711   2.860   2.093   4.433  0.1176  0.7441  0.5783
 8916TIP3    H126712   2.951   2.123   4.423  1.1185 -2.3544 -1.0020
 8916TIP3    H226713   2.861   2.042   4.513 -0.5082  1.4625  1.0537
 8917TIP3   OH226714   2.364   4.694   4.321 -0.2344 -0.2434  0.2000
 8917TIP3    H126715   2.431   4.686   4.253  1.0539 -1.1476  1.5088
 8917TIP3    H226716   2.304   4.622   4.304  0.3083 -0.7167  0.2439
 8918TIP3   OH226717   6.301   2.821   2.451 -0.5186  0.9140  0.4812
 8918TIP3    H126718   6.350   2.809   2.370  0.3870 -0.2186  1.1698
 8918TIP3    H226719   6.213   2.788   2.432  0.2752 -1.3811  0.5561
 8919TIP3   OH226720   4.527   3.208   1.939 -0.2261  0.0272  0.0490
 8919TIP3    H126721   4.503   3.119   1.964  0.0637 -0.2288 -0.5590
 8919TIP3    H226722   4.595   3.197   1.872  0.8617  0.7263  1.0088
 8920TIP3   OH226723   3.579   1.510   2.153  0.4577 -0.0687 -0.2344
 8920TIP3    H126724   3.575   1.531   2.060  0.5684 -0.0025 -0.2239
 8920TIP3    H226725   3.557   1.592   2.197 -1.4099 -0.5290 -0.2216
 8921TIP3   OH226726   1.062   1.708   0.417  0.2412 -0.5912  0.3318
 8921TIP3    H126727   1.030   1.795   0.392 -0.1621 -0.2802  1.8007
 8921TIP3    H226728   1.002   1.647   0.375 -1.3085 -0.0507  1.6564
 8922TIP3   OH226729   0.733   3.563   4.875 -0.0640  0.0123  0.2975
 8922TIP3    H126730   0.705   3.614   4.951 -0.1667  2.3144 -1.1846
 8922TIP3    H226731   0.654   3.520   4.844 -0.3090  0.1829  0.6832
 8923TIP3   OH226732   2.217   2.804   2.379 -0.0572  0.2772  0.4915
 8923TIP3    H126733   2.153   2.834   2.444 -2.6985 -1.5559 -1.0622
 8923TIP3    H226734   2.168   2.742   2.325  3.4631 -2.3894  0.0434
 8924TIP3   OH226735   5.042   6.424   3.623  0.1240 -0.5059 -0.8139
 8924TIP3    H126736   5.075   6.357   3.563 -0.0363 -1.8777  0.5740
 8924TIP3    H226737   5.078   6.400   3.708  1.1632  1.9532 -0.4785
 8925TIP3   OH226738   7.112   3.115  -0.019  0.6479  0.1244  0.2676
 8925TIP3    H126739   7.172   3.115   0.056 -0.7500 -0.9045  1.4637
 8925TIP3    H226740   7.086   3.024  -0.029 -0.4444  0.4932 -0.4228
 8926TIP3   OH226741   1.701   1.369   1.851 -0.8080 -0.3583  0.2878
 8926TIP3    H126742   1.613   1.364   1.889 -0.6202 -0.7431  0.6710
 8926TIP3    H226743   1.712   1.285   1.805 -1.5085  0.5636 -1.6688
 8927TIP3   OH226744   3.291   6.659   1.772  0.0883  0.3361 -0.4962
 8927TIP3    H126745   3.203   6.692   1.755  0.5211  1.5373 -0.5496
 8927TIP3    H226746   3.279   6.585   1.831 -0.8105  2.1596  1.7610
 8928TIP3   OH226747   0.040   6.170   1.879  0.1073  0.0323  0.8415
 8928TIP3    H126748   0.055   6.197   1.789 -0.7772 -2.2462 -0.0568
 8928TIP3    H226749   0.123   6.129   1.905  0.7459  1.6474  1.5066
 8929TIP3   OH226750   3.185   5.199   2.814 -0.5549  0.0988 -0.1348
 8929TIP3    H126751   3.167   5.130   2.878 -0.3866 -2.5530 -2.7335
 8929TIP3    H226752   3.103   5.247   2.806 -0.1512  1.5977  3.0952
 8930TIP3   OH226753   5.736   3.798   3.400 -0.0678 -0.3865 -1.0820
 8930TIP3    H126754   5.831   3.795   3.394  0.0784 -0.4459  0.7358
 8930TIP3    H226755   5.712   3.715   3.442 -0.6463  0.7474  0.9448
 8931TIP3   OH226756   3.228   4.636   1.016  0.3879 -0.2864 -0.8389
 8931TIP3    H126757   3.136   4.619   1.039  0.3767 -0.3771 -0.9450
 8931TIP3    H226758   3.274   4.555   1.039  0.9651  0.7306  1.9016
 8932TIP3   OH226759   4.737   4.232   5.684 -0.1697 -0.2706 -0.2674
 8932TIP3    H126760   4.723   4.213   5.777 -2.2196 -1.0379 -0.6791
 8932TIP3    H226761   4.817   4.185   5.662  0.5410  0.1935  1.1664
 8933TIP3   OH226762   6.975   3.943   1.921  0.8966  0.2747 -0.5467
 8933TIP3    H126763   6.930   3.895   1.991 -1.4765  1.2275 -1.3188
 8933TIP3    H226764   7.026   3.876   1.875  0.6840 -0.7762  0.6798
 8934TIP3   OH226765   3.755   6.763   4.491 -0.0696  0.8851  0.0318
 8934TIP3    H126766   3.681   6.713   4.456 -0.2804  1.1751  0.0490
 8934TIP3    H226767   3.832   6.726   4.449 -0.2821  0.9760 -0.4544
 8935TIP3   OH226768   1.255   1.022   0.353 -0.0237 -0.0637 -0.0634
 8935TIP3    H126769   1.233   0.961   0.424  0.7726 -0.5529 -0.2262
 8935TIP3    H226770   1.320   1.081   0.391 -1.8667  1.6607  0.5553
 8936TIP3   OH226771   6.035   4.569   5.748 -0.3355 -0.0135  0.1876
 8936TIP3    H126772   5.973   4.618   5.802  1.0103  0.8293  1.0108
 8936TIP3    H226773   6.080   4.635   5.696 -1.2789 -0.7772 -1.6818
 8937TIP3   OH226774   2.374   3.954   5.877  0.4961 -0.3057  0.0901
 8937TIP3    H126775   2.332   3.916   5.799  1.2501 -0.0535 -0.4457
 8937TIP3    H226776   2.397   3.879   5.930 -0.4223 -0.4627  0.2904
 8938TIP3   OH226777   1.687   5.813   4.387  0.3103 -0.0264 -0.0892
 8938TIP3    H126778   1.618   5.810   4.320  0.1577  1.1818 -0.0068
 8938TIP3    H226779   1.766   5.837   4.338  0.2935  0.3975  0.0893
 8939TIP3   OH226780   1.632   6.795   0.718  0.1179 -0.2508 -0.1339
 8939TIP3    H126781   1.550   6.774   0.674  1.1662 -2.0148 -1.3721
 8939TIP3    H226782   1.680   6.849   0.655 -0.3877  1.5115  0.9251
 8940TIP3   OH226783   2.874   6.583   4.302 -0.0412  0.1713  0.0609
 8940TIP3    H126784   2.787   6.563   4.335  0.5218  0.2226  1.6374
 8940TIP3    H226785   2.933   6.559   4.373  1.1369  1.3146 -0.4911
 8941TIP3   OH226786   5.207   3.397   1.392  0.1207  0.0127  0.4413
 8941TIP3    H126787   5.196   3.399   1.297  0.1946  1.8096  0.4401
 8941TIP3    H226788   5.302   3.393   1.405  0.2091  1.3945  0.4026
 8942TIP3   OH226789   3.623   6.220   0.915  0.1834  0.0153  0.3815
 8942TIP3    H126790   3.622   6.265   0.831  0.5393  0.7744  0.7720
 8942TIP3    H226791   3.611   6.290   0.980  0.4992 -0.4843  0.9886
 8943TIP3   OH226792   2.053   5.887   3.450 -0.6929  0.4492 -0.0201
 8943TIP3    H126793   2.050   5.852   3.539 -0.0268 -1.2027 -0.6163
 8943TIP3    H226794   1.962   5.914   3.432 -1.2460 -0.9741  0.4967
 8944TIP3   OH226795   4.120   4.097   3.509 -1.0158  0.2243 -0.8736
 8944TIP3    H126796   4.108   4.122   3.600  1.1140 -0.8256 -0.2400
 8944TIP3    H226797   4.168   4.170   3.470 -2.2213  0.8268 -1.2876
 8945TIP3   OH226798   4.321  -0.033   5.423 -0.1582 -0.3545  0.1982
 8945TIP3    H126799   4.308   0.011   5.339  1.7761  0.7582  0.4274
 8945TIP3    H226800   4.278   0.023   5.487  0.2738 -0.0270  0.2052
 8946TIP3   OH226801   0.690   0.031   3.041  0.3597  0.1821 -0.4495
 8946TIP3    H126802   0.647   0.066   2.963 -0.9884 -0.7467 -0.1696
 8946TIP3    H226803   0.729  -0.051   3.013 -0.1165 -0.1475 -0.1655
 8947TIP3   OH226804   6.874   4.239   5.097  0.1810  0.2236  0.5212
 8947TIP3    H126805   6.817   4.284   5.159  0.0000 -1.2112  1.4395
 8947TIP3    H226806   6.961   4.276   5.113  0.1348 -0.1202  1.6379
 8948TIP3   OH226807   5.533   1.571   5.222  0.2336 -0.1880 -0.2788
 8948TIP3    H126808   5.624   1.566   5.193  1.0059 -1.5684  2.0984
 8948TIP3    H226809   5.512   1.665   5.218  1.8904  0.2168 -0.4634
 8949TIP3   OH226810   0.833   2.378   3.586 -0.1884  0.6778 -0.4360
 8949TIP3    H126811   0.924   2.350   3.587 -0.1025  0.8297  1.5714
 8949TIP3    H226812   0.783   2.297   3.578  0.0232  0.7348 -4.3215
 8950TIP3   OH226813   5.002   3.091   1.173 -0.0780 -0.0451  0.3523
 8950TIP3    H126814   4.962   3.061   1.254  0.4145  2.2912  1.5499
 8950TIP3    H226815   5.096   3.096   1.194  0.3377 -1.3487 -1.0410
 8951TIP3   OH226816   2.877  -0.012   3.344  0.2043 -0.1022  0.4519
 8951TIP3    H126817   2.883   0.075   3.304  0.8774 -0.4283 -0.1811
 8951TIP3    H226818   2.925  -0.005   3.426  0.3142  0.1035  0.3682
 8952TIP3   OH226819   5.895   0.740   5.144 -0.0423 -0.3743 -0.6276
 8952TIP3    H126820   5.814   0.782   5.116  0.7368  1.6732 -0.0150
 8952TIP3    H226821   5.866   0.668   5.200 -1.4498  0.3953 -0.3076
 8953TIP3   OH226822   6.819   6.543   3.997  0.3205  0.0721 -0.1534
 8953TIP3    H126823   6.822   6.517   3.905  3.0857 -3.1543  0.6685
 8953TIP3    H226824   6.890   6.607   4.006  1.2073 -0.9175  0.0274
 8954TIP3   OH226825   5.097   3.935   0.232  0.0949 -0.3715  0.6118
 8954TIP3    H126826   5.190   3.947   0.212 -0.3376  0.2175 -1.2183
 8954TIP3    H226827   5.078   4.004   0.295  1.2679 -1.6229  2.4556
 8955TIP3   OH226828   3.280   4.023   1.013  0.0545 -0.3308 -0.5590
 8955TIP3    H126829   3.232   4.084   1.069  0.8765  1.0053 -1.2353
 8955TIP3    H226830   3.327   3.966   1.073 -0.6435 -0.2202  0.1026
 8956TIP3   OH226831   2.305   4.026   1.248  0.1573  0.1230 -0.2945
 8956TIP3    H126832   2.366   3.992   1.182 -0.5358  0.9438 -1.3849
 8956TIP3    H226833   2.328   4.118   1.257 -2.1949  1.0208 -2.2949
 8957TIP3   OH226834   4.685   1.861   5.135 -0.3066  0.0227  0.0391
 8957TIP3    H126835   4.752   1.793   5.131 -0.5900 -0.2213 -0.7599
 8957TIP3    H226836   4.632   1.838   5.211  0.1316 -0.1450  0.2944
 8958TIP3   OH226837   5.158   3.758   2.035  0.8430  0.0587 -0.0357
 8958TIP3    H126838   5.105   3.695   2.083 -1.6696  1.9093 -0.2011
 8958TIP3    H226839   5.128   3.752   1.944  1.2343  0.8137 -0.2326
 8959TIP3   OH226840   0.808   0.128   2.163  0.3536 -0.0828  0.3887
 8959TIP3    H126841   0.880   0.147   2.223  0.8286 -0.4090 -0.0620
 8959TIP3    H226842   0.760   0.057   2.205  0.5509 -0.1584  0.4878
 8960TIP3   OH226843   2.394   5.077   4.024 -0.5587 -0.0902 -1.1977
 8960TIP3    H126844   2.317   5.102   3.973 -2.0529 -1.5746  0.1971
 8960TIP3    H226845   2.468   5.118   3.979 -2.2945  2.9173 -1.5881
 8961TIP3   OH226846   3.394   5.500   0.573  0.2590  0.3567  0.5324
 8961TIP3    H126847   3.431   5.423   0.530  0.5425  1.0947 -0.5934
 8961TIP3    H226848   3.436   5.574   0.530  0.8198  1.1478  2.3508
 8962TIP3   OH226849   4.577   1.143   5.492  0.0193 -0.1177  0.2441
 8962TIP3    H126850   4.522   1.084   5.544 -0.3652  0.8420  0.9664
 8962TIP3    H226851   4.557   1.121   5.401 -1.9373  0.5121  0.4815
 8963TIP3   OH226852   0.394   5.913   3.008  0.4670 -0.0400  0.5326
 8963TIP3    H126853   0.419   5.997   2.969 -2.0101  0.5341  0.0284
 8963TIP3    H226854   0.383   5.933   3.101 -1.6227  0.6657  0.1960
 8964TIP3   OH226855   3.545   2.510   2.541  0.5442  0.6318 -0.0508
 8964TIP3    H126856   3.540   2.457   2.461  0.5294 -1.1530  1.0769
 8964TIP3    H226857   3.573   2.596   2.510  0.9831 -0.1227 -1.9325
 8965TIP3   OH226858   1.393   2.358   1.019 -0.1745  0.1711  0.3121
 8965TIP3    H126859   1.318   2.408   0.986 -0.7473 -0.2183  1.0040
 8965TIP3    H226860   1.360   2.268   1.027 -0.1809  0.3104  2.2694
 8966TIP3   OH226861   3.911   2.469   4.501 -0.0390  0.0717 -0.1420
 8966TIP3    H126862   3.830   2.466   4.450 -1.1156  1.2680  1.4103
 8966TIP3    H226863   3.908   2.390   4.555 -0.4214  0.3556  0.2579
 8967TIP3   OH226864   5.836   1.154   3.194 -0.0311  0.3388 -0.5349
 8967TIP3    H126865   5.770   1.119   3.135 -1.2604 -0.2707  1.1328
 8967TIP3    H226866   5.861   1.080   3.249  1.1740  0.8575 -0.3547
 8968TIP3   OH226867   3.320   3.556   5.422  0.3486  0.4917  0.0210
 8968TIP3    H126868   3.365   3.593   5.346 -1.0587  0.2954 -0.9426
 8968TIP3    H226869   3.301   3.466   5.398  1.7162 -0.2351  1.4601
 8969TIP3   OH226870   6.201   1.106   2.628 -0.5105  0.3006  0.0864
 8969TIP3    H126871   6.149   1.026   2.631  0.2477 -0.2154 -0.1467
 8969TIP3    H226872   6.137   1.177   2.623 -1.1836 -0.3543 -0.8870
 8970TIP3   OH226873   5.290   1.312   0.912 -0.0195  0.1909 -0.2465
 8970TIP3    H126874   5.378   1.339   0.937  0.3323 -0.5147 -0.6942
 8970TIP3    H226875   5.251   1.390   0.872  0.5749  0.3642 -0.4889
 8971TIP3   OH226876   6.798   2.165   1.817 -0.8257  0.2875 -0.4419
 8971TIP3    H126877   6.887   2.136   1.797 -0.8127 -0.8915  1.1135
 8971TIP3    H226878   6.770   2.213   1.739  0.9643  0.2103 -1.1760
 8972TIP3   OH226879   3.232   3.437   2.586 -0.0454  0.3012  0.2400
 8972TIP3    H126880   3.308   3.473   2.541  0.9929 -0.7523  1.0714
 8972TIP3    H226881   3.261   3.429   2.677 -1.4856  0.7378  0.7533
 8973TIP3   OH226882   2.385   1.727   3.117  0.1785 -0.0407 -0.0659
 8973TIP3    H126883   2.477   1.735   3.140  0.1832 -0.6504  0.1467
 8973TIP3    H226884   2.338   1.758   3.195  0.2002  0.3671 -0.2121
 8974TIP3   OH226885   5.328   0.893   2.499  0.2816 -0.5919  0.1977
 8974TIP3    H126886   5.366   0.975   2.530  0.1927 -0.3899 -0.2284
 8974TIP3    H226887   5.346   0.830   2.570  0.3375 -0.2055  0.5279
 8975TIP3   OH226888   2.904   1.907   2.112  0.0923 -0.0741 -0.3108
 8975TIP3    H126889   2.825   1.895   2.165  0.4048 -0.9741 -0.0240
 8975TIP3    H226890   2.966   1.844   2.147  1.1121  0.9473 -0.2357
 8976TIP3   OH226891   3.861   1.550   4.178 -0.0970  0.4609 -0.2967
 8976TIP3    H126892   3.952   1.551   4.206 -0.6843  0.8717  1.8302
 8976TIP3    H226893   3.830   1.462   4.199 -0.1799  0.3116 -1.0395
 8977TIP3   OH226894   2.279   2.801   5.431  0.6977 -0.9440  0.2696
 8977TIP3    H126895   2.289   2.720   5.381  0.3944 -2.5236  2.6213
 8977TIP3    H226896   2.203   2.786   5.487  0.4927  1.0867  0.6301
 8978TIP3   OH226897   5.633   2.257   3.012 -0.2194  0.3143 -0.0400
 8978TIP3    H126898   5.595   2.177   2.978 -0.4569  1.3668 -2.4679
 8978TIP3    H226899   5.689   2.290   2.941  0.2948  2.0165  1.0757
 8979TIP3   OH226900   0.130   3.177   4.219  0.2580  0.0726  0.6566
 8979TIP3    H126901   0.108   3.211   4.133 -0.2154 -2.5315 -0.3446
 8979TIP3    H226902   0.180   3.097   4.202 -1.3479 -1.5057  2.7257
 8980TIP3   OH226903   2.732   0.224   1.171  0.2070 -0.2917  0.4385
 8980TIP3    H126904   2.751   0.134   1.194  1.7817 -0.8051 -2.4101
 8980TIP3    H226905   2.790   0.276   1.226 -0.4192 -1.0009  1.8105
 8981TIP3   OH226906   0.067   3.766   1.655 -0.1056  0.2151 -0.6767
 8981TIP3    H126907  -0.006   3.761   1.716  0.2681  1.5989 -0.0662
 8981TIP3    H226908   0.089   3.675   1.636 -0.9177 -0.2367  0.4280
 8982TIP3   OH226909   5.826   0.229   4.525  0.0139 -0.1299 -0.2140
 8982TIP3    H126910   5.766   0.156   4.510  0.0660 -0.4934  1.2237
 8982TIP3    H226911   5.879   0.233   4.445 -0.8364 -0.8419 -0.8330
 8983TIP3   OH226912   4.896   6.485   1.784 -0.4111  0.2530 -1.0597
 8983TIP3    H126913   4.850   6.520   1.708  0.1827 -0.5794 -1.8227
 8983TIP3    H226914   4.980   6.455   1.750 -0.4097 -0.7793 -0.2006
 8984TIP3   OH226915   5.392   4.525   3.824 -0.3800  0.0260  0.8153
 8984TIP3    H126916   5.297   4.522   3.811 -0.3433  1.6817 -0.0158
 8984TIP3    H226917   5.428   4.476   3.750 -0.5960 -2.4112  2.2176
 8985TIP3   OH226918   2.434   4.348   0.618  0.1749 -0.2341 -0.4762
 8985TIP3    H126919   2.499   4.384   0.679 -0.7290 -0.5659  0.7045
 8985TIP3    H226920   2.358   4.327   0.672 -0.3164 -1.4256 -1.5651
 8986TIP3   OH226921   3.852   2.512   0.746 -0.0368  0.0304 -0.4870
 8986TIP3    H126922   3.845   2.419   0.726  2.1267 -0.6717  1.5423
 8986TIP3    H226923   3.763   2.538   0.770 -0.5820 -1.6423 -0.5635
 8987TIP3   OH226924   7.169   3.227   5.875  0.1227  0.7290  1.1308
 8987TIP3    H126925   7.087   3.248   5.830 -0.2873 -0.1401  1.4353
 8987TIP3    H226926   7.234   3.221   5.805  0.0604  1.9706  0.9413
 8988TIP3   OH226927   1.191   6.194   3.633 -0.3078 -0.3325  0.5626
 8988TIP3    H126928   1.175   6.143   3.713 -1.4248  4.0037  3.4679
 8988TIP3    H226929   1.277   6.233   3.646  0.8514 -1.8528 -1.9258
 8989TIP3   OH226930   5.457   1.042   1.041 -0.3478  0.7210 -0.2430
 8989TIP3    H126931   5.382   0.987   1.022 -0.3147  0.2262  0.9878
 8989TIP3    H226932   5.471   1.092   0.961 -1.8215  0.6366 -0.5684
 8990TIP3   OH226933   6.924   2.822   0.047  0.3087 -0.2623  0.1797
 8990TIP3    H126934   6.869   2.759   0.095  1.0831 -1.0956 -0.0045
 8990TIP3    H226935   6.862   2.876  -0.002 -0.4232 -0.2541  1.0818
 8991TIP3   OH226936   0.050   6.018   3.864  0.1058  0.1163 -0.6030
 8991TIP3    H126937   0.019   5.957   3.931 -0.9102  0.5816 -0.6411
 8991TIP3    H226938   0.121   6.066   3.907 -0.2508  0.1149  0.0006
 8992TIP3   OH226939   3.651   2.806   5.260 -0.2491  0.2275 -0.8499
 8992TIP3    H126940   3.560   2.811   5.229 -0.4763 -1.3493 -0.4987
 8992TIP3    H226941   3.693   2.744   5.201  0.1749 -0.2644 -0.0517
 8993TIP3   OH226942   2.437   0.234   3.602 -0.7171  0.3124 -0.0051
 8993TIP3    H126943   2.389   0.157   3.632 -0.5637 -1.8578 -4.5105
 8993TIP3    H226944   2.518   0.199   3.567  0.0654  2.7718 -0.8134
 8994TIP3   OH226945   2.051   0.925   4.555 -0.3370 -0.0225 -0.5234
 8994TIP3    H126946   2.089   0.978   4.625 -1.1520  0.6236 -0.5486
 8994TIP3    H226947   2.069   0.975   4.475  0.2496 -0.5646 -0.7399
 8995TIP3   OH226948   3.871   2.001   5.599 -0.4038 -0.0737 -0.0659
 8995TIP3    H126949   3.778   2.025   5.598 -0.4708 -0.3299 -0.1452
 8995TIP3    H226950   3.897   2.004   5.507 -0.8773 -2.0401 -0.3149
 8996TIP3   OH226951   0.187   5.205   3.654  0.1006 -0.1162 -0.1970
 8996TIP3    H126952   0.103   5.164   3.633 -1.0106  1.6670  0.5750
 8996TIP3    H226953   0.227   5.224   3.569 -0.6760 -0.1744 -0.5787
 8997TIP3   OH226954   0.580   2.617   0.275 -0.5201  0.3033 -0.6077
 8997TIP3    H126955   0.624   2.682   0.220  0.7251 -1.0313 -1.2841
 8997TIP3    H226956   0.495   2.655   0.294  0.4404  2.4573 -0.3217
 8998TIP3   OH226957   6.263   6.426   0.843 -0.1976  0.5608 -0.1713
 8998TIP3    H126958   6.267   6.341   0.887  0.8611  0.1960 -0.9262
 8998TIP3    H226959   6.211   6.410   0.765  0.6923  0.3786 -0.7465
 8999TIP3   OH226960   3.013   2.338   1.314 -0.3261 -0.3020  0.0851
 8999TIP3    H126961   3.003   2.249   1.280 -0.5552  0.3854 -1.7334
 8999TIP3    H226962   2.932   2.355   1.362 -0.6934 -0.7221 -0.3795
 9000TIP3   OH226963   3.129   3.772   1.471 -0.0842 -0.1892 -0.7157
 9000TIP3    H126964   3.208   3.729   1.504  0.0876  0.7131  0.1033
 9000TIP3    H226965   3.115   3.733   1.384  1.1369 -0.5126 -0.7914
 9001TIP3   OH226966   5.400   2.804   1.857  0.0874  0.0609 -0.0697
 9001TIP3    H126967   5.429   2.749   1.930  2.0941 -1.3304 -1.7928
 9001TIP3    H226968   5.470   2.868   1.847 -0.3378  0.4473 -0.5503
 9002TIP3   OH226969   5.728   1.597   0.106  0.1743 -0.1054 -0.4141
 9002TIP3    H126970   5.660   1.543   0.147  1.3091 -0.0269  1.7317
 9002TIP3    H226971   5.700   1.687   0.122  0.4757 -0.0753 -0.0311
 9003TIP3   OH226972   3.303   3.149   2.733 -0.4539  0.0682 -0.1159
 9003TIP3    H126973   3.283   3.085   2.802 -0.2334  0.5853  0.4430
 9003TIP3    H226974   3.287   3.102   2.651  2.9066 -1.8880  0.1467
 9004TIP3   OH226975   7.209   5.253   2.864 -0.4244  0.5270  0.0250
 9004TIP3    H126976   7.165   5.295   2.937 -0.7915  3.2093 -1.5925
 9004TIP3    H226977   7.194   5.312   2.790  3.1190 -0.0489 -1.3639
 9005TIP3   OH226978   4.837   3.247   2.483  0.4882  0.2810  0.2693
 9005TIP3    H126979   4.815   3.193   2.407  0.7983  1.0287 -0.3652
 9005TIP3    H226980   4.763   3.307   2.492  0.7188  0.5829  0.1836
 9006TIP3   OH226981   2.675   2.072   2.943 -0.2857 -0.7749  0.0584
 9006TIP3    H126982   2.698   2.021   3.021 -0.4413 -0.1337  0.5251
 9006TIP3    H226983   2.584   2.050   2.925 -0.2417 -0.9423  0.0398
 9007TIP3   OH226984   5.165   5.475   5.794  0.3141 -0.6144 -0.4085
 9007TIP3    H126985   5.115   5.417   5.736  0.2998 -0.5041 -0.5052
 9007TIP3    H226986   5.118   5.473   5.877 -1.4181  1.6279 -1.2629
 9008TIP3   OH226987   6.896   5.754   4.797  0.1928 -0.6804 -0.2651
 9008TIP3    H126988   6.829   5.777   4.732  0.2905  0.3261 -0.0212
 9008TIP3    H226989   6.937   5.837   4.820  2.0769 -1.3466 -0.9940
 9009TIP3   OH226990   2.587   4.770   4.106 -0.4047  0.1771  0.1728
 9009TIP3    H126991   2.682   4.756   4.105 -0.1796  1.4687  1.1655
 9009TIP3    H226992   2.565   4.792   4.015  0.2585 -0.0751 -0.0516
 9010TIP3   OH226993   3.058   0.011   0.278  0.2718  0.2944  0.4695
 9010TIP3    H126994   3.107   0.088   0.250  0.7187  0.1428  0.8257
 9010TIP3    H226995   3.124  -0.057   0.290 -0.2521 -0.5609 -1.2066
 9011TIP3   OH226996   6.848   0.324   5.062  0.3928 -0.1096  0.5665
 9011TIP3    H126997   6.916   0.378   5.021 -1.0022  1.0257 -0.3526
 9011TIP3    H226998   6.820   0.375   5.138 -1.8315  1.1982 -1.0161
 9012TIP3   OH226999   4.374   5.625   2.617  0.5115 -0.3910 -0.5923
 9012TIP3    H127000   4.405   5.626   2.526  1.4302 -0.0430 -0.2803
 9012TIP3    H227001   4.371   5.717   2.642 -0.9238 -0.3989 -0.6476
 9013TIP3   OH227002   2.657   4.851   4.671 -0.4981 -0.3613  0.0189
 9013TIP3    H127003   2.609   4.793   4.730  1.4742 -2.2845 -0.1367
 9013TIP3    H227004   2.708   4.908   4.728 -2.3465  1.2555  0.1700
 9014TIP3   OH227005   6.025   0.983   5.431 -0.3409  0.7580 -0.0922
 9014TIP3    H127006   6.058   0.919   5.494  2.4363 -0.2412 -2.3628
 9014TIP3    H227007   6.060   1.067   5.461  0.8980  0.3008 -0.2124
 9015TIP3   OH227008   2.106   2.088   3.355 -0.1381  0.2497 -0.7646
 9015TIP3    H127009   2.137   2.087   3.446 -0.4233  2.4102 -0.5920
 9015TIP3    H227010   2.070   2.000   3.341 -2.3256  0.5607  2.0376
 9016TIP3   OH227011   6.928  -0.026   4.334  0.2486  0.0063 -0.2886
 9016TIP3    H127012   6.879   0.052   4.307  1.4173  0.9383  0.1964
 9016TIP3    H227013   7.009   0.009   4.371  0.9681 -1.4726 -0.4286
 9017TIP3   OH227014   2.555   4.998   2.987  0.3749  0.6909  0.0319
 9017TIP3    H127015   2.648   5.019   2.999  1.0384 -2.2326  0.7877
 9017TIP3    H227016   2.555   4.923   2.928 -1.2201 -1.3132  2.3977
 9018TIP3   OH227017   5.940   3.899   5.363 -0.3793  0.2694 -0.4358
 9018TIP3    H127018   5.955   3.984   5.404 -1.2568 -0.0383  0.5850
 9018TIP3    H227019   5.965   3.910   5.272  2.5541  0.7577  0.3366
 9019TIP3   OH227020   4.459   6.514   5.624  0.2288  0.3447 -1.0380
 9019TIP3    H127021   4.407   6.463   5.563 -0.8265 -1.1136  0.9549
 9019TIP3    H227022   4.547   6.477   5.617 -0.6483 -2.4108  0.8479
 9020TIP3   OH227023   5.977   0.879   2.891 -0.3725  0.3886  0.3397
 9020TIP3    H127024   6.043   0.813   2.910 -0.9627  0.2498  2.1167
 9020TIP3    H227025   5.989   0.900   2.798 -0.1626 -2.1846 -0.2806
 9021TIP3   OH227026   4.444   4.540   3.354  0.6239 -0.0644  0.2004
 9021TIP3    H127027   4.456   4.620   3.405 -1.4557 -0.5678  1.5941
 9021TIP3    H227028   4.529   4.495   3.360  1.2100  1.0884  1.0479
 9022TIP3   OH227029   3.081   1.350   3.380  0.4188 -0.4809  0.4221
 9022TIP3    H127030   2.997   1.394   3.382  0.1857 -0.9033  0.1450
 9022TIP3    H227031   3.107   1.341   3.472  1.3358  1.8389  0.4464
 9023TIP3   OH227032   3.592   5.514   3.855  0.2430 -0.4443 -0.5427
 9023TIP3    H127033   3.667   5.572   3.867  0.2625 -0.7989  1.4444
 9023TIP3    H227034   3.552   5.508   3.942 -1.9971 -0.4106 -1.4822
 9024TIP3   OH227035   3.796   3.910   5.115  0.0710  0.3873 -0.0972
 9024TIP3    H127036   3.703   3.895   5.098  0.5779 -0.5209 -2.5235
 9024TIP3    H227037   3.834   3.822   5.119  0.8354  0.7450  0.9027
 9025TIP3   OH227038   6.349   1.883   4.242 -0.2466 -0.1774 -0.0809
 9025TIP3    H127039   6.337   1.790   4.259 -2.0257  0.1893  0.9173
 9025TIP3    H227040   6.392   1.916   4.321  0.2863 -0.1125 -0.3905
 9026TIP3   OH227041   2.693   1.920   2.531  0.7936 -0.8129 -0.0936
 9026TIP3    H127042   2.713   1.844   2.587 -1.2081 -1.8208 -0.6496
 9026TIP3    H227043   2.664   1.987   2.593  0.8479 -1.1166  0.2711
 9027TIP3   OH227044   0.899   3.857   5.445 -0.1090  0.2774  0.3423
 9027TIP3    H127045   0.967   3.791   5.458 -0.1663  0.1044 -0.2026
 9027TIP3    H227046   0.935   3.915   5.377 -0.6628 -0.0483 -0.2462
 9028TIP3   OH227047   4.022   3.802   3.068  0.4301 -1.0783  0.4292
 9028TIP3    H127048   4.115   3.801   3.090  0.8432 -1.2420 -1.1839
 9028TIP3    H227049   3.978   3.773   3.148  1.8927 -2.6691  0.7224
 9029TIP3   OH227050   2.223   4.068   2.082  0.1391 -0.4360 -0.2248
 9029TIP3    H127051   2.226   4.104   1.993  0.1723 -1.3276 -0.6057
 9029TIP3    H227052   2.314   4.045   2.102  0.2308  0.3856  0.3140
 9030TIP3   OH227053   2.981   1.964   0.302  0.3947  0.1540  0.2910
 9030TIP3    H127054   3.010   2.006   0.221 -2.5999  0.0602 -0.9667
 9030TIP3    H227055   2.996   1.871   0.287 -0.7455  0.0718 -0.5001
 9031TIP3   OH227056   4.571   4.823   0.129  0.1184  0.4571  0.0630
 9031TIP3    H127057   4.590   4.815   0.035 -3.3690 -2.8237 -0.6216
 9031TIP3    H227058   4.600   4.740   0.167 -1.9469  0.1261  1.0562
 9032TIP3   OH227059  -0.003   4.005   0.287 -0.2046 -0.0504 -0.5334
 9032TIP3    H127060   0.073   4.057   0.312 -1.2293  1.3223 -0.1341
 9032TIP3    H227061   0.015   3.977   0.197  0.5310  0.7400 -0.6462
 9033TIP3   OH227062   3.949   1.863   4.173  0.2376 -0.7749  0.0775
 9033TIP3    H127063   3.857   1.838   4.179 -0.1718  0.2705 -1.3757
 9033TIP3    H227064   3.951   1.931   4.106  2.0513 -0.6537  0.2122
 9034TIP3   OH227065   6.923   0.911   0.098  0.0254  0.1465  0.0825
 9034TIP3    H127066   6.831   0.892   0.119  0.1242 -0.2537  0.1599
 9034TIP3    H227067   6.919   0.984   0.037 -0.2896  1.1683  1.2767
 9035TIP3   OH227068   5.972   1.294   5.454 -0.0180 -0.3987  0.2157
 9035TIP3    H127069   5.949   1.228   5.519  1.3789 -1.9291 -0.7734
 9035TIP3    H227070   6.067   1.303   5.461 -0.1662  1.6138  0.3729
 9036TIP3   OH227071   3.501   3.041   2.000  0.0433 -0.3837  0.4169
 9036TIP3    H127072   3.436   2.994   1.948 -0.0742  0.2880 -0.0517
 9036TIP3    H227073   3.505   3.128   1.961 -0.3270  0.2679  1.7656
 9037TIP3   OH227074   1.571   5.289   5.545  0.1383 -0.6466 -0.1609
 9037TIP3    H127075   1.577   5.340   5.464  0.7405 -1.8000 -0.8667
 9037TIP3    H227076   1.661   5.261   5.562 -0.2147 -1.6221  0.1195
 9038TIP3   OH227077   2.017   1.087   1.544 -0.1244 -0.4669  0.5891
 9038TIP3    H127078   2.081   1.134   1.491  0.4426 -1.3587  0.4753
 9038TIP3    H227079   1.997   1.008   1.494 -1.2020 -0.2931  0.7016
 9039TIP3   OH227080   4.537   0.530   2.664 -0.1272  0.3726  0.0600
 9039TIP3    H127081   4.615   0.586   2.668  0.9827 -0.9658 -1.5605
 9039TIP3    H227082   4.498   0.551   2.580 -0.2761 -0.5343 -0.1033
 9040TIP3   OH227083   2.880   1.034   2.428  0.1233 -0.1243 -0.0919
 9040TIP3    H127084   2.906   1.026   2.336  0.4253  1.3272 -0.1462
 9040TIP3    H227085   2.795   0.991   2.432  0.6333 -1.2551 -0.7882
 9041TIP3   OH227086   6.291   2.976   3.606 -0.9460  0.4540  0.4327
 9041TIP3    H127087   6.202   2.955   3.635 -0.5063 -0.1818  1.3800
 9041TIP3    H227088   6.304   3.067   3.631 -0.7273  0.0384  1.9119
 9042TIP3   OH227089   5.618   5.177   1.443  0.2618  0.2371  0.1057
 9042TIP3    H127090   5.696   5.139   1.402 -0.6861 -0.9395 -0.6843
 9042TIP3    H227091   5.643   5.193   1.533  1.7869  0.9879 -0.4243
 9043TIP3   OH227092   6.315   5.855   0.127 -0.0965  0.4405 -0.3395
 9043TIP3    H127093   6.391   5.913   0.132 -0.8546  1.3930  0.6151
 9043TIP3    H227094   6.331   5.787   0.192  0.0238  0.5328 -0.2742
 9044TIP3   OH227095   1.073   2.890   5.657  0.1217 -0.5356  0.0728
 9044TIP3    H127096   1.095   2.913   5.747  2.4894  0.0226 -0.5767
 9044TIP3    H227097   0.981   2.915   5.648  0.5098  1.7890  1.6073
 9045TIP3   OH227098   4.049   0.999   3.335  0.0758  0.0928  1.3697
 9045TIP3    H127099   3.991   1.069   3.306  3.1493  2.6178  0.7216
 9045TIP3    H227100   4.105   1.041   3.401  2.1204 -1.6756  0.8581
 9046TIP3   OH227101   2.117   6.750   2.472  0.5907 -0.0901 -0.0769
 9046TIP3    H127102   2.116   6.785   2.561 -3.2596 -0.4148  0.1547
 9046TIP3    H227103   2.197   6.786   2.433  0.5544  3.0073  2.3683
 9047TIP3   OH227104   3.552   5.284   0.430  0.5971 -0.1977 -0.1951
 9047TIP3    H127105   3.613   5.350   0.397  0.2435  0.4458  0.4139
 9047TIP3    H227106   3.608   5.210   0.455  1.1438  0.4258  0.4564
 9048TIP3   OH227107   2.323   6.807   2.960 -0.0864 -0.2347 -0.2652
 9048TIP3    H127108   2.287   6.718   2.957 -1.0391  0.1509 -0.7922
 9048TIP3    H227109   2.417   6.795   2.947 -0.2400 -1.1416 -0.6448
 9049TIP3   OH227110   5.497   6.666   4.676  0.0239  0.1039  0.0799
 9049TIP3    H127111   5.546   6.663   4.758  0.5560 -0.1802 -0.2382
 9049TIP3    H227112   5.405   6.659   4.702  0.2669 -2.7720  0.5305
 9050TIP3   OH227113   3.870   2.240   3.348  0.0819  0.0538  0.0248
 9050TIP3    H127114   3.932   2.167   3.347  1.5334  1.2025  1.1876
 9050TIP3    H227115   3.881   2.282   3.263  0.6280  0.0057  0.0645
 9051TIP3   OH227116   2.844   6.415   5.113 -0.1637 -0.4728 -0.2162
 9051TIP3    H127117   2.932   6.416   5.076 -0.1299 -1.0141 -0.1669
 9051TIP3    H227118   2.853   6.365   5.194 -0.4493 -0.2329 -0.0379
 9052TIP3   OH227119   5.304   3.954   4.023 -0.1654  0.0815 -0.2115
 9052TIP3    H127120   5.293   3.859   4.030 -0.3621  0.1254  0.1212
 9052TIP3    H227121   5.393   3.966   3.989 -0.9918 -0.2859 -2.7302
 9053TIP3   OH227122   4.993   2.924   3.052 -0.0001  0.2542  0.0407
 9053TIP3    H127123   5.057   2.923   2.981  0.5637 -3.8642  0.3247
 9053TIP3    H227124   4.909   2.936   3.008  0.4227 -1.3391 -1.3135
 9054TIP3   OH227125   7.011   6.465   2.011 -0.8141  0.0559  0.0620
 9054TIP3    H127126   6.930   6.434   2.050 -0.2079  0.7698  1.9809
 9054TIP3    H227127   7.071   6.390   2.016 -0.0658  0.7330  2.6003
 9055TIP3   OH227128   5.533   2.576   4.556 -0.4875  0.0091 -0.8417
 9055TIP3    H127129   5.485   2.495   4.568  0.5157 -0.6504 -1.1963
 9055TIP3    H227130   5.561   2.601   4.644 -2.6860  1.2088 -0.3974
 9056TIP3   OH227131   4.742   4.983   2.859 -0.5578 -0.0813 -0.3960
 9056TIP3    H127132   4.702   4.991   2.772  0.0531 -0.6605 -0.7432
 9056TIP3    H227133   4.739   4.889   2.879 -0.9499  0.0808  0.3402
 9057TIP3   OH227134   5.451   4.487   3.113  0.1485 -0.3913 -0.1365
 9057TIP3    H127135   5.533   4.526   3.142  0.1625 -0.1303 -0.5257
 9057TIP3    H227136   5.414   4.447   3.192  0.3919 -0.0515  0.1501
 9058TIP3   OH227137   4.924   3.492   2.916 -0.1959  0.2038 -0.1868
 9058TIP3    H127138   4.976   3.414   2.934  0.0577  0.6008  0.8639
 9058TIP3    H227139   4.833   3.461   2.921 -0.0914 -0.1588 -0.4632
 9059TIP3   OH227140   2.240   1.707   4.719 -0.4563 -0.2250 -0.5557
 9059TIP3    H127141   2.242   1.771   4.648  1.0309  0.7571  0.2961
 9059TIP3    H227142   2.330   1.673   4.723  0.1262  1.3344  2.1592
 9060TIP3   OH227143   5.372   3.742   2.737 -0.0684  0.2791  0.2847
 9060TIP3    H127144   5.311   3.668   2.731  0.5773 -0.2306 -0.1639
 9060TIP3    H227145   5.316   3.819   2.744 -0.7560 -0.2238  0.4038
 9061TIP3   OH227146   6.659   3.981   3.916 -0.5746 -0.0800  0.0976
 9061TIP3    H127147   6.673   3.887   3.924  2.4994  0.2958  0.2424
 9061TIP3    H227148   6.613   4.005   3.997 -0.6423 -1.3209  0.4448
 9062TIP3   OH227149   0.159   3.327   2.425 -0.3168 -0.0900 -0.4030
 9062TIP3    H127150   0.244   3.365   2.448  0.1024 -0.4354 -1.3153
 9062TIP3    H227151   0.097   3.371   2.483  0.3839  0.7190 -0.2324
 9063TIP3   OH227152   2.109   2.801   2.047  0.0479 -0.3390  0.8150
 9063TIP3    H127153   2.056   2.880   2.059  1.0237  0.5673 -0.6008
 9063TIP3    H227154   2.199   2.832   2.044  0.5500 -1.6497  1.3000
 9064TIP3   OH227155   2.323   6.475   4.238  0.0033  0.3250 -0.8161
 9064TIP3    H127156   2.264   6.529   4.187  0.2644 -1.3828 -3.0571
 9064TIP3    H227157   2.380   6.433   4.174  1.4605 -0.6757  1.0151
 9065TIP3   OH227158   1.726   2.888   4.761 -0.5637  0.0670 -0.2355
 9065TIP3    H127159   1.752   2.799   4.784 -0.7172 -0.3966 -1.7563
 9065TIP3    H227160   1.806   2.940   4.773 -0.6220 -0.1454  1.2049
 9066TIP3   OH227161   1.232   5.726   2.540  0.0453  0.1746 -0.0345
 9066TIP3    H127162   1.294   5.777   2.593 -1.4009  0.8941  1.0306
 9066TIP3    H227163   1.210   5.782   2.466 -0.7036  0.6705  0.5533
 9067TIP3   OH227164   4.284   4.343   1.883  0.0331  0.0312  0.2308
 9067TIP3    H127165   4.281   4.285   1.807  0.6050  0.6241 -0.2552
 9067TIP3    H227166   4.345   4.413   1.858 -0.0938  0.4598  1.0736
 9068TIP3   OH227167   4.375   5.665   4.331  0.5854 -0.0151 -0.2035
 9068TIP3    H127168   4.449   5.716   4.299  0.8244 -0.5285 -0.5000
 9068TIP3    H227169   4.298   5.716   4.308  0.8125  0.1452 -0.6228
 9069TIP3   OH227170   6.718   3.872   5.611  0.2614 -0.4924 -0.1904
 9069TIP3    H127171   6.796   3.878   5.666  0.6524 -0.0324 -0.7782
 9069TIP3    H227172   6.676   3.958   5.620  0.8447 -0.0644 -1.3435
 9070TIP3   OH227173   6.924   1.007   5.627  0.7254  0.4619 -0.0308
 9070TIP3    H127174   6.919   1.046   5.539 -0.0429  0.2100 -0.1085
 9070TIP3    H227175   6.935   0.914   5.610  1.2088  0.4840  0.1502
 9071TIP3   OH227176   6.274   1.520   5.636  0.0143  0.6730  0.0653
 9071TIP3    H127177   6.241   1.493   5.722  0.5942  0.9400  0.3825
 9071TIP3    H227178   6.271   1.441   5.583 -0.1447  0.4518  0.4028
 9072TIP3   OH227179   0.874   0.619   1.142 -0.1618  0.1855  0.2835
 9072TIP3    H127180   0.949   0.577   1.102 -0.7999  1.7265 -2.8274
 9072TIP3    H227181   0.911   0.685   1.201  0.9698  0.7288 -0.9883
 9073TIP3   OH227182   5.062   4.014   2.158 -0.0886  0.7194 -0.0467
 9073TIP3    H127183   5.084   3.928   2.192  2.0042  0.2680 -2.3168
 9073TIP3    H227184   5.030   3.998   2.069 -0.0122  2.2343 -0.3774
 9074TIP3   OH227185   6.154   2.924   5.124  0.1419 -0.2770 -0.5231
 9074TIP3    H127186   6.103   2.843   5.125 -0.1000 -0.1390  0.8629
 9074TIP3    H227187   6.231   2.905   5.177 -0.8711  0.9203  1.5283
 9075TIP3   OH227188   2.365   4.373   5.029 -0.0294  0.0200 -0.6788
 9075TIP3    H127189   2.457   4.378   5.055 -0.3437 -1.9204  1.0724
 9075TIP3    H227190   2.332   4.461   5.040  1.1906  0.3749  0.4587
 9076TIP3   OH227191   6.744   1.667   5.350  0.1091 -0.5618  0.1017
 9076TIP3    H127192   6.664   1.646   5.398  0.3580 -0.8164  0.4170
 9076TIP3    H227193   6.804   1.699   5.417  0.6947 -1.5714  0.0828
 9077TIP3   OH227194  -0.030   0.828   1.770 -0.0514  0.3582 -0.0939
 9077TIP3    H127195  -0.000   0.802   1.682  0.2549 -2.0222  0.6368
 9077TIP3    H227196   0.033   0.787   1.829 -0.7291  1.2318  1.2797
 9078TIP3   OH227197   6.954   0.583   5.693  0.3739 -0.1859  0.2814
 9078TIP3    H127198   7.011   0.652   5.658  0.2418  0.4779  1.3117
 9078TIP3    H227199   6.930   0.530   5.617  1.4386  0.2044 -0.3488
 9079TIP3   OH227200   4.273   6.764   1.763  0.0105  0.0179 -0.3156
 9079TIP3    H127201   4.352   6.779   1.815  0.5576  0.2894 -1.1987
 9079TIP3    H227202   4.241   6.679   1.792  0.0279  0.3733  0.7915
 9080TIP3   OH227203   3.380   1.760   0.815 -0.0332 -0.0865 -0.3482
 9080TIP3    H127204   3.335   1.709   0.883 -0.3210  0.6485  0.0218
 9080TIP3    H227205   3.424   1.694   0.762 -1.4540 -0.8297 -0.6624
 9081TIP3   OH227206   4.538   0.113   2.795 -0.6278 -0.1113 -0.4067
 9081TIP3    H127207   4.596   0.071   2.860 -1.7658  2.0577  2.1822
 9081TIP3    H227208   4.594   0.176   2.751 -0.0709 -0.9309 -0.9065
 9082TIP3   OH227209   3.903   0.753   0.994 -0.3804 -0.0134 -0.8677
 9082TIP3    H127210   3.903   0.768   1.089 -0.4574 -0.0870 -0.8562
 9082TIP3    H227211   3.812   0.736   0.972 -0.3618 -0.0023 -0.9545
 9083TIP3   OH227212   0.652   0.923   4.441  0.1807 -0.1413  0.2844
 9083TIP3    H127213   0.693   0.935   4.356 -3.2757 -1.3723 -1.7771
 9083TIP3    H227214   0.609   1.006   4.459  1.0479  0.1737  0.9469
 9084TIP3   OH227215   2.213   3.402   2.008  0.6135  0.3823  0.1161
 9084TIP3    H127216   2.165   3.353   1.941  1.0796  2.3736 -1.7791
 9084TIP3    H227217   2.226   3.339   2.079 -2.8014 -0.9033 -0.1875
 9085TIP3   OH227218   6.636   1.739   3.481  0.0416 -0.2147 -0.2175
 9085TIP3    H127219   6.681   1.824   3.483  0.7759 -0.5491 -1.2225
 9085TIP3    H227220   6.693   1.681   3.531 -0.3851 -0.1598  0.3423
 9086TIP3   OH227221   0.415   4.249   5.092  0.8218 -0.3654  0.7149
 9086TIP3    H127222   0.406   4.155   5.074  0.0851 -0.5971  2.1866
 9086TIP3    H227223   0.411   4.290   5.005 -2.5245 -1.4198  0.2384
 9087TIP3   OH227224   1.233   4.118   0.561  0.1048  0.0823  0.4450
 9087TIP3    H127225   1.310   4.074   0.595 -0.6082 -0.8104  0.9504
 9087TIP3    H227226   1.265   4.202   0.529  1.3684 -0.5055  0.1237
 9088TIP3   OH227227   5.788   2.387   3.406 -0.4926 -0.1966 -0.2279
 9088TIP3    H127228   5.696   2.376   3.432  0.0488 -1.5283  1.2523
 9088TIP3    H227229   5.819   2.461   3.458 -0.2785 -0.8289  0.5554
 9089TIP3   OH227230   3.237   6.147   2.943 -0.0699  0.1569 -0.0505
 9089TIP3    H127231   3.218   6.164   2.851 -0.2899  1.3150  0.1991
 9089TIP3    H227232   3.158   6.174   2.990 -0.3621 -1.3744  0.4116
 9090TIP3   OH227233   0.158   5.756   4.019 -0.3040 -0.0326 -0.8832
 9090TIP3    H127234   0.203   5.704   4.085 -1.8519  2.0231  2.0580
 9090TIP3    H227235   0.218   5.828   3.999 -1.3105  1.6482  1.6015
 9091TIP3   OH227236   5.758   3.336   1.093  0.6384  0.7394 -0.0871
 9091TIP3    H127237   5.817   3.350   1.018 -0.7140 -0.1239 -1.3597
 9091TIP3    H227238   5.712   3.420   1.102  0.6669  0.7853 -0.3489
 9092TIP3   OH227239   6.503   2.919   3.736 -0.2810 -0.0279 -0.3581
 9092TIP3    H127240   6.577   2.928   3.676 -1.5794 -0.4341 -2.0915
 9092TIP3    H227241   6.425   2.929   3.681 -1.5680 -2.2529  0.8955
 9093TIP3   OH227242   6.017   4.690   2.442 -0.1797 -0.1465 -0.2726
 9093TIP3    H127243   5.965   4.631   2.388  1.2384 -1.2729 -0.4715
 9093TIP3    H227244   6.040   4.638   2.519  1.3164  0.0473 -0.5680
 9094TIP3   OH227245   6.363   0.226   2.877 -0.1734 -0.7581 -0.2269
 9094TIP3    H127246   6.426   0.295   2.858  1.5674 -2.1901  0.1187
 9094TIP3    H227247   6.312   0.260   2.950  0.0446  0.5168 -0.6461
 9095TIP3   OH227248   2.500   6.111   3.281  0.0496 -0.5079  0.3388
 9095TIP3    H127249   2.512   6.138   3.189 -0.5455 -0.9877  0.1168
 9095TIP3    H227250   2.408   6.085   3.287  0.2347 -1.0554  0.9215
 9096TIP3   OH227251   6.655   6.676   3.452 -0.0471  0.0457  0.3975
 9096TIP3    H127252   6.611   6.594   3.476  0.7197  0.0000  1.8018
 9096TIP3    H227253   6.716   6.652   3.383 -1.0182 -0.2069 -0.4059
 9097TIP3   OH227254   0.859   0.055   1.455 -0.1758 -0.0816 -0.3114
 9097TIP3    H127255   0.900  -0.009   1.513 -1.1221  0.3295  0.8366
 9097TIP3    H227256   0.888   0.029   1.367  0.4581 -1.3199  0.2374
 9098TIP3   OH227257   5.565   1.119   2.204  0.0224  0.2261 -0.0437
 9098TIP3    H127258   5.610   1.091   2.125  3.0061  1.6337  1.0001
 9098TIP3    H227259   5.531   1.205   2.183  0.2334  0.3149 -0.0301
 9099TIP3   OH227260   0.812   4.911   2.056  0.0317 -0.2047 -0.1843
 9099TIP3    H127261   0.793   4.954   2.139 -0.5907 -0.5464 -0.1448
 9099TIP3    H227262   0.891   4.860   2.073  1.1579  1.3783 -0.4036
 9100TIP3   OH227263   3.927   6.319   3.381 -0.6255  0.0483  0.1310
 9100TIP3    H127264   3.995   6.384   3.367  1.1148 -1.9595 -1.1727
 9100TIP3    H227265   3.896   6.296   3.293 -2.7323  0.5633  0.6598
 9101TIP3   OH227266   6.339   2.801   0.231 -0.1283  0.5153 -0.0001
 9101TIP3    H127267   6.348   2.762   0.144  1.6930 -1.1998  0.8798
 9101TIP3    H227268   6.253   2.842   0.230 -1.4818 -2.1029 -1.6041
 9102TIP3   OH227269   0.320   5.444   3.932  0.2277 -0.4659  0.3426
 9102TIP3    H127270   0.338   5.482   4.017  0.4670  0.8155 -0.2651
 9102TIP3    H227271   0.298   5.353   3.951  0.5582 -0.2761  1.7365
 9103TIP3   OH227272   5.246   6.062   2.416 -0.4337 -0.1200 -0.1700
 9103TIP3    H127273   5.333   6.022   2.425 -0.1833  0.7840  2.2655
 9103TIP3    H227274   5.248   6.106   2.331  0.6135 -2.0562 -1.2188
 9104TIP3   OH227275   5.215   1.841   0.614  0.8283 -0.0054 -0.3839
 9104TIP3    H127276   5.269   1.919   0.602  0.6872  0.0444 -0.7102
 9104TIP3    H227277   5.126   1.871   0.596  0.7137 -0.1284 -0.0240
 9105TIP3   OH227278   6.824   3.094   3.615 -0.4910  0.3873 -0.2248
 9105TIP3    H127279   6.764   3.022   3.599 -0.3512 -0.2999  1.9439
 9105TIP3    H227280   6.911   3.054   3.618 -0.4619  0.4863  1.5356
 9106TIP3   OH227281   1.714   1.025   4.524  0.1058 -0.5884 -0.1162
 9106TIP3    H127282   1.798   1.020   4.570 -0.4089  2.7778  1.4659
 9106TIP3    H227283   1.648   1.022   4.594 -0.8652  1.4119 -0.8773
 9107TIP3   OH227284   4.318   1.294   3.262  0.2488  0.3453 -0.2064
 9107TIP3    H127285   4.351   1.258   3.344 -1.2916 -0.5342  0.0590
 9107TIP3    H227286   4.302   1.386   3.280 -0.7565  0.0082  0.7198
 9108TIP3   OH227287   5.138   1.167   3.202  0.0739  0.1768  0.5384
 9108TIP3    H127288   5.101   1.121   3.277 -4.9809 -2.4408 -2.9917
 9108TIP3    H227289   5.207   1.109   3.169  1.1177  0.5246  2.0068
 9109TIP3   OH227290   3.932   4.439   1.490  0.8335 -0.3458  0.0038
 9109TIP3    H127291   3.871   4.387   1.438  1.0328 -0.6581  0.0806
 9109TIP3    H227292   3.972   4.500   1.427  1.5112 -1.1202 -0.3238
 9110TIP3   OH227293   0.537   5.671   4.564 -0.1099  0.4747  0.0095
 9110TIP3    H127294   0.550   5.673   4.469 -1.0126  0.8087 -0.1160
 9110TIP3    H227295   0.626   5.667   4.600  0.2165 -0.4916 -0.8596
 9111TIP3   OH227296   6.633   1.399   2.028  0.3098  0.1816  0.0882
 9111TIP3    H127297   6.685   1.432   1.955 -0.9870  0.7806 -0.6018
 9111TIP3    H227298   6.676   1.432   2.107  1.0959  0.4521 -0.4576
 9112TIP3   OH227299   0.023   0.440   5.608  0.5248 -0.2542  0.2369
 9112TIP3    H127300  -0.048   0.414   5.667 -0.1204  1.5209  0.2958
 9112TIP3    H227301   0.097   0.459   5.666  1.5078 -3.2131  0.1130
 9113TIP3   OH227302   6.183   0.641   5.419 -0.3603  0.1518  0.3308
 9113TIP3    H127303   6.278   0.639   5.421 -0.3903 -1.2319  1.3750
 9113TIP3    H227304   6.156   0.554   5.447 -1.9410  0.7644  0.8363
 9114TIP3   OH227305   4.807   1.673   0.528 -0.3923 -0.3279  0.0009
 9114TIP3    H127306   4.771   1.602   0.581 -1.3368 -0.4276 -0.7359
 9114TIP3    H227307   4.737   1.693   0.465 -0.2390  1.4132  0.3488
 9115TIP3   OH227308   5.595   4.082   3.096 -0.4091 -0.1056 -0.2045
 9115TIP3    H127309   5.575   4.150   3.031  0.4541  0.7457  0.4117
 9115TIP3    H227310   5.638   4.013   3.045 -0.2326  0.3149 -0.6305
 9116TIP3   OH227311   4.569   4.326   2.940 -0.2037  0.2241  0.3811
 9116TIP3    H127312   4.553   4.254   2.880 -0.6963 -0.8219  1.7170
 9116TIP3    H227313   4.580   4.403   2.884 -1.2272 -0.6022 -0.9956
 9117TIP3   OH227314   3.610   3.252   3.388 -0.2445  0.4573 -0.4870
 9117TIP3    H127315   3.560   3.323   3.428 -0.1707  0.8545 -1.0767
 9117TIP3    H227316   3.603   3.179   3.449  0.1288  1.1394  0.3910
 9118TIP3   OH227317   3.524   2.578   3.656 -0.5760  0.5292  0.4500
 9118TIP3    H127318   3.541   2.671   3.644  1.2059 -0.0334 -2.2874
 9118TIP3    H227319   3.528   2.564   3.751  0.4180  2.9995  0.8333
 9119TIP3   OH227320   3.241   6.190   4.725 -0.3111  0.2796  0.5040
 9119TIP3    H127321   3.147   6.204   4.710 -0.2079  1.0923  0.5691
 9119TIP3    H227322   3.248   6.097   4.746 -1.1736  0.3241  1.0481
 9120TIP3   OH227323   2.901   0.613   5.493 -0.1755  0.1956 -0.4993
 9120TIP3    H127324   2.835   0.561   5.540  1.1733 -0.8003  0.3767
 9120TIP3    H227325   2.872   0.612   5.402 -0.7796 -1.1622 -0.3157
 9121TIP3   OH227326   6.710   5.736   1.822 -0.3806 -0.7310 -0.0433
 9121TIP3    H127327   6.794   5.774   1.849 -1.1597  0.0117  1.4854
 9121TIP3    H227328   6.646   5.776   1.881 -1.4882 -3.1127  0.4960
 9122TIP3   OH227329   6.551   4.727   1.657  0.0956 -0.4114 -0.2059
 9122TIP3    H127330   6.555   4.692   1.568  0.9906 -0.1860 -0.2579
 9122TIP3    H227331   6.635   4.705   1.696  0.0307  0.2251  0.3140
 9123TIP3   OH227332   2.452   1.019   3.504  0.5457 -0.0074 -0.4635
 9123TIP3    H127333   2.365   1.013   3.466 -0.1272  0.8025  0.8857
 9123TIP3    H227334   2.457   0.946   3.565  0.2558  0.7702  0.5128
 9124TIP3   OH227335   2.844   1.639   4.668  0.3455  0.3838  0.5842
 9124TIP3    H127336   2.775   1.628   4.733  0.6258  0.4772  0.9001
 9124TIP3    H227337   2.816   1.713   4.615 -0.7449 -0.7615 -0.5110
 9125TIP3   OH227338   3.091   0.187   5.108 -0.3304  0.2718 -0.7462
 9125TIP3    H127339   3.080   0.273   5.150  0.4882  0.1540 -0.2777
 9125TIP3    H227340   3.094   0.125   5.181  2.5433  0.2042 -0.8288
 9126TIP3   OH227341   1.597   2.152   1.168 -0.3211  0.6346  0.5233
 9126TIP3    H127342   1.592   2.093   1.243 -0.6274 -1.6895 -1.2243
 9126TIP3    H227343   1.547   2.229   1.195  0.5707  0.3958  3.1041
 9127TIP3   OH227344   2.320   2.353   4.334  0.1819 -0.4321  0.0325
 9127TIP3    H127345   2.317   2.265   4.370 -0.8581 -1.0808 -1.5524
 9127TIP3    H227346   2.245   2.398   4.374 -0.4154 -0.8587 -0.5982
 9128TIP3   OH227347   6.574   6.593   1.540 -0.2253 -0.4051  0.7450
 9128TIP3    H127348   6.584   6.676   1.493  0.2036 -0.5897  0.5092
 9128TIP3    H227349   6.517   6.615   1.614 -1.1822 -0.1898 -0.0387
 9129TIP3   OH227350   2.834   4.714   2.037  0.3423 -0.3408  0.2348
 9129TIP3    H127351   2.853   4.683   1.948  0.0844  0.9446 -0.2986
 9129TIP3    H227352   2.747   4.681   2.056  0.4151 -0.6601  0.0236
 9130TIP3   OH227353   1.517   6.579   5.131 -0.1081  0.3060  0.1491
 9130TIP3    H127354   1.524   6.599   5.037  2.5997 -2.6310 -0.4382
 9130TIP3    H227355   1.438   6.525   5.138 -0.3112  0.5215 -0.4226
 9131TIP3   OH227356   5.221   5.118   3.771 -0.6796  0.3646  0.0818
 9131TIP3    H127357   5.137   5.154   3.742 -0.1804  1.8269  0.3515
 9131TIP3    H227358   5.287   5.171   3.725  0.0951  0.1970  0.9708
 9132TIP3   OH227359   2.413   2.618   2.855 -0.0460 -0.1689 -0.1859
 9132TIP3    H127360   2.439   2.710   2.859 -1.0799  0.1116  0.4555
 9132TIP3    H227361   2.318   2.620   2.853 -0.1010 -1.2571  0.5858
 9133TIP3   OH227362   6.242   4.665   1.501 -0.0843 -0.6874  0.0197
 9133TIP3    H127363   6.332   4.695   1.494  0.4494 -2.3369 -0.9005
 9133TIP3    H227364   6.189   4.739   1.470  0.8242  0.7019  1.6126
 9134TIP3   OH227365   1.669   0.635   1.922 -0.3112  0.6730 -0.1897
 9134TIP3    H127366   1.600   0.580   1.959 -1.4157  1.7366 -0.6077
 9134TIP3    H227367   1.654   0.634   1.828 -0.9237  2.3728 -0.1535
 9135TIP3   OH227368   5.322   6.391   1.295  0.3277 -0.1752  0.4165
 9135TIP3    H127369   5.393   6.451   1.274 -0.0424  0.1560  0.1011
 9135TIP3    H227370   5.243   6.434   1.261  0.1457 -1.1587 -0.4377
 9136TIP3   OH227371   7.242   0.782   0.521 -0.0864  0.4744  0.1175
 9136TIP3    H127372   7.252   0.801   0.428 -0.3688  1.7412  0.3313
 9136TIP3    H227373   7.148   0.771   0.534 -0.0306  0.0849  0.2272
 9137TIP3   OH227374   7.154   2.406   0.673  0.2116 -0.4421 -0.3597
 9137TIP3    H127375   7.120   2.326   0.633  0.5673 -0.3669 -0.8282
 9137TIP3    H227376   7.127   2.402   0.764  0.7275 -1.3783 -0.2439
 9138TIP3   OH227377   0.313   3.366   1.843  0.8071 -0.5080  0.4867
 9138TIP3    H127378   0.322   3.378   1.937  3.3007 -0.4685  0.3273
 9138TIP3    H227379   0.375   3.428   1.805 -0.9905  0.3168 -1.2838
 9139TIP3   OH227380   3.606   6.094   0.053  0.4224  1.0541 -0.2573
 9139TIP3    H127381   3.600   6.185   0.023 -1.6503  0.5133 -1.6673
 9139TIP3    H227382   3.525   6.079   0.102  1.6771  0.5226  1.8239
 9140TIP3   OH227383   0.638   1.679   5.227  0.1236 -0.2235 -0.1237
 9140TIP3    H127384   0.644   1.738   5.153  1.5728  0.3099  0.3918
 9140TIP3    H227385   0.640   1.591   5.188 -2.6716 -0.0244 -0.9383
 9141TIP3   OH227386   3.281   3.394   2.208 -0.1627  0.0921 -0.2586
 9141TIP3    H127387   3.223   3.405   2.132  1.0363  0.1974 -1.1962
 9141TIP3    H227388   3.333   3.474   2.210  1.0927 -0.6912 -0.4656
 9142TIP3   OH227389   0.672   3.933   2.294  0.3091 -0.2008 -0.3357
 9142TIP3    H127390   0.616   3.879   2.351 -0.3226 -0.4433 -1.1543
 9142TIP3    H227391   0.761   3.904   2.314  0.0740 -0.5445  0.2555
 9143TIP3   OH227392   6.818   3.293   5.423  0.2356 -0.0999  0.3934
 9143TIP3    H127393   6.727   3.273   5.398  0.0834  1.7775 -0.7326
 9143TIP3    H227394   6.870   3.238   5.365 -0.1731 -0.2381  0.1487
 9144TIP3   OH227395   6.750   6.554   5.457  0.1634 -0.1143  0.4080
 9144TIP3    H127396   6.821   6.491   5.448 -0.3910 -0.6073 -0.8820
 9144TIP3    H227397   6.762   6.593   5.544  3.5425  1.7283 -0.6886
 9145TIP3   OH227398   4.856   3.923   4.299  0.2646 -0.3684 -0.2229
 9145TIP3    H127399   4.875   3.961   4.384  0.1709  0.5371 -0.5939
 9145TIP3    H227400   4.774   3.875   4.311  1.6525 -2.6028  0.8807
 9146TIP3   OH227401   3.467   0.133   0.682  0.3684 -0.2592  0.5706
 9146TIP3    H127402   3.552   0.174   0.697 -0.3353  1.4263  0.1553
 9146TIP3    H227403   3.479   0.081   0.602  1.1797 -0.5792  0.8962
 9147TIP3   OH227404   1.893   2.895   0.897  0.2096  0.4877 -0.3139
 9147TIP3    H127405   1.850   2.981   0.897 -1.1422 -0.1671 -0.8264
 9147TIP3    H227406   1.821   2.832   0.891  1.2798 -0.6229 -2.6630
 9148TIP3   OH227407   4.217   0.837   3.207 -0.1178  0.0839  0.4223
 9148TIP3    H127408   4.131   0.869   3.235 -1.3271  2.1746 -4.4885
 9148TIP3    H227409   4.262   0.916   3.176  2.3970 -1.3891  0.1337
 9149TIP3   OH227410   5.681   5.504   4.400  0.6073  0.1067 -0.1686
 9149TIP3    H127411   5.731   5.487   4.320  0.7585 -0.3105  0.0138
 9149TIP3    H227412   5.606   5.556   4.370  1.0116  0.5187 -0.4793
 9150TIP3   OH227413   3.861   0.668   3.712  0.1720 -0.7967 -0.7721
 9150TIP3    H127414   3.875   0.734   3.644  0.3408  1.0541  0.9501
 9150TIP3    H227415   3.770   0.678   3.737  0.4499 -0.5043  0.1717
 9151TIP3   OH227416   2.705   6.665   3.574 -0.2295  0.5204  0.1373
 9151TIP3    H127417   2.748   6.580   3.577 -1.5610 -0.1536  1.5209
 9151TIP3    H227418   2.729   6.701   3.489 -0.7548 -1.8533 -1.1122
 9152TIP3   OH227419   2.504   4.410   5.514  0.5118  0.2838  0.5676
 9152TIP3    H127420   2.425   4.391   5.564 -0.6730 -3.5789 -2.3505
 9152TIP3    H227421   2.559   4.332   5.524  0.4991 -0.4007 -3.3992
 9153TIP3   OH227422   1.548   1.700   4.062  0.0198  0.2908  0.0423
 9153TIP3    H127423   1.593   1.785   4.060 -0.9805  0.9608  2.3164
 9153TIP3    H227424   1.616   1.637   4.086  0.6574  0.5048 -1.1360
 9154TIP3   OH227425   2.685   2.648   2.955  0.3096  0.7397 -0.5760
 9154TIP3    H127426   2.727   2.695   2.883  1.7723  1.5878  0.7647
 9154TIP3    H227427   2.592   2.670   2.947  0.7207  2.4223 -1.0373
 9155TIP3   OH227428   1.737   4.247   2.425 -0.0093  0.6073 -0.2853
 9155TIP3    H127429   1.781   4.195   2.492  0.7715 -0.5255 -1.6203
 9155TIP3    H227430   1.758   4.338   2.448  0.7036  0.2177  0.6808
 9156TIP3   OH227431   0.948   0.786   1.337 -0.1203 -0.4597  0.2269
 9156TIP3    H127432   0.869   0.818   1.381  0.2595  0.2158  0.4216
 9156TIP3    H227433   1.020   0.824   1.386  0.3209 -0.1970 -0.6128
 9157TIP3   OH227434   3.810   2.267   4.682  0.7781  0.2310  0.1406
 9157TIP3    H127435   3.842   2.234   4.766  0.6703 -1.1034 -0.3219
 9157TIP3    H227436   3.733   2.213   4.663  1.0163  0.2828 -0.9945
 9158TIP3   OH227437   2.452   1.294   3.570  0.6484  0.0378 -0.6395
 9158TIP3    H127438   2.442   1.386   3.547  1.7519  0.4747  0.4333
 9158TIP3    H227439   2.445   1.293   3.666 -2.2030 -1.4363 -0.7723
 9159TIP3   OH227440   4.839   2.060   1.879 -0.0959  0.1851 -0.0128
 9159TIP3    H127441   4.787   2.139   1.876 -0.1726  0.1017 -2.0923
 9159TIP3    H227442   4.808   2.014   1.957 -0.6887  1.7365  0.7088
 9160TIP3   OH227443   2.221   2.577   5.232 -0.5102 -0.5292  0.1464
 9160TIP3    H127444   2.141   2.621   5.205  0.0060  1.1534  1.1598
 9160TIP3    H227445   2.228   2.501   5.174 -2.3105 -0.1796 -0.5954
 9161TIP3   OH227446   2.288   5.519   0.047 -0.0189 -0.3127  0.5353
 9161TIP3    H127447   2.302   5.502  -0.046  0.0409  0.7762  0.3281
 9161TIP3    H227448   2.321   5.441   0.091 -0.5061 -1.0599 -0.3751
 9162TIP3   OH227449   2.468   1.496   5.197  0.5133 -0.3233  0.1012
 9162TIP3    H127450   2.498   1.407   5.178  1.2667 -1.0239  3.8959
 9162TIP3    H227451   2.543   1.538   5.238 -0.3852  1.5418 -0.0839
 9163TIP3   OH227452   7.173   3.808   0.569  0.3094  0.8489 -0.3434
 9163TIP3    H127453   7.125   3.810   0.487 -1.5196  0.7320  0.6722
 9163TIP3    H227454   7.108   3.830   0.636  2.0865  2.6680  0.9342
 9164TIP3   OH227455   5.457   1.416   1.829 -0.2334  0.1818  0.2763
 9164TIP3    H127456   5.453   1.322   1.815 -0.8394  0.2361  0.0491
 9164TIP3    H227457   5.517   1.449   1.762 -0.4025  0.0167  0.0434
 9165TIP3   OH227458   0.294   4.785   4.679  0.1493  0.0787 -0.2213
 9165TIP3    H127459   0.366   4.773   4.616 -1.5985 -0.8754 -2.1645
 9165TIP3    H227460   0.260   4.872   4.659  0.0974  0.0991 -0.0394
 9166TIP3   OH227461   2.701   0.520   5.648  0.2099 -0.1233 -0.4782
 9166TIP3    H127462   2.716   0.444   5.704 -0.8174  0.8674  1.2233
 9166TIP3    H227463   2.611   0.511   5.618 -0.1743  0.7972  0.3649
 9167TIP3   OH227464   1.946   5.735   2.746  1.0142  0.2243 -0.0414
 9167TIP3    H127465   1.877   5.686   2.702  0.6188 -0.7210  1.5300
 9167TIP3    H227466   2.004   5.765   2.676 -0.1655 -0.2492 -1.2616
 9168TIP3   OH227467   5.476   4.484   4.857 -0.2355  0.3113 -0.7014
 9168TIP3    H127468   5.462   4.562   4.803 -0.8450  0.6508 -0.0715
 9168TIP3    H227469   5.391   4.469   4.898  0.0331 -0.3653 -0.3934
 9169TIP3   OH227470   3.698   3.686   0.881  0.4365 -0.7147 -0.2401
 9169TIP3    H127471   3.760   3.617   0.859 -0.5842 -2.0570  0.9362
 9169TIP3    H227472   3.672   3.722   0.796  1.6587 -1.1599 -0.8186
 9170TIP3   OH227473   2.195   6.627   3.405  0.2256  0.3147 -0.5943
 9170TIP3    H127474   2.281   6.628   3.364 -0.2060  1.3481 -1.5331
 9170TIP3    H227475   2.212   6.647   3.497  0.8529  2.7549 -1.1602
 9171TIP3   OH227476   1.336   4.457   5.552 -0.3160  0.4150  0.4022
 9171TIP3    H127477   1.379   4.424   5.631 -0.1829 -0.1684  0.0959
 9171TIP3    H227478   1.337   4.552   5.561  0.3162  0.3750  0.7803
 9172TIP3   OH227479   6.818   5.600   5.067 -0.1437  0.3473  0.0303
 9172TIP3    H127480   6.865   5.661   5.123  0.5327 -0.5133  0.4351
 9172TIP3    H227481   6.809   5.645   4.984  2.8552 -0.0085 -0.6024
 9173TIP3   OH227482   2.373   2.626   4.397  0.6587 -0.0230  0.0749
 9173TIP3    H127483   2.325   2.616   4.479  1.9337 -0.0179  0.8384
 9173TIP3    H227484   2.419   2.544   4.385  0.5782  0.0193 -0.5906
 9174TIP3   OH227485   2.406   4.962   5.604 -0.7285  0.1554  0.1309
 9174TIP3    H127486   2.436   4.874   5.580  1.8494  0.5701  1.4456
 9174TIP3    H227487   2.374   4.952   5.694  0.8396  0.7322  0.7939
 9175TIP3   OH227488   4.563   5.678   0.209  0.5491  0.0297  0.0768
 9175TIP3    H127489   4.642   5.641   0.169  0.5357  1.1206 -1.0063
 9175TIP3    H227490   4.492   5.650   0.151  0.3679  0.5619  0.0431
 9176TIP3   OH227491   1.184   5.805   4.515 -0.2036  0.2775 -0.6285
 9176TIP3    H127492   1.255   5.791   4.578 -0.9839 -1.3603 -0.0588
 9176TIP3    H227493   1.160   5.897   4.527 -0.3443  0.0189  1.5141
 9177TIP3   OH227494   6.778   6.336   2.048  0.3196  0.7922  0.1884
 9177TIP3    H127495   6.770   6.323   1.953 -0.9103  1.7614  0.1268
 9177TIP3    H227496   6.761   6.250   2.086  0.5332  0.4568 -0.4502
 9178TIP3   OH227497   4.546   2.157   5.255  0.4673  0.0755 -0.2299
 9178TIP3    H127498   4.498   2.239   5.271 -0.2748 -0.2686 -0.6502
 9178TIP3    H227499   4.479   2.095   5.226  1.0180 -0.6931  0.0927
 9179TIP3   OH227500   3.223   5.708   3.217  0.2353 -0.7909 -0.0335
 9179TIP3    H127501   3.289   5.757   3.168  1.4351 -0.8669  1.4444
 9179TIP3    H227502   3.217   5.753   3.301 -0.5193 -1.6714  0.3978
 9180TIP3   OH227503   2.574   6.540   4.362  0.4624 -0.4859  0.0095
 9180TIP3    H127504   2.485   6.505   4.357  0.1423  0.1929  0.7337
 9180TIP3    H227505   2.571   6.619   4.307  0.2674  0.2105  0.9847
 9181TIP3   OH227506   4.515   6.240   0.722 -0.0199  0.4215 -0.0196
 9181TIP3    H127507   4.437   6.292   0.703  0.8793  1.9961  0.4111
 9181TIP3    H227508   4.527   6.248   0.817 -0.6785 -1.8233  0.3062
 9182TIP3   OH227509   5.995   4.724   4.466 -0.2023 -0.3605  0.0457
 9182TIP3    H127510   5.965   4.793   4.526 -2.4466 -0.4716 -0.8594
 9182TIP3    H227511   5.990   4.644   4.518 -1.5854 -0.3770 -0.0727
 9183TIP3   OH227512   0.859   4.695   1.365 -0.0386  0.1542 -0.4724
 9183TIP3    H127513   0.879   4.770   1.421 -0.8121  0.3825 -0.4853
 9183TIP3    H227514   0.818   4.632   1.425 -1.9773  0.8712 -0.9630
 9184TIP3   OH227515   2.410   0.566   3.225 -0.4320 -0.1104  0.3167
 9184TIP3    H127516   2.339   0.629   3.210 -0.2583  0.2280  0.9003
 9184TIP3    H227517   2.490   0.618   3.219 -0.3378  0.0476  2.2572
 9185TIP3   OH227518   5.150   4.597   2.504  0.5340  0.3405  0.0401
 9185TIP3    H127519   5.090   4.672   2.506  1.9084  1.4753  0.3730
 9185TIP3    H227520   5.190   4.601   2.417 -0.0787 -0.6016 -0.2991
 9186TIP3   OH227521   2.260   6.003   2.573 -0.1101  0.2271  0.1072
 9186TIP3    H127522   2.221   5.923   2.607  0.3244  0.0046  0.0906
 9186TIP3    H227523   2.187   6.065   2.568 -0.1044  0.4841  2.0667
 9187TIP3   OH227524   1.839   5.450   0.833  0.7245 -0.7496  0.2809
 9187TIP3    H127525   1.844   5.453   0.928  2.0933  2.5526  0.2654
 9187TIP3    H227526   1.745   5.440   0.814 -0.1185  2.1288  2.1538
 9188TIP3   OH227527   3.880   1.384   0.931  0.2035  0.3597 -0.2500
 9188TIP3    H127528   3.902   1.305   0.981  3.3539  1.5786  0.5144
 9188TIP3    H227529   3.922   1.371   0.846 -0.8236  0.4801 -0.7915
 9189TIP3   OH227530   1.058   5.329   3.616 -0.1911  0.7686  0.2611
 9189TIP3    H127531   1.093   5.319   3.704  1.3439 -0.7173 -0.4636
 9189TIP3    H227532   1.126   5.375   3.568 -0.0024 -0.4593 -0.6925
 9190TIP3   OH227533   6.095   1.088   1.503 -0.7978 -0.3739  0.7536
 9190TIP3    H127534   6.124   1.156   1.441 -1.6631 -0.3497  0.3621
 9190TIP3    H227535   6.144   1.010   1.477 -0.8239 -0.2483  0.3131
 9191TIP3   OH227536   6.439   4.924   1.210  0.4263 -0.0193 -0.3240
 9191TIP3    H127537   6.434   4.829   1.220  0.8026  0.0641  0.8408
 9191TIP3    H227538   6.359   4.947   1.165 -0.4057 -0.7440  0.7221
 9192TIP3   OH227539   2.372   3.737   5.259  0.0180  0.2971  0.0651
 9192TIP3    H127540   2.372   3.650   5.219  2.8636 -0.2308  0.9586
 9192TIP3    H227541   2.406   3.795   5.191  0.0191  0.3494  0.1098
 9193TIP3   OH227542   5.579   0.908   4.783 -0.3246 -0.0582  0.3502
 9193TIP3    H127543   5.577   0.973   4.853  0.9846  0.3583  0.0192
 9193TIP3    H227544   5.488   0.880   4.774 -0.5531 -0.0190  2.1241
 9194TIP3   OH227545   5.030   5.749   3.363  0.2410  0.4530  0.2826
 9194TIP3    H127546   4.976   5.804   3.420  0.7728  2.0231 -0.6687
 9194TIP3    H227547   5.120   5.772   3.386  0.4871 -0.5746  0.3775
 9195TIP3   OH227548   1.297   3.254   4.012  0.5726 -0.0070  1.1414
 9195TIP3    H127549   1.281   3.266   4.106 -0.3131 -1.0520  1.1409
 9195TIP3    H227550   1.210   3.255   3.973  0.8905 -0.2794  0.4145
 9196TIP3   OH227551   2.891   5.171   2.192 -0.4192  0.7549 -0.5788
 9196TIP3    H127552   2.934   5.161   2.278 -1.1095  0.6054 -0.2414
 9196TIP3    H227553   2.954   5.219   2.139 -0.3958  1.7699  0.3366
 9197TIP3   OH227554   0.350   4.456   0.629  0.0416  0.6010  0.0600
 9197TIP3    H127555   0.383   4.375   0.589 -1.4389  0.4264 -0.8862
 9197TIP3    H227556   0.258   4.438   0.646 -0.4487  2.2556 -0.6846
 9198TIP3   OH227557   6.301   6.336   4.347 -0.4643 -0.2192  0.2841
 9198TIP3    H127558   6.315   6.416   4.296 -0.0506 -1.4058 -1.5633
 9198TIP3    H227559   6.223   6.297   4.308 -0.0086 -1.2824  0.4231
 9199TIP3   OH227560   0.518   3.463   1.478  0.3827  0.3214 -0.0734
 9199TIP3    H127561   0.484   3.536   1.426  1.7101  0.7326 -0.4188
 9199TIP3    H227562   0.466   3.388   1.451 -2.0575  1.3671  1.3941
 9200TIP3   OH227563   6.507   3.480   0.913  0.4027  0.2799  0.1404
 9200TIP3    H127564   6.461   3.488   0.830  0.7756 -0.2588 -0.1215
 9200TIP3    H227565   6.584   3.537   0.903  0.0460  0.8197  0.4084
 9201TIP3   OH227566   5.203   1.430   0.272 -0.2106 -0.1174  0.0073
 9201TIP3    H127567   5.113   1.423   0.305 -1.4413  1.8860 -2.6465
 9201TIP3    H227568   5.202   1.383   0.189  0.4171  2.0770 -1.3276
 9202TIP3   OH227569   2.873   4.682   1.476  0.1362  0.4340 -0.1945
 9202TIP3    H127570   2.796   4.625   1.476 -0.2224  0.9105 -0.1625
 9202TIP3    H227571   2.938   4.634   1.426 -0.2161  0.0667 -0.3082
 9203TIP3   OH227572   0.140   6.741   4.467 -0.0302 -0.1944 -0.8431
 9203TIP3    H127573   0.219   6.776   4.508  1.0346 -2.7721 -0.5042
 9203TIP3    H227574   0.070   6.762   4.528  0.6580  0.6537 -0.3235
 9204TIP3   OH227575   2.972   5.853   3.482  0.0138 -0.6097  0.3474
 9204TIP3    H127576   2.912   5.918   3.518 -1.4216 -0.5833 -1.8967
 9204TIP3    H227577   2.990   5.793   3.555 -0.4650  0.9705  1.8315
 9205TIP3   OH227578   1.522   5.547   3.297 -0.2101 -0.1349  0.5666
 9205TIP3    H127579   1.465   5.506   3.232  0.1146  1.1108 -0.5420
 9205TIP3    H227580   1.506   5.497   3.377 -2.4857 -0.1194  0.1858
 9206TIP3   OH227581   4.801   4.337   4.793  0.1001 -0.0566  0.4293
 9206TIP3    H127582   4.748   4.270   4.836  0.4592 -1.6620 -1.4691
 9206TIP3    H227583   4.888   4.327   4.832  0.1668 -0.7569  0.1175
 9207TIP3   OH227584   3.019   0.236   3.675 -0.2036 -0.4928  0.1374
 9207TIP3    H127585   3.085   0.282   3.623  0.1123 -0.4310  0.5848
 9207TIP3    H227586   3.032   0.143   3.654 -0.6351 -0.4099 -0.5292
 9208TIP3   OH227587   0.192   6.177   2.958  0.2236  0.3495 -0.0898
 9208TIP3    H127588   0.179   6.250   2.897  2.0917  0.2834 -0.6390
 9208TIP3    H227589   0.252   6.212   3.024 -1.2139  0.1895  1.3503
 9209TIP3   OH227590   4.827   4.668   1.088  0.0709  0.0107 -0.2870
 9209TIP3    H127591   4.822   4.572   1.092  0.2433 -0.0748 -1.6897
 9209TIP3    H227592   4.920   4.687   1.093  0.2907 -0.0952 -2.8342
 9210TIP3   OH227593   0.887   4.074   4.175 -0.5271 -0.1009  0.9145
 9210TIP3    H127594   0.831   4.020   4.231 -0.6647 -1.6781 -0.6537
 9210TIP3    H227595   0.943   4.011   4.130 -0.0567  1.1557 -0.3111
 9211TIP3   OH227596   4.873   1.420   4.500 -0.2633  0.3454  0.1317
 9211TIP3    H127597   4.875   1.396   4.407  0.2754  1.8416 -0.2669
 9211TIP3    H227598   4.915   1.506   4.503 -1.1136  0.7299  1.6335
 9212TIP3   OH227599   3.694   5.880   0.233 -0.8594  0.3910  0.2067
 9212TIP3    H127600   3.745   5.803   0.207  0.6470  0.2157  3.1901
 9212TIP3    H227601   3.699   5.939   0.158 -1.4357 -2.0475 -1.8905
 9213TIP3   OH227602   3.400   0.927   1.038  0.6123  0.7190 -0.0185
 9213TIP3    H127603   3.368   0.898   1.124 -0.6661 -0.7911 -0.9421
 9213TIP3    H227604   3.332   0.986   1.006  1.4427  1.8720  0.2852
 9214TIP3   OH227605   3.401   1.692   1.432 -0.4988  0.1932  0.0220
 9214TIP3    H127606   3.489   1.730   1.422 -0.7648  0.8380  0.0957
 9214TIP3    H227607   3.358   1.709   1.348 -0.4198 -0.4821 -0.1584
 9215TIP3   OH227608   1.541   2.975   2.775  0.1391 -0.6033 -0.3815
 9215TIP3    H127609   1.589   2.961   2.856 -0.3036  1.2374  0.2602
 9215TIP3    H227610   1.608   2.982   2.707  0.7433  0.7639  0.3177
 9216TIP3   OH227611   4.464   2.507   2.112  0.2725  0.0339 -0.0761
 9216TIP3    H127612   4.370   2.509   2.092 -0.0722  1.1561  1.4029
 9216TIP3    H227613   4.494   2.596   2.091  0.4076  0.4897  1.8634
 9217TIP3   OH227614   1.870   1.545   0.940 -0.3115  0.3771  0.5123
 9217TIP3    H127615   1.807   1.536   0.869 -0.1354 -0.0571  0.4099
 9217TIP3    H227616   1.885   1.455   0.970 -0.2898  0.5471  1.0150
 9218TIP3   OH227617   3.614   6.013   3.782 -0.1981  0.5071  0.4988
 9218TIP3    H127618   3.621   5.951   3.709 -0.1691  0.7491  0.2938
 9218TIP3    H227619   3.558   6.083   3.749  1.6512  1.7764 -0.1348
 9219TIP3   OH227620   3.502   0.394   5.594 -0.4432  0.3302 -0.5550
 9219TIP3    H127621   3.586   0.350   5.583 -0.5305 -0.2346  0.8646
 9219TIP3    H227622   3.449   0.364   5.520 -0.1662 -1.1744 -0.1654
 9220TIP3   OH227623   4.784   0.691   0.493 -0.2322  0.3740  0.0430
 9220TIP3    H127624   4.721   0.619   0.495 -1.0602  1.0461 -0.8746
 9220TIP3    H227625   4.868   0.649   0.477 -0.5622 -0.4594  0.4374
 9221TIP3   OH227626   3.130   3.728   2.379  0.7578 -0.1543 -0.1346
 9221TIP3    H127627   3.112   3.821   2.362  1.3268  0.0535  0.3851
 9221TIP3    H227628   3.053   3.682   2.344 -1.3496  0.7755  2.9241
 9222TIP3   OH227629   7.081   2.608   1.114  0.3588 -0.2342  0.2191
 9222TIP3    H127630   7.177   2.608   1.108  0.3906  0.5985  0.5709
 9222TIP3    H227631   7.058   2.518   1.135  1.1578 -0.2030  1.3284
 9223TIP3   OH227632   3.502   6.316   4.734 -0.2827 -0.2843 -0.0920
 9223TIP3    H127633   3.479   6.402   4.698 -1.1295 -0.0251  0.9966
 9223TIP3    H227634   3.418   6.279   4.761  0.3135 -0.3971  1.7018
 9224TIP3   OH227635   2.422   2.840   0.467 -0.8031 -0.1568  0.2249
 9224TIP3    H127636   2.336   2.823   0.427 -0.4189 -0.0422 -0.6873
 9224TIP3    H227637   2.452   2.920   0.424  0.1303 -0.6641 -0.0958
 9225TIP3   OH227638   6.503   5.321   5.257 -0.5682 -0.2785 -0.1986
 9225TIP3    H127639   6.592   5.325   5.291 -0.6201 -0.4251 -0.0486
 9225TIP3    H227640   6.448   5.342   5.332 -0.6992 -0.9440 -0.1047
 9226TIP3   OH227641   7.141   1.480   0.620  0.4539 -0.3399  0.2145
 9226TIP3    H127642   7.163   1.573   0.613  1.2504 -0.4003  1.5880
 9226TIP3    H227643   7.074   1.476   0.688 -1.9234 -0.4773 -1.9973
 9227TIP3   OH227644   1.844   5.127   1.948 -0.2913  0.2685  0.1829
 9227TIP3    H127645   1.833   5.109   1.854  0.9102  0.2311  0.0269
 9227TIP3    H227646   1.805   5.214   1.960 -0.9582  0.0375 -0.2282
 9228TIP3   OH227647   6.608   5.377   3.035  0.0488 -0.1945 -0.5586
 9228TIP3    H127648   6.593   5.292   2.995 -1.6621 -0.1405 -0.1318
 9228TIP3    H227649   6.623   5.436   2.961  5.2230 -1.3857 -0.8078
 9229TIP3   OH227650   1.308   6.686   3.011  0.5282  0.5396 -0.5795
 9229TIP3    H127651   1.273   6.716   3.095  5.1157  0.8787  1.5284
 9229TIP3    H227652   1.323   6.767   2.962 -0.9081  0.4218 -1.2867
 9230TIP3   OH227653   5.674   4.615   3.287 -0.0119  0.0034 -0.0397
 9230TIP3    H127654   5.605   4.628   3.352 -0.9038  1.3778 -1.2043
 9230TIP3    H227655   5.729   4.546   3.325 -1.9232 -1.0551  1.0072
 9231TIP3   OH227656   4.449   4.150   4.438 -0.0512 -0.1526  0.5022
 9231TIP3    H127657   4.387   4.160   4.365  0.6554 -1.1954 -0.2592
 9231TIP3    H227658   4.475   4.240   4.459 -2.3757  0.4171  1.3778
 9232TIP3   OH227659   7.140   1.626   2.667 -0.3584  0.3223  0.4829
 9232TIP3    H127660   7.167   1.599   2.580  0.2758 -3.3048  1.6307
 9232TIP3    H227661   7.218   1.667   2.705  0.3903 -0.9428  0.3624
 9233TIP3   OH227662   5.851   0.656   1.016 -0.1074 -0.3104 -0.1337
 9233TIP3    H127663   5.808   0.733   0.978 -0.5628 -0.6716 -0.3623
 9233TIP3    H227664   5.809   0.581   0.972  0.2159 -0.6935  0.2019
 9234TIP3   OH227665   2.254   2.941   4.537 -0.0196  0.4466  0.0384
 9234TIP3    H127666   2.292   2.995   4.468  0.4368  0.1620  0.0644
 9234TIP3    H227667   2.263   2.993   4.616  2.0813 -0.3809  0.3988
 9235TIP3   OH227668   0.053   0.558   2.850  0.5867  0.2667  0.4067
 9235TIP3    H127669   0.136   0.548   2.804 -0.3258 -0.1689 -1.2367
 9235TIP3    H227670  -0.012   0.523   2.789 -1.1913  3.3088  0.3545
 9236TIP3   OH227671   4.168   2.263   3.719  0.0883  0.2652  0.0067
 9236TIP3    H127672   4.145   2.171   3.705 -0.1781  0.3773 -0.3144
 9236TIP3    H227673   4.085   2.310   3.709  0.6207  0.8202 -2.4379
 9237TIP3   OH227674   2.917   1.644   0.893  0.1530  0.4549 -0.3201
 9237TIP3    H127675   2.973   1.605   0.826  1.1536  2.6818 -0.8914
 9237TIP3    H227676   2.940   1.598   0.974  0.6261 -0.6832 -1.0785
 9238TIP3   OH227677   0.582   0.405   3.505  0.4131  0.5103 -0.1722
 9238TIP3    H127678   0.509   0.450   3.461 -0.0692 -0.0331  0.0535
 9238TIP3    H227679   0.624   0.355   3.435 -0.1527 -0.0955 -0.0899
 9239TIP3   OH227680   4.201   5.754   5.811 -0.0973  0.5123  0.1934
 9239TIP3    H127681   4.134   5.781   5.749 -0.2241  3.4906  1.4287
 9239TIP3    H227682   4.164   5.678   5.856 -1.0156 -0.1713 -1.6291
 9240TIP3   OH227683   1.088   0.943   5.372 -0.0277 -0.3133  0.6457
 9240TIP3    H127684   1.150   0.903   5.433 -0.1049  0.4234  1.2281
 9240TIP3    H227685   1.130   0.937   5.287  0.9079  0.2956  1.0508
 9241TIP3   OH227686   3.073   2.405   3.176  0.2512 -0.3394  0.0521
 9241TIP3    H127687   3.158   2.404   3.131 -0.0943 -0.2803 -0.6050
 9241TIP3    H227688   3.067   2.494   3.213 -0.4294  0.3714 -1.6699
 9242TIP3   OH227689   4.839   1.156   1.636  0.3285  0.4784  0.3833
 9242TIP3    H127690   4.866   1.151   1.728 -0.9355  0.4908  0.7705
 9242TIP3    H227691   4.745   1.143   1.638 -0.2976  3.8831 -0.5711
 9243TIP3   OH227692   0.763   5.607   2.791 -0.1245  0.0274  0.3090
 9243TIP3    H127693   0.806   5.646   2.867 -0.1112  0.6591 -0.0218
 9243TIP3    H227694   0.678   5.650   2.786 -0.7206 -1.0526  0.8215
 9244TIP3   OH227695   0.384   1.806   5.889  0.5611 -0.3496  0.1910
 9244TIP3    H127696   0.336   1.885   5.915 -0.9778 -0.7834 -1.2085
 9244TIP3    H227697   0.467   1.839   5.855 -0.0125  0.6651 -0.2583
 9245TIP3   OH227698   1.259   5.363   2.710 -0.3018 -0.0454 -0.2021
 9245TIP3    H127699   1.198   5.362   2.784 -0.0313 -1.2615  0.0344
 9245TIP3    H227700   1.255   5.274   2.675  1.6438 -0.2955  0.0948
 9246TIP3   OH227701   6.226   2.163   1.706  0.2047 -0.1806 -0.4161
 9246TIP3    H127702   6.131   2.157   1.704  0.3112 -3.2427 -2.0506
 9246TIP3    H227703   6.252   2.121   1.788  0.1765  0.4818 -0.0622
 9247TIP3   OH227704   0.927   0.372   0.855 -0.5375  0.0681 -0.4277
 9247TIP3    H127705   0.850   0.349   0.906  0.6586 -1.5948  0.7314
 9247TIP3    H227706   0.993   0.397   0.920  0.6101 -0.8307 -1.1916
 9248TIP3   OH227707   6.829   5.223   3.342 -0.6185 -0.2504  0.5288
 9248TIP3    H127708   6.894   5.152   3.343 -1.8789 -1.4695 -0.1675
 9248TIP3    H227709   6.795   5.225   3.431 -0.3163 -0.2699  0.6463
 9249TIP3   OH227710   6.019   5.183   5.143  0.1081  0.9689  0.3832
 9249TIP3    H127711   6.106   5.145   5.131  0.4019  1.1899  1.6668
 9249TIP3    H227712   6.030   5.247   5.214 -1.1756  0.7414  0.8155
 9250TIP3   OH227713   4.926   0.812   0.103 -0.6911  0.3131  0.2355
 9250TIP3    H127714   4.875   0.849   0.031 -2.0244  1.4941  1.7119
 9250TIP3    H227715   4.886   0.848   0.182  1.8061  0.4728  1.5313
 9251TIP3   OH227716   7.059   0.193   0.393 -0.1347 -0.0498 -0.2842
 9251TIP3    H127717   6.986   0.160   0.446 -0.9116  1.7564 -0.1628
 9251TIP3    H227718   7.122   0.226   0.458  0.0521 -0.1135 -0.4324
 9252TIP3   OH227719   2.350   6.299   0.978  0.2039  0.0040  0.5038
 9252TIP3    H127720   2.391   6.354   1.045 -1.2427  0.2323  1.2429
 9252TIP3    H227721   2.402   6.219   0.978  0.4878  0.1707  1.5941
 9253TIP3   OH227722   0.841   3.994   1.499  0.1087  0.0953  0.1058
 9253TIP3    H127723   0.756   3.973   1.538  0.7856  1.5708  2.5680
 9253TIP3    H227724   0.841   3.945   1.416 -2.5740 -0.9903  0.6166
 9254TIP3   OH227725   5.419   2.716   3.260 -0.1485  0.3741  0.2863
 9254TIP3    H127726   5.478   2.645   3.234 -0.7493 -0.3549  0.8432
 9254TIP3    H227727   5.332   2.684   3.237 -0.4512  0.8059  0.8089
 9255TIP3   OH227728   4.827   1.301   2.179 -0.2334 -0.5022 -0.3478
 9255TIP3    H127729   4.840   1.275   2.270  0.5905 -0.5303 -0.4677
 9255TIP3    H227730   4.904   1.354   2.158  0.1348 -1.3948 -1.3591
 9256TIP3   OH227731   0.045   6.512   1.830 -0.2715  0.1586  1.2171
 9256TIP3    H127732  -0.032   6.519   1.886 -1.8717 -1.5660 -0.6205
 9256TIP3    H227733   0.115   6.482   1.888 -1.7028 -0.9880  2.4303
 9257TIP3   OH227734   4.312   1.906   3.502 -0.0344  0.3102 -0.0313
 9257TIP3    H127735   4.334   1.977   3.442  0.4498  0.8732  0.7926
 9257TIP3    H227736   4.320   1.945   3.589 -2.1029 -0.0800  0.3890
 9258TIP3   OH227737   0.853   6.580   3.398  0.0795 -0.6273  0.1483
 9258TIP3    H127738   0.871   6.539   3.483  1.4814  2.7114  1.6370
 9258TIP3    H227739   0.766   6.548   3.374 -0.9125 -0.7730  3.4769
 9259TIP3   OH227740   4.464   5.256   3.817 -0.3171 -0.0023  0.4461
 9259TIP3    H127741   4.427   5.196   3.881 -0.4168 -0.0423  0.3513
 9259TIP3    H227742   4.559   5.252   3.833 -0.2783 -0.5746  0.1009
 9260TIP3   OH227743   5.660   1.831   3.028 -0.0249  0.2268  0.1718
 9260TIP3    H127744   5.709   1.851   2.949 -0.2958 -1.9627 -0.6198
 9260TIP3    H227745   5.720   1.849   3.100  2.6020 -3.5745 -0.7782
 9261TIP3   OH227746   1.345   4.865   3.198  0.3881  0.0941 -0.2572
 9261TIP3    H127747   1.392   4.856   3.281  1.6187 -1.5720 -1.0725
 9261TIP3    H227748   1.409   4.839   3.131 -1.1719 -0.6011 -1.5528
 9262TIP3   OH227749   6.490   6.061   5.870 -0.1785  0.0346 -0.4381
 9262TIP3    H127750   6.435   6.022   5.938  0.6242  0.5835  0.5625
 9262TIP3    H227751   6.455   6.149   5.858  0.1397  0.1987 -0.1854
 9263TIP3   OH227752   0.352   2.360   1.766 -0.2430  0.2564  0.1606
 9263TIP3    H127753   0.292   2.433   1.782 -0.3272  0.6722 -1.8019
 9263TIP3    H227754   0.432   2.402   1.735  0.4872 -0.3920  1.1165
 9264TIP3   OH227755   1.245   0.679   1.002  0.1280 -0.1792 -0.0199
 9264TIP3    H127756   1.326   0.678   1.054  1.0822 -0.6621 -1.4404
 9264TIP3    H227757   1.274   0.660   0.912 -1.6866 -1.4874 -0.3936
 9265TIP3   OH227758   3.318   2.902   1.850  0.3610  0.1734  0.4762
 9265TIP3    H127759   3.247   2.966   1.853  1.2319  1.2528 -0.7434
 9265TIP3    H227760   3.303   2.854   1.768  0.4296 -0.3403  0.7610
 9266TIP3   OH227761   6.796   4.426   1.318 -0.7835  0.5445 -0.4256
 9266TIP3    H127762   6.817   4.502   1.264 -1.2803  0.1425 -1.2164
 9266TIP3    H227763   6.878   4.404   1.361 -0.0544  0.1902 -1.9100
 9267TIP3   OH227764   4.585   4.348   4.204  0.6152 -0.1630  0.4094
 9267TIP3    H127765   4.497   4.327   4.237  1.3129 -1.4881  1.5233
 9267TIP3    H227766   4.613   4.268   4.159  0.8615  0.6118 -0.8593
 9268TIP3   OH227767   5.811   0.665   2.232 -0.3706  0.1818  0.0620
 9268TIP3    H127768   5.741   0.723   2.260 -0.8658 -0.3920  0.0450
 9268TIP3    H227769   5.888   0.721   2.223 -0.5548  0.6224  1.1545
 9269TIP3   OH227770   1.773   3.913   2.588  0.1687  0.2609 -0.4479
 9269TIP3    H127771   1.844   3.968   2.555  0.7970  0.5408  1.2742
 9269TIP3    H227772   1.747   3.953   2.670  0.2050 -1.6231  0.5393
 9270TIP3   OH227773   5.122   1.241   1.132  0.4142 -0.4060  0.1941
 9270TIP3    H127774   5.149   1.316   1.185  1.1200 -0.8437  0.4734
 9270TIP3    H227775   5.177   1.247   1.054  1.7403 -1.5872  0.9880
 9271TIP3   OH227776   0.163   4.929   0.892  0.1576  0.0438 -0.3292
 9271TIP3    H127777   0.104   4.864   0.929  1.0872 -0.1044  0.9475
 9271TIP3    H227778   0.130   4.943   0.802 -0.6553 -1.4010 -0.2821
 9272TIP3   OH227779   1.578   1.053   4.808  0.4356 -0.0562  0.0829
 9272TIP3    H127780   1.654   1.019   4.855 -0.0569  0.9252  1.6290
 9272TIP3    H227781   1.607   1.138   4.774  0.7072 -0.6448 -1.2488
 9273TIP3   OH227782   6.265   3.286   0.528 -0.1345 -0.6614  0.3202
 9273TIP3    H127783   6.265   3.270   0.434 -2.0321 -1.2159  0.3860
 9273TIP3    H227784   6.283   3.380   0.536 -0.4731 -0.5075 -0.6135
 9274TIP3   OH227785   6.009   5.670   4.981 -0.9422  0.1663  0.3820
 9274TIP3    H127786   6.077   5.662   5.048 -0.3921  1.0614 -0.0510
 9274TIP3    H227787   6.055   5.658   4.898 -1.5002 -0.2547  0.1196
 9275TIP3   OH227788   0.944   6.375   4.955 -0.0715  0.1025  0.1524
 9275TIP3    H127789   0.897   6.333   4.883 -0.0854 -0.9949  0.7807
 9275TIP3    H227790   1.027   6.403   4.916  0.3207 -1.3337 -0.0709
 9276TIP3   OH227791   6.436   2.681   4.604  0.4020  0.7479  0.0162
 9276TIP3    H127792   6.398   2.710   4.522 -2.0122  0.5714  0.9710
 9276TIP3    H227793   6.410   2.748   4.668 -0.8402 -0.7911  1.2436
 9277TIP3   OH227794   4.403   4.211   2.513 -0.4709  0.1566 -0.3051
 9277TIP3    H127795   4.362   4.290   2.548 -0.8479 -1.1249  2.3454
 9277TIP3    H227796   4.464   4.183   2.581  0.4042 -1.3048 -1.6266
 9278TIP3   OH227797   2.140   1.389   5.734 -0.3204  0.0589 -0.0238
 9278TIP3    H127798   2.133   1.308   5.786 -1.2447 -0.0356 -0.2708
 9278TIP3    H227799   2.233   1.395   5.712 -0.1430 -0.6370  0.4779
 9279TIP3   OH227800   6.773   6.490   2.469  0.1475 -0.0614  0.6112
 9279TIP3    H127801   6.739   6.501   2.380  2.7178 -0.7165 -0.5280
 9279TIP3    H227802   6.695   6.467   2.521 -1.1036 -2.0154 -1.9047
 9280TIP3   OH227803   5.541   1.029   0.208 -0.1076 -0.6055 -0.3931
 9280TIP3    H127804   5.447   1.029   0.226  0.2616 -0.5553  1.8445
 9280TIP3    H227805   5.568   0.938   0.221  0.3771 -0.3487  0.4916
 9281TIP3   OH227806   3.976   3.079   0.760  0.0086 -0.3003 -0.1421
 9281TIP3    H127807   4.012   2.991   0.751  0.4768 -0.0223 -1.0789
 9281TIP3    H227808   4.051   3.134   0.783 -0.0085  0.0894 -0.9775
 9282TIP3   OH227809   1.001   5.305   4.474 -0.6340  0.1182 -1.0278
 9282TIP3    H127810   1.009   5.307   4.570 -1.7269 -0.8975 -0.8998
 9282TIP3    H227811   1.066   5.240   4.447  1.1073  1.8225 -1.1885
 9283TIP3   OH227812   0.392   2.468   0.984  0.4053  0.4768 -0.0393
 9283TIP3    H127813   0.363   2.426   0.903 -0.3079 -0.3531  0.6211
 9283TIP3    H227814   0.473   2.423   1.006 -0.4228 -0.7170  0.7350
 9284TIP3   OH227815   2.234   4.099   0.943 -0.0910 -0.1608 -0.1058
 9284TIP3    H127816   2.299   4.158   0.906 -1.2989  0.3811 -1.4475
 9284TIP3    H227817   2.279   4.015   0.951  0.8225  0.2519 -0.7997
 9285TIP3   OH227818   6.954   6.086   3.848  0.1709  0.1504  0.6633
 9285TIP3    H127819   6.998   6.171   3.846  0.6933 -0.0670  2.0003
 9285TIP3    H227820   7.000   6.033   3.783 -1.0006  1.2538 -1.1416
 9286TIP3   OH227821   4.449   4.355   5.385 -0.4889  0.1993 -0.3074
 9286TIP3    H127822   4.503   4.306   5.324  0.8334  1.1848  0.0477
 9286TIP3    H227823   4.361   4.352   5.347 -0.0702 -0.8158 -1.2459
 9287TIP3   OH227824   0.562   6.522   0.501  0.0263 -0.1049 -0.6676
 9287TIP3    H127825   0.532   6.612   0.514  3.1688  0.8448  1.1748
 9287TIP3    H227826   0.644   6.517   0.550  0.0201 -4.0002 -0.7502
 9288TIP3   OH227827   3.122   4.395   3.606 -0.0348  0.3673  0.0351
 9288TIP3    H127828   3.127   4.403   3.701  0.4549  0.8613 -0.0291
 9288TIP3    H227829   3.214   4.394   3.577 -0.1932  1.4122 -0.5297
 9289TIP3   OH227830   4.001   2.401   0.174  0.4084  0.0535  0.0987
 9289TIP3    H127831   4.057   2.330   0.208  0.4088  0.4234  0.9053
 9289TIP3    H227832   3.926   2.403   0.234 -0.3302 -0.2289 -0.7898
 9290TIP3   OH227833   2.979   3.103   4.482 -0.4007 -0.0118  0.1208
 9290TIP3    H127834   3.024   3.033   4.529 -1.0199 -0.6699 -0.2396
 9290TIP3    H227835   2.960   3.169   4.549 -0.2345 -0.4076  0.5615
 9291TIP3   OH227836   0.782   4.216   3.371  0.9538 -0.2414  0.0431
 9291TIP3    H127837   0.749   4.202   3.282  0.3961 -1.5960  0.4392
 9291TIP3    H227838   0.715   4.269   3.414  1.4646  0.8630 -0.4636
 9292TIP3   OH227839   6.097   1.617   1.535  0.1980  0.0999  0.6137
 9292TIP3    H127840   6.183   1.576   1.528 -0.4027 -1.1393  0.3463
 9292TIP3    H227841   6.099   1.661   1.620  1.3997  0.8634  0.2328
 9293TIP3   OH227842   6.725   4.273   4.854  0.5779 -0.5854 -0.1071
 9293TIP3    H127843   6.759   4.286   4.942  1.1605  2.4173 -0.6829
 9293TIP3    H227844   6.631   4.287   4.862  0.6807  0.0642 -0.0192
 9294TIP3   OH227845   6.400   4.143   2.942 -0.4644 -0.4381 -0.0635
 9294TIP3    H127846   6.461   4.132   3.015  2.1668  0.8827 -1.9099
 9294TIP3    H227847   6.416   4.067   2.886  1.1008  0.9335 -1.5743
 9295TIP3   OH227848   5.191   0.887   1.915  0.1315 -0.2403  0.2464
 9295TIP3    H127849   5.181   0.975   1.950 -0.2933 -0.5221  0.8521
 9295TIP3    H227850   5.284   0.867   1.925  0.0644 -0.2191  1.0035
 9296TIP3   OH227851   2.805   3.905   2.883 -0.1601  0.2190  0.5918
 9296TIP3    H127852   2.845   3.867   2.961  0.0555 -0.8128  0.0003
 9296TIP3    H227853   2.757   3.833   2.843  1.1530  0.2476 -1.1545
 9297TIP3   OH227854   0.279   5.286   1.429 -0.3577 -0.2066 -0.5733
 9297TIP3    H127855   0.238   5.359   1.381 -0.4135  0.3681  0.3358
 9297TIP3    H227856   0.299   5.322   1.515  1.5460 -0.6515 -0.7936
 9298TIP3   OH227857   4.733   2.534   5.895  0.0097 -0.4746 -0.2053
 9298TIP3    H127858   4.783   2.610   5.868  0.8514 -0.5474  1.0403
 9298TIP3    H227859   4.765   2.462   5.840  1.3184 -0.5207  0.5704
 9299TIP3   OH227860   4.025   2.073   4.457 -0.2747  0.5087 -0.2233
 9299TIP3    H127861   4.068   1.997   4.497 -1.2922 -0.6849 -1.2622
 9299TIP3    H227862   3.953   2.094   4.516  0.4907  1.1966  0.4770
 9300TIP3   OH227863   5.888   3.027   1.124  0.1085  0.1223 -0.2624
 9300TIP3    H127864   5.936   3.097   1.168  1.9538 -1.4469  0.3782
 9300TIP3    H227865   5.907   2.949   1.176 -1.8295 -0.8845 -0.9844
 9301TIP3   OH227866   5.834   4.733   4.135 -0.3028 -0.2628  0.4111
 9301TIP3    H127867   5.854   4.728   4.041 -2.5095  0.4919 -0.1593
 9301TIP3    H227868   5.836   4.643   4.165 -1.4863 -0.7310 -0.8312
 9302TIP3   OH227869   2.714   0.792   5.721 -0.2143 -0.3873  0.2478
 9302TIP3    H127870   2.621   0.786   5.696 -0.5443 -0.8802  1.5113
 9302TIP3    H227871   2.750   0.705   5.704 -1.0484 -1.5285  3.5998
 9303TIP3   OH227872   3.289   3.047   2.429 -0.1696  0.4112 -0.3322
 9303TIP3    H127873   3.314   2.955   2.415  0.1451  0.4801 -0.2406
 9303TIP3    H227874   3.356   3.097   2.381 -1.4268  0.5642 -2.0140
 9304TIP3   OH227875   1.126   0.468   1.443 -0.0190 -0.1200  0.3963
 9304TIP3    H127876   1.045   0.422   1.466 -0.2247  0.3043  0.5358
 9304TIP3    H227877   1.196   0.414   1.480  0.0380 -2.3481 -2.6654
 9305TIP3   OH227878   0.244   4.445   1.801 -0.2455 -0.3069  0.2391
 9305TIP3    H127879   0.275   4.360   1.770 -0.3883  0.4333 -2.1705
 9305TIP3    H227880   0.247   4.501   1.723 -2.5784  1.2205  1.1423
 9306TIP3   OH227881   3.839   6.322   5.682  0.1657 -0.0139 -0.0832
 9306TIP3    H127882   3.746   6.328   5.661  0.1195  0.2642  0.1956
 9306TIP3    H227883   3.867   6.239   5.642 -0.0466  0.2226 -0.7322
 9307TIP3   OH227884   5.685   4.467   0.483  0.2549 -0.0699 -0.7020
 9307TIP3    H127885   5.764   4.520   0.469  1.0045 -1.2898 -1.2738
 9307TIP3    H227886   5.681   4.455   0.578  0.1693  0.8315 -0.5753
 9308TIP3   OH227887   0.190   6.182   2.458  0.0823  0.2284  0.0797
 9308TIP3    H127888   0.272   6.158   2.414 -0.8981 -1.3509 -0.9961
 9308TIP3    H227889   0.217   6.243   2.526  1.8558  1.6702 -1.7865
 9309TIP3   OH227890   3.305   4.556   2.299 -0.0788 -0.3165  0.1214
 9309TIP3    H127891   3.278   4.516   2.382 -0.3092 -1.5123 -0.5089
 9309TIP3    H227892   3.248   4.633   2.291 -1.6668 -1.4402  0.0075
 9310TIP3   OH227893   4.607   1.760   0.838  0.3497  0.6671 -0.1237
 9310TIP3    H127894   4.661   1.684   0.814  0.9289  1.6394 -2.1047
 9310TIP3    H227895   4.522   1.742   0.799  0.1127  0.5098  0.4478
 9311TIP3   OH227896   6.423   6.158   1.913  0.1445 -0.6466 -0.0670
 9311TIP3    H127897   6.459   6.235   1.869  0.5000  0.1270  1.4878
 9311TIP3    H227898   6.346   6.134   1.862  0.7267 -0.0036 -1.2744
 9312TIP3   OH227899   6.555   4.058   2.258 -0.5182 -0.5510  0.8619
 9312TIP3    H127900   6.638   4.078   2.302  0.6357 -0.8416 -1.0708
 9312TIP3    H227901   6.490   4.111   2.304  1.0210  1.0029  1.3530
 9313TIP3   OH227902   4.898   3.521   3.226  0.3691 -0.4763 -0.2190
 9313TIP3    H127903   4.922   3.565   3.308 -0.2667 -0.0025 -0.2754
 9313TIP3    H227904   4.836   3.582   3.185  0.4489 -0.8571 -0.9002
 9314TIP3   OH227905   5.850   3.008   2.275  0.1189  0.0435 -0.0816
 9314TIP3    H127906   5.819   2.930   2.228  2.9295 -1.0960 -0.2372
 9314TIP3    H227907   5.887   3.064   2.207  2.7426 -0.8880  0.4395
 9315TIP3   OH227908   6.929   4.434   4.792  0.9264 -0.3414  0.3373
 9315TIP3    H127909   6.917   4.528   4.776  1.1739 -0.8271 -4.1583
 9315TIP3    H227910   6.841   4.400   4.803  0.6237  0.1728 -0.3790
 9316TIP3   OH227911   2.989   5.477   1.049  0.1552  0.2368 -0.2023
 9316TIP3    H127912   3.062   5.527   1.013  1.0262 -1.2106 -0.5268
 9316TIP3    H227913   2.982   5.505   1.140 -0.1201  1.7405 -0.6554
 9317TIP3   OH227914   2.142   1.031   2.737  0.6722 -0.4570  0.1435
 9317TIP3    H127915   2.174   1.095   2.801  1.8257 -1.1545  0.2788
 9317TIP3    H227916   2.156   0.946   2.778 -0.4793 -0.8280 -0.2045
 9318TIP3   OH227917   1.285   5.571   0.831 -0.2247 -0.1741 -0.0591
 9318TIP3    H127918   1.192   5.552   0.824 -0.0942 -1.0623  0.5739
 9318TIP3    H227919   1.294   5.616   0.915  0.4369 -3.6299  1.8810
 9319TIP3   OH227920   1.359   2.228   4.444 -0.2463 -0.5050  0.0231
 9319TIP3    H127921   1.338   2.312   4.485 -0.4741 -1.0371  1.0121
 9319TIP3    H227922   1.379   2.251   4.353 -1.7234  0.4527 -0.0926
 9320TIP3   OH227923   4.813   6.340   4.260  0.3025  0.3080  0.8724
 9320TIP3    H127924   4.746   6.386   4.209  0.8195  0.1310  0.0196
 9320TIP3    H227925   4.777   6.337   4.349 -0.8998  0.0784  0.4004
 9321TIP3   OH227926   5.003   4.006   3.602  0.7946 -0.8032 -1.1091
 9321TIP3    H127927   5.086   3.981   3.643  0.5338 -0.6177 -0.4523
 9321TIP3    H227928   4.943   3.934   3.621  0.7953 -0.9246 -1.5573
 9322TIP3   OH227929   1.041   4.581   0.644 -0.3323  0.1419  0.2047
 9322TIP3    H127930   1.132   4.562   0.619 -0.5120  0.0815 -0.4234
 9322TIP3    H227931   1.031   4.540   0.730  0.2403  0.1637  0.2862
 9323TIP3   OH227932   3.518   2.404   3.168  0.1723 -0.2802  0.2068
 9323TIP3    H127933   3.481   2.364   3.246 -1.2678 -0.8723 -0.7407
 9323TIP3    H227934   3.558   2.485   3.199 -0.1608 -0.6216  1.5788
 9324TIP3   OH227935   2.421   2.504   0.279  0.3835  0.6516 -0.6380
 9324TIP3    H127936   2.396   2.442   0.348  2.3175 -0.5783 -0.9425
 9324TIP3    H227937   2.419   2.452   0.198  1.5571  1.0987 -0.9763
 9325TIP3   OH227938   1.879   3.421   4.917  0.8908 -0.7992  0.5568
 9325TIP3    H127939   1.960   3.462   4.886 -0.0808  0.1997 -0.7705
 9325TIP3    H227940   1.811   3.458   4.862 -0.4824 -1.6743  1.6024
 9326TIP3   OH227941   1.022   4.768   5.664 -0.5387 -0.2644 -0.0094
 9326TIP3    H127942   1.074   4.848   5.676 -0.8620  0.1422 -1.1810
 9326TIP3    H227943   1.072   4.700   5.709 -0.6691  0.7391  1.7311
 9327TIP3   OH227944   4.204   6.020   1.339 -0.4370  0.1117  0.1371
 9327TIP3    H127945   4.159   5.937   1.354  0.5756 -0.2387  1.4985
 9327TIP3    H227946   4.285   5.996   1.294 -0.9598  0.5817 -1.0884
 9328TIP3   OH227947   7.101   3.442   1.114  0.4227  0.1947 -0.1973
 9328TIP3    H127948   7.073   3.455   1.023 -1.8918 -0.0645  0.4011
 9328TIP3    H227949   7.117   3.348   1.120 -1.4931 -0.1468  0.1358
 9329TIP3   OH227950   0.236   0.696   3.150  0.1079 -0.4405  0.4582
 9329TIP3    H127951   0.158   0.641   3.153  0.1864 -0.5040  2.2972
 9329TIP3    H227952   0.203   0.785   3.162  0.2764 -0.4382  0.9385
 9330TIP3   OH227953   7.123   4.664   0.047  0.0617  0.4038 -0.2314
 9330TIP3    H127954   7.072   4.593   0.086 -0.5718  0.6590 -0.5857
 9330TIP3    H227955   7.171   4.622  -0.025  0.1037  0.2291 -0.1017
 9331TIP3   OH227956   5.575   4.213   4.796 -0.2877  0.1374 -0.7047
 9331TIP3    H127957   5.553   4.304   4.818  2.4903  0.8056 -0.2918
 9331TIP3    H227958   5.584   4.169   4.880 -2.9490 -0.9503 -0.9209
 9332TIP3   OH227959   4.546   0.652   1.439 -0.3499 -0.1371 -0.3676
 9332TIP3    H127960   4.620   0.608   1.396 -0.1021 -1.0018  0.8841
 9332TIP3    H227961   4.584   0.730   1.479  0.0622 -0.9191  0.8337
 9333TIP3   OH227962   4.433   3.859   1.004 -0.8115 -0.3523 -0.4061
 9333TIP3    H127963   4.340   3.855   1.025 -0.7296 -1.8760 -0.1923
 9333TIP3    H227964   4.477   3.844   1.088 -0.3889 -0.5774 -0.6650
 9334TIP3   OH227965   6.693   0.085   2.377 -0.8863 -0.0187 -0.0291
 9334TIP3    H127966   6.787   0.076   2.360 -1.0091 -1.9265  0.0400
 9334TIP3    H227967   6.686   0.084   2.473 -0.9999 -0.1614 -0.0391
 9335TIP3   OH227968   7.066   2.185   2.369  0.5255 -0.7766  0.1410
 9335TIP3    H127969   7.076   2.219   2.280 -0.8868  1.8754  0.9053
 9335TIP3    H227970   6.981   2.217   2.398  0.4906 -2.4556  2.1167
 9336TIP3   OH227971   3.094   3.188   0.114 -0.3712  0.0072  0.6076
 9336TIP3    H127972   3.050   3.124   0.171 -0.8240 -0.0497  0.1978
 9336TIP3    H227973   3.188   3.177   0.134 -0.4961 -0.2860  1.0543
 9337TIP3   OH227974   2.514   4.181   2.132 -0.8189 -0.2859 -0.1000
 9337TIP3    H127975   2.530   4.187   2.038 -0.1222  0.1706  0.0397
 9337TIP3    H227976   2.513   4.272   2.162 -0.2671 -0.4555  0.4560
 9338TIP3   OH227977   6.474   6.402   1.372 -0.4844  0.0670  0.0210
 9338TIP3    H127978   6.464   6.311   1.400  0.2256 -0.1492 -0.4012
 9338TIP3    H227979   6.522   6.443   1.443  0.3726 -0.2241 -0.3678
 9339TIP3   OH227980   3.306   5.007   5.260  0.0254 -0.3184  0.2339
 9339TIP3    H127981   3.302   5.093   5.218  0.7721 -0.5391 -0.3307
 9339TIP3    H227982   3.222   4.966   5.239  0.2756 -0.3163 -0.8539
 9340TIP3   OH227983   6.011   4.839   3.429  0.2099 -0.1858 -0.1064
 9340TIP3    H127984   6.020   4.908   3.494  1.9109 -0.6715  0.2220
 9340TIP3    H227985   6.095   4.836   3.384 -0.1774 -1.3484 -0.8256
 9341TIP3   OH227986   3.284   4.938   0.349  0.1706  0.4540 -0.6353
 9341TIP3    H127987   3.259   4.878   0.419 -3.3669  0.9772 -1.2577
 9341TIP3    H227988   3.261   4.891   0.269  1.0433  1.1528 -1.3151
 9342TIP3   OH227989   5.839   5.007   2.868  0.1105  0.1431  0.2162
 9342TIP3    H127990   5.854   4.913   2.858  1.3898  0.3316  0.2331
 9342TIP3    H227991   5.902   5.035   2.934 -1.5367  0.7021  1.6530
 9343TIP3   OH227992   2.856   1.669   1.199  0.0027 -0.1667 -0.2078
 9343TIP3    H127993   2.853   1.573   1.197  0.4657 -0.1879 -0.0327
 9343TIP3    H227994   2.881   1.690   1.289  0.1984  0.1093 -0.3242
 9344TIP3   OH227995   1.455   4.238   3.068  0.1805  0.3808 -0.4123
 9344TIP3    H127996   1.419   4.312   3.117  0.6425  1.0609 -1.0644
 9344TIP3    H227997   1.497   4.183   3.134 -2.9230 -1.0379  0.5635
 9345TIP3   OH227998   6.728   4.387   2.139 -0.1572  0.2025  0.2192
 9345TIP3    H127999   6.791   4.380   2.211  0.7506 -1.1482 -0.6546
 9345TIP3    H228000   6.781   4.410   2.062 -1.1686  2.0655  0.0270
 9346TIP3   OH228001   3.855   4.069   5.668 -0.4569 -0.4815 -0.1880
 9346TIP3    H128002   3.890   4.157   5.678 -0.2929 -0.3652 -1.5459
 9346TIP3    H228003   3.889   4.021   5.744 -0.1245  0.4818  0.2920
 9347TIP3   OH228004   0.187   6.706   2.646  0.1700 -0.2085 -0.0180
 9347TIP3    H128005   0.126   6.779   2.655  0.8687  0.3030  0.8184
 9347TIP3    H228006   0.163   6.664   2.564 -1.6508 -0.3544  0.5378
 9348TIP3   OH228007   2.962   3.266   5.016  0.3137 -0.0774 -0.0535
 9348TIP3    H128008   2.932   3.259   5.107  0.4539  2.7384  0.3126
 9348TIP3    H228009   3.053   3.238   5.018  0.6494  0.9962  0.9478
 9349TIP3   OH228010   4.408   5.572   3.937 -0.6336 -0.0580  0.3988
 9349TIP3    H128011   4.315   5.595   3.934 -0.9656 -1.1326  1.4392
 9349TIP3    H228012   4.424   5.527   3.854 -1.2443 -0.5407  0.5356
 9350TIP3   OH228013   3.387   4.847   4.819 -0.3302 -0.1488  0.0222
 9350TIP3    H128014   3.359   4.782   4.755  0.6071  0.0059 -0.5588
 9350TIP3    H228015   3.305   4.882   4.855 -0.8445 -1.9846  0.7173
 9351TIP3   OH228016   2.036   0.343   0.380  0.0798 -0.5107 -0.4671
 9351TIP3    H128017   2.079   0.261   0.357  3.6354  1.0416  0.0124
 9351TIP3    H228018   2.073   0.408   0.320 -0.0543  1.2956  1.2789
 9352TIP3   OH228019   4.582   2.805   2.674 -0.7208 -0.3252  0.0604
 9352TIP3    H128020   4.560   2.713   2.660  0.1652 -0.6335  0.5962
 9352TIP3    H228021   4.615   2.835   2.589 -0.0433 -0.8004  0.1441
 9353TIP3   OH228022   6.292   2.816   3.959 -0.3188 -0.2284  0.6205
 9353TIP3    H128023   6.357   2.825   3.889  0.2801 -1.9205  0.8862
 9353TIP3    H228024   6.329   2.863   4.033  0.0544 -0.1907  0.4114
 9354TIP3   OH228025   1.005   6.565   2.397  0.0474  0.2283 -0.0704
 9354TIP3    H128026   0.982   6.626   2.328 -0.5464 -0.0266 -0.0983
 9354TIP3    H228027   1.100   6.553   2.388 -0.1293 -0.3825 -1.3265
 9355TIP3   OH228028   6.407   3.558   3.388 -0.5180 -0.2195 -0.0745
 9355TIP3    H128029   6.464   3.633   3.371 -1.4840  0.1528 -2.0114
 9355TIP3    H228030   6.407   3.509   3.306 -2.1700 -0.7556  0.2114
 9356TIP3   OH228031   3.768   0.631   3.306  0.7478  0.0864 -0.4187
 9356TIP3    H128032   3.749   0.653   3.215  0.6649  0.2235 -0.3676
 9356TIP3    H228033   3.684   0.636   3.350  0.6567 -0.7199 -0.4894
 9357TIP3   OH228034   1.665   4.308   3.346  0.4969  0.0534 -0.3271
 9357TIP3    H128035   1.754   4.274   3.357  0.1047 -1.6273 -1.8266
 9357TIP3    H228036   1.616   4.234   3.310 -1.4887  0.9859  0.3501
 9358TIP3   OH228037   5.385   1.921   2.470 -0.4574 -0.3119  0.4650
 9358TIP3    H128038   5.315   1.892   2.412 -1.2220  1.0626  0.6516
 9358TIP3    H228039   5.342   1.935   2.554  0.0482  0.4890  0.5970
 9359TIP3   OH228040   4.038   4.456   0.014  0.4216  0.5042  0.2675
 9359TIP3    H128041   4.124   4.443   0.054  0.6927 -0.7808 -0.6980
 9359TIP3    H228042   3.976   4.439   0.086  0.8547 -3.0942 -0.0027
 9360TIP3   OH228043   0.232   3.824   0.948 -0.0471 -0.2154  0.4044
 9360TIP3    H128044   0.215   3.819   0.854  1.8463 -2.7352  0.0953
 9360TIP3    H228045   0.254   3.916   0.963  2.0747 -0.1915 -2.1493
 9361TIP3   OH228046   1.180   2.985   1.116 -0.1587 -0.4330 -0.4174
 9361TIP3    H128047   1.094   3.021   1.139  0.5479 -0.1131  2.0011
 9361TIP3    H228048   1.219   3.051   1.059 -0.5618  0.6090  0.4858
 9362TIP3   OH228049   0.014   2.257   3.465 -0.1807 -0.6277  0.4123
 9362TIP3    H128050   0.024   2.217   3.379 -1.4022  2.1070 -1.1533
 9362TIP3    H228051   0.066   2.338   3.460 -0.3447 -0.3654  2.2261
 9363TIP3   OH228052   1.995   2.917   2.490  0.3319  0.2011 -0.1817
 9363TIP3    H128053   1.915   2.897   2.440  2.0292 -2.3482 -2.1106
 9363TIP3    H228054   2.042   2.980   2.436 -0.1865  1.5613  0.8731
 9364TIP3   OH228055   6.694   2.144   0.032  0.1822 -0.0084  0.3465
 9364TIP3    H128056   6.644   2.126   0.111 -1.0307 -0.0483 -0.4101
 9364TIP3    H228057   6.637   2.117  -0.040  0.3560  2.0275 -0.6283
 9365TIP3   OH228058   2.963   5.157   4.474  0.4914 -0.2064  0.3169
 9365TIP3    H128059   2.925   5.099   4.408 -0.6667 -0.4721  1.1911
 9365TIP3    H228060   3.035   5.106   4.512 -0.8694 -1.3384  1.4715
 9366TIP3   OH228061   7.123   5.219   1.213 -0.4210 -0.2609  0.3771
 9366TIP3    H128062   7.073   5.150   1.258  0.5883  0.2841  2.4407
 9366TIP3    H228063   7.137   5.185   1.125 -0.9974 -2.1507  0.9764
 9367TIP3   OH228064   1.780   2.355   4.221 -0.1793 -0.3542 -0.4798
 9367TIP3    H128065   1.694   2.373   4.183 -0.2944 -1.3158 -0.6817
 9367TIP3    H228066   1.838   2.418   4.178 -0.9498  1.0103  0.4204
 9368TIP3   OH228067   3.102   6.415   2.749  0.0856  0.6033  0.0631
 9368TIP3    H128068   3.136   6.333   2.714  0.3639  1.0773 -0.8110
 9368TIP3    H228069   3.060   6.391   2.832  1.5890 -0.1584  0.6298
 9369TIP3   OH228070   2.946   1.471   3.784  0.6422 -0.1981  0.3027
 9369TIP3    H128071   2.984   1.398   3.734 -1.6746 -0.2777 -1.4885
 9369TIP3    H228072   2.907   1.429   3.861  1.8707 -0.4282  0.8237
 9370TIP3   OH228073   7.082   1.650   4.269  0.4452  0.1236 -0.5371
 9370TIP3    H128074   7.027   1.699   4.207  0.8042  1.2938  0.0348
 9370TIP3    H228075   7.029   1.575   4.295 -0.2121  0.3215 -1.2795
 9371TIP3   OH228076   3.611   2.110   5.631  1.0913  0.4212 -0.3501
 9371TIP3    H128077   3.587   2.203   5.621  0.9710  0.4169 -0.1012
 9371TIP3    H228078   3.668   2.108   5.708 -1.7193 -0.1937  1.8415
 9372TIP3   OH228079   5.849   6.152   5.702  0.2372 -0.2670  0.2114
 9372TIP3    H128080   5.854   6.104   5.619  0.6768 -0.4660  0.3490
 9372TIP3    H228081   5.877   6.088   5.768  1.0325  0.2269  0.3706
 9373TIP3   OH228082   0.523   5.220   3.116  0.0210 -0.3343  0.3775
 9373TIP3    H128083   0.528   5.215   3.212  0.0692  1.7532  0.5370
 9373TIP3    H228084   0.541   5.312   3.096  0.2361 -0.7672 -1.6703
 9374TIP3   OH228085   1.030   3.633   5.810  0.6190 -0.1945 -0.2118
 9374TIP3    H128086   0.986   3.613   5.893 -0.4185 -1.5378 -1.0625
 9374TIP3    H228087   1.047   3.727   5.815 -1.9074  0.2881  0.3603
 9375TIP3   OH228088   0.173   3.778   3.151  0.9688  0.0408 -0.1062
 9375TIP3    H128089   0.156   3.868   3.125  0.6866 -0.0704 -0.3131
 9375TIP3    H228090   0.150   3.775   3.244  1.4066  0.2908  0.0112
 9376TIP3   OH228091   7.111   2.797   1.557 -0.1849  0.0524  0.2798
 9376TIP3    H128092   7.075   2.844   1.481 -2.0999  2.1504  2.2943
 9376TIP3    H228093   7.183   2.853   1.587 -1.1665  0.6938  1.5138
 9377TIP3   OH228094   3.951   0.565   5.764  0.6579 -0.1919  0.0730
 9377TIP3    H128095   3.982   0.633   5.703 -2.3276  2.9163  1.6841
 9377TIP3    H228096   4.006   0.576   5.842  2.1525 -1.7921 -0.6917
 9378TIP3   OH228097   2.890   3.426   1.831 -0.0288  0.1288 -0.0904
 9378TIP3    H128098   2.847   3.511   1.825  0.0484  0.1094 -1.3376
 9378TIP3    H228099   2.822   3.363   1.810  0.0591 -0.0680  0.2170
 9379TIP3   OH228100   4.809   3.142   2.231 -0.3747 -0.0198  0.1348
 9379TIP3    H128101   4.738   3.089   2.193 -0.5260  0.0883  0.2671
 9379TIP3    H228102   4.876   3.145   2.162  0.1374 -1.3527  0.5413
 9380TIP3   OH228103   2.107   1.534   1.086  0.3017 -0.2431 -0.1325
 9380TIP3    H128104   2.037   1.575   1.035  0.1216 -0.5775 -0.1605
 9380TIP3    H228105   2.188   1.566   1.046  0.1610 -0.1531 -0.3470
 9381TIP3   OH228106   3.359   3.830   4.712 -0.2857 -0.3353  0.6547
 9381TIP3    H128107   3.298   3.902   4.696 -1.6346 -1.1412  1.8841
 9381TIP3    H228108   3.363   3.823   4.807  0.4393 -1.3777  0.5627
 9382TIP3   OH228109   5.203   4.085   2.967 -0.2150 -1.1032  0.3437
 9382TIP3    H128110   5.256   4.065   3.044 -0.4216 -0.8866  0.5410
 9382TIP3    H228111   5.121   4.118   3.002  0.4861  1.1385  0.0514
 9383TIP3   OH228112   0.432   5.611   1.451 -0.1921 -0.0953 -0.0565
 9383TIP3    H128113   0.482   5.554   1.510  0.1918 -1.5300 -1.7103
 9383TIP3    H228114   0.498   5.651   1.395 -0.5896  0.9452  0.1991
 9384TIP3   OH228115   4.770   5.514   2.523  0.1528 -0.5436  0.0780
 9384TIP3    H128116   4.753   5.503   2.430  1.5098  0.7529 -0.3817
 9384TIP3    H228117   4.720   5.592   2.548  0.5980 -0.2840  0.1762
 9385TIP3   OH228118   5.739   3.570   5.503  0.6786 -0.1404 -0.6031
 9385TIP3    H128119   5.723   3.635   5.435 -0.5077  0.2285 -0.0095
 9385TIP3    H228120   5.697   3.491   5.472  1.3181 -0.3662 -0.9057
 9386TIP3   OH228121   0.323   2.154   3.089  0.2487 -0.1486  0.0463
 9386TIP3    H128122   0.392   2.100   3.128  1.8645  0.4605 -1.8017
 9386TIP3    H228123   0.359   2.243   3.088  0.1728 -0.0918 -2.4826
 9387TIP3   OH228124   4.809   4.673   2.696  0.3018  0.3982 -0.0027
 9387TIP3    H128125   4.856   4.731   2.755  0.0305  0.7827 -0.1617
 9387TIP3    H228126   4.877   4.623   2.651  0.5157  0.2332  0.5000
 9388TIP3   OH228127   0.023   0.171   2.942 -0.3048  0.4129 -0.1284
 9388TIP3    H128128  -0.014   0.196   3.027  1.1383  2.5670 -0.0483
 9388TIP3    H228129   0.073   0.092   2.960 -0.6972  0.3762  0.8651
 9389TIP3   OH228130   3.662   1.736   1.338  0.1266 -0.0030  0.8577
 9389TIP3    H128131   3.757   1.730   1.345  0.1289 -1.2758  0.1568
 9389TIP3    H228132   3.646   1.746   1.244 -0.4499 -0.5065  0.8967
 9390TIP3   OH228133   3.023   5.282   4.234 -0.1099 -0.5808  0.6864
 9390TIP3    H128134   2.943   5.322   4.201  0.5633  1.1527  1.0691
 9390TIP3    H228135   2.995   5.230   4.309 -1.0219 -0.9585  0.1040
 9391TIP3   OH228136   6.387   2.938   4.408 -0.4164 -0.0727 -0.5198
 9391TIP3    H128137   6.405   2.861   4.353 -1.3808 -0.6550 -0.0505
 9391TIP3    H228138   6.356   3.005   4.347  0.1410 -0.1541 -0.8970
 9392TIP3   OH228139   0.809   5.491   5.886 -0.5061  0.4889  0.7965
 9392TIP3    H128140   0.724   5.447   5.888  0.2470 -1.1024 -0.2807
 9392TIP3    H228141   0.810   5.534   5.800 -0.2252  0.5296  0.8219
 9393TIP3   OH228142   0.798   3.071   5.392  0.5362 -0.0312  0.1376
 9393TIP3    H128143   0.805   3.156   5.348 -1.2917 -0.0808 -0.2938
 9393TIP3    H228144   0.800   3.092   5.485 -0.0078  0.5043  0.0339
 9394TIP3   OH228145   6.941   3.765   2.939 -0.4010 -0.1458 -0.3345
 9394TIP3    H128146   6.949   3.722   2.853 -0.3269 -0.3190 -0.2419
 9394TIP3    H228147   6.981   3.851   2.926  0.4328 -0.5073 -0.2360
 9395TIP3   OH228148   6.181   2.787   4.784  0.2350  0.6253 -1.0729
 9395TIP3    H128149   6.171   2.789   4.688 -1.3106  2.2291 -0.9386
 9395TIP3    H228150   6.093   2.764   4.816  0.6154  0.6224 -0.0192
 9396TIP3   OH228151   4.590   5.354   5.454 -0.4789 -0.1374 -0.3835
 9396TIP3    H128152   4.664   5.378   5.510 -1.2629  1.5743 -0.0077
 9396TIP3    H228153   4.535   5.432   5.453  0.1975  0.4979 -4.7716
 9397TIP3   OH228154   3.569   6.347   0.012  0.0519 -0.4947 -0.4682
 9397TIP3    H128155   3.513   6.391   0.076 -0.2625 -2.6737  0.8380
 9397TIP3    H228156   3.650   6.398   0.013 -1.2852  1.8113 -1.2754
 9398TIP3   OH228157   1.193   0.620   0.589  0.5151 -0.3414  0.0597
 9398TIP3    H128158   1.222   0.566   0.515 -1.8700  2.1878 -3.0138
 9398TIP3    H228159   1.102   0.594   0.604  0.7128 -0.2382  1.6022
 9399TIP3   OH228160   0.727   0.263   0.574  0.2643  0.6972  0.6842
 9399TIP3    H128161   0.641   0.273   0.533  1.2724  2.7661 -1.1391
 9399TIP3    H228162   0.708   0.256   0.667 -1.8690  4.8935  0.8405
 9400TIP3   OH228163   4.393   5.358   1.301  0.5080  1.0105  0.0926
 9400TIP3    H128164   4.356   5.437   1.338 -2.0427  0.1909 -0.5290
 9400TIP3    H228165   4.465   5.335   1.360 -0.6945  2.0750  2.0793
 9401TIP3   OH228166   7.127   2.310   4.597  0.2477 -0.0142  0.3734
 9401TIP3    H128167   7.173   2.276   4.674  1.7718  1.2081  0.0427
 9401TIP3    H228168   7.193   2.315   4.529 -0.0688  2.7498  0.1639
 9402TIP3   OH228169   5.277   3.953   1.514 -0.6075  0.0500 -0.0263
 9402TIP3    H128170   5.299   3.864   1.487 -1.2256 -0.3226  0.6565
 9402TIP3    H228171   5.345   3.976   1.578 -0.3462  0.1387 -0.3355
 9403TIP3   OH228172   2.503   5.603   1.576  0.3267  0.3931 -0.2403
 9403TIP3    H128173   2.541   5.524   1.616 -1.0481 -0.7773 -1.1130
 9403TIP3    H228174   2.437   5.632   1.638  0.5701  0.6439 -0.0954
 9404TIP3   OH228175   1.313   2.979   3.539  0.3316  0.6027  0.1849
 9404TIP3    H128176   1.327   2.930   3.619 -0.4046  0.5396  0.2856
 9404TIP3    H228177   1.284   2.914   3.475 -3.2873  1.1553  1.0151
 9405TIP3   OH228178   4.634   4.371   5.081  0.0797 -0.3939  0.1118
 9405TIP3    H128179   4.629   4.300   5.017 -1.4494  0.7492 -1.0983
 9405TIP3    H228180   4.676   4.331   5.158  2.4234 -1.7017 -1.7036
 9406TIP3   OH228181   5.531   0.148   3.863  0.0568 -0.6074 -0.4680
 9406TIP3    H128182   5.529   0.235   3.903 -0.9394 -1.5147  1.6159
 9406TIP3    H228183   5.472   0.155   3.787  0.1777  0.5730 -0.4680
 9407TIP3   OH228184   1.407   5.899   4.684 -0.3617  0.4494  0.0906
 9407TIP3    H128185   1.493   5.862   4.708 -0.9057 -1.1440 -0.2556
 9407TIP3    H228186   1.358   5.899   4.766  0.0924  1.7701  0.3769
 9408TIP3   OH228187   4.865   0.377   0.069  0.5713 -0.0268  0.4642
 9408TIP3    H128188   4.857   0.362   0.163  0.1310 -0.2568  0.3916
 9408TIP3    H228189   4.775   0.377   0.037  0.7594 -0.9037 -0.1046
 9409TIP3   OH228190   6.494   0.780   4.278 -0.1459 -0.5486  0.0497
 9409TIP3    H128191   6.515   0.856   4.224 -0.3829  0.4139  1.2710
 9409TIP3    H228192   6.510   0.704   4.221 -0.2457  0.4175 -1.3031
 9410TIP3   OH228193   1.109   1.944   4.509 -0.7059 -0.4019  0.0365
 9410TIP3    H128194   1.102   1.991   4.593  1.4906 -2.2118  1.3552
 9410TIP3    H228195   1.047   1.872   4.517 -0.5208 -0.5549  0.1015
 9411TIP3   OH228196   0.769   4.533   2.626  0.5097 -0.1364  0.1333
 9411TIP3    H128197   0.804   4.620   2.647 -0.8702  0.7253 -0.9264
 9411TIP3    H228198   0.685   4.529   2.671  0.0398 -0.4551 -0.7445
 9412TIP3   OH228199   5.219   4.581   4.750 -0.4257 -0.2537  0.5214
 9412TIP3    H128200   5.180   4.503   4.790 -0.2523 -0.5208  0.1836
 9412TIP3    H228201   5.192   4.576   4.658  1.3457 -1.0845 -0.0025
 9413TIP3   OH228202   3.515   3.463   2.859 -0.4926 -0.4034 -0.6355
 9413TIP3    H128203   3.575   3.535   2.876 -0.8316  0.2200 -1.9469
 9413TIP3    H228204   3.562   3.405   2.799 -0.4362 -0.9929 -0.0354
 9414TIP3   OH228205   3.683   6.674   4.085  0.0048 -0.0787  0.0531
 9414TIP3    H128206   3.771   6.684   4.048 -1.4244  1.6070 -3.2746
 9414TIP3    H228207   3.669   6.579   4.086  1.8488 -0.3817  0.7114
 9415TIP3   OH228208   4.461   0.942   1.315 -0.3541 -0.1382 -0.1667
 9415TIP3    H128209   4.550   0.975   1.298  0.3110 -1.4409  0.6158
 9415TIP3    H228210   4.421   1.010   1.369  0.5092  0.0441  0.2772
 9416TIP3   OH228211   3.301   4.366   1.511  0.2039  0.3233 -0.4151
 9416TIP3    H128212   3.282   4.280   1.473  3.1260 -0.9179  0.6385
 9416TIP3    H228213   3.373   4.401   1.458 -0.6324  1.9775 -0.5444
 9417TIP3   OH228214   0.561   6.335   5.407  0.1286 -0.2072  0.3881
 9417TIP3    H128215   0.550   6.387   5.327  2.5008 -0.0240  0.0827
 9417TIP3    H228216   0.485   6.357   5.461 -0.8281  0.7310 -1.2439
 9418TIP3   OH228217   1.688   3.495   5.150 -0.4462  0.2764 -0.3613
 9418TIP3    H128218   1.755   3.493   5.081  0.4624  1.3063  0.4453
 9418TIP3    H228219   1.690   3.407   5.188  1.8999  0.7975  0.9251
 9419TIP3   OH228220   0.608   6.289   4.763 -0.0784  0.1173 -0.2312
 9419TIP3    H128221   0.689   6.268   4.717 -0.0543 -0.2045 -0.0422
 9419TIP3    H228222   0.538   6.258   4.704 -0.1903  2.6915 -1.6324
 9420TIP3   OH228223   4.106   1.438   5.446 -0.3173 -0.2144  0.2722
 9420TIP3    H128224   4.107   1.492   5.525 -1.5168  0.2123  0.0128
 9420TIP3    H228225   4.198   1.430   5.422  0.0113  0.2395  1.3111
 9421TIP3   OH228226   2.341   3.988   0.257 -0.1711 -0.2882 -0.2389
 9421TIP3    H128227   2.252   3.992   0.294 -0.3252  0.5389 -0.6864
 9421TIP3    H228228   2.347   4.064   0.201  1.3833  0.5760  1.0203
 9422TIP3   OH228229   6.902   2.586   2.241  0.5613 -0.0912 -0.0142
 9422TIP3    H128230   6.891   2.674   2.276 -2.0482 -0.3809  0.1472
 9422TIP3    H228231   6.935   2.599   2.152  0.1744  1.0596 -0.0071
 9423TIP3   OH228232   2.794   4.021   1.881 -0.2714 -0.1553 -0.1584
 9423TIP3    H128233   2.785   3.943   1.825  1.6851 -1.6329  1.4471
 9423TIP3    H228234   2.821   3.987   1.966  1.8571  2.3384  0.2946
 9424TIP3   OH228235   1.569   3.875   4.582  0.7617  0.1068  0.1399
 9424TIP3    H128236   1.520   3.798   4.555  2.3293 -0.3037 -1.8150
 9424TIP3    H228237   1.509   3.949   4.568 -0.7757 -0.6925  2.0947
 9425TIP3   OH228238   5.933   0.916   1.793 -0.2037  0.6282 -0.1846
 9425TIP3    H128239   6.018   0.873   1.795  0.3265  1.4530 -2.1720
 9425TIP3    H228240   5.870   0.845   1.787  0.5482  0.0462 -1.6674
 9426TIP3   OH228241   5.626   3.521   3.244 -0.2652  0.6511 -0.2073
 9426TIP3    H128242   5.716   3.507   3.272  0.2268 -0.4489 -2.1515
 9426TIP3    H228243   5.576   3.527   3.326  1.5639  1.4807  0.9078
 9427TIP3   OH228244   0.452   0.096   0.506 -0.7335  0.1443  0.1934
 9427TIP3    H128245   0.524   0.070   0.448  1.0884  1.3733  1.7612
 9427TIP3    H228246   0.390   0.141   0.449  0.9624  1.2813 -0.8480
 9428TIP3   OH228247   6.141   5.450   2.736  0.0599 -0.1797  0.1457
 9428TIP3    H128248   6.234   5.427   2.737  0.3568  0.9192 -0.6785
 9428TIP3    H228249   6.100   5.382   2.789  0.9036 -2.4786 -1.9445
 9429TIP3   OH228250   6.119   6.826   1.376 -0.1522 -0.7156 -0.2010
 9429TIP3    H128251   6.188   6.840   1.442  0.4120 -0.4470 -0.8304
 9429TIP3    H228252   6.134   6.736   1.345  0.0133 -0.6051 -0.4449
 9430TIP3   OH228253   6.448   3.746   1.168  0.6289  0.3202 -0.6133
 9430TIP3    H128254   6.378   3.771   1.228  0.6798  1.3081 -0.9439
 9430TIP3    H228255   6.494   3.675   1.213  0.5432  0.9011  0.4205
 9431TIP3   OH228256   0.043   3.879   2.781 -0.3089  0.0123 -0.4564
 9431TIP3    H128257   0.040   3.969   2.748  0.5898 -0.1587 -0.9987
 9431TIP3    H228258   0.079   3.888   2.870 -1.2164  0.2874 -0.0959
 9432TIP3   OH228259   4.499   6.309   2.895 -0.0380 -0.5202 -0.3601
 9432TIP3    H128260   4.567   6.318   2.828 -1.0424  0.4888 -1.3029
 9432TIP3    H228261   4.445   6.236   2.864  0.4232 -1.1190  0.2250
 9433TIP3   OH228262   3.664   1.740   4.228 -0.2380  0.1093 -0.2245
 9433TIP3    H128263   3.721   1.664   4.224 -1.1050 -0.6109  0.6669
 9433TIP3    H228264   3.620   1.742   4.143 -0.5408 -0.6511 -0.0905
 9434TIP3   OH228265   2.769   3.407   5.891  0.3781  0.3996 -0.3029
 9434TIP3    H128266   2.770   3.486   5.838  2.2956  1.1305  0.7140
 9434TIP3    H228267   2.734   3.339   5.833 -2.1048  2.1150 -0.9355
 9435TIP3   OH228268   4.723   1.111   3.492 -0.1988 -0.1164 -0.0399
 9435TIP3    H128269   4.710   1.147   3.580 -1.3740 -0.9470  0.1447
 9435TIP3    H228270   4.798   1.053   3.501  2.2342  2.7119 -0.5077
 9436TIP3   OH228271   2.122   0.955   0.034 -0.0337  0.8355  0.2029
 9436TIP3    H128272   2.036   0.944   0.075 -0.1740  1.8426  0.1889
 9436TIP3    H228273   2.104   0.954  -0.060 -0.2250  2.4438  0.2049
 9437TIP3   OH228274   3.377   1.050   3.584  0.2548  0.6349 -0.0443
 9437TIP3    H128275   3.415   1.064   3.497 -0.4237 -0.0971 -0.4698
 9437TIP3    H228276   3.373   1.138   3.623  0.6549  0.9526 -0.7095
 9438TIP3   OH228277   5.382   4.139   0.659  0.4021  0.2047 -0.4002
 9438TIP3    H128278   5.321   4.213   0.652 -1.6495 -1.3578 -0.2766
 9438TIP3    H228279   5.419   4.147   0.747 -0.1092  0.8721 -0.2397
 9439TIP3   OH228280   5.693   1.282   2.443 -0.2138 -0.1755 -0.7422
 9439TIP3    H128281   5.720   1.229   2.368 -1.1768 -0.8272 -0.6485
 9439TIP3    H228282   5.622   1.337   2.409 -1.4384 -1.2766 -0.0792
 9440TIP3   OH228283   4.759   4.594   2.101 -0.3566 -0.4720  0.1017
 9440TIP3    H128284   4.743   4.666   2.040  0.7694 -0.5698 -0.3444
 9440TIP3    H228285   4.695   4.527   2.077 -0.3399 -0.2595 -0.5571
 9441TIP3   OH228286   0.188   2.350   1.158 -0.8438  0.3014  0.1730
 9441TIP3    H128287   0.196   2.393   1.244  1.0740  2.3792 -0.9291
 9441TIP3    H228288   0.271   2.369   1.115 -2.3268  0.6637 -2.7320
 9442TIP3   OH228289   6.288   4.881   2.632 -0.6328  0.2958  0.4577
 9442TIP3    H128290   6.310   4.800   2.677 -1.7838  0.8169  2.0533
 9442TIP3    H228291   6.192   4.882   2.630 -0.6488  1.7924  0.8442
 9443TIP3   OH228292   0.416   0.709   5.509 -0.4636 -0.8386 -0.5788
 9443TIP3    H128293   0.486   0.730   5.447  1.7726 -2.0518  1.3627
 9443TIP3    H228294   0.416   0.614   5.514 -2.0083 -0.8377 -0.2515
 9444TIP3   OH228295   5.219   2.784   3.611 -0.1299  0.4291  0.1037
 9444TIP3    H128296   5.124   2.791   3.607  0.0006  2.0924 -1.5376
 9444TIP3    H228297   5.244   2.845   3.681 -0.2704 -0.0196  0.5458
 9445TIP3   OH228298   4.709   0.017   1.586 -0.5282 -0.0035  0.5105
 9445TIP3    H128299   4.790  -0.002   1.633 -0.7639  0.0889  0.9564
 9445TIP3    H228300   4.735   0.020   1.494 -0.6324 -3.6082  0.2214
 9446TIP3   OH228301   7.026   1.796   5.521  0.1924  0.1480  0.0256
 9446TIP3    H128302   7.085   1.771   5.592 -1.0827 -0.4171  0.9152
 9446TIP3    H228303   7.060   1.751   5.444  0.7125 -0.4558  0.6022
 9447TIP3   OH228304   5.155   3.440   4.212 -0.3998 -0.8817 -0.2565
 9447TIP3    H128305   5.224   3.459   4.276 -0.3656 -2.3835  0.1941
 9447TIP3    H228306   5.081   3.494   4.240 -0.5823 -1.9426  1.4378
 9448TIP3   OH228307   6.829   4.856   5.590  0.1511  0.0511  0.1839
 9448TIP3    H128308   6.794   4.864   5.678 -0.3927  0.0190 -0.0290
 9448TIP3    H228309   6.754   4.835   5.535  0.5942 -0.6144 -0.1884
 9449TIP3   OH228310   2.085   5.348   2.993 -0.3578 -0.2009 -0.8684
 9449TIP3    H128311   2.145   5.278   3.018 -0.8623 -0.1164  0.7026
 9449TIP3    H228312   2.013   5.304   2.950 -0.0514 -0.5031 -1.0758
 9450TIP3   OH228313   0.770   2.606   5.633  0.6698 -0.8537  0.2291
 9450TIP3    H128314   0.782   2.660   5.555 -1.2966 -0.9617 -0.2141
 9450TIP3    H228315   0.781   2.667   5.706 -0.4750 -0.0368 -0.2387
 9451TIP3   OH228316   1.140   4.924   0.625 -0.1302 -0.1409  0.2382
 9451TIP3    H128317   1.180   4.927   0.712  0.1733  0.6040  0.0844
 9451TIP3    H228318   1.206   4.883   0.569  0.1409  0.4295  0.1313
 9452TIP3   OH228319   6.549   1.976   1.085  0.7665  0.1094 -0.1106
 9452TIP3    H128320   6.571   2.023   1.166  1.9841  0.6739 -0.7333
 9452TIP3    H228321   6.492   2.035   1.037 -0.4819 -0.4940  0.6033
 9453TIP3   OH228322   1.779   5.255   3.161  0.2390  0.0990 -0.2851
 9453TIP3    H128323   1.775   5.226   3.070 -0.4096 -0.3542 -0.1240
 9453TIP3    H228324   1.795   5.349   3.156 -0.2997  0.1674 -0.8825
 9454TIP3   OH228325   3.668   1.241   4.360  0.4224 -0.0848 -0.2505
 9454TIP3    H128326   3.757   1.270   4.341  0.8659  0.4440  2.3537
 9454TIP3    H228327   3.678   1.152   4.395  0.0454  0.3279  0.9478
 9455TIP3   OH228328   0.955   4.641   2.369  0.2372 -0.4803  0.1466
 9455TIP3    H128329   0.955   4.546   2.382  2.0047 -0.4586  0.5308
 9455TIP3    H228330   0.862   4.664   2.366 -0.3143 -1.7812  3.3683
 9456TIP3   OH228331   0.514   6.420   1.082  0.2695  0.4219 -0.6653
 9456TIP3    H128332   0.507   6.514   1.070  0.3563  0.3665 -1.1663
 9456TIP3    H228333   0.494   6.406   1.175  1.4273  1.0634 -0.2871
 9457TIP3   OH228334   1.137   6.721   4.374  0.5789 -0.0240  0.1627
 9457TIP3    H128335   1.094   6.695   4.293 -2.0369 -0.4672  1.5710
 9457TIP3    H228336   1.222   6.755   4.347 -0.1480 -0.2691 -2.7193
 9458TIP3   OH228337   6.090   2.917   0.202 -0.6011 -0.2785  0.5371
 9458TIP3    H128338   6.059   2.852   0.140  1.4415  0.7287 -1.7440
 9458TIP3    H228339   6.089   2.999   0.153  3.8587  0.1089  0.6590
 9459TIP3   OH228340   1.483   2.564   4.751  0.1453 -0.6048  0.1009
 9459TIP3    H128341   1.417   2.594   4.814  0.0861  1.4405 -0.8410
 9459TIP3    H228342   1.557   2.536   4.805 -0.2071  0.3442  1.1191
 9460TIP3   OH228343   6.455   0.399   4.436 -0.0764  0.6074 -0.9061
 9460TIP3    H128344   6.390   0.338   4.473 -0.0527  0.5586 -0.9443
 9460TIP3    H228345   6.430   0.408   4.344 -0.7711  1.5539 -0.6404
 9461TIP3   OH228346   4.311   5.053   0.846 -0.3865 -0.0720 -0.4032
 9461TIP3    H128347   4.357   5.136   0.857 -0.6058  0.2089 -1.4333
 9461TIP3    H228348   4.239   5.058   0.909 -0.5574  0.6431 -0.6382
 9462TIP3   OH228349   2.699   2.733   0.902 -0.4716  0.0719 -0.1610
 9462TIP3    H128350   2.695   2.697   0.814  0.5013 -1.5228  0.4167
 9462TIP3    H228351   2.773   2.794   0.900  0.1542 -0.6737 -0.2162
 9463TIP3   OH228352   0.642   0.367   4.418  0.2241  0.5836 -0.0648
 9463TIP3    H128353   0.655   0.398   4.507 -0.0829 -0.3416  0.3147
 9463TIP3    H228354   0.573   0.423   4.382 -0.3025  0.3646  0.5884
 9464TIP3   OH228355   1.083   0.452   1.068 -0.2027  0.2224 -0.0428
 9464TIP3    H128356   1.072   0.373   1.120  0.8776 -0.4863 -0.8232
 9464TIP3    H228357   1.157   0.498   1.108  1.0786 -0.6633 -1.2621
 9465TIP3   OH228358   3.345   0.323   2.707 -0.3833 -0.1894  0.3666
 9465TIP3    H128359   3.432   0.283   2.710 -0.4403 -0.2585  1.9087
 9465TIP3    H228360   3.315   0.323   2.798 -0.4159  3.3048  0.4946
 9466TIP3   OH228361   1.958   5.705   2.020 -0.3727  0.3867  0.3939
 9466TIP3    H128362   1.948   5.611   2.009 -0.6145  0.5909 -1.3900
 9466TIP3    H228363   1.888   5.743   1.967  1.0170  1.6072 -0.6336
 9467TIP3   OH228364   1.046   1.185   4.986 -0.2693  0.1659  0.6288
 9467TIP3    H128365   0.999   1.269   4.985  0.6052  0.6692  0.8354
 9467TIP3    H228366   1.000   1.132   4.921  0.9350  1.8181 -1.7247
 9468TIP3   OH228367   4.410   6.246   5.232  0.2913  0.2295 -0.5412
 9468TIP3    H128368   4.341   6.202   5.182 -0.3943 -1.2090  1.5509
 9468TIP3    H228369   4.485   6.185   5.228  0.8692  0.9577 -1.2891
 9469TIP3   OH228370   2.148   1.407   4.017 -0.2019  0.0050 -0.6045
 9469TIP3    H128371   2.077   1.456   3.976  0.7528  0.8667 -1.2832
 9469TIP3    H228372   2.202   1.377   3.944  1.8014  1.9729 -0.0307
 9470TIP3   OH228373   7.054   4.712   5.581 -0.0143 -0.7570  0.2008
 9470TIP3    H128374   7.071   4.704   5.487  0.7546  0.7843  0.1599
 9470TIP3    H228375   6.967   4.752   5.586 -0.4058 -1.5997  0.1740
 9471TIP3   OH228376   1.631   1.760   5.681 -0.8147  0.0973 -0.1024
 9471TIP3    H128377   1.674   1.687   5.636 -0.9840 -3.0027  4.1080
 9471TIP3    H228378   1.701   1.802   5.732 -1.1572  1.3701 -0.6437
 9472TIP3   OH228379   5.531   1.494   0.676  0.1820 -0.0032  0.0967
 9472TIP3    H128380   5.572   1.444   0.746  2.9096  0.1391 -1.2335
 9472TIP3    H228381   5.445   1.454   0.664  0.3885 -1.2347  2.2029
 9473TIP3   OH228382   2.367   0.943   4.418 -0.2776 -0.0697 -0.1348
 9473TIP3    H128383   2.408   0.874   4.365 -1.4032 -0.9423  0.0961
 9473TIP3    H228384   2.295   0.975   4.363  0.1970  0.9094 -0.2161
 9474TIP3   OH228385   3.312   6.577   5.358 -0.2336  1.2246 -0.2129
 9474TIP3    H128386   3.339   6.608   5.444 -1.0549  1.0815  0.1032
 9474TIP3    H228387   3.394   6.568   5.309  0.1389  2.5477  0.1298
 9475TIP3   OH228388   3.579   2.332   1.217 -0.0325 -0.4829 -0.2348
 9475TIP3    H128389   3.551   2.306   1.130  1.4811  0.3342 -1.0108
 9475TIP3    H228390   3.613   2.421   1.205 -0.6000 -0.0119  1.3724
 9476TIP3   OH228391   2.682   6.048   3.609 -0.2692 -0.2865  1.1191
 9476TIP3    H128392   2.717   6.038   3.697 -1.2859 -0.4209  1.5191
 9476TIP3    H228393   2.687   6.141   3.591  0.7824 -0.3691  0.9578
 9477TIP3   OH228394   6.793   3.778   1.680 -0.4758 -0.1301  0.4038
 9477TIP3    H128395   6.883   3.789   1.711 -0.2206 -1.5580  0.2510
 9477TIP3    H228396   6.802   3.759   1.587 -0.9979  0.5607  0.2088
 9478TIP3   OH228397   3.030   2.991   2.428  0.4615  0.6619  0.3858
 9478TIP3    H128398   3.003   3.039   2.506  0.6558  0.0101  0.8627
 9478TIP3    H228399   3.122   3.016   2.415  1.2049 -1.0462  1.8094
 9479TIP3   OH228400   3.005   5.948   5.692 -0.2965  0.0862  0.2916
 9479TIP3    H128401   2.923   5.927   5.647  0.8709  1.2358 -2.5817
 9479TIP3    H228402   2.987   6.032   5.735 -0.9309 -0.2312  0.6774
 9480TIP3   OH228403   5.260   0.909   0.823 -0.6786 -0.1565  0.0781
 9480TIP3    H128404   5.249   0.816   0.806 -2.4942  0.0361 -0.0855
 9480TIP3    H228405   5.292   0.945   0.740 -0.5990 -0.5408 -0.0588
 9481TIP3   OH228406   1.803   1.160   3.083  0.3667 -0.0716 -0.3143
 9481TIP3    H128407   1.828   1.243   3.123  0.5386  0.0215 -0.6077
 9481TIP3    H228408   1.740   1.185   3.015  0.3554 -0.1897 -0.3472
 9482TIP3   OH228409   5.475   3.222   0.845 -0.3303  0.2411 -0.3346
 9482TIP3    H128410   5.465   3.126   0.847  0.3951  0.1050 -1.9723
 9482TIP3    H228411   5.537   3.238   0.774  0.2397  1.8898  0.4912
 9483TIP3   OH228412   2.596   3.720   2.878 -0.2202 -0.4307 -0.0480
 9483TIP3    H128413   2.586   3.738   2.972 -0.4766  0.0330 -0.1600
 9483TIP3    H228414   2.506   3.720   2.844 -0.0722  0.4871 -0.4824
 9484TIP3   OH228415   2.659   6.322   5.554  0.3811  0.4225  0.0238
 9484TIP3    H128416   2.636   6.292   5.642 -0.1991  0.1862 -0.2053
 9484TIP3    H228417   2.586   6.377   5.527  0.8808  1.0619 -0.0384
 9485TIP3   OH228418   4.899   3.934   0.667  0.4981  0.2475  0.1885
 9485TIP3    H128419   4.952   3.901   0.595  1.2742 -0.9370  1.2496
 9485TIP3    H228420   4.823   3.975   0.625  0.8198 -0.5904 -1.2783
 9486TIP3   OH228421   6.340   5.875   1.366 -0.2237 -0.0236 -0.4627
 9486TIP3    H128422   6.284   5.875   1.288 -1.6554  1.0007  0.5004
 9486TIP3    H228423   6.306   5.803   1.419  2.5706 -2.6412 -1.9037
 9487TIP3   OH228424   4.374   0.498   1.614 -0.0056 -0.0851 -0.5457
 9487TIP3    H128425   4.378   0.560   1.687 -1.0247  0.5860 -1.0371
 9487TIP3    H228426   4.432   0.535   1.548 -0.3860  0.1851 -0.7260
 9488TIP3   OH228427   5.196   1.083   1.710 -0.0437 -0.2223  0.0741
 9488TIP3    H128428   5.155   1.156   1.665  0.4549  0.0462  0.0414
 9488TIP3    H228429   5.155   1.082   1.796  0.5215  0.6292  0.3729
 9489TIP3   OH228430   1.794   0.724   3.834 -0.3267  0.1804 -0.6087
 9489TIP3    H128431   1.811   0.790   3.900 -0.2801 -0.1813 -0.2582
 9489TIP3    H228432   1.738   0.659   3.877  1.3673 -1.1248 -0.2640
 9490TIP3   OH228433   0.487   3.264   5.837 -0.9053 -0.3403 -0.5960
 9490TIP3    H128434   0.493   3.168   5.845 -0.2960 -0.3461 -1.0184
 9490TIP3    H228435   0.534   3.297   5.914 -1.0604 -0.3777 -0.4842
 9491TIP3   OH228436   2.491   6.648   1.670 -0.9119  0.3887  0.6787
 9491TIP3    H128437   2.469   6.560   1.699  0.4788 -1.0340 -2.2034
 9491TIP3    H228438   2.494   6.642   1.575  0.3921  3.2718  0.4302
 9492TIP3   OH228439   2.317   6.143   0.655  0.0027 -0.0349  0.7720
 9492TIP3    H128440   2.300   6.096   0.737 -1.0332 -0.5312  0.2885
 9492TIP3    H228441   2.333   6.073   0.591 -1.0434  0.2771  0.1525
 9493TIP3   OH228442   0.110   6.667   5.180  0.2534 -0.4233 -0.2020
 9493TIP3    H128443   0.058   6.593   5.148  1.7788 -1.2440 -0.8871
 9493TIP3    H228444   0.116   6.653   5.274 -0.2159 -0.6646 -0.2033
 9494TIP3   OH228445   0.082   1.424   3.429 -0.1616 -0.0573 -0.0107
 9494TIP3    H128446   0.145   1.351   3.421 -0.9535 -0.8533  0.7871
 9494TIP3    H228447   0.132   1.493   3.472  0.4418 -0.3471 -0.2326
 9495TIP3   OH228448   2.427   1.889   3.604  0.1145 -0.6841 -0.1840
 9495TIP3    H128449   2.516   1.906   3.575 -0.4972  0.0698 -1.7331
 9495TIP3    H228450   2.415   1.795   3.590  0.7803 -0.8729  0.4317
 9496TIP3   OH228451   0.321   5.701   4.334  0.3189 -0.3808  0.9149
 9496TIP3    H128452   0.239   5.663   4.367 -1.7823  1.2176 -2.0071
 9496TIP3    H228453   0.361   5.631   4.282 -0.7758 -0.3237 -0.0559
 9497TIP3   OH228454   2.653   6.711   5.037 -0.2928  0.3707  0.2743
 9497TIP3    H128455   2.636   6.644   5.103 -0.7473  0.7312  0.5335
 9497TIP3    H228456   2.586   6.777   5.053 -0.7156  0.2330 -0.8630
 9498TIP3   OH228457   2.268   4.287   3.688 -0.2814  0.1622  0.4461
 9498TIP3    H128458   2.338   4.223   3.702  1.2248  1.5085 -0.4917
 9498TIP3    H228459   2.188   4.243   3.717  1.0076 -1.2685  1.9841
 9499TIP3   OH228460   2.395   4.665   5.893  0.4190  0.3034  0.8109
 9499TIP3    H128461   2.487   4.652   5.915  0.1941  0.3945  1.8600
 9499TIP3    H228462   2.386   4.760   5.885  0.6257  0.2437 -0.3162
 9500TIP3   OH228463   0.789   3.940   4.647  0.3600  0.1260 -1.2735
 9500TIP3    H128464   0.832   4.005   4.702  1.1284 -0.1477 -1.5283
 9500TIP3    H228465   0.698   3.939   4.677  0.8821 -0.4616  0.4015
 9501TIP3   OH228466   6.274   1.917   2.572  0.2560 -0.1239 -0.3234
 9501TIP3    H128467   6.324   1.971   2.632 -0.0892 -0.2755  0.1012
 9501TIP3    H228468   6.266   1.832   2.615 -2.7312  0.6652  0.9421
 9502TIP3   OH228469   3.580   3.159   3.104 -0.4191 -0.0494  0.5237
 9502TIP3    H128470   3.489   3.178   3.084 -0.0066  0.2508 -1.2992
 9502TIP3    H228471   3.595   3.197   3.190 -1.7469  0.8018  0.4019
 9503TIP3   OH228472   2.297   2.149   1.216 -0.1108 -0.0585 -0.1977
 9503TIP3    H128473   2.214   2.134   1.171 -0.3549 -0.3527  0.3446
 9503TIP3    H228474   2.364   2.123   1.152 -0.4618 -0.7844 -0.2810
 9504TIP3   OH228475   1.539   2.896   3.861  0.8297 -0.2577 -0.1553
 9504TIP3    H128476   1.490   2.828   3.907  1.8059  0.3158  1.8148
 9504TIP3    H228477   1.631   2.873   3.876  1.1744  0.3374 -1.2696
 9505TIP3   OH228478   0.691   5.922   2.794 -0.0486 -0.6030 -0.0333
 9505TIP3    H128479   0.631   5.915   2.720  0.2876 -0.2441 -0.3433
 9505TIP3    H228480   0.774   5.888   2.761 -0.0011 -0.8175  0.3029
 9506TIP3   OH228481   1.506   5.235   2.313 -0.6440  0.5921  0.0450
 9506TIP3    H128482   1.458   5.310   2.277 -1.9761  0.5499  1.6399
 9506TIP3    H228483   1.455   5.159   2.287 -0.6038  0.4255  0.4441
 9507TIP3   OH228484   6.535   3.728   4.989 -0.1892 -0.1388  0.2150
 9507TIP3    H128485   6.459   3.765   5.034 -0.1401 -0.8370  0.8839
 9507TIP3    H228486   6.536   3.636   5.014  1.9410  0.2247  1.7628
 9508TIP3   OH228487   0.282   5.264   3.403 -0.1176 -0.5399  0.3034
 9508TIP3    H128488   0.349   5.199   3.382  1.4155  0.9023  0.4909
 9508TIP3    H228489   0.304   5.339   3.347 -4.0590 -1.3842 -2.7919
 9509TIP3   OH228490   6.791   1.174   1.277  0.1449  0.0862  0.3517
 9509TIP3    H128491   6.857   1.238   1.248 -1.4042  1.7332  0.2602
 9509TIP3    H228492   6.817   1.092   1.236  0.9238  1.1884 -1.4757
 9510TIP3   OH228493   0.738   1.419   5.212  0.1158 -0.1851  0.3725
 9510TIP3    H128494   0.760   1.326   5.220 -1.4343 -0.5193  1.2430
 9510TIP3    H228495   0.810   1.465   5.254  0.9914 -0.9780 -0.2258
 9511TIP3   OH228496   1.936   0.722   5.514 -0.0949 -0.0806 -0.3779
 9511TIP3    H128497   1.911   0.643   5.466  2.0503 -1.0958  0.0408
 9511TIP3    H228498   1.853   0.760   5.543 -1.2582 -1.2810 -1.9629
 9512TIP3   OH228499   3.776   4.214   2.926 -0.0882 -0.6706  0.4534
 9512TIP3    H128500   3.839   4.184   2.991 -0.9248 -0.3647  1.4394
 9512TIP3    H228501   3.773   4.144   2.860 -1.0703 -2.2132  2.0445
 9513TIP3   OH228502   0.409   2.177   4.948  0.5431  0.2754 -0.8805
 9513TIP3    H128503   0.395   2.234   4.872  0.4779  1.3661 -0.0751
 9513TIP3    H228504   0.325   2.135   4.963 -0.3822  2.4492  0.4580
 9514TIP3   OH228505   4.333   5.954   0.985 -0.1344 -0.0337 -0.3226
 9514TIP3    H128506   4.298   6.037   0.953  0.4390  0.4103  0.1662
 9514TIP3    H228507   4.306   5.890   0.920 -0.4513  0.5641 -0.7927
 9515TIP3   OH228508   2.683   6.102   2.501  0.0851 -0.3587  0.1750
 9515TIP3    H128509   2.604   6.065   2.461  0.3216 -0.0256 -0.6244
 9515TIP3    H228510   2.667   6.197   2.501  0.5849 -0.2710 -0.2176
 9516TIP3   OH228511   5.085   6.096   4.143 -0.2328 -0.2505  0.5692
 9516TIP3    H128512   4.993   6.087   4.119 -0.0017  0.4827 -0.7090
 9516TIP3    H228513   5.130   6.029   4.091  0.2624  1.2587 -1.0668
 9517TIP3   OH228514   1.002   3.478   2.158  0.4722 -0.2137 -0.4457
 9517TIP3    H128515   0.966   3.390   2.145 -0.4505  0.1878 -0.6723
 9517TIP3    H228516   0.976   3.526   2.080  2.1664 -0.0958 -0.9962
 9518TIP3   OH228517   7.057   6.083   4.592  0.1608  0.2600  0.1797
 9518TIP3    H128518   7.142   6.049   4.621 -0.2619  0.8262  2.2441
 9518TIP3    H228519   7.031   6.144   4.661 -1.0546  1.5707 -1.3476
 9519TIP3   OH228520   0.254   5.827   1.399  0.1092 -0.1213  0.3685
 9519TIP3    H128521   0.343   5.800   1.379  0.1482  1.4939 -2.1008
 9519TIP3    H228522   0.205   5.810   1.318 -1.8357 -0.9303  1.6503
 9520TIP3   OH228523   5.738   5.686   0.596  0.6831  0.2035  0.1143
 9520TIP3    H128524   5.683   5.609   0.609  0.6453  0.2272  0.0968
 9520TIP3    H228525   5.826   5.658   0.620  1.0111 -0.3950 -1.6452
 9521TIP3   OH228526   4.548   0.762   5.494  0.0938 -0.0194 -0.5334
 9521TIP3    H128527   4.558   0.775   5.400  1.7208 -2.7335 -0.8359
 9521TIP3    H228528   4.453   0.759   5.507 -0.3067  3.5380 -1.4457
 9522TIP3   OH228529   4.516   0.246   1.960  0.2331 -0.1650  0.2976
 9522TIP3    H128530   4.559   0.322   1.923  2.7111 -1.3982  0.4280
 9522TIP3    H228531   4.425   0.252   1.930  0.4773  2.5276 -0.0818
 9523TIP3   OH228532   3.734   6.135   4.168  0.5633  0.3265 -0.7854
 9523TIP3    H128533   3.698   6.058   4.123  0.4280  0.2722 -0.5890
 9523TIP3    H228534   3.690   6.209   4.127 -0.7136  0.2042  0.2688
 9524TIP3   OH228535   2.693   6.284   0.567 -0.0134  0.0200  0.3296
 9524TIP3    H128536   2.656   6.197   0.554  0.8426 -0.3386  0.1960
 9524TIP3    H228537   2.708   6.290   0.661  1.0230 -0.4554  0.2099
 9525TIP3   OH228538   4.654   3.934   2.248 -0.1324  0.3771 -0.1035
 9525TIP3    H128539   4.582   3.997   2.256 -0.1799  0.1367  1.8425
 9525TIP3    H228540   4.733   3.984   2.266 -0.0522  0.1464  0.2025
 9526TIP3   OH228541   3.473   4.614   2.868 -0.0443  0.1802  0.0809
 9526TIP3    H128542   3.557   4.659   2.861 -0.0645  0.2254  0.1204
 9526TIP3    H228543   3.494   4.526   2.897 -0.1038  0.5776  1.3939
 9527TIP3   OH228544   5.288   5.108   0.852  0.7646  0.5449  0.1459
 9527TIP3    H128545   5.354   5.135   0.788  2.0102 -0.2254  1.0682
 9527TIP3    H228546   5.254   5.190   0.888  3.0079  0.9600  1.4478
 9528TIP3   OH228547   3.087   3.229   4.009 -0.0976  0.6136  0.2258
 9528TIP3    H128548   3.054   3.318   4.008  0.4085  0.8547 -2.1018
 9528TIP3    H228549   3.180   3.237   3.987 -0.2835 -0.4987 -1.1492
 9529TIP3   OH228550   6.924   2.552   4.214  0.5317 -0.1241 -0.5492
 9529TIP3    H128551   6.943   2.472   4.164  0.5627 -0.1557 -0.4874
 9529TIP3    H228552   6.997   2.559   4.275 -0.8814 -1.6375  1.4290
 9530TIP3   OH228553   2.000   0.683   2.846  0.3510  0.1681 -0.1313
 9530TIP3    H128554   1.944   0.733   2.905 -0.8007  1.0044 -1.8596
 9530TIP3    H228555   2.088   0.720   2.857 -0.1082  1.2055  0.0905
 9531TIP3   OH228556   2.844   3.407   5.497  0.8807 -0.1774 -0.1750
 9531TIP3    H128557   2.772   3.385   5.556  1.5323 -0.2185  0.6329
 9531TIP3    H228558   2.921   3.412   5.554  1.6013 -0.5665 -1.0839
 9532TIP3   OH228559   5.736   2.639   4.099  0.1638  0.0221  0.2849
 9532TIP3    H128560   5.828   2.622   4.119  0.1460  0.0899  0.4231
 9532TIP3    H228561   5.708   2.702   4.165  0.0981  0.2221  0.0653
 9533TIP3   OH228562   0.304   5.025   1.556 -0.2349 -0.6430  0.3545
 9533TIP3    H128563   0.295   4.993   1.466  0.6606 -0.7091  0.2862
 9533TIP3    H228564   0.295   5.120   1.548 -0.9684 -0.7106  0.3072
 9534TIP3   OH228565   2.547   4.499   5.202 -0.6944 -0.1929 -0.0141
 9534TIP3    H128566   2.542   4.592   5.223 -1.2641 -0.4796  1.1722
 9534TIP3    H228567   2.529   4.454   5.284  0.3933 -1.3650 -0.3859
 9535TIP3   OH228568   5.468   4.706   4.064  0.0581 -0.6141 -0.2016
 9535TIP3    H128569   5.492   4.702   3.972 -1.6763 -0.6254 -0.6940
 9535TIP3    H228570   5.448   4.615   4.088  1.9159 -0.8516  0.6380
 9536TIP3   OH228571   0.674   6.100   3.475  0.2701 -0.1591 -0.2835
 9536TIP3    H128572   0.757   6.062   3.504 -0.8537 -2.4852  0.0754
 9536TIP3    H228573   0.609   6.067   3.536 -1.3177 -0.5139 -2.0559
 9537TIP3   OH228574   3.745   4.665   2.218  0.3120  0.2454  0.2458
 9537TIP3    H128575   3.835   4.646   2.243  0.1771  0.2819  0.7609
 9537TIP3    H228576   3.748   4.670   2.122  0.6804 -0.6709  0.1941
 9538TIP3   OH228577   1.389   0.103   0.228 -0.3353  0.1601  0.0581
 9538TIP3    H128578   1.327   0.129   0.296 -0.2972 -0.2585  0.2579
 9538TIP3    H228579   1.364   0.155   0.151  1.0372  2.3757  1.0082
 9539TIP3   OH228580   2.482   5.893   3.548  0.3170  0.4680  0.1816
 9539TIP3    H128581   2.570   5.930   3.544 -0.0247  1.1774 -1.7575
 9539TIP3    H228582   2.425   5.968   3.566 -0.1255  0.4921 -1.2183
 9540TIP3   OH228583   3.432   2.658   5.681  0.0674  1.4138 -0.0968
 9540TIP3    H128584   3.443   2.603   5.758 -0.3100  2.5181  0.7803
 9540TIP3    H228585   3.521   2.686   5.659  0.3835 -0.2979 -1.1632
 9541TIP3   OH228586   2.253   3.789   3.285 -0.2799  0.6566 -0.0796
 9541TIP3    H128587   2.296   3.870   3.258 -0.5444  1.4208  1.6901
 9541TIP3    H228588   2.313   3.750   3.349 -0.7479  0.0809  0.0164
 9542TIP3   OH228589   3.260   5.683   1.785  0.0887  0.6389  0.0872
 9542TIP3    H128590   3.232   5.694   1.694 -1.2608  0.5274  0.4733
 9542TIP3    H228591   3.260   5.588   1.799 -2.5407  0.7025  1.0110
 9543TIP3   OH228592   4.883   3.856   1.530  0.2675 -0.5629  0.2798
 9543TIP3    H128593   4.863   3.890   1.443  1.5984  0.5065  0.3667
 9543TIP3    H228594   4.833   3.775   1.536  1.3636 -1.5025 -2.0995
 9544TIP3   OH228595   6.784   4.412   2.696  0.5561  0.1044 -1.2317
 9544TIP3    H128596   6.715   4.443   2.754 -1.1938 -2.0910 -2.0007
 9544TIP3    H228597   6.865   4.430   2.743 -0.5686  1.7232  0.2216
 9545TIP3   OH228598   0.841   4.679   4.535  0.1361  0.5372 -0.0397
 9545TIP3    H128599   0.802   4.681   4.623 -1.8150  0.6229 -0.8531
 9545TIP3    H228600   0.879   4.591   4.529  2.1579  1.2193  1.5942
 9546TIP3   OH228601   4.743   3.553   2.339  0.0473 -0.2852 -0.2267
 9546TIP3    H128602   4.684   3.483   2.312 -0.5856  0.8295 -1.9130
 9546TIP3    H228603   4.689   3.609   2.396 -0.5033  0.5677 -1.5238
 9547TIP3   OH228604   7.191   2.866   2.795 -0.0666 -0.4550  0.3063
 9547TIP3    H128605   7.132   2.857   2.869 -0.7650  1.2415  0.0091
 9547TIP3    H228606   7.157   2.804   2.730 -0.3221 -0.9125  0.8698
 9548TIP3   OH228607   6.821   1.429   4.066  0.0710  0.0482 -0.4965
 9548TIP3    H128608   6.818   1.340   4.030  1.7279  0.2414 -1.1634
 9548TIP3    H228609   6.866   1.419   4.150 -2.8664 -0.2355  1.1918
 9549TIP3   OH228610   2.637   1.837   3.169  0.2053 -0.2886  0.4032
 9549TIP3    H128611   2.660   1.750   3.201  1.9818  0.3728  1.0656
 9549TIP3    H228612   2.717   1.889   3.182  0.0933  0.7793 -2.4416
 9550TIP3   OH228613   7.136   4.693   5.339 -0.5538  0.2388  0.5598
 9550TIP3    H128614   7.075   4.662   5.272 -1.6515  0.0218  1.6268
 9550TIP3    H228615   7.221   4.658   5.312 -1.1770 -0.8286 -0.1016
 9551TIP3   OH228616   3.160   5.974   1.450  0.6287 -0.1152 -0.7433
 9551TIP3    H128617   3.145   6.058   1.406  0.5663 -0.0236 -0.5519
 9551TIP3    H228618   3.247   5.947   1.421  1.2232  0.6813  0.2294
 9552TIP3   OH228619   2.145   2.240   2.849  0.3106 -0.0122  0.2831
 9552TIP3    H128620   2.238   2.264   2.852  0.4970 -0.7169  0.3061
 9552TIP3    H228621   2.135   2.175   2.919 -0.3443  0.5264  0.7123
 9553TIP3   OH228622   1.901   5.549   5.543 -0.0905  0.9568 -0.0979
 9553TIP3    H128623   1.885   5.632   5.498  0.6522  1.5348  0.6801
 9553TIP3    H228624   1.994   5.549   5.563 -0.0661 -0.0961 -0.1166
 9554TIP3   OH228625   3.608   0.445   0.097 -0.6200  0.3256 -0.3353
 9554TIP3    H128626   3.682   0.404   0.052 -1.6936 -1.6629 -0.4193
 9554TIP3    H228627   3.531   0.414   0.048 -1.5317  2.4361 -0.3418
 9555TIP3   OH228628   4.052   1.182   5.320  0.6984  0.3775 -0.0182
 9555TIP3    H128629   3.978   1.202   5.377 -0.0291  0.1605 -0.8674
 9555TIP3    H228630   4.109   1.259   5.328  0.5477  0.4012  0.8998
 9556TIP3   OH228631   3.916   0.023   1.631  0.6189  0.2764 -0.5862
 9556TIP3    H128632   3.924   0.115   1.606  0.7625  1.1137  2.1460
 9556TIP3    H228633   3.914   0.025   1.727 -2.3072 -2.3230 -0.4240
 9557TIP3   OH228634   5.425   6.790   2.259 -0.2248 -0.2615 -0.6200
 9557TIP3    H128635   5.394   6.730   2.191  1.2656 -0.8992 -0.7763
 9557TIP3    H228636   5.358   6.858   2.264 -0.8236 -0.7163 -2.0560
 9558TIP3   OH228637   0.304   1.664   1.842  0.1059  0.0270  0.1111
 9558TIP3    H128638   0.220   1.620   1.855 -0.2567  0.6974  0.0824
 9558TIP3    H228639   0.352   1.650   1.923 -0.1585 -0.0920  0.2462
 9559TIP3   OH228640   3.793   0.458   5.563 -0.1277  0.0002 -0.4030
 9559TIP3    H128641   3.838   0.498   5.636  1.2897  0.4632 -1.4865
 9559TIP3    H228642   3.706   0.498   5.564  0.5294  1.4969 -0.1481
 9560TIP3   OH228643   2.518   0.953   5.409  0.2720 -0.5713 -0.0544
 9560TIP3    H128644   2.539   1.006   5.333 -0.9172  0.3455  0.2307
 9560TIP3    H228645   2.594   0.964   5.467  0.6346 -0.2817 -0.5720
 9561TIP3   OH228646   3.446   6.194   3.661  0.2330 -0.0578  0.1101
 9561TIP3    H128647   3.426   6.287   3.672 -1.1252 -0.5256  2.0464
 9561TIP3    H228648   3.387   6.165   3.592 -0.6411  0.1401  0.7661
 9562TIP3   OH228649   4.492   2.029   1.903  0.2001 -0.2763 -0.3703
 9562TIP3    H128650   4.558   2.048   1.970 -1.3744  1.0728  0.8812
 9562TIP3    H228651   4.537   1.973   1.840  2.1746 -0.3825  1.0502
 9563TIP3   OH228652   0.871   0.092   1.896  0.0612  0.0338  0.2857
 9563TIP3    H128653   0.884   0.178   1.857  0.0152 -0.4056 -0.7101
 9563TIP3    H228654   0.844   0.111   1.986 -1.9294  1.1339 -0.4665
 9564TIP3   OH228655   5.865   0.427   2.503  0.0122 -0.2582 -0.6192
 9564TIP3    H128656   5.895   0.485   2.573  0.2482  0.1487 -1.0442
 9564TIP3    H228657   5.770   0.431   2.507  0.0245 -0.3808 -0.2039
 9565TIP3   OH228658   5.820   2.596   1.570  0.3240 -0.3552  0.0176
 9565TIP3    H128659   5.781   2.510   1.561  2.1474 -1.1853 -0.3886
 9565TIP3    H228660   5.915   2.581   1.563  0.6435  1.8380 -1.8242
 9566TIP3   OH228661   6.778   0.386   2.158  0.1377  0.1549 -0.4661
 9566TIP3    H128662   6.836   0.365   2.085  2.1014 -0.0026  1.0826
 9566TIP3    H228663   6.767   0.481   2.153  1.3278  0.3178 -0.2226
 9567TIP3   OH228664   7.092   2.675   3.659 -0.2006  0.4753  0.7504
 9567TIP3    H128665   7.086   2.671   3.754 -0.6295 -0.5687  0.6989
 9567TIP3    H228666   7.087   2.583   3.631 -0.9747  0.8236 -0.3208
 9568TIP3   OH228667   2.972   0.458   0.972 -0.3152 -0.0226 -0.1724
 9568TIP3    H128668   3.035   0.471   0.901 -0.4841  0.1005 -0.3008
 9568TIP3    H228669   3.026   0.440   1.048 -0.1569 -1.4049 -0.5825
 9569TIP3   OH228670   0.612   4.318   0.460 -0.0258  0.7627 -0.4414
 9569TIP3    H128671   0.627   4.388   0.396  0.3464  0.3123 -0.8600
 9569TIP3    H228672   0.696   4.270   0.463 -0.2646  0.3537 -0.1431
 9570TIP3   OH228673   2.465   3.089   5.038 -0.1251  0.1722  0.4534
 9570TIP3    H128674   2.540   3.070   5.094  0.4444  0.5345 -0.1606
 9570TIP3    H228675   2.501   3.085   4.949 -1.0257 -0.5050  0.0992
 9571TIP3   OH228676   2.764   0.756   0.470  0.0283  0.6754  0.2838
 9571TIP3    H128677   2.792   0.735   0.560 -1.9265 -2.7371  0.2707
 9571TIP3    H228678   2.705   0.830   0.481 -1.1076 -0.4036  2.0517
 9572TIP3   OH228679   1.774   5.732   3.920  0.2938  0.3789  0.2048
 9572TIP3    H128680   1.721   5.810   3.933 -2.3087 -1.0964 -0.7466
 9572TIP3    H228681   1.860   5.755   3.954 -0.6883  3.2333  1.0155
 9573TIP3   OH228682   5.660   0.003   3.171  0.1683 -0.3566  0.0874
 9573TIP3    H128683   5.748   0.026   3.141  1.1607 -1.8906  1.6585
 9573TIP3    H228684   5.669  -0.007   3.266 -2.6151  3.4833  1.0085
 9574TIP3   OH228685   0.252   0.413   0.930  0.2194  0.0858 -0.1494
 9574TIP3    H128686   0.196   0.385   1.002 -0.3546  1.4568 -0.0268
 9574TIP3    H228687   0.233   0.507   0.920 -0.7904 -0.3338 -2.9985
 9575TIP3   OH228688   4.606   1.721   2.090 -0.0952 -0.4856 -0.2474
 9575TIP3    H128689   4.599   1.628   2.071 -1.5131  0.0155 -2.6750
 9575TIP3    H228690   4.574   1.764   2.011  0.1592  2.0792  0.9266
 9576TIP3   OH228691   3.777   6.404   5.229  0.1400 -0.4764  0.1836
 9576TIP3    H128692   3.737   6.336   5.283  0.3590  0.4682  1.5997
 9576TIP3    H228693   3.769   6.372   5.140  0.1214 -2.2863  0.8011
 9577TIP3   OH228694   6.557   4.828   4.885  0.4118  0.4581 -0.3409
 9577TIP3    H128695   6.565   4.919   4.854  2.3583  0.5191  0.2127
 9577TIP3    H228696   6.557   4.776   4.805 -0.0536  0.9037 -0.6397
 9578TIP3   OH228697   5.548   3.647   0.244 -0.5747 -0.1092  0.2066
 9578TIP3    H128698   5.583   3.722   0.292 -1.8258  0.7983 -0.2514
 9578TIP3    H228699   5.585   3.656   0.156  1.0748 -1.3273  0.7170
 9579TIP3   OH228700   5.933   4.379   1.080  0.3236  0.6334 -0.3335
 9579TIP3    H128701   5.982   4.301   1.052 -0.9753 -0.1988 -0.3781
 9579TIP3    H228702   5.866   4.346   1.140  0.4694  1.8816  0.5628
 9580TIP3   OH228703   3.070   1.198   2.581 -0.2142  0.3591  0.9160
 9580TIP3    H128704   3.077   1.129   2.515  1.9312 -0.0586  1.4871
 9580TIP3    H228705   3.109   1.160   2.659 -1.3415  1.3661  2.0053
 9581TIP3   OH228706   6.742   1.749   2.048  0.5560  0.1424 -0.0752
 9581TIP3    H128707   6.838   1.751   2.041  0.5700 -0.8264 -0.2481
 9581TIP3    H228708   6.725   1.691   2.122  0.0800 -0.4576 -0.6543
 9582TIP3   OH228709   5.941   0.204   1.060 -0.2192  0.5379 -0.6193
 9582TIP3    H128710   5.926   0.110   1.053  1.9764  0.0873  0.1626
 9582TIP3    H228711   5.925   0.237   0.971 -2.9694 -0.1972 -0.4824
 9583TIP3   OH228712   2.282   0.278   1.947 -0.6843 -0.3587 -0.0915
 9583TIP3    H128713   2.233   0.360   1.936  1.8090  1.2306 -0.1178
 9583TIP3    H228714   2.372   0.301   1.925  0.5165 -2.5867  2.0692
 9584TIP3   OH228715   3.447   4.208   0.292  0.6433  0.5359  0.2120
 9584TIP3    H128716   3.396   4.278   0.334  1.4843  0.7695  0.8686
 9584TIP3    H228717   3.434   4.132   0.348 -1.6882 -0.3806 -1.4272
 9585TIP3   OH228718   1.613   6.586   1.563 -0.1966  0.0740 -0.2893
 9585TIP3    H128719   1.645   6.591   1.473 -0.0467  0.4119 -0.2177
 9585TIP3    H228720   1.592   6.677   1.586  3.2691  0.6064  1.2817
 9586TIP3   OH228721   3.060   3.310   2.801 -0.2527  0.0313  0.3295
 9586TIP3    H128722   3.128   3.243   2.796  0.1091  0.3224  1.1481
 9586TIP3    H228723   3.108   3.393   2.802 -0.6152  0.2435  0.7631
 9587TIP3   OH228724   3.109   2.220   4.515  0.2581  0.1726 -0.3238
 9587TIP3    H128725   3.077   2.289   4.456  0.1048  0.3807  0.0035
 9587TIP3    H228726   3.070   2.241   4.600  0.4210 -0.1706 -0.1640
 9588TIP3   OH228727   2.826   0.295   0.631 -0.2044  0.2603  0.3040
 9588TIP3    H128728   2.914   0.271   0.603 -0.9869 -1.2934 -0.9367
 9588TIP3    H228729   2.794   0.354   0.563 -0.0527  1.0286  0.8833
 9589TIP3   OH228730   3.320   3.461   0.368 -0.5922 -0.1367  0.1787
 9589TIP3    H128731   3.404   3.485   0.407 -0.4367  0.5796 -0.5713
 9589TIP3    H228732   3.256   3.477   0.438 -0.2886  0.8710  0.2393
 9590TIP3   OH228733   6.983   5.019   4.758 -0.4452  0.3737 -0.4730
 9590TIP3    H128734   6.961   5.061   4.841  2.0959  0.5876  0.1863
 9590TIP3    H228735   7.036   5.084   4.712  2.7019 -1.5529  0.1154
 9591TIP3   OH228736   2.588   6.024   0.632  0.0145  0.0161 -0.1220
 9591TIP3    H128737   2.522   5.962   0.662  0.2733  0.5166  1.5513
 9591TIP3    H228738   2.637   6.049   0.711  2.6441 -0.8162 -1.3589
 9592TIP3   OH228739   7.182   2.055   0.051 -0.2353 -0.2140 -0.1291
 9592TIP3    H128740   7.226   1.992   0.109 -1.7673  0.8195  2.3068
 9592TIP3    H228741   7.094   2.020   0.040 -1.1738  1.5074  1.4202
 9593TIP3   OH228742   2.142   2.002   0.392 -0.5101  0.0520 -0.1809
 9593TIP3    H128743   2.106   2.090   0.390  1.4342  0.9203  1.0171
 9593TIP3    H228744   2.176   1.991   0.481  0.8668 -1.2389 -0.8153
 9594TIP3   OH228745   0.040   4.341   1.945  0.3602  0.6074  0.1198
 9594TIP3    H128746   0.057   4.366   2.036 -1.1860  0.4833  0.4733
 9594TIP3    H228747   0.093   4.402   1.893  1.8227  0.2215  1.0899
 9595TIP3   OH228748   0.796   6.558   0.650 -0.4599 -0.4230 -0.1123
 9595TIP3    H128749   0.865   6.516   0.599 -0.5784  0.4280 -1.0140
 9595TIP3    H228750   0.820   6.542   0.741  0.2883 -1.1447 -0.4252
 9596TIP3   OH228751   3.180   3.863   5.306  0.2432 -0.0401 -0.2080
 9596TIP3    H128752   3.145   3.786   5.351 -1.0228  1.2338  1.1116
 9596TIP3    H228753   3.248   3.897   5.364 -1.1096  1.3750  0.6309
 9597TIP3   OH228754   4.122   0.998   5.526  0.0020  0.1833 -0.0781
 9597TIP3    H128755   4.060   1.037   5.587  0.6886  0.6340  0.3414
 9597TIP3    H228756   4.105   1.043   5.443 -1.5634 -1.0832 -0.4834
 9598TIP3   OH228757   6.641   0.832   3.142 -0.4744 -0.2420 -0.0163
 9598TIP3    H128758   6.650   0.855   3.049 -0.5484 -0.9086 -0.1970
 9598TIP3    H228759   6.695   0.753   3.152 -1.0830 -0.6232  0.3226
 9599TIP3   OH228760   2.665   3.530   2.187  0.3832  0.3688  0.4119
 9599TIP3    H128761   2.668   3.515   2.282  1.6544  0.9160  0.4850
 9599TIP3    H228762   2.753   3.560   2.165  0.3720 -0.6399 -1.1129
 9600TIP3   OH228763   0.657   0.734   5.359 -0.2675  0.7896  0.3835
 9600TIP3    H128764   0.692   0.649   5.386 -0.0217  1.0661  0.9577
 9600TIP3    H228765   0.587   0.712   5.297 -0.3423  0.1593  0.6755
 9601TIP3   OH228766   5.846   4.945   2.391 -0.1004 -0.3014 -0.0686
 9601TIP3    H128767   5.928   4.903   2.363 -0.8242 -1.0798 -1.1169
 9601TIP3    H228768   5.868   4.986   2.474  1.1553 -1.1766  0.0742
 9602TIP3   OH228769   1.088   2.583   3.472  0.1353  0.3325 -0.4818
 9602TIP3    H128770   1.119   2.501   3.511 -0.4835  1.0736  1.7298
 9602TIP3    H228771   1.015   2.610   3.527 -0.5217  1.7323 -1.9439
 9603TIP3   OH228772   4.866   5.003   4.368  0.9290 -0.1038  0.2220
 9603TIP3    H128773   4.943   5.011   4.312  0.2877 -0.8194 -0.7999
 9603TIP3    H228774   4.879   4.920   4.414  1.0022  0.0151  0.4153
 9604TIP3   OH228775   2.905   6.491   2.579 -0.0155 -0.3844  0.4989
 9604TIP3    H128776   2.956   6.460   2.505  0.4039  1.0587  0.1487
 9604TIP3    H228777   2.964   6.482   2.654 -0.1491 -1.0635  0.5310
 9605TIP3   OH228778   0.669   6.660   2.310  0.1707  0.0958  0.2035
 9605TIP3    H128779   0.576   6.680   2.305  0.2150  0.6798  1.5386
 9605TIP3    H228780   0.695   6.647   2.218 -1.2996 -0.5155 -0.1538
 9606TIP3   OH228781   0.051   2.034   1.978  0.2147 -0.1760 -0.4395
 9606TIP3    H128782   0.066   2.037   1.883  0.1096  0.0458 -0.4499
 9606TIP3    H228783   0.027   2.124   2.001 -2.8518 -0.7937 -0.7400
 9607TIP3   OH228784   0.353   6.355   1.701 -0.3837  0.2154 -0.4209
 9607TIP3    H128785   0.408   6.283   1.672 -0.6777 -0.4596  0.6470
 9607TIP3    H228786   0.264   6.329   1.677 -0.3877  0.7257 -0.9954
 9608TIP3   OH228787   3.767   2.368   5.003 -0.2067 -0.0073  0.5890
 9608TIP3    H128788   3.686   2.326   4.974  0.4001 -1.7057  1.1904
 9608TIP3    H228789   3.833   2.298   5.000  1.4517  1.5122 -0.6403
 9609TIP3   OH228790   1.212   1.407   2.210  0.1347 -0.1412 -0.4348
 9609TIP3    H128791   1.306   1.390   2.221  0.4600  0.4535 -2.0345
 9609TIP3    H228792   1.180   1.422   2.299  1.6992  0.3326  0.0816
 9610TIP3   OH228793   1.065   2.676   3.217  0.4558  1.0194 -0.0961
 9610TIP3    H128794   1.030   2.756   3.257  0.2989  0.8278  0.1551
 9610TIP3    H228795   1.088   2.621   3.292 -1.2478  0.0312 -0.2509
 9611TIP3   OH228796   0.598   1.522   4.114 -0.0789  0.1364 -0.1769
 9611TIP3    H128797   0.584   1.454   4.179  0.1030  0.5025  0.2508
 9611TIP3    H228798   0.690   1.544   4.121 -0.3376  1.1109  0.3816
 9612TIP3   OH228799   1.864   6.170   3.207 -0.4024  0.5329 -0.3678
 9612TIP3    H128800   1.944   6.177   3.155  1.8353 -3.0054  2.2006
 9612TIP3    H228801   1.797   6.142   3.144  1.2341  0.0450 -1.9718
 9613TIP3   OH228802   6.071   4.323   5.595 -0.1107  0.2225 -0.1151
 9613TIP3    H128803   6.041   4.264   5.665 -1.5370  0.9175 -0.1158
 9613TIP3    H228804   6.076   4.409   5.636 -1.8133  0.8150 -1.0208
 9614TIP3   OH228805   2.517   1.652   1.623  0.5140  0.7033 -0.0396
 9614TIP3    H128806   2.609   1.667   1.600  0.7176  0.2202  0.4423
 9614TIP3    H228807   2.468   1.688   1.549  1.0783  1.2456 -0.1586
 9615TIP3   OH228808   0.745   2.020   0.919 -0.6531 -0.4282 -0.2061
 9615TIP3    H128809   0.798   1.957   0.969 -2.6162 -1.3570  0.8082
 9615TIP3    H228810   0.731   1.978   0.835  2.7162  1.1659 -1.7860
 9616TIP3   OH228811   5.422   2.482   2.479 -0.2655 -0.0382  0.0763
 9616TIP3    H128812   5.465   2.543   2.419  3.8538 -1.2393  1.4224
 9616TIP3    H228813   5.444   2.395   2.446 -0.5648 -0.7311  1.5747
 9617TIP3   OH228814   2.928   6.461   0.527 -0.0192  0.1496  0.0665
 9617TIP3    H128815   2.840   6.433   0.502  1.1019 -1.8549 -2.0750
 9617TIP3    H228816   2.970   6.381   0.559  1.4462  0.7461 -0.3047
 9618TIP3   OH228817   2.164   6.760   0.652  0.1030  0.4458 -0.2045
 9618TIP3    H128818   2.142   6.671   0.622  0.1649  0.3888 -0.0805
 9618TIP3    H228819   2.110   6.817   0.597  1.0513  0.4008 -1.2125
 9619TIP3   OH228820   4.901   1.861   2.882  0.5121  0.2140  0.0603
 9619TIP3    H128821   4.860   1.806   2.815  1.6841 -0.6795  0.0673
 9619TIP3    H228822   4.835   1.929   2.899 -0.8802 -1.0360 -0.0984
 9620TIP3   OH228823   1.948   5.159   3.374  0.4064 -0.3165  0.3285
 9620TIP3    H128824   1.886   5.136   3.443 -0.9783  0.6780 -0.5179
 9620TIP3    H228825   1.893   5.191   3.303  1.9340  1.2480 -0.2235
 9621TIP3   OH228826   0.345   4.464   3.325 -0.2593  0.5430  0.6301
 9621TIP3    H128827   0.281   4.524   3.285 -0.9041 -0.9095 -0.6212
 9621TIP3    H228828   0.292   4.390   3.354  0.6842 -0.0037  0.9696
 9622TIP3   OH228829   7.166   1.639   1.944 -0.0470  0.8865 -0.2357
 9622TIP3    H128830   7.156   1.570   1.878 -1.3897  1.0140 -0.2022
 9622TIP3    H228831   7.158   1.721   1.895 -2.1869  0.9810  0.1845
 9623TIP3   OH228832   1.488   4.532   2.218  0.2927  0.2360 -0.5410
 9623TIP3    H128833   1.393   4.530   2.231  0.5681  0.3468  1.8522
 9623TIP3    H228834   1.502   4.480   2.139 -1.8229  1.0581 -1.5244
 9624TIP3   OH228835   3.189   4.831   1.322  0.0284 -0.1641  0.2157
 9624TIP3    H128836   3.152   4.887   1.390 -0.4969  0.1276 -0.3040
 9624TIP3    H228837   3.163   4.873   1.240  1.8260  0.2775 -0.1835
 9625TIP3   OH228838   1.378   6.090   5.442 -0.2312  0.2834 -0.1970
 9625TIP3    H128839   1.396   6.073   5.350  2.5123 -0.2310  0.3694
 9625TIP3    H228840   1.391   6.184   5.453  1.0843  0.0904 -0.0247
 9626TIP3   OH228841   1.302   2.026   5.885 -0.1597 -0.2832 -0.5892
 9626TIP3    H128842   1.351   2.026   5.802  0.4540 -0.9260 -0.2281
 9626TIP3    H228843   1.308   1.936   5.917 -1.2551 -0.2777 -0.3421
 9627TIP3   OH228844   4.249   2.574   4.488 -0.0647 -0.3573  0.5656
 9627TIP3    H128845   4.333   2.554   4.446  0.7074 -0.3721  2.0642
 9627TIP3    H228846   4.217   2.490   4.520  0.8872  0.0521  2.7148
 9628TIP3   OH228847   3.379   6.536   3.944 -0.1532 -0.3032 -0.4033
 9628TIP3    H128848   3.301   6.589   3.955 -1.2444 -1.4175 -2.2432
 9628TIP3    H228849   3.397   6.500   4.031 -0.0197  2.1208  0.6410
 9629TIP3   OH228850   0.282   5.079   1.084  0.0166  0.2536 -0.1342
 9629TIP3    H128851   0.268   5.145   1.016 -1.6896  0.1812  0.1175
 9629TIP3    H228852   0.249   4.998   1.046 -1.3212  0.2896  0.9064
 9630TIP3   OH228853   7.014   3.971   4.316  0.2014  0.5136 -0.0523
 9630TIP3    H128854   7.056   3.885   4.323 -1.0199  0.0107  1.7704
 9630TIP3    H228855   7.088   4.032   4.305  1.3982 -0.4283  2.1261
 9631TIP3   OH228856   0.881   3.866   0.826  0.5069 -0.1337  0.3051
 9631TIP3    H128857   0.785   3.865   0.826  0.2938  3.3218  1.7731
 9631TIP3    H228858   0.905   3.881   0.735 -0.4218 -0.2933  0.0277
 9632TIP3   OH228859   5.491   3.657   5.718  0.1260 -0.1252  0.1589
 9632TIP3    H128860   5.562   3.720   5.727 -0.2159  0.3196 -0.1840
 9632TIP3    H228861   5.533   3.571   5.725  0.8141  0.1158 -0.8130
 9633TIP3   OH228862   2.938   0.575   0.647 -0.6567  0.3940  0.0882
 9633TIP3    H128863   2.888   0.499   0.676  1.1491 -0.1107  2.1715
 9633TIP3    H228864   3.026   0.541   0.633  0.1891  2.0688  1.0786
 9634TIP3   OH228865   0.422   4.541   0.143 -0.3959  0.1291  0.4510
 9634TIP3    H128866   0.444   4.564   0.053 -2.6331 -0.4392 -0.3034
 9634TIP3    H228867   0.506   4.520   0.184  0.6269 -0.0509 -1.6189
 9635TIP3   OH228868   6.513   3.825   3.544 -0.3267 -0.1472 -0.1675
 9635TIP3    H128869   6.497   3.779   3.626 -0.6072 -0.9470 -0.6542
 9635TIP3    H228870   6.572   3.896   3.567  0.0028 -0.6642  0.6360
 9636TIP3   OH228871   0.112   5.935   2.887  0.0742 -0.1057 -0.4143
 9636TIP3    H128872   0.158   6.018   2.869  2.3047 -1.6808 -2.8507
 9636TIP3    H228873   0.157   5.898   2.963 -0.1130  0.3390 -0.0821
 9637TIP3   OH228874   5.110   4.376   4.907 -0.5129  0.3542 -0.4805
 9637TIP3    H128875   5.110   4.386   5.002 -0.2592  1.1017 -0.5517
 9637TIP3    H228876   5.130   4.284   4.892 -0.5508  0.2358  0.1925
 9638TIP3   OH228877   1.029   3.610   3.791 -0.5175 -0.2945  0.1562
 9638TIP3    H128878   0.979   3.691   3.800  1.8384  1.0886  2.0398
 9638TIP3    H228879   1.097   3.632   3.727  0.3987 -0.6104  1.0014
 9639TIP3   OH228880   4.948   6.731   4.542 -0.3297  0.2680  0.5298
 9639TIP3    H128881   4.905   6.672   4.480 -0.1398  1.4181 -0.7392
 9639TIP3    H228882   5.042   6.720   4.523 -0.3040  1.1199  0.1275
 9640TIP3   OH228883   6.368   1.814   1.252 -0.2993  0.2393  0.2459
 9640TIP3    H128884   6.444   1.782   1.302  0.1169 -1.1310 -1.1982
 9640TIP3    H228885   6.406   1.857   1.176 -0.9486  1.5331  0.6375
 9641TIP3   OH228886   2.581   5.083   4.494  0.1162 -0.2209 -0.5266
 9641TIP3    H128887   2.634   5.015   4.535 -1.0278 -0.8067  0.0290
 9641TIP3    H228888   2.594   5.070   4.400  0.6225 -0.6223 -0.4022
 9642TIP3   OH228889   0.255   3.440   3.453 -0.2685  0.3750  0.1571
 9642TIP3    H128890   0.349   3.445   3.469 -0.3761 -0.2583  1.0557
 9642TIP3    H228891   0.216   3.497   3.519 -0.5042  0.8294 -0.3705
 9643TIP3   OH228892   0.079   0.656   0.929 -0.2585 -0.1326 -0.0982
 9643TIP3    H128893   0.152   0.690   0.877 -1.3036  0.7885 -1.0000
 9643TIP3    H228894   0.061   0.725   0.993 -1.9086  0.7802 -1.4651
 9644TIP3   OH228895   1.411   1.085   3.802 -0.2516 -0.1857 -0.1467
 9644TIP3    H128896   1.421   1.168   3.755 -2.1138  0.4806  0.5162
 9644TIP3    H228897   1.361   1.030   3.741  0.9136 -0.8166 -0.5539
 9645TIP3   OH228898   2.472   0.555   1.034  0.0753  0.0900 -0.3276
 9645TIP3    H128899   2.405   0.521   1.092  0.0390 -0.7080 -0.8348
 9645TIP3    H228900   2.552   0.555   1.088 -0.1876  0.4643  0.0780
 9646TIP3   OH228901   3.779   2.143   2.069 -0.8795  0.0557  0.8540
 9646TIP3    H128902   3.838   2.081   2.027 -2.0172 -1.5196  1.4954
 9646TIP3    H228903   3.729   2.182   1.997  0.5995  1.1185  0.3427
 9647TIP3   OH228904   3.565   5.813   3.551  0.2649  0.2393 -0.0189
 9647TIP3    H128905   3.470   5.816   3.545  0.3000  0.2430 -0.7221
 9647TIP3    H228906   3.595   5.845   3.466  0.8929  0.2070  0.1840
 9648TIP3   OH228907   5.651   2.793   0.569 -0.6387 -0.2781 -0.1309
 9648TIP3    H128908   5.656   2.765   0.478 -0.4688 -1.0092  0.0947
 9648TIP3    H228909   5.629   2.714   0.618  2.1609 -0.6047  0.8158
 9649TIP3   OH228910   6.317   3.044   4.173  0.2853 -0.3073 -0.0326
 9649TIP3    H128911   6.289   3.127   4.211 -0.8023 -1.0083  0.7616
 9649TIP3    H228912   6.375   3.069   4.100 -1.7454  1.2212 -1.2420
 9650TIP3   OH228913   3.677   0.367   5.270 -0.1350 -0.5021  0.8136
 9650TIP3    H128914   3.697   0.274   5.278  1.2369 -0.2219  0.7813
 9650TIP3    H228915   3.721   0.408   5.344  1.0467  0.3683 -0.3294
 9651TIP3   OH228916   1.705   4.587   4.980 -0.1946 -0.3736 -0.4109
 9651TIP3    H128917   1.643   4.657   4.959 -0.1112  0.5625  2.0743
 9651TIP3    H228918   1.775   4.597   4.915 -0.1257  1.9834 -0.0729
 9652TIP3   OH228919   1.239   1.029   1.959  0.1777 -0.1073 -0.0817
 9652TIP3    H128920   1.200   0.960   1.906  0.0129 -1.4144  1.6663
 9652TIP3    H228921   1.332   1.028   1.935 -0.0423 -0.0815 -0.9556
 9653TIP3   OH228922   3.860   6.713   5.542 -0.1167 -0.5657 -0.1585
 9653TIP3    H128923   3.920   6.787   5.537  0.0671 -0.7343 -0.4655
 9653TIP3    H228924   3.916   6.635   5.539 -0.3665 -0.7292 -0.8119
 9654TIP3   OH228925   3.335   3.036   0.119 -0.2246 -0.3669  0.2040
 9654TIP3    H128926   3.405   3.084   0.164 -2.5305  1.3568  2.2269
 9654TIP3    H228927   3.292   2.986   0.188 -0.9142 -1.5391 -1.0283
 9655TIP3   OH228928   0.443   5.263   5.117  0.4617  0.1445  0.2104
 9655TIP3    H128929   0.446   5.241   5.210  0.9760  0.3217  0.2396
 9655TIP3    H228930   0.382   5.337   5.111 -1.1332 -1.1091  0.1396
 9656TIP3   OH228931   4.593   0.493   1.900 -0.1697 -0.1851  0.3554
 9656TIP3    H128932   4.642   0.526   1.825  1.8042 -0.9815  1.2301
 9656TIP3    H228933   4.584   0.569   1.958 -1.0593  0.2467 -0.3076
 9657TIP3   OH228934   7.167   0.149   4.964 -0.0486  0.2001  0.0652
 9657TIP3    H128935   7.215   0.142   5.047  0.6386  2.2489 -0.0952
 9657TIP3    H228936   7.208   0.085   4.907 -1.2573 -2.0421  1.5774
 9658TIP3   OH228937   5.866   4.288   3.107  0.4728  0.0566  0.0118
 9658TIP3    H128938   5.865   4.327   3.194 -1.2910 -1.2473  0.6256
 9658TIP3    H228939   5.916   4.207   3.117  0.8260  0.2161 -0.3720
 9659TIP3   OH228940   5.159   1.975   1.551  0.7156  0.4013  0.5603
 9659TIP3    H128941   5.217   2.035   1.598  0.2610  0.7148  0.7266
 9659TIP3    H228942   5.084   1.963   1.609 -2.0447  4.2549 -1.7207
 9660TIP3   OH228943   0.303   1.060   0.749  0.3699 -0.2940  0.1779
 9660TIP3    H128944   0.350   1.143   0.765  0.5952 -0.6877  1.7486
 9660TIP3    H228945   0.212   1.080   0.772  0.3272 -0.3383  0.0447
 9661TIP3   OH228946   0.594   4.426   4.579  0.2729  0.1864 -0.1671
 9661TIP3    H128947   0.612   4.461   4.666  0.9764  0.3649 -0.3789
 9661TIP3    H228948   0.596   4.331   4.591  1.2876  0.1975 -0.1580
 9662TIP3   OH228949   2.678   4.375   4.040 -0.2922 -0.2532  0.0708
 9662TIP3    H128950   2.755   4.391   3.985  1.6774 -2.7983  1.8719
 9662TIP3    H228951   2.702   4.411   4.125 -0.3837 -2.4130  1.0662
 9663TIP3   OH228952   3.755   0.805   5.613  0.2859 -0.1807 -0.1110
 9663TIP3    H128953   3.838   0.759   5.623  0.7356  0.5072 -0.5523
 9663TIP3    H228954   3.697   0.742   5.570  0.7271 -0.5018 -0.2428
 9664TIP3   OH228955   2.319   1.275   1.906  0.3731 -0.0820 -0.1446
 9664TIP3    H128956   2.302   1.202   1.846  0.3082 -0.8130  0.7441
 9664TIP3    H228957   2.265   1.347   1.872 -1.5899 -1.2250  0.4269
 9665TIP3   OH228958   1.643   0.320   1.190 -0.0752  0.3190  0.6487
 9665TIP3    H128959   1.674   0.230   1.181 -0.0171  0.4804 -1.0370
 9665TIP3    H228960   1.548   0.311   1.196 -0.3024  0.2256 -1.9947
 9666TIP3   OH228961   1.844   3.519   1.066  0.0827  0.5718 -0.3570
 9666TIP3    H128962   1.900   3.566   1.005 -0.3516  0.8397 -0.5473
 9666TIP3    H228963   1.905   3.480   1.129  0.4922  0.7387 -0.6477
 9667TIP3   OH228964   0.233   2.923   4.101  0.4676  0.1308  0.1786
 9667TIP3    H128965   0.238   2.858   4.172  0.4974 -0.3636 -0.2733
 9667TIP3    H228966   0.283   2.884   4.030  0.0788  0.4401 -0.2642
 9668TIP3   OH228967   2.430   0.627   2.686  0.0010  0.0728 -0.5517
 9668TIP3    H128968   2.404   0.709   2.728  0.1147  0.2009 -0.7350
 9668TIP3    H228969   2.494   0.652   2.620  1.5878 -0.3753  0.7511
 9669TIP3   OH228970   0.576   2.420   0.076 -0.0338  0.2677 -0.2833
 9669TIP3    H128971   0.575   2.482   0.148 -1.7818 -0.0968  0.0428
 9669TIP3    H228972   0.598   2.473  -0.001  3.4814  0.3995  0.6381
 9670TIP3   OH228973   3.526   4.387   1.350  0.2597  0.3218  0.3679
 9670TIP3    H128974   3.574   4.311   1.317  0.0026 -0.2443  1.2553
 9670TIP3    H228975   3.592   4.441   1.392  0.4943  0.7505 -0.5528
 9671TIP3   OH228976   5.245   3.075   4.513 -0.6055  0.1128  0.4593
 9671TIP3    H128977   5.302   3.126   4.571 -0.0942  0.7226 -0.5537
 9671TIP3    H228978   5.189   3.139   4.471 -0.9920 -0.3253  0.2985
 9672TIP3   OH228979   3.065   6.339   4.457 -0.3069 -0.1304 -0.4767
 9672TIP3    H128980   3.156   6.356   4.433 -0.2183 -0.4352 -0.3625
 9672TIP3    H228981   3.030   6.289   4.384  0.0126 -1.2123  0.0918
 9673TIP3   OH228982   6.965   3.557   0.259  0.0024 -0.5710 -0.1787
 9673TIP3    H128983   6.875   3.562   0.227  0.2950  0.0224 -0.9314
 9673TIP3    H228984   6.956   3.540   0.353 -0.8713 -1.9482 -0.4846
 9674TIP3   OH228985   4.439   4.634   0.426  0.3361  0.1816 -0.3173
 9674TIP3    H128986   4.438   4.562   0.489 -1.0431  0.6693  0.2729
 9674TIP3    H228987   4.375   4.696   0.461 -0.3787  0.5270 -2.1163
 9675TIP3   OH228988   1.611   3.024   3.623 -0.2890 -0.1444  0.1052
 9675TIP3    H128989   1.541   3.071   3.577  0.8109  0.1224 -1.3609
 9675TIP3    H228990   1.566   2.982   3.697 -2.0141 -0.0835 -0.8458
 9676TIP3   OH228991   4.747   6.660   5.055 -0.1050  0.2764 -0.1117
 9676TIP3    H128992   4.812   6.646   4.986  1.1736  0.2116  1.0554
 9676TIP3    H228993   4.698   6.578   5.059 -0.0657  0.2120 -0.8121
 9677TIP3   OH228994   4.134   1.200   1.783 -0.2529  0.4660  0.0479
 9677TIP3    H128995   4.168   1.115   1.754  0.2307  0.2699  1.1768
 9677TIP3    H228996   4.063   1.178   1.843  2.4057  0.7004  3.5769
 9678TIP3   OH228997   2.367   0.480   2.920  0.0764 -0.1039 -0.4682
 9678TIP3    H128998   2.407   0.506   2.837 -0.1916  0.3481 -0.4556
 9678TIP3    H228999   2.358   0.561   2.969 -0.9056 -0.1966 -0.4912
 9679TIP3   OH229000   7.000   6.758   3.479 -0.2946 -0.4625 -0.0275
 9679TIP3    H129001   6.925   6.816   3.468 -0.0309 -0.0800  0.1716
 9679TIP3    H229002   7.054   6.772   3.402  0.5900  0.7899  0.7829
 9680TIP3   OH229003   3.395   2.636   2.216 -0.3546  0.3355 -0.0703
 9680TIP3    H129004   3.433   2.548   2.223 -0.2081  0.5079  1.5998
 9680TIP3    H229005   3.434   2.672   2.136  0.2040 -0.8224 -0.3428
 9681TIP3   OH229006   5.101   0.457   4.397 -0.5393 -0.3075 -0.3204
 9681TIP3    H129007   5.157   0.379   4.394 -0.5174 -0.2722 -1.0579
 9681TIP3    H229008   5.056   0.451   4.482  0.8174 -0.1517  0.4305
 9682TIP3   OH229009   1.312   1.761   1.684 -0.0153 -0.3903  0.5248
 9682TIP3    H129010   1.387   1.744   1.741  1.4743  2.9531 -0.2363
 9682TIP3    H229011   1.350   1.789   1.602 -2.0312  2.3462  0.4056
 9683TIP3   OH229012   5.301   1.259   3.680  0.0848  0.3050  0.1394
 9683TIP3    H129013   5.342   1.203   3.614  0.3271 -2.2990  2.3344
 9683TIP3    H229014   5.215   1.279   3.644  0.9952  0.8800 -1.8940
 9684TIP3   OH229015   2.545   4.390   3.178 -0.2815  0.0473 -0.2109
 9684TIP3    H129016   2.528   4.324   3.246 -0.4102 -0.0951 -0.3826
 9684TIP3    H229017   2.641   4.393   3.172 -0.2328  0.6990  0.6012
 9685TIP3   OH229018   0.953   5.592   1.639 -0.0843 -0.3410 -0.7252
 9685TIP3    H129019   0.989   5.528   1.578 -0.4475  0.2797 -1.6191
 9685TIP3    H229020   1.026   5.649   1.660 -0.2604  0.2492 -1.6593
 9686TIP3   OH229021   0.442   2.454   4.100 -0.0382  0.1361 -0.2853
 9686TIP3    H129022   0.370   2.407   4.057  1.2727 -1.2846 -0.9960
 9686TIP3    H229023   0.498   2.385   4.135 -0.1010  1.2359  2.1780
 9687TIP3   OH229024   1.702   2.448   4.486 -0.1242  0.9609  0.3467
 9687TIP3    H129025   1.776   2.482   4.536 -0.2676 -0.6478  1.7454
 9687TIP3    H229026   1.733   2.365   4.450 -1.6009 -0.4587  2.1223
 9688TIP3   OH229027   5.125   4.678   3.363 -0.3038 -0.0865  0.8902
 9688TIP3    H129028   5.093   4.749   3.306 -1.1905 -0.5294  0.8305
 9688TIP3    H229029   5.209   4.711   3.397  0.9936 -0.3674 -1.7752
 9689TIP3   OH229030   5.359   5.485   0.539  1.1194  0.8739 -0.4736
 9689TIP3    H129031   5.344   5.579   0.523 -1.4030  0.5077 -0.7348
 9689TIP3    H229032   5.281   5.456   0.586  1.3676 -1.2945 -1.2781
 9690TIP3   OH229033   1.116   3.440   5.530 -0.8637  0.3510  0.0554
 9690TIP3    H129034   1.171   3.363   5.525 -1.0801  0.2331 -0.7894
 9690TIP3    H229035   1.160   3.499   5.591  0.5710  0.5507 -1.1191
 9691TIP3   OH229036   7.083   0.411   0.977 -0.1556 -0.0598  0.0862
 9691TIP3    H129037   7.171   0.427   1.011  0.2637  1.3085 -1.5292
 9691TIP3    H229038   7.033   0.488   1.004 -0.4720 -0.1496 -0.2395
 9692TIP3   OH229039   1.618   3.783   0.736 -0.6317  0.7908  0.1936
 9692TIP3    H129040   1.707   3.754   0.713 -0.7252 -0.8023  1.5922
 9692TIP3    H229041   1.586   3.827   0.658 -0.1323 -2.3135 -1.9759
 9693TIP3   OH229042   3.690   2.737   2.855  0.0895  0.3292 -0.1029
 9693TIP3    H129043   3.646   2.773   2.778 -0.6105  0.5520  0.3964
 9693TIP3    H229044   3.620   2.698   2.907  0.7829 -1.5404 -0.5010
 9694TIP3   OH229045   0.922   5.336   3.997 -0.3608  0.1279  0.0785
 9694TIP3    H129046   0.901   5.370   3.909 -1.0030 -1.0049 -0.2239
 9694TIP3    H229047   0.942   5.244   3.983  1.1997  0.3055  0.9127
 9695TIP3   OH229048   1.140   4.092   1.328 -0.4062  0.5416  0.2806
 9695TIP3    H129049   1.082   4.157   1.367  0.4538  1.3225  0.3041
 9695TIP3    H229050   1.125   4.012   1.379 -0.0663  1.2554  1.5579
 9696TIP3   OH229051   4.463   5.595   0.928 -0.2326 -0.0383  0.0553
 9696TIP3    H129052   4.538   5.568   0.981 -0.3968 -2.7492 -0.9052
 9696TIP3    H229053   4.393   5.612   0.991  0.5735  0.3584  0.8539
 9697TIP3   OH229054   0.374   2.270   3.675  1.2523  0.0754  0.0912
 9697TIP3    H129055   0.320   2.308   3.607 -0.3635 -0.7316  0.8621
 9697TIP3    H229056   0.423   2.200   3.631 -0.7924 -1.3521 -0.0353
 9698TIP3   OH229057   3.572   4.797   4.042  0.3052  0.0383  0.1331
 9698TIP3    H129058   3.523   4.806   4.124  0.8186 -2.8108  0.8560
 9698TIP3    H229059   3.507   4.762   3.980 -0.0476  2.0600 -0.7317
 9699TIP3   OH229060   4.280   2.257   0.343 -0.4534  0.0675 -0.0982
 9699TIP3    H129061   4.224   2.198   0.293  1.7440 -1.7896 -0.5519
 9699TIP3    H229062   4.286   2.217   0.429  0.6650 -0.1222 -0.2515
 9700TIP3   OH229063   2.863   4.714   5.502  0.7262 -0.7152  0.5485
 9700TIP3    H129064   2.834   4.749   5.419 -1.4829 -1.2210  1.0616
 9700TIP3    H229065   2.854   4.787   5.564 -1.7445 -1.4429  1.1577
 9701TIP3   OH229066   2.264   4.168   5.746  0.0904  0.3439  0.4755
 9701TIP3    H129067   2.305   4.255   5.752 -1.7330  1.1963  1.3121
 9701TIP3    H229068   2.313   4.115   5.809  1.0990  0.8065  0.1010
 9702TIP3   OH229069   3.144   3.957   5.801  0.2929 -0.1226 -0.0578
 9702TIP3    H129070   3.162   3.863   5.807  0.1763 -0.2331 -1.3183
 9702TIP3    H229071   3.219   3.999   5.842  1.6829 -0.6818 -1.9465
 9703TIP3   OH229072   2.061   1.823   1.210 -0.1111  0.2298  0.0528
 9703TIP3    H129073   2.077   1.738   1.251 -0.7787 -0.2925 -0.7610
 9703TIP3    H229074   2.119   1.825   1.134 -0.7215  0.1439 -0.4183
 9704TIP3   OH229075   0.516   5.549   2.564  0.1561  0.4870  0.0822
 9704TIP3    H129076   0.526   5.465   2.608  1.1014 -1.0326 -2.7671
 9704TIP3    H229077   0.488   5.609   2.633 -2.9696 -2.6193  1.8851
 9705TIP3   OH229078   3.474   5.214   2.037  0.1307  0.3937  0.0833
 9705TIP3    H129079   3.513   5.180   1.956  0.9826 -0.6855  0.9321
 9705TIP3    H229080   3.539   5.197   2.105 -0.8369  0.7049  1.1260
 9706TIP3   OH229081   4.227   0.860   2.312  0.2699  0.7650  0.1092
 9706TIP3    H129082   4.228   0.926   2.243  0.8259 -0.3334 -0.9953
 9706TIP3    H229083   4.157   0.800   2.287 -0.4449  1.0939  1.2650
 9707TIP3   OH229084   6.134   1.258   2.975 -0.2019  0.1378  0.0363
 9707TIP3    H129085   6.047   1.241   2.938  0.1990 -1.2205 -0.3383
 9707TIP3    H229086   6.191   1.194   2.933  1.3130  1.9920 -0.8660
 9708TIP3   OH229087   4.809   5.983   4.145  0.3363 -0.8476  0.1430
 9708TIP3    H129088   4.728   5.969   4.194 -0.1398 -2.2050 -0.9934
 9708TIP3    H229089   4.797   6.068   4.102 -0.0379 -0.5663  0.7810
 9709TIP3   OH229090   7.221   5.593   5.050  0.7519 -0.0731  0.5394
 9709TIP3    H129091   7.226   5.687   5.066 -0.0936 -0.0409  0.6187
 9709TIP3    H229092   7.161   5.584   4.976  2.0642 -0.4514 -0.5168
 9710TIP3   OH229093   1.283   2.617   4.923  0.0471 -0.2398  0.0714
 9710TIP3    H129094   1.196   2.602   4.886 -0.1634  1.6593 -0.3429
 9710TIP3    H229095   1.275   2.589   5.015 -1.5383  1.3389  0.4990
 9711TIP3   OH229096   0.535   3.934   4.876 -0.3006 -0.7335  0.3787
 9711TIP3    H129097   0.454   3.970   4.912  0.1862  0.7294  0.0774
 9711TIP3    H229098   0.574   3.885   4.948 -0.9000 -0.4970  0.8697
 9712TIP3   OH229099   0.260   4.260   5.320  0.8742  0.8422  0.0291
 9712TIP3    H129100   0.231   4.171   5.302 -1.7379  2.0634 -2.7733
 9712TIP3    H229101   0.322   4.280   5.251  0.8711  1.4114  0.1835
 9713TIP3   OH229102   4.223   5.252   2.484  0.2301  0.2291 -0.6004
 9713TIP3    H129103   4.308   5.290   2.459  1.7034 -1.8787  0.8458
 9713TIP3    H229104   4.239   5.213   2.570 -2.0512 -0.7668 -0.5725
 9714TIP3   OH229105  -0.013   1.964   0.588 -0.5889  0.1974  0.3102
 9714TIP3    H129106   0.066   1.917   0.561 -0.2127  0.3051  1.1938
 9714TIP3    H229107   0.014   2.015   0.664 -1.1931  1.2512 -0.1631
 9715TIP3   OH229108   4.969   5.940   2.436 -0.3341 -0.1975 -0.2700
 9715TIP3    H129109   4.947   5.929   2.343 -0.5943  0.0668 -0.2408
 9715TIP3    H229110   5.063   5.954   2.437 -0.2978 -0.4170 -0.4773
 9716TIP3   OH229111   3.553   5.897   4.910 -0.4047 -0.7872 -0.1556
 9716TIP3    H129112   3.473   5.868   4.866 -1.8798  2.5797 -0.0488
 9716TIP3    H229113   3.596   5.954   4.846  0.6934 -0.7190  0.6112
 9717TIP3   OH229114   4.897   0.452   2.582 -0.3409  0.0070  0.5865
 9717TIP3    H129115   4.926   0.438   2.492  0.0479 -0.1244  0.7255
 9717TIP3    H229116   4.831   0.521   2.577 -0.0252  0.2859  0.2483
 9718TIP3   OH229117   4.619   1.995   1.119 -0.3585  0.6509  0.1085
 9718TIP3    H129118   4.705   2.036   1.110  0.2208 -0.7768 -1.3600
 9718TIP3    H229119   4.581   2.035   1.197  1.0222  2.3934 -0.0594
 9719TIP3   OH229120   2.016   5.811   3.713  0.0639 -0.0469 -0.0746
 9719TIP3    H129121   2.008   5.907   3.710 -0.8524 -0.0693  0.8973
 9719TIP3    H229122   1.975   5.787   3.796  1.0217 -1.2240  0.0717
 9720TIP3   OH229123   3.110   1.619   4.631 -0.0973 -0.1399 -0.4019
 9720TIP3    H129124   3.027   1.654   4.662 -0.1622 -0.0420 -0.6848
 9720TIP3    H229125   3.089   1.572   4.550 -0.1978 -1.8577  0.5825
 9721TIP3   OH229126   6.719   2.164   5.686 -0.3434 -0.1244  0.1214
 9721TIP3    H129127   6.637   2.181   5.733 -0.8918  0.0667 -0.8716
 9721TIP3    H229128   6.705   2.081   5.642  0.6451 -0.9503  1.2835
 9722TIP3   OH229129   3.012   0.667   4.613  0.5680  0.3254 -0.0594
 9722TIP3    H129130   2.949   0.615   4.564 -0.1840  0.4204  0.7951
 9722TIP3    H229131   3.081   0.604   4.638  0.2837  0.0019 -0.0868
 9723TIP3   OH229132   6.801   1.688   0.586  0.3966  0.3064 -0.4183
 9723TIP3    H129133   6.822   1.617   0.647 -0.7485  0.8600  0.6642
 9723TIP3    H229134   6.853   1.668   0.508  2.0930 -0.3109  0.7986
 9724TIP3   OH229135   5.515   5.634   5.342 -0.3685 -0.4698  0.4171
 9724TIP3    H129136   5.431   5.635   5.295 -0.4729 -1.1933  0.5783
 9724TIP3    H229137   5.573   5.585   5.284  0.5716  1.8282 -0.7168
 9725TIP3   OH229138   4.688   6.216   3.717  0.5327 -0.1248 -0.2448
 9725TIP3    H129139   4.721   6.163   3.645  0.1503  2.4976 -2.5370
 9725TIP3    H229140   4.652   6.153   3.779 -0.8083 -2.5190 -3.2019
 9726TIP3   OH229141   4.650   6.188   5.570 -0.8751  0.3380 -0.0144
 9726TIP3    H129142   4.686   6.130   5.638  2.3938  1.6195 -0.4649
 9726TIP3    H229143   4.700   6.167   5.492 -1.8597  1.5987 -1.0208
 9727TIP3   OH229144   3.668   1.253   3.948 -0.0081 -0.0367 -0.0404
 9727TIP3    H129145   3.634   1.311   4.016  0.3542 -1.2883  1.2397
 9727TIP3    H229146   3.739   1.303   3.907 -2.1268  1.9370 -1.6164
 9728TIP3   OH229147   5.861   0.735   0.662  0.4167  0.1505  0.4982
 9728TIP3    H129148   5.864   0.807   0.725 -1.1802 -0.4872  1.3658
 9728TIP3    H229149   5.775   0.742   0.621  0.6144 -0.6977 -0.0941
 9729TIP3   OH229150   0.408   1.578   3.237  0.0109 -0.0119 -0.1911
 9729TIP3    H129151   0.429   1.498   3.190  3.4774  1.3076 -1.1920
 9729TIP3    H229152   0.412   1.553   3.329 -1.0387 -1.3938 -0.4904
 9730TIP3   OH229153   3.730   3.769   2.598  0.1807 -0.8495 -0.2102
 9730TIP3    H129154   3.772   3.853   2.615 -0.1810 -0.8080  0.5334
 9730TIP3    H229155   3.639   3.790   2.579  0.2523 -1.0209 -0.7674
 9731TIP3   OH229156   1.925   2.614   3.633 -0.1723  0.8160 -0.4924
 9731TIP3    H129157   1.976   2.689   3.664  0.6504  0.6143 -1.3141
 9731TIP3    H229158   1.834   2.645   3.633  0.0116  1.3983  0.3530
 9732TIP3   OH229159   1.369   1.812   2.239 -0.0165 -0.0326 -0.0879
 9732TIP3    H129160   1.357   1.906   2.225 -1.4742 -0.2795 -0.5896
 9732TIP3    H229161   1.294   1.786   2.292  0.4083 -0.9112  0.0942
 9733TIP3   OH229162   3.622   4.914   3.660 -0.1550  0.9982 -0.0851
 9733TIP3    H129163   3.538   4.870   3.675  0.7190 -1.1777 -1.1671
 9733TIP3    H229164   3.626   4.981   3.729 -1.0734 -1.3778  2.4815
 9734TIP3   OH229165   7.098   6.766   2.921 -0.3521  0.2848 -0.3809
 9734TIP3    H129166   7.173   6.816   2.891  0.2371  0.0059  0.5809
 9734TIP3    H229167   7.043   6.755   2.843 -0.1182  1.7363 -0.7802
 9735TIP3   OH229168   3.919   2.074   3.968  0.2725  0.0351  0.3110
 9735TIP3    H129169   3.946   2.124   4.046  0.4684  1.1031 -0.4240
 9735TIP3    H229170   3.882   2.139   3.909  0.3272 -0.7254 -0.5917
 9736TIP3   OH229171   0.485   6.598   5.268 -0.6636 -0.1766  0.0832
 9736TIP3    H129172   0.435   6.654   5.209 -0.7575 -0.4187 -0.0722
 9736TIP3    H229173   0.576   6.624   5.256 -0.7024 -0.0975 -0.0305
 9737TIP3   OH229174   4.038   4.292   5.663 -0.0100  0.1504  0.1307
 9737TIP3    H129175   4.042   4.349   5.740 -1.6125 -0.2382  0.5541
 9737TIP3    H229176   4.114   4.234   5.672  0.2325  0.5861  1.0243
 9738TIP3   OH229177   4.421   5.885   4.095 -0.1990 -0.6659  0.7222
 9738TIP3    H129178   4.327   5.884   4.111 -0.2197 -1.0093  0.5797
 9738TIP3    H229179   4.455   5.950   4.157 -0.3789 -1.3669  1.5785
 9739TIP3   OH229180   5.662   0.097   0.255  0.0333 -0.0781 -0.0297
 9739TIP3    H129181   5.728   0.163   0.273 -0.1925 -0.1867  1.2999
 9739TIP3    H229182   5.579   0.146   0.251  0.1503  0.0428 -1.5793
 9740TIP3   OH229183   3.989   2.191   4.191 -0.8186 -0.0915  0.0120
 9740TIP3    H129184   4.072   2.237   4.196 -0.6562 -0.3635 -0.1567
 9740TIP3    H229185   3.989   2.133   4.267 -0.3848 -0.8606 -0.5651
 9741TIP3   OH229186   2.993   1.181   5.147 -0.3234 -0.0142  0.2991
 9741TIP3    H129187   3.020   1.119   5.080  1.8671  0.8488  0.2659
 9741TIP3    H229188   3.021   1.141   5.230 -1.7566 -0.4443  0.6080
 9742TIP3   OH229189   4.160   3.666   3.823  0.3502 -0.0938  0.0752
 9742TIP3    H129190   4.103   3.589   3.830 -0.7619  0.8105  2.0072
 9742TIP3    H229191   4.121   3.719   3.754 -1.4346  0.6446  1.5554
 9743TIP3   OH229192   2.797   0.943   3.217 -0.1501 -0.0482  0.3934
 9743TIP3    H129193   2.841   0.859   3.229 -1.1862 -0.7352 -0.4590
 9743TIP3    H229194   2.820   0.993   3.296  0.1287 -1.2893  1.1306
 9744TIP3   OH229195   5.610   3.253   4.877 -0.5948 -0.5721  0.1798
 9744TIP3    H129196   5.703   3.261   4.896 -0.2812 -2.6092 -0.3531
 9744TIP3    H229197   5.604   3.247   4.782 -1.4121  0.8655  0.1095
 9745TIP3   OH229198   2.233   5.357   1.632  0.0203  0.2756 -0.1235
 9745TIP3    H129199   2.305   5.324   1.685 -0.4272  1.0561  1.0029
 9745TIP3    H229200   2.263   5.346   1.542  1.0492 -0.5020  0.2965
 9746TIP3   OH229201   2.276   2.062   2.186  0.7513 -0.1631 -0.7707
 9746TIP3    H129202   2.185   2.044   2.208  0.3064  0.2963 -2.1188
 9746TIP3    H229203   2.315   1.976   2.173  0.4218 -0.3489 -0.5507
 9747TIP3   OH229204   5.418   2.785   1.522  0.3141 -0.2058  0.4451
 9747TIP3    H129205   5.406   2.797   1.617  0.9521  0.4446  0.4539
 9747TIP3    H229206   5.469   2.705   1.515 -0.8168 -0.9644  0.5778
 9748TIP3   OH229207   6.541   4.713   2.002  0.0269  0.1424 -0.0323
 9748TIP3    H129208   6.586   4.635   1.970  3.3875  1.4698  1.0221
 9748TIP3    H229209   6.542   4.703   2.097  1.9810  2.0583  0.2367
 9749TIP3   OH229210   3.395   1.128   5.862 -0.0897  0.3754 -0.3559
 9749TIP3    H129211   3.463   1.164   5.919 -1.7286  0.6131  1.5670
 9749TIP3    H229212   3.418   1.036   5.853  1.0881  0.6845 -0.6718
   7.22501   6.81181   5.89918   0.00000   0.00000  -2.40834   0.00000  -2.40834  -3.40590
