Title
29212
    1ASP      N    1   1.484   3.803   1.862 -0.6587 -0.4616 -0.8609
    1ASP    HT1    2   1.522   3.859   1.783  1.6425 -1.4951 -0.5577
    1ASP    HT2    3   1.567   3.776   1.918  0.9213  0.4807 -2.6701
    1ASP    HT3    4   1.423   3.866   1.918  1.3526  1.5858 -0.8483
    1ASP     CA    5   1.420   3.678   1.811  0.6488  0.1092  0.2101
    1ASP     HA    6   1.372   3.707   1.719  1.9074  0.8028 -0.2535
    1ASP     CB    7   1.518   3.561   1.784 -0.5612 -0.5075 -0.1154
    1ASP    HB1    8   1.464   3.480   1.731 -2.1846  0.4999 -0.0613
    1ASP    HB2    9   1.544   3.511   1.879 -0.6855 -1.0658 -0.3732
    1ASP     CG   10   1.639   3.586   1.694  0.5052 -0.1450 -0.2240
    1ASP    OD1   11   1.715   3.488   1.670  0.0163  0.6031 -0.7168
    1ASP    OD2   12   1.666   3.700   1.649 -0.5565 -0.2740  0.1291
    1ASP      C   13   1.310   3.628   1.912 -0.2680 -0.0348 -0.5793
    1ASP      O   14   1.317   3.664   2.028  0.1030 -0.2082 -0.5334
    2GLY      N   15   1.208   3.553   1.870  0.8304  0.1043 -0.5335
    2GLY     HN   16   1.180   3.544   1.775 -2.1425 -0.0998  0.2668
    2GLY     CA   17   1.126   3.473   1.953  0.3526  0.2505  0.1160
    2GLY    HA1   18   1.075   3.406   1.885  0.4153  0.4561 -0.1354
    2GLY    HA2   19   1.051   3.531   2.006  0.6997 -0.9240  1.9908
    2GLY      C   20   1.188   3.377   2.049  0.2373  0.4862  0.1219
    2GLY      O   21   1.304   3.342   2.030 -0.4791 -0.3492  0.5435
    3ASP      N   22   1.106   3.329   2.150  0.2963  0.7873  0.8310
    3ASP     HN   23   1.009   3.352   2.157  0.1836  1.3265 -1.5077
    3ASP     CA   24   1.156   3.213   2.231  0.2423 -0.4450 -0.0761
    3ASP     HA   25   1.263   3.217   2.246  0.2083  1.7042 -0.1326
    3ASP     CB   26   1.090   3.214   2.378 -0.0049  0.2497  0.1230
    3ASP    HB1   27   1.108   3.119   2.432 -0.7123  0.4214  0.6828
    3ASP    HB2   28   0.984   3.233   2.349 -0.1921 -0.9832 -0.0364
    3ASP     CG   29   1.143   3.331   2.457 -0.0313 -0.4268 -0.3552
    3ASP    OD1   30   1.091   3.366   2.566 -0.6917  0.1818 -0.2287
    3ASP    OD2   31   1.240   3.398   2.412 -0.2195 -0.5203  0.7894
    3ASP      C   32   1.104   3.085   2.171 -0.5990 -0.8529  0.0858
    3ASP      O   33   1.014   3.092   2.085 -0.2853  0.6624 -0.0513
    4GLY      N   34   1.155   2.969   2.213 -0.0099 -0.1886  0.0085
    4GLY     HN   35   1.229   2.985   2.278 -3.0180  2.7940  3.1447
    4GLY     CA   36   1.122   2.834   2.161 -0.0623  0.0577  0.4306
    4GLY    HA1   37   1.195   2.768   2.204  1.0407  1.7001  1.1686
    4GLY    HA2   38   1.122   2.841   2.053  0.9358 -1.5161  0.3080
    4GLY      C   39   0.979   2.789   2.184  0.1908 -0.5681  0.0349
    4GLY      O   40   0.900   2.850   2.258 -0.0764 -0.2687  0.0215
    5PRO      N   41   0.947   2.670   2.127 -0.0279 -0.5927 -0.3110
    5PRO     CD   42   1.045   2.585   2.056  0.1887  0.1126 -0.6373
    5PRO    HD1   43   1.116   2.534   2.124  0.1526  1.0523  0.1245
    5PRO    HD2   44   1.107   2.641   1.983  0.2779  0.6970 -0.1252
    5PRO     CA   45   0.811   2.615   2.112  0.3177  0.6690 -0.3881
    5PRO     HA   46   0.765   2.693   2.053  0.3317  0.4750 -0.6559
    5PRO     CB   47   0.835   2.479   2.050 -0.6507 -0.0039 -0.3549
    5PRO    HB1   48   0.753   2.449   1.981  0.0662 -0.9818 -0.8018
    5PRO    HB2   49   0.842   2.395   2.123 -2.3183  0.2593  0.1623
    5PRO     CG   50   0.965   2.488   1.972  0.2536  0.0743 -0.4469
    5PRO    HG1   51   1.015   2.389   1.966 -2.4358 -1.4373  0.6542
    5PRO    HG2   52   0.945   2.527   1.870  3.3896  1.3083 -0.7090
    5PRO      C   53   0.745   2.602   2.242 -0.5138 -0.0227 -0.4169
    5PRO      O   54   0.811   2.539   2.330  0.1284 -0.1677  0.2393
    6GLY      N   55   0.620   2.643   2.249  0.3040 -0.3012  0.0105
    6GLY     HN   56   0.580   2.696   2.175 -1.6885 -1.1662  0.4022
    6GLY     CA   57   0.528   2.635   2.357  0.0763  0.1703  0.4753
    6GLY    HA1   58   0.441   2.694   2.334 -0.3379 -0.9181 -0.8342
    6GLY    HA2   59   0.580   2.661   2.448 -0.1877  0.7307  0.4749
    6GLY      C   60   0.480   2.495   2.379 -0.6549  0.2723 -1.0246
    6GLY      O   61   0.500   2.438   2.488 -0.0692 -0.6566 -0.6697
    7ASP      N   62   0.425   2.427   2.276 -0.2955  0.3102  0.4338
    7ASP     HN   63   0.388   2.474   2.197 -2.1144 -0.8711  0.5371
    7ASP     CA   64   0.424   2.280   2.257  0.5710  0.1544  0.9105
    7ASP     HA   65   0.347   2.240   2.321 -1.1336  1.1114 -0.4527
    7ASP     CB   66   0.382   2.241   2.112  1.1917  0.0686 -0.1225
    7ASP    HB1   67   0.374   2.130   2.108  0.3452  0.1282 -0.2921
    7ASP    HB2   68   0.455   2.279   2.037  1.6244  0.8875  0.7010
    7ASP     CG   69   0.241   2.281   2.078 -0.2651 -0.1532  0.2977
    7ASP    OD1   70   0.202   2.275   1.963  0.1013 -0.2283  0.0341
    7ASP    OD2   71   0.165   2.318   2.165  0.6663  0.3693 -0.0057
    7ASP      C   72   0.554   2.216   2.296 -0.0895  0.7839 -0.3569
    7ASP      O   73   0.661   2.272   2.285 -0.3604  0.0436  0.3645
    8PRO      N   74   0.564   2.091   2.351 -0.1752 -0.0233  0.0046
    8PRO     CD   75   0.455   2.012   2.415  0.8083 -0.5365  0.0277
    8PRO    HD1   76   0.401   1.955   2.337  1.5630 -0.9734 -0.1897
    8PRO    HD2   77   0.389   2.082   2.470  1.7081  1.4230 -1.2374
    8PRO     CA   78   0.691   2.029   2.358  0.3618  0.4431 -0.1280
    8PRO     HA   79   0.760   2.093   2.412  1.0380  0.5109 -1.0376
    8PRO     CB   80   0.662   1.887   2.420  0.2470 -0.4443 -0.1021
    8PRO    HB1   81   0.742   1.836   2.477  1.0482  1.6216  0.7232
    8PRO    HB2   82   0.601   1.825   2.351  1.0616  0.5929 -1.8181
    8PRO     CG   83   0.540   1.921   2.514 -0.4122 -0.2615  0.1008
    8PRO    HG1   84   0.469   1.846   2.557 -1.2412  0.0189 -0.7431
    8PRO    HG2   85   0.587   1.976   2.598  0.9095  0.1723 -0.8874
    8PRO      C   86   0.753   2.013   2.223 -0.3392  0.5770  0.5037
    8PRO      O   87   0.690   1.946   2.143  0.5437  0.3460  0.4814
    9GLY      N   88   0.872   2.060   2.200  0.0973 -0.8368  0.1860
    9GLY     HN   89   0.923   2.125   2.256  0.0886 -1.3909  0.8491
    9GLY     CA   90   0.938   2.046   2.066 -0.1012 -0.1462 -0.1132
    9GLY    HA1   91   1.008   2.126   2.045 -1.2230  0.4542 -1.8145
    9GLY    HA2   92   0.863   2.042   1.988  0.3495 -0.9395 -0.5111
    9GLY      C   93   1.012   1.919   2.050  0.0206 -0.8416  0.2336
    9GLY      O   94   0.985   1.812   2.109 -0.4380  0.6209 -0.2400
   10ASP      N   95   1.112   1.919   1.966 -0.0880 -0.2254 -0.2244
   10ASP     HN   96   1.135   1.997   1.908  1.1550  0.0753  0.6246
   10ASP     CA   97   1.204   1.813   1.932  0.4337  0.9016 -0.0739
   10ASP     HA   98   1.165   1.718   1.967 -1.7395  1.7529 -0.0713
   10ASP     CB   99   1.223   1.802   1.778  0.5166  0.1193 -0.9015
   10ASP    HB1  100   1.281   1.710   1.754  1.8653  0.6429  0.2278
   10ASP    HB2  101   1.281   1.890   1.744  0.3345  0.1333 -1.1886
   10ASP     CG  102   1.100   1.811   1.687  0.3457 -0.2401 -0.5091
   10ASP    OD1  103   1.111   1.835   1.569 -0.1595 -0.2128  0.2843
   10ASP    OD2  104   0.984   1.783   1.731 -0.0862 -1.0400  0.8420
   10ASP      C  105   1.344   1.833   1.988  0.2374 -0.0554 -0.1282
   10ASP      O  106   1.432   1.751   1.974  0.2374  0.1416 -0.2160
   11GLY      N  107   1.359   1.943   2.062  0.5091 -0.7176 -0.4012
   11GLY     HN  108   1.281   2.004   2.045 -2.0485 -3.9267 -1.0599
   11GLY     CA  109   1.475   1.988   2.141 -0.6626 -0.1575  0.0952
   11GLY    HA1  110   1.517   2.066   2.079 -1.2028 -1.2232 -1.6751
   11GLY    HA2  111   1.544   1.906   2.157  1.1526  1.3198  0.1204
   11GLY      C  112   1.430   2.043   2.273 -0.0455  0.0836 -0.3578
   11GLY    OT1  113   1.362   2.147   2.287 -0.0247 -0.3008  0.0328
   11GLY    OT2  114   1.486   2.001   2.379 -0.5259  0.3448  0.0018
   12LIT    LIT  115   4.468   5.914   4.830  0.7538  0.1940  0.5297
   13LIT    LIT  116   2.490   6.504   3.185 -0.1641  0.3716 -0.5103
   14LIT    LIT  117   5.267   1.903   2.634 -1.0015 -1.0978 -0.4049
   15LIT    LIT  118   2.640   0.309   1.492 -1.4860  0.9084 -0.2339
   16LIT    LIT  119   1.345   2.054   2.474  0.3063 -1.0616  0.3460
   17LIT    LIT  120   5.717   1.369   0.745  0.6846  0.2457 -0.6010
   18LIT    LIT  121   1.243   1.606   4.902  1.1033  0.0481  1.1716
   19LIT    LIT  122   0.625   6.051   1.778  0.3847 -0.1069  0.3084
   20LIT    LIT  123   4.825   4.760   4.095 -0.2690  0.3069 -0.9327
   21LIT    LIT  124   7.206   4.672   2.172  0.0943 -1.0863 -0.4061
   22LIT    LIT  125   2.528   0.077   5.018 -1.3175 -0.1304 -0.8976
   23LIT    LIT  126   0.647   0.711   1.713 -0.5643  0.5148  0.4270
   24LIT    LIT  127   0.736   4.640   2.282 -0.0392 -0.8444 -0.0249
   25LIT    LIT  128   0.040   2.375   2.038 -0.8094 -0.0657  0.6238
   26LIT    LIT  129   0.908   1.860   1.568  0.0747  0.0082 -0.5216
   27LIT    LIT  130   2.480   2.423   3.619  1.4019 -0.5011  0.1022
   28LIT    LIT  131   3.084   0.781   0.005  0.1083  1.5375  0.2790
   29LIT    LIT  132   4.000   4.150   1.873  0.4767 -0.0058 -0.0924
   30LIT    LIT  133   3.593   6.478   0.519 -0.2273 -1.0906 -0.2703
   31LIT    LIT  134   6.668   2.267   0.201  0.6287  0.1514  0.5066
   32LIT    LIT  135   1.510   5.722   5.562  0.3202 -0.4584 -0.0915
   33LIT    LIT  136   2.991   4.845   1.241  0.4225 -0.5521 -0.9316
   34LIT    LIT  137   5.095   1.650   4.300 -0.1830  0.2180  0.2967
   35LIT    LIT  138   4.920   3.397   3.436  0.1816 -0.3726  0.1043
   36LIT    LIT  139   0.670   6.430   4.037 -0.9494  0.3305 -0.1456
   37LIT    LIT  140   3.020   3.054   1.059 -0.0008  0.6235 -1.4955
   38LIT    LIT  141   6.360   1.285   5.235 -1.3843 -0.1420  0.4528
   39LIT    LIT  142   1.830   3.403   1.781 -1.0796  0.4356  0.2214
   40LIT    LIT  143   2.157   5.937   3.480  0.2269  0.3733 -0.3095
   41LIT    LIT  144   3.065   1.844   0.610 -0.0536  0.1414 -0.6772
   42LIT    LIT  145   2.703   4.294   1.729 -0.9649  0.7024 -0.9272
   43CLA    CLA  146   4.440   0.421   2.282  0.4400  0.1027 -0.2216
   44CLA    CLA  147   2.418   4.734   5.021 -0.6082  0.4918  0.0319
   45CLA    CLA  148   1.872   0.335   3.079 -0.3592 -0.2150 -0.6442
   46CLA    CLA  149   1.028   3.030   3.834  0.1838 -0.5824  0.5163
   47CLA    CLA  150   7.018   2.579   2.737 -0.3207  0.0465  0.0683
   48CLA    CLA  151   4.567   1.441   3.273 -0.2003  0.1916 -0.5023
   49CLA    CLA  152   1.804   4.294   2.366 -0.3480  0.1197 -0.3665
   50CLA    CLA  153   0.124   5.768   2.000 -0.0126 -0.2000 -0.0027
   51CLA    CLA  154   4.666   3.253   2.285  0.0589 -0.3854  0.0017
   52CLA    CLA  155   4.244   6.629   5.349  0.1093 -0.0443 -0.5737
   53CLA    CLA  156   7.128   5.749   4.311 -0.3404 -0.4124 -0.2682
   54CLA    CLA  157   3.455   4.331   1.049 -0.1117  0.3125 -0.1606
   55CLA    CLA  158   5.639   4.514   2.588 -0.0611 -0.1970 -0.3028
   56CLA    CLA  159   0.848   1.393   2.656  0.2897  0.2553  0.1950
   57CLA    CLA  160   2.156   1.289   2.298  0.3246 -0.0713  0.0877
   58CLA    CLA  161   3.324   5.454   0.089  0.1580  0.0162 -0.6252
   59CLA    CLA  162   6.941   0.271   5.771  0.3525 -0.3382 -0.4383
   60CLA    CLA  163   2.659   1.536   2.886  0.2680  0.2748 -0.3732
   61CLA    CLA  164   5.300   3.639   1.890  0.3935 -0.1059 -0.3743
   62CLA    CLA  165   6.843   2.100   0.481 -0.0300  0.3180 -0.0999
   63CLA    CLA  166   3.084   3.246   2.763  0.2552 -0.1568 -0.0956
   64CLA    CLA  167   4.616   5.954   4.673 -0.3264  0.0065 -0.2730
   65CLA    CLA  168   5.010   0.080   4.402 -0.0665  0.4720 -0.0647
   66CLA    CLA  169   4.944   6.334   3.259  0.4259  0.1783  0.1869
   67CLA    CLA  170   2.057   4.614   0.948  0.4070 -0.1621  0.3744
   68CLA    CLA  171   3.683   0.677   4.998  0.0485  0.2125  0.1970
   69CLA    CLA  172   5.492   0.964   0.714  0.1200  0.2031 -0.0250
   70TIP3   OH2  173   0.602   0.483   0.846 -0.0370  0.4036  0.0023
   70TIP3    H1  174   0.652   0.560   0.871 -0.0961  0.4408  0.0058
   70TIP3    H2  175   0.652   0.409   0.881 -0.3701  0.4823  0.6543
   71TIP3   OH2  176   1.949   6.297   2.288 -0.0175  0.2494  0.2860
   71TIP3    H1  177   1.939   6.388   2.261 -1.1665  0.8164  2.4136
   71TIP3    H2  178   1.864   6.272   2.323  1.3300 -0.2395  3.6080
   72TIP3   OH2  179   5.332   6.773   3.879 -0.2212 -0.2112  0.1217
   72TIP3    H1  180   5.392   6.761   3.953 -0.3139 -1.0814  0.0554
   72TIP3    H2  181   5.362   6.855   3.838  1.0067 -0.6895  0.0219
   73TIP3   OH2  182   5.816   4.374   2.207 -0.0857  0.3871 -0.1220
   73TIP3    H1  183   5.829   4.346   2.117  1.0576  2.3313 -0.6319
   73TIP3    H2  184   5.892   4.338   2.254 -0.9496 -1.0646  0.2165
   74TIP3   OH2  185   5.752   1.068   2.051 -0.2253  0.2432  0.5669
   74TIP3    H1  186   5.692   1.113   1.992 -0.6478  0.3047  1.0412
   74TIP3    H2  187   5.769   0.983   2.009 -0.6047  0.2460  0.4081
   75TIP3   OH2  188   3.735   5.914   2.874 -0.0607 -0.1166 -0.1551
   75TIP3    H1  189   3.674   5.847   2.844  0.0107 -0.4148  0.3559
   75TIP3    H2  190   3.818   5.867   2.886 -0.1015 -0.0183  0.5547
   76TIP3   OH2  191   1.168   0.779   2.193 -0.3900  0.9075  0.1271
   76TIP3    H1  192   1.235   0.843   2.215 -0.6718  0.8671  1.1786
   76TIP3    H2  193   1.147   0.737   2.276 -0.3574 -0.4129 -0.5103
   77TIP3   OH2  194   7.033   2.793   5.349  0.1533  0.0600 -0.0049
   77TIP3    H1  195   7.093   2.832   5.412  0.2500  0.6249 -0.4346
   77TIP3    H2  196   7.085   2.783   5.269 -0.5073  1.2577 -0.6124
   78TIP3   OH2  197   3.458   5.514   4.229  0.6411 -0.3823 -0.4735
   78TIP3    H1  198   3.464   5.582   4.162  0.5910 -0.0322 -0.1294
   78TIP3    H2  199   3.459   5.432   4.181 -1.4451 -0.1087 -1.0705
   79TIP3   OH2  200   6.378   0.941   2.638  0.4356 -0.2265 -0.1245
   79TIP3    H1  201   6.351   0.952   2.547  0.3510  0.0389 -0.0675
   79TIP3    H2  202   6.432   0.862   2.638  0.6337 -0.0917 -0.4482
   80TIP3   OH2  203   1.956   0.712   4.002 -0.7287  0.4250  0.6492
   80TIP3    H1  204   1.999   0.713   4.087  0.3794  0.8555  0.1032
   80TIP3    H2  205   1.993   0.636   3.957 -1.1442  0.3246  0.4706
   81TIP3   OH2  206   0.634   6.323   5.551 -0.3587 -0.2571 -0.1687
   81TIP3    H1  207   0.658   6.399   5.498 -0.0577 -0.5733 -0.4901
   81TIP3    H2  208   0.695   6.254   5.523 -0.7976 -0.6919 -0.0650
   82TIP3   OH2  209   6.863   5.293   4.825  0.0057  0.2581 -0.2251
   82TIP3    H1  210   6.876   5.198   4.823 -3.3468 -0.2983 -0.3199
   82TIP3    H2  211   6.849   5.318   4.734 -2.0764  0.2727  0.0476
   83TIP3   OH2  212   5.783   6.332   4.535  0.2567  0.2774  0.3566
   83TIP3    H1  213   5.874   6.344   4.561  0.6888  1.1294 -1.4447
   83TIP3    H2  214   5.775   6.239   4.515  0.6448  0.1508  0.7764
   84TIP3   OH2  215   3.043   1.942   4.721  0.8567 -0.3079 -0.0844
   84TIP3    H1  216   3.116   1.978   4.670 -0.3418 -1.1220 -2.5509
   84TIP3    H2  217   2.965   1.963   4.669 -0.5385 -0.6023  1.7988
   85TIP3   OH2  218   4.117   2.099   2.795 -0.2272  0.2362 -0.5629
   85TIP3    H1  219   4.147   2.010   2.811  0.3605  0.7888  1.7030
   85TIP3    H2  220   4.027   2.088   2.762  0.0392 -1.1786 -0.8965
   86TIP3   OH2  221   1.153   2.687   5.170  0.2519  0.3761 -0.1080
   86TIP3    H1  222   1.214   2.665   5.241  0.7434  2.3587  0.1306
   86TIP3    H2  223   1.192   2.763   5.127 -1.2507  0.6884 -0.9834
   87TIP3   OH2  224   5.770   0.160   3.030  0.0184 -0.4965 -0.3678
   87TIP3    H1  225   5.759   0.192   2.941  2.6593  4.0583  0.6025
   87TIP3    H2  226   5.752   0.237   3.085  0.6494 -2.5061  2.8908
   88TIP3   OH2  227   3.006   1.989   0.164 -0.4944  0.5021 -0.1295
   88TIP3    H1  228   3.000   2.003   0.069 -0.4075 -1.2396 -0.4288
   88TIP3    H2  229   2.924   2.023   0.199 -1.1875 -0.2072 -1.0293
   89TIP3   OH2  230   4.675   6.489   5.468 -0.6425 -0.1443 -0.6441
   89TIP3    H1  231   4.632   6.531   5.543  1.1672  1.9585 -0.6933
   89TIP3    H2  232   4.754   6.450   5.504  0.7788  1.7584 -1.5346
   90TIP3   OH2  233   2.155   5.536   1.479 -0.0873 -0.3011  0.4314
   90TIP3    H1  234   2.124   5.559   1.566 -2.8687 -2.4081  0.1511
   90TIP3    H2  235   2.160   5.619   1.432 -1.0206  0.6232  1.8931
   91TIP3   OH2  236   0.374   2.686   3.399  0.5228 -0.2080  0.3965
   91TIP3    H1  237   0.400   2.598   3.425  0.9804 -0.1926 -0.0010
   91TIP3    H2  238   0.395   2.741   3.475  0.8059 -0.3420  0.4136
   92TIP3   OH2  239   1.174   6.430   2.110  0.0919 -0.2393 -0.2942
   92TIP3    H1  240   1.101   6.491   2.118 -0.3949 -0.2915 -3.0973
   92TIP3    H2  241   1.135   6.351   2.072  1.4182 -0.6333 -0.9160
   93TIP3   OH2  242   2.974   4.267   2.498 -0.5507  0.1360  0.6065
   93TIP3    H1  243   2.970   4.357   2.531  1.6696  0.6334 -0.2501
   93TIP3    H2  244   3.008   4.216   2.572 -0.3103  0.3163  0.6236
   94TIP3   OH2  245   4.894   4.211   0.106 -0.3155 -0.0580  0.0418
   94TIP3    H1  246   4.881   4.298   0.068 -1.8801 -0.5074 -0.5612
   94TIP3    H2  247   4.958   4.169   0.049 -0.3389  0.3410 -0.2822
   95TIP3   OH2  248   3.012   5.446   4.577  0.1389 -0.4045  0.2182
   95TIP3    H1  249   3.021   5.351   4.573 -0.9397 -0.4857 -1.0124
   95TIP3    H2  250   2.921   5.463   4.552  0.6848  1.0153 -1.0072
   96TIP3   OH2  251   5.361   3.321   0.632  0.5009 -0.4386  0.5099
   96TIP3    H1  252   5.354   3.415   0.615 -1.8134 -0.5040  0.6708
   96TIP3    H2  253   5.410   3.315   0.713 -2.0148  0.9309  2.2975
   97TIP3   OH2  254   4.785   3.328   0.454 -0.0351 -0.2674 -0.4286
   97TIP3    H1  255   4.709   3.335   0.397  0.9039  0.2771 -1.6634
   97TIP3    H2  256   4.857   3.305   0.395  1.2499  1.6659  0.3092
   98TIP3   OH2  257   6.879   3.538   2.698  0.4532  0.1810 -0.6043
   98TIP3    H1  258   6.816   3.603   2.727 -0.0123 -0.0584 -1.0551
   98TIP3    H2  259   6.924   3.510   2.778 -1.8782 -1.6340  0.1990
   99TIP3   OH2  260   6.166   5.316   3.413  0.6152  0.0436  0.0824
   99TIP3    H1  261   6.200   5.404   3.431 -1.0038  0.6705  0.3108
   99TIP3    H2  262   6.071   5.329   3.407  0.4791 -1.4197 -1.5454
  100TIP3   OH2  263   0.670   6.253   2.087 -0.1368  0.3695  0.8771
  100TIP3    H1  264   0.585   6.217   2.112 -0.0593  0.1664  0.8488
  100TIP3    H2  265   0.690   6.318   2.156 -0.2119  0.2606  1.0017
  101TIP3   OH2  266   4.405   6.360   4.466  0.1125 -0.3964 -0.2933
  101TIP3    H1  267   4.490   6.399   4.447  1.2802 -2.3788  0.5380
  101TIP3    H2  268   4.408   6.344   4.561 -1.2900 -0.3010 -0.2204
  102TIP3   OH2  269   3.198   6.018   5.790  0.4749 -0.6525 -0.1615
  102TIP3    H1  270   3.278   6.043   5.836  0.1326  0.9346 -0.3606
  102TIP3    H2  271   3.142   6.096   5.796 -0.6544 -1.3804 -0.8936
  103TIP3   OH2  272   6.380   6.116   3.657  0.1399 -0.4018  0.4082
  103TIP3    H1  273   6.466   6.129   3.698  0.9638 -1.5994 -0.8410
  103TIP3    H2  274   6.380   6.024   3.632 -0.7155  0.0377 -1.3381
  104TIP3   OH2  275   6.285   3.198   2.087 -0.2771 -0.5697 -0.4447
  104TIP3    H1  276   6.259   3.287   2.110  0.6716 -0.3968  0.0029
  104TIP3    H2  277   6.252   3.144   2.159  2.0086 -0.1297  1.0131
  105TIP3   OH2  278   0.055   3.766   1.744 -0.2934 -0.1529  0.1040
  105TIP3    H1  279   0.142   3.761   1.784  0.3769  0.6041 -1.1837
  105TIP3    H2  280  -0.005   3.769   1.819  0.9819  2.5670  1.1644
  106TIP3   OH2  281   0.816   5.259   5.271 -0.5215 -0.3049  0.0028
  106TIP3    H1  282   0.893   5.300   5.232  1.0738 -2.4844  0.6632
  106TIP3    H2  283   0.817   5.289   5.362 -0.2738 -0.5361  0.0791
  107TIP3   OH2  284   3.056   0.277   1.436  0.5676  0.2174  0.2241
  107TIP3    H1  285   2.996   0.238   1.372 -0.3224 -0.7720  1.6000
  107TIP3    H2  286   3.139   0.284   1.389 -0.4888  1.2522 -1.6095
  108TIP3   OH2  287   0.712   5.890   2.885  0.4770 -1.1587  0.1063
  108TIP3    H1  288   0.719   5.961   2.821 -0.6389 -0.2933  0.9030
  108TIP3    H2  289   0.772   5.915   2.955 -0.6216 -0.4608  0.8385
  109TIP3   OH2  290   0.291   3.557   2.687 -0.2693 -0.2676  0.5871
  109TIP3    H1  291   0.234   3.566   2.610  2.6159 -0.9224 -1.8190
  109TIP3    H2  292   0.246   3.494   2.743 -1.6259 -1.2526 -1.4780
  110TIP3   OH2  293   5.345   2.423   4.146 -0.1894 -0.0212  0.2537
  110TIP3    H1  294   5.272   2.429   4.084 -0.6772  2.0469  0.9584
  110TIP3    H2  295   5.322   2.484   4.216  2.1235  0.5683  0.5799
  111TIP3   OH2  296   6.475   3.675   3.874  0.0155  0.4852  0.0692
  111TIP3    H1  297   6.397   3.629   3.906 -0.1510  1.4504  1.0749
  111TIP3    H2  298   6.455   3.767   3.885  0.7551  0.7961 -1.0020
  112TIP3   OH2  299   1.167   6.701   3.808  0.0282  0.0896 -0.7166
  112TIP3    H1  300   1.218   6.633   3.764 -0.6908 -0.7623 -0.2747
  112TIP3    H2  301   1.230   6.769   3.829  1.4985 -1.8618  1.7757
  113TIP3   OH2  302   1.329   5.097   2.746 -0.1938  0.6286  0.2562
  113TIP3    H1  303   1.374   5.029   2.796 -0.3500  0.2331 -0.1300
  113TIP3    H2  304   1.399   5.151   2.710 -0.0324  0.1584 -0.1439
  114TIP3   OH2  305   4.787   0.374   3.246 -0.0163  0.1873 -0.1595
  114TIP3    H1  306   4.758   0.465   3.248  0.8751  0.4684  1.5919
  114TIP3    H2  307   4.753   0.340   3.163 -2.2090  1.4825  0.1446
  115TIP3   OH2  308   0.120   4.076   1.769 -0.1653  0.4442 -0.4260
  115TIP3    H1  309   0.047   4.014   1.771  0.7680 -0.6774  0.6047
  115TIP3    H2  310   0.086   4.153   1.724 -1.7202 -0.3752 -0.6917
  116TIP3   OH2  311   6.532   3.154   2.479  0.1440  0.1740 -0.1892
  116TIP3    H1  312   6.543   3.082   2.541 -2.6246 -0.8244 -0.6890
  116TIP3    H2  313   6.584   3.226   2.515  0.8777 -1.2657  1.7479
  117TIP3   OH2  314   4.595   1.805   1.659  0.8351 -0.6446 -0.2374
  117TIP3    H1  315   4.630   1.720   1.632 -0.6570 -1.2608 -0.3072
  117TIP3    H2  316   4.592   1.800   1.755 -1.6040 -1.6911 -0.3139
  118TIP3   OH2  317   5.079   5.649   1.185 -0.7301 -0.3841  0.1828
  118TIP3    H1  318   5.071   5.632   1.278  1.6735 -1.1891  0.3275
  118TIP3    H2  319   5.077   5.562   1.144 -0.1461 -0.1708 -0.3242
  119TIP3   OH2  320   6.031   5.985   2.307  0.1405  0.1064  0.2098
  119TIP3    H1  321   6.049   5.927   2.234 -0.3246 -0.8390  0.8277
  119TIP3    H2  322   6.062   5.938   2.385  0.3621  0.9629  0.6565
  120TIP3   OH2  323   5.375   0.457   5.609 -0.3146 -0.0767 -0.0506
  120TIP3    H1  324   5.336   0.398   5.544 -1.1125  2.1609 -1.7100
  120TIP3    H2  325   5.302   0.509   5.642  0.4470  0.3412  1.0308
  121TIP3   OH2  326   5.194   4.059   4.648  0.1249  0.2092  0.1086
  121TIP3    H1  327   5.287   4.039   4.658 -0.3753 -3.4080 -0.9300
  121TIP3    H2  328   5.151   4.012   4.719 -1.1152 -1.5827 -1.6904
  122TIP3   OH2  329   6.375   6.620   4.623 -0.0457  0.1319 -0.1460
  122TIP3    H1  330   6.387   6.540   4.674  0.1706 -0.8399 -1.6638
  122TIP3    H2  331   6.281   6.639   4.629  0.0585  0.3330  1.0161
  123TIP3   OH2  332   4.774   3.981   4.856 -0.2079 -0.3977 -0.1653
  123TIP3    H1  333   4.732   3.896   4.841  0.3676 -0.5692 -0.8301
  123TIP3    H2  334   4.720   4.022   4.924 -0.8919 -1.0067 -0.3264
  124TIP3   OH2  335   4.158   2.923   1.768  0.2636 -0.7106  0.2835
  124TIP3    H1  336   4.072   2.963   1.775 -0.1450 -1.5887  0.4386
  124TIP3    H2  337   4.220   2.994   1.788 -0.4155 -0.0638  0.1049
  125TIP3   OH2  338   0.941   2.559   0.574  0.3571  0.0281  0.0153
  125TIP3    H1  339   1.034   2.575   0.558  0.3528 -1.2035 -1.4519
  125TIP3    H2  340   0.897   2.638   0.543  0.7991 -0.0576 -0.8414
  126TIP3   OH2  341   0.851   2.936   1.914 -0.1520  0.8605  0.1422
  126TIP3    H1  342   0.924   2.982   1.955  0.3928  0.4103 -0.3092
  126TIP3    H2  343   0.892   2.877   1.850 -0.9164  0.7295 -0.2427
  127TIP3   OH2  344   3.681   3.558   5.207 -0.3288 -0.6060 -0.7438
  127TIP3    H1  345   3.745   3.604   5.152  1.2632 -0.0591  1.4237
  127TIP3    H2  346   3.696   3.465   5.188  1.1033 -0.4833 -0.3322
  128TIP3   OH2  347   3.006   6.255   2.950  0.1978  0.1226 -0.1475
  128TIP3    H1  348   2.937   6.273   2.886  1.1758  2.5700 -0.6037
  128TIP3    H2  349   3.065   6.194   2.905 -1.5955 -2.0501  0.2717
  129TIP3   OH2  350   2.561   1.306   5.065 -0.2298  0.0879  0.0780
  129TIP3    H1  351   2.596   1.278   5.150 -2.1194 -1.9786  0.2779
  129TIP3    H2  352   2.486   1.249   5.050 -1.1090  1.6602 -2.1330
  130TIP3   OH2  353   0.329   1.607   0.214  0.0453 -0.0754 -0.1329
  130TIP3    H1  354   0.267   1.535   0.206 -1.5431  0.9983  1.6215
  130TIP3    H2  355   0.328   1.650   0.129 -0.3708 -1.0362 -0.6219
  131TIP3   OH2  356   1.057   1.079   1.794  0.4767 -0.0237 -0.1371
  131TIP3    H1  357   1.147   1.093   1.823  0.1545  1.6134  0.1909
  131TIP3    H2  358   1.006   1.079   1.875  0.0786 -0.0434 -0.3855
  132TIP3   OH2  359   0.494   2.883   5.288 -0.8134  0.2137 -0.1558
  132TIP3    H1  360   0.488   2.975   5.261  0.2056 -0.3975 -2.8584
  132TIP3    H2  361   0.570   2.879   5.345 -1.2488  1.1329  0.5053
  133TIP3   OH2  362   4.145   1.870   0.943 -0.3912 -0.5599  0.4857
  133TIP3    H1  363   4.075   1.862   0.878  1.0252  0.0177 -1.1882
  133TIP3    H2  364   4.145   1.786   0.989 -0.1795 -1.7781 -1.6248
  134TIP3   OH2  365   4.143   1.087   1.429  0.6557  0.0394 -0.1029
  134TIP3    H1  366   4.110   0.997   1.418  2.7750 -0.4798 -4.0520
  134TIP3    H2  367   4.083   1.141   1.377  0.5647  0.6261  0.5971
  135TIP3   OH2  368   3.378   6.613   5.537  0.0699  0.0104  0.1517
  135TIP3    H1  369   3.437   6.556   5.487 -0.5209 -0.8572  0.4211
  135TIP3    H2  370   3.433   6.652   5.605  0.3306 -0.8240  0.4293
  136TIP3   OH2  371   0.118   3.817   2.978 -0.2087 -0.4295  0.1061
  136TIP3    H1  372   0.187   3.750   2.974 -0.2688 -0.4526 -0.6463
  136TIP3    H2  373   0.142   3.871   3.054  0.3840 -0.7082  0.1276
  137TIP3   OH2  374   1.841   0.256   2.137 -0.3650 -0.3625 -0.6323
  137TIP3    H1  375   1.798   0.191   2.192 -2.0126  1.3494  0.1770
  137TIP3    H2  376   1.917   0.284   2.187 -2.7261  2.3910  1.7154
  138TIP3   OH2  377   2.145   5.565   4.525  0.1444  0.2643  0.1120
  138TIP3    H1  378   2.205   5.568   4.600  1.4662 -1.7344 -0.8099
  138TIP3    H2  379   2.062   5.535   4.562  0.6228 -0.1491  0.8682
  139TIP3   OH2  380   3.824   2.473   1.965 -0.0144 -0.3012  0.1553
  139TIP3    H1  381   3.909   2.510   1.941 -0.9789  2.2105  0.3212
  139TIP3    H2  382   3.764   2.507   1.900 -1.0812 -1.2765  0.5924
  140TIP3   OH2  383   6.580   6.173   1.960 -0.1353  0.3723  0.0957
  140TIP3    H1  384   6.615   6.260   1.940 -0.7108  1.1279  2.1000
  140TIP3    H2  385   6.485   6.183   1.954 -0.2581  0.2231  1.4251
  141TIP3   OH2  386   4.213   5.522   1.795 -0.0008 -0.1900  0.2199
  141TIP3    H1  387   4.169   5.607   1.791 -1.2353 -0.8413 -0.7681
  141TIP3    H2  388   4.237   5.512   1.887 -0.0972  1.0880  0.4086
  142TIP3   OH2  389   5.510   1.721   0.767 -0.9016  0.6637  0.1744
  142TIP3    H1  390   5.596   1.757   0.744 -0.6323 -0.9813 -1.7386
  142TIP3    H2  391   5.459   1.796   0.796  1.7218  1.4552  3.3473
  143TIP3   OH2  392   2.257   2.591   4.501 -0.1791  0.4404  0.1522
  143TIP3    H1  393   2.285   2.676   4.535  0.2391  0.3370  0.0721
  143TIP3    H2  394   2.275   2.596   4.407 -2.5517  1.2251 -0.3439
  144TIP3   OH2  395   4.948   0.334   3.462  0.2506 -0.1982 -0.2186
  144TIP3    H1  396   4.897   0.379   3.530  0.6165 -0.1302  0.0088
  144TIP3    H2  397   4.891   0.337   3.385  0.6015  1.3886 -0.4500
  145TIP3   OH2  398   6.409   2.832   0.383 -0.3262 -0.0118 -0.6807
  145TIP3    H1  399   6.453   2.775   0.319 -0.4797 -2.0730  0.9452
  145TIP3    H2  400   6.327   2.787   0.403 -0.5407  0.8720  0.5467
  146TIP3   OH2  401   6.732   2.986   5.789  0.3877  0.0347 -0.0854
  146TIP3    H1  402   6.757   2.987   5.696 -1.8937 -2.1931 -0.8506
  146TIP3    H2  403   6.639   3.008   5.789  0.1890 -0.6473  1.6093
  147TIP3   OH2  404   5.445   6.834   4.808 -0.0003 -0.4768 -0.0774
  147TIP3    H1  405   5.366   6.816   4.758 -0.8057  1.8807  0.1861
  147TIP3    H2  406   5.486   6.749   4.822 -2.4505 -1.7569 -0.2916
  148TIP3   OH2  407   5.398   6.467   0.084 -0.4410  0.3476 -0.0094
  148TIP3    H1  408   5.427   6.554   0.112  2.5791  0.0342 -1.7074
  148TIP3    H2  409   5.316   6.484   0.037 -0.7457  2.0154  1.0017
  149TIP3   OH2  410   7.096   1.389   5.623  0.1327 -0.3912 -0.5285
  149TIP3    H1  411   7.082   1.297   5.602 -1.8337 -0.2067 -0.1348
  149TIP3    H2  412   7.096   1.432   5.537  0.2759 -0.6500 -0.6621
  150TIP3   OH2  413   0.581   1.273   2.751  0.6649 -0.0867 -0.0497
  150TIP3    H1  414   0.581   1.302   2.843  0.2996  2.0705 -0.6844
  150TIP3    H2  415   0.669   1.295   2.720  1.4252 -2.4729  0.2103
  151TIP3   OH2  416   6.424   6.179   2.224  0.2713 -0.4304  0.3401
  151TIP3    H1  417   6.514   6.169   2.253  0.8620  0.9202 -0.8951
  151TIP3    H2  418   6.417   6.121   2.147 -0.4696 -1.8828  1.4523
  152TIP3   OH2  419   2.691   4.376   4.917  0.2335  0.0892 -0.3786
  152TIP3    H1  420   2.670   4.443   4.852  0.0525  1.2736  0.8455
  152TIP3    H2  421   2.617   4.315   4.913  0.6420 -0.3486 -1.8592
  153TIP3   OH2  422   4.821   0.463   3.663 -0.1988  0.1675 -0.0981
  153TIP3    H1  423   4.779   0.549   3.666 -0.0559  0.3587 -2.1503
  153TIP3    H2  424   4.870   0.458   3.745  1.1499  2.7818 -0.6308
  154TIP3   OH2  425   5.811   0.194   3.494  0.2898  0.3026 -0.0970
  154TIP3    H1  426   5.782   0.103   3.504  1.2880  0.1819  2.4883
  154TIP3    H2  427   5.895   0.197   3.540  1.4954  2.0088 -2.2395
  155TIP3   OH2  428   6.463   1.057   0.049 -0.5830  0.1255 -0.3106
  155TIP3    H1  429   6.376   1.026   0.025 -0.4497 -0.1265 -0.4667
  155TIP3    H2  430   6.523   1.007  -0.007 -0.3241  0.1395 -0.0452
  156TIP3   OH2  431   5.271   3.860   2.251 -0.6400 -0.6926 -0.4687
  156TIP3    H1  432   5.357   3.828   2.276 -1.2844 -2.7941 -0.7841
  156TIP3    H2  433   5.272   3.860   2.155  0.0282  2.3318 -0.5677
  157TIP3   OH2  434   1.549   3.171   0.093 -0.1269 -0.0011 -0.3520
  157TIP3    H1  435   1.623   3.128   0.051 -1.5554 -1.2724 -1.6626
  157TIP3    H2  436   1.579   3.261   0.106  1.5310 -0.3938 -1.1442
  158TIP3   OH2  437   5.493   5.187   5.196 -0.2936 -0.3558  0.3635
  158TIP3    H1  438   5.479   5.199   5.290  1.0685  0.6633  0.4556
  158TIP3    H2  439   5.465   5.269   5.156 -1.4778 -1.0119 -0.2195
  159TIP3   OH2  440   3.090   3.827   1.927 -0.4326 -0.4354  0.2156
  159TIP3    H1  441   3.124   3.781   2.004 -0.3403 -0.7269 -0.0002
  159TIP3    H2  442   3.169   3.858   1.882 -0.4537 -1.0430 -0.2432
  160TIP3   OH2  443   2.827   0.155   3.697 -0.0704  0.8476  0.2665
  160TIP3    H1  444   2.808   0.247   3.677 -1.8931  0.4659  0.0486
  160TIP3    H2  445   2.833   0.113   3.612  0.1375  0.6388  0.3828
  161TIP3   OH2  446   2.230   1.900   1.703 -0.4710 -0.3198  0.3612
  161TIP3    H1  447   2.320   1.873   1.689  0.1323  2.1501 -1.1273
  161TIP3    H2  448   2.227   1.925   1.796  0.6614  0.4136  0.2245
  162TIP3   OH2  449   2.248   0.729   3.541 -0.2622  0.4988 -0.1586
  162TIP3    H1  450   2.278   0.641   3.566  1.6347  1.4017  1.0394
  162TIP3    H2  451   2.311   0.757   3.474 -0.1633  1.3426  0.2779
  163TIP3   OH2  452   0.678   1.936  -0.012 -0.0479  0.1673 -0.3516
  163TIP3    H1  453   0.617   1.984   0.044 -0.2181  0.3439 -0.6833
  163TIP3    H2  454   0.737   1.892   0.049 -1.0398 -0.7225  0.0003
  164TIP3   OH2  455   3.390   5.533   0.454 -0.0930 -0.1626 -0.0038
  164TIP3    H1  456   3.438   5.613   0.477  0.5263 -0.2022 -1.0792
  164TIP3    H2  457   3.382   5.486   0.537 -0.2465  0.8895  0.6048
  165TIP3   OH2  458   0.506   2.805   1.368 -0.1761  0.3410  0.1737
  165TIP3    H1  459   0.464   2.873   1.315 -0.6540 -0.4915 -0.5498
  165TIP3    H2  460   0.570   2.765   1.309 -0.3544 -0.2668  0.3862
  166TIP3   OH2  461   4.751   1.346   2.991  0.2239  0.6974 -0.4176
  166TIP3    H1  462   4.832   1.317   3.033 -0.6422  0.8701  1.5012
  166TIP3    H2  463   4.703   1.391   3.061 -2.2559 -0.8598 -0.9923
  167TIP3   OH2  464   0.312   0.854   3.079 -0.3271  0.0262  0.4998
  167TIP3    H1  465   0.308   0.769   3.035 -0.5153 -0.3452  1.2216
  167TIP3    H2  466   0.260   0.843   3.159  1.1816  0.2599  1.5469
  168TIP3   OH2  467   1.570   0.247   2.467 -0.4683 -0.4567  0.0567
  168TIP3    H1  468   1.571   0.342   2.470 -0.3466 -0.3895 -1.5022
  168TIP3    H2  469   1.615   0.220   2.547 -0.5668  0.7777  0.5480
  169TIP3   OH2  470   6.262   3.763   0.283  0.4496  0.1677 -0.0090
  169TIP3    H1  471   6.194   3.809   0.330 -0.4544  0.8945 -1.9153
  169TIP3    H2  472   6.307   3.710   0.350  1.1867  3.2976  2.1823
  170TIP3   OH2  473   4.657   4.088   4.618  0.2989 -0.3090  0.6308
  170TIP3    H1  474   4.712   4.027   4.666  0.8275  0.5770  1.1825
  170TIP3    H2  475   4.685   4.078   4.526 -0.5413 -1.8220  0.5065
  171TIP3   OH2  476   3.665   5.752   0.862 -0.3281 -0.1453  0.4142
  171TIP3    H1  477   3.710   5.675   0.898 -1.3712 -1.0389 -0.1478
  171TIP3    H2  478   3.599   5.774   0.928  0.1005  0.4206  0.6704
  172TIP3   OH2  479   0.459   2.142   2.930  0.4734  0.6442 -0.0522
  172TIP3    H1  480   0.474   2.049   2.912  2.5259  0.1977  3.1164
  172TIP3    H2  481   0.430   2.178   2.847  0.4502 -2.6462 -1.6393
  173TIP3   OH2  482   1.577   1.426   2.883  0.2156 -0.2019 -0.0094
  173TIP3    H1  483   1.627   1.508   2.884 -0.1016 -0.0163  1.1490
  173TIP3    H2  484   1.486   1.454   2.890  0.1365 -0.6632  0.9050
  174TIP3   OH2  485   2.687   5.772   4.460 -0.3587  0.2230  0.6290
  174TIP3    H1  486   2.774   5.791   4.494 -0.4025 -1.9306  2.1730
  174TIP3    H2  487   2.698   5.695   4.406 -1.1207  0.7430 -0.3076
  175TIP3   OH2  488   2.956   2.478   0.458  0.1699 -0.2048 -0.3367
  175TIP3    H1  489   2.863   2.472   0.433  0.0918  0.0061 -0.0927
  175TIP3    H2  490   2.982   2.567   0.435 -0.2927  0.4937  1.6518
  176TIP3   OH2  491   3.378   0.688   4.961 -0.2248 -0.5874  0.0773
  176TIP3    H1  492   3.428   0.721   4.886 -1.2763 -0.7180 -0.7112
  176TIP3    H2  493   3.444   0.657   5.023  0.8218  2.1617  0.4992
  177TIP3   OH2  494   4.827   1.947   1.527  1.0418  0.0455 -0.5662
  177TIP3    H1  495   4.743   1.901   1.518  0.7362  0.5967 -0.5472
  177TIP3    H2  496   4.842   1.986   1.441  1.5675 -0.5280 -0.7446
  178TIP3   OH2  497   6.761   6.499   2.246 -0.2490 -0.0413 -0.0747
  178TIP3    H1  498   6.724   6.578   2.208  2.0379  0.2562 -1.9082
  178TIP3    H2  499   6.777   6.522   2.338  0.3162  1.6561 -0.5577
  179TIP3   OH2  500   7.074   0.395   1.647 -0.3540  0.3033 -0.4613
  179TIP3    H1  501   7.103   0.396   1.555  0.6774  2.1635 -0.1469
  179TIP3    H2  502   6.980   0.379   1.642 -0.5809  1.8616 -1.9506
  180TIP3   OH2  503   2.553   1.345   1.018 -0.1877 -0.1189 -0.1362
  180TIP3    H1  504   2.460   1.324   1.010 -0.7633  1.6244  1.1706
  180TIP3    H2  505   2.587   1.338   0.929 -1.1471 -2.4404 -0.3887
  181TIP3   OH2  506   5.961   5.634   1.242  1.0348 -0.0502 -0.0476
  181TIP3    H1  507   6.047   5.608   1.206  0.1061 -1.8237 -1.1403
  181TIP3    H2  508   5.971   5.624   1.336  1.7479 -1.2864 -0.2275
  182TIP3   OH2  509   4.395   5.680   3.592  0.0328 -0.3839 -0.0467
  182TIP3    H1  510   4.465   5.615   3.589  1.2949  0.9490 -1.0412
  182TIP3    H2  511   4.415   5.741   3.521  0.0301  2.1988  1.9912
  183TIP3   OH2  512   5.097   4.809   3.535 -0.1189  0.6078 -0.1559
  183TIP3    H1  513   5.139   4.831   3.452  1.6364  0.8937  0.7668
  183TIP3    H2  514   5.120   4.718   3.551 -2.0900 -0.0665 -0.8846
  184TIP3   OH2  515   1.417   4.557   4.564  0.8450 -0.2778 -0.2602
  184TIP3    H1  516   1.380   4.561   4.475  0.4442  1.1410 -0.0371
  184TIP3    H2  517   1.342   4.538   4.620  1.3642 -3.0614 -0.3593
  185TIP3   OH2  518   6.784   1.437   4.290 -0.0677  0.3803  0.3709
  185TIP3    H1  519   6.862   1.490   4.307  0.0417  1.0646 -1.9954
  185TIP3    H2  520   6.798   1.357   4.341  0.6550  1.7840  2.5194
  186TIP3   OH2  521   0.041   3.370   3.372  0.5781 -0.2501  0.0348
  186TIP3    H1  522   0.097   3.293   3.382 -2.6009 -2.6825  0.9349
  186TIP3    H2  523   0.052   3.419   3.453  0.7246 -1.1642  0.5750
  187TIP3   OH2  524   0.163   5.759   3.022  0.1445  0.0201  0.1702
  187TIP3    H1  525   0.251   5.733   3.049 -0.0747  0.0244  0.9025
  187TIP3    H2  526   0.119   5.785   3.103  0.2317  2.3923 -0.4631
  188TIP3   OH2  527   1.523   1.218   4.529 -0.3992  0.1940 -0.5392
  188TIP3    H1  528   1.503   1.232   4.437  0.0883 -1.1702 -0.8779
  188TIP3    H2  529   1.619   1.225   4.534 -0.3683 -0.3342 -0.2634
  189TIP3   OH2  530   4.011   5.961   0.004  0.2999  0.2717 -0.4153
  189TIP3    H1  531   3.957   6.040   0.002  1.0143  1.1140  3.7800
  189TIP3    H2  532   3.949   5.889   0.014 -0.2596  0.4930 -2.1134
  190TIP3   OH2  533   4.705   1.029   0.173  0.4136  0.1977  0.4972
  190TIP3    H1  534   4.649   1.102   0.147  0.6220 -0.1278 -0.9181
  190TIP3    H2  535   4.656   0.950   0.148  0.6369 -0.1334  1.0751
  191TIP3   OH2  536   2.905   2.981   1.196  0.0550  0.1498 -0.2524
  191TIP3    H1  537   2.867   3.025   1.271  2.4955 -1.2551  2.0112
  191TIP3    H2  538   2.871   2.892   1.200  0.8456 -0.1675 -0.2600
  192TIP3   OH2  539   3.153   1.344   3.431 -0.0757  1.3445 -0.5664
  192TIP3    H1  540   3.063   1.313   3.440  1.0266 -2.0360  0.1096
  192TIP3    H2  541   3.203   1.267   3.407  2.7790  2.9886 -0.3323
  193TIP3   OH2  542   1.832   5.230   1.213 -0.3106  0.1790 -0.1003
  193TIP3    H1  543   1.875   5.148   1.189 -0.4349  0.1844 -0.3403
  193TIP3    H2  544   1.863   5.293   1.147 -2.2374 -0.2685 -1.5155
  194TIP3   OH2  545   7.142   2.927   2.329  0.2851  0.4424  0.0080
  194TIP3    H1  546   7.103   3.007   2.292  1.7622  0.2339 -2.2176
  194TIP3    H2  547   7.235   2.934   2.306  0.9715 -0.6496  2.2097
  195TIP3   OH2  548   0.878   4.651   0.900 -0.3365  0.0660 -0.0751
  195TIP3    H1  549   0.805   4.639   0.960 -0.5985 -1.8027 -0.7086
  195TIP3    H2  550   0.844   4.711   0.833 -1.4721 -1.1386 -0.6165
  196TIP3   OH2  551   2.691   4.181   4.262 -0.2183 -0.7473 -0.3089
  196TIP3    H1  552   2.742   4.166   4.341  1.3180 -2.7714 -1.5862
  196TIP3    H2  553   2.652   4.096   4.242  0.6411 -0.6700 -2.5138
  197TIP3   OH2  554   5.894   4.264   3.522 -0.0962  0.3300 -0.0241
  197TIP3    H1  555   5.946   4.287   3.444 -0.1558 -0.2957 -0.2566
  197TIP3    H2  556   5.825   4.207   3.488 -0.1017  0.0250  0.4942
  198TIP3   OH2  557   3.247   5.474   1.549 -0.2046 -0.0605 -0.0889
  198TIP3    H1  558   3.154   5.492   1.562 -0.3020 -2.0710  3.2865
  198TIP3    H2  559   3.292   5.547   1.591 -0.3604 -0.4072  0.7102
  199TIP3   OH2  560   1.696   1.495   4.737  0.0439 -0.0003  0.8426
  199TIP3    H1  561   1.699   1.585   4.772 -0.4738 -0.0327  0.9723
  199TIP3    H2  562   1.665   1.442   4.810  0.9440 -0.3844  0.9530
  200TIP3   OH2  563   0.062   0.647   1.306 -0.1479 -0.0043  0.0386
  200TIP3    H1  564  -0.015   0.671   1.255  0.0963  4.1732  1.2861
  200TIP3    H2  565   0.135   0.657   1.246 -0.2468  0.1077 -0.0618
  201TIP3   OH2  566   1.285   3.862   1.460  0.7003  0.5819 -0.0740
  201TIP3    H1  567   1.377   3.850   1.439  0.4369 -1.2153 -0.3613
  201TIP3    H2  568   1.252   3.774   1.477 -0.8100  1.2519  0.7328
  202TIP3   OH2  569   5.754   6.754   5.872  0.7320 -0.4489 -0.7539
  202TIP3    H1  570   5.841   6.717   5.859  0.0936 -1.3472 -2.7745
  202TIP3    H2  571   5.717   6.762   5.785 -0.9891  0.5369  0.0065
  203TIP3   OH2  572   4.418   0.590   0.062  0.0802 -0.1789 -0.6879
  203TIP3    H1  573   4.466   0.535   0.124 -0.0127  1.8109  1.2870
  203TIP3    H2  574   4.328   0.558   0.066  0.1149 -0.1872  0.0803
  204TIP3   OH2  575   5.241   5.620   3.789  0.4227  0.3087 -1.0006
  204TIP3    H1  576   5.192   5.624   3.871  1.2526  2.0715 -0.5561
  204TIP3    H2  577   5.197   5.681   3.731  0.3050 -0.3580 -1.6305
  205TIP3   OH2  578   5.608   6.333   3.322 -0.0670  0.3790 -0.2562
  205TIP3    H1  579   5.555   6.279   3.381  0.2865  0.9559  0.6118
  205TIP3    H2  580   5.544   6.381   3.270 -0.3867 -0.5825 -0.7798
  206TIP3   OH2  581   1.139   0.033   2.756  0.4964  0.2037  0.5671
  206TIP3    H1  582   1.174   0.008   2.841 -1.7297  0.6771  1.7145
  206TIP3    H2  583   1.179   0.119   2.738  1.1194  0.0214  1.0465
  207TIP3   OH2  584   6.573   2.635   1.415 -0.2013  0.3182 -0.2482
  207TIP3    H1  585   6.631   2.588   1.475 -0.0405  0.0803 -0.5837
  207TIP3    H2  586   6.585   2.590   1.331 -1.4793 -0.2581 -0.1396
  208TIP3   OH2  587   1.675   3.253   1.037 -0.2569  0.2912  0.3102
  208TIP3    H1  588   1.674   3.335   0.988 -1.6128  1.0035  1.4348
  208TIP3    H2  589   1.637   3.188   0.978 -0.5769  0.8199 -0.0649
  209TIP3   OH2  590   3.093   4.526   5.684 -0.0060 -0.6746 -0.6922
  209TIP3    H1  591   3.157   4.592   5.714 -2.5761  2.0278 -0.7260
  209TIP3    H2  592   3.045   4.501   5.763 -1.8171  0.7748 -1.2652
  210TIP3   OH2  593   2.733   3.171   1.881 -0.2703 -0.3794  0.0734
  210TIP3    H1  594   2.787   3.189   1.803  1.5826 -0.8387  1.1958
  210TIP3    H2  595   2.643   3.180   1.850  0.3973 -1.0700 -2.2565
  211TIP3   OH2  596   5.238   3.868   0.419 -0.5560 -0.4139 -0.1772
  211TIP3    H1  597   5.249   3.897   0.329  1.4732 -2.2182 -0.5759
  211TIP3    H2  598   5.169   3.802   0.416 -0.2148 -0.7546 -0.4727
  212TIP3   OH2  599   5.956   1.218   1.508  0.4228 -0.5073  0.3041
  212TIP3    H1  600   6.012   1.142   1.496  0.4115 -0.5090  0.2627
  212TIP3    H2  601   5.994   1.264   1.582 -0.5527 -1.4657  1.4621
  213TIP3   OH2  602   4.079   5.066   3.704  0.0344 -0.7153 -0.5605
  213TIP3    H1  603   4.069   4.971   3.714 -0.9605 -0.6252 -0.5645
  213TIP3    H2  604   4.021   5.088   3.631 -0.0552 -0.0538 -0.2957
  214TIP3   OH2  605   1.078   5.208   2.665  0.5183 -0.3911 -0.2537
  214TIP3    H1  606   1.152   5.199   2.725 -0.7322 -2.5827  1.0832
  214TIP3    H2  607   1.030   5.284   2.697  0.9448 -0.3477  0.3010
  215TIP3   OH2  608   2.834   0.014   2.099  0.2284  0.4460  0.3239
  215TIP3    H1  609   2.839   0.103   2.135 -0.8081  0.7680 -0.2914
  215TIP3    H2  610   2.913   0.006   2.045 -1.2333  2.2689 -2.3453
  216TIP3   OH2  611   5.014   3.679   1.769 -0.0234 -0.1885  0.2432
  216TIP3    H1  612   4.947   3.687   1.838  0.4028 -0.5073  0.7007
  216TIP3    H2  613   5.097   3.681   1.816  0.3292  1.0121 -0.3928
  217TIP3   OH2  614   0.042   5.161   2.273 -0.5920  0.2018  0.4242
  217TIP3    H1  615  -0.028   5.113   2.229 -0.1952 -0.5390  0.5926
  217TIP3    H2  616   0.082   5.214   2.203 -0.5085 -0.3274  0.0676
  218TIP3   OH2  617   1.325   2.992   3.905  0.6148  0.5331  0.2350
  218TIP3    H1  618   1.340   2.902   3.878 -1.6928 -0.1037  0.9261
  218TIP3    H2  619   1.233   3.009   3.885  0.4925  2.1004  1.8859
  219TIP3   OH2  620   1.609   5.295   4.969  0.2855  0.6999  0.3088
  219TIP3    H1  621   1.565   5.216   5.000  0.6869  0.0831 -0.6321
  219TIP3    H2  622   1.654   5.330   5.046 -0.2432  0.2457  0.8261
  220TIP3   OH2  623   4.741   4.883   4.966  0.4800  0.3832  0.0093
  220TIP3    H1  624   4.673   4.827   4.928  0.6954 -0.9303  1.4884
  220TIP3    H2  625   4.797   4.824   5.016  0.7091  1.9032  1.6616
  221TIP3   OH2  626   5.378   6.340   0.328 -0.1854 -0.1821 -0.4146
  221TIP3    H1  627   5.397   6.375   0.241 -0.6711  2.3567  0.4123
  221TIP3    H2  628   5.291   6.376   0.350  0.1785 -0.2689  1.3304
  222TIP3   OH2  629   3.552   2.448   0.308 -0.1157  0.1157  0.1203
  222TIP3    H1  630   3.584   2.367   0.268 -1.1344 -0.2954  0.0820
  222TIP3    H2  631   3.594   2.518   0.259 -0.0579 -0.3975 -0.5792
  223TIP3   OH2  632   6.445   2.846   2.929 -0.1964 -0.1289 -0.4924
  223TIP3    H1  633   6.451   2.821   2.836  2.1227 -0.0448 -0.4194
  223TIP3    H2  634   6.500   2.923   2.937 -0.7543  0.1516  0.8924
  224TIP3   OH2  635   1.064   5.252   2.228  0.2262  0.2639  0.0143
  224TIP3    H1  636   1.022   5.170   2.256 -2.3704  0.3659 -2.9671
  224TIP3    H2  637   1.007   5.321   2.261  1.3212  0.8192  0.8189
  225TIP3   OH2  638   6.062   2.747   0.814  0.5188  1.0549  0.1262
  225TIP3    H1  639   6.134   2.784   0.865  1.1791 -0.9327  0.7000
  225TIP3    H2  640   6.050   2.809   0.742  2.7028  1.5360  0.0972
  226TIP3   OH2  641   2.853   2.384   5.587  0.1055  0.7655 -0.1601
  226TIP3    H1  642   2.940   2.414   5.560  0.2498  0.9963  0.5432
  226TIP3    H2  643   2.868   2.339   5.670 -0.1138 -1.2528 -1.1671
  227TIP3   OH2  644   1.270   0.471   3.757 -0.4291  0.3484 -0.5561
  227TIP3    H1  645   1.296   0.406   3.823  2.1521 -0.9222 -2.6351
  227TIP3    H2  646   1.182   0.443   3.730 -0.0285 -1.3415 -0.2403
  228TIP3   OH2  647   6.786   5.317   1.349 -0.0933  0.1671  0.5394
  228TIP3    H1  648   6.876   5.350   1.340  0.7918 -1.8795  1.1660
  228TIP3    H2  649   6.750   5.321   1.260  0.7623  0.6604  0.2038
  229TIP3   OH2  650   0.173   5.205   5.866  0.2033 -0.2795 -0.2328
  229TIP3    H1  651   0.177   5.113   5.842 -0.4989 -0.2814 -0.3888
  229TIP3    H2  652   0.102   5.240   5.812 -0.6105 -0.0127  0.9658
  230TIP3   OH2  653   4.506   4.152   2.837 -0.5295  0.2755 -0.0264
  230TIP3    H1  654   4.511   4.114   2.925  0.0344 -0.8112 -0.5116
  230TIP3    H2  655   4.544   4.240   2.847  0.3202 -0.1525  0.6468
  231TIP3   OH2  656   1.688   2.886   0.693 -0.8728  0.2954 -0.0600
  231TIP3    H1  657   1.771   2.923   0.665 -1.4344  1.6553 -0.0334
  231TIP3    H2  658   1.636   2.880   0.613 -1.2500  0.8606  0.1327
  232TIP3   OH2  659   5.183   5.344   5.083  0.4072  0.2047  0.3950
  232TIP3    H1  660   5.270   5.381   5.098  0.9948 -1.0427  0.1674
  232TIP3    H2  661   5.140   5.407   5.026  0.4102  1.8522  2.1112
  233TIP3   OH2  662   3.542   2.681   1.186 -0.6349  0.5794  0.0712
  233TIP3    H1  663   3.486   2.603   1.187  0.7509 -0.4357  1.4543
  233TIP3    H2  664   3.561   2.695   1.093 -0.8124 -0.7875 -0.1879
  234TIP3   OH2  665   1.227   3.624   3.764 -0.0487 -0.2277  0.5428
  234TIP3    H1  666   1.204   3.717   3.771 -0.8522 -0.3805  0.0820
  234TIP3    H2  667   1.287   3.619   3.689 -1.4244 -0.2984 -0.6090
  235TIP3   OH2  668   0.107   4.279   2.507 -0.6563 -0.0619  0.1423
  235TIP3    H1  669   0.200   4.304   2.509 -0.7301  0.1618  1.2337
  235TIP3    H2  670   0.105   4.193   2.547 -0.8698 -0.2662 -0.3033
  236TIP3   OH2  671   1.399   6.337   1.865 -0.1111  0.4309 -0.0178
  236TIP3    H1  672   1.400   6.408   1.929 -1.7640 -0.8039  1.4867
  236TIP3    H2  673   1.316   6.347   1.819 -0.4175 -0.5544  0.2870
  237TIP3   OH2  674   4.458   5.956   1.847  0.3535 -0.0742 -0.2149
  237TIP3    H1  675   4.543   5.913   1.849  0.9307  0.9448 -1.2967
  237TIP3    H2  676   4.464   6.024   1.914  0.4673  0.1245 -0.4256
  238TIP3   OH2  677   0.928   4.218   3.894 -0.2263 -0.4508 -0.2659
  238TIP3    H1  678   0.961   4.279   3.960  0.3929  0.6014 -1.4905
  238TIP3    H2  679   0.850   4.261   3.858  1.1820  0.5297 -2.3473
  239TIP3   OH2  680   5.279   1.867   0.319  0.3765 -0.3686  0.3501
  239TIP3    H1  681   5.199   1.815   0.324  0.2880 -0.2992 -0.3193
  239TIP3    H2  682   5.294   1.879   0.225  1.4356 -0.7909  0.4551
  240TIP3   OH2  683   1.877   6.734   5.284  0.0456 -0.1810  0.2268
  240TIP3    H1  684   1.895   6.692   5.369  1.2779  1.4486  0.8225
  240TIP3    H2  685   1.782   6.736   5.279 -0.0525 -0.6851  1.3817
  241TIP3   OH2  686   1.971   4.586   4.956 -0.0462  0.1182  0.5456
  241TIP3    H1  687   1.950   4.496   4.979  0.8823 -0.0580  0.7460
  241TIP3    H2  688   1.886   4.627   4.939 -0.3980 -1.2862 -1.4682
  242TIP3   OH2  689   0.982   2.672   3.535 -0.0264  0.2271 -0.0300
  242TIP3    H1  690   1.072   2.649   3.511  0.0442  1.2582 -0.8393
  242TIP3    H2  691   0.987   2.762   3.565 -0.7266  0.1598  0.3168
  243TIP3   OH2  692   1.793   1.600   3.179  0.2543  0.2285  0.0635
  243TIP3    H1  693   1.775   1.646   3.261 -0.5513  0.3926 -0.2041
  243TIP3    H2  694   1.818   1.669   3.118 -0.2435  0.2259 -0.1399
  244TIP3   OH2  695   5.918   2.985   1.961  0.3465 -0.2558 -0.3217
  244TIP3    H1  696   5.870   3.066   1.972 -1.0514 -0.9086 -1.3675
  244TIP3    H2  697   6.005   3.013   1.929  0.3668  0.8728  0.6631
  245TIP3   OH2  698   4.022   5.682   2.436  0.0750  1.2136 -0.3541
  245TIP3    H1  699   4.047   5.672   2.344  0.4576  1.4180 -0.2782
  245TIP3    H2  700   4.103   5.665   2.485 -0.0885  1.2536 -0.0633
  246TIP3   OH2  701   3.473   1.603   4.558 -0.2839  0.2855 -0.2271
  246TIP3    H1  702   3.390   1.647   4.577 -0.3036  0.3939 -0.5501
  246TIP3    H2  703   3.489   1.621   4.465  0.3456  0.6688 -0.0471
  247TIP3   OH2  704   3.117   4.013   3.234 -0.0791  0.1875 -0.4915
  247TIP3    H1  705   3.084   4.088   3.283 -0.1737  0.5118 -1.0429
  247TIP3    H2  706   3.203   3.995   3.273 -0.9778 -0.8076  1.1003
  248TIP3   OH2  707   1.157   6.828   2.507 -0.3049  0.1123  0.7828
  248TIP3    H1  708   1.114   6.743   2.514  0.5438 -0.3298  0.7610
  248TIP3    H2  709   1.226   6.825   2.574  0.6544  0.2202 -0.1860
  249TIP3   OH2  710   2.583   5.714   2.478  0.2067  0.5542 -0.2808
  249TIP3    H1  711   2.494   5.703   2.513 -0.7205  1.6649 -2.1462
  249TIP3    H2  712   2.598   5.635   2.426  0.2366  0.4754 -0.1542
  250TIP3   OH2  713   0.681   6.612   4.765 -0.1278 -0.3788 -0.8313
  250TIP3    H1  714   0.693   6.531   4.815  0.9410  0.5372  0.4549
  250TIP3    H2  715   0.769   6.638   4.739 -0.2796  1.1265  0.0401
  251TIP3   OH2  716   2.099   0.684   1.014  0.3955 -0.6267  0.0452
  251TIP3    H1  717   2.051   0.658   0.935  0.0495  0.6033 -0.1616
  251TIP3    H2  718   2.052   0.640   1.085  0.0971 -0.9286 -0.3304
  252TIP3   OH2  719   2.158   1.312   4.355 -0.4403 -0.9300 -0.1601
  252TIP3    H1  720   2.177   1.383   4.294 -2.6986 -1.0179 -1.0276
  252TIP3    H2  721   2.165   1.352   4.442 -0.0174 -0.0978 -0.5685
  253TIP3   OH2  722   3.056   4.598   0.733 -0.4211  0.7189  0.1359
  253TIP3    H1  723   3.130   4.622   0.676 -0.4250  0.3158 -0.0403
  253TIP3    H2  724   2.982   4.586   0.673 -0.6140  1.0590  0.3064
  254TIP3   OH2  725   4.850   0.068   1.800  0.3430 -0.0185 -0.0466
  254TIP3    H1  726   4.818   0.029   1.718  0.4561 -0.7389  0.2440
  254TIP3    H2  727   4.849   0.162   1.783  0.3948 -0.1569 -0.8880
  255TIP3   OH2  728   3.149   2.403   3.504  0.2571  0.5801 -0.1953
  255TIP3    H1  729   3.239   2.429   3.483  0.2958  1.7540  1.1898
  255TIP3    H2  730   3.104   2.486   3.522 -1.0043 -0.0166 -0.4832
  256TIP3   OH2  731   2.877   0.250   4.444 -0.1525 -0.6194 -0.0478
  256TIP3    H1  732   2.940   0.237   4.374  0.4943 -1.0311  0.5904
  256TIP3    H2  733   2.816   0.316   4.411  0.5856 -0.2566 -0.6938
  257TIP3   OH2  734   0.488   0.406   2.294  0.2530 -0.5472  0.2632
  257TIP3    H1  735   0.583   0.411   2.301  0.1821  2.5696  0.1166
  257TIP3    H2  736   0.457   0.409   2.384  0.2696  1.2913  0.2358
  258TIP3   OH2  737   1.924   1.052   3.807 -0.3069 -0.1051 -0.0702
  258TIP3    H1  738   1.943   1.041   3.900 -1.4061 -0.4333  0.1399
  258TIP3    H2  739   1.951   0.969   3.767  0.4854  0.1649 -0.1117
  259TIP3   OH2  740   5.933   2.115   5.126 -0.6477 -0.4450  0.3123
  259TIP3    H1  741   5.932   2.046   5.193  0.0689  0.0268  0.8233
  259TIP3    H2  742   6.024   2.144   5.123 -0.7166 -0.3102 -0.7253
  260TIP3   OH2  743   5.278   4.769   1.096  0.0008  0.4288  0.5175
  260TIP3    H1  744   5.220   4.805   1.030  2.7431  1.7161 -1.3652
  260TIP3    H2  745   5.324   4.845   1.133  2.3523 -0.6459  0.0172
  261TIP3   OH2  746   6.001   5.334   4.146  0.2530 -0.6941  0.1388
  261TIP3    H1  747   5.917   5.370   4.119  1.8895  1.5050 -2.4903
  261TIP3    H2  748   6.066   5.383   4.097  3.1405 -2.3593  1.9602
  262TIP3   OH2  749   4.956   0.134   2.087  0.0372 -0.4859  1.0825
  262TIP3    H1  750   4.904   0.196   2.140  0.6834  0.4534  0.6472
  262TIP3    H2  751   4.897   0.108   2.017 -0.2178 -0.2896  1.2190
  263TIP3   OH2  752   4.362   4.321   4.198  0.5472  0.0045 -0.3614
  263TIP3    H1  753   4.361   4.241   4.146  0.2712 -0.6190  0.5807
  263TIP3    H2  754   4.270   4.338   4.218  0.6496  0.2495 -0.0882
  264TIP3   OH2  755   2.356   6.760   4.795  0.3995  0.1245  0.2143
  264TIP3    H1  756   2.306   6.800   4.724  1.0115 -0.8959 -0.8163
  264TIP3    H2  757   2.290   6.731   4.858 -0.3026 -0.9045 -0.9674
  265TIP3   OH2  758   3.168   1.137   4.550  0.4671  0.6391 -0.1637
  265TIP3    H1  759   3.157   1.226   4.585 -0.2126  1.5104 -2.4172
  265TIP3    H2  760   3.262   1.128   4.536  0.5891  0.8164  0.5126
  266TIP3   OH2  761   2.663   5.398   3.552  0.5118  0.1523  0.0326
  266TIP3    H1  762   2.611   5.345   3.612  0.4434  0.2564  0.0665
  266TIP3    H2  763   2.689   5.474   3.604 -0.4788  0.7962 -0.3817
  267TIP3   OH2  764   4.597   5.627   3.354 -0.5972 -0.1232 -0.3606
  267TIP3    H1  765   4.602   5.578   3.271 -2.1514  0.5554 -0.8856
  267TIP3    H2  766   4.518   5.679   3.346 -0.0622  0.9559  1.0366
  268TIP3   OH2  767   3.263   3.176   4.434 -0.2644  0.0899 -0.3606
  268TIP3    H1  768   3.246   3.270   4.434 -1.0292 -0.0346  0.0723
  268TIP3    H2  769   3.237   3.147   4.522 -0.5575 -0.6050 -0.6698
  269TIP3   OH2  770   0.004   4.819   0.175  0.6166 -0.2097  0.0537
  269TIP3    H1  771   0.037   4.830   0.086 -1.0327 -0.5635 -0.6524
  269TIP3    H2  772  -0.009   4.908   0.207  2.1785 -0.0673  0.3478
  270TIP3   OH2  773   7.163   0.506   1.962 -0.0981  0.3754  0.2407
  270TIP3    H1  774   7.086   0.456   1.937 -0.2252  0.8069 -0.2653
  270TIP3    H2  775   7.236   0.446   1.947 -0.2584  0.2967 -0.2410
  271TIP3   OH2  776   0.517   5.298   0.313 -0.0091  0.0271  0.3508
  271TIP3    H1  777   0.490   5.231   0.250  2.2238 -0.9076  0.2965
  271TIP3    H2  778   0.531   5.249   0.394 -1.2800  0.9642  1.1739
  272TIP3   OH2  779   0.963   3.854   5.749  0.9907  0.3060 -0.7221
  272TIP3    H1  780   1.002   3.782   5.700 -0.7402 -0.9803 -0.3230
  272TIP3    H2  781   0.991   3.841   5.840 -0.0807 -0.4679 -0.4808
  273TIP3   OH2  782   4.220   0.403   1.933 -0.2727 -0.0782  0.0360
  273TIP3    H1  783   4.311   0.430   1.936 -0.5960  1.1314 -0.5926
  273TIP3    H2  784   4.180   0.459   1.867 -1.7943  0.4223  1.3104
  274TIP3   OH2  785   3.836   4.732   4.440  0.6867  0.0794 -0.6899
  274TIP3    H1  786   3.841   4.695   4.528  1.2742  1.1384 -0.2523
  274TIP3    H2  787   3.763   4.794   4.445  0.1578 -0.4914 -1.2107
  275TIP3   OH2  788   5.562   0.007   2.733 -0.3493  0.3377  0.2261
  275TIP3    H1  789   5.573   0.101   2.749  0.5780  0.1546  0.7561
  275TIP3    H2  790   5.570  -0.033   2.819 -0.2006 -0.2716 -0.0663
  276TIP3   OH2  791   5.009   0.718   4.357 -0.0410  0.2391  0.6401
  276TIP3    H1  792   5.010   0.634   4.403 -0.0028 -2.4324 -3.6747
  276TIP3    H2  793   5.089   0.763   4.386 -0.8723 -0.3468  4.2359
  277TIP3   OH2  794   4.770   0.374   0.414  0.5822 -0.7160 -0.6319
  277TIP3    H1  795   4.795   0.447   0.357 -0.0731  0.9601  1.1128
  277TIP3    H2  796   4.851   0.348   0.457  0.4036  0.8406  0.7321
  278TIP3   OH2  797   0.100   2.298   2.448  0.1539 -0.5282 -0.3852
  278TIP3    H1  798   0.135   2.313   2.360  0.3084  2.7486  0.0904
  278TIP3    H2  799   0.119   2.380   2.495 -4.3405 -0.1108  1.1725
  279TIP3   OH2  800   3.282   0.290   1.244  0.8159 -0.2820  0.0568
  279TIP3    H1  801   3.214   0.332   1.192 -0.4204 -1.2035  0.8858
  279TIP3    H2  802   3.314   0.220   1.188 -0.0151 -0.8268  0.2510
  280TIP3   OH2  803   1.981   1.009   0.941  0.3635 -0.2665  0.0561
  280TIP3    H1  804   1.990   0.952   0.865 -2.4416  0.6952 -1.1190
  280TIP3    H2  805   1.987   1.097   0.906  4.5863  0.4281  1.8288
  281TIP3   OH2  806   4.426   1.663   0.359 -0.3302 -0.1603  0.3044
  281TIP3    H1  807   4.394   1.632   0.274  0.5165  0.1202 -0.1309
  281TIP3    H2  808   4.368   1.736   0.381 -0.3163  0.0139 -0.2233
  282TIP3   OH2  809   2.037   4.914   2.068  0.4296  0.6900 -1.0264
  282TIP3    H1  810   1.943   4.926   2.083 -0.2299 -4.1740  0.6493
  282TIP3    H2  811   2.076   4.924   2.155  0.9646 -0.0881 -1.1656
  283TIP3   OH2  812   4.916   1.566   1.728  0.0857  0.5491  0.0268
  283TIP3    H1  813   4.856   1.495   1.704 -1.6642  1.7194  0.7317
  283TIP3    H2  814   4.985   1.524   1.778 -0.7787 -0.6958  0.2055
  284TIP3   OH2  815   6.239   0.713   4.635  0.3580  0.1715 -0.1184
  284TIP3    H1  816   6.224   0.626   4.671 -0.0069  1.5465  3.5246
  284TIP3    H2  817   6.329   0.734   4.658  1.0667  0.1783 -2.5859
  285TIP3   OH2  818   2.504   0.282   0.199  0.2330 -0.0935 -0.7472
  285TIP3    H1  819   2.493   0.200   0.246 -1.1392 -0.0429 -0.9293
  285TIP3    H2  820   2.529   0.345   0.266  0.6743 -0.5160 -0.5053
  286TIP3   OH2  821   1.777   6.456   2.740 -0.1318  0.4845 -0.6315
  286TIP3    H1  822   1.790   6.363   2.759  0.4074  0.8154  0.7637
  286TIP3    H2  823   1.741   6.457   2.651  0.2200 -1.0266 -0.8313
  287TIP3   OH2  824   2.649   0.499   2.517  0.0891  0.3789  0.0976
  287TIP3    H1  825   2.574   0.541   2.559 -0.9839 -1.6848  0.3618
  287TIP3    H2  826   2.724   0.553   2.544 -0.7890  0.2658  3.1099
  288TIP3   OH2  827   1.720   4.698   2.087 -0.0104 -0.1822  0.2240
  288TIP3    H1  828   1.627   4.712   2.107 -0.2152 -1.1771  0.0159
  288TIP3    H2  829   1.752   4.785   2.061 -1.4866 -0.2594 -2.0917
  289TIP3   OH2  830   3.182   6.056   3.883 -1.0185  0.1401 -0.3791
  289TIP3    H1  831   3.238   6.048   3.805 -1.8985  0.2433 -1.0319
  289TIP3    H2  832   3.219   6.129   3.932 -0.3541 -0.0320 -0.6128
  290TIP3   OH2  833   0.499   5.119   1.316 -0.1658 -0.4210 -0.4578
  290TIP3    H1  834   0.560   5.062   1.363  1.7233  0.5849 -1.5566
  290TIP3    H2  835   0.508   5.094   1.224 -0.5128  0.5515 -0.7731
  291TIP3   OH2  836   0.559   0.089   0.977  0.1329 -0.1523  0.0213
  291TIP3    H1  837   0.595   0.062   0.892 -0.5096 -0.8510 -0.0383
  291TIP3    H2  838   0.633   0.129   1.022  0.0718  1.9357 -1.5653
  292TIP3   OH2  839   5.685   1.608   5.771  0.0971 -0.2563  0.3770
  292TIP3    H1  840   5.730   1.525   5.754  0.7470  0.4492 -1.5236
  292TIP3    H2  841   5.686   1.616   5.867 -0.0453 -2.4501  0.6085
  293TIP3   OH2  842   6.923   0.656   0.161  0.0864  0.1072  0.6795
  293TIP3    H1  843   6.983   0.666   0.236  2.9711 -1.5390 -1.2344
  293TIP3    H2  844   6.892   0.566   0.166 -0.2182  0.1842  0.2385
  294TIP3   OH2  845   2.888   2.167   1.017  0.1410  0.1375 -0.0475
  294TIP3    H1  846   2.797   2.182   1.044  0.1794  0.6593 -0.1877
  294TIP3    H2  847   2.928   2.254   1.020 -0.0510  0.4009 -2.5399
  295TIP3   OH2  848   1.793   2.406   5.772 -0.4394 -0.6175 -0.2067
  295TIP3    H1  849   1.841   2.478   5.732  0.1502 -0.5236  0.6257
  295TIP3    H2  850   1.748   2.445   5.847  0.8533 -1.3045  0.9746
  296TIP3   OH2  851   5.351   4.531   0.595 -0.4374 -0.4133 -0.0337
  296TIP3    H1  852   5.329   4.566   0.509  1.2546 -1.1492 -0.8041
  296TIP3    H2  853   5.383   4.442   0.578  3.0732  0.5207  0.8883
  297TIP3   OH2  854   3.477   1.670   4.299  0.3296  0.5883  0.0319
  297TIP3    H1  855   3.553   1.727   4.289  0.6785  0.2459  0.6356
  297TIP3    H2  856   3.407   1.714   4.251  0.7877  1.1381 -0.1455
  298TIP3   OH2  857   2.881   1.125   0.818  0.0860  0.4385 -0.3187
  298TIP3    H1  858   2.808   1.100   0.875  0.2302  0.6845 -0.0232
  298TIP3    H2  859   2.935   1.183   0.872  1.4414 -1.1139  0.0730
  299TIP3   OH2  860   5.198   2.119   2.631  1.0033 -0.4396 -0.3504
  299TIP3    H1  861   5.248   2.201   2.624  0.7761 -0.3653 -1.3520
  299TIP3    H2  862   5.129   2.129   2.565 -0.2613 -0.5932  0.9137
  300TIP3   OH2  863   4.941   4.066   4.447  0.2398 -0.4624 -0.2998
  300TIP3    H1  864   4.980   4.139   4.495 -0.1172  0.5138 -1.4769
  300TIP3    H2  865   4.962   3.989   4.501  3.5809 -0.0004 -0.7002
  301TIP3   OH2  866   5.125   2.678   5.368 -0.2071  0.1869  0.2206
  301TIP3    H1  867   5.158   2.711   5.284 -0.1790  0.4674  0.3412
  301TIP3    H2  868   5.105   2.586   5.351  2.8332 -0.7045  0.7088
  302TIP3   OH2  869   0.516   6.199   1.321  0.0489  0.0468 -0.0298
  302TIP3    H1  870   0.581   6.168   1.258 -0.4864 -1.1575 -0.0190
  302TIP3    H2  871   0.447   6.133   1.319 -1.9146  1.9942 -1.0853
  303TIP3   OH2  872   1.782   0.312   1.692 -0.6042  0.1969 -0.9000
  303TIP3    H1  873   1.770   0.407   1.695  0.0457  0.2546  0.2938
  303TIP3    H2  874   1.751   0.281   1.777  1.8120 -0.3064 -0.1158
  304TIP3   OH2  875   1.395   1.428   3.634 -0.7692  0.0530 -0.0651
  304TIP3    H1  876   1.459   1.457   3.698 -0.3547  0.1235 -0.5070
  304TIP3    H2  877   1.398   1.494   3.565 -2.9639  1.3243  0.9622
  305TIP3   OH2  878   0.832   2.686   4.808  0.0303 -0.1021 -0.0118
  305TIP3    H1  879   0.883   2.625   4.755  0.1065 -0.8115  0.8598
  305TIP3    H2  880   0.787   2.741   4.744  0.0043 -1.0330 -0.8246
  306TIP3   OH2  881   1.163   0.846   0.702 -0.4541  0.8820 -0.0322
  306TIP3    H1  882   1.111   0.796   0.766 -0.4597 -0.4836 -1.0504
  306TIP3    H2  883   1.208   0.912   0.754 -0.4090 -0.2239  1.3999
  307TIP3   OH2  884   5.845   4.216   1.210 -0.3583  0.3983  0.3004
  307TIP3    H1  885   5.870   4.308   1.213  0.1887  0.2477  0.5059
  307TIP3    H2  886   5.787   4.204   1.284 -0.4246  0.5785  0.2778
  308TIP3   OH2  887   0.770   3.930   0.534 -0.5139  0.3227  0.1196
  308TIP3    H1  888   0.831   3.922   0.608 -1.1345  0.7100  0.6788
  308TIP3    H2  889   0.808   3.875   0.466 -0.4549 -0.8514  1.0741
  309TIP3   OH2  890   6.981   6.199   0.908 -0.3552  0.0280 -0.7874
  309TIP3    H1  891   6.927   6.271   0.942 -2.0104 -1.0716 -0.9904
  309TIP3    H2  892   6.936   6.120   0.937  1.3108 -0.9531 -0.7585
  310TIP3   OH2  893   4.451   6.627   4.797 -0.1578 -0.6129 -0.3571
  310TIP3    H1  894   4.405   6.655   4.876  2.1228  0.3995  0.7217
  310TIP3    H2  895   4.477   6.537   4.814 -0.0581 -0.5437 -0.1464
  311TIP3   OH2  896   6.920   2.482   3.169  0.4615 -0.4062  0.3496
  311TIP3    H1  897   6.969   2.515   3.093 -0.1402 -1.1603 -0.3932
  311TIP3    H2  898   6.969   2.513   3.245  0.5167  1.2521 -0.3102
  312TIP3   OH2  899   4.878   5.970   4.861  0.1260  0.4628  0.1389
  312TIP3    H1  900   4.861   5.879   4.884 -0.3392  0.5466  0.1393
  312TIP3    H2  901   4.809   5.992   4.798  0.7679  0.5493 -0.5463
  313TIP3   OH2  902   2.785   6.648   1.890 -0.0564 -0.0841 -0.0769
  313TIP3    H1  903   2.853   6.583   1.906 -1.0225 -0.6846  1.8574
  313TIP3    H2  904   2.713   6.599   1.849  0.3180  0.3868 -1.3522
  314TIP3   OH2  905   1.444   2.966   2.820 -0.6804  0.0157 -0.6873
  314TIP3    H1  906   1.489   2.989   2.739 -0.3703 -0.6494 -0.7146
  314TIP3    H2  907   1.506   2.991   2.889 -0.5709 -0.2343 -0.6944
  315TIP3   OH2  908   5.074   1.692   0.341  0.1559 -0.8282 -0.1802
  315TIP3    H1  909   5.035   1.640   0.271 -0.8131 -1.1565  0.5786
  315TIP3    H2  910   5.003   1.707   0.403  0.5985  0.7580  0.0059
  316TIP3   OH2  911   4.200   6.021   1.786 -0.6896 -0.2646  0.2311
  316TIP3    H1  912   4.290   5.991   1.797 -0.6489 -0.8276 -1.3931
  316TIP3    H2  913   4.194   6.099   1.843  0.7776 -0.2707  0.4426
  317TIP3   OH2  914   3.725   5.621   1.140  0.1457  0.2670  0.3268
  317TIP3    H1  915   3.767   5.580   1.215 -0.6615  1.5518  1.5140
  317TIP3    H2  916   3.651   5.669   1.176  0.3631  1.8157 -1.1357
  318TIP3   OH2  917   2.597   0.711   5.259 -0.3359 -0.0503  0.0070
  318TIP3    H1  918   2.643   0.643   5.210  1.4691  0.5148  0.8355
  318TIP3    H2  919   2.666   0.770   5.289 -1.5023  0.3761  2.0458
  319TIP3   OH2  920   6.869   0.974   4.110 -0.2303 -0.6506  0.6318
  319TIP3    H1  921   6.964   0.989   4.106 -0.4349  1.3627  1.6821
  319TIP3    H2  922   6.851   0.961   4.203 -0.7897 -2.8953  0.2484
  320TIP3   OH2  923   6.785   4.496   3.602  0.2536  0.1068  0.4451
  320TIP3    H1  924   6.820   4.408   3.617  0.9498  0.6464  2.2043
  320TIP3    H2  925   6.692   4.489   3.625  0.1891 -0.2822  0.0755
  321TIP3   OH2  926   6.069   6.349   4.201 -0.5787 -0.0111  0.1695
  321TIP3    H1  927   6.142   6.294   4.171 -2.1563 -1.1955 -1.6889
  321TIP3    H2  928   6.007   6.287   4.240 -0.8139  0.9353  1.3746
  322TIP3   OH2  929   1.542   4.737   2.678 -0.6786  0.5016  0.0145
  322TIP3    H1  930   1.590   4.724   2.596 -0.7329 -0.7211  0.1577
  322TIP3    H2  931   1.523   4.831   2.680 -0.7124  0.5462 -1.3950
  323TIP3   OH2  932   2.759   6.382   2.363 -0.3431  0.6848  0.3329
  323TIP3    H1  933   2.815   6.455   2.340 -0.0485  0.4199  0.1988
  323TIP3    H2  934   2.723   6.405   2.449  0.8481  0.3611  0.9302
  324TIP3   OH2  935   3.651   3.244   3.520 -0.0400  0.0355  0.2624
  324TIP3    H1  936   3.575   3.257   3.463 -1.0081  0.3286  1.5686
  324TIP3    H2  937   3.709   3.187   3.470 -1.9790 -1.8212 -0.0126
  325TIP3   OH2  938   6.341   1.613   1.196 -0.1271  0.2037 -0.1160
  325TIP3    H1  939   6.396   1.658   1.261  0.5830  0.5780 -0.9582
  325TIP3    H2  940   6.389   1.533   1.175 -0.1096  0.3208 -0.5330
  326TIP3   OH2  941   6.910   1.429   5.819  0.3419  0.6655  0.5083
  326TIP3    H1  942   6.979   1.404   5.758 -0.9436 -0.6036 -0.4989
  326TIP3    H2  943   6.828   1.416   5.770 -0.8023 -1.2654  2.7094
  327TIP3   OH2  944   3.413   0.868   2.558  0.0553 -0.4251  0.0949
  327TIP3    H1  945   3.350   0.905   2.620 -0.6609 -0.7906 -0.4024
  327TIP3    H2  946   3.476   0.938   2.543 -1.0257  0.4444 -0.4883
  328TIP3   OH2  947   4.105   0.767   4.074  0.6068 -0.1485 -0.0309
  328TIP3    H1  948   4.087   0.681   4.111 -2.5333 -0.5394 -2.0964
  328TIP3    H2  949   4.018   0.806   4.061  1.8737  3.6153  1.3028
  329TIP3   OH2  950   5.674   4.464   5.013  0.2827 -0.5311  0.0789
  329TIP3    H1  951   5.607   4.430   5.074 -0.7790  0.8703 -0.2686
  329TIP3    H2  952   5.744   4.494   5.070  0.2902 -1.2834  0.4896
  330TIP3   OH2  953   4.591   0.882   3.549  0.0234 -0.3720 -0.9026
  330TIP3    H1  954   4.651   0.941   3.502  0.3748 -1.9920 -2.6336
  330TIP3    H2  955   4.517   0.937   3.573  0.6620  0.9357 -1.7981
  331TIP3   OH2  956   1.973   0.157   4.993  0.0546  0.3632  0.0545
  331TIP3    H1  957   1.881   0.143   4.973  0.1417 -0.3029  0.0899
  331TIP3    H2  958   1.974   0.235   5.049 -0.5226  0.1508  0.3692
  332TIP3   OH2  959   5.295   2.696   2.701  0.0010 -0.1162 -0.6401
  332TIP3    H1  960   5.286   2.742   2.618  0.8667 -0.2914 -0.8440
  332TIP3    H2  961   5.273   2.605   2.680  0.6828 -0.2517 -0.7939
  333TIP3   OH2  962   2.601   0.670   1.673 -0.2261 -0.1750  0.0026
  333TIP3    H1  963   2.592   0.759   1.708 -1.3818  0.6524 -2.2070
  333TIP3    H2  964   2.557   0.673   1.588  0.1979 -2.7347 -0.3853
  334TIP3   OH2  965   3.779   0.788   1.530  0.1703 -0.3444 -0.3901
  334TIP3    H1  966   3.708   0.733   1.499 -0.3299 -0.9877  1.7521
  334TIP3    H2  967   3.854   0.729   1.537  0.5547  0.0211 -1.3035
  335TIP3   OH2  968   4.128   3.991   3.529 -0.1663  0.2610 -0.5379
  335TIP3    H1  969   4.161   3.901   3.534 -0.0924  0.2916 -0.4712
  335TIP3    H2  970   4.205   4.046   3.542 -0.4645  0.3345  1.2107
  336TIP3   OH2  971   5.960   3.934   4.188  0.1711  0.1642  0.3048
  336TIP3    H1  972   5.918   3.934   4.274 -0.9380 -0.7995 -0.2066
  336TIP3    H2  973   6.053   3.925   4.207 -0.1390 -1.0187  1.4038
  337TIP3   OH2  974   4.458   2.611   2.257  0.3790  0.0754  0.3650
  337TIP3    H1  975   4.541   2.643   2.292  0.7341 -0.5479  0.1082
  337TIP3    H2  976   4.401   2.604   2.333  0.9491 -0.6611  0.7391
  338TIP3   OH2  977   0.118   0.572   2.427  0.7265  0.2152  0.4559
  338TIP3    H1  978   0.116   0.484   2.464 -1.4086 -0.0009 -0.0679
  338TIP3    H2  979   0.141   0.560   2.335 -1.2108  0.0009 -0.0291
  339TIP3   OH2  980   6.643   0.102   1.367  0.1032 -0.3855 -0.4083
  339TIP3    H1  981   6.661   0.013   1.399 -0.1793 -0.0520  0.7415
  339TIP3    H2  982   6.637   0.155   1.447  0.4276  0.7006 -1.0864
  340TIP3   OH2  983   6.792   5.687   3.937 -0.6198  0.4994  0.0487
  340TIP3    H1  984   6.762   5.639   3.860  0.1395  2.0231 -1.2693
  340TIP3    H2  985   6.862   5.633   3.973  1.1082  1.1265 -2.1592
  341TIP3   OH2  986   2.238   0.292   5.172 -0.6552 -0.6694 -0.0280
  341TIP3    H1  987   2.265   0.349   5.100  0.9755 -1.0907  0.2011
  341TIP3    H2  988   2.173   0.343   5.220 -0.6814  0.2058 -0.9498
  342TIP3   OH2  989   0.430   5.817   0.832  0.0616  0.0002  0.0449
  342TIP3    H1  990   0.371   5.749   0.799  0.1367 -1.2840  2.3935
  342TIP3    H2  991   0.382   5.899   0.817 -1.3665 -0.8208 -0.1101
  343TIP3   OH2  992   5.056   6.620   0.753  0.3030  0.5495 -0.0537
  343TIP3    H1  993   5.017   6.674   0.685 -1.2486 -0.3754  0.0714
  343TIP3    H2  994   5.096   6.683   0.813  0.1195  1.4605 -0.8550
  344TIP3   OH2  995   0.456   6.744   4.898 -0.7330  0.2194  0.2929
  344TIP3    H1  996   0.406   6.701   4.967  0.4529 -0.1516  0.9538
  344TIP3    H2  997   0.536   6.692   4.891  0.0303  1.3890 -0.0114
  345TIP3   OH2  998   4.529   6.483   1.575  0.5069  0.0029 -0.0141
  345TIP3    H1  999   4.572   6.464   1.658  0.1581  0.8393  0.3722
  345TIP3    H2 1000   4.600   6.508   1.515  0.6550  0.4706  0.3515
  346TIP3   OH2 1001   6.643   2.168   4.734 -0.1736 -0.0363  0.6242
  346TIP3    H1 1002   6.714   2.147   4.673  1.8003  3.3427  1.4373
  346TIP3    H2 1003   6.659   2.113   4.810  0.2295 -0.8693 -0.0463
  347TIP3   OH2 1004   1.334   4.966   4.571 -0.2950 -0.4538 -0.7699
  347TIP3    H1 1005   1.311   4.988   4.481 -0.3277 -1.1409 -0.9380
  347TIP3    H2 1006   1.422   4.928   4.565 -0.6352 -1.2881 -0.6370
  348TIP3   OH2 1007   3.503   3.371   5.577 -0.1412 -0.6675 -0.0004
  348TIP3    H1 1008   3.554   3.441   5.535 -0.3852  0.3622  1.3440
  348TIP3    H2 1009   3.443   3.418   5.635 -2.8861 -1.7788 -1.7460
  349TIP3   OH2 1010   0.860   2.674   0.207  0.1053  0.0063  0.0039
  349TIP3    H1 1011   0.818   2.758   0.223 -0.2149 -0.3528  1.1637
  349TIP3    H2 1012   0.790   2.617   0.177  0.3569  0.1836 -0.9628
  350TIP3   OH2 1013   7.014   6.761   0.238 -0.7958  0.6672  0.1639
  350TIP3    H1 1014   6.968   6.689   0.195 -0.0942  0.2634  0.0744
  350TIP3    H2 1015   7.028   6.731   0.328  1.3514 -0.2341 -0.4017
  351TIP3   OH2 1016   2.358   1.712   4.417  0.2819 -0.2773  0.4123
  351TIP3    H1 1017   2.291   1.778   4.399 -0.8610 -0.9239  2.0192
  351TIP3    H2 1018   2.441   1.756   4.397 -0.5271  1.0980 -0.0699
  352TIP3   OH2 1019   3.374   2.639   3.855 -1.0555  0.0233  0.2452
  352TIP3    H1 1020   3.393   2.564   3.911  0.2386 -1.0875 -1.5922
  352TIP3    H2 1021   3.430   2.709   3.890  0.2297 -0.8415 -0.0500
  353TIP3   OH2 1022   5.249   0.169   0.674 -0.1651  0.0705  0.5336
  353TIP3    H1 1023   5.297   0.103   0.624  0.8488  0.8864  0.4166
  353TIP3    H2 1024   5.296   0.176   0.757 -0.1655  0.7705  0.4777
  354TIP3   OH2 1025   3.374   6.040   1.799  0.0390 -0.1103  0.0512
  354TIP3    H1 1026   3.421   6.115   1.762 -0.1074  0.2318  0.5546
  354TIP3    H2 1027   3.283   6.055   1.775  0.0865 -0.4371 -0.3556
  355TIP3   OH2 1028   4.983   1.517   2.609  0.5250 -0.3530 -0.0280
  355TIP3    H1 1029   5.056   1.462   2.638 -0.1056 -1.1011  0.1710
  355TIP3    H2 1030   4.978   1.502   2.515  2.0041  1.3906 -0.4330
  356TIP3   OH2 1031   4.943   2.086   4.892  0.5615  0.2304 -0.6143
  356TIP3    H1 1032   4.988   2.067   4.974  0.7565 -0.6949 -0.9136
  356TIP3    H2 1033   5.013   2.103   4.830  0.4153  0.9116 -0.5923
  357TIP3   OH2 1034   5.267   4.931   4.490 -0.7431 -0.4811 -0.3980
  357TIP3    H1 1035   5.272   4.836   4.493 -0.1623 -0.5800 -2.7246
  357TIP3    H2 1036   5.174   4.951   4.502 -1.1391 -1.4758 -1.6015
  358TIP3   OH2 1037   0.151   0.062   2.548  0.0932  0.3146  0.5949
  358TIP3    H1 1038   0.082  -0.003   2.560  0.0989  0.0978 -0.4357
  358TIP3    H2 1039   0.229   0.023   2.588  0.1898 -0.4986 -0.3534
  359TIP3   OH2 1040   5.086   1.796   1.967 -0.4673 -0.1033 -0.6630
  359TIP3    H1 1041   5.094   1.849   1.887 -1.5384  0.0926 -0.6514
  359TIP3    H2 1042   5.077   1.706   1.935 -0.8555 -0.0296 -0.7651
  360TIP3   OH2 1043   1.709   1.767   4.869 -0.6561 -0.8920 -0.1193
  360TIP3    H1 1044   1.774   1.809   4.926 -0.6089  1.0104 -1.4797
  360TIP3    H2 1045   1.637   1.829   4.865 -1.3876 -1.7644 -0.7838
  361TIP3   OH2 1046   4.299   4.294   2.542  0.0817 -0.1305 -0.1377
  361TIP3    H1 1047   4.231   4.315   2.478 -0.0013 -0.2236 -0.0813
  361TIP3    H2 1048   4.355   4.372   2.544  1.5411 -1.0343 -2.1649
  362TIP3   OH2 1049   0.076   1.531   5.038 -1.0357  0.3791  0.0223
  362TIP3    H1 1050   0.038   1.560   4.955 -1.4499  0.3808  0.2101
  362TIP3    H2 1051   0.001   1.516   5.095 -0.7620  0.2013  0.3412
  363TIP3   OH2 1052   2.708   1.228   1.237  0.6365 -0.1079 -0.0918
  363TIP3    H1 1053   2.665   1.227   1.151 -0.1784  1.2170  0.2786
  363TIP3    H2 1054   2.644   1.188   1.296  0.6557  0.1940  0.1339
  364TIP3   OH2 1055   2.631   5.999   4.328  0.0143  0.0917 -0.4783
  364TIP3    H1 1056   2.674   6.063   4.384 -0.7161  0.7777 -0.6783
  364TIP3    H2 1057   2.642   5.915   4.373 -0.8019  0.6710  0.8313
  365TIP3   OH2 1058   3.463   1.228   3.500  0.2392  0.3889  0.1496
  365TIP3    H1 1059   3.428   1.161   3.559  0.0886  0.3510  0.0204
  365TIP3    H2 1060   3.387   1.282   3.478  0.3227  0.4869  0.1027
  366TIP3   OH2 1061   4.506   0.387   0.202 -0.1437 -0.3148 -0.0084
  366TIP3    H1 1062   4.550   0.308   0.232 -1.7096 -1.3664 -0.3709
  366TIP3    H2 1063   4.451   0.414   0.276  0.8898  0.8446  0.3600
  367TIP3   OH2 1064   3.793   4.125   0.189  0.0939 -0.1473 -0.1517
  367TIP3    H1 1065   3.794   4.218   0.165 -0.5754  0.7016  2.6756
  367TIP3    H2 1066   3.703   4.097   0.172 -0.0190  0.0613  0.0980
  368TIP3   OH2 1067   3.354   1.775   0.800 -0.4157 -0.0117  0.0402
  368TIP3    H1 1068   3.437   1.814   0.827  0.3900 -1.3794 -0.3387
  368TIP3    H2 1069   3.366   1.681   0.816 -2.1281 -0.1776  0.5544
  369TIP3   OH2 1070   0.352   4.348   1.379 -0.3783  0.7272  0.1084
  369TIP3    H1 1071   0.413   4.419   1.360  0.4461  0.4351  1.4957
  369TIP3    H2 1072   0.265   4.384   1.360  0.1985  0.9698 -2.4448
  370TIP3   OH2 1073   6.024   4.865   2.347  0.4522  0.7668 -0.0830
  370TIP3    H1 1074   6.098   4.875   2.406  0.0991  2.6884  0.0949
  370TIP3    H2 1075   5.954   4.830   2.402  0.9150 -0.0819 -0.0196
  371TIP3   OH2 1076   5.381   1.699   4.974 -0.4954  0.4938  0.2385
  371TIP3    H1 1077   5.355   1.611   4.999 -1.8900  0.3859 -1.4100
  371TIP3    H2 1078   5.462   1.688   4.923 -0.8941  0.1073 -0.3177
  372TIP3   OH2 1079   6.666   3.473   0.252  0.1175 -0.7210  0.5501
  372TIP3    H1 1080   6.645   3.554   0.298 -0.5934 -0.8465  0.4565
  372TIP3    H2 1081   6.604   3.409   0.286  1.1042 -1.4087  1.1106
  373TIP3   OH2 1082   6.822   6.012   1.147  0.6857 -0.5734 -0.2174
  373TIP3    H1 1083   6.916   6.015   1.163  0.8826  1.6886 -1.3579
  373TIP3    H2 1084   6.785   6.075   1.208  0.0500 -0.6502 -0.5135
  374TIP3   OH2 1085   5.230   1.566   3.760  0.2667 -0.0523  0.3863
  374TIP3    H1 1086   5.171   1.587   3.687 -0.4775  0.8518  1.2250
  374TIP3    H2 1087   5.316   1.559   3.719  0.0485  1.5210 -0.4289
  375TIP3   OH2 1088   2.220   3.428   0.951 -0.1080 -0.1604 -0.2011
  375TIP3    H1 1089   2.266   3.347   0.930 -1.2290 -0.5930 -1.0945
  375TIP3    H2 1090   2.250   3.491   0.886  0.2827 -0.0274  0.1017
  376TIP3   OH2 1091   1.541   2.310   5.370 -0.2744  0.4889  0.1248
  376TIP3    H1 1092   1.539   2.398   5.407  1.5871  0.4665  0.4046
  376TIP3    H2 1093   1.512   2.254   5.442  0.3869  0.7184  0.5824
  377TIP3   OH2 1094   5.189   5.272   5.760 -0.1899 -0.7983  0.2788
  377TIP3    H1 1095   5.178   5.309   5.848 -0.3896 -0.2467  0.0265
  377TIP3    H2 1096   5.272   5.223   5.765  0.5465  0.4227  0.3800
  378TIP3   OH2 1097   1.194   4.517   4.733 -0.2841  0.3801  0.3130
  378TIP3    H1 1098   1.218   4.430   4.763  2.7828  0.4053 -1.6092
  378TIP3    H2 1099   1.104   4.507   4.701 -0.6184 -1.6098  1.7014
  379TIP3   OH2 1100   6.291   0.198   5.528  0.3927 -0.4350 -0.4822
  379TIP3    H1 1101   6.294   0.285   5.487 -2.8698  0.9777  1.8375
  379TIP3    H2 1102   6.277   0.137   5.456 -2.7003  1.6183 -1.8045
  380TIP3   OH2 1103   1.351   6.155   2.803  0.2852  0.1499 -0.2295
  380TIP3    H1 1104   1.334   6.075   2.754  0.3111  0.3349 -0.5460
  380TIP3    H2 1105   1.444   6.152   2.825 -0.0437 -0.6878  1.1864
  381TIP3   OH2 1106   6.674   5.251   1.976  0.0176 -0.1433  0.1889
  381TIP3    H1 1107   6.584   5.259   1.944 -0.8368 -0.1169  2.4395
  381TIP3    H2 1108   6.720   5.325   1.936 -1.1989  0.4105 -0.2378
  382TIP3   OH2 1109   2.967   5.773   1.022  0.5077 -0.2100 -0.1422
  382TIP3    H1 1110   2.942   5.702   0.962 -0.9281  1.3246 -1.4658
  382TIP3    H2 1111   2.910   5.761   1.098 -0.6657  0.2333 -0.9165
  383TIP3   OH2 1112   0.413   1.251   2.502  0.0811  0.6744  0.2133
  383TIP3    H1 1113   0.480   1.275   2.565 -0.8212 -0.0789  1.5284
  383TIP3    H2 1114   0.357   1.328   2.496  1.1142  1.3567 -1.0016
  384TIP3   OH2 1115   2.517   4.715   5.785 -0.5081  0.3580 -0.0965
  384TIP3    H1 1116   2.485   4.668   5.708  0.8490 -0.9595  0.1013
  384TIP3    H2 1117   2.598   4.757   5.755 -0.6332  0.8695  0.2794
  385TIP3   OH2 1118   2.825   6.339   0.592  0.1174  0.3280  0.2351
  385TIP3    H1 1119   2.858   6.269   0.536  3.0531  2.6298 -1.2272
  385TIP3    H2 1120   2.778   6.293   0.662  3.1861 -3.2465  0.2968
  386TIP3   OH2 1121   3.545   1.451   0.441 -0.6919  0.0811  0.1539
  386TIP3    H1 1122   3.628   1.498   0.443 -0.5202 -0.1898 -0.3460
  386TIP3    H2 1123   3.556   1.385   0.372 -0.5707 -1.3211  1.4400
  387TIP3   OH2 1124   6.514   4.620   4.739 -0.6217  0.3763 -0.3011
  387TIP3    H1 1125   6.591   4.677   4.749 -0.1658 -0.2562 -0.1164
  387TIP3    H2 1126   6.441   4.674   4.768  0.0096  0.3321  1.4999
  388TIP3   OH2 1127   3.191   3.117   4.691  0.1112 -0.6034  0.1044
  388TIP3    H1 1128   3.108   3.090   4.731 -0.5386  1.3152  0.1458
  388TIP3    H2 1129   3.255   3.104   4.761 -0.4637 -0.4541  0.6796
  389TIP3   OH2 1130   3.626   2.291   2.967  0.8994  0.1029  0.6490
  389TIP3    H1 1131   3.625   2.298   2.872  2.0435  2.7743  0.7497
  389TIP3    H2 1132   3.606   2.199   2.985 -1.7176  0.0176 -2.0437
  390TIP3   OH2 1133   4.906   5.528   1.897  0.2562  0.5884 -0.0293
  390TIP3    H1 1134   4.914   5.432   1.899  2.8463  0.7279 -0.3553
  390TIP3    H2 1135   4.905   5.554   1.989  3.1285  0.3837  0.1405
  391TIP3   OH2 1136   1.735   1.511   4.027 -0.2710 -0.6816  0.3158
  391TIP3    H1 1137   1.779   1.528   4.111 -2.9679  0.9741  1.5329
  391TIP3    H2 1138   1.748   1.418   4.012  1.5449 -0.7302  1.8100
  392TIP3   OH2 1139   0.164   0.685   1.599  0.1740  0.0885 -0.1453
  392TIP3    H1 1140   0.150   0.599   1.640 -1.1239  0.4913  0.3114
  392TIP3    H2 1141   0.148   0.671   1.506 -1.4533  0.1032  0.1062
  393TIP3   OH2 1142   0.536   3.943   1.935 -0.2891 -0.0586 -0.0644
  393TIP3    H1 1143   0.617   3.936   1.886 -0.2658 -0.6229  0.0572
  393TIP3    H2 1144   0.560   3.925   2.025 -0.7557 -1.4311 -0.2006
  394TIP3   OH2 1145   2.312   2.456   0.764  0.0921  0.5128 -0.2962
  394TIP3    H1 1146   2.222   2.458   0.733  0.2344  0.7877 -0.6985
  394TIP3    H2 1147   2.354   2.530   0.721  0.0725  1.4760  1.2584
  395TIP3   OH2 1148   6.854   1.649   4.775 -0.2597  0.2896 -0.0801
  395TIP3    H1 1149   6.893   1.716   4.831  0.4464 -0.6329  0.5602
  395TIP3    H2 1150   6.796   1.698   4.716  1.3436  1.6430 -0.6223
  396TIP3   OH2 1151   5.187   4.460   1.543  0.1926 -0.3032 -0.0300
  396TIP3    H1 1152   5.125   4.400   1.502 -0.0609  0.6026 -1.0231
  396TIP3    H2 1153   5.201   4.424   1.631  0.0052 -1.7563 -0.5717
  397TIP3   OH2 1154   3.689   6.113   2.709  0.6697 -0.1185 -0.0756
  397TIP3    H1 1155   3.758   6.177   2.726  1.6439 -0.8034 -1.2829
  397TIP3    H2 1156   3.717   6.034   2.755 -0.2230  0.1087  0.9019
  398TIP3   OH2 1157   2.971   1.246   2.130 -0.1643 -0.1035  0.0551
  398TIP3    H1 1158   2.892   1.221   2.082 -0.6897  1.0788  0.2724
  398TIP3    H2 1159   3.039   1.250   2.063 -0.0322 -2.0816  0.0103
  399TIP3   OH2 1160   1.088   1.989   5.525 -0.0266  0.1390 -0.0632
  399TIP3    H1 1161   1.111   1.980   5.433 -0.2304  0.5685 -0.1567
  399TIP3    H2 1162   1.095   2.083   5.543  1.3229 -0.0815  0.7081
  400TIP3   OH2 1163   3.134   6.753   3.937  0.6216 -0.0139  0.2501
  400TIP3    H1 1164   3.121   6.788   3.849 -0.0348 -1.0154 -0.0656
  400TIP3    H2 1165   3.047   6.758   3.977  0.4953 -1.3001  0.1765
  401TIP3   OH2 1166   4.703   6.208   1.661 -0.1280 -0.4334  0.1740
  401TIP3    H1 1167   4.706   6.245   1.573  0.2968 -0.7196  0.0651
  401TIP3    H2 1168   4.745   6.274   1.716  0.0060 -0.4492  0.0916
  402TIP3   OH2 1169   3.340   3.760   5.376  0.2305  0.8198  0.5426
  402TIP3    H1 1170   3.424   3.738   5.416 -0.0969 -0.2409  0.6923
  402TIP3    H2 1171   3.353   3.745   5.282  0.2444  0.7803  0.5511
  403TIP3   OH2 1172   4.364   4.758   4.582 -0.5166 -0.3412  0.2525
  403TIP3    H1 1173   4.430   4.827   4.578 -1.0513  0.1223 -1.6726
  403TIP3    H2 1174   4.282   4.803   4.600 -0.9745 -0.3355 -1.6414
  404TIP3   OH2 1175   3.163   5.576   2.671 -0.6578  0.2841 -0.6858
  404TIP3    H1 1176   3.141   5.496   2.718 -1.1665  0.1439 -1.1606
  404TIP3    H2 1177   3.200   5.633   2.738 -0.5659 -0.2361 -0.2861
  405TIP3   OH2 1178   6.096   1.485   2.382 -0.9550 -0.1973 -0.0811
  405TIP3    H1 1179   6.102   1.390   2.380  0.3182 -0.2154  1.6621
  405TIP3    H2 1180   6.131   1.514   2.298  0.4477 -1.2473  0.1083
  406TIP3   OH2 1181   5.103   2.864   5.873  0.2667  0.3557 -0.6110
  406TIP3    H1 1182   5.040   2.795   5.892  0.9208  0.2984  1.6598
  406TIP3    H2 1183   5.081   2.893   5.785 -2.5565 -0.0488 -0.1399
  407TIP3   OH2 1184   5.258   6.761   5.293 -0.4472  0.0294 -0.0989
  407TIP3    H1 1185   5.284   6.801   5.210 -0.0672  0.6450  0.3113
  407TIP3    H2 1186   5.199   6.826   5.333  2.0407  1.3741  1.6921
  408TIP3   OH2 1187   1.202   4.179   3.838  1.0905 -0.3603 -0.1161
  408TIP3    H1 1188   1.108   4.169   3.847  1.1397 -2.1958 -1.1362
  408TIP3    H2 1189   1.216   4.200   3.746  1.7063 -0.6394 -0.0934
  409TIP3   OH2 1190   4.086   3.869   4.630  0.2234  0.0073 -0.1846
  409TIP3    H1 1191   4.173   3.895   4.600  0.1595 -0.8878 -1.2217
  409TIP3    H2 1192   4.028   3.896   4.559 -0.2086 -0.3485  0.0290
  410TIP3   OH2 1193   3.285   0.215   5.440  0.1377 -0.2887 -0.3356
  410TIP3    H1 1194   3.338   0.272   5.496  0.0932 -0.6850  0.1152
  410TIP3    H2 1195   3.206   0.265   5.422  0.4647  0.1284 -0.6445
  411TIP3   OH2 1196   4.342   0.431   0.408 -0.0296  0.1917 -0.1094
  411TIP3    H1 1197   4.359   0.525   0.420 -0.4945  0.0852  1.6524
  411TIP3    H2 1198   4.310   0.402   0.493  1.8887 -1.9703 -0.0347
  412TIP3   OH2 1199   6.428   1.979   1.819  0.4680  0.3574 -0.1151
  412TIP3    H1 1200   6.508   2.033   1.817  0.4768  0.3295 -1.7339
  412TIP3    H2 1201   6.372   2.022   1.883  0.9994  1.5522 -0.4229
  413TIP3   OH2 1202   2.791   5.797   2.635 -0.5268  0.0074 -0.2909
  413TIP3    H1 1203   2.712   5.764   2.592 -0.6575  1.4828 -1.2485
  413TIP3    H2 1204   2.860   5.784   2.571 -0.4995  1.1586 -0.5009
  414TIP3   OH2 1205   3.415   2.211   5.297  0.2049  0.3143 -0.2813
  414TIP3    H1 1206   3.432   2.118   5.312  0.3630  0.3228 -0.4019
  414TIP3    H2 1207   3.480   2.256   5.352 -0.5544  0.3666  0.5957
  415TIP3   OH2 1208   4.273   5.337   3.983  0.1680 -0.4219  0.0056
  415TIP3    H1 1209   4.300   5.371   4.069  0.4177  1.0731 -0.6353
  415TIP3    H2 1210   4.333   5.379   3.921 -0.6305 -0.7411 -1.0025
  416TIP3   OH2 1211   4.782   1.228   4.879  0.3563 -0.9054 -0.9309
  416TIP3    H1 1212   4.818   1.149   4.919  0.1616 -0.6426 -0.2129
  416TIP3    H2 1213   4.858   1.271   4.840  0.6746 -0.8275 -0.2459
  417TIP3   OH2 1214   3.422   2.738   3.204  0.2483  0.5832  0.3696
  417TIP3    H1 1215   3.328   2.727   3.213 -0.2870  3.2774 -0.8039
  417TIP3    H2 1216   3.443   2.707   3.116  0.2837  0.7485  0.3177
  418TIP3   OH2 1217   1.880   4.003   2.025  0.2788  0.0657 -0.1863
  418TIP3    H1 1218   1.867   3.970   1.936  0.4394  1.1061 -0.6163
  418TIP3    H2 1219   1.799   3.981   2.071  0.4268 -0.9854 -0.4206
  419TIP3   OH2 1220   6.471   0.531   3.196 -0.4572 -0.1228  0.2101
  419TIP3    H1 1221   6.436   0.448   3.164 -0.1841 -0.1136 -0.1150
  419TIP3    H2 1222   6.526   0.563   3.125  0.0209 -0.0191  0.6198
  420TIP3   OH2 1223   1.257   0.156   3.659  0.5676 -0.7554  0.2773
  420TIP3    H1 1224   1.247   0.062   3.642 -0.5948 -0.7643  0.8788
  420TIP3    H2 1225   1.209   0.198   3.588  0.9499 -0.6156  0.1005
  421TIP3   OH2 1226   5.843   0.089   0.690  0.4212 -1.1619  0.0771
  421TIP3    H1 1227   5.931   0.083   0.654  0.5911 -3.1268  0.6984
  421TIP3    H2 1228   5.813   0.177   0.668  2.1978 -0.7756 -0.9052
  422TIP3   OH2 1229   6.066   4.412   1.832  0.5865  0.8133  0.1239
  422TIP3    H1 1230   5.971   4.419   1.838  0.0967 -1.7309 -2.4427
  422TIP3    H2 1231   6.094   4.397   1.922 -1.6894 -0.1217  0.7570
  423TIP3   OH2 1232   2.279   0.483   1.912 -0.4461 -0.0260 -0.0533
  423TIP3    H1 1233   2.257   0.397   1.948 -1.1795  0.7239  1.3601
  423TIP3    H2 1234   2.374   0.479   1.899 -0.1483 -0.4044  1.8800
  424TIP3   OH2 1235   2.610   0.754   0.927 -0.2413  0.3238 -0.2548
  424TIP3    H1 1236   2.519   0.749   0.957 -0.5366  2.0031 -0.7905
  424TIP3    H2 1237   2.604   0.736   0.833  0.2474 -1.4130  0.0052
  425TIP3   OH2 1238   5.235   0.112   3.101  0.2892 -0.3629  0.1587
  425TIP3    H1 1239   5.211   0.175   3.033  0.5129  0.4629  0.8334
  425TIP3    H2 1240   5.328   0.129   3.118  0.1791 -0.4105  0.8260
  426TIP3   OH2 1241   0.301   0.397   5.458 -0.1658  0.2812 -0.0156
  426TIP3    H1 1242   0.284   0.303   5.461 -1.1997  0.4463 -0.1322
  426TIP3    H2 1243   0.396   0.405   5.459 -0.0725 -0.7453  0.4967
  427TIP3   OH2 1244   3.427   0.936   4.703  0.0723  0.4430 -0.1833
  427TIP3    H1 1245   3.359   0.908   4.765  0.0503 -0.8203 -0.7532
  427TIP3    H2 1246   3.435   0.863   4.641  0.6632  1.3479 -1.2002
  428TIP3   OH2 1247   5.068   5.036   2.055  0.3812  0.2143  0.1433
  428TIP3    H1 1248   5.095   5.127   2.057  2.4411 -0.3267 -0.6815
  428TIP3    H2 1249   4.994   5.035   1.993  0.2507  1.3228  0.2586
  429TIP3   OH2 1250   5.533   3.056   0.854 -0.1733 -0.2678  0.1117
  429TIP3    H1 1251   5.465   3.015   0.907 -0.9931  1.3888  0.4162
  429TIP3    H2 1252   5.507   3.148   0.849  1.6219  0.2475 -0.4673
  430TIP3   OH2 1253   6.217   6.501   5.363 -0.0125  0.0186  0.1332
  430TIP3    H1 1254   6.313   6.500   5.369 -0.0087 -0.1836  0.0181
  430TIP3    H2 1255   6.198   6.557   5.288 -0.0147  1.0629  0.8893
  431TIP3   OH2 1256   7.108   0.291   3.865  0.2957 -0.1118 -0.0305
  431TIP3    H1 1257   7.104   0.246   3.780  0.4546  0.5706 -0.4144
  431TIP3    H2 1258   7.193   0.267   3.901  0.0776 -0.6937  0.1059
  432TIP3   OH2 1259   2.771   1.091   3.005  0.5038  0.0388 -0.2921
  432TIP3    H1 1260   2.763   1.164   2.943  0.3273 -0.3615 -0.7482
  432TIP3    H2 1261   2.780   1.133   3.090  0.6073  0.5981 -0.5736
  433TIP3   OH2 1262   5.210   1.731   5.240 -0.2585  0.3552  0.0058
  433TIP3    H1 1263   5.248   1.666   5.180 -2.0933 -0.1000 -0.7429
  433TIP3    H2 1264   5.204   1.685   5.324  0.4820  0.3110  0.0387
  434TIP3   OH2 1265   5.750   0.823   1.044  0.0012  0.5665 -0.3587
  434TIP3    H1 1266   5.825   0.771   1.075  0.7857  1.5685 -0.5299
  434TIP3    H2 1267   5.685   0.758   1.019  0.7174 -0.3247  0.0288
  435TIP3   OH2 1268   4.573   6.548   0.486  0.3685  0.5642  0.6693
  435TIP3    H1 1269   4.573   6.494   0.565  0.3495 -0.2925  0.0941
  435TIP3    H2 1270   4.544   6.634   0.516  0.4347  0.2698  1.6080
  436TIP3   OH2 1271   5.725   1.771   5.174  0.1416  0.7482 -0.1494
  436TIP3    H1 1272   5.820   1.773   5.183  0.2048  1.7661 -0.9074
  436TIP3    H2 1273   5.710   1.740   5.085 -0.2640 -0.0904  0.1980
  437TIP3   OH2 1274   3.688   5.656   0.408  0.4542  0.1948  0.8769
  437TIP3    H1 1275   3.697   5.743   0.370 -0.0915 -0.5668 -1.1192
  437TIP3    H2 1276   3.694   5.596   0.333 -1.4443 -1.3689  1.8786
  438TIP3   OH2 1277   1.437   2.068   3.472  0.3047  0.4089  0.1665
  438TIP3    H1 1278   1.482   2.144   3.437  1.6428 -0.6371 -0.4704
  438TIP3    H2 1279   1.481   1.993   3.432 -1.3705 -0.7034  0.2785
  439TIP3   OH2 1280   3.862   3.201   3.805 -0.1379 -0.1739 -0.0782
  439TIP3    H1 1281   3.927   3.172   3.870  0.0916 -0.8343 -0.5893
  439TIP3    H2 1282   3.827   3.282   3.841  0.7065 -0.0018  0.3912
  440TIP3   OH2 1283   5.563   0.136   5.106  0.3582 -0.4899  0.2402
  440TIP3    H1 1284   5.608   0.137   5.021  0.2304 -1.0214  0.1629
  440TIP3    H2 1285   5.526   0.224   5.115  1.5404  0.0134  0.3784
  441TIP3   OH2 1286   3.986   6.533   2.661  0.0237  0.3118  0.1109
  441TIP3    H1 1287   4.015   6.606   2.716 -1.4820  1.1007 -0.0873
  441TIP3    H2 1288   3.916   6.570   2.607 -2.1660 -1.7041  1.3654
  442TIP3   OH2 1289   3.523   0.123   3.617  0.0038 -0.1116  0.2781
  442TIP3    H1 1290   3.471   0.045   3.635  0.7370 -0.3506  1.4013
  442TIP3    H2 1291   3.598   0.091   3.568  0.3249 -0.1246  0.7731
  443TIP3   OH2 1292   0.382   4.144   1.781 -0.1226  0.4123  0.3008
  443TIP3    H1 1293   0.294   4.108   1.779 -0.3567  1.0008 -0.5606
  443TIP3    H2 1294   0.435   4.077   1.823 -0.6699 -0.6647 -0.6753
  444TIP3   OH2 1295   2.034   4.217   5.629  0.2243  0.0973 -0.1940
  444TIP3    H1 1296   1.990   4.270   5.562 -1.4476 -1.8223 -0.7190
  444TIP3    H2 1297   2.127   4.225   5.609 -0.2277 -0.5453 -2.9066
  445TIP3   OH2 1298   2.829  -0.030   4.505  0.0911  0.6816  0.1570
  445TIP3    H1 1299   2.852   0.060   4.527 -3.3820  1.4296  1.3262
  445TIP3    H2 1300   2.802  -0.027   4.414 -0.7272  0.9948  0.4073
  446TIP3   OH2 1301   2.359   1.914   0.414 -0.1594  0.4225  0.6677
  446TIP3    H1 1302   2.321   1.896   0.500  1.3310  0.5962  1.3991
  446TIP3    H2 1303   2.453   1.915   0.429  0.4246 -3.0209 -1.5867
  447TIP3   OH2 1304   2.141   2.213   3.525  0.5807 -0.6530 -0.0158
  447TIP3    H1 1305   2.058   2.216   3.477  0.4357 -0.6388  0.2340
  447TIP3    H2 1306   2.125   2.151   3.597  1.0214 -1.2222 -0.4016
  448TIP3   OH2 1307   0.765   0.912   5.264  0.2436 -0.9977 -0.2336
  448TIP3    H1 1308   0.787   0.860   5.341 -0.2618 -0.9250 -0.0345
  448TIP3    H2 1309   0.700   0.859   5.217 -0.6582 -0.3229  0.2378
  449TIP3   OH2 1310   5.206   2.445   5.653 -0.3035 -0.6204 -0.0347
  449TIP3    H1 1311   5.122   2.445   5.699 -0.1246  2.7661  0.5274
  449TIP3    H2 1312   5.184   2.423   5.563 -1.4680 -1.7351  0.4862
  450TIP3   OH2 1313   3.501   1.104   0.955 -0.7331  0.1665  0.1585
  450TIP3    H1 1314   3.544   1.020   0.971  1.1750  0.9548 -0.4672
  450TIP3    H2 1315   3.481   1.104   0.861  0.3830  0.8341 -0.1104
  451TIP3   OH2 1316   7.067   2.488   0.735  0.1225 -0.2667  0.2617
  451TIP3    H1 1317   7.061   2.543   0.813  0.8829 -1.1789  0.9772
  451TIP3    H2 1318   6.996   2.424   0.745 -0.4821  0.2739 -0.3598
  452TIP3   OH2 1319   5.238   4.957   3.829  0.7463  0.6794 -0.3766
  452TIP3    H1 1320   5.230   5.017   3.755  0.3750  1.3642  0.2055
  452TIP3    H2 1321   5.148   4.941   3.856  0.8694  0.2157 -0.2443
  453TIP3   OH2 1322   2.134   3.254   1.439 -0.7283  0.4799 -0.4695
  453TIP3    H1 1323   2.072   3.200   1.390  0.1322  0.7340 -1.9120
  453TIP3    H2 1324   2.186   3.297   1.371  1.3517 -0.0951  0.6980
  454TIP3   OH2 1325   1.527   2.451   1.075 -0.4485 -0.5303  0.0787
  454TIP3    H1 1326   1.551   2.402   0.996 -1.0575 -0.9809  0.1681
  454TIP3    H2 1327   1.511   2.540   1.044 -0.6376 -0.6924 -0.2986
  455TIP3   OH2 1328   6.244   3.922   0.971 -0.8448  0.0207  0.9623
  455TIP3    H1 1329   6.245   3.839   1.018 -0.0958  0.8244  2.4681
  455TIP3    H2 1330   6.167   3.967   1.005 -0.7493  0.2838  0.8302
  456TIP3   OH2 1331   7.002   1.001   0.551  0.4496 -0.3232 -0.1614
  456TIP3    H1 1332   6.964   0.918   0.521 -1.8985  0.6357 -0.0624
  456TIP3    H2 1333   7.034   0.982   0.639 -0.0962 -1.1354 -0.1241
  457TIP3   OH2 1334   6.757   4.756   0.128  0.0377  0.3315  0.4218
  457TIP3    H1 1335   6.693   4.693   0.160 -0.1929 -0.5881 -1.6465
  457TIP3    H2 1336   6.713   4.841   0.136 -0.7976 -0.0973  0.5579
  458TIP3   OH2 1337   3.139   0.642   1.934 -0.0784  0.4791 -0.5820
  458TIP3    H1 1338   3.215   0.589   1.959  1.2761  1.4298 -2.3758
  458TIP3    H2 1339   3.098   0.593   1.862 -0.1202  0.8025 -0.7814
  459TIP3   OH2 1340   2.468   2.415   1.027  0.1279 -0.3971  0.0580
  459TIP3    H1 1341   2.391   2.421   1.083  0.2699  0.7724  0.1411
  459TIP3    H2 1342   2.440   2.448   0.942  0.5675  0.1661  0.1275
  460TIP3   OH2 1343   5.007   3.777   3.562  0.2792 -0.4174 -0.2001
  460TIP3    H1 1344   4.995   3.724   3.640  1.2596 -0.9331 -0.3757
  460TIP3    H2 1345   5.060   3.851   3.591  0.0340 -0.2310 -0.2271
  461TIP3   OH2 1346   0.943   4.366   2.553  0.4931 -0.0989  0.4589
  461TIP3    H1 1347   0.910   4.357   2.642 -3.0450  0.9052 -0.5693
  461TIP3    H2 1348   0.910   4.289   2.507  0.0111  0.6695 -0.5268
  462TIP3   OH2 1349   4.827   5.595   5.169 -0.4923 -0.0419  0.2493
  462TIP3    H1 1350   4.850   5.502   5.165 -0.1579 -0.1070  2.5435
  462TIP3    H2 1351   4.836   5.619   5.261  1.2000  2.7112 -0.4925
  463TIP3   OH2 1352   3.745   3.619   0.519 -0.0366  0.0409  0.9569
  463TIP3    H1 1353   3.763   3.710   0.496 -0.4770 -0.3327 -1.1327
  463TIP3    H2 1354   3.661   3.622   0.566 -0.7834  0.6151 -0.3583
  464TIP3   OH2 1355   2.451   3.717   1.832 -0.3381  0.3736 -0.3689
  464TIP3    H1 1356   2.513   3.678   1.893  0.6397  0.5697 -1.2060
  464TIP3    H2 1357   2.407   3.643   1.791  0.2773  0.1773 -0.6947
  465TIP3   OH2 1358   6.623   5.487   0.598 -0.0372 -0.3924  0.3682
  465TIP3    H1 1359   6.537   5.476   0.558  0.6623 -0.1049 -1.3023
  465TIP3    H2 1360   6.639   5.403   0.642 -0.3129 -1.2282 -1.0560
  466TIP3   OH2 1361   4.989   4.033   4.196 -0.3955 -0.0236  0.5893
  466TIP3    H1 1362   4.934   4.066   4.267  0.8369  0.5271  1.3186
  466TIP3    H2 1363   5.043   3.966   4.237  1.2389  1.1874  0.5149
  467TIP3   OH2 1364   2.329   0.652   5.329  0.4515 -0.6180  0.2020
  467TIP3    H1 1365   2.336   0.574   5.383  1.6917 -0.8246 -0.2268
  467TIP3    H2 1366   2.419   0.675   5.307  0.1589  1.1669  0.6319
  468TIP3   OH2 1367   6.915   0.814   2.583 -0.4727 -0.0244 -0.4418
  468TIP3    H1 1368   6.889   0.786   2.496  0.0489 -0.1600 -0.5586
  468TIP3    H2 1369   6.916   0.733   2.635 -0.4897  0.0112 -0.3859
  469TIP3   OH2 1370   2.094   5.657   3.053  0.0207  0.1128 -0.5114
  469TIP3    H1 1371   2.042   5.662   3.134  1.2964 -0.8296  0.4103
  469TIP3    H2 1372   2.166   5.598   3.075  0.1414 -0.5420 -2.5044
  470TIP3   OH2 1373   5.344   0.494   1.072  0.1534  0.0408  0.2690
  470TIP3    H1 1374   5.385   0.580   1.066  1.2122 -0.4257  0.6192
  470TIP3    H2 1375   5.252   0.510   1.055  0.0586  1.4825  1.9308
  471TIP3   OH2 1376   4.197   2.936   0.348 -0.0156 -0.6605  0.7044
  471TIP3    H1 1377   4.109   2.951   0.384 -0.4728 -1.7275  0.0476
  471TIP3    H2 1378   4.256   2.974   0.414 -0.9799  1.0215  0.6698
  472TIP3   OH2 1379   4.037   3.755   3.188 -0.6482 -0.0722  0.4614
  472TIP3    H1 1380   4.120   3.802   3.181 -1.6196  1.5846 -0.6393
  472TIP3    H2 1381   4.049   3.695   3.262  1.1410  0.8895  0.9996
  473TIP3   OH2 1382   0.803   5.112   3.868 -0.2856 -0.5447  0.1530
  473TIP3    H1 1383   0.807   5.039   3.930 -1.7373 -0.0452  0.8858
  473TIP3    H2 1384   0.711   5.138   3.868  0.4637  2.5468  1.4144
  474TIP3   OH2 1385   2.413   6.765   3.901  0.2945 -0.0350  0.1178
  474TIP3    H1 1386   2.459   6.686   3.930  1.2484  0.2504 -0.5782
  474TIP3    H2 1387   2.397   6.815   3.981  1.6251  0.0760  0.3405
  475TIP3   OH2 1388   6.319   3.096   3.122  0.6638 -0.1673  0.0372
  475TIP3    H1 1389   6.371   3.017   3.103  0.4020 -0.2833 -0.2043
  475TIP3    H2 1390   6.233   3.062   3.144  1.1634 -0.1063  2.3470
  476TIP3   OH2 1391   5.668   4.467   0.997  0.4757 -0.2445  0.1864
  476TIP3    H1 1392   5.755   4.459   0.956  0.4228 -1.5217  0.2799
  476TIP3    H2 1393   5.639   4.556   0.976  1.6138  0.0432 -0.2284
  477TIP3   OH2 1394   1.230   0.255   3.381 -0.1728  0.5733  0.3200
  477TIP3    H1 1395   1.240   0.199   3.304 -0.4681 -1.7711  1.8490
  477TIP3    H2 1396   1.136   0.277   3.383 -0.3435 -0.1427  0.4903
  478TIP3   OH2 1397   3.938   6.427   1.877  0.3146  0.0828  0.0576
  478TIP3    H1 1398   3.862   6.426   1.819  0.6849  0.1676 -0.4340
  478TIP3    H2 1399   3.946   6.519   1.903  1.6633  0.5441 -1.7933
  479TIP3   OH2 1400   4.155   6.056   4.580 -0.3101  0.4569 -0.1633
  479TIP3    H1 1401   4.097   6.033   4.508 -1.3245 -0.9311  1.0326
  479TIP3    H2 1402   4.131   6.146   4.602  0.0043  0.8867 -1.5345
  480TIP3   OH2 1403   1.207   4.066   2.962 -0.0096  0.2832  0.2016
  480TIP3    H1 1404   1.267   3.993   2.951 -0.5015 -0.0081 -0.7424
  480TIP3    H2 1405   1.263   4.141   2.980  0.4376 -0.5153  2.4210
  481TIP3   OH2 1406   4.217   0.804   3.481  1.1047  0.4803  0.1438
  481TIP3    H1 1407   4.184   0.741   3.545 -1.4051 -1.3125 -2.6476
  481TIP3    H2 1408   4.286   0.756   3.434 -0.1741  0.0374 -1.3736
  482TIP3   OH2 1409   5.073   0.761   5.045  0.2877  0.5717 -0.9652
  482TIP3    H1 1410   5.012   0.816   4.997  0.6694  1.0947 -0.8597
  482TIP3    H2 1411   5.050   0.671   5.020 -1.6443  0.6449  0.3924
  483TIP3   OH2 1412   5.821   2.264   0.805 -0.6139  0.6186  0.1155
  483TIP3    H1 1413   5.899   2.317   0.826  0.1864 -0.6762  0.5522
  483TIP3    H2 1414   5.776   2.314   0.737  0.2626  1.7222  0.3094
  484TIP3   OH2 1415   4.826   1.912   0.855  0.0076  0.0195  0.0678
  484TIP3    H1 1416   4.784   1.993   0.826 -2.5326 -1.4202 -0.5916
  484TIP3    H2 1417   4.889   1.891   0.786 -0.8294  0.3643 -0.8136
  485TIP3   OH2 1418   3.487   0.203   3.925  0.2416  0.0266 -0.1817
  485TIP3    H1 1419   3.430   0.279   3.934 -0.5506 -0.5797  0.0051
  485TIP3    H2 1420   3.463   0.164   3.842  0.7378  0.0460 -0.3396
  486TIP3   OH2 1421   0.719   0.855   3.472  0.0933 -0.2628 -0.5072
  486TIP3    H1 1422   0.764   0.815   3.546 -0.7253 -0.0444  0.1179
  486TIP3    H2 1423   0.717   0.949   3.492 -0.2131 -0.2116 -0.7584
  487TIP3   OH2 1424   6.208   2.848   1.250  0.0825  0.0822  0.8497
  487TIP3    H1 1425   6.209   2.753   1.240  1.4326  0.0623  0.9158
  487TIP3    H2 1426   6.285   2.867   1.305 -0.5567  1.1548  1.4172
  488TIP3   OH2 1427   3.280   0.367   4.244 -0.1169 -0.3448 -0.0892
  488TIP3    H1 1428   3.195   0.383   4.203 -0.2776 -0.9136  0.0037
  488TIP3    H2 1429   3.261   0.305   4.315  0.7485 -2.8156 -1.8483
  489TIP3   OH2 1430   4.293   0.215   4.590  0.0226 -0.9621 -0.1535
  489TIP3    H1 1431   4.218   0.157   4.578 -0.3407 -0.5841  0.2163
  489TIP3    H2 1432   4.265   0.298   4.549 -0.0061 -0.6332  0.5243
  490TIP3   OH2 1433   4.957   5.744   0.692 -0.2614  0.7547  0.0226
  490TIP3    H1 1434   4.994   5.816   0.744 -0.2169  0.7031  0.0630
  490TIP3    H2 1435   4.931   5.679   0.757  0.3784  0.4131 -0.0486
  491TIP3   OH2 1436   6.034   4.835   3.041 -0.3548 -0.2188  0.2199
  491TIP3    H1 1437   5.940   4.831   3.061 -0.3614  0.4416  0.3554
  491TIP3    H2 1438   6.074   4.867   3.122 -0.1283  0.4214 -0.1374
  492TIP3   OH2 1439   6.131   4.574   2.530 -0.3169  0.3126 -0.1535
  492TIP3    H1 1440   6.121   4.600   2.622  1.3229 -1.2718  0.5380
  492TIP3    H2 1441   6.214   4.614   2.503 -1.9238  2.8345 -1.8029
  493TIP3   OH2 1442   3.873   0.455   3.455 -0.1366  0.2617 -0.2031
  493TIP3    H1 1443   3.858   0.549   3.444  1.4476  0.9041  2.1695
  493TIP3    H2 1444   3.969   0.446   3.459 -0.2681 -1.3870 -0.0317
  494TIP3   OH2 1445   2.767   3.465   3.554  0.0843 -0.0765 -0.2486
  494TIP3    H1 1446   2.674   3.479   3.572 -0.7651 -0.9039 -3.5166
  494TIP3    H2 1447   2.808   3.464   3.641 -2.9889 -0.2000  1.3180
  495TIP3   OH2 1448   6.604   3.695   4.832 -0.7400 -0.3474 -0.1077
  495TIP3    H1 1449   6.573   3.783   4.810 -1.1716 -0.8607 -1.7110
  495TIP3    H2 1450   6.529   3.638   4.816  0.4564 -1.4067 -2.5007
  496TIP3   OH2 1451   6.616   5.066   1.693  0.0399  0.0434 -0.0435
  496TIP3    H1 1452   6.534   5.064   1.741  0.4377 -0.0067  0.6455
  496TIP3    H2 1453   6.635   5.159   1.681  0.7461  0.0900  1.3142
  497TIP3   OH2 1454   1.404   4.450   3.572 -0.4880 -0.4673  0.3254
  497TIP3    H1 1455   1.425   4.448   3.479 -1.4978 -1.3606  0.0943
  497TIP3    H2 1456   1.449   4.373   3.608 -1.2147 -0.9178  0.2996
  498TIP3   OH2 1457   6.486   3.707   2.088 -0.1806  0.3780 -0.3967
  498TIP3    H1 1458   6.394   3.735   2.083 -0.9500 -2.1369 -2.9036
  498TIP3    H2 1459   6.489   3.651   2.165 -0.7825  0.4130 -0.3381
  499TIP3   OH2 1460   4.655   2.838   1.155 -0.3697  0.4708 -0.1728
  499TIP3    H1 1461   4.606   2.848   1.074 -0.0271  0.5900 -0.3674
  499TIP3    H2 1462   4.588   2.824   1.222 -0.6128 -0.6952 -0.6289
  500TIP3   OH2 1463   0.829   4.490   0.424  0.2600 -0.0602  0.4320
  500TIP3    H1 1464   0.888   4.456   0.491 -0.3098 -1.0999  0.4305
  500TIP3    H2 1465   0.858   4.581   0.410  0.0231  0.3892  2.5022
  501TIP3   OH2 1466   3.300   3.035   4.050  0.2876 -0.5621  0.7080
  501TIP3    H1 1467   3.386   3.077   4.046 -1.0024  2.3608  1.0336
  501TIP3    H2 1468   3.242   3.094   4.002 -1.6422 -2.2011  0.8954
  502TIP3   OH2 1469   5.817   2.891   0.448  0.2999  0.4172  0.4779
  502TIP3    H1 1470   5.726   2.916   0.466  0.3042  1.5070 -0.7548
  502TIP3    H2 1471   5.869   2.960   0.489  0.3402  2.3222 -2.4488
  503TIP3   OH2 1472   3.882   1.300   3.387  0.1723 -0.5349 -0.3783
  503TIP3    H1 1473   3.842   1.355   3.454  1.5967  1.8741 -1.3501
  503TIP3    H2 1474   3.976   1.319   3.394  0.9186 -3.8166 -0.0224
  504TIP3   OH2 1475   4.253   5.893   2.551 -0.3595  0.7199 -0.0626
  504TIP3    H1 1476   4.260   5.861   2.462 -0.2942  0.6572 -0.0346
  504TIP3    H2 1477   4.291   5.981   2.548  0.3173  0.4387  0.0558
  505TIP3   OH2 1478   1.681   2.674   5.333  0.3707 -0.0973  0.0429
  505TIP3    H1 1479   1.661   2.659   5.426  2.2761 -0.9578  0.3511
  505TIP3    H2 1480   1.733   2.754   5.332  0.1096  0.0699 -0.3254
  506TIP3   OH2 1481   2.574   1.151   4.170  0.8969 -0.0911 -0.7807
  506TIP3    H1 1482   2.541   1.062   4.158  0.9627 -0.4457  1.2978
  506TIP3    H2 1483   2.541   1.199   4.094 -0.4668 -1.5107 -1.1473
  507TIP3   OH2 1484   6.182   5.556   1.478  0.2354  0.1852  0.6681
  507TIP3    H1 1485   6.170   5.614   1.553 -0.1139 -0.7042  1.3121
  507TIP3    H2 1486   6.202   5.470   1.516  1.2576 -0.0127 -0.2808
  508TIP3   OH2 1487   7.124   6.098   5.102  0.0156 -0.1921  0.1783
  508TIP3    H1 1488   7.134   6.003   5.100  0.4163 -0.1498  0.1793
  508TIP3    H2 1489   7.134   6.125   5.011 -0.8911 -0.2280  0.0571
  509TIP3   OH2 1490   2.194   6.435   2.870  0.3990  0.4876  0.0343
  509TIP3    H1 1491   2.115   6.436   2.924 -2.2387 -1.0492 -3.4044
  509TIP3    H2 1492   2.217   6.342   2.865  2.5932  0.9189  1.0452
  510TIP3   OH2 1493   2.302   1.751   3.817  0.8021  0.2453  0.2134
  510TIP3    H1 1494   2.307   1.771   3.724 -2.1008 -0.6534 -0.2384
  510TIP3    H2 1495   2.252   1.823   3.855  0.8213 -0.0525  0.8163
  511TIP3   OH2 1496   6.102   6.479   3.937  0.3186  0.4404 -0.1448
  511TIP3    H1 1497   6.167   6.423   3.895 -0.5060 -0.0959 -0.7469
  511TIP3    H2 1498   6.081   6.434   4.019 -0.5004 -0.2703 -0.7269
  512TIP3   OH2 1499   2.323   6.694   1.120 -0.2795  0.1290  0.5402
  512TIP3    H1 1500   2.244   6.649   1.150 -0.5576  0.9765  1.1185
  512TIP3    H2 1501   2.387   6.679   1.190  0.0751 -0.5419  0.0803
  513TIP3   OH2 1502   5.674   4.340   3.721 -0.3324 -0.1155  0.3279
  513TIP3    H1 1503   5.711   4.390   3.649  0.3428 -0.6518  0.2940
  513TIP3    H2 1504   5.746   4.330   3.784 -0.9982  0.6158  1.2282
  514TIP3   OH2 1505   6.436   0.020   4.005 -0.2062 -0.7208  0.5533
  514TIP3    H1 1506   6.531   0.024   4.006 -0.2426  0.0361  1.2886
  514TIP3    H2 1507   6.410   0.074   3.931  0.0306 -3.8022 -1.9816
  515TIP3   OH2 1508   6.577   0.413   2.356  0.2917 -0.5272  0.4432
  515TIP3    H1 1509   6.594   0.440   2.447 -0.2783 -3.3347  1.4737
  515TIP3    H2 1510   6.663   0.387   2.323  0.7058  1.5622 -0.2951
  516TIP3   OH2 1511   6.970   1.254   4.380 -0.5252 -0.2205  0.0765
  516TIP3    H1 1512   6.926   1.174   4.407 -0.5161  0.2805  1.6387
  516TIP3    H2 1513   7.049   1.258   4.435 -0.1216  0.4705 -0.5347
  517TIP3   OH2 1514   5.809   2.074   4.277  0.2882  0.1094 -0.1351
  517TIP3    H1 1515   5.878   2.052   4.340  0.1198 -2.7062 -0.7850
  517TIP3    H2 1516   5.751   2.133   4.325  1.1124 -0.5074  1.7424
  518TIP3   OH2 1517   6.102   1.185   2.331 -1.3246 -0.3251  0.3734
  518TIP3    H1 1518   6.119   1.134   2.410 -2.0446 -0.6982  0.2905
  518TIP3    H2 1519   6.020   1.151   2.297 -0.5131 -0.9071 -1.1203
  519TIP3   OH2 1520   1.148   0.486   1.823  0.0713  0.2263 -0.5838
  519TIP3    H1 1521   1.210   0.424   1.784  0.8455  2.1036 -2.5142
  519TIP3    H2 1522   1.202   0.541   1.880 -0.4605 -0.2816  0.4314
  520TIP3   OH2 1523   1.952   3.955   5.192  0.2341  0.2666  0.4143
  520TIP3    H1 1524   2.034   3.984   5.231 -0.0091  0.6499  0.6389
  520TIP3    H2 1525   1.957   3.859   5.197  1.0544  0.2459 -0.3779
  521TIP3   OH2 1526   5.482   0.476   2.133 -0.4449 -0.4647  0.1957
  521TIP3    H1 1527   5.515   0.468   2.223 -0.1618 -1.1205  0.0436
  521TIP3    H2 1528   5.387   0.469   2.142 -0.6131  1.9342  0.6844
  522TIP3   OH2 1529   1.295   0.516   5.244  0.2364  0.0755 -0.6316
  522TIP3    H1 1530   1.313   0.470   5.162  0.9691 -0.6691 -0.0611
  522TIP3    H2 1531   1.284   0.447   5.309  0.9885  0.6840  0.1688
  523TIP3   OH2 1532   3.126   1.769   2.437 -0.2442  0.3224 -0.0298
  523TIP3    H1 1533   3.200   1.788   2.495 -0.4617  1.5334 -0.1262
  523TIP3    H2 1534   3.081   1.852   2.427 -1.6835 -0.4011  0.0966
  524TIP3   OH2 1535   1.268   4.458   4.342 -0.4277 -0.4503 -0.3757
  524TIP3    H1 1536   1.193   4.421   4.390  0.2584  0.4510  1.5183
  524TIP3    H2 1537   1.309   4.383   4.299 -0.2047 -1.6210  1.7481
  525TIP3   OH2 1538   1.171   3.701   4.069 -0.2036  0.5029  0.1894
  525TIP3    H1 1539   1.124   3.763   4.012  0.8404 -0.2261 -1.5522
  525TIP3    H2 1540   1.138   3.615   4.043 -0.3478  0.1933  1.3386
  526TIP3   OH2 1541   2.557   3.382   0.476 -0.0969 -0.3635 -0.4203
  526TIP3    H1 1542   2.543   3.434   0.397 -1.3771 -0.3335 -0.1880
  526TIP3    H2 1543   2.567   3.292   0.444 -2.8949 -0.7173 -0.5217
  527TIP3   OH2 1544   2.552   2.957   5.537  0.3528  0.3013  0.1505
  527TIP3    H1 1545   2.581   3.020   5.471  0.1685  0.3615  0.1271
  527TIP3    H2 1546   2.502   2.892   5.488  2.9113 -1.4650 -0.2944
  528TIP3   OH2 1547   5.657   2.452   0.664 -0.0451  0.0158 -0.0088
  528TIP3    H1 1548   5.562   2.461   0.671 -0.3221 -1.6984 -0.9843
  528TIP3    H2 1549   5.691   2.538   0.690 -1.7571  0.1917  1.9403
  529TIP3   OH2 1550   7.139   5.829   2.478  0.1006  0.5065 -0.0520
  529TIP3    H1 1551   7.229   5.852   2.500 -1.0629  2.7956  3.1981
  529TIP3    H2 1552   7.111   5.770   2.548 -1.0787  0.3021 -0.6637
  530TIP3   OH2 1553   1.500   1.202   2.346 -0.0974 -0.1351  0.4246
  530TIP3    H1 1554   1.585   1.224   2.308  0.0898 -0.3323  0.7260
  530TIP3    H2 1555   1.502   1.239   2.434 -0.3127 -0.1658  0.4441
  531TIP3   OH2 1556   0.509   4.171   3.800  0.5888  0.1607  0.0895
  531TIP3    H1 1557   0.568   4.100   3.825  2.2936  0.9152 -1.5387
  531TIP3    H2 1558   0.565   4.249   3.796 -0.9066  1.2913  0.2692
  532TIP3   OH2 1559   5.466   0.141   1.427 -0.5505  0.1508 -0.4910
  532TIP3    H1 1560   5.447   0.048   1.440 -0.0618  0.0457 -0.5097
  532TIP3    H2 1561   5.389   0.175   1.382 -1.6668  0.2169  1.4103
  533TIP3   OH2 1562   2.209   1.454   0.580  0.7379  0.2086  0.0812
  533TIP3    H1 1563   2.114   1.467   0.589  0.8466 -0.0751  1.9568
  533TIP3    H2 1564   2.224   1.454   0.485 -0.8268  2.4198 -0.2357
  534TIP3   OH2 1565   2.520   1.882   1.693  0.5143 -0.4832  0.2609
  534TIP3    H1 1566   2.595   1.941   1.688 -0.2137  0.5684  1.1442
  534TIP3    H2 1567   2.514   1.858   1.785 -0.6647  0.0686  0.3503
  535TIP3   OH2 1568   6.669   6.729   2.133  0.0974 -0.1511  0.1935
  535TIP3    H1 1569   6.661   6.749   2.040 -2.1759  0.3286  0.4366
  535TIP3    H2 1570   6.600   6.781   2.175  0.8061 -0.6647  2.1062
  536TIP3   OH2 1571   4.999   1.997   2.896 -0.4957  0.2603  0.1354
  536TIP3    H1 1572   4.951   1.973   2.975 -1.4641  1.7592  0.0385
  536TIP3    H2 1573   5.029   2.087   2.912  2.3721 -0.6057  0.2010
  537TIP3   OH2 1574   6.817   1.409   3.677 -0.1244  0.1012  0.0902
  537TIP3    H1 1575   6.849   1.472   3.612 -1.7542  1.4919  0.5553
  537TIP3    H2 1576   6.803   1.328   3.628  2.6138 -0.1786 -0.4033
  538TIP3   OH2 1577   5.327   1.667   4.660 -0.2158  0.2306 -0.0357
  538TIP3    H1 1578   5.289   1.750   4.689 -0.7968 -0.5800  1.6507
  538TIP3    H2 1579   5.390   1.692   4.593 -1.5072  1.8988 -0.7207
  539TIP3   OH2 1580   4.541   3.617   3.300 -0.6949 -0.1040  0.2786
  539TIP3    H1 1581   4.512   3.690   3.246 -0.6213  1.3831  2.1622
  539TIP3    H2 1582   4.584   3.557   3.238 -3.6240 -0.2105 -1.8584
  540TIP3   OH2 1583   3.967   5.837   5.153  0.0134 -0.2656  0.0105
  540TIP3    H1 1584   4.010   5.834   5.067  0.8957 -1.3708  0.4555
  540TIP3    H2 1585   3.882   5.876   5.136 -0.3590 -1.6691 -1.6099
  541TIP3   OH2 1586   0.707   2.969   3.421  0.5256 -0.1286  0.1296
  541TIP3    H1 1587   0.728   3.001   3.508  3.3099  2.2102 -1.2531
  541TIP3    H2 1588   0.630   3.020   3.394  2.5183  2.7368 -0.5057
  542TIP3   OH2 1589   2.507   2.225   2.506 -0.0277  0.2053  0.2036
  542TIP3    H1 1590   2.592   2.259   2.535  0.1671  0.3923 -0.5644
  542TIP3    H2 1591   2.460   2.207   2.587  1.2170 -1.1176  0.6993
  543TIP3   OH2 1592   4.250   4.066   4.093 -0.0657  0.2027 -0.3183
  543TIP3    H1 1593   4.290   3.997   4.040  0.8125 -0.5865  1.2990
  543TIP3    H2 1594   4.179   4.100   4.038  0.1685 -1.2397 -1.5869
  544TIP3   OH2 1595   3.263   6.187   2.786 -0.1868  0.0626  0.1234
  544TIP3    H1 1596   3.216   6.158   2.708 -2.4865  1.8848  0.7417
  544TIP3    H2 1597   3.317   6.260   2.756 -0.0965 -0.0434  0.0242
  545TIP3   OH2 1598   6.159   3.152   4.119  0.1383  0.3829 -0.2729
  545TIP3    H1 1599   6.168   3.184   4.029  0.1450  2.6727  0.4722
  545TIP3    H2 1600   6.105   3.073   4.111  0.3978  0.3497 -2.2931
  546TIP3   OH2 1601  -0.015   3.796   2.729  0.4270 -0.0406 -0.0020
  546TIP3    H1 1602   0.001   3.725   2.668  1.1628 -0.5088  0.7175
  546TIP3    H2 1603   0.059   3.792   2.791 -0.6261  0.0066  1.2969
  547TIP3   OH2 1604   1.183   6.011   4.284  0.1069 -0.4319  0.4582
  547TIP3    H1 1605   1.121   5.978   4.349 -0.1446 -2.2932 -0.6771
  547TIP3    H2 1606   1.146   6.096   4.258 -1.0124 -0.7129  1.0602
  548TIP3   OH2 1607   1.665   0.372   1.008  0.0418 -1.0334 -0.4605
  548TIP3    H1 1608   1.637   0.449   1.058  0.2135 -0.7642 -0.7721
  548TIP3    H2 1609   1.611   0.374   0.929  0.0995 -1.1930 -0.5036
  549TIP3   OH2 1610   4.092  -0.017   1.553  0.1762  0.7649  0.2737
  549TIP3    H1 1611   4.014  -0.022   1.498  1.9381  1.0501 -2.4343
  549TIP3    H2 1612   4.110   0.077   1.561  1.7871  0.6710 -1.5845
  550TIP3   OH2 1613   4.019   2.226   3.048  0.4242 -0.9363 -0.3323
  550TIP3    H1 1614   4.009   2.194   2.959  1.4506 -1.1327 -0.3890
  550TIP3    H2 1615   4.090   2.173   3.085 -0.7575 -1.6616  0.9946
  551TIP3   OH2 1616   2.692   5.752   2.192 -0.1855  0.4030 -0.0841
  551TIP3    H1 1617   2.610   5.786   2.155 -1.4929 -0.3405  1.9598
  551TIP3    H2 1618   2.684   5.768   2.286  1.8436 -0.1122  0.2215
  552TIP3   OH2 1619   6.813   3.681   0.946  0.2576 -0.0865  0.9224
  552TIP3    H1 1620   6.762   3.643   1.018  2.1265 -1.4326  1.6055
  552TIP3    H2 1621   6.848   3.763   0.980  1.4885 -0.9253  1.7510
  553TIP3   OH2 1622   0.779   2.194   5.301  0.7164 -0.0718 -0.2016
  553TIP3    H1 1623   0.750   2.278   5.266  0.6125 -0.0326 -0.0200
  553TIP3    H2 1624   0.787   2.208   5.395 -3.0101 -1.3040  0.4483
  554TIP3   OH2 1625   1.493   0.403   0.785 -0.1940  0.0161  0.6579
  554TIP3    H1 1626   1.478   0.333   0.722  0.2315 -0.8855  1.5326
  554TIP3    H2 1627   1.428   0.388   0.854  1.1758 -0.7664  1.8471
  555TIP3   OH2 1628   3.528   3.161   4.466 -0.3066  0.2102  0.1568
  555TIP3    H1 1629   3.456   3.206   4.422 -0.2218 -1.0528 -1.3667
  555TIP3    H2 1630   3.534   3.076   4.422  2.5578  0.5271 -0.2662
  556TIP3   OH2 1631   3.319   5.203   1.892  0.2837  0.0165  0.2300
  556TIP3    H1 1632   3.305   5.291   1.927  0.1210  0.9544 -2.0311
  556TIP3    H2 1633   3.391   5.212   1.830 -0.1510 -1.3017 -0.5225
  557TIP3   OH2 1634   6.380   5.722   0.318  0.2515  0.2120  0.3726
  557TIP3    H1 1635   6.397   5.779   0.394  0.3155 -0.2342  0.6967
  557TIP3    H2 1636   6.311   5.663   0.348 -0.7436  0.9474 -0.3893
  558TIP3   OH2 1637   4.093   1.542   3.291  0.4626 -0.3484 -0.2463
  558TIP3    H1 1638   4.159   1.588   3.240  0.2185 -2.0745 -2.2999
  558TIP3    H2 1639   4.126   1.452   3.296 -0.4835 -0.6526  0.9898
  559TIP3   OH2 1640   1.826   1.697   3.851  0.0002 -0.3933 -0.0996
  559TIP3    H1 1641   1.788   1.647   3.923 -0.8241  0.9475  0.4291
  559TIP3    H2 1642   1.754   1.710   3.789 -0.2806  1.5145  0.5507
  560TIP3   OH2 1643   0.106   5.078   2.711 -0.0015 -0.0650  0.0324
  560TIP3    H1 1644   0.103   4.998   2.764  0.3371 -0.3067 -0.3065
  560TIP3    H2 1645   0.038   5.066   2.645 -0.0783  0.0086  0.0986
  561TIP3   OH2 1646   6.030   2.816   2.160 -0.3671 -0.3109 -0.3861
  561TIP3    H1 1647   5.988   2.884   2.107  0.9600  0.0733 -0.9944
  561TIP3    H2 1648   5.971   2.803   2.234 -1.9031 -0.3290 -1.5749
  562TIP3   OH2 1649   6.801   6.005   5.892  0.1388 -0.0809  0.1205
  562TIP3    H1 1650   6.850   6.068   5.840  0.8773 -0.6400  0.1213
  562TIP3    H2 1651   6.818   5.921   5.850 -2.7917 -0.0386 -1.3662
  563TIP3   OH2 1652   4.991   1.132   4.709  0.2734  1.0669  0.4378
  563TIP3    H1 1653   5.027   1.086   4.785  0.2613  0.4601  0.0841
  563TIP3    H2 1654   5.068   1.154   4.656  0.2369  0.9749  0.3458
  564TIP3   OH2 1655   2.441   3.916   1.360 -0.0538 -0.0539 -0.1125
  564TIP3    H1 1656   2.428   3.909   1.455  1.2329  0.9641  0.1538
  564TIP3    H2 1657   2.489   3.836   1.337  0.4916  0.1624  0.2574
  565TIP3   OH2 1658   1.668   6.335   3.043 -0.5295  0.0476 -0.5454
  565TIP3    H1 1659   1.642   6.411   3.095  0.1340 -0.7973  1.0827
  565TIP3    H2 1660   1.594   6.275   3.049  0.2922 -0.8617  1.1044
  566TIP3   OH2 1661   1.250   1.613   2.683  0.2056  0.4274 -0.2550
  566TIP3    H1 1662   1.264   1.560   2.604  0.2115  0.5447 -0.3331
  566TIP3    H2 1663   1.248   1.549   2.754  0.8806  0.3815 -0.2744
  567TIP3   OH2 1664   2.818   4.526   4.155 -0.8920 -0.5332  0.7447
  567TIP3    H1 1665   2.817   4.434   4.130  0.0664 -0.7502  1.4449
  567TIP3    H2 1666   2.802   4.573   4.073 -2.0946 -1.3309  0.5019
  568TIP3   OH2 1667   3.296   6.535   1.044 -0.3332  0.3531 -0.3315
  568TIP3    H1 1668   3.267   6.609   0.991  0.9140  0.4400 -0.9313
  568TIP3    H2 1669   3.364   6.493   0.991  0.1854 -0.1905  0.7376
  569TIP3   OH2 1670   4.281   0.327   5.026 -0.1371 -0.1113  0.3898
  569TIP3    H1 1671   4.247   0.252   4.978 -0.7029 -1.8470  3.2442
  569TIP3    H2 1672   4.314   0.386   4.958  0.8126 -3.1241 -2.0354
  570TIP3   OH2 1673   4.822   4.990   1.876 -0.9006 -0.4177 -0.0890
  570TIP3    H1 1674   4.745   4.972   1.823 -0.4501 -2.8354 -0.0053
  570TIP3    H2 1675   4.875   4.911   1.870  1.6092  1.1629 -0.1367
  571TIP3   OH2 1676   6.864   3.666   4.486 -0.1921 -0.1792 -0.0061
  571TIP3    H1 1677   6.790   3.609   4.505 -1.0239  1.2721  1.2786
  571TIP3    H2 1678   6.894   3.697   4.572 -0.0435  1.6388 -0.6696
  572TIP3   OH2 1679   1.777   0.404   3.562  0.5174  0.5075 -0.4512
  572TIP3    H1 1680   1.750   0.476   3.619  0.5029  0.2665 -0.1506
  572TIP3    H2 1681   1.697   0.380   3.514  0.5021  0.6305 -0.4882
  573TIP3   OH2 1682   6.747   0.165   0.719 -0.0182 -0.0047 -0.4681
  573TIP3    H1 1683   6.683   0.153   0.788  0.4389 -0.1791 -0.0712
  573TIP3    H2 1684   6.765   0.259   0.720  0.8912 -0.1651  0.4829
  574TIP3   OH2 1685   3.944   5.284   0.355 -0.3502  0.6321 -0.2602
  574TIP3    H1 1686   3.968   5.366   0.311  0.6699 -0.8784 -2.7202
  574TIP3    H2 1687   3.918   5.225   0.284  1.8030 -2.1259  1.0422
  575TIP3   OH2 1688   5.898   4.473   0.847 -0.1637  0.3075  0.7687
  575TIP3    H1 1689   5.935   4.499   0.762 -0.1361  2.4491  1.3978
  575TIP3    H2 1690   5.973   4.471   0.906  0.1485 -2.9345  0.4824
  576TIP3   OH2 1691   4.263   5.217   5.602  0.0408  0.5183 -0.2924
  576TIP3    H1 1692   4.237   5.286   5.663  2.0057  0.8241  0.2584
  576TIP3    H2 1693   4.267   5.138   5.656  0.9599  0.6271 -0.1842
  577TIP3   OH2 1694   1.115   2.010   3.017 -0.0132  0.3798  0.4247
  577TIP3    H1 1695   1.062   2.089   3.028  0.6765  1.2025 -1.5597
  577TIP3    H2 1696   1.052   1.940   3.001 -0.6993  0.2156  3.2956
  578TIP3   OH2 1697   1.081   2.514   0.270 -0.2513 -0.4184 -0.4020
  578TIP3    H1 1698   1.015   2.576   0.241 -0.3899 -0.6254 -0.5346
  578TIP3    H2 1699   1.126   2.558   0.342 -0.5689 -0.2988 -0.2762
  579TIP3   OH2 1700   2.918   1.464   1.275  0.2384 -0.1297  0.1217
  579TIP3    H1 1701   2.861   1.426   1.342 -2.3777  1.5946 -0.9881
  579TIP3    H2 1702   2.999   1.485   1.323 -1.0034 -0.2404  2.4269
  580TIP3   OH2 1703   6.216   5.935   5.393 -0.3682 -0.2528  0.1913
  580TIP3    H1 1704   6.253   5.956   5.307  0.6950  0.4303  0.7917
  580TIP3    H2 1705   6.137   5.989   5.399 -0.1347  0.1260 -0.1230
  581TIP3   OH2 1706   4.305   6.703   1.535  0.3360  0.4560  0.2535
  581TIP3    H1 1707   4.393   6.704   1.573 -0.1803  1.6603  1.5255
  581TIP3    H2 1708   4.264   6.626   1.573  0.2835  0.8839  1.1117
  582TIP3   OH2 1709   5.034   5.633   0.289 -0.1425 -0.4740  0.5168
  582TIP3    H1 1710   4.995   5.600   0.207  1.1447  1.9085 -1.1751
  582TIP3    H2 1711   4.968   5.693   0.324  1.1280  2.3267 -1.5094
  583TIP3   OH2 1712   6.463   1.613   5.519 -0.2842  0.5518 -0.2460
  583TIP3    H1 1713   6.465   1.522   5.490 -2.7372 -0.1670  1.5884
  583TIP3    H2 1714   6.535   1.620   5.582 -0.9338 -0.5353  0.6420
  584TIP3   OH2 1715   3.412   2.921   5.909  0.1138 -0.3245  0.1296
  584TIP3    H1 1716   3.475   2.894   5.842  0.9630  1.4943  0.1329
  584TIP3    H2 1717   3.327   2.900   5.872  0.6658 -1.6126 -0.4488
  585TIP3   OH2 1718   4.822   2.142   3.327  0.3387  0.3718  0.1651
  585TIP3    H1 1719   4.907   2.141   3.371  0.6371  0.4488 -0.4056
  585TIP3    H2 1720   4.837   2.097   3.244  0.1004  1.3876 -0.4456
  586TIP3   OH2 1721   3.482   5.754   5.027 -0.0599  0.2717  0.0317
  586TIP3    H1 1722   3.400   5.705   5.034  0.7814 -1.7068 -2.6170
  586TIP3    H2 1723   3.542   5.710   5.086 -0.2211  0.2679  0.1967
  587TIP3   OH2 1724   1.580   5.132   1.306  0.4279 -0.3953  0.4045
  587TIP3    H1 1725   1.611   5.053   1.350  0.9090 -0.0112  0.7512
  587TIP3    H2 1726   1.659   5.184   1.290  0.0895  0.1095  0.3534
  588TIP3   OH2 1727   6.499   0.760   4.693  0.1401  0.5889  0.5445
  588TIP3    H1 1728   6.553   0.803   4.627  0.6421  1.2371  1.3634
  588TIP3    H2 1729   6.553   0.688   4.725 -1.2166 -1.6647 -1.8231
  589TIP3   OH2 1730   2.964   3.767   5.202 -0.0223  0.0928  0.5713
  589TIP3    H1 1731   3.012   3.812   5.133 -0.1460 -0.1088  0.3552
  589TIP3    H2 1732   3.032   3.737   5.263  0.3831 -2.4102 -1.0017
  590TIP3   OH2 1733   4.284   4.777   2.698 -0.2620 -0.1522  0.0245
  590TIP3    H1 1734   4.306   4.813   2.612  0.1395 -0.5895 -0.0615
  590TIP3    H2 1735   4.359   4.800   2.753  0.0285 -0.9084 -0.0498
  591TIP3   OH2 1736   0.366   3.764   1.336  0.0192 -0.9063  0.2093
  591TIP3    H1 1737   0.371   3.671   1.359 -0.8208 -1.1469 -0.5478
  591TIP3    H2 1738   0.302   3.800   1.398  0.1431 -0.8892  0.3273
  592TIP3   OH2 1739   6.263   1.628   0.580  0.5993 -0.2692  0.3182
  592TIP3    H1 1740   6.197   1.694   0.601  0.0575 -1.1724  1.5852
  592TIP3    H2 1741   6.274   1.578   0.661  0.7831 -1.9228 -0.6777
  593TIP3   OH2 1742   3.904   0.865   2.739 -0.3195  0.2270 -0.3532
  593TIP3    H1 1743   3.829   0.889   2.793  0.6840 -0.5583  1.4865
  593TIP3    H2 1744   3.908   0.770   2.744  2.4366  0.3270  2.0714
  594TIP3   OH2 1745   0.792   1.712   1.472  0.5351  0.1161 -0.0624
  594TIP3    H1 1746   0.761   1.736   1.385  0.5356  1.0700  0.1953
  594TIP3    H2 1747   0.807   1.617   1.467 -2.5707 -0.4698 -0.1481
  595TIP3   OH2 1748   6.978   4.815   4.342  0.3977  0.0292 -0.6933
  595TIP3    H1 1749   7.008   4.740   4.392  1.2810  1.9018  1.8373
  595TIP3    H2 1750   6.906   4.782   4.289  3.4824 -3.5024 -3.1106
  596TIP3   OH2 1751   6.271   5.610   0.699 -0.0242 -0.2772  0.1039
  596TIP3    H1 1752   6.250   5.545   0.631 -1.3520  1.6053 -1.4113
  596TIP3    H2 1753   6.216   5.685   0.677  1.1502  1.2244  2.0230
  597TIP3   OH2 1754   4.846   5.934   4.373 -0.1655 -0.4171 -0.4103
  597TIP3    H1 1755   4.783   5.933   4.445 -0.2082 -0.8688 -0.4498
  597TIP3    H2 1756   4.833   6.019   4.331  1.7942  1.0751  1.7836
  598TIP3   OH2 1757   2.410   3.741   0.289  0.8824 -0.4767 -0.1357
  598TIP3    H1 1758   2.392   3.798   0.215  0.7728  0.2048  0.4055
  598TIP3    H2 1759   2.424   3.800   0.363 -2.1335 -1.1279  1.1245
  599TIP3   OH2 1760   2.175   5.895   2.094  0.0187 -0.4709  0.1938
  599TIP3    H1 1761   2.154   5.988   2.104  2.0862  0.0755 -0.0112
  599TIP3    H2 1762   2.091   5.850   2.102 -0.7396  1.1848  2.9554
  600TIP3   OH2 1763   6.800   6.607   5.509  1.0998 -0.4729  0.3612
  600TIP3    H1 1764   6.732   6.606   5.576 -0.1946 -3.6568 -0.7523
  600TIP3    H2 1765   6.819   6.699   5.494  0.0737  0.4053  3.6585
  601TIP3   OH2 1766   2.379   1.821   2.190 -0.1370 -0.1782 -0.2366
  601TIP3    H1 1767   2.392   1.727   2.192  1.3674 -0.0067 -0.5915
  601TIP3    H2 1768   2.409   1.852   2.275 -0.6936 -0.0194 -0.0940
  602TIP3   OH2 1769   2.474   4.843   3.671  0.0839  0.5870 -0.1756
  602TIP3    H1 1770   2.554   4.876   3.714 -1.0912  1.9897  1.0406
  602TIP3    H2 1771   2.454   4.762   3.718  0.7606  0.2332 -0.4755
  603TIP3   OH2 1772   1.416   5.727   0.113  0.4286 -0.0095 -0.0719
  603TIP3    H1 1773   1.478   5.732   0.186 -0.1456 -0.0420  0.4287
  603TIP3    H2 1774   1.378   5.639   0.121  0.0766  0.1335 -0.1710
  604TIP3   OH2 1775   1.936   5.686   5.406  0.2293 -0.3512  0.1107
  604TIP3    H1 1776   1.937   5.591   5.401 -1.7718 -0.4534  0.9575
  604TIP3    H2 1777   1.968   5.715   5.321  2.1567 -1.7386  0.2974
  605TIP3   OH2 1778   0.935   6.455   5.637  0.1073  0.0566  0.1754
  605TIP3    H1 1779   0.857   6.474   5.689  1.1673  1.3772  1.3716
  605TIP3    H2 1780   0.998   6.522   5.664  0.5412  1.2810 -3.2959
  606TIP3   OH2 1781   6.995   0.893   0.924  0.1228  0.5574  0.0909
  606TIP3    H1 1782   6.903   0.889   0.952  1.1268 -2.1594  3.6763
  606TIP3    H2 1783   7.025   0.980   0.950 -0.7395  0.4504  1.5175
  607TIP3   OH2 1784   2.361   4.331   0.419  1.1911  0.2556 -0.3306
  607TIP3    H1 1785   2.279   4.377   0.399  0.8675  0.8541  2.0547
  607TIP3    H2 1786   2.375   4.273   0.345 -1.2474  0.3449 -0.9431
  608TIP3   OH2 1787   1.992   3.460   5.014 -0.5870  0.4093 -0.1212
  608TIP3    H1 1788   2.052   3.387   5.002 -0.5453  0.6956 -1.8817
  608TIP3    H2 1789   1.914   3.436   4.964 -1.3873  0.6836  0.9519
  609TIP3   OH2 1790   7.168   1.135   2.913 -0.4523  0.4305  0.0090
  609TIP3    H1 1791   7.177   1.043   2.889  1.7390  0.6927 -0.4169
  609TIP3    H2 1792   7.225   1.181   2.851 -2.0608  2.1771 -0.2602
  610TIP3   OH2 1793   2.286   1.318   0.344  0.7497  0.1391 -0.0406
  610TIP3    H1 1794   2.269   1.396   0.291  2.8635 -0.3635 -1.6076
  610TIP3    H2 1795   2.284   1.246   0.281  1.1889 -0.7606  0.9432
  611TIP3   OH2 1796   5.973   5.938   4.652  0.0655  0.2935  0.4414
  611TIP3    H1 1797   6.054   5.922   4.700  1.6603  1.8768 -1.5027
  611TIP3    H2 1798   5.961   5.861   4.597  1.1091  0.6388 -0.3046
  612TIP3   OH2 1799   4.240   0.082   3.643  0.6066  0.1186 -0.1300
  612TIP3    H1 1800   4.268   0.127   3.723  1.2790  0.8184 -0.7466
  612TIP3    H2 1801   4.308   0.103   3.579  0.2972 -0.7918 -0.7664
  613TIP3   OH2 1802   1.270   1.119   5.334  0.3153  0.3059 -0.0614
  613TIP3    H1 1803   1.182   1.093   5.306  0.3460 -0.7638  0.7390
  613TIP3    H2 1804   1.271   1.214   5.325 -0.2743  0.1708 -1.8652
  614TIP3   OH2 1805   5.194   6.426   1.000 -0.4490 -0.2013  0.0704
  614TIP3    H1 1806   5.127   6.401   1.064  1.4240 -1.0225  1.8174
  614TIP3    H2 1807   5.222   6.514   1.027  0.8849 -0.8550  0.9261
  615TIP3   OH2 1808   0.095   2.606   0.133  0.6647 -0.3468  0.0358
  615TIP3    H1 1809   0.128   2.571   0.216 -0.0887 -0.4428  0.3036
  615TIP3    H2 1810   0.117   2.539   0.068 -0.1116 -1.0040  0.4260
  616TIP3   OH2 1811   0.111   2.768   2.976  0.1931 -0.3417 -0.5249
  616TIP3    H1 1812   0.110   2.863   2.977 -0.3211 -0.3385 -0.7739
  616TIP3    H2 1813   0.204   2.744   2.979  0.3342  0.1698 -0.7959
  617TIP3   OH2 1814   6.030   0.452   5.659  0.1311 -0.0431 -0.2397
  617TIP3    H1 1815   6.121   0.438   5.633 -0.3469 -2.9148 -0.7446
  617TIP3    H2 1816   6.022   0.407   5.743 -0.1269  2.9652  1.4794
  618TIP3   OH2 1817   5.480   5.400   0.358  0.0369  0.6793 -0.1462
  618TIP3    H1 1818   5.562   5.427   0.401  0.2553  0.0493 -0.1594
  618TIP3    H2 1819   5.415   5.461   0.392  0.1008 -0.1036  1.4972
  619TIP3   OH2 1820   1.966   2.151   5.511  0.2894 -0.2397  0.4760
  619TIP3    H1 1821   2.027   2.148   5.585  0.6117 -0.1288  0.2180
  619TIP3    H2 1822   2.021   2.134   5.435 -0.1903 -1.3336  0.3479
  620TIP3   OH2 1823   2.875   3.200   1.616 -0.1925  0.1827  0.2345
  620TIP3    H1 1824   2.954   3.233   1.659 -0.2488  0.5381  0.0658
  620TIP3    H2 1825   2.890   3.213   1.523  0.0316 -0.8243  0.1243
  621TIP3   OH2 1826   1.634   2.070   4.200 -0.1311  0.1699  0.3226
  621TIP3    H1 1827   1.725   2.082   4.227 -0.1142 -1.0668  0.8794
  621TIP3    H2 1828   1.598   2.158   4.198  1.1867  0.7275 -0.3341
  622TIP3   OH2 1829   1.897   5.678   0.406 -0.1502 -0.0839 -0.1330
  622TIP3    H1 1830   1.890   5.609   0.340 -0.3277 -1.6974  1.4587
  622TIP3    H2 1831   1.846   5.751   0.372 -0.1516 -0.8287 -1.7900
  623TIP3   OH2 1832   2.436   5.716   0.383  0.5939 -0.3982  0.1300
  623TIP3    H1 1833   2.382   5.758   0.316 -0.5564  2.0729  2.4088
  623TIP3    H2 1834   2.513   5.686   0.336 -0.2295  1.0195 -2.3307
  624TIP3   OH2 1835   4.035   0.049   2.383  0.5396 -0.0534 -0.0941
  624TIP3    H1 1836   4.111   0.019   2.433  1.1687 -0.4323 -1.2432
  624TIP3    H2 1837   4.071   0.112   2.321  0.1872 -1.3400 -1.6585
  625TIP3   OH2 1838   4.396   6.192   0.768 -0.4305 -0.4411 -0.5243
  625TIP3    H1 1839   4.459   6.245   0.719  0.5332 -0.8510  0.2153
  625TIP3    H2 1840   4.449   6.153   0.838 -1.5600 -0.6482  0.2293
  626TIP3   OH2 1841   1.122   2.774   0.796 -0.0527 -0.3192  0.3865
  626TIP3    H1 1842   1.073   2.855   0.782 -0.8009 -0.9261 -0.6235
  626TIP3    H2 1843   1.106   2.751   0.887  0.4654  0.8577  0.7898
  627TIP3   OH2 1844   6.120   1.044   2.589 -0.1103 -0.4928 -0.1677
  627TIP3    H1 1845   6.194   1.020   2.644 -0.8395 -0.4512  0.8610
  627TIP3    H2 1846   6.075   1.114   2.638  0.1478  0.7211 -1.5919
  628TIP3   OH2 1847   0.245   6.606   1.324  0.5769  0.6954 -0.2445
  628TIP3    H1 1848   0.175   6.639   1.379 -0.1987 -2.3706  0.7834
  628TIP3    H2 1849   0.319   6.593   1.384  1.0493  1.0702 -0.7338
  629TIP3   OH2 1850   4.476   3.788   1.569 -0.0042  0.4885  0.6091
  629TIP3    H1 1851   4.558   3.807   1.615  0.0368  1.4614  0.1690
  629TIP3    H2 1852   4.503   3.742   1.489  0.3455  2.6076 -0.5700
  630TIP3   OH2 1853   1.248   0.306   5.764 -0.6240  0.0828 -0.3203
  630TIP3    H1 1854   1.292   0.221   5.764 -1.3722 -0.3453  1.0147
  630TIP3    H2 1855   1.295   0.357   5.829 -0.1496  0.7143 -1.1515
  631TIP3   OH2 1856   3.529   6.519   5.261 -0.2422  0.0048  0.2068
  631TIP3    H1 1857   3.593   6.493   5.327 -0.7808 -0.3928  0.5811
  631TIP3    H2 1858   3.454   6.461   5.275  0.0415 -0.8284 -1.4570
  632TIP3   OH2 1859   7.114   6.806   0.882  0.0054  0.0479  0.3590
  632TIP3    H1 1860   7.171   6.735   0.853 -0.5769  0.3907 -1.8128
  632TIP3    H2 1861   7.165   6.853   0.947  1.6526 -0.4975 -0.4774
  633TIP3   OH2 1862   6.514   4.954   0.880  0.2582 -0.1228  0.0499
  633TIP3    H1 1863   6.601   4.987   0.859  0.1795 -0.6234 -1.1269
  633TIP3    H2 1864   6.510   4.868   0.838 -0.1971 -0.8603  1.5101
  634TIP3   OH2 1865   4.554   3.676   2.225 -0.2593  0.4088  0.0802
  634TIP3    H1 1866   4.525   3.687   2.315 -0.2173 -0.1455  0.1655
  634TIP3    H2 1867   4.615   3.602   2.228 -1.4923 -0.6814 -0.6637
  635TIP3   OH2 1868   4.184   3.026   3.301  0.1150  0.1951  0.7396
  635TIP3    H1 1869   4.184   3.025   3.397 -1.2715 -0.1639  0.7525
  635TIP3    H2 1870   4.130   2.951   3.276  1.6616 -0.5950 -0.3627
  636TIP3   OH2 1871   2.814   2.575   2.722 -0.5880  0.3137  0.4830
  636TIP3    H1 1872   2.730   2.548   2.685 -1.0444  1.3421  0.7459
  636TIP3    H2 1873   2.839   2.503   2.780 -1.7991  0.4493  1.2013
  637TIP3   OH2 1874   3.586   2.841   5.732  0.0357  0.1167 -0.0867
  637TIP3    H1 1875   3.666   2.790   5.718  0.3419  0.1975  1.1864
  637TIP3    H2 1876   3.612   2.932   5.718  0.2758  0.1756  0.6820
  638TIP3   OH2 1877   0.816   4.333   1.350 -0.0664 -0.0731  0.1708
  638TIP3    H1 1878   0.906   4.318   1.322  0.0563 -0.8310  0.9200
  638TIP3    H2 1879   0.790   4.250   1.391 -1.3959 -0.1632 -0.7940
  639TIP3   OH2 1880   3.871   1.238   2.603 -0.1433 -0.4053 -0.1535
  639TIP3    H1 1881   3.792   1.186   2.619  0.1481 -0.8525 -0.1567
  639TIP3    H2 1882   3.924   1.226   2.681  0.6938 -1.5298 -0.8595
  640TIP3   OH2 1883   0.538   3.080   0.053 -0.6622 -0.2335 -0.2242
  640TIP3    H1 1884   0.510   3.160   0.008 -2.1028 -0.5252  0.1105
  640TIP3    H2 1885   0.620   3.105   0.096 -0.1729  0.5420 -1.5596
  641TIP3   OH2 1886   0.118   4.364   5.257 -0.1800  0.3116 -0.5753
  641TIP3    H1 1887   0.065   4.428   5.304  0.3535 -0.5757  1.3162
  641TIP3    H2 1888   0.087   4.279   5.288  0.3326 -0.3137 -1.7030
  642TIP3   OH2 1889   6.022   4.567   3.523 -0.5713 -0.3380 -0.0345
  642TIP3    H1 1890   5.929   4.556   3.540 -0.2775 -0.8201  1.4385
  642TIP3    H2 1891   6.060   4.480   3.538  0.0534 -0.2786 -1.1566
  643TIP3   OH2 1892   4.267   6.004   0.927  0.0840  0.2327 -0.2809
  643TIP3    H1 1893   4.303   6.063   0.861  3.3716 -1.7433 -0.4674
  643TIP3    H2 1894   4.316   6.026   1.007  0.4219 -1.3315 -0.0394
  644TIP3   OH2 1895   1.377   2.284   3.941  0.1579 -0.3455  0.0674
  644TIP3    H1 1896   1.349   2.223   3.872  0.3686 -0.9906  0.5457
  644TIP3    H2 1897   1.316   2.269   4.013  1.8521 -2.0078  1.2533
  645TIP3   OH2 1898   4.667   3.654   2.508 -0.5607 -0.2106  0.1665
  645TIP3    H1 1899   4.729   3.679   2.440 -2.0629  1.5687 -0.6451
  645TIP3    H2 1900   4.654   3.734   2.559 -0.4166 -1.1870  1.7758
  646TIP3   OH2 1901   1.739   6.292   0.130  0.1086  0.7203  0.2903
  646TIP3    H1 1902   1.779   6.210   0.158 -2.1716 -0.3817  0.5379
  646TIP3    H2 1903   1.798   6.360   0.162  1.6640 -0.7818  0.7336
  647TIP3   OH2 1904   0.090   2.850   2.551 -0.1237 -0.5870  0.5758
  647TIP3    H1 1905   0.125   2.826   2.465 -0.1464 -0.1602  0.4490
  647TIP3    H2 1906  -0.003   2.866   2.535  0.6000  3.8549 -0.2376
  648TIP3   OH2 1907   2.661   0.444   3.458  0.0234 -0.2573  0.1034
  648TIP3    H1 1908   2.676   0.494   3.378 -0.7163 -1.1599 -0.6212
  648TIP3    H2 1909   2.610   0.502   3.514 -1.4258 -0.4182 -1.0059
  649TIP3   OH2 1910   4.614   3.428   3.102  0.2919 -0.6053  0.1288
  649TIP3    H1 1911   4.642   3.384   3.021  0.5843  0.1356 -0.1797
  649TIP3    H2 1912   4.519   3.421   3.101  0.3800 -2.8941  1.0382
  650TIP3   OH2 1913   4.942   3.631   4.387  0.8969 -0.1963 -0.1330
  650TIP3    H1 1914   4.923   3.690   4.461 -1.3683  0.2948 -1.0084
  650TIP3    H2 1915   4.937   3.543   4.425 -1.7280 -0.0285  0.1421
  651TIP3   OH2 1916   5.612   4.969   2.833  0.1148 -0.3335  0.2425
  651TIP3    H1 1917   5.554   4.926   2.770  0.2123 -0.7174  0.4156
  651TIP3    H2 1918   5.700   4.956   2.796  0.1268 -0.1050  0.1896
  652TIP3   OH2 1919   5.802   5.566   1.530  0.7532  0.4756 -0.0337
  652TIP3    H1 1920   5.837   5.567   1.619  0.5431 -0.1395  0.0584
  652TIP3    H2 1921   5.775   5.656   1.514  0.1901  0.4608  0.7660
  653TIP3   OH2 1922   5.000   1.060   3.909  0.7841 -0.0296  0.2725
  653TIP3    H1 1923   4.962   1.094   3.990  0.6751  1.8671 -0.5139
  653TIP3    H2 1924   4.958   1.111   3.839 -0.2644 -2.6414 -1.1489
  654TIP3   OH2 1925   1.094   4.302   1.231 -0.4846  0.0962  0.6924
  654TIP3    H1 1926   1.139   4.222   1.256 -0.0224  0.1571  0.0773
  654TIP3    H2 1927   1.163   4.368   1.226 -0.9360  0.6786  1.7519
  655TIP3   OH2 1928   1.359   3.777   4.356  0.0134  0.0725 -0.0698
  655TIP3    H1 1929   1.270   3.774   4.322 -0.2826  0.3522  0.6659
  655TIP3    H2 1930   1.379   3.871   4.362  0.7289  0.0171 -1.1499
  656TIP3   OH2 1931   2.484   4.848   0.755  0.3127 -0.0626  0.1913
  656TIP3    H1 1932   2.550   4.790   0.715 -0.6857 -0.1008 -1.4929
  656TIP3    H2 1933   2.421   4.789   0.796 -0.2747 -0.1659 -0.8316
  657TIP3   OH2 1934   3.027   0.419   0.806 -0.1761 -0.1674 -0.5479
  657TIP3    H1 1935   2.982   0.346   0.763 -0.7845 -0.0617 -0.1018
  657TIP3    H2 1936   2.998   0.497   0.758  0.0917 -0.1671 -0.7121
  658TIP3   OH2 1937   1.558   3.330   3.187 -0.2295  0.3676  0.4198
  658TIP3    H1 1938   1.517   3.255   3.230  1.0050  0.2462  1.4196
  658TIP3    H2 1939   1.506   3.342   3.107  0.8435 -3.0214 -1.0212
  659TIP3   OH2 1940   4.742   0.224   3.015  0.3690  0.0203 -0.7269
  659TIP3    H1 1941   4.719   0.269   2.934 -3.0150  1.9004  1.0361
  659TIP3    H2 1942   4.687   0.146   3.015  0.0260  0.2538 -0.0873
  660TIP3   OH2 1943   3.587   4.601   0.755 -0.0475  0.0546  0.0305
  660TIP3    H1 1944   3.524   4.664   0.721 -1.8109 -0.7515  1.6096
  660TIP3    H2 1945   3.625   4.643   0.832 -0.7078 -0.4949  0.6729
  661TIP3   OH2 1946   6.375   4.527   1.913  0.3120 -0.6187 -0.1409
  661TIP3    H1 1947   6.337   4.508   1.827 -0.3352 -0.5657  0.1283
  661TIP3    H2 1948   6.416   4.445   1.940  0.4537 -0.6572 -0.4649
  662TIP3   OH2 1949   7.212   6.408   0.376 -0.0672  0.2702  0.6823
  662TIP3    H1 1950   7.141   6.466   0.405  0.4566  0.2612  2.0561
  662TIP3    H2 1951   7.191   6.388   0.285 -0.9127  1.6399  0.5451
  663TIP3   OH2 1952   1.424   5.057   1.098  0.5873  0.2755  0.3200
  663TIP3    H1 1953   1.372   5.136   1.114 -0.2793 -0.1323 -0.4396
  663TIP3    H2 1954   1.499   5.066   1.157 -0.8108  0.4021  2.1664
  664TIP3   OH2 1955   5.222   6.702   2.910 -0.0664  0.2306 -0.1278
  664TIP3    H1 1956   5.311   6.716   2.879 -0.8052 -0.2241 -2.6801
  664TIP3    H2 1957   5.174   6.674   2.832 -1.9994 -1.5038  1.5931
  665TIP3   OH2 1958   6.930   4.578   0.512 -0.5422  0.0550 -0.2183
  665TIP3    H1 1959   7.019   4.551   0.533 -1.0756 -0.6599  1.2198
  665TIP3    H2 1960   6.938   4.620   0.426  1.2780  0.5776  0.1484
  666TIP3   OH2 1961   5.847   4.826   1.893  0.2541  0.4958 -0.8289
  666TIP3    H1 1962   5.757   4.840   1.923 -0.0895  2.4486 -2.5444
  666TIP3    H2 1963   5.852   4.732   1.877 -1.3409  0.2804 -0.2702
  667TIP3   OH2 1964   0.018   1.165   0.171  0.3576  0.1622 -0.1159
  667TIP3    H1 1965  -0.029   1.157   0.088  0.3593 -0.3264 -0.0683
  667TIP3    H2 1966   0.105   1.129   0.154  0.5947  0.7050 -0.0937
  668TIP3   OH2 1967   6.748   6.735   3.339  0.4879  0.0524 -0.2328
  668TIP3    H1 1968   6.728   6.785   3.259  0.9252  0.0836 -0.3243
  668TIP3    H2 1969   6.841   6.715   3.332  0.3232 -0.7594 -0.1845
  669TIP3   OH2 1970   5.110   5.114   5.566  0.6899  0.4358 -0.3868
  669TIP3    H1 1971   5.144   5.182   5.624 -2.4993  0.9292  1.1109
  669TIP3    H2 1972   5.025   5.148   5.537 -0.5266 -2.4087 -0.4747
  670TIP3   OH2 1973   2.716   5.865   0.920  0.1939  0.1243 -0.4200
  670TIP3    H1 1974   2.758   5.906   0.995  3.5297 -1.4666 -1.2030
  670TIP3    H2 1975   2.698   5.937   0.859 -0.2455  1.1219  0.8556
  671TIP3   OH2 1976   2.843   3.413   2.871 -0.1099 -0.3730  0.1266
  671TIP3    H1 1977   2.856   3.386   2.962  0.3486  0.5036  0.3327
  671TIP3    H2 1978   2.912   3.369   2.822 -0.4092 -0.9138  0.1819
  672TIP3   OH2 1979   3.246   0.439   5.094 -0.0620  0.7434  0.0660
  672TIP3    H1 1980   3.273   0.463   5.182  2.0936  1.1009 -0.6560
  672TIP3    H2 1981   3.207   0.519   5.058 -0.2015  0.8279  0.4003
  673TIP3   OH2 1982   4.300   1.518   4.293  0.4481 -0.0700  0.0375
  673TIP3    H1 1983   4.315   1.589   4.355 -1.6182 -0.0901  0.6390
  673TIP3    H2 1984   4.322   1.438   4.341 -0.0172 -0.0037  0.3751
  674TIP3   OH2 1985   4.312   2.458   3.958 -0.2217  0.1473 -0.4869
  674TIP3    H1 1986   4.237   2.405   3.985 -0.7470  1.0651 -0.0936
  674TIP3    H2 1987   4.308   2.457   3.862 -1.1702  0.7632 -0.4675
  675TIP3   OH2 1988   5.875   6.335   0.438  0.2918  0.6811 -0.9212
  675TIP3    H1 1989   5.856   6.398   0.369  0.2830  1.0223 -0.6107
  675TIP3    H2 1990   5.807   6.268   0.430  0.4370  0.5883 -1.3994
  676TIP3   OH2 1991   0.062   4.161   5.015  0.0434  0.0882 -0.5701
  676TIP3    H1 1992   0.044   4.165   4.921  1.3601  0.4477 -0.8394
  676TIP3    H2 1993  -0.023   4.145   5.056 -0.3799 -1.2544 -1.8973
  677TIP3   OH2 1994   0.478   6.701   0.656 -0.6738 -0.0197 -0.1919
  677TIP3    H1 1995   0.417   6.738   0.593  0.0261 -1.4647 -1.7784
  677TIP3    H2 1996   0.564   6.734   0.628 -0.5948  1.5794  1.7046
  678TIP3   OH2 1997   6.997   6.364   2.816  0.2197 -0.3717  0.2891
  678TIP3    H1 1998   6.916   6.406   2.844  0.2716  0.0853 -0.2259
  678TIP3    H2 1999   6.984   6.345   2.723  0.8045 -0.0213  0.1262
  679TIP3   OH2 2000   1.087   4.264   1.893  0.5785  0.3387 -0.2045
  679TIP3    H1 2001   1.075   4.254   1.799  0.4500  1.5353 -0.3298
  679TIP3    H2 2002   1.174   4.301   1.903  0.1555  1.3015  0.0621
  680TIP3   OH2 2003   6.753   4.677   2.679 -0.1793  0.7207  0.3598
  680TIP3    H1 2004   6.679   4.732   2.654  0.4064  0.3925 -2.3747
  680TIP3    H2 2005   6.720   4.588   2.672  0.4414  0.5747 -0.8282
  681TIP3   OH2 2006   2.552   5.835   4.131  0.5260 -0.2067 -0.3028
  681TIP3    H1 2007   2.585   5.747   4.152  0.2557 -0.4535 -0.8726
  681TIP3    H2 2008   2.578   5.889   4.205 -0.2069 -0.9917  0.5631
  682TIP3   OH2 2009   2.574   3.489   2.859 -0.1360 -0.1376  0.0633
  682TIP3    H1 2010   2.540   3.455   2.941  0.8198 -0.1989  0.4533
  682TIP3    H2 2011   2.662   3.451   2.852  1.0723  2.3509  0.6133
  683TIP3   OH2 2012   0.914   5.845   1.153 -0.2366  0.4724 -0.2907
  683TIP3    H1 2013   0.819   5.838   1.146 -0.2652  1.1103 -0.5871
  683TIP3    H2 2014   0.946   5.808   1.071 -0.2686  1.0641 -0.5744
  684TIP3   OH2 2015   4.831   3.103   0.619  0.0701  0.2671  0.2538
  684TIP3    H1 2016   4.822   3.169   0.551  2.1199  0.4794  0.1231
  684TIP3    H2 2017   4.914   3.059   0.599 -0.3385 -1.1010  1.4014
  685TIP3   OH2 2018   5.057   6.056   2.956 -0.0348 -0.0194  0.0324
  685TIP3    H1 2019   5.128   5.997   2.982  0.6899  0.3381 -1.0468
  685TIP3    H2 2020   5.102   6.136   2.928 -0.9243  0.5325  0.1474
  686TIP3   OH2 2021   5.214   5.102   0.338 -0.3303  0.0879  0.7534
  686TIP3    H1 2022   5.296   5.097   0.289 -1.3064 -1.7625 -0.8027
  686TIP3    H2 2023   5.154   5.043   0.292 -2.2790  0.6790  2.3716
  687TIP3   OH2 2024   2.146   1.244   5.594  0.0523  0.2426  0.1075
  687TIP3    H1 2025   2.193   1.163   5.576 -0.3627 -0.4909  2.0685
  687TIP3    H2 2026   2.056   1.226   5.569  0.1711  0.5140 -0.5382
  688TIP3   OH2 2027   0.047   5.200   4.408 -0.6775  0.2141 -0.1874
  688TIP3    H1 2028   0.066   5.168   4.497 -0.4195  0.3225 -0.2031
  688TIP3    H2 2029  -0.011   5.275   4.422 -0.4652  0.3635 -0.0965
  689TIP3   OH2 2030   6.588   3.508   0.543 -1.0268  0.5003  0.6740
  689TIP3    H1 2031   6.643   3.581   0.569 -0.6082  0.9717 -1.3256
  689TIP3    H2 2032   6.601   3.442   0.611 -0.2056  1.6957  1.7041
  690TIP3   OH2 2033   5.994   5.405   0.559  0.1244  0.1071  0.0266
  690TIP3    H1 2034   5.999   5.418   0.654 -1.9969 -0.5827  0.2749
  690TIP3    H2 2035   6.059   5.336   0.541  1.1470  0.8327  0.8177
  691TIP3   OH2 2036   7.092   2.574   2.423 -0.6222  0.6877 -0.1917
  691TIP3    H1 2037   7.084   2.591   2.516  0.2008  1.1547 -0.1914
  691TIP3    H2 2038   7.127   2.655   2.387 -2.4319  1.0869 -1.1703
  692TIP3   OH2 2039   5.990   4.126   0.358  0.0252 -0.0087 -0.5637
  692TIP3    H1 2040   6.001   4.218   0.382 -0.5513 -0.0150 -0.2614
  692TIP3    H2 2041   5.897   4.107   0.375 -0.0730 -0.3964 -1.4888
  693TIP3   OH2 2042   3.535   3.220   3.777  0.1750  0.2564 -0.1469
  693TIP3    H1 2043   3.619   3.257   3.751  0.4596 -0.0885  0.2734
  693TIP3    H2 2044   3.526   3.141   3.723  1.1143 -0.8740  1.2914
  694TIP3   OH2 2045   0.804   2.426   1.667  0.0459  0.6556  0.3055
  694TIP3    H1 2046   0.842   2.505   1.628  1.0498 -0.3136 -0.7366
  694TIP3    H2 2047   0.850   2.353   1.625 -1.8928 -0.5521  0.1310
  695TIP3   OH2 2048   4.590   5.687   5.692 -0.3571 -0.3478 -0.4808
  695TIP3    H1 2049   4.588   5.766   5.745 -2.1879  1.1938 -2.6658
  695TIP3    H2 2050   4.672   5.644   5.717 -0.6000  0.7691  2.7415
  696TIP3   OH2 2051   0.830   5.459   0.865  0.6288  0.0991  0.5641
  696TIP3    H1 2052   0.867   5.547   0.873  1.4440 -0.1344 -0.4712
  696TIP3    H2 2053   0.906   5.402   0.855  0.0350 -0.4638 -0.9862
  697TIP3   OH2 2054   3.304   4.448   0.788 -0.3715  0.0589 -0.4557
  697TIP3    H1 2055   3.219   4.485   0.814 -0.6679  0.4063 -1.8082
  697TIP3    H2 2056   3.341   4.413   0.868 -1.5720  0.3699  0.2571
  698TIP3   OH2 2057   6.515   4.384   4.290  0.0049 -0.1698  0.3364
  698TIP3    H1 2058   6.534   4.406   4.198 -0.7944 -0.4139  0.1066
  698TIP3    H2 2059   6.542   4.462   4.339  0.3898 -0.0174 -0.1078
  699TIP3   OH2 2060   2.685   2.308   2.993  0.1389 -0.3282  0.4694
  699TIP3    H1 2061   2.765   2.308   2.940  0.9982 -2.0373  1.6566
  699TIP3    H2 2062   2.670   2.400   3.015  1.5504  0.0686 -0.1178
  700TIP3   OH2 2063   6.731   6.329   4.171  0.2868 -0.3284 -0.5353
  700TIP3    H1 2064   6.656   6.301   4.223  0.2066 -1.3281 -1.1493
  700TIP3    H2 2065   6.784   6.250   4.161  2.9237  0.8967  2.1949
  701TIP3   OH2 2066   4.613   1.541   5.240  0.8151 -0.0116  0.0879
  701TIP3    H1 2067   4.585   1.456   5.208  0.5480  0.2318 -0.3408
  701TIP3    H2 2068   4.707   1.545   5.221  0.3020  1.0025 -2.7861
  702TIP3   OH2 2069   4.671   1.102   2.861  0.1403 -0.6775  0.2567
  702TIP3    H1 2070   4.765   1.083   2.862  0.8319  2.2309 -0.3825
  702TIP3    H2 2071   4.663   1.182   2.913 -2.2351 -1.5937  1.4403
  703TIP3   OH2 2072   0.862   6.711   2.648 -0.3319  0.2706 -0.0510
  703TIP3    H1 2073   0.786   6.687   2.595  0.5890 -0.7292 -0.9826
  703TIP3    H2 2074   0.880   6.802   2.625 -0.4560  0.1032 -0.8561
  704TIP3   OH2 2075   2.730   4.821   5.638  0.1083  0.2270  0.4994
  704TIP3    H1 2076   2.801   4.770   5.598 -2.5415 -3.0959 -0.5278
  704TIP3    H2 2077   2.690   4.868   5.565 -0.6348 -0.4632  0.4477
  705TIP3   OH2 2078   1.961   3.589   3.518  0.4315  0.2408  0.0800
  705TIP3    H1 2079   2.001   3.605   3.432 -1.8634  0.0848 -1.1036
  705TIP3    H2 2080   1.967   3.494   3.529 -1.2284 -0.0513 -1.0342
  706TIP3   OH2 2081   0.011   1.226   4.495  0.3058  0.2712  0.5128
  706TIP3    H1 2082   0.037   1.135   4.513 -0.0016  0.3172  1.2065
  706TIP3    H2 2083   0.086   1.262   4.447  0.1425 -0.5398 -0.3884
  707TIP3   OH2 2084   3.698   5.882   4.691 -0.0279 -0.1309  0.3893
  707TIP3    H1 2085   3.607   5.891   4.719 -0.9755 -1.2023 -2.0515
  707TIP3    H2 2086   3.732   5.810   4.743 -0.6485  0.0981  1.1274
  708TIP3   OH2 2087   3.717   3.173   0.691 -0.1350 -0.3458 -0.0048
  708TIP3    H1 2088   3.730   3.119   0.769 -2.0921 -0.5877  0.1894
  708TIP3    H2 2089   3.783   3.241   0.699  0.7082 -1.2366  1.0666
  709TIP3   OH2 2090   2.201   0.944   3.143  0.6913  0.2123 -0.0118
  709TIP3    H1 2091   2.174   0.877   3.080 -1.4417  0.7300  0.2813
  709TIP3    H2 2092   2.175   1.027   3.103 -0.7839  0.5448  1.5411
  710TIP3   OH2 2093   4.950   4.667   3.142  0.3324 -0.1871  0.2366
  710TIP3    H1 2094   5.008   4.619   3.083  0.8193  0.6949 -0.0191
  710TIP3    H2 2095   5.000   4.676   3.223  0.5647  0.5987  0.0078
  711TIP3   OH2 2096   1.713   5.603   1.633 -0.2922  0.3081  0.9323
  711TIP3    H1 2097   1.721   5.523   1.581  0.4223  0.2534  1.1116
  711TIP3    H2 2098   1.754   5.671   1.580  0.1577  0.3144  1.2774
  712TIP3   OH2 2099   1.921   1.386   3.043 -0.0540  0.4221 -0.3800
  712TIP3    H1 2100   1.841   1.419   3.083 -0.3806 -1.6218  0.7289
  712TIP3    H2 2101   1.979   1.462   3.040 -1.2061  1.3896  0.9150
  713TIP3   OH2 2102   2.930   2.827   2.769  0.2620 -0.1075 -0.1769
  713TIP3    H1 2103   2.856   2.884   2.750  0.3768  0.8084  1.8268
  713TIP3    H2 2104   2.895   2.739   2.760 -0.5851  0.2923 -0.9802
  714TIP3   OH2 2105   4.747   5.629   1.204  0.3761 -0.6777 -0.6515
  714TIP3    H1 2106   4.676   5.580   1.245 -0.8295  0.0438 -1.8113
  714TIP3    H2 2107   4.789   5.675   1.277 -0.9406 -0.3729 -0.0480
  715TIP3   OH2 2108   4.986   5.844   5.320 -0.2555  0.3311  0.3057
  715TIP3    H1 2109   5.014   5.835   5.229 -0.2366  1.4105  0.1958
  715TIP3    H2 2110   5.041   5.782   5.368 -0.3247 -0.3158 -0.4191
  716TIP3   OH2 2111   6.836   6.063   4.087  0.2978 -0.1340  0.3919
  716TIP3    H1 2112   6.790   6.021   4.014  2.2684  0.3028 -1.1785
  716TIP3    H2 2113   6.816   6.008   4.162 -1.0579 -1.1388 -0.6484
  717TIP3   OH2 2114   1.491   1.641   5.260  0.4073  0.4788 -0.1408
  717TIP3    H1 2115   1.546   1.579   5.211  0.5322  1.6303 -1.5371
  717TIP3    H2 2116   1.550   1.680   5.324  0.1856 -1.2349  1.1684
  718TIP3   OH2 2117   5.718   2.923   2.934 -0.2058  0.3133 -0.2169
  718TIP3    H1 2118   5.637   2.891   2.894 -0.8164  0.2852  0.9824
  718TIP3    H2 2119   5.762   2.843   2.965  0.8050  0.2327 -1.7468
  719TIP3   OH2 2120   5.672   0.300   1.346 -0.1453  0.0324 -0.2664
  719TIP3    H1 2121   5.625   0.365   1.294 -1.7856  0.4873  1.6823
  719TIP3    H2 2122   5.608   0.232   1.365  0.6931 -0.6094  0.3701
  720TIP3   OH2 2123   4.445   4.395   1.207  0.0568  0.1777  0.3669
  720TIP3    H1 2124   4.524   4.376   1.156 -0.1134 -0.0527  0.1845
  720TIP3    H2 2125   4.462   4.479   1.247 -1.0162  1.9478 -2.5532
  721TIP3   OH2 2126   0.771   4.120   5.492 -0.2245 -0.1142 -0.0411
  721TIP3    H1 2127   0.834   4.192   5.487 -0.0336 -0.2026  0.9617
  721TIP3    H2 2128   0.688   4.160   5.466  0.0644  0.2156 -0.4893
  722TIP3   OH2 2129   2.136   2.344   1.723  0.2899  0.3442 -0.0976
  722TIP3    H1 2130   2.128   2.268   1.666  1.6174  1.0290 -1.2560
  722TIP3    H2 2131   2.165   2.307   1.807  2.0852 -0.3718 -0.9714
  723TIP3   OH2 2132   2.327   1.932   4.621 -0.4462  0.2822 -0.3834
  723TIP3    H1 2133   2.389   1.993   4.582  0.6709 -0.7349 -0.2849
  723TIP3    H2 2134   2.383   1.863   4.658 -1.6577 -0.7941 -0.5143
  724TIP3   OH2 2135   5.410   4.606   0.291  0.4205  0.1213  0.1240
  724TIP3    H1 2136   5.431   4.672   0.225  1.2062  0.2841  0.5210
  724TIP3    H2 2137   5.446   4.524   0.256 -1.5870 -0.3917 -0.9317
  725TIP3   OH2 2138   1.529   0.865   1.093  0.3313 -0.5163  0.3095
  725TIP3    H1 2139   1.622   0.876   1.115  0.3144  2.3311 -0.6080
  725TIP3    H2 2140   1.482   0.894   1.172  0.2817  1.1445 -0.2868
  726TIP3   OH2 2141   3.244   3.627   0.911  0.4731 -0.0214 -0.2531
  726TIP3    H1 2142   3.276   3.715   0.932 -0.6026  1.0425 -2.7179
  726TIP3    H2 2143   3.200   3.637   0.827  0.1191 -2.9035 -0.4997
  727TIP3   OH2 2144   4.253   2.820   4.863  0.0636 -0.3100 -0.0543
  727TIP3    H1 2145   4.338   2.779   4.882 -0.2979 -0.8237  0.4939
  727TIP3    H2 2146   4.231   2.790   4.774  0.0524 -0.8866  0.1380
  728TIP3   OH2 2147   5.815   1.429   5.620  0.9871  0.1910  0.3827
  728TIP3    H1 2148   5.801   1.450   5.528 -1.7083  0.4634  0.7604
  728TIP3    H2 2149   5.796   1.335   5.627  0.0767  0.3889  0.7981
  729TIP3   OH2 2150   0.104   2.170   1.388 -0.1958  0.6104 -0.7217
  729TIP3    H1 2151   0.108   2.075   1.400  0.1092  0.6740 -0.2699
  729TIP3    H2 2152   0.178   2.191   1.331  1.7379  0.9208  1.6948
  730TIP3   OH2 2153   6.617   1.096   1.517  0.4847 -0.6384 -0.8783
  730TIP3    H1 2154   6.696   1.146   1.540  0.5479 -0.2265 -1.9463
  730TIP3    H2 2155   6.601   1.117   1.425 -1.7552  0.5129 -0.3064
  731TIP3   OH2 2156   3.382   6.345   3.818 -0.8388  0.0436  0.0802
  731TIP3    H1 2157   3.330   6.326   3.897  0.3785  1.9761  1.4247
  731TIP3    H2 2158   3.332   6.413   3.772 -0.4558  0.5333  0.3791
  732TIP3   OH2 2159   2.514   1.356   1.580  0.0001  0.0355  0.6614
  732TIP3    H1 2160   2.591   1.399   1.543 -0.8253 -1.0724 -2.7508
  732TIP3    H2 2161   2.445   1.422   1.574 -0.0159  0.0203  0.6785
  733TIP3   OH2 2162   2.112   1.803   2.933  0.0580  0.1592  0.0182
  733TIP3    H1 2163   2.171   1.878   2.935 -0.8130  0.8465  0.5580
  733TIP3    H2 2164   2.096   1.787   2.840 -0.5953  1.3323 -0.0938
  734TIP3   OH2 2165   6.634   4.338   5.286  0.2715 -0.5328  0.5018
  734TIP3    H1 2166   6.578   4.366   5.358  0.7907 -0.3129  0.8263
  734TIP3    H2 2167   6.651   4.245   5.303  0.2631 -0.5212  0.5711
  735TIP3   OH2 2168   2.905   0.971   5.557  0.2949  0.0708  0.3029
  735TIP3    H1 2169   2.942   1.043   5.506 -2.4282  0.4540 -1.3305
  735TIP3    H2 2170   2.837   1.011   5.611 -2.8162 -1.3493 -2.2309
  736TIP3   OH2 2171   5.295   6.653   1.115 -0.0611 -0.2205 -0.1144
  736TIP3    H1 2172   5.308   6.740   1.078  0.6513  0.7802  2.2926
  736TIP3    H2 2173   5.373   6.603   1.090  0.6833  0.6106  0.5019
  737TIP3   OH2 2174   3.596   0.445   3.446  0.5606 -0.0140  0.3645
  737TIP3    H1 2175   3.585   0.425   3.538  2.0331 -0.6739  0.4240
  737TIP3    H2 2176   3.690   0.436   3.430  0.2552 -0.6084 -1.3576
  738TIP3   OH2 2177   2.113   4.011   1.302 -0.2826 -0.4160  0.0897
  738TIP3    H1 2178   2.055   4.088   1.307  0.6353  0.2171  1.6128
  738TIP3    H2 2179   2.198   4.047   1.278  0.3243 -0.8324  1.5327
  739TIP3   OH2 2180   4.577   0.190   4.055 -0.0909  0.1857 -0.3434
  739TIP3    H1 2181   4.668   0.174   4.078 -0.3249  0.0875  0.5553
  739TIP3    H2 2182   4.529   0.182   4.138 -0.8408  0.7990 -0.6987
  740TIP3   OH2 2183   6.695   2.614   4.432 -0.1725  0.1821 -0.4265
  740TIP3    H1 2184   6.778   2.634   4.388 -0.8268  1.1994 -1.2266
  740TIP3    H2 2185   6.691   2.677   4.504 -0.1986  0.0376 -0.2996
  741TIP3   OH2 2186   6.910   0.065   0.992 -0.0272  0.0430 -0.3867
  741TIP3    H1 2187   6.850  -0.009   0.997 -0.6757  0.5536 -0.4837
  741TIP3    H2 2188   6.926   0.089   1.083  1.4635 -1.2123 -0.2790
  742TIP3   OH2 2189   3.845   1.169   0.922  0.3945  0.0895  0.0642
  742TIP3    H1 2190   3.837   1.139   1.013  0.5119  0.2072  0.1134
  742TIP3    H2 2191   3.830   1.091   0.869  2.7353 -0.5216  0.2059
  743TIP3   OH2 2192   2.412   2.264   3.549 -0.1210 -0.6686  0.1200
  743TIP3    H1 2193   2.462   2.192   3.511 -1.8883 -1.7907 -0.2011
  743TIP3    H2 2194   2.322   2.250   3.519 -0.3332  2.4776 -1.1205
  744TIP3   OH2 2195   5.105   6.218   0.820  0.0894  0.0611  0.1089
  744TIP3    H1 2196   5.148   6.276   0.884  1.2916 -3.2482  2.5494
  744TIP3    H2 2197   5.175   6.193   0.760 -0.4346  1.0793 -0.9570
  745TIP3   OH2 2198   4.287  -0.030   0.666 -0.3172  0.3166  0.5388
  745TIP3    H1 2199   4.225   0.024   0.715 -1.1598 -0.2422  0.1145
  745TIP3    H2 2200   4.373   0.007   0.686 -1.0101  3.7008 -1.9939
  746TIP3   OH2 2201   1.980   3.350   5.307  0.2955  0.0226 -0.0315
  746TIP3    H1 2202   2.002   3.405   5.232 -0.3903 -0.0409 -0.2817
  746TIP3    H2 2203   1.906   3.298   5.278  1.2966 -1.4754  0.0017
  747TIP3   OH2 2204   4.312   6.701   3.174  0.0380  0.3477 -0.1888
  747TIP3    H1 2205   4.379   6.661   3.230  1.7474  0.3612 -2.1149
  747TIP3    H2 2206   4.233   6.649   3.189  1.2172 -1.4259  0.1136
  748TIP3   OH2 2207   1.032   2.095   4.483  0.5061  0.0653  0.4339
  748TIP3    H1 2208   1.103   2.092   4.547 -0.6866  0.9007  1.8423
  748TIP3    H2 2209   0.962   2.044   4.522 -0.0769  0.1658 -0.4498
  749TIP3   OH2 2210   0.299   3.938   4.467 -0.3299 -0.4760 -0.0819
  749TIP3    H1 2211   0.226   3.876   4.463 -0.7864  0.0752 -3.4881
  749TIP3    H2 2212   0.258   4.023   4.481 -0.0146 -0.5085  1.1227
  750TIP3   OH2 2213   6.115   3.965   0.029 -0.4352  0.5423 -0.1375
  750TIP3    H1 2214   6.117   3.978  -0.066  0.5955 -2.1439 -0.5627
  750TIP3    H2 2215   6.202   3.994   0.059  0.3267 -1.2603 -0.4866
  751TIP3   OH2 2216   1.749   3.274   1.903  0.3435  0.1067  0.3704
  751TIP3    H1 2217   1.690   3.296   1.975  0.5773  2.1863 -0.0095
  751TIP3    H2 2218   1.723   3.185   1.877 -1.1263  0.1157  1.6413
  752TIP3   OH2 2219   6.211  -0.002   4.591 -0.3546 -0.3936 -0.3205
  752TIP3    H1 2220   6.172   0.084   4.610  0.0099 -0.4000  0.4798
  752TIP3    H2 2221   6.141  -0.050   4.546 -0.9718 -0.0997  0.3061
  753TIP3   OH2 2222   0.494   6.726   5.223 -0.2184 -0.1270 -0.3530
  753TIP3    H1 2223   0.405   6.691   5.214 -0.1342 -1.0327  1.7331
  753TIP3    H2 2224   0.517   6.709   5.314  1.9464  0.4904 -0.7316
  754TIP3   OH2 2225   7.024   0.207   3.410  0.3390  0.2656 -0.1800
  754TIP3    H1 2226   6.971   0.280   3.380  0.3198 -0.5307 -2.2791
  754TIP3    H2 2227   6.975   0.129   3.384  1.5933 -0.4865 -0.4018
  755TIP3   OH2 2228   3.736   3.823   1.773 -0.0472 -0.2736  0.4369
  755TIP3    H1 2229   3.730   3.763   1.699 -0.2347  0.2923 -0.0140
  755TIP3    H2 2230   3.678   3.785   1.839 -0.0256 -0.6797  0.2287
  756TIP3   OH2 2231   5.851   4.571   5.554  0.6809  0.0726  0.5518
  756TIP3    H1 2232   5.854   4.665   5.539 -1.7642  0.2300  0.6899
  756TIP3    H2 2233   5.806   4.561   5.638  0.0502 -1.2380  0.0878
  757TIP3   OH2 2234   4.824   6.204   0.817  0.1503  0.0178  0.0337
  757TIP3    H1 2235   4.918   6.195   0.801  0.2045 -2.4660  1.2835
  757TIP3    H2 2236   4.813   6.294   0.848  1.8759  0.7823 -1.4627
  758TIP3   OH2 2237   2.488   4.625   2.627  0.2447 -0.3737 -0.4508
  758TIP3    H1 2238   2.533   4.618   2.543 -1.6366  0.9675 -1.6608
  758TIP3    H2 2239   2.425   4.553   2.627 -0.5784  0.3243 -0.7724
  759TIP3   OH2 2240   6.433   1.827   0.233 -0.4627  0.2174 -0.3225
  759TIP3    H1 2241   6.478   1.825   0.148  1.9950 -1.2366  0.8755
  759TIP3    H2 2242   6.403   1.737   0.246 -0.2614  0.2766  0.6009
  760TIP3   OH2 2243   0.309   1.575   4.612  0.6784  0.5611  0.5003
  760TIP3    H1 2244   0.263   1.621   4.542  1.9559  1.0103 -0.0703
  760TIP3    H2 2245   0.261   1.599   4.692 -0.3756  0.5908 -0.1225
  761TIP3   OH2 2246   1.446   6.018   2.405  0.2262 -0.1857  0.2021
  761TIP3    H1 2247   1.449   6.100   2.354  0.6254  0.1940  0.8194
  761TIP3    H2 2248   1.535   5.984   2.401  0.3973  0.1290  1.0816
  762TIP3   OH2 2249   1.771   1.479   2.611 -0.3019  0.4572 -0.1897
  762TIP3    H1 2250   1.796   1.393   2.644 -0.5547  0.6479  0.5176
  762TIP3    H2 2251   1.800   1.540   2.678  1.8258  1.1523 -1.6376
  763TIP3   OH2 2252   2.418   3.559   5.377  0.3958 -1.0306 -0.0272
  763TIP3    H1 2253   2.486   3.506   5.335 -0.3029 -1.2969 -0.8390
  763TIP3    H2 2254   2.398   3.512   5.459  2.1430 -0.2226  0.9120
  764TIP3   OH2 2255   5.986   4.958   5.097  0.2941  0.1940  0.5814
  764TIP3    H1 2256   5.920   4.931   5.033 -0.0821  0.1747  0.9679
  764TIP3    H2 2257   5.946   5.031   5.144  0.8076  0.6041  0.3891
  765TIP3   OH2 2258   6.335   3.343   3.000 -0.3971 -0.1283 -0.5051
  765TIP3    H1 2259   6.323   3.257   3.041 -3.2178  1.4273  2.4436
  765TIP3    H2 2260   6.333   3.326   2.906  1.0267 -3.4217 -0.0563
  766TIP3   OH2 2261   4.269   2.011   4.096  0.0978  0.1956 -0.6366
  766TIP3    H1 2262   4.256   2.029   4.189  1.1861  0.3167 -0.5005
  766TIP3    H2 2263   4.280   1.916   4.091  2.9386  0.4275 -0.2341
  767TIP3   OH2 2264   2.899   6.063   0.003 -0.0093 -0.0601  0.8320
  767TIP3    H1 2265   2.843   6.030  -0.067  2.1047 -1.1093 -0.4517
  767TIP3    H2 2266   2.892   5.997   0.072 -1.0260  0.2735  1.0601
  768TIP3   OH2 2267   1.633   0.562   2.407  0.1923  0.1001  0.1518
  768TIP3    H1 2268   1.581   0.641   2.421 -1.2308 -0.6305 -0.7760
  768TIP3    H2 2269   1.722   0.587   2.433 -0.5765  1.4182  1.6616
  769TIP3   OH2 2270   2.083   5.226   5.709  0.1091 -0.0230  0.1071
  769TIP3    H1 2271   2.075   5.140   5.750  0.4142 -0.7014 -1.2017
  769TIP3    H2 2272   2.112   5.208   5.619  0.4622  1.4602 -0.1118
  770TIP3   OH2 2273   3.322   1.218   5.741 -0.2702 -0.0759 -0.0713
  770TIP3    H1 2274   3.234   1.241   5.770 -0.7579 -0.9714 -0.7762
  770TIP3    H2 2275   3.322   1.235   5.647 -0.1373 -1.3396 -0.3206
  771TIP3   OH2 2276   2.914   6.382   4.616 -0.4724 -0.2082  0.0377
  771TIP3    H1 2277   2.970   6.409   4.544 -0.7452 -0.8053 -0.4088
  771TIP3    H2 2278   2.857   6.457   4.632 -3.9218 -1.6313 -3.7921
  772TIP3   OH2 2279   1.540   0.681   2.685 -0.2993 -0.1346  0.4930
  772TIP3    H1 2280   1.603   0.609   2.679  0.7123  0.6560  1.2786
  772TIP3    H2 2281   1.515   0.684   2.778  1.7437  2.1669  1.0980
  773TIP3   OH2 2282   2.548   4.325   3.610 -0.2388 -0.2754 -0.5783
  773TIP3    H1 2283   2.571   4.250   3.556 -1.9826 -0.9546 -0.4422
  773TIP3    H2 2284   2.490   4.378   3.555  0.6306  0.7813 -0.5232
  774TIP3   OH2 2285   1.879   2.920   3.518 -0.1428  0.3762 -0.3797
  774TIP3    H1 2286   1.788   2.947   3.528  0.0714  0.9198  0.2326
  774TIP3    H2 2287   1.880   2.861   3.443 -1.0547  0.1026 -0.1792
  775TIP3   OH2 2288   2.052   0.690   4.295 -0.3887 -0.4047  0.3394
  775TIP3    H1 2289   2.122   0.756   4.302  0.0362 -0.7456 -0.5662
  775TIP3    H2 2290   1.971   0.741   4.288 -0.0880  0.0251 -0.0659
  776TIP3   OH2 2291   5.775   1.142   5.648 -0.1505  0.3192  0.3204
  776TIP3    H1 2292   5.692   1.103   5.678  0.6383 -1.0601  0.8215
  776TIP3    H2 2293   5.838   1.119   5.717  1.1233 -0.6191 -1.1068
  777TIP3   OH2 2294   3.241   2.145   4.696 -0.5400 -0.0751 -0.5599
  777TIP3    H1 2295   3.290   2.225   4.714  1.0099 -1.3345  1.1518
  777TIP3    H2 2296   3.306   2.085   4.659 -1.7174 -0.5294 -1.9954
  778TIP3   OH2 2297   3.691   6.508   3.060  0.1573 -0.1353  0.1169
  778TIP3    H1 2298   3.729   6.485   3.144 -1.9448 -0.1048  1.1366
  778TIP3    H2 2299   3.597   6.491   3.070 -0.2622  0.6153 -1.9612
  779TIP3   OH2 2300   3.416   2.942   1.188 -0.1750  0.3417  0.1346
  779TIP3    H1 2301   3.440   2.853   1.159 -0.0843  0.3919  0.0546
  779TIP3    H2 2302   3.405   2.934   1.283  2.3163  0.7857  0.5345
  780TIP3   OH2 2303   5.991   2.679   4.021 -0.0895 -0.1093 -0.3205
  780TIP3    H1 2304   5.989   2.764   3.976 -2.3370 -0.1712 -0.4256
  780TIP3    H2 2305   6.081   2.649   4.009  0.5495  1.8704 -0.9917
  781TIP3   OH2 2306   0.758   0.393   2.764  0.1309  0.1130 -0.3256
  781TIP3    H1 2307   0.715   0.412   2.847  0.8450  0.3032  0.0094
  781TIP3    H2 2308   0.822   0.463   2.754  0.5150 -0.2892 -0.7046
  782TIP3   OH2 2309   2.743   0.505   4.323  0.1788  0.0053  0.0380
  782TIP3    H1 2310   2.823   0.558   4.322 -0.4674  1.0041 -0.7393
  782TIP3    H2 2311   2.695   0.535   4.400  0.5218 -0.5854  0.4969
  783TIP3   OH2 2312   3.493   6.195   4.542  0.3138  0.2114  0.0321
  783TIP3    H1 2313   3.525   6.120   4.493 -1.6800  0.0720 -1.1454
  783TIP3    H2 2314   3.480   6.264   4.476  0.5436  1.0535  0.8367
  784TIP3   OH2 2315   4.159   5.438   4.595  0.6149 -0.2078  0.2614
  784TIP3    H1 2316   4.114   5.356   4.618 -1.1061  0.7196  0.3890
  784TIP3    H2 2317   4.133   5.455   4.505 -1.3535  1.5557  1.0643
  785TIP3   OH2 2318   2.110   6.331   0.212  0.1090 -0.3468  0.0360
  785TIP3    H1 2319   2.081   6.302   0.125  0.0375 -0.4436  0.0925
  785TIP3    H2 2320   2.044   6.394   0.240 -1.6379 -2.6447  1.3911
  786TIP3   OH2 2321   2.232   4.260   3.604  0.5947  0.1862  0.0870
  786TIP3    H1 2322   2.284   4.323   3.554 -1.6477  1.4176 -0.8577
  786TIP3    H2 2323   2.295   4.195   3.634  2.6750  1.7073 -0.7677
  787TIP3   OH2 2324   2.235   5.973   2.413 -0.2984  0.1910  0.0288
  787TIP3    H1 2325   2.230   6.057   2.366 -0.3635 -1.1133 -2.4922
  787TIP3    H2 2326   2.144   5.946   2.424 -0.2610  0.1277  0.1793
  788TIP3   OH2 2327   6.487   1.833   1.337 -0.7641 -0.3956 -0.2690
  788TIP3    H1 2328   6.575   1.812   1.305  0.2040  0.8684  1.3488
  788TIP3    H2 2329   6.470   1.921   1.302 -0.8059 -0.1056  0.4582
  789TIP3   OH2 2330   1.120   4.562   0.779 -0.3397 -0.3793  0.2435
  789TIP3    H1 2331   1.149   4.477   0.812  1.5978  0.6921  1.4431
  789TIP3    H2 2332   1.040   4.581   0.828 -0.4657 -1.2298  0.3817
  790TIP3   OH2 2333   4.246   1.996   1.836  0.0844 -0.1672 -0.1085
  790TIP3    H1 2334   4.276   1.921   1.784  0.9165  0.8445 -1.1465
  790TIP3    H2 2335   4.320   2.057   1.836 -0.6142  0.7177  0.6033
  791TIP3   OH2 2336   1.760   6.309   5.178  0.0804  0.2455  0.3605
  791TIP3    H1 2337   1.741   6.317   5.272 -0.0643  0.7091  0.2916
  791TIP3    H2 2338   1.851   6.337   5.170  0.0937  0.2029  0.3595
  792TIP3   OH2 2339   2.647   6.445   1.807  0.3972  0.1018 -0.0797
  792TIP3    H1 2340   2.575   6.387   1.783 -0.4367  0.9891  0.2309
  792TIP3    H2 2341   2.726   6.394   1.786 -0.2985 -0.6282 -1.0587
  793TIP3   OH2 2342   4.728   3.379   3.933  0.2953  0.5780 -0.3899
  793TIP3    H1 2343   4.692   3.467   3.939 -0.7366  0.0335  2.6469
  793TIP3    H2 2344   4.789   3.372   4.006  0.2295 -1.2899 -0.4574
  794TIP3   OH2 2345   2.344   4.411   0.693 -0.4493 -0.3530 -0.0380
  794TIP3    H1 2346   2.430   4.430   0.729 -1.3137  4.7094  0.0082
  794TIP3    H2 2347   2.358   4.403   0.599 -0.0153  2.5567 -0.3050
  795TIP3   OH2 2348   2.111   4.986   5.838 -0.2963 -0.1232  0.1944
  795TIP3    H1 2349   2.184   5.002   5.777  0.8460  1.4500  1.8474
  795TIP3    H2 2350   2.153   4.969   5.922 -1.7919  1.1539  1.2805
  796TIP3   OH2 2351   7.175   5.024   3.324 -0.2357  0.3646 -0.0697
  796TIP3    H1 2352   7.108   4.969   3.365 -1.6291  1.6104 -0.5735
  796TIP3    H2 2353   7.144   5.113   3.338  1.2520  0.9714 -0.4795
  797TIP3   OH2 2354   0.834   3.744   0.331  0.6222  0.0458 -0.0342
  797TIP3    H1 2355   0.916   3.725   0.285  1.6260 -0.3119  1.8038
  797TIP3    H2 2356   0.766   3.719   0.269  1.8992 -1.0040 -1.0823
  798TIP3   OH2 2357   1.455   3.314   3.896  0.2889  0.2104  0.2284
  798TIP3    H1 2358   1.398   3.303   3.821  0.4838  0.6166  0.0190
  798TIP3    H2 2359   1.397   3.312   3.972 -0.1260  1.5443 -0.0272
  799TIP3   OH2 2360   2.233   1.031   2.651  0.3875 -0.3761 -0.4632
  799TIP3    H1 2361   2.171   0.989   2.710  1.0976 -1.5068 -0.4954
  799TIP3    H2 2362   2.319   1.006   2.685  0.9607  2.8058  0.8301
  800TIP3   OH2 2363   0.644   1.799   3.775 -0.1789 -0.2331  0.2713
  800TIP3    H1 2364   0.594   1.760   3.846 -0.1303 -1.1741 -0.1943
  800TIP3    H2 2365   0.580   1.814   3.705 -0.1053  0.0826  0.2660
  801TIP3   OH2 2366   3.511   2.268   1.099 -0.1891 -0.7022  0.3007
  801TIP3    H1 2367   3.543   2.286   1.011 -0.7920  1.3587  0.4586
  801TIP3    H2 2368   3.565   2.195   1.129  0.4862 -1.0064 -1.5053
  802TIP3   OH2 2369   4.943   6.752   3.188  0.1944  0.0159 -0.0177
  802TIP3    H1 2370   4.972   6.704   3.266  0.6409  0.6543  0.2151
  802TIP3    H2 2371   4.983   6.838   3.197 -3.0376  1.5754  1.1727
  803TIP3   OH2 2372   2.358   6.451   4.265 -0.1762 -0.3135 -0.1920
  803TIP3    H1 2373   2.296   6.448   4.338  1.6374  0.2763  1.4489
  803TIP3    H2 2374   2.396   6.364   4.262  0.1349 -0.1853 -0.0619
  804TIP3   OH2 2375   5.998   3.805   4.835 -0.2060  0.2852  0.0693
  804TIP3    H1 2376   5.974   3.878   4.893 -0.0287 -0.3191  0.9230
  804TIP3    H2 2377   5.922   3.796   4.777 -0.1987  1.1940 -0.1046
  805TIP3   OH2 2378   4.065   6.219   1.971  0.1414  0.6789 -0.2937
  805TIP3    H1 2379   3.996   6.168   2.014  0.3951  1.4035  1.0380
  805TIP3    H2 2380   4.019   6.288   1.924 -0.1012  0.3936 -0.4766
  806TIP3   OH2 2381   2.073   1.173   2.016  0.0832  0.3111  0.0322
  806TIP3    H1 2382   2.084   1.200   2.107 -1.4381  0.1832  0.2733
  806TIP3    H2 2383   1.980   1.153   2.008  0.4348 -0.9810 -1.1966
  807TIP3   OH2 2384   0.790   6.157   0.940 -0.1304  0.3693  0.5263
  807TIP3    H1 2385   0.711   6.206   0.919  0.2728  1.2461  1.0373
  807TIP3    H2 2386   0.824   6.128   0.855 -1.3282 -0.5626  0.3364
  808TIP3   OH2 2387   4.820   2.929   0.107  0.8101  0.4694 -0.2092
  808TIP3    H1 2388   4.850   2.845   0.141 -0.0610 -0.4120 -1.5387
  808TIP3    H2 2389   4.872   2.944   0.028 -2.4215 -1.4135 -2.9565
  809TIP3   OH2 2390   6.819   4.966   1.853 -0.6598 -0.3896 -0.3346
  809TIP3    H1 2391   6.746   4.991   1.796 -2.4197 -0.4609  1.7578
  809TIP3    H2 2392   6.821   4.870   1.849  1.2559 -0.3548 -2.5674
  810TIP3   OH2 2393   1.112   4.451   0.009 -0.0650  0.6579 -0.0508
  810TIP3    H1 2394   1.170   4.388  -0.032 -0.1846  0.1602  0.5287
  810TIP3    H2 2395   1.112   4.427   0.102 -0.1243  1.4954  0.1810
  811TIP3   OH2 2396   1.978   4.342   5.176  0.9553 -1.1007 -0.7297
  811TIP3    H1 2397   2.013   4.369   5.261 -0.9843 -2.1590  0.4715
  811TIP3    H2 2398   2.051   4.298   5.134  2.1144 -0.1115  0.1450
  812TIP3   OH2 2399   1.112   4.860   4.051 -0.2361 -0.2121  0.5782
  812TIP3    H1 2400   1.136   4.945   4.087  1.4655 -0.3692 -0.0841
  812TIP3    H2 2401   1.018   4.853   4.065 -0.2531  1.3975  1.4221
  813TIP3   OH2 2402   6.936   2.404   5.710  0.5971  0.2282 -1.2975
  813TIP3    H1 2403   7.031   2.416   5.704  1.0587 -2.8055 -1.6065
  813TIP3    H2 2404   6.924   2.310   5.721 -2.2038  0.7808  2.8112
  814TIP3   OH2 2405   3.896   2.291   2.604 -0.3037 -0.4796  0.3707
  814TIP3    H1 2406   3.875   2.383   2.622  0.7918 -0.2314  0.4240
  814TIP3    H2 2407   3.931   2.292   2.515 -1.8771 -1.1139 -0.2960
  815TIP3   OH2 2408   0.483   1.309   0.483 -0.2537  0.3305  0.0023
  815TIP3    H1 2409   0.412   1.370   0.501 -0.9156 -0.0666 -1.1929
  815TIP3    H2 2410   0.458   1.229   0.529  0.1191  0.6115  0.7225
  816TIP3   OH2 2411   0.088   6.205   1.817 -0.0151  0.2689  0.3148
  816TIP3    H1 2412   0.036   6.127   1.796 -1.9931  1.3884  0.8016
  816TIP3    H2 2413   0.035   6.252   1.882  0.1831  2.9876 -1.3565
  817TIP3   OH2 2414   3.135   4.778   3.354  0.1197  0.1442 -0.0979
  817TIP3    H1 2415   3.215   4.773   3.405 -0.5448  0.6746  1.0323
  817TIP3    H2 2416   3.102   4.688   3.352 -0.3359  0.2606  1.2381
  818TIP3   OH2 2417   3.551   4.331   3.354  0.3156  0.1765  0.5017
  818TIP3    H1 2418   3.645   4.344   3.366  0.7326 -2.7322  0.9544
  818TIP3    H2 2419   3.542   4.309   3.261  0.2853 -0.8005  0.7263
  819TIP3   OH2 2420   3.028   0.334   2.985 -0.1488 -0.0382  0.4717
  819TIP3    H1 2421   3.080   0.292   2.916  1.1777  0.5219  1.0792
  819TIP3    H2 2422   3.093   0.362   3.049 -1.2530  0.4858  1.3937
  820TIP3   OH2 2423   1.728   3.488   2.193 -0.9118 -0.1218 -0.1828
  820TIP3    H1 2424   1.639   3.467   2.221 -0.9675  1.0293  0.5944
  820TIP3    H2 2425   1.723   3.580   2.164  0.2745  0.4056  1.1633
  821TIP3   OH2 2426   0.105   6.703   3.018  0.5349  0.2636 -0.1298
  821TIP3    H1 2427   0.120   6.615   2.983  1.6043  0.0345  0.8329
  821TIP3    H2 2428   0.079   6.755   2.943 -1.5487 -1.1850 -0.5034
  822TIP3   OH2 2429   6.308   4.128   0.722  0.0477 -0.2513  0.2862
  822TIP3    H1 2430   6.370   4.062   0.753  1.2746  1.0758  0.7760
  822TIP3    H2 2431   6.237   4.078   0.682  1.3895 -1.8415 -0.2067
  823TIP3   OH2 2432   0.350   4.655   4.346  0.2799  0.1332  0.2051
  823TIP3    H1 2433   0.445   4.651   4.360  0.2681  1.3421  0.7103
  823TIP3    H2 2434   0.334   4.589   4.279  1.0098 -2.4293  2.3517
  824TIP3   OH2 2435   5.754   1.845   0.706  0.3068  0.2543  0.1555
  824TIP3    H1 2436   5.802   1.926   0.688  1.0250 -0.0226  0.7783
  824TIP3    H2 2437   5.765   1.831   0.800 -0.5805 -0.0900  0.2184
  825TIP3   OH2 2438   0.117   3.665   0.063  0.3930 -0.0464 -0.4744
  825TIP3    H1 2439   0.055   3.612   0.113  0.7782 -0.4484 -0.4160
  825TIP3    H2 2440   0.121   3.748   0.110  1.4495 -0.7340  0.7171
  826TIP3   OH2 2441   1.314   0.729   1.486 -0.2395 -0.0284 -0.7169
  826TIP3    H1 2442   1.279   0.640   1.473  2.6861 -1.3221 -0.3588
  826TIP3    H2 2443   1.298   0.747   1.579 -0.4116 -0.3725 -0.6749
  827TIP3   OH2 2444   5.368   2.402   3.369  0.0793  0.2162 -0.7825
  827TIP3    H1 2445   5.334   2.406   3.280 -0.2065 -0.3903 -0.7054
  827TIP3    H2 2446   5.447   2.456   3.367 -0.3537  0.8351 -1.2064
  828TIP3   OH2 2447   2.321   3.539   4.671 -0.0045 -0.2377 -0.8108
  828TIP3    H1 2448   2.230   3.566   4.656  0.2588 -0.3540 -2.9951
  828TIP3    H2 2449   2.321   3.503   4.760 -2.0739 -0.1616 -0.7300
  829TIP3   OH2 2450   3.224   6.325   4.874 -0.3927  0.8112 -0.1029
  829TIP3    H1 2451   3.280   6.389   4.919  1.5887  1.1416 -2.7379
  829TIP3    H2 2452   3.285   6.258   4.844 -1.8472 -0.2293 -0.8134
  830TIP3   OH2 2453   0.259   6.036   0.751 -0.4747  0.4472  0.6511
  830TIP3    H1 2454   0.176   6.030   0.798 -0.4126 -1.5019  0.5916
  830TIP3    H2 2455   0.237   6.009   0.661  0.5070 -2.0272  1.0674
  831TIP3   OH2 2456   1.625   1.040   4.895  0.2710  0.4892 -0.1892
  831TIP3    H1 2457   1.572   1.085   4.829 -0.3803 -1.4481 -1.0695
  831TIP3    H2 2458   1.567   1.028   4.970  0.1097  0.2151 -0.3553
  832TIP3   OH2 2459   0.940   2.970   1.482  0.3475  0.0074  0.0734
  832TIP3    H1 2460   0.963   2.911   1.554  2.1941 -0.3543 -0.7408
  832TIP3    H2 2461   1.010   2.957   1.417 -0.5180  1.3148 -1.1928
  833TIP3   OH2 2462   4.514   2.493   1.588  0.6975 -0.2426 -0.7600
  833TIP3    H1 2463   4.472   2.446   1.661  1.8521  0.8365  0.6686
  833TIP3    H2 2464   4.449   2.491   1.518 -0.7310 -0.7671  0.5204
  834TIP3   OH2 2465   4.819   0.634   4.124 -0.3271 -0.3893 -0.2529
  834TIP3    H1 2466   4.828   0.540   4.140  1.0651 -0.2243  0.1435
  834TIP3    H2 2467   4.859   0.675   4.201 -1.6445  0.5501 -0.0414
  835TIP3   OH2 2468   7.223   5.548   5.026  0.1798  0.1549  0.0236
  835TIP3    H1 2469   7.147   5.500   4.992  0.8933  0.4834 -2.1087
  835TIP3    H2 2470   7.206   5.553   5.121 -1.2038 -1.9776 -0.0291
  836TIP3   OH2 2471   6.573   3.725   4.531  0.2477 -0.6859 -0.6042
  836TIP3    H1 2472   6.595   3.632   4.530 -0.3138 -0.8792  1.6895
  836TIP3    H2 2473   6.605   3.757   4.615 -0.4141  0.9898 -0.9476
  837TIP3   OH2 2474   4.717   5.864   0.084  0.5086 -0.1321 -0.1198
  837TIP3    H1 2475   4.688   5.863   0.175 -0.4978  1.1082 -0.3921
  837TIP3    H2 2476   4.770   5.944   0.077  1.0802 -0.5386 -0.4792
  838TIP3   OH2 2477   0.732   0.492   1.162  0.4592  0.2449 -0.3790
  838TIP3    H1 2478   0.696   0.563   1.110 -0.1014  0.0941 -0.2002
  838TIP3    H2 2479   0.812   0.529   1.201  0.3497  0.6671 -0.5513
  839TIP3   OH2 2480   5.671   6.526   3.573 -0.1419 -0.0456  0.1833
  839TIP3    H1 2481   5.719   6.528   3.656  0.6518 -0.6365 -0.2463
  839TIP3    H2 2482   5.680   6.436   3.542 -0.9235  0.0222 -0.2735
  840TIP3   OH2 2483   2.194   2.128   4.923 -0.5780  0.0005 -0.0723
  840TIP3    H1 2484   2.213   2.215   4.958  0.2088 -0.7906  1.5949
  840TIP3    H2 2485   2.112   2.103   4.966 -0.4123 -0.3639  0.0350
  841TIP3   OH2 2486   5.518   4.404   1.817 -0.2870 -0.0856  0.1167
  841TIP3    H1 2487   5.493   4.446   1.899 -0.3019 -1.6018  0.9370
  841TIP3    H2 2488   5.450   4.338   1.802  0.6022 -0.9655 -0.1959
  842TIP3   OH2 2489   3.874   4.669   0.039  0.7807  0.3563 -0.2219
  842TIP3    H1 2490   3.819   4.618  -0.022 -0.8643  0.0934  1.3858
  842TIP3    H2 2491   3.897   4.748  -0.010  1.1107 -0.6835 -1.8297
  843TIP3   OH2 2492   5.292   1.503   3.265  0.1007  0.4557 -0.2519
  843TIP3    H1 2493   5.385   1.515   3.245  1.0817 -1.6284  2.5159
  843TIP3    H2 2494   5.281   1.409   3.277 -2.3856  0.6539 -0.3850
  844TIP3   OH2 2495   3.410   2.627   5.564 -0.1223  0.1140 -0.4612
  844TIP3    H1 2496   3.343   2.609   5.630  1.4793 -4.2580  0.2963
  844TIP3    H2 2497   3.480   2.671   5.612 -0.9157  1.4466 -0.4699
  845TIP3   OH2 2498   5.933   5.456   3.104 -0.1159 -0.2042 -0.2097
  845TIP3    H1 2499   5.860   5.431   3.046 -1.1701 -0.4115  1.1635
  845TIP3    H2 2500   5.908   5.423   3.190  0.6428  1.5642  0.7294
  846TIP3   OH2 2501   0.866   3.486   2.291  0.1031  0.3097 -0.1286
  846TIP3    H1 2502   0.843   3.561   2.236 -1.7202 -0.2519 -0.1985
  846TIP3    H2 2503   0.889   3.524   2.375  0.0191  0.9995 -0.4042
  847TIP3   OH2 2504   1.553   0.395   3.813 -0.5084 -0.4416 -0.0073
  847TIP3    H1 2505   1.551   0.300   3.808 -0.0311 -0.4060 -1.7370
  847TIP3    H2 2506   1.528   0.424   3.725  1.3139  0.9936 -0.1090
  848TIP3   OH2 2507   0.562   0.664   4.313  0.5743 -0.4273  0.1635
  848TIP3    H1 2508   0.537   0.741   4.262 -1.2273 -1.4223 -0.5292
  848TIP3    H2 2509   0.545   0.590   4.255  0.9236 -1.4362  1.3123
  849TIP3   OH2 2510   1.887   2.340   1.843 -0.4859  0.3264  0.4844
  849TIP3    H1 2511   1.903   2.388   1.924 -0.5111 -0.8300  1.1918
  849TIP3    H2 2512   1.966   2.354   1.791 -1.6357  3.5960 -0.6528
  850TIP3   OH2 2513   1.563   5.369   0.708 -0.2526 -0.0475  0.0207
  850TIP3    H1 2514   1.610   5.303   0.759  0.6301  0.4231 -0.1693
  850TIP3    H2 2515   1.631   5.424   0.671 -0.9743  3.0778  2.8985
  851TIP3   OH2 2516   0.900   3.334   0.400 -0.3435  0.2977  0.2857
  851TIP3    H1 2517   0.901   3.283   0.481  0.6485 -1.4636 -0.7744
  851TIP3    H2 2518   0.839   3.287   0.343 -1.1545  1.6094  0.0322
  852TIP3   OH2 2519   6.126   0.919   5.722  0.8099  0.0848  0.3723
  852TIP3    H1 2520   6.216   0.951   5.712  0.5809  1.5806  2.4895
  852TIP3    H2 2521   6.133   0.853   5.791  0.2520  0.3931  0.7244
  853TIP3   OH2 2522   1.683   4.289   1.838 -0.1116  0.4911 -0.0525
  853TIP3    H1 2523   1.625   4.279   1.914  0.2905  1.1570  0.3586
  853TIP3    H2 2524   1.714   4.379   1.845  0.9490  0.1500 -0.2822
  854TIP3   OH2 2525   0.097   3.195   1.364 -0.1013 -0.1690  0.7023
  854TIP3    H1 2526   0.013   3.170   1.403 -0.3669 -1.2897 -0.5043
  854TIP3    H2 2527   0.080   3.277   1.319 -0.9459 -1.0834 -0.7049
  855TIP3   OH2 2528   4.448   2.761   0.242 -0.2983 -0.1777  0.2635
  855TIP3    H1 2529   4.483   2.850   0.248 -1.5293  0.3186  0.2036
  855TIP3    H2 2530   4.411   2.755   0.155  0.1558 -0.9091  0.1071
  856TIP3   OH2 2531   2.184   1.797   5.618 -0.1937  0.3414 -0.4536
  856TIP3    H1 2532   2.254   1.846   5.662  0.5585 -1.3430  0.3566
  856TIP3    H2 2533   2.108   1.855   5.621  1.1024  2.1599 -1.2047
  857TIP3   OH2 2534   3.313   4.670   4.262  0.3399 -0.3367  0.8560
  857TIP3    H1 2535   3.237   4.704   4.309 -1.5959 -2.3204 -0.6092
  857TIP3    H2 2536   3.329   4.736   4.194  0.1494  0.2555  1.3703
  858TIP3   OH2 2537   5.166   6.211   4.176  0.6961 -0.1732  0.0186
  858TIP3    H1 2538   5.259   6.233   4.170  0.2907  1.9167  0.4399
  858TIP3    H2 2539   5.133   6.224   4.087  0.9316 -1.7486 -0.3269
  859TIP3   OH2 2540   3.999   3.228   2.793  0.1139 -0.1035  0.4766
  859TIP3    H1 2541   3.953   3.198   2.871  0.4537  1.3979  1.2912
  859TIP3    H2 2542   3.941   3.204   2.720 -0.7876 -0.4249  1.2785
  860TIP3   OH2 2543   4.104   1.042   1.077 -0.4971 -0.8964 -0.1326
  860TIP3    H1 2544   4.120   1.029   0.983  0.8758 -0.3888  0.0022
  860TIP3    H2 2545   4.168   1.109   1.103 -4.2579  3.0332  0.0730
  861TIP3   OH2 2546   6.981   6.571   0.451 -0.2201  0.5082  0.3750
  861TIP3    H1 2547   6.926   6.627   0.506 -2.2265 -0.1024 -0.9322
  861TIP3    H2 2548   6.935   6.488   0.447 -0.2976  0.6107 -2.4302
  862TIP3   OH2 2549   2.986   0.826   1.434 -0.4945  0.1290 -0.1724
  862TIP3    H1 2550   2.950   0.813   1.522 -2.1646 -0.2643 -0.8920
  862TIP3    H2 2551   2.932   0.895   1.395  0.9200  1.0942 -0.5477
  863TIP3   OH2 2552   0.119   3.020   1.827 -0.0553  0.6043 -0.0993
  863TIP3    H1 2553   0.101   2.969   1.748 -1.3426 -1.7831  1.5894
  863TIP3    H2 2554   0.199   3.068   1.807  0.1725 -0.6126 -2.5118
  864TIP3   OH2 2555   0.548   3.852   1.121 -0.1251  0.6732 -0.1263
  864TIP3    H1 2556   0.551   3.948   1.121 -1.4720  0.7548  1.3555
  864TIP3    H2 2557   0.491   3.830   1.194 -1.1967 -1.2222 -1.4554
  865TIP3   OH2 2558   3.230   1.524   5.335 -0.2611  0.5642 -0.2719
  865TIP3    H1 2559   3.177   1.600   5.359 -0.1727  0.3757  0.5750
  865TIP3    H2 2560   3.175   1.473   5.276 -0.6823  0.8063 -0.0878
  866TIP3   OH2 2561   4.945   5.358   0.740 -0.4781 -0.1447  0.2304
  866TIP3    H1 2562   4.855   5.393   0.742 -0.2231  0.5638 -0.2471
  866TIP3    H2 2563   4.972   5.367   0.649 -0.2906 -1.3401  0.1590
  867TIP3   OH2 2564   6.769   4.085   3.420 -0.3912 -0.5516  0.7046
  867TIP3    H1 2565   6.692   4.087   3.363  0.1207 -0.5569  0.0002
  867TIP3    H2 2566   6.844   4.082   3.359  0.3540  2.8999  1.2448
  868TIP3   OH2 2567   6.436   1.253   0.734  0.2219  0.7836  0.4087
  868TIP3    H1 2568   6.397   1.332   0.773 -0.6986 -0.5558  2.3865
  868TIP3    H2 2569   6.429   1.267   0.640 -2.4915  1.8861  0.6773
  869TIP3   OH2 2570   5.255   6.189   5.727  0.4357  0.0630 -0.2042
  869TIP3    H1 2571   5.168   6.173   5.764  1.0794 -1.5334  0.6876
  869TIP3    H2 2572   5.306   6.225   5.800  0.5773  0.8734 -0.6870
  870TIP3   OH2 2573   2.682   1.454   0.783  0.1862 -0.1137  0.2769
  870TIP3    H1 2574   2.757   1.400   0.758 -0.5447 -0.7397 -0.6349
  870TIP3    H2 2575   2.722   1.534   0.818  1.3066  0.0036 -1.1286
  871TIP3   OH2 2576   6.411   3.451   5.844 -0.1052  0.1907  0.9569
  871TIP3    H1 2577   6.450   3.497   5.770 -1.4870  0.0488  0.1056
  871TIP3    H2 2578   6.440   3.500   5.921  0.4078  1.0252  0.2474
  872TIP3   OH2 2579   5.990   6.456   3.397 -0.3202 -0.0943 -0.3539
  872TIP3    H1 2580   6.063   6.451   3.335  0.4823  2.5013  0.2712
  872TIP3    H2 2581   5.926   6.514   3.355 -0.1067  1.0733  0.8817
  873TIP3   OH2 2582   0.123   1.695   5.420 -0.1946 -0.0277 -0.6829
  873TIP3    H1 2583   0.042   1.643   5.429  0.0321 -0.1403  1.0730
  873TIP3    H2 2584   0.181   1.639   5.370 -0.7524 -0.5091 -0.8113
  874TIP3   OH2 2585   1.685   0.580   5.105 -0.3107 -0.0905  0.0169
  874TIP3    H1 2586   1.680   0.608   5.197 -0.2737  2.4148 -0.6615
  874TIP3    H2 2587   1.670   0.660   5.055 -1.0378 -1.5116 -2.1979
  875TIP3   OH2 2588   0.391   0.021   2.008 -0.0216 -0.1113 -0.5742
  875TIP3    H1 2589   0.332   0.069   2.066  2.1445 -0.5789  2.2380
  875TIP3    H2 2590   0.465   0.080   1.996  0.8050 -1.1153 -0.4964
  876TIP3   OH2 2591   2.649   4.040   2.479  0.2699 -0.1282 -0.6208
  876TIP3    H1 2592   2.617   3.949   2.482  0.8591 -0.3136  1.6580
  876TIP3    H2 2593   2.740   4.033   2.453  0.6886 -0.3569  0.8029
  877TIP3   OH2 2594   3.155   2.342   5.387  0.5142 -0.4536  0.5283
  877TIP3    H1 2595   3.241   2.306   5.366  0.1883 -2.0123  1.6970
  877TIP3    H2 2596   3.170   2.437   5.395  1.7242 -0.4639 -1.0686
  878TIP3   OH2 2597   0.223   2.521   2.546  0.4669  0.6031 -0.2211
  878TIP3    H1 2598   0.318   2.512   2.551  0.5570  1.6535  0.2793
  878TIP3    H2 2599   0.195   2.536   2.637 -0.1290  0.6730 -0.4068
  879TIP3   OH2 2600   2.555   4.132   5.759  0.7083 -0.4342 -0.0933
  879TIP3    H1 2601   2.611   4.156   5.832 -0.4612 -0.8958  0.9835
  879TIP3    H2 2602   2.522   4.215   5.726  0.7069 -0.2592  0.3416
  880TIP3   OH2 2603   0.443   4.124   0.776  0.4382 -0.0336  0.0102
  880TIP3    H1 2604   0.452   4.030   0.793 -0.1139  0.0682  0.9269
  880TIP3    H2 2605   0.499   4.165   0.842  1.9398  0.2524 -1.3867
  881TIP3   OH2 2606   0.647   3.575   2.125  0.5359  0.5660  0.0928
  881TIP3    H1 2607   0.699   3.534   2.055  0.3012  0.6573 -0.1344
  881TIP3    H2 2608   0.575   3.514   2.140  0.8965  0.2676  0.6530
  882TIP3   OH2 2609   3.014   0.345   3.806  0.4643  0.0657 -0.4994
  882TIP3    H1 2610   3.105   0.324   3.826  0.2823  0.8329  1.3817
  882TIP3    H2 2611   3.005   0.327   3.713  2.4800 -0.2258 -0.6871
  883TIP3   OH2 2612   6.486   1.787   0.534 -0.5245 -0.3491 -0.1945
  883TIP3    H1 2613   6.476   1.801   0.440 -1.8948  0.6561  0.0676
  883TIP3    H2 2614   6.422   1.719   0.555 -1.1476  0.3446  0.2014
  884TIP3   OH2 2615   1.388   3.064   5.307  0.5783  0.2243 -0.3696
  884TIP3    H1 2616   1.452   3.075   5.237  0.0972 -1.6281 -1.1655
  884TIP3    H2 2617   1.439   3.040   5.384  0.9348  0.0090 -0.6722
  885TIP3   OH2 2618   0.830   5.229   1.525  0.2108 -0.3628 -0.2382
  885TIP3    H1 2619   0.911   5.225   1.473  0.5824 -0.5020  0.3413
  885TIP3    H2 2620   0.772   5.286   1.475  1.1073  0.7325 -0.0594
  886TIP3   OH2 2621   0.603   3.406   3.248 -0.5776 -0.0262  0.0947
  886TIP3    H1 2622   0.577   3.417   3.157  0.5500  0.7027 -0.1673
  886TIP3    H2 2623   0.588   3.314   3.267 -0.1323 -0.3575 -1.0704
  887TIP3   OH2 2624   0.600   1.208   5.098  0.0387  0.3011  0.3294
  887TIP3    H1 2625   0.569   1.285   5.146 -0.2848  0.7653 -0.6099
  887TIP3    H2 2626   0.695   1.211   5.106  0.0688  1.2025 -0.3146
  888TIP3   OH2 2627   4.575   6.164   3.213 -0.6932 -0.3162  0.0539
  888TIP3    H1 2628   4.649   6.135   3.267  0.2068 -0.0788 -1.0175
  888TIP3    H2 2629   4.504   6.106   3.239  0.0840 -1.0892  0.5463
  889TIP3   OH2 2630   7.075   0.608   5.446  0.0960 -0.0848  0.0047
  889TIP3    H1 2631   7.167   0.612   5.418 -0.0781  0.5747 -0.4885
  889TIP3    H2 2632   7.079   0.566   5.532  0.8689  0.0057  0.0258
  890TIP3   OH2 2633   2.360   5.735   1.293 -0.4358  0.4210  0.3591
  890TIP3    H1 2634   2.292   5.781   1.343 -1.2545  0.3956 -0.7095
  890TIP3    H2 2635   2.330   5.739   1.202 -0.4476 -2.0642  0.1964
  891TIP3   OH2 2636   3.924   2.867   0.754 -0.7358  0.3103 -0.3200
  891TIP3    H1 2637   3.934   2.783   0.800  1.6549  0.7277  0.0591
  891TIP3    H2 2638   3.872   2.921   0.813  1.9124  0.6979  1.8808
  892TIP3   OH2 2639   0.345   1.006   1.139  0.2830 -0.2448 -0.2282
  892TIP3    H1 2640   0.336   1.055   1.220  2.0217 -0.6019  0.2372
  892TIP3    H2 2641   0.385   1.068   1.078 -2.7742  0.6353 -1.5023
  893TIP3   OH2 2642   5.668   1.055   2.941 -0.3296  0.2881  0.0957
  893TIP3    H1 2643   5.618   0.974   2.932 -0.8062  0.6435 -0.6321
  893TIP3    H2 2644   5.603   1.120   2.970  0.1786  0.2807  1.3003
  894TIP3   OH2 2645   6.323   2.650   5.606 -0.2226 -0.1448  0.2144
  894TIP3    H1 2646   6.408   2.642   5.564  0.2715  1.0684  0.9104
  894TIP3    H2 2647   6.261   2.612   5.544  0.4108  1.9459 -1.8658
  895TIP3   OH2 2648   4.580   2.407   4.657 -0.8021  0.1002  0.0701
  895TIP3    H1 2649   4.643   2.472   4.626 -0.5782 -0.5294 -0.8378
  895TIP3    H2 2650   4.554   2.359   4.579 -0.5721 -1.2516  0.7851
  896TIP3   OH2 2651   1.825   5.721   2.385 -0.3065  0.4126  0.0659
  896TIP3    H1 2652   1.840   5.717   2.479 -2.7261 -0.6920  0.4654
  896TIP3    H2 2653   1.731   5.734   2.375 -0.2493 -0.4061 -2.2019
  897TIP3   OH2 2654   2.541   6.218   0.209  0.0791  0.0216  0.1084
  897TIP3    H1 2655   2.591   6.298   0.193 -0.4561  0.7279  1.7209
  897TIP3    H2 2656   2.487   6.207   0.130  1.2329  0.4069 -0.7562
  898TIP3   OH2 2657   6.967   3.803   4.724  0.2726  0.0123  0.4936
  898TIP3    H1 2658   6.940   3.894   4.735  1.2581  0.3896 -0.0863
  898TIP3    H2 2659   6.909   3.753   4.782 -2.0317  0.6953 -1.0843
  899TIP3   OH2 2660   5.338   0.463   0.634  0.6949 -0.2690 -0.2966
  899TIP3    H1 2661   5.318   0.371   0.619  0.5954 -0.2175 -0.4890
  899TIP3    H2 2662   5.266   0.510   0.593  1.5367 -0.0667 -1.6312
  900TIP3   OH2 2663   3.306   4.325   5.677 -0.1984  0.0693 -0.1157
  900TIP3    H1 2664   3.270   4.409   5.704  1.2589  0.5730  0.3683
  900TIP3    H2 2665   3.269   4.262   5.739  1.5373  0.9204  1.9390
  901TIP3   OH2 2666   5.234   4.868   1.814 -0.7570 -0.2066 -0.0115
  901TIP3    H1 2667   5.269   4.872   1.903 -0.8202  2.1697 -0.0255
  901TIP3    H2 2668   5.153   4.819   1.822  0.4927 -2.2703  0.7398
  902TIP3   OH2 2669   2.533   5.582   1.020 -0.1271 -0.2621  0.2517
  902TIP3    H1 2670   2.566   5.610   0.934 -0.9775  0.5668  0.1797
  902TIP3    H2 2671   2.474   5.653   1.048 -1.0746 -1.2303  0.8108
  903TIP3   OH2 2672   4.730   3.514   0.663  0.9299 -0.2966  0.4898
  903TIP3    H1 2673   4.773   3.455   0.601  3.2882  0.5258  1.2099
  903TIP3    H2 2674   4.646   3.473   0.682  1.1787 -1.8049 -1.3533
  904TIP3   OH2 2675   1.931   0.086   2.826 -0.6234 -0.0186  0.1637
  904TIP3    H1 2676   1.921   0.086   2.921 -0.8820  1.3787  0.1616
  904TIP3    H2 2677   2.001   0.023   2.809 -1.1071 -0.8662  1.2031
  905TIP3   OH2 2678   2.733   5.089   0.306  0.1590 -0.2251 -0.2554
  905TIP3    H1 2679   2.828   5.074   0.312  0.3828  1.3887  0.9351
  905TIP3    H2 2680   2.702   5.022   0.246  2.4217  0.6843 -2.6645
  906TIP3   OH2 2681   1.055   4.699   5.263 -0.0245  0.1297 -0.5484
  906TIP3    H1 2682   1.101   4.668   5.185 -0.8893  0.6555 -1.2976
  906TIP3    H2 2683   1.119   4.692   5.334  0.4552 -1.3351 -1.1039
  907TIP3   OH2 2684   4.293   1.790   4.978 -0.0590  0.4772  0.1983
  907TIP3    H1 2685   4.382   1.757   4.989 -0.4294 -0.8700 -0.6196
  907TIP3    H2 2686   4.239   1.731   5.031 -0.6785  0.0422 -0.8910
  908TIP3   OH2 2687   3.419   4.167   5.107 -0.0196 -0.3383  0.5988
  908TIP3    H1 2688   3.428   4.224   5.031 -2.0647 -0.6163  0.0882
  908TIP3    H2 2689   3.324   4.161   5.121  0.1895 -2.6191  1.3801
  909TIP3   OH2 2690   2.625   6.300   5.153 -0.3528  0.7832 -0.2454
  909TIP3    H1 2691   2.702   6.243   5.155 -0.5651  0.5042  0.3896
  909TIP3    H2 2692   2.588   6.288   5.065 -2.5235 -2.9956  0.9501
  910TIP3   OH2 2693   5.214   1.783   4.365 -0.0023 -0.4272 -0.0125
  910TIP3    H1 2694   5.304   1.798   4.395 -0.8253  0.2964  2.3931
  910TIP3    H2 2695   5.165   1.858   4.399 -1.6145 -1.0470 -0.8433
  911TIP3   OH2 2696   1.180   1.789   4.076  0.3418 -0.2407  0.3379
  911TIP3    H1 2697   1.244   1.858   4.096  1.5304 -1.1033 -0.3670
  911TIP3    H2 2698   1.120   1.830   4.013  1.7297 -0.1713 -0.9861
  912TIP3   OH2 2699   5.805   4.961   4.141  0.0901  0.3149 -0.3068
  912TIP3    H1 2700   5.764   4.881   4.174 -0.2661  0.1755 -1.0734
  912TIP3    H2 2701   5.865   4.987   4.211  0.4710 -0.8153 -0.1913
  913TIP3   OH2 2702   0.031   0.712   2.653 -0.3101  0.4004 -0.0926
  913TIP3    H1 2703   0.049   0.683   2.564 -1.7096 -0.4008 -0.1388
  913TIP3    H2 2704   0.106   0.766   2.677  0.6946 -0.4499 -1.2724
  914TIP3   OH2 2705   3.047   1.641   2.199  0.3853  0.2263 -0.1241
  914TIP3    H1 2706   3.124   1.592   2.226 -0.3787 -1.3315 -0.6399
  914TIP3    H2 2707   3.081   1.712   2.145  1.4699 -0.2685 -0.1108
  915TIP3   OH2 2708   3.571   4.497   0.085  0.1252  0.5946 -0.1347
  915TIP3    H1 2709   3.504   4.565   0.087  2.0472  2.6265 -0.7438
  915TIP3    H2 2710   3.595   4.489  -0.007 -2.0542 -3.1340 -0.5652
  916TIP3   OH2 2711   6.268   5.137   5.664 -0.0939 -0.2230  0.0110
  916TIP3    H1 2712   6.262   5.230   5.683 -0.5964 -0.3246  0.3757
  916TIP3    H2 2713   6.337   5.130   5.598  0.7156  0.2912  0.7754
  917TIP3   OH2 2714   3.980   3.004   0.517 -0.0759 -0.5846 -0.1387
  917TIP3    H1 2715   3.937   2.934   0.467  1.5981 -1.7262 -0.0455
  917TIP3    H2 2716   3.982   2.971   0.607  1.8732 -1.0549 -0.3051
  918TIP3   OH2 2717   6.736   1.856   0.641 -0.3852  0.5441  0.0017
  918TIP3    H1 2718   6.653   1.831   0.602 -0.9804  0.0920  1.4975
  918TIP3    H2 2719   6.760   1.938   0.597 -1.3629  0.4176 -0.7861
  919TIP3   OH2 2720   5.277   5.643   4.124  0.0112 -0.7811 -0.2218
  919TIP3    H1 2721   5.346   5.637   4.190  0.4276 -2.4940 -0.7628
  919TIP3    H2 2722   5.262   5.737   4.114  1.9401 -0.3715  0.2510
  920TIP3   OH2 2723   1.075   0.939   5.307  0.3536  0.0463  0.7277
  920TIP3    H1 2724   1.034   0.881   5.243  1.1315 -0.3629  0.5888
  920TIP3    H2 2725   1.086   0.886   5.385 -1.8226  0.9207  1.7065
  921TIP3   OH2 2726   6.635   0.168   3.076  0.1981 -0.0963 -0.2921
  921TIP3    H1 2727   6.723   0.206   3.076  0.5637 -0.7079 -3.2361
  921TIP3    H2 2728   6.646   0.082   3.117  0.1712  1.1235  2.5605
  922TIP3   OH2 2729   0.521   5.979   5.022 -0.0747  0.1907 -0.3749
  922TIP3    H1 2730   0.449   5.917   5.012 -1.0722  0.9853  1.3509
  922TIP3    H2 2731   0.577   5.940   5.090  1.1549 -0.4044 -1.6759
  923TIP3   OH2 2732   2.682   5.612   1.935  0.1816  0.6309  0.4580
  923TIP3    H1 2733   2.776   5.595   1.936  0.0638 -0.0561  1.6842
  923TIP3    H2 2734   2.650   5.574   2.017 -1.4203 -0.5988 -0.6821
  924TIP3   OH2 2735   4.787   1.018   2.206  0.2343  0.1899  0.3468
  924TIP3    H1 2736   4.786   1.052   2.116  0.8577  1.2354  0.7125
  924TIP3    H2 2737   4.711   1.058   2.247  1.4066  1.8485  1.0012
  925TIP3   OH2 2738   5.826   0.713   4.724 -0.0699  0.2339 -0.4507
  925TIP3    H1 2739   5.898   0.652   4.743  0.7223  0.9295 -1.1421
  925TIP3    H2 2740   5.747   0.665   4.749  0.6877 -0.1089  1.4454
  926TIP3   OH2 2741   2.676   2.993   4.364 -0.0327  0.1676 -0.3980
  926TIP3    H1 2742   2.734   3.060   4.399 -0.1131  0.6224 -1.1189
  926TIP3    H2 2743   2.714   2.910   4.395 -1.1375  0.5752  2.3068
  927TIP3   OH2 2744   2.728   1.445   3.469  0.2186 -0.2879  0.3816
  927TIP3    H1 2745   2.641   1.479   3.448  0.6283  0.7851  0.3487
  927TIP3    H2 2746   2.788   1.515   3.443  1.1770 -1.3839 -0.4572
  928TIP3   OH2 2747   3.292   5.084   5.791  0.2768 -0.0461  0.3146
  928TIP3    H1 2748   3.340   5.039   5.860 -0.6579 -1.5852  0.0004
  928TIP3    H2 2749   3.359   5.136   5.746  1.2033 -0.3408  1.3107
  929TIP3   OH2 2750   0.661   6.150   0.339  0.8424  0.4550  0.1459
  929TIP3    H1 2751   0.670   6.058   0.315  0.6198  0.6305 -0.6308
  929TIP3    H2 2752   0.566   6.163   0.349  0.8514  0.6678 -0.0367
  930TIP3   OH2 2753   3.616   2.294   2.671  0.2316 -0.6675 -0.0654
  930TIP3    H1 2754   3.676   2.220   2.659  0.1558 -0.6265 -0.7527
  930TIP3    H2 2755   3.628   2.348   2.593  0.5656  0.2546  0.6011
  931TIP3   OH2 2756   3.182   5.585   3.536 -0.5768  0.1650 -0.0380
  931TIP3    H1 2757   3.199   5.542   3.453  0.3302 -0.0065  0.2240
  931TIP3    H2 2758   3.130   5.523   3.586  0.7620 -0.6981  0.3543
  932TIP3   OH2 2759   4.774   3.295   1.859 -0.2630 -0.4526 -0.2192
  932TIP3    H1 2760   4.733   3.214   1.891 -0.1447 -0.1195  0.8388
  932TIP3    H2 2761   4.779   3.351   1.937  0.1719  0.3584 -0.8164
  933TIP3   OH2 2762   3.691   1.844   4.338 -0.9274 -1.0173 -0.4220
  933TIP3    H1 2763   3.762   1.900   4.371 -0.2564 -1.6791 -0.6982
  933TIP3    H2 2764   3.706   1.841   4.243 -0.1235 -2.7373 -0.2735
  934TIP3   OH2 2765   2.536   4.900   1.878 -0.4345 -0.1822  0.4794
  934TIP3    H1 2766   2.456   4.914   1.828 -0.6630  1.8888  1.3042
  934TIP3    H2 2767   2.517   4.937   1.965  1.0260 -0.6961  1.0499
  935TIP3   OH2 2768   4.773   5.180   4.951 -0.4870 -0.7771 -0.2170
  935TIP3    H1 2769   4.702   5.207   4.893 -0.5546 -0.0466  0.2047
  935TIP3    H2 2770   4.787   5.087   4.929 -1.4617 -0.8890 -0.4100
  936TIP3   OH2 2771   2.675   3.891   3.944 -0.4344  0.2467  0.5284
  936TIP3    H1 2772   2.631   3.948   3.881  1.7276  0.4669 -0.8809
  936TIP3    H2 2773   2.621   3.811   3.945 -1.9508  1.2201  0.4341
  937TIP3   OH2 2774   6.729   5.364   5.081 -0.3949  0.2543  0.7933
  937TIP3    H1 2775   6.790   5.361   5.008  1.4243  0.3303  2.2514
  937TIP3    H2 2776   6.734   5.454   5.113 -1.7629  0.4309  0.5699
  938TIP3   OH2 2777   6.694   1.301   1.781  0.1697  0.2428  0.2372
  938TIP3    H1 2778   6.643   1.382   1.777 -0.6053 -0.1676  1.2542
  938TIP3    H2 2779   6.747   1.302   1.702  0.2339  1.7811  0.2638
  939TIP3   OH2 2780   3.629   6.231   0.847  0.3221  0.1016 -0.3681
  939TIP3    H1 2781   3.677   6.157   0.884  0.4725  0.3156 -0.1318
  939TIP3    H2 2782   3.622   6.293   0.919  0.1413  0.2910 -0.5480
  940TIP3   OH2 2783   0.324   3.014   1.319 -0.1202 -0.0085  0.1562
  940TIP3    H1 2784   0.238   3.054   1.327 -0.8610 -1.5689  0.3130
  940TIP3    H2 2785   0.351   3.030   1.229 -1.8060 -1.8369 -0.7379
  941TIP3   OH2 2786   3.781   2.506   3.975  0.2801  0.5205  0.3107
  941TIP3    H1 2787   3.757   2.594   3.943  0.3805  0.1169 -0.9144
  941TIP3    H2 2788   3.814   2.461   3.898  0.2199 -0.6101  0.9314
  942TIP3   OH2 2789   0.311   2.422   1.325  0.1460  0.0876  0.3439
  942TIP3    H1 2790   0.266   2.416   1.241 -0.1111  1.2097  0.3821
  942TIP3    H2 2791   0.383   2.484   1.308 -0.1115  0.5843  1.0268
  943TIP3   OH2 2792   6.820   2.768   3.630 -1.0344 -0.1118 -0.0594
  943TIP3    H1 2793   6.831   2.678   3.600 -0.6656 -0.8412  2.0623
  943TIP3    H2 2794   6.909   2.798   3.649 -1.3406 -0.7383  2.9024
  944TIP3   OH2 2795   3.644   1.574   2.408 -0.5526 -0.2243 -0.0397
  944TIP3    H1 2796   3.647   1.668   2.390  1.0463 -0.7161 -2.8818
  944TIP3    H2 2797   3.727   1.540   2.375 -0.1868 -2.4288  2.7505
  945TIP3   OH2 2798   4.886   0.158   0.819 -0.3486  0.3839 -0.0251
  945TIP3    H1 2799   4.845   0.221   0.878 -1.1464 -0.0848 -0.0620
  945TIP3    H2 2800   4.959   0.122   0.870 -0.9599  0.0625  0.6586
  946TIP3   OH2 2801   6.499   5.746   5.299 -0.0906 -0.1682  0.1794
  946TIP3    H1 2802   6.434   5.709   5.359  0.0898  0.0901  0.5349
  946TIP3    H2 2803   6.453   5.752   5.215 -1.0803  1.6185  0.8022
  947TIP3   OH2 2804   7.103   1.280   2.250 -0.1315  0.2469 -0.4259
  947TIP3    H1 2805   7.060   1.224   2.314  0.0169  1.0563  0.4025
  947TIP3    H2 2806   7.184   1.233   2.227 -0.5343 -0.3853 -0.5779
  948TIP3   OH2 2807   2.329   0.687   0.691 -0.0699 -0.1484 -0.2131
  948TIP3    H1 2808   2.369   0.766   0.653 -0.8925  0.3091 -0.1526
  948TIP3    H2 2809   2.328   0.705   0.785 -1.8709  0.5640 -0.3293
  949TIP3   OH2 2810   5.197   1.281   2.009 -0.5041 -0.1140 -0.1118
  949TIP3    H1 2811   5.125   1.226   2.040  0.3621 -1.2936 -0.0880
  949TIP3    H2 2812   5.262   1.277   2.079 -0.0267  0.1663 -0.5301
  950TIP3   OH2 2813   5.920   2.152   2.559 -0.1483  0.1521 -0.3852
  950TIP3    H1 2814   5.964   2.174   2.476  2.0936  1.0563  0.9520
  950TIP3    H2 2815   5.831   2.185   2.548  0.2149  0.6312 -2.2774
  951TIP3   OH2 2816   1.314   2.273   1.169 -0.0743 -0.4696  0.0597
  951TIP3    H1 2817   1.339   2.196   1.220  0.2450  0.9619  2.1726
  951TIP3    H2 2818   1.390   2.331   1.173 -1.0296  0.8200  0.2518
  952TIP3   OH2 2819   0.263   6.326   5.064  0.4985 -0.5927 -0.2107
  952TIP3    H1 2820   0.179   6.331   5.020 -0.8872  0.3179  2.3335
  952TIP3    H2 2821   0.327   6.318   4.993 -1.4542  1.6256 -2.4274
  953TIP3   OH2 2822   0.902   4.641   0.072  0.3182 -0.2724  0.1581
  953TIP3    H1 2823   0.906   4.557   0.028  1.9083 -0.1469  0.0272
  953TIP3    H2 2824   0.808   4.655   0.088  0.0025 -1.8691 -0.1501
  954TIP3   OH2 2825   5.804   3.590   3.397 -0.0205  0.7229  0.2706
  954TIP3    H1 2826   5.794   3.505   3.440  0.5262 -0.0831 -1.1246
  954TIP3    H2 2827   5.898   3.608   3.404  0.1926  0.2546 -1.1291
  955TIP3   OH2 2828   5.112   1.613   2.307  0.0376 -0.4661  0.2391
  955TIP3    H1 2829   5.084   1.576   2.223  0.9209 -0.8543  0.1143
  955TIP3    H2 2830   5.167   1.546   2.346  0.7983  0.2900  0.4872
  956TIP3   OH2 2831   4.972   6.404   2.913  0.2863  0.8431 -0.2005
  956TIP3    H1 2832   4.920   6.478   2.946  1.1252  2.3319 -2.0108
  956TIP3    H2 2833   5.038   6.389   2.981 -0.4556  1.1095  0.6092
  957TIP3   OH2 2834   5.408   3.008   1.994 -0.6759  0.0508 -0.1324
  957TIP3    H1 2835   5.398   2.988   1.901 -2.1734 -0.8804  0.1955
  957TIP3    H2 2836   5.350   2.946   2.038  0.5187  0.0215  1.4809
  958TIP3   OH2 2837   1.156   0.066   0.136  0.0708 -0.2666 -0.4081
  958TIP3    H1 2838   1.185   0.084   0.046  0.6846  1.0332  0.0278
  958TIP3    H2 2839   1.212   0.121   0.191 -2.1216  1.0909  0.5986
  959TIP3   OH2 2840   3.167   0.556   0.344 -0.0968 -0.2217 -0.1011
  959TIP3    H1 2841   3.156   0.626   0.408 -1.9658 -0.2185 -0.3553
  959TIP3    H2 2842   3.253   0.572   0.305  1.3639 -0.5270  2.7150
  960TIP3   OH2 2843   2.903   1.240   3.421 -0.2352 -0.2743 -0.1699
  960TIP3    H1 2844   2.848   1.300   3.471 -0.8782 -0.3300 -0.7842
  960TIP3    H2 2845   2.857   1.156   3.425  0.2702 -0.5485  0.0508
  961TIP3   OH2 2846   2.912   6.706   0.167 -0.1442  0.4941 -0.4504
  961TIP3    H1 2847   2.895   6.796   0.192  1.7432  0.7919 -0.1021
  961TIP3    H2 2848   2.833   6.679   0.120 -1.5401  1.6702  1.0982
  962TIP3   OH2 2849   5.078   1.317   0.926  0.8595  0.1072 -0.5799
  962TIP3    H1 2850   5.089   1.401   0.882 -0.6351  1.4582  1.4366
  962TIP3    H2 2851   5.107   1.332   1.015  1.1241 -1.7150 -0.3192
  963TIP3   OH2 2852   6.714   6.772   1.854 -0.1189 -0.0586  0.0325
  963TIP3    H1 2853   6.768   6.838   1.812 -0.9799  0.5509 -0.1364
  963TIP3    H2 2854   6.638   6.763   1.797 -0.2854 -0.7874  0.3495
  964TIP3   OH2 2855   1.779   2.857   1.876  0.0274  0.0622 -0.7476
  964TIP3    H1 2856   1.732   2.782   1.913  1.2631 -0.1822  0.4188
  964TIP3    H2 2857   1.870   2.842   1.900  0.3673  1.6914 -0.9269
  965TIP3   OH2 2858   4.290   1.925   5.568 -0.5160 -0.2718 -0.3006
  965TIP3    H1 2859   4.290   1.831   5.585  2.2846 -0.6170 -1.5770
  965TIP3    H2 2860   4.235   1.935   5.490 -0.6177 -0.9245 -0.3166
  966TIP3   OH2 2861   4.929   5.778   5.633 -0.6999 -0.1949 -0.1663
  966TIP3    H1 2862   4.973   5.717   5.574 -1.2371 -1.3773  0.6192
  966TIP3    H2 2863   4.884   5.722   5.697  0.0673  1.0204  1.5331
  967TIP3   OH2 2864   0.640   1.719   2.804 -0.0337  0.0511  0.0584
  967TIP3    H1 2865   0.627   1.648   2.740  0.0943  0.1983 -0.1351
  967TIP3    H2 2866   0.667   1.674   2.884  1.9180 -0.0269 -0.5852
  968TIP3   OH2 2867   1.258   4.209   2.345  0.0321  0.1611  0.0214
  968TIP3    H1 2868   1.288   4.290   2.386  0.5775 -0.1798  0.3104
  968TIP3    H2 2869   1.326   4.145   2.366 -0.9780 -0.6794  0.8170
  969TIP3   OH2 2870   2.031   3.670   3.275  0.2524  0.3685  0.2488
  969TIP3    H1 2871   1.987   3.754   3.261  0.0148  0.0859 -0.6982
  969TIP3    H2 2872   1.988   3.609   3.216  1.4532 -0.0747 -0.1956
  970TIP3   OH2 2873   1.206   0.212   3.932  0.2783  0.2620  0.3527
  970TIP3    H1 2874   1.207   0.155   3.855 -1.5743  0.2250  0.3101
  970TIP3    H2 2875   1.126   0.264   3.923  0.3791  0.7465  1.9093
  971TIP3   OH2 2876   6.932   3.032   5.532 -0.9508 -0.0623 -0.4531
  971TIP3    H1 2877   6.935   3.106   5.593  0.9451 -1.3773  1.1628
  971TIP3    H2 2878   6.981   3.062   5.455  1.0700 -0.0709  0.7759
  972TIP3   OH2 2879   3.755   4.851   0.234 -0.5548 -0.0834 -0.7075
  972TIP3    H1 2880   3.663   4.836   0.258 -0.5768  0.7541 -0.2327
  972TIP3    H2 2881   3.789   4.764   0.213 -1.0641 -0.5985  0.5273
  973TIP3   OH2 2882   0.929   2.186   4.996  0.1508  0.3554  0.1575
  973TIP3    H1 2883   0.845   2.217   4.963  0.0349  0.9158  0.9476
  973TIP3    H2 2884   0.982   2.266   5.003  0.7088  0.0270 -0.1965
  974TIP3   OH2 2885   3.807   0.137   4.145 -0.3794  0.1869  0.5454
  974TIP3    H1 2886   3.760   0.061   4.178 -1.2589 -0.0749 -1.2138
  974TIP3    H2 2887   3.813   0.123   4.051 -0.0410  2.0172  0.2568
  975TIP3   OH2 2888   2.976   2.333   1.539  0.3791  0.4572  0.1116
  975TIP3    H1 2889   2.905   2.388   1.571  0.6143 -0.0520  1.5985
  975TIP3    H2 2890   2.934   2.274   1.477  0.0612  2.0234 -1.2198
  976TIP3   OH2 2891   2.642   5.275   1.972 -0.5206 -0.5280 -0.3718
  976TIP3    H1 2892   2.692   5.229   2.040  0.7440 -0.6970 -1.3744
  976TIP3    H2 2893   2.618   5.358   2.013  3.1460  0.8761 -0.7064
  977TIP3   OH2 2894   0.453   5.404   1.079  0.0768  0.4423 -0.9808
  977TIP3    H1 2895   0.367   5.361   1.088  0.5621 -0.1986  1.5616
  977TIP3    H2 2896   0.508   5.339   1.036 -0.0288 -0.2542 -0.0952
  978TIP3   OH2 2897   4.795   0.272   4.528  0.0604 -0.0530 -0.0239
  978TIP3    H1 2898   4.704   0.241   4.534 -0.5069  1.6785  1.0912
  978TIP3    H2 2899   4.847   0.193   4.517 -1.5322 -1.1370 -0.1068
  979TIP3   OH2 2900   5.746   1.853   4.502 -0.1054  0.0625  0.6479
  979TIP3    H1 2901   5.835   1.819   4.504 -0.0336  0.2076  0.0862
  979TIP3    H2 2902   5.755   1.947   4.511 -0.2276  0.0422  0.9853
  980TIP3   OH2 2903   2.130   4.620   4.227  0.1295  0.0892 -0.1525
  980TIP3    H1 2904   2.038   4.629   4.252  0.3731  2.4638  0.0420
  980TIP3    H2 2905   2.177   4.617   4.310  0.3464  0.1764 -0.2723
  981TIP3   OH2 2906   2.943   2.121   4.419  0.0756 -0.4221 -0.0646
  981TIP3    H1 2907   2.974   2.177   4.490 -0.3714 -0.6561  0.3273
  981TIP3    H2 2908   2.886   2.178   4.367  1.8591  0.2656 -1.3268
  982TIP3   OH2 2909   5.237   2.105   1.838  0.3806 -0.1287 -0.0499
  982TIP3    H1 2910   5.183   2.028   1.819 -0.8522  0.0325  2.4240
  982TIP3    H2 2911   5.199   2.175   1.785 -1.0770 -0.3116  0.7199
  983TIP3   OH2 2912   1.452   1.617   2.272 -0.0471  0.0267  0.2706
  983TIP3    H1 2913   1.449   1.539   2.216  0.8366 -1.3074  1.9978
  983TIP3    H2 2914   1.368   1.661   2.258  0.3939  0.1619 -2.6021
  984TIP3   OH2 2915   6.229   3.811   2.075  0.0197  0.2184  0.4098
  984TIP3    H1 2916   6.147   3.764   2.090  0.1827 -0.1873  0.0222
  984TIP3    H2 2917   6.203   3.904   2.075 -0.3889  0.1078  0.5855
  985TIP3   OH2 2918   2.435   2.604   0.114 -0.4884 -0.0671 -0.1861
  985TIP3    H1 2919   2.518   2.597   0.161  0.3980 -0.2105 -1.7006
  985TIP3    H2 2920   2.369   2.613   0.182  0.8570  0.9524  1.0328
  986TIP3   OH2 2921   7.162   4.289   3.674  0.5216 -0.5835 -0.0247
  986TIP3    H1 2922   7.240   4.243   3.645 -0.2447 -2.0940  0.1840
  986TIP3    H2 2923   7.089   4.233   3.647 -0.4661  0.5463  0.1955
  987TIP3   OH2 2924   3.133   6.583   5.406  0.2542 -0.0175  0.0470
  987TIP3    H1 2925   3.227   6.592   5.421  0.0544  0.3426  1.1141
  987TIP3    H2 2926   3.096   6.566   5.492 -0.7515  0.5574 -0.2584
  988TIP3   OH2 2927   1.314   4.831   1.329  0.7435  0.7836  0.7577
  988TIP3    H1 2928   1.336   4.924   1.334  0.1431  1.0365 -0.6787
  988TIP3    H2 2929   1.331   4.808   1.238 -0.4411 -0.1592  0.7470
  989TIP3   OH2 2930   0.374   4.060   3.310  0.0036  0.1392  0.0146
  989TIP3    H1 2931   0.390   4.154   3.315 -1.6349  0.5045 -0.7593
  989TIP3    H2 2932   0.395   4.027   3.397 -3.5917  1.9917  1.8205
  990TIP3   OH2 2933   6.010   1.971   0.353 -0.1441  0.0035 -0.0586
  990TIP3    H1 2934   6.057   1.919   0.287 -0.9042  0.6935 -1.1870
  990TIP3    H2 2935   5.946   1.910   0.390 -0.1000 -0.2346 -0.3682
  991TIP3   OH2 2936   3.414   5.084   4.875  0.2558 -0.3033  0.0757
  991TIP3    H1 2937   3.475   5.153   4.849  0.5565 -0.4196  0.4586
  991TIP3    H2 2938   3.337   5.096   4.819  0.5023  0.0438 -0.1849
  992TIP3   OH2 2939   5.747   4.559   3.558 -0.1241  0.5005  0.3368
  992TIP3    H1 2940   5.672   4.537   3.503 -1.2140  0.2115  1.8720
  992TIP3    H2 2941   5.748   4.655   3.559  1.4100  0.5831 -2.0965
  993TIP3   OH2 2942   0.619   5.315   0.717 -0.2912 -0.1421  0.0098
  993TIP3    H1 2943   0.707   5.326   0.681 -0.0623  0.0060  0.5959
  993TIP3    H2 2944   0.614   5.380   0.787 -0.2569 -1.2496  1.0760
  994TIP3   OH2 2945   3.975   3.958   1.881 -0.4614  0.4712  0.3997
  994TIP3    H1 2946   4.012   3.890   1.936  1.6929  1.0921 -0.1717
  994TIP3    H2 2947   3.903   3.916   1.835  0.9447 -1.5292 -0.1172
  995TIP3   OH2 2948   3.382   0.995   1.712  0.1967 -0.6198  0.7651
  995TIP3    H1 2949   3.406   0.926   1.774 -0.0406  0.4894  2.1288
  995TIP3    H2 2950   3.428   1.073   1.744  1.0917 -0.2857 -1.1920
  996TIP3   OH2 2951   3.767   1.660   4.552  0.3981  0.0327  0.1517
  996TIP3    H1 2952   3.672   1.649   4.555  0.4255 -0.3639 -0.3011
  996TIP3    H2 2953   3.781   1.732   4.491  0.4005 -0.1007 -0.0056
  997TIP3   OH2 2954   5.291   5.461   2.229 -0.3260  0.0654  0.7684
  997TIP3    H1 2955   5.336   5.479   2.311 -1.1312  1.5751  0.9171
  997TIP3    H2 2956   5.201   5.489   2.245 -0.1934  1.7949 -1.0429
  998TIP3   OH2 2957   7.144   6.015   2.108  0.2652 -0.1839  0.4832
  998TIP3    H1 2958   7.187   5.942   2.064  0.1581 -1.4909  2.4274
  998TIP3    H2 2959   7.081   5.973   2.167  1.8152  1.3096  3.3925
  999TIP3   OH2 2960   2.583   0.822   2.446  0.0387  0.4677 -0.1272
  999TIP3    H1 2961   2.632   0.780   2.375 -0.0833 -0.8454  0.5234
  999TIP3    H2 2962   2.532   0.890   2.403  3.6177  3.0899 -0.6298
 1000TIP3   OH2 2963   5.614   0.456   3.738  0.0111 -0.0086  0.2998
 1000TIP3    H1 2964   5.596   0.545   3.767  0.8016  0.3879 -0.3781
 1000TIP3    H2 2965   5.707   0.443   3.757  0.0690 -0.4345 -0.2569
 1001TIP3   OH2 2966   5.933   1.600   0.305 -0.9352  0.4938 -0.5066
 1001TIP3    H1 2967   5.880   1.671   0.343 -1.6346 -0.2557 -0.0505
 1001TIP3    H2 2968   5.890   1.581   0.222 -0.6014  0.7663 -0.7424
 1002TIP3   OH2 2969   0.585   5.732   3.354  0.0217 -0.4399 -0.1162
 1002TIP3    H1 2970   0.557   5.817   3.388 -2.7032 -1.6756  1.0096
 1002TIP3    H2 2971   0.681   5.734   3.362  0.0639  2.5180 -0.2411
 1003TIP3   OH2 2972   5.593   2.667   5.565  0.0673 -0.1505  0.8359
 1003TIP3    H1 2973   5.565   2.753   5.533  0.9667 -0.1490  0.0016
 1003TIP3    H2 2974   5.524   2.640   5.625  1.4316  2.7333  4.0401
 1004TIP3   OH2 2975   1.065   0.765   1.948 -0.2140  0.2837 -0.2522
 1004TIP3    H1 2976   1.075   0.773   2.043 -0.9479  0.7398 -0.2122
 1004TIP3    H2 2977   1.011   0.839   1.923 -1.2531 -0.6406 -0.8272
 1005TIP3   OH2 2978   5.811   5.868   3.936 -0.3651  0.0404  0.3450
 1005TIP3    H1 2979   5.839   5.847   3.846  1.7459  1.6227  0.5567
 1005TIP3    H2 2980   5.717   5.882   3.928 -0.2466  0.1146 -1.6420
 1006TIP3   OH2 2981   6.137   0.229   1.246  0.4127 -0.4100  0.2742
 1006TIP3    H1 2982   6.120   0.135   1.234  1.9415 -0.6191 -0.5947
 1006TIP3    H2 2983   6.169   0.237   1.336 -0.8251 -0.5359  0.7322
 1007TIP3   OH2 2984   6.246   3.868   4.608  0.3222  0.4551  0.0818
 1007TIP3    H1 2985   6.204   3.916   4.680  1.4743 -0.0620  1.1458
 1007TIP3    H2 2986   6.338   3.895   4.613  1.2015 -2.4244  1.2548
 1008TIP3   OH2 2987   6.485   0.923   2.051  0.2674  0.2446  0.1096
 1008TIP3    H1 2988   6.518   0.953   2.136  1.6823  0.6323 -0.5381
 1008TIP3    H2 2989   6.541   0.968   1.987 -0.6343 -0.1978 -1.0226
 1009TIP3   OH2 2990   3.953   5.350   4.002 -0.5533  0.1060 -0.1944
 1009TIP3    H1 2991   3.982   5.259   4.001 -0.7515  0.0180  0.7454
 1009TIP3    H2 2992   4.032   5.401   3.986 -0.4764 -0.2299 -0.9189
 1010TIP3   OH2 2993   5.586   2.559   4.078  0.5816  0.0902 -0.1699
 1010TIP3    H1 2994   5.672   2.518   4.064  1.7167  0.3838  4.2581
 1010TIP3    H2 2995   5.523   2.488   4.066  1.3429 -0.2037 -3.2245
 1011TIP3   OH2 2996   6.669   3.318   2.928 -0.1469 -0.2848 -0.2482
 1011TIP3    H1 2997   6.625   3.357   2.852 -0.9253 -0.5098  0.0775
 1011TIP3    H2 2998   6.598   3.281   2.981  0.5615 -2.4366 -0.6872
 1012TIP3   OH2 2999   6.056   6.273   0.655  0.1492  0.6368 -0.0183
 1012TIP3    H1 3000   6.069   6.362   0.688 -2.2592  1.9518 -2.2464
 1012TIP3    H2 3001   6.038   6.285   0.561 -1.4560 -2.0831 -0.1529
 1013TIP3   OH2 3002   4.537   3.011   3.546 -0.1903 -0.0032 -0.5577
 1013TIP3    H1 3003   4.570   2.926   3.573 -1.1229  0.0136  0.7790
 1013TIP3    H2 3004   4.602   3.074   3.578 -0.3971 -0.1102  0.0887
 1014TIP3   OH2 3005   7.144   2.890   3.231 -0.2009 -0.2918 -0.1662
 1014TIP3    H1 3006   7.161   2.836   3.307  1.3743  0.5394  0.1290
 1014TIP3    H2 3007   7.051   2.877   3.212 -0.5128 -0.9049  1.5757
 1015TIP3   OH2 3008   0.727   0.528   5.163  0.0354  0.0315  0.2826
 1015TIP3    H1 3009   0.684   0.609   5.138 -2.0272 -1.1921 -0.3892
 1015TIP3    H2 3010   0.757   0.490   5.080 -0.5314 -0.6842  0.3958
 1016TIP3   OH2 3011   1.154   2.930   1.301  0.0563 -0.4250  0.2155
 1016TIP3    H1 3012   1.208   3.006   1.279  0.7231 -1.0146 -0.2169
 1016TIP3    H2 3013   1.216   2.864   1.331 -0.7552  0.2806  3.9695
 1017TIP3   OH2 3014   0.588   4.721   2.196 -0.2774 -0.2806  0.6673
 1017TIP3    H1 3015   0.551   4.706   2.109  1.0433  1.8144 -0.3301
 1017TIP3    H2 3016   0.512   4.730   2.253 -1.2632  0.6923 -0.7286
 1018TIP3   OH2 3017   6.911   3.889   5.442  0.2956  0.4435 -0.6839
 1018TIP3    H1 3018   6.884   3.804   5.408 -0.0360  0.2465  0.0561
 1018TIP3    H2 3019   6.922   3.875   5.536 -3.0753  1.9765  0.0899
 1019TIP3   OH2 3020   0.890   4.718   2.876  0.3756  0.5416 -0.1266
 1019TIP3    H1 3021   0.860   4.768   2.952  0.4722 -0.9964  0.9810
 1019TIP3    H2 3022   0.964   4.666   2.909 -1.0677 -1.9828 -0.5550
 1020TIP3   OH2 3023   7.117   4.890   4.667 -0.0783  0.1267 -0.1729
 1020TIP3    H1 3024   7.207   4.905   4.639 -0.0871  1.3752  0.4131
 1020TIP3    H2 3025   7.111   4.795   4.677  0.2178 -0.3260 -3.3390
 1021TIP3   OH2 3026   5.336   5.984   3.370 -0.1776  0.0985 -0.1649
 1021TIP3    H1 3027   5.427   5.956   3.379 -0.2225 -0.0234 -0.0921
 1021TIP3    H2 3028   5.335   6.035   3.289  0.2084  1.1347  0.4630
 1022TIP3   OH2 3029   2.500   2.957   1.819 -0.0613  0.1648  0.1077
 1022TIP3    H1 3030   2.424   2.911   1.784  0.7963 -0.3533 -1.1605
 1022TIP3    H2 3031   2.471   2.992   1.903 -1.2445 -1.2791  0.3314
 1023TIP3   OH2 3032   6.056   2.964   3.055 -0.5176  0.1939 -0.4575
 1023TIP3    H1 3033   6.074   2.874   3.029 -0.0372 -0.0810  0.7553
 1023TIP3    H2 3034   6.034   3.009   2.973  1.4083 -0.4997 -1.4209
 1024TIP3   OH2 3035   3.882   6.286   2.793  0.2824  0.5101  0.4343
 1024TIP3    H1 3036   3.913   6.305   2.881  2.8360  0.9735 -0.4515
 1024TIP3    H2 3037   3.912   6.360   2.741 -3.7661  1.7898 -0.4291
 1025TIP3   OH2 3038   3.259   5.818   2.848  0.3186 -0.3314 -0.0505
 1025TIP3    H1 3039   3.178   5.865   2.829  0.6220 -0.5109 -2.0499
 1025TIP3    H2 3040   3.296   5.863   2.924  0.1522  2.1367 -1.3228
 1026TIP3   OH2 3041   1.818   3.108   2.661 -0.1857  0.4363  0.3871
 1026TIP3    H1 3042   1.892   3.138   2.609 -0.2626  0.2476  0.1645
 1026TIP3    H2 3043   1.858   3.064   2.736 -0.0713  0.4160  0.3152
 1027TIP3   OH2 3044   1.577   5.026   2.315 -0.1662  0.6130 -0.1625
 1027TIP3    H1 3045   1.499   4.973   2.301  0.6238 -0.8244  0.6604
 1027TIP3    H2 3046   1.546   5.116   2.307 -1.9957  0.0971  0.5007
 1028TIP3   OH2 3047   4.681   6.115   1.948 -0.1475 -0.2045 -0.3108
 1028TIP3    H1 3048   4.776   6.124   1.960 -0.4249  2.1730  0.6082
 1028TIP3    H2 3049   4.667   6.132   1.855  0.3154 -0.2466 -0.3895
 1029TIP3   OH2 3050   3.750   5.359   0.046 -0.0903 -0.6692 -0.2103
 1029TIP3    H1 3051   3.779   5.271   0.067 -0.3453 -0.9216 -0.8860
 1029TIP3    H2 3052   3.686   5.380   0.114  0.6648 -0.6283  0.5000
 1030TIP3   OH2 3053   6.587   3.951   2.031 -0.0381 -0.0935  0.1769
 1030TIP3    H1 3054   6.545   3.997   1.958 -0.1190 -0.8056 -0.2315
 1030TIP3    H2 3055   6.533   3.873   2.044  0.6183 -0.5435  0.2533
 1031TIP3   OH2 3056   4.554   1.174   5.853 -0.8665 -0.1683 -0.5858
 1031TIP3    H1 3057   4.503   1.229   5.913  1.8737  1.9310 -0.0115
 1031TIP3    H2 3058   4.561   1.227   5.773  1.2659  0.1552 -0.2502
 1032TIP3   OH2 3059   4.517   1.305   5.610  0.6911  0.5820 -0.0498
 1032TIP3    H1 3060   4.599   1.315   5.562  1.3338 -0.3118  0.8020
 1032TIP3    H2 3061   4.477   1.226   5.573  0.1869  1.0347 -0.4858
 1033TIP3   OH2 3062   6.090   1.234   3.129 -0.3694 -0.4489 -0.4823
 1033TIP3    H1 3063   6.185   1.248   3.129 -0.2374 -1.2058  0.4407
 1033TIP3    H2 3064   6.080   1.141   3.108 -0.8342 -0.6530  0.5830
 1034TIP3   OH2 3065   0.010   5.018   1.068  0.0297 -0.0007  0.2355
 1034TIP3    H1 3066   0.080   5.083   1.071  0.7633 -0.7869  0.6298
 1034TIP3    H2 3067  -0.059   5.054   1.125  0.9780 -0.1805  1.5341
 1035TIP3   OH2 3068   7.047   3.414   1.556 -0.1418  0.1490  0.1963
 1035TIP3    H1 3069   6.962   3.412   1.601 -0.7662 -3.5746 -0.8579
 1035TIP3    H2 3070   7.106   3.366   1.614  1.0793  1.8123  0.4248
 1036TIP3   OH2 3071   5.526   6.500   1.349  0.0764  0.0204  0.0411
 1036TIP3    H1 3072   5.567   6.571   1.399 -0.8589  1.0655 -0.6152
 1036TIP3    H2 3073   5.537   6.525   1.258 -2.0701  0.4349 -0.1699
 1037TIP3   OH2 3074   0.601   4.966   3.569  0.4526 -0.2751  0.3866
 1037TIP3    H1 3075   0.695   4.982   3.571  0.4834 -0.0471 -1.3299
 1037TIP3    H2 3076   0.563   5.040   3.616  0.9870  1.4400 -1.7171
 1038TIP3   OH2 3077   1.469   0.509   3.222  0.1983  0.2731  0.8033
 1038TIP3    H1 3078   1.495   0.537   3.310  0.8585  0.1597  0.6473
 1038TIP3    H2 3079   1.489   0.415   3.220  0.0730  0.2509  0.5702
 1039TIP3   OH2 3080   0.781   2.558   2.729 -0.0649  0.8342  0.2381
 1039TIP3    H1 3081   0.763   2.602   2.812 -1.0944  2.5321 -0.8226
 1039TIP3    H2 3082   0.809   2.629   2.671 -0.8019 -0.0751 -1.2653
 1040TIP3   OH2 3083   5.072   3.527   3.468 -0.1443  0.1083 -0.1037
 1040TIP3    H1 3084   5.164   3.511   3.447  0.1635 -0.2586  1.4297
 1040TIP3    H2 3085   5.069   3.617   3.499 -0.1377 -0.1687  0.7137
 1041TIP3   OH2 3086   6.998   5.057   1.548  0.6851  0.5981 -0.0022
 1041TIP3    H1 3087   7.060   5.096   1.486  0.2644  0.6786 -0.3824
 1041TIP3    H2 3088   6.913   5.065   1.504  0.3566  0.7982  0.6552
 1042TIP3   OH2 3089   3.413   2.464   2.031  0.2825  0.2035  0.6617
 1042TIP3    H1 3090   3.370   2.523   1.969  0.6973 -0.7674 -0.5897
 1042TIP3    H2 3091   3.498   2.505   2.048  1.2091 -0.7208 -1.3914
 1043TIP3   OH2 3092   4.648   1.309   1.506  0.0637 -0.2049 -0.2335
 1043TIP3    H1 3093   4.575   1.257   1.473  0.1366  0.6394 -1.8283
 1043TIP3    H2 3094   4.719   1.246   1.519 -0.3829 -0.7574 -0.4392
 1044TIP3   OH2 3095   1.007   4.698   1.842  0.0777 -0.0866 -0.0693
 1044TIP3    H1 3096   1.018   4.740   1.927  0.0694  0.2678 -0.2434
 1044TIP3    H2 3097   1.030   4.765   1.778 -1.6560  0.2481 -0.4031
 1045TIP3   OH2 3098   1.901   5.921   5.064  0.3151 -0.4304  0.1851
 1045TIP3    H1 3099   1.976   5.875   5.102 -0.2405 -0.9498  0.6583
 1045TIP3    H2 3100   1.824   5.873   5.094 -0.2274  0.1924 -0.1615
 1046TIP3   OH2 3101   3.845   4.817   2.850  0.1922 -0.3350  0.1955
 1046TIP3    H1 3102   3.777   4.790   2.789  1.0149 -2.0598  0.0008
 1046TIP3    H2 3103   3.806   4.803   2.937  0.5427 -2.1139  0.0990
 1047TIP3   OH2 3104   3.632   1.860   2.441 -0.2165 -0.1887 -0.2925
 1047TIP3    H1 3105   3.537   1.864   2.455 -0.1417 -0.6339  0.3792
 1047TIP3    H2 3106   3.656   1.947   2.409 -1.0072 -0.3771 -1.4696
 1048TIP3   OH2 3107   3.671   2.001   2.948 -0.3000  0.3827 -0.3293
 1048TIP3    H1 3108   3.722   2.017   2.869 -1.8634 -0.3880 -1.5582
 1048TIP3    H2 3109   3.696   1.912   2.974 -0.4041  0.3223 -0.4377
 1049TIP3   OH2 3110   5.666   4.156   3.444  0.0878 -0.1030  0.3042
 1049TIP3    H1 3111   5.571   4.147   3.444  0.0960 -0.4238  1.7487
 1049TIP3    H2 3112   5.698   4.073   3.408 -0.1711  0.0527 -0.2973
 1050TIP3   OH2 3113   3.447   2.185   0.087 -0.5647 -0.0926  0.4320
 1050TIP3    H1 3114   3.389   2.173   0.162  0.2172  1.9167  1.4388
 1050TIP3    H2 3115   3.535   2.170   0.122 -0.1347  1.5573  0.1156
 1051TIP3   OH2 3116   3.404   4.626   1.343 -0.0126 -0.5589  0.2415
 1051TIP3    H1 3117   3.421   4.649   1.252  0.1134  0.5246  0.5156
 1051TIP3    H2 3118   3.432   4.703   1.392 -2.6500  0.0324  0.9888
 1052TIP3   OH2 3119   0.337   1.663   3.038 -0.2369 -0.8089  0.3476
 1052TIP3    H1 3120   0.392   1.620   3.104 -0.2225 -1.8718 -0.3168
 1052TIP3    H2 3121   0.265   1.601   3.024 -1.2082  0.2293  0.6669
 1053TIP3   OH2 3122   6.910   5.225   0.825  0.0873 -0.1921  0.0071
 1053TIP3    H1 3123   6.965   5.148   0.812 -0.8899 -0.7447 -1.0358
 1053TIP3    H2 3124   6.958   5.297   0.785  0.1773 -0.6223 -0.6638
 1054TIP3   OH2 3125   3.029   2.932   4.104 -0.3891  0.2261 -0.2199
 1054TIP3    H1 3126   2.993   2.884   4.028 -1.3646  1.6276 -0.6724
 1054TIP3    H2 3127   3.123   2.915   4.100 -0.4899 -0.1580 -1.4452
 1055TIP3   OH2 3128   5.191   1.503   4.200  0.2856 -0.1999 -0.0421
 1055TIP3    H1 3129   5.159   1.456   4.123  2.1827 -0.6367 -0.6183
 1055TIP3    H2 3130   5.272   1.458   4.224  0.7418  1.1202  1.0370
 1056TIP3   OH2 3131   4.617   0.999   1.351  0.9107  0.1680  0.4682
 1056TIP3    H1 3132   4.684   0.973   1.415  1.4033  3.0529  1.2925
 1056TIP3    H2 3133   4.540   1.020   1.405  0.3391 -0.1797 -0.1954
 1057TIP3   OH2 3134   4.908   0.536   0.066  0.0140  0.2428  0.3424
 1057TIP3    H1 3135   4.903   0.590   0.145  0.3796  0.3373  0.3033
 1057TIP3    H2 3136   5.000   0.510   0.060  0.0017  0.2822 -0.0801
 1058TIP3   OH2 3137   2.812   4.720   4.555 -0.1473  0.1122 -0.1332
 1058TIP3    H1 3138   2.876   4.758   4.615 -0.4320 -1.7044  1.4236
 1058TIP3    H2 3139   2.822   4.625   4.566 -2.4258 -0.2479 -0.5620
 1059TIP3   OH2 3140   2.556   3.494   4.557 -0.0038 -0.1334  0.3484
 1059TIP3    H1 3141   2.473   3.513   4.600  0.3007  4.2487 -0.5340
 1059TIP3    H2 3142   2.622   3.508   4.625  0.1880  1.3842 -0.1117
 1060TIP3   OH2 3143   2.045   0.445   5.313  0.2270  0.0254 -0.0810
 1060TIP3    H1 3144   2.110   0.505   5.348 -1.0159  1.2807  0.1576
 1060TIP3    H2 3145   1.979   0.438   5.382  0.3893 -1.7349 -0.0521
 1061TIP3   OH2 3146   5.976   6.457   1.609  0.2517 -0.1369  0.2084
 1061TIP3    H1 3147   5.913   6.393   1.575  0.6824 -0.4235 -0.0625
 1061TIP3    H2 3148   6.003   6.422   1.694  1.5416 -1.0564 -0.5514
 1062TIP3   OH2 3149   4.023   1.356   0.354  0.3426  0.3059 -0.3725
 1062TIP3    H1 3150   4.075   1.412   0.296  0.8085  0.4171  0.1390
 1062TIP3    H2 3151   3.965   1.307   0.296  0.7915  0.4255 -0.9231
 1063TIP3   OH2 3152   1.482   2.397   2.922  0.2361 -0.2708 -0.1017
 1063TIP3    H1 3153   1.468   2.387   3.017 -0.0521  1.5232  0.0960
 1063TIP3    H2 3154   1.394   2.388   2.885  0.4123 -1.4265 -0.2683
 1064TIP3   OH2 3155   1.055   6.216   0.657  0.3058 -0.2789 -0.0596
 1064TIP3    H1 3156   1.014   6.302   0.666 -0.3146 -0.4680 -0.9692
 1064TIP3    H2 3157   1.057   6.200   0.562  2.4472 -0.2998 -0.0630
 1065TIP3   OH2 3158   1.576   5.473   2.650 -0.0007  0.2279  0.2389
 1065TIP3    H1 3159   1.577   5.378   2.645 -0.2721  0.2949 -2.4465
 1065TIP3    H2 3160   1.492   5.494   2.692 -1.0618 -0.7233 -1.2962
 1066TIP3   OH2 3161   3.656   2.707   2.601 -0.3469  0.5526  0.8905
 1066TIP3    H1 3162   3.579   2.666   2.561  1.5937 -1.0274 -1.4438
 1066TIP3    H2 3163   3.625   2.794   2.626 -2.4814  0.6149 -1.5097
 1067TIP3   OH2 3164  -0.002   3.658   0.679 -0.1087  0.3072 -0.0232
 1067TIP3    H1 3165  -0.035   3.617   0.600 -0.0164 -1.7863  0.9457
 1067TIP3    H2 3166   0.062   3.722   0.648 -1.2406  0.6871 -1.6769
 1068TIP3   OH2 3167   2.046   0.823   3.695  0.0618 -0.3504  0.0270
 1068TIP3    H1 3168   2.056   0.811   3.600 -1.5898 -1.5710 -0.0372
 1068TIP3    H2 3169   2.118   0.772   3.733  1.1281  0.6704 -0.5528
 1069TIP3   OH2 3170   1.638   3.043   1.741  0.0430  0.1077  0.2252
 1069TIP3    H1 3171   1.688   2.965   1.765  0.4579  0.7748  1.6548
 1069TIP3    H2 3172   1.564   3.010   1.690  1.3116 -1.0068 -0.9652
 1070TIP3   OH2 3173   1.150   0.612   1.120  0.4202  0.5208  0.4215
 1070TIP3    H1 3174   1.079   0.633   1.181 -1.3630 -1.7733 -0.7277
 1070TIP3    H2 3175   1.192   0.536   1.159 -0.6317 -0.8655 -1.0399
 1071TIP3   OH2 3176   1.947   3.738   2.044 -0.2230 -0.1416 -0.5935
 1071TIP3    H1 3177   1.926   3.831   2.033  2.1424  0.5905  0.4345
 1071TIP3    H2 3178   2.041   3.736   2.061 -0.4782 -2.5917  1.0788
 1072TIP3   OH2 3179   5.250   4.051   0.164  0.0220  0.0605  0.4122
 1072TIP3    H1 3180   5.335   4.070   0.124 -0.6209  0.2773 -0.9043
 1072TIP3    H2 3181   5.186   4.085   0.101 -1.0938 -1.9981  0.3374
 1073TIP3   OH2 3182   1.308   2.391   5.171  0.1682 -0.0745 -0.1509
 1073TIP3    H1 3183   1.399   2.366   5.185  0.7032  1.2110 -1.0305
 1073TIP3    H2 3184   1.307   2.429   5.083 -1.2603 -0.2131 -0.2273
 1074TIP3   OH2 3185   5.543   1.505   1.611  0.1865 -0.5417  0.4475
 1074TIP3    H1 3186   5.471   1.562   1.636  0.0527 -0.6329  0.2715
 1074TIP3    H2 3187   5.591   1.553   1.543 -0.0836 -0.7493  0.1056
 1075TIP3   OH2 3188   1.018   3.719   1.066  0.2288 -0.0809  0.0275
 1075TIP3    H1 3189   1.021   3.751   1.157 -0.8826  0.1636 -0.0136
 1075TIP3    H2 3190   1.029   3.624   1.074 -0.8292 -0.1818  0.5130
 1076TIP3   OH2 3191   3.746   3.691   0.874  0.2200 -0.0405 -0.2632
 1076TIP3    H1 3192   3.705   3.694   0.961  0.3165  1.9946 -0.2337
 1076TIP3    H2 3193   3.686   3.742   0.819  0.4195 -0.8998 -1.2831
 1077TIP3   OH2 3194   4.674   3.860   0.131 -0.0511  0.3349 -0.8058
 1077TIP3    H1 3195   4.644   3.917   0.201 -0.0604 -0.8441  0.1778
 1077TIP3    H2 3196   4.653   3.908   0.050  0.3865  1.9308 -0.0285
 1078TIP3   OH2 3197   4.862   2.588   4.510 -0.4943  0.1721  0.2952
 1078TIP3    H1 3198   4.774   2.625   4.499 -0.4956  0.1129  0.1088
 1078TIP3    H2 3199   4.915   2.661   4.540 -0.9450 -0.1393  1.9283
 1079TIP3   OH2 3200   5.288   0.669   1.744 -0.5616 -0.1211  0.2408
 1079TIP3    H1 3201   5.256   0.758   1.726 -1.8372 -0.6999 -0.4153
 1079TIP3    H2 3202   5.375   0.683   1.782 -0.0090  1.3570 -1.4232
 1080TIP3   OH2 3203   6.295   4.592   4.515 -0.2406  0.3584 -0.3042
 1080TIP3    H1 3204   6.381   4.586   4.556 -1.0790 -1.0434  1.3468
 1080TIP3    H2 3205   6.254   4.668   4.557 -0.3502  0.1343 -0.0024
 1081TIP3   OH2 3206   0.132   5.224   1.736 -0.5582 -0.0937  0.2038
 1081TIP3    H1 3207   0.079   5.304   1.734  0.3317  0.5438  1.0710
 1081TIP3    H2 3208   0.222   5.256   1.736 -0.1782 -1.1411 -0.4959
 1082TIP3   OH2 3209   2.439   5.103   2.938  0.2165 -0.1749 -0.2169
 1082TIP3    H1 3210   2.433   5.018   2.894  1.5892 -0.7003  0.5587
 1082TIP3    H2 3211   2.527   5.134   2.919  0.7945 -0.3347  1.9322
 1083TIP3   OH2 3212   6.512   2.827   5.342 -0.1874 -0.2938 -0.6987
 1083TIP3    H1 3213   6.469   2.857   5.422 -1.3889 -0.4095 -1.2682
 1083TIP3    H2 3214   6.600   2.802   5.369 -0.6338 -0.5138  0.6223
 1084TIP3   OH2 3215   2.538   2.543   2.628  0.3415 -0.2351 -0.1344
 1084TIP3    H1 3216   2.526   2.593   2.708 -0.8154 -1.7350  0.6792
 1084TIP3    H2 3217   2.455   2.496   2.616  0.9370 -0.9921 -1.5245
 1085TIP3   OH2 3218   1.060   1.795   4.566  0.0346  0.5899 -0.1601
 1085TIP3    H1 3219   0.983   1.776   4.620  0.8037  0.4010  0.8920
 1085TIP3    H2 3220   1.102   1.710   4.553  0.8417  0.8779  0.4848
 1086TIP3   OH2 3221   3.514   4.794   0.357  0.1638 -0.4710  0.1951
 1086TIP3    H1 3222   3.423   4.786   0.327 -0.1374 -0.5943  1.1108
 1086TIP3    H2 3223   3.507   4.816   0.450  1.0742 -0.0398  0.1754
 1087TIP3   OH2 3224   6.493   4.175   5.722  0.4043  0.1102  0.4423
 1087TIP3    H1 3225   6.524   4.089   5.695  1.2857 -0.0163  1.7442
 1087TIP3    H2 3226   6.479   4.223   5.640 -0.1534 -1.2713 -0.2949
 1088TIP3   OH2 3227   1.875   2.095   2.979 -0.5429  0.2542  0.1184
 1088TIP3    H1 3228   1.788   2.114   3.013 -0.1182  1.9292  0.3659
 1088TIP3    H2 3229   1.863   2.085   2.884 -1.1963 -0.9961  0.3077
 1089TIP3   OH2 3230   0.565   4.285   2.038  0.6723  0.3836 -0.4959
 1089TIP3    H1 3231   0.636   4.241   2.086  0.6460 -0.6457 -1.3529
 1089TIP3    H2 3232   0.485   4.249   2.075  0.6561 -0.8485 -1.6474
 1090TIP3   OH2 3233   4.825   1.810   5.194 -0.4968 -0.3390 -0.0532
 1090TIP3    H1 3234   4.817   1.771   5.281 -0.4087  0.6706  0.4219
 1090TIP3    H2 3235   4.872   1.745   5.142 -0.0916 -0.7370  0.8040
 1091TIP3   OH2 3236   2.937   3.836   2.420 -0.5454  0.5327 -0.0023
 1091TIP3    H1 3237   2.996   3.781   2.472  0.5454  0.6738 -1.0467
 1091TIP3    H2 3238   2.993   3.907   2.388 -1.7362  1.7822  0.6078
 1092TIP3   OH2 3239   2.571   3.273   4.438  0.3052 -0.1982 -0.1946
 1092TIP3    H1 3240   2.568   3.365   4.463 -0.1834 -0.7563  1.9794
 1092TIP3    H2 3241   2.526   3.270   4.353  1.1552  1.6636 -0.7671
 1093TIP3   OH2 3242   1.409   5.036   0.838 -0.0298 -0.5148  1.4063
 1093TIP3    H1 3243   1.431   5.045   0.931 -1.0497 -1.3724  1.7449
 1093TIP3    H2 3244   1.370   4.949   0.831 -0.5541 -0.1975  0.2846
 1094TIP3   OH2 3245   5.630   2.939   5.226 -0.2579  0.5913 -0.0477
 1094TIP3    H1 3246   5.703   2.921   5.286  0.0038 -0.9261 -0.7542
 1094TIP3    H2 3247   5.585   2.854   5.219 -1.7494  1.3614 -0.0939
 1095TIP3   OH2 3248  -0.006   2.048   5.095  0.2322  0.0404  0.7656
 1095TIP3    H1 3249   0.000   2.025   5.002 -0.7790  0.5301  0.5651
 1095TIP3    H2 3250   0.083   2.074   5.119  0.9788 -2.0565  0.4849
 1096TIP3   OH2 3251   1.105   3.386   3.195 -0.1163 -0.6295 -1.0711
 1096TIP3    H1 3252   1.134   3.307   3.149  0.2339  0.0571 -2.0369
 1096TIP3    H2 3253   1.084   3.449   3.126  2.2079  1.0687 -0.3537
 1097TIP3   OH2 3254   4.052   1.561   2.503  0.1395  0.0955 -0.0262
 1097TIP3    H1 3255   4.087   1.489   2.556 -1.9938 -0.3762  0.8323
 1097TIP3    H2 3256   4.045   1.634   2.565 -1.5423 -0.1995  0.1573
 1098TIP3   OH2 3257   0.953   4.102   2.061 -0.1637 -0.4144 -0.6968
 1098TIP3    H1 3258   0.903   4.039   2.010 -0.4168 -0.7838 -0.0130
 1098TIP3    H2 3259   1.004   4.151   1.997 -0.6930 -0.6717 -1.3187
 1099TIP3   OH2 3260   6.261   2.382   4.247  0.3450  0.1397  0.4003
 1099TIP3    H1 3261   6.244   2.472   4.275 -1.9174  0.2276 -1.0193
 1099TIP3    H2 3262   6.210   2.328   4.307 -0.1994 -0.0218 -0.1991
 1100TIP3   OH2 3263   1.613   6.226   4.002  0.1278  0.0919  0.1125
 1100TIP3    H1 3264   1.630   6.300   3.943 -0.2936 -0.5198 -0.8132
 1100TIP3    H2 3265   1.676   6.236   4.073  1.4065  0.2467 -1.0059
 1101TIP3   OH2 3266   6.813   1.440   4.963 -0.4311 -0.3641  0.0145
 1101TIP3    H1 3267   6.730   1.441   5.011 -0.8089 -2.7522 -0.4979
 1101TIP3    H2 3268   6.791   1.478   4.878  0.1009  3.2697  1.3048
 1102TIP3   OH2 3269   2.564   0.228   5.523  0.1205 -0.1376 -0.0290
 1102TIP3    H1 3270   2.601   0.238   5.435 -1.3520  1.2159 -0.5417
 1102TIP3    H2 3271   2.637   0.245   5.582  1.5065 -2.4645 -0.9036
 1103TIP3   OH2 3272   6.370   0.890   1.080 -0.8458 -0.0101 -0.3708
 1103TIP3    H1 3273   6.416   0.907   0.998  0.7746  0.1399  0.5445
 1103TIP3    H2 3274   6.420   0.821   1.122 -0.9384  0.7553  1.0579
 1104TIP3   OH2 3275   5.081   3.279   5.307 -0.5896 -0.0472 -0.3776
 1104TIP3    H1 3276   4.999   3.270   5.356 -0.6666  1.4152 -0.1918
 1104TIP3    H2 3277   5.148   3.241   5.364 -0.7849  1.0021  0.5827
 1105TIP3   OH2 3278   5.112   4.058   5.430  0.3443  0.2791  0.6134
 1105TIP3    H1 3279   5.117   4.120   5.503 -1.7701  0.9320  0.2862
 1105TIP3    H2 3280   5.120   3.972   5.472 -1.2621  0.6155  1.7409
 1106TIP3   OH2 3281   6.592   6.472   3.950 -0.3643  0.0812  0.1424
 1106TIP3    H1 3282   6.628   6.433   4.030  0.3153 -0.0633 -0.2245
 1106TIP3    H2 3283   6.603   6.566   3.963 -1.5968  0.1414  0.8386
 1107TIP3   OH2 3284   1.594   5.613   0.994  0.0803 -0.2522 -0.0356
 1107TIP3    H1 3285   1.586   5.563   1.075  0.1293  0.1841  0.2412
 1107TIP3    H2 3286   1.533   5.686   1.004  0.5879  0.1905 -0.0951
 1108TIP3   OH2 3287   3.933   4.818   0.839 -0.1192 -0.2693 -0.0950
 1108TIP3    H1 3288   4.006   4.800   0.779 -0.4178  1.0179 -0.8882
 1108TIP3    H2 3289   3.883   4.887   0.796 -1.2022 -0.3639  0.9546
 1109TIP3   OH2 3290   6.477   4.120   3.288  0.0543 -0.0591  0.2656
 1109TIP3    H1 3291   6.421   4.068   3.346 -0.3182 -1.4062 -1.2215
 1109TIP3    H2 3292   6.417   4.156   3.223  0.4324  1.6295  0.8188
 1110TIP3   OH2 3293   0.200   5.327   5.454  0.3202 -0.5544 -0.3639
 1110TIP3    H1 3294   0.226   5.418   5.443 -2.2882  0.4045  0.8149
 1110TIP3    H2 3295   0.151   5.306   5.374 -0.0012 -0.5635 -0.1675
 1111TIP3   OH2 3296   5.155   4.098   1.338 -0.3257 -0.6252 -0.4865
 1111TIP3    H1 3297   5.228   4.147   1.300  0.3257 -1.6264 -0.5341
 1111TIP3    H2 3298   5.084   4.109   1.275 -0.0185 -0.1985 -0.7637
 1112TIP3   OH2 3299   0.123   4.573   2.284  0.0154  0.4302 -0.6354
 1112TIP3    H1 3300   0.160   4.486   2.273  0.2007  0.3780  0.2921
 1112TIP3    H2 3301   0.179   4.614   2.350  0.3003  1.4736 -1.4881
 1113TIP3   OH2 3302   3.942   0.316   5.144  0.2049  0.2632 -0.3961
 1113TIP3    H1 3303   3.960   0.406   5.116  3.3330  0.7664  2.6649
 1113TIP3    H2 3304   4.018   0.266   5.114  0.2370 -0.5844  1.0235
 1114TIP3   OH2 3305   3.129   2.838   1.781 -0.0739 -0.0057 -0.2917
 1114TIP3    H1 3306   3.055   2.793   1.740 -0.5935  0.7714 -0.2179
 1114TIP3    H2 3307   3.191   2.852   1.710 -0.6738  0.7217 -0.6887
 1115TIP3   OH2 3308   0.719   0.336   3.825 -0.4162 -0.5793  0.6141
 1115TIP3    H1 3309   0.774   0.311   3.751 -1.2101  0.2429 -0.2846
 1115TIP3    H2 3310   0.635   0.295   3.808 -2.5034  4.0323 -2.0739
 1116TIP3   OH2 3311   6.336   2.468   1.559  0.5284 -0.3635  0.4185
 1116TIP3    H1 3312   6.354   2.493   1.649 -0.7584  0.7154  0.4131
 1116TIP3    H2 3313   6.365   2.542   1.506  0.4227 -0.5936  0.0267
 1117TIP3   OH2 3314   2.457   0.361   0.643  0.3897  0.2086  0.1002
 1117TIP3    H1 3315   2.376   0.316   0.622  0.4276 -0.3453  1.1249
 1117TIP3    H2 3316   2.525   0.311   0.599  0.2283  0.4484 -0.4336
 1118TIP3   OH2 3317   4.870   2.517   1.741 -0.3999 -0.0117 -0.4624
 1118TIP3    H1 3318   4.882   2.567   1.660 -0.9752 -0.6877 -0.9749
 1118TIP3    H2 3319   4.816   2.442   1.715 -0.4478 -0.3241  0.5145
 1119TIP3   OH2 3320   6.776   2.398   4.762 -0.7639  0.2237 -0.2253
 1119TIP3    H1 3321   6.823   2.382   4.680 -0.0250 -1.6766  0.5010
 1119TIP3    H2 3322   6.715   2.324   4.769 -0.1203 -0.1970  1.3859
 1120TIP3   OH2 3323   4.204   3.638   2.955  0.3113 -0.2335 -0.0159
 1120TIP3    H1 3324   4.275   3.581   2.984 -0.6679 -1.7508 -0.4809
 1120TIP3    H2 3325   4.160   3.665   3.035  1.7344  1.2315  0.3278
 1121TIP3   OH2 3326   2.810   1.972   5.156  0.2170 -0.2058  0.6040
 1121TIP3    H1 3327   2.783   1.880   5.149 -0.5976 -0.0211  1.1080
 1121TIP3    H2 3328   2.879   1.972   5.222 -0.0847 -0.4055  0.9227
 1122TIP3   OH2 3329   6.067   4.124   3.254 -0.3312  0.0382 -0.2227
 1122TIP3    H1 3330   5.983   4.083   3.273  0.5486 -1.4554  0.6597
 1122TIP3    H2 3331   6.049   4.184   3.181 -2.3273  0.4678  0.5764
 1123TIP3   OH2 3332   2.933   4.086  -0.001  0.3520 -0.0751 -0.2743
 1123TIP3    H1 3333   2.955   3.998   0.029 -2.5421 -0.5726  0.7713
 1123TIP3    H2 3334   2.976   4.144   0.061  1.7815 -0.7633 -0.5942
 1124TIP3   OH2 3335   4.598   5.523   0.970 -0.2637  0.0924  1.1585
 1124TIP3    H1 3336   4.513   5.567   0.974  0.2124  1.1177  0.3555
 1124TIP3    H2 3337   4.614   5.496   1.061 -0.5177  1.7306  1.7471
 1125TIP3   OH2 3338   5.050   3.819   3.170  0.1877 -0.1402  0.6947
 1125TIP3    H1 3339   4.981   3.758   3.198 -0.7946  1.4402  1.8988
 1125TIP3    H2 3340   5.015   3.906   3.191  1.0036  0.9841 -2.0922
 1126TIP3   OH2 3341   3.404   2.456   1.242  0.5548 -0.1911  0.6110
 1126TIP3    H1 3342   3.443   2.386   1.190  0.0913 -0.5639  0.7527
 1126TIP3    H2 3343   3.309   2.444   1.231  0.4618  0.0222  1.1351
 1127TIP3   OH2 3344   5.400   2.607   0.820  0.0669  0.0172  0.4393
 1127TIP3    H1 3345   5.392   2.689   0.772  0.7049 -0.4754 -0.5466
 1127TIP3    H2 3346   5.450   2.629   0.898 -1.1994  0.8815  1.0509
 1128TIP3   OH2 3347   5.427   2.962   4.872 -0.7101 -0.1331 -0.2902
 1128TIP3    H1 3348   5.490   3.018   4.916 -0.0964 -0.0652 -1.2203
 1128TIP3    H2 3349   5.426   2.881   4.922 -1.6333  0.6960  1.0972
 1129TIP3   OH2 3350   5.759   5.574   2.293 -0.2652  0.2023  0.2830
 1129TIP3    H1 3351   5.755   5.491   2.246  0.2164  0.3880 -0.0938
 1129TIP3    H2 3352   5.853   5.594   2.299 -0.3605  2.6071 -3.0203
 1130TIP3   OH2 3353   0.136   5.149   0.228 -0.5227 -0.6572  0.2170
 1130TIP3    H1 3354   0.136   5.239   0.195  3.5476  0.3537  2.3144
 1130TIP3    H2 3355   0.170   5.097   0.155 -2.4921 -0.5023 -0.8648
 1131TIP3   OH2 3356   4.196   0.640   5.177 -0.4271 -0.2806 -0.1199
 1131TIP3    H1 3357   4.170   0.572   5.238 -0.0531 -0.2503  0.0731
 1131TIP3    H2 3358   4.136   0.630   5.103 -0.2638 -0.9223 -0.1681
 1132TIP3   OH2 3359   6.757   3.490   5.658 -0.3514  0.0564 -0.7002
 1132TIP3    H1 3360   6.839   3.517   5.617 -0.6239 -0.8472 -1.9055
 1132TIP3    H2 3361   6.781   3.468   5.748  0.2285  2.2751 -0.2533
 1133TIP3   OH2 3362   1.142   5.820   2.897  0.3103  0.6258  0.1738
 1133TIP3    H1 3363   1.238   5.825   2.890  0.5030 -0.2845  1.5391
 1133TIP3    H2 3364   1.124   5.726   2.896 -0.6099  0.8057 -0.4264
 1134TIP3   OH2 3365   3.282   5.414   5.099  0.3223 -0.2912 -0.1500
 1134TIP3    H1 3366   3.365   5.459   5.084  1.1786 -1.5385  0.6596
 1134TIP3    H2 3367   3.270   5.358   5.021 -0.6154  1.0838 -1.0372
 1135TIP3   OH2 3368   3.915   5.175   4.289 -0.4772  0.0994  0.0053
 1135TIP3    H1 3369   3.981   5.110   4.312 -0.0513  0.2911 -0.6652
 1135TIP3    H2 3370   3.861   5.183   4.368 -0.9337 -1.5258 -0.0970
 1136TIP3   OH2 3371   5.940   1.392   1.069  0.3871  0.5515 -0.6342
 1136TIP3    H1 3372   5.927   1.474   1.118  0.5947  1.2016 -1.6456
 1136TIP3    H2 3373   5.875   1.395   0.999 -1.9852 -1.7678  1.2681
 1137TIP3   OH2 3374   0.882   0.460   5.762  0.8897 -0.0590 -0.6931
 1137TIP3    H1 3375   0.951   0.496   5.707  0.4411 -0.1278 -1.3008
 1137TIP3    H2 3376   0.918   0.376   5.793  0.3682 -1.0092 -2.5157
 1138TIP3   OH2 3377   4.790   1.401   3.860  0.2619 -0.7953  0.3459
 1138TIP3    H1 3378   4.787   1.494   3.841  0.2612 -0.6372  1.0822
 1138TIP3    H2 3379   4.714   1.364   3.814  1.2495 -0.7280 -1.3862
 1139TIP3   OH2 3380   1.459   0.133   2.882 -0.1749  0.1040  0.0912
 1139TIP3    H1 3381   1.470   0.220   2.920  1.6131 -0.4609  0.9675
 1139TIP3    H2 3382   1.380   0.099   2.924 -0.6938  1.1338  0.0016
 1140TIP3   OH2 3383   2.976   5.330   5.060  0.0976  0.5439  0.0987
 1140TIP3    H1 3384   2.893   5.283   5.052  0.4222  0.0774 -0.5799
 1140TIP3    H2 3385   2.994   5.329   5.154  0.2886 -1.0588  0.0807
 1141TIP3   OH2 3386   2.724   2.952   1.639  0.4276  0.0233  0.3546
 1141TIP3    H1 3387   2.651   2.956   1.699  0.0376  1.4873 -0.1646
 1141TIP3    H2 3388   2.767   3.037   1.648 -0.2563  0.7231 -2.1291
 1142TIP3   OH2 3389   3.394   6.803   4.035 -0.3244 -0.7310  0.7641
 1142TIP3    H1 3390   3.306   6.797   3.998  0.1686 -0.8673 -0.4392
 1142TIP3    H2 3391   3.389   6.754   4.117 -1.5098 -0.2384  1.0081
 1143TIP3   OH2 3392   1.858   2.526   4.355 -0.4839 -0.7143  0.0035
 1143TIP3    H1 3393   1.864   2.581   4.433 -1.5207 -1.8578  0.9281
 1143TIP3    H2 3394   1.915   2.569   4.292  2.9546 -1.3724  2.3516
 1144TIP3   OH2 3395   4.213   4.263   0.918 -0.0648 -0.0850  0.2453
 1144TIP3    H1 3396   4.195   4.207   0.994 -2.3259 -0.5148 -0.5383
 1144TIP3    H2 3397   4.127   4.299   0.894  0.4924 -0.3452 -2.4087
 1145TIP3   OH2 3398   5.832   4.764   1.223 -0.2936  0.1415  0.0213
 1145TIP3    H1 3399   5.823   4.858   1.208 -1.5322 -0.1099 -0.9880
 1145TIP3    H2 3400   5.882   4.732   1.148 -1.6160 -0.2856 -0.7035
 1146TIP3   OH2 3401   2.035   0.944   0.329  0.1272  0.1509  0.4167
 1146TIP3    H1 3402   2.012   1.009   0.396  0.3646  0.4597  0.2043
 1146TIP3    H2 3403   1.969   0.875   0.339  0.5155 -0.1039  1.3735
 1147TIP3   OH2 3404   7.028   2.695   2.083 -0.2320 -0.2453 -0.7294
 1147TIP3    H1 3405   7.058   2.785   2.070  1.9960 -0.4093  2.2425
 1147TIP3    H2 3406   6.951   2.703   2.138 -0.6353 -0.1589 -1.2936
 1148TIP3   OH2 3407   6.163   3.455   5.709  0.5538  0.5382 -0.1646
 1148TIP3    H1 3408   6.109   3.533   5.723  1.8389  1.7017 -1.3854
 1148TIP3    H2 3409   6.222   3.453   5.784 -1.7622 -1.3567  1.7588
 1149TIP3   OH2 3410   2.699   0.964   0.319 -0.4496 -0.3341 -0.1155
 1149TIP3    H1 3411   2.659   0.877   0.313 -0.1285 -0.3900 -4.0850
 1149TIP3    H2 3412   2.628   1.022   0.345 -1.5536 -1.3335 -0.7969
 1150TIP3   OH2 3413   2.298   3.726   5.047  0.4930 -0.5861  0.5126
 1150TIP3    H1 3414   2.337   3.666   5.110 -0.7224 -1.6113  0.3222
 1150TIP3    H2 3415   2.205   3.703   5.045  0.3146  0.1133 -0.8873
 1151TIP3   OH2 3416   6.525   2.485   5.495  0.3152  0.2187  0.1575
 1151TIP3    H1 3417   6.471   2.412   5.527  0.7399  0.3211  1.1468
 1151TIP3    H2 3418   6.615   2.456   5.510  0.5552  0.1281 -1.3086
 1152TIP3   OH2 3419   2.625   1.555   0.418 -0.3365  0.1353  0.1956
 1152TIP3    H1 3420   2.599   1.610   0.492  0.1875  1.6294 -0.6873
 1152TIP3    H2 3421   2.710   1.519   0.444 -0.5454 -0.0252  0.6641
 1153TIP3   OH2 3422   3.914   4.572   1.930 -0.1610 -0.0064  0.1749
 1153TIP3    H1 3423   3.995   4.624   1.934  0.4453 -0.9029  0.0788
 1153TIP3    H2 3424   3.880   4.574   2.019  0.1624  0.0847  0.3014
 1154TIP3   OH2 3425   4.649   6.328   2.128  0.8808 -0.1746 -0.2680
 1154TIP3    H1 3426   4.733   6.343   2.172  0.6026 -2.2421  1.0639
 1154TIP3    H2 3427   4.660   6.244   2.083 -1.6233 -2.6972  3.2527
 1155TIP3   OH2 3428   3.733   5.612   4.169 -0.2024 -0.0406  0.4503
 1155TIP3    H1 3429   3.727   5.530   4.121 -3.1125  0.0575  0.4943
 1155TIP3    H2 3430   3.700   5.592   4.256 -1.9592  1.3378  0.1560
 1156TIP3   OH2 3431   2.351   0.320   4.279  0.6550 -0.2337  0.1771
 1156TIP3    H1 3432   2.410   0.319   4.355  0.8034  2.8168  0.2063
 1156TIP3    H2 3433   2.402   0.277   4.210  1.6320 -0.5301  1.0427
 1157TIP3   OH2 3434   3.318   4.458   0.505 -0.8294 -0.8018 -0.8684
 1157TIP3    H1 3435   3.255   4.530   0.502  0.9865  0.8792 -0.2558
 1157TIP3    H2 3436   3.345   4.454   0.597  2.7386  1.1062 -1.6673
 1158TIP3   OH2 3437   0.030   0.630   5.113 -0.1011  0.7098 -0.2034
 1158TIP3    H1 3438   0.058   0.600   5.199  0.0156 -0.2222 -0.5587
 1158TIP3    H2 3439  -0.008   0.553   5.071  1.3936  0.6804 -1.6314
 1159TIP3   OH2 3440   2.961   4.106   2.984  0.2899  0.1745 -0.1159
 1159TIP3    H1 3441   3.033   4.103   3.047 -0.2168  0.9337  0.5226
 1159TIP3    H2 3442   2.923   4.018   2.987 -0.9609  0.7374  2.1368
 1160TIP3   OH2 3443   0.609   4.224   2.441 -0.4738 -0.1393  0.8107
 1160TIP3    H1 3444   0.635   4.187   2.357 -0.4803  1.0329  0.2659
 1160TIP3    H2 3445   0.643   4.163   2.506 -0.8121 -1.2745 -0.0462
 1161TIP3   OH2 3446   6.541   4.818   5.078  0.0705 -0.7119  0.1918
 1161TIP3    H1 3447   6.559   4.792   5.169  0.7687 -0.8621  0.0205
 1161TIP3    H2 3448   6.626   4.812   5.035 -0.0225  0.4878 -0.2015
 1162TIP3   OH2 3449   2.000   2.700   3.684  0.3705  0.1220  0.3649
 1162TIP3    H1 3450   2.060   2.648   3.632  0.8477  1.2691 -0.2758
 1162TIP3    H2 3451   1.964   2.764   3.622 -1.4823 -0.4968  0.7417
 1163TIP3   OH2 3452   5.765   2.460   1.749  0.0299 -0.1423 -0.0341
 1163TIP3    H1 3453   5.702   2.388   1.745  0.7601 -0.8768  0.9654
 1163TIP3    H2 3454   5.719   2.535   1.712 -1.6680 -0.4878  1.2299
 1164TIP3   OH2 3455   5.256   1.299   1.138 -0.0055  0.1989  0.1801
 1164TIP3    H1 3456   5.334   1.315   1.191  0.3566  1.2514 -0.6270
 1164TIP3    H2 3457   5.288   1.249   1.063 -0.2040  0.1487  0.1299
 1165TIP3   OH2 3458   0.950   4.170   4.967  0.4087 -0.8066 -0.1937
 1165TIP3    H1 3459   1.021   4.114   4.936  0.7226 -0.0877 -0.8242
 1165TIP3    H2 3460   0.893   4.182   4.891  0.1258 -0.6067  0.0454
 1166TIP3   OH2 3461   3.899   3.383   0.646 -0.1526  0.1621  0.6890
 1166TIP3    H1 3462   3.842   3.437   0.592  0.2277 -0.1503 -0.0346
 1166TIP3    H2 3463   3.977   3.436   0.660  1.3404 -1.0449 -2.1379
 1167TIP3   OH2 3464   0.870   4.883   5.217 -0.3150 -0.1020  0.9580
 1167TIP3    H1 3465   0.904   4.922   5.136 -3.1529 -0.2448 -0.4272
 1167TIP3    H2 3466   0.930   4.812   5.237 -0.6478 -1.4454 -2.2865
 1168TIP3   OH2 3467   4.683   6.178   2.436  0.2025  0.1619 -0.4028
 1168TIP3    H1 3468   4.670   6.268   2.408 -0.0003 -0.3147 -1.9316
 1168TIP3    H2 3469   4.620   6.127   2.386  0.5596 -0.8844  0.1645
 1169TIP3   OH2 3470   1.216   0.388   2.362 -0.2510  0.5013 -0.2313
 1169TIP3    H1 3471   1.228   0.452   2.433 -1.0975  2.0492 -1.4325
 1169TIP3    H2 3472   1.159   0.432   2.299 -0.1369 -1.1251 -1.5369
 1170TIP3   OH2 3473   4.782   3.388   4.442  0.1660  0.5907 -0.3106
 1170TIP3    H1 3474   4.862   3.340   4.464  0.5574 -0.1232 -2.9606
 1170TIP3    H2 3475   4.711   3.326   4.461  0.3886  0.4765  0.1553
 1171TIP3   OH2 3476   4.835   1.864   2.095 -0.0323 -0.3878  0.4420
 1171TIP3    H1 3477   4.918   1.833   2.059 -0.1569  1.4649 -1.6340
 1171TIP3    H2 3478   4.860   1.935   2.154 -0.1183  0.4683 -0.5224
 1172TIP3   OH2 3479   1.776   1.876   5.155 -0.3784 -0.1074 -0.0359
 1172TIP3    H1 3480   1.681   1.884   5.156 -0.4931 -1.2583 -0.2319
 1172TIP3    H2 3481   1.795   1.806   5.217  0.2359 -0.7366 -0.9052
 1173TIP3   OH2 3482   6.921   4.050   2.252  0.4309 -0.1583  0.0010
 1173TIP3    H1 3483   6.986   4.121   2.260  0.4372  0.0545 -1.5202
 1173TIP3    H2 3484   6.973   3.971   2.238  0.4339 -0.5499  2.0040
 1174TIP3   OH2 3485   3.813   5.554   0.663 -0.3117 -0.2116 -0.4959
 1174TIP3    H1 3486   3.890   5.611   0.667 -0.0022 -0.5488 -1.5251
 1174TIP3    H2 3487   3.761   5.588   0.590 -1.4490  0.3681  0.5348
 1175TIP3   OH2 3488   1.326   0.605   2.007 -0.2094  0.2147  0.2682
 1175TIP3    H1 3489   1.281   0.665   2.067 -2.1439 -0.9318  0.0449
 1175TIP3    H2 3490   1.379   0.549   2.065 -1.3979 -0.3305  0.8735
 1176TIP3   OH2 3491   1.549   5.370   4.146  0.2585 -0.2409  0.0547
 1176TIP3    H1 3492   1.637   5.403   4.129 -0.4977  0.6171 -2.5283
 1176TIP3    H2 3493   1.563   5.280   4.176  2.0033 -0.2960 -0.7988
 1177TIP3   OH2 3494   6.826   4.469   0.230 -0.0460  0.4253  0.1501
 1177TIP3    H1 3495   6.820   4.385   0.275 -3.1286 -1.1250 -2.7238
 1177TIP3    H2 3496   6.746   4.515   0.254  0.2106  1.2769 -0.5754
 1178TIP3   OH2 3497   0.457   1.881   2.865  0.4356  0.2773 -0.2838
 1178TIP3    H1 3498   0.517   1.816   2.829  0.4642  0.7431 -1.1152
 1178TIP3    H2 3499   0.402   1.832   2.926  1.0535 -0.3380 -0.2083
 1179TIP3   OH2 3500   3.605   1.871   0.107  0.0896  0.4764 -0.4106
 1179TIP3    H1 3501   3.533   1.909   0.157  1.5159  0.9781  1.3927
 1179TIP3    H2 3502   3.644   1.807   0.166 -1.0971 -2.5984 -2.6914
 1180TIP3   OH2 3503   7.044   5.201   5.361 -0.2399  0.2176 -0.6950
 1180TIP3    H1 3504   6.988   5.269   5.397 -1.1837 -0.8075 -0.1506
 1180TIP3    H2 3505   6.999   5.173   5.281  0.7760  1.0455 -1.5946
 1181TIP3   OH2 3506   6.930   3.682   2.376 -0.5235  0.8585 -0.3182
 1181TIP3    H1 3507   6.892   3.662   2.291  0.0732  1.3683 -0.7138
 1181TIP3    H2 3508   6.855   3.698   2.433 -0.9846 -0.9183 -0.3658
 1182TIP3   OH2 3509   3.545   5.254   0.541 -0.6649  0.0344 -0.2906
 1182TIP3    H1 3510   3.634   5.257   0.575 -0.5894  1.4779 -0.5184
 1182TIP3    H2 3511   3.554   5.217   0.453 -0.5079 -1.1924  0.2212
 1183TIP3   OH2 3512   1.414   6.822   0.653 -0.3376 -0.0967 -0.5581
 1183TIP3    H1 3513   1.451   6.736   0.636  1.5940  0.6774 -0.5401
 1183TIP3    H2 3514   1.378   6.816   0.741  1.4350 -0.4005  0.1940
 1184TIP3   OH2 3515   1.509   2.598   1.746  0.2895  0.0539  0.1791
 1184TIP3    H1 3516   1.538   2.597   1.838 -1.8466 -0.0018  0.9021
 1184TIP3    H2 3517   1.584   2.635   1.698  1.8024 -0.7451  1.7951
 1185TIP3   OH2 3518   2.511   5.430   5.534  0.1483  0.5109  0.1895
 1185TIP3    H1 3519   2.566   5.401   5.462 -0.4969 -0.1986 -0.0219
 1185TIP3    H2 3520   2.574   5.452   5.604  0.7145 -0.0850 -0.1166
 1186TIP3   OH2 3521   0.504   1.514   2.339  0.2438 -0.0999  0.1430
 1186TIP3    H1 3522   0.411   1.536   2.335  0.4429  0.5578 -1.8249
 1186TIP3    H2 3523   0.523   1.476   2.253  2.0498  0.8812  0.0593
 1187TIP3   OH2 3524   6.774   0.723   1.880  0.0999 -0.3545 -0.1856
 1187TIP3    H1 3525   6.796   0.667   1.805 -1.1243  0.8093 -1.4899
 1187TIP3    H2 3526   6.828   0.801   1.867 -0.5550  0.1004 -0.2098
 1188TIP3   OH2 3527   3.964   0.954   3.760 -0.4039  0.2060 -0.1092
 1188TIP3    H1 3528   4.026   0.935   3.689 -1.2171 -0.7322 -0.5914
 1188TIP3    H2 3529   4.014   0.942   3.840  0.4859  1.1063 -0.5096
 1189TIP3   OH2 3530   6.291   2.280   3.044 -0.7834  0.0179  0.1846
 1189TIP3    H1 3531   6.280   2.282   3.139 -0.4015 -1.8784  0.2946
 1189TIP3    H2 3532   6.244   2.202   3.016 -0.0620  0.0140 -1.0642
 1190TIP3   OH2 3533   1.175   2.487   4.143  0.4009 -0.5641 -0.6110
 1190TIP3    H1 3534   1.180   2.582   4.152  0.1490 -0.4568 -1.4787
 1190TIP3    H2 3535   1.147   2.455   4.228  2.3499 -0.0263  0.2941
 1191TIP3   OH2 3536   6.422   1.335   1.382  0.0186  0.1122 -0.1920
 1191TIP3    H1 3537   6.382   1.286   1.309 -0.7257  0.2593  0.1117
 1191TIP3    H2 3538   6.348   1.362   1.436  0.4529  1.2275 -0.1286
 1192TIP3   OH2 3539   5.005   4.735   4.469  0.3549 -0.0807 -0.5588
 1192TIP3    H1 3540   5.010   4.709   4.560  0.2797 -2.6829 -1.2239
 1192TIP3    H2 3541   5.086   4.701   4.429 -0.9570 -1.6825 -2.0172
 1193TIP3   OH2 3542   0.252   6.492   3.325 -0.0536  0.7048 -0.4438
 1193TIP3    H1 3543   0.234   6.584   3.310  0.3762  1.0057  0.7638
 1193TIP3    H2 3544   0.198   6.469   3.401  0.7265  0.2739 -0.0039
 1194TIP3   OH2 3545   4.657   2.058   0.039  0.9169 -0.7325  0.0303
 1194TIP3    H1 3546   4.609   2.046   0.120 -0.2969  0.2865 -0.5050
 1194TIP3    H2 3547   4.718   2.131   0.057  0.5128 -0.3790 -0.0229
 1195TIP3   OH2 3548   2.232   1.668   1.920  0.1704 -0.1799 -0.2438
 1195TIP3    H1 3549   2.321   1.635   1.936  0.4497  0.7265  0.1741
 1195TIP3    H2 3550   2.175   1.605   1.963  0.7060 -0.0303  0.7294
 1196TIP3   OH2 3551   1.567   4.049   1.723 -0.2833  0.2699 -0.2945
 1196TIP3    H1 3552   1.493   4.091   1.681 -1.6309 -0.5578  1.1400
 1196TIP3    H2 3553   1.623   4.122   1.751 -0.1880  0.8730 -1.9559
 1197TIP3   OH2 3554   6.907   1.613   3.470  0.3186  0.1975  0.4418
 1197TIP3    H1 3555   6.931   1.706   3.470  1.3887 -0.0694 -0.0450
 1197TIP3    H2 3556   6.845   1.605   3.397  1.1195  0.3167 -0.2665
 1198TIP3   OH2 3557   0.340   4.420   4.535  0.1103  0.1628 -0.6180
 1198TIP3    H1 3558   0.430   4.448   4.552 -0.0817  0.7503 -0.5402
 1198TIP3    H2 3559   0.300   4.493   4.489 -0.4031  0.0129 -0.4222
 1199TIP3   OH2 3560   0.161   2.719   4.748  0.0215  0.5816 -0.0421
 1199TIP3    H1 3561   0.175   2.629   4.777  2.0227 -0.1114 -2.7373
 1199TIP3    H2 3562   0.179   2.772   4.826  1.3268 -1.2634  1.0025
 1200TIP3   OH2 3563   2.146   5.840   3.652 -0.0246  0.2294  0.0070
 1200TIP3    H1 3564   2.170   5.881   3.735 -0.2974 -1.8164  1.1943
 1200TIP3    H2 3565   2.135   5.747   3.674 -1.9844 -0.0915 -1.9138
 1201TIP3   OH2 3566   6.318   1.634   2.455 -0.1456  0.3377 -0.0160
 1201TIP3    H1 3567   6.358   1.692   2.519  1.1380 -0.2696 -0.2371
 1201TIP3    H2 3568   6.272   1.568   2.507  1.9819 -0.9254  0.3756
 1202TIP3   OH2 3569   2.378   1.526   0.782 -0.4334  0.3016 -0.3601
 1202TIP3    H1 3570   2.319   1.510   0.856 -0.1094  1.3351  0.1431
 1202TIP3    H2 3571   2.332   1.490   0.706 -0.4555 -1.4230  0.4300
 1203TIP3   OH2 3572   2.840   6.357   0.163 -0.0812  0.4332  0.3008
 1203TIP3    H1 3573   2.814   6.325   0.077 -1.0040 -1.5454  1.2337
 1203TIP3    H2 3574   2.762   6.398   0.199 -0.1376 -0.0282  0.7254
 1204TIP3   OH2 3575   0.752   4.565   1.490  0.0116 -0.6290 -0.5588
 1204TIP3    H1 3576   0.822   4.619   1.453  1.3084 -0.3816  1.9990
 1204TIP3    H2 3577   0.759   4.481   1.445  1.4313 -0.3332 -0.9320
 1205TIP3   OH2 3578   5.647   5.981   1.805  0.1660  0.3998  0.0531
 1205TIP3    H1 3579   5.598   6.043   1.859 -0.3117 -0.1343  0.2448
 1205TIP3    H2 3580   5.584   5.951   1.740 -0.2128 -1.3541  1.1488
 1206TIP3   OH2 3581   4.536   4.528   5.860  0.3093  0.1572  0.5721
 1206TIP3    H1 3582   4.575   4.468   5.796 -0.2232  0.9957 -0.5768
 1206TIP3    H2 3583   4.610   4.557   5.913  0.7812 -0.4988  0.2919
 1207TIP3   OH2 3584   4.093   2.104   1.124  0.0435 -0.2658 -0.3688
 1207TIP3    H1 3585   4.132   2.070   1.044 -1.3023 -0.2187 -1.0826
 1207TIP3    H2 3586   4.167   2.122   1.182  0.9729 -1.2437 -1.2218
 1208TIP3   OH2 3587   5.470   0.251   3.077 -0.4231 -0.5307  0.0513
 1208TIP3    H1 3588   5.457   0.341   3.106 -1.1572 -1.2072  1.9667
 1208TIP3    H2 3589   5.565   0.241   3.069 -0.3181  1.4745 -4.0597
 1209TIP3   OH2 3590   3.102   5.926   1.225  0.3998 -0.4763 -0.4678
 1209TIP3    H1 3591   3.197   5.933   1.233  0.4646 -0.7242 -1.0187
 1209TIP3    H2 3592   3.086   5.833   1.208 -0.0556 -0.7141  1.0964
 1210TIP3   OH2 3593   5.567   4.513   3.337 -0.8721 -0.2225 -0.3215
 1210TIP3    H1 3594   5.559   4.528   3.243 -1.8560  0.9203 -0.0806
 1210TIP3    H2 3595   5.480   4.481   3.363 -0.5936 -0.5760  0.1873
 1211TIP3   OH2 3596   4.975   2.596   1.989  0.2449  0.0978  0.0735
 1211TIP3    H1 3597   4.949   2.560   1.905 -0.6698 -2.6629  1.4075
 1211TIP3    H2 3598   5.070   2.585   1.992  0.3664  0.8348 -0.8352
 1212TIP3   OH2 3599   5.433   1.705   5.676 -0.0106 -0.1876  0.6021
 1212TIP3    H1 3600   5.519   1.664   5.685  0.4301  0.4990 -0.3341
 1212TIP3    H2 3601   5.450   1.788   5.631 -1.3230 -0.8429 -1.2384
 1213TIP3   OH2 3602   2.909   2.319   2.857 -0.0633  0.1264 -0.3411
 1213TIP3    H1 3603   2.904   2.269   2.775 -0.1684 -1.1158  0.3848
 1213TIP3    H2 3604   3.003   2.321   2.878 -0.0785  0.0488 -0.2642
 1214TIP3   OH2 3605   1.244   3.124   1.814 -0.4382  0.1897  0.5008
 1214TIP3    H1 3606   1.235   3.175   1.895  1.9149  0.5240  0.6090
 1214TIP3    H2 3607   1.261   3.035   1.844 -0.3114  0.1709  0.3737
 1215TIP3   OH2 3608   1.572   3.114   1.496 -0.3086 -0.4743 -0.2421
 1215TIP3    H1 3609   1.595   3.183   1.434  1.2042  0.7577  1.5607
 1215TIP3    H2 3610   1.634   3.125   1.568 -2.7254 -0.9848  2.0919
 1216TIP3   OH2 3611   7.058   1.188   1.054 -0.1730 -0.4016 -0.1609
 1216TIP3    H1 3612   6.964   1.205   1.043 -0.0058 -0.3076 -1.6428
 1216TIP3    H2 3613   7.067   1.166   1.146 -1.9631 -2.2925 -0.3578
 1217TIP3   OH2 3614   2.427   3.378   2.182  0.0772  0.4473  0.0202
 1217TIP3    H1 3615   2.423   3.288   2.215 -1.0406  0.9197  1.2646
 1217TIP3    H2 3616   2.340   3.394   2.145  0.0366  1.2373  0.4389
 1218TIP3   OH2 3617   1.542   5.939   3.207  0.2536 -0.4580 -0.1844
 1218TIP3    H1 3618   1.464   5.995   3.205  3.1420  4.1873  0.8536
 1218TIP3    H2 3619   1.527   5.880   3.281 -1.2095  2.3861  1.9945
 1219TIP3   OH2 3620   3.497   3.396   2.078  0.3790 -0.2315 -0.0765
 1219TIP3    H1 3621   3.454   3.387   1.993 -1.9135 -0.4612  1.0238
 1219TIP3    H2 3622   3.451   3.470   2.120  0.8345 -0.6980  1.2981
 1220TIP3   OH2 3623   3.353   0.163   0.598 -0.0770 -0.0225  0.3663
 1220TIP3    H1 3624   3.444   0.146   0.574 -0.3070 -0.2708 -0.3687
 1220TIP3    H2 3625   3.338   0.110   0.677  0.2261 -0.4901  0.1136
 1221TIP3   OH2 3626   6.076   6.040   3.817 -0.3689  0.0917 -0.3503
 1221TIP3    H1 3627   6.160   6.055   3.862  0.0989  0.0935 -1.2055
 1221TIP3    H2 3628   6.054   5.949   3.838  0.2985 -0.1938 -0.8278
 1222TIP3   OH2 3629   4.746   5.845   3.306  0.4189 -0.0439  0.2866
 1222TIP3    H1 3630   4.713   5.758   3.330  0.9933 -1.8118 -4.3878
 1222TIP3    H2 3631   4.833   5.829   3.270  0.3473  2.3678 -1.2220
 1223TIP3   OH2 3632   4.306   6.713   5.031  0.7352 -0.4366  0.0644
 1223TIP3    H1 3633   4.289   6.672   5.116 -0.8241 -0.2182 -0.1186
 1223TIP3    H2 3634   4.323   6.805   5.051  0.9800 -0.5105  0.1951
 1224TIP3   OH2 3635   6.877   3.291   1.797 -0.3083  0.1213 -0.0170
 1224TIP3    H1 3636   6.948   3.236   1.764  0.1166  0.2362  0.6795
 1224TIP3    H2 3637   6.800   3.234   1.796  0.0865 -0.4315  0.5272
 1225TIP3   OH2 3638   0.797   6.537   0.948  0.1150  0.2920 -0.1087
 1225TIP3    H1 3639   0.724   6.482   0.918  0.8740 -1.8550  1.6820
 1225TIP3    H2 3640   0.874   6.497   0.909  0.6180  0.5767  0.5842
 1226TIP3   OH2 3641   5.566   6.235   1.535  0.0540  0.3767 -0.1227
 1226TIP3    H1 3642   5.613   6.294   1.475  0.2217  0.3858  0.0169
 1226TIP3    H2 3643   5.635   6.195   1.587  0.1467 -1.4288 -1.5218
 1227TIP3   OH2 3644   7.182   1.429   0.588 -0.2109 -0.2342 -0.3620
 1227TIP3    H1 3645   7.170   1.496   0.521 -1.2397 -0.8200 -0.7960
 1227TIP3    H2 3646   7.174   1.346   0.541 -3.1635 -0.7058  0.7497
 1228TIP3   OH2 3647   3.894   5.464   1.331  0.0568  0.2440  0.1057
 1228TIP3    H1 3648   3.990   5.461   1.326  0.1027 -0.0099  0.9290
 1228TIP3    H2 3649   3.876   5.496   1.419 -0.6185  0.7215 -0.2013
 1229TIP3   OH2 3650   1.981   3.100   0.396  1.0254 -0.2303  0.2643
 1229TIP3    H1 3651   1.995   3.175   0.337  0.3283 -0.0252  0.3450
 1229TIP3    H2 3652   2.065   3.086   0.438  1.2359  0.3458  0.0461
 1230TIP3   OH2 3653   1.881   2.106   0.396  0.3993  0.5777  0.0072
 1230TIP3    H1 3654   1.846   2.021   0.419  0.1733  0.6972  0.1034
 1230TIP3    H2 3655   1.804   2.162   0.387  0.5897  0.9495  0.6562
 1231TIP3   OH2 3656   5.364   0.644   4.253 -0.6331  0.0983 -0.5482
 1231TIP3    H1 3657   5.337   0.556   4.278 -0.8606 -0.0466 -1.2835
 1231TIP3    H2 3658   5.452   0.653   4.289 -0.3642 -0.6629 -0.9972
 1232TIP3   OH2 3659   0.293   2.139   1.174  0.1351  0.2518 -0.1258
 1232TIP3    H1 3660   0.364   2.153   1.111  0.3803  0.9479  0.2861
 1232TIP3    H2 3661   0.223   2.097   1.123  0.5268  0.3209 -0.7331
 1233TIP3   OH2 3662   3.371   2.155   2.670 -0.5065  0.3487 -0.5749
 1233TIP3    H1 3663   3.442   2.212   2.699  0.0493 -0.1817 -0.8682
 1233TIP3    H2 3664   3.331   2.202   2.597  0.9295 -0.2958 -1.8298
 1234TIP3   OH2 3665   2.023   3.138   2.265 -0.4071 -0.0754  0.0168
 1234TIP3    H1 3666   2.015   3.157   2.172 -0.1012 -1.3557 -0.2907
 1234TIP3    H2 3667   1.933   3.144   2.298 -1.1202 -2.8956 -1.0727
 1235TIP3   OH2 3668   2.468   2.719   2.847 -0.5178 -0.0899  0.2170
 1235TIP3    H1 3669   2.507   2.658   2.910  0.0647 -0.3394 -0.3759
 1235TIP3    H2 3670   2.526   2.795   2.849  0.6186 -0.8667 -1.4107
 1236TIP3   OH2 3671   1.043   5.938   4.495 -0.3213 -0.0844  0.0575
 1236TIP3    H1 3672   0.970   5.906   4.441  1.5436 -1.2399 -1.9703
 1236TIP3    H2 3673   1.080   5.858   4.533  0.4169  0.3760  0.3137
 1237TIP3   OH2 3674   1.742   2.903   4.799  0.3806 -0.2397 -0.2311
 1237TIP3    H1 3675   1.789   2.930   4.719 -1.2762 -1.7249 -1.8057
 1237TIP3    H2 3676   1.658   2.948   4.794 -1.2390 -3.1034 -1.3769
 1238TIP3   OH2 3677   6.390   3.147   4.273 -0.1973  0.6991  0.3925
 1238TIP3    H1 3678   6.378   3.239   4.297 -2.2990  0.3230  1.0390
 1238TIP3    H2 3679   6.329   3.133   4.201 -1.1982 -0.5822  1.4526
 1239TIP3   OH2 3680   3.142   4.952   4.980  0.6176 -0.1344  0.5813
 1239TIP3    H1 3681   3.188   5.026   4.941  1.6360 -0.2137  1.5554
 1239TIP3    H2 3682   3.137   4.974   5.073 -1.4300 -0.1010  0.4981
 1240TIP3   OH2 3683   7.013   0.135   0.324 -0.2339  0.2572 -0.0711
 1240TIP3    H1 3684   7.021   0.048   0.283  1.7555  0.4420 -0.1853
 1240TIP3    H2 3685   7.080   0.135   0.392 -1.2237  1.1969  0.9229
 1241TIP3   OH2 3686   3.906   3.118   3.057  0.2625  0.1862 -0.3924
 1241TIP3    H1 3687   3.881   3.033   3.092  0.5905  0.9437  1.8385
 1241TIP3    H2 3688   3.878   3.181   3.124  1.8947  1.6456 -1.0046
 1242TIP3   OH2 3689   0.761   1.266   0.469  0.2278  0.4526 -0.0969
 1242TIP3    H1 3690   0.768   1.234   0.559  0.4458  0.1208 -0.2274
 1242TIP3    H2 3691   0.668   1.285   0.457  0.2837  1.0750  0.3908
 1243TIP3   OH2 3692   5.825   0.835   0.049 -0.3530  0.6008 -0.1140
 1243TIP3    H1 3693   5.746   0.783   0.065  0.4341 -0.6929 -0.2433
 1243TIP3    H2 3694   5.880   0.778  -0.004  1.4005  0.7497  1.4240
 1244TIP3   OH2 3695   1.994   2.041   3.655 -0.1521 -0.3168 -0.0419
 1244TIP3    H1 3696   1.907   2.036   3.694 -1.0393  2.1733 -1.4821
 1244TIP3    H2 3697   2.009   1.953   3.620 -1.9976 -0.8673  0.4249
 1245TIP3   OH2 3698   2.342   4.384   4.072 -0.1031  0.4936 -0.1315
 1245TIP3    H1 3699   2.267   4.333   4.100 -0.4997  0.7762 -0.6568
 1245TIP3    H2 3700   2.315   4.475   4.084  0.2618  0.5949 -0.0547
 1246TIP3   OH2 3701   1.397   0.877   0.259 -0.2126 -0.6176  0.5872
 1246TIP3    H1 3702   1.399   0.834   0.344  1.4790 -1.2335  0.2684
 1246TIP3    H2 3703   1.422   0.967   0.277  0.6518 -0.8708  0.6883
 1247TIP3   OH2 3704   0.407   1.973   5.523  0.1975 -0.1793  0.0166
 1247TIP3    H1 3705   0.431   1.887   5.557  2.2297 -0.3540 -1.6431
 1247TIP3    H2 3706   0.394   1.959   5.429 -2.6097  0.7824  0.1542
 1248TIP3   OH2 3707   4.861   2.978   0.995  0.3099  0.4966  0.1573
 1248TIP3    H1 3708   4.923   2.907   0.979  2.1781  1.7506  1.2746
 1248TIP3    H2 3709   4.804   2.945   1.065  0.4122 -0.2957 -0.1240
 1249TIP3   OH2 3710   3.364   1.914   1.688 -0.3847 -0.1646  0.0100
 1249TIP3    H1 3711   3.383   2.004   1.664  0.1419 -0.5449 -1.0727
 1249TIP3    H2 3712   3.428   1.893   1.755 -0.2235  0.1326 -0.0488
 1250TIP3   OH2 3713   6.945   1.215   4.841 -0.1912 -0.7793  0.0270
 1250TIP3    H1 3714   6.906   1.289   4.887 -0.9012  0.7981 -2.8402
 1250TIP3    H2 3715   6.871   1.159   4.817 -0.1571 -0.3667 -1.1248
 1251TIP3   OH2 3716   3.907   1.224   3.805  0.3060 -0.0272 -0.4714
 1251TIP3    H1 3717   3.832   1.217   3.864  1.2427  0.2745  0.7963
 1251TIP3    H2 3718   3.930   1.133   3.786  0.5602 -0.1553  0.3967
 1252TIP3   OH2 3719   0.227   5.754   4.272 -0.0307 -0.8596 -0.2327
 1252TIP3    H1 3720   0.133   5.769   4.275  0.3230  1.8858 -0.3742
 1252TIP3    H2 3721   0.244   5.696   4.347 -1.4879  1.1813  1.8357
 1253TIP3   OH2 3722   6.173   4.700   1.284 -0.1506  0.4423 -0.3645
 1253TIP3    H1 3723   6.162   4.723   1.192 -2.4463  1.1459  0.0065
 1253TIP3    H2 3724   6.125   4.769   1.331  2.9491  1.4875  1.5587
 1254TIP3   OH2 3725   4.317   3.615   0.182 -0.2335  0.4652  0.0548
 1254TIP3    H1 3726   4.232   3.659   0.183 -0.2032  0.5174  0.3977
 1254TIP3    H2 3727   4.363   3.650   0.258 -0.4291 -0.5884  0.6800
 1255TIP3   OH2 3728   4.390   3.435   0.939 -0.3490  0.2962  0.2263
 1255TIP3    H1 3729   4.415   3.502   1.003 -0.5599  0.1491  0.4660
 1255TIP3    H2 3730   4.424   3.353   0.976  2.3572  0.5727 -1.3708
 1256TIP3   OH2 3731   0.244   2.158   5.662  0.6447 -0.3236  0.1824
 1256TIP3    H1 3732   0.167   2.103   5.677  0.1490  0.3855  0.2897
 1256TIP3    H2 3733   0.303   2.104   5.609 -0.9453 -0.0458 -1.9884
 1257TIP3   OH2 3734   4.710   5.501   0.712  0.3785 -0.0292 -0.5656
 1257TIP3    H1 3735   4.726   5.592   0.733  3.0359 -0.7245  0.8398
 1257TIP3    H2 3736   4.648   5.471   0.778 -0.2824  0.6367 -0.8651
 1258TIP3   OH2 3737   4.044   5.041   2.028 -0.1138  0.0442 -0.5506
 1258TIP3    H1 3738   4.023   4.970   1.967  3.0980 -0.1341 -1.6052
 1258TIP3    H2 3739   4.138   5.035   2.040 -0.4506  0.5258  3.9727
 1259TIP3   OH2 3740   6.267   5.052   0.689 -0.0263 -0.3568  0.2157
 1259TIP3    H1 3741   6.287   5.005   0.770 -0.7383 -0.5182  0.3068
 1259TIP3    H2 3742   6.176   5.028   0.670 -0.0389  0.1174 -0.3321
 1260TIP3   OH2 3743   6.006   2.670   5.726  0.7865  0.2865  0.0384
 1260TIP3    H1 3744   6.041   2.649   5.813 -1.2970 -1.0394  0.6412
 1260TIP3    H2 3745   6.033   2.596   5.671  2.0951  1.1202 -0.4799
 1261TIP3   OH2 3746   6.629   4.538   2.245  0.6750  0.0206 -0.6518
 1261TIP3    H1 3747   6.697   4.471   2.237  0.9052  0.3298 -1.4107
 1261TIP3    H2 3748   6.672   4.618   2.215  0.5901  0.6501  0.7967
 1262TIP3   OH2 3749   2.009   3.942   2.287 -0.9077 -0.8538  0.1062
 1262TIP3    H1 3750   2.078   3.876   2.287 -0.3121 -0.3770 -3.1545
 1262TIP3    H2 3751   2.044   4.014   2.234 -2.7443  0.7808  0.9612
 1263TIP3   OH2 3752   0.781   0.149   5.095  0.0281  0.1626 -0.0473
 1263TIP3    H1 3753   0.848   0.188   5.151  0.2168  0.6991 -0.6281
 1263TIP3    H2 3754   0.798   0.187   5.008 -1.0565  0.3472 -0.1915
 1264TIP3   OH2 3755   5.046   1.060   0.741 -0.2486  0.4802  0.7958
 1264TIP3    H1 3756   5.109   1.129   0.763 -1.2477  1.9745 -0.7697
 1264TIP3    H2 3757   5.094   0.979   0.757  2.3421  1.5399 -0.8905
 1265TIP3   OH2 3758   4.546   1.892   2.286 -0.6279  0.2632 -0.0842
 1265TIP3    H1 3759   4.630   1.864   2.248 -0.3466  1.0978 -0.0867
 1265TIP3    H2 3760   4.566   1.912   2.377 -0.5714  1.5498 -0.3599
 1266TIP3   OH2 3761   4.830   0.573   1.859  0.4786 -0.2223 -0.5101
 1266TIP3    H1 3762   4.905   0.631   1.863  1.6433 -1.6528 -0.7356
 1266TIP3    H2 3763   4.754   0.630   1.877  1.5849  1.2559 -0.3515
 1267TIP3   OH2 3764   2.386   3.967   1.908  0.0503 -0.1627  0.0863
 1267TIP3    H1 3765   2.395   3.879   1.872 -1.6104 -0.6521  0.7825
 1267TIP3    H2 3766   2.459   3.974   1.971 -0.5225 -1.5331  0.9497
 1268TIP3   OH2 3767   4.309   4.993   2.079  0.3088  0.3010 -0.7183
 1268TIP3    H1 3768   4.351   4.907   2.073 -1.4479 -0.7770  1.0926
 1268TIP3    H2 3769   4.355   5.038   2.150 -0.5077 -0.2353  0.1634
 1269TIP3   OH2 3770   6.148   4.413   2.853 -0.0399 -1.0564  0.2611
 1269TIP3    H1 3771   6.113   4.500   2.836 -2.6215 -2.2468 -1.0581
 1269TIP3    H2 3772   6.241   4.428   2.871 -0.7770  2.1538  2.2907
 1270TIP3   OH2 3773   2.170   6.107   3.518 -0.1613  0.5659  0.0403
 1270TIP3    H1 3774   2.246   6.165   3.518 -0.1952  0.8453 -3.7979
 1270TIP3    H2 3775   2.097   6.163   3.489 -1.3378 -0.2517  1.3122
 1271TIP3   OH2 3776   0.318   2.793   3.886 -0.7902  0.3562 -0.0053
 1271TIP3    H1 3777   0.395   2.761   3.934  0.4988  0.9650 -1.6070
 1271TIP3    H2 3778   0.267   2.840   3.952  0.8206  0.9885  0.8396
 1272TIP3   OH2 3779   4.952   2.461   1.185 -0.1856  0.5391 -0.2656
 1272TIP3    H1 3780   4.871   2.417   1.160 -0.0840 -1.5496  2.5319
 1272TIP3    H2 3781   4.925   2.550   1.207 -1.6752  0.0033  0.2118
 1273TIP3   OH2 3782   0.656   4.477   3.043  0.0175  0.0460  0.3834
 1273TIP3    H1 3783   0.623   4.555   3.087 -0.7996  0.2096 -0.4837
 1273TIP3    H2 3784   0.751   4.486   3.047 -0.0022 -0.1193  2.3846
 1274TIP3   OH2 3785   3.413   5.263   5.610  0.8430 -0.1704 -0.3937
 1274TIP3    H1 3786   3.371   5.320   5.675 -0.8086 -0.4758 -1.1434
 1274TIP3    H2 3787   3.436   5.322   5.538  0.0922 -0.2584 -0.7180
 1275TIP3   OH2 3788   0.485   4.886   3.327 -0.4785  0.0502  0.2130
 1275TIP3    H1 3789   0.400   4.911   3.362 -1.4462 -2.1626 -0.4265
 1275TIP3    H2 3790   0.547   4.910   3.396 -1.7601  0.4580  1.2648
 1276TIP3   OH2 3791   2.207   3.567   0.350  0.1440 -0.3085  0.9727
 1276TIP3    H1 3792   2.272   3.635   0.333  1.0511 -1.3216  0.2480
 1276TIP3    H2 3793   2.125   3.603   0.315  0.9570 -0.2680 -1.0513
 1277TIP3   OH2 3794   5.835   2.413   4.053  0.1083 -0.8815  0.1479
 1277TIP3    H1 3795   5.910   2.354   4.043 -0.3968 -1.4300 -0.6139
 1277TIP3    H2 3796   5.831   2.460   3.969 -0.7434 -1.2856 -0.0455
 1278TIP3   OH2 3797   6.126   6.020   0.124  0.3862 -0.0326 -0.3021
 1278TIP3    H1 3798   6.176   5.945   0.091 -0.5419 -0.5633 -0.5255
 1278TIP3    H2 3799   6.183   6.096   0.108  1.3052 -0.6685 -0.1381
 1279TIP3   OH2 3800   4.759   5.689   4.544 -0.3061 -0.1205 -0.1502
 1279TIP3    H1 3801   4.748   5.760   4.607 -1.3974  1.0458 -1.5750
 1279TIP3    H2 3802   4.683   5.696   4.486  0.8277 -0.8868 -1.8184
 1280TIP3   OH2 3803   4.008   3.155   5.700  0.5256  0.7646  0.0092
 1280TIP3    H1 3804   3.988   3.195   5.785  0.1432  1.2295 -0.2953
 1280TIP3    H2 3805   4.038   3.067   5.722  1.7961  1.3529  0.7207
 1281TIP3   OH2 3806   3.375   3.967   5.714  0.6307  0.1990 -0.3736
 1281TIP3    H1 3807   3.315   4.009   5.775  0.6871  0.6663 -0.6361
 1281TIP3    H2 3808   3.451   4.025   5.711  1.1312 -0.4226  0.0070
 1282TIP3   OH2 3809   5.935   3.961   4.489  0.3876 -0.3387  0.4153
 1282TIP3    H1 3810   5.870   4.018   4.447  0.6794  0.2702  0.7728
 1282TIP3    H2 3811   6.001   4.021   4.523  1.3922 -0.9831 -0.3622
 1283TIP3   OH2 3812   1.273   5.495   2.842 -0.0049  0.2002  0.1560
 1283TIP3    H1 3813   1.217   5.511   2.918  0.8495 -1.5594  1.2255
 1283TIP3    H2 3814   1.352   5.454   2.878  0.2183 -1.1442 -1.6960
 1284TIP3   OH2 3815   2.246   0.869   4.279 -0.3568  0.3747 -0.1142
 1284TIP3    H1 3816   2.262   0.940   4.341 -0.9701  0.0694  0.3972
 1284TIP3    H2 3817   2.333   0.830   4.265  0.0363  1.3707 -0.6010
 1285TIP3   OH2 3818   3.179   2.045   1.426  0.1296 -0.2530  0.3846
 1285TIP3    H1 3819   3.188   2.096   1.506 -0.0554  0.6015 -0.1266
 1285TIP3    H2 3820   3.245   2.082   1.366  0.7264 -1.3239  0.3618
 1286TIP3   OH2 3821   5.631   1.204   0.105  0.2799 -0.2476 -0.0736
 1286TIP3    H1 3822   5.565   1.156   0.055  2.2438 -1.9613 -1.1903
 1286TIP3    H2 3823   5.715   1.169   0.073  1.7958  2.6073  0.4485
 1287TIP3   OH2 3824   5.360   6.116   0.659 -0.3010 -0.1115  0.0660
 1287TIP3    H1 3825   5.387   6.031   0.625  1.7986  1.1066 -1.5700
 1287TIP3    H2 3826   5.401   6.180   0.600 -1.6797  2.0561  1.3018
 1288TIP3   OH2 3827   5.813   4.846   5.487  0.0482 -0.1017  0.2141
 1288TIP3    H1 3828   5.735   4.902   5.480  0.6331  1.0729  2.3951
 1288TIP3    H2 3829   5.884   4.905   5.509  1.5636 -1.2046 -1.4348
 1289TIP3   OH2 3830   1.747   2.066   3.768  0.1766 -0.5743 -0.0470
 1289TIP3    H1 3831   1.775   2.025   3.850 -1.2048 -0.5595  0.4643
 1289TIP3    H2 3832   1.659   2.032   3.753 -0.6916  1.4972 -0.0586
 1290TIP3   OH2 3833   3.568   1.076   2.590  0.1834 -0.5905 -0.1844
 1290TIP3    H1 3834   3.607   1.041   2.669  3.6322 -0.2150 -1.5607
 1290TIP3    H2 3835   3.525   1.157   2.618  2.0034 -0.0563  1.2365
 1291TIP3   OH2 3836   3.127   4.852   4.389 -0.5841 -0.0006  0.1420
 1291TIP3    H1 3837   3.104   4.859   4.482  0.7223 -0.3556  0.5166
 1291TIP3    H2 3838   3.074   4.779   4.357 -0.4504 -0.4030  0.8144
 1292TIP3   OH2 3839   6.432   2.690   4.899  0.1886  0.2879 -1.0770
 1292TIP3    H1 3840   6.345   2.693   4.938  0.6524  0.6830 -0.0524
 1292TIP3    H2 3841   6.486   2.747   4.954  1.2214 -0.3662 -1.3740
 1293TIP3   OH2 3842   0.558   3.846   0.230  0.5229 -0.8256 -0.0531
 1293TIP3    H1 3843   0.530   3.784   0.163  0.1885 -0.8005  0.0616
 1293TIP3    H2 3844   0.484   3.852   0.290  0.3887 -0.0201 -0.2777
 1294TIP3   OH2 3845   6.230   0.246   4.235  0.1645  0.3681  0.0712
 1294TIP3    H1 3846   6.234   0.207   4.148  0.7947 -0.6525  0.5482
 1294TIP3    H2 3847   6.282   0.326   4.227  1.3604 -0.4082 -0.1467
 1295TIP3   OH2 3848   2.395   6.266   3.474  0.3991 -0.0748  0.0349
 1295TIP3    H1 3849   2.471   6.207   3.467 -0.7755 -1.8481  1.4864
 1295TIP3    H2 3850   2.394   6.293   3.565 -1.8769 -1.7991  0.5968
 1296TIP3   OH2 3851   3.139   1.178   3.812 -0.4093  0.1780  0.2141
 1296TIP3    H1 3852   3.079   1.108   3.786  0.3172 -0.5288  0.4115
 1296TIP3    H2 3853   3.134   1.180   3.907 -0.7419  0.6816  0.1886
 1297TIP3   OH2 3854   2.047   0.330   0.608  0.1996  0.4503  0.3647
 1297TIP3    H1 3855   2.033   0.273   0.684 -2.3388  1.0371  0.4210
 1297TIP3    H2 3856   1.982   0.300   0.544  0.4920  1.6865 -0.5411
 1298TIP3   OH2 3857   3.331   1.439   0.613 -0.0150 -0.0087 -0.0319
 1298TIP3    H1 3858   3.407   1.437   0.556  0.6159  0.4385  0.7666
 1298TIP3    H2 3859   3.365   1.469   0.698 -0.8728 -0.8772  0.6461
 1299TIP3   OH2 3860   5.282   0.233   1.168  1.0194  0.3438 -0.2500
 1299TIP3    H1 3861   5.299   0.325   1.147  0.0686  0.7587  0.7266
 1299TIP3    H2 3862   5.225   0.202   1.098 -0.5792  1.1773  0.6510
 1300TIP3   OH2 3863   2.673   5.842   5.799 -0.2531  0.7017  0.5332
 1300TIP3    H1 3864   2.679   5.908   5.729  0.0049  1.1398  0.9595
 1300TIP3    H2 3865   2.753   5.854   5.850 -1.0692  1.3341  1.7111
 1301TIP3   OH2 3866   1.269   5.922   3.244 -1.1785 -0.2329  0.0418
 1301TIP3    H1 3867   1.269   5.840   3.195  1.4225  0.3573 -1.1175
 1301TIP3    H2 3868   1.191   5.968   3.213 -1.5836 -1.4101 -0.7764
 1302TIP3   OH2 3869   3.321   0.422   3.911 -0.3265  0.2626  0.3446
 1302TIP3    H1 3870   3.304   0.491   3.847 -2.1426  1.6136  2.1426
 1302TIP3    H2 3871   3.336   0.469   3.993 -2.1307 -1.4686  1.7443
 1303TIP3   OH2 3872   4.347   4.988   0.708  0.1123 -0.3106  0.3013
 1303TIP3    H1 3873   4.339   4.906   0.756  0.8308  0.1549  1.2609
 1303TIP3    H2 3874   4.276   5.043   0.742  0.1018 -0.2748  0.2208
 1304TIP3   OH2 3875   1.428   3.628   4.154  0.4491  0.1262 -0.4412
 1304TIP3    H1 3876   1.420   3.689   4.228 -0.0760  0.2631 -0.6041
 1304TIP3    H2 3877   1.351   3.647   4.100 -0.8145 -2.0199  0.4882
 1305TIP3   OH2 3878   0.660   3.288   1.317  0.3578 -0.4215  0.9421
 1305TIP3    H1 3879   0.649   3.269   1.410 -0.5310  0.3146  1.0114
 1305TIP3    H2 3880   0.580   3.254   1.276 -0.0018  0.6613  0.6973
 1306TIP3   OH2 3881   2.982   0.578   4.692  0.3614 -1.1522  0.3320
 1306TIP3    H1 3882   3.066   0.556   4.652 -0.2143 -4.2435  0.5782
 1306TIP3    H2 3883   2.976   0.522   4.769 -1.7652 -0.7426  0.5345
 1307TIP3   OH2 3884   5.742   2.709   0.673 -0.4598  0.1845 -0.0547
 1307TIP3    H1 3885   5.657   2.749   0.691 -0.1553  0.8470 -0.0883
 1307TIP3    H2 3886   5.783   2.766   0.609  0.0349 -0.1067 -0.0014
 1308TIP3   OH2 3887   3.450   1.512   0.839 -0.1527  0.2806 -0.2482
 1308TIP3    H1 3888   3.512   1.447   0.807 -1.7026 -1.2216 -0.3580
 1308TIP3    H2 3889   3.428   1.482   0.928 -1.7638 -0.0611 -0.7326
 1309TIP3   OH2 3890   2.885   4.837   3.505  0.2030 -0.0096  0.0183
 1309TIP3    H1 3891   2.923   4.817   3.420 -0.7935 -0.7544 -0.2786
 1309TIP3    H2 3892   2.905   4.760   3.559 -1.1649 -0.5963 -0.2614
 1310TIP3   OH2 3893   2.088   5.691   0.885  0.6777  0.0764  0.2118
 1310TIP3    H1 3894   2.087   5.699   0.789 -0.1879  1.3644  0.2919
 1310TIP3    H2 3895   2.063   5.601   0.902 -0.0215  0.0639 -0.7820
 1311TIP3   OH2 3896   2.611   3.986   4.728  0.1013  0.7783  0.2210
 1311TIP3    H1 3897   2.631   4.046   4.800 -1.2843  1.0926  0.3874
 1311TIP3    H2 3898   2.568   3.911   4.770 -0.6929  0.9520 -0.2578
 1312TIP3   OH2 3899   0.706   3.903   5.649  0.5304 -0.2040  0.0977
 1312TIP3    H1 3900   0.724   3.977   5.591  0.5750 -0.4354 -0.1875
 1312TIP3    H2 3901   0.790   3.884   5.690  0.8534 -1.0051 -0.9065
 1313TIP3   OH2 3902   4.827   1.196   0.769 -0.2790 -0.1013  0.2917
 1313TIP3    H1 3903   4.822   1.228   0.859  1.0545 -0.9782  0.6973
 1313TIP3    H2 3904   4.884   1.120   0.773  2.6595  1.7761 -1.8273
 1314TIP3   OH2 3905   2.879   5.396   2.259  0.1819 -0.3889  0.2363
 1314TIP3    H1 3906   2.813   5.327   2.266  1.5565 -1.7240  0.4979
 1314TIP3    H2 3907   2.876   5.440   2.344  1.5762 -2.3393  1.3916
 1315TIP3   OH2 3908   7.073   2.836   3.933  0.0754  0.1429 -0.1529
 1315TIP3    H1 3909   7.069   2.869   3.843  1.4051  1.6711  0.3083
 1315TIP3    H2 3910   7.005   2.885   3.980 -0.8005 -0.8434 -0.3366
 1316TIP3   OH2 3911   2.750   1.656   1.971 -0.3427 -0.1440  0.3932
 1316TIP3    H1 3912   2.654   1.657   1.976 -0.4123 -0.1187 -0.7006
 1316TIP3    H2 3913   2.776   1.589   2.035 -1.1273 -0.6052  0.2508
 1317TIP3   OH2 3914   3.280   4.264   4.096 -0.3863 -0.4640 -0.3227
 1317TIP3    H1 3915   3.227   4.243   4.173  0.6882 -0.4580  0.4390
 1317TIP3    H2 3916   3.225   4.323   4.044 -1.5325 -1.2957 -0.0843
 1318TIP3   OH2 3917   6.025   3.941   1.624  0.4734 -0.4132 -0.1448
 1318TIP3    H1 3918   6.019   3.860   1.573  2.1547  0.1369 -1.3018
 1318TIP3    H2 3919   5.952   3.935   1.686 -0.2351 -2.1970 -1.0537
 1319TIP3   OH2 3920   1.425   4.014   4.643  0.1907  0.4024  0.1681
 1319TIP3    H1 3921   1.357   3.947   4.645 -0.5694  1.1203 -0.7908
 1319TIP3    H2 3922   1.476   3.999   4.723 -2.0755  0.8816  1.7849
 1320TIP3   OH2 3923   0.822   6.576   0.090  0.0858  0.4319  0.5083
 1320TIP3    H1 3924   0.776   6.562   0.008  0.0276  1.7267  0.3097
 1320TIP3    H2 3925   0.807   6.495   0.139  0.5266 -0.5563 -0.9226
 1321TIP3   OH2 3926   2.438   5.868   2.169  0.2983  0.0860  0.6649
 1321TIP3    H1 3927   2.349   5.895   2.146  0.4088  0.1989  0.3685
 1321TIP3    H2 3928   2.450   5.901   2.258 -0.3239 -0.8141  1.1003
 1322TIP3   OH2 3929   4.435   5.761   5.207 -0.1386  0.0764 -0.5715
 1322TIP3    H1 3930   4.380   5.816   5.263  0.7807  0.8473 -0.4097
 1322TIP3    H2 3931   4.503   5.820   5.175 -0.5755 -0.3656 -2.4364
 1323TIP3   OH2 3932   6.447   2.572   0.947  0.1427  0.7521  0.5551
 1323TIP3    H1 3933   6.402   2.525   0.877 -1.0787  1.2133  0.9923
 1323TIP3    H2 3934   6.399   2.654   0.955  0.9824  1.1931  1.1618
 1324TIP3   OH2 3935   4.779   3.768   5.862 -0.1369 -0.3213 -0.4671
 1324TIP3    H1 3936   4.794   3.711   5.787  1.6829 -1.5519  0.7378
 1324TIP3    H2 3937   4.805   3.716   5.938  2.8513  2.3594  0.6373
 1325TIP3   OH2 3938   5.810   1.596   2.481  0.0179  0.2440  0.4245
 1325TIP3    H1 3939   5.845   1.681   2.506 -1.3519  0.7202  0.8176
 1325TIP3    H2 3940   5.832   1.588   2.388 -1.4028  1.8816 -0.1141
 1326TIP3   OH2 3941   6.624   4.727   5.327  0.0829 -0.0294  0.1260
 1326TIP3    H1 3942   6.688   4.798   5.335  0.9998 -0.8842  0.5472
 1326TIP3    H2 3943   6.574   4.731   5.408 -1.0336  1.2181 -0.5897
 1327TIP3   OH2 3944   0.079   2.551   0.590 -0.1203  0.3190  0.2402
 1327TIP3    H1 3945   0.101   2.610   0.662 -1.3897 -0.1317  1.0074
 1327TIP3    H2 3946  -0.006   2.515   0.612  1.4505 -3.4557  0.8711
 1328TIP3   OH2 3947   1.058   1.083   2.093  0.4000  0.2684 -0.5182
 1328TIP3    H1 3948   1.072   1.028   2.170  1.4897 -0.7824 -1.4252
 1328TIP3    H2 3949   1.004   1.156   2.124  1.7329  0.4621  1.4876
 1329TIP3   OH2 3950   0.041   3.528   4.897 -0.0602  0.5493 -0.3595
 1329TIP3    H1 3951   0.117   3.472   4.875 -1.1254 -1.2756  0.4026
 1329TIP3    H2 3952   0.013   3.563   4.812  0.2853 -0.5558 -0.9571
 1330TIP3   OH2 3953   4.462   6.305   2.959  0.0221  0.1377 -0.0435
 1330TIP3    H1 3954   4.427   6.287   3.047  1.4703 -0.8044  0.3844
 1330TIP3    H2 3955   4.393   6.276   2.899 -0.4243 -0.5524  0.7750
 1331TIP3   OH2 3956   1.962   5.176   1.472 -0.0072 -0.8501  0.0584
 1331TIP3    H1 3957   2.057   5.174   1.456  1.1142  4.7928  3.1470
 1331TIP3    H2 3958   1.925   5.204   1.388  2.1065  2.7406  0.1047
 1332TIP3   OH2 3959   5.558   3.023   0.440  0.0408 -0.0533 -0.7778
 1332TIP3    H1 3960   5.594   3.109   0.461 -1.3719  0.4541 -0.3219
 1332TIP3    H2 3961   5.487   3.041   0.379 -0.2333 -0.9014 -0.7214
 1333TIP3   OH2 3962   2.483   2.308   1.703  0.0681  0.0253  0.0256
 1333TIP3    H1 3963   2.533   2.253   1.642  2.0408  1.0160  0.6805
 1333TIP3    H2 3964   2.499   2.269   1.789 -1.4144 -0.4143  0.1390
 1334TIP3   OH2 3965   3.859   2.744   4.180 -0.3536 -0.3860 -0.0300
 1334TIP3    H1 3966   3.768   2.722   4.199 -0.6352  1.6341  1.2548
 1334TIP3    H2 3967   3.880   2.694   4.102 -2.1522 -1.8867  0.3833
 1335TIP3   OH2 3968   4.415   5.984   0.306 -0.5790  0.4552 -0.2759
 1335TIP3    H1 3969   4.363   6.045   0.253 -0.6913  0.0079 -0.6826
 1335TIP3    H2 3970   4.356   5.910   0.323  0.8776 -1.6473 -3.5213
 1336TIP3   OH2 3971   6.498   6.099   2.814  0.0041  0.4086 -0.1465
 1336TIP3    H1 3972   6.542   6.028   2.860  0.0171  0.2476 -0.4122
 1336TIP3    H2 3973   6.489   6.168   2.880 -1.0287 -0.2582  0.4437
 1337TIP3   OH2 3974   1.830   1.848   1.552  0.0450 -0.7414  0.4433
 1337TIP3    H1 3975   1.777   1.787   1.603  0.4951 -1.0359  0.5668
 1337TIP3    H2 3976   1.911   1.800   1.536  0.6013  0.0187  0.9691
 1338TIP3   OH2 3977   5.256   5.899   0.009  0.4096 -0.7977  0.0046
 1338TIP3    H1 3978   5.210   5.946   0.079  0.9728  0.5336 -0.4988
 1338TIP3    H2 3979   5.189   5.885  -0.058 -0.1790 -2.2371  0.8398
 1339TIP3   OH2 3980   3.205   1.360   4.719 -0.3587  0.0941  0.1936
 1339TIP3    H1 3981   3.267   1.414   4.768 -1.3691  1.0471  0.4336
 1339TIP3    H2 3982   3.149   1.321   4.786 -0.2383 -0.5156 -0.0495
 1340TIP3   OH2 3983   4.995   0.114   3.213 -0.2108  0.0712  0.2022
 1340TIP3    H1 3984   5.084   0.116   3.179  0.0443  0.1797  0.8662
 1340TIP3    H2 3985   4.953   0.192   3.178  0.3781  0.7644  1.0026
 1341TIP3   OH2 3986   7.027   4.129   5.057 -0.2824  0.2319  0.1176
 1341TIP3    H1 3987   7.036   4.056   5.119 -0.4658 -1.0326 -1.2732
 1341TIP3    H2 3988   6.937   4.121   5.025 -1.2801  2.7862  1.9131
 1342TIP3   OH2 3989   5.657   0.750   5.853 -0.2526  0.0560 -0.2220
 1342TIP3    H1 3990   5.624   0.709   5.933 -0.8090 -0.2223 -0.5842
 1342TIP3    H2 3991   5.692   0.677   5.801  2.3382  0.4933  0.7632
 1343TIP3   OH2 3992   2.008   3.069   3.911 -0.1789 -0.6621  0.3855
 1343TIP3    H1 3993   2.018   3.059   3.816 -1.0662 -1.8987  0.3941
 1343TIP3    H2 3994   2.094   3.099   3.941  0.4069 -1.1995 -0.6988
 1344TIP3   OH2 3995   5.043   5.325   5.323 -0.0027  0.6219  0.4324
 1344TIP3    H1 3996   4.951   5.325   5.294  0.1273  0.8332  0.0047
 1344TIP3    H2 3997   5.093   5.302   5.245  0.2743 -0.0819  0.8095
 1345TIP3   OH2 3998   6.288   5.773   0.074 -0.1518  0.2499 -0.2878
 1345TIP3    H1 3999   6.364   5.741   0.025  0.0266  0.1724  0.0346
 1345TIP3    H2 4000   6.319   5.779   0.164  0.2098  2.5527 -0.5026
 1346TIP3   OH2 4001   6.851   5.886   4.323  0.5345 -0.2245  0.4135
 1346TIP3    H1 4002   6.814   5.798   4.314  1.2622 -0.4962  0.0742
 1346TIP3    H2 4003   6.945   5.872   4.331  0.4722  0.3004  3.5484
 1347TIP3   OH2 4004   3.138   6.363   1.377 -0.4882  0.3921  0.5309
 1347TIP3    H1 4005   3.082   6.374   1.453 -0.2409  3.4628  0.4340
 1347TIP3    H2 4006   3.090   6.305   1.319 -0.9291 -1.5794  2.7207
 1348TIP3   OH2 4007   4.694   0.830   3.019 -0.3112  1.0329  0.1310
 1348TIP3    H1 4008   4.621   0.892   3.014 -1.6874 -0.5326  0.1058
 1348TIP3    H2 4009   4.714   0.809   2.927 -0.6945  0.5139  0.1588
 1349TIP3   OH2 4010   6.617   2.281   3.554 -0.6858  0.0976 -1.4034
 1349TIP3    H1 4011   6.591   2.349   3.617 -2.3802 -0.7092 -1.1765
 1349TIP3    H2 4012   6.536   2.258   3.509 -0.2032 -1.8797 -1.3597
 1350TIP3   OH2 4013   3.001   4.691   1.710 -0.0423 -0.4439  0.0671
 1350TIP3    H1 4014   2.942   4.753   1.753  0.3942 -1.1615  1.7659
 1350TIP3    H2 4015   2.953   4.663   1.632 -1.0006  0.6455  0.2339
 1351TIP3   OH2 4016   1.650   6.476   2.189  0.0957  0.2726 -0.1463
 1351TIP3    H1 4017   1.704   6.552   2.168 -0.1949  0.6451  0.4280
 1351TIP3    H2 4018   1.637   6.482   2.284 -2.3857  1.1688 -0.4693
 1352TIP3   OH2 4019   2.914   1.350   1.745 -0.5000 -0.5013 -0.0364
 1352TIP3    H1 4020   2.956   1.356   1.830 -0.9701  0.2754  0.1522
 1352TIP3    H2 4021   2.906   1.441   1.716 -0.4914 -0.7474 -0.8391
 1353TIP3   OH2 4022   7.197   4.706   1.669 -0.1680  0.5327  0.6170
 1353TIP3    H1 4023   7.198   4.796   1.702  0.5013  0.5903  0.4514
 1353TIP3    H2 4024   7.161   4.714   1.580 -2.2085  0.3482  1.3716
 1354TIP3   OH2 4025   3.399   1.962   4.968 -0.4918  0.8430  0.6555
 1354TIP3    H1 4026   3.431   2.052   4.969 -0.7091  0.9408 -0.2289
 1354TIP3    H2 4027   3.478   1.908   4.970 -0.3626  1.0491  1.2027
 1355TIP3   OH2 4028   1.304   5.963   2.619  0.1208  0.6868 -0.0629
 1355TIP3    H1 4029   1.290   5.868   2.629 -1.0232  0.8873  0.4863
 1355TIP3    H2 4030   1.359   5.971   2.542  1.2238 -0.4849  0.5618
 1356TIP3   OH2 4031   4.618   5.951   5.807  0.1103 -0.9070  0.3930
 1356TIP3    H1 4032   4.608   6.046   5.799 -0.7421 -0.9057  1.3593
 1356TIP3    H2 4033   4.698   5.932   5.759 -1.3638 -0.1344 -2.6102
 1357TIP3   OH2 4034   4.419   5.018   1.472  0.1095 -0.2050  0.2451
 1357TIP3    H1 4035   4.470   5.095   1.497  0.1244  0.3160 -1.3324
 1357TIP3    H2 4036   4.430   4.958   1.546  4.1100 -0.6405 -0.4737
 1358TIP3   OH2 4037   3.827   0.763   0.477 -0.0105  0.1885 -0.2839
 1358TIP3    H1 4038   3.861   0.734   0.562  1.0164  0.1588 -0.6898
 1358TIP3    H2 4039   3.899   0.813   0.439 -0.1725 -0.4452 -1.4548
 1359TIP3   OH2 4040   1.020   0.716   0.875  0.4315 -0.0514 -0.9068
 1359TIP3    H1 4041   0.984   0.641   0.828 -0.3838 -0.6577  0.6095
 1359TIP3    H2 4042   1.037   0.683   0.963 -1.9194  2.0168  0.4505
 1360TIP3   OH2 4043   0.983   6.000   3.512  0.3294 -0.1152 -0.1235
 1360TIP3    H1 4044   1.060   5.944   3.527  0.8064  0.3955 -0.6249
 1360TIP3    H2 4045   0.916   5.939   3.482  0.4961 -0.5853  0.4256
 1361TIP3   OH2 4046   6.222   5.459   2.742  0.3505 -0.0003 -0.1334
 1361TIP3    H1 4047   6.184   5.508   2.815  0.3959  1.3938 -1.0078
 1361TIP3    H2 4048   6.147   5.430   2.691  0.3392 -0.5511  0.1855
 1362TIP3   OH2 4049   1.670   6.481   3.874  0.3317 -0.2864 -0.7171
 1362TIP3    H1 4050   1.758   6.510   3.901  0.8549 -1.2817 -1.2907
 1362TIP3    H2 4051   1.611   6.549   3.907  1.3368  0.4959 -0.4773
 1363TIP3   OH2 4052   3.142   2.289   0.499 -0.0490 -0.2275  0.3781
 1363TIP3    H1 4053   3.070   2.350   0.479  0.3176  0.2804  0.5729
 1363TIP3    H2 4054   3.139   2.280   0.594  0.1633 -0.1757  0.3904
 1364TIP3   OH2 4055   5.691   2.083   3.089 -0.3886 -0.4651 -0.5371
 1364TIP3    H1 4056   5.688   2.063   2.995  0.1324 -1.3286 -0.3732
 1364TIP3    H2 4057   5.774   2.130   3.101  0.6793 -2.3846 -0.1364
 1365TIP3   OH2 4058   1.100   4.739   4.885  0.1305  0.8867  0.0777
 1365TIP3    H1 4059   1.146   4.662   4.852  0.6781  0.6740  1.2930
 1365TIP3    H2 4060   1.105   4.802   4.813  0.3997  0.0879 -0.6215
 1366TIP3   OH2 4061   5.196   4.710   2.340  0.5653 -0.1488 -0.2383
 1366TIP3    H1 4062   5.208   4.774   2.270 -0.4668 -1.1584 -1.3938
 1366TIP3    H2 4063   5.285   4.688   2.368  0.9383  1.8549  0.2910
 1367TIP3   OH2 4064   2.162   1.924   1.998 -0.2837 -0.0100  0.2306
 1367TIP3    H1 4065   2.159   1.914   2.093  0.1064  0.2272  0.2710
 1367TIP3    H2 4066   2.191   1.839   1.965 -2.7917 -0.8898  0.1420
 1368TIP3   OH2 4067   6.903   0.917   1.743  0.2480  0.4141 -0.4430
 1368TIP3    H1 4068   6.970   0.863   1.701 -0.4319 -0.6611 -0.2117
 1368TIP3    H2 4069   6.947   0.955   1.820  0.8110  0.3814 -0.7452
 1369TIP3   OH2 4070   0.652   3.736   2.975 -0.3185 -0.0221 -0.3206
 1369TIP3    H1 4071   0.585   3.785   3.025  0.0957  0.4008 -0.1697
 1369TIP3    H2 4072   0.627   3.749   2.884  0.1883  1.1010 -0.3241
 1370TIP3   OH2 4073   1.776   5.098   3.211 -0.1120 -0.5360  0.1599
 1370TIP3    H1 4074   1.704   5.057   3.259 -0.4362 -2.1514 -1.6063
 1370TIP3    H2 4075   1.845   5.031   3.210  2.0200  1.3637  2.8299
 1371TIP3   OH2 4076   0.469   2.588   5.379  0.4362 -0.0431  0.5968
 1371TIP3    H1 4077   0.526   2.523   5.419  4.3517  0.6837 -3.0550
 1371TIP3    H2 4078   0.520   2.669   5.381 -1.2256  1.1527 -1.3024
 1372TIP3   OH2 4079   4.913   5.888   1.465 -0.2396 -0.1716 -0.0816
 1372TIP3    H1 4080   4.899   5.879   1.371 -1.4529  2.3774 -0.2201
 1372TIP3    H2 4081   5.004   5.859   1.478 -0.2589 -1.2334 -1.8860
 1373TIP3   OH2 4082   4.460   4.722   1.642 -0.9511 -0.5705  0.7686
 1373TIP3    H1 4083   4.436   4.738   1.551  0.5107  0.5803  0.5491
 1373TIP3    H2 4084   4.408   4.785   1.692 -0.9992 -0.4895  0.6171
 1374TIP3   OH2 4085   4.292   3.591   3.411 -0.1443 -0.1246  0.3381
 1374TIP3    H1 4086   4.304   3.497   3.426  0.0804 -0.0927  0.3594
 1374TIP3    H2 4087   4.364   3.616   3.354  0.1278  0.1539  0.7989
 1375TIP3   OH2 4088   2.963   5.520   1.590 -0.3904 -0.8039 -0.1124
 1375TIP3    H1 4089   2.921   5.473   1.662 -0.2936  1.4278  1.5361
 1375TIP3    H2 4090   2.945   5.468   1.513 -1.0825 -2.9842  1.4270
 1376TIP3   OH2 4091   2.718   0.546   5.056 -0.5731 -0.5727 -0.3442
 1376TIP3    H1 4092   2.628   0.527   5.027  0.4913 -1.9110 -3.1327
 1376TIP3    H2 4093   2.744   0.623   5.007  0.5907 -1.6633 -1.5266
 1377TIP3   OH2 4094   6.767   6.359   4.858  0.5642 -0.0173 -0.8104
 1377TIP3    H1 4095   6.736   6.301   4.928 -1.9034 -0.1362 -1.8849
 1377TIP3    H2 4096   6.830   6.417   4.901 -2.1948  1.1629  2.0792
 1378TIP3   OH2 4097   1.406   3.510   0.932 -0.0789 -0.0496 -0.0809
 1378TIP3    H1 4098   1.335   3.571   0.913 -0.5689 -0.3922  0.5951
 1378TIP3    H2 4099   1.391   3.483   1.022  0.1095 -1.1942 -0.3787
 1379TIP3   OH2 4100   0.431   4.637   5.768  0.1356  0.3626 -0.6196
 1379TIP3    H1 4101   0.465   4.597   5.688 -0.9755  0.5846 -1.2268
 1379TIP3    H2 4102   0.338   4.616   5.768 -0.1178  1.3951 -0.0131
 1380TIP3   OH2 4103   2.697   2.642   3.330 -0.3714  0.2197 -0.1928
 1380TIP3    H1 4104   2.774   2.591   3.353 -0.4272  0.6692  1.0460
 1380TIP3    H2 4105   2.732   2.727   3.301 -0.2854 -0.4197 -2.1383
 1381TIP3   OH2 4106   1.780   2.257   4.756 -0.9771 -0.1493  0.8939
 1381TIP3    H1 4107   1.831   2.251   4.676 -1.5087 -0.8509  0.5999
 1381TIP3    H2 4108   1.794   2.347   4.786 -0.5415  0.0323  0.1782
 1382TIP3   OH2 4109   7.030   3.148   1.432 -0.5281 -0.3066 -0.2014
 1382TIP3    H1 4110   7.027   3.238   1.464 -1.7161  0.5467 -2.4918
 1382TIP3    H2 4111   6.968   3.146   1.360 -1.0067 -3.1577  0.1555
 1383TIP3   OH2 4112   0.827   2.452   3.195 -0.0621 -0.6209  0.0253
 1383TIP3    H1 4113   0.845   2.524   3.254  1.6663 -0.5689 -0.4924
 1383TIP3    H2 4114   0.802   2.379   3.252 -2.0165  0.4045  0.5345
 1384TIP3   OH2 4115   6.064   1.333   4.609  0.0228  0.4374 -0.5057
 1384TIP3    H1 4116   5.993   1.349   4.547  0.9680  0.5818 -1.5988
 1384TIP3    H2 4117   6.142   1.370   4.566  1.0150 -0.9699  0.0105
 1385TIP3   OH2 4118   6.300   4.605   4.226 -0.7047 -0.2353  0.1170
 1385TIP3    H1 4119   6.364   4.536   4.205 -1.1694 -0.2210 -1.5093
 1385TIP3    H2 4120   6.282   4.593   4.319  1.7870 -0.1143  0.6661
 1386TIP3   OH2 4121   1.539   4.792   5.740  0.3560  0.3908  0.2691
 1386TIP3    H1 4122   1.611   4.767   5.682 -0.1238 -0.7167  0.1330
 1386TIP3    H2 4123   1.571   4.772   5.828  0.6928  1.1061  0.3157
 1387TIP3   OH2 4124   0.185   4.551   0.928 -0.1620  0.5305 -0.0469
 1387TIP3    H1 4125   0.091   4.566   0.917 -0.2526  0.7000  0.9004
 1387TIP3    H2 4126   0.201   4.468   0.882 -0.8521  0.2920  0.1267
 1388TIP3   OH2 4127   3.047   4.496   2.225  0.2842  0.0467 -0.1501
 1388TIP3    H1 4128   2.995   4.576   2.236  0.5009  0.0096  1.3249
 1388TIP3    H2 4129   3.136   4.523   2.246  0.4227 -0.4880 -0.0480
 1389TIP3   OH2 4130   2.785   6.220   3.909  0.2633  0.2371 -0.4209
 1389TIP3    H1 4131   2.715   6.216   3.843  0.9384  2.0070 -1.3218
 1389TIP3    H2 4132   2.781   6.136   3.953 -3.6898  0.8620  0.8519
 1390TIP3   OH2 4133   5.656   2.431   2.056  0.1623 -0.6907 -0.0585
 1390TIP3    H1 4134   5.633   2.524   2.058 -1.5451 -1.0494 -1.0701
 1390TIP3    H2 4135   5.751   2.429   2.065  0.0998  1.0488  1.7214
 1391TIP3   OH2 4136   5.597   2.255  -0.000  0.0324  0.2024 -0.0063
 1391TIP3    H1 4137   5.643   2.174   0.024  0.8503  0.3002 -1.1431
 1391TIP3    H2 4138   5.525   2.261   0.062  0.4578 -0.9578  0.6346
 1392TIP3   OH2 4139   3.638   2.615   2.159  0.2734 -0.0275 -0.2067
 1392TIP3    H1 4140   3.717   2.597   2.109  0.8344 -0.9934  0.9797
 1392TIP3    H2 4141   3.670   2.643   2.245 -0.6672  0.1721  0.0867
 1393TIP3   OH2 4142   2.992   1.425   0.774  0.5435  0.6817 -0.3754
 1393TIP3    H1 4143   3.074   1.375   0.778  0.0086 -0.2994 -1.0888
 1393TIP3    H2 4144   2.986   1.470   0.858  0.3402 -1.6337  0.9409
 1394TIP3   OH2 4145   5.496   1.264   3.511  0.1173 -0.0818 -0.2684
 1394TIP3    H1 4146   5.557   1.191   3.524 -0.2109 -0.2981  0.0773
 1394TIP3    H2 4147   5.508   1.319   3.588 -2.9672 -2.1784  1.9392
 1395TIP3   OH2 4148   2.140   2.329   3.231  0.4755 -0.2343 -0.2000
 1395TIP3    H1 4149   2.203   2.266   3.267  2.2222  1.7983  0.4973
 1395TIP3    H2 4150   2.077   2.343   3.302 -0.0172 -1.2685 -0.4155
 1396TIP3   OH2 4151   3.856   2.556   2.685 -0.2714  0.2664 -0.4646
 1396TIP3    H1 4152   3.936   2.593   2.647  0.3152  0.4121  0.8364
 1396TIP3    H2 4153   3.785   2.608   2.648  0.3223  0.8570 -0.8054
 1397TIP3   OH2 4154   0.275   5.412   3.095  0.0026  0.3971  0.1911
 1397TIP3    H1 4155   0.200   5.463   3.127 -0.3033 -0.4468  0.8405
 1397TIP3    H2 4156   0.243   5.373   3.013  0.9429  2.9508 -1.5395
 1398TIP3   OH2 4157   1.235   5.715   0.968  0.6091  0.2479  0.1068
 1398TIP3    H1 4158   1.253   5.803   0.933  1.2150  0.2245  0.3482
 1398TIP3    H2 4159   1.240   5.657   0.892  0.8102  0.3450  0.0437
 1399TIP3   OH2 4160   6.243   3.916   1.328 -0.0032 -0.1006 -0.2004
 1399TIP3    H1 4161   6.162   3.921   1.378  0.3978  0.5402  0.4074
 1399TIP3    H2 4162   6.279   4.005   1.331  0.2484 -0.1534 -1.2653
 1400TIP3   OH2 4163   1.058   3.482   3.931 -0.3709 -0.3857 -0.5419
 1400TIP3    H1 4164   0.976   3.470   3.884  0.1955  0.2058 -1.7365
 1400TIP3    H2 4165   1.116   3.525   3.867  0.9091 -0.9226  0.2200
 1401TIP3   OH2 4166   1.785   2.680   0.849  0.0618  0.5666  0.2948
 1401TIP3    H1 4167   1.781   2.692   0.944 -0.9425 -1.3874  0.5517
 1401TIP3    H2 4168   1.734   2.752   0.813  1.8594  2.3246  1.0950
 1402TIP3   OH2 4169   1.035   1.137   0.908 -0.1685 -0.3820  0.1531
 1402TIP3    H1 4170   1.118   1.094   0.890 -1.3731 -3.0213  0.3963
 1402TIP3    H2 4171   1.043   1.169   0.998 -0.4799 -3.6328  1.4699
 1403TIP3   OH2 4172   4.528   2.572   0.996 -0.6998 -0.2320  0.3901
 1403TIP3    H1 4173   4.504   2.567   1.088 -0.5546  2.1154  0.6107
 1403TIP3    H2 4174   4.473   2.505   0.954 -0.1723 -1.9318  2.2342
 1404TIP3   OH2 4175   1.472   5.735   1.597 -0.3198 -0.2275 -0.4871
 1404TIP3    H1 4176   1.513   5.819   1.617  1.5346 -0.6225 -2.2716
 1404TIP3    H2 4177   1.542   5.670   1.611 -1.5775 -1.4533  0.4059
 1405TIP3   OH2 4178   1.808   5.157   0.169  0.0244 -0.5891 -0.2022
 1405TIP3    H1 4179   1.880   5.181   0.112  0.0888  2.7835  1.0578
 1405TIP3    H2 4180   1.847   5.100   0.235  1.3353  0.3917 -0.0997
 1406TIP3   OH2 4181   3.075   2.754   0.723  0.0270  0.8297 -0.5099
 1406TIP3    H1 4182   3.036   2.670   0.747  0.5525  0.8268  0.3688
 1406TIP3    H2 4183   3.139   2.733   0.655 -0.0485  0.5575 -0.4975
 1407TIP3   OH2 4184   6.565   0.174   5.605  0.5289  0.2545 -0.1120
 1407TIP3    H1 4185   6.529   0.211   5.686 -0.6954  2.9164 -1.7195
 1407TIP3    H2 4186   6.489   0.161   5.549  1.5165  0.6120 -1.6030
 1408TIP3   OH2 4187   0.622   3.610   1.057  0.4606 -0.1129  0.0977
 1408TIP3    H1 4188   0.643   3.595   1.149  0.0749  1.5537  0.4991
 1408TIP3    H2 4189   0.593   3.701   1.054  0.5645 -0.1043 -1.7029
 1409TIP3   OH2 4190   6.513   6.323   4.532 -0.1831  0.0548  0.0821
 1409TIP3    H1 4191   6.547   6.338   4.444  0.4314 -1.3777  0.0510
 1409TIP3    H2 4192   6.521   6.229   4.546 -2.0634 -0.0288  0.9526
 1410TIP3   OH2 4193   3.392   4.371   1.685  0.2933  0.2585  0.2299
 1410TIP3    H1 4194   3.442   4.328   1.615  0.2963  1.6636 -0.6656
 1410TIP3    H2 4195   3.410   4.319   1.763  0.1079 -1.5053 -0.8411
 1411TIP3   OH2 4196   3.219   0.237   4.471  0.3695  0.1249 -0.3751
 1411TIP3    H1 4197   3.146   0.182   4.498  0.1172  0.0300 -1.2203
 1411TIP3    H2 4198   3.294   0.205   4.521  0.1591 -0.7901 -0.6348
 1412TIP3   OH2 4199   5.467   2.385   5.702  0.1311 -0.6142 -0.0176
 1412TIP3    H1 4200   5.470   2.322   5.630 -2.0577  0.3695 -1.0570
 1412TIP3    H2 4201   5.376   2.414   5.704  0.7380  1.3347  1.4647
 1413TIP3   OH2 4202   3.181   6.540   4.140 -0.0123  0.4586 -0.0383
 1413TIP3    H1 4203   3.193   6.600   4.214  0.5665 -2.1026  2.1294
 1413TIP3    H2 4204   3.152   6.596   4.068 -0.3034  3.1757  2.0071
 1414TIP3   OH2 4205   0.439   6.306   4.395  0.1165  0.0005 -0.1902
 1414TIP3    H1 4206   0.368   6.243   4.394 -0.0034  0.0849  1.2135
 1414TIP3    H2 4207   0.421   6.362   4.470  1.3758  0.3502 -0.1161
 1415TIP3   OH2 4208   5.304   4.172   1.584 -0.9676  0.1291  0.1546
 1415TIP3    H1 4209   5.214   4.146   1.604 -0.7180 -2.3598 -1.5416
 1415TIP3    H2 4210   5.313   4.157   1.490  0.9086  1.4463  0.0761
 1416TIP3   OH2 4211   2.835   0.037  -0.005  0.0085  0.1962  0.1120
 1416TIP3    H1 4212   2.769   0.106   0.001  1.6929  1.8844  0.5851
 1416TIP3    H2 4213   2.792  -0.041   0.028 -1.7958  1.1598  0.1853
 1417TIP3   OH2 4214   0.384   3.393   2.205 -0.1492  0.1905 -0.0420
 1417TIP3    H1 4215   0.323   3.467   2.209  0.4914  0.7040  0.6153
 1417TIP3    H2 4216   0.380   3.355   2.293  0.5840  0.3315  0.0625
 1418TIP3   OH2 4217   0.722   4.108   2.209 -0.4388  0.7763  0.3656
 1418TIP3    H1 4218   0.815   4.099   2.191 -0.5117  0.2712  0.2084
 1418TIP3    H2 4219   0.688   4.018   2.203 -1.0171  1.0178 -0.0488
 1419TIP3   OH2 4220   1.457   0.954   1.620  0.1333  0.6445  0.1829
 1419TIP3    H1 4221   1.459   0.921   1.530  1.3107  0.4164  0.2681
 1419TIP3    H2 4222   1.378   0.916   1.658 -1.8174  2.7946 -1.4646
 1420TIP3   OH2 4223   7.100   1.559   5.370 -0.2751 -0.6114  0.1713
 1420TIP3    H1 4224   7.019   1.610   5.372 -0.6348 -1.1972  0.7215
 1420TIP3    H2 4225   7.102   1.520   5.282 -1.6206 -2.2241  0.8094
 1421TIP3   OH2 4226   7.111   2.926   1.980 -0.0599 -0.2750 -0.1902
 1421TIP3    H1 4227   7.068   2.993   2.035 -0.6402 -0.1191 -0.8203
 1421TIP3    H2 4228   7.173   2.976   1.927  0.7064 -0.4626  0.5049
 1422TIP3   OH2 4229   4.101   4.766   0.627 -0.5288  0.5810  0.3719
 1422TIP3    H1 4230   4.116   4.707   0.553 -1.7060 -0.2840  0.7987
 1422TIP3    H2 4231   4.082   4.851   0.587 -1.8409 -0.0314 -0.3668
 1423TIP3   OH2 4232   4.244   2.227   5.598  0.1386  0.3061 -0.0899
 1423TIP3    H1 4233   4.251   2.219   5.503  1.1282 -1.5574  0.0890
 1423TIP3    H2 4234   4.270   2.141   5.631 -0.5377  0.8068  1.8617
 1424TIP3   OH2 4235   3.413   0.854   1.435  0.0331 -0.5222  0.0871
 1424TIP3    H1 4236   3.457   0.769   1.431 -0.8067 -0.9400 -0.7358
 1424TIP3    H2 4237   3.406   0.873   1.528 -0.7436 -1.8858  0.3327
 1425TIP3   OH2 4238   3.615   0.143   0.513  0.3954  0.8078 -0.1202
 1425TIP3    H1 4239   3.627   0.053   0.483 -2.4625  0.1096  0.4955
 1425TIP3    H2 4240   3.685   0.157   0.576  0.6365 -1.1826  0.1180
 1426TIP3   OH2 4241   0.863   0.919   0.810  0.5311 -0.6026 -0.0414
 1426TIP3    H1 4242   0.941   0.866   0.825  0.7914 -0.0038  0.8190
 1426TIP3    H2 4243   0.854   0.971   0.889  0.1743  0.4954 -0.7763
 1427TIP3   OH2 4244   3.166   3.141   0.066 -0.0889 -0.5214 -0.0895
 1427TIP3    H1 4245   3.214   3.210   0.022 -0.8185 -1.3045 -2.2396
 1427TIP3    H2 4246   3.158   3.171   0.157  1.4096  1.1996 -0.4773
 1428TIP3   OH2 4247   2.289   6.505   2.206  0.3596  0.0655 -0.3955
 1428TIP3    H1 4248   2.269   6.524   2.114  1.5145  0.1959 -0.6355
 1428TIP3    H2 4249   2.358   6.568   2.229  0.2442 -0.1184  0.4949
 1429TIP3   OH2 4250   1.037   0.139   1.009 -0.0630  0.4959  0.3274
 1429TIP3    H1 4251   1.059   0.126   1.101  0.9593 -1.3379 -0.1062
 1429TIP3    H2 4252   1.101   0.203   0.977  1.0001 -0.4692  0.4355
 1430TIP3   OH2 4253   1.221   3.954   3.509 -0.0319 -0.3274 -0.1993
 1430TIP3    H1 4254   1.157   3.884   3.499 -0.7999  0.3512 -0.0967
 1430TIP3    H2 4255   1.276   3.926   3.582 -0.7332 -0.5229  0.2600
 1431TIP3   OH2 4256   6.139   5.438   4.383  0.5120  0.1021  0.3198
 1431TIP3    H1 4257   6.216   5.382   4.374  0.9776  0.8939 -0.8663
 1431TIP3    H2 4258   6.088   5.423   4.304 -0.0787  0.3018  0.6494
 1432TIP3   OH2 4259   3.713   5.352   2.039 -0.1435 -0.1012 -0.4037
 1432TIP3    H1 4260   3.620   5.330   2.049  0.0249 -0.8143 -0.3751
 1432TIP3    H2 4261   3.748   5.349   2.128 -0.0258 -0.1357 -0.4513
 1433TIP3   OH2 4262   0.402   2.742   3.016 -0.5650 -0.0270 -0.3576
 1433TIP3    H1 4263   0.490   2.771   3.036 -1.0157  0.8860  0.3831
 1433TIP3    H2 4264   0.412   2.651   2.988  0.4328 -0.5327  1.4493
 1434TIP3   OH2 4265   0.615   1.501   3.707 -0.4054 -0.2400  0.1151
 1434TIP3    H1 4266   0.624   1.408   3.688  1.5350  0.1292 -1.0975
 1434TIP3    H2 4267   0.697   1.525   3.749 -0.0831  1.2520 -1.2481
 1435TIP3   OH2 4268   3.876   6.726   2.405 -0.4504 -0.3008 -0.1888
 1435TIP3    H1 4269   3.822   6.661   2.361  0.8126 -0.8636 -0.9691
 1435TIP3    H2 4270   3.966   6.703   2.380  0.2246  0.0895  1.7253
 1436TIP3   OH2 4271   4.996   3.221   3.435  0.3208  0.2598  0.3788
 1436TIP3    H1 4272   5.072   3.192   3.485  1.5297  0.0032 -1.4872
 1436TIP3    H2 4273   4.950   3.141   3.412  0.4012  0.2797  0.1427
 1437TIP3   OH2 4274   1.356   1.334   0.989  0.5789  0.1861  0.4755
 1437TIP3    H1 4275   1.432   1.373   0.947 -0.9641  0.2772 -2.4865
 1437TIP3    H2 4276   1.343   1.251   0.945 -1.0119  0.1538  0.9193
 1438TIP3   OH2 4277   2.712   5.236   4.744 -0.8242  0.0459  0.4632
 1438TIP3    H1 4278   2.616   5.225   4.744 -1.0365  1.6931  0.0617
 1438TIP3    H2 4279   2.739   5.201   4.829 -1.5351 -2.0628 -0.0867
 1439TIP3   OH2 4280   2.239   3.916   5.524 -0.3030  0.3118  0.3465
 1439TIP3    H1 4281   2.283   3.928   5.608  3.3163 -0.8167 -1.1495
 1439TIP3    H2 4282   2.231   3.821   5.514 -1.5738  0.4603 -0.1701
 1440TIP3   OH2 4283   4.373   6.114   3.527 -0.1157  0.0400  0.2265
 1440TIP3    H1 4284   4.451   6.072   3.563  0.2316  0.3520 -0.1571
 1440TIP3    H2 4285   4.395   6.207   3.522 -0.6596  0.1917  0.4877
 1441TIP3   OH2 4286   4.480   0.843   2.304  0.4544 -0.4134  0.1246
 1441TIP3    H1 4287   4.403   0.900   2.300 -0.5208 -1.7651 -2.0532
 1441TIP3    H2 4288   4.452   0.770   2.359  0.5555 -0.4003  0.1930
 1442TIP3   OH2 4289   4.021   3.936   2.493 -0.2697 -0.0246 -0.0070
 1442TIP3    H1 4290   4.114   3.955   2.485  0.4048 -2.4046  1.3023
 1442TIP3    H2 4291   4.003   3.942   2.587 -1.1005 -0.9196 -0.0893
 1443TIP3   OH2 4292   5.683   5.268   0.044 -0.2137  0.0016  0.3232
 1443TIP3    H1 4293   5.779   5.267   0.046 -0.1853  1.5235  2.2778
 1443TIP3    H2 4294   5.662   5.336  -0.020  0.0472  0.6532  0.9171
 1444TIP3   OH2 4295   0.523   0.493   4.087  0.2770  0.6077  0.2127
 1444TIP3    H1 4296   0.605   0.467   4.045  0.9722  1.7779  0.7948
 1444TIP3    H2 4297   0.456   0.441   4.042  1.4195 -1.1638  0.4492
 1445TIP3   OH2 4298   0.655   3.507   4.055  0.1146  0.1009 -0.1933
 1445TIP3    H1 4299   0.701   3.475   3.977  1.1152 -1.0890  0.8517
 1445TIP3    H2 4300   0.683   3.449   4.125 -0.0950  1.6806  1.2593
 1446TIP3   OH2 4301   5.471   4.904   5.226 -0.3495 -0.3618 -0.1867
 1446TIP3    H1 4302   5.379   4.890   5.247 -0.3165 -1.4769 -0.6825
 1446TIP3    H2 4303   5.475   4.992   5.189 -1.4497 -0.7990 -1.4245
 1447TIP3   OH2 4304   6.127   1.398   5.675  0.5954 -0.3434 -0.2014
 1447TIP3    H1 4305   6.206   1.346   5.684  0.4698 -0.4481  0.3197
 1447TIP3    H2 4306   6.062   1.354   5.730  0.1402 -0.3205 -0.7047
 1448TIP3   OH2 4307   3.952   1.121   4.421 -0.0810 -0.2411  0.6018
 1448TIP3    H1 4308   4.040   1.117   4.382 -0.8057 -2.7939 -1.0364
 1448TIP3    H2 4309   3.954   1.057   4.492 -0.3741  0.3761  1.1781
 1449TIP3   OH2 4310   2.162   3.380   2.845 -0.5876  0.0447  0.4337
 1449TIP3    H1 4311   2.170   3.292   2.883  0.2636  0.9813  2.6118
 1449TIP3    H2 4312   2.069   3.402   2.853 -1.1323 -1.2240 -1.6483
 1450TIP3   OH2 4313  -0.023   6.821   2.576  0.1271 -0.0072 -0.5058
 1450TIP3    H1 4314   0.056   6.801   2.626  0.8646  2.8079 -0.4053
 1450TIP3    H2 4315  -0.028   6.751   2.511  2.5639 -0.4182 -0.3420
 1451TIP3   OH2 4316   2.007   1.229   0.774  0.6788  0.0488 -0.1392
 1451TIP3    H1 4317   2.063   1.172   0.723  0.6349 -0.6608  0.5798
 1451TIP3    H2 4318   1.986   1.302   0.715 -1.8357 -2.1702 -2.2109
 1452TIP3   OH2 4319   0.500   5.705   5.641 -0.0232 -0.2513  0.3208
 1452TIP3    H1 4320   0.460   5.729   5.724  0.0918 -0.6365  0.4897
 1452TIP3    H2 4321   0.569   5.642   5.665 -0.4459 -0.8958 -0.1268
 1453TIP3   OH2 4322   0.661   3.648   4.398  0.0136 -0.4499  0.9892
 1453TIP3    H1 4323   0.696   3.639   4.487 -0.2503 -0.5672  1.0829
 1453TIP3    H2 4324   0.688   3.568   4.354  0.8078 -0.0476  0.7300
 1454TIP3   OH2 4325   4.324   3.339   1.948  0.0247  0.1931  0.1754
 1454TIP3    H1 4326   4.339   3.386   2.030 -1.3892  0.0365  0.5481
 1454TIP3    H2 4327   4.333   3.406   1.880  0.6074  0.4449  0.4942
 1455TIP3   OH2 4328   1.850   3.292   5.791 -0.3183 -0.1705  0.3275
 1455TIP3    H1 4329   1.883   3.336   5.713  0.9351  0.4970  1.2040
 1455TIP3    H2 4330   1.756   3.283   5.776 -0.0739 -0.2254 -1.3255
 1456TIP3   OH2 4331   1.652   5.618   3.347  0.2382  0.1676  0.0495
 1456TIP3    H1 4332   1.625   5.592   3.435  0.8416  0.4532  0.3272
 1456TIP3    H2 4333   1.582   5.586   3.289 -1.0427  1.4612  0.8029
 1457TIP3   OH2 4334   5.734   4.710   5.245 -0.1182 -0.2643 -0.2266
 1457TIP3    H1 4335   5.773   4.720   5.332  0.5482 -0.5210 -0.4897
 1457TIP3    H2 4336   5.643   4.735   5.257  0.1538  0.5037  0.3749
 1458TIP3   OH2 4337   4.478   5.141   2.246 -0.2079 -0.1356  0.1354
 1458TIP3    H1 4338   4.462   5.096   2.329 -0.3453  0.8453  0.6672
 1458TIP3    H2 4339   4.572   5.130   2.230  0.0352  0.5464  0.9824
 1459TIP3   OH2 4340   4.082   6.062   5.342 -0.0091 -0.2954 -0.3644
 1459TIP3    H1 4341   4.079   6.133   5.278 -1.4214 -0.6813 -0.7664
 1459TIP3    H2 4342   3.998   6.017   5.333  0.5515 -1.5845  0.3869
 1460TIP3   OH2 4343   3.251   6.724   0.552 -0.0787  0.8634  0.0527
 1460TIP3    H1 4344   3.245   6.633   0.581 -2.6948  0.5495 -1.1341
 1460TIP3    H2 4345   3.315   6.764   0.610  0.3003 -1.4575  1.3499
 1461TIP3   OH2 4346   2.355   2.964   2.474 -0.4320 -0.3118  0.3721
 1461TIP3    H1 4347   2.446   2.939   2.459 -0.5356 -0.3761 -0.1697
 1461TIP3    H2 4348   2.340   2.946   2.567  0.5837  1.1793  0.8685
 1462TIP3   OH2 4349   0.441   1.926   3.309  0.3204 -0.1136 -0.0778
 1462TIP3    H1 4350   0.510   1.930   3.375  2.9231 -2.0392 -2.4476
 1462TIP3    H2 4351   0.476   1.976   3.235 -1.4952  0.0681 -0.8586
 1463TIP3   OH2 4352   0.201   6.506   2.860  0.2813  0.0509  0.1815
 1463TIP3    H1 4353   0.219   6.452   2.937  0.0281  0.6224  0.6422
 1463TIP3    H2 4354   0.156   6.446   2.800  0.9979 -0.5589  0.2300
 1464TIP3   OH2 4355   1.363   6.313   3.797  0.2305  0.0664 -0.2848
 1464TIP3    H1 4356   1.386   6.228   3.759  0.0883 -0.3174  0.4647
 1464TIP3    H2 4357   1.370   6.299   3.891 -2.9098 -0.0398  0.0116
 1465TIP3   OH2 4358   3.154   3.112   0.361  0.3414  0.3518  0.5286
 1465TIP3    H1 4359   3.140   3.025   0.324 -0.3652  0.8725 -0.4609
 1465TIP3    H2 4360   3.245   3.111   0.391  0.7137 -0.3195 -0.5748
 1466TIP3   OH2 4361   6.975   5.548   4.847 -0.0404 -0.3981 -0.4606
 1466TIP3    H1 4362   6.954   5.455   4.842 -0.2297 -0.3492 -0.5847
 1466TIP3    H2 4363   7.030   5.564   4.770  0.5626 -0.5532 -0.0693
 1467TIP3   OH2 4364   6.104   3.227   4.875 -0.4514 -0.1634  0.1517
 1467TIP3    H1 4365   6.050   3.298   4.838  0.5705  1.2531  1.2435
 1467TIP3    H2 4366   6.180   3.272   4.911  1.2483 -2.0618 -0.8991
 1468TIP3   OH2 4367   0.616   0.857   4.794 -0.3665 -0.6274  0.0814
 1468TIP3    H1 4368   0.707   0.878   4.815 -0.3451  1.2691 -1.6220
 1468TIP3    H2 4369   0.622   0.779   4.738  0.1930 -0.6167  0.1185
 1469TIP3   OH2 4370   5.831   2.567   3.823  0.0536 -0.2322  0.5897
 1469TIP3    H1 4371   5.903   2.522   3.779 -1.3136 -1.0031 -0.9536
 1469TIP3    H2 4372   5.873   2.639   3.871  1.8567 -0.8231 -0.0308
 1470TIP3   OH2 4373   2.962   4.042   5.653  0.1552 -0.3694 -0.2473
 1470TIP3    H1 4374   3.033   4.057   5.590 -0.6027 -0.9171 -1.2512
 1470TIP3    H2 4375   2.884   4.032   5.599 -0.6594 -0.0024  0.8336
 1471TIP3   OH2 4376   2.930   1.061   3.686  0.5551  0.7626  0.3978
 1471TIP3    H1 4377   2.904   1.070   3.594 -1.0508  0.0650  0.7395
 1471TIP3    H2 4378   2.868   1.116   3.734  0.7320  0.3309  1.1427
 1472TIP3   OH2 4379   3.025   4.352   1.443 -0.1905  0.1242 -0.3815
 1472TIP3    H1 4380   3.043   4.331   1.534  2.9371 -1.8680 -1.2957
 1472TIP3    H2 4381   2.974   4.278   1.410 -1.2879  0.8242 -0.2954
 1473TIP3   OH2 4382   5.089   2.673   4.888 -0.6929 -0.1023 -0.0824
 1473TIP3    H1 4383   5.014   2.654   4.944  0.5972 -1.6475  1.2322
 1473TIP3    H2 4384   5.086   2.768   4.875 -2.6671 -0.0913  0.1926
 1474TIP3   OH2 4385   2.662   6.120   2.430  0.8336 -0.0523  0.2662
 1474TIP3    H1 4386   2.648   6.210   2.402  1.0594 -0.0429  0.1803
 1474TIP3    H2 4387   2.727   6.085   2.368  0.8882 -0.2145  0.4130
 1475TIP3   OH2 4388   6.251   2.240   3.610 -0.0721 -0.1875  0.1605
 1475TIP3    H1 4389   6.324   2.252   3.670 -0.0758  0.8037 -0.0056
 1475TIP3    H2 4390   6.258   2.150   3.580  1.0387 -0.1223  0.2050
 1476TIP3   OH2 4391   0.429   2.726   5.078 -0.2198  0.1300 -0.3632
 1476TIP3    H1 4392   0.417   2.788   5.149  0.0227  0.1367 -0.3286
 1476TIP3    H2 4393   0.521   2.702   5.081 -0.3432 -0.3515 -0.2777
 1477TIP3   OH2 4394   3.597   0.937   5.223 -0.5929 -0.2381 -0.2642
 1477TIP3    H1 4395   3.581   1.030   5.208 -1.6171 -0.0307  1.7448
 1477TIP3    H2 4396   3.617   0.902   5.136 -1.6879  1.5636 -1.3186
 1478TIP3   OH2 4397   1.995   1.315   0.127  0.2710  0.0967 -0.1558
 1478TIP3    H1 4398   2.058   1.263   0.078  0.5505  0.2684  0.0150
 1478TIP3    H2 4399   1.916   1.315   0.074  0.2311 -0.6050 -0.0961
 1479TIP3   OH2 4400   0.023   0.648   4.499  0.1488 -0.4980  0.5384
 1479TIP3    H1 4401  -0.007   0.561   4.474 -0.1615  0.1596 -1.5134
 1479TIP3    H2 4402   0.108   0.657   4.457 -0.3371  0.6118 -0.2489
 1480TIP3   OH2 4403   2.231   6.133   4.998  0.1084 -0.4574 -0.1939
 1480TIP3    H1 4404   2.203   6.073   4.928 -0.0110 -1.7190  0.8892
 1480TIP3    H2 4405   2.288   6.196   4.954 -1.2176 -0.2300 -1.7189
 1481TIP3   OH2 4406   4.901   1.964   2.615  0.2525  0.2368  0.1646
 1481TIP3    H1 4407   4.967   1.902   2.586  0.4275  0.9160 -0.9860
 1481TIP3    H2 4408   4.934   2.000   2.697  0.5872 -0.5047  0.3551
 1482TIP3   OH2 4409   5.915   4.266   4.176  0.9803  0.0066 -0.4635
 1482TIP3    H1 4410   5.993   4.217   4.149  0.6264 -1.4322  0.9288
 1482TIP3    H2 4411   5.842   4.208   4.154  0.4567  0.4368  0.0927
 1483TIP3   OH2 4412   7.127   3.778   2.009 -0.2357  0.1321  0.1340
 1483TIP3    H1 4413   7.032   3.785   2.008 -0.2969 -0.5903 -1.1369
 1483TIP3    H2 4414   7.146   3.716   2.079 -0.5505  1.6553  1.6477
 1484TIP3   OH2 4415   2.753   3.550   3.291  0.1372 -0.3430  0.0171
 1484TIP3    H1 4416   2.766   3.645   3.297 -1.6361  0.1275 -2.1497
 1484TIP3    H2 4417   2.759   3.519   3.381  2.5913  1.5140  0.6148
 1485TIP3   OH2 4418   3.084   3.132   2.405 -0.1444  0.2958 -0.1037
 1485TIP3    H1 4419   3.090   3.197   2.335 -2.3336 -1.0685 -1.6871
 1485TIP3    H2 4420   3.086   3.184   2.486 -0.1694  2.1533 -1.2321
 1486TIP3   OH2 4421   5.711   5.235   3.568  0.2486 -0.1316  0.3876
 1486TIP3    H1 4422   5.637   5.293   3.554 -0.5561 -1.0978  0.5314
 1486TIP3    H2 4423   5.673   5.154   3.603  1.0739 -1.5051 -1.6638
 1487TIP3   OH2 4424   5.864   3.989   0.574 -0.0484 -0.2077 -0.0509
 1487TIP3    H1 4425   5.917   3.928   0.625  0.7130  1.1025  0.7934
 1487TIP3    H2 4426   5.775   3.956   0.582  0.4580 -1.7370 -0.4318
 1488TIP3   OH2 4427   2.568   4.462   5.652  0.3607 -0.1649  0.6302
 1488TIP3    H1 4428   2.640   4.428   5.599  0.0592  1.0870 -0.6650
 1488TIP3    H2 4429   2.610   4.520   5.715  0.6922 -1.4062  1.5880
 1489TIP3   OH2 4430   4.551   2.839   2.097 -0.2073 -0.8290 -0.0178
 1489TIP3    H1 4431   4.611   2.766   2.081 -1.4124 -2.2464  1.5480
 1489TIP3    H2 4432   4.473   2.798   2.136 -1.4775  1.1480 -0.3177
 1490TIP3   OH2 4433   0.280   1.028   0.180  0.4192  0.6419 -0.3733
 1490TIP3    H1 4434   0.275   0.999   0.271  0.3522 -0.1914 -0.6272
 1490TIP3    H2 4435   0.293   0.947   0.130 -4.0296  0.3689 -1.5523
 1491TIP3   OH2 4436   1.562  -0.012   5.850  0.8738 -0.0367  0.0546
 1491TIP3    H1 4437   1.591  -0.058   5.771  2.5956  0.5508  0.3021
 1491TIP3    H2 4438   1.567   0.081   5.826 -1.3431  0.1147 -0.0280
 1492TIP3   OH2 4439   4.971   5.899   3.928 -0.8651 -0.1298 -0.0566
 1492TIP3    H1 4440   5.009   5.841   3.861 -0.0830 -0.4462  0.6436
 1492TIP3    H2 4441   4.943   5.839   3.998  0.4852  0.3695  0.9354
 1493TIP3   OH2 4442   5.504   4.917   4.320 -0.0489 -0.4082 -0.0490
 1493TIP3    H1 4443   5.561   4.969   4.378 -0.2069 -1.3337  0.9709
 1493TIP3    H2 4444   5.416   4.938   4.350 -0.1462 -0.6260 -0.1863
 1494TIP3   OH2 4445   5.894   3.971   5.044 -0.2250  0.1283  0.1806
 1494TIP3    H1 4446   5.880   4.018   5.126  0.8272 -2.4198  1.9664
 1494TIP3    H2 4447   5.828   3.901   5.044 -0.4481  0.2896 -1.3708
 1495TIP3   OH2 4448   1.878   3.289   4.194  0.3586 -0.8523 -0.1606
 1495TIP3    H1 4449   1.834   3.250   4.118 -0.0041 -1.2092  0.2302
 1495TIP3    H2 4450   1.835   3.249   4.270 -1.2844  1.5893  0.3209
 1496TIP3   OH2 4451   4.439   5.319   0.683  0.0304 -0.7120 -0.4233
 1496TIP3    H1 4452   4.519   5.279   0.647 -0.8112 -0.6435 -2.4824
 1496TIP3    H2 4453   4.371   5.296   0.620 -1.1389  1.1504  0.1086
 1497TIP3   OH2 4454   3.338   3.791   3.309  0.0125  0.5161 -0.1661
 1497TIP3    H1 4455   3.261   3.734   3.302  0.1171  0.0706  1.7121
 1497TIP3    H2 4456   3.400   3.741   3.362  0.2555  2.2187  1.2250
 1498TIP3   OH2 4457   0.670   4.653   3.712  0.2964 -0.8392  0.4684
 1498TIP3    H1 4458   0.590   4.698   3.738 -0.1601 -1.6834  0.5713
 1498TIP3    H2 4459   0.661   4.639   3.618  0.3484 -0.8838  0.4698
 1499TIP3   OH2 4460   6.445   2.544   5.841  0.2638 -0.2207 -0.3372
 1499TIP3    H1 4461   6.414   2.613   5.782  1.6338 -0.8323 -1.8260
 1499TIP3    H2 4462   6.373   2.481   5.845 -0.3697  0.4907 -0.2370
 1500TIP3   OH2 4463   4.768   1.378   5.434 -0.4787  0.2006 -0.3305
 1500TIP3    H1 4464   4.734   1.289   5.425  1.5615 -0.5123 -1.6723
 1500TIP3    H2 4465   4.784   1.406   5.344  0.5439  1.2401  0.1570
 1501TIP3   OH2 4466   2.259   3.470   4.153 -0.4261  0.5575 -0.1447
 1501TIP3    H1 4467   2.355   3.466   4.156 -0.3945  0.6183 -0.9397
 1501TIP3    H2 4468   2.231   3.422   4.231  0.2435  0.2673 -0.0750
 1502TIP3   OH2 4469   3.846   5.592   1.572 -0.0726 -0.7500  0.7465
 1502TIP3    H1 4470   3.916   5.530   1.596 -0.8083 -1.3809  1.3025
 1502TIP3    H2 4471   3.765   5.549   1.598 -0.6436  0.2333  0.6658
 1503TIP3   OH2 4472   2.941   0.744   1.701 -0.4956  0.4858 -0.4095
 1503TIP3    H1 4473   2.888   0.741   1.780 -0.9141  0.8342 -0.6707
 1503TIP3    H2 4474   2.975   0.655   1.690 -0.7031  0.3602 -0.0213
 1504TIP3   OH2 4475   5.279   6.704   3.182 -0.0238  0.4679  0.2605
 1504TIP3    H1 4476   5.241   6.719   3.095  0.3844 -1.8884 -0.4065
 1504TIP3    H2 4477   5.212   6.653   3.228 -0.0304  1.2823  1.1587
 1505TIP3   OH2 4478   0.384   1.361   5.609 -0.0987  0.2549  0.0872
 1505TIP3    H1 4479   0.472   1.358   5.573 -0.2098  0.8516 -0.2464
 1505TIP3    H2 4480   0.382   1.292   5.675  0.1686 -0.7513 -0.9263
 1506TIP3   OH2 4481   0.772   3.523   1.289 -0.1814 -0.5476 -0.1711
 1506TIP3    H1 4482   0.734   3.437   1.308  0.3758 -1.0111 -1.0962
 1506TIP3    H2 4483   0.865   3.505   1.273  0.2754  0.4523  1.1909
 1507TIP3   OH2 4484   2.915   1.385   4.382  0.3412 -0.1041  0.3045
 1507TIP3    H1 4485   2.917   1.297   4.343  0.1153 -0.6990  1.5792
 1507TIP3    H2 4486   3.007   1.407   4.395  0.4420  0.3506 -1.0721
 1508TIP3   OH2 4487   5.382   5.594   1.196 -0.2851  0.6729  0.4279
 1508TIP3    H1 4488   5.444   5.594   1.123  0.3651  0.2171  0.9666
 1508TIP3    H2 4489   5.308   5.647   1.165 -0.8570 -1.0028 -1.2613
 1509TIP3   OH2 4490   4.181   1.854   3.435  0.4705  0.2488  0.1663
 1509TIP3    H1 4491   4.138   1.804   3.366  1.0932  1.1987 -0.9552
 1509TIP3    H2 4492   4.160   1.808   3.516 -1.6215  0.0013 -0.4648
 1510TIP3   OH2 4493   1.262   4.576   2.117 -0.1172  0.2300  0.0488
 1510TIP3    H1 4494   1.204   4.651   2.121 -1.3928 -0.7645  1.1563
 1510TIP3    H2 4495   1.336   4.599   2.174  0.9485  1.7454 -1.8436
 1511TIP3   OH2 4496   3.857   6.631   4.089 -0.2959  0.5953 -0.3075
 1511TIP3    H1 4497   3.877   6.583   4.169  1.6342  0.8121 -0.6095
 1511TIP3    H2 4498   3.925   6.699   4.084  1.0799 -0.7796 -3.2005
 1512TIP3   OH2 4499   3.291   6.655   1.299 -0.5857  0.8351 -0.3491
 1512TIP3    H1 4500   3.291   6.604   1.218  0.0722 -1.7324  1.1819
 1512TIP3    H2 4501   3.379   6.693   1.303 -0.6288  1.0007 -0.8116
 1513TIP3   OH2 4502   6.084   5.607   5.437  0.1051  0.2308  0.2464
 1513TIP3    H1 4503   6.029   5.541   5.480 -1.1832  0.2720 -1.2385
 1513TIP3    H2 4504   6.063   5.689   5.483 -0.7198  0.1558  0.0190
 1514TIP3   OH2 4505   3.681   6.324   0.585 -0.1008 -0.4447 -0.3713
 1514TIP3    H1 4506   3.674   6.297   0.676 -0.2877  0.1798 -0.1981
 1514TIP3    H2 4507   3.733   6.255   0.543  1.8165  0.3112  0.6692
 1515TIP3   OH2 4508   3.793   2.786   1.148  0.1560  0.4252  0.0536
 1515TIP3    H1 4509   3.711   2.784   1.196  0.5264 -1.2084  0.6622
 1515TIP3    H2 4510   3.769   2.768   1.057  0.0113 -2.2444  0.5526
 1516TIP3   OH2 4511   5.550   6.330   2.122 -0.1789  0.4155 -0.0397
 1516TIP3    H1 4512   5.504   6.274   2.060  1.3751 -2.0629  0.8760
 1516TIP3    H2 4513   5.552   6.416   2.081 -1.2189 -0.5878 -2.3320
 1517TIP3   OH2 4514   5.306   2.405   5.053  0.4392 -0.2829  0.1476
 1517TIP3    H1 4515   5.383   2.349   5.049  0.8706  0.3452 -0.5782
 1517TIP3    H2 4516   5.233   2.345   5.035  0.8560 -0.6964 -0.2100
 1518TIP3   OH2 4517   0.930   1.592   2.851  1.4031 -0.3929 -0.5103
 1518TIP3    H1 4518   0.980   1.519   2.888  2.4435 -0.6696 -2.3351
 1518TIP3    H2 4519   0.887   1.555   2.774  0.6441  0.5505 -0.5630
 1519TIP3   OH2 4520   0.537   6.772   2.838 -0.0828 -0.1694 -0.2954
 1519TIP3    H1 4521   0.606   6.832   2.811  0.4973 -0.8493 -0.3555
 1519TIP3    H2 4522   0.536   6.704   2.770 -1.0939  0.0571 -0.5158
 1520TIP3   OH2 4523   0.612   5.160   4.667 -0.3039  0.6147  0.3643
 1520TIP3    H1 4524   0.532   5.190   4.624 -0.1757  1.2562  0.5673
 1520TIP3    H2 4525   0.645   5.237   4.713  1.2080  0.7461 -0.8642
 1521TIP3   OH2 4526   6.492   0.496   5.798 -0.6438 -0.6407 -0.3760
 1521TIP3    H1 4527   6.434   0.513   5.724  0.6407 -0.6840 -1.4287
 1521TIP3    H2 4528   6.474   0.406   5.823 -0.9556 -0.6883 -0.7665
 1522TIP3   OH2 4529   3.092   1.899   2.776 -0.1699 -0.1436 -0.4779
 1522TIP3    H1 4530   3.152   1.916   2.849 -1.6934  0.6428  0.6475
 1522TIP3    H2 4531   3.108   1.808   2.752  0.4051 -0.4013  0.8085
 1523TIP3   OH2 4532   7.158   6.651   3.652  0.1619  0.0962 -0.4604
 1523TIP3    H1 4533   7.226   6.699   3.605  0.8619 -0.1143  0.3159
 1523TIP3    H2 4534   7.150   6.697   3.736 -0.2429 -0.2353 -0.3157
 1524TIP3   OH2 4535   4.976   5.274   4.792 -0.1808 -0.3372 -0.2219
 1524TIP3    H1 4536   5.007   5.255   4.703 -0.2104  0.1412 -0.3339
 1524TIP3    H2 4537   4.881   5.263   4.787 -0.0909 -1.3001 -0.0016
 1525TIP3   OH2 4538   3.803   2.927   0.172  0.8993 -0.2509 -0.3386
 1525TIP3    H1 4539   3.833   3.018   0.168 -0.6842  0.2979 -0.4813
 1525TIP3    H2 4540   3.809   2.896   0.082  0.5117  0.0371 -0.4660
 1526TIP3   OH2 4541   6.183   2.110   1.943 -0.2375 -0.0596  0.1822
 1526TIP3    H1 4542   6.126   2.143   1.874 -0.0916  1.5063  0.7659
 1526TIP3    H2 4543   6.143   2.028   1.970 -0.8011 -0.2448 -1.1253
 1527TIP3   OH2 4544   4.010   1.807   3.189  0.1399 -0.6659  0.1220
 1527TIP3    H1 4545   4.011   1.747   3.114 -0.8121 -0.4710 -0.0586
 1527TIP3    H2 4546   3.947   1.769   3.250 -1.1032  0.5395 -0.3478
 1528TIP3   OH2 4547   6.069   3.289   5.207 -0.4445 -0.2901 -0.1192
 1528TIP3    H1 4548   6.088   3.262   5.297 -1.6796 -1.1808 -0.0954
 1528TIP3    H2 4549   6.154   3.295   5.165  0.2433  1.0725  1.3473
 1529TIP3   OH2 4550   3.219   0.894   5.242 -0.3777 -0.2593  0.0599
 1529TIP3    H1 4551   3.140   0.914   5.193  0.1010 -2.0104 -1.5782
 1529TIP3    H2 4552   3.291   0.917   5.183  0.3532  0.8038  1.3075
 1530TIP3   OH2 4553   1.707   1.537   5.140  0.2833  0.8591  0.3061
 1530TIP3    H1 4554   1.670   1.489   5.066 -1.4191  3.5479 -0.7286
 1530TIP3    H2 4555   1.798   1.551   5.116  0.1490  0.3814 -0.5422
 1531TIP3   OH2 4556   2.774   0.490   3.770 -0.1785  0.0617  0.0413
 1531TIP3    H1 4557   2.856   0.467   3.813 -0.0833  0.2910 -0.0132
 1531TIP3    H2 4558   2.799   0.559   3.708 -0.2896 -0.3808 -0.4920
 1532TIP3   OH2 4559   4.351   1.670   2.922 -0.3182 -0.0950 -0.0712
 1532TIP3    H1 4560   4.441   1.696   2.900 -0.9674  0.2383 -2.6678
 1532TIP3    H2 4561   4.352   1.658   3.017  2.0029  1.7212  0.2247
 1533TIP3   OH2 4562   6.286   4.506   1.651 -0.1185 -0.2572  0.4525
 1533TIP3    H1 4563   6.286   4.526   1.558 -1.4517  2.2953  0.9200
 1533TIP3    H2 4564   6.193   4.501   1.675  0.1954  0.1537  1.8350
 1534TIP3   OH2 4565   5.994   5.896   1.100 -0.1962 -0.6605  0.0563
 1534TIP3    H1 4566   6.026   5.884   1.190  0.7547  1.4832  0.0572
 1534TIP3    H2 4567   6.053   5.843   1.047  1.9858  1.3234  0.3285
 1535TIP3   OH2 4568   0.726   3.574   5.578 -0.8290 -0.0728 -0.4166
 1535TIP3    H1 4569   0.717   3.522   5.658 -1.0064 -0.6165 -0.7796
 1535TIP3    H2 4570   0.750   3.661   5.608  1.0242 -0.7340  0.1270
 1536TIP3   OH2 4571   5.148   1.053   0.393 -0.1312  0.3662 -0.1098
 1536TIP3    H1 4572   5.210   1.047   0.466 -0.0640  0.8399 -0.1256
 1536TIP3    H2 4573   5.178   1.129   0.343  0.2028 -0.3286 -0.9849
 1537TIP3   OH2 4574   5.222   0.959   4.876 -0.0432  0.1031 -0.1551
 1537TIP3    H1 4575   5.267   1.036   4.913 -1.6023  0.7356  0.4978
 1537TIP3    H2 4576   5.211   0.900   4.950 -1.3921  0.5099 -0.0052
 1538TIP3   OH2 4577   7.011   5.458   2.405  0.2179 -0.4506  0.2313
 1538TIP3    H1 4578   7.015   5.488   2.496 -0.6027 -1.2458  0.5442
 1538TIP3    H2 4579   6.979   5.368   2.411 -1.8051  0.1294 -0.9612
 1539TIP3   OH2 4580   1.472   6.273   0.631  0.3035  0.3960  0.4702
 1539TIP3    H1 4581   1.411   6.342   0.657 -0.9834 -0.4779 -0.1095
 1539TIP3    H2 4582   1.511   6.243   0.713 -0.3152  0.7280  0.8948
 1540TIP3   OH2 4583   6.505   0.428   0.132 -0.0993 -0.2011  0.1421
 1540TIP3    H1 4584   6.553   0.423   0.215 -0.6306 -0.3022  0.4505
 1540TIP3    H2 4585   6.524   0.515   0.098 -1.7936  0.7828  1.5641
 1541TIP3   OH2 4586   3.957   2.538   3.355 -0.0717 -0.2543  0.5174
 1541TIP3    H1 4587   3.877   2.589   3.369 -0.9782 -1.5646  0.2968
 1541TIP3    H2 4588   3.929   2.447   3.361  1.1931 -0.7670 -0.6594
 1542TIP3   OH2 4589   1.622   3.447   4.599 -0.0765 -0.0718  0.1295
 1542TIP3    H1 4590   1.677   3.459   4.521  1.4141 -0.2932  1.1103
 1542TIP3    H2 4591   1.561   3.521   4.597  1.1351  0.9418 -0.2850
 1543TIP3   OH2 4592   1.556   0.964   4.443  0.5781 -0.4511 -0.3764
 1543TIP3    H1 4593   1.542   0.905   4.369  0.2916 -1.8445  0.7396
 1543TIP3    H2 4594   1.525   1.049   4.412 -1.5112 -1.4418 -1.1663
 1544TIP3   OH2 4595   3.411   2.797   2.302  0.3852  0.0229  0.4382
 1544TIP3    H1 4596   3.344   2.807   2.234 -0.6734 -0.7262  1.3369
 1544TIP3    H2 4597   3.393   2.868   2.364  1.0605  0.4258  0.1856
 1545TIP3   OH2 4598   3.727   1.362   1.976 -0.5299  0.0547  0.5634
 1545TIP3    H1 4599   3.792   1.329   1.914 -0.4141 -0.6798  1.0663
 1545TIP3    H2 4600   3.729   1.457   1.964 -0.4072 -0.0607 -0.4491
 1546TIP3   OH2 4601   3.763   0.340   1.210  0.1992 -0.1546 -0.1500
 1546TIP3    H1 4602   3.772   0.364   1.118  0.8837 -1.2688 -0.4008
 1546TIP3    H2 4603   3.850   0.354   1.248 -0.1887  0.7135  0.4391
 1547TIP3   OH2 4604   0.380   0.105   0.659  0.7387  0.2863  0.1305
 1547TIP3    H1 4605   0.375   0.200   0.646 -0.7539  0.3243  0.7113
 1547TIP3    H2 4606   0.312   0.070   0.602  2.3762 -0.6241 -1.3568
 1548TIP3   OH2 4607   3.857   1.274   5.365  0.1787 -0.4150  0.4445
 1548TIP3    H1 4608   3.845   1.292   5.272  3.5077 -0.3503 -0.1054
 1548TIP3    H2 4609   3.788   1.324   5.408 -0.2754  1.1425 -1.8773
 1549TIP3   OH2 4610   1.401   5.380   4.788 -0.2365 -0.1438  0.1866
 1549TIP3    H1 4611   1.485   5.345   4.759 -0.4191 -1.6026  1.2727
 1549TIP3    H2 4612   1.410   5.388   4.883 -1.5660 -1.1138  0.4264
 1550TIP3   OH2 4613   5.446   0.772   4.951 -0.1089  0.0669 -0.2233
 1550TIP3    H1 4614   5.416   0.812   5.032 -1.4364  1.1555 -1.2013
 1550TIP3    H2 4615   5.480   0.844   4.899 -2.3148 -0.0072 -1.9241
 1551TIP3   OH2 4616   2.738   2.305   0.030  0.0641  1.0775 -0.4474
 1551TIP3    H1 4617   2.647   2.308   0.061  0.2462 -0.2205  0.3217
 1551TIP3    H2 4618   2.736   2.243  -0.043  0.8107 -1.6937  1.6912
 1552TIP3   OH2 4619   4.399   3.825   4.805  0.3412  0.1511 -0.3270
 1552TIP3    H1 4620   4.448   3.857   4.730  0.6082  2.3335  0.7043
 1552TIP3    H2 4621   4.464   3.818   4.875 -0.1948 -0.2426  0.1419
 1553TIP3   OH2 4622   5.765   1.368   2.932 -0.1034  0.1540 -0.5556
 1553TIP3    H1 4623   5.678   1.327   2.923 -0.8578  1.5774  0.0352
 1553TIP3    H2 4624   5.790   1.352   3.023  0.0253  0.2001 -0.5833
 1554TIP3   OH2 4625   6.577   4.656   4.392  0.2243  0.0701  0.3833
 1554TIP3    H1 4626   6.579   4.702   4.308 -0.5291  0.4866  0.5773
 1554TIP3    H2 4627   6.559   4.725   4.456 -0.6827 -0.4600  0.7144
 1555TIP3   OH2 4628   6.572   2.847   5.070 -0.0729 -0.0433  0.5283
 1555TIP3    H1 4629   6.550   2.851   5.163 -1.2707  0.4392  0.2532
 1555TIP3    H2 4630   6.656   2.801   5.066  0.1442  0.2181  1.8618
 1556TIP3   OH2 4631   2.908   4.823   0.805 -0.4037  0.2153 -0.0458
 1556TIP3    H1 4632   2.898   4.737   0.845 -0.4950  0.0153 -0.4900
 1556TIP3    H2 4633   2.938   4.805   0.716 -3.3828  0.4544 -1.2135
 1557TIP3   OH2 4634   4.257   5.195   3.251 -0.2113 -0.4862 -0.5124
 1557TIP3    H1 4635   4.251   5.273   3.197  0.0960 -0.0415  0.0772
 1557TIP3    H2 4636   4.183   5.141   3.225  0.1121 -0.4296 -1.5939
 1558TIP3   OH2 4637   1.750   5.461   5.508  0.8156  0.1805 -0.3668
 1558TIP3    H1 4638   1.682   5.460   5.575  0.3392  0.7316 -0.8188
 1558TIP3    H2 4639   1.796   5.378   5.518  0.2477 -0.0806  0.1272
 1559TIP3   OH2 4640   2.964   1.887   1.077 -0.0744 -0.0538 -0.0412
 1559TIP3    H1 4641   2.977   1.979   1.054 -0.8439 -0.1386 -0.9026
 1559TIP3    H2 4642   2.910   1.889   1.156 -1.8468  0.2776 -1.1812
 1560TIP3   OH2 4643   0.415   4.386   3.576 -0.8048  0.0291 -0.2104
 1560TIP3    H1 4644   0.501   4.344   3.572 -0.7150  0.0735  0.8825
 1560TIP3    H2 4645   0.418   4.453   3.508 -0.9338 -1.6480 -1.9370
 1561TIP3   OH2 4646   3.770   3.490   3.553 -0.0509  0.4920 -0.1637
 1561TIP3    H1 4647   3.714   3.564   3.578  0.3387  1.4886 -1.9701
 1561TIP3    H2 4648   3.710   3.418   3.539 -0.8992  1.4241 -1.6214
 1562TIP3   OH2 4649   6.987   6.608   3.281 -0.6300  0.0407 -0.6338
 1562TIP3    H1 4650   7.043   6.681   3.255 -2.2717  1.1207 -1.2499
 1562TIP3    H2 4651   6.981   6.554   3.202  0.9363 -1.0737 -0.0596
 1563TIP3   OH2 4652   3.080   2.701   4.931 -0.0889  0.5003 -0.2685
 1563TIP3    H1 4653   3.101   2.794   4.942 -1.4039  0.9393 -1.2269
 1563TIP3    H2 4654   3.051   2.693   4.840 -1.2997 -0.5667  0.1809
 1564TIP3   OH2 4655   5.212   2.102   3.996 -0.0727 -0.1358 -0.4439
 1564TIP3    H1 4656   5.275   2.057   4.052  0.0311 -1.8321 -1.8514
 1564TIP3    H2 4657   5.232   2.072   3.908 -2.3292 -0.1099 -1.0242
 1565TIP3   OH2 4658   3.200   4.701   0.512  0.5881 -0.1463  0.2469
 1565TIP3    H1 4659   3.266   4.718   0.445  1.0418 -1.9312  0.2127
 1565TIP3    H2 4660   3.131   4.766   0.495  1.6340  0.7693 -0.6309
 1566TIP3   OH2 4661   6.197   1.877   3.155  0.1371 -0.0597  0.1333
 1566TIP3    H1 4662   6.253   1.824   3.097  2.2762 -1.7533  3.4076
 1566TIP3    H2 4663   6.110   1.840   3.143  0.4942 -0.4315 -1.8231
 1567TIP3   OH2 4664   5.634   3.324   0.267 -0.5682  0.1204  1.0820
 1567TIP3    H1 4665   5.726   3.331   0.244 -0.4230 -2.2347  0.7136
 1567TIP3    H2 4666   5.604   3.414   0.272  1.3910  0.9191 -0.2462
 1568TIP3   OH2 4667   4.593   2.482   3.746  0.1359 -0.0767 -0.2952
 1568TIP3    H1 4668   4.618   2.416   3.811  1.6856 -0.4516 -1.2312
 1568TIP3    H2 4669   4.498   2.472   3.738  0.1281 -1.1029  0.7301
 1569TIP3   OH2 4670   2.306   4.444   5.802 -0.4255  0.3490 -0.5780
 1569TIP3    H1 4671   2.395   4.437   5.769  0.3657  0.5895  1.3642
 1569TIP3    H2 4672   2.266   4.359   5.783  1.1953 -0.8807  1.1499
 1570TIP3   OH2 4673   6.918   3.511   1.964  0.0067  0.4397 -0.4874
 1570TIP3    H1 4674   6.909   3.426   1.922  1.1939 -0.2547  0.5633
 1570TIP3    H2 4675   6.966   3.565   1.901 -0.0456  0.0778 -0.8371
 1571TIP3   OH2 4676   1.172   2.811   0.263  0.1546 -0.3221  0.1311
 1571TIP3    H1 4677   1.109   2.836   0.331 -1.3358  1.0062 -1.6416
 1571TIP3    H2 4678   1.219   2.893   0.244  1.3831 -0.9543  0.3471
 1572TIP3   OH2 4679   2.622   6.101   5.401 -0.3812  0.3513 -0.1257
 1572TIP3    H1 4680   2.545   6.086   5.457 -1.0036  1.2897 -0.6986
 1572TIP3    H2 4681   2.620   6.029   5.338 -1.6092  1.1082 -0.9942
 1573TIP3   OH2 4682   7.069   3.988   4.310 -0.2660 -0.1304  0.1804
 1573TIP3    H1 4683   6.996   3.927   4.319 -0.4764  0.3011  1.7478
 1573TIP3    H2 4684   7.111   3.987   4.396  1.7365 -0.5382 -0.7647
 1574TIP3   OH2 4685   5.941   0.099   4.752  0.4574 -0.4971 -0.0281
 1574TIP3    H1 4686   5.982   0.156   4.687 -0.8505 -0.1752 -0.6002
 1574TIP3    H2 4687   5.999   0.103   4.828  0.5246  1.4374 -0.1357
 1575TIP3   OH2 4688   2.152   5.199   2.677 -0.0425 -0.0186 -0.0863
 1575TIP3    H1 4689   2.109   5.114   2.668  0.1577 -0.1083 -0.2149
 1575TIP3    H2 4690   2.104   5.243   2.747  1.6066 -1.3475  2.0054
 1576TIP3   OH2 4691   6.826   6.307   1.745  0.8552 -0.1131 -0.5274
 1576TIP3    H1 4692   6.918   6.325   1.727  0.5391  1.4582 -0.6784
 1576TIP3    H2 4693   6.808   6.226   1.697  2.0770 -0.2801 -0.7336
 1577TIP3   OH2 4694   4.561   6.527   4.241 -0.1160 -0.0190  0.2326
 1577TIP3    H1 4695   4.644   6.488   4.269 -0.7659 -0.8619  1.0661
 1577TIP3    H2 4696   4.582   6.575   4.161  1.1803 -0.1750  0.4632
 1578TIP3   OH2 4697   1.107   2.787   3.063 -0.0558 -0.3288  0.2527
 1578TIP3    H1 4698   1.066   2.817   3.144 -0.0055  3.1154 -0.8405
 1578TIP3    H2 4699   1.036   2.787   2.998  0.2031 -1.6079 -0.0507
 1579TIP3   OH2 4700   5.565   2.219   2.817 -0.7873 -0.2448 -0.1921
 1579TIP3    H1 4701   5.607   2.295   2.858 -1.6988  0.9335 -1.3325
 1579TIP3    H2 4702   5.624   2.146   2.836  2.4392  1.4451 -2.5530
 1580TIP3   OH2 4703   4.639   5.238   0.088 -0.0805 -0.1570 -0.2364
 1580TIP3    H1 4704   4.593   5.156   0.071 -1.2775  0.1221  1.4211
 1580TIP3    H2 4705   4.732   5.214   0.086 -0.3483 -1.2293 -1.2036
 1581TIP3   OH2 4706   6.064   1.075   4.699 -0.2087  0.4915  0.1236
 1581TIP3    H1 4707   6.046   1.162   4.662  0.6956  0.5099 -0.3164
 1581TIP3    H2 4708   6.151   1.084   4.739  0.1919 -0.3682 -0.5083
 1582TIP3   OH2 4709   4.058   3.515   5.305 -0.0905 -0.3250  0.3455
 1582TIP3    H1 4710   4.065   3.600   5.349 -0.6398 -0.2099  0.2164
 1582TIP3    H2 4711   4.071   3.536   5.212  1.3590 -0.6056  0.4620
 1583TIP3   OH2 4712   6.940   3.738   0.561 -0.0065  0.0168 -0.0077
 1583TIP3    H1 4713   7.033   3.749   0.582  0.2990 -1.0657 -0.7217
 1583TIP3    H2 4714   6.912   3.666   0.618  0.2371 -1.3323 -1.5134
 1584TIP3   OH2 4715   0.714   4.397   3.824  0.1180 -0.3543  0.1722
 1584TIP3    H1 4716   0.733   4.460   3.754  1.0651 -0.0722  0.6713
 1584TIP3    H2 4717   0.675   4.449   3.894  1.0890 -0.2776  0.6661
 1585TIP3   OH2 4718   3.049   6.045   3.616  0.6776 -0.3903  0.2480
 1585TIP3    H1 4719   3.063   6.058   3.710  1.8098 -0.9680  0.1713
 1585TIP3    H2 4720   3.052   5.950   3.604  0.9268 -0.3046 -0.4197
 1586TIP3   OH2 4721   1.401   4.723   4.850  0.2006  0.0252 -0.2528
 1586TIP3    H1 4722   1.381   4.630   4.850  0.2158  0.0196  0.0778
 1586TIP3    H2 4723   1.415   4.745   4.943  1.3625  0.1051 -0.4226
 1587TIP3   OH2 4724   4.518   2.316   4.954  0.0410 -0.1521 -0.5838
 1587TIP3    H1 4725   4.557   2.359   4.878  3.5195  1.1707  1.7027
 1587TIP3    H2 4726   4.496   2.388   5.014 -1.1142 -1.2321  0.3522
 1588TIP3   OH2 4727   1.048   5.922   4.042 -0.1589  0.1748 -0.1781
 1588TIP3    H1 4728   1.101   5.933   4.121  0.3406  2.3107 -0.7525
 1588TIP3    H2 4729   1.110   5.893   3.975 -0.5160 -1.2694  0.0677
 1589TIP3   OH2 4730   7.057   3.290   0.387 -0.1938  0.0630 -0.4687
 1589TIP3    H1 4731   7.024   3.205   0.358  0.6339 -0.0404 -1.1262
 1589TIP3    H2 4732   6.979   3.345   0.391 -0.6050 -0.4624 -0.9840
 1590TIP3   OH2 4733   5.476   1.504   2.604  0.5315 -0.1421  0.1183
 1590TIP3    H1 4734   5.519   1.536   2.683  2.6553 -2.3397 -0.0322
 1590TIP3    H2 4735   5.497   1.410   2.601  1.4286  0.0162 -3.5593
 1591TIP3   OH2 4736   1.867   1.255   5.108  0.0332 -0.0275  0.4275
 1591TIP3    H1 4737   1.959   1.281   5.117  0.8732 -2.6228  0.1703
 1591TIP3    H2 4738   1.826   1.283   5.190  1.0515  1.1310  0.5688
 1592TIP3   OH2 4739   5.607   1.667   4.838 -0.2866  0.2047 -0.3843
 1592TIP3    H1 4740   5.581   1.612   4.764  0.1634  0.4825 -0.7553
 1592TIP3    H2 4741   5.638   1.748   4.798  1.7958 -0.3489 -0.0455
 1593TIP3   OH2 4742   1.145   3.265   0.598  0.1976 -0.2647  0.3587
 1593TIP3    H1 4743   1.155   3.248   0.505  0.9392 -1.2594  0.6005
 1593TIP3    H2 4744   1.137   3.360   0.605  1.9934 -0.0166 -0.5655
 1594TIP3   OH2 4745   1.792   1.213   1.916 -0.0131  0.4938 -0.1765
 1594TIP3    H1 4746   1.828   1.289   1.869  2.4436 -0.7887 -0.5688
 1594TIP3    H2 4747   1.746   1.163   1.849 -2.7060  2.1092  0.3112
 1595TIP3   OH2 4748   4.786   4.728   5.569 -0.3845  0.2308 -0.5316
 1595TIP3    H1 4749   4.751   4.651   5.523  1.4602 -0.8795 -0.1736
 1595TIP3    H2 4750   4.719   4.748   5.635 -1.3580 -0.4403 -1.2678
 1596TIP3   OH2 4751   2.007   0.610   2.708 -0.2363  0.3287 -0.5535
 1596TIP3    H1 4752   1.973   0.629   2.620  0.1821  0.4676 -0.6885
 1596TIP3    H2 4753   2.001   0.514   2.716 -1.5871  0.4233 -0.1856
 1597TIP3   OH2 4754   4.945   6.170   3.678  0.4895  0.1914 -0.2742
 1597TIP3    H1 4755   5.024   6.126   3.645  1.3961  1.1374  0.5622
 1597TIP3    H2 4756   4.952   6.260   3.644 -0.4850  0.1587 -0.5860
 1598TIP3   OH2 4757   2.102   3.464   3.890 -0.5018  0.2968  0.1743
 1598TIP3    H1 4758   2.172   3.465   3.956 -0.5533 -2.2065  0.3557
 1598TIP3    H2 4759   2.104   3.552   3.852  1.6892  0.7987  1.2760
 1599TIP3   OH2 4760   6.887   4.982   1.215 -0.6726  0.0023  0.1416
 1599TIP3    H1 4761   6.820   5.011   1.276 -0.9375 -1.7507  0.7303
 1599TIP3    H2 4762   6.967   5.025   1.245 -1.1254  0.4569  0.7171
 1600TIP3   OH2 4763   6.350   3.413   4.262 -0.2212  0.3086 -0.3696
 1600TIP3    H1 4764   6.262   3.409   4.226  0.0480  0.3778 -1.0441
 1600TIP3    H2 4765   6.385   3.497   4.234  0.5412 -0.2845 -1.2651
 1601TIP3   OH2 4766   0.217   6.735   2.676 -0.6469  0.4191 -0.2084
 1601TIP3    H1 4767   0.231   6.686   2.594  0.4263  0.7719 -0.2536
 1601TIP3    H2 4768   0.201   6.667   2.742 -2.5547  0.1680 -0.8753
 1602TIP3   OH2 4769   3.725   4.220   2.541  0.0358  0.7242  0.1621
 1602TIP3    H1 4770   3.787   4.228   2.614  1.6915  0.1663 -1.1138
 1602TIP3    H2 4771   3.639   4.227   2.581  0.8883  0.1222  2.2140
 1603TIP3   OH2 4772   5.225   0.570   2.484  0.1929 -0.1848 -0.4817
 1603TIP3    H1 4773   5.183   0.557   2.399 -1.4340  0.3697  0.1898
 1603TIP3    H2 4774   5.288   0.641   2.469  0.5234 -0.6634 -1.4033
 1604TIP3   OH2 4775   6.107   4.479   5.576 -0.0157 -0.2648  0.0777
 1604TIP3    H1 4776   6.020   4.517   5.592  0.0126  1.1656 -2.4837
 1604TIP3    H2 4777   6.134   4.517   5.492  3.1475 -0.6083  0.8163
 1605TIP3   OH2 4778   3.623   4.829   2.134  0.2982 -0.1634 -0.1328
 1605TIP3    H1 4779   3.658   4.878   2.060 -0.7761  0.0226 -0.5305
 1605TIP3    H2 4780   3.701   4.794   2.178  0.9940  0.4902 -0.8076
 1606TIP3   OH2 4781   6.184   3.542   2.813  0.3849  0.0172  0.0722
 1606TIP3    H1 4782   6.154   3.455   2.787  0.4001 -0.3362  1.1836
 1606TIP3    H2 4783   6.268   3.553   2.768  0.4003 -0.5523 -0.0466
 1607TIP3   OH2 4784   5.613   1.777   1.448  0.2141 -0.1554 -0.1473
 1607TIP3    H1 4785   5.664   1.858   1.458  0.4461  0.0337 -2.4106
 1607TIP3    H2 4786   5.535   1.802   1.399  0.3919 -1.3123 -1.0834
 1608TIP3   OH2 4787   2.197   1.529   0.198  0.2792  0.2271 -0.0835
 1608TIP3    H1 4788   2.143   1.470   0.144  0.0068 -1.5863  2.0148
 1608TIP3    H2 4789   2.133   1.578   0.250  0.5731  1.0051 -0.4445
 1609TIP3   OH2 4790   1.182   5.735   4.905 -0.3774  0.4222  0.3456
 1609TIP3    H1 4791   1.160   5.645   4.881  0.0408  0.6450 -0.9327
 1609TIP3    H2 4792   1.101   5.771   4.942 -1.3103  0.2991 -1.4790
 1610TIP3   OH2 4793   5.383   4.196   5.737 -0.3059 -0.3257  0.1152
 1610TIP3    H1 4794   5.342   4.254   5.673  0.6690 -0.9714 -1.1459
 1610TIP3    H2 4795   5.363   4.108   5.705 -0.5243 -0.6732  1.1832
 1611TIP3   OH2 4796   2.366   6.356   3.213  0.1960 -0.2248  0.0952
 1611TIP3    H1 4797   2.354   6.355   3.308  0.3309 -0.5210  0.1121
 1611TIP3    H2 4798   2.288   6.311   3.179  0.8298 -1.4045  0.1551
 1612TIP3   OH2 4799   3.409   3.161   2.717 -0.1745 -0.2150  0.4045
 1612TIP3    H1 4800   3.320   3.188   2.741  0.2899  1.1030  0.7429
 1612TIP3    H2 4801   3.414   3.178   2.623 -1.1103 -2.8202 -0.1977
 1613TIP3   OH2 4802   5.536   0.700   0.964 -0.2770 -0.2096  0.3212
 1613TIP3    H1 4803   5.531   0.786   0.923 -1.6301  0.2971  1.4788
 1613TIP3    H2 4804   5.546   0.639   0.891  0.0905  0.8587 -0.5520
 1614TIP3   OH2 4805   0.670   1.976   4.018 -0.6526  0.7403 -0.1651
 1614TIP3    H1 4806   0.602   1.918   3.985  0.2602 -0.5377  0.1097
 1614TIP3    H2 4807   0.683   1.947   4.109  0.2992  0.9143 -0.2411
 1615TIP3   OH2 4808   6.159   2.231   2.625 -0.2084  0.2409 -0.0621
 1615TIP3    H1 4809   6.066   2.207   2.627 -0.4399  0.7916 -1.8728
 1615TIP3    H2 4810   6.204   2.153   2.657 -1.2442 -0.4165 -0.1490
 1616TIP3   OH2 4811   5.961   1.452   2.653  0.0733  0.2534  0.3850
 1616TIP3    H1 4812   6.040   1.484   2.609  0.2584  1.3452  1.4722
 1616TIP3    H2 4813   5.888   1.483   2.599  0.3248  0.7367  0.3252
 1617TIP3   OH2 4814   0.300   0.941   0.432 -0.2888  0.1875  0.4792
 1617TIP3    H1 4815   0.235   0.880   0.468 -0.8656  1.0970  1.0099
 1617TIP3    H2 4816   0.316   1.004   0.502  0.6261  0.4094  0.0925
 1618TIP3   OH2 4817   1.695   3.409   0.093  0.0803  0.1295  0.6592
 1618TIP3    H1 4818   1.775   3.428   0.044 -0.9031  1.2241 -0.6097
 1618TIP3    H2 4819   1.720   3.415   0.185  1.7391 -0.8930  0.3061
 1619TIP3   OH2 4820   5.490   2.246   5.440  0.1865  0.0991  0.3612
 1619TIP3    H1 4821   5.561   2.183   5.432 -1.1307 -1.3712 -0.3070
 1619TIP3    H2 4822   5.521   2.324   5.394  1.6298 -0.2564  0.7091
 1620TIP3   OH2 4823   4.335   2.385   0.921  0.2017 -0.0430  0.3070
 1620TIP3    H1 4824   4.308   2.407   0.832 -0.6767  1.4967  0.9035
 1620TIP3    H2 4825   4.252   2.374   0.969  0.6179  1.2357  1.3852
 1621TIP3   OH2 4826   6.353   4.392   0.682  0.1336 -0.3786  0.3528
 1621TIP3    H1 4827   6.346   4.298   0.696  1.5337 -0.4651  0.5657
 1621TIP3    H2 4828   6.397   4.425   0.761 -0.5550  0.4929  0.3937
 1622TIP3   OH2 4829   2.359   6.651   1.965  0.2248  0.1558 -0.1493
 1622TIP3    H1 4830   2.440   6.602   1.956  0.1797 -0.4372  2.0891
 1622TIP3    H2 4831   2.367   6.722   1.901  2.1802 -0.2822 -0.4588
 1623TIP3   OH2 4832   1.046   4.357   4.487 -0.2671  0.0707 -0.1423
 1623TIP3    H1 4833   1.010   4.270   4.471 -0.1339  0.1130 -0.6931
 1623TIP3    H2 4834   0.997   4.390   4.563 -2.0050  0.4495 -1.3690
 1624TIP3   OH2 4835   3.350   3.114   4.905  0.2338 -0.3615  0.0457
 1624TIP3    H1 4836   3.289   3.185   4.922 -0.4056 -1.0840  0.8729
 1624TIP3    H2 4837   3.386   3.092   4.991  0.3388 -1.1075 -0.1811
 1625TIP3   OH2 4838   4.294   5.498   0.344 -0.1661  0.3429  0.4357
 1625TIP3    H1 4839   4.377   5.509   0.298  0.0289 -1.7801  0.1475
 1625TIP3    H2 4840   4.311   5.427   0.406 -2.1084 -1.1841 -0.6647
 1626TIP3   OH2 4841   5.091   2.818   1.084  0.1471 -0.5469  0.1630
 1626TIP3    H1 4842   5.043   2.764   1.145 -2.0954 -0.3148 -1.2723
 1626TIP3    H2 4843   5.089   2.906   1.123 -0.2623 -0.6211  0.3172
 1627TIP3   OH2 4844   7.072   4.183   0.931 -0.2694 -0.1199  0.0068
 1627TIP3    H1 4845   7.061   4.276   0.947  0.0398 -0.2810  1.2646
 1627TIP3    H2 4846   7.081   4.176   0.836  0.2142  1.1805 -0.0668
 1628TIP3   OH2 4847   2.893   5.195   3.548 -0.0563 -0.1814 -0.3442
 1628TIP3    H1 4848   2.821   5.257   3.534  0.7204  0.7823 -0.2390
 1628TIP3    H2 4849   2.851   5.110   3.559 -1.2372  0.5285  0.8159
 1629TIP3   OH2 4850   6.665   1.663   5.701  0.0065 -0.2654  0.5980
 1629TIP3    H1 4851   6.680   1.744   5.748 -2.4484  0.2329  0.6690
 1629TIP3    H2 4852   6.597   1.618   5.752 -0.2867 -1.2864 -0.6431
 1630TIP3   OH2 4853   1.857   1.825   3.029  0.2843  0.3136  0.4383
 1630TIP3    H1 4854   1.947   1.831   2.996 -0.3697  0.4324 -1.4482
 1630TIP3    H2 4855   1.837   1.913   3.061  0.4376  0.6298 -0.3111
 1631TIP3   OH2 4856   2.151   5.282   3.784 -0.4279  0.0010 -0.2775
 1631TIP3    H1 4857   2.168   5.203   3.732 -0.4604  0.5567 -1.1585
 1631TIP3    H2 4858   2.236   5.324   3.791 -0.3318 -0.3176  0.5558
 1632TIP3   OH2 4859   0.798   4.003   4.199 -0.2495 -0.6981  0.0245
 1632TIP3    H1 4860   0.826   3.953   4.276 -0.7453 -2.0488 -0.6501
 1632TIP3    H2 4861   0.703   3.995   4.199 -0.2821 -0.3492 -0.5106
 1633TIP3   OH2 4862   4.915   2.377   4.908 -0.2330 -0.1109 -0.1766
 1633TIP3    H1 4863   4.931   2.305   4.969  2.9069  0.7868  0.2819
 1633TIP3    H2 4864   4.895   2.452   4.964 -0.1047  0.0929 -0.3976
 1634TIP3   OH2 4865   1.438   2.318   0.247 -0.0244  0.4614 -0.3434
 1634TIP3    H1 4866   1.431   2.407   0.284 -0.4894  0.6391 -0.8517
 1634TIP3    H2 4867   1.424   2.330   0.153 -0.1241 -0.1624 -0.4095
 1635TIP3   OH2 4868   6.649   1.867   0.047 -0.1548  0.0595 -0.1316
 1635TIP3    H1 4869   6.641   1.776   0.077  0.2428  1.1084  3.7550
 1635TIP3    H2 4870   6.743   1.881   0.037  0.0206  0.7116  2.0275
 1636TIP3   OH2 4871   7.138   4.228   2.272 -0.2220  0.0953  0.4101
 1636TIP3    H1 4872   7.192   4.236   2.350 -0.7130  3.3339  0.5555
 1636TIP3    H2 4873   7.201   4.231   2.199  0.1070 -1.1968  0.6218
 1637TIP3   OH2 4874   5.276   6.312   5.254  0.3090 -0.7470  0.2884
 1637TIP3    H1 4875   5.332   6.277   5.324  0.0223 -1.8509 -0.0192
 1637TIP3    H2 4876   5.188   6.280   5.275  0.1873 -0.9247 -0.4823
 1638TIP3   OH2 4877   2.372   1.200   2.889 -0.5431 -0.0259 -0.0648
 1638TIP3    H1 4878   2.420   1.158   2.818  0.2809 -0.4831  0.7404
 1638TIP3    H2 4879   2.333   1.278   2.849 -0.5807 -0.5802 -1.1465
 1639TIP3   OH2 4880   4.585   5.702   3.032  0.7906 -0.4464 -0.0974
 1639TIP3    H1 4881   4.621   5.711   2.944 -1.8912  1.2462 -1.1870
 1639TIP3    H2 4882   4.581   5.792   3.065 -0.2942 -0.7982  0.7981
 1640TIP3   OH2 4883   5.976   1.702   1.150  0.3136  0.2838 -0.7093
 1640TIP3    H1 4884   6.011   1.693   1.061 -0.4302  1.2368 -1.1258
 1640TIP3    H2 4885   5.882   1.716   1.137 -0.3429 -2.5089  0.3798
 1641TIP3   OH2 4886   2.459   4.065   2.245 -0.1283  0.4706 -0.3587
 1641TIP3    H1 4887   2.467   4.008   2.321 -0.6196 -1.7989 -1.9103
 1641TIP3    H2 4888   2.375   4.109   2.257  0.3373  1.0385  0.9514
 1642TIP3   OH2 4889   5.582   4.623   4.551 -0.0455  0.3926  0.0219
 1642TIP3    H1 4890   5.617   4.580   4.630 -1.3427  1.6308  1.3259
 1642TIP3    H2 4891   5.658   4.631   4.493  0.3292 -3.3139 -0.2083
 1643TIP3   OH2 4892   1.671   2.320   0.400  0.5523  0.2382  0.4853
 1643TIP3    H1 4893   1.597   2.310   0.340  1.0669  0.7242 -0.2348
 1643TIP3    H2 4894   1.649   2.396   0.453 -0.1360 -0.4880  1.2735
 1644TIP3   OH2 4895   7.079   1.790   3.287  0.2300  0.2181 -0.5367
 1644TIP3    H1 4896   7.114   1.854   3.225 -1.1141  0.6532 -0.8725
 1644TIP3    H2 4897   7.020   1.736   3.235  1.0599 -1.0794 -0.1740
 1645TIP3   OH2 4898   0.568   1.037   0.027  0.6787  0.3771 -0.1414
 1645TIP3    H1 4899   0.525   1.121   0.042  1.5000  0.8643 -0.4294
 1645TIP3    H2 4900   0.605   1.014   0.112 -1.3997 -0.7944  0.4931
 1646TIP3   OH2 4901   2.933   4.694   5.514  0.7875  0.1732  0.2425
 1646TIP3    H1 4902   2.963   4.612   5.552 -0.6566 -0.6351 -0.2569
 1646TIP3    H2 4903   3.013   4.746   5.502  1.6904 -1.0121  0.8946
 1647TIP3   OH2 4904   6.972   5.534   5.322 -0.3008 -0.2050 -0.2571
 1647TIP3    H1 4905   6.893   5.572   5.285 -0.2346 -0.2465 -0.4420
 1647TIP3    H2 4906   6.941   5.481   5.396 -0.5427 -0.9558 -0.8787
 1648TIP3   OH2 4907   2.326   5.216   1.157  0.1152  0.5855 -0.1664
 1648TIP3    H1 4908   2.268   5.229   1.232 -0.8336 -1.2407 -0.5241
 1648TIP3    H2 4909   2.267   5.195   1.085  1.1604 -0.2700 -0.8038
 1649TIP3   OH2 4910   1.015   0.446   3.653 -0.1360 -0.2392  0.3801
 1649TIP3    H1 4911   0.928   0.485   3.647  0.6853  1.6232 -0.0443
 1649TIP3    H2 4912   1.038   0.423   3.563 -0.4940 -1.5230  0.5892
 1650TIP3   OH2 4913   5.119   6.561   3.346  0.1251 -0.4603 -0.0197
 1650TIP3    H1 4914   5.070   6.493   3.299  1.3184 -0.4884 -1.2801
 1650TIP3    H2 4915   5.159   6.514   3.419  0.7059 -1.0706 -0.7159
 1651TIP3   OH2 4916   2.250   2.793   2.690 -0.0495  0.8051  0.3188
 1651TIP3    H1 4917   2.193   2.741   2.747  0.6504  0.2268  0.4974
 1651TIP3    H2 4918   2.331   2.804   2.739  1.8467 -2.4258 -1.6894
 1652TIP3   OH2 4919   5.264   3.933   3.299 -0.4226 -0.5156  0.1879
 1652TIP3    H1 4920   5.182   3.891   3.274  0.6755 -2.9869  0.4425
 1652TIP3    H2 4921   5.296   3.973   3.218 -1.7463  0.3141  0.0452
 1653TIP3   OH2 4922   4.093   3.510   4.097  0.6991 -0.0480 -0.1627
 1653TIP3    H1 4923   4.061   3.561   4.172 -1.7287 -0.6529 -0.6869
 1653TIP3    H2 4924   4.091   3.572   4.024 -0.9904 -0.4846 -0.5309
 1654TIP3   OH2 4925   0.835   2.821   2.962 -0.0707 -0.4518  0.3006
 1654TIP3    H1 4926   0.777   2.875   2.909  1.0868 -0.5647 -1.1719
 1654TIP3    H2 4927   0.779   2.784   3.030 -1.4411  0.3915 -0.3228
 1655TIP3   OH2 4928   7.133   6.050   5.904  0.3615  0.1909  0.1420
 1655TIP3    H1 4929   7.190   6.018   5.833 -1.5098 -1.3081 -0.8014
 1655TIP3    H2 4930   7.061   6.093   5.858 -1.3323 -1.5616  1.0131
 1656TIP3   OH2 4931   0.371   5.519   5.498  0.0523  0.0143  0.2540
 1656TIP3    H1 4932   0.390   5.602   5.541 -0.0297 -0.0803  0.4745
 1656TIP3    H2 4933   0.439   5.511   5.431 -0.1918  0.4596 -0.0501
 1657TIP3   OH2 4934   6.209   1.030   1.808 -0.4980  0.0043 -0.5243
 1657TIP3    H1 4935   6.270   1.080   1.754 -1.0237  0.0769 -1.0641
 1657TIP3    H2 4936   6.136   1.010   1.749 -1.3662  0.5994  0.3225
 1658TIP3   OH2 4937   5.684   6.279   2.371  0.1083  0.0761 -0.3890
 1658TIP3    H1 4938   5.630   6.299   2.295  0.0242 -0.7569 -0.5644
 1658TIP3    H2 4939   5.768   6.321   2.353 -0.3018  0.9151 -0.3669
 1659TIP3   OH2 4940   5.302   1.106   5.088  0.5045  0.0015 -0.6976
 1659TIP3    H1 4941   5.321   1.027   5.140 -0.2002  0.3062  0.0390
 1659TIP3    H2 4942   5.341   1.177   5.139 -0.3775  0.3287 -0.4628
 1660TIP3   OH2 4943   0.958   0.360   0.229 -0.8871  0.0724 -0.2856
 1660TIP3    H1 4944   1.030   0.326   0.175  1.3664 -0.1615  2.6327
 1660TIP3    H2 4945   0.999   0.381   0.313 -4.2058  0.2246  1.4483
 1661TIP3   OH2 4946   2.281   4.422   1.012 -0.1281  0.0782  0.3019
 1661TIP3    H1 4947   2.254   4.408   1.103 -0.7433  0.2268  0.1460
 1661TIP3    H2 4948   2.221   4.489   0.980 -0.4655 -0.5756 -0.4645
 1662TIP3   OH2 4949   4.477   6.543   2.168  0.1509  0.0277 -0.1029
 1662TIP3    H1 4950   4.488   6.597   2.246  0.1340  0.4426 -0.3884
 1662TIP3    H2 4951   4.515   6.458   2.192 -2.1209 -0.6879  1.2327
 1663TIP3   OH2 4952   5.063   4.286   4.605  0.5079 -0.6382  0.3970
 1663TIP3    H1 4953   5.007   4.308   4.680  0.8137  0.2831  0.3652
 1663TIP3    H2 4954   5.112   4.209   4.635  0.0825 -0.7348  0.8668
 1664TIP3   OH2 4955   1.893   2.942   5.683 -0.4131 -0.2321 -0.6949
 1664TIP3    H1 4956   1.886   3.038   5.678 -0.3346 -0.1923 -0.1059
 1664TIP3    H2 4957   1.922   2.925   5.772 -2.8092 -0.9269  0.0261
 1665TIP3   OH2 4958   4.029   1.781   0.517  0.6915 -0.2999  0.0098
 1665TIP3    H1 4959   4.078   1.804   0.438 -0.4958 -0.9764 -0.9593
 1665TIP3    H2 4960   4.092   1.733   0.571  1.1245 -1.1573 -1.2051
 1666TIP3   OH2 4961   3.867   6.228   4.278 -0.0146  0.3471 -0.0377
 1666TIP3    H1 4962   3.911   6.313   4.285 -0.3245  0.6821 -1.8521
 1666TIP3    H2 4963   3.803   6.229   4.349  0.0605  1.5748  0.0403
 1667TIP3   OH2 4964   4.816   5.238   5.561  0.1062  0.4249  0.2127
 1667TIP3    H1 4965   4.821   5.333   5.546  0.8067  0.6961  1.9648
 1667TIP3    H2 4966   4.771   5.229   5.645 -0.6509 -0.8427 -0.3069
 1668TIP3   OH2 4967   5.743   0.231   1.689  0.1384  0.8842 -0.5981
 1668TIP3    H1 4968   5.790   0.282   1.622  0.4102  0.0710 -1.0413
 1668TIP3    H2 4969   5.653   0.262   1.684  0.5273  2.1671 -0.0342
 1669TIP3   OH2 4970   5.906   5.914   1.517  0.4095 -0.2079 -0.1596
 1669TIP3    H1 4971   5.844   5.896   1.446 -1.6815  2.0946  0.9062
 1669TIP3    H2 4972   5.858   5.892   1.597  1.1999  0.9489  0.6734
 1670TIP3   OH2 4973   6.409   5.539   0.925  0.0285 -0.0076 -0.0749
 1670TIP3    H1 4974   6.370   5.598   0.860 -2.1483 -1.2154  0.0577
 1670TIP3    H2 4975   6.376   5.453   0.901 -0.6439 -0.5301  2.4829
 1671TIP3   OH2 4976   2.222   5.261   4.180  0.0833  0.2977  0.1176
 1671TIP3    H1 4977   2.144   5.223   4.140  0.9510 -0.3081 -1.0893
 1671TIP3    H2 4978   2.214   5.241   4.273 -1.8893  1.5377  0.2591
 1672TIP3   OH2 4979   4.093   3.227   4.018  0.6729 -0.3027 -1.1543
 1672TIP3    H1 4980   4.128   3.212   4.106  1.9936  0.0829 -1.5871
 1672TIP3    H2 4981   4.059   3.316   4.020  1.4504  0.0038 -1.2506
 1673TIP3   OH2 4982   4.327   2.504   4.651 -0.0799  0.2296 -0.0110
 1673TIP3    H1 4983   4.275   2.428   4.679 -1.1769  0.8033 -0.4110
 1673TIP3    H2 4984   4.418   2.475   4.658 -0.4918 -1.7205 -1.7491
 1674TIP3   OH2 4985   3.587   4.446   3.052  0.8449  0.2851 -0.0103
 1674TIP3    H1 4986   3.542   4.362   3.047  0.0469  0.7213 -0.2035
 1674TIP3    H2 4987   3.520   4.508   3.081  1.8693  0.5148  2.0938
 1675TIP3   OH2 4988   5.803   4.134   5.237 -0.0190 -0.2036 -0.4997
 1675TIP3    H1 4989   5.808   4.214   5.289  0.4365 -1.6674  1.8405
 1675TIP3    H2 4990   5.722   4.143   5.187 -0.7243  1.1091  0.8092
 1676TIP3   OH2 4991   5.459   5.168   0.203 -0.4227  0.0824 -0.3502
 1676TIP3    H1 4992   5.465   5.213   0.287 -0.9929 -0.5324  0.0341
 1676TIP3    H2 4993   5.526   5.210   0.148  0.3448  0.1144  0.5790
 1677TIP3   OH2 4994   3.642   1.397   5.514 -0.5218 -0.2182 -0.1970
 1677TIP3    H1 4995   3.568   1.339   5.531 -0.2310 -1.0810 -1.6316
 1677TIP3    H2 4996   3.684   1.409   5.599 -3.2155  1.6911  1.0073
 1678TIP3   OH2 4997   5.217   0.882   4.438  0.0485  0.8670 -0.2507
 1678TIP3    H1 4998   5.300   0.836   4.428 -1.3786 -1.7748 -0.6873
 1678TIP3    H2 4999   5.193   0.869   4.530 -1.4348 -1.3754 -0.8763
 1679TIP3   OH2 5000   3.963   1.667   4.221  0.1493  0.4117  0.4394
 1679TIP3    H1 5001   3.973   1.729   4.293  2.8331  0.3490  0.2496
 1679TIP3    H2 5002   3.938   1.585   4.263 -2.5538  1.3209  0.7802
 1680TIP3   OH2 5003   1.516   4.135   0.756  0.1902  0.5173 -0.3394
 1680TIP3    H1 5004   1.594   4.149   0.810  0.4983 -2.0675 -0.0042
 1680TIP3    H2 5005   1.540   4.171   0.670  1.4109  0.5639 -0.0006
 1681TIP3   OH2 5006   6.299   4.181   1.407  0.2556  0.0814 -0.1135
 1681TIP3    H1 5007   6.214   4.225   1.395 -0.2070 -0.8181 -0.1730
 1681TIP3    H2 5008   6.312   4.179   1.502  0.5282  0.7955 -0.1264
 1682TIP3   OH2 5009   3.294   3.487   5.775  0.2664  0.4962  0.3306
 1682TIP3    H1 5010   3.328   3.576   5.780 -0.9233  1.1109 -1.5187
 1682TIP3    H2 5011   3.290   3.458   5.866  0.9198  2.2292  0.9537
 1683TIP3   OH2 5012   4.405   0.495   0.751  0.3464  0.3396 -0.4802
 1683TIP3    H1 5013   4.449   0.525   0.831  1.7111  1.8503 -1.7216
 1683TIP3    H2 5014   4.475   0.459   0.697 -0.2235  1.0179 -1.7202
 1684TIP3   OH2 5015   6.550   3.958   4.749  0.1002  0.3833  0.0817
 1684TIP3    H1 5016   6.576   4.031   4.693  0.2395  1.1054  1.0575
 1684TIP3    H2 5017   6.539   3.997   4.835 -0.5204 -0.6250  0.4796
 1685TIP3   OH2 5018   2.772   5.025   0.942 -0.1830  0.3174  0.4211
 1685TIP3    H1 5019   2.731   4.957   0.993  1.4051  0.4071  1.9115
 1685TIP3    H2 5020   2.833   4.979   0.884 -0.7852  0.3332 -0.2404
 1686TIP3   OH2 5021   4.552   2.257   2.415 -0.9767 -0.1258 -0.1048
 1686TIP3    H1 5022   4.600   2.178   2.438  1.4659  1.2776 -0.0056
 1686TIP3    H2 5023   4.541   2.304   2.498 -1.3159  0.1987 -0.3287
 1687TIP3   OH2 5024   3.701   6.554   4.478 -0.0563  0.3865 -0.4663
 1687TIP3    H1 5025   3.773   6.524   4.423 -1.2247 -0.5094 -1.5564
 1687TIP3    H2 5026   3.658   6.474   4.508 -1.8250  0.8910 -1.5207
 1688TIP3   OH2 5027   1.768   0.091   0.153  0.0902  0.5042  0.2615
 1688TIP3    H1 5028   1.749   0.131   0.068  0.3377  1.1131  0.4862
 1688TIP3    H2 5029   1.861   0.068   0.148  0.1711  0.7799  0.4576
 1689TIP3   OH2 5030   6.437   6.610   0.508  0.0765 -0.3272  0.5780
 1689TIP3    H1 5031   6.426   6.568   0.594  1.8118  0.5975  1.3090
 1689TIP3    H2 5032   6.479   6.544   0.454 -1.0465 -0.9243  0.4079
 1690TIP3   OH2 5033   0.339   3.638   2.944 -0.3074  0.2602  0.4295
 1690TIP3    H1 5034   0.367   3.651   2.853 -2.5515  0.2096 -0.3493
 1690TIP3    H2 5035   0.394   3.567   2.976 -1.0728 -1.4646 -1.7559
 1691TIP3   OH2 5036   3.973   6.316   3.087 -0.4289 -0.1494 -0.0517
 1691TIP3    H1 5037   4.002   6.243   3.142  1.1576  0.3775 -0.1286
 1691TIP3    H2 5038   3.886   6.337   3.119  0.2197 -0.2370  1.9105
 1692TIP3   OH2 5039   3.375   2.484   2.810 -0.8516  0.1502 -0.6307
 1692TIP3    H1 5040   3.388   2.578   2.807 -1.3674  0.2053 -1.9949
 1692TIP3    H2 5041   3.436   2.449   2.745  2.2968 -0.9146  2.5422
 1693TIP3   OH2 5042   5.992   4.718   1.022 -0.7061  0.0186 -0.1038
 1693TIP3    H1 5043   6.010   4.742   0.931 -0.3069  1.7577  0.4097
 1693TIP3    H2 5044   6.034   4.632   1.032  1.7632  1.0782 -0.7592
 1694TIP3   OH2 5045   3.047   5.226   3.232 -0.2727  0.0341 -0.2112
 1694TIP3    H1 5046   3.015   5.237   3.143  0.8700  0.5666 -0.5821
 1694TIP3    H2 5047   3.009   5.144   3.262  0.6358 -1.0180 -1.7951
 1695TIP3   OH2 5048   2.429   4.050   4.319 -0.2984  0.1029 -0.0098
 1695TIP3    H1 5049   2.460   4.096   4.397 -1.8308  1.3294 -0.0815
 1695TIP3    H2 5050   2.449   3.958   4.336  1.0550  0.5522  1.0142
 1696TIP3   OH2 5051   5.425   2.460   0.201  0.4078 -0.1822 -0.4538
 1696TIP3    H1 5052   5.397   2.544   0.238  0.4538  0.2865 -1.4565
 1696TIP3    H2 5053   5.470   2.416   0.274 -0.3670  0.2889  0.3276
 1697TIP3   OH2 5054   3.689   5.403   3.985  0.4989 -0.2685 -0.3940
 1697TIP3    H1 5055   3.773   5.363   3.962  0.8196  0.1383  0.0446
 1697TIP3    H2 5056   3.647   5.421   3.902  1.0630 -0.0220 -0.6289
 1698TIP3   OH2 5057   7.087   5.065   0.261 -0.1652  0.4551  0.0643
 1698TIP3    H1 5058   7.180   5.089   0.271 -0.1011 -0.3347  1.5332
 1698TIP3    H2 5059   7.044   5.105   0.337 -0.6351 -1.0964  0.6420
 1699TIP3   OH2 5060   1.442   3.355   2.942 -0.4513 -0.0210  1.0435
 1699TIP3    H1 5061   1.481   3.315   2.864  0.9144  0.5821  1.3881
 1699TIP3    H2 5062   1.348   3.341   2.932 -0.4160  1.0491 -1.2786
 1700TIP3   OH2 5063   0.534   6.116   4.799  0.1284  0.2190  0.1424
 1700TIP3    H1 5064   0.559   6.057   4.871  0.3756  0.3530  0.1686
 1700TIP3    H2 5065   0.446   6.088   4.775 -0.2012  0.5748  0.9117
 1701TIP3   OH2 5066   4.965   5.282   1.356  0.0192 -0.4724 -0.4631
 1701TIP3    H1 5067   4.930   5.219   1.419  0.2057  0.7532  0.9347
 1701TIP3    H2 5068   4.942   5.367   1.392  2.0776  0.3258 -0.8759
 1702TIP3   OH2 5069   6.921   2.149   4.307 -0.8872  0.2223  0.5940
 1702TIP3    H1 5070   6.883   2.085   4.247 -0.3539 -0.2747  0.7855
 1702TIP3    H2 5071   6.934   2.227   4.254  1.8795 -0.9585 -0.6083
 1703TIP3   OH2 5072   3.171   5.515   2.959  0.2153 -0.3473 -0.4588
 1703TIP3    H1 5073   3.108   5.446   2.977 -0.4063  0.4400  0.4736
 1703TIP3    H2 5074   3.126   5.596   2.981  0.6863  0.4327 -2.1890
 1704TIP3   OH2 5075   1.000   4.353   0.570 -0.0755 -0.3507  0.2121
 1704TIP3    H1 5076   1.086   4.311   0.569  0.3021  0.3816 -1.6186
 1704TIP3    H2 5077   0.944   4.292   0.618  1.6808 -0.3183  2.5207
 1705TIP3   OH2 5078   2.369   2.689   1.707  0.0228 -0.5012 -0.3633
 1705TIP3    H1 5079   2.398   2.709   1.618 -1.4577 -1.5640 -1.1349
 1705TIP3    H2 5080   2.439   2.635   1.744  2.3198  2.7203  0.4430
 1706TIP3   OH2 5081   5.489   0.970   1.798 -0.3245 -0.2684 -0.3728
 1706TIP3    H1 5082   5.511   1.053   1.841  2.2199  0.0042 -2.0028
 1706TIP3    H2 5083   5.395   0.978   1.780 -0.3821  1.7993  0.4914
 1707TIP3   OH2 5084   6.652   1.917   3.343 -0.4587 -0.1968  0.3161
 1707TIP3    H1 5085   6.669   2.009   3.319 -1.2352 -0.2972 -0.6764
 1707TIP3    H2 5086   6.706   1.903   3.421 -1.2087  1.4465  1.1911
 1708TIP3   OH2 5087   7.047   5.574   2.651  0.2684 -0.7869  1.0482
 1708TIP3    H1 5088   7.011   5.547   2.736  0.7751  0.3493  1.6676
 1708TIP3    H2 5089   7.138   5.597   2.671  0.2245  0.0738  0.3368
 1709TIP3   OH2 5090   6.946   0.383   4.640  0.4662  0.1320 -0.0801
 1709TIP3    H1 5091   6.973   0.321   4.707  1.3261 -0.6586 -1.1286
 1709TIP3    H2 5092   7.027   0.423   4.609 -0.0292  1.4853  0.2552
 1710TIP3   OH2 5093   2.117   2.560   1.440 -0.0370  1.1680 -1.0254
 1710TIP3    H1 5094   2.100   2.630   1.503  1.6440  1.3215 -0.7099
 1710TIP3    H2 5095   2.172   2.497   1.487  0.4378  0.8066 -2.0368
 1711TIP3   OH2 5096   6.214   0.528   1.523  0.2082 -0.0836  0.2667
 1711TIP3    H1 5097   6.133   0.535   1.473  0.3512  3.0747  0.2877
 1711TIP3    H2 5098   6.185   0.513   1.613 -0.2550 -0.7094  0.0199
 1712TIP3   OH2 5099   1.815   3.161   5.506 -0.1043  0.3191 -0.1637
 1712TIP3    H1 5100   1.784   3.198   5.423 -0.3458  1.5490  0.4532
 1712TIP3    H2 5101   1.893   3.213   5.527 -0.7575  0.8547  0.9975
 1713TIP3   OH2 5102   6.784   0.555   2.100  0.2386 -0.7274 -0.0033
 1713TIP3    H1 5103   6.697   0.563   2.139 -0.7109 -2.6033 -1.5673
 1713TIP3    H2 5104   6.781   0.613   2.024  0.5507 -0.4291  0.2061
 1714TIP3   OH2 5105   3.144   1.363   1.918  0.1225 -0.2573  0.0367
 1714TIP3    H1 5106   3.203   1.410   1.976 -0.8052  1.2945 -0.2182
 1714TIP3    H2 5107   3.171   1.389   1.830  0.5685 -1.4262 -0.1908
 1715TIP3   OH2 5108   6.736   4.231   0.373 -0.3815 -0.2135 -0.4132
 1715TIP3    H1 5109   6.642   4.237   0.387 -0.3769 -0.1476 -0.4107
 1715TIP3    H2 5110   6.757   4.139   0.390 -0.6525 -0.5315 -1.7280
 1716TIP3   OH2 5111   5.628   1.221   0.820 -0.2616  0.8233 -0.1482
 1716TIP3    H1 5112   5.639   1.219   0.915 -0.9900  1.2545 -0.0474
 1716TIP3    H2 5113   5.573   1.145   0.801  0.0219  0.6423 -0.2450
 1717TIP3   OH2 5114   6.254   6.585   3.003  0.0858 -0.2645 -0.1710
 1717TIP3    H1 5115   6.239   6.524   3.076  0.5494 -0.8177 -0.5310
 1717TIP3    H2 5116   6.233   6.534   2.925 -0.1379  0.2410 -0.4415
 1718TIP3   OH2 5117   3.890   4.092   3.196 -0.3728 -0.3211 -0.0039
 1718TIP3    H1 5118   3.926   4.146   3.266 -1.7701  0.8497 -0.1662
 1718TIP3    H2 5119   3.866   4.154   3.127 -0.5742 -1.3031 -0.8466
 1719TIP3   OH2 5120   2.131   5.262   0.583  0.0743 -0.0049  0.1494
 1719TIP3    H1 5121   2.216   5.266   0.540 -0.2133  1.5412 -0.3622
 1719TIP3    H2 5122   2.112   5.169   0.591  2.0290 -0.4011  0.7406
 1720TIP3   OH2 5123   0.785   2.339   2.538  0.2022  0.4171  0.1025
 1720TIP3    H1 5124   0.760   2.308   2.451 -1.8839 -1.8392  1.3945
 1720TIP3    H2 5125   0.739   2.422   2.548 -1.0067 -0.1737 -0.3176
 1721TIP3   OH2 5126   5.793   2.791   1.613 -0.3712  0.1859 -0.4333
 1721TIP3    H1 5127   5.885   2.797   1.638 -0.5220  0.2247  0.1206
 1721TIP3    H2 5128   5.745   2.803   1.695 -0.8901  0.9804 -0.8473
 1722TIP3   OH2 5129   1.148   6.745   5.761 -0.2145  0.2203 -0.3847
 1722TIP3    H1 5130   1.195   6.824   5.790 -1.1167  0.1850  1.3235
 1722TIP3    H2 5131   1.130   6.761   5.669  0.1598  1.7475 -0.2277
 1723TIP3   OH2 5132   0.248   1.571   2.273 -0.1900 -0.2278  0.0047
 1723TIP3    H1 5133   0.224   1.579   2.181  0.2641  0.9203 -0.0299
 1723TIP3    H2 5134   0.197   1.640   2.317  1.4247  0.8801  0.2205
 1724TIP3   OH2 5135   3.975   4.408   5.847  0.6312 -0.0985  0.1782
 1724TIP3    H1 5136   3.940   4.475   5.905 -1.8026 -1.2387  0.1298
 1724TIP3    H2 5137   4.042   4.454   5.795 -1.6934  2.6557 -0.6867
 1725TIP3   OH2 5138   6.497   4.012   0.920  0.0356  0.3479  0.6412
 1725TIP3    H1 5139   6.549   3.979   0.994 -1.1320 -1.6622  0.6466
 1725TIP3    H2 5140   6.407   3.986   0.941 -0.1299 -2.0836 -2.2966
 1726TIP3   OH2 5141   1.853   4.810   4.538  0.0315  0.1295 -0.0563
 1726TIP3    H1 5142   1.871   4.900   4.509 -0.5848  0.1053 -0.5531
 1726TIP3    H2 5143   1.758   4.803   4.533  0.0796 -0.5557 -0.0143
 1727TIP3   OH2 5144   0.072   1.340   1.579 -0.3473 -0.0406  0.1119
 1727TIP3    H1 5145   0.049   1.419   1.530  1.2485  0.1305 -0.4171
 1727TIP3    H2 5146   0.004   1.333   1.646 -1.0696  1.2246 -0.4434
 1728TIP3   OH2 5147   5.193   4.673   2.769 -0.1695 -0.0908 -0.3293
 1728TIP3    H1 5148   5.167   4.722   2.847 -0.1675 -0.4678 -0.0917
 1728TIP3    H2 5149   5.127   4.695   2.703  0.3769  1.0088 -0.5292
 1729TIP3   OH2 5150   6.211   0.572   0.214  0.6120  0.6045 -0.1577
 1729TIP3    H1 5151   6.221   0.594   0.121 -1.4252  0.2852 -0.4902
 1729TIP3    H2 5152   6.278   0.625   0.258  0.8258  1.6765 -1.6935
 1730TIP3   OH2 5153   6.718   6.293   2.761  0.4567  0.2691  0.3765
 1730TIP3    H1 5154   6.771   6.232   2.813  0.9788  0.4156  0.0287
 1730TIP3    H2 5155   6.631   6.254   2.759  0.5634  0.0007  0.9258
 1731TIP3   OH2 5156   0.563   1.657   4.336  0.6500 -0.4927 -0.0124
 1731TIP3    H1 5157   0.545   1.578   4.387  0.4680 -0.2771  0.2615
 1731TIP3    H2 5158   0.499   1.720   4.366  0.5636 -0.3488 -0.4905
 1732TIP3   OH2 5159   3.162   0.306   2.162 -0.0467 -0.2025  0.1297
 1732TIP3    H1 5160   3.071   0.294   2.189  0.0794 -1.1305  0.1845
 1732TIP3    H2 5161   3.183   0.396   2.187 -0.7229 -0.2155  0.7743
 1733TIP3   OH2 5162   6.723   0.044   5.804 -0.5020  0.5405 -0.0448
 1733TIP3    H1 5163   6.795   0.105   5.820 -0.2177  0.0284  0.6953
 1733TIP3    H2 5164   6.672   0.084   5.734  0.8460  0.6121 -1.0116
 1734TIP3   OH2 5165   5.206   3.698   4.665  0.3959 -0.1706 -0.0595
 1734TIP3    H1 5166   5.120   3.708   4.624  0.3579 -0.4015 -0.0395
 1734TIP3    H2 5167   5.218   3.603   4.672  0.5227 -0.1364  0.2120
 1735TIP3   OH2 5168   3.426   5.983   2.315 -0.4292 -0.3059 -0.0898
 1735TIP3    H1 5169   3.463   6.065   2.346 -0.9317 -0.5560  1.2263
 1735TIP3    H2 5170   3.437   5.986   2.220 -0.1014  1.1032 -0.0241
 1736TIP3   OH2 5171   3.852   3.027   4.348 -0.5330 -0.1232  0.3226
 1736TIP3    H1 5172   3.919   2.993   4.406 -0.2290 -0.7420 -0.3805
 1736TIP3    H2 5173   3.776   2.971   4.363 -0.4485 -0.2950  0.1204
 1737TIP3   OH2 5174   0.735   5.310   3.486  0.0613 -0.5215 -0.2108
 1737TIP3    H1 5175   0.721   5.358   3.567 -1.5808  1.3432 -1.5038
 1737TIP3    H2 5176   0.748   5.378   3.420  0.9872 -1.9755 -1.5946
 1738TIP3   OH2 5177   2.588   3.555   2.048 -0.4539  0.3035 -0.4367
 1738TIP3    H1 5178   2.672   3.555   2.094  0.2086  0.9406 -1.6091
 1738TIP3    H2 5179   2.540   3.483   2.087  0.5909 -0.0009  0.3435
 1739TIP3   OH2 5180   6.339   2.257   0.973 -0.2235 -0.2407 -0.1819
 1739TIP3    H1 5181   6.371   2.281   0.886  0.2955 -0.5419 -0.0813
 1739TIP3    H2 5182   6.385   2.316   1.032 -2.0375  1.3030 -0.2443
 1740TIP3   OH2 5183   4.397   6.425   3.579  0.1206  0.2945  0.1976
 1740TIP3    H1 5184   4.371   6.446   3.668  1.2939 -0.0062  0.6229
 1740TIP3    H2 5185   4.483   6.383   3.587 -0.3468 -0.9773 -0.9573
 1741TIP3   OH2 5186   0.045   6.211   4.841 -0.0485  0.1079 -0.8298
 1741TIP3    H1 5187   0.008   6.234   4.755 -0.1080  1.8148 -0.3785
 1741TIP3    H2 5188   0.021   6.285   4.898 -0.6011 -1.3029  0.8468
 1742TIP3   OH2 5189   1.722   1.544   2.237  0.5687 -0.4081 -0.2165
 1742TIP3    H1 5190   1.660   1.609   2.271 -0.0940 -0.2430 -1.6380
 1742TIP3    H2 5191   1.795   1.595   2.203  1.0124 -0.5461  0.4993
 1743TIP3   OH2 5192   5.404   1.956   4.137 -0.1156 -0.3764  0.1462
 1743TIP3    H1 5193   5.369   1.964   4.226 -1.8919  0.2237 -0.5600
 1743TIP3    H2 5194   5.478   2.017   4.134  1.5229 -2.1441  1.8789
 1744TIP3   OH2 5195   3.787   3.403   3.981  0.2860 -0.2393 -0.2833
 1744TIP3    H1 5196   3.807   3.357   4.063  0.5472 -0.1614 -0.3005
 1744TIP3    H2 5197   3.832   3.487   3.990  0.5016 -0.3195 -0.6029
 1745TIP3   OH2 5198   5.230   0.944   2.043 -0.1442  0.4438  0.0413
 1745TIP3    H1 5199   5.182   1.026   2.056 -2.4321 -0.6114 -1.1085
 1745TIP3    H2 5200   5.303   0.948   2.105  0.1089  3.5391 -0.3276
 1746TIP3   OH2 5201   4.031   5.720   0.642 -0.0935  0.5099  0.0977
 1746TIP3    H1 5202   4.027   5.807   0.684  1.0259  0.2848  0.7095
 1746TIP3    H2 5203   4.121   5.713   0.611  0.0314 -0.7327  0.7124
 1747TIP3   OH2 5204   6.228   0.648   3.129  0.1142 -0.4406 -0.6027
 1747TIP3    H1 5205   6.210   0.624   3.038  1.2339 -1.2802 -0.6079
 1747TIP3    H2 5206   6.307   0.601   3.152  1.2456  1.6521  0.0461
 1748TIP3   OH2 5207   2.513   5.700   5.051  0.1354  0.1513  0.2583
 1748TIP3    H1 5208   2.472   5.787   5.053  1.2141  0.7404 -1.2559
 1748TIP3    H2 5209   2.517   5.673   5.143 -1.8058  0.9230  0.5997
 1749TIP3   OH2 5210   3.186   2.980   3.180  0.1468  0.0859 -0.0780
 1749TIP3    H1 5211   3.229   2.965   3.096  0.7115 -1.4598  0.4489
 1749TIP3    H2 5212   3.164   2.892   3.211  0.4659  0.5795  1.6357
 1750TIP3   OH2 5213   0.836   1.774   5.008  0.2473 -0.6495 -0.2559
 1750TIP3    H1 5214   0.818   1.838   4.940  0.3535  2.2256  2.2283
 1750TIP3    H2 5215   0.753   1.727   5.020 -0.2870  0.0608 -1.0742
 1751TIP3   OH2 5216   3.056   0.228   0.578 -0.4120 -0.1264  0.1251
 1751TIP3    H1 5217   3.047   0.149   0.527 -0.3605 -0.9863  1.3953
 1751TIP3    H2 5218   3.151   0.245   0.580 -0.5797  1.4929 -2.3231
 1752TIP3   OH2 5219   0.365   0.926   4.460  0.7070 -0.4201 -0.4374
 1752TIP3    H1 5220   0.393   0.939   4.550  0.7802  1.7626 -0.7220
 1752TIP3    H2 5221   0.269   0.936   4.463  0.8360  1.2067 -0.7856
 1753TIP3   OH2 5222   6.105   2.698   0.452  1.3247  0.0255  0.4637
 1753TIP3    H1 5223   6.052   2.773   0.480  2.3278  0.9618 -0.0765
 1753TIP3    H2 5224   6.079   2.683   0.361  1.6975  0.2484  0.3164
 1754TIP3   OH2 5225   3.247   1.472   1.655  0.1814 -0.2742  0.1614
 1754TIP3    H1 5226   3.237   1.378   1.641  0.0202 -0.2560  0.1605
 1754TIP3    H2 5227   3.339   1.482   1.679  0.4896 -0.2901 -0.9767
 1755TIP3   OH2 5228   3.427   3.259   3.377  0.7079 -0.3437 -0.2274
 1755TIP3    H1 5229   3.390   3.267   3.289 -0.3346  0.4236  0.2629
 1755TIP3    H2 5230   3.370   3.197   3.422  1.6060 -1.2220 -0.2613
 1756TIP3   OH2 5231   2.371   1.306   2.068  0.0541  0.1285 -0.1826
 1756TIP3    H1 5232   2.314   1.319   2.144 -0.1258  3.3798 -0.7197
 1756TIP3    H2 5233   2.315   1.321   1.992  0.9385  0.3466 -0.8191
 1757TIP3   OH2 5234   0.903   1.366   5.510  0.9307  0.8754 -0.1284
 1757TIP3    H1 5235   0.867   1.421   5.440  0.7870  1.0871  0.1089
 1757TIP3    H2 5236   0.859   1.396   5.589  0.4739  0.0641 -0.0670
 1758TIP3   OH2 5237   6.460   2.879   4.441  0.1174 -0.7826 -0.0039
 1758TIP3    H1 5238   6.386   2.938   4.430  0.4092 -0.5476 -0.8232
 1758TIP3    H2 5239   6.481   2.883   4.534 -0.8757 -0.8340  0.2361
 1759TIP3   OH2 5240   7.158   3.886   3.424  0.1527 -0.1251 -0.0931
 1759TIP3    H1 5241   7.086   3.826   3.444 -0.0767  0.4622  0.9072
 1759TIP3    H2 5242   7.203   3.900   3.507  0.1690  1.1140 -0.2777
 1760TIP3   OH2 5243   4.268   3.627   2.204 -0.4234  0.1136 -0.0625
 1760TIP3    H1 5244   4.320   3.669   2.272  1.0762 -0.8946 -0.5436
 1760TIP3    H2 5245   4.286   3.534   2.214 -0.8987 -0.1293 -1.2697
 1761TIP3   OH2 5246   0.658   4.396   4.602  0.7291  0.4983  0.5508
 1761TIP3    H1 5247   0.653   4.371   4.694 -1.5919 -1.5650 -0.0444
 1761TIP3    H2 5248   0.676   4.314   4.556 -0.8635  0.9896 -1.0321
 1762TIP3   OH2 5249   2.259   6.467   0.487 -0.2079 -0.1610 -0.2037
 1762TIP3    H1 5250   2.172   6.500   0.509 -0.0383  1.3877 -1.6574
 1762TIP3    H2 5251   2.245   6.374   0.469 -1.7445  0.2349 -1.2853
 1763TIP3   OH2 5252   3.230   6.595   2.574  0.4716  0.1587  0.0725
 1763TIP3    H1 5253   3.308   6.627   2.529 -0.6711 -0.1131 -2.3054
 1763TIP3    H2 5254   3.205   6.666   2.633  1.8407  0.7420 -0.0215
 1764TIP3   OH2 5255   6.564   5.045   5.254  0.5365 -0.4882  0.3567
 1764TIP3    H1 5256   6.471   5.065   5.243  1.0991  2.3349  0.0826
 1764TIP3    H2 5257   6.591   5.008   5.170 -0.0716 -0.1852  0.0213
 1765TIP3   OH2 5258   1.070   1.187   3.139  0.2487  0.5224 -0.1081
 1765TIP3    H1 5259   1.141   1.221   3.193 -0.2635 -0.4477  1.2543
 1765TIP3    H2 5260   1.113   1.140   3.068  0.9724  0.4199  0.3856
 1766TIP3   OH2 5261   4.799   2.267   0.153  0.0521  0.2708 -0.0014
 1766TIP3    H1 5262   4.729   2.330   0.174 -0.3005 -0.1035 -0.0419
 1766TIP3    H2 5263   4.878   2.321   0.144 -0.3767  0.8012 -0.7505
 1767TIP3   OH2 5264   6.297   5.371   2.455  0.7623  0.1161 -0.1503
 1767TIP3    H1 5265   6.371   5.398   2.508  1.5248 -0.9332 -0.6412
 1767TIP3    H2 5266   6.281   5.280   2.481  0.2763  0.0204 -0.7558
 1768TIP3   OH2 5267   1.236   4.758   2.451  0.1448 -0.1069  0.0781
 1768TIP3    H1 5268   1.258   4.667   2.470  0.9665  0.1920  0.6117
 1768TIP3    H2 5269   1.164   4.778   2.512  1.5059  0.2775  1.6287
 1769TIP3   OH2 5270   4.086   5.762   1.822 -0.3534 -0.3353  0.1648
 1769TIP3    H1 5271   4.000   5.787   1.856 -0.9513 -0.7516 -0.9738
 1769TIP3    H2 5272   4.121   5.841   1.783  0.3774  0.1706  1.7440
 1770TIP3   OH2 5273   0.476   6.750   1.645 -0.6393 -0.1554 -0.3296
 1770TIP3    H1 5274   0.482   6.707   1.560  0.9318 -1.8232  0.5519
 1770TIP3    H2 5275   0.401   6.709   1.688 -0.8403 -0.0111 -0.5446
 1771TIP3   OH2 5276   0.208   5.198   3.777 -0.5565  0.0791 -0.1927
 1771TIP3    H1 5277   0.287   5.204   3.723 -0.1439 -1.1295  0.2319
 1771TIP3    H2 5278   0.166   5.117   3.748 -1.2423  0.3173  0.1159
 1772TIP3   OH2 5279   4.182   6.498   2.951 -0.4190 -0.4909  0.1485
 1772TIP3    H1 5280   4.099   6.487   2.998 -0.6345  0.1686 -0.0760
 1772TIP3    H2 5281   4.184   6.590   2.926  0.6681 -0.3608  0.6838
 1773TIP3   OH2 5282   0.989   0.207   4.603  0.1881 -0.0555  0.3191
 1773TIP3    H1 5283   1.019   0.122   4.636 -0.9804 -0.8381 -0.5518
 1773TIP3    H2 5284   1.068   0.245   4.563  0.7855 -0.6160  0.9334
 1774TIP3   OH2 5285   0.324   1.174   1.354  0.0712 -0.0326 -0.0029
 1774TIP3    H1 5286   0.275   1.224   1.418 -0.1407 -0.2518  0.0068
 1774TIP3    H2 5287   0.376   1.113   1.406 -0.4049 -0.4868 -0.0534
 1775TIP3   OH2 5288   3.151   1.076   1.928  0.0754 -0.0174  0.1687
 1775TIP3    H1 5289   3.180   1.167   1.931 -0.3209  0.1679 -1.1752
 1775TIP3    H2 5290   3.094   1.071   1.851 -0.3989 -1.2602  0.5736
 1776TIP3   OH2 5291   5.754   6.038   4.823 -0.2151  0.1052  0.2095
 1776TIP3    H1 5292   5.804   6.077   4.752  0.7822  0.4532  1.0701
 1776TIP3    H2 5293   5.674   6.091   4.829 -0.6562 -0.3648 -1.0851
 1777TIP3   OH2 5294   2.394   6.707   1.543 -0.1296  0.0865  0.2451
 1777TIP3    H1 5295   2.445   6.647   1.488 -1.2151  1.3464 -2.2871
 1777TIP3    H2 5296   2.304   6.677   1.534 -0.3812  0.5702  1.0363
 1778TIP3   OH2 5297   5.686   3.664   0.501  0.3735 -0.3025  0.1539
 1778TIP3    H1 5298   5.658   3.747   0.539 -1.4447 -0.7784 -0.0886
 1778TIP3    H2 5299   5.617   3.640   0.440  0.8542 -1.9975  0.2078
 1779TIP3   OH2 5300   5.726   5.391   3.997 -0.3797 -0.1249 -0.2306
 1779TIP3    H1 5301   5.668   5.316   4.008 -3.5865  1.9985 -1.1978
 1779TIP3    H2 5302   5.729   5.432   4.084 -0.3081 -0.2343 -0.1811
 1780TIP3   OH2 5303   2.305   1.424   5.700  0.5892  0.1642 -0.6979
 1780TIP3    H1 5304   2.240   1.378   5.647 -1.0479  0.3412  1.0536
 1780TIP3    H2 5305   2.281   1.516   5.691 -0.2164  0.1452  0.8992
 1781TIP3   OH2 5306   7.036   2.214   1.291  0.2907 -0.2750  0.1054
 1781TIP3    H1 5307   7.004   2.142   1.346 -0.8533 -0.4391 -0.7611
 1781TIP3    H2 5308   7.111   2.249   1.340 -1.1242  0.0623  2.1358
 1782TIP3   OH2 5309   3.339   3.661   1.369  0.2318 -0.0890  0.8743
 1782TIP3    H1 5310   3.408   3.720   1.399 -0.5506  0.2089  2.1518
 1782TIP3    H2 5311   3.285   3.714   1.312  1.2814 -0.4418 -0.4909
 1783TIP3   OH2 5312   0.766   2.585   4.228  0.4112 -0.0191 -0.0003
 1783TIP3    H1 5313   0.796   2.508   4.180  0.3978 -0.2451  0.3496
 1783TIP3    H2 5314   0.797   2.571   4.318  2.2165  1.3545 -0.3462
 1784TIP3   OH2 5315   4.856   6.606   2.202 -0.0920 -0.7707 -0.2179
 1784TIP3    H1 5316   4.937   6.607   2.253 -0.6647  3.4262  0.9395
 1784TIP3    H2 5317   4.795   6.555   2.255  0.5800 -0.2262  1.1280
 1785TIP3   OH2 5318   4.049   2.776   3.286  0.6795  0.8914  0.0420
 1785TIP3    H1 5319   4.071   2.778   3.379 -0.3014 -0.1098  0.3149
 1785TIP3    H2 5320   4.026   2.685   3.269 -1.8305  1.5476 -0.5097
 1786TIP3   OH2 5321   0.512   4.223   5.626 -0.1689 -0.2447 -0.5929
 1786TIP3    H1 5322   0.562   4.231   5.707  0.0795  0.1795 -0.7835
 1786TIP3    H2 5323   0.421   4.231   5.654 -0.0665  0.3384 -0.3983
 1787TIP3   OH2 5324   1.938   3.526   1.875  0.3406 -0.9059 -0.0913
 1787TIP3    H1 5325   1.899   3.608   1.906  0.1498 -0.0259 -2.4556
 1787TIP3    H2 5326   2.032   3.538   1.890  0.5066  0.5160 -1.9111
 1788TIP3   OH2 5327   2.312   5.917   0.046 -0.5747 -0.2482 -0.1112
 1788TIP3    H1 5328   2.315   6.012   0.049  0.0414 -0.2930  2.4720
 1788TIP3    H2 5329   2.263   5.891   0.124  0.6935 -2.0651  0.1484
 1789TIP3   OH2 5330   4.794   4.376   0.774 -0.4532 -0.2949 -0.4370
 1789TIP3    H1 5331   4.838   4.440   0.718  1.7735 -1.2323  0.1221
 1789TIP3    H2 5332   4.844   4.295   0.762 -1.3716 -1.1422  1.1063
 1790TIP3   OH2 5333   4.489   2.189   4.455  0.2886  0.4401 -0.1762
 1790TIP3    H1 5334   4.411   2.236   4.427  0.3720  0.8719  0.2945
 1790TIP3    H2 5335   4.531   2.162   4.374  0.0772  0.9190 -0.4514
 1791TIP3   OH2 5336   2.300   5.154   4.878 -0.6494  0.1733 -0.2506
 1791TIP3    H1 5337   2.344   5.198   4.805 -0.5112 -0.3550 -0.4908
 1791TIP3    H2 5338   2.231   5.215   4.904  1.3045  1.8544  1.3483
 1792TIP3   OH2 5339   6.507   4.777   4.135 -0.6299  0.8160  0.0776
 1792TIP3    H1 5340   6.514   4.722   4.058  0.0049  0.3636  0.4517
 1792TIP3    H2 5341   6.421   4.819   4.127  0.0477  1.9821 -1.6646
 1793TIP3   OH2 5342   3.198   4.554   3.967  0.3809  0.1094  0.3181
 1793TIP3    H1 5343   3.121   4.610   3.956  0.2812 -0.1490 -0.3477
 1793TIP3    H2 5344   3.200   4.535   4.061  0.5386  1.3869  0.5962
 1794TIP3   OH2 5345   5.090   0.413   5.453  0.1104  0.3150 -0.0057
 1794TIP3    H1 5346   5.012   0.393   5.505  0.1377 -0.7754 -0.3615
 1794TIP3    H2 5347   5.126   0.492   5.494 -1.7196  1.4445 -0.4443
 1795TIP3   OH2 5348   3.810   1.520   3.565  0.7419 -0.1911 -0.5875
 1795TIP3    H1 5349   3.739   1.484   3.619 -0.2233 -0.0491 -1.7223
 1795TIP3    H2 5350   3.846   1.591   3.618 -0.6615  0.4103 -0.3803
 1796TIP3   OH2 5351   5.222   1.880   0.043  0.2126  0.1799 -0.5581
 1796TIP3    H1 5352   5.277   1.831  -0.019  1.2487 -0.1969  0.6189
 1796TIP3    H2 5353   5.133   1.849   0.025  0.4746  0.1631 -1.9219
 1797TIP3   OH2 5354   6.238   6.228   2.696 -0.0566 -0.1443  0.2407
 1797TIP3    H1 5355   6.315   6.176   2.719  0.8945  1.2346  0.2648
 1797TIP3    H2 5356   6.217   6.201   2.607  1.4552  0.6002 -0.3705
 1798TIP3   OH2 5357   4.654   4.080   1.492  0.2617 -0.6157  0.2893
 1798TIP3    H1 5358   4.592   4.074   1.420  0.9790 -2.7346 -0.2294
 1798TIP3    H2 5359   4.627   4.158   1.541 -1.7380 -0.5280 -0.8580
 1799TIP3   OH2 5360   4.061   1.414   1.922  0.6041 -0.7945  0.1098
 1799TIP3    H1 5361   4.072   1.487   1.982  1.9268 -0.9878  0.1204
 1799TIP3    H2 5362   4.149   1.380   1.908  0.2266 -1.2299 -1.3571
 1800TIP3   OH2 5363   0.567   3.639   0.591  0.7630  0.8500 -0.1082
 1800TIP3    H1 5364   0.661   3.624   0.598  0.9851  1.6834 -1.0386
 1800TIP3    H2 5365   0.538   3.578   0.522  0.3759 -0.2820  1.0096
 1801TIP3   OH2 5366   5.945   0.666   1.471 -0.4416 -0.4157  0.0010
 1801TIP3    H1 5367   5.851   0.676   1.452 -1.4307 -3.0646  2.5781
 1801TIP3    H2 5368   5.989   0.717   1.404 -3.7341  1.4761 -0.9610
 1802TIP3   OH2 5369   0.098   3.639   2.485  0.1722 -0.4789 -0.0517
 1802TIP3    H1 5370   0.022   3.582   2.492 -1.0922  1.1950  0.7979
 1802TIP3    H2 5371   0.115   3.646   2.391 -2.6720  1.4073 -0.5765
 1803TIP3   OH2 5372   6.380   3.552   4.766  0.4246 -0.2400  0.2414
 1803TIP3    H1 5373   6.312   3.553   4.833  0.1917 -1.5572  0.0475
 1803TIP3    H2 5374   6.335   3.577   4.686  0.3217 -0.3991  0.2494
 1804TIP3   OH2 5375   1.349   4.907   2.247 -0.0137  0.3403  0.1413
 1804TIP3    H1 5376   1.286   4.957   2.196 -0.4018 -0.0692  0.2085
 1804TIP3    H2 5377   1.296   4.863   2.313 -0.0139 -1.8992 -1.2540
 1805TIP3   OH2 5378   5.396   0.925   2.699 -0.3407 -0.0096 -0.0674
 1805TIP3    H1 5379   5.475   0.883   2.732 -1.0362 -0.1838  1.4875
 1805TIP3    H2 5380   5.325   0.884   2.748 -1.3521  0.5249 -1.0348
 1806TIP3   OH2 5381   2.971   6.500   0.774 -0.0905  0.3351  0.0160
 1806TIP3    H1 5382   3.049   6.503   0.718 -0.1068  1.7013  0.0386
 1806TIP3    H2 5383   2.911   6.441   0.729  1.1445 -1.1561  0.2637
 1807TIP3   OH2 5384   3.002   4.264   4.147 -0.0617 -0.2262 -0.0831
 1807TIP3    H1 5385   2.979   4.198   4.212 -0.7372 -0.5092 -0.5962
 1807TIP3    H2 5386   2.924   4.271   4.091 -0.2421  1.4606  0.3356
 1808TIP3   OH2 5387   4.580   3.330   5.513  0.4443 -0.1325 -0.1532
 1808TIP3    H1 5388   4.598   3.271   5.439 -0.6576  0.4434 -0.9104
 1808TIP3    H2 5389   4.491   3.360   5.498  0.7201  1.1479  0.6275
 1809TIP3   OH2 5390   0.528   5.080   0.058 -0.3366  0.0828  0.4225
 1809TIP3    H1 5391   0.573   5.083  -0.026  0.8069  0.0881  1.0095
 1809TIP3    H2 5392   0.597   5.057   0.121 -1.1727  0.0474  1.3482
 1810TIP3   OH2 5393   4.822   6.440   4.289  0.3289 -0.1587  0.6177
 1810TIP3    H1 5394   4.913   6.467   4.303  0.7871 -0.3278 -1.6020
 1810TIP3    H2 5395   4.828   6.346   4.270 -0.0177  0.1611 -1.3405
 1811TIP3   OH2 5396   0.261   4.139   0.364 -0.7159 -0.3800 -0.3733
 1811TIP3    H1 5397   0.168   4.147   0.384 -0.5762 -1.7248  0.9768
 1811TIP3    H2 5398   0.306   4.165   0.445  0.0866  0.0742 -0.9458
 1812TIP3   OH2 5399   3.984   6.471   0.650 -0.2335 -0.1113  0.0071
 1812TIP3    H1 5400   4.074   6.501   0.651 -0.0602 -0.6414  0.7000
 1812TIP3    H2 5401   3.975   6.424   0.566 -0.0353  0.4147 -0.3125
 1813TIP3   OH2 5402   5.482   0.455   3.267  0.6297  0.1058  0.1452
 1813TIP3    H1 5403   5.510   0.441   3.357 -0.5307  0.6537  0.6144
 1813TIP3    H2 5404   5.389   0.474   3.274  0.5114  0.0783 -1.1844
 1814TIP3   OH2 5405   2.021   0.988   4.040 -0.1856 -0.2215 -0.2576
 1814TIP3    H1 5406   2.116   0.989   4.036 -0.2022 -0.3580 -0.9127
 1814TIP3    H2 5407   1.997   0.896   4.025 -0.3381 -0.8899  3.3302
 1815TIP3   OH2 5408   1.662   1.883   2.598 -0.0478  0.6091 -0.0733
 1815TIP3    H1 5409   1.613   1.933   2.534  3.5801  1.4258 -2.5504
 1815TIP3    H2 5410   1.626   1.794   2.592 -0.3665  0.8359 -2.7533
 1816TIP3   OH2 5411   1.644   2.356   4.357  0.1419 -0.0250  0.3025
 1816TIP3    H1 5412   1.729   2.396   4.341 -0.2783  0.7636 -0.0116
 1816TIP3    H2 5413   1.582   2.412   4.311 -0.8422  0.8362  2.5645
 1817TIP3   OH2 5414   6.804   6.431   4.466 -0.1481 -0.1753 -0.3936
 1817TIP3    H1 5415   6.743   6.504   4.479 -0.2551 -0.5295  1.3774
 1817TIP3    H2 5416   6.785   6.398   4.379 -0.9285  1.1522 -0.7455
 1818TIP3   OH2 5417   6.172   3.199   2.771 -0.0049 -0.6219  0.1028
 1818TIP3    H1 5418   6.099   3.163   2.821 -0.8655  1.0318  0.0986
 1818TIP3    H2 5419   6.135   3.221   2.686  0.3547  0.6745  0.2572
 1819TIP3   OH2 5420   6.481   1.285   0.454 -0.1068 -0.4601  0.4222
 1819TIP3    H1 5421   6.505   1.196   0.426  1.8546  0.3073 -0.5166
 1819TIP3    H2 5422   6.564   1.326   0.477 -0.9924  1.1248  0.9003
 1820TIP3   OH2 5423   6.716   5.998   4.910 -0.0992  0.2715 -0.1574
 1820TIP3    H1 5424   6.689   5.910   4.883  0.1504  0.4101 -0.8838
 1820TIP3    H2 5425   6.811   6.000   4.894 -0.2721  1.0314 -1.1869
 1821TIP3   OH2 5426   4.683   2.924   4.242  0.0843 -0.1852  0.2073
 1821TIP3    H1 5427   4.710   2.834   4.223 -0.3888 -0.6493  1.6222
 1821TIP3    H2 5428   4.602   2.915   4.291 -0.1431  1.0338  0.0835
 1822TIP3   OH2 5429   2.122   2.520   3.524 -0.4953 -0.2282 -0.3482
 1822TIP3    H1 5430   2.176   2.448   3.556 -0.4353 -0.0255  0.0119
 1822TIP3    H2 5431   2.053   2.477   3.473 -0.1379 -0.5012 -0.6079
 1823TIP3   OH2 5432   3.320   4.621   1.064  0.4458 -0.0450  0.0937
 1823TIP3    H1 5433   3.348   4.627   0.973  2.0739 -0.9221  0.4929
 1823TIP3    H2 5434   3.350   4.535   1.093 -2.4916 -0.9768  0.7043
 1824TIP3   OH2 5435   7.145   4.509   2.079  0.2129  0.1932 -0.0494
 1824TIP3    H1 5436   7.199   4.429   2.078 -1.2844 -0.8597  0.5034
 1824TIP3    H2 5437   7.121   4.523   1.987 -0.6071 -0.7747  0.0043
 1825TIP3   OH2 5438   0.775   6.380   0.295  0.7979 -0.5654  0.4817
 1825TIP3    H1 5439   0.738   6.292   0.305 -0.9000  0.2027  1.5359
 1825TIP3    H2 5440   0.803   6.404   0.384 -0.9574  0.8164  0.7209
 1826TIP3   OH2 5441   1.106   6.661   0.021 -0.1703 -0.1741 -0.4207
 1826TIP3    H1 5442   1.094   6.754   0.040  1.4159  0.1120 -0.6724
 1826TIP3    H2 5443   1.022   6.620   0.044 -0.3262  1.0498  1.3167
 1827TIP3   OH2 5444   4.362   0.046   3.214 -0.0806 -0.2493 -0.3446
 1827TIP3    H1 5445   4.409   0.099   3.279  0.9780 -1.5276 -0.0487
 1827TIP3    H2 5446   4.312   0.111   3.164  1.0701  1.0358  0.0863
 1828TIP3   OH2 5447   3.703   4.136   1.074 -0.1214 -0.3040 -0.3848
 1828TIP3    H1 5448   3.768   4.197   1.040 -1.1723  0.4907 -1.0235
 1828TIP3    H2 5449   3.622   4.187   1.077 -0.6965 -1.2399  0.4902
 1829TIP3   OH2 5450   1.197   3.363   2.794  0.3460 -0.0202 -0.3443
 1829TIP3    H1 5451   1.171   3.351   2.703 -0.3541 -0.1055 -0.1406
 1829TIP3    H2 5452   1.131   3.315   2.845 -2.2656  3.9035  0.4939
 1830TIP3   OH2 5453   5.367   2.667   2.327  0.1045  0.2151  0.1462
 1830TIP3    H1 5454   5.317   2.624   2.257  1.5942  0.0918 -0.8825
 1830TIP3    H2 5455   5.303   2.726   2.368 -0.5815  1.1746 -2.0752
 1831TIP3   OH2 5456   1.898   0.630   2.457  0.1140  0.4019 -0.1383
 1831TIP3    H1 5457   1.911   0.594   2.369 -0.1652 -0.3440  0.1144
 1831TIP3    H2 5458   1.881   0.723   2.443  1.3529  0.5444 -0.7790
 1832TIP3   OH2 5459   2.148   3.942   4.506  0.5369 -0.5137  1.0144
 1832TIP3    H1 5460   2.172   4.005   4.574 -0.0772  1.7297 -0.7230
 1832TIP3    H2 5461   2.056   3.921   4.524  0.5164 -0.3029  1.1575
 1833TIP3   OH2 5462   3.806   4.098   0.573 -0.1154  0.3823 -0.0019
 1833TIP3    H1 5463   3.838   4.187   0.554  1.1523 -0.2663 -1.0645
 1833TIP3    H2 5464   3.859   4.070   0.648  1.0828 -0.2640 -1.0463
 1834TIP3   OH2 5465   5.782   1.547   0.082 -0.0210 -0.2136 -0.9548
 1834TIP3    H1 5466   5.828   1.586   0.007  0.1907 -0.0355 -0.7361
 1834TIP3    H2 5467   5.715   1.491   0.043 -0.6895  0.7909 -1.2821
 1835TIP3   OH2 5468   1.165   3.886   1.748 -0.2737  0.2962  0.1107
 1835TIP3    H1 5469   1.152   3.898   1.654 -1.9537  1.0819  0.3964
 1835TIP3    H2 5470   1.080   3.854   1.780  1.2497 -3.5613  0.8580
 1836TIP3   OH2 5471   1.839   3.844   1.807  0.3266 -0.6703  0.3225
 1836TIP3    H1 5472   1.916   3.860   1.753 -0.9070  1.3737 -0.9545
 1836TIP3    H2 5473   1.774   3.807   1.746 -0.8461  0.9869  0.4902
 1837TIP3   OH2 5474   2.161   3.352   3.411 -0.0868 -0.1582 -0.0255
 1837TIP3    H1 5475   2.078   3.304   3.408 -0.1696  0.0217 -0.7858
 1837TIP3    H2 5476   2.220   3.295   3.460 -0.5761 -0.4202  0.2644
 1838TIP3   OH2 5477   6.534   0.702   2.577 -0.0720 -0.1821  0.0628
 1838TIP3    H1 5478   6.447   0.679   2.544 -0.1319 -0.9791  0.7443
 1838TIP3    H2 5479   6.559   0.628   2.632  1.3605 -0.2979 -0.6995
 1839TIP3   OH2 5480   4.065   5.740   4.369  0.1281 -0.2759  0.7519
 1839TIP3    H1 5481   4.037   5.831   4.366  0.5346 -0.1202  1.3825
 1839TIP3    H2 5482   4.013   5.696   4.302 -1.1957  0.1077  1.4894
 1840TIP3   OH2 5483   7.038   6.505   1.007 -0.0563 -0.4880  0.1241
 1840TIP3    H1 5484   7.012   6.561   1.080  0.1440 -0.4857  0.1939
 1840TIP3    H2 5485   7.059   6.420   1.047  0.2810 -0.4167  0.0964
 1841TIP3   OH2 5486   5.200   5.112   3.558 -0.2446  0.3538 -0.0086
 1841TIP3    H1 5487   5.221   5.128   3.466  0.7942 -0.7558  0.0073
 1841TIP3    H2 5488   5.151   5.029   3.557  2.9195 -1.6885  0.6825
 1842TIP3   OH2 5489   0.356   5.966   5.310 -0.4214 -0.4466 -0.1677
 1842TIP3    H1 5490   0.363   5.954   5.404 -0.2378  2.0894  0.2152
 1842TIP3    H2 5491   0.266   5.944   5.289 -0.4232 -1.1789  0.5592
 1843TIP3   OH2 5492   0.169   1.023   5.118 -0.4360  0.4032 -0.1872
 1843TIP3    H1 5493   0.249   0.976   5.093  1.1844  2.5385  0.6854
 1843TIP3    H2 5494   0.163   1.095   5.056 -1.5945  0.3943 -0.1053
 1844TIP3   OH2 5495   1.699   4.185   5.629 -0.2178 -0.1768 -0.0895
 1844TIP3    H1 5496   1.756   4.110   5.613  0.1870  0.3284 -1.1181
 1844TIP3    H2 5497   1.718   4.212   5.719  1.2978  0.0741 -0.4592
 1845TIP3   OH2 5498   5.090   0.734   5.473  0.0545  0.3169  0.0433
 1845TIP3    H1 5499   5.087   0.822   5.510  0.4960  0.2945  0.1381
 1845TIP3    H2 5500   5.008   0.693   5.503 -0.6418  1.0146 -0.8369
 1846TIP3   OH2 5501   6.316   6.724   0.030 -0.3689 -0.2659 -0.6097
 1846TIP3    H1 5502   6.292   6.795  -0.029 -0.6877 -0.3594 -0.5958
 1846TIP3    H2 5503   6.236   6.705   0.079 -0.0995 -0.1744 -0.1322
 1847TIP3   OH2 5504   1.579   1.828   3.731  0.5033  0.0217 -0.0808
 1847TIP3    H1 5505   1.573   1.810   3.825  2.2681  0.5411  0.1633
 1847TIP3    H2 5506   1.509   1.775   3.692 -0.5748  0.1915  1.5617
 1848TIP3   OH2 5507   5.432   3.968   2.465 -0.6239  0.1728 -0.7692
 1848TIP3    H1 5508   5.442   4.063   2.470 -0.7862  0.2273 -1.4457
 1848TIP3    H2 5509   5.521   3.935   2.449 -0.4862  0.1659 -0.0464
 1849TIP3   OH2 5510   1.610   5.251   4.641 -0.2688  0.0227 -0.5298
 1849TIP3    H1 5511   1.602   5.205   4.558  1.8567  3.3976 -2.8985
 1849TIP3    H2 5512   1.703   5.246   4.663 -0.5788  0.2853  0.9988
 1850TIP3   OH2 5513   1.717   1.559   0.244  0.0783 -0.1103  0.5611
 1850TIP3    H1 5514   1.684   1.625   0.305  0.7951 -0.3158  1.1850
 1850TIP3    H2 5515   1.706   1.599   0.157  0.1475  0.6685  0.9026
 1851TIP3   OH2 5516   1.988   4.778   1.277  0.1133 -0.5327 -0.4856
 1851TIP3    H1 5517   1.917   4.839   1.253 -0.1323 -0.1936  1.0046
 1851TIP3    H2 5518   2.039   4.768   1.197  0.0342  1.4887 -0.8413
 1852TIP3   OH2 5519   0.444   3.152   2.797 -0.2024  0.0901  0.7590
 1852TIP3    H1 5520   0.482   3.232   2.759  0.7539 -1.0972 -0.9298
 1852TIP3    H2 5521   0.367   3.134   2.742  0.6857 -1.1618 -0.1398
 1853TIP3   OH2 5522   6.294   0.089   2.127  0.4594  0.8496  0.4160
 1853TIP3    H1 5523   6.246   0.011   2.099 -0.3394  1.0622  1.1632
 1853TIP3    H2 5524   6.326   0.067   2.215  0.9819  1.0443  0.2782
 1854TIP3   OH2 5525   4.259   5.766   0.401 -0.2860  0.1040 -0.3021
 1854TIP3    H1 5526   4.287   5.743   0.490  0.5765 -0.8713 -0.8140
 1854TIP3    H2 5527   4.206   5.692   0.373 -0.0547  0.1361 -0.8243
 1855TIP3   OH2 5528   5.953   2.058   0.935  0.0389  0.1425  0.6115
 1855TIP3    H1 5529   6.039   2.053   0.894  0.4454  0.1513  1.4623
 1855TIP3    H2 5530   5.897   2.099   0.868  0.0871 -2.1013 -0.9246
 1856TIP3   OH2 5531   6.911   0.192   3.066 -0.3191 -0.2687  0.0566
 1856TIP3    H1 5532   6.954   0.141   3.135  2.5936  1.7912 -0.0846
 1856TIP3    H2 5533   6.931   0.144   2.986  3.3164  1.3848 -0.2086
 1857TIP3   OH2 5534   2.018   4.689   0.540 -0.3962 -0.2175 -0.1048
 1857TIP3    H1 5535   2.013   4.784   0.545  0.1021 -0.1684 -0.4390
 1857TIP3    H2 5536   2.098   4.667   0.588  0.9430 -0.2403 -2.1945
 1858TIP3   OH2 5537   5.532   4.798   2.633  0.3818  0.3493 -0.4318
 1858TIP3    H1 5538   5.525   4.854   2.556 -0.0260  0.8453 -0.0428
 1858TIP3    H2 5539   5.551   4.711   2.598  0.4353  0.6146 -1.0762
 1859TIP3   OH2 5540   1.743   6.160   2.412 -0.0990 -0.3442 -0.4746
 1859TIP3    H1 5541   1.749   6.101   2.338 -0.5942 -0.3194 -0.5370
 1859TIP3    H2 5542   1.737   6.103   2.489  0.0024 -0.3708 -0.4867
 1860TIP3   OH2 5543   6.076   1.141   0.110 -0.5341  0.4435  0.3689
 1860TIP3    H1 5544   6.043   1.212   0.165 -1.2412 -0.2511  0.8573
 1860TIP3    H2 5545   5.999   1.107   0.065 -0.1885  0.0296  0.0809
 1861TIP3   OH2 5546   1.726   6.632   5.682 -0.1583 -0.1188 -0.2400
 1861TIP3    H1 5547   1.679   6.714   5.690  0.5851  0.3017 -0.0684
 1861TIP3    H2 5548   1.661   6.564   5.701 -0.7492  0.4323 -0.2861
 1862TIP3   OH2 5549   5.688   0.863   4.147  0.2559 -0.2097 -0.0816
 1862TIP3    H1 5550   5.721   0.858   4.237 -1.3264  0.3434  0.5818
 1862TIP3    H2 5551   5.693   0.773   4.115 -0.2470 -0.6460  0.9943
 1863TIP3   OH2 5552   6.634   4.143   4.549 -0.0476 -0.2773  0.0019
 1863TIP3    H1 5553   6.638   4.226   4.502 -1.0907  0.9090  1.9003
 1863TIP3    H2 5554   6.722   4.129   4.581 -0.2517  1.0980  1.2477
 1864TIP3   OH2 5555   3.139   3.068   3.445  0.3714 -0.0734  0.3925
 1864TIP3    H1 5556   3.181   3.047   3.362 -0.9121 -1.2647  0.0211
 1864TIP3    H2 5557   3.086   3.145   3.427  0.7802  0.2034  0.3498
 1865TIP3   OH2 5558   6.996   5.909   1.449  0.0310  0.4906  0.1945
 1865TIP3    H1 5559   7.056   5.853   1.401 -0.5505  0.3187 -0.3421
 1865TIP3    H2 5560   6.970   5.856   1.525 -0.3415  0.1155 -0.1905
 1866TIP3   OH2 5561   1.415   6.651   5.491  0.4182  0.1058  0.1887
 1866TIP3    H1 5562   1.407   6.741   5.521  1.7826  0.9568 -1.8412
 1866TIP3    H2 5563   1.459   6.606   5.564  2.2095  1.7335  0.1888
 1867TIP3   OH2 5564   3.764   0.296   2.756 -0.0446 -0.4247  0.0920
 1867TIP3    H1 5565   3.735   0.385   2.737  1.6235 -0.0586 -0.9162
 1867TIP3    H2 5566   3.759   0.250   2.671 -0.0612 -1.0443  0.4200
 1868TIP3   OH2 5567   5.789   6.034   5.091  0.3183 -0.5939  0.3953
 1868TIP3    H1 5568   5.763   6.044   4.999  0.2832 -0.8628  0.3740
 1868TIP3    H2 5569   5.883   6.055   5.091  0.5136 -1.3968  0.1441
 1869TIP3   OH2 5570   2.336   0.885   0.324 -0.4099  0.3252  0.2699
 1869TIP3    H1 5571   2.389   0.806   0.313  0.7656  1.0834  0.4109
 1869TIP3    H2 5572   2.247   0.852   0.336 -0.1351 -0.9280 -0.9230
 1870TIP3   OH2 5573   2.880   6.025   1.475 -0.1820  0.8121 -0.1178
 1870TIP3    H1 5574   2.867   5.930   1.476  1.5773  0.5442  0.4798
 1870TIP3    H2 5575   2.916   6.043   1.388  0.4023  0.7957  0.1219
 1871TIP3   OH2 5576   5.985   1.723   5.211 -0.4367  0.5794 -0.0249
 1871TIP3    H1 5577   6.024   1.786   5.271 -1.3669  1.6570 -0.5069
 1871TIP3    H2 5578   6.057   1.699   5.152  0.6822 -1.0460  1.8791
 1872TIP3   OH2 5579   6.859   2.832   0.867 -0.4560  0.1887 -0.3546
 1872TIP3    H1 5580   6.916   2.900   0.903 -0.3228 -0.0546 -0.1081
 1872TIP3    H2 5581   6.883   2.827   0.775  0.5427 -0.5293 -0.0672
 1873TIP3   OH2 5582   6.588   2.104   0.262 -0.4411  0.1067 -0.1786
 1873TIP3    H1 5583   6.590   2.011   0.240  1.2405  0.5669 -2.1997
 1873TIP3    H2 5584   6.548   2.107   0.349 -0.7897 -2.4613 -0.1884
 1874TIP3   OH2 5585   4.416   0.951   2.954  0.0195 -0.1307  0.6092
 1874TIP3    H1 5586   4.353   1.002   3.005 -1.6645 -0.2082 -1.2652
 1874TIP3    H2 5587   4.456   1.015   2.895 -0.9098 -0.6263 -0.6151
 1875TIP3   OH2 5588   3.770   3.776   0.126  0.2098 -0.4420 -0.0242
 1875TIP3    H1 5589   3.702   3.717   0.159  0.6333 -1.1276 -0.3528
 1875TIP3    H2 5590   3.802   3.822   0.203 -1.2964  0.6251  0.0130
 1876TIP3   OH2 5591   0.454   6.380   0.519  0.3612 -0.1998 -0.0587
 1876TIP3    H1 5592   0.375   6.433   0.511  0.7230  0.4818  0.7398
 1876TIP3    H2 5593   0.526   6.441   0.505  0.7783 -0.5535  0.4904
 1877TIP3   OH2 5594   2.712   6.739   1.441 -0.0422 -0.0547  0.4686
 1877TIP3    H1 5595   2.773   6.667   1.422  1.0378  0.7919  0.6015
 1877TIP3    H2 5596   2.733   6.766   1.530  1.8154  2.4381 -0.5678
 1878TIP3   OH2 5597   3.408   6.431   4.422 -0.6050  0.2319 -0.2604
 1878TIP3    H1 5598   3.314   6.446   4.417 -0.7223 -0.7904 -2.9552
 1878TIP3    H2 5599   3.442   6.466   4.339  1.4095  0.5958  0.6534
 1879TIP3   OH2 5600   2.624   1.990   0.122 -0.1245  0.0810  0.0179
 1879TIP3    H1 5601   2.629   1.907   0.169 -0.2242  0.5767  0.9351
 1879TIP3    H2 5602   2.688   2.046   0.167 -0.6766  0.7608 -0.0230
 1880TIP3   OH2 5603   2.944   5.457   1.968  0.2489 -0.2268  0.0329
 1880TIP3    H1 5604   2.907   5.398   1.902 -2.4739  0.1130  1.1099
 1880TIP3    H2 5605   2.917   5.418   2.051  1.1888  0.8451  0.8658
 1881TIP3   OH2 5606   2.601   5.408   3.052 -0.3507  0.5995  0.0030
 1881TIP3    H1 5607   2.621   5.345   3.121 -2.1485 -0.1768 -0.1308
 1881TIP3    H2 5608   2.593   5.492   3.097 -0.7960  0.2242  0.6352
 1882TIP3   OH2 5609   7.067   4.525   3.501 -0.1553  0.3963  1.0393
 1882TIP3    H1 5610   6.978   4.492   3.514 -0.2138  0.0099 -0.2371
 1882TIP3    H2 5611   7.108   4.519   3.587 -1.6873  1.5735  1.9021
 1883TIP3   OH2 5612   5.340   5.889   2.874 -0.5167 -0.1032 -0.2034
 1883TIP3    H1 5613   5.409   5.953   2.893  0.9614 -1.8605  0.7445
 1883TIP3    H2 5614   5.339   5.882   2.779 -0.3684  0.9380 -0.2948
 1884TIP3   OH2 5615   1.573   2.885   0.192  0.3713 -0.0446 -0.4959
 1884TIP3    H1 5616   1.497   2.910   0.139 -0.0324 -0.8529 -0.3175
 1884TIP3    H2 5617   1.630   2.962   0.191 -1.4722  1.4585  1.2669
 1885TIP3   OH2 5618   4.770   5.263   3.608 -0.0523  0.4722  0.0322
 1885TIP3    H1 5619   4.762   5.185   3.553 -0.0289  0.9121 -0.6175
 1885TIP3    H2 5620   4.747   5.234   3.696  3.2839 -1.1017  0.5340
 1886TIP3   OH2 5621   4.777   4.941   4.667 -0.1061  0.2745 -0.1313
 1886TIP3    H1 5622   4.864   4.969   4.694  0.8019 -1.0340 -1.5042
 1886TIP3    H2 5623   4.765   4.855   4.708 -0.4979  0.1848 -0.4230
 1887TIP3   OH2 5624   5.578   4.821   2.197 -0.2309 -0.2611 -0.0604
 1887TIP3    H1 5625   5.525   4.773   2.260  0.4627  0.9320  1.4857
 1887TIP3    H2 5626   5.664   4.778   2.200  0.4489  1.1310  1.4723
 1888TIP3   OH2 5627   5.437   3.114   5.768  0.7995 -0.3314  0.4858
 1888TIP3    H1 5628   5.362   3.108   5.709  0.5854 -0.4692  0.7755
 1888TIP3    H2 5629   5.415   3.057   5.841  0.8940  0.1518  0.8961
 1889TIP3   OH2 5630   6.269   3.607   4.510 -0.4815  0.1748  0.3100
 1889TIP3    H1 5631   6.332   3.585   4.442  0.3762  0.1363  1.0912
 1889TIP3    H2 5632   6.280   3.702   4.522  1.6884 -0.2399  2.5453
 1890TIP3   OH2 5633   6.493   4.440   5.077  0.9389  0.1556 -0.7209
 1890TIP3    H1 5634   6.542   4.417   4.998  0.4758 -0.7482 -0.7567
 1890TIP3    H2 5635   6.532   4.387   5.146  1.1911  0.7734 -0.3839
 1891TIP3   OH2 5636   1.169   4.710   5.745  0.0442 -0.2192  0.2976
 1891TIP3    H1 5637   1.243   4.718   5.806  1.7067  0.3922 -1.6555
 1891TIP3    H2 5638   1.130   4.625   5.765  1.6767 -0.8432  0.9985
 1892TIP3   OH2 5639   6.454   4.210   0.438 -0.0748 -0.4041 -0.4298
 1892TIP3    H1 5640   6.400   4.146   0.392  0.3165 -0.0853 -1.3351
 1892TIP3    H2 5641   6.392   4.276   0.469 -0.0483  1.0386 -3.2023
 1893TIP3   OH2 5642   1.229   1.175   4.942  0.2840  0.4593  0.4416
 1893TIP3    H1 5643   1.302   1.189   5.003  1.0285 -0.2679 -0.2428
 1893TIP3    H2 5644   1.220   1.079   4.937  0.8224  0.4540 -1.2215
 1894TIP3   OH2 5645   6.002   6.218   4.686  0.0550  0.3951  0.2601
 1894TIP3    H1 5646   6.078   6.235   4.631 -1.5768  1.0527 -1.9593
 1894TIP3    H2 5647   5.988   6.123   4.678  0.0641  0.4249 -0.1632
 1895TIP3   OH2 5648   1.425   6.643   2.278  0.0127 -0.5854 -0.0721
 1895TIP3    H1 5649   1.371   6.616   2.352  0.6816 -1.0214  0.2612
 1895TIP3    H2 5650   1.486   6.708   2.315 -1.1536  0.9525 -0.7274
 1896TIP3   OH2 5651   5.038   3.729   1.280 -0.4037  0.7351  0.2471
 1896TIP3    H1 5652   5.047   3.640   1.312  0.1564  0.4361 -0.7181
 1896TIP3    H2 5653   5.115   3.775   1.314  1.3990 -0.1271 -2.3702
 1897TIP3   OH2 5654   6.047   5.168   2.314 -0.9000 -0.3124  0.3202
 1897TIP3    H1 5655   6.049   5.145   2.221 -0.4358  0.8323  0.0248
 1897TIP3    H2 5656   6.058   5.085   2.360 -1.4359 -0.9248 -0.6406
 1898TIP3   OH2 5657   5.056   6.096   4.694  0.0040 -0.5119  0.2952
 1898TIP3    H1 5658   5.061   6.032   4.623  1.3297 -1.8754  1.5312
 1898TIP3    H2 5659   4.999   6.054   4.759 -0.6506  0.4177  0.3322
 1899TIP3   OH2 5660   6.226   0.333   5.080 -0.3197 -0.0304 -0.0055
 1899TIP3    H1 5661   6.203   0.282   5.003 -0.0362 -1.2103  0.6655
 1899TIP3    H2 5662   6.220   0.424   5.051 -1.1473 -0.4205 -1.1428
 1900TIP3   OH2 5663   2.805   1.756   2.290  0.0348  0.7456 -0.0709
 1900TIP3    H1 5664   2.754   1.678   2.314  0.7103 -0.1798 -1.5465
 1900TIP3    H2 5665   2.884   1.722   2.249  0.4517  2.2122 -0.5546
 1901TIP3   OH2 5666   6.709   5.035   1.408  0.5047  0.0472 -0.0951
 1901TIP3    H1 5667   6.664   5.097   1.351  2.1583 -1.4566 -3.2763
 1901TIP3    H2 5668   6.667   5.047   1.494 -2.8250  1.7745 -1.7725
 1902TIP3   OH2 5669   2.439   4.298   2.006 -0.1321 -0.6368 -0.1576
 1902TIP3    H1 5670   2.456   4.212   2.044  0.3431 -0.1967  0.6466
 1902TIP3    H2 5671   2.377   4.339   2.066  1.2572  0.3814  0.6359
 1903TIP3   OH2 5672   3.708   2.810   1.889 -0.2146 -0.3051  0.6794
 1903TIP3    H1 5673   3.695   2.903   1.908  1.2078 -0.2925  1.7789
 1903TIP3    H2 5674   3.784   2.807   1.831 -1.0111 -0.7353 -0.3814
 1904TIP3   OH2 5675   2.262   3.102   2.738 -0.3886 -0.3290 -0.4855
 1904TIP3    H1 5676   2.326   3.139   2.677 -1.0313 -0.1663 -1.0766
 1904TIP3    H2 5677   2.179   3.108   2.691 -0.9005 -0.1615  0.4317
 1905TIP3   OH2 5678   4.255   0.490   5.646  0.3822 -0.2966 -0.2468
 1905TIP3    H1 5679   4.332   0.499   5.703  0.7299 -0.5728 -0.6732
 1905TIP3    H2 5680   4.263   0.402   5.608  1.1020  0.5312 -2.1062
 1906TIP3   OH2 5681   1.105   2.751   4.101 -0.7826 -0.5013  0.4429
 1906TIP3    H1 5682   1.136   2.842   4.102  0.2923 -0.8361  2.0393
 1906TIP3    H2 5683   1.104   2.727   4.008  1.5777  0.2995  0.1439
 1907TIP3   OH2 5684   1.414   3.865   3.675 -0.6043 -0.2022 -0.0292
 1907TIP3    H1 5685   1.495   3.837   3.631 -0.0977  0.7261  0.3002
 1907TIP3    H2 5686   1.442   3.892   3.763 -0.8820  2.4314 -0.6901
 1908TIP3   OH2 5687   4.922   3.253   2.105  0.2705 -0.2620  1.0604
 1908TIP3    H1 5688   4.922   3.187   2.036  0.2641  0.5079  0.3111
 1908TIP3    H2 5689   4.852   3.225   2.165  0.0997 -0.7903  0.6201
 1909TIP3   OH2 5690   4.622   2.915   1.529  0.0351 -0.1736  0.3558
 1909TIP3    H1 5691   4.546   2.905   1.472  0.0080 -0.7996  0.4951
 1909TIP3    H2 5692   4.595   2.874   1.612  0.3124  0.1265  0.5952
 1910TIP3   OH2 5693   2.082   5.790   1.419 -0.3648  0.2238 -0.0275
 1910TIP3    H1 5694   1.993   5.757   1.429 -0.7127  1.3775  0.8920
 1910TIP3    H2 5695   2.076   5.858   1.352 -0.5600  1.5630  1.2950
 1911TIP3   OH2 5696   3.706   2.413   4.862  0.1952 -0.4136 -0.1180
 1911TIP3    H1 5697   3.694   2.459   4.780 -0.7842 -1.4727 -0.5909
 1911TIP3    H2 5698   3.799   2.421   4.881  0.1191  1.4273 -0.3536
 1912TIP3   OH2 5699   6.219   3.920   4.324 -0.2355  0.0540 -0.0987
 1912TIP3    H1 5700   6.197   3.891   4.413 -3.7129 -0.2676 -0.9292
 1912TIP3    H2 5701   6.274   3.997   4.337  1.1048 -1.1891  2.2509
 1913TIP3   OH2 5702   0.409   1.946   1.335  0.7244 -0.5275  0.6339
 1913TIP3    H1 5703   0.344   1.990   1.281  0.2115 -0.4878  1.2702
 1913TIP3    H2 5704   0.407   1.992   1.419  2.5943  0.3927  0.2248
 1914TIP3   OH2 5705   2.015   2.633   1.705 -0.9032 -0.0151 -0.0346
 1914TIP3    H1 5706   2.065   2.551   1.710  0.4715  0.7307 -0.8613
 1914TIP3    H2 5707   2.025   2.672   1.791  0.5535  0.4211 -0.3562
 1915TIP3   OH2 5708   2.499   0.908   0.675  0.0571  0.0553 -0.3056
 1915TIP3    H1 5709   2.576   0.935   0.624 -0.4750  2.5135  0.1147
 1915TIP3    H2 5710   2.498   0.966   0.751  0.4386 -3.0513  2.3088
 1916TIP3   OH2 5711   3.060   0.347   5.399 -0.0106 -0.7299  0.1444
 1916TIP3    H1 5712   3.020   0.291   5.332  1.4460 -0.8692 -0.6574
 1916TIP3    H2 5713   3.057   0.435   5.360  0.2702 -0.7084  0.1742
 1917TIP3   OH2 5714   2.699   2.132   3.721  0.0436 -0.1709 -0.1638
 1917TIP3    H1 5715   2.741   2.049   3.700 -0.0659 -0.3132  0.1764
 1917TIP3    H2 5716   2.771   2.191   3.742  0.0915 -0.3524  0.1962
 1918TIP3   OH2 5717   0.715   4.350   4.225 -0.3359  0.0403  0.1579
 1918TIP3    H1 5718   0.810   4.351   4.216  0.4472 -0.3998  5.3261
 1918TIP3    H2 5719   0.688   4.438   4.197  1.5546  0.2688 -1.1550
 1919TIP3   OH2 5720   5.365   5.773   5.280  0.1036 -0.9112  0.1957
 1919TIP3    H1 5721   5.400   5.723   5.207 -0.3272 -0.4369 -0.3404
 1919TIP3    H2 5722   5.363   5.864   5.249 -0.7950 -0.8121  0.5119
 1920TIP3   OH2 5723   1.886   6.110   1.598  0.1678 -0.2147 -0.4523
 1920TIP3    H1 5724   1.889   6.166   1.675  0.8171 -1.1981  0.2573
 1920TIP3    H2 5725   1.902   6.169   1.524  1.3070  0.4578  0.3104
 1921TIP3   OH2 5726   4.688   2.727   2.366 -0.1024  0.9129  0.1925
 1921TIP3    H1 5727   4.725   2.809   2.333 -0.0041  0.6716 -0.3016
 1921TIP3    H2 5728   4.639   2.753   2.444  2.2302  1.0561  1.7254
 1922TIP3   OH2 5729   3.327   2.298   5.045  0.1633 -0.3434 -0.0145
 1922TIP3    H1 5730   3.400   2.262   4.996 -0.5952 -0.7253 -0.9014
 1922TIP3    H2 5731   3.329   2.251   5.129  1.2533  0.0574  0.1940
 1923TIP3   OH2 5732   6.479   6.411   1.305  0.7461  0.3663 -0.1125
 1923TIP3    H1 5733   6.386   6.389   1.311  0.6312  0.9762  0.5480
 1923TIP3    H2 5734   6.503   6.438   1.394  1.9674 -1.3306  0.1366
 1924TIP3   OH2 5735   2.431   0.528   2.184  0.0138 -0.4617 -0.0568
 1924TIP3    H1 5736   2.374   0.572   2.247  1.2880  1.1072  0.0513
 1924TIP3    H2 5737   2.379   0.523   2.104  0.3650  2.8518 -0.6153
 1925TIP3   OH2 5738   0.340   5.686   2.411 -0.3362 -0.0058 -0.2309
 1925TIP3    H1 5739   0.430   5.657   2.396 -0.3134 -0.0255 -0.0557
 1925TIP3    H2 5740   0.287   5.607   2.402 -0.2235 -0.1954  0.7244
 1926TIP3   OH2 5741   0.672   2.657   1.216  0.2501 -0.1325 -0.0109
 1926TIP3    H1 5742   0.604   2.603   1.176 -0.7351  0.4309  0.8486
 1926TIP3    H2 5743   0.693   2.614   1.298 -1.4956  1.4180  1.3220
 1927TIP3   OH2 5744   4.536   6.039   2.891  0.2070 -0.0823  0.3776
 1927TIP3    H1 5745   4.529   6.123   2.935  2.0478  1.2743 -1.6908
 1927TIP3    H2 5746   4.630   6.020   2.890  0.0662 -0.9262 -1.3081
 1928TIP3   OH2 5747   1.498   0.698   2.982 -0.3963  0.1750 -0.0431
 1928TIP3    H1 5748   1.460   0.636   3.044  0.5199 -1.5953 -1.1609
 1928TIP3    H2 5749   1.593   0.687   2.992 -0.2256  0.5440 -1.0971
 1929TIP3   OH2 5750   5.600   3.898   5.437 -0.0873  0.0786  0.2485
 1929TIP3    H1 5751   5.582   3.981   5.391  0.6739  0.1079 -0.0148
 1929TIP3    H2 5752   5.520   3.847   5.426  0.1875 -0.0523 -1.4482
 1930TIP3   OH2 5753   2.543   3.259   1.093 -0.5142  0.2650 -0.2273
 1930TIP3    H1 5754   2.533   3.233   1.185  0.1682 -1.9366 -0.7006
 1930TIP3    H2 5755   2.598   3.337   1.095 -0.4475  0.1993  1.2314
 1931TIP3   OH2 5756   6.205   4.072   5.016  0.2502 -0.5764 -0.9696
 1931TIP3    H1 5757   6.247   4.132   5.077  0.6613 -1.7415 -0.0795
 1931TIP3    H2 5758   6.119   4.054   5.054 -0.1137 -0.1093 -1.5416
 1932TIP3   OH2 5759   3.291   0.527   3.643 -0.3946 -0.3919 -0.3000
 1932TIP3    H1 5760   3.250   0.545   3.559 -0.3975 -0.2997 -0.2790
 1932TIP3    H2 5761   3.355   0.597   3.655  1.4639 -1.8229 -1.4146
 1933TIP3   OH2 5762   6.116   3.741   2.984  0.1425 -0.3610 -0.2214
 1933TIP3    H1 5763   6.140   3.676   2.918 -2.3232 -0.1520 -1.4716
 1933TIP3    H2 5764   6.161   3.821   2.957 -1.1906 -0.1543 -2.0435
 1934TIP3   OH2 5765   2.985   2.425   1.043 -0.5071 -0.3213  0.1489
 1934TIP3    H1 5766   3.025   2.502   1.085  1.7059 -1.3053 -0.0315
 1934TIP3    H2 5767   2.951   2.458   0.960 -1.0991  0.7843  0.8058
 1935TIP3   OH2 5768   1.458   1.193   3.044  0.0182  0.0417  0.0505
 1935TIP3    H1 5769   1.521   1.125   3.018  0.6854  0.5231  0.3776
 1935TIP3    H2 5770   1.485   1.271   2.996 -0.1654  0.3210  0.3946
 1936TIP3   OH2 5771   4.294   1.210   0.429  0.4451  0.4590  0.0804
 1936TIP3    H1 5772   4.212   1.181   0.469 -0.6640  1.5977 -1.2360
 1936TIP3    H2 5773   4.320   1.286   0.482  0.5455  0.2134  0.3846
 1937TIP3   OH2 5774   2.077   0.567   0.732  0.0037 -0.1778 -0.2359
 1937TIP3    H1 5775   2.160   0.607   0.705 -0.7321  1.0508 -0.7444
 1937TIP3    H2 5776   2.068   0.491   0.675  0.8918 -0.4751 -0.0036
 1938TIP3   OH2 5777   3.453   4.694   3.150  0.5323  0.2303  0.0930
 1938TIP3    H1 5778   3.400   4.773   3.142  0.9577  0.4189 -1.2128
 1938TIP3    H2 5779   3.423   4.652   3.231 -2.6176 -0.4380 -1.2844
 1939TIP3   OH2 5780   5.378   6.208   5.477 -0.0583 -0.1036 -0.2122
 1939TIP3    H1 5781   5.442   6.279   5.488  0.5164 -0.6766  0.2218
 1939TIP3    H2 5782   5.338   6.199   5.564 -1.7991  1.2162 -0.8023
 1940TIP3   OH2 5783   1.031   5.420   5.203 -0.1142  0.5896  0.2790
 1940TIP3    H1 5784   1.041   5.449   5.112 -0.4035 -0.0279  0.0475
 1940TIP3    H2 5785   1.026   5.502   5.253 -0.4127  0.9422 -0.3117
 1941TIP3   OH2 5786   0.509   5.935   1.656  0.4015  0.1059 -0.0984
 1941TIP3    H1 5787   0.509   5.879   1.579  1.1409 -0.5626  0.3775
 1941TIP3    H2 5788   0.425   5.916   1.699 -0.1666  0.7307 -0.8925
 1942TIP3   OH2 5789   2.169   0.234   2.511  0.2462  0.0318 -0.0663
 1942TIP3    H1 5790   2.218   0.168   2.559 -2.0666 -0.1572  2.2447
 1942TIP3    H2 5791   2.208   0.317   2.538  1.8682 -0.2105 -1.4602
 1943TIP3   OH2 5792   5.802   2.462   5.613 -0.3577  0.1899  0.4497
 1943TIP3    H1 5793   5.746   2.445   5.689 -2.0227  2.0576 -0.2688
 1943TIP3    H2 5794   5.807   2.557   5.609  1.1019  0.0829 -0.8206
 1944TIP3   OH2 5795   5.994   3.597   2.053 -0.2093 -0.7049 -0.3023
 1944TIP3    H1 5796   6.076   3.561   2.017  0.8304  0.0928  1.1790
 1944TIP3    H2 5797   5.958   3.525   2.104  0.0753 -0.7448 -0.1546
 1945TIP3   OH2 5798   4.945   0.505   3.896 -0.4946  0.2400 -0.3442
 1945TIP3    H1 5799   5.029   0.517   3.853  0.2820 -2.6029  0.1565
 1945TIP3    H2 5800   4.931   0.586   3.945  1.9833  0.7669 -0.3928
 1946TIP3   OH2 5801   2.385   5.380   0.863  0.2625 -0.3215  0.0457
 1946TIP3    H1 5802   2.435   5.315   0.912  1.6621 -0.5867 -1.6290
 1946TIP3    H2 5803   2.387   5.458   0.918  2.5931 -0.3107  0.0760
 1947TIP3   OH2 5804   7.244   3.794   4.155 -0.2831  0.5063 -0.2151
 1947TIP3    H1 5805   7.198   3.753   4.081  1.5443 -1.4301 -0.3654
 1947TIP3    H2 5806   7.181   3.856   4.191 -1.2039  1.7258 -3.5249
 1948TIP3   OH2 5807   0.324   6.472   5.483  0.3633  0.2318 -0.4289
 1948TIP3    H1 5808   0.343   6.406   5.416  0.2856 -0.6125  0.3669
 1948TIP3    H2 5809   0.402   6.528   5.484  1.3054 -1.0653  0.3082
 1949TIP3   OH2 5810   3.189   1.822   3.237 -0.5087 -0.0226  0.3178
 1949TIP3    H1 5811   3.173   1.728   3.246 -2.5981  0.2563 -0.0416
 1949TIP3    H2 5812   3.283   1.828   3.220 -0.1871 -1.9792  1.0777
 1950TIP3   OH2 5813   1.345   5.229   0.413  0.1571  0.1374  0.2731
 1950TIP3    H1 5814   1.348   5.234   0.509 -3.0474 -0.6014  0.5145
 1950TIP3    H2 5815   1.382   5.143   0.392  1.8420  0.7114  0.6885
 1951TIP3   OH2 5816   5.880   6.579   1.212  0.1631 -0.1306 -0.2705
 1951TIP3    H1 5817   5.943   6.528   1.264 -1.8385 -1.2902  1.1449
 1951TIP3    H2 5818   5.845   6.643   1.274 -1.5190 -0.8497 -0.4477
 1952TIP3   OH2 5819   3.468   0.300   4.936  0.7384  0.0337 -0.6111
 1952TIP3    H1 5820   3.505   0.239   5.000 -0.6075  0.2632  0.4192
 1952TIP3    H2 5821   3.387   0.332   4.976 -0.0208  0.3806 -2.3209
 1953TIP3   OH2 5822   5.466   6.556   5.274 -0.0218  0.1715  0.1380
 1953TIP3    H1 5823   5.377   6.592   5.270 -0.3141 -0.6007 -1.2162
 1953TIP3    H2 5824   5.454   6.462   5.258  1.1035  0.2102 -1.0805
 1954TIP3   OH2 5825   1.855   4.497   1.316  0.4512 -0.3817  0.1019
 1954TIP3    H1 5826   1.834   4.499   1.222 -0.4397  0.9107  0.2951
 1954TIP3    H2 5827   1.923   4.563   1.326  2.3052 -2.1907  0.0279
 1955TIP3   OH2 5828   3.969   1.212   3.113  0.4379  0.6368 -0.0430
 1955TIP3    H1 5829   4.058   1.178   3.104 -0.4074 -2.3272  1.4465
 1955TIP3    H2 5830   3.963   1.238   3.205 -0.2007  0.8803 -0.1508
 1956TIP3   OH2 5831   5.291   5.587   0.399  0.1232  0.5862 -0.0756
 1956TIP3    H1 5832   5.210   5.598   0.349  0.9538 -0.4401 -1.7258
 1956TIP3    H2 5833   5.336   5.671   0.390  0.2533  0.4200 -1.0718
 1957TIP3   OH2 5834   6.001   1.294   5.282 -0.5724 -0.4778 -0.0106
 1957TIP3    H1 5835   5.946   1.365   5.317  0.2997 -0.7039  1.9277
 1957TIP3    H2 5836   5.958   1.269   5.200 -1.4311  1.6388 -0.2586
 1958TIP3   OH2 5837   1.087   4.492   1.608 -0.0523  0.0837  0.1071
 1958TIP3    H1 5838   1.107   4.579   1.575 -0.8013 -0.2192 -1.2494
 1958TIP3    H2 5839   1.078   4.503   1.702 -0.1739  1.4869 -0.0465
 1959TIP3   OH2 5840   0.183   4.203   3.586  0.2332  0.3661 -0.5572
 1959TIP3    H1 5841   0.224   4.125   3.623 -2.1735 -0.1100  1.3264
 1959TIP3    H2 5842   0.250   4.271   3.596  1.3652 -0.8201  0.3900
 1960TIP3   OH2 5843   7.050   1.629   2.621  0.1460 -0.3458  0.2757
 1960TIP3    H1 5844   6.989   1.563   2.655 -1.4219  0.3649 -1.0061
 1960TIP3    H2 5845   7.132   1.582   2.607 -0.3182 -1.5230  1.3035
 1961TIP3   OH2 5846   6.345   0.866   0.643 -0.2442 -0.0450 -0.1350
 1961TIP3    H1 5847   6.283   0.908   0.584 -0.3409  0.8377  0.5725
 1961TIP3    H2 5848   6.316   0.775   0.649 -1.4486  0.3469  0.1490
 1962TIP3   OH2 5849   4.561   1.452   1.905  0.0020  0.2337 -0.0104
 1962TIP3    H1 5850   4.602   1.507   1.838  1.7701 -1.5374 -0.4994
 1962TIP3    H2 5851   4.475   1.431   1.871  0.3476  0.5051 -1.0846
 1963TIP3   OH2 5852   2.365   3.631   0.827  0.5942 -0.3647 -0.2164
 1963TIP3    H1 5853   2.443   3.677   0.796  0.2972  0.2643 -0.0440
 1963TIP3    H2 5854   2.310   3.699   0.865 -0.4698 -0.6628 -1.1657
 1964TIP3   OH2 5855   4.218   6.812   2.315  0.3144  0.1796 -0.1383
 1964TIP3    H1 5856   4.289   6.851   2.264  0.6454 -1.1138 -0.7018
 1964TIP3    H2 5857   4.191   6.736   2.265 -1.0257  0.2566  0.4183
 1965TIP3   OH2 5858   7.109   5.286   0.005 -0.2274  0.4946 -0.0404
 1965TIP3    H1 5859   7.038   5.238   0.046 -0.8202  1.4541  0.0946
 1965TIP3    H2 5860   7.123   5.361   0.063 -0.1647  1.1468 -0.8856
 1966TIP3   OH2 5861   6.549   5.328   4.851 -0.1274  0.0760  0.1043
 1966TIP3    H1 5862   6.630   5.350   4.898  0.4176 -0.4494 -0.5506
 1966TIP3    H2 5863   6.491   5.293   4.918  0.5484 -0.4424  0.4353
 1967TIP3   OH2 5864   2.649   5.012   4.044  0.1230 -0.0990  0.5456
 1967TIP3    H1 5865   2.601   4.932   4.026 -0.7613  1.0033 -2.6385
 1967TIP3    H2 5866   2.583   5.073   4.077 -0.0984  0.4596 -0.8447
 1968TIP3   OH2 5867   5.151   6.067   1.162  0.2245 -0.4268  0.1579
 1968TIP3    H1 5868   5.137   6.135   1.228 -0.0083 -1.9120  1.6950
 1968TIP3    H2 5869   5.230   6.095   1.115  0.8506  0.2941  1.5710
 1969TIP3   OH2 5870   4.058   5.522   0.223 -0.2459  0.1311  0.0227
 1969TIP3    H1 5871   4.084   5.507   0.132  1.1691 -0.4343  0.4878
 1969TIP3    H2 5872   4.138   5.509   0.273 -0.8992  0.8943  1.3187
 1970TIP3   OH2 5873   3.607   4.127   2.855  0.6461 -0.1795 -0.1106
 1970TIP3    H1 5874   3.616   4.034   2.832  0.7435  0.0321 -0.9463
 1970TIP3    H2 5875   3.515   4.136   2.880  0.2521 -0.2054 -1.4667
 1971TIP3   OH2 5876   0.668   3.287   2.473 -0.5073 -0.2608 -0.3061
 1971TIP3    H1 5877   0.730   3.262   2.542  2.1561  1.6354 -1.8003
 1971TIP3    H2 5878   0.670   3.214   2.412 -1.6162 -1.2241  0.7505
 1972TIP3   OH2 5879   4.842   4.416   0.306 -0.3045  0.2930 -0.4498
 1972TIP3    H1 5880   4.748   4.404   0.311 -0.4439  1.5422  0.4449
 1972TIP3    H2 5881   4.877   4.330   0.285 -1.4911 -0.6611  1.2690
 1973TIP3   OH2 5882   4.038   5.405   1.608  0.6974 -0.5019  0.0374
 1973TIP3    H1 5883   4.103   5.423   1.676  0.7131  0.7582 -0.2954
 1973TIP3    H2 5884   4.089   5.392   1.528  0.5788 -0.2067 -0.0865
 1974TIP3   OH2 5885   6.730   2.186   3.015  0.0264 -0.1805  0.6907
 1974TIP3    H1 5886   6.823   2.182   2.993 -0.3550 -0.5817 -1.0449
 1974TIP3    H2 5887   6.727   2.185   3.110  1.7167 -2.1578  0.7843
 1975TIP3   OH2 5888   3.970   6.475   5.420  0.4732  0.2159  0.4485
 1975TIP3    H1 5889   4.015   6.521   5.349  0.5273  1.4181  1.2281
 1975TIP3    H2 5890   4.040   6.431   5.468  0.4907 -0.1910  0.0593
 1976TIP3   OH2 5891   2.318   3.994   0.766  0.2989  0.2759 -0.2876
 1976TIP3    H1 5892   2.316   4.034   0.852  1.8073  0.0652 -0.1252
 1976TIP3    H2 5893   2.263   4.050   0.712 -3.3866 -1.3039  1.4419
 1977TIP3   OH2 5894   7.093   5.153   3.653  0.0065  0.1196 -0.7975
 1977TIP3    H1 5895   7.135   5.069   3.672  0.1977  0.3217 -0.3242
 1977TIP3    H2 5896   7.011   5.129   3.609 -0.8107 -0.3895  0.9225
 1978TIP3   OH2 5897   3.978   0.103   1.042  0.4992  0.3840 -0.1590
 1978TIP3    H1 5898   4.021   0.184   1.014 -0.6622  1.4865  1.1304
 1978TIP3    H2 5899   3.897   0.100   0.991  0.8561 -0.3511 -0.7033
 1979TIP3   OH2 5900   3.436   3.676   5.125  0.0370 -0.2775 -0.7188
 1979TIP3    H1 5901   3.460   3.748   5.066  1.5265  0.6369  0.9055
 1979TIP3    H2 5902   3.513   3.619   5.126 -1.2088 -2.1302 -2.1827
 1980TIP3   OH2 5903   1.373   2.544   3.418  0.7561 -0.2687 -0.2372
 1980TIP3    H1 5904   1.320   2.465   3.425 -0.2894  0.5264  1.3422
 1980TIP3    H2 5905   1.356   2.576   3.329  0.8977 -1.5770 -0.7583
 1981TIP3   OH2 5906   7.042   1.209   1.344 -0.1306  0.0928  0.2751
 1981TIP3    H1 5907   7.099   1.155   1.399 -0.8420 -0.8732  0.0973
 1981TIP3    H2 5908   7.090   1.292   1.334  0.1853  0.1590  2.0168
 1982TIP3   OH2 5909   1.147   6.378   3.547 -0.1941  0.4491  0.0816
 1982TIP3    H1 5910   1.218   6.425   3.590  0.4366  0.4014 -0.8604
 1982TIP3    H2 5911   1.143   6.294   3.593  1.4737 -0.2081 -0.8538
 1983TIP3   OH2 5912   2.740   0.750   2.228 -0.3665  0.4826 -0.1043
 1983TIP3    H1 5913   2.804   0.804   2.274 -2.1864  1.3176  1.6023
 1983TIP3    H2 5914   2.789   0.712   2.154  1.7734  1.9092  0.4848
 1984TIP3   OH2 5915   1.566   2.828   0.461  0.0072  0.6974 -0.0906
 1984TIP3    H1 5916   1.563   2.845   0.367 -0.8717  2.1951  0.1877
 1984TIP3    H2 5917   1.486   2.867   0.496  0.5546  0.6053  1.3526
 1985TIP3   OH2 5918   4.484   1.011   5.245 -0.0591 -0.3631 -0.5762
 1985TIP3    H1 5919   4.531   0.965   5.176 -0.1722 -1.1991 -0.1064
 1985TIP3    H2 5920   4.446   0.942   5.299 -0.6870  0.2848 -0.1633
 1986TIP3   OH2 5921   2.281   2.370   5.009  0.3591  0.1547  0.3016
 1986TIP3    H1 5922   2.238   2.423   4.942  0.6808  0.5798  0.4256
 1986TIP3    H2 5923   2.316   2.434   5.071 -1.1751 -0.2675  1.6659
 1987TIP3   OH2 5924   1.201   6.626   0.471 -0.1013  0.0323  0.0573
 1987TIP3    H1 5925   1.297   6.617   0.468 -0.0469  0.5607  0.2245
 1987TIP3    H2 5926   1.171   6.571   0.399  0.2978 -0.5448  0.3178
 1988TIP3   OH2 5927   1.158   1.453   3.335 -0.0382 -0.2733 -0.1525
 1988TIP3    H1 5928   1.132   1.378   3.388  0.8768 -0.2152  0.4001
 1988TIP3    H2 5929   1.161   1.526   3.397 -0.1103  0.0460 -0.5214
 1989TIP3   OH2 5930   1.908   2.998   1.494 -0.3652 -0.0660  0.4538
 1989TIP3    H1 5931   1.849   2.977   1.422 -0.8424 -0.0140  0.8228
 1989TIP3    H2 5932   1.929   2.914   1.534 -0.5560 -0.0426  0.6042
 1990TIP3   OH2 5933   6.287   4.309   4.065  0.2284 -0.0908 -0.0124
 1990TIP3    H1 5934   6.377   4.339   4.053  0.9351 -2.4981 -1.5585
 1990TIP3    H2 5935   6.285   4.272   4.153  1.0085 -0.6638 -0.2210
 1991TIP3   OH2 5936   7.007   5.079   3.099  0.7037 -0.3775  0.2732
 1991TIP3    H1 5937   7.007   5.159   3.047 -1.6620 -0.1853  0.4878
 1991TIP3    H2 5938   7.025   5.108   3.188  0.8951 -0.2432  0.1933
 1992TIP3   OH2 5939   1.865   1.459   5.826 -0.3265  0.4571 -0.1210
 1992TIP3    H1 5940   1.915   1.408   5.890 -1.8977  0.2381  0.9844
 1992TIP3    H2 5941   1.890   1.421   5.742  1.2450  0.2772  0.3961
 1993TIP3   OH2 5942   1.993   4.974   2.623  0.3599  0.1604  0.1471
 1993TIP3    H1 5943   1.934   4.936   2.689  1.7567 -0.9898  0.8044
 1993TIP3    H2 5944   1.935   5.010   2.556 -1.1278  1.7380  2.1791
 1994TIP3   OH2 5945   0.111   6.607   4.276 -0.1983 -0.1451  0.0366
 1994TIP3    H1 5946   0.019   6.607   4.305 -0.6377 -2.4968 -1.1186
 1994TIP3    H2 5947   0.161   6.598   4.357 -1.0708 -0.4066  0.5656
 1995TIP3   OH2 5948   4.898   3.405   0.881 -0.2582 -0.3992  0.1059
 1995TIP3    H1 5949   4.850   3.479   0.843  0.3584 -0.0687 -0.0352
 1995TIP3    H2 5950   4.988   3.415   0.850 -0.2462 -1.4374 -0.2567
 1996TIP3   OH2 5951   2.296   3.518   1.729 -0.5423 -0.0089 -0.1930
 1996TIP3    H1 5952   2.229   3.538   1.663 -1.3371 -0.1041  0.5677
 1996TIP3    H2 5953   2.323   3.428   1.709 -0.3940  0.1459 -0.7056
 1997TIP3   OH2 5954   3.731   5.087   2.994 -0.2785  0.3039 -0.6880
 1997TIP3    H1 5955   3.749   5.007   3.044  0.4075  0.9712  0.1532
 1997TIP3    H2 5956   3.636   5.099   2.999 -0.2065  0.4025  0.5202
 1998TIP3   OH2 5957   5.702   2.114   4.626 -0.0557 -0.2821 -0.6759
 1998TIP3    H1 5958   5.678   2.184   4.565 -0.2780 -1.5624 -2.1140
 1998TIP3    H2 5959   5.796   2.125   4.639 -0.3521  1.3238  0.5333
 1999TIP3   OH2 5960   1.695   3.666   3.590 -0.7631 -0.7309  0.1914
 1999TIP3    H1 5961   1.785   3.639   3.571 -1.2054 -1.3544 -1.1045
 1999TIP3    H2 5962   1.660   3.595   3.644 -0.4417 -0.3977  0.8601
 2000TIP3   OH2 5963   0.897   5.014   2.218  0.0580  0.0990 -0.2158
 2000TIP3    H1 5964   0.875   5.027   2.126  1.4877 -0.4119 -0.6550
 2000TIP3    H2 5965   0.830   5.064   2.266 -1.0504 -0.1043 -1.4927
 2001TIP3   OH2 5966   6.583   0.679   2.971 -0.0944  0.4471  0.0909
 2001TIP3    H1 5967   6.674   0.704   2.986  0.1149 -1.7473  3.7026
 2001TIP3    H2 5968   6.588   0.612   2.902  1.0196  0.4108  0.1920
 2002TIP3   OH2 5969   4.212   5.159   2.362  0.0256 -0.0286  0.3401
 2002TIP3    H1 5970   4.197   5.194   2.273  1.3092  1.3426  0.6295
 2002TIP3    H2 5971   4.128   5.172   2.406  0.0783  1.6072  0.0455
 2003TIP3   OH2 5972   3.190   1.936   5.170 -0.8295 -0.3729  0.5377
 2003TIP3    H1 5973   3.278   1.959   5.143 -0.5502 -0.4802  1.3364
 2003TIP3    H2 5974   3.137   1.949   5.092  0.1427 -1.7942 -0.3948
 2004TIP3   OH2 5975   0.248   4.274   3.144 -0.2549  0.2572 -0.1247
 2004TIP3    H1 5976   0.342   4.260   3.146 -0.3465 -0.7048 -1.2596
 2004TIP3    H2 5977   0.237   4.362   3.108  0.1885  0.0777 -0.6974
 2005TIP3   OH2 5978   2.409   5.983   0.884 -0.4318  0.0849  0.7664
 2005TIP3    H1 5979   2.380   6.057   0.831 -0.7384 -0.9294 -0.5301
 2005TIP3    H2 5980   2.478   5.942   0.832 -2.5901 -2.5618 -0.2167
 2006TIP3   OH2 5981   4.321   3.458   3.122  0.2393  0.3377  0.0832
 2006TIP3    H1 5982   4.316   3.448   3.217 -0.8190  0.4996  0.0557
 2006TIP3    H2 5983   4.259   3.393   3.088 -2.0894  2.6076 -0.3290
 2007TIP3   OH2 5984   6.730   2.798   4.662  0.0927 -0.0385  0.0557
 2007TIP3    H1 5985   6.771   2.884   4.652 -1.1904  0.3652 -2.5696
 2007TIP3    H2 5986   6.641   2.817   4.692  0.1845 -0.5420  0.6650
 2008TIP3   OH2 5987   2.377   5.058   5.708  0.0190 -0.5937 -0.3075
 2008TIP3    H1 5988   2.457   5.053   5.759 -0.1118 -0.7776 -0.1183
 2008TIP3    H2 5989   2.372   5.149   5.679 -0.2206 -0.3344  0.5167
 2009TIP3   OH2 5990   0.867   0.495   4.944  0.4905 -0.3653 -0.5012
 2009TIP3    H1 5991   0.943   0.524   4.893  1.7015 -2.1081  0.1824
 2009TIP3    H2 5992   0.840   0.414   4.902 -1.8495  0.8142 -1.4645
 2010TIP3   OH2 5993   3.511   2.510   3.455 -0.1836  0.6568  0.1563
 2010TIP3    H1 5994   3.461   2.478   3.381 -2.0754  0.3629  1.5050
 2010TIP3    H2 5995   3.577   2.442   3.471 -0.8396 -0.0691 -0.2024
 2011TIP3   OH2 5996   4.502   2.371   5.752 -0.7860 -0.0952  0.9938
 2011TIP3    H1 5997   4.456   2.286   5.750  0.9291 -1.0429 -0.7464
 2011TIP3    H2 5998   4.537   2.377   5.841  0.3327 -1.9692  0.7296
 2012TIP3   OH2 5999   1.931   3.911   3.550  0.5832 -0.2168 -0.5752
 2012TIP3    H1 6000   2.021   3.895   3.578  0.3214 -0.1200  0.3685
 2012TIP3    H2 6001   1.930   3.886   3.458  2.1405  1.9636 -1.2702
 2013TIP3   OH2 6002   0.931   3.732   1.908 -0.4677  0.0035  0.1676
 2013TIP3    H1 6003   0.945   3.747   2.002  0.4375  0.0386  0.0349
 2013TIP3    H2 6004   0.883   3.649   1.905 -1.3002  0.4542  0.6932
 2014TIP3   OH2 6005   2.732   6.238   1.568 -0.0828  0.1572 -0.3184
 2014TIP3    H1 6006   2.782   6.160   1.545  0.2068  0.0769  0.5564
 2014TIP3    H2 6007   2.641   6.214   1.549  0.1623  0.1885 -1.5927
 2015TIP3   OH2 6008   4.463   5.014   3.360  0.1422 -0.9721  0.7110
 2015TIP3    H1 6009   4.412   5.068   3.300  0.5435  0.7408  1.8426
 2015TIP3    H2 6010   4.398   4.959   3.405 -0.6262  0.4102  1.3580
 2016TIP3   OH2 6011   2.703   0.135   5.096  0.3400  0.0930 -0.3790
 2016TIP3    H1 6012   2.724   0.182   5.177 -2.7135 -0.7680  1.0699
 2016TIP3    H2 6013   2.788   0.110   5.060  1.8538  0.6210  2.5030
 2017TIP3   OH2 6014   1.936   3.278   1.647  0.1209 -0.1505 -0.5695
 2017TIP3    H1 6015   2.008   3.306   1.591  1.4644 -0.6190  0.8483
 2017TIP3    H2 6016   1.938   3.182   1.641 -0.8192 -0.1473 -1.0298
 2018TIP3   OH2 6017   7.181   4.530   5.408  0.0999  0.3550  0.1652
 2018TIP3    H1 6018   7.105   4.589   5.412  0.7267  1.2708 -0.9643
 2018TIP3    H2 6019   7.176   4.480   5.490 -3.5053 -1.8887 -1.1538
 2019TIP3   OH2 6020   2.579   4.316   2.468 -0.1017 -0.1130 -0.5283
 2019TIP3    H1 6021   2.649   4.327   2.532 -0.7814  1.4583  0.0023
 2019TIP3    H2 6022   2.581   4.223   2.446  0.9643 -0.4477  0.8382
 2020TIP3   OH2 6023   0.780   6.006   3.988  0.4254  0.3830  0.4495
 2020TIP3    H1 6024   0.762   5.958   3.907  0.1126  1.1874  0.0344
 2020TIP3    H2 6025   0.871   5.983   4.009  0.8439  0.9367 -0.6795
 2021TIP3   OH2 6026   0.724   2.360   4.880  0.1447  0.4208  0.0261
 2021TIP3    H1 6027   0.660   2.399   4.821 -0.0949  1.0470  0.6911
 2021TIP3    H2 6028   0.809   2.377   4.838  0.1274  2.5216  0.7588
 2022TIP3   OH2 6029   1.796   6.142   4.505  0.1357  0.1881  0.3117
 2022TIP3    H1 6030   1.778   6.062   4.457  0.8150 -0.7841  1.5928
 2022TIP3    H2 6031   1.713   6.164   4.548  0.4684 -1.0913  1.6946
 2023TIP3   OH2 6032   3.956   6.743   1.872 -0.0094  0.5969  0.4565
 2023TIP3    H1 6033   3.967   6.799   1.795 -0.3819 -0.4552 -0.3891
 2023TIP3    H2 6034   3.868   6.764   1.905 -1.1888 -1.1276 -1.3030
 2024TIP3   OH2 6035   4.015   3.862   3.839 -0.2063  0.7844  0.2164
 2024TIP3    H1 6036   3.926   3.848   3.810 -0.1366  0.5270  0.1283
 2024TIP3    H2 6037   4.025   3.958   3.841 -0.9427  0.8693  1.6244
 2025TIP3   OH2 6038   6.484   3.098   3.711 -0.2426 -0.5884 -0.4345
 2025TIP3    H1 6039   6.524   3.024   3.758 -0.2200 -0.0362  0.4351
 2025TIP3    H2 6040   6.477   3.067   3.621  3.3793 -0.2574 -0.9699
 2026TIP3   OH2 6041   6.380   5.338   4.368  0.2228  0.0930  0.3015
 2026TIP3    H1 6042   6.387   5.259   4.316  2.0947  0.6301 -0.3247
 2026TIP3    H2 6043   6.428   5.319   4.449 -0.2251  0.2441  0.6105
 2027TIP3   OH2 6044   2.521   2.213   1.965  0.1002  0.2993  0.4111
 2027TIP3    H1 6045   2.479   2.233   2.049  0.8791 -0.0770  0.9071
 2027TIP3    H2 6046   2.539   2.119   1.969 -1.3371 -0.0635 -0.8807
 2028TIP3   OH2 6047   1.309   4.161   5.407  0.0763 -0.3424 -0.3084
 2028TIP3    H1 6048   1.386   4.184   5.354  0.5746 -1.2850 -0.0216
 2028TIP3    H2 6049   1.301   4.233   5.470  1.0247 -0.4717 -0.0251
 2029TIP3   OH2 6050   7.124   0.756   1.594  0.4305 -0.7335  0.0911
 2029TIP3    H1 6051   7.219   0.764   1.604  0.5621 -1.7162 -0.2679
 2029TIP3    H2 6052   7.110   0.666   1.566 -0.6169 -0.6072  0.1541
 2030TIP3   OH2 6053   0.450   2.245   2.688  0.0975  0.2859  0.4654
 2030TIP3    H1 6054   0.488   2.297   2.617 -0.5648 -1.4918 -1.3044
 2030TIP3    H2 6055   0.356   2.263   2.683 -0.0666 -0.5857  0.2212
 2031TIP3   OH2 6056   6.789   2.561   0.535  0.3087 -0.4708 -0.1909
 2031TIP3    H1 6057   6.787   2.650   0.501  1.5240 -0.6222 -0.7145
 2031TIP3    H2 6058   6.765   2.570   0.627  1.4405  0.5474  0.0344
 2032TIP3   OH2 6059   3.603   3.844   5.423 -0.3926  0.2854  0.3777
 2032TIP3    H1 6060   3.564   3.928   5.447  0.7327  0.6192  1.1407
 2032TIP3    H2 6061   3.676   3.868   5.365  0.3315 -0.0940  1.1093
 2033TIP3   OH2 6062   4.703   6.248   4.815  0.6074  0.0912  0.0096
 2033TIP3    H1 6063   4.725   6.206   4.899 -1.2381  0.2696  0.6373
 2033TIP3    H2 6064   4.675   6.176   4.759  0.0975  0.1579  0.1692
 2034TIP3   OH2 6065   3.631   2.566   1.795 -0.4243 -0.0166  0.1670
 2034TIP3    H1 6066   3.638   2.659   1.817  0.4544  0.5328 -2.1455
 2034TIP3    H2 6067   3.582   2.564   1.713  0.0457 -1.5435 -0.1163
 2035TIP3   OH2 6068   5.432   5.985   1.651  0.0345 -0.0651 -0.2981
 2035TIP3    H1 6069   5.413   6.061   1.596  1.3546  0.6136  0.1276
 2035TIP3    H2 6070   5.365   5.987   1.720  0.4001  1.0849  0.0479
 2036TIP3   OH2 6071   0.778   4.944   1.114  0.3649  0.1263  0.4504
 2036TIP3    H1 6072   0.870   4.938   1.087  0.6573 -1.4106  1.6706
 2036TIP3    H2 6073   0.737   4.866   1.076 -0.4362  0.7579 -0.0143
 2037TIP3   OH2 6074   2.895   5.448   4.105 -0.1566 -0.9117  0.5270
 2037TIP3    H1 6075   2.982   5.474   4.074 -1.7289  1.0765 -2.7528
 2037TIP3    H2 6076   2.893   5.353   4.092  1.1939 -0.8535 -0.3031
 2038TIP3   OH2 6077   4.150   0.661   3.690  0.6439  0.1996  0.0252
 2038TIP3    H1 6078   4.073   0.614   3.724 -0.1614  1.4103 -0.0445
 2038TIP3    H2 6079   4.216   0.651   3.759  0.7946 -1.7083 -0.3531
 2039TIP3   OH2 6080   0.170   5.407   0.506  0.0034  0.3938 -0.4155
 2039TIP3    H1 6081   0.177   5.478   0.442  0.7546  0.6453 -0.0579
 2039TIP3    H2 6082   0.076   5.391   0.513 -0.0853  0.1036 -1.8631
 2040TIP3   OH2 6083   6.971   0.397   0.480 -0.0784 -0.4676  0.0109
 2040TIP3    H1 6084   7.057   0.425   0.511 -0.0893 -0.2353 -0.1718
 2040TIP3    H2 6085   6.988   0.317   0.430  0.1374  0.0536 -0.7584
 2041TIP3   OH2 6086   2.074   5.608   1.731  0.2194  0.4847  0.7109
 2041TIP3    H1 6087   2.023   5.528   1.720  0.9204  0.2621 -1.3901
 2041TIP3    H2 6088   2.137   5.587   1.800 -0.5427 -0.2591  1.2020
 2042TIP3   OH2 6089   7.132   4.368   5.664 -0.1251 -0.1129 -0.0200
 2042TIP3    H1 6090   7.171   4.307   5.726  0.6406 -0.3826 -0.7421
 2042TIP3    H2 6091   7.150   4.455   5.701  0.3056 -0.2708  0.1477
 2043TIP3   OH2 6092   6.607   3.262   0.675  0.0897 -0.0205  0.1076
 2043TIP3    H1 6093   6.562   3.192   0.627  0.3230  0.6000 -1.0474
 2043TIP3    H2 6094   6.560   3.268   0.758  0.2094 -1.6970  0.3377
 2044TIP3   OH2 6095   4.289   5.904   4.749 -0.0901  0.3134 -0.1201
 2044TIP3    H1 6096   4.251   5.963   4.684  0.9374 -0.9287 -1.9328
 2044TIP3    H2 6097   4.214   5.854   4.782 -0.6631  1.1352 -0.1498
 2045TIP3   OH2 6098   6.416   5.800   2.750  0.5685 -0.3628 -0.4483
 2045TIP3    H1 6099   6.421   5.884   2.705 -0.3415  0.1498  0.3869
 2045TIP3    H2 6100   6.490   5.800   2.811  0.0997  0.1827  0.1283
 2046TIP3   OH2 6101   3.732   3.519   5.809 -0.6239 -0.3021  0.6712
 2046TIP3    H1 6102   3.787   3.516   5.731  1.6569 -2.1049  2.2004
 2046TIP3    H2 6103   3.716   3.612   5.824 -2.5672  0.0812 -2.7648
 2047TIP3   OH2 6104   3.708   0.403   4.822 -0.2040  0.0529 -0.0850
 2047TIP3    H1 6105   3.631   0.378   4.871 -0.2509  0.1870 -0.0887
 2047TIP3    H2 6106   3.741   0.481   4.868 -0.6314  0.5806 -0.6542
 2048TIP3   OH2 6107   3.672   3.854   2.814  0.3670  0.0262  0.3196
 2048TIP3    H1 6108   3.752   3.862   2.866  0.5417 -1.9135  0.4159
 2048TIP3    H2 6109   3.700   3.812   2.733  0.1756  3.3449 -1.6556
 2049TIP3   OH2 6110   6.121   3.285   5.477 -0.2952 -0.1192  0.3917
 2049TIP3    H1 6111   6.152   3.351   5.539 -0.3993  0.1723  0.1362
 2049TIP3    H2 6112   6.166   3.204   5.503 -0.0361  0.0906  0.6004
 2050TIP3   OH2 6113   0.557   4.547   4.022  0.0438  0.2922 -0.5114
 2050TIP3    H1 6114   0.506   4.468   4.004  1.9974 -1.3656  0.7461
 2050TIP3    H2 6115   0.495   4.607   4.062 -1.3367 -0.9069 -0.7768
 2051TIP3   OH2 6116   0.321   4.071   2.893  0.2093  0.4857  0.4986
 2051TIP3    H1 6117   0.317   4.133   2.965 -0.1444 -0.9484  1.7644
 2051TIP3    H2 6118   0.322   3.985   2.935 -0.3017 -0.4061 -1.2163
 2052TIP3   OH2 6119   4.015   2.594   4.402  0.4288 -0.2241  0.0185
 2052TIP3    H1 6120   4.022   2.525   4.336 -2.1880 -1.2953  0.7376
 2052TIP3    H2 6121   3.968   2.665   4.358 -1.2835 -0.9247  0.6262
 2053TIP3   OH2 6122   2.046   2.796   5.202 -0.4626 -0.2848 -0.0492
 2053TIP3    H1 6123   1.971   2.850   5.226  0.5014  0.8182  0.5875
 2053TIP3    H2 6124   2.048   2.726   5.268 -2.3434 -1.8063 -1.4886
 2054TIP3   OH2 6125   0.717   2.800   5.429  0.0145 -0.0488 -0.0646
 2054TIP3    H1 6126   0.746   2.820   5.518  0.9421 -0.6713 -0.2146
 2054TIP3    H2 6127   0.794   2.813   5.375 -0.7474  1.1568 -0.9308
 2055TIP3   OH2 6128   6.692   5.304   4.189 -0.1783  0.1452  0.2707
 2055TIP3    H1 6129   6.728   5.237   4.247 -1.7427 -0.9957 -0.0131
 2055TIP3    H2 6130   6.730   5.284   4.103  1.1474  1.0737  0.5927
 2056TIP3   OH2 6131   0.891   0.053   3.063  0.3228  0.3253  0.0385
 2056TIP3    H1 6132   0.970   0.107   3.062  0.3747  0.2554 -1.1482
 2056TIP3    H2 6133   0.916  -0.026   3.015 -0.2471 -0.0302  0.3172
 2057TIP3   OH2 6134   3.758   3.928   2.108 -0.4194  0.5822  0.5957
 2057TIP3    H1 6135   3.845   3.968   2.118 -0.1749 -0.2883  2.3818
 2057TIP3    H2 6136   3.773   3.853   2.052 -0.8078  2.6158 -2.4441
 2058TIP3   OH2 6137   4.057   0.251   2.144  0.1300 -0.3287  0.1813
 2058TIP3    H1 6138   4.105   0.255   2.061  0.1458 -0.8592  0.1610
 2058TIP3    H2 6139   3.984   0.191   2.126 -2.7328  3.0964 -0.8877
 2059TIP3   OH2 6140   5.332   6.170   2.333  0.7848  0.2101  0.2046
 2059TIP3    H1 6141   5.317   6.138   2.422  0.6434  0.0230  0.1136
 2059TIP3    H2 6142   5.272   6.119   2.278  0.9185  0.2786 -0.0066
 2060TIP3   OH2 6143   0.505   6.594   0.343  0.1186 -0.0119  0.7899
 2060TIP3    H1 6144   0.422   6.603   0.390 -0.6072 -0.0380 -0.4441
 2060TIP3    H2 6145   0.480   6.563   0.256  1.2300  1.8772 -0.2612
 2061TIP3   OH2 6146   5.708   6.660   2.811 -0.4318  0.1007  0.3777
 2061TIP3    H1 6147   5.767   6.728   2.778 -1.5929  0.7804 -0.3899
 2061TIP3    H2 6148   5.738   6.580   2.769  0.8627  0.1398  1.1725
 2062TIP3   OH2 6149   6.339   5.902   3.065  0.2090 -0.4871 -0.0550
 2062TIP3    H1 6150   6.417   5.939   3.023 -1.4792  2.5953 -0.7732
 2062TIP3    H2 6151   6.342   5.933   3.155 -1.3231  1.8317 -0.7147
 2063TIP3   OH2 6152   2.378   6.651   5.165  0.0432 -0.0597 -0.2640
 2063TIP3    H1 6153   2.287   6.683   5.170 -0.3009 -1.1636  1.0024
 2063TIP3    H2 6154   2.371   6.564   5.126  0.3527 -0.8086  1.2745
 2064TIP3   OH2 6155   3.129   0.953   4.747  0.1617 -0.3755 -0.2806
 2064TIP3    H1 6156   3.136   1.027   4.686 -1.0360 -0.4964 -0.5841
 2064TIP3    H2 6157   3.092   0.882   4.694 -1.4902 -0.3023  0.7009
 2065TIP3   OH2 6158   2.585   3.248   3.269  0.3429 -0.0361  0.3271
 2065TIP3    H1 6159   2.553   3.327   3.225 -0.0098 -0.3871 -0.0508
 2065TIP3    H2 6160   2.679   3.246   3.249  0.2755  0.0662 -0.0073
 2066TIP3   OH2 6161   4.781   1.521   0.099 -0.0077 -0.0637  0.0698
 2066TIP3    H1 6162   4.858   1.474   0.066 -0.2485 -0.9976  0.7956
 2066TIP3    H2 6163   4.817   1.582   0.163  0.1313 -0.6118  0.5281
 2067TIP3   OH2 6164   2.739   4.289   3.298  0.2788 -0.2055  0.3904
 2067TIP3    H1 6165   2.796   4.325   3.230  0.8590  0.5045  1.2229
 2067TIP3    H2 6166   2.744   4.194   3.285  2.8230 -0.2855  1.2926
 2068TIP3   OH2 6167   5.012   3.514   2.055  0.3525  1.1887 -0.1280
 2068TIP3    H1 6168   5.084   3.526   1.992 -0.6855  0.3054 -1.5356
 2068TIP3    H2 6169   5.010   3.420   2.072 -0.9050  1.1015 -0.6667
 2069TIP3   OH2 6170   1.537   4.495   3.336 -0.3171  0.0260  0.1250
 2069TIP3    H1 6171   1.559   4.498   3.243  1.2758 -1.3914  0.4044
 2069TIP3    H2 6172   1.608   4.543   3.379  0.2594 -1.3498  0.7614
 2070TIP3   OH2 6173   3.137   2.541   3.055 -0.1013 -0.0889  0.8999
 2070TIP3    H1 6174   3.204   2.493   3.008 -0.8216 -0.0638 -0.1769
 2070TIP3    H2 6175   3.077   2.473   3.088 -1.5120  0.0359 -1.2249
 2071TIP3   OH2 6176   1.085   0.382   0.476  0.1709 -0.7177  0.0975
 2071TIP3    H1 6177   1.114   0.312   0.534 -0.7702 -2.6259 -1.5985
 2071TIP3    H2 6178   1.061   0.453   0.535  1.4561 -1.6908  1.8880
 2072TIP3   OH2 6179   5.236   3.151   4.544 -0.5430 -0.0785 -0.4541
 2072TIP3    H1 6180   5.316   3.151   4.492  0.7778 -0.7512  1.4771
 2072TIP3    H2 6181   5.181   3.084   4.503  0.8906 -1.3393 -0.4074
 2073TIP3   OH2 6182   5.011   6.727   1.691 -0.2953  0.1515 -0.4478
 2073TIP3    H1 6183   4.983   6.664   1.757  1.1268 -2.9505 -2.5668
 2073TIP3    H2 6184   4.932   6.774   1.666 -1.5202 -1.1279  0.9056
 2074TIP3   OH2 6185   4.937   4.416   4.416 -0.5675 -0.2480 -0.1631
 2074TIP3    H1 6186   5.001   4.468   4.367  0.0953 -2.7058 -2.1501
 2074TIP3    H2 6187   4.990   4.367   4.479 -0.6008 -1.2735 -0.8940
 2075TIP3   OH2 6188   1.053   3.581   5.584  0.2976 -0.0831  0.8438
 2075TIP3    H1 6189   1.080   3.491   5.600  0.9017 -0.0232  0.1733
 2075TIP3    H2 6190   0.962   3.574   5.553  1.0113 -0.6535 -1.2806
 2076TIP3   OH2 6191   3.626   3.470   3.267  0.3950  0.1064  0.2019
 2076TIP3    H1 6192   3.643   3.378   3.250  0.3485  0.3911 -1.5477
 2076TIP3    H2 6193   3.646   3.514   3.184 -0.6820  1.5174  0.6525
 2077TIP3   OH2 6194   0.867   0.161   3.649  0.8446  0.0800  0.1511
 2077TIP3    H1 6195   0.883   0.116   3.732 -0.5428 -2.4655 -0.8712
 2077TIP3    H2 6196   0.931   0.124   3.589  0.7544  0.7005 -0.3390
 2078TIP3   OH2 6197   1.249   4.204   0.557 -0.3809  0.9771 -0.0995
 2078TIP3    H1 6198   1.314   4.192   0.489 -0.0760  0.2785  0.3023
 2078TIP3    H2 6199   1.246   4.120   0.603 -1.8398  0.8617 -0.3447
 2079TIP3   OH2 6200   5.071   4.456   3.024  0.4373 -0.3380 -0.2553
 2079TIP3    H1 6201   5.125   4.380   3.003  0.6860  0.1228 -1.3404
 2079TIP3    H2 6202   5.022   4.474   2.944  0.4875  0.7280 -0.0651
 2080TIP3   OH2 6203   6.321   1.556   4.111  0.0253  0.0016  0.7032
 2080TIP3    H1 6204   6.260   1.485   4.088 -0.9873  0.8690  0.6424
 2080TIP3    H2 6205   6.288   1.589   4.195 -0.0636  1.0115  0.2766
 2081TIP3   OH2 6206   0.755   1.677   1.832  0.0421  0.3100  0.5605
 2081TIP3    H1 6207   0.827   1.706   1.776 -0.1322 -0.7324 -0.2272
 2081TIP3    H2 6208   0.773   1.718   1.917  2.4418 -1.1531  0.8449
 2082TIP3   OH2 6209   2.159   3.669   5.353 -0.2861  0.0404  0.0341
 2082TIP3    H1 6210   2.101   3.667   5.429 -2.2396 -3.4544 -1.3149
 2082TIP3    H2 6211   2.237   3.620   5.380 -0.6624 -0.5710  0.0192
 2083TIP3   OH2 6212   7.164   4.495   3.852 -0.2129  0.1007 -0.1625
 2083TIP3    H1 6213   7.242   4.539   3.817  0.2388  0.1903  0.9291
 2083TIP3    H2 6214   7.161   4.412   3.805  1.0492 -0.2777  0.3743
 2084TIP3   OH2 6215   1.677   2.028   4.555 -0.7789 -0.0900  1.0397
 2084TIP3    H1 6216   1.748   2.042   4.618  0.3107  0.8937 -0.3366
 2084TIP3    H2 6217   1.662   2.115   4.517 -0.2137 -0.9173 -1.2344
 2085TIP3   OH2 6218   5.440   3.612   5.094 -1.0168  0.8283 -0.3830
 2085TIP3    H1 6219   5.485   3.589   5.012  1.2895 -0.2860  1.0858
 2085TIP3    H2 6220   5.461   3.704   5.108 -1.0997  0.9222 -0.8530
 2086TIP3   OH2 6221   6.313   5.435   5.502 -0.1965 -0.1708  0.2398
 2086TIP3    H1 6222   6.233   5.455   5.454 -0.2683 -1.0484 -0.0273
 2086TIP3    H2 6223   6.382   5.435   5.435  0.4622  2.7821  0.7669
 2087TIP3   OH2 6224   5.698   3.958   1.153 -0.7698  0.2746  0.0605
 2087TIP3    H1 6225   5.766   4.022   1.177  0.0019  1.0196 -3.6136
 2087TIP3    H2 6226   5.624   3.980   1.211  1.0635  1.3170  2.1839
 2088TIP3   OH2 6227   1.791   1.377   5.351  0.1181  0.0336  0.2019
 2088TIP3    H1 6228   1.735   1.306   5.384 -0.8690  0.0457 -1.3407
 2088TIP3    H2 6229   1.729   1.443   5.320  1.0257  1.0829  0.5788
 2089TIP3   OH2 6230   2.730   4.954   2.673 -1.1494 -0.3427  0.5157
 2089TIP3    H1 6231   2.818   4.925   2.649 -0.8970  0.9495 -0.1698
 2089TIP3    H2 6232   2.672   4.903   2.616 -0.6575  1.1295 -1.4349
 2090TIP3   OH2 6233   0.378   5.025   2.674 -0.1876 -0.4442 -0.1655
 2090TIP3    H1 6234   0.293   5.070   2.668 -1.2621 -1.8467  2.7417
 2090TIP3    H2 6235   0.361   4.949   2.729  2.7538 -1.4125 -0.4308
 2091TIP3   OH2 6236   2.000   5.111   4.064  0.1309  0.0758  0.6939
 2091TIP3    H1 6237   2.007   5.126   3.970  1.5174 -0.2591  0.7129
 2091TIP3    H2 6238   1.939   5.038   4.072  1.5203 -1.2301 -0.1031
 2092TIP3   OH2 6239   4.697   4.228   5.092 -0.1750  0.2405  0.1063
 2092TIP3    H1 6240   4.651   4.308   5.118  1.0828  0.9073  0.3589
 2092TIP3    H2 6241   4.669   4.163   5.156 -0.0274  0.8817  0.8401
 2093TIP3   OH2 6242   2.838   4.840   3.079 -0.2674 -0.1012  0.7127
 2093TIP3    H1 6243   2.928   4.808   3.075  0.1362  1.0218  0.2460
 2093TIP3    H2 6244   2.784   4.763   3.066  0.6710 -0.4767 -1.4329
 2094TIP3   OH2 6245   5.311   5.561   5.493 -0.1329  1.0620  0.4569
 2094TIP3    H1 6246   5.309   5.634   5.431  1.0866  0.8062  0.0797
 2094TIP3    H2 6247   5.335   5.485   5.440  0.1182  0.6779  1.1013
 2095TIP3   OH2 6248   2.263   3.805   1.556 -0.0376  0.4491  0.4932
 2095TIP3    H1 6249   2.234   3.873   1.495  1.9781 -0.0413 -1.1465
 2095TIP3    H2 6250   2.188   3.747   1.566 -1.2147  1.9298  0.5128
 2096TIP3   OH2 6251   5.889   4.659   3.972  0.2966 -0.0490  0.0187
 2096TIP3    H1 6252   5.823   4.705   3.920 -2.1904 -0.9428  2.1672
 2096TIP3    H2 6253   5.931   4.727   4.024 -1.4550  0.2126  1.1758
 2097TIP3   OH2 6254   2.603   5.621   3.224 -0.1790  0.3506 -0.1451
 2097TIP3    H1 6255   2.629   5.710   3.200  0.2287  0.6390  1.3155
 2097TIP3    H2 6256   2.570   5.628   3.313 -2.3271 -0.5841 -0.8109
 2098TIP3   OH2 6257   2.927   3.799   3.320 -0.3841 -0.1508  0.0650
 2098TIP3    H1 6258   2.997   3.736   3.335  1.1223  1.8529  2.1049
 2098TIP3    H2 6259   2.972   3.879   3.291 -1.9835  0.6769 -0.2661
 2099TIP3   OH2 6260   1.410   2.194   4.357 -0.0708 -0.3132  0.2668
 2099TIP3    H1 6261   1.487   2.240   4.390 -1.7093  2.8400  0.1488
 2099TIP3    H2 6262   1.336   2.238   4.399 -1.9661 -0.3819 -2.6762
 2100TIP3   OH2 6263   6.860   1.676   3.175 -0.0233 -0.2674 -0.1660
 2100TIP3    H1 6264   6.879   1.704   3.086  0.7827  2.4880  0.7826
 2100TIP3    H2 6265   6.764   1.670   3.178 -0.0321 -1.1533 -1.3809
 2101TIP3   OH2 6266   6.591   1.267   5.494  0.2264 -0.7860 -0.0687
 2101TIP3    H1 6267   6.548   1.229   5.418 -0.5652  1.1572 -0.6412
 2101TIP3    H2 6268   6.523   1.274   5.560 -0.3276  1.7862 -0.7918
 2102TIP3   OH2 6269   3.428   3.290   0.882 -0.5058  0.2199  0.2636
 2102TIP3    H1 6270   3.462   3.217   0.933  0.9512 -0.0102 -0.9638
 2102TIP3    H2 6271   3.441   3.264   0.791 -0.4205  1.7779 -0.2051
 2103TIP3   OH2 6272   5.779   5.652   5.510  0.3189  0.2739  0.1806
 2103TIP3    H1 6273   5.853   5.704   5.541  1.1886 -0.4746 -0.5606
 2103TIP3    H2 6274   5.702   5.697   5.542  0.9723  2.6128 -1.3078
 2104TIP3   OH2 6275   2.483   3.391   0.744 -0.0615 -0.1224 -0.5633
 2104TIP3    H1 6276   2.472   3.386   0.649 -0.6564 -1.0218 -0.4619
 2104TIP3    H2 6277   2.446   3.476   0.768 -0.2563 -0.0546 -1.0896
 2105TIP3   OH2 6278   1.568   5.973   2.919  0.6265  0.0542 -0.3655
 2105TIP3    H1 6279   1.490   5.918   2.913 -0.3372  1.4714 -1.3885
 2105TIP3    H2 6280   1.592   5.970   3.012 -0.5391 -0.5306 -0.0630
 2106TIP3   OH2 6281   6.455   4.881   3.195 -0.5849 -0.0809  0.2509
 2106TIP3    H1 6282   6.502   4.943   3.138 -1.1191  0.3339  0.2584
 2106TIP3    H2 6283   6.514   4.867   3.269  0.2800 -0.9026 -0.5640
 2107TIP3   OH2 6284   3.882   2.905   2.470  0.5130 -0.0877  0.0944
 2107TIP3    H1 6285   3.828   2.835   2.432  0.9839 -1.3069  1.5883
 2107TIP3    H2 6286   3.957   2.912   2.411  0.5658 -0.9999  0.0444
 2108TIP3   OH2 6287   2.366   3.022   4.502 -0.1490  0.0684 -0.1161
 2108TIP3    H1 6288   2.395   3.060   4.419  3.8316 -1.3302  0.4012
 2108TIP3    H2 6289   2.368   3.095   4.564 -0.5864  0.6106 -0.7286
 2109TIP3   OH2 6290   6.334   6.686   2.592 -0.0183  0.5408 -0.2456
 2109TIP3    H1 6291   6.371   6.669   2.505  1.2769  1.1622  0.1569
 2109TIP3    H2 6292   6.407   6.724   2.642 -1.0122  1.1192  0.8110
 2110TIP3   OH2 6293   1.578   6.201   4.672  0.2492  0.1306 -0.0188
 2110TIP3    H1 6294   1.501   6.145   4.678 -0.7342  1.4832  0.7499
 2110TIP3    H2 6295   1.622   6.190   4.756 -1.6958  2.7838  1.5321
 2111TIP3   OH2 6296   0.955   6.079   1.628  0.7978 -0.1548  0.2880
 2111TIP3    H1 6297   0.968   6.173   1.615 -2.1092  0.3627  0.5026
 2111TIP3    H2 6298   0.909   6.050   1.549  0.4007 -1.0927  0.8536
 2112TIP3   OH2 6299   2.961   5.181   4.656 -0.1763  0.1058  0.0508
 2112TIP3    H1 6300   2.926   5.111   4.600 -0.6125 -0.4071  0.9419
 2112TIP3    H2 6301   2.888   5.202   4.715  0.1369  0.9317  0.1481
 2113TIP3   OH2 6302   2.773   4.820   4.244 -0.2557  0.3575  0.4490
 2113TIP3    H1 6303   2.715   4.745   4.255  1.3569 -1.8164 -3.5357
 2113TIP3    H2 6304   2.720   4.885   4.198 -0.7610  0.3126  0.9597
 2114TIP3   OH2 6305   1.702   0.468   2.704  0.6570  0.0052  0.0655
 2114TIP3    H1 6306   1.785   0.424   2.684  0.4844 -0.7314  0.9084
 2114TIP3    H2 6307   1.672   0.427   2.785 -1.6959 -1.4592 -1.4028
 2115TIP3   OH2 6308   1.606   2.747   4.485 -0.0851 -0.1429 -0.0143
 2115TIP3    H1 6309   1.695   2.734   4.518  0.2069 -0.6023 -0.9522
 2115TIP3    H2 6310   1.574   2.658   4.468 -0.8989 -0.0070  0.7480
 2116TIP3   OH2 6311   4.411   3.916   5.668 -0.2056  0.0789 -0.1885
 2116TIP3    H1 6312   4.416   4.011   5.671  1.5831  0.0232 -0.0242
 2116TIP3    H2 6313   4.318   3.896   5.659 -0.4293  1.9015 -2.6939
 2117TIP3   OH2 6314   6.392   1.362   1.881 -0.1942 -0.5968 -0.2164
 2117TIP3    H1 6315   6.343   1.425   1.934  1.0718  0.9317 -0.8034
 2117TIP3    H2 6316   6.464   1.333   1.938  0.0347 -0.4442 -0.4259
 2118TIP3   OH2 6317   0.089   2.745   1.364  0.1693 -0.0848 -0.4627
 2118TIP3    H1 6318   0.005   2.765   1.324  0.7517 -1.4182 -2.5354
 2118TIP3    H2 6319   0.148   2.731   1.289  1.5815 -1.7855  0.8727
 2119TIP3   OH2 6320   3.750   1.417   1.036  0.0026  0.0398  0.0401
 2119TIP3    H1 6321   3.819   1.355   1.060  0.0254 -0.8251 -2.0005
 2119TIP3    H2 6322   3.681   1.404   1.100  1.7499  1.0482  2.2613
 2120TIP3   OH2 6323   1.529   0.191   0.276 -0.0644  0.8712  0.1261
 2120TIP3    H1 6324   1.595   0.143   0.226  0.2068  0.0234  1.2526
 2120TIP3    H2 6325   1.580   0.256   0.326  0.2006 -0.8111  2.2151
 2121TIP3   OH2 6326   7.031   1.316   3.822 -0.0334 -0.1749  0.4407
 2121TIP3    H1 6327   7.011   1.370   3.898 -3.4671 -1.1376  0.3794
 2121TIP3    H2 6328   6.954   1.322   3.766  0.3080 -3.3357 -0.6094
 2122TIP3   OH2 6329   3.046   0.668   3.002  0.7120  0.0207  0.3796
 2122TIP3    H1 6330   3.062   0.650   2.910  0.8423  1.1969  0.1561
 2122TIP3    H2 6331   3.014   0.758   3.004  0.5317 -0.0518  1.4655
 2123TIP3   OH2 6332   7.153   6.218   3.041 -0.1050 -0.3111  0.0780
 2123TIP3    H1 6333   7.194   6.271   3.109 -1.5619 -0.8326  1.4239
 2123TIP3    H2 6334   7.199   6.242   2.961  2.3086 -0.3608  1.3625
 2124TIP3   OH2 6335   0.713   1.738   1.205  0.6620  0.4404 -0.1411
 2124TIP3    H1 6336   0.750   1.658   1.167  0.9018  0.1428  0.6910
 2124TIP3    H2 6337   0.622   1.740   1.175  1.1339  0.8011 -1.6269
 2125TIP3   OH2 6338   6.307   4.986   3.522  0.5786  0.0011  0.2763
 2125TIP3    H1 6339   6.274   5.070   3.554 -1.9510 -0.3576 -1.1360
 2125TIP3    H2 6340   6.401   4.989   3.540  0.1121  1.7833  3.1366
 2126TIP3   OH2 6341   5.515   3.360   0.857 -0.1634  0.2519 -0.0438
 2126TIP3    H1 6342   5.607   3.388   0.856 -0.3212  0.7762 -0.0754
 2126TIP3    H2 6343   5.473   3.418   0.920 -0.5705  0.3310 -0.3881
 2127TIP3   OH2 6344   4.733   4.254   4.357  0.0802  0.0223 -0.5989
 2127TIP3    H1 6345   4.650   4.283   4.395 -0.2595 -1.6164 -0.0041
 2127TIP3    H2 6346   4.800   4.306   4.402 -0.3569 -1.3604  1.8078
 2128TIP3   OH2 6347   5.341   5.824   0.625 -0.0522  0.4888 -0.1565
 2128TIP3    H1 6348   5.317   5.731   0.632  2.4998 -0.3297 -1.0989
 2128TIP3    H2 6349   5.364   5.836   0.533  2.5811  1.1855  0.5008
 2129TIP3   OH2 6350   6.214   5.101   3.797  0.6851  0.0151 -0.1928
 2129TIP3    H1 6351   6.134   5.125   3.843  0.1617 -0.9573 -0.5580
 2129TIP3    H2 6352   6.207   5.007   3.785  1.3937  0.0743 -1.1676
 2130TIP3   OH2 6353   2.649   0.401   2.271  0.2663  0.3998  0.1459
 2130TIP3    H1 6354   2.570   0.452   2.251  1.1595  1.4370 -0.9446
 2130TIP3    H2 6355   2.682   0.439   2.352 -0.0803  0.3067  0.3319
 2131TIP3   OH2 6356   7.022   5.055   4.856  0.5099 -0.4958 -0.0553
 2131TIP3    H1 6357   7.096   5.104   4.891 -0.8779  1.0750  0.8447
 2131TIP3    H2 6358   7.061   4.991   4.796  2.5334  0.4968  0.1276
 2132TIP3   OH2 6359   6.247   1.350   4.816  0.1117 -0.3054  0.4324
 2132TIP3    H1 6360   6.189   1.321   4.745  0.2701  0.5276 -0.0522
 2132TIP3    H2 6361   6.195   1.414   4.865  0.8027  0.9004 -0.3620
 2133TIP3   OH2 6362   0.924   1.739   0.662  0.3706 -0.4641  0.3643
 2133TIP3    H1 6363   0.878   1.773   0.739 -0.2136 -1.4089  0.4566
 2133TIP3    H2 6364   0.958   1.654   0.690  0.8175 -0.4786 -0.1951
 2134TIP3   OH2 6365   1.776   0.678   0.019  0.3934  0.5834 -0.0354
 2134TIP3    H1 6366   1.749   0.724   0.099  2.0359 -0.1568  0.9846
 2134TIP3    H2 6367   1.707   0.612   0.005  1.2262 -0.8412  2.1434
 2135TIP3   OH2 6368   2.748   5.201   1.141  0.9524 -0.3352  0.0368
 2135TIP3    H1 6369   2.746   5.150   1.060 -0.3488 -0.3101  0.0340
 2135TIP3    H2 6370   2.755   5.292   1.113  0.6834 -0.3393 -0.0456
 2136TIP3   OH2 6371   5.888   0.063   0.962 -0.2708 -0.1752  0.4729
 2136TIP3    H1 6372   5.880   0.072   0.867 -0.8165  1.3942  0.6476
 2136TIP3    H2 6373   5.919  -0.027   0.974 -0.0586 -0.3677 -1.1883
 2137TIP3   OH2 6374   1.541   0.592   5.366  0.2058  0.1541 -0.0183
 2137TIP3    H1 6375   1.504   0.538   5.435 -1.5319  1.3065  0.0273
 2137TIP3    H2 6376   1.467   0.610   5.308  1.3755  0.1496 -1.5753
 2138TIP3   OH2 6377   0.906   5.898   4.958  0.2766 -0.0264  0.3466
 2138TIP3    H1 6378   0.831   5.891   4.900  0.4199  0.4057  0.1049
 2138TIP3    H2 6379   0.960   5.968   4.920  0.7636 -0.2847  0.5569
 2139TIP3   OH2 6380   0.168   0.434   0.936  0.4116 -0.4928 -0.2718
 2139TIP3    H1 6381   0.087   0.390   0.964  0.3348 -0.2268 -0.0707
 2139TIP3    H2 6382   0.229   0.362   0.918 -0.5196 -0.8025 -2.4713
 2140TIP3   OH2 6383   2.567   6.179   3.714  0.4365 -0.2125  0.5184
 2140TIP3    H1 6384   2.526   6.106   3.760 -0.5058 -0.1543 -0.1872
 2140TIP3    H2 6385   2.594   6.143   3.630  0.1033  0.2079  0.2246
 2141TIP3   OH2 6386   4.546   0.525   3.969 -0.5664  0.3861  0.2059
 2141TIP3    H1 6387   4.542   0.473   4.050 -0.6204 -1.0439 -0.6861
 2141TIP3    H2 6388   4.633   0.566   3.972 -0.6035  0.4338  1.0335
 2142TIP3   OH2 6389   3.285   4.146   3.843 -0.3945 -0.2910  0.1990
 2142TIP3    H1 6390   3.305   4.187   3.927  2.8398 -2.0030  0.4414
 2142TIP3    H2 6391   3.364   4.160   3.790 -2.0915  0.1737 -2.3773
 2143TIP3   OH2 6392   4.832   3.045   3.703 -0.7303  0.0159  0.0153
 2143TIP3    H1 6393   4.786   3.091   3.773 -0.3969 -0.5164  0.5968
 2143TIP3    H2 6394   4.925   3.063   3.719 -0.4352 -2.2224  1.3082
 2144TIP3   OH2 6395   3.576   5.675   3.431  0.2456 -0.2422 -0.1934
 2144TIP3    H1 6396   3.565   5.740   3.362  0.5814  0.3660  0.3107
 2144TIP3    H2 6397   3.668   5.679   3.454  0.1594 -0.5069  0.2220
 2145TIP3   OH2 6398   0.581   4.707   0.457  0.1158 -0.0834  0.0858
 2145TIP3    H1 6399   0.514   4.699   0.388 -0.3958 -0.0085  0.5695
 2145TIP3    H2 6400   0.660   4.731   0.410 -0.4272  0.8237 -0.3982
 2146TIP3   OH2 6401   0.065   5.447   3.774 -0.4452 -0.0291  0.0107
 2146TIP3    H1 6402   0.110   5.490   3.846  0.2382 -0.2481 -0.2825
 2146TIP3    H2 6403   0.130   5.388   3.735 -0.8271  0.0142 -0.7266
 2147TIP3   OH2 6404   1.162   2.023   2.513 -0.1160  0.0072  0.0610
 2147TIP3    H1 6405   1.133   1.934   2.530  1.8425 -0.4461  1.3302
 2147TIP3    H2 6406   1.112   2.077   2.574 -1.0064 -0.2627 -0.4210
 2148TIP3   OH2 6407   4.180   2.397   3.440  1.1100 -0.4583  0.0400
 2148TIP3    H1 6408   4.133   2.352   3.510  0.9736 -1.7017 -0.8073
 2148TIP3    H2 6409   4.123   2.469   3.414  0.1973 -1.2234 -0.1600
 2149TIP3   OH2 6410   3.973   0.966   5.199 -0.0831  0.2854  0.1528
 2149TIP3    H1 6411   4.017   1.000   5.277 -1.2809  0.1913  0.8867
 2149TIP3    H2 6412   3.939   0.881   5.226  2.0441 -1.1441 -1.3794
 2150TIP3   OH2 6413   2.710   1.644   1.243 -0.0506 -0.2669 -0.3133
 2150TIP3    H1 6414   2.669   1.660   1.158 -1.7004 -0.9890  0.3079
 2150TIP3    H2 6415   2.786   1.589   1.223 -0.0562  0.0904 -1.3723
 2151TIP3   OH2 6416   6.037   0.941   1.600 -0.2390  0.1922  0.0231
 2151TIP3    H1 6417   6.106   0.881   1.630 -0.1043 -0.8675 -2.1714
 2151TIP3    H2 6418   6.032   0.926   1.506 -2.9002  0.8751 -0.0291
 2152TIP3   OH2 6419   1.513   4.861   3.127  0.2030  0.3642 -0.2250
 2152TIP3    H1 6420   1.480   4.772   3.116 -3.4123  1.2140  1.9592
 2152TIP3    H2 6421   1.565   4.858   3.208  3.5649 -0.3789 -2.1982
 2153TIP3   OH2 6422   3.861   2.266   1.202  0.3960  0.2059 -0.1400
 2153TIP3    H1 6423   3.922   2.198   1.175 -2.1298 -2.8813  1.2750
 2153TIP3    H2 6424   3.807   2.283   1.125  0.6659  0.1914 -0.3326
 2154TIP3   OH2 6425   6.022   1.846   3.610 -0.1394 -0.4743  0.1223
 2154TIP3    H1 6426   5.958   1.902   3.654 -1.0572 -2.0200  0.8269
 2154TIP3    H2 6427   6.064   1.797   3.681  0.2682 -1.0632 -0.5134
 2155TIP3   OH2 6428   2.727   3.858   2.689  0.4172  0.0108 -0.1563
 2155TIP3    H1 6429   2.747   3.946   2.719  0.6814 -0.1467  0.1429
 2155TIP3    H2 6430   2.810   3.825   2.655  0.1813  0.0905 -0.8172
 2156TIP3   OH2 6431   6.062   3.320   2.513 -0.8500  0.5035 -0.6147
 2156TIP3    H1 6432   6.068   3.280   2.426 -0.4019  2.2566 -1.4241
 2156TIP3    H2 6433   5.974   3.359   2.516 -1.3423 -0.5773  0.2327
 2157TIP3   OH2 6434   1.634   5.425   5.823 -0.1693 -0.4193 -0.4526
 2157TIP3    H1 6435   1.551   5.377   5.833  0.5135 -1.4474  0.5787
 2157TIP3    H2 6436   1.697   5.374   5.874  0.8419  1.0080 -0.2169
 2158TIP3   OH2 6437   5.011   0.997   5.590 -0.1040  0.1418  0.1918
 2158TIP3    H1 6438   5.077   1.053   5.631 -0.5150  1.9341 -1.4407
 2158TIP3    H2 6439   4.931   1.015   5.639  0.1846 -0.6187  0.9748
 2159TIP3   OH2 6440   6.109   6.540   0.060 -0.4001 -0.1265 -0.4312
 2159TIP3    H1 6441   6.071   6.564   0.144  0.8147  0.0983  0.0719
 2159TIP3    H2 6442   6.188   6.490   0.083  1.0453  1.6098 -1.3792
 2160TIP3   OH2 6443   2.594   5.703   5.413  0.1603 -0.2224  0.0636
 2160TIP3    H1 6444   2.627   5.616   5.393  0.8978 -0.0361  0.4496
 2160TIP3    H2 6445   2.562   5.697   5.503 -0.2108 -0.2141 -0.0655
 2161TIP3   OH2 6446   0.930   4.212   3.159  0.2100 -0.2072  0.4187
 2161TIP3    H1 6447   1.006   4.159   3.185  0.9270 -0.8037 -2.4942
 2161TIP3    H2 6448   0.856   4.170   3.202  1.2044 -1.3524  1.0887
 2162TIP3   OH2 6449   5.978   1.185   2.058 -0.0524 -0.2480  0.3944
 2162TIP3    H1 6450   5.887   1.158   2.072  0.5431 -1.7052  1.6570
 2162TIP3    H2 6451   5.972   1.254   1.991 -2.0461 -0.5064  0.2440
 2163TIP3   OH2 6452   4.217   0.292   5.299  0.0822  0.6978  0.1442
 2163TIP3    H1 6453   4.235   0.266   5.208 -0.3614  0.7931  0.0257
 2163TIP3    H2 6454   4.301   0.326   5.331  0.4634 -0.1266  0.0442
 2164TIP3   OH2 6455   6.056   3.565   5.204 -0.0637  0.3639  0.1106
 2164TIP3    H1 6456   6.059   3.472   5.228 -0.0158 -0.5241 -2.9084
 2164TIP3    H2 6457   6.075   3.612   5.285 -3.6192 -2.0667  2.6260
 2165TIP3   OH2 6458   0.364   3.250   0.507 -0.1232  0.0709  0.1521
 2165TIP3    H1 6459   0.343   3.207   0.424  0.4288 -0.4464  0.2760
 2165TIP3    H2 6460   0.285   3.299   0.529  0.1177  1.1550 -1.2592
 2166TIP3   OH2 6461   5.176   2.436   1.818  0.7466 -0.7768 -0.0072
 2166TIP3    H1 6462   5.202   2.409   1.906 -1.8774 -0.1526  1.0333
 2166TIP3    H2 6463   5.187   2.531   1.817 -2.6014 -0.2693  0.9886
 2167TIP3   OH2 6464   6.635   2.496   5.210 -0.1563 -0.2251 -0.3480
 2167TIP3    H1 6465   6.605   2.530   5.294  0.2748 -0.9198  0.1061
 2167TIP3    H2 6466   6.669   2.572   5.163  0.1374  0.0796  0.3474
 2168TIP3   OH2 6467   2.176   2.329   4.387 -0.6187 -0.4372  0.6435
 2168TIP3    H1 6468   2.159   2.360   4.298  0.2743 -1.7566 -0.0169
 2168TIP3    H2 6469   2.197   2.408   4.436 -0.3471  0.2339 -0.5046
 2169TIP3   OH2 6470   4.235   1.164   0.847  0.4112  0.4008  0.1102
 2169TIP3    H1 6471   4.170   1.232   0.866 -0.0804  0.5723 -1.8888
 2169TIP3    H2 6472   4.279   1.148   0.930 -1.3833  1.1372  1.2576
 2170TIP3   OH2 6473   5.776   6.057   2.245  0.4154  0.0837 -0.3241
 2170TIP3    H1 6474   5.855   6.036   2.296 -0.6601 -1.1877  0.8810
 2170TIP3    H2 6475   5.729   6.121   2.298 -0.2862 -0.6024 -0.0969
 2171TIP3   OH2 6476   6.595   2.267   0.680 -0.3731 -0.0572 -0.3969
 2171TIP3    H1 6477   6.690   2.274   0.671  0.0342 -2.2252  1.3974
 2171TIP3    H2 6478   6.570   2.203   0.613  0.0419 -2.3258  1.5047
 2172TIP3   OH2 6479   1.474   0.634   4.585  0.1540 -0.1533  0.0700
 2172TIP3    H1 6480   1.563   0.599   4.587  0.0070 -0.6765 -1.1536
 2172TIP3    H2 6481   1.455   0.643   4.491  0.1208  3.1199  0.2678
 2173TIP3   OH2 6482   5.719   3.652   4.201  0.2540 -0.0938  0.5278
 2173TIP3    H1 6483   5.654   3.712   4.165  1.4523  1.5191  0.9361
 2173TIP3    H2 6484   5.803   3.692   4.179  1.1909 -2.5926 -0.8353
 2174TIP3   OH2 6485   1.086   4.221   1.622  0.2598 -0.5048  0.2272
 2174TIP3    H1 6486   0.994   4.206   1.645  0.1569  1.8429  1.7116
 2174TIP3    H2 6487   1.088   4.312   1.593  2.0022 -0.7848 -0.6297
 2175TIP3   OH2 6488   7.066   6.799   4.280 -0.2134  0.4202 -0.0025
 2175TIP3    H1 6489   7.137   6.806   4.216  0.3781 -3.2162  0.0813
 2175TIP3    H2 6490   7.006   6.735   4.242 -1.3499  0.3504  1.8143
 2176TIP3   OH2 6491   5.695   2.275   2.562  0.9143  0.1427 -0.1770
 2176TIP3    H1 6492   5.629   2.277   2.493  0.3724 -1.4547  0.2479
 2176TIP3    H2 6493   5.646   2.288   2.643  1.2439 -0.1209  0.0694
 2177TIP3   OH2 6494   5.371   3.755   0.076 -0.0603 -0.1678 -0.0209
 2177TIP3    H1 6495   5.436   3.816   0.112 -0.6616  0.2789  0.3265
 2177TIP3    H2 6496   5.375   3.769  -0.019  1.2398 -1.0550 -0.1258
 2178TIP3   OH2 6497   2.216   6.046   1.791  0.1570 -0.4407  0.0443
 2178TIP3    H1 6498   2.123   6.052   1.814  0.8873 -0.3847  3.5357
 2178TIP3    H2 6499   2.225   5.960   1.751 -1.2193 -0.8752  0.5948
 2179TIP3   OH2 6500   4.310   1.758   4.110  0.0606 -0.3395 -0.1362
 2179TIP3    H1 6501   4.311   1.680   4.166 -0.5298 -1.3198 -1.4520
 2179TIP3    H2 6502   4.280   1.727   4.025 -1.8685  1.6206 -0.2799
 2180TIP3   OH2 6503   5.196   4.359   0.825 -0.4111  0.0572 -0.5592
 2180TIP3    H1 6504   5.214   4.415   0.750 -2.0691 -0.1223 -1.1329
 2180TIP3    H2 6505   5.189   4.419   0.899  2.5707  0.1322 -0.1927
 2181TIP3   OH2 6506   1.987   4.533   2.474 -0.5191 -0.3379 -0.5270
 2181TIP3    H1 6507   1.941   4.463   2.427 -0.3133 -0.6530 -0.2669
 2181TIP3    H2 6508   2.046   4.571   2.409 -0.3228 -0.6919 -0.5609
 2182TIP3   OH2 6509   3.087   6.168   0.219 -0.5229  0.0208  0.4377
 2182TIP3    H1 6510   3.007   6.154   0.168  0.2243  0.4743 -0.9110
 2182TIP3    H2 6511   3.090   6.263   0.233  0.4650  0.1788 -0.7229
 2183TIP3   OH2 6512   0.129   2.568   2.015  0.4457 -0.0590 -0.5297
 2183TIP3    H1 6513   0.086   2.617   1.945  2.4011  1.5550 -0.6885
 2183TIP3    H2 6514   0.221   2.564   1.989  0.6948 -2.2519  0.4261
 2184TIP3   OH2 6515   5.978   1.697   4.597  0.6439  0.0171 -0.1610
 2184TIP3    H1 6516   5.961   1.731   4.685  1.9550  0.3722 -0.0126
 2184TIP3    H2 6517   5.992   1.603   4.610 -1.5196 -0.3693 -0.3570
 2185TIP3   OH2 6518   0.126   1.778   0.909  0.0482 -0.4349 -0.4679
 2185TIP3    H1 6519   0.175   1.826   0.843  0.6214  1.0798  0.9859
 2185TIP3    H2 6520   0.193   1.735   0.963 -0.1544  1.2928  1.2689
 2186TIP3   OH2 6521   6.737   0.153   0.448  0.4579 -0.5136  0.0682
 2186TIP3    H1 6522   6.750   0.145   0.543  0.0575  2.0942  0.4101
 2186TIP3    H2 6523   6.825   0.140   0.411  0.5883 -1.7176  0.7680
 2187TIP3   OH2 6524   1.088   0.256   3.024 -0.0636 -1.0415 -0.2584
 2187TIP3    H1 6525   1.099   0.298   2.939  0.3782 -1.1496 -0.2569
 2187TIP3    H2 6526   1.110   0.325   3.087  0.5913 -1.2461 -0.2545
 2188TIP3   OH2 6527   6.789   3.353   4.275  0.2033 -0.1127  0.0246
 2188TIP3    H1 6528   6.807   3.263   4.303  0.2942 -0.5649 -1.3817
 2188TIP3    H2 6529   6.741   3.343   4.193  0.6216  1.1243 -0.3958
 2189TIP3   OH2 6530   0.826   1.600   2.153 -0.1127  0.2520 -1.1178
 2189TIP3    H1 6531   0.890   1.664   2.122 -1.0094  1.5284 -0.4370
 2189TIP3    H2 6532   0.794   1.636   2.236  0.0562 -1.5897 -0.1976
 2190TIP3   OH2 6533   0.480   0.329   2.937 -0.0067 -1.1116 -0.2138
 2190TIP3    H1 6534   0.500   0.255   2.880  0.3340 -0.6729 -0.6682
 2190TIP3    H2 6535   0.546   0.323   3.006  0.5912 -0.6993 -0.7485
 2191TIP3   OH2 6536   1.868   0.554   1.850 -1.0849  0.1627  0.5595
 2191TIP3    H1 6537   1.805   0.536   1.920  0.6018 -0.2000  2.0467
 2191TIP3    H2 6538   1.942   0.595   1.894 -0.2267  0.5032 -1.1267
 2192TIP3   OH2 6539   4.990   4.417   3.325 -0.2266 -0.0631  0.2295
 2192TIP3    H1 6540   5.029   4.410   3.238  0.0926  2.1685  0.1210
 2192TIP3    H2 6541   4.899   4.442   3.308  0.1951  1.8384  0.4631
 2193TIP3   OH2 6542   3.705   6.502   5.457 -0.0054  0.2007  0.2582
 2193TIP3    H1 6543   3.704   6.597   5.449  0.9295  0.2370  0.4553
 2193TIP3    H2 6544   3.797   6.478   5.450 -0.1450 -0.6224  0.9731
 2194TIP3   OH2 6545   6.938   6.508   3.546 -0.0836  0.0707  0.8131
 2194TIP3    H1 6546   6.943   6.542   3.457 -0.1487 -1.3038  0.2604
 2194TIP3    H2 6547   7.011   6.550   3.592  0.5795  0.0152 -0.1666
 2195TIP3   OH2 6548   3.739  -0.020   2.733  0.0364 -0.0806 -0.0090
 2195TIP3    H1 6549   3.750   0.067   2.771  0.1587  0.2713 -0.8297
 2195TIP3    H2 6550   3.820  -0.035   2.685  0.2209 -0.8606  0.5332
 2196TIP3   OH2 6551   6.117   1.392   1.671  0.9761 -0.4130 -0.2141
 2196TIP3    H1 6552   6.130   1.485   1.651  0.6476 -0.2691  0.2264
 2196TIP3    H2 6553   6.204   1.360   1.695  0.5790  0.6832  3.2680
 2197TIP3   OH2 6554   4.519   4.068   1.910 -0.6299  0.1078 -0.3232
 2197TIP3    H1 6555   4.478   4.041   1.992  0.3999  2.3725  1.0484
 2197TIP3    H2 6556   4.518   4.164   1.914  2.4705  0.2814 -1.3481
 2198TIP3   OH2 6557   0.595   1.510   0.328 -0.1789  0.5587  0.1775
 2198TIP3    H1 6558   0.513   1.541   0.288 -0.1792 -0.4111 -0.6027
 2198TIP3    H2 6559   0.570   1.432   0.377 -0.2938  2.0439  2.6534
 2199TIP3   OH2 6560   6.318   4.016   0.214 -0.4966  0.0060  0.5289
 2199TIP3    H1 6561   6.362   3.932   0.226  1.0461  0.8953  1.3743
 2199TIP3    H2 6562   6.238   4.010   0.266 -0.0247 -0.6636  1.1841
 2200TIP3   OH2 6563   6.424   2.011   3.530  0.3869  0.3194 -0.1420
 2200TIP3    H1 6564   6.354   2.000   3.466  0.2115  2.3516 -0.3672
 2200TIP3    H2 6565   6.505   1.999   3.479  0.2440 -0.3933 -0.2199
 2201TIP3   OH2 6566   5.730   5.341   5.505 -0.0112  0.3173  0.4867
 2201TIP3    H1 6567   5.769   5.425   5.528  0.9273 -0.2495  1.0153
 2201TIP3    H2 6568   5.767   5.279   5.568  0.3807 -0.7388 -0.7380
 2202TIP3   OH2 6569   2.564   6.674   5.498  0.0720 -0.1609 -0.2719
 2202TIP3    H1 6570   2.478   6.632   5.497 -0.4777  0.8960  0.8002
 2202TIP3    H2 6571   2.548   6.763   5.466  0.7782  0.0261 -0.1278
 2203TIP3   OH2 6572   2.920   4.338   5.066  0.1338 -0.5104 -0.4819
 2203TIP3    H1 6573   2.835   4.362   5.029  0.1171 -1.5790 -1.1543
 2203TIP3    H2 6574   2.938   4.251   5.032  1.5359 -0.2753 -0.3934
 2204TIP3   OH2 6575   6.693   4.929   2.479  0.4172  0.0030  0.4864
 2204TIP3    H1 6576   6.625   4.996   2.473  1.9424  1.5957  0.1645
 2204TIP3    H2 6577   6.714   4.925   2.572 -1.6368 -2.1739  0.9522
 2205TIP3   OH2 6578   3.568   1.862   1.857  0.2097 -0.6051 -0.0043
 2205TIP3    H1 6579   3.638   1.927   1.848 -0.0396 -0.3862 -0.3420
 2205TIP3    H2 6580   3.549   1.861   1.951  0.9595 -0.9746  0.1515
 2206TIP3   OH2 6581   4.484   3.114   2.656  0.1853  0.0304 -0.2347
 2206TIP3    H1 6582   4.562   3.151   2.698 -0.8604  0.6405  1.2500
 2206TIP3    H2 6583   4.413   3.129   2.718 -0.9691 -1.3481 -1.1335
 2207TIP3   OH2 6584   3.230   5.588   5.436 -0.2364 -0.3757  0.7684
 2207TIP3    H1 6585   3.229   5.606   5.342  0.5691 -0.3682  0.7534
 2207TIP3    H2 6586   3.179   5.659   5.474 -1.8220 -1.1674  0.2255
 2208TIP3   OH2 6587   2.018   1.794   0.857 -0.2540  0.2049  0.2025
 2208TIP3    H1 6588   2.030   1.885   0.828 -1.0140  0.8797  1.8685
 2208TIP3    H2 6589   1.944   1.798   0.918 -2.7170 -2.1289 -2.3089
 2209TIP3   OH2 6590   5.337   1.238   3.283  0.2732 -0.0550  0.2314
 2209TIP3    H1 6591   5.379   1.275   3.361 -0.4559 -1.2377  1.2206
 2209TIP3    H2 6592   5.349   1.144   3.292 -0.3836 -0.2505 -0.7821
 2210TIP3   OH2 6593   4.778   4.096   0.995  0.0368 -0.1659  0.3406
 2210TIP3    H1 6594   4.765   4.038   0.920 -0.3211 -0.9659  1.0124
 2210TIP3    H2 6595   4.700   4.084   1.049  1.0307 -0.8845  1.6913
 2211TIP3   OH2 6596   0.428   6.312   2.406  0.3904 -0.2380  0.3293
 2211TIP3    H1 6597   0.386   6.397   2.393  1.7248  0.2050 -1.5565
 2211TIP3    H2 6598   0.522   6.331   2.402  0.7265 -1.7523  0.2550
 2212TIP3   OH2 6599   1.446   2.933   1.163 -0.3639 -0.3734 -0.4878
 2212TIP3    H1 6600   1.502   2.966   1.093 -0.1909 -0.9888 -0.6403
 2212TIP3    H2 6601   1.408   3.012   1.202  1.3901  0.1253  0.2734
 2213TIP3   OH2 6602   2.327   1.114   5.048  0.0956 -0.0202  0.2938
 2213TIP3    H1 6603   2.353   1.067   4.969 -1.5489 -0.0167 -0.3012
 2213TIP3    H2 6604   2.373   1.070   5.119  2.4567  0.6446 -0.7220
 2214TIP3   OH2 6605   2.166   1.213   1.064 -0.0882  0.1056  0.0716
 2214TIP3    H1 6606   2.159   1.135   1.119 -0.6080 -0.0660 -0.2335
 2214TIP3    H2 6607   2.100   1.273   1.099 -1.5189 -0.5871 -1.2997
 2215TIP3   OH2 6608   7.103   4.356   1.692 -0.4207 -0.0187  0.7447
 2215TIP3    H1 6609   7.080   4.431   1.746  0.0894  0.8764 -0.2595
 2215TIP3    H2 6610   7.197   4.365   1.676 -0.7294  0.3078 -1.1193
 2216TIP3   OH2 6611   1.540   2.112   0.540  0.0444 -0.1259 -0.4845
 2216TIP3    H1 6612   1.479   2.168   0.588  1.3445  0.4769  0.5426
 2216TIP3    H2 6613   1.553   2.158   0.456 -0.4733  0.0377 -0.4765
 2217TIP3   OH2 6614   1.377   6.134   5.187 -0.1256  0.2525  0.0091
 2217TIP3    H1 6615   1.352   6.197   5.119  1.3340  0.7202 -0.1358
 2217TIP3    H2 6616   1.446   6.081   5.145 -0.7650 -0.9135  0.4038
 2218TIP3   OH2 6617   0.671   1.941   4.871  0.1785 -0.5105  0.4469
 2218TIP3    H1 6618   0.583   1.904   4.871 -0.7271  1.5003 -0.6555
 2218TIP3    H2 6619   0.667   2.015   4.930  0.4098  1.0677 -1.4162
 2219TIP3   OH2 6620   3.879   0.073   2.052 -0.3062 -0.1332  0.0715
 2219TIP3    H1 6621   3.868   0.091   1.959 -1.5608 -0.5238  0.1283
 2219TIP3    H2 6622   3.894  -0.022   2.057 -2.0858 -0.4216  0.3844
 2220TIP3   OH2 6623   4.648   1.771   0.482  0.1621 -0.3453  0.0158
 2220TIP3    H1 6624   4.577   1.714   0.453  0.3430 -0.8698  0.5594
 2220TIP3    H2 6625   4.605   1.851   0.511 -0.7625 -2.0460  4.1180
 2221TIP3   OH2 6626   0.544   4.242   3.128 -0.5190  0.1698  0.5384
 2221TIP3    H1 6627   0.581   4.328   3.108  0.5976 -0.6038 -1.0021
 2221TIP3    H2 6628   0.603   4.205   3.194 -1.5787  0.9501  1.9566
 2222TIP3   OH2 6629   1.335   4.005   2.000  0.1189 -0.0176  0.4501
 2222TIP3    H1 6630   1.319   4.022   2.092 -3.5338  0.0205 -0.0421
 2222TIP3    H2 6631   1.248   3.994   1.962  1.3999  0.9098 -3.1942
 2223TIP3   OH2 6632   1.458   0.504   4.958  0.0158  0.2051 -0.6093
 2223TIP3    H1 6633   1.440   0.410   4.952  0.5903  0.1542 -1.7124
 2223TIP3    H2 6634   1.543   0.510   5.002 -0.1136  0.2207 -0.3591
 2224TIP3   OH2 6635   2.973   5.314   5.349 -0.2590 -0.3521 -0.0477
 2224TIP3    H1 6636   2.954   5.258   5.424  1.0264  2.1590  2.3552
 2224TIP3    H2 6637   3.056   5.357   5.371 -0.2499  1.1339 -2.5429
 2225TIP3   OH2 6638   2.905   4.129   0.536  0.4725 -0.5482 -0.0104
 2225TIP3    H1 6639   2.984   4.172   0.569  0.3655 -0.7477  0.5139
 2225TIP3    H2 6640   2.936   4.071   0.467  0.7057 -0.1511 -0.2432
 2226TIP3   OH2 6641   6.850   2.915   2.401  0.1873  0.0740 -0.7088
 2226TIP3    H1 6642   6.936   2.885   2.430  0.8364  2.1430 -0.2896
 2226TIP3    H2 6643   6.820   2.848   2.340  0.8066 -2.1144  1.2505
 2227TIP3   OH2 6644   3.667   0.187   5.097 -0.0272  0.4776  0.4129
 2227TIP3    H1 6645   3.648   0.166   5.189 -0.7447 -0.1408  0.1395
 2227TIP3    H2 6646   3.747   0.240   5.100 -0.5645  1.2563  1.4545
 2228TIP3   OH2 6647   3.041   5.996   3.113  0.4506  0.6559  0.3284
 2228TIP3    H1 6648   3.001   6.083   3.119  0.7212  0.8160 -0.1281
 2228TIP3    H2 6649   3.135   6.013   3.108  0.6301  0.2620  1.8446
 2229TIP3   OH2 6650   4.691   5.089   2.545  0.7050  0.4444  0.2665
 2229TIP3    H1 6651   4.719   5.179   2.560  2.8514 -0.0488 -0.4464
 2229TIP3    H2 6652   4.626   5.072   2.614  1.0419  2.1755  1.0582
 2230TIP3   OH2 6653   3.956   2.740   3.915  0.0031  0.1087  0.1327
 2230TIP3    H1 6654   3.991   2.824   3.885 -1.4375  0.0507 -1.9199
 2230TIP3    H2 6655   4.008   2.674   3.870  2.8335 -0.3300  3.6355
 2231TIP3   OH2 6656   0.173   3.346   4.359 -0.2022  0.2615  0.1567
 2231TIP3    H1 6657   0.101   3.332   4.297 -0.6822  2.2225  0.1963
 2231TIP3    H2 6658   0.224   3.417   4.321  1.5666 -0.8874  0.2940
 2232TIP3   OH2 6659   0.236   3.190   3.344 -0.1542  0.1414 -0.6054
 2232TIP3    H1 6660   0.267   3.199   3.254  1.0085 -0.8481 -0.3312
 2232TIP3    H2 6661   0.311   3.155   3.392 -0.7431  0.6903  0.7649
 2233TIP3   OH2 6662   0.472   5.582   5.177  0.0153  0.2104  0.4580
 2233TIP3    H1 6663   0.491   5.654   5.237  0.6057  0.1577  0.3391
 2233TIP3    H2 6664   0.509   5.505   5.220 -0.2982  0.0336  0.4162
 2234TIP3   OH2 6665   3.621   4.924   5.233 -0.5505  0.0650  0.4545
 2234TIP3    H1 6666   3.582   4.855   5.287 -0.0308 -0.7361 -0.1718
 2234TIP3    H2 6667   3.608   5.004   5.284  1.2077 -0.8357  2.4678
 2235TIP3   OH2 6668   4.938   2.941   2.080  0.0318 -0.1206  0.8358
 2235TIP3    H1 6669   4.875   2.917   2.012  1.4986  1.2513 -1.1062
 2235TIP3    H2 6670   5.018   2.962   2.033  0.9366  1.5421  2.9477
 2236TIP3   OH2 6671   3.709   5.400   4.594 -0.8261  0.3502 -0.1575
 2236TIP3    H1 6672   3.701   5.469   4.529  0.0638  0.6913  0.0797
 2236TIP3    H2 6673   3.627   5.404   4.643 -1.3939  0.2621 -1.0742
 2237TIP3   OH2 6674   3.606   0.315   0.269  0.6091  0.5325  0.4555
 2237TIP3    H1 6675   3.601   0.408   0.289  0.8381  0.3082  1.5829
 2237TIP3    H2 6676   3.632   0.273   0.351 -3.2696 -0.9488  1.1876
 2238TIP3   OH2 6677   4.036   2.117   1.744  0.2503  0.1683  0.1422
 2238TIP3    H1 6678   3.991   2.151   1.821  0.7418  1.7334 -0.2360
 2238TIP3    H2 6679   4.111   2.068   1.780 -1.0950 -1.5761  0.7262
 2239TIP3   OH2 6680   6.058   0.542   3.296 -0.4006  0.1271  0.2711
 2239TIP3    H1 6681   6.069   0.596   3.217 -1.5505 -1.0771 -0.7569
 2239TIP3    H2 6682   6.095   0.457   3.271 -4.0980 -1.4762 -0.4101
 2240TIP3   OH2 6683   6.719   5.438   3.779 -0.1751 -0.1895  0.5745
 2240TIP3    H1 6684   6.683   5.363   3.731 -1.3682 -0.1272  1.3303
 2240TIP3    H2 6685   6.810   5.413   3.798 -0.2780 -1.0440  0.0022
 2241TIP3   OH2 6686   2.802   6.727   5.878  0.2132  0.1847 -0.1450
 2241TIP3    H1 6687   2.713   6.692   5.872  0.4118 -0.2370 -0.7949
 2241TIP3    H2 6688   2.816   6.772   5.795  0.3583  0.8685  0.2425
 2242TIP3   OH2 6689   2.752   4.305   1.034 -0.0739 -0.1882  0.4862
 2242TIP3    H1 6690   2.678   4.259   1.073  1.4506 -1.1734  2.3493
 2242TIP3    H2 6691   2.775   4.253   0.958 -0.1486 -0.9010  0.9444
 2243TIP3   OH2 6692   1.156   1.613   1.420 -0.0931 -0.4717  0.1057
 2243TIP3    H1 6693   1.128   1.693   1.464  0.4398  0.4312 -1.1346
 2243TIP3    H2 6694   1.251   1.612   1.429 -0.2600 -3.1428  3.6505
 2244TIP3   OH2 6695   6.399   1.288   2.504  0.2209  0.1654 -0.3531
 2244TIP3    H1 6696   6.464   1.324   2.444 -0.1625 -0.1486 -0.9576
 2244TIP3    H2 6697   6.356   1.219   2.455 -0.9173  0.6919 -0.1309
 2245TIP3   OH2 6698   3.873   5.112   3.517  0.1071 -0.3013  0.4259
 2245TIP3    H1 6699   3.916   5.187   3.477 -0.2936 -0.4292 -0.2606
 2245TIP3    H2 6700   3.855   5.052   3.444  0.6896 -1.2031  1.0031
 2246TIP3   OH2 6701   6.856   1.215   1.567 -0.0911 -0.0517  0.3805
 2246TIP3    H1 6702   6.917   1.192   1.637 -0.3542  0.2894  0.7292
 2246TIP3    H2 6703   6.906   1.270   1.508  0.0729 -0.1656  0.4127
 2247TIP3   OH2 6704   0.575   5.872   1.072  0.1263  0.3571  0.0126
 2247TIP3    H1 6705   0.585   5.784   1.107  1.1738  1.0388  1.5100
 2247TIP3    H2 6706   0.525   5.860   0.991 -2.3739 -1.2961  1.6510
 2248TIP3   OH2 6707   2.275   5.821   1.643 -0.1801  0.3166 -0.3572
 2248TIP3    H1 6708   2.199   5.804   1.587  0.0666 -1.1442 -0.2796
 2248TIP3    H2 6709   2.288   5.740   1.691  2.0855  0.1523 -1.1588
 2249TIP3   OH2 6710   0.848   0.248   4.827 -0.0083 -0.3592 -0.2738
 2249TIP3    H1 6711   0.914   0.238   4.759  0.2950 -0.4598  0.0354
 2249TIP3    H2 6712   0.775   0.192   4.797 -0.4065  0.6034 -1.1596
 2250TIP3   OH2 6713   0.623   2.911   2.802  0.5677  0.1814  0.1320
 2250TIP3    H1 6714   0.562   2.845   2.769  0.5529  0.6640 -0.8479
 2250TIP3    H2 6715   0.570   2.991   2.809  1.3863  1.0312 -2.2857
 2251TIP3   OH2 6716   6.449   5.256   3.487 -0.5226  0.0774 -0.0884
 2251TIP3    H1 6717   6.443   5.250   3.392 -1.4153  0.0287 -0.0358
 2251TIP3    H2 6718   6.364   5.289   3.515 -0.1590  0.3983  0.6743
 2252TIP3   OH2 6719   0.395   2.346   3.164 -0.6248  0.0340 -0.1975
 2252TIP3    H1 6720   0.376   2.280   3.098  0.1390  0.3994 -0.7913
 2252TIP3    H2 6721   0.444   2.413   3.118 -2.1706  1.5001  0.1739
 2253TIP3   OH2 6722   3.730   3.035   3.379 -0.3357  0.3657 -0.0672
 2253TIP3    H1 6723   3.641   3.029   3.344 -0.3698  0.4063  0.0127
 2253TIP3    H2 6724   3.786   3.008   3.307 -0.3266  1.6135 -0.5601
 2254TIP3   OH2 6725   2.936   2.325   3.803 -0.0742  0.2117  0.2816
 2254TIP3    H1 6726   2.989   2.403   3.816  1.4652 -0.7988  0.3689
 2254TIP3    H2 6727   2.996   2.261   3.766 -1.1816 -1.0638  0.5959
 2255TIP3   OH2 6728   3.975   3.099   5.058 -0.8421 -0.5082  0.5739
 2255TIP3    H1 6729   3.996   3.120   5.148 -0.4486  0.5588  0.2459
 2255TIP3    H2 6730   4.016   3.014   5.043  2.2372  0.8820  0.3505
 2256TIP3   OH2 6731   0.713   0.509   0.456 -0.2399  0.3266  0.5073
 2256TIP3    H1 6732   0.771   0.571   0.410  0.0087  1.2847  2.0503
 2256TIP3    H2 6733   0.744   0.423   0.429  0.5010  0.8427 -0.3685
 2257TIP3   OH2 6734   5.362   2.693   4.891 -0.1385  0.1433 -0.0965
 2257TIP3    H1 6735   5.400   2.611   4.861  3.1678  1.0963  0.9849
 2257TIP3    H2 6736   5.275   2.670   4.922  0.0777 -2.6204 -1.2666
 2258TIP3   OH2 6737   5.126   5.628   1.730 -0.1116 -0.0299  0.0918
 2258TIP3    H1 6738   5.137   5.538   1.763  0.0528  0.3996  1.2650
 2258TIP3    H2 6739   5.074   5.671   1.798 -0.8264  0.5763 -0.8168
 2259TIP3   OH2 6740   1.660   0.107   2.699 -0.0842 -0.5033 -0.1077
 2259TIP3    H1 6741   1.743   0.111   2.747  0.2108  1.8019 -0.7178
 2259TIP3    H2 6742   1.593   0.118   2.766  0.0720 -1.8649  0.3185
 2260TIP3   OH2 6743   4.352   1.533   2.682  0.4160  0.1102 -0.2160
 2260TIP3    H1 6744   4.335   1.580   2.764 -1.3697 -0.4463 -0.2227
 2260TIP3    H2 6745   4.446   1.546   2.666  0.9749 -0.3079  2.2534
 2261TIP3   OH2 6746   2.610   2.200   1.103  0.2174  0.4331  0.1791
 2261TIP3    H1 6747   2.554   2.271   1.072 -1.4505 -0.8330  0.1432
 2261TIP3    H2 6748   2.642   2.229   1.188 -1.8177  0.5593  0.9447
 2262TIP3   OH2 6749   4.887   5.055   1.515  0.2493 -0.0840  0.4590
 2262TIP3    H1 6750   4.913   4.981   1.461 -0.7683  0.9131 -1.5411
 2262TIP3    H2 6751   4.833   5.017   1.584  0.4672 -1.2954 -0.0177
 2263TIP3   OH2 6752   4.824   5.607   5.815 -0.3993 -0.3642  0.3811
 2263TIP3    H1 6753   4.805   5.641   5.902 -0.2550  1.4337 -0.2511
 2263TIP3    H2 6754   4.869   5.524   5.831 -0.8765 -0.3391  1.9948
 2264TIP3   OH2 6755   6.075   3.034   3.328  0.2012 -0.0685  0.6297
 2264TIP3    H1 6756   6.028   3.000   3.252  0.3119 -0.2787  0.6552
 2264TIP3    H2 6757   6.059   2.969   3.397 -0.5481  0.5037  1.0136
 2265TIP3   OH2 6758   0.156   0.739   5.709  0.0993 -0.3008 -0.0517
 2265TIP3    H1 6759   0.248   0.743   5.683  0.0167 -3.1584 -1.0968
 2265TIP3    H2 6760   0.112   0.802   5.651  1.1192 -0.3733 -0.9255
 2266TIP3   OH2 6761   4.064   6.356   3.984 -0.2165 -0.0175 -0.7510
 2266TIP3    H1 6762   4.055   6.303   4.063  3.3252  0.6482  0.2740
 2266TIP3    H2 6763   4.022   6.305   3.915 -3.8280 -0.4245  1.5357
 2267TIP3   OH2 6764   3.186   3.435   4.572 -0.2809  0.2553  0.2210
 2267TIP3    H1 6765   3.246   3.465   4.640 -0.4504  0.4706  0.2744
 2267TIP3    H2 6766   3.206   3.491   4.497  1.1589 -1.1306 -0.5058
 2268TIP3   OH2 6767   4.269   4.879   4.060  0.4434  0.0323  0.1097
 2268TIP3    H1 6768   4.343   4.907   4.113  1.0029 -0.6594 -0.2919
 2268TIP3    H2 6769   4.203   4.948   4.072  0.5841 -0.0618  1.6264
 2269TIP3   OH2 6770   5.037   2.869   5.130  0.1949 -0.0830 -0.6092
 2269TIP3    H1 6771   5.118   2.873   5.179 -0.0568 -2.4747  0.1017
 2269TIP3    H2 6772   4.975   2.922   5.181  0.7139 -0.0902  0.0306
 2270TIP3   OH2 6773   7.217   6.430   4.980 -0.1786 -0.0241 -0.4683
 2270TIP3    H1 6774   7.242   6.450   5.070 -0.6874  1.9003 -0.7162
 2270TIP3    H2 6775   7.141   6.486   4.963  0.4333  0.3107 -2.3702
 2271TIP3   OH2 6776   1.209   2.696   2.546  0.2889 -0.0384  0.6386
 2271TIP3    H1 6777   1.153   2.624   2.518  1.6894 -0.9123 -0.0354
 2271TIP3    H2 6778   1.205   2.695   2.642 -1.2803  0.3037  0.5996
 2272TIP3   OH2 6779   3.207   6.221   4.381 -0.5924 -0.3959 -0.5915
 2272TIP3    H1 6780   3.196   6.311   4.411  0.0823 -0.1045 -1.1699
 2272TIP3    H2 6781   3.301   6.213   4.364 -0.8043 -0.8605 -1.6221
 2273TIP3   OH2 6782   3.361   2.301   4.336  0.3816  0.2109  0.2648
 2273TIP3    H1 6783   3.403   2.319   4.420  0.0648  1.8363  0.1059
 2273TIP3    H2 6784   3.355   2.205   4.332  0.3823  0.1035  2.0915
 2274TIP3   OH2 6785   0.589   4.991   4.442 -0.3896 -0.5281 -0.3633
 2274TIP3    H1 6786   0.588   5.060   4.376  0.0591  0.9305  1.0839
 2274TIP3    H2 6787   0.603   5.038   4.525  1.6070 -2.4951  0.5013
 2275TIP3   OH2 6788   0.267   0.195   4.244  0.0569 -0.0611  0.5724
 2275TIP3    H1 6789   0.226   0.111   4.266  1.6305 -0.9236  0.4193
 2275TIP3    H2 6790   0.253   0.250   4.321 -0.2636 -0.7528  1.0213
 2276TIP3   OH2 6791   5.174   4.365   0.185 -0.3137 -0.1028  0.2509
 2276TIP3    H1 6792   5.127   4.310   0.248 -1.3513  1.5416  0.9602
 2276TIP3    H2 6793   5.235   4.417   0.237 -0.7671  0.8596 -0.1564
 2277TIP3   OH2 6794   5.703   6.442   2.679 -0.3218 -0.2305 -0.4756
 2277TIP3    H1 6795   5.747   6.456   2.595  1.6582 -1.9221  0.1944
 2277TIP3    H2 6796   5.650   6.364   2.666  0.3300 -0.7540 -0.0582
 2278TIP3   OH2 6797   0.744   2.715   0.831 -0.0552 -0.8389  0.3255
 2278TIP3    H1 6798   0.830   2.695   0.794 -0.6332 -1.7183 -0.5994
 2278TIP3    H2 6799   0.684   2.708   0.756 -0.9986 -0.7532  1.0601
 2279TIP3   OH2 6800   1.191   1.705   2.262  0.0100 -0.0367  0.8680
 2279TIP3    H1 6801   1.138   1.640   2.307 -1.9619  0.4790 -0.5792
 2279TIP3    H2 6802   1.130   1.749   2.203  1.2629  3.0057  1.6310
 2280TIP3   OH2 6803   3.513   1.747   3.855 -0.7277  0.1345  0.3763
 2280TIP3    H1 6804   3.438   1.725   3.801  0.6980 -0.5687 -1.4458
 2280TIP3    H2 6805   3.542   1.663   3.892  0.2943  0.0568 -0.5442
 2281TIP3   OH2 6806   1.200   3.982   1.053 -0.4674  0.1205 -0.8197
 2281TIP3    H1 6807   1.222   4.008   1.142 -0.1520  0.0671 -0.8814
 2281TIP3    H2 6808   1.106   3.966   1.055 -0.8624  2.0859 -0.9679
 2282TIP3   OH2 6809   4.061   0.844   1.278  0.2731 -0.1719  0.0776
 2282TIP3    H1 6810   4.055   0.910   1.210 -0.3011 -0.7077 -0.4057
 2282TIP3    H2 6811   3.983   0.857   1.332  0.2561 -0.3287  0.0929
 2283TIP3   OH2 6812   1.368   5.848   5.600 -0.0617  0.1382  0.1503
 2283TIP3    H1 6813   1.303   5.827   5.667 -0.4672 -3.1041 -1.0649
 2283TIP3    H2 6814   1.331   5.922   5.552 -1.9999 -0.4707  0.6323
 2284TIP3   OH2 6815   4.327   1.185   1.106 -0.2953 -0.2167  0.3340
 2284TIP3    H1 6816   4.379   1.266   1.110 -2.2969  1.1172  0.9764
 2284TIP3    H2 6817   4.386   1.117   1.137  0.7236  1.4186  2.2595
 2285TIP3   OH2 6818   1.019   4.493   5.838 -0.0311 -0.2239 -0.3237
 2285TIP3    H1 6819   0.999   4.403   5.864 -0.3554  0.3688  1.6760
 2285TIP3    H2 6820   0.967   4.508   5.759  0.0028 -1.7654 -0.6607
 2286TIP3   OH2 6821   1.458   3.493   1.486  0.1009  0.0484  0.5735
 2286TIP3    H1 6822   1.546   3.458   1.468 -0.8498 -1.7112 -1.0218
 2286TIP3    H2 6823   1.409   3.418   1.519 -1.1374  0.6960  0.2709
 2287TIP3   OH2 6824   6.987   3.375   2.200  0.0349  0.3655  0.4027
 2287TIP3    H1 6825   6.979   3.435   2.127 -1.4275 -1.4126 -1.0045
 2287TIP3    H2 6826   7.081   3.361   2.211  0.2915  1.1470 -0.7147
 2288TIP3   OH2 6827   2.630   4.041   2.052  0.2664  0.1266 -0.3600
 2288TIP3    H1 6828   2.572   4.027   2.126  0.3338 -2.2047 -0.6721
 2288TIP3    H2 6829   2.711   3.995   2.075  0.0883 -1.1603 -2.0576
 2289TIP3   OH2 6830   4.850   4.411   3.685 -0.0168 -0.5699  0.4240
 2289TIP3    H1 6831   4.774   4.379   3.734  0.5436 -3.0185 -0.1887
 2289TIP3    H2 6832   4.812   4.461   3.613 -0.9460  0.2469  1.4328
 2290TIP3   OH2 6833   2.018   6.299   3.393  0.4000 -0.0498 -0.0500
 2290TIP3    H1 6834   1.969   6.369   3.350 -0.3000  0.3016  1.2660
 2290TIP3    H2 6835   2.071   6.344   3.459  1.5292 -0.5610 -0.5829
 2291TIP3   OH2 6836   3.100   3.234   4.984 -0.1814 -0.1359 -0.7009
 2291TIP3    H1 6837   3.139   3.313   5.020 -0.9183 -1.0342  2.3783
 2291TIP3    H2 6838   3.033   3.265   4.923 -0.5456  1.6348  0.5298
 2292TIP3   OH2 6839   0.817   1.795   0.929 -0.0722  0.2203  0.5774
 2292TIP3    H1 6840   0.823   1.704   0.959 -0.2986  0.2329  0.6621
 2292TIP3    H2 6841   0.741   1.830   0.976 -0.1919  0.3541  0.2809
 2293TIP3   OH2 6842   5.971   3.862   3.534 -0.2767 -0.0711  0.2787
 2293TIP3    H1 6843   5.999   3.936   3.587  1.1178  0.3480 -0.9667
 2293TIP3    H2 6844   5.904   3.897   3.476  0.7785  0.3894 -0.6943
 2294TIP3   OH2 6845   7.107   0.011   5.849  0.4686  0.3728  0.4425
 2294TIP3    H1 6846   7.193   0.053   5.858  0.6232  0.0765  0.3657
 2294TIP3    H2 6847   7.047   0.083   5.831  0.5399  0.6994  1.4670
 2295TIP3   OH2 6848   0.279   1.842   0.692  0.7662  0.2996  0.2236
 2295TIP3    H1 6849   0.286   1.935   0.714  3.7177  0.1406  0.4476
 2295TIP3    H2 6850   0.325   1.833   0.608  1.8744 -1.1070  0.9197
 2296TIP3   OH2 6851   1.943   5.344   1.695  0.3261 -0.0021 -0.1646
 2296TIP3    H1 6852   1.848   5.356   1.707  0.5816  1.3213  0.6393
 2296TIP3    H2 6853   1.949   5.292   1.614 -1.0957 -0.5512  0.0394
 2297TIP3   OH2 6854   1.767   3.471   1.417 -0.0999  0.2982  0.0630
 2297TIP3    H1 6855   1.755   3.456   1.510  1.2175 -1.2836  0.0291
 2297TIP3    H2 6856   1.835   3.537   1.411 -1.7764  2.1349  0.1808
 2298TIP3   OH2 6857   6.088   4.951   4.841 -0.5819 -0.4908 -0.7074
 2298TIP3    H1 6858   6.001   4.987   4.823  0.3530  1.8200 -0.9807
 2298TIP3    H2 6859   6.100   4.963   4.935  0.0690  0.7828 -0.9372
 2299TIP3   OH2 6860   0.091   3.392   5.613  0.3121  0.2261 -0.1795
 2299TIP3    H1 6861   0.069   3.300   5.602  2.8473 -0.3157 -1.2979
 2299TIP3    H2 6862   0.038   3.437   5.547  0.2378 -0.6238 -0.7154
 2300TIP3   OH2 6863   2.458   5.457   4.159 -0.8356  0.1743 -1.0363
 2300TIP3    H1 6864   2.383   5.397   4.151 -2.0469  1.6240 -1.0923
 2300TIP3    H2 6865   2.476   5.484   4.069  0.0116 -0.4358 -1.0603
 2301TIP3   OH2 6866   3.347   1.893   2.581  0.2527  0.8306 -0.0760
 2301TIP3    H1 6867   3.375   1.828   2.645 -0.2785  0.6478 -0.0268
 2301TIP3    H2 6868   3.349   1.976   2.628  0.9022  0.8543 -0.1315
 2302TIP3   OH2 6869   6.027   5.630   4.658 -0.2012  0.7917  0.1010
 2302TIP3    H1 6870   5.989   5.660   4.741 -0.7112  0.4164  0.0050
 2302TIP3    H2 6871   6.088   5.561   4.683  0.7578  1.6894  0.2958
 2303TIP3   OH2 6872   5.874   6.526   2.040 -0.0598  0.1531  0.3953
 2303TIP3    H1 6873   5.840   6.442   2.011  2.2561 -1.2172  1.3426
 2303TIP3    H2 6874   5.896   6.573   1.960  0.8466 -1.1717 -0.1735
 2304TIP3   OH2 6875   6.461   2.224   4.972  0.2205  0.4397 -0.0097
 2304TIP3    H1 6876   6.477   2.302   4.919  0.1833 -0.0905 -0.8190
 2304TIP3    H2 6877   6.524   2.230   5.043 -0.0009  1.3740  0.1286
 2305TIP3   OH2 6878   4.924   2.812   4.650 -0.1545 -0.2441  0.2749
 2305TIP3    H1 6879   4.976   2.830   4.571  0.4251 -1.8775  0.2424
 2305TIP3    H2 6880   4.988   2.815   4.721 -0.3897 -0.2730  0.4870
 2306TIP3   OH2 6881   1.125   5.827   3.674 -0.0088  0.2187 -0.2221
 2306TIP3    H1 6882   1.144   5.881   3.751 -0.0031  0.7215 -0.5688
 2306TIP3    H2 6883   1.107   5.740   3.710  1.6854  0.0056  0.2284
 2307TIP3   OH2 6884   1.738   2.613   0.279 -0.0504 -0.2415 -0.1940
 2307TIP3    H1 6885   1.673   2.589   0.214  0.4416 -1.5053 -0.2463
 2307TIP3    H2 6886   1.723   2.707   0.295 -0.5522 -0.0471 -1.6744
 2308TIP3   OH2 6887   2.104   2.109   4.666  0.5907 -0.0546  0.0528
 2308TIP3    H1 6888   2.130   2.131   4.755 -0.4955 -0.7898  0.5680
 2308TIP3    H2 6889   2.165   2.039   4.640  0.0834 -0.7496  0.7085
 2309TIP3   OH2 6890   2.812   3.260   4.013  0.9967 -0.1455 -0.5185
 2309TIP3    H1 6891   2.800   3.165   4.015 -1.2296  0.0913 -0.3110
 2309TIP3    H2 6892   2.846   3.282   4.099  0.8498 -0.6756 -0.3228
 2310TIP3   OH2 6893   2.930   2.135   1.355  0.3165 -0.3178 -0.0370
 2310TIP3    H1 6894   3.004   2.109   1.410 -0.7875  0.9400  2.1969
 2310TIP3    H2 6895   2.896   2.052   1.321  2.0438 -1.0076 -0.2176
 2311TIP3   OH2 6896   1.772   2.704   1.120  0.3402 -0.4821 -0.1146
 2311TIP3    H1 6897   1.859   2.673   1.145  0.0981  0.5371  2.1803
 2311TIP3    H2 6898   1.712   2.639   1.155  0.0708  0.0290  0.3839
 2312TIP3   OH2 6899   4.987   5.500   3.312  0.0506  0.0289 -0.0542
 2312TIP3    H1 6900   4.946   5.482   3.397  2.0848  0.6141  1.1342
 2312TIP3    H2 6901   5.068   5.448   3.313  0.0055 -0.1295 -1.7470
 2313TIP3   OH2 6902   6.664   0.944   5.284 -0.4719  0.0212 -0.5288
 2313TIP3    H1 6903   6.730   0.889   5.240 -0.4876  0.0824 -0.6299
 2313TIP3    H2 6904   6.648   0.900   5.367  2.1042  1.6985  1.0064
 2314TIP3   OH2 6905   6.582   0.708   2.220  0.0770  0.3305  0.3310
 2314TIP3    H1 6906   6.544   0.646   2.282 -0.7893  0.2573 -0.2484
 2314TIP3    H2 6907   6.529   0.787   2.231  0.7418  0.7470  0.5836
 2315TIP3   OH2 6908   1.506   2.459   4.944 -0.4454  0.3241 -0.1851
 2315TIP3    H1 6909   1.563   2.399   4.992  0.7939  0.9020 -0.8989
 2315TIP3    H2 6910   1.559   2.537   4.930 -0.3756 -0.1619 -3.3346
 2316TIP3   OH2 6911   5.005   1.438   4.827  0.1214 -0.4921 -0.6364
 2316TIP3    H1 6912   5.028   1.360   4.878  1.4125 -1.8214 -3.0914
 2316TIP3    H2 6913   5.087   1.467   4.789 -0.3969  1.9534 -0.0267
 2317TIP3   OH2 6914   6.410   0.866   1.428 -0.3074  0.6697  0.2311
 2317TIP3    H1 6915   6.484   0.861   1.489 -0.2676 -0.9929  0.0994
 2317TIP3    H2 6916   6.410   0.781   1.383 -0.9037  1.4980 -1.4334
 2318TIP3   OH2 6917   1.678   1.749   5.453 -0.1355 -0.5256  0.2046
 2318TIP3    H1 6918   1.698   1.751   5.546  0.6206 -2.5862  0.1318
 2318TIP3    H2 6919   1.763   1.748   5.410 -0.4216 -1.9861 -0.3935
 2319TIP3   OH2 6920   4.562   2.723   1.722 -0.1609  0.2293 -0.5296
 2319TIP3    H1 6921   4.545   2.692   1.811 -0.2552  0.8733 -0.3154
 2319TIP3    H2 6922   4.544   2.647   1.666 -3.4103  0.6742 -0.2848
 2320TIP3   OH2 6923   3.064   6.039   4.650 -0.2881  0.3590 -0.1956
 2320TIP3    H1 6924   3.006   6.075   4.717 -2.3920  0.1659 -1.8152
 2320TIP3    H2 6925   3.102   6.116   4.607  0.8328  0.4846  0.9700
 2321TIP3   OH2 6926   5.726   6.198   0.722 -0.2375  0.9062 -0.0013
 2321TIP3    H1 6927   5.809   6.218   0.679 -0.6285 -0.0147 -1.2551
 2321TIP3    H2 6928   5.661   6.248   0.673 -0.8761 -1.2275 -1.4975
 2322TIP3   OH2 6929   1.423   4.160   0.330  0.2871 -0.1742 -0.3070
 2322TIP3    H1 6930   1.440   4.240   0.281  0.7707  0.7564  1.3079
 2322TIP3    H2 6931   1.479   4.094   0.288  1.1981  0.7515 -0.5846
 2323TIP3   OH2 6932   7.003   2.612   0.966  0.2867  0.1412 -0.3677
 2323TIP3    H1 6933   6.963   2.697   0.947  0.0594  0.1390  0.0996
 2323TIP3    H2 6934   7.093   2.633   0.990 -0.3435  0.4826  1.9377
 2324TIP3   OH2 6935   3.126   1.701   1.766 -0.2718  0.1950  0.5525
 2324TIP3    H1 6936   3.167   1.622   1.731  1.4205  0.6862  1.3430
 2324TIP3    H2 6937   3.198   1.762   1.779 -1.5976  2.1810 -0.7125
 2325TIP3   OH2 6938   0.499   5.281   4.933  0.0547 -0.1427 -0.6545
 2325TIP3    H1 6939   0.533   5.206   4.983 -0.9606 -0.2820 -0.1492
 2325TIP3    H2 6940   0.577   5.329   4.906  0.6788 -0.8176 -0.0903
 2326TIP3   OH2 6941   3.079   2.301   4.946  0.0547  0.4428 -0.6543
 2326TIP3    H1 6942   3.157   2.335   4.988 -0.0381 -2.1086  1.9478
 2326TIP3    H2 6943   3.081   2.207   4.964 -1.9968 -0.2474 -3.3051
 2327TIP3   OH2 6944   4.882   2.718   1.254  0.2494 -0.1480 -0.0221
 2327TIP3    H1 6945   4.798   2.730   1.211 -0.1897 -0.0580  0.8447
 2327TIP3    H2 6946   4.871   2.756   1.341  0.3293 -2.4753  1.0753
 2328TIP3   OH2 6947   2.176   1.371   2.751 -0.0066 -0.1092  0.2865
 2328TIP3    H1 6948   2.180   1.466   2.761  2.8352 -0.3171  2.0086
 2328TIP3    H2 6949   2.087   1.354   2.718 -0.1212  3.2019 -1.4710
 2329TIP3   OH2 6950   6.580   5.610   2.933 -0.4434 -0.0229 -0.2088
 2329TIP3    H1 6951   6.591   5.557   3.012 -2.1198  1.5962  1.2045
 2329TIP3    H2 6952   6.510   5.566   2.885  0.2176 -0.7145 -0.5643
 2330TIP3   OH2 6953   0.793   3.499   1.891 -0.1978  0.1583 -0.3687
 2330TIP3    H1 6954   0.741   3.514   1.812 -1.5062 -0.8943  0.2420
 2330TIP3    H2 6955   0.821   3.407   1.884 -0.7682 -0.1031  0.6153
 2331TIP3   OH2 6956   3.448   6.478   3.200 -0.1575  0.5624 -0.2919
 2331TIP3    H1 6957   3.383   6.441   3.140 -1.7304  1.0211  1.0549
 2331TIP3    H2 6958   3.415   6.565   3.221  1.7331  1.4349 -0.7642
 2332TIP3   OH2 6959   0.038   6.505   5.253  0.6436  0.0611  0.6411
 2332TIP3    H1 6960   0.018   6.431   5.310 -1.1432  0.0420  0.0556
 2332TIP3    H2 6961  -0.002   6.580   5.297 -2.0033 -0.1610 -1.1259
 2333TIP3   OH2 6962   3.354   2.542   5.841 -0.5267  0.0553 -0.4097
 2333TIP3    H1 6963   3.271   2.522   5.885  0.6789 -0.7263  1.6712
 2333TIP3    H2 6964   3.405   2.589   5.907  0.8109  0.2728 -1.5452
 2334TIP3   OH2 6965   0.734   0.204   2.410  0.1335 -0.1880  0.0681
 2334TIP3    H1 6966   0.795   0.188   2.482  0.5104  1.6333  0.2017
 2334TIP3    H2 6967   0.788   0.206   2.332  0.4271  2.0269  0.2504
 2335TIP3   OH2 6968   5.161   1.523   1.864  0.0791  0.2460 -0.1716
 2335TIP3    H1 6969   5.245   1.546   1.824 -0.3851 -1.9046 -2.6273
 2335TIP3    H2 6970   5.175   1.436   1.900 -1.4356 -0.8219 -2.0074
 2336TIP3   OH2 6971   0.976   0.323   1.529 -0.5018 -0.1061  0.0823
 2336TIP3    H1 6972   0.882   0.334   1.538 -0.3116  1.2186  0.6412
 2336TIP3    H2 6973   0.991   0.230   1.542 -1.8461 -0.5147 -1.0956
 2337TIP3   OH2 6974   5.139   0.885   2.431 -0.6836 -0.2268  0.3032
 2337TIP3    H1 6975   5.164   0.976   2.411  1.1154 -0.6970  0.3179
 2337TIP3    H2 6976   5.220   0.835   2.424 -1.3317 -1.5928  1.8680
 2338TIP3   OH2 6977   3.507   5.767   1.275  0.0921  0.6597 -0.1126
 2338TIP3    H1 6978   3.450   5.696   1.305 -1.3773  1.5135 -0.7986
 2338TIP3    H2 6979   3.466   5.847   1.308  2.0656  1.2065  1.2123
 2339TIP3   OH2 6980   5.692   5.514   3.445  0.1038 -0.0511  0.4412
 2339TIP3    H1 6981   5.773   5.520   3.394 -0.1449 -0.3384  0.0103
 2339TIP3    H2 6982   5.721   5.525   3.536  0.4064  1.6227  0.1776
 2340TIP3   OH2 6983   5.163   5.360   0.538  0.0310  0.0152 -0.1418
 2340TIP3    H1 6984   5.164   5.280   0.485  0.8320 -0.5179  0.6528
 2340TIP3    H2 6985   5.217   5.422   0.489 -1.1806  0.3253 -1.1203
 2341TIP3   OH2 6986   4.479   1.461   3.593  0.4004 -1.0502  0.0259
 2341TIP3    H1 6987   4.492   1.544   3.639 -0.0952 -1.5404  1.0782
 2341TIP3    H2 6988   4.485   1.483   3.500 -0.0307  0.2075  0.2912
 2342TIP3   OH2 6989   4.112   5.120   3.967 -0.3651 -0.2779  0.4428
 2342TIP3    H1 6990   4.166   5.198   3.973  1.0912 -1.0952 -1.1130
 2342TIP3    H2 6991   4.091   5.113   3.873  1.6605 -3.0630  0.0885
 2343TIP3   OH2 6992   1.226   1.513   0.266 -0.1486 -0.5221  0.0614
 2343TIP3    H1 6993   1.300   1.564   0.298 -1.1760  1.1649 -0.0557
 2343TIP3    H2 6994   1.224   1.435   0.320  1.3249 -0.2886  0.4873
 2344TIP3   OH2 6995   3.035   3.165   4.258  0.6167  0.4106  0.2021
 2344TIP3    H1 6996   3.024   3.106   4.184  0.9183  0.5863  0.0145
 2344TIP3    H2 6997   3.109   3.128   4.307  0.3257  0.2141  0.4936
 2345TIP3   OH2 6998   3.750   0.561   0.153  0.3248 -0.8481  0.0406
 2345TIP3    H1 6999   3.761   0.480   0.103 -0.0400 -0.5638 -0.4998
 2345TIP3    H2 7000   3.771   0.631   0.092 -1.1169 -0.4429 -0.0397
 2346TIP3   OH2 7001   3.038   4.508   0.206  0.2153  0.3810 -0.0141
 2346TIP3    H1 7002   2.979   4.583   0.212 -1.2447 -0.6783 -0.2704
 2346TIP3    H2 7003   3.045   4.491   0.112 -1.5539 -1.2869  0.0834
 2347TIP3   OH2 7004   1.016   4.034   0.381 -0.0367  0.6691 -0.2025
 2347TIP3    H1 7005   0.924   4.056   0.389  0.1916  1.2711  0.9708
 2347TIP3    H2 7006   1.039   3.992   0.465  0.9461  1.3000 -0.1348
 2348TIP3   OH2 7007   2.062   3.108   3.629  0.3899  0.7266  0.3132
 2348TIP3    H1 7008   2.033   3.199   3.638 -0.7707  0.3096  0.8785
 2348TIP3    H2 7009   1.989   3.063   3.586 -0.4071 -0.6252  2.9228
 2349TIP3   OH2 7010   1.032   2.007   4.812  1.0899 -0.5527 -0.1778
 2349TIP3    H1 7011   1.002   2.061   4.884  1.4201 -1.3727  0.5960
 2349TIP3    H2 7012   0.963   2.015   4.745  0.8199  0.2709  0.1865
 2350TIP3   OH2 7013   4.955   2.265   2.914 -0.3642  0.6010 -0.3503
 2350TIP3    H1 7014   5.003   2.301   2.989  1.7618 -1.8030 -0.4230
 2350TIP3    H2 7015   4.966   2.331   2.846  3.7117 -0.0937 -0.6051
 2351TIP3   OH2 7016   0.189   2.563   1.110  0.4293  0.3923 -0.4287
 2351TIP3    H1 7017   0.195   2.510   1.031 -2.2613 -0.2548 -0.2805
 2351TIP3    H2 7018   0.124   2.630   1.090  0.7730  1.1153  0.7642
 2352TIP3   OH2 7019   2.567   1.469   5.670  0.2887  0.4722 -0.0426
 2352TIP3    H1 7020   2.473   1.452   5.678  0.3553 -0.0323 -0.2880
 2352TIP3    H2 7021   2.573   1.558   5.635 -0.1290  0.0799 -1.1536
 2353TIP3   OH2 7022   0.165   1.992   3.860 -0.3850 -0.6462 -0.0453
 2353TIP3    H1 7023   0.187   1.903   3.835 -0.8525 -0.5095 -1.0050
 2353TIP3    H2 7024   0.111   1.983   3.939 -2.1467 -1.3589 -1.2664
 2354TIP3   OH2 7025   3.583   1.960   0.840 -0.4691  0.3479 -0.1930
 2354TIP3    H1 7026   3.613   1.904   0.911  0.6495  0.4358 -0.5867
 2354TIP3    H2 7027   3.658   1.967   0.781 -1.3540  0.3161 -1.3626
 2355TIP3   OH2 7028   6.901   5.115   5.119 -0.4121 -0.1573  0.9272
 2355TIP3    H1 7029   6.841   5.188   5.101 -0.4205  0.1227  2.0372
 2355TIP3    H2 7030   6.949   5.103   5.037 -1.7148 -0.1374  0.1386
 2356TIP3   OH2 7031   6.713   5.943   2.024  0.1294 -0.4638  0.7328
 2356TIP3    H1 7032   6.666   6.026   2.021 -1.3540 -1.2726 -0.3427
 2356TIP3    H2 7033   6.702   5.912   2.114 -1.3580 -0.5556  0.5553
 2357TIP3   OH2 7034   0.527   2.919   2.537 -0.2611  0.1014  0.1725
 2357TIP3    H1 7035   0.479   2.849   2.580 -0.4755 -0.3561 -0.7829
 2357TIP3    H2 7036   0.479   2.934   2.455  0.9043  0.0146 -0.5439
 2358TIP3   OH2 7037   0.182   6.572   0.047 -0.8161 -0.2313 -0.3663
 2358TIP3    H1 7038   0.186   6.546  -0.045  0.4669 -0.7643 -0.1741
 2358TIP3    H2 7039   0.257   6.529   0.088 -0.6950  0.9436  0.6988
 2359TIP3   OH2 7040   5.383   4.119   3.472  0.3429 -0.4049 -0.2407
 2359TIP3    H1 7041   5.353   4.056   3.407 -0.0755  0.1400 -0.5797
 2359TIP3    H2 7042   5.327   4.104   3.548 -0.2065  0.0156 -0.5609
 2360TIP3   OH2 7043   5.421   5.253   3.529 -0.7323 -0.0838  0.2499
 2360TIP3    H1 7044   5.351   5.190   3.540 -1.0914  0.2995  0.2003
 2360TIP3    H2 7045   5.380   5.327   3.484 -0.5960  0.6506  1.2813
 2361TIP3   OH2 7046   3.450   4.608   4.548 -0.1610 -0.3389 -0.0657
 2361TIP3    H1 7047   3.468   4.687   4.597  0.4656 -0.3355 -0.2849
 2361TIP3    H2 7048   3.506   4.615   4.470  0.5179 -1.3709  0.3105
 2362TIP3   OH2 7049   2.749   5.197   2.482  0.1531 -0.0867  0.3412
 2362TIP3    H1 7050   2.843   5.187   2.501  0.1994 -1.7613 -0.5886
 2362TIP3    H2 7051   2.706   5.152   2.555  0.1812 -1.6564 -0.5667
 2363TIP3   OH2 7052   2.503   1.766   5.864 -0.0759 -0.2848 -0.4695
 2363TIP3    H1 7053   2.474   1.679   5.890 -0.9488 -0.2152 -1.1619
 2363TIP3    H2 7054   2.499   1.765   5.768  1.1304  0.1047 -0.5410
 2364TIP3   OH2 7055   5.211   2.043   1.454 -0.0707 -0.1731 -0.7159
 2364TIP3    H1 7056   5.219   2.138   1.446 -2.9170  0.1369 -0.9234
 2364TIP3    H2 7057   5.131   2.029   1.504  0.2398 -2.4814 -0.7241
 2365TIP3   OH2 7058   2.146   4.787   1.517 -0.7665  0.6670  0.2504
 2365TIP3    H1 7059   2.076   4.845   1.545  1.1043  3.0285  0.4116
 2365TIP3    H2 7060   2.138   4.783   1.422 -0.5983  1.6902  0.1852
 2366TIP3   OH2 7061   3.640   1.058   2.317  0.3112  0.2837 -0.2155
 2366TIP3    H1 7062   3.673   1.135   2.271 -2.4115  0.1086 -2.8134
 2366TIP3    H2 7063   3.619   1.089   2.404  1.4456  1.8626 -0.4708
 2367TIP3   OH2 7064   3.624   2.595   0.096  0.6386  0.3303  0.2868
 2367TIP3    H1 7065   3.622   2.690   0.082  1.2486  0.1169 -1.6387
 2367TIP3    H2 7066   3.535   2.566   0.079  0.2987  0.6103  1.5135
 2368TIP3   OH2 7067   3.612   5.888   1.715  0.1417 -0.4564 -0.2512
 2368TIP3    H1 7068   3.588   5.822   1.780 -0.1664 -0.0495  0.0546
 2368TIP3    H2 7069   3.538   5.949   1.713  0.0910 -0.5357 -1.0851
 2369TIP3   OH2 7070   1.870   4.937   0.345 -0.2194 -0.3959 -0.3192
 2369TIP3    H1 7071   1.782   4.914   0.375  0.4393 -1.7352  0.7190
 2369TIP3    H2 7072   1.897   4.863   0.291  0.0559  0.2723 -1.1115
 2370TIP3   OH2 7073   2.194   6.028   3.930 -0.1685  0.4444 -0.3369
 2370TIP3    H1 7074   2.172   6.111   3.889  0.8491  0.7953 -0.1959
 2370TIP3    H2 7075   2.254   6.051   4.002 -1.3148 -0.2349  0.8742
 2371TIP3   OH2 7076   2.900   4.121   4.755 -0.0189  0.2787  0.1761
 2371TIP3    H1 7077   2.976   4.177   4.744  0.1867  0.1628  0.9185
 2371TIP3    H2 7078   2.899   4.100   4.849  0.2097 -1.3663 -0.1606
 2372TIP3   OH2 7079   1.376   2.753   0.680 -0.2387  0.5200 -0.1003
 2372TIP3    H1 7080   1.396   2.846   0.676 -0.9196  0.6390 -1.4358
 2372TIP3    H2 7081   1.287   2.749   0.714  0.1913  0.2772  1.0341
 2373TIP3   OH2 7082   6.381   1.882   3.790 -0.1549  0.0210 -0.1651
 2373TIP3    H1 7083   6.325   1.805   3.778  1.8654 -1.4195 -0.8346
 2373TIP3    H2 7084   6.386   1.922   3.703 -0.0542  0.0869 -0.1290
 2374TIP3   OH2 7085   1.928   5.002   0.794 -0.3603  0.2903  0.3203
 2374TIP3    H1 7086   1.975   4.978   0.715  0.0521 -0.0492  0.6627
 2374TIP3    H2 7087   1.847   5.043   0.763 -0.3388 -0.1068 -0.2733
 2375TIP3   OH2 7088   3.279   5.803   2.497 -0.4095  0.8812 -0.3469
 2375TIP3    H1 7089   3.330   5.815   2.577  2.1094  0.6515 -1.8255
 2375TIP3    H2 7090   3.315   5.868   2.436 -0.6089 -0.5415 -2.0370
 2376TIP3   OH2 7091   1.886   0.356   0.384  0.5562  0.5168 -0.1294
 2376TIP3    H1 7092   1.793   0.371   0.372  0.1708 -0.7749  0.9650
 2376TIP3    H2 7093   1.924   0.369   0.297 -1.1776 -2.4416 -1.5102
 2377TIP3   OH2 7094   4.354   4.367   4.507  0.0602  0.0649 -0.3953
 2377TIP3    H1 7095   4.284   4.410   4.557 -0.3834 -1.9678  0.8236
 2377TIP3    H2 7096   4.341   4.397   4.417 -2.6332 -0.5243 -0.2858
 2378TIP3   OH2 7097   5.783   5.773   1.737 -0.2971 -0.8664 -0.3867
 2378TIP3    H1 7098   5.809   5.724   1.815  0.6575  0.0038 -0.1219
 2378TIP3    H2 7099   5.738   5.850   1.771 -0.7462 -0.9653 -0.7466
 2379TIP3   OH2 7100   4.026   0.934   3.029 -0.1211 -0.0296  0.2890
 2379TIP3    H1 7101   4.062   0.856   2.987 -0.7638  0.0534 -0.4444
 2379TIP3    H2 7102   4.102   0.987   3.052  0.2783 -0.4707  0.0007
 2380TIP3   OH2 7103   4.239   5.464   0.804 -0.3195  0.0889 -0.5144
 2380TIP3    H1 7104   4.309   5.400   0.789  0.7911  0.7180  1.6038
 2380TIP3    H2 7105   4.159   5.419   0.776  0.6000 -1.6455 -0.5098
 2381TIP3   OH2 7106   3.883   0.234   3.653 -0.4976  0.3843  0.5187
 2381TIP3    H1 7107   3.916   0.158   3.604  0.8439  1.2481  0.0301
 2381TIP3    H2 7108   3.875   0.303   3.587  0.8781  1.4259  1.4049
 2382TIP3   OH2 7109   4.385   2.403   3.009  0.4206 -0.1531 -0.0162
 2382TIP3    H1 7110   4.377   2.308   3.005  2.5590 -0.3771 -0.7565
 2382TIP3    H2 7111   4.362   2.426   3.099 -1.4423 -1.1650 -0.1885
 2383TIP3   OH2 7112   6.178   0.772   2.276  0.1080 -0.3566 -0.1560
 2383TIP3    H1 7113   6.221   0.743   2.196  0.0511 -0.6784 -0.0717
 2383TIP3    H2 7114   6.175   0.867   2.269  0.1048 -0.3840 -0.5365
 2384TIP3   OH2 7115   7.221   1.193   4.768  0.0725  0.2603 -0.1766
 2384TIP3    H1 7116   7.134   1.229   4.785  0.3713  0.5779  0.7446
 2384TIP3    H2 7117   7.237   1.211   4.676 -1.1899 -0.5693 -0.5918
 2385TIP3   OH2 7118   2.341   2.175   2.717  0.5798  0.4904 -0.0850
 2385TIP3    H1 7119   2.321   2.122   2.794  0.4610  0.5832 -0.0514
 2385TIP3    H2 7120   2.269   2.156   2.656  1.0873 -0.1935 -0.4877
 2386TIP3   OH2 7121   6.712   2.825   1.611  0.4150 -0.2475  0.0732
 2386TIP3    H1 7122   6.741   2.734   1.603  1.3283  0.0315  0.0519
 2386TIP3    H2 7123   6.753   2.855   1.693  0.1404  0.1534  0.0638
 2387TIP3   OH2 7124   1.472   4.267   5.850 -0.1362  0.3715  0.4872
 2387TIP3    H1 7125   1.464   4.239   5.941 -1.6477 -0.0063  0.2621
 2387TIP3    H2 7126   1.445   4.190   5.799  2.6145 -0.1300 -0.3837
 2388TIP3   OH2 7127   2.198   2.962   0.168 -0.1148 -0.3918  0.2432
 2388TIP3    H1 7128   2.272   3.022   0.164  1.8362 -2.7336 -1.8988
 2388TIP3    H2 7129   2.124   3.013   0.134  1.2741  1.0075 -0.8130
 2389TIP3   OH2 7130   1.745   3.237   2.981 -0.1991  0.5464  0.2080
 2389TIP3    H1 7131   1.683   3.218   2.911  1.0107  2.0132 -1.3172
 2389TIP3    H2 7132   1.693   3.278   3.050 -1.3216 -0.5306  0.0284
 2390TIP3   OH2 7133   3.178   0.615   0.035 -0.0966 -0.2876 -0.0186
 2390TIP3    H1 7134   3.159   0.531  -0.007  0.0344  0.1963 -1.0645
 2390TIP3    H2 7135   3.263   0.602   0.077  0.4963 -0.3201 -1.1956
 2391TIP3   OH2 7136   6.670   0.202   1.924 -0.0906  0.4019  0.3354
 2391TIP3    H1 7137   6.585   0.247   1.923  0.0212  0.6782 -1.7427
 2391TIP3    H2 7138   6.653   0.118   1.966 -1.8091 -0.2350 -1.4823
 2392TIP3   OH2 7139   6.051   0.991   3.925 -0.0473 -0.6549  0.0759
 2392TIP3    H1 7140   6.017   0.939   3.997  0.6099 -0.8599  0.2486
 2392TIP3    H2 7141   5.974   1.024   3.880 -0.4688 -1.3220  0.2962
 2393TIP3   OH2 7142   1.807   6.741   4.315 -0.2131  0.2820 -0.0704
 2393TIP3    H1 7143   1.762   6.690   4.247  0.4645 -1.1064  0.4781
 2393TIP3    H2 7144   1.738   6.790   4.359 -1.1115 -1.2416  0.2761
 2394TIP3   OH2 7145   2.010   4.297   1.052  0.4282  0.2641 -0.1637
 2394TIP3    H1 7146   2.057   4.317   1.132  0.1755 -0.3893  0.1544
 2394TIP3    H2 7147   2.016   4.377   1.000  1.3939  0.3749  0.1069
 2395TIP3   OH2 7148   6.657   4.651   3.134  0.2893  0.1606  0.1564
 2395TIP3    H1 7149   6.748   4.650   3.163  0.1919  1.4468  0.5619
 2395TIP3    H2 7150   6.609   4.696   3.204 -0.2951  1.4361 -1.0182
 2396TIP3   OH2 7151   1.121   0.498   5.592 -0.3601  0.4582 -0.3745
 2396TIP3    H1 7152   1.163   0.434   5.650 -2.6484  0.2463  1.1972
 2396TIP3    H2 7153   1.118   0.455   5.507  1.3060 -0.0329 -0.2334
 2397TIP3   OH2 7154   3.451  -0.005   5.410 -0.3567  0.2148  0.1417
 2397TIP3    H1 7155   3.527   0.051   5.427 -0.3935 -0.3384  2.4930
 2397TIP3    H2 7156   3.377   0.044   5.444 -0.4113 -1.0670  2.0668
 2398TIP3   OH2 7157   5.968   3.707   4.420  1.1871 -0.1009 -0.1546
 2398TIP3    H1 7158   5.948   3.800   4.418 -1.6193 -0.6232 -1.6947
 2398TIP3    H2 7159   5.986   3.688   4.512 -2.1794  1.2919  0.9307
 2399TIP3   OH2 7160   5.246   4.363   5.557 -0.7993  0.1925  0.0998
 2399TIP3    H1 7161   5.187   4.438   5.564 -3.0937 -1.3221 -1.7060
 2399TIP3    H2 7162   5.319   4.395   5.504 -0.5486  1.7413  1.2954
 2400TIP3   OH2 7163   2.872   2.278   5.191 -0.4968 -0.2503 -0.1094
 2400TIP3    H1 7164   2.815   2.204   5.208 -0.7346 -0.9706 -3.3839
 2400TIP3    H2 7165   2.957   2.251   5.226 -0.8721 -1.5901 -0.1635
 2401TIP3   OH2 7166   2.488   1.109   0.432 -0.1054 -0.5168 -0.1488
 2401TIP3    H1 7167   2.456   1.197   0.409 -2.2204  0.6194  5.4453
 2401TIP3    H2 7168   2.431   1.049   0.384  0.2126  1.0848 -2.7224
 2402TIP3   OH2 7169   0.465   4.583   0.962 -0.2007  0.3077 -0.0062
 2402TIP3    H1 7170   0.377   4.563   0.932 -0.9226  0.8139  1.6592
 2402TIP3    H2 7171   0.520   4.577   0.884 -2.0098  2.0038 -1.4866
 2403TIP3   OH2 7172   5.802   3.494   0.875  0.4428  0.4172  0.4628
 2403TIP3    H1 7173   5.777   3.534   0.792 -1.6764  1.1320  1.3881
 2403TIP3    H2 7174   5.776   3.557   0.942  0.7757 -0.7476  1.7536
 2404TIP3   OH2 7175   6.564   0.267   4.358  0.5840 -0.2445  0.0008
 2404TIP3    H1 7176   6.658   0.246   4.355  0.0906 -2.7007 -2.1474
 2404TIP3    H2 7177   6.521   0.182   4.372 -1.3773  0.5697 -0.7770
 2405TIP3   OH2 7178   7.009   3.530   4.278  0.1441  0.1970 -0.0771
 2405TIP3    H1 7179   6.938   3.467   4.267  2.3792 -2.7813  1.2520
 2405TIP3    H2 7180   6.978   3.588   4.348 -1.4252 -0.2655 -0.3406
 2406TIP3   OH2 7181   5.487   6.098   0.325  0.0096  0.7071 -0.3536
 2406TIP3    H1 7182   5.470   6.190   0.303 -1.6652  0.9813  1.7376
 2406TIP3    H2 7183   5.577   6.098   0.357  0.0629  1.6205 -0.4670
 2407TIP3   OH2 7184   4.142   6.673   0.182  0.5942 -0.2741 -0.3650
 2407TIP3    H1 7185   4.199   6.693   0.108  1.3156  0.0999  0.2792
 2407TIP3    H2 7186   4.201   6.647   0.252  0.1154  1.4934  0.7685
 2408TIP3   OH2 7187   5.621   0.917   1.552 -0.0035  0.1682  0.1463
 2408TIP3    H1 7188   5.591   0.936   1.641  2.1777  1.5924  0.6478
 2408TIP3    H2 7189   5.647   0.825   1.553  2.7306  0.8591  1.8937
 2409TIP3   OH2 7190   6.931   6.624   1.236 -0.0172  0.3968 -0.1314
 2409TIP3    H1 7191   6.860   6.562   1.219 -0.1389  0.1423  1.1721
 2409TIP3    H2 7192   6.999   6.572   1.279  0.8609  0.6902 -1.1350
 2410TIP3   OH2 7193   0.166   3.167   2.070  0.1669  0.1003 -0.1154
 2410TIP3    H1 7194   0.129   3.078   2.064 -0.7988  0.4340  0.5797
 2410TIP3    H2 7195   0.254   3.154   2.105  0.3291 -0.6406 -0.7589
 2411TIP3   OH2 7196   1.914   2.968   0.961  0.0414 -0.5168 -0.0443
 2411TIP3    H1 7197   1.937   3.061   0.967 -0.8242 -0.2877 -0.0404
 2411TIP3    H2 7198   1.981   2.930   0.906 -0.1676  0.3310 -0.9177
 2412TIP3   OH2 7199   3.355   3.854   3.007  0.1174  0.0409 -0.0896
 2412TIP3    H1 7200   3.421   3.784   3.004  1.1092  0.9137  0.5008
 2412TIP3    H2 7201   3.337   3.865   3.100 -0.5125  0.1273 -0.2231
 2413TIP3   OH2 7202   6.724   5.508   2.609 -0.4381  0.2249  0.0286
 2413TIP3    H1 7203   6.755   5.594   2.579  0.1642 -0.6419 -1.9860
 2413TIP3    H2 7204   6.639   5.497   2.566 -0.1740 -0.4979 -0.3120
 2414TIP3   OH2 7205   3.971   5.824   1.504  0.4157  0.3683  0.1987
 2414TIP3    H1 7206   4.053   5.794   1.464 -0.4513  0.3057 -1.6308
 2414TIP3    H2 7207   3.926   5.743   1.530 -1.2676 -0.0544 -3.4172
 2415TIP3   OH2 7208   6.413   6.565   1.796  0.9453  0.0412  0.9455
 2415TIP3    H1 7209   6.379   6.652   1.815  0.7994  0.1377  0.2328
 2415TIP3    H2 7210   6.480   6.551   1.864  2.3880  1.5118 -0.1039
 2416TIP3   OH2 7211   6.429   6.689   5.589  0.6442  0.0390 -0.4392
 2416TIP3    H1 7212   6.464   6.694   5.500 -0.4745  0.5998 -0.8575
 2416TIP3    H2 7213   6.449   6.599   5.617  0.0911 -0.4799 -1.6490
 2417TIP3   OH2 7214   1.226   5.935   2.239 -0.1342 -0.2770 -0.2351
 2417TIP3    H1 7215   1.312   5.941   2.280 -0.9108  0.8196  1.3167
 2417TIP3    H2 7216   1.231   5.856   2.185  0.9963 -1.7797  1.9034
 2418TIP3   OH2 7217   6.892   2.256   0.769 -0.2556 -0.2702 -0.1615
 2418TIP3    H1 7218   6.908   2.192   0.838 -0.1831 -0.2699 -0.1784
 2418TIP3    H2 7219   6.880   2.204   0.690  0.7643 -0.2235 -0.3639
 2419TIP3   OH2 7220   3.639   1.465   4.208 -0.2155  0.1759 -0.3189
 2419TIP3    H1 7221   3.698   1.472   4.283 -0.3748 -0.3083 -0.1416
 2419TIP3    H2 7222   3.570   1.528   4.226 -0.2703  0.0394 -0.0368
 2420TIP3   OH2 7223   5.785   3.111   0.101 -0.7601 -0.5652  0.0303
 2420TIP3    H1 7224   5.697   3.086   0.129 -1.2976 -1.0426 -1.9486
 2420TIP3    H2 7225   5.776   3.200   0.069 -0.4432 -0.4821  0.1728
 2421TIP3   OH2 7226   2.622   0.606   0.618  0.2292 -0.1255 -0.5743
 2421TIP3    H1 7227   2.542   0.658   0.616  0.1808  0.4141  3.9046
 2421TIP3    H2 7228   2.592   0.516   0.627  0.1932 -0.1660 -1.0717
 2422TIP3   OH2 7229   4.969   4.085   3.174  0.3540  0.0665 -0.6521
 2422TIP3    H1 7230   5.006   4.162   3.130 -2.0775  0.8689 -1.4365
 2422TIP3    H2 7231   4.890   4.065   3.124  0.1358 -2.0681  0.4392
 2423TIP3   OH2 7232   3.563   3.858   4.377  0.0609  0.5465 -0.2920
 2423TIP3    H1 7233   3.582   3.897   4.292  1.8120 -0.6648 -0.5124
 2423TIP3    H2 7234   3.579   3.765   4.365  2.3307  0.5467  1.8118
 2424TIP3   OH2 7235   0.956   5.731   0.580  0.1355 -0.3311 -0.5917
 2424TIP3    H1 7236   0.935   5.746   0.672  0.5965  1.0712 -0.6878
 2424TIP3    H2 7237   0.985   5.640   0.577 -1.6684 -0.9837  0.2923
 2425TIP3   OH2 7238   3.901   1.964   0.277  0.1400 -0.2355 -0.0807
 2425TIP3    H1 7239   3.908   2.057   0.296  0.6905 -0.4746  0.9961
 2425TIP3    H2 7240   3.973   1.946   0.217  0.1014  0.0006 -0.2011
 2426TIP3   OH2 7241   0.688   0.715   3.093  0.6001  0.0970 -0.1350
 2426TIP3    H1 7242   0.744   0.652   3.138 -0.2051 -0.5180  0.0254
 2426TIP3    H2 7243   0.604   0.711   3.139  0.3326  0.8063 -0.5370
 2427TIP3   OH2 7244   2.709   2.212   0.474  0.5001 -0.0845 -0.4466
 2427TIP3    H1 7245   2.672   2.151   0.537 -0.4870 -0.8027 -1.6863
 2427TIP3    H2 7246   2.690   2.298   0.510  0.9883 -0.4724  0.7999
 2428TIP3   OH2 7247   2.788   1.956   1.595  0.5309 -0.1377  0.3036
 2428TIP3    H1 7248   2.823   1.956   1.684 -1.1564 -2.9537  1.0954
 2428TIP3    H2 7249   2.847   1.898   1.546  0.3375 -0.1777  0.1171
 2429TIP3   OH2 7250   1.606   5.842   0.593  0.2774 -0.0226  0.6178
 2429TIP3    H1 7251   1.630   5.871   0.681 -1.6777  0.5696  1.0012
 2429TIP3    H2 7252   1.622   5.919   0.538 -0.9839  0.5009  0.9384
 2430TIP3   OH2 7253   1.546   5.647   0.340  0.2332 -0.4641 -0.1744
 2430TIP3    H1 7254   1.549   5.694   0.423 -0.0581  0.3708 -0.6246
 2430TIP3    H2 7255   1.555   5.554   0.364 -0.4794 -0.2866  0.8345
 2431TIP3   OH2 7256   2.070   1.534   2.546 -0.6162 -0.6085 -0.0944
 2431TIP3    H1 7257   2.086   1.466   2.481  2.5218 -0.3635  0.2495
 2431TIP3    H2 7258   1.980   1.520   2.575 -1.1623 -2.4811 -2.4187
 2432TIP3   OH2 7259   4.821   3.753   5.189 -0.1017  0.0281 -0.5275
 2432TIP3    H1 7260   4.882   3.747   5.115 -0.0019 -0.9537 -0.3706
 2432TIP3    H2 7261   4.839   3.839   5.228  0.3389  0.2515 -1.2066
 2433TIP3   OH2 7262   0.857   0.166   1.924 -0.0438  0.3598  0.1367
 2433TIP3    H1 7263   0.855   0.103   1.996  3.5077  3.1351  3.0633
 2433TIP3    H2 7264   0.950   0.182   1.909 -0.6569  1.0291 -4.2469
 2434TIP3   OH2 7265   3.780   2.728   3.663 -0.3632  0.8707 -0.8005
 2434TIP3    H1 7266   3.742   2.757   3.745  2.0311 -1.1584  1.2101
 2434TIP3    H2 7267   3.830   2.803   3.631  1.7745  0.6558  1.7009
 2435TIP3   OH2 7268   3.620   0.720   0.731  0.2548  1.0886 -0.5212
 2435TIP3    H1 7269   3.678   0.652   0.698  0.5534  1.4068 -0.6561
 2435TIP3    H2 7270   3.555   0.673   0.783  0.7668  0.7468 -0.1775
 2436TIP3   OH2 7271   1.329   1.268   1.406 -0.2805  0.0799 -0.1079
 2436TIP3    H1 7272   1.398   1.278   1.472 -0.8063 -1.3769  0.7130
 2436TIP3    H2 7273   1.348   1.335   1.341  0.5227  1.2712  1.3006
 2437TIP3   OH2 7274   5.753   6.110   5.392 -0.4717  0.3320 -0.2293
 2437TIP3    H1 7275   5.754   6.071   5.305  1.2179 -2.1426  0.7778
 2437TIP3    H2 7276   5.688   6.059   5.440  2.4426 -2.2692  1.3817
 2438TIP3   OH2 7277   1.407   2.958   4.578  0.1685  0.1280 -0.5499
 2438TIP3    H1 7278   1.354   2.895   4.625  0.1094  1.0179  0.6185
 2438TIP3    H2 7279   1.473   2.905   4.532 -0.0777 -0.7923  0.1450
 2439TIP3   OH2 7280   7.111   5.412   0.452  0.1024  0.0227 -0.0091
 2439TIP3    H1 7281   7.053   5.337   0.436 -0.0465  0.3852 -1.3053
 2439TIP3    H2 7282   7.071   5.484   0.403 -0.1932  1.2032  1.8598
 2440TIP3   OH2 7283   4.944   6.644   1.312  0.1023  0.2282  0.0683
 2440TIP3    H1 7284   5.030   6.651   1.354 -0.5929 -1.3822  1.8940
 2440TIP3    H2 7285   4.920   6.735   1.291  1.0456  1.0007  2.1002
 2441TIP3   OH2 7286   1.898   1.314   4.716  0.0936  0.2068  0.3851
 2441TIP3    H1 7287   1.870   1.280   4.631  1.6201 -1.0862  0.3449
 2441TIP3    H2 7288   1.831   1.378   4.740 -0.9025 -0.1414 -1.3110
 2442TIP3   OH2 7289   2.080   5.439   5.861  0.7221 -0.2141 -0.2945
 2442TIP3    H1 7290   2.060   5.379   5.789 -0.1401 -0.3273  0.0269
 2442TIP3    H2 7291   2.170   5.467   5.845  0.5682 -0.2938 -1.3845
 2443TIP3   OH2 7292   5.488   2.208   4.968 -0.0598  0.6195 -0.0947
 2443TIP3    H1 7293   5.575   2.243   4.988  0.8803 -0.7414 -1.5300
 2443TIP3    H2 7294   5.494   2.114   4.987 -1.4378  0.6068  0.4260
 2444TIP3   OH2 7295   5.137   0.514   5.753  0.4755  0.0200 -0.0367
 2444TIP3    H1 7296   5.115   0.586   5.812  0.6425  0.0334  0.0089
 2444TIP3    H2 7297   5.055   0.466   5.743  0.4605 -0.0255  0.2680
 2445TIP3   OH2 7298   3.451   3.558   4.089 -0.1947  0.4851 -0.6800
 2445TIP3    H1 7299   3.539   3.543   4.054  0.2747  2.2460 -0.3824
 2445TIP3    H2 7300   3.407   3.611   4.022 -0.3951  1.1392 -0.0505
 2446TIP3   OH2 7301   4.992   2.360   5.802 -0.2722 -0.5765 -0.2319
 2446TIP3    H1 7302   5.041   2.279   5.815 -1.1215 -1.3428 -1.5464
 2446TIP3    H2 7303   4.943   2.346   5.721 -0.6518  1.1577 -0.3507
 2447TIP3   OH2 7304   1.240   3.746   0.862  0.3204  0.1597 -0.7978
 2447TIP3    H1 7305   1.298   3.818   0.889 -1.8936  2.2111 -1.1930
 2447TIP3    H2 7306   1.164   3.753   0.919 -0.7334 -0.7476 -2.0275
 2448TIP3   OH2 7307   2.923   4.559   5.247  0.3692 -0.1579 -0.3103
 2448TIP3    H1 7308   2.847   4.602   5.287 -0.8521  1.1867 -3.6989
 2448TIP3    H2 7309   2.886   4.483   5.202  1.3779 -0.6396 -0.3534
 2449TIP3   OH2 7310   5.762   3.022   0.998  0.0173  0.1403  0.2420
 2449TIP3    H1 7311   5.690   3.032   0.935  0.1080  3.0667  0.4948
 2449TIP3    H2 7312   5.770   2.927   1.009 -3.6868 -0.3604  0.0719
 2450TIP3   OH2 7313   1.280   2.408   1.712 -0.1103  0.1568  0.0675
 2450TIP3    H1 7314   1.311   2.493   1.744 -0.6673  0.1237  0.7130
 2450TIP3    H2 7315   1.360   2.359   1.693  0.3307 -0.4147  2.9349
 2451TIP3   OH2 7316   0.446   4.276   0.560 -0.6518 -0.4650  0.5948
 2451TIP3    H1 7317   0.436   4.363   0.599 -0.5504 -0.3071  0.2728
 2451TIP3    H2 7318   0.454   4.217   0.635 -0.3051 -0.1481  0.8126
 2452TIP3   OH2 7319   3.346   3.875   0.963 -0.1560 -0.4272  0.0638
 2452TIP3    H1 7320   3.440   3.879   0.977 -0.1889 -0.1850  0.2313
 2452TIP3    H2 7321   3.329   3.939   0.893 -0.0627 -1.2344 -0.7018
 2453TIP3   OH2 7322   3.469   1.977   5.411  0.1968  0.1738 -0.4030
 2453TIP3    H1 7323   3.544   2.001   5.467  0.0602 -0.4455  0.0546
 2453TIP3    H2 7324   3.495   1.895   5.371  0.5233  0.8929 -1.7062
 2454TIP3   OH2 7325   2.498   3.322   1.405  0.3236  0.2439 -0.5774
 2454TIP3    H1 7326   2.443   3.366   1.340  1.0216  1.6680 -0.2488
 2454TIP3    H2 7327   2.581   3.370   1.402  1.1576 -1.1193 -0.2453
 2455TIP3   OH2 7328   2.319   4.613   1.656  0.4411  0.4135  0.2546
 2455TIP3    H1 7329   2.254   4.666   1.611 -0.1787 -1.3521 -1.0271
 2455TIP3    H2 7330   2.371   4.573   1.586 -0.2009 -1.9859  1.0431
 2456TIP3   OH2 7331   4.281   2.986   2.177 -0.2248 -0.5879  0.0980
 2456TIP3    H1 7332   4.337   3.020   2.247 -0.8491  2.8653 -0.9002
 2456TIP3    H2 7333   4.226   2.921   2.220  0.2375  0.5276  2.5660
 2457TIP3   OH2 7334   2.372   5.796   5.825 -0.3655 -0.1955  0.2880
 2457TIP3    H1 7335   2.343   5.746   5.748 -0.7033  1.4461 -0.7016
 2457TIP3    H2 7336   2.466   5.806   5.814 -0.5727  1.0204 -0.5540
 2458TIP3   OH2 7337   4.885   5.830   0.441  0.3630 -0.3786  0.0071
 2458TIP3    H1 7338   4.915   5.798   0.526  2.8984  1.0719 -0.2478
 2458TIP3    H2 7339   4.792   5.847   0.454  0.7701  0.2812  2.6559
 2459TIP3   OH2 7340   1.692   2.168   5.566  0.4508 -0.1729 -0.2772
 2459TIP3    H1 7341   1.710   2.242   5.624  0.7405  0.1655 -0.7878
 2459TIP3    H2 7342   1.773   2.155   5.517  0.5464 -1.1146  0.1149
 2460TIP3   OH2 7343   4.596   6.688   0.192 -0.4216 -0.2487  0.0780
 2460TIP3    H1 7344   4.576   6.622   0.259 -2.0105 -1.1757 -1.2483
 2460TIP3    H2 7345   4.575   6.645   0.109 -0.1211  1.4610 -0.9284
 2461TIP3   OH2 7346   3.058   0.097   1.786  0.1578 -0.3477 -0.4888
 2461TIP3    H1 7347   3.070   0.053   1.870  0.6731 -0.0496 -0.4004
 2461TIP3    H2 7348   2.983   0.053   1.746  0.2767 -0.8845 -0.1320
 2462TIP3   OH2 7349   1.133   3.008   5.324  0.4503  0.2875  0.4943
 2462TIP3    H1 7350   1.229   3.003   5.325  0.4145 -0.6399  0.4339
 2462TIP3    H2 7351   1.111   3.063   5.399  1.0332  0.6342  0.4185
 2463TIP3   OH2 7352   5.123   4.355   2.442 -0.3208  0.3429 -0.3958
 2463TIP3    H1 7353   5.192   4.383   2.382 -0.0401 -1.0197 -0.7330
 2463TIP3    H2 7354   5.169   4.317   2.516 -0.7027  0.4893 -0.0760
 2464TIP3   OH2 7355   0.733   4.068   3.279 -0.4780 -0.6414 -0.0373
 2464TIP3    H1 7356   0.729   3.972   3.282 -2.7651 -0.6187 -0.5024
 2464TIP3    H2 7357   0.731   4.095   3.371  0.1816 -1.0332  0.0967
 2465TIP3   OH2 7358   5.664   4.163   4.093 -0.6693 -0.2878  0.1142
 2465TIP3    H1 7359   5.677   4.096   4.026 -2.1639 -1.4950  0.9549
 2465TIP3    H2 7360   5.610   4.230   4.051 -1.3882 -0.9150  0.0260
 2466TIP3   OH2 7361   3.958   6.117   1.698 -0.0589 -0.9133 -0.7326
 2466TIP3    H1 7362   3.965   6.058   1.622  2.9162 -2.2832  0.4185
 2466TIP3    H2 7363   4.039   6.101   1.747 -1.2963  0.8191  2.0992
 2467TIP3   OH2 7364   5.474   6.694   2.321 -0.1465 -0.6302 -0.1357
 2467TIP3    H1 7365   5.463   6.787   2.342  0.1975 -0.4329 -0.7766
 2467TIP3    H2 7366   5.385   6.661   2.313 -0.2742 -0.5880  1.0536
 2468TIP3   OH2 7367   0.089   1.777   2.465 -0.4278 -0.1968 -0.3466
 2468TIP3    H1 7368   0.052   1.705   2.517  0.2613  0.7333  1.5257
 2468TIP3    H2 7369   0.128   1.836   2.530  0.4512  1.0629 -1.9402
 2469TIP3   OH2 7370   2.168   2.235   1.976 -0.0676 -0.1900  0.3789
 2469TIP3    H1 7371   2.263   2.222   1.980 -0.0994 -0.1639  1.3194
 2469TIP3    H2 7372   2.133   2.176   2.042 -0.7244 -0.2810 -0.0412
 2470TIP3   OH2 7373   0.769   6.509   5.370  0.1016 -0.3915  0.1582
 2470TIP3    H1 7374   0.751   6.574   5.302 -0.6988  0.4098  1.0984
 2470TIP3    H2 7375   0.864   6.493   5.364  0.3077  0.8469 -0.1118
 2471TIP3   OH2 7376   5.701   5.406   1.329  0.2464  0.1239  0.1093
 2471TIP3    H1 7377   5.747   5.332   1.370 -0.7855 -0.2893  0.5547
 2471TIP3    H2 7378   5.733   5.483   1.377 -1.6460 -0.4321  2.4517
 2472TIP3   OH2 7379   2.568   1.717   0.683  0.2729 -0.1572  0.1395
 2472TIP3    H1 7380   2.502   1.657   0.715  0.7004  0.1160  1.5768
 2472TIP3    H2 7381   2.644   1.704   0.740 -0.3605  3.2786  2.0496
 2473TIP3   OH2 7382   1.048   6.009   2.683  0.0574  0.7373 -0.3287
 2473TIP3    H1 7383   1.046   5.977   2.773  1.0740 -0.5754 -0.7364
 2473TIP3    H2 7384   1.141   6.022   2.665 -0.2618  4.0406 -0.2121
 2474TIP3   OH2 7385   3.722   6.448   5.749 -0.1570  0.1758 -0.0700
 2474TIP3    H1 7386   3.792   6.384   5.741 -1.5286 -1.3767 -0.0751
 2474TIP3    H2 7387   3.695   6.467   5.660 -0.1279  0.3455 -0.0438
 2475TIP3   OH2 7388   5.702   3.522   4.444  0.2903  0.3471 -0.3425
 2475TIP3    H1 7389   5.665   3.569   4.369  1.6677  0.2911 -1.0952
 2475TIP3    H2 7390   5.788   3.563   4.457  0.2449  0.0694  0.9519
 2476TIP3   OH2 7391   5.827   2.893   5.391  0.3538  0.1931 -0.7424
 2476TIP3    H1 7392   5.813   2.845   5.472 -0.9726 -0.3980 -1.3059
 2476TIP3    H2 7393   5.890   2.962   5.415 -0.6115  0.5256  0.9740
 2477TIP3   OH2 7394   0.851   3.224   1.852 -0.3191 -0.3228  0.4623
 2477TIP3    H1 7395   0.862   3.212   1.947  0.8946  0.3178  0.4268
 2477TIP3    H2 7396   0.888   3.145   1.813  0.4570  0.0090  0.4954
 2478TIP3   OH2 7397   3.333   3.990   2.345  0.1265  0.0208  0.1299
 2478TIP3    H1 7398   3.416   3.946   2.359  0.4522  0.5167 -0.2330
 2478TIP3    H2 7399   3.335   4.065   2.404 -0.5466 -0.5968  0.9564
 2479TIP3   OH2 7400   2.419   2.676   1.437 -0.3336  0.1687  0.3340
 2479TIP3    H1 7401   2.494   2.664   1.379  0.0618  0.7695  0.7123
 2479TIP3    H2 7402   2.394   2.587   1.462  1.0403 -0.0124  1.1949
 2480TIP3   OH2 7403   0.575   0.236   1.996 -0.4612  0.8969 -0.0701
 2480TIP3    H1 7404   0.541   0.321   2.022  0.8335  1.0846  1.1901
 2480TIP3    H2 7405   0.668   0.252   1.977 -0.5641  0.0565 -1.4379
 2481TIP3   OH2 7406   7.083   5.396   0.729  0.1486  0.4035  0.3256
 2481TIP3    H1 7407   7.129   5.477   0.748 -0.1107  1.6190 -3.4372
 2481TIP3    H2 7408   7.085   5.388   0.633 -1.9871 -2.7521  0.3663
 2482TIP3   OH2 7409   6.366   4.154  -0.023 -0.1193 -0.7356 -0.0833
 2482TIP3    H1 7410   6.314   4.234  -0.034  0.6723 -0.1581  0.3143
 2482TIP3    H2 7411   6.354   4.130   0.069  3.0147  1.3596  1.0080
 2483TIP3   OH2 7412   5.197   3.366   0.204  0.1027 -0.0775 -0.0246
 2483TIP3    H1 7413   5.125   3.329   0.256 -0.2738  0.7921  0.1085
 2483TIP3    H2 7414   5.178   3.460   0.203  1.0937  0.1246 -0.2294
 2484TIP3   OH2 7415   5.084   0.990   3.306 -0.3155 -0.1325 -0.4020
 2484TIP3    H1 7416   5.053   0.899   3.307 -0.5073 -0.0886 -1.0811
 2484TIP3    H2 7417   5.171   0.987   3.345 -0.9451 -0.3539  1.0284
 2485TIP3   OH2 7418   2.741   2.754   4.498  0.1845 -0.1566  0.0568
 2485TIP3    H1 7419   2.805   2.722   4.563  1.1323  0.1018 -0.7267
 2485TIP3    H2 7420   2.781   2.735   4.414 -0.7316  0.1357 -0.4542
 2486TIP3   OH2 7421   2.755   2.873   4.941  0.3280  0.0325  0.0496
 2486TIP3    H1 7422   2.789   2.852   5.027 -0.1174 -0.2267  0.1654
 2486TIP3    H2 7423   2.735   2.788   4.902  4.5575 -0.2734 -2.0449
 2487TIP3   OH2 7424   3.715   6.043   3.370  0.9700 -0.1299 -0.1638
 2487TIP3    H1 7425   3.635   6.082   3.334  0.4031 -0.3784  0.7909
 2487TIP3    H2 7426   3.708   6.056   3.464  1.7472 -0.7391 -0.0129
 2488TIP3   OH2 7427   2.725   1.244   5.646 -0.1471 -0.8588  0.0352
 2488TIP3    H1 7428   2.684   1.329   5.632  1.2504 -0.2922 -0.9167
 2488TIP3    H2 7429   2.761   1.249   5.734  1.3009  0.1936 -0.5726
 2489TIP3   OH2 7430   3.302   6.531   0.159 -0.2230  0.3154 -0.1258
 2489TIP3    H1 7431   3.336   6.616   0.187 -0.2507  1.0054 -2.0468
 2489TIP3    H2 7432   3.238   6.507   0.226  1.5406  0.6018  1.7461
 2490TIP3   OH2 7433   4.189   4.007   4.356 -0.2710 -0.0463 -0.0449
 2490TIP3    H1 7434   4.221   4.037   4.271  0.1417  0.7369  0.3725
 2490TIP3    H2 7435   4.104   3.968   4.338 -0.7496  1.2308 -0.6483
 2491TIP3   OH2 7436   1.075   3.594   0.266  0.1683  0.4560  0.0527
 2491TIP3    H1 7437   1.137   3.525   0.290 -1.1579 -0.1641  1.9413
 2491TIP3    H2 7438   1.021   3.555   0.197  0.3281  0.1234  0.1150
 2492TIP3   OH2 7439   4.963   4.532   2.306 -0.3798  0.1726 -0.2347
 2492TIP3    H1 7440   5.004   4.466   2.362  0.0256 -0.9799 -1.8186
 2492TIP3    H2 7441   5.034   4.594   2.286  1.3029 -2.6032 -4.1798
 2493TIP3   OH2 7442   7.063   0.395   0.896  0.1422  0.1182 -0.0419
 2493TIP3    H1 7443   7.099   0.310   0.870 -0.4170  0.4782 -2.1662
 2493TIP3    H2 7444   6.977   0.374   0.933  0.3859 -0.3012  0.3016
 2494TIP3   OH2 7445   4.509   1.311   2.496 -0.0627 -0.0438  0.3561
 2494TIP3    H1 7446   4.551   1.361   2.426  0.7500 -2.2229 -0.8186
 2494TIP3    H2 7447   4.573   1.308   2.566 -0.0685  0.4147  0.3868
 2495TIP3   OH2 7448   2.577   0.193   3.412 -0.0119  0.3334  0.1095
 2495TIP3    H1 7449   2.599   0.275   3.456 -1.5501  0.3132  0.9934
 2495TIP3    H2 7450   2.485   0.204   3.387 -0.2210 -1.0998  0.1923
 2496TIP3   OH2 7451   2.235   4.589   4.480 -0.0635  0.2929  1.0084
 2496TIP3    H1 7452   2.320   4.547   4.492  0.6912  1.7108  0.8096
 2496TIP3    H2 7453   2.197   4.592   4.568 -0.0491 -0.6022  1.0543
 2497TIP3   OH2 7454   6.184   4.132   2.714 -0.5067  0.2016 -0.0574
 2497TIP3    H1 7455   6.126   4.057   2.703 -0.7073  0.2901  0.3710
 2497TIP3    H2 7456   6.185   4.148   2.809  0.5308 -0.0395 -0.0172
 2498TIP3   OH2 7457   1.908   2.445   5.140  0.2162  0.3361 -0.0730
 2498TIP3    H1 7458   1.891   2.511   5.207  0.6861  0.6155 -0.2155
 2498TIP3    H2 7459   1.976   2.390   5.178  0.6366  0.6232 -0.3926
 2499TIP3   OH2 7460   4.161   4.556   2.809 -0.0351 -0.3952  0.2203
 2499TIP3    H1 7461   4.098   4.523   2.745  0.9468 -2.9206  0.4172
 2499TIP3    H2 7462   4.212   4.621   2.761 -0.5898 -0.8219 -0.9918
 2500TIP3   OH2 7463   5.825   5.514   1.026 -0.0115  0.1072  0.1926
 2500TIP3    H1 7464   5.764   5.579   0.990 -2.5606 -1.6748  1.0110
 2500TIP3    H2 7465   5.865   5.559   1.101  0.6375  1.7097 -1.0488
 2501TIP3   OH2 7466   4.938   0.955   3.007 -0.0783  0.5121 -0.1969
 2501TIP3    H1 7467   4.940   1.033   3.062  0.2038  0.2496  0.1696
 2501TIP3    H2 7468   4.847   0.924   3.013 -0.5522  1.5740 -1.4413
 2502TIP3   OH2 7469   4.378   2.202   2.770  0.2824  0.3291  0.1349
 2502TIP3    H1 7470   4.431   2.166   2.840 -0.7173 -0.4410  0.5251
 2502TIP3    H2 7471   4.291   2.163   2.783  0.3436 -0.7659 -2.1899
 2503TIP3   OH2 7472   1.150   0.736   0.192 -0.0086 -0.0593 -0.0852
 2503TIP3    H1 7473   1.113   0.768   0.110  1.4613 -0.4339 -0.9291
 2503TIP3    H2 7474   1.214   0.802   0.217 -0.7658  0.2811  1.0286
 2504TIP3   OH2 7475   6.771   2.544   1.615 -0.2200  0.0548  0.3199
 2504TIP3    H1 7476   6.810   2.546   1.703 -0.5152 -0.6114  0.4723
 2504TIP3    H2 7477   6.779   2.452   1.587 -1.2280  0.0061  0.1551
 2505TIP3   OH2 7478   6.956   3.839   1.324  0.2268  0.6026 -0.2403
 2505TIP3    H1 7479   7.048   3.848   1.300  0.4241  0.0777  0.2855
 2505TIP3    H2 7480   6.920   3.928   1.316  0.5366  0.6370 -1.3624
 2506TIP3   OH2 7481   4.607   1.789   4.262 -0.2873  0.0473 -0.2486
 2506TIP3    H1 7482   4.635   1.698   4.277 -0.1359  0.0752 -0.3571
 2506TIP3    H2 7483   4.651   1.814   4.180 -1.0186 -0.0697 -0.6798
 2507TIP3   OH2 7484   2.134   6.230   3.147 -0.0709 -0.1075 -0.1035
 2507TIP3    H1 7485   2.065   6.198   3.089 -1.8785  0.5268  1.5948
 2507TIP3    H2 7486   2.094   6.230   3.234  2.0298  0.4778  0.9264
 2508TIP3   OH2 7487   3.639   0.255   1.736  0.1302  0.4837 -0.5739
 2508TIP3    H1 7488   3.544   0.261   1.735  0.1950  2.1170 -0.4285
 2508TIP3    H2 7489   3.667   0.334   1.784  1.4908 -0.9326  1.0821
 2509TIP3   OH2 7490   4.035   3.241   5.271  0.3049 -0.5103  0.2379
 2509TIP3    H1 7491   3.973   3.216   5.340 -3.3152 -0.6998 -2.7440
 2509TIP3    H2 7492   4.037   3.337   5.275 -0.8366 -0.4588 -0.0821
 2510TIP3   OH2 7493   0.158   6.283   0.894  0.1148  0.1554 -0.0063
 2510TIP3    H1 7494   0.103   6.206   0.894 -0.5990  0.6363  1.5254
 2510TIP3    H2 7495   0.160   6.311   0.802 -0.9175 -0.7492 -0.3187
 2511TIP3   OH2 7496   3.233   6.030   0.919  0.1330 -0.0202 -0.5717
 2511TIP3    H1 7497   3.173   5.956   0.931 -0.6173  0.5869 -0.5448
 2511TIP3    H2 7498   3.285   6.005   0.842  0.0691 -0.6874 -0.4107
 2512TIP3   OH2 7499   2.957   6.647   4.980  0.3117  0.1388  0.5443
 2512TIP3    H1 7500   2.999   6.622   5.062 -0.4227  0.4019  1.0130
 2512TIP3    H2 7501   2.980   6.739   4.968  1.1415 -0.1285 -0.0088
 2513TIP3   OH2 7502   1.921   6.581   3.936 -0.2741 -0.1695  0.2281
 2513TIP3    H1 7503   1.962   6.560   4.020  0.0203  1.8200  0.6192
 2513TIP3    H2 7504   1.991   6.618   3.883 -0.7108 -0.3658 -0.5090
 2514TIP3   OH2 7505   5.767   5.482   0.428  0.0538 -0.3036  0.1711
 2514TIP3    H1 7506   5.842   5.467   0.485  1.4727  0.3797 -1.4234
 2514TIP3    H2 7507   5.794   5.449   0.342 -0.5700  1.9202 -0.9827
 2515TIP3   OH2 7508   2.022   3.328   0.224 -0.0068 -0.6226  0.1099
 2515TIP3    H1 7509   1.973   3.410   0.225  0.4249 -0.2993 -1.7871
 2515TIP3    H2 7510   2.113   3.354   0.240  0.2083 -0.6344 -0.9888
 2516TIP3   OH2 7511   2.993   2.800   3.877 -0.6229  0.0751  0.5398
 2516TIP3    H1 7512   3.033   2.854   3.809  1.1803 -0.8439  0.7989
 2516TIP3    H2 7513   2.915   2.763   3.835 -1.6050  2.3645  0.1941
 2517TIP3   OH2 7514   5.105   6.665   2.671  0.2909 -0.3459 -0.2098
 2517TIP3    H1 7515   5.178   6.612   2.637  0.7155 -0.5618  0.9604
 2517TIP3    H2 7516   5.035   6.601   2.688  0.0645 -0.2334 -0.7301
 2518TIP3   OH2 7517   3.713   3.267   5.237 -0.1160 -0.5145  0.2076
 2518TIP3    H1 7518   3.762   3.231   5.311  1.4927  0.0794 -0.5177
 2518TIP3    H2 7519   3.635   3.212   5.231  0.8730 -2.0654  0.8870
 2519TIP3   OH2 7520   1.147   5.349   4.244  0.1653  0.2065  0.8286
 2519TIP3    H1 7521   1.209   5.396   4.300  0.3804  0.0667  0.7115
 2519TIP3    H2 7522   1.075   5.410   4.230  0.8479  0.8405 -0.0585
 2520TIP3   OH2 7523   3.338   0.405   2.374 -0.2736  0.0098  0.0434
 2520TIP3    H1 7524   3.387   0.349   2.313  0.6960 -1.0196  1.7118
 2520TIP3    H2 7525   3.388   0.487   2.376 -1.0704  0.5903 -1.5329
 2521TIP3   OH2 7526   3.743   3.668   4.604  0.3457  0.0091  0.1940
 2521TIP3    H1 7527   3.704   3.640   4.522  1.3653  0.0903 -0.3254
 2521TIP3    H2 7528   3.672   3.712   4.651  0.4212  2.4647 -1.8218
 2522TIP3   OH2 7529   6.988   0.638   0.786 -0.3690  0.1626 -0.1470
 2522TIP3    H1 7530   6.990   0.710   0.849 -0.8418  0.1403 -0.1037
 2522TIP3    H2 7531   7.027   0.564   0.833 -1.1572  0.0176  0.2830
 2523TIP3   OH2 7532   6.966   2.806   5.658  0.0921  0.0672  0.5048
 2523TIP3    H1 7533   7.028   2.745   5.619 -1.4484 -1.0130 -0.3576
 2523TIP3    H2 7534   6.954   2.874   5.592 -0.3840 -0.2452  0.2720
 2524TIP3   OH2 7535   4.920   2.277   5.185 -0.4262  0.3259 -0.0996
 2524TIP3    H1 7536   4.905   2.208   5.250 -2.8472  0.9345  0.0943
 2524TIP3    H2 7537   4.992   2.329   5.221 -1.4913  0.4605  1.9937
 2525TIP3   OH2 7538   0.295   5.670   1.362  0.0039 -0.5662 -1.2198
 2525TIP3    H1 7539   0.342   5.614   1.424 -1.6656  0.6779  1.3483
 2525TIP3    H2 7540   0.234   5.611   1.318 -1.0512 -1.0231  0.7360
 2526TIP3   OH2 7541   4.093   3.254   3.574 -0.0963 -0.0084  0.4240
 2526TIP3    H1 7542   4.131   3.168   3.590 -0.3280 -0.0155  0.9693
 2526TIP3    H2 7543   4.032   3.267   3.647 -0.3902  0.4280  0.1073
 2527TIP3   OH2 7544   4.110   1.358   1.304  0.4555 -0.1386  0.1375
 2527TIP3    H1 7545   4.067   1.421   1.361 -1.1933 -1.5086  0.4921
 2527TIP3    H2 7546   4.203   1.383   1.306  0.1405  1.0658  1.7839
 2528TIP3   OH2 7547   6.849   0.945   3.814  0.4271 -1.0442  0.3119
 2528TIP3    H1 7548   6.796   0.865   3.808 -0.8843 -0.2099  0.3069
 2528TIP3    H2 7549   6.836   0.975   3.904 -0.2318 -0.0996 -0.0794
 2529TIP3   OH2 7550   2.704   5.592   4.225 -0.5950  0.0539  0.1767
 2529TIP3    H1 7551   2.788   5.560   4.192 -0.7692  0.4791 -0.7040
 2529TIP3    H2 7552   2.640   5.529   4.193 -0.8433  0.8234 -0.8937
 2530TIP3   OH2 7553   6.833   0.463   1.392  0.3288 -0.5314  0.0662
 2530TIP3    H1 7554   6.826   0.510   1.475  1.5347  0.3021 -0.2664
 2530TIP3    H2 7555   6.918   0.491   1.356  0.0729 -1.2835 -1.1914
 2531TIP3   OH2 7556   3.354   4.112   1.265 -0.1957  0.3451 -0.2497
 2531TIP3    H1 7557   3.286   4.154   1.317  1.2239  1.7756  0.5310
 2531TIP3    H2 7558   3.363   4.168   1.188  0.6352  0.6245  0.0434
 2532TIP3   OH2 7559   2.280   5.448   3.155  0.1945 -0.3291  0.3211
 2532TIP3    H1 7560   2.230   5.368   3.172  1.7184 -1.2642  0.6359
 2532TIP3    H2 7561   2.311   5.475   3.241 -0.4671  0.7198  0.2363
 2533TIP3   OH2 7562   5.803   5.132   2.497  0.2392 -0.4436  0.2044
 2533TIP3    H1 7563   5.719   5.176   2.510  0.8603  0.6233  0.7922
 2533TIP3    H2 7564   5.842   5.177   2.422  1.9903  1.8831  2.3316
 2534TIP3   OH2 7565   0.322   3.585   0.766 -0.3098 -0.1267  0.6820
 2534TIP3    H1 7566   0.384   3.569   0.695 -1.0551 -0.2649  0.0543
 2534TIP3    H2 7567   0.268   3.658   0.735 -1.4104 -0.9597  0.5932
 2535TIP3   OH2 7568   0.734   4.582   1.142 -0.0440  0.1245 -0.3508
 2535TIP3    H1 7569   0.689   4.579   1.227 -1.0559  0.8775 -0.8303
 2535TIP3    H2 7570   0.665   4.564   1.078  1.0465 -2.3016 -0.9562
 2536TIP3   OH2 7571   1.949   2.109   1.273 -0.1078 -0.3637  0.0412
 2536TIP3    H1 7572   1.966   2.160   1.194 -0.9131  2.8503  1.7623
 2536TIP3    H2 7573   2.022   2.130   1.331 -1.5810  0.7592  1.6086
 2537TIP3   OH2 7574   2.206   4.396   1.263  0.4617  0.0025 -0.2599
 2537TIP3    H1 7575   2.238   4.483   1.285 -1.1266  0.7545 -0.8243
 2537TIP3    H2 7576   2.187   4.355   1.347  1.5716  0.0384  0.0257
 2538TIP3   OH2 7577   6.238   2.531   1.236  0.5900  0.1232 -0.2614
 2538TIP3    H1 7578   6.211   2.469   1.168  1.9515  0.2148 -0.9291
 2538TIP3    H2 7579   6.333   2.518   1.244  0.7358  1.3906  0.3272
 2539TIP3   OH2 7580   5.466   1.288   5.695 -0.1027 -0.3739  0.0602
 2539TIP3    H1 7581   5.467   1.345   5.618  1.1218 -0.7368 -0.2133
 2539TIP3    H2 7582   5.514   1.337   5.761 -0.5741 -0.3494  0.3867
 2540TIP3   OH2 7583   6.909   2.544   1.868  0.1851  0.3858  0.0282
 2540TIP3    H1 7584   6.976   2.504   1.814 -0.0557 -0.2851  0.2229
 2540TIP3    H2 7585   6.958   2.591   1.936  0.4684  0.5985 -0.3197
 2541TIP3   OH2 7586   3.887   6.786   0.348 -0.0238  0.3635 -0.1665
 2541TIP3    H1 7587   3.799   6.814   0.326 -0.4592 -0.3476  0.6146
 2541TIP3    H2 7588   3.930   6.771   0.264 -1.3861 -1.5398 -0.5796
 2542TIP3   OH2 7589   4.178   4.252   2.818 -0.0591 -0.0888 -0.6181
 2542TIP3    H1 7590   4.232   4.311   2.870 -0.4131  0.4369 -0.8465
 2542TIP3    H2 7591   4.239   4.211   2.756  0.8012 -2.3055  1.5199
 2543TIP3   OH2 7592   1.637   2.283   1.369 -0.0609  0.2441  0.2214
 2543TIP3    H1 7593   1.584   2.203   1.367 -0.5795  0.5915 -0.0358
 2543TIP3    H2 7594   1.682   2.279   1.454 -1.2680  0.4310  0.8952
 2544TIP3   OH2 7595   3.764   4.566   2.439 -0.2064  0.4912  0.3546
 2544TIP3    H1 7596   3.712   4.504   2.387 -0.3371  0.6014  0.3534
 2544TIP3    H2 7597   3.702   4.602   2.503 -0.0502  0.3644  0.5818
 2545TIP3   OH2 7598   6.329   0.366   0.399 -0.9361 -0.0970  0.3627
 2545TIP3    H1 7599   6.295   0.376   0.310  2.1414 -2.9610 -1.3943
 2545TIP3    H2 7600   6.423   0.383   0.391 -0.1772 -2.5965  2.5169
 2546TIP3   OH2 7601   4.269   5.655   4.152 -0.4397 -0.3291  0.4272
 2546TIP3    H1 7602   4.304   5.743   4.168  1.9101 -1.1504  0.3039
 2546TIP3    H2 7603   4.176   5.668   4.133 -0.3885  1.9981  1.4841
 2547TIP3   OH2 7604   0.735   1.037   3.839 -0.0903 -0.2685 -0.1447
 2547TIP3    H1 7605   0.697   1.081   3.915 -0.6134 -0.2114 -0.4379
 2547TIP3    H2 7606   0.726   0.943   3.858 -0.9985 -0.2628 -0.5131
 2548TIP3   OH2 7607   6.795   5.741   1.194  0.1551 -0.1450 -0.1908
 2548TIP3    H1 7608   6.743   5.748   1.274 -1.0653  1.8251 -1.0960
 2548TIP3    H2 7609   6.812   5.831   1.167  0.9479 -0.7522 -1.9132
 2549TIP3   OH2 7610   4.957   4.335   1.436  1.0480 -0.2560  0.5896
 2549TIP3    H1 7611   4.917   4.421   1.438 -2.2524 -1.6503  0.8606
 2549TIP3    H2 7612   4.940   4.303   1.347  1.3103 -1.0241  0.8060
 2550TIP3   OH2 7613   1.094   4.922   4.683 -0.0688 -0.0700 -0.0361
 2550TIP3    H1 7614   1.171   4.937   4.630  0.1218 -0.6172  0.0766
 2550TIP3    H2 7615   1.027   4.979   4.646  0.5192  0.7658  0.1657
 2551TIP3   OH2 7616   3.962   0.767   3.342 -0.2407 -0.2598  0.4649
 2551TIP3    H1 7617   4.025   0.713   3.294 -1.1653 -0.5190 -0.4765
 2551TIP3    H2 7618   4.016   0.834   3.384  0.6931 -0.6379 -0.0948
 2552TIP3   OH2 7619   4.552   2.016   5.538 -0.1229  0.7671 -0.3825
 2552TIP3    H1 7620   4.558   2.090   5.477 -1.2270  1.6381  0.5185
 2552TIP3    H2 7621   4.470   1.973   5.516  0.1673  0.2311 -0.4316
 2553TIP3   OH2 7622   0.879   4.633   4.385  0.2686 -0.3405  0.2083
 2553TIP3    H1 7623   0.875   4.728   4.379 -1.3392 -0.3094  1.2175
 2553TIP3    H2 7624   0.959   4.609   4.339 -0.1204  1.3717 -1.4709
 2554TIP3   OH2 7625   6.774   0.347   3.371 -0.3783 -0.7809 -0.2336
 2554TIP3    H1 7626   6.699   0.340   3.311 -0.0369  1.1007 -0.9531
 2554TIP3    H2 7627   6.817   0.429   3.346  2.1768 -1.9751 -0.1097
 2555TIP3   OH2 7628   2.887   1.873   0.552  0.2340 -0.2641  0.2266
 2555TIP3    H1 7629   2.859   1.913   0.470 -0.1650 -0.9763  0.0113
 2555TIP3    H2 7630   2.808   1.833   0.588  0.7781 -1.5804  0.0279
 2556TIP3   OH2 7631   5.466   5.671   3.488  0.2863 -0.4859  0.0884
 2556TIP3    H1 7632   5.402   5.604   3.463 -0.5064 -0.4903  1.9961
 2556TIP3    H2 7633   5.550   5.624   3.487 -0.1060 -1.2108  0.2511
 2557TIP3   OH2 7634   4.603   1.753   1.960 -0.5216 -0.9681 -0.0607
 2557TIP3    H1 7635   4.560   1.718   2.038  0.1992 -1.5595  0.0798
 2557TIP3    H2 7636   4.683   1.793   1.992 -0.3257 -1.0232 -0.4771
 2558TIP3   OH2 7637   6.852   0.370   0.165  0.1401 -0.4667 -0.3566
 2558TIP3    H1 7638   6.812   0.351   0.080 -2.1822  0.6674  0.4025
 2558TIP3    H2 7639   6.840   0.290   0.216 -0.2256 -0.4924 -0.4795
 2559TIP3   OH2 7640   6.272   2.800   2.514  0.0858 -0.2067 -0.3334
 2559TIP3    H1 7641   6.260   2.706   2.526 -0.0770  0.0171  1.5611
 2559TIP3    H2 7642   6.360   2.808   2.477 -0.1043 -1.1134 -1.0192
 2560TIP3   OH2 7643   3.114   5.545   0.723  0.3605  0.4376  0.9925
 2560TIP3    H1 7644   3.095   5.470   0.667  1.4001  0.9047 -0.0305
 2560TIP3    H2 7645   3.204   5.530   0.753 -0.3787 -0.1382  3.1229
 2561TIP3   OH2 7646   4.318   5.649   1.541 -0.2380 -0.1516  0.2544
 2561TIP3    H1 7647   4.295   5.635   1.633 -1.1836  0.1213  0.0730
 2561TIP3    H2 7648   4.355   5.737   1.538  0.8524 -0.5864  0.5495
 2562TIP3   OH2 7649   3.903   4.556   2.206 -0.0840 -0.9099  0.3445
 2562TIP3    H1 7650   3.997   4.571   2.215  0.2492 -3.5684  2.5061
 2562TIP3    H2 7651   3.871   4.543   2.295 -2.9206  1.4880 -0.1347
 2563TIP3   OH2 7652   0.019   5.287   5.665 -0.2450  0.3137  0.7088
 2563TIP3    H1 7653  -0.029   5.208   5.641 -0.4535 -0.2502  2.8511
 2563TIP3    H2 7654   0.083   5.297   5.595 -0.2276 -1.7463  0.3612
 2564TIP3   OH2 7655   0.803   3.369   2.921  0.4461  0.0152 -0.0912
 2564TIP3    H1 7656   0.870   3.437   2.934 -0.2525  0.4602  1.3484
 2564TIP3    H2 7657   0.797   3.325   3.006 -0.9244 -0.1694 -0.2621
 2565TIP3   OH2 7658   1.218   2.894   5.697  1.0086  0.0741 -0.0970
 2565TIP3    H1 7659   1.184   2.817   5.653  1.7358 -1.3210  1.6563
 2565TIP3    H2 7660   1.141   2.942   5.726  0.5113 -0.9562  0.3459
 2566TIP3   OH2 7661   3.756   0.367   1.511 -0.5358 -0.0673 -0.0785
 2566TIP3    H1 7662   3.690   0.359   1.442  1.8604 -3.6970 -2.2655
 2566TIP3    H2 7663   3.723   0.312   1.582 -0.9570  0.1005 -0.1372
 2567TIP3   OH2 7664   1.144   6.610   3.122 -0.0227 -0.3163 -0.3017
 2567TIP3    H1 7665   1.095   6.604   3.041 -0.0592 -1.9731 -0.1910
 2567TIP3    H2 7666   1.083   6.583   3.190 -0.4148  2.3430  0.5146
 2568TIP3   OH2 7667   3.235   3.336   3.933  0.0967 -0.6720 -0.1309
 2568TIP3    H1 7668   3.307   3.322   3.872 -0.7442 -1.0193 -1.0806
 2568TIP3    H2 7669   3.157   3.342   3.877 -0.5423  0.2479  0.8288
 2569TIP3   OH2 7670   5.511   2.097   3.336 -0.0069 -0.0984  0.0661
 2569TIP3    H1 7671   5.560   2.086   3.254  1.7054 -0.3029  1.0775
 2569TIP3    H2 7672   5.487   2.189   3.337  1.1305  0.2134 -0.0477
 2570TIP3   OH2 7673   3.688   2.946   1.426 -0.8549 -0.3532 -0.5388
 2570TIP3    H1 7674   3.760   2.982   1.477  0.3205  0.3538 -2.5559
 2570TIP3    H2 7675   3.610   2.963   1.478  0.2015  0.9103  0.7045
 2571TIP3   OH2 7676   7.101   0.673   5.777  0.2964 -0.3310 -0.3273
 2571TIP3    H1 7677   7.071   0.630   5.857  0.7493  3.9995  2.4936
 2571TIP3    H2 7678   7.195   0.656   5.774  0.3689 -0.0794  0.3730
 2572TIP3   OH2 7679   6.503   5.979   1.534 -0.2013  0.1539 -0.2290
 2572TIP3    H1 7680   6.563   6.054   1.534 -0.3834  0.3031 -0.3916
 2572TIP3    H2 7681   6.483   5.964   1.626 -0.7399  0.7794 -0.2304
 2573TIP3   OH2 7682   5.679   4.996   1.511 -0.0255 -0.2542  0.5263
 2573TIP3    H1 7683   5.623   4.929   1.473  1.6556 -0.9156 -0.9577
 2573TIP3    H2 7684   5.623   5.044   1.572 -1.6404 -2.0906  0.5611
 2574TIP3   OH2 7685   2.528   4.153   5.333  0.4250  0.1528  0.1283
 2574TIP3    H1 7686   2.502   4.078   5.280  1.9019 -1.8971  2.0931
 2574TIP3    H2 7687   2.606   4.188   5.289  0.7226 -0.5544  0.0753
 2575TIP3   OH2 7688   0.110   4.173   1.027  0.1142 -0.2527 -0.3085
 2575TIP3    H1 7689   0.156   4.223   0.960  1.0761  0.3805  0.7805
 2575TIP3    H2 7690   0.031   4.141   0.983  0.0067  1.3065 -1.3498
 2576TIP3   OH2 7691   5.348   4.248   1.224 -0.3178  0.0961  0.1093
 2576TIP3    H1 7692   5.430   4.220   1.266 -0.4896 -0.2672  0.2098
 2576TIP3    H2 7693   5.343   4.342   1.242  0.6545  0.3535 -0.8832
 2577TIP3   OH2 7694   3.065   4.346   4.686  0.1872  0.4143 -0.3873
 2577TIP3    H1 7695   3.125   4.359   4.613  1.9044 -2.7868  0.3016
 2577TIP3    H2 7696   3.112   4.380   4.763 -0.2232  0.7248 -0.2648
 2578TIP3   OH2 7697   6.889   6.404   5.853 -0.6492  0.1768  0.2883
 2578TIP3    H1 7698   6.936   6.486   5.868  0.8232 -0.6518  0.4065
 2578TIP3    H2 7699   6.817   6.406   5.917 -0.1744  1.0251  0.8163
 2579TIP3   OH2 7700   4.135   6.336   2.563  0.3205  0.1101 -0.4800
 2579TIP3    H1 7701   4.155   6.321   2.470  0.5373  0.3009 -0.4652
 2579TIP3    H2 7702   4.076   6.411   2.562  1.2227  0.8487 -0.3985
 2580TIP3   OH2 7703   6.161   2.467   5.126  0.2277  0.0662 -0.0499
 2580TIP3    H1 7704   6.188   2.526   5.196  1.4400  1.5774 -1.7252
 2580TIP3    H2 7705   6.163   2.520   5.047 -0.2410 -1.8046 -1.3882
 2581TIP3   OH2 7706   2.965   6.307   2.161 -0.0992  0.6607  0.1196
 2581TIP3    H1 7707   2.885   6.322   2.211  0.0794 -0.1095  0.6658
 2581TIP3    H2 7708   3.034   6.346   2.214  0.1753 -0.7212  0.8307
 2582TIP3   OH2 7709   1.568   5.829   4.722  0.1328 -0.0367 -0.0089
 2582TIP3    H1 7710   1.662   5.812   4.731 -0.1314 -0.5682  2.2067
 2582TIP3    H2 7711   1.531   5.743   4.702  0.0826  0.1420 -0.7060
 2583TIP3   OH2 7712   2.311   1.112   0.176  0.1938  0.4743  0.2032
 2583TIP3    H1 7713   2.378   1.110   0.107 -0.7932  1.4281 -0.8112
 2583TIP3    H2 7714   2.307   1.022   0.208 -0.6031 -0.4361 -2.2589
 2584TIP3   OH2 7715   5.816   0.650   3.091 -0.1514  0.6822  0.0053
 2584TIP3    H1 7716   5.786   0.728   3.045  0.4204  0.6031 -0.5165
 2584TIP3    H2 7717   5.863   0.684   3.168 -0.7609  0.8210  0.3244
 2585TIP3   OH2 7718   1.067   2.267   5.744 -0.1735  0.1064 -0.1271
 2585TIP3    H1 7719   1.154   2.231   5.729  0.2893 -0.3032  2.8306
 2585TIP3    H2 7720   1.023   2.200   5.797 -1.5137  1.2348  0.2452
 2586TIP3   OH2 7721   5.561   3.887   5.077  0.1392  1.1869  0.4931
 2586TIP3    H1 7722   5.586   3.979   5.070  0.0892  1.2088  0.6036
 2586TIP3    H2 7723   5.492   3.875   5.012  2.3790  0.4452 -1.9426
 2587TIP3   OH2 7724   3.423   0.368   0.003  0.0178  0.0108  0.0183
 2587TIP3    H1 7725   3.452   0.371   0.094 -0.8121 -1.2119  0.3494
 2587TIP3    H2 7726   3.334   0.333   0.007  0.2333 -0.7726 -1.3096
 2588TIP3   OH2 7727   4.549   1.688   1.370 -0.0769  0.2192 -0.4963
 2588TIP3    H1 7728   4.492   1.743   1.316 -0.7542 -0.0959 -0.1109
 2588TIP3    H2 7729   4.602   1.640   1.306  0.4197  1.1959 -0.8396
 2589TIP3   OH2 7730   5.817   1.912   1.874  0.0522  0.0425  0.1118
 2589TIP3    H1 7731   5.863   1.992   1.847 -0.8859  1.0526  1.3727
 2589TIP3    H2 7732   5.881   1.842   1.860  0.6540  0.8826 -1.7162
 2590TIP3   OH2 7733   0.397   0.388   0.681 -0.3717 -0.0576  0.3568
 2590TIP3    H1 7734   0.460   0.407   0.752 -2.1742 -0.3267  2.1111
 2590TIP3    H2 7735   0.413   0.457   0.617  3.3912 -1.4983 -0.5445
 2591TIP3   OH2 7736   3.226   4.583   4.778  0.4534 -0.4946  0.3516
 2591TIP3    H1 7737   3.246   4.551   4.866  1.0263  0.1601  0.4681
 2591TIP3    H2 7738   3.309   4.576   4.731 -0.1246 -1.9848 -0.5176
 2592TIP3   OH2 7739   4.251   4.321   3.237 -0.3758 -0.6483  0.3294
 2592TIP3    H1 7740   4.341   4.291   3.251 -0.2690 -0.5618 -0.1603
 2592TIP3    H2 7741   4.257   4.379   3.161 -0.9075 -0.9227  0.0767
 2593TIP3   OH2 7742   3.862   3.053   1.597 -0.0620 -0.2635  0.6642
 2593TIP3    H1 7743   3.885   3.134   1.551  1.7611 -1.9474 -1.6358
 2593TIP3    H2 7744   3.901   3.063   1.683 -0.2390  1.4497  0.5878
 2594TIP3   OH2 7745   3.040   2.306   4.588 -0.0285 -0.3891  0.0810
 2594TIP3    H1 7746   2.974   2.301   4.657 -0.0073 -1.1757  0.0483
 2594TIP3    H2 7747   3.116   2.260   4.624 -0.6244 -2.4519 -1.1437
 2595TIP3   OH2 7748   5.272   0.588   3.760 -0.1913 -0.2106  0.4183
 2595TIP3    H1 7749   5.226   0.648   3.701  1.1122  0.5493  0.1242
 2595TIP3    H2 7750   5.284   0.509   3.708  1.2001  0.5512 -0.5166
 2596TIP3   OH2 7751   5.673   4.260   3.012 -0.4592 -0.5064  0.6591
 2596TIP3    H1 7752   5.611   4.333   3.009  1.1916  0.9789 -1.6663
 2596TIP3    H2 7753   5.728   4.278   3.088 -0.5736  0.2630  0.5719
 2597TIP3   OH2 7754   0.642   6.461   0.698  0.1330  0.3038  0.6048
 2597TIP3    H1 7755   0.591   6.539   0.675  1.6244  1.3595  0.6920
 2597TIP3    H2 7756   0.584   6.387   0.678 -2.2878  1.4355  2.8360
 2598TIP3   OH2 7757   2.337   1.559   4.186 -0.5099  0.2449  0.6250
 2598TIP3    H1 7758   2.385   1.631   4.148 -0.7290  0.9974  1.7153
 2598TIP3    H2 7759   2.359   1.561   4.279 -0.9428 -0.7527  0.7721
 2599TIP3   OH2 7760   7.205   2.539   3.470 -0.1612  0.0921  0.5654
 2599TIP3    H1 7761   7.223   2.455   3.514 -1.6367 -0.0166  1.0329
 2599TIP3    H2 7762   7.214   2.520   3.377 -0.5292 -0.6244  0.6639
 2600TIP3   OH2 7763   7.088   4.661   5.077  0.8226 -0.0094 -0.0111
 2600TIP3    H1 7764   7.182   4.659   5.058  0.9653  0.1401  0.6248
 2600TIP3    H2 7765   7.061   4.570   5.077  0.8126 -0.0106 -0.9083
 2601TIP3   OH2 7766   1.655   3.900   2.921  0.3694  0.2251  0.5261
 2601TIP3    H1 7767   1.575   3.851   2.940  1.0880 -1.2073  0.0517
 2601TIP3    H2 7768   1.684   3.866   2.836  2.0692 -0.1093  1.2108
 2602TIP3   OH2 7769   0.516   1.443   4.484 -0.1916  0.0905 -0.0098
 2602TIP3    H1 7770   0.440   1.472   4.534  1.0276 -0.7793  2.4945
 2602TIP3    H2 7771   0.495   1.353   4.459  0.6172 -0.8160  2.2536
 2603TIP3   OH2 7772   5.703   6.780   5.618 -0.0641 -0.7130  0.2066
 2603TIP3    H1 7773   5.641   6.836   5.571  1.8413  1.0021 -0.4078
 2603TIP3    H2 7774   5.712   6.703   5.562 -0.2583 -0.1549 -0.6099
 2604TIP3   OH2 7775   6.549   6.698   0.829 -0.0748 -0.2770  0.1138
 2604TIP3    H1 7776   6.631   6.649   0.826  0.0165 -0.1971  0.9063
 2604TIP3    H2 7777   6.573   6.780   0.873 -0.5375 -0.1784  0.1807
 2605TIP3   OH2 7778   0.820   6.107   5.340  0.1856  0.4114 -0.0390
 2605TIP3    H1 7779   0.894   6.136   5.287  0.0152  0.2816 -0.3552
 2605TIP3    H2 7780   0.743   6.135   5.290 -0.0074  2.2478  1.2166
 2606TIP3   OH2 7781   4.457   3.709   4.037  0.0070  0.2591 -0.2797
 2606TIP3    H1 7782   4.472   3.762   4.115  0.1722 -0.0595 -0.0947
 2606TIP3    H2 7783   4.415   3.629   4.070  0.3271  0.0067 -0.4855
 2607TIP3   OH2 7784   2.696   2.400   1.931  0.2794  0.2153 -0.1002
 2607TIP3    H1 7785   2.647   2.464   1.983  1.6396 -0.1285  1.7073
 2607TIP3    H2 7786   2.634   2.328   1.918  0.3385 -0.3926  2.4910
 2608TIP3   OH2 7787   1.877   0.685   4.707 -0.4311 -0.3177 -0.2176
 2608TIP3    H1 7788   1.881   0.742   4.630 -1.5770 -0.7479 -0.6175
 2608TIP3    H2 7789   1.958   0.702   4.754 -0.6566  1.4811 -0.4400
 2609TIP3   OH2 7790   2.386   4.592   3.775 -0.2143  0.6062  0.1360
 2609TIP3    H1 7791   2.296   4.563   3.791 -0.3511  1.5364  1.1969
 2609TIP3    H2 7792   2.437   4.554   3.846  0.2136  0.1857 -0.3941
 2610TIP3   OH2 7793   0.755   2.425   1.332  0.0615  0.1745  0.4443
 2610TIP3    H1 7794   0.684   2.384   1.381  0.7206  0.6271  1.8348
 2610TIP3    H2 7795   0.784   2.358   1.270 -1.3202 -0.1354  0.1045
 2611TIP3   OH2 7796   0.718   2.995   3.678 -0.1537 -0.0380 -0.3787
 2611TIP3    H1 7797   0.813   3.005   3.679 -0.0492 -0.8041 -0.9808
 2611TIP3    H2 7798   0.694   2.980   3.770  0.1810  1.0900 -0.0921
 2612TIP3   OH2 7799   5.074   5.084   0.664 -0.6490  0.0011  0.6013
 2612TIP3    H1 7800   5.046   5.169   0.631  0.5109  0.0887 -0.2184
 2612TIP3    H2 7801   5.167   5.095   0.684 -0.8450 -0.6417  1.9801
 2613TIP3   OH2 7802   1.260   1.988   4.661  0.3738  0.1717 -0.1733
 2613TIP3    H1 7803   1.341   1.939   4.677  1.9085  2.9299  1.3568
 2613TIP3    H2 7804   1.192   1.937   4.704  1.9847 -0.2861  1.9759
 2614TIP3   OH2 7805   3.612   4.428   3.982 -0.2604  0.3998 -0.4450
 2614TIP3    H1 7806   3.566   4.418   3.899 -0.5887  0.0521 -0.2250
 2614TIP3    H2 7807   3.608   4.522   4.000 -1.4124  0.3049 -0.1334
 2615TIP3   OH2 7808   3.669   1.788   1.297  0.0035 -0.1255 -0.4664
 2615TIP3    H1 7809   3.665   1.819   1.387 -0.8382  0.9764 -0.8582
 2615TIP3    H2 7810   3.673   1.693   1.305  0.0345 -0.0405  0.7298
 2616TIP3   OH2 7811   1.016   6.184   5.181 -0.0200 -0.5829  0.4510
 2616TIP3    H1 7812   1.081   6.164   5.114 -0.4275 -0.3917 -0.0077
 2616TIP3    H2 7813   0.976   6.266   5.152 -1.2511 -1.2798  0.1262
 2617TIP3   OH2 7814   2.095   4.444   0.372  0.5061 -0.0459  0.2344
 2617TIP3    H1 7815   2.021   4.387   0.393  2.4947 -2.6490  0.7410
 2617TIP3    H2 7816   2.083   4.521   0.428 -1.0615 -1.0140  1.3017
 2618TIP3   OH2 7817   3.268   0.868   0.736 -0.3595 -0.9919  0.4182
 2618TIP3    H1 7818   3.190   0.921   0.722 -0.0137 -0.6452 -0.2939
 2618TIP3    H2 7819   3.282   0.870   0.831  1.2451  2.6139  0.2910
 2619TIP3   OH2 7820   6.515   4.385   1.531 -1.0237 -0.0221 -0.7359
 2619TIP3    H1 7821   6.449   4.420   1.591  0.9192  1.2187  0.8250
 2619TIP3    H2 7822   6.526   4.454   1.466  0.6176  1.0740  0.5989
 2620TIP3   OH2 7823   7.099   5.419   3.561 -0.6979  0.1461 -0.0737
 2620TIP3    H1 7824   7.093   5.324   3.572  0.3697  0.0900  0.1634
 2620TIP3    H2 7825   7.166   5.446   3.623 -0.4962  0.9653 -0.6311
 2621TIP3   OH2 7826   0.267   1.326   5.054  0.7490 -0.2905 -0.7796
 2621TIP3    H1 7827   0.280   1.303   4.962 -0.8386  0.6098 -1.2676
 2621TIP3    H2 7828   0.210   1.403   5.052  1.7073  0.5172  0.9314
 2622TIP3   OH2 7829   7.037   3.614   3.746 -0.6874  0.6371 -0.8596
 2622TIP3    H1 7830   7.033   3.662   3.663  1.5024  0.4226 -1.1339
 2622TIP3    H2 7831   7.016   3.679   3.813 -1.4590  1.0456 -1.4783
 2623TIP3   OH2 7832   4.881   1.477   5.197  0.0437  0.3347  0.3480
 2623TIP3    H1 7833   4.892   1.523   5.114 -0.5593  0.6445  0.4271
 2623TIP3    H2 7834   4.966   1.437   5.215  1.2341  2.9804  1.2007
 2624TIP3   OH2 7835   0.505   6.269   2.880 -0.8006  0.3068  0.0831
 2624TIP3    H1 7836   0.585   6.234   2.842 -0.5631  1.6650 -0.7356
 2624TIP3    H2 7837   0.441   6.265   2.809 -0.4584  2.4981 -0.4353
 2625TIP3   OH2 7838   4.599   4.429   3.831 -0.4474 -0.0012 -0.5493
 2625TIP3    H1 7839   4.621   4.431   3.924 -0.1432  2.8681 -0.6019
 2625TIP3    H2 7840   4.530   4.363   3.824  1.0086 -1.8626  1.3038
 2626TIP3   OH2 7841   5.308   4.658   4.522 -0.1022  0.5081  0.0260
 2626TIP3    H1 7842   5.403   4.670   4.528  0.0271 -0.2621 -0.3890
 2626TIP3    H2 7843   5.292   4.572   4.561 -0.7775  1.1250  1.1674
 2627TIP3   OH2 7844   2.276   0.243   2.027 -0.6236 -0.1581  0.1999
 2627TIP3    H1 7845   2.225   0.162   2.019  1.8051 -1.6433 -1.5807
 2627TIP3    H2 7846   2.354   0.217   2.075 -0.4127  1.5112  0.8277
 2628TIP3   OH2 7847   4.612   2.992   0.258 -0.0066  0.7883  0.1171
 2628TIP3    H1 7848   4.673   3.052   0.302  1.3298 -0.5294  0.1549
 2628TIP3    H2 7849   4.667   2.944   0.195 -0.2628 -2.5843  2.2287
 2629TIP3   OH2 7850   0.539   5.954   5.554  1.1586 -0.0103  0.2154
 2629TIP3    H1 7851   0.634   5.960   5.565  0.9039  1.0707  2.4823
 2629TIP3    H2 7852   0.517   5.866   5.584  1.3356  0.2088  1.0279
 2630TIP3   OH2 7853   5.733   6.564   4.333 -0.0341  0.2194  0.0054
 2630TIP3    H1 7854   5.754   6.529   4.420 -0.0279 -0.9821 -0.4650
 2630TIP3    H2 7855   5.746   6.658   4.341  2.4388 -0.1263  0.6274
 2631TIP3   OH2 7856   5.198   1.675   3.082  0.6042  0.9582 -0.4784
 2631TIP3    H1 7857   5.195   1.766   3.114  0.0725  0.7954 -0.0468
 2631TIP3    H2 7858   5.251   1.629   3.147  1.8367  1.1738 -1.2883
 2632TIP3   OH2 7859   2.667   0.979   2.124 -0.0348 -0.5060  0.5538
 2632TIP3    H1 7860   2.707   0.899   2.158  2.2624  1.5953  3.3011
 2632TIP3    H2 7861   2.741   1.028   2.087 -1.1438  0.9243  0.1659
 2633TIP3   OH2 7862   0.658   2.259   3.301 -0.0128 -0.3794  0.4045
 2633TIP3    H1 7863   0.571   2.295   3.315  0.3593  0.5364  0.3995
 2633TIP3    H2 7864   0.646   2.193   3.232 -0.8322 -0.8420  0.9716
 2634TIP3   OH2 7865   4.313   0.766   1.301 -0.5223  0.1359  0.3487
 2634TIP3    H1 7866   4.346   0.757   1.212 -3.0334 -0.3532 -0.5931
 2634TIP3    H2 7867   4.224   0.800   1.291 -0.7572  0.3554  2.6916
 2635TIP3   OH2 7868   1.349   5.886   1.323  0.5065  0.2765 -0.2583
 2635TIP3    H1 7869   1.317   5.799   1.345  1.2417  0.0323 -0.1277
 2635TIP3    H2 7870   1.270   5.937   1.305  0.1407 -0.8973 -2.1977
 2636TIP3   OH2 7871   5.744   2.952   4.783  0.3023 -0.2451 -0.1326
 2636TIP3    H1 7872   5.717   3.039   4.755  0.4336 -0.0289  0.4016
 2636TIP3    H2 7873   5.755   2.903   4.701  0.8096  0.4091 -0.4710
 2637TIP3   OH2 7874   4.788   0.680   1.234 -0.1572  0.0256 -0.2707
 2637TIP3    H1 7875   4.720   0.716   1.291  0.5998 -0.5831  1.0591
 2637TIP3    H2 7876   4.770   0.586   1.231 -0.0348  0.0125 -0.8468
 2638TIP3   OH2 7877   6.585   1.476   3.351 -0.5047 -0.1174  0.0143
 2638TIP3    H1 7878   6.664   1.423   3.360 -1.4151 -2.0169 -2.2250
 2638TIP3    H2 7879   6.598   1.525   3.270 -2.0848 -1.4358 -1.0968
 2639TIP3   OH2 7880   6.802   2.844   1.300 -0.5327  0.3164 -0.9265
 2639TIP3    H1 7881   6.750   2.777   1.256 -0.7197  0.5783 -1.1090
 2639TIP3    H2 7882   6.772   2.842   1.391 -0.8870  0.4817 -1.0348
 2640TIP3   OH2 7883   6.553   1.804   4.182  0.2579  0.6006  0.3725
 2640TIP3    H1 7884   6.591   1.730   4.134  0.1279  0.4512  0.4983
 2640TIP3    H2 7885   6.611   1.878   4.162  1.1276  0.1779  1.2485
 2641TIP3   OH2 7886   6.388   4.643   2.468 -0.1208 -1.1597 -0.2309
 2641TIP3    H1 7887   6.377   4.593   2.387 -0.3767  0.4113 -1.2086
 2641TIP3    H2 7888   6.482   4.642   2.485  0.3338  0.7824 -2.1439
 2642TIP3   OH2 7889   4.310   5.709   4.487 -0.2639  0.0955  0.0719
 2642TIP3    H1 7890   4.221   5.711   4.454 -0.6351 -0.3900  0.9895
 2642TIP3    H2 7891   4.308   5.765   4.565  0.6021  1.2909 -0.7303
 2643TIP3   OH2 7892   6.274   5.057   5.205  0.2965 -0.2461 -0.2439
 2643TIP3    H1 7893   6.255   4.973   5.248  0.3840  0.2832  0.8656
 2643TIP3    H2 7894   6.190   5.103   5.205  0.5887  0.3057  0.6228
 2644TIP3   OH2 7895   6.822   4.813   5.083  0.3704 -0.8452 -0.5387
 2644TIP3    H1 7896   6.883   4.887   5.083 -0.8849  0.2609 -1.3833
 2644TIP3    H2 7897   6.876   4.737   5.102  1.6782  0.3161  0.6438
 2645TIP3   OH2 7898   5.452   5.094   1.674 -0.1255  0.4703 -0.0197
 2645TIP3    H1 7899   5.385   5.035   1.639  2.2717 -0.6275 -3.2726
 2645TIP3    H2 7900   5.429   5.180   1.638 -0.2844  0.2774 -0.3906
 2646TIP3   OH2 7901   1.430   0.675   3.690  0.0763  0.4639 -0.2306
 2646TIP3    H1 7902   1.357   0.697   3.633 -2.3739 -1.0294  2.1290
 2646TIP3    H2 7903   1.398   0.604   3.745  4.5304 -2.9523 -1.4063
 2647TIP3   OH2 7904   2.331   0.338   2.898 -0.2345  0.1342 -0.2350
 2647TIP3    H1 7905   2.341   0.381   2.813 -0.1193 -0.2631 -0.4277
 2647TIP3    H2 7906   2.258   0.383   2.941 -0.5697  0.0582 -0.7209
 2648TIP3   OH2 7907   2.884   4.679   1.195  0.4684 -0.1622 -0.5484
 2648TIP3    H1 7908   2.905   4.637   1.111 -0.1428 -0.0673 -0.7557
 2648TIP3    H2 7909   2.806   4.632   1.226 -0.9750  1.5789 -1.3780
 2649TIP3   OH2 7910   6.825   1.169   2.703  0.3731  0.3543  0.4524
 2649TIP3    H1 7911   6.892   1.146   2.639  0.4884 -0.0105  0.7024
 2649TIP3    H2 7912   6.753   1.108   2.685  0.6223 -0.1119  1.0236
 2650TIP3   OH2 7913   2.855   4.556   1.504 -0.5579  0.2648 -0.3295
 2650TIP3    H1 7914   2.929   4.502   1.475  0.5732  1.2705  0.5420
 2650TIP3    H2 7915   2.790   4.547   1.434 -1.0987 -3.3743  0.4388
 2651TIP3   OH2 7916   3.456   2.893   0.489  0.1098  0.4636  0.0071
 2651TIP3    H1 7917   3.534   2.924   0.444  0.9460 -0.1521  0.9719
 2651TIP3    H2 7918   3.389   2.887   0.421  1.7937 -2.1435 -1.5763
 2652TIP3   OH2 7919   2.777   4.173   4.514 -0.1499  0.3389 -0.1160
 2652TIP3    H1 7920   2.799   4.168   4.607  0.6736 -0.7010 -0.3526
 2652TIP3    H2 7921   2.682   4.158   4.511 -0.2880  1.0270  0.6010
 2653TIP3   OH2 7922   3.043   2.988   1.994  0.4551 -0.3048  0.1052
 2653TIP3    H1 7923   3.115   2.983   2.057  0.8924 -0.6197 -0.4186
 2653TIP3    H2 7924   3.072   2.936   1.920 -0.4821 -0.7715  0.0534
 2654TIP3   OH2 7925   4.993   0.836   3.720  0.2935  0.1725  0.4386
 2654TIP3    H1 7926   4.924   0.791   3.769 -0.8226 -0.7827 -1.8848
 2654TIP3    H2 7927   4.986   0.927   3.749 -0.7295 -0.2390  1.5830
 2655TIP3   OH2 7928   6.430   5.005   4.858 -0.2090  0.0100  0.1946
 2655TIP3    H1 7929   6.398   5.088   4.894  1.4945  0.4924  0.6726
 2655TIP3    H2 7930   6.449   4.951   4.934 -1.3040 -0.8447 -0.1154
 2656TIP3   OH2 7931   5.712   4.005   2.860 -0.2818 -0.1536  0.2835
 2656TIP3    H1 7932   5.625   3.993   2.822 -0.2940 -0.3411  0.3698
 2656TIP3    H2 7933   5.701   4.074   2.926 -0.3840 -0.2424  0.3591
 2657TIP3   OH2 7934   2.079   1.472   2.053 -0.6124  0.1628  0.3788
 2657TIP3    H1 7935   2.087   1.411   2.126  0.4907 -0.5011 -0.2692
 2657TIP3    H2 7936   2.055   1.555   2.093 -0.0562 -0.2038  1.4953
 2658TIP3   OH2 7937   3.422   1.347   1.071  0.4068  0.5977  0.2484
 2658TIP3    H1 7938   3.472   1.359   1.152 -0.0912 -0.8350  0.7998
 2658TIP3    H2 7939   3.462   1.271   1.029 -0.9188 -0.2443  0.4396
 2659TIP3   OH2 7940   2.373   1.999   1.401  0.1298 -0.0063 -0.0845
 2659TIP3    H1 7941   2.364   2.006   1.306  2.1937 -0.6494 -0.3643
 2659TIP3    H2 7942   2.324   1.920   1.424 -0.1406 -0.0050 -0.6464
 2660TIP3   OH2 7943   1.145   0.069   4.182 -0.4366 -0.0845  0.1151
 2660TIP3    H1 7944   1.220   0.018   4.213 -0.6221  0.1488  0.9873
 2660TIP3    H2 7945   1.182   0.132   4.120  0.4278  1.3078  1.9454
 2661TIP3   OH2 7946   0.620   5.689   2.390  0.8408  0.3919 -0.4989
 2661TIP3    H1 7947   0.626   5.681   2.485 -0.7847 -3.5587 -0.5022
 2661TIP3    H2 7948   0.654   5.776   2.370 -0.1347  1.9842  3.7865
 2662TIP3   OH2 7949   3.467   2.537   1.539  0.3626  0.9778 -0.4272
 2662TIP3    H1 7950   3.384   2.493   1.557  0.3048  1.0921 -0.4104
 2662TIP3    H2 7951   3.489   2.512   1.449  1.4233 -0.8284  0.3010
 2663TIP3   OH2 7952   3.140   1.066   2.239 -0.1998  0.2677 -0.4917
 2663TIP3    H1 7953   3.178   1.037   2.156 -0.3454 -1.4927  0.0114
 2663TIP3    H2 7954   3.096   1.148   2.218  1.6101  1.0175 -1.6595
 2664TIP3   OH2 7955   0.032   3.123   3.098 -0.8987 -0.0396  0.2487
 2664TIP3    H1 7956  -0.023   3.059   3.145 -2.7508  0.6638 -0.8632
 2664TIP3    H2 7957   0.121   3.103   3.127 -1.6972 -1.3093  2.0571
 2665TIP3   OH2 7958   3.975   3.779   0.806  0.1556 -0.3490 -0.7487
 2665TIP3    H1 7959   4.002   3.754   0.718 -2.5497 -1.2997 -1.4173
 2665TIP3    H2 7960   3.886   3.745   0.814  0.5078 -0.8198  2.6069
 2666TIP3   OH2 7961   7.153   3.472   0.170 -0.1438 -0.1720 -0.0225
 2666TIP3    H1 7962   7.060   3.481   0.150 -0.6201  1.1021  2.4065
 2666TIP3    H2 7963   7.160   3.387   0.214  0.3374 -1.4204 -2.3538
 2667TIP3   OH2 7964   5.457   1.985   4.675  0.0813  0.5419 -0.2073
 2667TIP3    H1 7965   5.400   2.028   4.738 -1.4888  0.7400 -1.6930
 2667TIP3    H2 7966   5.535   2.040   4.672 -0.8097  1.8528 -0.1595
 2668TIP3   OH2 7967   6.422   1.075   4.487  0.0856  0.5155  0.7366
 2668TIP3    H1 7968   6.418   1.165   4.519  0.1190  0.1331  1.8595
 2668TIP3    H2 7969   6.355   1.071   4.418  2.7207  2.4563 -2.2198
 2669TIP3   OH2 7970   0.246   2.857   5.787 -0.5937  0.0909 -0.1529
 2669TIP3    H1 7971   0.191   2.936   5.790  1.5749  1.7476 -0.8711
 2669TIP3    H2 7972   0.283   2.858   5.698 -0.4877 -1.7576 -0.1626
 2670TIP3   OH2 7973   3.469   6.669   2.198 -0.5652 -0.0606  0.0874
 2670TIP3    H1 7974   3.558   6.659   2.164  0.4404  0.6781  2.3269
 2670TIP3    H2 7975   3.435   6.579   2.203  0.7317 -0.5272  0.8945
 2671TIP3   OH2 7976   7.077   1.762   0.920 -0.2082  0.3050  0.2097
 2671TIP3    H1 7977   7.080   1.791   0.828 -1.2209  1.8337  0.6192
 2671TIP3    H2 7978   7.168   1.748   0.944  0.0653 -0.2167 -1.0533
 2672TIP3   OH2 7979   0.156   0.508   3.447 -0.1990  0.1842 -0.1774
 2672TIP3    H1 7980   0.069   0.533   3.480  0.7883  2.6776  0.7371
 2672TIP3    H2 7981   0.187   0.442   3.509 -0.9809  0.0844  0.1202
 2673TIP3   OH2 7982   2.293   3.840   2.754  0.0725 -0.2499  0.0076
 2673TIP3    H1 7983   2.362   3.906   2.744  0.1919 -0.1309  1.4460
 2673TIP3    H2 7984   2.339   3.762   2.785 -0.1052 -0.9589 -1.4414
 2674TIP3   OH2 7985   4.093   2.275   5.825  0.0798  0.4424 -0.0320
 2674TIP3    H1 7986   4.052   2.188   5.823  2.3506 -0.7308  0.9028
 2674TIP3    H2 7987   4.166   2.268   5.764  0.5531  1.5678  0.3868
 2675TIP3   OH2 7988   1.790   4.774   0.850  0.3168 -0.2143  0.4957
 2675TIP3    H1 7989   1.863   4.713   0.859  0.9252  0.3307 -0.5534
 2675TIP3    H2 7990   1.830   4.860   0.863  0.0454  0.1518 -0.9538
 2676TIP3   OH2 7991   3.207   2.988   3.705 -0.6466  0.2271 -0.3196
 2676TIP3    H1 7992   3.295   2.953   3.692 -0.2300  1.0206  0.2663
 2676TIP3    H2 7993   3.186   3.031   3.622  0.5335  2.1429  0.2974
 2677TIP3   OH2 7994   6.506   4.203   1.232  0.9357 -0.6191 -0.5305
 2677TIP3    H1 7995   6.535   4.115   1.258 -1.9468 -1.9333 -1.3103
 2677TIP3    H2 7996   6.426   4.217   1.282  1.1623  1.4793 -0.6758
 2678TIP3   OH2 7997   1.672   6.436   3.323 -0.6195 -0.0748 -0.4583
 2678TIP3    H1 7998   1.675   6.443   3.418 -1.1865 -1.1965 -0.3461
 2678TIP3    H2 7999   1.746   6.489   3.293  0.1295 -0.4690  0.6441
 2679TIP3   OH2 8000   1.954   4.684   0.223  0.6728  0.1276  0.2498
 2679TIP3    H1 8001   2.044   4.694   0.254  0.9323  1.6090 -0.8630
 2679TIP3    H2 8002   1.953   4.600   0.177  1.0044 -0.7171  1.7070
 2680TIP3   OH2 8003   2.688   0.317   4.734  0.2333 -0.1839 -0.3179
 2680TIP3    H1 8004   2.723   0.379   4.669  1.0710  0.9134  1.1169
 2680TIP3    H2 8005   2.765   0.270   4.766  0.0156  0.1726  0.7663
 2681TIP3   OH2 8006   2.861   5.983   2.280  0.0510 -0.3408  0.2722
 2681TIP3    H1 8007   2.884   5.907   2.227  1.5989  0.0702  0.3024
 2681TIP3    H2 8008   2.940   6.038   2.279 -0.9485  1.1651  0.4294
 2682TIP3   OH2 8009   1.947   5.488   1.266 -0.3251  0.3771 -0.0969
 2682TIP3    H1 8010   1.959   5.465   1.173 -2.4036  0.2645 -0.3796
 2682TIP3    H2 8011   2.034   5.517   1.294  0.4379  0.1206 -1.9884
 2683TIP3   OH2 8012   3.873   1.957   4.951 -0.5135 -0.5345  0.2336
 2683TIP3    H1 8013   3.802   1.895   4.969  0.4347 -1.5309  0.6678
 2683TIP3    H2 8014   3.924   1.958   5.032  1.1370 -1.4395 -0.7384
 2684TIP3   OH2 8015   0.599   0.444   5.528 -0.3508 -0.0469 -0.8894
 2684TIP3    H1 8016   0.691   0.469   5.530  0.0557 -1.4914 -0.7086
 2684TIP3    H2 8017   0.591   0.386   5.452 -0.6911 -1.4289  0.1633
 2685TIP3   OH2 8018   1.684   5.602   4.401 -0.3344  0.1472 -0.7981
 2685TIP3    H1 8019   1.752   5.605   4.334 -0.4453  0.7468 -0.8901
 2685TIP3    H2 8020   1.679   5.691   4.434  0.2723 -0.2855  0.5733
 2686TIP3   OH2 8021   2.343   1.038   2.375  0.0941  0.5837 -0.3492
 2686TIP3    H1 8022   2.321   1.003   2.462  2.6779  0.1297  0.2012
 2686TIP3    H2 8023   2.283   1.111   2.363  0.4135  1.4102  2.3730
 2687TIP3   OH2 8024   2.544   3.156   4.691  0.0793  0.0476  0.0419
 2687TIP3    H1 8025   2.609   3.162   4.761 -1.3289 -0.6221  1.4647
 2687TIP3    H2 8026   2.595   3.166   4.611  1.5928  2.0191  1.1675
 2688TIP3   OH2 8027   4.629   1.576   4.820 -0.0165  0.0138  0.2786
 2688TIP3    H1 8028   4.631   1.588   4.915  2.4304 -0.9068  0.4295
 2688TIP3    H2 8029   4.581   1.652   4.787 -1.1419  0.2311  2.2355
 2689TIP3   OH2 8030   5.884   1.595   3.528 -0.5784 -0.5418 -0.1351
 2689TIP3    H1 8031   5.892   1.682   3.567  1.0278 -0.5984 -0.2886
 2689TIP3    H2 8032   5.900   1.609   3.435  1.7626 -1.2355  0.0964
 2690TIP3   OH2 8033   3.811   3.777   5.076 -0.1501 -0.3336  0.7927
 2690TIP3    H1 8034   3.817   3.843   5.146 -0.4167  1.5338 -0.8783
 2690TIP3    H2 8035   3.833   3.824   4.996  0.0300 -2.3923 -0.4343
 2691TIP3   OH2 8036   2.368   0.793   3.299  0.4256 -0.4569 -0.1282
 2691TIP3    H1 8037   2.460   0.801   3.273  0.5789  0.8247  0.7112
 2691TIP3    H2 8038   2.322   0.858   3.247  0.6124  1.5491  2.0469
 2692TIP3   OH2 8039   2.436   2.643   0.529 -0.4627 -0.1933  0.5648
 2692TIP3    H1 8040   2.447   2.563   0.478  1.0982 -1.5861  2.8868
 2692TIP3    H2 8041   2.387   2.702   0.471  0.5990 -1.8430 -2.2247
 2693TIP3   OH2 8042   1.386   3.883   4.989  0.0370  0.3136 -0.1255
 2693TIP3    H1 8043   1.326   3.931   5.046 -0.4630  0.6235 -0.8963
 2693TIP3    H2 8044   1.473   3.903   5.023 -0.3136 -0.8826  1.5854
 2694TIP3   OH2 8045   6.504   6.270   3.303 -0.4160  0.0929 -0.3293
 2694TIP3    H1 8046   6.538   6.181   3.304  0.0903  0.2684  1.0334
 2694TIP3    H2 8047   6.417   6.263   3.343 -0.7082  0.1004 -0.9551
 2695TIP3   OH2 8048   4.611   5.716   2.756 -0.3825 -0.3488  0.1614
 2695TIP3    H1 8049   4.691   5.761   2.730 -0.3751 -0.2547  0.3483
 2695TIP3    H2 8050   4.584   5.668   2.678 -0.1345 -0.3945  0.1036
 2696TIP3   OH2 8051   6.279   2.849   0.079 -0.2945 -0.1594 -0.3422
 2696TIP3    H1 8052   6.325   2.922   0.119 -0.5166  0.3723 -1.0386
 2696TIP3    H2 8053   6.188   2.877   0.073 -0.7475 -1.2301  1.0868
 2697TIP3   OH2 8054   1.256   6.412   0.652  0.2976 -0.7730 -0.0596
 2697TIP3    H1 8055   1.197   6.340   0.632 -1.8381  0.3976  1.6362
 2697TIP3    H2 8056   1.227   6.484   0.595  0.9785 -0.5637 -0.1581
 2698TIP3   OH2 8057   0.832   3.188   4.675  0.1735 -0.2499  0.0117
 2698TIP3    H1 8058   0.779   3.130   4.620 -0.0996  0.4257 -0.4544
 2698TIP3    H2 8059   0.846   3.139   4.756 -0.6254 -0.6879 -0.1083
 2699TIP3   OH2 8060   0.031   1.746   0.595  0.2038  0.2692 -0.4301
 2699TIP3    H1 8061  -0.030   1.817   0.611 -0.7254 -0.7100  0.5027
 2699TIP3    H2 8062   0.094   1.751   0.667  0.6784  0.6772 -0.8592
 2700TIP3   OH2 8063   1.949   3.806   0.692  0.6182  0.0176  0.4812
 2700TIP3    H1 8064   1.987   3.820   0.606 -1.4201  0.3090 -0.4456
 2700TIP3    H2 8065   1.904   3.722   0.685  1.0676 -0.3257  1.5245
 2701TIP3   OH2 8066   6.955   0.687   4.364 -0.1084 -0.3036  0.8028
 2701TIP3    H1 8067   7.042   0.650   4.373  0.1438 -0.3839 -1.3891
 2701TIP3    H2 8068   6.957   0.734   4.281 -3.1068 -3.3467 -1.3263
 2702TIP3   OH2 8069   1.414   5.373   5.270  0.4818  0.5857  0.6637
 2702TIP3    H1 8070   1.446   5.284   5.286 -1.3969 -0.1494  0.5801
 2702TIP3    H2 8071   1.493   5.423   5.250  1.6892 -0.8582  1.5388
 2703TIP3   OH2 8072   1.542   1.762   3.987 -0.4980 -0.3927 -0.6677
 2703TIP3    H1 8073   1.518   1.833   4.046  3.3953 -0.4131  1.2698
 2703TIP3    H2 8074   1.513   1.682   4.032  1.9943 -0.3713  1.1990
 2704TIP3   OH2 8075   4.316   4.752   1.133  0.2879 -0.2178 -0.4024
 2704TIP3    H1 8076   4.259   4.734   1.059 -0.1449  1.0084 -0.3950
 2704TIP3    H2 8077   4.363   4.832   1.109  1.0493 -0.4903  0.1359
 2705TIP3   OH2 8078   3.170   5.211   1.549 -0.1563  0.3857  0.2390
 2705TIP3    H1 8079   3.225   5.289   1.548  1.0973 -0.4360  1.4942
 2705TIP3    H2 8080   3.199   5.162   1.625 -1.7569 -0.7363  0.1822
 2706TIP3   OH2 8081   4.363   0.970   3.979 -0.3237 -0.2718  0.0843
 2706TIP3    H1 8082   4.268   0.956   3.971 -0.5676  1.8480 -1.9615
 2706TIP3    H2 8083   4.370   1.052   4.029  0.4138 -0.3160  0.0501
 2707TIP3   OH2 8084   4.624   2.365   2.687  0.4202 -0.3848  0.4347
 2707TIP3    H1 8085   4.656   2.308   2.757  0.5459 -0.0940  0.6161
 2707TIP3    H2 8086   4.590   2.442   2.732 -1.4623 -1.1033  0.3052
 2708TIP3   OH2 8087   0.300   6.243   4.045 -0.3774  0.0742 -0.1476
 2708TIP3    H1 8088   0.273   6.162   4.087 -0.6028 -0.0509 -0.5284
 2708TIP3    H2 8089   0.301   6.223   3.951  0.7431  0.1668 -0.1714
 2709TIP3   OH2 8090   6.497   0.702   1.821  0.2029 -0.0105 -0.2800
 2709TIP3    H1 8091   6.455   0.743   1.896 -0.2452  0.0293 -0.5441
 2709TIP3    H2 8092   6.587   0.687   1.848  0.2014  0.5501  0.0513
 2710TIP3   OH2 8093   6.599   4.105   1.497 -0.0406  0.8059  0.0550
 2710TIP3    H1 8094   6.661   4.128   1.567  1.3534  1.3227 -1.2816
 2710TIP3    H2 8095   6.529   4.169   1.505  2.0892  3.5870 -1.4367
 2711TIP3   OH2 8096   7.121   4.951   2.565 -0.3792  0.3028 -0.2152
 2711TIP3    H1 8097   7.065   4.875   2.578 -0.7867  0.6619  0.1575
 2711TIP3    H2 8098   7.067   5.026   2.590  0.8439  0.5294  1.9601
 2712TIP3   OH2 8099   0.191   5.916   3.375  0.5422  0.3382 -0.5972
 2712TIP3    H1 8100   0.122   5.922   3.309  3.3787  0.5326 -3.8658
 2712TIP3    H2 8101   0.244   5.841   3.348  2.0011  0.5720  1.3718
 2713TIP3   OH2 8102   3.740   4.765   3.100  0.6065  0.2442 -0.1812
 2713TIP3    H1 8103   3.661   4.742   3.150  0.1203  0.7245 -0.7197
 2713TIP3    H2 8104   3.806   4.703   3.130  1.0862  2.0599  2.9647
 2714TIP3   OH2 8105   0.138   0.131   0.267 -1.1199 -0.7089  0.3379
 2714TIP3    H1 8106   0.167   0.103   0.354 -1.3845 -0.2840  0.5617
 2714TIP3    H2 8107   0.203   0.196   0.240 -2.3990  1.0099  1.2711
 2715TIP3   OH2 8108   3.555   0.669   4.703  0.2651  0.2155  0.0827
 2715TIP3    H1 8109   3.629   0.667   4.642 -0.2604 -0.5784 -0.5432
 2715TIP3    H2 8110   3.591   0.636   4.786  1.0492  1.5484  0.3145
 2716TIP3   OH2 8111   6.324   6.457   0.207 -0.4518  0.7596 -0.5118
 2716TIP3    H1 8112   6.403   6.487   0.162 -0.7040 -0.0513 -1.5442
 2716TIP3    H2 8113   6.352   6.441   0.297  0.3980  1.1186 -0.7016
 2717TIP3   OH2 8114   6.012   4.248   3.021  0.0143  0.0832  0.5379
 2717TIP3    H1 8115   5.983   4.174   2.968 -1.2744 -0.4035  1.8389
 2717TIP3    H2 8116   6.065   4.301   2.962  0.1655 -1.3713 -0.6933
 2718TIP3   OH2 8117   5.840   3.712   1.581  0.2331  0.0484 -0.0252
 2718TIP3    H1 8118   5.789   3.667   1.648  1.6828  1.0801  1.8718
 2718TIP3    H2 8119   5.916   3.656   1.566  0.3633  0.2505 -0.1290
 2719TIP3   OH2 8120   0.598   4.548   5.502  0.0005  0.0199 -0.7263
 2719TIP3    H1 8121   0.555   4.477   5.455  0.1471 -0.8865  0.4441
 2719TIP3    H2 8122   0.677   4.566   5.452 -0.5886  0.1232 -1.6355
 2720TIP3   OH2 8123   4.653   1.170   1.941 -0.3850 -0.5359 -0.5526
 2720TIP3    H1 8124   4.610   1.127   1.867 -1.1410 -0.2617 -0.2881
 2720TIP3    H2 8125   4.583   1.179   2.007 -0.5535  2.0844 -0.9920
 2721TIP3   OH2 8126   3.119   6.419   3.294  0.0088  0.3705  0.2178
 2721TIP3    H1 8127   3.030   6.394   3.268 -0.4272  0.8544  1.1858
 2721TIP3    H2 8128   3.167   6.336   3.295 -0.6638 -0.0289  0.5531
 2722TIP3   OH2 8129   5.054   1.650   0.885  0.3709 -0.0649 -0.3938
 2722TIP3    H1 8130   5.130   1.630   0.831  0.3503 -0.3675 -0.3170
 2722TIP3    H2 8131   5.010   1.722   0.841  0.6473  0.0400 -0.4936
 2723TIP3   OH2 8132   2.714   2.804   5.231  0.0227  0.2158  0.5146
 2723TIP3    H1 8133   2.625   2.802   5.265 -0.4692 -0.8463 -0.7278
 2723TIP3    H2 8134   2.757   2.729   5.272  0.9878  1.8160  2.6091
 2724TIP3   OH2 8135   3.683   0.477   0.636 -0.3041  0.0458  0.1336
 2724TIP3    H1 8136   3.653   0.501   0.549 -1.0951  0.0012  0.3856
 2724TIP3    H2 8137   3.756   0.416   0.621  0.5991  1.2394 -0.4987
 2725TIP3   OH2 8138   5.976   2.948   4.944 -0.5901  0.2819  0.1983
 2725TIP3    H1 8139   6.011   3.036   4.954  0.2236 -0.2256  2.4230
 2725TIP3    H2 8140   5.892   2.961   4.900  0.1457  1.9927 -0.8246
 2726TIP3   OH2 8141   2.788   2.778   1.402  0.2819 -0.1308  0.0623
 2726TIP3    H1 8142   2.756   2.691   1.376  2.1301 -0.3012 -1.8949
 2726TIP3    H2 8143   2.742   2.797   1.484 -0.8331 -2.5588  0.0773
 2727TIP3   OH2 8144   1.115   6.010   1.345  0.8321  0.2625 -0.2686
 2727TIP3    H1 8145   1.038   5.954   1.334  0.8935  0.3861 -1.4532
 2727TIP3    H2 8146   1.079   6.097   1.362  0.7344  0.0074  0.9279
 2728TIP3   OH2 8147   6.010   6.686   3.669  0.3031 -0.0624 -0.1051
 2728TIP3    H1 8148   6.050   6.684   3.756 -1.1364  0.2230  0.5831
 2728TIP3    H2 8149   6.021   6.597   3.636  0.2297 -0.3668  0.6681
 2729TIP3   OH2 8150   1.152   2.082   0.718  0.3451 -0.1411  0.2493
 2729TIP3    H1 8151   1.206   2.003   0.717  0.9069  0.2335  0.6435
 2729TIP3    H2 8152   1.205   2.149   0.674  1.3779  0.9669  2.9786
 2730TIP3   OH2 8153   2.673   3.453   5.272 -0.1070  0.0668  0.1197
 2730TIP3    H1 8154   2.688   3.528   5.214  1.5425  1.0520  1.7452
 2730TIP3    H2 8155   2.717   3.380   5.228 -0.0371  0.4853 -0.5180
 2731TIP3   OH2 8156   0.871   3.156   1.163  0.1760 -0.0783 -0.4598
 2731TIP3    H1 8157   0.903   3.068   1.185 -1.5370 -0.1581  2.1637
 2731TIP3    H2 8158   0.824   3.184   1.241  1.3782  3.5712 -0.8648
 2732TIP3   OH2 8159   3.728   3.518   2.684 -0.2485  0.4929  0.0854
 2732TIP3    H1 8160   3.800   3.507   2.747 -0.6102  1.1873  0.6396
 2732TIP3    H2 8161   3.736   3.609   2.656 -2.0469  1.1824  1.6137
 2733TIP3   OH2 8162   5.293   3.484   3.774  0.2437  0.2001  0.1993
 2733TIP3    H1 8163   5.223   3.422   3.794 -0.2901  0.7283  0.0012
 2733TIP3    H2 8164   5.247   3.563   3.743  0.8899  0.7845  0.6978
 2734TIP3   OH2 8165   5.295   4.415   4.651 -0.1912  0.1589 -0.1898
 2734TIP3    H1 8166   5.233   4.358   4.605  1.8220 -1.1285 -1.4100
 2734TIP3    H2 8167   5.265   4.413   4.742 -1.6895 -0.7423 -0.6521
 2735TIP3   OH2 8168   0.149   2.707   0.811  0.3232  0.0086 -0.2972
 2735TIP3    H1 8169   0.097   2.728   0.889 -0.7421 -0.3670 -0.8908
 2735TIP3    H2 8170   0.230   2.670   0.846 -0.2452 -0.3899  0.6421
 2736TIP3   OH2 8171   6.438   2.860   1.381 -0.8188  0.2172  0.3558
 2736TIP3    H1 8172   6.461   2.895   1.467  2.7149 -0.7024 -0.0478
 2736TIP3    H2 8173   6.472   2.770   1.381 -2.3051 -0.4240 -1.4385
 2737TIP3   OH2 8174   2.743   3.872   4.265  0.8887 -0.0426  0.5015
 2737TIP3    H1 8175   2.677   3.815   4.304  2.4231 -1.7741  0.7014
 2737TIP3    H2 8176   2.732   3.862   4.170  0.3843  0.2560  0.5300
 2738TIP3   OH2 8177   5.497   2.872   2.784 -0.2024 -0.2702  0.2673
 2738TIP3    H1 8178   5.425   2.809   2.785 -1.8426  1.5003  0.2576
 2738TIP3    H2 8179   5.493   2.912   2.697  0.4171  0.2608  0.4706
 2739TIP3   OH2 8180   1.173   3.091   3.160  0.0343  0.1656  0.1429
 2739TIP3    H1 8181   1.101   3.040   3.198  0.0048  0.5080  0.5603
 2739TIP3    H2 8182   1.164   3.079   3.066 -1.0407  0.7986  0.1370
 2740TIP3   OH2 8183  -0.006   4.644   4.267 -0.4254  0.1326 -0.7060
 2740TIP3    H1 8184   0.029   4.566   4.224  0.6389  0.0258  0.3034
 2740TIP3    H2 8185   0.045   4.652   4.347 -3.6799 -0.9314  1.7159
 2741TIP3   OH2 8186   2.015   5.677   4.297  0.4160  0.4948 -0.3791
 2741TIP3    H1 8187   1.992   5.651   4.207 -1.3421  0.8862 -0.0677
 2741TIP3    H2 8188   2.066   5.603   4.330 -0.4437 -0.4601 -1.1085
 2742TIP3   OH2 8189   6.700   1.810   1.945  0.6992  0.1098 -0.3777
 2742TIP3    H1 8190   6.775   1.823   2.001  0.8917  1.3938 -0.8952
 2742TIP3    H2 8191   6.628   1.855   1.989  0.2457 -0.9691  0.0341
 2743TIP3   OH2 8192   6.728   5.851   0.341 -0.5285 -0.2550  0.2664
 2743TIP3    H1 8193   6.784   5.873   0.415 -0.2980 -1.3424  0.4278
 2743TIP3    H2 8194   6.640   5.875   0.371 -0.2340  0.9287  0.2244
 2744TIP3   OH2 8195   7.103   0.133   3.662  0.0444  0.3015  0.1609
 2744TIP3    H1 8196   7.113   0.171   3.575  1.0342  1.2056  0.6539
 2744TIP3    H2 8197   7.184   0.086   3.677 -0.4232 -0.4766  0.3128
 2745TIP3   OH2 8198   5.856   0.802   1.755 -0.1670  0.6685  0.4028
 2745TIP3    H1 8199   5.902   0.856   1.691  1.2967 -1.4470 -0.4255
 2745TIP3    H2 8200   5.912   0.803   1.833  0.0052  0.0999  0.2833
 2746TIP3   OH2 8201   6.027   4.963   0.597  0.3498  0.0802  0.1288
 2746TIP3    H1 8202   5.946   4.983   0.549  0.1783  0.0313  0.3954
 2746TIP3    H2 8203   6.071   4.896   0.545  0.2728  0.1870 -0.0745
 2747TIP3   OH2 8204   6.876   0.295   2.310 -0.1189 -0.1561  0.3843
 2747TIP3    H1 8205   6.945   0.353   2.278 -0.2956 -0.4606 -0.6144
 2747TIP3    H2 8206   6.854   0.327   2.397  2.5342 -1.1320  1.5067
 2748TIP3   OH2 8207   0.396   3.070   4.899  0.5384 -0.5146 -0.4269
 2748TIP3    H1 8208   0.397   3.134   4.971 -2.5022 -0.3763 -0.3858
 2748TIP3    H2 8209   0.472   3.094   4.845  1.1067  1.3384  1.0857
 2749TIP3   OH2 8210   0.297   3.317   2.449  0.0750  0.1397 -0.0322
 2749TIP3    H1 8211   0.299   3.233   2.497  1.1608 -0.2621 -0.7535
 2749TIP3    H2 8212   0.236   3.371   2.500  1.2804 -0.2123  1.8961
 2750TIP3   OH2 8213   0.671   2.235   1.832 -0.7833 -0.3612  0.1542
 2750TIP3    H1 8214   0.615   2.297   1.878  0.2617 -0.3896  1.5319
 2750TIP3    H2 8215   0.723   2.289   1.773  0.7531  0.2769  1.9760
 2751TIP3   OH2 8216   1.060   2.485   2.483  0.3469 -0.1450  0.1909
 2751TIP3    H1 8217   0.984   2.427   2.475  0.1942  0.2287 -1.5884
 2751TIP3    H2 8218   1.120   2.455   2.415  0.2828  1.6804 -0.7550
 2752TIP3   OH2 8219   4.302   5.881   5.446  0.6976 -0.0454 -0.0837
 2752TIP3    H1 8220   4.383   5.920   5.477  0.8668  0.0097 -0.5880
 2752TIP3    H2 8221   4.247   5.956   5.421  2.2444 -0.0589 -4.2200
 2753TIP3   OH2 8222   2.607   4.514   2.104 -0.2264  0.0976 -0.2899
 2753TIP3    H1 8223   2.586   4.439   2.048  1.1460  1.1887 -2.4032
 2753TIP3    H2 8224   2.686   4.551   2.066 -0.8282  2.6131  0.7032
 2754TIP3   OH2 8225   5.222   3.382   4.243 -0.4118  0.1861 -0.7720
 2754TIP3    H1 8226   5.282   3.418   4.309  0.2071 -2.1626  0.0806
 2754TIP3    H2 8227   5.198   3.456   4.188  2.7398  1.4022 -0.7130
 2755TIP3   OH2 8228   7.054   6.341   3.841  0.3246 -0.3474 -0.3582
 2755TIP3    H1 8229   7.137   6.315   3.802  0.0489 -2.5536  0.4028
 2755TIP3    H2 8230   7.074   6.422   3.888  2.0293 -0.8139 -0.2360
 2756TIP3   OH2 8231   0.180   2.905   4.109 -0.4232  0.2295 -0.4895
 2756TIP3    H1 8232   0.212   2.923   4.197  0.7255 -1.5779 -0.4834
 2756TIP3    H2 8233   0.085   2.919   4.115 -0.1414  1.9482  0.5125
 2757TIP3   OH2 8234   4.262   6.280   3.185  0.2876  0.2128  0.1155
 2757TIP3    H1 8235   4.257   6.343   3.257  0.2507 -0.5466  0.7885
 2757TIP3    H2 8236   4.178   6.287   3.141 -0.3209 -0.4819  1.1442
 2758TIP3   OH2 8237   2.346   6.348   2.599  0.3156  0.1837 -0.0014
 2758TIP3    H1 8238   2.372   6.260   2.570  0.1931  0.1670 -0.0630
 2758TIP3    H2 8239   2.250   6.345   2.599  0.3035  0.5457 -0.6922
 2759TIP3   OH2 8240   4.629   6.256   3.595 -0.3595  0.2296 -0.5695
 2759TIP3    H1 8241   4.702   6.313   3.621 -0.9611  1.2717 -1.0831
 2759TIP3    H2 8242   4.669   6.191   3.538  0.5738 -0.7017  1.0522
 2760TIP3   OH2 8243   0.477   3.867   5.393  0.0885 -0.5402  0.2849
 2760TIP3    H1 8244   0.504   3.890   5.482  1.4102  0.2064 -0.2726
 2760TIP3    H2 8245   0.523   3.786   5.374 -1.2893 -1.4731  0.7457
 2761TIP3   OH2 8246   2.720   2.012   2.803  0.0362  0.0799 -0.0122
 2761TIP3    H1 8247   2.766   2.095   2.818 -0.6452  0.2000  1.6367
 2761TIP3    H2 8248   2.757   1.979   2.721  0.8011  1.6814 -0.3618
 2762TIP3   OH2 8249   0.244   3.813   0.648 -0.3605 -0.2220 -0.1664
 2762TIP3    H1 8250   0.328   3.854   0.671 -0.9849  1.0734 -0.1125
 2762TIP3    H2 8251   0.252   3.791   0.555  0.6545 -1.7097  0.2311
 2763TIP3   OH2 8252   7.189   3.934   4.583  0.2198 -0.0434  0.1598
 2763TIP3    H1 8253   7.254   3.911   4.649 -1.3319 -0.7189  1.5367
 2763TIP3    H2 8254   7.105   3.922   4.627 -0.8731  0.1205 -1.7526
 2764TIP3   OH2 8255   0.552   5.215   4.139 -0.3471 -0.0746 -0.1862
 2764TIP3    H1 8256   0.588   5.299   4.111 -0.6076  0.1827  0.2485
 2764TIP3    H2 8257   0.460   5.233   4.155 -0.3084 -0.3418  0.3330
 2765TIP3   OH2 8258   2.906   6.272   1.246  0.3657 -0.0983  0.1949
 2765TIP3    H1 8259   2.825   6.231   1.217  1.9656 -2.9591 -0.5946
 2765TIP3    H2 8260   2.935   6.324   1.171 -1.9919  3.3353  1.4100
 2766TIP3   OH2 8261   5.692   5.365   3.010  0.2631 -0.5387  0.2871
 2766TIP3    H1 8262   5.629   5.293   3.010  0.7632 -0.9993 -0.9815
 2766TIP3    H2 8263   5.639   5.444   3.001 -0.2004 -0.8345  0.3916
 2767TIP3   OH2 8264   4.260   4.753   0.840 -0.6421 -0.0095  0.7046
 2767TIP3    H1 8265   4.323   4.685   0.817 -1.8302 -1.4942  1.6165
 2767TIP3    H2 8266   4.188   4.742   0.779 -0.3304  1.2766  0.0630
 2768TIP3   OH2 8267   3.679   0.479   5.422 -0.3440  0.2776  0.3419
 2768TIP3    H1 8268   3.758   0.517   5.460 -0.4887 -1.2488  2.3692
 2768TIP3    H2 8269   3.661   0.532   5.345  2.2068  1.1399  0.2462
 2769TIP3   OH2 8270   3.980   5.643   4.648 -0.0957  0.3403  0.2208
 2769TIP3    H1 8271   4.033   5.564   4.659  0.2579  0.6061  0.4512
 2769TIP3    H2 8272   3.973   5.653   4.553  0.9721  0.7620  0.1766
 2770TIP3   OH2 8273   3.384   2.066   3.723 -0.9353  0.2587 -0.2337
 2770TIP3    H1 8274   3.387   1.972   3.742 -0.9606  0.1453 -0.7602
 2770TIP3    H2 8275   3.380   2.070   3.627  0.9740  0.8256 -0.3402
 2771TIP3   OH2 8276   6.527   3.221   5.174 -0.5258 -0.5394  0.0729
 2771TIP3    H1 8277   6.590   3.148   5.173  0.0936 -0.0350  1.0319
 2771TIP3    H2 8278   6.462   3.195   5.238 -0.9000 -0.7182 -0.3703
 2772TIP3   OH2 8279   0.742   3.640   3.685 -0.1961  0.1303  0.2151
 2772TIP3    H1 8280   0.741   3.552   3.723 -1.3111  0.0983  0.1636
 2772TIP3    H2 8281   0.678   3.635   3.614  1.6580  0.2520 -1.5544
 2773TIP3   OH2 8282   0.709   5.436   4.494 -0.0525 -0.2541 -0.2660
 2773TIP3    H1 8283   0.632   5.381   4.496 -0.3147  0.1324  0.7978
 2773TIP3    H2 8284   0.685   5.514   4.544  0.7297  0.2606 -0.6604
 2774TIP3   OH2 8285   0.964   0.019   4.395  0.2488  0.2368 -0.3063
 2774TIP3    H1 8286   1.011   0.047   4.316  0.3759 -0.8023 -0.6187
 2774TIP3    H2 8287   0.961   0.097   4.451  1.2455  0.6581 -0.8198
 2775TIP3   OH2 8288   3.324   2.255   2.240 -0.5900  0.6666 -0.1791
 2775TIP3    H1 8289   3.401   2.225   2.191 -1.7480  0.3966 -1.8863
 2775TIP3    H2 8290   3.309   2.344   2.210 -0.9445  0.7244  0.1676
 2776TIP3   OH2 8291   4.504   4.470   2.524 -0.1451  0.6585 -0.0968
 2776TIP3    H1 8292   4.537   4.496   2.438  3.1153 -1.9174  0.2150
 2776TIP3    H2 8293   4.538   4.537   2.584  1.4557  0.0316 -0.2749
 2777TIP3   OH2 8294   5.420   1.945   5.082  0.0548  0.0278  0.5673
 2777TIP3    H1 8295   5.428   1.859   5.042 -0.1254  0.8464 -1.2973
 2777TIP3    H2 8296   5.337   1.942   5.130  0.7476 -1.2865  1.7677
 2778TIP3   OH2 8297   4.011   5.316   3.379 -0.0852  0.5632  0.3709
 2778TIP3    H1 8298   4.053   5.355   3.302 -1.1952  0.5732 -0.2593
 2778TIP3    H2 8299   4.043   5.368   3.453  1.6934 -0.0038  0.0401
 2779TIP3   OH2 8300   3.628   3.115   5.671  0.3542 -0.5018  0.1610
 2779TIP3    H1 8301   3.655   3.120   5.763  0.6171  0.4116  0.0434
 2779TIP3    H2 8302   3.566   3.187   5.661 -2.5657 -2.7651  0.5245
 2780TIP3   OH2 8303   4.982   6.620   1.950 -0.1791  0.3690 -0.4329
 2780TIP3    H1 8304   5.067   6.655   1.975  0.3647 -1.1513 -0.0525
 2780TIP3    H2 8305   4.937   6.605   2.033 -0.0313 -0.6924 -0.5350
 2781TIP3   OH2 8306   4.712   0.834   5.319 -0.1702 -0.4607  0.1197
 2781TIP3    H1 8307   4.764   0.753   5.312 -0.4746 -0.9408  2.6324
 2781TIP3    H2 8308   4.774   0.904   5.298  0.2481 -1.2635 -1.5069
 2782TIP3   OH2 8309   4.447   5.479   5.236  0.1448  0.5594  0.0544
 2782TIP3    H1 8310   4.436   5.426   5.315 -1.9895 -0.7377 -1.0101
 2782TIP3    H2 8311   4.445   5.570   5.267 -2.7620  0.1480  1.3762
 2783TIP3   OH2 8312   5.805   4.331   3.251 -0.6909 -0.8148  0.3433
 2783TIP3    H1 8313   5.782   4.424   3.255 -0.6765 -0.8279  0.8292
 2783TIP3    H2 8314   5.755   4.291   3.322 -1.0556 -1.2586 -0.1571
 2784TIP3   OH2 8315   4.312   1.336   3.810 -0.6658  0.0492  0.5863
 2784TIP3    H1 8316   4.374   1.364   3.743  0.2526  0.1824  1.4706
 2784TIP3    H2 8317   4.226   1.340   3.767 -0.2136  1.1844 -0.2370
 2785TIP3   OH2 8318   0.215   5.947   1.089  0.2549  0.2747  0.0979
 2785TIP3    H1 8319   0.285   5.988   1.038  0.9122 -2.3183 -1.2736
 2785TIP3    H2 8320   0.249   5.945   1.179  1.8198 -0.5789 -0.4698
 2786TIP3   OH2 8321   2.342   5.503   5.888 -0.0014 -0.4293 -0.4484
 2786TIP3    H1 8322   2.425   5.535   5.854  0.5863 -1.2037  0.2217
 2786TIP3    H2 8323   2.360   5.412   5.912 -1.0872 -0.6521 -0.4425
 2787TIP3   OH2 8324   5.484   2.884   4.598  0.1547 -0.2108  0.0057
 2787TIP3    H1 8325   5.462   2.902   4.690 -0.7918 -2.4499  0.2860
 2787TIP3    H2 8326   5.571   2.922   4.587 -0.0533  0.8467  1.5835
 2788TIP3   OH2 8327   0.601   5.835   5.295 -0.0672  0.7285  0.2950
 2788TIP3    H1 8328   0.527   5.889   5.322  0.0442  1.2969 -0.4924
 2788TIP3    H2 8329   0.678   5.884   5.323  0.0264 -0.2115  1.7734
 2789TIP3   OH2 8330   6.856   3.805   2.077 -0.3450 -0.1710 -0.1633
 2789TIP3    H1 8331   6.818   3.742   2.016 -0.3240 -0.3491  0.0038
 2789TIP3    H2 8332   6.782   3.860   2.104 -0.2388  0.2939 -0.8066
 2790TIP3   OH2 8333   7.100   0.125   0.820 -0.3008  0.1907  0.4258
 2790TIP3    H1 8334   7.170   0.077   0.865 -0.5644 -0.7516 -0.1244
 2790TIP3    H2 8335   7.024   0.115   0.877 -0.5492 -0.7230 -0.0331
 2791TIP3   OH2 8336   5.404   4.353   3.756 -0.1191  0.0020  0.1878
 2791TIP3    H1 8337   5.380   4.440   3.725  0.6915  0.4419  0.7708
 2791TIP3    H2 8338   5.497   4.345   3.736 -0.3538 -1.0414 -0.5595
 2792TIP3   OH2 8339   4.528   1.783   3.718 -0.1940 -0.3448 -0.2204
 2792TIP3    H1 8340   4.450   1.823   3.756 -1.1539 -0.4213 -2.0479
 2792TIP3    H2 8341   4.588   1.856   3.705 -0.9080  0.1125 -1.0472
 2793TIP3   OH2 8342   1.159   0.875   1.105  0.5235 -0.6917 -0.2210
 2793TIP3    H1 8343   1.239   0.928   1.100 -0.4070  0.8627  0.3226
 2793TIP3    H2 8344   1.189   0.785   1.116  2.1971 -0.0246  1.0360
 2794TIP3   OH2 8345   3.038   3.636   4.855 -0.0072 -0.0902 -0.1761
 2794TIP3    H1 8346   3.002   3.549   4.840 -0.9743  0.2150  0.2859
 2794TIP3    H2 8347   2.986   3.693   4.797 -1.1487  0.5335  1.3994
 2795TIP3   OH2 8348   2.078   0.275   2.276  0.1179  0.4157 -0.1453
 2795TIP3    H1 8349   2.114   0.276   2.364 -0.4273  0.1811  0.0841
 2795TIP3    H2 8350   2.142   0.227   2.224  0.1082 -0.0533  0.2681
 2796TIP3   OH2 8351   1.638   1.698   1.746 -0.7769 -0.0163 -0.3949
 2796TIP3    H1 8352   1.646   1.791   1.771  0.7891 -0.2185 -0.0804
 2796TIP3    H2 8353   1.608   1.655   1.826  2.6895 -0.4057  0.8684
 2797TIP3   OH2 8354   5.372   1.077   1.386 -0.1996  0.0200  0.5100
 2797TIP3    H1 8355   5.445   1.049   1.331  0.7192  0.0152  1.6900
 2797TIP3    H2 8356   5.411   1.091   1.473 -1.4472  0.7896  0.9787
 2798TIP3   OH2 8357   0.085   1.690   3.445  0.1949  0.6878  0.2970
 2798TIP3    H1 8358   0.053   1.615   3.495  2.0914 -3.3104 -3.7552
 2798TIP3    H2 8359   0.008   1.721   3.397 -0.1011 -0.5639 -0.0690
 2799TIP3   OH2 8360   1.622   4.435   0.827  0.2049 -0.5538  0.5204
 2799TIP3    H1 8361   1.550   4.496   0.841 -1.1125 -1.8384 -0.3439
 2799TIP3    H2 8362   1.601   4.360   0.881  1.7762 -0.3127  1.5288
 2800TIP3   OH2 8363   3.286   0.925   1.029 -0.0194  0.1422 -0.1753
 2800TIP3    H1 8364   3.273   0.894   1.119  0.0307 -1.4411 -0.6706
 2800TIP3    H2 8365   3.350   0.996   1.036  2.2337 -1.8485  0.7968
 2801TIP3   OH2 8366   1.102   2.924   3.533  0.4257  0.1413 -0.5059
 2801TIP3    H1 8367   1.193   2.945   3.512  0.1874 -0.7699 -2.7196
 2801TIP3    H2 8368   1.079   2.987   3.602  2.1101  1.7117 -1.2801
 2802TIP3   OH2 8369   3.087   1.616   2.803  0.0042  0.5868  0.0648
 2802TIP3    H1 8370   3.009   1.597   2.751 -0.8494  0.2978  1.4151
 2802TIP3    H2 8371   3.067   1.582   2.890  1.5617  0.6959  0.4931
 2803TIP3   OH2 8372   2.579   6.235   4.192  0.2187  0.1315 -0.4642
 2803TIP3    H1 8373   2.650   6.297   4.175  1.1431 -0.5682  0.7416
 2803TIP3    H2 8374   2.623   6.153   4.215 -0.9826 -0.8079 -1.3454
 2804TIP3   OH2 8375   4.103   4.476   4.590  0.1197  0.9145  0.3375
 2804TIP3    H1 8376   4.107   4.482   4.685  0.7142  1.4685  0.2817
 2804TIP3    H2 8377   4.009   4.478   4.570 -0.0010  0.9288  0.9019
 2805TIP3   OH2 8378   4.634   4.393   1.005  0.0280  0.0237  0.2556
 2805TIP3    H1 8379   4.719   4.378   0.963 -0.5375  1.6471 -1.6231
 2805TIP3    H2 8380   4.571   4.351   0.947 -0.4502 -2.3609  2.3250
 2806TIP3   OH2 8381   6.368   1.292   3.089 -0.1828  0.3555  0.0269
 2806TIP3    H1 8382   6.385   1.362   3.026 -3.4097 -0.5604 -2.1140
 2806TIP3    H2 8383   6.396   1.212   3.044 -0.5842 -0.1341  0.6224
 2807TIP3   OH2 8384   1.725   2.285   3.590 -0.3379 -0.0901  0.1537
 2807TIP3    H1 8385   1.773   2.367   3.606 -1.0179  0.6715 -1.4793
 2807TIP3    H2 8386   1.731   2.238   3.673  1.9611  0.6191  0.4795
 2808TIP3   OH2 8387   2.814   2.277   3.421 -0.2662 -0.4099  0.2125
 2808TIP3    H1 8388   2.868   2.216   3.472 -0.4900  0.9598  2.1976
 2808TIP3    H2 8389   2.738   2.225   3.394 -0.2318 -1.1523  1.4717
 2809TIP3   OH2 8390   6.728   6.028   0.863 -0.6205 -0.1027  0.0627
 2809TIP3    H1 8391   6.643   6.073   0.866  0.1546  1.3470  1.8626
 2809TIP3    H2 8392   6.746   6.005   0.954  0.8013 -0.6373 -0.3346
 2810TIP3   OH2 8393   3.142   6.698   3.230 -0.0660  0.7687  0.1373
 2810TIP3    H1 8394   3.145   6.606   3.257  0.2179  0.4803 -0.8082
 2810TIP3    H2 8395   3.049   6.720   3.227 -0.2400 -0.0238 -1.2708
 2811TIP3   OH2 8396   3.171   1.862   2.104 -0.3424  0.3618 -0.1304
 2811TIP3    H1 8397   3.224   1.889   2.179 -1.2104  0.7246  0.3764
 2811TIP3    H2 8398   3.118   1.939   2.083  1.1395  0.8775 -2.2839
 2812TIP3   OH2 8399   1.578   5.687   5.744 -0.4184 -0.2733 -0.0126
 2812TIP3    H1 8400   1.585   5.756   5.810 -0.7879 -0.4583  0.2244
 2812TIP3    H2 8401   1.607   5.607   5.789  0.9377 -0.1087 -0.5700
 2813TIP3   OH2 8402   0.133   4.518   1.360 -0.2164  0.1899  0.1931
 2813TIP3    H1 8403   0.148   4.584   1.292 -0.7734  0.4007  0.2638
 2813TIP3    H2 8404   0.042   4.533   1.387  0.3709  0.9183  1.8537
 2814TIP3   OH2 8405   6.003   3.585   4.663 -0.0228  0.6056 -0.0750
 2814TIP3    H1 8406   6.054   3.641   4.721  1.0376  2.1044 -2.2861
 2814TIP3    H2 8407   5.948   3.533   4.721  0.7091  2.2396  2.2120
 2815TIP3   OH2 8408   3.367   5.542   1.320 -0.5362  0.3974  0.0850
 2815TIP3    H1 8409   3.436   5.476   1.315  1.7160  2.4549  1.5966
 2815TIP3    H2 8410   3.311   5.513   1.392 -0.5882 -0.6883 -0.3722
 2816TIP3   OH2 8411   0.072   1.941   0.377  0.3991 -0.0156 -0.3299
 2816TIP3    H1 8412   0.110   1.866   0.423  1.2908  1.7162  1.9844
 2816TIP3    H2 8413  -0.018   1.945   0.409 -0.3591 -1.2845 -2.1254
 2817TIP3   OH2 8414   3.142   0.090   3.808  0.0246  0.0303  0.5679
 2817TIP3    H1 8415   3.052   0.115   3.788  0.1746  1.1667  1.2252
 2817TIP3    H2 8416   3.194   0.135   3.742  0.1842  0.1758  0.7922
 2818TIP3   OH2 8417   0.130   3.667   3.841 -0.0710 -0.0551  0.2344
 2818TIP3    H1 8418   0.116   3.591   3.897 -1.3004  1.3884  2.0431
 2818TIP3    H2 8419   0.197   3.718   3.886 -0.3910  0.6738 -0.0896
 2819TIP3   OH2 8420   3.403   2.938   1.708 -0.6854  0.0041  0.0976
 2819TIP3    H1 8421   3.422   2.945   1.802 -1.1151 -2.0033  0.3880
 2819TIP3    H2 8422   3.358   3.020   1.686 -1.7258 -0.0014  1.9584
 2820TIP3   OH2 8423   5.948   4.755   3.344  0.2076 -0.4261 -0.0399
 2820TIP3    H1 8424   5.988   4.701   3.277 -1.2069 -1.0453 -0.4302
 2820TIP3    H2 8425   5.988   4.726   3.426  1.1060 -0.4698 -0.4926
 2821TIP3   OH2 8426   0.291   0.742   1.163 -0.1682 -0.4448 -0.3730
 2821TIP3    H1 8427   0.276   0.837   1.167 -0.1645 -0.4601  0.2048
 2821TIP3    H2 8428   0.312   0.724   1.072  0.4724  0.2124 -0.3673
 2822TIP3   OH2 8429   2.117   5.683   2.357 -0.1768  0.3172 -0.2618
 2822TIP3    H1 8430   2.156   5.769   2.344  0.1520  0.2848  0.4466
 2822TIP3    H2 8431   2.029   5.701   2.391 -0.5992  0.3839 -1.3739
 2823TIP3   OH2 8432   4.601   3.735   0.770 -0.4300 -0.0875 -0.3121
 2823TIP3    H1 8433   4.661   3.665   0.745 -0.7282 -0.2761 -0.4955
 2823TIP3    H2 8434   4.623   3.755   0.861 -0.4378 -0.5077 -0.2199
 2824TIP3   OH2 8435   1.608   0.880   5.423  0.0688  0.0138 -0.0778
 2824TIP3    H1 8436   1.539   0.825   5.385 -1.2159  1.3481  0.2250
 2824TIP3    H2 8437   1.677   0.882   5.356 -0.7483 -0.3061 -0.9465
 2825TIP3   OH2 8438   3.096   0.361   2.490 -0.1965  0.0870  0.0524
 2825TIP3    H1 8439   3.186   0.390   2.472 -0.0123 -0.1548  0.5622
 2825TIP3    H2 8440   3.042   0.437   2.469  0.1489  0.3123 -0.0398
 2826TIP3   OH2 8441   4.802   2.270   1.470  0.1875  0.2846 -0.2807
 2826TIP3    H1 8442   4.890   2.289   1.500 -0.1960 -2.0749  2.7572
 2826TIP3    H2 8443   4.813   2.202   1.404  0.6607  0.4480 -0.3733
 2827TIP3   OH2 8444   4.333   2.453   3.691  0.1017  0.3680 -0.1818
 2827TIP3    H1 8445   4.300   2.377   3.642  2.2207 -0.1890 -0.8259
 2827TIP3    H2 8446   4.298   2.528   3.643 -1.6387 -0.1592  0.1893
 2828TIP3   OH2 8447   2.704   2.084   5.704  0.6587 -0.1027 -0.3519
 2828TIP3    H1 8448   2.770   2.116   5.766 -0.7713 -0.1415  1.2823
 2828TIP3    H2 8449   2.754   2.054   5.628  2.3643  1.7822 -0.0550
 2829TIP3   OH2 8450   4.312   5.779   2.305  0.1856  0.2349  0.2971
 2829TIP3    H1 8451   4.236   5.759   2.249 -1.0553 -1.6893  2.4811
 2829TIP3    H2 8452   4.377   5.714   2.281  0.7225  1.1308 -0.7452
 2830TIP3   OH2 8453   2.542   3.316   4.166 -0.2669  0.2023  0.4430
 2830TIP3    H1 8454   2.570   3.294   4.077 -0.6548 -0.5284  0.4951
 2830TIP3    H2 8455   2.623   3.341   4.210 -0.2750  2.2595 -0.5619
 2831TIP3   OH2 8456   4.551   3.832   4.583  0.1752 -0.4022  0.1803
 2831TIP3    H1 8457   4.552   3.759   4.522 -1.6198 -0.2361 -0.0919
 2831TIP3    H2 8458   4.514   3.905   4.534  0.3603  0.2339  0.9531
 2832TIP3   OH2 8459   6.033   2.324   5.717  0.2541  0.5251  0.2223
 2832TIP3    H1 8460   6.060   2.399   5.770 -1.5969 -0.1434  2.2588
 2832TIP3    H2 8461   5.961   2.357   5.663  1.0512  0.7786 -0.7274
 2833TIP3   OH2 8462   3.128   6.153   2.017 -0.2768 -0.1705  0.1088
 2833TIP3    H1 8463   3.051   6.182   2.067 -0.7416  0.2374 -0.8059
 2833TIP3    H2 8464   3.145   6.226   1.956 -0.5897 -1.2128 -1.2766
 2834TIP3   OH2 8465   2.972   6.078   4.339 -0.1828  0.0246  0.0329
 2834TIP3    H1 8466   2.963   6.070   4.244  2.9528 -1.1162 -0.2855
 2834TIP3    H2 8467   3.053   6.128   4.352 -0.7167  0.4414  2.1101
 2835TIP3   OH2 8468   0.861   5.653   4.588  0.6977  0.1375 -0.4995
 2835TIP3    H1 8469   0.854   5.576   4.531 -0.1605 -0.4165  0.3173
 2835TIP3    H2 8470   0.884   5.618   4.674 -3.2720  0.2597  0.8517
 2836TIP3   OH2 8471   0.463   1.681   3.598 -0.8488  0.4620  0.0915
 2836TIP3    H1 8472   0.433   1.627   3.526  3.6173 -0.4613 -1.3702
 2836TIP3    H2 8473   0.511   1.622   3.656 -0.6472  1.9327  1.5392
 2837TIP3   OH2 8474   1.173   1.132   4.633  0.2249  0.5489  0.1157
 2837TIP3    H1 8475   1.168   1.190   4.709 -2.2348  1.3733 -0.5970
 2837TIP3    H2 8476   1.226   1.058   4.663 -0.5671  0.9031  2.6098
 2838TIP3   OH2 8477   4.555   5.758   4.351  1.2433 -0.4449  0.0481
 2838TIP3    H1 8478   4.535   5.826   4.288  2.0225  0.3114  0.5967
 2838TIP3    H2 8479   4.473   5.746   4.400  0.5892 -1.1497 -1.1698
 2839TIP3   OH2 8480   3.687   6.818   1.751 -0.2949 -0.8190  0.9108
 2839TIP3    H1 8481   3.594   6.797   1.765 -0.4590 -0.2457  0.6887
 2839TIP3    H2 8482   3.726   6.735   1.726 -0.8229 -0.9916  0.6347
 2840TIP3   OH2 8483   1.085   1.053   2.862 -0.0064  0.4666 -0.2822
 2840TIP3    H1 8484   1.170   1.009   2.867 -0.0231  0.4514 -0.1413
 2840TIP3    H2 8485   1.088   1.101   2.779 -0.0085  0.1629 -0.4600
 2841TIP3   OH2 8486   5.720   5.783   1.332 -0.6658 -0.2820  0.0063
 2841TIP3    H1 8487   5.779   5.737   1.274  1.3940 -0.3383  2.0015
 2841TIP3    H2 8488   5.670   5.841   1.275  1.4865 -0.0622 -1.7679
 2842TIP3   OH2 8489   2.833   3.626   0.583 -0.2176 -0.3564  0.2009
 2842TIP3    H1 8490   2.807   3.714   0.611 -0.7948 -0.3935 -0.2107
 2842TIP3    H2 8491   2.760   3.570   0.609  0.2375 -0.7578  0.6510
 2843TIP3   OH2 8492   0.451   5.327   4.518 -0.4793  0.4692  0.1051
 2843TIP3    H1 8493   0.395   5.339   4.441 -0.2915  0.9456  0.0394
 2843TIP3    H2 8494   0.400   5.364   4.591  0.0579  1.6080 -0.0806
 2844TIP3   OH2 8495   0.558   0.355   3.280  0.5077 -0.2632 -0.0255
 2844TIP3    H1 8496   0.491   0.412   3.242  1.1703 -1.2003 -2.8329
 2844TIP3    H2 8497   0.583   0.398   3.361 -1.0364  1.9073 -0.6078
 2845TIP3   OH2 8498   5.684   6.071   4.524 -0.2332 -0.3731 -0.1887
 2845TIP3    H1 8499   5.744   5.997   4.522  1.7025  1.1262 -1.3014
 2845TIP3    H2 8500   5.606   6.038   4.569  1.7897 -2.1360  2.2925
 2846TIP3   OH2 8501   0.358   3.871   2.633  0.0576 -0.6665  0.5896
 2846TIP3    H1 8502   0.320   3.957   2.654 -3.0479 -1.3776 -1.3618
 2846TIP3    H2 8503   0.283   3.811   2.634  0.6876 -2.0431 -4.6649
 2847TIP3   OH2 8504   2.499   2.275   4.464 -0.5393 -0.5035  0.0774
 2847TIP3    H1 8505   2.510   2.358   4.418 -1.2540 -0.5784 -0.2506
 2847TIP3    H2 8506   2.562   2.278   4.536  1.6569 -1.0113 -1.7364
 2848TIP3   OH2 8507   1.870   0.346   3.837 -0.4121 -0.0723  0.0134
 2848TIP3    H1 8508   1.861   0.368   3.744  0.6347  0.6312  0.0646
 2848TIP3    H2 8509   1.782   0.361   3.873 -0.7032  0.1420 -0.7593
 2849TIP3   OH2 8510   3.206   5.474   1.886  0.2397  0.2399 -0.3198
 2849TIP3    H1 8511   3.197   5.541   1.818  0.6483  1.9403  1.1986
 2849TIP3    H2 8512   3.123   5.477   1.934 -0.4975 -1.7508 -1.3707
 2850TIP3   OH2 8513   1.399   0.081   5.594  0.1405 -0.1167  0.4426
 2850TIP3    H1 8514   1.475   0.131   5.562  0.1386 -1.3542 -1.7267
 2850TIP3    H2 8515   1.434  -0.006   5.609 -0.5592 -0.3305  0.8252
 2851TIP3   OH2 8516   2.298   4.081   0.257 -0.2273 -0.3479 -0.0150
 2851TIP3    H1 8517   2.353   4.044   0.326  0.6460  0.9387  0.0045
 2851TIP3    H2 8518   2.209   4.054   0.279  0.1094 -0.4077  1.3051
 2852TIP3   OH2 8519   2.009   2.053   0.096 -0.7801  0.1130 -0.3414
 2852TIP3    H1 8520   2.014   2.140   0.137 -0.6116  0.4016 -0.9518
 2852TIP3    H2 8521   2.095   2.042   0.054 -0.9364 -0.1850 -0.5810
 2853TIP3   OH2 8522   5.988   2.924   3.911  0.1683 -0.4681 -0.1455
 2853TIP3    H1 8523   6.064   2.956   3.861  1.4618 -0.6471  1.5802
 2853TIP3    H2 8524   5.937   3.003   3.930  2.3651  0.5186  2.4862
 2854TIP3   OH2 8525   2.164   4.121   0.574  0.2648  0.5945 -0.0378
 2854TIP3    H1 8526   2.216   4.162   0.505  1.7674  0.8747  1.2044
 2854TIP3    H2 8527   2.120   4.193   0.617  1.1092  0.6888  0.6982
 2855TIP3   OH2 8528   7.140   0.293   5.316  0.3015 -0.0193  0.6406
 2855TIP3    H1 8529   7.156   0.335   5.400  0.1869  1.2632  0.0483
 2855TIP3    H2 8530   7.211   0.324   5.259 -0.0209 -0.3107  0.0629
 2856TIP3   OH2 8531   1.847   4.777   2.473  0.3786  0.4580  0.0916
 2856TIP3    H1 8532   1.765   4.741   2.438  0.0361 -0.2405  1.5343
 2856TIP3    H2 8533   1.898   4.700   2.499  0.4121  0.9291  1.5254
 2857TIP3   OH2 8534   5.718   3.539   2.268 -0.3345  0.3131 -0.7533
 2857TIP3    H1 8535   5.683   3.458   2.230 -0.3123  0.3324 -0.8154
 2857TIP3    H2 8536   5.775   3.509   2.339 -1.6030  0.3332  0.3011
 2858TIP3   OH2 8537   6.694   3.310   2.123 -0.3466 -0.2043 -0.1733
 2858TIP3    H1 8538   6.783   3.340   2.141 -0.0083 -1.3153  0.0972
 2858TIP3    H2 8539   6.640   3.358   2.186  0.3764 -1.2658  1.3224
 2859TIP3   OH2 8540   5.890   0.638   0.672 -0.0155  0.3001 -0.5274
 2859TIP3    H1 8541   5.865   0.724   0.705 -0.9580  0.5189 -1.7211
 2859TIP3    H2 8542   5.950   0.603   0.738 -0.9011  1.1740  0.7957
 2860TIP3   OH2 8543   2.089   5.749   5.175 -0.6293 -0.1481 -0.6125
 2860TIP3    H1 8544   2.117   5.680   5.114  0.7710  1.3614 -1.7739
 2860TIP3    H2 8545   2.170   5.796   5.196 -0.9316 -0.9721  2.9696
 2861TIP3   OH2 8546   0.186   6.746   3.276 -0.3382  0.5100 -0.1111
 2861TIP3    H1 8547   0.179   6.840   3.290  1.1783  0.7678 -0.9299
 2861TIP3    H2 8548   0.163   6.733   3.184 -0.4108  0.0791 -0.0373
 2862TIP3   OH2 8549   3.437   5.130   2.324 -0.5689  0.6416 -0.1654
 2862TIP3    H1 8550   3.444   5.196   2.393 -4.3674  1.1460 -0.0271
 2862TIP3    H2 8551   3.519   5.081   2.329  2.2419  4.9151  0.0523
 2863TIP3   OH2 8552   5.196   4.939   5.281 -0.5586 -0.3014  0.5600
 2863TIP3    H1 8553   5.110   4.927   5.321 -1.4508 -2.8937 -1.8191
 2863TIP3    H2 8554   5.179   4.989   5.201 -0.0576 -1.5723 -0.3806
 2864TIP3   OH2 8555   0.221   4.201   4.409 -0.6362  0.2486 -0.0829
 2864TIP3    H1 8556   0.261   4.283   4.438 -3.6354  1.2310  1.7836
 2864TIP3    H2 8557   0.147   4.229   4.354 -1.6012 -1.1892  0.4182
 2865TIP3   OH2 8558   4.773   2.486   0.803 -0.2482 -0.0889 -0.2746
 2865TIP3    H1 8559   4.689   2.521   0.833  0.1074  0.1837  0.4188
 2865TIP3    H2 8560   4.792   2.414   0.863 -0.5668 -0.9436 -1.1788
 2866TIP3   OH2 8561   0.126   3.698   4.414  0.4178 -0.1332  0.6660
 2866TIP3    H1 8562   0.216   3.672   4.396 -0.2261 -1.9205 -0.2036
 2866TIP3    H2 8563   0.087   3.712   4.328 -0.0581  0.9638  1.0460
 2867TIP3   OH2 8564   5.631   3.857   0.211 -0.0296 -0.4590  0.1606
 2867TIP3    H1 8565   5.725   3.853   0.229 -0.2770 -0.3171  1.6516
 2867TIP3    H2 8566   5.602   3.936   0.256 -0.8683 -0.4877 -0.3184
 2868TIP3   OH2 8567   3.758   5.029   5.010  0.2464 -0.1857  0.1204
 2868TIP3    H1 8568   3.704   5.000   5.084  1.6488 -0.3740  1.1002
 2868TIP3    H2 8569   3.830   5.077   5.050 -0.4568  2.2339 -1.3096
 2869TIP3   OH2 8570   3.419   0.452   2.902 -0.2555  0.2692 -0.5092
 2869TIP3    H1 8571   3.375   0.458   2.987 -0.3203 -0.8287 -0.4430
 2869TIP3    H2 8572   3.363   0.502   2.842 -1.3068 -0.6023 -0.3010
 2870TIP3   OH2 8573   2.388   2.483   3.775 -0.2670  0.3297 -0.3246
 2870TIP3    H1 8574   2.386   2.414   3.841 -3.1616  0.9617  0.3665
 2870TIP3    H2 8575   2.348   2.558   3.817 -1.3199  1.0540 -2.4688
 2871TIP3   OH2 8576   2.747   6.592   4.630  0.1591 -0.1750 -0.0219
 2871TIP3    H1 8577   2.659   6.596   4.593  0.4953 -1.0382 -0.9447
 2871TIP3    H2 8578   2.749   6.664   4.693 -1.0354  0.1778 -0.3547
 2872TIP3   OH2 8579   2.381   1.485   3.003  0.1392  0.2173 -0.1023
 2872TIP3    H1 8580   2.460   1.450   2.961 -0.8853 -1.9383 -0.3683
 2872TIP3    H2 8581   2.371   1.431   3.082 -1.3952  0.0226 -0.4081
 2873TIP3   OH2 8582   1.866   4.289   5.859  0.3595  0.4675  0.8428
 2873TIP3    H1 8583   1.913   4.264   5.780 -0.7100 -1.1134  0.6661
 2873TIP3    H2 8584   1.909   4.370   5.888 -0.0338  1.8070 -2.0319
 2874TIP3   OH2 8585   6.890   2.393   1.095 -0.2197 -0.1993 -0.9910
 2874TIP3    H1 8586   6.935   2.455   1.039  0.5895 -0.1615 -0.3159
 2874TIP3    H2 8587   6.920   2.307   1.065  1.7912 -0.1362  0.6180
 2875TIP3   OH2 8588   1.311   3.022   0.150 -0.0431 -0.1232  0.0965
 2875TIP3    H1 8589   1.296   3.032   0.056 -1.4468 -1.5185  0.1326
 2875TIP3    H2 8590   1.389   3.074   0.167 -0.8352  1.7271 -1.4814
 2876TIP3   OH2 8591   2.158   3.049   0.774  0.1365 -0.2437  0.0935
 2876TIP3    H1 8592   2.197   3.126   0.816  0.2117 -0.9456  1.3237
 2876TIP3    H2 8593   2.199   3.047   0.687 -0.0000  1.1956 -0.0338
 2877TIP3   OH2 8594   3.884   1.213   1.510 -0.4774  0.4893  0.0674
 2877TIP3    H1 8595   3.965   1.233   1.556  0.1672 -0.3052 -0.6914
 2877TIP3    H2 8596   3.822   1.280   1.539  0.2638  0.7227  1.1361
 2878TIP3   OH2 8597   2.357   1.554   2.232  0.2516 -1.0962 -0.2182
 2878TIP3    H1 8598   2.426   1.491   2.251  0.9667  0.0893  1.2706
 2878TIP3    H2 8599   2.277   1.501   2.225  0.8947 -2.1991  0.5870
 2879TIP3   OH2 8600   6.361   5.319   1.602  0.0828 -0.5718 -0.3846
 2879TIP3    H1 8601   6.371   5.337   1.696  2.3445  2.3749 -1.0700
 2879TIP3    H2 8602   6.268   5.299   1.592 -0.1741 -1.3417  2.4918
 2880TIP3   OH2 8603   5.986   2.838   3.483 -0.6235 -0.0814  0.5413
 2880TIP3    H1 8604   5.940   2.763   3.444 -2.0865  0.8815  0.3486
 2880TIP3    H2 8605   6.040   2.799   3.552 -0.2080 -1.4793 -0.5315
 2881TIP3   OH2 8606   3.641   4.474   5.171 -0.5515 -0.1892 -0.1946
 2881TIP3    H1 8607   3.678   4.550   5.125 -1.8027  0.2112 -0.5837
 2881TIP3    H2 8608   3.573   4.511   5.227 -2.2797 -1.1284 -1.5511
 2882TIP3   OH2 8609   4.159   2.092   4.586 -0.3046 -0.0387 -0.3615
 2882TIP3    H1 8610   4.208   2.015   4.617  1.2733  0.9407 -0.3032
 2882TIP3    H2 8611   4.157   2.150   4.661 -1.4292  0.0302 -0.4305
 2883TIP3   OH2 8612   6.852   3.530   0.730 -0.0395 -0.2374 -0.0029
 2883TIP3    H1 8613   6.881   3.447   0.769  0.8547 -0.7787 -1.7057
 2883TIP3    H2 8614   6.846   3.591   0.803  2.5124 -0.9258  0.8590
 2884TIP3   OH2 8615   3.821   5.894   2.286 -0.1024  0.0977 -0.2206
 2884TIP3    H1 8616   3.834   5.809   2.246 -0.9727 -0.3438  0.3992
 2884TIP3    H2 8617   3.750   5.881   2.349  0.5992  0.9786  0.8022
 2885TIP3   OH2 8618   3.591   5.919   5.680 -0.4663 -0.3329 -0.2602
 2885TIP3    H1 8619   3.568   5.832   5.713  1.2959 -0.2816  1.2846
 2885TIP3    H2 8620   3.555   5.979   5.746  2.3613 -0.1867  1.3159
 2886TIP3   OH2 8621   4.666   1.765   1.030  0.2397 -0.0881 -0.3477
 2886TIP3    H1 8622   4.751   1.781   0.991  0.5835 -1.1707 -0.0923
 2886TIP3    H2 8623   4.678   1.685   1.082 -0.8441 -0.0857 -0.0574
 2887TIP3   OH2 8624   1.190   0.488   3.227  0.3554 -0.4260  0.2286
 2887TIP3    H1 8625   1.285   0.498   3.216  0.3073  0.9948  0.8884
 2887TIP3    H2 8626   1.179   0.469   3.320  0.0104 -1.2762  0.0316
 2888TIP3   OH2 8627   2.331   5.666   2.572  0.9110 -0.1066 -0.0887
 2888TIP3    H1 8628   2.346   5.573   2.589 -0.5084 -0.1442  1.1342
 2888TIP3    H2 8629   2.262   5.668   2.505 -0.0612  0.0341  0.8877
 2889TIP3   OH2 8630   3.552   0.626   1.526  0.3194 -0.3536  0.7393
 2889TIP3    H1 8631   3.570   0.537   1.495  1.8094  0.3462 -0.5746
 2889TIP3    H2 8632   3.533   0.616   1.619  1.2854 -1.9755  0.8042
 2890TIP3   OH2 8633   0.993   6.415   2.461 -0.1590  0.2712  0.4302
 2890TIP3    H1 8634   1.035   6.329   2.463 -0.3528  0.1838  0.9710
 2890TIP3    H2 8635   1.065   6.477   2.450  0.1352  0.1372  1.5137
 2891TIP3   OH2 8636   6.824   2.740   5.108  1.4255 -0.1021 -0.1564
 2891TIP3    H1 8637   6.909   2.723   5.066  0.2043 -2.2653 -1.9571
 2891TIP3    H2 8638   6.834   2.703   5.196  1.7472 -2.3538 -1.0608
 2892TIP3   OH2 8639   5.614   1.013   5.825  0.1220 -0.2835  0.1586
 2892TIP3    H1 8640   5.547   1.027   5.892  2.4760  1.2402  2.4000
 2892TIP3    H2 8641   5.647   0.925   5.842  0.4550 -0.0414  0.8285
 2893TIP3   OH2 8642   4.738   1.491   0.712 -0.5898  0.2359 -0.0401
 2893TIP3    H1 8643   4.780   1.530   0.788 -0.1548 -1.0188  0.3910
 2893TIP3    H2 8644   4.729   1.399   0.735 -2.7729  0.2966 -0.4956
 2894TIP3   OH2 8645   0.122   5.229   2.940  0.1581  0.2366 -0.3268
 2894TIP3    H1 8646   0.135   5.181   2.858  0.5488 -0.4176  0.1066
 2894TIP3    H2 8647   0.160   5.172   3.007 -1.5135  0.0590  0.5161
 2895TIP3   OH2 8648   1.269   6.261   2.512 -0.5405 -0.2468  0.0677
 2895TIP3    H1 8649   1.218   6.212   2.447 -1.4940 -0.8374  1.2240
 2895TIP3    H2 8650   1.314   6.193   2.563  1.8915  0.2653 -1.2423
 2896TIP3   OH2 8651   1.410   4.755   3.679  0.4455 -0.0224 -0.2327
 2896TIP3    H1 8652   1.324   4.769   3.717  0.7258  1.9710 -0.2526
 2896TIP3    H2 8653   1.444   4.678   3.725  0.2570  1.5158  2.6850
 2897TIP3   OH2 8654   4.084   2.898   5.775  0.2301  0.2078  1.0052
 2897TIP3    H1 8655   4.179   2.899   5.786  0.4608 -0.9721 -0.4446
 2897TIP3    H2 8656   4.068   2.829   5.710 -1.3333  2.4033 -1.1336
 2898TIP3   OH2 8657   4.413   2.001   5.807  0.0383  0.5755  0.0344
 2898TIP3    H1 8658   4.474   1.939   5.848 -0.1948  0.7800  0.6999
 2898TIP3    H2 8659   4.454   2.023   5.723 -0.1010 -0.8374 -0.4376
 2899TIP3   OH2 8660   1.681   4.237   3.331 -0.7327  0.1323 -0.4748
 2899TIP3    H1 8661   1.776   4.225   3.342 -0.9789 -0.3770  1.6666
 2899TIP3    H2 8662   1.645   4.220   3.419 -2.8683 -0.2798 -1.3684
 2900TIP3   OH2 8663   3.695   6.432   2.543  0.4904 -0.4941 -0.1909
 2900TIP3    H1 8664   3.640   6.355   2.531  1.0250 -1.1449  1.2672
 2900TIP3    H2 8665   3.699   6.444   2.638 -0.2825  1.8657 -0.3841
 2901TIP3   OH2 8666   6.493   0.996   0.842 -0.3186 -0.2024 -0.1668
 2901TIP3    H1 8667   6.496   1.091   0.831  3.7361 -0.3761 -2.5956
 2901TIP3    H2 8668   6.451   0.964   0.762  2.4814 -0.4463 -1.6756
 2902TIP3   OH2 8669   6.225   3.766   5.853  0.1239  0.4880  0.2051
 2902TIP3    H1 8670   6.140   3.750   5.814 -1.3843  0.8298  3.0767
 2902TIP3    H2 8671   6.282   3.790   5.780 -2.2693  0.4264 -1.7711
 2903TIP3   OH2 8672   5.961   0.316   1.025 -0.4596  0.9401  0.0745
 2903TIP3    H1 8673   6.012   0.311   1.106 -0.1258  1.3675 -0.1062
 2903TIP3    H2 8674   5.950   0.225   0.998  1.0139  0.8703 -0.3778
 2904TIP3   OH2 8675   4.227   0.574   1.054  0.2484  0.1923 -0.6662
 2904TIP3    H1 8676   4.323   0.582   1.058  0.1952  0.2703  1.1303
 2904TIP3    H2 8677   4.202   0.629   0.980  1.6067  0.0040 -1.3024
 2905TIP3   OH2 8678   3.769   5.338   4.859 -0.0092 -0.0336 -0.1577
 2905TIP3    H1 8679   3.766   5.380   4.773  1.5470 -0.2546 -0.3453
 2905TIP3    H2 8680   3.816   5.256   4.845 -0.5250 -0.5027  0.7445
 2906TIP3   OH2 8681   1.599   5.003   0.451 -0.3261  0.1147 -0.2395
 2906TIP3    H1 8682   1.619   4.919   0.492  0.8640  0.3347 -0.3182
 2906TIP3    H2 8683   1.518   4.988   0.402 -1.3466 -0.3672  1.5148
 2907TIP3   OH2 8684   3.182   4.955   3.661 -0.0456  0.1031 -0.7334
 2907TIP3    H1 8685   3.196   4.912   3.576  1.7524  0.9399 -0.9027
 2907TIP3    H2 8686   3.162   5.046   3.639 -0.8704  0.0409 -0.2810
 2908TIP3   OH2 8687   4.406   2.135   3.034  0.1694  0.2974  0.0479
 2908TIP3    H1 8688   4.474   2.160   3.097  0.1440 -0.6459  0.4696
 2908TIP3    H2 8689   4.335   2.102   3.088 -1.0589  2.1756 -0.3305
 2909TIP3   OH2 8690   4.669   1.116   5.409  0.0052  0.0509  0.5439
 2909TIP3    H1 8691   4.602   1.104   5.343  1.5933 -0.0358 -1.1323
 2909TIP3    H2 8692   4.711   1.030   5.417 -0.9164 -0.2752  2.5857
 2910TIP3   OH2 8693   2.048   5.080   5.408  0.2185  0.3937 -0.0145
 2910TIP3    H1 8694   2.106   5.125   5.347 -0.1782 -0.4752 -1.0649
 2910TIP3    H2 8695   2.050   4.988   5.380  1.0062 -0.2804  2.0543
 2911TIP3   OH2 8696   1.633   0.084   4.137  0.0035 -0.2449 -0.0990
 2911TIP3    H1 8697   1.547   0.125   4.128  0.2265  0.4033  0.6135
 2911TIP3    H2 8698   1.673   0.090   4.050 -0.3894  0.0790 -0.2567
 2912TIP3   OH2 8699   1.295   4.384   5.551  0.2169 -0.0357 -0.1795
 2912TIP3    H1 8700   1.319   4.359   5.640 -0.7145 -0.9664 -0.1833
 2912TIP3    H2 8701   1.202   4.405   5.555  0.3674  0.8303 -0.7528
 2913TIP3   OH2 8702   4.890   2.641   5.067 -0.6885 -0.0351 -0.2700
 2913TIP3    H1 8703   4.797   2.661   5.056 -0.4165  0.9664 -0.9216
 2913TIP3    H2 8704   4.925   2.715   5.116  0.0428  0.3694 -1.3543
 2914TIP3   OH2 8705   4.134   2.894   2.978  0.0452  0.0263 -0.0951
 2914TIP3    H1 8706   4.099   2.849   3.055 -0.8404 -0.0309 -0.5200
 2914TIP3    H2 8707   4.081   2.973   2.970 -0.4711 -0.4215 -1.1681
 2915TIP3   OH2 8708   0.981   0.918   1.549 -0.2640 -0.1394  0.1640
 2915TIP3    H1 8709   1.045   0.943   1.483 -0.3097  0.8857  0.4881
 2915TIP3    H2 8710   1.011   0.963   1.629 -1.1564  0.0367  0.4141
 2916TIP3   OH2 8711   2.266   4.264   5.487 -0.2382 -0.3897 -0.3226
 2916TIP3    H1 8712   2.267   4.359   5.469 -0.7679 -0.3602 -0.1994
 2916TIP3    H2 8713   2.350   4.233   5.452  0.2438  0.2322  0.2511
 2917TIP3   OH2 8714   1.159   0.511   1.544 -0.9193 -0.0567  0.1479
 2917TIP3    H1 8715   1.140   0.530   1.636 -0.6781  1.7741 -0.1411
 2917TIP3    H2 8716   1.110   0.431   1.525 -1.2635 -0.2641  1.7546
 2918TIP3   OH2 8717   3.842   5.476   5.078 -0.1274  0.3303 -0.1254
 2918TIP3    H1 8718   3.828   5.428   4.997  1.8668 -1.2780  0.3880
 2918TIP3    H2 8719   3.865   5.409   5.142  1.4139  1.8295  0.9944
 2919TIP3   OH2 8720   6.032   6.253   1.022 -0.6263  0.3391 -0.2923
 2919TIP3    H1 8721   6.082   6.199   0.960 -1.0549 -0.7565  0.2903
 2919TIP3    H2 8722   5.963   6.195   1.054  0.4100  0.3838  2.2762
 2920TIP3   OH2 8723   7.222   2.325   1.064 -0.0391 -0.1655 -0.2305
 2920TIP3    H1 8724   7.156   2.326   1.134 -0.3142 -0.4297 -0.4835
 2920TIP3    H2 8725   7.226   2.234   1.036 -0.2350  0.0135 -0.8484
 2921TIP3   OH2 8726   5.165   0.810   3.519  0.2493 -0.5177 -0.2487
 2921TIP3    H1 8727   5.117   0.832   3.599  0.9737 -2.1777  0.6762
 2921TIP3    H2 8728   5.110   0.745   3.476  0.8527 -1.1700 -0.0423
 2922TIP3   OH2 8729   1.182   4.247   2.619  0.0827 -0.0287  0.5848
 2922TIP3    H1 8730   1.114   4.202   2.668  1.6606 -0.4955  2.4847
 2922TIP3    H2 8731   1.136   4.291   2.548 -1.9334 -1.8683  0.6561
 2923TIP3   OH2 8732   3.662   5.851   0.127 -0.1736  0.5255 -0.5063
 2923TIP3    H1 8733   3.581   5.803   0.110 -0.2802  0.5126  0.0359
 2923TIP3    H2 8734   3.732   5.789   0.109 -0.3143  0.0659  0.4976
 2924TIP3   OH2 8735   2.462   3.609   2.640  0.3862 -0.1980 -0.2617
 2924TIP3    H1 8736   2.499   3.543   2.581  1.3561  0.5942 -0.5693
 2924TIP3    H2 8737   2.488   3.580   2.727 -0.0725 -0.7580 -0.2998
 2925TIP3   OH2 8738   6.659   4.897   5.623 -0.0689 -0.3240  0.1283
 2925TIP3    H1 8739   6.718   4.972   5.613  0.2363 -0.1536  2.5571
 2925TIP3    H2 8740   6.698   4.846   5.695 -0.0991 -3.0152 -1.6264
 2926TIP3   OH2 8741   0.590   0.713   2.269 -0.2094  0.4129  0.2967
 2926TIP3    H1 8742   0.538   0.706   2.350 -0.8589  0.1072 -0.1368
 2926TIP3    H2 8743   0.587   0.625   2.231  0.4752  0.4423  0.1613
 2927TIP3   OH2 8744   2.378   2.016   0.815  0.8370 -0.3062  0.5998
 2927TIP3    H1 8745   2.460   1.977   0.847  1.3527  0.3110  0.0357
 2927TIP3    H2 8746   2.345   1.952   0.752  1.0772 -0.3775  0.5429
 2928TIP3   OH2 8747   5.039   3.881   3.923 -0.0769 -0.2058  0.1707
 2928TIP3    H1 8748   4.990   3.921   3.852  0.9673 -0.1935 -0.5609
 2928TIP3    H2 8749   4.988   3.902   4.002 -0.1795  1.5485 -0.3214
 2929TIP3   OH2 8750   1.512   2.540   1.339  0.0080 -0.8705 -0.0270
 2929TIP3    H1 8751   1.554   2.472   1.391  2.3558  0.1674 -0.4523
 2929TIP3    H2 8752   1.495   2.498   1.254  0.1959 -1.3087  0.1475
 2930TIP3   OH2 8753   2.372   6.090   1.114  0.4376  0.1663 -0.2767
 2930TIP3    H1 8754   2.277   6.077   1.109  0.5195 -0.8201  0.3298
 2930TIP3    H2 8755   2.406   6.050   1.034  0.4482 -0.8047  0.1999
 2931TIP3   OH2 8756   5.681   6.469   4.085 -0.4007 -0.1780 -0.0675
 2931TIP3    H1 8757   5.699   6.513   4.168 -0.0153 -1.6627  0.6666
 2931TIP3    H2 8758   5.747   6.504   4.025 -0.6254  0.8397  0.2590
 2932TIP3   OH2 8759   3.712   1.594   2.741  0.0429 -0.0792  0.0695
 2932TIP3    H1 8760   3.801   1.565   2.722 -0.3562 -1.0411 -0.4254
 2932TIP3    H2 8761   3.667   1.590   2.657 -0.7503 -0.6880  0.5088
 2933TIP3   OH2 8762   2.565   5.220   3.729 -0.4121  0.2314 -0.3685
 2933TIP3    H1 8763   2.604   5.145   3.684 -2.3907 -0.5058 -0.9339
 2933TIP3    H2 8764   2.512   5.182   3.799 -3.3206  0.8159 -2.0687
 2934TIP3   OH2 8765   7.058   5.982   4.700 -0.2779  0.0211  0.1834
 2934TIP3    H1 8766   7.018   6.065   4.674 -1.7554 -0.7040  0.0157
 2934TIP3    H2 8767   7.135   5.974   4.644 -0.6615  0.8095 -0.4856
 2935TIP3   OH2 8768   0.154   2.614   3.237 -0.3486  0.1692  0.0912
 2935TIP3    H1 8769   0.210   2.603   3.314 -1.3886  0.9531  1.0034
 2935TIP3    H2 8770   0.085   2.674   3.266 -2.4540 -1.7876 -0.5334
 2936TIP3   OH2 8771   4.078   3.131   1.248 -0.1630 -0.0996  0.3962
 2936TIP3    H1 8772   4.099   3.220   1.278  0.7421 -0.4731  0.9247
 2936TIP3    H2 8773   4.145   3.112   1.182  0.3756 -0.8167  1.1357
 2937TIP3   OH2 8774   3.153   4.305   1.108  0.1801 -0.1490 -0.3140
 2937TIP3    H1 8775   3.236   4.283   1.065 -0.4743  0.5591 -2.0203
 2937TIP3    H2 8776   3.172   4.386   1.155  0.7480 -0.5977  0.2397
 2938TIP3   OH2 8777   4.885   3.231   4.794 -0.2346 -0.1998  0.4739
 2938TIP3    H1 8778   4.961   3.245   4.736 -1.1758 -0.5850 -0.9036
 2938TIP3    H2 8779   4.903   3.285   4.871  2.0863 -1.3534  0.8270
 2939TIP3   OH2 8780   4.175   2.301   4.769  0.0068 -0.5692  0.0637
 2939TIP3    H1 8781   4.248   2.266   4.820  0.6027 -0.5844 -0.7904
 2939TIP3    H2 8782   4.098   2.282   4.823  0.6767  0.0669  1.2975
 2940TIP3   OH2 8783   2.792   1.166   1.918 -0.0932  0.1189  0.5752
 2940TIP3    H1 8784   2.829   1.179   1.831 -0.0038 -1.8897  0.2554
 2940TIP3    H2 8785   2.712   1.116   1.902 -0.8771  1.0310  1.5513
 2941TIP3   OH2 8786   5.651   1.471   1.856  0.3898  0.0564 -0.1646
 2941TIP3    H1 8787   5.622   1.483   1.765  0.7469 -1.4611 -0.5213
 2941TIP3    H2 8788   5.662   1.559   1.890 -0.7461  0.6587 -1.2710
 2942TIP3   OH2 8789   0.584   0.457   3.541  0.2576 -0.2902 -0.2918
 2942TIP3    H1 8790   0.533   0.413   3.609 -1.1573 -0.7318 -1.5794
 2942TIP3    H2 8791   0.645   0.513   3.589 -0.0807 -1.2579  1.3343
 2943TIP3   OH2 8792   5.269   4.103   5.002  0.0949  0.2788  0.7211
 2943TIP3    H1 8793   5.315   4.058   4.931 -0.8864 -0.1600  0.3503
 2943TIP3    H2 8794   5.186   4.056   5.012  0.3132  0.1642  2.3421
 2944TIP3   OH2 8795   3.792   5.118   4.527 -0.4852  0.3159 -0.3395
 2944TIP3    H1 8796   3.758   5.201   4.560  1.3960  1.1221 -0.2993
 2944TIP3    H2 8797   3.834   5.077   4.602 -0.8446 -0.3876 -0.5123
 2945TIP3   OH2 8798   1.252   2.291   2.836 -0.7167  0.2121 -0.1302
 2945TIP3    H1 8799   1.197   2.212   2.833 -1.3944  0.6839 -2.6048
 2945TIP3    H2 8800   1.193   2.362   2.810  0.0188  1.4885  1.5220
 2946TIP3   OH2 8801   1.417   4.557   0.596 -0.5991 -0.0141 -0.2659
 2946TIP3    H1 8802   1.334   4.517   0.619 -0.0959 -0.1898  1.3693
 2946TIP3    H2 8803   1.460   4.493   0.539 -1.0576 -0.4785 -0.0959
 2947TIP3   OH2 8804   6.120   2.603   4.391  0.1832 -0.2065  0.2845
 2947TIP3    H1 8805   6.215   2.604   4.386  0.3202  4.3127  0.1153
 2947TIP3    H2 8806   6.100   2.645   4.475 -1.6744 -0.1005 -0.1655
 2948TIP3   OH2 8807   1.861   6.533   4.495  0.0362  0.1266  0.3139
 2948TIP3    H1 8808   1.869   6.605   4.433  2.1970 -1.4453 -1.4021
 2948TIP3    H2 8809   1.943   6.534   4.545 -0.0735 -0.8675  0.5524
 2949TIP3   OH2 8810   2.973   0.837   1.124 -0.0373  0.7921  0.2087
 2949TIP3    H1 8811   3.059   0.853   1.163 -1.4862  0.1844  4.0819
 2949TIP3    H2 8812   2.924   0.918   1.137 -0.8275  0.3100  0.3263
 2950TIP3   OH2 8813   6.412   0.975   5.674 -0.0020 -0.6443 -0.4910
 2950TIP3    H1 8814   6.470   0.926   5.732  0.4994 -0.8785 -1.1782
 2950TIP3    H2 8815   6.406   0.921   5.595 -1.7963 -1.0254 -0.1512
 2951TIP3   OH2 8816   3.722   5.411   0.894 -0.1974  0.1644  0.2631
 2951TIP3    H1 8817   3.742   5.459   0.813 -2.2978 -0.2301 -0.5481
 2951TIP3    H2 8818   3.802   5.418   0.946  1.6170 -0.3920 -2.2260
 2952TIP3   OH2 8819   2.581   3.408   2.451  0.0609  0.0752  0.2618
 2952TIP3    H1 8820   2.492   3.395   2.484 -0.8649  0.4616 -1.9103
 2952TIP3    H2 8821   2.570   3.465   2.374  2.0549 -0.7877 -0.7335
 2953TIP3   OH2 8822   0.477   2.232   1.000  0.0435  0.1738 -0.2067
 2953TIP3    H1 8823   0.565   2.261   0.975  0.1137 -0.1993 -0.4023
 2953TIP3    H2 8824   0.424   2.250   0.922 -0.2263  1.1277  0.1824
 2954TIP3   OH2 8825   2.737   2.760   0.390  0.1517 -0.1306 -0.4927
 2954TIP3    H1 8826   2.798   2.785   0.320  1.6799 -2.2767 -0.0046
 2954TIP3    H2 8827   2.751   2.825   0.459  0.4933  0.4860 -1.1274
 2955TIP3   OH2 8828   1.592   2.613   3.156  0.4628 -0.1870  0.1454
 2955TIP3    H1 8829   1.497   2.618   3.162  0.4387 -0.1248 -0.2941
 2955TIP3    H2 8830   1.619   2.699   3.125  0.6506 -0.2619  0.0987
 2956TIP3   OH2 8831   4.163   0.299   0.959  0.0903 -0.1823 -0.5939
 2956TIP3    H1 8832   4.147   0.376   1.013 -0.6298 -0.9926  0.3771
 2956TIP3    H2 8833   4.253   0.274   0.977 -0.2728 -0.6916  0.5696
 2957TIP3   OH2 8834   0.013   2.946   5.262  0.1594  0.2679 -0.5834
 2957TIP3    H1 8835   0.079   2.877   5.255  0.2152  0.2379  0.1580
 2957TIP3    H2 8836  -0.041   2.935   5.184  1.2951  0.5863 -1.4342
 2958TIP3   OH2 8837   1.677   4.188   4.482 -0.0202  0.1020  0.3401
 2958TIP3    H1 8838   1.708   4.120   4.424  0.8036  0.0255  0.8474
 2958TIP3    H2 8839   1.695   4.154   4.570  0.9329  1.1822  0.5944
 2959TIP3   OH2 8840   4.839   0.114   4.138  0.0010 -0.4287 -0.1163
 2959TIP3    H1 8841   4.887   0.120   4.221  0.8565  0.5320 -0.6583
 2959TIP3    H2 8842   4.895   0.160   4.075 -1.3117  0.0801 -0.9337
 2960TIP3   OH2 8843   6.827   5.376   4.545 -1.0820 -0.3633  0.3252
 2960TIP3    H1 8844   6.813   5.445   4.480  0.1070 -1.3995 -1.1250
 2960TIP3    H2 8845   6.920   5.353   4.536 -1.9679 -4.0969 -1.3811
 2961TIP3   OH2 8846   6.158   1.881   1.254  0.3910  0.5112  0.0104
 2961TIP3    H1 8847   6.241   1.865   1.209  0.5943  1.0166  0.1969
 2961TIP3    H2 8848   6.095   1.825   1.208  1.1732 -1.3281  1.0712
 2962TIP3   OH2 8849   0.035   4.152   4.139 -0.3161 -0.5495 -0.1704
 2962TIP3    H1 8850  -0.006   4.068   4.157 -0.5573 -0.6230 -1.0140
 2962TIP3    H2 8851   0.124   4.130   4.110  0.3025 -0.3995  1.4707
 2963TIP3   OH2 8852   7.044   2.922   3.666  0.4269 -0.4683  0.1599
 2963TIP3    H1 8853   7.133   2.904   3.635  0.7926  3.4023 -1.7007
 2963TIP3    H2 8854   7.002   2.965   3.592 -2.1573  0.1542  1.8690
 2964TIP3   OH2 8855   4.679   3.615   0.253 -0.9432  0.4861 -0.4033
 2964TIP3    H1 8856   4.726   3.663   0.321 -2.2850  1.2111  0.0381
 2964TIP3    H2 8857   4.662   3.680   0.185 -2.4255  0.5754  0.0196
 2965TIP3   OH2 8858   3.274   6.018   0.332 -0.1606  0.1912 -0.0267
 2965TIP3    H1 8859   3.204   6.047   0.274  0.9442 -0.1504 -1.6028
 2965TIP3    H2 8860   3.271   6.079   0.406 -1.6629  0.5932 -0.3976
 2966TIP3   OH2 8861   2.642   4.375   0.718 -0.2373  0.0272 -0.4943
 2966TIP3    H1 8862   2.605   4.447   0.770 -1.2187 -0.6820 -0.1734
 2966TIP3    H2 8863   2.726   4.356   0.759 -0.6840 -0.0470  0.3997
 2967TIP3   OH2 8864   4.518   4.685   1.335  0.2499  0.0408 -0.2427
 2967TIP3    H1 8865   4.472   4.704   1.254  1.2089  0.0566 -0.7971
 2967TIP3    H2 8866   4.586   4.752   1.341  1.3170 -0.9991 -0.3542
 2968TIP3   OH2 8867   5.120   1.903   5.485  0.2705  0.1223  0.2942
 2968TIP3    H1 8868   5.108   1.813   5.455 -0.6259  0.4935 -0.4768
 2968TIP3    H2 8869   5.136   1.894   5.579 -0.7547 -0.7890  0.4040
 2969TIP3   OH2 8870   3.915   6.233   3.792 -0.6100  0.8074  0.2859
 2969TIP3    H1 8871   3.922   6.138   3.790 -0.1310  0.8190  1.1228
 2969TIP3    H2 8872   3.828   6.250   3.830 -0.6733  0.7044  0.1861
 2970TIP3   OH2 8873   4.341   5.144   4.325 -0.3642 -0.0308  0.1801
 2970TIP3    H1 8874   4.363   5.174   4.413  1.2797  1.8299 -0.7667
 2970TIP3    H2 8875   4.370   5.216   4.268  1.1770 -2.2656 -2.0760
 2971TIP3   OH2 8876   3.047   3.431   5.243 -0.3334  0.3176 -0.1325
 2971TIP3    H1 8877   3.113   3.429   5.173 -1.4329  3.2014 -1.4197
 2971TIP3    H2 8878   3.097   3.449   5.322  0.5498  1.5307 -0.9316
 2972TIP3   OH2 8879   0.279   3.623   4.715 -0.0109  0.0197 -0.4977
 2972TIP3    H1 8880   0.246   3.710   4.696  0.0817  0.6304  1.8038
 2972TIP3    H2 8881   0.201   3.567   4.713  0.1916 -0.3800 -4.1106
 2973TIP3   OH2 8882   2.124   1.561   3.054  0.6189  0.0819  0.1140
 2973TIP3    H1 8883   2.217   1.543   3.038  0.3999 -0.5868 -0.4439
 2973TIP3    H2 8884   2.112   1.652   3.025  0.8383 -0.2275 -1.0123
 2974TIP3   OH2 8885   2.447   2.958   3.778  0.0126 -0.0038 -0.2773
 2974TIP3    H1 8886   2.449   2.981   3.686 -0.4651 -0.6937 -0.4737
 2974TIP3    H2 8887   2.523   3.001   3.816  0.4158 -0.0093 -1.0644
 2975TIP3   OH2 8888   3.445   6.754   3.179 -0.0601 -0.1876 -0.0116
 2975TIP3    H1 8889   3.415   6.844   3.163  2.2599  0.6346 -0.1177
 2975TIP3    H2 8890   3.472   6.722   3.093 -0.5062 -0.8640  0.0935
 2976TIP3   OH2 8891   4.468   0.680   3.413 -0.0342 -0.3181  0.2774
 2976TIP3    H1 8892   4.512   0.596   3.395 -0.6163 -0.1164 -2.4645
 2976TIP3    H2 8893   4.530   0.728   3.468  1.4576 -1.5461 -0.2575
 2977TIP3   OH2 8894   0.150   3.117   3.879 -0.6444  0.1436 -0.2298
 2977TIP3    H1 8895   0.104   3.057   3.938 -0.7090  0.8243  0.4322
 2977TIP3    H2 8896   0.124   3.089   3.792  0.5989 -1.8214 -0.0302
 2978TIP3   OH2 8897   1.754   2.998   5.096 -0.5106 -0.3629 -0.7084
 2978TIP3    H1 8898   1.753   3.003   5.001 -0.2233  1.2423 -0.6721
 2978TIP3    H2 8899   1.669   2.960   5.120 -0.8980 -0.0641 -1.5826
 2979TIP3   OH2 8900   0.993   4.379   4.109 -0.0565  0.0912 -0.0250
 2979TIP3    H1 8901   1.045   4.458   4.126  0.1731 -0.2290  0.7833
 2979TIP3    H2 8902   1.049   4.307   4.137 -0.0870 -0.4015 -1.1792
 2980TIP3   OH2 8903   3.046   3.561   2.719  0.3548 -0.4217 -0.4887
 2980TIP3    H1 8904   3.086   3.475   2.731  0.1149 -0.4163  0.4535
 2980TIP3    H2 8905   2.954   3.548   2.745  0.3223  0.1121 -0.3275
 2981TIP3   OH2 8906   4.557   1.727   5.033  0.3170  0.0350 -0.3897
 2981TIP3    H1 8907   4.589   1.813   5.061  0.3591 -0.1761  0.2334
 2981TIP3    H2 8908   4.575   1.669   5.108  0.4948 -0.5646 -0.8855
 2982TIP3   OH2 8909   7.010   3.637   1.735 -0.2855 -0.5914 -0.1151
 2982TIP3    H1 8910   7.043   3.602   1.652 -3.0151 -2.0850 -0.7090
 2982TIP3    H2 8911   6.967   3.719   1.710 -1.3179 -1.1617 -0.2623
 2983TIP3   OH2 8912   3.967   5.644   5.581 -0.8308 -0.5586 -0.0615
 2983TIP3    H1 8913   4.020   5.637   5.502 -2.1260  2.4318 -1.3502
 2983TIP3    H2 8914   3.878   5.663   5.549 -1.8504 -1.3932  2.0842
 2984TIP3   OH2 8915   6.966   1.668   4.401  0.0873 -0.6781 -0.0856
 2984TIP3    H1 8916   6.878   1.674   4.438 -0.7966 -2.5773 -1.6661
 2984TIP3    H2 8917   6.969   1.736   4.334  0.0685 -0.1745  0.4238
 2985TIP3   OH2 8918   0.044   2.782   3.554  0.0304  0.0822  0.0235
 2985TIP3    H1 8919   0.005   2.710   3.504  0.9223  0.2969 -1.0256
 2985TIP3    H2 8920   0.102   2.738   3.617  0.4789 -0.1493 -0.5313
 2986TIP3   OH2 8921   1.027   6.204   3.343  0.0016  0.7215 -0.1262
 2986TIP3    H1 8922   1.066   6.264   3.407  0.9582 -0.0618  0.0485
 2986TIP3    H2 8923   0.991   6.132   3.395  1.8456 -0.5291 -0.4742
 2987TIP3   OH2 8924   3.956   0.451   3.801 -0.1156 -0.5045  0.0663
 2987TIP3    H1 8925   3.936   0.365   3.765 -1.4073 -0.3450  0.3430
 2987TIP3    H2 8926   3.871   0.494   3.808  0.0316 -0.4903  3.2049
 2988TIP3   OH2 8927   6.592   3.852   5.123 -0.0641 -0.1734  0.0191
 2988TIP3    H1 8928   6.580   3.767   5.165  1.7198 -0.7777 -0.5924
 2988TIP3    H2 8929   6.523   3.856   5.057 -0.7079 -0.7493  0.6403
 2989TIP3   OH2 8930   1.540   3.199   2.064 -0.4072  0.2265 -0.2078
 2989TIP3    H1 8931   1.493   3.282   2.051  1.3606  1.6141  1.5493
 2989TIP3    H2 8932   1.519   3.173   2.154  0.5269 -0.2037 -0.0988
 2990TIP3   OH2 8933   6.861   3.892   3.761  0.1485  0.2066 -0.7144
 2990TIP3    H1 8934   6.803   3.848   3.699 -2.0026  0.5944  0.9233
 2990TIP3    H2 8935   6.802   3.929   3.827  2.3650 -2.5886  3.2299
 2991TIP3   OH2 8936   2.851   1.173   0.176 -0.3808  0.2963  0.2092
 2991TIP3    H1 8937   2.787   1.238   0.149  0.2618  1.5768  1.5792
 2991TIP3    H2 8938   2.805   1.119   0.241  0.0350  1.6383  1.7064
 2992TIP3   OH2 8939   4.725   1.315   4.400  0.1478 -0.3331  0.1052
 2992TIP3    H1 8940   4.770   1.352   4.475 -0.3372  0.3783  0.0590
 2992TIP3    H2 8941   4.725   1.386   4.335 -2.0744  0.1612  0.5380
 2993TIP3   OH2 8942   0.473   2.351   0.656 -0.1395  0.5192  0.6871
 2993TIP3    H1 8943   0.495   2.351   0.563  2.5415 -0.9848  1.2383
 2993TIP3    H2 8944   0.547   2.395   0.698 -0.9700  0.5452  2.1854
 2994TIP3   OH2 8945   6.420   4.506   0.953 -0.4634  0.1623 -0.0222
 2994TIP3    H1 8946   6.414   4.554   1.036 -1.8114 -0.3934  0.2388
 2994TIP3    H2 8947   6.375   4.423   0.971 -1.3018  0.2750 -1.4576
 2995TIP3   OH2 8948   3.481   1.504   5.216 -0.6046  0.3675  0.7914
 2995TIP3    H1 8949   3.490   1.409   5.217  0.9191  0.4772  1.6093
 2995TIP3    H2 8950   3.396   1.521   5.258 -2.3169 -0.6706 -2.0331
 2996TIP3   OH2 8951   4.911   1.083   0.503 -0.8159  0.1585 -0.3141
 2996TIP3    H1 8952   4.984   1.109   0.448 -1.0250 -0.5848 -0.9649
 2996TIP3    H2 8953   4.950   1.070   0.590 -0.0374 -0.8169 -0.7789
 2997TIP3   OH2 8954   2.210   2.656   4.999 -0.0812 -0.1166 -0.0382
 2997TIP3    H1 8955   2.291   2.628   5.040 -0.3955 -2.0830 -0.6405
 2997TIP3    H2 8956   2.151   2.675   5.072  1.0140  1.8828  0.4177
 2998TIP3   OH2 8957   0.411   5.467   2.019  0.1184  0.0908  0.5261
 2998TIP3    H1 8958   0.367   5.412   2.083  0.4727 -0.9825 -0.1306
 2998TIP3    H2 8959   0.503   5.468   2.047  0.0326  0.7357  0.7973
 2999TIP3   OH2 8960   0.779   4.028   1.794 -0.4059 -0.1078  0.0777
 2999TIP3    H1 8961   0.724   4.006   1.719  1.2138 -0.4588 -1.0753
 2999TIP3    H2 8962   0.800   4.121   1.782  1.0952 -0.5287 -0.7997
 3000TIP3   OH2 8963   1.006   6.229   2.057  0.5638 -0.0595 -0.1609
 3000TIP3    H1 8964   1.033   6.146   2.018 -0.8536  0.5968 -2.7684
 3000TIP3    H2 8965   0.912   6.234   2.041  0.2455  1.1982  1.7219
 3001TIP3   OH2 8966   3.862   5.105   0.152  0.1199  0.7424 -0.3632
 3001TIP3    H1 8967   3.944   5.071   0.116  1.4606  1.2688  1.9770
 3001TIP3    H2 8968   3.815   5.026   0.180  1.0122  0.5432  0.6233
 3002TIP3   OH2 8969   2.499   5.448   4.435 -0.1903 -0.1001 -0.4254
 3002TIP3    H1 8970   2.440   5.522   4.418  0.2477 -0.1036 -2.1889
 3002TIP3    H2 8971   2.502   5.401   4.352  0.4444 -1.4699  0.3422
 3003TIP3   OH2 8972   0.483   1.440   5.202  0.1364 -0.0680  0.2881
 3003TIP3    H1 8973   0.469   1.511   5.265  0.3574  3.5413 -3.3912
 3003TIP3    H2 8974   0.395   1.415   5.174  0.0423 -1.6298  1.7826
 3004TIP3   OH2 8975   4.979   4.244   1.880 -0.0046 -0.1095  0.3181
 3004TIP3    H1 8976   5.030   4.176   1.924  1.7919  1.9260  1.5787
 3004TIP3    H2 8977   4.994   4.228   1.787  1.4074 -0.7021  0.6159
 3005TIP3   OH2 8978   1.323   6.537   2.508 -0.3719  0.6393 -0.2363
 3005TIP3    H1 8979   1.312   6.544   2.603  1.6205  0.1362  0.0577
 3005TIP3    H2 8980   1.307   6.444   2.489  0.9934  0.3712 -0.1235
 3006TIP3   OH2 8981   7.163   4.280   1.277  0.4774  0.6812 -0.0138
 3006TIP3    H1 8982   7.174   4.203   1.333  1.4167  1.5312  1.0492
 3006TIP3    H2 8983   7.244   4.285   1.226 -0.6387 -0.4564 -2.0086
 3007TIP3   OH2 8984   4.064   6.014   2.403 -0.0446 -0.4850 -0.3242
 3007TIP3    H1 8985   4.087   5.956   2.475  0.6614  1.3707  1.0138
 3007TIP3    H2 8986   3.971   5.998   2.388 -0.5535  0.0243  1.9443
 3008TIP3   OH2 8987   4.986   4.175   0.793  0.4318  0.2324  0.1198
 3008TIP3    H1 8988   4.985   4.115   0.868  1.0781 -0.7536 -0.6178
 3008TIP3    H2 8989   5.060   4.233   0.809 -2.0297  3.0264  2.4035
 3009TIP3   OH2 8990   2.163   0.868   5.704 -0.6012  0.0469 -0.2484
 3009TIP3    H1 8991   2.185   0.903   5.617 -0.5499  2.7024  0.7342
 3009TIP3    H2 8992   2.138   0.778   5.688  1.7335 -0.2846 -2.6988
 3010TIP3   OH2 8993   6.718   3.521   1.175 -0.0463  0.3486  0.1876
 3010TIP3    H1 8994   6.622   3.522   1.169 -0.0007  0.7278 -0.6034
 3010TIP3    H2 8995   6.736   3.531   1.268 -0.7921 -1.1330  0.5361
 3011TIP3   OH2 8996   6.110   4.428   3.892  0.1217 -0.0333  0.4953
 3011TIP3    H1 8997   6.176   4.380   3.942 -0.2793 -1.4325 -0.2521
 3011TIP3    H2 8998   6.081   4.497   3.951  2.1260  0.5349  0.8938
 3012TIP3   OH2 8999   4.398   3.909   3.858  0.1323 -0.0653  0.4037
 3012TIP3    H1 9000   4.431   3.851   3.927  0.9581  1.9803  1.8426
 3012TIP3    H2 9001   4.406   3.858   3.778 -0.2414 -2.3062  1.7121
 3013TIP3   OH2 9002   6.514   1.123   3.546  0.5246 -0.1748 -0.0445
 3013TIP3    H1 9003   6.608   1.139   3.554  0.5063  0.8763 -1.4802
 3013TIP3    H2 9004   6.485   1.183   3.477 -1.0679 -0.9776 -0.1299
 3014TIP3   OH2 9005   3.722   2.659   3.313  0.2813  1.0173 -0.0690
 3014TIP3    H1 9006   3.676   2.719   3.254 -0.0429  0.2708 -0.5979
 3014TIP3    H2 9007   3.654   2.627   3.372  0.3691  0.8750 -0.0440
 3015TIP3   OH2 9008   1.000   6.158   0.372  0.1486  0.8641 -0.4236
 3015TIP3    H1 9009   0.964   6.152   0.283  0.7640  2.1733 -0.7860
 3015TIP3    H2 9010   1.027   6.069   0.393 -0.7395  0.3852 -1.2343
 3016TIP3   OH2 9011   5.843   3.798   5.319 -0.3350 -0.4787  0.4619
 3016TIP3    H1 9012   5.767   3.842   5.356  0.5842  1.0740  0.6243
 3016TIP3    H2 9013   5.858   3.722   5.375 -1.2262 -0.2861  0.9675
 3017TIP3   OH2 9014   5.783   0.236   2.761  0.9248 -0.8416 -0.4373
 3017TIP3    H1 9015   5.815   0.237   2.671 -1.8761 -2.4443 -1.5517
 3017TIP3    H2 9016   5.712   0.301   2.763  0.2548 -1.5736  0.3166
 3018TIP3   OH2 9017   1.603   4.896   3.919  0.0438 -0.4907 -0.0481
 3018TIP3    H1 9018   1.534   4.961   3.932  0.8506  0.4400 -0.3062
 3018TIP3    H2 9019   1.556   4.815   3.897 -0.9818 -0.0561  0.4727
 3019TIP3   OH2 9020   0.144   1.411   0.149  0.1651  0.0024  0.2375
 3019TIP3    H1 9021   0.123   1.330   0.196 -1.9031  0.2693 -0.1227
 3019TIP3    H2 9022   0.114   1.395   0.059 -0.5573  1.2570  0.2382
 3020TIP3   OH2 9023   6.328   1.056   4.802  0.4098 -0.5293 -0.2662
 3020TIP3    H1 9024   6.404   1.013   4.763  1.3274  0.7897  0.0322
 3020TIP3    H2 9025   6.353   1.147   4.812 -1.3559  0.0233 -0.4978
 3021TIP3   OH2 9026   5.522   1.728   3.500  0.1289  0.1713  0.0294
 3021TIP3    H1 9027   5.460   1.663   3.533 -0.6220  0.1897 -1.2603
 3021TIP3    H2 9028   5.549   1.778   3.577 -1.5183  0.2013  0.6211
 3022TIP3   OH2 9029   3.196   2.203   1.658  0.0597  0.2557  0.0517
 3022TIP3    H1 9030   3.205   2.225   1.751  0.2771  2.5986 -0.4785
 3022TIP3    H2 9031   3.122   2.256   1.628 -0.1374 -0.6244 -1.0830
 3023TIP3   OH2 9032   5.632   3.444   5.239 -0.7347 -0.0685 -0.5538
 3023TIP3    H1 9033   5.682   3.519   5.272 -0.8529  0.4118 -1.4500
 3023TIP3    H2 9034   5.553   3.482   5.202 -0.2700 -0.4918 -2.0729
 3024TIP3   OH2 9035   6.782   0.042   3.500 -0.3108  0.1869 -0.1270
 3024TIP3    H1 9036   6.778   0.132   3.533  2.0018  1.3490 -2.6039
 3024TIP3    H2 9037   6.749   0.048   3.410  0.0880 -1.4087 -0.4115
 3025TIP3   OH2 9038   4.464   5.869   3.862 -0.3448 -0.0198 -0.7085
 3025TIP3    H1 9039   4.508   5.872   3.947 -0.0665 -2.5871 -0.6957
 3025TIP3    H2 9040   4.526   5.910   3.802  0.5208 -0.3599 -0.0702
 3026TIP3   OH2 9041   1.642   1.704   0.800  0.2744  0.5282  0.0636
 3026TIP3    H1 9042   1.590   1.766   0.749 -1.1403 -0.6900 -0.0296
 3026TIP3    H2 9043   1.669   1.753   0.877 -2.1121  0.8721  0.7476
 3027TIP3   OH2 9044   6.956   3.367   0.921 -0.4613 -0.1708  0.1650
 3027TIP3    H1 9045   6.997   3.453   0.932 -1.0282 -0.0706  1.7963
 3027TIP3    H2 9046   7.024   3.305   0.946 -0.1969 -0.1975 -0.5803
 3028TIP3   OH2 9047   4.003   4.690   5.594 -0.0917  0.2475  0.1034
 3028TIP3    H1 9048   3.909   4.693   5.579 -0.1238 -0.0837  0.2292
 3028TIP3    H2 9049   4.041   4.732   5.517 -0.3562  0.7325  0.2312
 3029TIP3   OH2 9050  -0.002   0.379   1.416 -0.0446 -0.3910  0.2549
 3029TIP3    H1 9051   0.080   0.330   1.424 -0.3405 -0.8053  0.7933
 3029TIP3    H2 9052   0.024   0.461   1.373  0.7423 -0.3002  0.8700
 3030TIP3   OH2 9053   3.721   2.336   3.439 -0.0062 -0.2373  0.0334
 3030TIP3    H1 9054   3.728   2.250   3.480  1.9257 -0.1552 -0.0273
 3030TIP3    H2 9055   3.746   2.321   3.347 -0.4242  0.2534 -0.1693
 3031TIP3   OH2 9056   2.896   0.268   2.245 -0.2682  0.2604  0.0304
 3031TIP3    H1 9057   2.844   0.275   2.325 -1.1580  2.2127 -0.6511
 3031TIP3    H2 9058   2.872   0.345   2.194 -0.6814 -1.5179 -2.6842
 3032TIP3   OH2 9059   5.480   1.808   4.477  0.5619  0.9045  0.5778
 3032TIP3    H1 9060   5.455   1.886   4.528  0.4012  0.2453  1.5349
 3032TIP3    H2 9061   5.569   1.828   4.446  0.2186  1.7984  0.1257
 3033TIP3   OH2 9062   7.008   3.549   5.612  0.4579  0.7320  0.3122
 3033TIP3    H1 9063   7.048   3.561   5.526  1.0098 -1.0725  0.2679
 3033TIP3    H2 9064   7.045   3.618   5.667  0.2450  1.7820 -0.8426
 3034TIP3   OH2 9065   1.499   5.415   3.217  0.2316 -0.3715 -0.1176
 3034TIP3    H1 9066   1.494   5.380   3.128 -2.1250 -0.7387  0.0925
 3034TIP3    H2 9067   1.459   5.348   3.272  0.3428  0.4562  1.0199
 3035TIP3   OH2 9068   4.805   1.056   5.769  0.6658  0.1982  0.7661
 3035TIP3    H1 9069   4.864   1.063   5.844  1.3263  0.7944  0.2079
 3035TIP3    H2 9070   4.739   1.123   5.785  0.9064  0.4459  0.7338
 3036TIP3   OH2 9071   3.276   4.058   2.084  0.2761 -0.0147 -0.0965
 3036TIP3    H1 9072   3.361   4.037   2.046  1.1325  2.8514 -0.0119
 3036TIP3    H2 9073   3.280   4.027   2.174  0.9283 -0.5944 -0.3226
 3037TIP3   OH2 9074   2.223   1.657   1.324 -0.1615 -0.1291 -0.4386
 3037TIP3    H1 9075   2.268   1.577   1.295  1.9761  1.8035 -2.9805
 3037TIP3    H2 9076   2.288   1.703   1.376 -0.8562  0.6071 -0.2139
 3038TIP3   OH2 9077   3.425   1.354   3.892  0.0186 -0.1525  0.4859
 3038TIP3    H1 9078   3.341   1.388   3.860 -0.4622 -2.3998 -0.8773
 3038TIP3    H2 9079   3.405   1.265   3.923  1.4333  0.2211  2.6728
 3039TIP3   OH2 9080   3.885   4.928   2.234 -0.2460  0.4359 -0.4188
 3039TIP3    H1 9081   3.954   4.881   2.279 -1.2315 -1.3219 -0.6690
 3039TIP3    H2 9082   3.925   4.958   2.153 -0.1411 -1.9080 -1.2969
 3040TIP3   OH2 9083   5.469   0.818   5.652  0.4520 -0.2276  0.0986
 3040TIP3    H1 9084   5.399   0.821   5.718  0.0581 -0.9375 -0.2747
 3040TIP3    H2 9085   5.550   0.814   5.703  0.2020  0.0721  0.5360
 3041TIP3   OH2 9086   1.909   2.207   0.986 -0.5575 -0.0704  0.2377
 3041TIP3    H1 9087   1.898   2.285   0.932  1.9440  0.8267  0.8710
 3041TIP3    H2 9088   1.996   2.174   0.963 -0.6181 -1.3174  1.6539
 3042TIP3   OH2 9089   6.863   3.850   1.697 -0.5226 -0.1205  0.1331
 3042TIP3    H1 9090   6.932   3.917   1.699  1.0491 -1.6528  0.4884
 3042TIP3    H2 9091   6.816   3.861   1.779 -1.8277  2.0005 -0.8267
 3043TIP3   OH2 9092   1.243   5.980   3.856 -0.2547  0.1048  0.0135
 3043TIP3    H1 9093   1.293   6.009   3.780 -1.2549 -1.1005 -1.1352
 3043TIP3    H2 9094   1.305   5.985   3.929  0.2231  3.0812 -0.4592
 3044TIP3   OH2 9095   4.987   3.149   5.673  1.0023 -0.2184  0.1738
 3044TIP3    H1 9096   4.955   3.196   5.596 -0.0346  1.2681  1.4499
 3044TIP3    H2 9097   5.002   3.060   5.642 -0.4561  0.0563 -1.4895
 3045TIP3   OH2 9098   1.935   3.120   4.857  0.6527 -0.7659 -0.7520
 3045TIP3    H1 9099   1.878   3.119   4.780 -1.8862 -2.2125  1.0338
 3045TIP3    H2 9100   1.951   3.028   4.877  1.3986 -0.4077  0.3974
 3046TIP3   OH2 9101   4.120   3.565   5.796  0.1426 -0.2263 -0.2683
 3046TIP3    H1 9102   4.057   3.576   5.725  0.8981  2.1374 -0.6637
 3046TIP3    H2 9103   4.172   3.489   5.770  0.6228  0.7622 -2.4942
 3047TIP3   OH2 9104   4.856   5.285   5.831 -0.1848 -0.3617  0.4009
 3047TIP3    H1 9105   4.847   5.192   5.853 -0.5063 -0.2071  0.9490
 3047TIP3    H2 9106   4.920   5.318   5.895  0.1575 -0.2663  0.0147
 3048TIP3   OH2 9107   4.398   0.513   4.855  0.8054 -0.1121 -0.2004
 3048TIP3    H1 9108   4.345   0.580   4.812 -1.5409 -0.8113  1.3767
 3048TIP3    H2 9109   4.458   0.562   4.911  0.7982  0.6813 -0.8619
 3049TIP3   OH2 9110   4.582   4.316   0.351  0.0058 -0.2436  0.3453
 3049TIP3    H1 9111   4.517   4.383   0.373 -0.4436 -0.6285  0.2218
 3049TIP3    H2 9112   4.558   4.289   0.262  0.9400  0.3051 -0.0837
 3050TIP3   OH2 9113   2.846   4.456   3.082 -0.2200 -0.2385 -0.4427
 3050TIP3    H1 9114   2.885   4.490   3.001 -1.8966 -0.4199 -1.3791
 3050TIP3    H2 9115   2.755   4.438   3.058 -1.6152  2.4300  2.2178
 3051TIP3   OH2 9116   5.084   6.106   2.591 -0.1192  0.2315  0.3191
 3051TIP3    H1 9117   5.053   6.067   2.673  0.5838  2.4965  1.7649
 3051TIP3    H2 9118   5.167   6.147   2.614  1.6313 -1.5197 -2.2894
 3052TIP3   OH2 9119   4.991   2.160   0.612 -0.0998 -0.3691 -0.4523
 3052TIP3    H1 9120   5.006   2.234   0.554  0.9900  0.3689  0.7033
 3052TIP3    H2 9121   4.967   2.087   0.554 -1.2604  0.8818 -1.6072
 3053TIP3   OH2 9122   6.446   1.547   4.911  0.0824 -0.0560 -0.5364
 3053TIP3    H1 9123   6.462   1.454   4.900 -0.5715 -0.3072  0.4556
 3053TIP3    H2 9124   6.391   1.571   4.837 -1.8208 -1.0295  0.5000
 3054TIP3   OH2 9125   3.990   0.402   5.701  0.1030 -0.2491  0.4199
 3054TIP3    H1 9126   4.004   0.389   5.795  2.2816  1.3295  0.4050
 3054TIP3    H2 9127   4.079   0.408   5.665 -0.5864  2.8481 -1.1199
 3055TIP3   OH2 9128   1.298   5.299   1.108  0.1525  0.1239  0.1307
 3055TIP3    H1 9129   1.274   5.358   1.035  0.3681 -0.6212 -0.5519
 3055TIP3    H2 9130   1.260   5.341   1.185  0.7532  1.4393 -0.2653
 3056TIP3   OH2 9131   0.343   1.675   1.042  0.0235  0.0147  0.2316
 3056TIP3    H1 9132   0.367   1.632   0.960  0.6498  0.7832 -0.0097
 3056TIP3    H2 9133   0.381   1.621   1.110 -0.2014 -0.4431 -0.0052
 3057TIP3   OH2 9134   6.513   0.557   5.020  0.5444 -0.5133 -0.3820
 3057TIP3    H1 9135   6.425   0.577   4.988  0.2418 -1.7484 -0.3777
 3057TIP3    H2 9136   6.567   0.560   4.941  0.5060  0.2836 -0.3802
 3058TIP3   OH2 9137   3.191   2.514   1.599  0.4777 -0.4786  0.1007
 3058TIP3    H1 9138   3.129   2.451   1.565 -0.9852  0.5505  0.7239
 3058TIP3    H2 9139   3.186   2.504   1.694  1.8370 -0.8827  0.1496
 3059TIP3   OH2 9140   1.315   1.511   0.002 -0.3466 -0.4045 -0.5894
 3059TIP3    H1 9141   1.313   1.606  -0.015  1.9946 -0.2170 -0.1443
 3059TIP3    H2 9142   1.270   1.501   0.086  2.0582  0.8027  0.9587
 3060TIP3   OH2 9143   2.182   5.794   0.265 -0.1689  0.0500 -0.1566
 3060TIP3    H1 9144   2.123   5.767   0.194  0.8000  0.9410 -1.3575
 3060TIP3    H2 9145   2.190   5.717   0.320 -2.2791 -0.1598 -0.0657
 3061TIP3   OH2 9146   5.367   0.097   2.280 -0.5171  0.5900  0.4460
 3061TIP3    H1 9147   5.457   0.070   2.263 -0.6962 -0.3211  0.9056
 3061TIP3    H2 9148   5.321   0.080   2.198 -0.7416 -1.0272  0.8825
 3062TIP3   OH2 9149   3.115   1.065   4.094 -0.1870 -0.1341 -0.1852
 3062TIP3    H1 9150   3.113   1.153   4.132 -2.6284 -0.6319  1.1171
 3062TIP3    H2 9151   3.179   1.017   4.147  0.3765  0.5864 -0.2146
 3063TIP3   OH2 9152   3.593   2.893   4.317 -0.3522 -0.1433  0.1207
 3063TIP3    H1 9153   3.606   2.835   4.392 -0.6973 -0.1768  0.1567
 3063TIP3    H2 9154   3.516   2.858   4.272  1.4040 -1.7845 -1.8367
 3064TIP3   OH2 9155   4.053   0.491   5.402 -0.2262  0.0205 -0.0331
 3064TIP3    H1 9156   4.100   0.421   5.356  1.3061  0.5212  0.6942
 3064TIP3    H2 9157   4.107   0.509   5.479 -1.5291  0.7907  0.7176
 3065TIP3   OH2 9158   5.149   3.119   0.620 -0.0914 -0.0454 -0.3031
 3065TIP3    H1 9159   5.221   3.181   0.609 -0.6477  0.3745 -1.8817
 3065TIP3    H2 9160   5.131   3.120   0.714  2.1772 -0.4477  0.1989
 3066TIP3   OH2 9161   1.964   0.032   2.486  0.3740  0.5347  0.8574
 3066TIP3    H1 9162   2.013   0.110   2.459 -2.1144  1.5774 -1.0711
 3066TIP3    H2 9163   1.875   0.064   2.503 -0.7243 -1.8405  0.0505
 3067TIP3   OH2 9164   1.448   5.610   4.618 -0.7462 -0.1174  0.1398
 3067TIP3    H1 9165   1.412   5.546   4.679 -0.2263  1.2537  1.9774
 3067TIP3    H2 9166   1.525   5.567   4.580 -2.6390 -2.0394 -1.7672
 3068TIP3   OH2 9167   5.491   0.035   3.681  0.3191 -0.3211  0.0276
 3068TIP3    H1 9168   5.454   0.123   3.669  0.1568 -0.4742 -0.6332
 3068TIP3    H2 9169   5.562   0.031   3.617  0.4717 -0.5879  0.2155
 3069TIP3   OH2 9170   6.609   6.269   5.549 -0.5680  0.5038  0.0951
 3069TIP3    H1 9171   6.588   6.199   5.487 -0.9016  2.1559 -1.7663
 3069TIP3    H2 9172   6.702   6.286   5.534 -0.1471 -0.4059  1.5142
 3070TIP3   OH2 9173   0.326   0.914   3.911  0.2380  0.4177  0.1635
 3070TIP3    H1 9174   0.365   0.848   3.852 -1.7390 -1.9344  1.2853
 3070TIP3    H2 9175   0.289   0.980   3.852  1.5820  0.1202 -1.0558
 3071TIP3   OH2 9176   4.494   4.577   0.788  0.1825 -0.9117  0.3706
 3071TIP3    H1 9177   4.552   4.559   0.863  2.4991  0.4402 -0.9730
 3071TIP3    H2 9178   4.543   4.640   0.735 -2.1644 -0.4449 -1.3871
 3072TIP3   OH2 9179   5.924   2.086   3.274  0.2832  0.2486  0.0429
 3072TIP3    H1 9180   5.951   2.176   3.255 -0.0956  0.6962  1.4800
 3072TIP3    H2 9181   5.893   2.089   3.365  0.6660 -1.4362  0.2610
 3073TIP3   OH2 9182   4.731   6.802   2.061 -0.0875  0.4926  0.7636
 3073TIP3    H1 9183   4.785   6.741   2.111  1.2331  0.9912  0.0268
 3073TIP3    H2 9184   4.647   6.805   2.107 -0.3621 -2.1847  0.5749
 3074TIP3   OH2 9185   6.708   4.421   1.926 -0.1424 -0.8497  0.5243
 3074TIP3    H1 9186   6.779   4.396   1.986 -0.6412 -0.9372  1.0884
 3074TIP3    H2 9187   6.734   4.384   1.842  0.2203 -1.3495  0.8459
 3075TIP3   OH2 9188   0.574   3.636   3.443  0.4956  0.0565  0.3641
 3075TIP3    H1 9189   0.491   3.633   3.396  1.5260  0.9819 -1.6493
 3075TIP3    H2 9190   0.614   3.551   3.425  0.7898  0.3242 -0.2837
 3076TIP3   OH2 9191   3.919   0.727   1.824 -0.0386  0.4415  0.1566
 3076TIP3    H1 9192   3.886   0.797   1.767 -1.4845 -0.5959 -0.3452
 3076TIP3    H2 9193   3.980   0.771   1.883 -0.0271  1.9070 -0.9013
 3077TIP3   OH2 9194   1.565   0.772   1.840  0.7411 -0.0531  0.2606
 3077TIP3    H1 9195   1.573   0.864   1.866  0.0202  0.0338  0.1877
 3077TIP3    H2 9196   1.647   0.754   1.793  1.3349  0.2522  1.1418
 3078TIP3   OH2 9197   5.973   2.350   3.141  0.7961 -0.2337 -0.0041
 3078TIP3    H1 9198   5.996   2.347   3.048 -0.3001 -1.1345 -0.2646
 3078TIP3    H2 9199   6.057   2.344   3.187  1.2453 -1.2289 -0.9309
 3079TIP3   OH2 9200   5.798   3.328   2.064  0.6405 -0.1537  0.6631
 3079TIP3    H1 9201   5.862   3.370   2.007  0.5481 -0.6723  0.1699
 3079TIP3    H2 9202   5.731   3.293   2.005 -0.2231  0.5662  1.1822
 3080TIP3   OH2 9203   3.942   4.201   1.688  0.0109  0.4636 -0.0321
 3080TIP3    H1 9204   4.002   4.234   1.621  1.1760 -0.0094  0.7325
 3080TIP3    H2 9205   3.861   4.249   1.674  0.6251  1.2553 -0.9979
 3081TIP3   OH2 9206   1.418   6.248   2.211  0.0703 -0.1966  0.5743
 3081TIP3    H1 9207   1.362   6.318   2.177  3.2106  2.5969  0.7088
 3081TIP3    H2 9208   1.483   6.234   2.142  0.3952 -1.9592  1.1968
 3082TIP3   OH2 9209   4.386   1.492   5.755  0.0188  0.1652  0.1778
 3082TIP3    H1 9210   4.427   1.504   5.841  1.4299  0.1465 -0.4696
 3082TIP3    H2 9211   4.428   1.414   5.719  1.2895  1.5675 -1.5445
 3083TIP3   OH2 9212   1.017   6.550   5.266 -0.1847 -0.1488 -0.1089
 3083TIP3    H1 9213   1.107   6.536   5.296 -0.1936 -0.3066 -0.1521
 3083TIP3    H2 9214   0.987   6.627   5.314 -0.0017 -0.0524 -0.1474
 3084TIP3   OH2 9215   6.141   6.721   2.030  0.1112 -0.6215  0.2518
 3084TIP3    H1 9216   6.073   6.788   2.017 -1.5227 -2.2116  0.1886
 3084TIP3    H2 9217   6.103   6.660   2.092  1.3417 -1.7958 -0.1033
 3085TIP3   OH2 9218   0.843   2.429   3.584  0.4504 -0.0008  0.2350
 3085TIP3    H1 9219   0.871   2.515   3.553 -0.5595  1.3110  2.6786
 3085TIP3    H2 9220   0.799   2.446   3.667 -1.3535 -2.7119 -0.0138
 3086TIP3   OH2 9221   4.271   1.883   0.397  0.2575  0.2079 -0.4713
 3086TIP3    H1 9222   4.262   1.931   0.314  0.2183  0.4761 -0.3139
 3086TIP3    H2 9223   4.286   1.951   0.462  1.2687 -0.0753 -0.3999
 3087TIP3   OH2 9224   2.136   3.237   5.034 -0.4330  0.4978  0.4434
 3087TIP3    H1 9225   2.079   3.182   4.981 -1.0211 -0.2059  1.7636
 3087TIP3    H2 9226   2.189   3.175   5.084  0.1661  1.1494  0.6396
 3088TIP3   OH2 9227   6.142   2.412   0.071  0.6233 -0.3058  0.1244
 3088TIP3    H1 9228   6.115   2.481   0.133  0.0197  0.8400 -1.3633
 3088TIP3    H2 9229   6.061   2.375   0.038  0.9452 -0.8968 -0.0227
 3089TIP3   OH2 9230   4.674   0.412   2.772 -0.2794  0.8837  0.2006
 3089TIP3    H1 9231   4.615   0.486   2.784 -2.2519 -0.2552 -1.6688
 3089TIP3    H2 9232   4.644   0.371   2.691  3.0898  0.1509 -0.7973
 3090TIP3   OH2 9233   0.040   5.416   1.093  0.2388  0.5402  0.0816
 3090TIP3    H1 9234  -0.015   5.337   1.094 -1.5405  1.7347  1.4016
 3090TIP3    H2 9235   0.096   5.406   1.170 -0.4172  0.8425  0.6039
 3091TIP3   OH2 9236   4.518   2.024   3.994 -0.4017 -0.7438 -0.0215
 3091TIP3    H1 9237   4.425   2.017   4.014 -0.4280  0.6877  0.4925
 3091TIP3    H2 9238   4.555   1.940   4.022 -1.1644 -0.4428  2.0493
 3092TIP3   OH2 9239   4.428   3.215   1.431 -0.1434  0.0658 -0.0352
 3092TIP3    H1 9240   4.518   3.193   1.455  0.8016  2.3901 -1.0654
 3092TIP3    H2 9241   4.432   3.236   1.338 -0.9639  3.4395  0.5555
 3093TIP3   OH2 9242   3.403   6.137   4.790  0.5062  0.0399  0.1224
 3093TIP3    H1 9243   3.415   6.164   4.699 -0.5067 -1.1641 -0.4104
 3093TIP3    H2 9244   3.392   6.042   4.784 -0.6130  0.0686  1.3867
 3094TIP3   OH2 9245   5.102   2.332   3.452 -0.6616  0.5307  0.1648
 3094TIP3    H1 9246   5.189   2.371   3.440  0.2251 -0.9049  1.5880
 3094TIP3    H2 9247   5.042   2.407   3.447  0.8374  1.8901  1.3664
 3095TIP3   OH2 9248   0.875   1.532   3.498  0.5457  0.2352  0.1302
 3095TIP3    H1 9249   0.824   1.452   3.485 -0.1891  0.6713  0.2312
 3095TIP3    H2 9250   0.956   1.503   3.540  0.6309 -0.5436 -0.5519
 3096TIP3   OH2 9251   3.312   1.034   0.423  0.7031 -0.2277 -0.5130
 3096TIP3    H1 9252   3.322   0.940   0.411  0.1155 -0.2507 -0.8544
 3096TIP3    H2 9253   3.282   1.043   0.514  0.7957 -0.3647 -0.4681
 3097TIP3   OH2 9254   0.716   6.619   5.085  0.2170 -0.2406  0.3132
 3097TIP3    H1 9255   0.632   6.651   5.120 -1.4279 -1.3664 -2.3022
 3097TIP3    H2 9256   0.751   6.694   5.038 -0.6381 -0.4804 -0.7417
 3098TIP3   OH2 9257   4.436   5.050   0.287  0.0264  0.1493  0.3289
 3098TIP3    H1 9258   4.506   5.009   0.338 -0.9410 -2.7151 -0.4944
 3098TIP3    H2 9259   4.355   5.011   0.321 -0.9049  0.7902 -1.0720
 3099TIP3   OH2 9260   6.284   4.416   0.270  0.3435 -0.6557 -0.0472
 3099TIP3    H1 9261   6.207   4.417   0.213  0.0299 -0.4668  0.3797
 3099TIP3    H2 9262   6.358   4.418   0.209  0.0125 -0.2981 -0.4478
 3100TIP3   OH2 9263   0.261   5.033   1.460 -0.0705  0.2845 -0.0401
 3100TIP3    H1 9264   0.253   4.947   1.502 -0.7010  0.7291  0.7761
 3100TIP3    H2 9265   0.347   5.031   1.418  0.9535  0.0861  1.9378
 3101TIP3   OH2 9266   3.232   4.090   1.604  0.5810 -0.4063  0.1898
 3101TIP3    H1 9267   3.251   4.007   1.647 -0.0633 -0.3907  0.5229
 3101TIP3    H2 9268   3.174   4.136   1.665 -3.0810 -1.7257 -1.9923
 3102TIP3   OH2 9269   5.950   0.528   2.104 -0.8176 -0.3130 -0.6130
 3102TIP3    H1 9270   5.884   0.485   2.050 -0.7265 -1.5552  0.2471
 3102TIP3    H2 9271   6.021   0.465   2.111 -0.8152 -0.1711  0.9415
 3103TIP3   OH2 9272   0.997   4.560   3.636 -0.0360 -0.2674 -0.1801
 3103TIP3    H1 9273   1.086   4.562   3.672 -0.2285  1.4156  0.2866
 3103TIP3    H2 9274   0.989   4.643   3.588 -1.3917 -0.3395 -0.1117
 3104TIP3   OH2 9275   2.347   5.631  -0.008  0.2919 -0.4828 -0.2240
 3104TIP3    H1 9276   2.252   5.630  -0.005  0.2720 -0.5270 -0.7712
 3104TIP3    H2 9277   2.371   5.718   0.024  0.1310 -0.9448  1.2181
 3105TIP3   OH2 9278   1.805   3.917   0.170 -0.0471  0.5877 -0.2200
 3105TIP3    H1 9279   1.777   3.977   0.101  0.9295  1.4926  0.1316
 3105TIP3    H2 9280   1.728   3.906   0.225 -0.6908  0.2482 -1.1823
 3106TIP3   OH2 9281   2.760   3.064   5.825  0.5999  0.0549  0.5220
 3106TIP3    H1 9282   2.707   3.125   5.775  1.2117  3.4696  3.6161
 3106TIP3    H2 9283   2.696   3.009   5.872 -0.0449  0.4282  0.0860
 3107TIP3   OH2 9284   1.447   2.076   1.374  0.1043 -0.0902  0.0370
 3107TIP3    H1 9285   1.389   2.058   1.448 -0.3467 -2.1424 -0.7673
 3107TIP3    H2 9286   1.484   1.991   1.351  0.7779  0.6317 -1.6694
 3108TIP3   OH2 9287   6.283   1.841   4.135  0.2565 -0.3339 -0.3335
 3108TIP3    H1 9288   6.244   1.771   4.082  0.6771 -0.2332 -0.7812
 3108TIP3    H2 9289   6.377   1.824   4.131  0.2225 -1.1999  1.6146
 3109TIP3   OH2 9290   0.300   0.284   4.674 -0.2745  0.3454  0.2785
 3109TIP3    H1 9291   0.307   0.236   4.757  1.8503 -0.5016 -0.3060
 3109TIP3    H2 9292   0.317   0.217   4.607 -0.0669  1.3820 -0.7306
 3110TIP3   OH2 9293   5.875   5.209   1.424  0.8079 -0.0309 -0.7894
 3110TIP3    H1 9294   5.816   5.141   1.459  0.7092  1.1912  1.6478
 3110TIP3    H2 9295   5.926   5.164   1.357 -0.8219 -1.9073 -0.8754
 3111TIP3   OH2 9296   0.039   3.884   3.671  0.4355  0.0673 -0.0336
 3111TIP3    H1 9297   0.047   3.808   3.728  1.8364 -0.5989 -1.0569
 3111TIP3    H2 9298   0.106   3.944   3.703 -0.0582  0.5062  0.1980
 3112TIP3   OH2 9299   0.428   0.823   0.750 -0.2949  0.0597 -0.2224
 3112TIP3    H1 9300   0.473   0.758   0.697  0.5019 -0.7729  1.3925
 3112TIP3    H2 9301   0.384   0.771   0.818 -0.5829  1.1236  0.4228
 3113TIP3   OH2 9302   0.767   4.795   2.397 -0.5313 -0.3302  0.0414
 3113TIP3    H1 9303   0.832   4.856   2.432 -1.9456  0.6560  1.0988
 3113TIP3    H2 9304   0.699   4.791   2.465 -2.4170  0.0521 -1.7193
 3114TIP3   OH2 9305   3.119   3.337   0.553 -0.0538  0.0455  0.2864
 3114TIP3    H1 9306   3.103   3.245   0.572  0.6621 -0.6096 -1.9728
 3114TIP3    H2 9307   3.146   3.338   0.461  0.0012  2.5101  0.2692
 3115TIP3   OH2 9308   1.793   2.950   1.259  0.0070  0.7022 -0.7747
 3115TIP3    H1 9309   1.698   2.945   1.250 -0.2520  0.9960  1.3455
 3115TIP3    H2 9310   1.827   2.906   1.181 -1.8707 -0.6212 -0.9072
 3116TIP3   OH2 9311   1.496   5.094   5.145  0.1866  0.4756 -0.3570
 3116TIP3    H1 9312   1.484   5.060   5.233  1.2712  0.2012 -0.2918
 3116TIP3    H2 9313   1.591   5.087   5.130 -0.0322  0.1128 -1.6972
 3117TIP3   OH2 9314   4.547   3.023   4.530 -0.3180  0.2947 -0.5903
 3117TIP3    H1 9315   4.538   3.035   4.624  0.5179  0.9063 -0.5855
 3117TIP3    H2 9316   4.632   3.060   4.508 -0.7149  0.6257 -1.6654
 3118TIP3   OH2 9317   6.292   2.554   2.250  0.3955  0.1078  0.1591
 3118TIP3    H1 9318   6.264   2.617   2.184  0.8552  0.0664 -0.0829
 3118TIP3    H2 9319   6.215   2.542   2.306 -0.3708 -0.6613 -0.9889
 3119TIP3   OH2 9320   3.722   0.693   3.179  0.0287 -0.2771  0.0135
 3119TIP3    H1 9321   3.789   0.744   3.224  0.4135 -0.9675  0.2515
 3119TIP3    H2 9322   3.768   0.612   3.153 -0.3988 -0.2375 -0.8917
 3120TIP3   OH2 9323   7.002   3.716   4.026 -1.1905  0.0270  0.8147
 3120TIP3    H1 9324   7.010   3.652   4.096 -1.0628  1.5315  2.2192
 3120TIP3    H2 9325   6.910   3.741   4.025 -0.8901  1.2717  1.6489
 3121TIP3   OH2 9326   5.929   3.085   2.848 -0.2367  0.1490  0.1738
 3121TIP3    H1 9327   5.909   3.179   2.845  0.7863  0.3550 -1.3066
 3121TIP3    H2 9328   5.844   3.043   2.861 -0.5171  1.3171  2.7808
 3122TIP3   OH2 9329   6.554   2.241   2.209 -0.2370  0.2872 -0.3130
 3122TIP3    H1 9330   6.488   2.274   2.147 -0.8066 -1.0139 -0.4402
 3122TIP3    H2 9331   6.529   2.280   2.293 -1.3449 -0.3648 -0.3103
 3123TIP3   OH2 9332   5.190   1.080   5.382 -0.2074  0.1466 -0.0459
 3123TIP3    H1 9333   5.135   1.067   5.460 -0.2098  0.6772  0.0505
 3123TIP3    H2 9334   5.276   1.048   5.407 -0.4467 -0.6074 -0.1664
 3124TIP3   OH2 9335   1.731   5.696   2.693  0.1459  0.5632 -0.0662
 3124TIP3    H1 9336   1.742   5.684   2.787 -1.6494  2.1637  0.4135
 3124TIP3    H2 9337   1.678   5.622   2.665 -0.3009  0.7043  0.4040
 3125TIP3   OH2 9338   0.605   4.440   0.130  0.5931 -1.1719  0.0450
 3125TIP3    H1 9339   0.567   4.386   0.060 -0.4918 -2.4196  1.5312
 3125TIP3    H2 9340   0.622   4.379   0.201 -0.0863  0.3387  1.5694
 3126TIP3   OH2 9341   1.155   4.054   3.269 -0.2220  0.2083  0.0133
 3126TIP3    H1 9342   1.196   4.011   3.344  0.7996  0.1315 -0.5684
 3126TIP3    H2 9343   1.144   3.985   3.205 -0.5377  0.3926 -0.1306
 3127TIP3   OH2 9344   6.873   3.644   4.941  0.4017 -0.2019  0.5085
 3127TIP3    H1 9345   6.843   3.578   5.003  0.2284 -0.9127 -0.3265
 3127TIP3    H2 9346   6.796   3.665   4.888  0.6904 -0.0181  0.1522
 3128TIP3   OH2 9347   1.430   5.574   4.293 -0.2833 -0.0749  0.2582
 3128TIP3    H1 9348   1.510   5.609   4.334 -0.2203  1.4188 -1.0684
 3128TIP3    H2 9349   1.458   5.491   4.254  0.8131  0.7208 -0.7160
 3129TIP3   OH2 9350   4.510   1.939   4.582 -0.1570 -0.6516 -0.7034
 3129TIP3    H1 9351   4.423   1.942   4.623 -0.6634  0.7376 -1.8224
 3129TIP3    H2 9352   4.526   2.028   4.552  1.8430 -0.7858 -0.2023
 3130TIP3   OH2 9353   3.034   6.301   5.296  0.2502 -0.2968  0.5331
 3130TIP3    H1 9354   3.115   6.254   5.316 -0.5592 -1.1375  1.9585
 3130TIP3    H2 9355   3.059   6.394   5.301  1.3585 -0.5396 -0.1471
 3131TIP3   OH2 9356   5.487   3.754   4.071  0.2659 -0.1652  0.1050
 3131TIP3    H1 9357   5.510   3.692   4.002  0.2105  0.5907 -0.6089
 3131TIP3    H2 9358   5.430   3.817   4.028  1.7001  1.3607  0.3621
 3132TIP3   OH2 9359   1.929   2.987   0.632 -0.0254 -0.6630 -0.2565
 3132TIP3    H1 9360   1.934   3.021   0.542  0.0266 -0.0579 -0.0323
 3132TIP3    H2 9361   1.970   3.056   0.685 -2.3902  0.1976  0.5469
 3133TIP3   OH2 9362   5.314   0.306   5.873  0.3753  0.8411  0.7502
 3133TIP3    H1 9363   5.303   0.349   5.789  2.0623 -0.3257 -0.1168
 3133TIP3    H2 9364   5.243   0.242   5.877  0.7536  0.3579 -0.1489
 3134TIP3   OH2 9365   5.925   5.143   4.581  0.1251 -1.0487  1.1949
 3134TIP3    H1 9366   5.936   5.192   4.663 -2.3096  1.0239  0.3971
 3134TIP3    H2 9367   5.872   5.068   4.605 -3.0392  1.0214  1.1910
 3135TIP3   OH2 9368   7.130   6.732   5.370  0.2346  0.8333 -0.6844
 3135TIP3    H1 9369   7.066   6.787   5.415  0.6415  0.5915  0.2267
 3135TIP3    H2 9370   7.187   6.700   5.440  1.3571  1.0496 -1.4767
 3136TIP3   OH2 9371   5.298   3.931   3.929 -0.0447  0.1629  0.1495
 3136TIP3    H1 9372   5.205   3.915   3.920  0.1598 -0.6167 -0.6525
 3136TIP3    H2 9373   5.340   3.871   3.867  1.1675 -1.6584  2.5642
 3137TIP3   OH2 9374   5.503   3.559   0.332  0.3990 -0.1762  0.1299
 3137TIP3    H1 9375   5.431   3.568   0.395 -0.4031 -1.3681 -0.5808
 3137TIP3    H2 9376   5.467   3.593   0.250  1.0421  0.2748  0.0313
 3138TIP3   OH2 9377   2.600   1.333   0.253 -0.2904  0.0966  0.0524
 3138TIP3    H1 9378   2.587   1.404   0.317  0.1848 -0.1028  0.3806
 3138TIP3    H2 9379   2.545   1.357   0.179  1.8867  2.2192 -0.9808
 3139TIP3   OH2 9380   4.649   6.101   0.258 -0.2389 -0.1664 -0.3231
 3139TIP3    H1 9381   4.698   6.140   0.331 -1.3550  1.4792 -0.4126
 3139TIP3    H2 9382   4.575   6.057   0.300 -0.1488 -0.3633 -0.3717
 3140TIP3   OH2 9383   7.057   5.426   1.370 -0.3470 -0.0808  0.1805
 3140TIP3    H1 9384   7.064   5.518   1.346 -1.7604 -0.3192 -1.3537
 3140TIP3    H2 9385   7.129   5.411   1.431  0.3556  1.8489 -0.1180
 3141TIP3   OH2 9386   5.874   5.499   4.485 -0.0518 -0.0746  0.1967
 3141TIP3    H1 9387   5.957   5.470   4.446 -0.3762 -0.6210 -0.1011
 3141TIP3    H2 9388   5.900   5.551   4.561  0.6923  2.7494 -1.8086
 3142TIP3   OH2 9389   4.230   1.104   3.087  0.5068  0.4698 -0.1955
 3142TIP3    H1 9390   4.263   1.066   3.168 -2.6115  0.7071  1.3459
 3142TIP3    H2 9391   4.277   1.187   3.078 -0.1851  1.2086  2.3300
 3143TIP3   OH2 9392   6.601   2.054   3.820  0.3633 -0.0052 -1.0003
 3143TIP3    H1 9393   6.540   1.982   3.803  0.2411 -0.2991  0.5241
 3143TIP3    H2 9394   6.591   2.112   3.745 -1.3803 -0.3385 -1.0734
 3144TIP3   OH2 9395   0.613   1.638   5.052  0.2840  0.2434  0.3072
 3144TIP3    H1 9396   0.535   1.680   5.017  0.0655 -1.3503 -1.3190
 3144TIP3    H2 9397   0.582   1.554   5.086  1.0551  0.2577  1.0770
 3145TIP3   OH2 9398   0.374   3.915   5.139 -0.2334 -0.3776  0.0514
 3145TIP3    H1 9399   0.339   3.997   5.173 -1.1569 -1.5435  2.0781
 3145TIP3    H2 9400   0.414   3.873   5.215 -0.4948 -2.1633 -0.7555
 3146TIP3   OH2 9401   2.489   1.446   4.466  0.2932 -0.0892  0.0195
 3146TIP3    H1 9402   2.444   1.529   4.481  0.8740  0.0721  0.9507
 3146TIP3    H2 9403   2.562   1.468   4.408  0.4001  0.0270  0.2016
 3147TIP3   OH2 9404   1.647   2.861   3.859 -0.5993 -0.2615 -0.5674
 3147TIP3    H1 9405   1.710   2.796   3.891 -0.4564  0.1932  0.1042
 3147TIP3    H2 9406   1.571   2.809   3.833 -0.3321 -0.7357 -0.4183
 3148TIP3   OH2 9407   0.991   0.362   4.002  0.0055 -0.5215  0.0048
 3148TIP3    H1 9408   0.936   0.440   4.006  1.3625  0.4335  0.8382
 3148TIP3    H2 9409   0.953   0.303   4.067  0.0506  0.2132  0.7231
 3149TIP3   OH2 9410   1.717   0.777   5.697  0.0216 -0.1277 -0.2895
 3149TIP3    H1 9411   1.669   0.718   5.755  0.0590 -0.0034 -0.1311
 3149TIP3    H2 9412   1.658   0.792   5.624 -0.7839  1.1862  0.5932
 3150TIP3   OH2 9413   4.578   3.850   5.028 -0.2617 -0.1133  0.3701
 3150TIP3    H1 9414   4.524   3.810   5.096  2.4335 -2.7909  1.1488
 3150TIP3    H2 9415   4.659   3.875   5.073  0.3117  1.1190 -1.2426
 3151TIP3   OH2 9416   0.691   2.392   0.852  0.1576 -0.3596  0.0031
 3151TIP3    H1 9417   0.782   2.402   0.822 -0.0653 -1.0318 -0.9294
 3151TIP3    H2 9418   0.667   2.479   0.884  1.3949 -0.3628  1.0381
 3152TIP3   OH2 9419   4.643   3.956   3.502  0.5272 -0.4658  0.1207
 3152TIP3    H1 9420   4.646   4.051   3.494 -0.1827 -0.3449  1.0578
 3152TIP3    H2 9421   4.635   3.925   3.412  1.9248  0.2833 -0.2953
 3153TIP3   OH2 9422   5.636   3.919   1.499  0.4135  0.0333 -0.0932
 3153TIP3    H1 9423   5.587   3.875   1.568  0.8357 -3.2712 -1.7168
 3153TIP3    H2 9424   5.727   3.895   1.516  0.6784  0.3840 -0.9636
 3154TIP3   OH2 9425   3.934   6.648   2.987  0.6131 -0.3610  0.2611
 3154TIP3    H1 9426   3.846   6.612   2.994 -0.0802  1.1814  0.0649
 3154TIP3    H2 9427   3.954   6.683   3.074  0.4782  0.4477 -0.0217
 3155TIP3   OH2 9428   1.319   1.546   0.756  0.5476  0.5716  0.4300
 3155TIP3    H1 9429   1.317   1.640   0.776  0.4369  0.8310 -0.7477
 3155TIP3    H2 9430   1.406   1.517   0.783  0.5883  1.0175  0.7868
 3156TIP3   OH2 9431   6.429   6.589   2.351 -0.3739  0.2015 -0.5344
 3156TIP3    H1 9432   6.460   6.557   2.266  1.6951  0.6259  0.0164
 3156TIP3    H2 9433   6.357   6.530   2.374 -0.0331 -0.7968 -1.9222
 3157TIP3   OH2 9434   3.327   2.563   4.960  0.3372  0.5542 -0.5500
 3157TIP3    H1 9435   3.235   2.586   4.948  0.3251  0.5550 -0.4524
 3157TIP3    H2 9436   3.326   2.493   5.025  0.4793  1.1849  0.1319
 3158TIP3   OH2 9437   4.883   4.009   5.266 -0.0120  0.2903  0.3830
 3158TIP3    H1 9438   4.946   4.052   5.325 -0.6501  0.5994  0.8444
 3158TIP3    H2 9439   4.797   4.035   5.300 -0.4178  1.7306 -1.5625
 3159TIP3   OH2 9440   6.619   5.295   2.363  0.6345  0.0890  0.3704
 3159TIP3    H1 9441   6.611   5.375   2.313 -1.1072  0.4132  1.0810
 3159TIP3    H2 9442   6.581   5.227   2.307  0.4233  0.1170  0.4740
 3160TIP3   OH2 9443   4.918   0.319   5.679  0.2146 -0.1957  0.3373
 3160TIP3    H1 9444   4.918   0.281   5.767  0.1487  0.8969  0.8304
 3160TIP3    H2 9445   4.920   0.244   5.620 -0.6957 -0.9686  1.2570
 3161TIP3   OH2 9446   2.529   0.426   1.830  0.8627 -0.4326 -0.4866
 3161TIP3    H1 9447   2.598   0.359   1.830  0.7603 -0.5525  0.8299
 3161TIP3    H2 9448   2.570   0.501   1.788  1.9171 -0.4182  0.5109
 3162TIP3   OH2 9449   3.504   2.425   3.971 -0.1410 -0.3945 -0.2982
 3162TIP3    H1 9450   3.513   2.336   3.936 -0.9596 -0.4623 -0.3518
 3162TIP3    H2 9451   3.592   2.462   3.966 -0.0006 -0.8333 -1.2747
 3163TIP3   OH2 9452   5.760   0.365   0.662 -0.0910 -0.2354  0.3876
 3163TIP3    H1 9453   5.700   0.390   0.591  1.1464  0.6776 -0.3863
 3163TIP3    H2 9454   5.817   0.441   0.672  1.3809 -1.3353  0.6089
 3164TIP3   OH2 9455   0.831   0.942   4.515 -0.4855 -0.4106 -0.1580
 3164TIP3    H1 9456   0.774   1.011   4.549  0.3049  0.5954 -0.8389
 3164TIP3    H2 9457   0.878   0.910   4.592  0.9522  1.5354 -0.1525
 3165TIP3   OH2 9458   2.761   5.495   1.150  0.2173  0.7847 -0.1104
 3165TIP3    H1 9459   2.801   5.573   1.189 -1.6818  1.2239  1.1220
 3165TIP3    H2 9460   2.682   5.528   1.107 -1.0811 -0.5054  1.1482
 3166TIP3   OH2 9461   6.032   0.378   5.277 -0.5530  0.1606  0.5336
 3166TIP3    H1 9462   5.992   0.430   5.207  1.0424 -0.4227 -0.8689
 3166TIP3    H2 9463   6.107   0.335   5.235 -0.0550 -0.8837  2.4047
 3167TIP3   OH2 9464   5.913   3.906   1.976 -0.7653 -0.1406 -0.2601
 3167TIP3    H1 9465   5.900   3.904   2.071  2.3802 -1.2511  0.2497
 3167TIP3    H2 9466   5.925   3.815   1.951  0.9248  0.3041 -1.2759
 3168TIP3   OH2 9467   7.070   6.535   3.010 -0.3272 -0.0181 -0.3567
 3168TIP3    H1 9468   7.085   6.457   2.957 -1.4254 -0.2385 -0.3723
 3168TIP3    H2 9469   7.136   6.597   2.981  0.4270 -0.8621 -0.4963
 3169TIP3   OH2 9470   4.503   0.464   1.937 -0.6122  0.2927  0.0176
 3169TIP3    H1 9471   4.598   0.470   1.937 -0.3763 -2.0696 -0.8437
 3169TIP3    H2 9472   4.481   0.422   2.020 -0.7576 -0.2807 -0.3001
 3170TIP3   OH2 9473   3.432   5.336   2.559  0.0764 -0.1872  0.1541
 3170TIP3    H1 9474   3.414   5.413   2.506 -0.7978 -1.4744 -1.5142
 3170TIP3    H2 9475   3.467   5.371   2.641 -1.3953  2.0202 -0.0774
 3171TIP3   OH2 9476   0.542   5.144   5.727  0.0372 -0.1441 -0.1629
 3171TIP3    H1 9477   0.525   5.144   5.633  0.4126 -0.8515 -0.2407
 3171TIP3    H2 9478   0.535   5.052   5.752 -0.8569  0.1334  0.6558
 3172TIP3   OH2 9479   2.274   2.842   4.694  0.7269  0.8140 -0.0437
 3172TIP3    H1 9480   2.323   2.849   4.776 -0.2479  2.7896  0.4305
 3172TIP3    H2 9481   2.332   2.881   4.628  0.9990  0.3658 -0.0758
 3173TIP3   OH2 9482   3.341   4.533   3.350 -0.2231  0.0643  0.5869
 3173TIP3    H1 9483   3.396   4.456   3.335 -1.5119 -0.4597 -2.0314
 3173TIP3    H2 9484   3.251   4.501   3.341 -0.8752  1.4746  1.6607
 3174TIP3   OH2 9485   3.430   3.208   0.319 -0.1244 -0.5977 -0.7923
 3174TIP3    H1 9486   3.500   3.261   0.280  1.9376 -0.0671  3.1449
 3174TIP3    H2 9487   3.445   3.120   0.283  0.0225  0.2659 -3.0092
 3175TIP3   OH2 9488   1.925   2.150   4.270 -0.6519  0.5882 -0.7173
 3175TIP3    H1 9489   1.950   2.176   4.358  0.2180 -1.6946 -0.2443
 3175TIP3    H2 9490   1.998   2.178   4.215  0.1140 -0.4925 -0.2695
 3176TIP3   OH2 9491   0.709   6.107   2.720 -0.6860  0.8188  0.8762
 3176TIP3    H1 9492   0.754   6.156   2.789 -1.2605  2.9178 -0.1594
 3176TIP3    H2 9493   0.757   6.128   2.640 -1.6201  0.5745  0.2326
 3177TIP3   OH2 9494   1.941   0.634   3.244 -0.4882 -0.2010 -0.0283
 3177TIP3    H1 9495   2.026   0.620   3.286 -1.3212  1.5886  2.4904
 3177TIP3    H2 9496   1.899   0.547   3.245  0.6246 -0.7504  0.2951
 3178TIP3   OH2 9497   3.634   6.074   0.284  0.1975 -0.1142  0.2473
 3178TIP3    H1 9498   3.630   5.987   0.244  0.0725  0.6351 -1.4526
 3178TIP3    H2 9499   3.581   6.129   0.226  1.8685  1.5019  0.1811
 3179TIP3   OH2 9500   6.153   1.665   3.782 -0.0134  0.2623 -0.1585
 3179TIP3    H1 9501   6.175   1.592   3.725 -0.4516 -0.1681  0.2136
 3179TIP3    H2 9502   6.086   1.630   3.841 -0.3759  1.0203 -0.1046
 3180TIP3   OH2 9503   4.083   3.754   2.039  0.5339 -0.5994  0.0985
 3180TIP3    H1 9504   4.025   3.678   2.031  1.2584 -1.4317  1.9661
 3180TIP3    H2 9505   4.156   3.722   2.092  1.4869  1.0810 -0.1327
 3181TIP3   OH2 9506   0.123   0.563   5.362  0.3040 -0.4840 -0.5108
 3181TIP3    H1 9507   0.162   0.491   5.411  2.0285  1.5876  1.3782
 3181TIP3    H2 9508   0.181   0.637   5.378 -2.3072  1.8089 -0.8896
 3182TIP3   OH2 9509   4.614   4.719   4.039  0.5215 -0.3259  0.0613
 3182TIP3    H1 9510   4.565   4.640   4.059 -1.8687  1.2066  0.6265
 3182TIP3    H2 9511   4.560   4.791   4.073  2.4921  1.5887 -0.5820
 3183TIP3   OH2 9512   4.704   0.220   2.179  0.2743 -0.1019 -0.4938
 3183TIP3    H1 9513   4.634   0.186   2.235 -0.9011  0.0770 -1.8209
 3183TIP3    H2 9514   4.687   0.182   2.093  1.2142  0.7610 -1.0847
 3184TIP3   OH2 9515   1.952   6.634   5.523  0.1272 -0.2321  0.6098
 3184TIP3    H1 9516   1.890   6.660   5.591  0.3545 -1.6491  1.3921
 3184TIP3    H2 9517   1.973   6.543   5.543  0.4657 -0.5830 -1.1619
 3185TIP3   OH2 9518   3.140   6.488   4.465 -0.2080  0.6634 -0.2147
 3185TIP3    H1 9519   3.133   6.514   4.557 -0.3255 -1.3939  0.4141
 3185TIP3    H2 9520   3.130   6.569   4.416  0.8566  1.9655  1.6161
 3186TIP3   OH2 9521   2.875   2.438   2.359  0.1096  0.0597 -0.3696
 3186TIP3    H1 9522   2.922   2.386   2.294  0.8846 -0.4043  0.5394
 3186TIP3    H2 9523   2.920   2.523   2.358 -1.7371  1.1357 -2.5280
 3187TIP3   OH2 9524   1.217   4.526   2.746  0.2701 -0.6047 -0.0098
 3187TIP3    H1 9525   1.188   4.479   2.667 -0.3502 -0.3067  0.0355
 3187TIP3    H2 9526   1.310   4.505   2.754  0.8882  1.0522 -2.0229
 3188TIP3   OH2 9527   4.936   3.354   2.491  0.0720  0.5713  0.9178
 3188TIP3    H1 9528   5.027   3.354   2.462 -0.0323  1.5125  0.5462
 3188TIP3    H2 9529   4.887   3.323   2.415  0.0413  0.5622  0.9415
 3189TIP3   OH2 9530   1.826   5.191   5.491 -0.0050 -0.0068  0.2065
 3189TIP3    H1 9531   1.912   5.171   5.455 -0.1169 -1.1705  0.5287
 3189TIP3    H2 9532   1.822   5.140   5.572 -0.1489  1.7520  1.3502
 3190TIP3   OH2 9533   1.165   5.018   2.028  0.5070  0.1536  0.2974
 3190TIP3    H1 9534   1.069   5.016   2.031  0.4741 -3.3975  1.3639
 3190TIP3    H2 9535   1.185   5.069   1.949 -2.2778  0.4821 -0.3012
 3191TIP3   OH2 9536   1.451   2.897   1.592  0.3477 -0.2384  0.0041
 3191TIP3    H1 9537   1.420   2.820   1.545  1.0337  0.4091 -1.5716
 3191TIP3    H2 9538   1.471   2.961   1.524 -0.1580  1.3381  1.2558
 3192TIP3   OH2 9539   0.104   0.141   1.318 -0.7712  0.5079  0.1466
 3192TIP3    H1 9540   0.068   0.107   1.400  1.4034 -2.5124  0.0252
 3192TIP3    H2 9541   0.172   0.203   1.346 -0.4415 -0.0607  0.6383
 3193TIP3   OH2 9542   2.464   2.642   4.120 -0.0041  0.1370  0.3732
 3193TIP3    H1 9543   2.548   2.688   4.115 -0.0632  0.1758 -0.6086
 3193TIP3    H2 9544   2.410   2.684   4.052 -1.2515  0.9408  1.8119
 3194TIP3   OH2 9545   2.789   0.263   1.816  0.0968  0.2358 -0.1339
 3194TIP3    H1 9546   2.877   0.228   1.799 -0.8445 -2.6779  0.5795
 3194TIP3    H2 9547   2.799   0.312   1.897  1.1208  0.2236 -0.2287
 3195TIP3   OH2 9548   2.095   5.571   2.785  0.6011  0.5811 -0.2261
 3195TIP3    H1 9549   2.060   5.608   2.867 -1.3602 -1.2686 -0.1260
 3195TIP3    H2 9550   2.183   5.540   2.808  0.5250  1.1242  0.8555
 3196TIP3   OH2 9551   2.344   1.763   3.522  0.5438  0.3338 -0.7546
 3196TIP3    H1 9552   2.267   1.749   3.467 -0.4981  0.3953  0.6353
 3196TIP3    H2 9553   2.395   1.829   3.475 -0.7932  1.1106 -1.1932
 3197TIP3   OH2 9554   5.011   0.108   0.321 -0.0070 -0.2983 -0.0800
 3197TIP3    H1 9555   4.994   0.145   0.235  1.5136  0.9686  0.1165
 3197TIP3    H2 9556   4.972   0.169   0.383  0.0796 -0.4824  0.1621
 3198TIP3   OH2 9557   1.858   3.342   0.739 -0.8912  0.1056 -0.3790
 3198TIP3    H1 9558   1.912   3.303   0.809 -1.1985 -0.2215 -0.3233
 3198TIP3    H2 9559   1.800   3.402   0.785 -0.7350  0.2822 -0.4125
 3199TIP3   OH2 9560   5.576   3.641   3.262 -0.0261 -0.2519 -0.7952
 3199TIP3    H1 9561   5.586   3.633   3.167  0.3555  2.6793 -1.0787
 3199TIP3    H2 9562   5.653   3.598   3.298  0.1351 -0.8562 -1.8023
 3200TIP3   OH2 9563   1.096   4.026   4.770  0.1334  0.4950 -0.1153
 3200TIP3    H1 9564   1.150   3.952   4.741  0.8694  1.8009 -2.3349
 3200TIP3    H2 9565   1.024   4.030   4.708 -0.7703  0.7117  0.9176
 3201TIP3   OH2 9566   5.387   3.061   3.652  0.1587  0.0803  0.4971
 3201TIP3    H1 9567   5.363   3.030   3.564  0.1202  0.7923  0.2449
 3201TIP3    H2 9568   5.393   2.982   3.705  2.3479 -0.6230 -0.6497
 3202TIP3   OH2 9569   1.501   1.912   4.739  0.7114 -0.2887  0.2122
 3202TIP3    H1 9570   1.504   1.989   4.797 -0.8734 -1.2750  1.7091
 3202TIP3    H2 9571   1.553   1.938   4.663  2.2094  1.3954  1.6852
 3203TIP3   OH2 9572   2.701   2.991   4.075 -0.2035 -0.1250 -0.5742
 3203TIP3    H1 9573   2.692   3.007   4.169  1.6761  0.9000 -0.5231
 3203TIP3    H2 9574   2.674   2.900   4.064  0.5853 -0.6255  1.1541
 3204TIP3   OH2 9575   3.698   0.467   4.015 -0.0518  0.2347  0.1290
 3204TIP3    H1 9576   3.673   0.451   3.924  0.5255  1.0930 -0.1855
 3204TIP3    H2 9577   3.656   0.395   4.063  0.3743 -0.7599 -0.9134
 3205TIP3   OH2 9578   4.371   3.822   0.381 -0.5649 -0.3369  0.7333
 3205TIP3    H1 9579   4.305   3.879   0.422  0.5941  1.7814 -0.2140
 3205TIP3    H2 9580   4.388   3.862   0.296  3.0036  0.1052  1.4901
 3206TIP3   OH2 9581   3.467   5.348   2.153  0.0547 -0.6448 -0.5318
 3206TIP3    H1 9582   3.381   5.381   2.179 -0.1236  0.0846 -1.9318
 3206TIP3    H2 9583   3.473   5.261   2.194  0.3673  0.8371  2.9297
 3207TIP3   OH2 9584   3.023   1.820   1.495 -0.1041  0.1912 -0.0068
 3207TIP3    H1 9585   3.093   1.880   1.470  0.6166 -0.1582  1.0689
 3207TIP3    H2 9586   3.048   1.736   1.457  1.9912 -0.8148  3.1891
 3208TIP3   OH2 9587   7.026   4.094   1.730 -0.0149  0.5298 -0.3636
 3208TIP3    H1 9588   7.003   4.112   1.821 -0.6405  0.0124 -0.4125
 3208TIP3    H2 9589   7.037   4.181   1.691 -0.8428  0.7785 -0.0680
 3209TIP3   OH2 9590   0.832   4.980   5.504  0.3130  0.8460  0.5514
 3209TIP3    H1 9591   0.921   4.978   5.470  1.0720 -1.6837  2.3603
 3209TIP3    H2 9592   0.777   4.958   5.428  1.3244  1.1871 -0.3077
 3210TIP3   OH2 9593   4.765   3.519   2.178  0.2052 -0.2287  0.1476
 3210TIP3    H1 9594   4.847   3.504   2.133 -0.2480 -0.5172 -0.5933
 3210TIP3    H2 9595   4.743   3.435   2.217  0.0124 -0.2823 -0.0752
 3211TIP3   OH2 9596   1.937   1.131   4.254 -0.1560  0.6305 -0.2247
 3211TIP3    H1 9597   1.967   1.084   4.176 -2.0108 -1.1118  0.0318
 3211TIP3    H2 9598   2.013   1.181   4.283  1.6490 -1.4186 -1.1502
 3212TIP3   OH2 9599   5.476   5.333   5.431 -0.0867  0.1839  0.9655
 3212TIP3    H1 9600   5.566   5.345   5.463  0.6936 -0.9701 -0.6461
 3212TIP3    H2 9601   5.446   5.252   5.472  0.1447 -0.1819  0.4240
 3213TIP3   OH2 9602   2.291   4.272   4.725  0.1861 -0.1160  0.1575
 3213TIP3    H1 9603   2.274   4.359   4.761 -0.0162  0.1648 -0.5986
 3213TIP3    H2 9604   2.206   4.239   4.698  0.1193 -0.9597  1.3076
 3214TIP3   OH2 9605   1.542   4.881   1.503 -0.0407 -0.1378 -0.0397
 3214TIP3    H1 9606   1.468   4.833   1.467 -1.8539  0.9347  2.0032
 3214TIP3    H2 9607   1.565   4.833   1.583  0.0803  0.6923  0.4396
 3215TIP3   OH2 9608   5.562   4.163   5.069  0.0109 -0.2094  0.0995
 3215TIP3    H1 9609   5.583   4.220   4.995  0.0685 -0.6190 -0.1970
 3215TIP3    H2 9610   5.466   4.163   5.072 -0.0110 -0.8072 -0.4525
 3216TIP3   OH2 9611   0.790   0.186   3.365 -0.1631 -0.1327 -0.4197
 3216TIP3    H1 9612   0.822   0.114   3.419 -1.3850 -0.2272  0.2159
 3216TIP3    H2 9613   0.705   0.156   3.332 -0.0060  0.4327 -1.3648
 3217TIP3   OH2 9614   2.953   3.640   2.999  0.6815  0.3789 -0.1150
 3217TIP3    H1 9615   2.902   3.563   2.976  0.5142  1.1036 -2.4798
 3217TIP3    H2 9616   3.043   3.609   3.004  0.3039 -0.5731  2.4133
 3218TIP3   OH2 9617   6.768   3.050   5.190  0.2758  0.8097  0.3321
 3218TIP3    H1 9618   6.840   3.005   5.235 -0.1021 -1.2813 -1.0133
 3218TIP3    H2 9619   6.757   3.001   5.108 -2.7560  0.9911  0.5444
 3219TIP3   OH2 9620   6.953   6.781   2.033 -0.3309  0.3022 -0.1361
 3219TIP3    H1 9621   6.935   6.714   1.967  0.6959 -1.3980  1.2545
 3219TIP3    H2 9622   6.869   6.794   2.077 -0.5753  0.1022 -0.5330
 3220TIP3   OH2 9623   0.043   2.684   4.331  0.0096 -0.1730 -0.0534
 3220TIP3    H1 9624   0.002   2.694   4.416  0.4711 -2.4389  0.4960
 3220TIP3    H2 9625   0.133   2.658   4.350 -0.3969 -2.6546 -1.1527
 3221TIP3   OH2 9626   5.522   6.008   4.274 -0.3883  0.0438  0.1080
 3221TIP3    H1 9627   5.512   5.988   4.367 -0.4678 -1.3336 -0.1794
 3221TIP3    H2 9628   5.602   6.060   4.269  0.1196 -0.6391  0.8591
 3222TIP3   OH2 9629   7.084   1.947   0.671  0.7586  0.1926 -0.5880
 3222TIP3    H1 9630   7.116   2.018   0.727  0.4399 -0.3499  0.2936
 3222TIP3    H2 9631   7.011   1.985   0.623  0.5958  0.4695 -0.1270
 3223TIP3   OH2 9632   4.338   0.272   5.853 -0.2052 -0.4858  0.2594
 3223TIP3    H1 9633   4.309   0.332   5.922 -0.4296 -0.0415 -0.2138
 3223TIP3    H2 9634   4.433   0.286   5.848 -0.0574 -1.1065  1.0185
 3224TIP3   OH2 9635   2.143   0.750   2.929 -0.3204 -1.2158 -0.3295
 3224TIP3    H1 9636   2.089   0.759   2.850  1.2230 -1.3997 -1.4465
 3224TIP3    H2 9637   2.128   0.660   2.958 -1.9411 -0.7394  0.4133
 3225TIP3   OH2 9638   1.141   3.044   4.120  0.0256 -0.8157  0.1889
 3225TIP3    H1 9639   1.110   3.042   4.030 -0.2393 -1.0503  0.2865
 3225TIP3    H2 9640   1.225   3.091   4.115 -1.5374  2.3006  0.2800
 3226TIP3   OH2 9641   1.970   4.453   5.486  0.9268  0.8195 -0.0046
 3226TIP3    H1 9642   1.903   4.485   5.426 -0.1405  0.1347  0.7927
 3226TIP3    H2 9643   2.024   4.530   5.506  1.4447  1.0096 -1.9850
 3227TIP3   OH2 9644   0.323   4.777   0.028  0.2292 -0.2414  0.1404
 3227TIP3    H1 9645   0.304   4.753   0.118  2.0119 -0.9102  0.3696
 3227TIP3    H2 9646   0.300   4.870   0.023  2.2926  0.4644  1.9959
 3228TIP3   OH2 9647   3.298   4.496   3.731 -0.3628  0.1773 -0.2145
 3228TIP3    H1 9648   3.269   4.507   3.822  0.0515 -0.6126  0.0141
 3228TIP3    H2 9649   3.392   4.515   3.733 -0.4363  0.6162 -0.5715
 3229TIP3   OH2 9650   0.711   4.082   2.965 -0.2449  0.0525 -0.4547
 3229TIP3    H1 9651   0.720   4.064   3.058  1.8503 -0.2937 -0.6753
 3229TIP3    H2 9652   0.622   4.116   2.956 -0.1303  1.1914  1.8482
 3230TIP3   OH2 9653   3.935   1.959   4.376  0.0248 -0.1970 -0.0376
 3230TIP3    H1 9654   3.984   2.026   4.328 -0.6077  0.7370  0.5819
 3230TIP3    H2 9655   4.000   1.892   4.398  0.7360  0.3625 -0.4061
 3231TIP3   OH2 9656   0.557   0.915   4.139 -0.0200 -0.4522  0.0912
 3231TIP3    H1 9657   0.594   0.976   4.202 -0.9097  0.5601 -0.3292
 3231TIP3    H2 9658   0.523   0.971   4.069  1.4058 -1.5502 -1.5734
 3232TIP3   OH2 9659   6.806   4.527   1.404  0.7447 -0.1231 -0.0536
 3232TIP3    H1 9660   6.817   4.435   1.377  1.7793 -0.2557  0.7874
 3232TIP3    H2 9661   6.820   4.577   1.324 -0.7849 -0.7223 -0.7391
 3233TIP3   OH2 9662   1.053   5.996   1.914 -0.2740  0.8012 -0.3239
 3233TIP3    H1 9663   1.040   6.025   1.824  1.0669  1.7726 -0.2474
 3233TIP3    H2 9664   1.139   5.955   1.914 -0.0967  1.1401  0.5691
 3234TIP3   OH2 9665   7.005   0.552   2.659  0.5234 -0.0138  0.1375
 3234TIP3    H1 9666   7.096   0.580   2.655  0.3786  1.2263  2.9665
 3234TIP3    H2 9667   7.005   0.474   2.714 -0.0696 -0.4560 -0.4662
 3235TIP3   OH2 9668   1.247   4.533   1.280 -0.0812 -0.3240  0.4332
 3235TIP3    H1 9669   1.332   4.506   1.246 -0.1152  1.4485 -1.2099
 3235TIP3    H2 9670   1.261   4.546   1.374  0.8516 -2.1819  0.6019
 3236TIP3   OH2 9671   0.595   1.932   0.425  0.2537  0.1729 -0.2566
 3236TIP3    H1 9672   0.585   1.898   0.514 -0.2777 -0.8470 -0.6831
 3236TIP3    H2 9673   0.687   1.918   0.404  0.1584 -0.5466 -0.2315
 3237TIP3   OH2 9674   2.355   1.469   5.166 -0.0938  0.0231 -0.0468
 3237TIP3    H1 9675   2.354   1.529   5.240  0.2795 -1.0066  0.8145
 3237TIP3    H2 9676   2.447   1.464   5.140 -0.2640  0.6245 -0.7979
 3238TIP3   OH2 9677   4.412   2.800   0.607 -0.2886 -0.7065 -1.0906
 3238TIP3    H1 9678   4.487   2.836   0.654 -1.2631 -1.4580  1.1570
 3238TIP3    H2 9679   4.399   2.861   0.534  1.2781  0.5499 -0.3939
 3239TIP3   OH2 9680   0.914   3.920   2.874 -0.1456  0.0876  0.2452
 3239TIP3    H1 9681   0.944   3.972   2.800 -0.8573 -0.2381 -0.2874
 3239TIP3    H2 9682   0.844   3.972   2.914  1.4470  1.1084  1.8259
 3240TIP3   OH2 9683   3.599   2.959   2.720 -0.7092  0.3270 -0.1388
 3240TIP3    H1 9684   3.676   2.998   2.679 -1.5642  0.6954 -1.4489
 3240TIP3    H2 9685   3.539   3.033   2.735 -1.5249 -0.1809 -0.7936
 3241TIP3   OH2 9686   0.822   0.021   1.330  0.1272  0.2310 -0.3611
 3241TIP3    H1 9687   0.729   0.035   1.314  0.0199  0.6808  0.5348
 3241TIP3    H2 9688   0.825  -0.024   1.415  0.6520 -1.7389 -1.3706
 3242TIP3   OH2 9689   4.203   6.456   2.052 -0.2890  0.2526  0.3491
 3242TIP3    H1 9690   4.214   6.371   2.008  0.3430  0.3075  0.3876
 3242TIP3    H2 9691   4.290   6.476   2.087  0.0017  1.6996 -1.0686
 3243TIP3   OH2 9692   0.190   1.175   2.771  0.7775 -0.9403  0.1740
 3243TIP3    H1 9693   0.276   1.147   2.802  1.5274  1.0652  0.0053
 3243TIP3    H2 9694   0.206   1.208   2.683 -0.6215 -2.7116 -0.8142
 3244TIP3   OH2 9695   1.718   1.254   2.175  0.4435 -0.1726 -0.0001
 3244TIP3    H1 9696   1.721   1.258   2.080 -1.2614  1.3480 -0.0427
 3244TIP3    H2 9697   1.720   1.346   2.203 -1.4671 -0.4471  1.2673
 3245TIP3   OH2 9698   5.759   3.897   3.353  0.0176 -0.2576  0.5755
 3245TIP3    H1 9699   5.801   3.888   3.267  0.1505  0.1614  0.5890
 3245TIP3    H2 9700   5.732   3.809   3.376  1.5973 -0.6838  0.9120
 3246TIP3   OH2 9701   3.072   1.155   5.423 -0.0492  0.3908 -0.3679
 3246TIP3    H1 9702   3.132   1.224   5.453  0.8909 -0.9563  0.9818
 3246TIP3    H2 9703   3.096   1.141   5.331  1.7435 -0.1139  0.1319
 3247TIP3   OH2 9704   4.369   2.091   1.507 -0.6188 -0.0042 -0.0851
 3247TIP3    H1 9705   4.335   2.015   1.555 -0.1360 -0.6910 -0.7977
 3247TIP3    H2 9706   4.452   2.111   1.549 -0.4803 -0.2272 -0.2514
 3248TIP3   OH2 9707   3.099   1.181   3.182 -0.0298 -0.4009  0.5070
 3248TIP3    H1 9708   3.018   1.224   3.208 -1.0522 -3.2716  2.6747
 3248TIP3    H2 9709   3.141   1.158   3.265  2.3577 -0.1648 -0.5771
 3249TIP3   OH2 9710   4.575   4.736   3.287  0.4612 -0.7834 -0.0985
 3249TIP3    H1 9711   4.573   4.803   3.356  1.1169  0.2679 -1.0653
 3249TIP3    H2 9712   4.493   4.748   3.240  0.1718 -1.2695  0.2747
 3250TIP3   OH2 9713   6.074   6.769   2.986 -0.2151  0.2992 -0.0280
 3250TIP3    H1 9714   6.074   6.754   3.081  1.6188  0.0615 -0.0378
 3250TIP3    H2 9715   6.141   6.711   2.952  0.1598  1.4126 -1.2862
 3251TIP3   OH2 9716   2.246   5.847   4.501 -0.3645 -0.0820 -0.2326
 3251TIP3    H1 9717   2.204   5.921   4.458  0.0647 -0.3652 -1.1631
 3251TIP3    H2 9718   2.192   5.772   4.478 -0.1143 -0.2414 -0.3046
 3252TIP3   OH2 9719   2.078   6.198   4.162 -0.0607 -0.0252 -0.1203
 3252TIP3    H1 9720   2.137   6.123   4.164 -1.1591 -0.9671 -1.3786
 3252TIP3    H2 9721   2.087   6.234   4.074  1.2015  1.9898  0.7723
 3253TIP3   OH2 9722   7.078   1.204   1.730 -0.5253 -0.0656 -0.4308
 3253TIP3    H1 9723   7.113   1.224   1.817 -1.3664 -1.0389  0.1574
 3253TIP3    H2 9724   7.116   1.119   1.708  0.7612  0.7786 -1.6394
 3254TIP3   OH2 9725   6.397   4.374   5.497 -0.7964 -0.1486  0.4291
 3254TIP3    H1 9726   6.325   4.311   5.486 -1.1044  0.3858 -0.8179
 3254TIP3    H2 9727   6.366   4.435   5.564 -1.5219  0.0941 -0.1226
 3255TIP3   OH2 9728   5.649   1.814   2.631 -0.1950  0.6382  0.0006
 3255TIP3    H1 9729   5.667   1.728   2.669 -1.2061  1.1284  1.6832
 3255TIP3    H2 9730   5.642   1.798   2.537 -2.1145 -1.4441  0.4189
 3256TIP3   OH2 9731   0.238   0.631   1.902 -0.2498 -0.1574  0.3759
 3256TIP3    H1 9732   0.276   0.701   1.850 -0.5017  0.7029  1.3053
 3256TIP3    H2 9733   0.154   0.613   1.860 -0.0876 -0.0520  0.0028
 3257TIP3   OH2 9734   2.651   3.115   0.386  0.2755 -0.0788  0.1520
 3257TIP3    H1 9735   2.664   3.055   0.312 -0.1273  0.2306 -0.1673
 3257TIP3    H2 9736   2.726   3.174   0.382  0.0972  0.1229 -0.1828
 3258TIP3   OH2 9737   2.266   4.685   0.721  0.2943 -0.0152  0.5613
 3258TIP3    H1 9738   2.263   4.589   0.721 -1.4302  0.0157  0.4223
 3258TIP3    H2 9739   2.213   4.710   0.797 -2.2514  0.8460 -1.3897
 3259TIP3   OH2 9740   2.458   6.316   1.204  0.3327 -0.3468 -0.0610
 3259TIP3    H1 9741   2.411   6.233   1.195  0.0976 -0.2017 -0.1764
 3259TIP3    H2 9742   2.519   6.317   1.130  1.3049 -1.0402  0.7050
 3260TIP3   OH2 9743   2.926   4.769   4.971 -0.4164  0.3024 -0.7581
 3260TIP3    H1 9744   2.925   4.717   5.052  0.4750 -1.9891 -2.1237
 3260TIP3    H2 9745   3.017   4.797   4.962 -0.9068  2.2757  0.0059
 3261TIP3   OH2 9746   5.901   6.683   0.894  0.0288 -0.0135 -0.1724
 3261TIP3    H1 9747   5.820   6.641   0.864 -1.0600 -0.0468  2.5028
 3261TIP3    H2 9748   5.876   6.774   0.907  0.3368 -0.0722  0.8811
 3262TIP3   OH2 9749   2.704   1.734   0.176 -0.3460  0.2723 -0.2488
 3262TIP3    H1 9750   2.683   1.687   0.095 -1.1894  0.8101 -0.3597
 3262TIP3    H2 9751   2.671   1.678   0.245 -0.4521  0.2312 -0.3317
 3263TIP3   OH2 9752   2.394   0.701   2.609 -0.0209 -0.0256 -0.0578
 3263TIP3    H1 9753   2.454   0.752   2.556 -0.5530  1.0196  0.3118
 3263TIP3    H2 9754   2.403   0.737   2.697 -1.5463  0.5175 -0.0904
 3264TIP3   OH2 9755   3.836   5.378   5.667 -0.0779  0.1003  0.3142
 3264TIP3    H1 9756   3.769   5.446   5.652 -0.7158 -0.6276 -0.2187
 3264TIP3    H2 9757   3.898   5.390   5.595  0.0864  0.4389  0.5086
 3265TIP3   OH2 9758   2.505   4.312   1.746 -0.3554  0.3174  0.7431
 3265TIP3    H1 9759   2.440   4.251   1.710  0.2076 -0.5276  1.1282
 3265TIP3    H2 9760   2.489   4.313   1.840 -0.1579  0.5298  0.7773
 3266TIP3   OH2 9761   2.983   5.169   2.981  0.4962  0.8610 -0.1835
 3266TIP3    H1 9762   2.957   5.261   2.968  0.7248  1.4541  2.6835
 3266TIP3    H2 9763   2.905   5.119   2.960  0.0490  1.7929 -0.8370
 3267TIP3   OH2 9764   2.826   1.743   4.777 -1.1041 -0.0539  0.2711
 3267TIP3    H1 9765   2.779   1.734   4.860 -1.6584 -1.6866 -0.1651
 3267TIP3    H2 9766   2.839   1.837   4.766 -2.5753  0.3119  1.3529
 3268TIP3   OH2 9767   3.017   5.239   2.556 -0.4906  0.0571  0.1188
 3268TIP3    H1 9768   2.984   5.329   2.554  0.6187  0.5217  1.1268
 3268TIP3    H2 9769   3.084   5.237   2.488 -0.4704  0.0285  0.1391
 3269TIP3   OH2 9770   6.014   2.490   2.225  0.1095  0.4616  0.1893
 3269TIP3    H1 9771   5.958   2.444   2.288 -0.7479  1.1547 -0.0389
 3269TIP3    H2 9772   5.986   2.581   2.230  1.0441  0.7800 -0.1380
 3270TIP3   OH2 9773   4.206   0.670   0.800 -0.3208 -0.2275  0.0005
 3270TIP3    H1 9774   4.244   0.756   0.778 -1.4025  0.3850  0.4563
 3270TIP3    H2 9775   4.280   0.610   0.795  0.1683  0.4512 -1.9007
 3271TIP3   OH2 9776   1.103   2.436   3.447 -0.3035  0.3132  0.1731
 3271TIP3    H1 9777   1.015   2.403   3.467  0.1519 -0.0324  1.7316
 3271TIP3    H2 9778   1.120   2.405   3.358 -1.7434  0.3572 -0.1467
 3272TIP3   OH2 9779   2.395   3.096   4.229 -0.0669 -0.4734 -0.4594
 3272TIP3    H1 9780   2.409   3.185   4.197  1.4872 -0.4866  0.1325
 3272TIP3    H2 9781   2.482   3.063   4.249 -0.7497 -1.4863  1.0575
 3273TIP3   OH2 9782   7.128   4.580   0.886  0.9641 -0.4754  0.5243
 3273TIP3    H1 9783   7.097   4.528   0.813  0.8556  0.8743 -0.4305
 3273TIP3    H2 9784   7.103   4.530   0.964 -0.0690 -1.3131 -0.3175
 3274TIP3   OH2 9785   2.652   4.047   0.174  0.0178 -0.3404  0.5099
 3274TIP3    H1 9786   2.696   4.094   0.103 -0.5548 -1.5766 -0.7012
 3274TIP3    H2 9787   2.560   4.073   0.165 -0.3808 -1.9141 -0.4282
 3275TIP3   OH2 9788   1.837   2.689   2.975  0.0587  0.1081 -0.6280
 3275TIP3    H1 9789   1.929   2.692   3.001 -0.2011 -1.9529  0.7461
 3275TIP3    H2 9790   1.838   2.652   2.887  0.5222 -0.9466 -0.1989
 3276TIP3   OH2 9791   1.735   4.094   4.751  0.4904 -0.1561  0.5940
 3276TIP3    H1 9792   1.807   4.036   4.728  2.4933  2.0097  1.0259
 3276TIP3    H2 9793   1.736   4.098   4.846 -0.3142 -0.2012  0.6120
 3277TIP3   OH2 9794   5.226   4.370   4.939  0.0385  0.3782 -0.3407
 3277TIP3    H1 9795   5.253   4.283   4.968  1.0023  0.7257 -0.1698
 3277TIP3    H2 9796   5.150   4.391   4.993 -0.9454 -0.8326 -1.1909
 3278TIP3   OH2 9797   5.061   0.455   4.166  0.2499  0.5321 -0.4464
 3278TIP3    H1 9798   4.974   0.425   4.192 -0.1707  0.8664 -1.4283
 3278TIP3    H2 9799   5.088   0.514   4.237  0.7562 -1.4954  1.1165
 3279TIP3   OH2 9800   3.555   2.727   4.533  0.3533 -0.0195 -0.3536
 3279TIP3    H1 9801   3.471   2.694   4.566  0.0925  1.6161  0.7861
 3279TIP3    H2 9802   3.587   2.784   4.603  1.5665  0.7718 -1.5032
 3280TIP3   OH2 9803   2.465   1.100   3.138  0.1160 -0.0330 -0.3532
 3280TIP3    H1 9804   2.437   1.124   3.050 -0.4395 -1.0083 -0.4518
 3280TIP3    H2 9805   2.390   1.054   3.176  0.7913 -0.7256  0.1791
 3281TIP3   OH2 9806   3.482   2.294   4.637 -0.2648 -1.1442  0.2242
 3281TIP3    H1 9807   3.519   2.382   4.625  0.1001 -1.1242  1.3459
 3281TIP3    H2 9808   3.558   2.239   4.656 -0.5979 -1.5027  0.5270
 3282TIP3   OH2 9809   3.112   3.432   4.181  0.4598  0.0111  0.2731
 3282TIP3    H1 9810   3.098   3.345   4.218 -0.2845 -0.0116 -0.0442
 3282TIP3    H2 9811   3.125   3.416   4.087 -3.4434  0.4721 -0.5166
 3283TIP3   OH2 9812   4.896   4.789   5.902 -0.5270 -0.0757 -0.4130
 3283TIP3    H1 9813   4.970   4.786   5.842 -0.1394 -0.8229  0.0924
 3283TIP3    H2 9814   4.853   4.704   5.891  0.2601 -0.7318  1.2268
 3284TIP3   OH2 9815   0.467   1.758   2.148  0.1739  0.2019 -0.8269
 3284TIP3    H1 9816   0.476   1.685   2.209 -0.0412  1.4156  0.7620
 3284TIP3    H2 9817   0.544   1.813   2.165 -2.2961  3.1942  2.2465
 3285TIP3   OH2 9818   5.445   6.636   3.511 -0.2406 -0.0549  0.0343
 3285TIP3    H1 9819   5.489   6.670   3.433  0.3921  2.0055  1.2234
 3285TIP3    H2 9820   5.511   6.579   3.552  0.0076  0.1585 -0.0682
 3286TIP3   OH2 9821   3.827   2.117   0.736  0.3043  0.4995 -0.2614
 3286TIP3    H1 9822   3.858   2.046   0.791 -0.0174 -0.0568 -0.7845
 3286TIP3    H2 9823   3.788   2.074   0.660  1.1085  1.2466 -1.1336
 3287TIP3   OH2 9824   4.080   1.165   5.050  0.1268 -0.4955 -0.5813
 3287TIP3    H1 9825   4.122   1.140   4.968  0.0110 -2.5945 -0.0677
 3287TIP3    H2 9826   4.064   1.082   5.095 -2.3124  0.3944  0.3534
 3288TIP3   OH2 9827   2.928   0.906   2.007 -0.4794  0.1279 -0.7189
 3288TIP3    H1 9828   2.995   0.938   1.946 -1.7459  1.9733 -1.2040
 3288TIP3    H2 9829   2.954   0.941   2.092  0.3644 -1.0408 -0.4721
 3289TIP3   OH2 9830   0.504   6.414   1.764  0.0313  0.5622 -0.5245
 3289TIP3    H1 9831   0.588   6.434   1.807 -0.3961 -1.8761  1.7189
 3289TIP3    H2 9832   0.440   6.466   1.812 -0.0978  0.0555 -0.1426
 3290TIP3   OH2 9833   3.853   3.681   4.025 -0.5347  0.2548  0.4223
 3290TIP3    H1 9834   3.790   3.718   4.088  0.5901  2.1946  0.4768
 3290TIP3    H2 9835   3.918   3.750   4.012  0.7003 -1.0786 -0.9001
 3291TIP3   OH2 9836   0.084   2.523   2.811 -0.2503 -0.8375 -0.0742
 3291TIP3    H1 9837  -0.003   2.535   2.771 -0.7916 -0.8353  1.0702
 3291TIP3    H2 9838   0.091   2.595   2.874  0.8098 -0.5352 -0.5147
 3292TIP3   OH2 9839   1.030   2.397   0.828 -0.5251  0.6896  0.2147
 3292TIP3    H1 9840   1.019   2.436   0.741 -0.5072  0.7831  0.2541
 3292TIP3    H2 9841   1.125   2.399   0.843 -0.2164 -1.8256 -0.9149
 3293TIP3   OH2 9842   4.027   1.467   1.634 -0.4880  0.6933  0.1357
 3293TIP3    H1 9843   3.945   1.478   1.585 -0.2759  1.1439 -0.1243
 3293TIP3    H2 9844   4.000   1.469   1.726 -0.5821  2.5923  0.1029
 3294TIP3   OH2 9845   2.461   3.850   5.339  0.0228 -0.2617  0.2555
 3294TIP3    H1 9846   2.445   3.757   5.351 -0.0079 -0.2822  0.0628
 3294TIP3    H2 9847   2.401   3.893   5.400  1.3474 -0.4029  1.7372
 3295TIP3   OH2 9848   5.809   0.325   4.078  0.1247 -0.0264 -0.3063
 3295TIP3    H1 9849   5.829   0.332   3.985 -1.6482 -0.2280 -0.7534
 3295TIP3    H2 9850   5.811   0.231   4.096  0.7159  0.0293 -0.0769
 3296TIP3   OH2 9851   3.546   5.434   2.832 -0.5772  0.1880  0.0981
 3296TIP3    H1 9852   3.635   5.436   2.795 -0.3792 -3.8378 -0.1152
 3296TIP3    H2 9853   3.560   5.427   2.926 -0.6308 -0.7104  0.0444
 3297TIP3   OH2 9854   2.599   0.996   5.494  0.3751 -0.1186  0.4890
 3297TIP3    H1 9855   2.675   1.043   5.529  0.5336  0.0702 -0.1076
 3297TIP3    H2 9856   2.622   0.903   5.505  1.0353 -0.0761 -0.3982
 3298TIP3   OH2 9857   6.291   0.443   4.742 -0.2203 -0.5490  0.2899
 3298TIP3    H1 9858   6.360   0.384   4.773 -0.6297 -1.2166 -0.0407
 3298TIP3    H2 9859   6.275   0.415   4.652  0.8813  1.3021 -0.5337
 3299TIP3   OH2 9860   3.016   2.041   4.992 -0.4700  0.2471  0.1616
 3299TIP3    H1 9861   2.934   2.006   5.027 -1.6516  2.3782 -0.2912
 3299TIP3    H2 9862   3.031   1.991   4.912  0.1945 -2.0398  1.6526
 3300TIP3   OH2 9863   2.452   0.879   4.106  0.3384  0.4530 -0.4266
 3300TIP3    H1 9864   2.389   0.932   4.058 -0.5872 -1.5904 -1.6011
 3300TIP3    H2 9865   2.445   0.792   4.067  1.1036 -0.7941  1.9990
 3301TIP3   OH2 9866   2.628   5.648   0.772  0.8010 -0.2361 -0.1699
 3301TIP3    H1 9867   2.663   5.727   0.812  2.1596 -0.6625 -0.4777
 3301TIP3    H2 9868   2.562   5.680   0.710 -0.2636  0.5027  1.2745
 3302TIP3   OH2 9869   5.200   1.827   2.804  0.7218  0.2818 -0.2893
 3302TIP3    H1 9870   5.235   1.791   2.886 -0.4974 -0.5617 -0.1102
 3302TIP3    H2 9871   5.128   1.883   2.832  1.2602  1.2144 -0.7118
 3303TIP3   OH2 9872   2.902   5.426   3.020 -0.0071  0.0630  0.4746
 3303TIP3    H1 9873   2.914   5.507   3.070 -0.8896 -0.2010  1.1420
 3303TIP3    H2 9874   2.807   5.412   3.021  0.0577 -0.5087 -0.3998
 3304TIP3   OH2 9875   5.815   2.857   2.417  0.1614 -0.1554 -0.2529
 3304TIP3    H1 9876   5.738   2.863   2.361 -0.0251 -1.8960 -0.2458
 3304TIP3    H2 9877   5.794   2.787   2.479  0.4959  1.4711  1.8027
 3305TIP3   OH2 9878   2.214   2.406   1.145 -0.0710 -0.0317  0.4356
 3305TIP3    H1 9879   2.161   2.480   1.175 -0.5265  0.0349 -0.5222
 3305TIP3    H2 9880   2.197   2.337   1.210 -0.7159  0.2461  0.5723
 3306TIP3   OH2 9881   5.795   0.178   5.705  0.2228 -0.1349  0.6793
 3306TIP3    H1 9882   5.859   0.159   5.636  0.7053 -0.9770  1.3430
 3306TIP3    H2 9883   5.738   0.244   5.666  1.9029  1.1727  0.3015
 3307TIP3   OH2 9884   0.291   5.136   4.217  0.1753 -0.1796 -0.2823
 3307TIP3    H1 9885   0.216   5.144   4.159  0.3399  1.4657 -0.3005
 3307TIP3    H2 9886   0.262   5.073   4.284 -0.4256 -1.1955 -1.4511
 3308TIP3   OH2 9887   0.300   1.390   3.854  0.3107 -0.2083 -0.0716
 3308TIP3    H1 9888   0.390   1.419   3.837  0.0453  0.7188  0.0971
 3308TIP3    H2 9889   0.304   1.348   3.940  0.4409  0.4971  0.2729
 3309TIP3   OH2 9890   0.797   6.407   2.246 -0.4995 -0.1036 -0.3493
 3309TIP3    H1 9891   0.784   6.499   2.223 -1.0411 -0.4407 -1.4380
 3309TIP3    H2 9892   0.853   6.410   2.324  1.1527  1.1006 -1.5002
 3310TIP3   OH2 9893   6.447   4.806   0.507  0.8035 -0.2503 -0.5500
 3310TIP3    H1 9894   6.473   4.755   0.584  2.4873  0.8363 -0.3650
 3310TIP3    H2 9895   6.355   4.782   0.493  0.3435 -0.2553  1.9722
 3311TIP3   OH2 9896   1.100   5.473   4.835  0.3454 -0.2442  0.2972
 3311TIP3    H1 9897   1.045   5.409   4.881  0.1824 -1.0624 -0.9873
 3311TIP3    H2 9898   1.172   5.422   4.798 -0.3488  0.0839 -1.6560
 3312TIP3   OH2 9899   3.305   1.268   0.272 -0.0618  0.0399 -0.1209
 3312TIP3    H1 9900   3.296   1.185   0.319  1.2117 -0.0380  0.0212
 3312TIP3    H2 9901   3.378   1.254   0.212  1.4440  1.6212  1.2213
 3313TIP3   OH2 9902   4.865   4.230   2.750 -0.2456 -0.0775 -0.0734
 3313TIP3    H1 9903   4.799   4.224   2.682 -0.0546  1.6256 -0.4606
 3313TIP3    H2 9904   4.918   4.151   2.741 -1.0211 -0.4910 -1.0413
 3314TIP3   OH2 9905   1.517   0.095   3.770  0.3791 -0.2345 -0.6292
 3314TIP3    H1 9906   1.425   0.092   3.796  1.1041  0.5636  2.3722
 3314TIP3    H2 9907   1.552   0.010   3.796  0.8581  0.0927 -0.2031
 3315TIP3   OH2 9908   5.514   1.094   4.522 -0.2423  0.1685 -0.4045
 3315TIP3    H1 9909   5.419   1.089   4.524 -0.2411  0.3079  1.6249
 3315TIP3    H2 9910   5.537   1.158   4.590  1.3677 -1.6809  0.9007
 3316TIP3   OH2 9911   6.228   4.576   0.492 -0.1207  0.2106  0.2359
 3316TIP3    H1 9912   6.274   4.537   0.417  2.6942  3.2378  0.1368
 3316TIP3    H2 9913   6.247   4.516   0.564  0.7213 -0.6277 -0.6403
 3317TIP3   OH2 9914   5.891   5.771   4.863 -0.0306  0.5817 -0.3043
 3317TIP3    H1 9915   5.826   5.769   4.933 -0.0598 -0.7268 -0.3283
 3317TIP3    H2 9916   5.867   5.846   4.809 -1.7351 -0.0749 -0.5036
 3318TIP3   OH2 9917   5.483   6.179   4.853  0.1810  0.3087  0.0547
 3318TIP3    H1 9918   5.398   6.142   4.875 -0.5527  1.1892 -1.2242
 3318TIP3    H2 9919   5.490   6.258   4.907 -0.8622  1.5116 -1.4869
 3319TIP3   OH2 9920   4.528   0.376   5.298  0.5217  0.6108  0.1201
 3319TIP3    H1 9921   4.559   0.288   5.322 -0.3858  0.2889  0.1580
 3319TIP3    H2 9922   4.588   0.404   5.229  0.8861  0.0077  0.1740
 3320TIP3   OH2 9923   5.532   3.561   3.906  0.3254  0.1046 -0.2081
 3320TIP3    H1 9924   5.599   3.508   3.864  1.3689 -1.3393  2.9988
 3320TIP3    H2 9925   5.453   3.546   3.853  1.6540 -1.0743 -1.9562
 3321TIP3   OH2 9926   1.086   2.590   1.580 -0.0565 -0.5594  0.3075
 3321TIP3    H1 9927   1.141   2.544   1.516  1.9194  0.9391  0.8508
 3321TIP3    H2 9928   1.120   2.562   1.665  0.0078  0.5476  0.6483
 3322TIP3   OH2 9929   0.835   0.711   2.439  0.2599  0.0335 -0.2281
 3322TIP3    H1 9930   0.811   0.804   2.440 -0.7416 -0.2210  0.2206
 3322TIP3    H2 9931   0.850   0.690   2.532 -0.4580 -0.4808 -0.2219
 3323TIP3   OH2 9932   3.962   3.543   1.014 -0.1390 -0.1546 -0.2808
 3323TIP3    H1 9933   3.918   3.571   0.934  2.3089 -0.4852 -1.8519
 3323TIP3    H2 9934   4.054   3.532   0.988  0.8751  0.3121  2.7324
 3324TIP3   OH2 9935   3.457   4.109   0.839  0.2144  0.1062  0.3060
 3324TIP3    H1 9936   3.458   4.199   0.870 -2.0330  0.2068  0.2674
 3324TIP3    H2 9937   3.464   4.116   0.744 -2.6471  0.4990  0.0431
 3325TIP3   OH2 9938   0.134   6.698   3.854  0.3288 -0.5197  0.0419
 3325TIP3    H1 9939   0.214   6.667   3.896  0.8863 -1.9117 -1.8702
 3325TIP3    H2 9940   0.157   6.702   3.761 -1.4096  0.4975 -0.3830
 3326TIP3   OH2 9941   4.169   5.777   1.313 -0.6209  0.6556 -0.1396
 3326TIP3    H1 9942   4.140   5.773   1.221  1.1245 -0.3771 -0.6979
 3326TIP3    H2 9943   4.242   5.840   1.312  1.3388 -1.4679 -0.1175
 3327TIP3   OH2 9944   0.165   5.893   0.535 -0.3623 -0.3621 -1.2387
 3327TIP3    H1 9945   0.207   5.901   0.449 -0.2368  0.6394 -1.0859
 3327TIP3    H2 9946   0.076   5.926   0.521 -0.5354 -0.7677 -1.1192
 3328TIP3   OH2 9947   2.862   1.629   1.701 -0.1517 -0.4318  0.1598
 3328TIP3    H1 9948   2.838   1.598   1.789 -0.8010  0.7818  0.4261
 3328TIP3    H2 9949   2.938   1.686   1.715 -1.7923  1.8515  0.3256
 3329TIP3   OH2 9950   2.948   4.849   0.447  0.8288  0.4177  0.5377
 3329TIP3    H1 9951   2.966   4.933   0.405  1.1439 -0.2551 -0.7113
 3329TIP3    H2 9952   2.951   4.785   0.376  2.4797 -0.9329  1.7409
 3330TIP3   OH2 9953   2.203   3.884   3.567 -0.3927  0.2293 -0.3205
 3330TIP3    H1 9954   2.270   3.879   3.499 -0.2817  1.8819 -0.3651
 3330TIP3    H2 9955   2.225   3.963   3.616  0.1053 -1.3834  2.2622
 3331TIP3   OH2 9956   5.598   5.807   2.358 -0.4295  0.2632  0.4018
 3331TIP3    H1 9957   5.551   5.824   2.277 -1.5532 -1.4506  0.6429
 3331TIP3    H2 9958   5.667   5.746   2.333 -1.5724 -1.2829  0.9159
 3332TIP3   OH2 9959   2.055   6.564   0.048 -0.0675  0.0991 -0.5856
 3332TIP3    H1 9960   1.972   6.597   0.081 -0.1993 -0.6255 -0.1734
 3332TIP3    H2 9961   2.032   6.485  -0.001  0.5017 -0.9894  0.8122
 3333TIP3   OH2 9962   2.486   6.503   3.990 -0.4070  0.3451 -0.1038
 3333TIP3    H1 9963   2.582   6.496   3.986 -0.4808 -2.0378  0.5885
 3333TIP3    H2 9964   2.463   6.461   4.073 -2.1214  0.0287 -0.6995
 3334TIP3   OH2 9965   2.143   4.309   1.902  0.3647 -0.0003 -0.0623
 3334TIP3    H1 9966   2.065   4.262   1.931  0.6066 -0.4974 -0.1921
 3334TIP3    H2 9967   2.184   4.339   1.983  1.0883 -1.4663  0.1636
 3335TIP3   OH2 9968   5.466   4.682   2.898  0.4135  0.0251  0.6548
 3335TIP3    H1 9969   5.508   4.720   2.820  0.6135 -3.5915 -1.2121
 3335TIP3    H2 9970   5.372   4.683   2.878  0.0663  2.3063  2.0460
 3336TIP3   OH2 9971   1.018   4.752   2.118 -0.2300 -0.2548  0.2595
 3336TIP3    H1 9972   0.999   4.840   2.150  2.3500  0.9084 -1.0805
 3336TIP3    H2 9973   1.016   4.697   2.197  0.2910  1.4140  1.4933
 3337TIP3   OH2 9974   6.370   2.279   2.026  0.3866 -0.4833  0.3078
 3337TIP3    H1 9975   6.313   2.356   2.023  1.4981  0.3832  0.5443
 3337TIP3    H2 9976   6.313   2.206   2.002 -0.5251  0.5082 -0.6902
 3338TIP3   OH2 9977   3.227   3.864   4.379 -0.0907  0.0788 -0.8802
 3338TIP3    H1 9978   3.273   3.887   4.459 -0.5122  2.3373 -1.2262
 3338TIP3    H2 9979   3.172   3.940   4.360 -1.0560 -0.9776 -2.5520
 3339TIP3   OH2 9980   5.405   1.497   0.914 -0.3249  0.1587  0.0993
 3339TIP3    H1 9981   5.424   1.565   0.851  0.6767  0.8319  1.0751
 3339TIP3    H2 9982   5.359   1.429   0.864 -0.5452  1.1442 -1.0749
 3340TIP3   OH2 9983   4.348   6.378   4.074  0.1418  0.4594  0.1092
 3340TIP3    H1 9984   4.330   6.428   3.995  0.0668 -0.5703 -0.5365
 3340TIP3    H2 9985   4.424   6.422   4.113 -0.5517  1.7001  0.1269
 3341TIP3   OH2 9986  -0.000   1.864   0.086 -0.0229 -0.5629 -0.8689
 3341TIP3    H1 9987   0.040   1.879   0.172  1.6155 -0.8116 -1.5549
 3341TIP3    H2 9988  -0.035   1.775   0.091 -0.4827 -0.3608 -0.2819
 3342TIP3   OH2 9989   2.513   5.086   0.882  0.2308  0.5080  0.0408
 3342TIP3    H1 9990   2.599   5.097   0.922 -0.8971 -0.7992  3.2133
 3342TIP3    H2 9991   2.524   5.012   0.822  1.1178 -0.5049  1.3763
 3343TIP3   OH2 9992   5.570   1.618   1.125  0.5285  0.0390 -0.4775
 3343TIP3    H1 9993   5.526   1.586   1.204  0.6719  1.4891  0.2149
 3343TIP3    H2 9994   5.515   1.589   1.053  0.4498 -1.4069  0.1282
 3344TIP3   OH2 9995   0.161   3.881   3.243 -0.1318  0.1786  0.4969
 3344TIP3    H1 9996   0.092   3.877   3.309 -1.7203 -0.2171 -1.0981
 3344TIP3    H2 9997   0.196   3.969   3.250 -0.8523  0.4145  1.3123
 3345TIP3   OH2 9998   3.180   5.240   4.890 -0.4008 -0.5759  0.6233
 3345TIP3    H1 9999   3.103   5.272   4.937  0.4407  0.0992  1.6097
 3345TIP3    H210000   3.188   5.299   4.815 -0.2559  0.0221  1.0958
 3346TIP3   OH210001   4.424   5.888   1.543  0.5168  0.3602 -0.4759
 3346TIP3    H110002   4.387   5.969   1.508  0.9112  0.3957 -0.8288
 3346TIP3    H210003   4.442   5.908   1.635 -1.0170  0.0922 -0.0963
 3347TIP3   OH210004   0.155   0.472   5.773 -0.4505 -0.3043  0.2558
 3347TIP3    H110005   0.175   0.564   5.788 -0.0691  0.2453 -2.9571
 3347TIP3    H210006   0.237   0.435   5.739 -1.2212 -1.2714 -0.6138
 3348TIP3   OH210007   0.280   0.333   1.381  0.2600 -0.2111  0.0950
 3348TIP3    H110008   0.351   0.348   1.319 -0.0875  1.3941  0.0438
 3348TIP3    H210009   0.317   0.351   1.467 -0.0355  0.5042  0.0794
 3349TIP3   OH210010   1.758   1.922   1.293 -0.7116 -0.1029 -0.0340
 3349TIP3    H110011   1.765   1.881   1.379 -1.4732 -0.1875 -0.0033
 3349TIP3    H210012   1.819   1.995   1.296 -1.7293  0.7501  1.0803
 3350TIP3   OH210013   6.971   2.360   4.546  0.0156 -0.1846  0.3993
 3350TIP3    H110014   7.029   2.285   4.533 -2.1045 -1.8035 -0.4767
 3350TIP3    H210015   6.990   2.419   4.473  1.2785 -0.1573  0.7400
 3351TIP3   OH210016   1.155   5.006   3.009  0.3027 -0.6093 -0.0101
 3351TIP3    H110017   1.075   5.042   2.973 -1.4390 -1.7816  2.3732
 3351TIP3    H210018   1.150   4.912   2.991 -0.4435 -1.1805  2.6370
 3352TIP3   OH210019   6.068   1.879   2.065 -0.4407 -0.3699 -0.2716
 3352TIP3    H110020   6.141   1.852   2.120  0.5209 -0.1256 -1.3696
 3352TIP3    H210021   6.047   1.801   2.013 -1.5393 -0.6910  0.6195
 3353TIP3   OH210022   0.865   1.147   5.171  0.3876  0.0021  0.0538
 3353TIP3    H110023   0.937   1.163   5.231  0.5261 -0.8463  0.1341
 3353TIP3    H210024   0.824   1.067   5.204 -3.3540  2.6326  2.6680
 3354TIP3   OH210025   4.262   4.989   5.776 -0.1170 -0.0658 -0.8343
 3354TIP3    H110026   4.175   4.953   5.790 -0.6019  0.7031 -1.7185
 3354TIP3    H210027   4.277   5.046   5.851  0.1175 -1.0687 -0.0942
 3355TIP3   OH210028   4.892   1.158   1.072  0.0812 -0.2891 -0.1432
 3355TIP3    H110029   4.933   1.161   1.158  0.3066 -1.1251 -0.2076
 3355TIP3    H210030   4.952   1.204   1.015 -0.0137  0.1683  0.1230
 3356TIP3   OH210031   0.959   6.750   4.772  0.0827 -0.7143 -0.0121
 3356TIP3    H110032   0.973   6.670   4.722 -0.2610  0.3438 -1.8830
 3356TIP3    H210033   0.991   6.820   4.715 -2.1413  0.7272  0.3717
 3357TIP3   OH210034   3.238   4.890   0.799 -0.2182  0.0191  0.6618
 3357TIP3    H110035   3.147   4.917   0.808 -0.4471  0.5580 -2.1616
 3357TIP3    H210036   3.288   4.971   0.805 -0.3052  0.2624 -1.1209
 3358TIP3   OH210037   6.079   2.347   1.070  0.3616 -0.3584 -0.2319
 3358TIP3    H110038   6.040   2.279   1.125 -2.0196  0.1312 -1.2278
 3358TIP3    H210039   6.150   2.302   1.024  0.0274 -1.6856  0.4856
 3359TIP3   OH210040   1.971   3.956   4.817 -0.4174  0.1736  0.3235
 3359TIP3    H110041   1.987   3.896   4.745  0.8525  1.5798 -0.6227
 3359TIP3    H210042   1.966   3.900   4.895  0.7032 -1.1609 -0.5227
 3360TIP3   OH210043   5.187   5.020   0.968  0.0914  0.0513  0.5874
 3360TIP3    H110044   5.194   5.096   1.026  2.0146  0.5390 -0.2402
 3360TIP3    H210045   5.219   5.050   0.884  0.4426 -1.5564  0.1106
 3361TIP3   OH210046   1.704   1.054   1.706 -0.8378  0.5138  0.2057
 3361TIP3    H110047   1.743   0.967   1.699  0.0974  0.9990 -0.9292
 3361TIP3    H210048   1.612   1.041   1.685 -0.7143 -0.2093  0.0909
 3362TIP3   OH210049   1.773   3.373   0.384 -0.1674 -0.4373 -0.4456
 3362TIP3    H110050   1.690   3.370   0.432 -0.9693 -0.4667 -1.7757
 3362TIP3    H210051   1.823   3.299   0.417 -0.6788 -0.4325  0.3644
 3363TIP3   OH210052   7.195   0.629   2.965 -0.0940 -0.0739  0.0783
 3363TIP3    H110053   7.165   0.650   3.053  0.6740 -0.6704  0.4964
 3363TIP3    H210054   7.242   0.546   2.975 -0.0497 -0.1815 -0.9033
 3364TIP3   OH210055   2.606   0.115   4.304  0.1166  0.0709  0.8920
 3364TIP3    H110056   2.535   0.056   4.330 -0.9428  1.3136  0.9957
 3364TIP3    H210057   2.673   0.059   4.266 -1.1948 -1.0945  0.2240
 3365TIP3   OH210058   6.639   1.622   5.255 -0.3339 -0.0735  0.1850
 3365TIP3    H110059   6.718   1.624   5.309  0.1019  0.4101 -0.4393
 3365TIP3    H210060   6.608   1.713   5.255 -2.4536 -0.6893  2.6053
 3366TIP3   OH210061   3.660   1.305   2.845  0.2061  0.7384 -0.1533
 3366TIP3    H110062   3.709   1.382   2.817 -0.4296  1.3957  0.5241
 3366TIP3    H210063   3.727   1.239   2.863  0.7214  0.8691 -1.4775
 3367TIP3   OH210064   4.814   6.399   1.820  0.3194 -0.2746  0.6908
 3367TIP3    H110065   4.736   6.444   1.850  0.7135  0.7507  0.2112
 3367TIP3    H210066   4.886   6.442   1.867  0.7450 -0.0920 -0.1183
 3368TIP3   OH210067   1.857   4.188   0.729 -0.0268 -0.0999  0.3204
 3368TIP3    H110068   1.933   4.245   0.737 -0.5722  0.8028 -0.6824
 3368TIP3    H210069   1.814   4.193   0.815 -0.6736  1.9270 -0.0615
 3369TIP3   OH210070   6.648   1.986   2.453  0.2516 -0.1846  0.2158
 3369TIP3    H110071   6.742   1.998   2.443  0.0706 -0.0888 -2.0359
 3369TIP3    H210072   6.617   2.068   2.492  0.9329  0.3569 -0.3630
 3370TIP3   OH210073   5.360   6.396   2.833  0.5879  0.2626  0.2343
 3370TIP3    H110074   5.440   6.387   2.884  0.2574 -0.5606  0.6161
 3370TIP3    H210075   5.295   6.430   2.894  0.2028 -0.6843  0.3650
 3371TIP3   OH210076   2.135   0.283   3.219 -0.3802  0.3569  0.6267
 3371TIP3    H110077   2.066   0.292   3.154  0.1945  3.1241  0.2829
 3371TIP3    H210078   2.101   0.325   3.297  0.5445  0.9042  0.7520
 3372TIP3   OH210079   2.877   5.491   2.520  0.0204 -0.5770 -0.5168
 3372TIP3    H110080   2.807   5.492   2.585 -2.0156  0.4692 -2.5731
 3372TIP3    H210081   2.921   5.575   2.531 -1.3362  0.2950 -1.4435
 3373TIP3   OH210082   5.560   4.360   2.309  0.2487  0.0788  0.3921
 3373TIP3    H110083   5.638   4.335   2.259 -0.7303  0.3152 -1.3328
 3373TIP3    H210084   5.595   4.404   2.387  1.8442 -0.2700 -0.0814
 3374TIP3   OH210085   3.902   4.067   0.808 -0.3869 -0.3840 -0.0523
 3374TIP3    H110086   3.848   4.090   0.883  0.4636 -0.2168  0.5077
 3374TIP3    H210087   3.989   4.049   0.844  0.0144 -0.3759 -0.9814
 3375TIP3   OH210088   1.087   0.823   5.854  0.7162 -0.1961  0.2704
 3375TIP3    H110089   1.015   0.791   5.909  2.1120  0.2822  2.4722
 3375TIP3    H210090   1.114   0.905   5.895  1.3915  0.5382 -1.5538
 3376TIP3   OH210091   5.176   6.525   0.302  0.1846 -0.2719  0.1101
 3376TIP3    H110092   5.175   6.599   0.243 -0.4117 -1.2017 -1.0892
 3376TIP3    H210093   5.124   6.458   0.258 -0.0205 -1.1081  1.5470
 3377TIP3   OH210094   2.223   2.686   2.433  0.0613  0.0967 -0.4189
 3377TIP3    H110095   2.239   2.776   2.402  0.9814 -0.3274 -1.2428
 3377TIP3    H210096   2.254   2.686   2.523  1.2866  0.2954 -0.8144
 3378TIP3   OH210097   6.222   3.187   0.535  0.3030 -0.3084 -0.7198
 3378TIP3    H110098   6.200   3.243   0.609 -0.7739  0.1528 -1.3679
 3378TIP3    H210099   6.303   3.143   0.561 -0.6601 -1.0150  1.1985
 3379TIP3   OH210100   7.156   0.095   2.851  0.2083 -0.5647  0.5986
 3379TIP3    H110101   7.162   0.011   2.897 -0.3654 -0.7197  0.3976
 3379TIP3    H210102   7.247   0.122   2.840  0.4976 -1.8785 -0.6596
 3380TIP3   OH210103   7.140   3.030   4.176  1.0707  0.0765 -0.2868
 3380TIP3    H110104   7.066   3.059   4.122  0.0084 -0.2259  0.9602
 3380TIP3    H210105   7.170   3.109   4.219  0.6555 -0.0136  0.1708
 3381TIP3   OH210106   7.228   6.031   0.874  0.3613 -0.0313  0.6264
 3381TIP3    H110107   7.200   5.944   0.846  0.7055 -0.0119  0.2179
 3381TIP3    H210108   7.151   6.087   0.860  0.9340  0.2942 -1.7181
 3382TIP3   OH210109   1.381   4.977   3.521  0.4323 -0.1579 -0.4279
 3382TIP3    H110110   1.408   4.896   3.564 -0.5815 -0.5985 -0.5921
 3382TIP3    H210111   1.338   4.948   3.440  0.1078  0.5464 -0.5140
 3383TIP3   OH210112   5.840   4.572   1.781 -0.2875  0.0599  0.1450
 3383TIP3    H110113   5.749   4.587   1.754  0.1892  0.3576 -1.3728
 3383TIP3    H210114   5.887   4.557   1.699  0.7709 -1.6163  1.0208
 3384TIP3   OH210115   3.054   0.836   3.784 -0.5238 -0.2976  0.2209
 3384TIP3    H110116   3.013   0.751   3.768 -3.4549  0.6372  1.9905
 3384TIP3    H210117   2.997   0.899   3.741 -0.5119  1.0204  2.0253
 3385TIP3   OH210118   1.552   2.155   4.876 -0.1147  0.5057 -0.4055
 3385TIP3    H110119   1.574   2.163   4.968 -1.5988 -0.2194  0.0514
 3385TIP3    H210120   1.626   2.195   4.829  1.5090 -0.7098  1.0070
 3386TIP3   OH210121   5.267   0.188   4.516 -0.1658 -0.3651 -0.0935
 3386TIP3    H110122   5.219   0.132   4.456 -0.0693 -2.2241  1.4686
 3386TIP3    H210123   5.320   0.128   4.568 -0.0476  1.1720  1.6698
 3387TIP3   OH210124   4.787   0.870   1.539  0.1823 -0.0759  0.1650
 3387TIP3    H110125   4.705   0.821   1.534  1.4184 -2.2382 -0.1992
 3387TIP3    H210126   4.796   0.893   1.631  0.1579 -1.6679  0.5938
 3388TIP3   OH210127   0.369   2.912   5.545 -0.6037 -0.4822  0.2047
 3388TIP3    H110128   0.453   2.947   5.575  0.5369 -3.0690  0.3219
 3388TIP3    H210129   0.366   2.935   5.452 -1.6743  2.9692  0.9492
 3389TIP3   OH210130   6.307   1.700   4.699  0.2058  0.3877 -0.0678
 3389TIP3    H110131   6.257   1.781   4.695  0.3122  0.5123  0.9992
 3389TIP3    H210132   6.366   1.705   4.624 -1.6574  0.0193 -1.6646
 3390TIP3   OH210133   7.180   1.369   1.992  0.3366  0.3623 -0.0221
 3390TIP3    H110134   7.177   1.355   2.086 -0.6590  1.9565  0.2182
 3390TIP3    H210135   7.101   1.420   1.973 -0.9448 -2.1495 -2.1462
 3391TIP3   OH210136   3.358   0.432   3.336 -0.6638 -0.3078  0.0471
 3391TIP3    H110137   3.361   0.341   3.307  0.8532 -0.2466 -0.0154
 3391TIP3    H210138   3.445   0.450   3.370 -1.4893  0.5345  1.8910
 3392TIP3   OH210139   5.679   6.232   4.226 -0.2444  0.2275  0.1801
 3392TIP3    H110140   5.757   6.214   4.278 -0.2799  0.5662  0.3577
 3392TIP3    H210141   5.709   6.293   4.158  0.3001 -1.8958 -1.5818
 3393TIP3   OH210142   3.892   5.662   0.067 -0.4352  0.5299 -0.2080
 3393TIP3    H110143   3.942   5.631   0.143 -0.0034 -0.0848 -0.7259
 3393TIP3    H210144   3.909   5.596  -0.000 -0.5153  1.2593 -0.9524
 3394TIP3   OH210145   2.819   3.578   2.157 -0.1256 -0.4141 -0.2311
 3394TIP3    H110146   2.902   3.548   2.118  1.1434  0.5586  1.5531
 3394TIP3    H210147   2.819   3.672   2.143 -0.5189 -0.2981  0.5258
 3395TIP3   OH210148   6.795   4.706   4.147 -0.2819 -0.2065  0.4595
 3395TIP3    H110149   6.797   4.611   4.140 -0.3377 -0.1728 -0.0480
 3395TIP3    H210150   6.702   4.727   4.159 -0.3570 -0.1717 -0.1502
 3396TIP3   OH210151   1.467   1.631   3.443 -0.0768  0.4525 -0.2340
 3396TIP3    H110152   1.559   1.634   3.469 -0.1721  0.7909  0.0666
 3396TIP3    H210153   1.463   1.684   3.364 -0.3157  1.8601  0.6920
 3397TIP3   OH210154   5.277   3.864   5.210  0.1513 -0.1187 -0.5016
 3397TIP3    H110155   5.284   3.807   5.287  1.0987  0.4420 -0.1725
 3397TIP3    H210156   5.366   3.869   5.176  0.1254  1.3671 -0.3852
 3398TIP3   OH210157   7.015   3.882   0.923  0.0780  0.5174 -0.1556
 3398TIP3    H110158   7.014   3.967   0.966  0.1667 -0.2690  1.4994
 3398TIP3    H210159   7.108   3.864   0.907  0.0834  0.5899 -0.2037
 3399TIP3   OH210160   6.044   3.223   2.261  0.5263  0.0136 -0.2903
 3399TIP3    H110161   5.953   3.245   2.280  0.9191  1.9097 -0.3960
 3399TIP3    H210162   6.052   3.131   2.285 -1.1162  0.1251  0.8522
 3400TIP3   OH210163   5.341   6.270   1.700 -0.6875  0.0163 -0.0844
 3400TIP3    H110164   5.418   6.287   1.645 -0.8668 -0.7305 -0.5708
 3400TIP3    H210165   5.285   6.347   1.686 -0.2947  0.2910 -0.1795
 3401TIP3   OH210166   3.426   4.747   2.877  0.1745 -0.4366  0.8242
 3401TIP3    H110167   3.502   4.767   2.823 -0.0897 -1.7098 -0.0625
 3401TIP3    H210168   3.459   4.748   2.967  1.7859 -2.9367  0.3733
 3402TIP3   OH210169   7.181   3.513   5.407 -0.0173  0.9809  0.1438
 3402TIP3    H110170   7.228   3.596   5.394 -1.4804  1.7438 -0.6095
 3402TIP3    H210171   7.123   3.507   5.331 -0.1105 -0.6404  0.3131
 3403TIP3   OH210172   6.679   3.450   4.553  0.1146 -0.2261  0.1684
 3403TIP3    H110173   6.691   3.399   4.632 -0.6525 -0.8167 -0.0805
 3403TIP3    H210174   6.648   3.387   4.488 -1.6886  0.6599  0.0864
 3404TIP3   OH210175   3.747   5.086   2.683 -0.0602  0.2971  0.7695
 3404TIP3    H110176   3.762   5.082   2.777 -0.7785  0.0671  0.8801
 3404TIP3    H210177   3.724   5.177   2.666  0.1802  0.3637  0.7986
 3405TIP3   OH210178   3.670   0.578   3.740 -0.0981  0.8734 -0.3462
 3405TIP3    H110179   3.598   0.636   3.765  1.0340  3.3981 -2.4628
 3405TIP3    H210180   3.725   0.631   3.682  1.7729 -1.9484 -1.3821
 3406TIP3   OH210181   0.818   4.881   4.359 -0.2600 -0.2087  0.7470
 3406TIP3    H110182   0.725   4.898   4.373 -0.5922  0.2392 -1.4903
 3406TIP3    H210183   0.831   4.901   4.266  2.0322 -0.4644  0.9689
 3407TIP3   OH210184   5.688   2.405   5.859  0.5139 -0.0407  0.8042
 3407TIP3    H110185   5.712   2.314   5.843  0.9385  0.3515 -1.0485
 3407TIP3    H210186   5.599   2.413   5.826  0.6711  0.3308  0.4605
 3408TIP3   OH210187   3.558   4.315   1.948  0.1743 -0.4095  0.1334
 3408TIP3    H110188   3.582   4.401   1.984 -0.9903  1.0788 -2.3558
 3408TIP3    H210189   3.623   4.299   1.879 -0.5317 -0.7670 -0.4605
 3409TIP3   OH210190   4.150   6.745   2.829 -0.3422  0.4214  0.2146
 3409TIP3    H110191   4.079   6.712   2.885  0.6606 -1.2553  0.5831
 3409TIP3    H210192   4.105   6.791   2.759 -1.7165  0.9723  1.3950
 3410TIP3   OH210193   0.440   1.387   3.452  0.4490 -0.4444  0.0218
 3410TIP3    H110194   0.449   1.347   3.538  3.6252 -0.8153 -0.3727
 3410TIP3    H210195   0.524   1.372   3.409  0.6758  3.6516 -1.4456
 3411TIP3   OH210196   1.360   0.075   4.469  0.3655 -0.3538 -1.1321
 3411TIP3    H110197   1.424   0.144   4.452  0.1234  0.8487  2.0015
 3411TIP3    H210198   1.275   0.115   4.451  0.3118 -0.5048 -1.2191
 3412TIP3   OH210199   3.572   2.170   4.958 -0.2693  0.0359 -0.4434
 3412TIP3    H110200   3.656   2.125   4.969 -1.0951 -1.2869  0.6700
 3412TIP3    H210201   3.596   2.257   4.928  1.6929  0.7027  2.6616
 3413TIP3   OH210202   3.152   6.586   4.712  0.6721 -0.3525  0.5934
 3413TIP3    H110203   3.247   6.597   4.711  0.7190 -0.7457  0.0264
 3413TIP3    H210204   3.134   6.532   4.789  1.0182 -1.1448  0.1313
 3414TIP3   OH210205   2.882   3.337   3.123  0.2535 -0.4795  0.4060
 3414TIP3    H110206   2.833   3.386   3.189  0.4499  0.2944 -0.0103
 3414TIP3    H210207   2.969   3.326   3.161 -0.2387 -1.9178  1.1773
 3415TIP3   OH210208   1.850   0.570   1.473 -0.0675 -0.3713 -0.1345
 3415TIP3    H110209   1.850   0.475   1.461 -0.9532 -0.5024  0.7505
 3415TIP3    H210210   1.761   0.597   1.449 -0.2595  0.0344  0.9757
 3416TIP3   OH210211   0.600   1.549   2.575 -0.1925 -0.0716 -0.1888
 3416TIP3    H110212   0.694   1.531   2.581  0.0140  1.1587  0.6145
 3416TIP3    H210213   0.577   1.527   2.484  0.6862 -1.1650 -0.1640
 3417TIP3   OH210214   6.419   5.068   4.283  0.2091 -0.2669  0.3361
 3417TIP3    H110215   6.373   5.015   4.349  0.5343 -0.6851  0.2331
 3417TIP3    H210216   6.511   5.059   4.307  0.1706  1.7023  1.3948
 3418TIP3   OH210217   4.671   0.651   0.614  0.3761  0.0553 -0.1385
 3418TIP3    H110218   4.716   0.724   0.573 -0.5786  0.7608  0.0352
 3418TIP3    H210219   4.607   0.622   0.549  1.4094 -1.3019 -0.6026
 3419TIP3   OH210220   7.012   3.100   2.153 -0.0655  0.3500 -0.9035
 3419TIP3    H110221   6.930   3.079   2.197  0.8164 -1.5623 -0.0382
 3419TIP3    H210222   7.024   3.194   2.167 -1.1535  0.2936  0.6206
 3420TIP3   OH210223   4.823   2.959   1.822 -0.0751  0.0842  0.3804
 3420TIP3    H110224   4.841   3.043   1.781  0.1533 -0.0646  0.1695
 3420TIP3    H210225   4.727   2.951   1.820 -0.0324 -1.1680 -2.7783
 3421TIP3   OH210226   5.909   3.231   1.334  0.5105  0.3368  0.2342
 3421TIP3    H110227   5.962   3.153   1.351 -0.3254 -0.2047  0.3883
 3421TIP3    H210228   5.973   3.300   1.315  1.2681 -0.2946  0.4675
 3422TIP3   OH210229   4.881   0.625   0.797 -0.1243 -0.3115  0.3129
 3422TIP3    H110230   4.916   0.712   0.816  1.6115 -0.5765 -1.2690
 3422TIP3    H210231   4.792   0.641   0.764 -0.7472  0.6054  2.3352
 3423TIP3   OH210232   3.614   3.306   1.350 -0.3502 -0.0585  0.0509
 3423TIP3    H110233   3.706   3.327   1.363 -0.8495  2.3714  0.2956
 3423TIP3    H210234   3.598   3.326   1.257 -1.0169  1.4371  0.4607
 3424TIP3   OH210235   6.030   5.005   1.643  0.4776 -0.2577 -0.1042
 3424TIP3    H110236   6.118   4.974   1.667 -0.1026 -0.9891  1.2377
 3424TIP3    H210237   6.000   4.942   1.578  1.3291  0.6112 -1.3857
 3425TIP3   OH210238   4.473   5.024   5.178  0.0409  0.2599 -0.4962
 3425TIP3    H110239   4.516   4.941   5.158  2.1151  1.4097 -1.0983
 3425TIP3    H210240   4.481   5.032   5.273 -1.7765 -1.0222 -0.1959
 3426TIP3   OH210241   6.555   5.813   1.792  0.7360 -0.4379 -0.4073
 3426TIP3    H110242   6.626   5.868   1.824 -1.5346  0.2414  4.2889
 3426TIP3    H210243   6.565   5.730   1.839 -0.7855 -0.8052 -0.6642
 3427TIP3   OH210244   1.210   0.719   4.047 -0.0881  0.5136  0.0911
 3427TIP3    H110245   1.270   0.789   4.020  2.0773 -0.4470  2.0077
 3427TIP3    H210246   1.162   0.757   4.121  1.6492 -0.1458  1.6500
 3428TIP3   OH210247   0.058   2.156   2.671  0.5362  0.0911 -0.0730
 3428TIP3    H110248   0.051   2.197   2.585  2.1008  0.6272  0.0266
 3428TIP3    H210249  -0.031   2.154   2.704  0.2095  2.0992 -0.7028
 3429TIP3   OH210250   0.635   0.633   1.893  0.3598 -0.4912 -0.0660
 3429TIP3    H110251   0.563   0.590   1.940 -2.2815  3.0323 -0.5175
 3429TIP3    H210252   0.707   0.633   1.956 -2.0601  1.3152  3.0350
 3430TIP3   OH210253   1.362   3.244   1.587 -0.3194 -0.5106 -0.5739
 3430TIP3    H110254   1.308   3.221   1.663 -0.2893  0.7538 -0.1471
 3430TIP3    H210255   1.441   3.192   1.596  0.4275  0.8318  1.2104
 3431TIP3   OH210256   3.155   1.468   4.455  0.2878 -0.5985 -0.0885
 3431TIP3    H110257   3.226   1.531   4.441  0.3162 -0.0308  2.1755
 3431TIP3    H210258   3.144   1.466   4.550 -1.7095 -1.8281 -0.2983
 3432TIP3   OH210259   0.565   6.018   0.009 -0.6009  0.0988  0.0031
 3432TIP3    H110260   0.569   5.923   0.005  0.0485  0.1722 -2.1796
 3432TIP3    H210261   0.471   6.038   0.002 -0.8564 -0.3737  1.7026
 3433TIP3   OH210262   6.422   2.075   1.189  0.2222 -0.2724  0.2839
 3433TIP3    H110263   6.392   2.117   1.108 -1.1566 -0.1601  0.8239
 3433TIP3    H210264   6.392   2.133   1.258 -2.0207 -2.2046  1.0788
 3434TIP3   OH210265   4.474   0.091   0.446  0.4327 -0.5505  0.0928
 3434TIP3    H110266   4.537   0.085   0.374 -0.0777  1.4872 -0.6139
 3434TIP3    H210267   4.501   0.170   0.494 -0.9301 -0.2639  0.4118
 3435TIP3   OH210268   1.738   4.550   5.333 -0.3309  0.5447  0.5189
 3435TIP3    H110269   1.791   4.509   5.265  0.8108  0.0531  1.6452
 3435TIP3    H210270   1.649   4.546   5.301  0.0060 -1.0374 -0.2843
 3436TIP3   OH210271   3.697   1.061   1.978  0.0114  0.8431  0.3443
 3436TIP3    H110272   3.673   0.968   1.982  0.0101  0.8751  1.7185
 3436TIP3    H210273   3.743   1.071   1.895 -0.8627 -0.1675 -0.2957
 3437TIP3   OH210274   6.968   6.523   5.307 -0.6588  0.2593  0.0929
 3437TIP3    H110275   6.890   6.533   5.363  0.1612 -0.5978  1.4430
 3437TIP3    H210276   7.023   6.599   5.328  0.6538 -1.1652  2.2083
 3438TIP3   OH210277   1.620   2.227   3.345 -0.4352  0.3377 -0.1502
 3438TIP3    H110278   1.651   2.260   3.429  0.5880 -0.7176 -0.0909
 3438TIP3    H210279   1.675   2.269   3.280 -0.5545  0.3830 -0.2223
 3439TIP3   OH210280   2.407   1.649   0.080 -0.8354  0.3652  0.2836
 3439TIP3    H110281   2.413   1.556   0.057  0.3801  0.3423  0.6117
 3439TIP3    H210282   2.370   1.649   0.168  1.0789  0.0467  1.1308
 3440TIP3   OH210283   4.409   5.416   4.225  0.0233  0.8003 -0.0055
 3440TIP3    H110284   4.367   5.502   4.230 -1.4693  0.1439 -0.7392
 3440TIP3    H210285   4.500   5.433   4.250  0.1123  2.8507 -1.4733
 3441TIP3   OH210286   4.737   1.489   1.227  0.0536 -0.1151  0.1076
 3441TIP3    H110287   4.719   1.410   1.279  1.2273 -1.1094 -0.9206
 3441TIP3    H210288   4.831   1.503   1.238  0.2311 -0.0761 -1.3495
 3442TIP3   OH210289   2.705   2.647   4.826  0.7876  0.1379 -0.2410
 3442TIP3    H110290   2.786   2.597   4.811 -0.5318 -2.2774  0.1247
 3442TIP3    H210291   2.644   2.613   4.760 -0.5549  0.3067  0.8707
 3443TIP3   OH210292   0.302   2.604   4.205  0.1336  0.0972 -0.6457
 3443TIP3    H110293   0.323   2.687   4.162 -0.7273  0.2691 -0.7447
 3443TIP3    H210294   0.262   2.551   4.136 -1.1510  0.3347 -0.1232
 3444TIP3   OH210295   0.625   3.050   4.533 -0.2339  0.3691  0.1920
 3444TIP3    H110296   0.554   3.088   4.584  0.4336  0.3586  1.1442
 3444TIP3    H210297   0.586   3.033   4.447 -1.2541  0.7718  0.5620
 3445TIP3   OH210298   3.038   4.067   1.149 -0.1153  0.4059  0.5312
 3445TIP3    H110299   3.005   4.058   1.059  0.7258 -1.8407  0.3695
 3445TIP3    H210300   3.063   4.159   1.157 -1.9760  1.0953 -0.8814
 3446TIP3   OH210301   4.060   0.192   4.425 -0.5458  0.3047 -0.2326
 3446TIP3    H110302   4.008   0.260   4.383 -1.0291  0.3065  0.3590
 3446TIP3    H210303   3.996   0.125   4.451 -0.0651 -0.4408 -0.9230
 3447TIP3   OH210304   0.790   5.234   4.315 -0.4633 -0.0182  0.5864
 3447TIP3    H110305   0.727   5.226   4.243 -0.5123 -1.3678  0.7678
 3447TIP3    H210306   0.782   5.325   4.343 -0.9732  0.3332 -0.6289
 3448TIP3   OH210307   4.058   5.993   0.751 -0.0266 -0.2883  0.0420
 3448TIP3    H110308   4.119   5.997   0.824 -0.8365  0.8348  0.6768
 3448TIP3    H210309   3.974   6.021   0.787 -0.7634 -1.0637 -0.9901
 3449TIP3   OH210310   2.880   2.702   1.073 -0.0790  0.1169  0.0162
 3449TIP3    H110311   2.866   2.644   1.148  0.0980  3.2650  2.7414
 3449TIP3    H210312   2.793   2.739   1.055  0.2354  0.9524  0.1439
 3450TIP3   OH210313   3.727   2.008   0.504 -0.2338  0.3759  0.3705
 3450TIP3    H110314   3.725   1.913   0.504 -2.6490  0.3654  0.3273
 3450TIP3    H210315   3.773   2.031   0.423 -0.4189 -0.7555 -0.0780
 3451TIP3   OH210316   4.901   3.440   2.752  0.6296  0.4513  0.4245
 3451TIP3    H110317   4.883   3.432   2.658  0.0148  0.1991  0.5559
 3451TIP3    H210318   4.980   3.494   2.757  0.3639  0.9117 -0.2222
 3452TIP3   OH210319   3.571   2.793   3.972 -0.1690  0.0791  0.0707
 3452TIP3    H110320   3.529   2.786   4.057  1.8638 -0.4452  1.0928
 3452TIP3    H210321   3.593   2.886   3.963  0.0779  0.0488  0.3609
 3453TIP3   OH210322   4.647   3.940   2.254 -0.0585  0.0978  0.2087
 3453TIP3    H110323   4.607   3.869   2.202  0.8073 -0.3200  0.0869
 3453TIP3    H210324   4.699   3.894   2.320 -0.4110  0.6338  0.8612
 3454TIP3   OH210325   3.701   6.197   1.834  0.7863 -0.2616 -0.3598
 3454TIP3    H110326   3.770   6.171   1.773  1.2811  1.5023 -0.6006
 3454TIP3    H210327   3.628   6.223   1.779  0.7189 -0.0251 -0.1615
 3455TIP3   OH210328   5.420   1.904   1.333  0.2386 -0.0232  0.4448
 3455TIP3    H110329   5.410   1.906   1.237 -0.0105  0.5658  0.4785
 3455TIP3    H210330   5.347   1.956   1.365  0.7001  0.3390  0.9257
 3456TIP3   OH210331   2.164   6.211   0.455 -1.1129 -0.5791  0.0431
 3456TIP3    H110332   2.139   6.245   0.369  1.5766 -0.4869 -0.8179
 3456TIP3    H210333   2.154   6.116   0.447 -0.2022 -0.6316 -0.6643
 3457TIP3   OH210334   2.264   2.963   2.983 -0.4415  0.0720 -0.1050
 3457TIP3    H110335   2.274   3.020   2.907  0.8410  0.5436  0.3766
 3457TIP3    H210336   2.345   2.976   3.033 -1.3894  0.0261  1.5110
 3458TIP3   OH210337   5.401   5.374   2.783  0.0946 -0.3272  0.1977
 3458TIP3    H110338   5.393   5.457   2.830  1.9670  0.4858 -0.8143
 3458TIP3    H210339   5.436   5.313   2.848  0.6246  0.2139  0.4225
 3459TIP3   OH210340   1.772   5.118   5.205  1.1566  0.2546 -0.4972
 3459TIP3    H110341   1.841   5.054   5.187  1.1000  0.1895 -0.4826
 3459TIP3    H210342   1.782   5.138   5.298  1.2485  0.3547 -0.5281
 3460TIP3   OH210343   5.003   3.884   0.986  0.1817 -0.5315 -0.1338
 3460TIP3    H110344   4.947   3.932   1.047 -0.8458 -3.2302  1.2321
 3460TIP3    H210345   5.087   3.929   0.991 -1.1547  2.2108 -0.4366
 3461TIP3   OH210346   1.742   0.692   0.435  0.4041 -0.3762  0.6267
 3461TIP3    H110347   1.836   0.673   0.433  0.8490  1.6415 -0.3297
 3461TIP3    H210348   1.724   0.714   0.526  1.6887  2.5327  0.3106
 3462TIP3   OH210349   0.929   3.433   0.745  0.7135  0.6826  0.1073
 3462TIP3    H110350   0.880   3.475   0.674 -0.7940 -0.0573  0.6600
 3462TIP3    H210351   0.863   3.418   0.814  1.5224 -1.1343  0.5434
 3463TIP3   OH210352   6.421   3.386   3.465 -0.0874 -0.5052  0.0110
 3463TIP3    H110353   6.341   3.439   3.466  0.4158  0.2650  0.1119
 3463TIP3    H210354   6.483   3.436   3.517  0.5665 -0.9404 -0.3412
 3464TIP3   OH210355   0.813   2.028   4.635  0.0228  0.6881  0.5102
 3464TIP3    H110356   0.773   1.998   4.717 -1.3230 -1.3350 -0.7929
 3464TIP3    H210357   0.752   2.093   4.601 -0.9737 -0.6203 -0.2813
 3465TIP3   OH210358   5.750   2.248   4.986 -0.7327  0.0524  0.7585
 3465TIP3    H110359   5.756   2.343   4.978 -0.5112  0.0890  1.3069
 3465TIP3    H210360   5.819   2.224   5.048 -1.2567 -0.3826  1.1914
 3466TIP3   OH210361   5.130   2.431   0.977  0.1157  0.8798 -0.4253
 3466TIP3    H110362   5.187   2.504   0.953 -0.6066  1.5295 -0.2174
 3466TIP3    H210363   5.065   2.470   1.035 -0.2110  0.0406 -0.2194
 3467TIP3   OH210364   0.723   3.225   0.205  0.8166  0.3674 -0.5212
 3467TIP3    H110365   0.789   3.206   0.139  0.3209  1.1788 -1.2713
 3467TIP3    H210366   0.696   3.316   0.187 -0.9061 -0.1270 -0.6134
 3468TIP3   OH210367   2.674   0.682   2.989  0.0653  0.3028 -0.5522
 3468TIP3    H110368   2.709   0.760   2.945  0.5162 -0.0300 -0.8090
 3468TIP3    H210369   2.709   0.609   2.937  0.3068 -0.0915  0.1511
 3469TIP3   OH210370   5.602   5.551   5.264  0.5782  0.1942  0.1888
 3469TIP3    H110371   5.650   5.615   5.318 -0.6277  0.0157  1.5314
 3469TIP3    H210372   5.572   5.485   5.327  0.5829 -0.9450 -0.9776
 3470TIP3   OH210373   2.202   5.527   0.359  0.3311  0.6511  0.7045
 3470TIP3    H110374   2.233   5.439   0.379 -1.0918 -0.0815 -0.1229
 3470TIP3    H210375   2.134   5.514   0.292  0.1177  2.3775  0.5363
 3471TIP3   OH210376   3.270   5.212   0.267  0.2202  0.2570  0.2176
 3471TIP3    H110377   3.289   5.285   0.208  0.0548  0.3752  0.3121
 3471TIP3    H210378   3.353   5.166   0.275  0.2495  0.2544 -0.0917
 3472TIP3   OH210379   4.804   2.132   4.577 -0.4384 -0.5967  0.2698
 3472TIP3    H110380   4.715   2.138   4.613 -0.9562 -0.8464 -0.8978
 3472TIP3    H210381   4.847   2.213   4.605 -1.2405 -0.1790  0.3272
 3473TIP3   OH210382   2.170   0.884   1.589 -0.2872  0.2791  0.1597
 3473TIP3    H110383   2.204   0.845   1.670 -0.2134  0.1821  0.0815
 3473TIP3    H210384   2.215   0.969   1.583  0.6136 -0.2175 -0.4027
 3474TIP3   OH210385   2.069   0.284   5.823  0.0310  0.4625  0.5320
 3474TIP3    H110386   2.046   0.254   5.911 -0.9393  1.0630  0.4972
 3474TIP3    H210387   2.126   0.215   5.789 -1.8937 -1.2458  0.5495
 3475TIP3   OH210388   2.622   0.079   2.387 -0.0190 -0.1473 -0.8729
 3475TIP3    H110389   2.544   0.067   2.441 -0.5918 -3.0283 -2.1603
 3475TIP3    H210390   2.672   0.147   2.432 -1.0991 -1.3938  2.4981
 3476TIP3   OH210391   1.272   6.525   5.860 -0.4308  0.0488  0.7283
 3476TIP3    H110392   1.213   6.516   5.934 -1.4344  1.7297  0.2087
 3476TIP3    H210393   1.226   6.585   5.801  0.5233 -0.8910 -1.0507
 3477TIP3   OH210394   0.040   5.309   2.010 -0.4082  0.3593 -0.0449
 3477TIP3    H110395   0.088   5.370   1.955  0.5635  1.3956  1.8498
 3477TIP3    H210396  -0.045   5.350   2.023 -0.6657  0.0777 -0.7857
 3478TIP3   OH210397   0.338   1.412   1.515  0.1098 -0.0605  0.9162
 3478TIP3    H110398   0.260   1.428   1.567 -1.4383 -0.5563 -1.1178
 3478TIP3    H210399   0.385   1.495   1.514 -1.7795  1.0568  0.0458
 3479TIP3   OH210400   0.462   1.107   5.399 -0.3579  0.1933  0.3502
 3479TIP3    H110401   0.492   1.190   5.436 -1.5468  1.7935 -2.0299
 3479TIP3    H210402   0.502   1.104   5.311  0.7382 -2.4505  0.8198
 3480TIP3   OH210403   4.923   4.610   0.638  0.2405  0.0680  0.0877
 3480TIP3    H110404   4.916   4.684   0.700  2.3718 -0.6380  1.2982
 3480TIP3    H210405   4.970   4.646   0.563 -1.4270  0.6721 -0.6879
 3481TIP3   OH210406   7.077   3.308   3.172  0.2598 -0.2855 -0.1250
 3481TIP3    H110407   7.150   3.254   3.141  1.1121  1.3903 -1.2120
 3481TIP3    H210408   7.111   3.351   3.250  0.7896  1.1333 -1.0968
 3482TIP3   OH210409   4.892   3.264   1.261  0.4899 -0.1164 -0.2292
 3482TIP3    H110410   4.841   3.215   1.326  0.0417 -1.1799 -1.3402
 3482TIP3    H210411   4.841   3.257   1.181 -1.8392  5.6578  0.2866
 3483TIP3   OH210412   0.381   6.328   1.528  0.0977  0.0505  1.2009
 3483TIP3    H110413   0.433   6.350   1.605 -0.1689  1.6177  0.9720
 3483TIP3    H210414   0.443   6.288   1.468  1.4663  3.0209  0.4159
 3484TIP3   OH210415   0.187   6.762   3.591 -0.4451 -0.4961 -0.4660
 3484TIP3    H110416   0.280   6.738   3.582 -0.3026 -1.1947  2.0378
 3484TIP3    H210417   0.178   6.842   3.540  1.9271  0.4122  0.3845
 3485TIP3   OH210418   0.446   5.180   5.462  0.6286 -0.1935 -0.0270
 3485TIP3    H110419   0.364   5.217   5.495  0.6569 -0.5668  0.4808
 3485TIP3    H210420   0.488   5.253   5.416  0.0430  0.0174 -0.2471
 3486TIP3   OH210421   5.218   0.408   5.045  0.4133  0.2194  0.1928
 3486TIP3    H110422   5.256   0.333   4.999 -0.7906 -0.8280  0.8058
 3486TIP3    H210423   5.291   0.448   5.091  1.7483  1.4968 -2.7603
 3487TIP3   OH210424   6.980   2.076   1.522  0.5874 -0.7427 -0.2387
 3487TIP3    H110425   7.048   2.089   1.587  0.9860  1.4692 -1.0164
 3487TIP3    H210426   6.917   2.017   1.564  1.2523 -0.0625  1.8089
 3488TIP3   OH210427   6.668   1.382   1.294  0.2900 -0.1125  0.1574
 3488TIP3    H110428   6.580   1.351   1.315  0.2980 -1.4161 -1.5039
 3488TIP3    H210429   6.704   1.412   1.378 -1.0407 -1.3303  1.2142
 3489TIP3   OH210430   4.573   4.357   4.667  0.2188  0.4486 -0.5714
 3489TIP3    H110431   4.499   4.373   4.608 -0.3611  0.6089  0.1964
 3489TIP3    H210432   4.590   4.263   4.659 -1.0143  0.1252  0.3372
 3490TIP3   OH210433   1.636   5.945   1.345 -0.0639 -0.1362  0.2481
 3490TIP3    H110434   1.546   5.931   1.317 -0.4545  1.1758  0.7567
 3490TIP3    H210435   1.637   5.922   1.438 -0.0996  0.6980  0.4603
 3491TIP3   OH210436   4.456   3.587   1.178  0.0808 -0.3257  0.5588
 3491TIP3    H110437   4.534   3.570   1.231  0.8505 -0.1188 -0.4740
 3491TIP3    H210438   4.413   3.661   1.221 -0.0699 -1.0272  1.6714
 3492TIP3   OH210439   0.691   1.984   1.269  0.7287  0.0645  0.5431
 3492TIP3    H110440   0.596   1.996   1.275  0.9115  1.1663  1.6908
 3492TIP3    H210441   0.703   1.891   1.250 -0.6408  0.3550 -2.1618
 3493TIP3   OH210442   4.821   2.075   1.279 -0.0901  0.4614 -0.3011
 3493TIP3    H110443   4.889   2.076   1.213 -0.4528 -2.0331 -0.8000
 3493TIP3    H210444   4.739   2.086   1.230 -0.2665  0.0484 -0.1061
 3494TIP3   OH210445   2.386   0.697   4.727 -0.2069  0.3324  0.3537
 3494TIP3    H110446   2.345   0.699   4.641  0.6231 -0.0710 -0.0567
 3494TIP3    H210447   2.336   0.762   4.778 -1.4347 -0.2334 -0.0800
 3495TIP3   OH210448   3.188   1.750   1.132 -0.3253  0.4589  0.2865
 3495TIP3    H110449   3.267   1.799   1.156 -0.9933  2.1233 -0.7225
 3495TIP3    H210450   3.122   1.818   1.115 -1.7197 -0.8611  0.2195
 3496TIP3   OH210451   7.109   2.403   2.181 -0.1035  0.3367 -0.0774
 3496TIP3    H110452   7.117   2.449   2.265 -2.1280  1.7738 -0.5697
 3496TIP3    H210453   7.015   2.407   2.161 -0.4429 -4.0472 -0.2325
 3497TIP3   OH210454   0.263   3.545   1.493  0.0541 -0.1378  0.2880
 3497TIP3    H110455   0.285   3.454   1.476 -1.2358 -0.8113  1.9338
 3497TIP3    H210456   0.174   3.555   1.459  0.6704  0.9296 -1.1273
 3498TIP3   OH210457   6.398   0.296   3.115  0.6604  0.1172  0.3120
 3498TIP3    H110458   6.476   0.241   3.113  0.1664 -0.6157 -1.5610
 3498TIP3    H210459   6.366   0.296   3.024 -1.1438  0.9239  0.8878
 3499TIP3   OH210460   0.106   3.356   0.508  0.3855 -0.0401  0.0892
 3499TIP3    H110461   0.146   3.441   0.486  0.7705  0.1018  1.2842
 3499TIP3    H210462   0.032   3.349   0.447 -1.5543  2.5723  1.9014
 3500TIP3   OH210463   2.284   1.757   1.040  0.5434 -0.2720 -0.2039
 3500TIP3    H110464   2.230   1.692   0.994 -0.8383  0.3550  0.4528
 3500TIP3    H210465   2.249   1.757   1.130  0.8864  0.9659 -0.0573
 3501TIP3   OH210466   0.345   6.248   5.313 -0.2299  0.0961 -0.2019
 3501TIP3    H110467   0.317   6.260   5.222  0.5145  0.0574 -0.4387
 3501TIP3    H210468   0.337   6.154   5.328  0.5607 -0.0336 -0.5385
 3502TIP3   OH210469   5.770   5.884   3.525 -0.4253 -0.3640  0.2959
 3502TIP3    H110470   5.808   5.913   3.442 -1.6154 -1.1621 -0.5549
 3502TIP3    H210471   5.725   5.962   3.559  0.6255  0.1573  0.5702
 3503TIP3   OH210472   5.607   6.629   0.816  0.0532  0.4018 -0.1305
 3503TIP3    H110473   5.579   6.553   0.766 -0.7543  0.1992  0.5942
 3503TIP3    H210474   5.555   6.702   0.781  0.4573  0.5274 -0.4793
 3504TIP3   OH210475   0.735   0.066   5.390  0.1101 -0.3819  0.2657
 3504TIP3    H110476   0.654   0.014   5.388  1.1093 -1.9452 -1.3856
 3504TIP3    H210477   0.719   0.136   5.327  0.4617 -1.4198 -1.0261
 3505TIP3   OH210478   2.208   1.918   4.338 -0.6679 -0.0663  0.3508
 3505TIP3    H110479   2.137   1.939   4.399 -0.7240  2.2847 -0.4051
 3505TIP3    H210480   2.249   2.003   4.320 -1.3900 -0.4102 -3.7665
 3506TIP3   OH210481   0.771   1.924   5.569 -0.5793 -0.4343 -0.0926
 3506TIP3    H110482   0.731   1.921   5.656 -1.9960 -2.2001 -0.7348
 3506TIP3    H210483   0.793   2.016   5.555  1.1455 -0.2927  2.7204
 3507TIP3   OH210484   4.889   0.341   1.177  0.2443  0.2710  0.0356
 3507TIP3    H110485   4.931   0.290   1.246 -0.7826  0.1424  0.5930
 3507TIP3    H210486   4.961   0.375   1.124  0.9701 -1.7125 -0.3301
 3508TIP3   OH210487   3.505   1.223   4.890 -0.1427  0.0371  0.2643
 3508TIP3    H110488   3.470   1.136   4.872  1.4420 -0.3311 -1.2921
 3508TIP3    H210489   3.533   1.256   4.804  2.3123  0.7138  1.2410
 3509TIP3   OH210490   2.832   2.727   2.477  0.2553  0.1363 -0.4302
 3509TIP3    H110491   2.846   2.682   2.560 -0.2217  0.6734 -0.0467
 3509TIP3    H210492   2.756   2.685   2.439 -1.3932  1.7924  0.8239
 3510TIP3   OH210493   5.609   6.061   3.674  0.2897 -0.4286  0.2487
 3510TIP3    H110494   5.600   6.070   3.769 -0.3228 -0.7827  0.2298
 3510TIP3    H210495   5.538   6.001   3.649 -0.8329  1.2009 -0.6939
 3511TIP3   OH210496   2.014   6.753   1.754  0.2528 -0.1112 -0.4502
 3511TIP3    H110497   2.057   6.682   1.706 -0.4091  0.0751 -1.3511
 3511TIP3    H210498   1.923   6.723   1.765  0.7050 -0.7725  1.9660
 3512TIP3   OH210499   3.336   5.926   3.424 -0.1435  0.1380 -0.7973
 3512TIP3    H110500   3.280   5.855   3.457  0.5033  0.3099  0.7301
 3512TIP3    H210501   3.395   5.883   3.362  0.6588 -0.8100  0.5783
 3513TIP3   OH210502   6.659   0.096   4.785  0.4455 -0.4058  0.0332
 3513TIP3    H110503   6.693   0.009   4.806 -2.2969 -1.8362 -0.8819
 3513TIP3    H210504   6.650   0.095   4.689 -1.9075 -0.1443  0.1932
 3514TIP3   OH210505   4.561   5.497   1.868 -0.3083 -0.2580  0.0687
 3514TIP3    H110506   4.588   5.482   1.777 -0.3628  0.4832 -0.0788
 3514TIP3    H210507   4.595   5.422   1.916 -1.3186 -1.2964 -0.7658
 3515TIP3   OH210508   6.109   5.486   3.816 -0.5636  0.2065  0.1278
 3515TIP3    H110509   6.036   5.424   3.823 -1.1730  0.7369 -1.3623
 3515TIP3    H210510   6.168   5.447   3.751  0.0844  0.1986  0.7019
 3516TIP3   OH210511   6.721   5.810   0.073  0.1932  0.0695 -0.3949
 3516TIP3    H110512   6.660   5.738   0.056  0.8068 -0.6087  0.1450
 3516TIP3    H210513   6.723   5.818   0.168  0.0852  0.8511 -0.4522
 3517TIP3   OH210514   6.329   5.339   3.727  0.4432  0.3732 -0.2294
 3517TIP3    H110515   6.395   5.373   3.787  1.0618 -0.1175 -0.6139
 3517TIP3    H210516   6.298   5.259   3.769  1.5305 -0.4613 -0.9673
 3518TIP3   OH210517   6.933   5.765   1.678 -0.5789 -0.3493 -0.0963
 3518TIP3    H110518   6.842   5.738   1.693 -0.5277 -0.5605 -0.1682
 3518TIP3    H210519   6.950   5.830   1.746 -1.2060  0.6715 -0.8739
 3519TIP3   OH210520   0.403   1.284   0.074  0.0248 -0.6932  0.1089
 3519TIP3    H110521   0.332   1.347   0.087  1.2433  0.8534 -0.3973
 3519TIP3    H210522   0.383   1.212   0.134 -0.8851  0.6381  1.4754
 3520TIP3   OH210523   2.308   5.754   3.957  0.1198  0.7537  0.0797
 3520TIP3    H110524   2.355   5.767   4.039  1.1769  1.4261 -0.6021
 3520TIP3    H210525   2.276   5.841   3.933  1.0034  0.8371 -0.8890
 3521TIP3   OH210526   4.673   0.814   5.705 -0.3478  0.1097 -0.0180
 3521TIP3    H110527   4.701   0.764   5.628 -0.9673  2.4839 -1.8770
 3521TIP3    H210528   4.736   0.885   5.713  0.2236 -0.5423  2.2825
 3522TIP3   OH210529   0.198   3.176   5.169 -0.7161  0.2173  0.2590
 3522TIP3    H110530   0.127   3.126   5.209  0.5057 -0.0455  2.2402
 3522TIP3    H210531   0.160   3.211   5.088 -2.2594 -2.1182 -0.1334
 3523TIP3   OH210532   3.243   0.473   4.627 -0.2593 -0.4012  0.1242
 3523TIP3    H110533   3.243   0.397   4.569 -0.6509 -0.9391  0.8061
 3523TIP3    H210534   3.322   0.461   4.681 -0.5503 -0.5635  0.5226
 3524TIP3   OH210535   6.266   2.379   4.710  0.3039 -0.1859 -0.4169
 3524TIP3    H110536   6.306   2.428   4.781 -3.0004 -0.5020  1.8511
 3524TIP3    H210537   6.324   2.303   4.697  0.8918 -0.2298  2.0963
 3525TIP3   OH210538   5.798   6.219   2.901 -0.2652  0.1659  0.2767
 3525TIP3    H110539   5.864   6.275   2.860  0.8528 -0.0761  1.6463
 3525TIP3    H210540   5.847   6.167   2.965 -1.3903 -1.8720 -0.4308
 3526TIP3   OH210541   0.220   3.336   4.819  0.0961 -0.1093 -0.0396
 3526TIP3    H110542   0.275   3.260   4.837 -0.6397 -0.6597 -0.0807
 3526TIP3    H210543   0.163   3.308   4.747 -0.1793  0.4775 -0.0538
 3527TIP3   OH210544   4.571   5.287   4.788 -0.0137  0.7057 -0.0023
 3527TIP3    H110545   4.625   5.365   4.776  0.3532  0.5123  0.3803
 3527TIP3    H210546   4.525   5.301   4.870  0.1151  0.4832  0.1090
 3528TIP3   OH210547   2.393   6.407   3.739  0.0913  0.1073 -0.2638
 3528TIP3    H110548   2.460   6.338   3.742 -0.3161 -0.2993 -0.2889
 3528TIP3    H210549   2.408   6.458   3.818 -0.1630 -0.5569  0.2262
 3529TIP3   OH210550   1.688   3.185   3.499 -0.3760 -0.3055 -0.5467
 3529TIP3    H110551   1.631   3.255   3.467  0.3573  1.0292  0.8898
 3529TIP3    H210552   1.670   3.182   3.593  0.9318 -0.7849 -0.2946
 3530TIP3   OH210553   3.393   3.638   1.880 -0.1886 -0.2155 -0.2429
 3530TIP3    H110554   3.485   3.660   1.898 -0.4435  0.5088  0.2072
 3530TIP3    H210555   3.394   3.544   1.862  0.8265  0.0112 -1.4977
 3531TIP3   OH210556   5.021   6.168   5.862 -0.1549  0.1570 -0.0201
 3531TIP3    H110557   4.985   6.085   5.892  0.6619 -0.6975 -1.3172
 3531TIP3    H210558   4.976   6.185   5.778 -0.6680  1.2816  0.4608
 3532TIP3   OH210559   7.166   3.229   1.763 -0.6001 -0.2059 -0.0260
 3532TIP3    H110560   7.203   3.151   1.804  0.2208  0.2714  0.1583
 3532TIP3    H210561   7.218   3.302   1.798 -0.9274  0.3635 -0.6957
 3533TIP3   OH210562   2.909   0.571   1.294  0.0622  0.1800 -0.6913
 3533TIP3    H110563   2.959   0.611   1.365 -1.1112 -0.7282  0.7022
 3533TIP3    H210564   2.888   0.644   1.235 -0.8717  1.4013  1.0680
 3534TIP3   OH210565   1.703   4.978   2.564 -0.2080  0.7077  0.4851
 3534TIP3    H110566   1.649   4.988   2.486 -1.6473  0.0375  1.3373
 3534TIP3    H210567   1.775   4.922   2.537 -1.6441 -1.0143  0.0141
 3535TIP3   OH210568   4.118   0.340   0.698 -0.4934  0.0901 -0.1714
 3535TIP3    H110569   4.161   0.424   0.716  0.1660 -0.4592  0.9600
 3535TIP3    H210570   4.122   0.293   0.781 -2.7817 -0.2355 -0.1793
 3536TIP3   OH210571   2.897   0.706   0.398 -0.1318  0.1942  0.5888
 3536TIP3    H110572   2.926   0.652   0.471 -0.2217 -0.9499 -0.1815
 3536TIP3    H210573   2.836   0.769   0.437 -1.1811 -1.2130  1.3347
 3537TIP3   OH210574   4.978   4.924   3.779 -0.2156  0.3490  0.1110
 3537TIP3    H110575   4.905   4.871   3.811  0.4538 -0.3895  0.4472
 3537TIP3    H210576   5.006   4.880   3.699  0.2393  0.2878  0.3036
 3538TIP3   OH210577   4.171   2.022   0.151 -0.8368  0.8133  0.2827
 3538TIP3    H110578   4.195   2.108   0.186 -0.4964  1.2183 -0.9123
 3538TIP3    H210579   4.211   2.020   0.064 -0.2822 -0.8260  0.5527
 3539TIP3   OH210580   2.129   3.323   4.680  0.3522 -0.0052  0.6787
 3539TIP3    H110581   2.067   3.271   4.629 -1.8712  1.3633  1.8275
 3539TIP3    H210582   2.172   3.260   4.737 -1.4742 -0.7602  1.2686
 3540TIP3   OH210583   2.129   5.078   4.659  0.1627 -0.2744  0.0434
 3540TIP3    H110584   2.176   5.079   4.742 -0.9932 -1.2538  0.7474
 3540TIP3    H210585   2.130   4.986   4.632 -0.1775 -0.0933 -0.6067
 3541TIP3   OH210586   5.057   3.146   1.870  0.2668  0.6791 -0.1936
 3541TIP3    H110587   5.066   3.132   1.775 -0.4578 -0.1486 -0.1563
 3541TIP3    H210588   5.142   3.121   1.906  0.5768  1.0830 -0.6273
 3542TIP3   OH210589   3.948   6.752   3.245  0.4957  0.2472  0.2007
 3542TIP3    H110590   3.995   6.772   3.327 -0.0005  1.5056  0.1949
 3542TIP3    H210591   3.856   6.765   3.266  0.0313 -2.5555  0.3079
 3543TIP3   OH210592   1.148   1.207   0.188  0.0685 -0.3822  0.1769
 3543TIP3    H110593   1.150   1.296   0.223  0.2012 -0.0732 -0.5889
 3543TIP3    H210594   1.055   1.185   0.184 -0.1731  0.7588 -2.1095
 3544TIP3   OH210595   6.980   4.582   4.763 -0.0379  0.1227  0.6887
 3544TIP3    H110596   6.982   4.548   4.852  0.1842  0.2843  0.7473
 3544TIP3    H210597   7.071   4.578   4.734 -0.2714 -1.0421  0.0363
 3545TIP3   OH210598   3.449   3.005   2.989  0.0424  0.1826 -0.0946
 3545TIP3    H110599   3.493   2.925   2.963 -0.0471  0.4632 -1.2006
 3545TIP3    H210600   3.393   3.026   2.914 -0.0762  1.1658  0.2561
 3546TIP3   OH210601   3.211   5.883   2.010  0.0742 -0.3580 -0.5390
 3546TIP3    H110602   3.198   5.977   2.009  2.5663  0.0719 -0.0811
 3546TIP3    H210603   3.173   5.854   2.093  2.6507  0.9310  1.2501
 3547TIP3   OH210604   3.510   0.737   3.003 -0.6614  0.1666  0.2657
 3547TIP3    H110605   3.593   0.734   3.050 -1.2069  0.0431  1.2493
 3547TIP3    H210606   3.473   0.650   3.015 -0.4851 -0.1007 -1.0236
 3548TIP3   OH210607   5.909   6.121   4.325  0.1927  0.0945 -0.0731
 3548TIP3    H110608   5.846   6.064   4.369  0.4096 -0.6544 -0.7120
 3548TIP3    H210609   5.994   6.079   4.342  0.1630 -1.0051 -2.3565
 3549TIP3   OH210610   2.687   0.911   2.840  0.5957  0.2115 -0.1382
 3549TIP3    H110611   2.718   0.983   2.896  2.4818  0.2676 -1.1892
 3549TIP3    H210612   2.609   0.947   2.798  0.7917  1.2023  0.2924
 3550TIP3   OH210613   3.543   5.712   2.788  0.0216 -0.0820 -0.4344
 3550TIP3    H110614   3.474   5.736   2.851 -0.4713 -0.7899 -0.6930
 3550TIP3    H210615   3.534   5.618   2.778  1.6789 -0.3479  0.2673
 3551TIP3   OH210616   0.588   2.382   5.495 -0.0913 -0.1936 -0.4856
 3551TIP3    H110617   0.533   2.400   5.571 -1.0133  1.5693 -1.5084
 3551TIP3    H210618   0.648   2.314   5.525  0.5544  1.4502  2.2754
 3552TIP3   OH210619   5.056   5.298   0.197 -0.5319 -0.4534 -0.2823
 3552TIP3    H110620   5.016   5.253   0.123  2.0038 -1.2884 -1.2357
 3552TIP3    H210621   5.091   5.228   0.252  0.1473  0.2454  0.1958
 3553TIP3   OH210622   4.064   4.640   3.218 -0.5456  0.0523  0.5588
 3553TIP3    H110623   4.130   4.576   3.190 -0.0410  0.6751  0.2920
 3553TIP3    H210624   3.980   4.594   3.207 -0.3287  0.0246 -1.3739
 3554TIP3   OH210625   6.436   3.547   0.923 -0.1968 -0.8785 -0.1171
 3554TIP3    H110626   6.379   3.611   0.965 -0.7359 -1.1036 -0.4914
 3554TIP3    H210627   6.505   3.600   0.882 -0.3876 -0.5738 -0.0494
 3555TIP3   OH210628   3.366   0.767   0.465  0.2903  0.0608  0.0074
 3555TIP3    H110629   3.327   0.776   0.552 -0.4442 -0.1838 -0.2856
 3555TIP3    H210630   3.458   0.749   0.481  0.1232 -0.1465  0.7417
 3556TIP3   OH210631   2.022   5.868   3.367  0.2291 -0.0098 -0.2192
 3556TIP3    H110632   1.945   5.926   3.361  0.6765  0.8119  1.4691
 3556TIP3    H210633   1.989   5.782   3.342 -0.5648  0.8438 -2.3579
 3557TIP3   OH210634   1.233   5.168   5.000 -0.2508  0.5102  0.8813
 3557TIP3    H110635   1.278   5.132   4.923 -1.1346 -2.4149  1.5934
 3557TIP3    H210636   1.297   5.161   5.071 -0.0979  1.3405  0.8335
 3558TIP3   OH210637   1.002   5.596   5.653  0.4671 -0.5563  0.0083
 3558TIP3    H110638   0.963   5.552   5.728  1.1744 -0.5880  0.3590
 3558TIP3    H210639   1.096   5.593   5.668  0.6222 -0.5328 -0.8618
 3559TIP3   OH210640   4.266   2.582   4.220  0.3314 -0.1527  0.2880
 3559TIP3    H110641   4.243   2.548   4.134 -0.7530 -0.9268  0.8566
 3559TIP3    H210642   4.356   2.612   4.211 -0.1663  0.9303 -1.4312
 3560TIP3   OH210643   5.518   3.654   2.527  0.1106  0.0651  0.7165
 3560TIP3    H110644   5.425   3.654   2.546  0.2299  0.5869  1.3484
 3560TIP3    H210645   5.526   3.699   2.443 -0.2407 -0.3898  0.4376
 3561TIP3   OH210646   2.829   6.665   3.161  0.5271  0.5217 -0.4705
 3561TIP3    H110647   2.803   6.626   3.078 -0.6164  0.7089 -0.2133
 3561TIP3    H210648   2.804   6.757   3.153 -0.0201  0.4457  0.2417
 3562TIP3   OH210649   3.789   2.294   5.723 -0.1468 -0.2563  0.0484
 3562TIP3    H110650   3.831   2.305   5.808  1.1161 -1.4956 -0.3834
 3562TIP3    H210651   3.697   2.312   5.739  0.5403  3.3217  0.8847
 3563TIP3   OH210652   7.124   6.306   1.152  0.4451 -0.2147 -0.1259
 3563TIP3    H110653   7.091   6.217   1.156  0.9997 -0.5359 -1.7795
 3563TIP3    H210654   7.213   6.297   1.116 -0.0642  1.0741 -1.8714
 3564TIP3   OH210655   5.647   5.458   4.756  0.4762  0.0620 -0.5575
 3564TIP3    H110656   5.670   5.502   4.674  1.2819  0.8362  0.0564
 3564TIP3    H210657   5.602   5.526   4.807  0.0974 -0.3734 -0.3080
 3565TIP3   OH210658   5.593   5.001   1.001  0.1919  0.3116 -0.2203
 3565TIP3    H110659   5.627   5.090   1.000 -0.0374  0.4432  1.2439
 3565TIP3    H210660   5.529   5.000   1.072 -1.3652 -0.4783 -1.5571
 3566TIP3   OH210661   6.580   4.986   0.137 -0.1012 -0.3943 -0.3158
 3566TIP3    H110662   6.640   5.037   0.083  2.2415 -0.2169  2.2243
 3566TIP3    H210663   6.505   5.044   0.151  0.5896  0.6948 -0.9749
 3567TIP3   OH210664   6.775   3.363   5.424 -0.5320 -0.0804  0.1979
 3567TIP3    H110665   6.695   3.313   5.413 -1.1582  1.0027 -0.3012
 3567TIP3    H210666   6.771   3.396   5.514 -0.4195 -0.3802  0.3172
 3568TIP3   OH210667   1.630   0.226   5.066  0.0406 -0.0618  0.6925
 3568TIP3    H110668   1.644   0.143   5.020  2.7441  0.3217  0.6694
 3568TIP3    H210669   1.652   0.293   5.001  2.0463  0.5287  1.9068
 3569TIP3   OH210670   1.959   6.424   3.041  0.7581 -0.9942 -0.4190
 3569TIP3    H110671   1.946   6.438   3.135  0.5276  0.6757 -0.6678
 3569TIP3    H210672   1.873   6.440   3.002  1.0768 -0.6479 -0.9988
 3570TIP3   OH210673   4.332   0.707   1.959 -0.0545 -0.0512 -0.0888
 3570TIP3    H110674   4.403   0.671   2.011  0.5710 -1.9611 -2.0896
 3570TIP3    H210675   4.255   0.656   1.984 -0.1225  0.1687  0.1505
 3571TIP3   OH210676   2.299   4.660   5.288 -0.4455 -0.1179 -0.1113
 3571TIP3    H110677   2.335   4.573   5.303  0.9669  0.5419  0.5323
 3571TIP3    H210678   2.316   4.677   5.196  0.2659 -0.1107  0.0126
 3572TIP3   OH210679   2.714   0.326   5.287  0.0168 -0.0140  0.0342
 3572TIP3    H110680   2.763   0.394   5.332 -0.7073  0.0805  0.6959
 3572TIP3    H210681   2.641   0.372   5.244  0.1561 -0.2273 -0.4414
 3573TIP3   OH210682   2.578   0.320   1.312  0.3612  0.3450 -0.1606
 3573TIP3    H110683   2.540   0.248   1.262  0.8292  1.3062 -1.9925
 3573TIP3    H210684   2.576   0.395   1.253  1.4767  1.4150  1.0688
 3574TIP3   OH210685   4.148   2.678   0.288 -0.2096  0.0386  0.4358
 3574TIP3    H110686   4.197   2.607   0.330 -0.9106  0.3875  1.9395
 3574TIP3    H210687   4.202   2.756   0.302  1.1855 -0.3074 -2.3250
 3575TIP3   OH210688   6.566   5.544   0.273  0.0761  0.1262  0.5306
 3575TIP3    H110689   6.511   5.622   0.268  3.6292  2.9478  0.8682
 3575TIP3    H210690   6.555   5.512   0.362 -2.1831 -0.4695  0.0906
 3576TIP3   OH210691   4.275   1.835   2.315 -0.6645  0.4453 -0.5341
 3576TIP3    H110692   4.368   1.850   2.298 -0.7231  0.5184 -0.7932
 3576TIP3    H210693   4.269   1.825   2.410 -0.3104 -0.1447 -0.5687
 3577TIP3   OH210694   6.576   3.579   3.146 -0.6342 -0.0140 -0.2147
 3577TIP3    H110695   6.544   3.615   3.229  0.1077 -0.9078  0.4799
 3577TIP3    H210696   6.547   3.488   3.147  0.4454 -0.3741 -0.3585
 3578TIP3   OH210697   4.955   0.997   5.253  0.5999  0.0143  0.6435
 3578TIP3    H110698   4.968   0.974   5.161  1.9558 -0.0647  0.8396
 3578TIP3    H210699   5.040   1.027   5.283 -0.0894  1.1424  1.5772
 3579TIP3   OH210700   3.334   6.353   5.333 -0.5053 -0.4099 -0.3027
 3579TIP3    H110701   3.274   6.372   5.405  1.0512  0.9488  0.7269
 3579TIP3    H210702   3.363   6.263   5.348 -0.7559 -0.3835  0.3641
 3580TIP3   OH210703   1.200   5.203   5.289  0.0899 -0.1710  0.3005
 3580TIP3    H110704   1.263   5.273   5.306 -0.7772  0.7311 -0.0863
 3580TIP3    H210705   1.158   5.229   5.207 -1.1597 -0.4769  0.8354
 3581TIP3   OH210706   7.062   4.731   2.298  0.1270  0.1702  0.5009
 3581TIP3    H110707   6.968   4.744   2.290  0.3240  2.4196  1.1866
 3581TIP3    H210708   7.081   4.752   2.390  1.1473 -1.5638  0.7387
 3582TIP3   OH210709   4.099   1.402   0.625  0.0882 -0.3935 -0.5506
 3582TIP3    H110710   4.062   1.383   0.539  0.4126 -1.4109 -0.4696
 3582TIP3    H210711   4.161   1.474   0.609  0.6711 -1.0519 -1.3019
 3583TIP3   OH210712   3.505   3.446   2.865  0.1496  0.2189 -0.2131
 3583TIP3    H110713   3.533   3.521   2.917 -0.2460  0.5152 -0.4233
 3583TIP3    H210714   3.583   3.416   2.820  0.4727  0.0393  0.4511
 3584TIP3   OH210715   0.980   0.224   5.842 -0.1885  0.1794 -0.5606
 3584TIP3    H110716   1.060   0.204   5.793 -1.2612 -1.5494 -1.7576
 3584TIP3    H210717   0.948   0.138   5.871 -2.5066  0.5860 -1.6557
 3585TIP3   OH210718  -0.018   5.832   1.731 -0.5997 -0.5627 -0.3616
 3585TIP3    H110719   0.033   5.786   1.798 -1.3016 -0.9713 -0.0984
 3585TIP3    H210720   0.033   5.820   1.651 -0.1172 -0.6890 -0.0429
 3586TIP3   OH210721   4.212   3.340   5.660  0.1936  0.9739  0.2679
 3586TIP3    H110722   4.155   3.264   5.647  1.3429  0.2097 -0.3787
 3586TIP3    H210723   4.234   3.369   5.571  0.5264  1.4905  0.5132
 3587TIP3   OH210724   4.073   2.999   3.864  0.1827  0.1859  0.0825
 3587TIP3    H110725   4.164   2.980   3.838 -0.3440 -1.0334 -1.0383
 3587TIP3    H210726   4.079   3.075   3.922  1.8682  0.4454 -0.3816
 3588TIP3   OH210727   1.259   2.766   4.759  0.1252  0.4855 -0.2586
 3588TIP3    H110728   1.259   2.677   4.793  1.3596  0.7602  0.5072
 3588TIP3    H210729   1.237   2.820   4.835 -2.7028  0.7435 -1.1306
 3589TIP3   OH210730   5.239   4.688   3.813 -0.5245  0.0494 -0.0545
 3589TIP3    H110731   5.243   4.784   3.814  0.4568  0.0137 -0.0817
 3589TIP3    H210732   5.145   4.669   3.809 -0.7870  0.9945  0.9900
 3590TIP3   OH210733   4.005   6.359   0.902  0.5151 -0.2617 -0.2181
 3590TIP3    H110734   3.987   6.443   0.944 -1.0452 -1.0924  0.8806
 3590TIP3    H210735   3.988   6.375   0.809 -2.8530 -0.0411  0.3013
 3591TIP3   OH210736   1.070   3.663   4.313 -0.2260 -0.5601  0.1473
 3591TIP3    H110737   1.085   3.670   4.219 -0.0932 -1.2974  0.1067
 3591TIP3    H210738   1.092   3.572   4.334 -2.2651 -1.0179  0.5189
 3592TIP3   OH210739   5.025   4.150   3.431  0.3924 -0.0925 -0.2383
 3592TIP3    H110740   5.008   4.242   3.411 -0.6613 -0.2951 -0.3469
 3592TIP3    H210741   4.998   4.103   3.352  1.2372 -0.4776 -0.3098
 3593TIP3   OH210742   6.141   4.505   4.796 -0.1396 -0.0315 -0.1728
 3593TIP3    H110743   6.184   4.561   4.861 -0.9404 -0.8215  1.0772
 3593TIP3    H210744   6.086   4.565   4.746  1.7471  0.8679 -1.2906
 3594TIP3   OH210745   5.289   4.008   4.201  0.2096 -0.5116  0.5697
 3594TIP3    H110746   5.331   3.995   4.116  1.4806 -0.4408  1.1678
 3594TIP3    H210747   5.243   4.091   4.192 -2.3146 -1.9538 -1.0443
 3595TIP3   OH210748   2.693   1.517   2.397  0.6174 -0.0654  0.6272
 3595TIP3    H110749   2.772   1.463   2.398  0.7911  0.1290 -0.7184
 3595TIP3    H210750   2.621   1.455   2.390  0.8682 -0.1531 -2.1165
 3596TIP3   OH210751   3.871   2.319   4.153  0.4658  0.1041 -0.4906
 3596TIP3    H110752   3.790   2.289   4.194 -0.0173 -0.1086 -1.5673
 3596TIP3    H210753   3.844   2.391   4.096  0.8279 -0.7598 -1.7908
 3597TIP3   OH210754   5.967   1.508   3.922 -0.5399 -0.2511  0.4478
 3597TIP3    H110755   5.884   1.547   3.950 -0.9519 -0.0020 -1.0617
 3597TIP3    H210756   5.980   1.434   3.981 -1.6194 -0.0516  0.9567
 3598TIP3   OH210757   2.090   3.659   4.572  0.0157 -0.3244 -0.2385
 3598TIP3    H110758   2.048   3.689   4.491 -0.5040  1.1239  0.5311
 3598TIP3    H210759   2.023   3.607   4.616  0.3936 -1.3561 -0.8451
 3599TIP3   OH210760   0.620   4.886   1.499 -0.1199  0.2441  0.4693
 3599TIP3    H110761   0.704   4.884   1.453 -0.0373  2.1756  0.4763
 3599TIP3    H210762   0.606   4.795   1.526  0.7446 -0.6049 -1.6924
 3600TIP3   OH210763   2.517   0.174   2.146 -0.3385  0.3238 -0.0991
 3600TIP3    H110764   2.562   0.121   2.211 -0.2133 -0.8501 -1.1114
 3600TIP3    H210765   2.532   0.264   2.174  1.2750 -0.0968  0.4852
 3601TIP3   OH210766   4.403   2.575   5.137  0.2857 -0.2490 -0.2875
 3601TIP3    H110767   4.481   2.620   5.106  0.4445 -0.5924 -0.3944
 3601TIP3    H210768   4.433   2.519   5.208 -0.0169  0.2685  0.2501
 3602TIP3   OH210769   1.002   5.201   1.307 -0.1448  0.0458  0.0263
 3602TIP3    H110770   1.088   5.174   1.338  0.1363  1.1368  0.2316
 3602TIP3    H210771   0.999   5.171   1.216 -0.2156 -1.4472  0.4866
 3603TIP3   OH210772   1.859   6.183   2.703 -0.5380 -0.4600  0.8892
 3603TIP3    H110773   1.832   6.097   2.670 -0.6422 -0.3469  0.6729
 3603TIP3    H210774   1.918   6.217   2.636 -1.3664  0.1045  0.4217
 3604TIP3   OH210775   5.550   5.293   2.513  0.6700  0.1387  0.1010
 3604TIP3    H110776   5.526   5.332   2.598 -0.2839 -0.9154  0.3473
 3604TIP3    H210777   5.551   5.366   2.452 -1.2025  0.5771  0.5235
 3605TIP3   OH210778   1.679   4.582   0.052  0.4963  0.2623  0.3723
 3605TIP3    H110779   1.678   4.635   0.132  1.5809 -1.3006  1.4820
 3605TIP3    H210780   1.769   4.549   0.047  0.5372  0.5442 -1.6840
 3606TIP3   OH210781   5.613   6.604   1.090 -0.4454  0.2373 -0.2755
 3606TIP3    H110782   5.708   6.611   1.102  0.1631 -2.9194 -2.1895
 3606TIP3    H210783   5.601   6.608   0.995 -2.1119 -0.5769 -0.1358
 3607TIP3   OH210784   2.300   6.605   5.527  0.1061 -0.2193 -0.0111
 3607TIP3    H110785   2.247   6.545   5.475  1.4061  1.0631 -3.0553
 3607TIP3    H210786   2.249   6.619   5.607 -1.6735 -2.9017 -0.5340
 3608TIP3   OH210787   2.930   1.865   3.997  0.4569  0.6987  0.1227
 3608TIP3    H110788   2.989   1.913   3.939 -2.1683  2.6454 -1.0805
 3608TIP3    H210789   2.877   1.932   4.039 -0.7314 -0.9652  1.4267
 3609TIP3   OH210790   3.267   1.278   4.289 -0.0418  0.0342  0.4048
 3609TIP3    H110791   3.203   1.328   4.340 -0.3636  1.1964 -1.0751
 3609TIP3    H210792   3.249   1.301   4.198  1.9321 -0.2663 -0.1175
 3610TIP3   OH210793   7.075   5.642   3.373 -0.3784 -0.6536  0.1297
 3610TIP3    H110794   7.011   5.702   3.411  2.3186  0.3940  3.4135
 3610TIP3    H210795   7.065   5.561   3.423  0.6676 -0.5690  0.4942
 3611TIP3   OH210796   5.488   2.706   5.199  0.1349 -0.1574  0.3412
 3611TIP3    H110797   5.409   2.683   5.150 -0.7212 -0.0816  1.6364
 3611TIP3    H210798   5.534   2.623   5.212 -0.3654 -0.3952  0.6315
 3612TIP3   OH210799   0.785   0.467   2.252 -0.6199  0.2375  0.4928
 3612TIP3    H110800   0.832   0.479   2.169  0.8446 -1.0132  1.0951
 3612TIP3    H210801   0.782   0.555   2.290 -0.5274  0.6759 -0.4689
 3613TIP3   OH210802   3.971   3.367   1.795 -0.0218 -0.5194 -0.0856
 3613TIP3    H110803   3.975   3.351   1.701  0.9974  0.6239 -0.2603
 3613TIP3    H210804   3.966   3.280   1.834  0.4428 -1.0423 -1.1554
 3614TIP3   OH210805   6.861   2.222   0.196  0.5903 -0.0879  0.0235
 3614TIP3    H110806   6.883   2.159   0.128  0.2233 -0.5705  0.3512
 3614TIP3    H210807   6.867   2.173   0.278 -1.1785 -0.1072  0.1746
 3615TIP3   OH210808   2.357   3.315   2.594  0.2646 -0.6421  0.1438
 3615TIP3    H110809   2.274   3.295   2.550  0.5535 -1.9037  0.1345
 3615TIP3    H210810   2.331   3.358   2.675 -0.3244  0.5380 -0.6266
 3616TIP3   OH210811   4.573   1.150   2.294 -0.4545  0.4887 -0.0670
 3616TIP3    H110812   4.534   1.163   2.380 -0.9394 -0.8664 -0.0554
 3616TIP3    H210813   4.585   1.238   2.259 -3.5476  0.9971 -0.0764
 3617TIP3   OH210814   2.606   0.344   2.984  0.7694  0.3562 -0.2050
 3617TIP3    H110815   2.608   0.249   2.974 -1.3252  0.1066  1.0467
 3617TIP3    H210816   2.529   0.372   2.934  0.9605  1.3094  0.0138
 3618TIP3   OH210817   2.282   0.802   1.308  0.1294 -0.1680  0.2557
 3618TIP3    H110818   2.228   0.826   1.232 -0.1308  1.8068  1.0023
 3618TIP3    H210819   2.222   0.809   1.382  1.0822  0.7397  0.9521
 3619TIP3   OH210820   4.957   0.150   5.473 -0.3786 -0.0059  0.4633
 3619TIP3    H110821   4.872   0.131   5.433  0.0466 -2.0726  0.4457
 3619TIP3    H210822   5.009   0.188   5.402  0.2075 -3.1657 -0.9430
 3620TIP3   OH210823   5.672   3.128   4.113 -0.0338 -0.1169 -0.0571
 3620TIP3    H110824   5.582   3.136   4.082 -0.0231  0.9643  0.1496
 3620TIP3    H210825   5.724   3.176   4.048  0.1079  1.2639  1.0183
 3621TIP3   OH210826   7.021   2.521   0.380  0.2080 -0.3514 -0.0391
 3621TIP3    H110827   7.074   2.442   0.377 -0.9418 -1.2501  1.8062
 3621TIP3    H210828   6.940   2.495   0.425 -0.2845  1.8125  0.4668
 3622TIP3   OH210829   4.737   2.043   4.312 -0.0528  0.3535 -0.1598
 3622TIP3    H110830   4.694   1.958   4.321  0.0944  0.1295 -1.3180
 3622TIP3    H210831   4.763   2.067   4.400 -0.7869 -0.4425  0.2864
 3623TIP3   OH210832   6.003   4.107   2.264  0.0363 -0.5319  0.3577
 3623TIP3    H110833   6.028   4.167   2.335  0.3529  1.2953 -1.1969
 3623TIP3    H210834   6.075   4.113   2.201 -1.2617 -0.2899 -1.1718
 3624TIP3   OH210835   2.230   4.254   4.436 -0.6226 -0.6217  0.4475
 3624TIP3    H110836   2.305   4.311   4.449 -1.5509  0.4358  1.3523
 3624TIP3    H210837   2.266   4.177   4.393  1.1377 -0.5386  1.6584
 3625TIP3   OH210838   2.414   6.678   3.171 -0.5496 -0.7126  0.3268
 3625TIP3    H110839   2.452   6.763   3.189 -0.0198 -0.7839 -0.4050
 3625TIP3    H210840   2.322   6.696   3.153 -0.3630 -0.2471 -0.1817
 3626TIP3   OH210841   1.080   2.667   1.053  0.8032 -0.2140 -0.1312
 3626TIP3    H110842   1.087   2.745   1.109  0.2865 -0.2660  0.0084
 3626TIP3    H210843   1.007   2.617   1.090  2.2167 -1.6459  0.8392
 3627TIP3   OH210844   2.478   3.029   3.161 -0.1747  0.0546  0.4886
 3627TIP3    H110845   2.494   3.120   3.187 -1.1704  0.6038 -0.7046
 3627TIP3    H210846   2.416   2.996   3.226 -1.6434  1.0080 -0.3518
 3628TIP3   OH210847   6.395   0.089   3.500 -0.2084  0.4345  0.9138
 3628TIP3    H110848   6.313   0.122   3.464 -1.1725  0.2755  2.8404
 3628TIP3    H210849   6.455   0.164   3.495  0.2132  0.0419 -2.2117
 3629TIP3   OH210850   6.133   5.976   4.338  0.1921  0.4597  0.6111
 3629TIP3    H110851   6.147   5.906   4.402  3.4644  1.5306  1.2611
 3629TIP3    H210852   6.183   5.949   4.261  1.1818  1.8298  0.7323
 3630TIP3   OH210853   6.603   6.162   1.303 -0.0506 -0.0240 -0.1879
 3630TIP3    H110854   6.568   6.249   1.284  0.0571  0.0830  0.0943
 3630TIP3    H210855   6.530   6.103   1.288 -0.4812  0.2398  0.8026
 3631TIP3   OH210856   1.415   2.260   3.173 -0.1050  0.7103 -0.1393
 3631TIP3    H110857   1.430   2.169   3.148  0.3318  1.0408 -1.1307
 3631TIP3    H210858   1.468   2.272   3.252 -0.5694 -0.0289  0.2946
 3632TIP3   OH210859   5.450   0.952   2.213  0.4730  0.5959 -0.1039
 3632TIP3    H110860   5.468   0.891   2.141 -1.0242 -0.8126  0.6307
 3632TIP3    H210861   5.442   0.896   2.290 -0.8846  1.7187  0.6272
 3633TIP3   OH210862   5.141   6.730   0.077 -0.2061 -0.1589  0.3919
 3633TIP3    H110863   5.233   6.743   0.097 -0.3008  0.5272  0.4027
 3633TIP3    H210864   5.141   6.688  -0.009  0.1356 -1.1813  0.8676
 3634TIP3   OH210865   2.558   0.701   0.291 -0.4058  0.3083  0.0123
 3634TIP3    H110866   2.517   0.670   0.210 -0.8239  0.4091  0.1812
 3634TIP3    H210867   2.623   0.634   0.313  1.1455  1.2401 -1.4808
 3635TIP3   OH210868   2.859   1.601   2.643  0.3107 -0.4006  0.5065
 3635TIP3    H110869   2.823   1.554   2.568  0.2137  1.0952 -0.4372
 3635TIP3    H210870   2.794   1.590   2.713  1.2073 -3.2671  0.9985
 3636TIP3   OH210871   5.474   5.526   4.310  0.2279 -0.1455 -0.1460
 3636TIP3    H110872   5.454   5.437   4.284  0.0712 -0.2576  0.3465
 3636TIP3    H210873   5.564   5.540   4.282  0.2736 -0.4812 -0.1699
 3637TIP3   OH210874   3.758   4.983   1.483 -0.1732 -0.7254 -0.4181
 3637TIP3    H110875   3.810   5.002   1.405  0.0072 -1.8286 -0.5893
 3637TIP3    H210876   3.818   4.998   1.556 -0.0266 -0.6801 -0.5480
 3638TIP3   OH210877   1.829   0.893   4.501  0.2108  0.0716  0.1756
 3638TIP3    H110878   1.738   0.925   4.497 -0.5184 -1.8220  0.5327
 3638TIP3    H210879   1.843   0.852   4.416  1.1139  1.1896 -0.2502
 3639TIP3   OH210880   6.478   2.590   4.113  0.2574 -0.1448  0.5618
 3639TIP3    H110881   6.558   2.642   4.117  2.0721 -2.7853  0.6055
 3639TIP3    H210882   6.446   2.589   4.204 -0.1757  1.3619  0.4476
 3640TIP3   OH210883   1.699   6.018   5.583 -0.4949 -0.6438  0.1773
 3640TIP3    H110884   1.778   5.983   5.625  0.9091  2.4654  0.4380
 3640TIP3    H210885   1.732   6.063   5.505 -2.3350 -1.1230 -0.9379
 3641TIP3   OH210886   4.040   0.250   2.798 -0.4804  0.2960  0.2838
 3641TIP3    H110887   3.952   0.284   2.809 -0.8314 -0.3728 -0.3912
 3641TIP3    H210888   4.092   0.326   2.769 -0.8767  0.6420  0.4850
 3642TIP3   OH210889   2.330   2.156   4.266 -0.5068 -0.3304  0.3640
 3642TIP3    H110890   2.370   2.189   4.347  2.2953 -0.9691 -0.6508
 3642TIP3    H210891   2.274   2.228   4.236  0.8900  1.1991  1.2421
 3643TIP3   OH210892   3.967   5.431   5.903  0.0034 -0.0859  0.2297
 3643TIP3    H110893   4.057   5.423   5.871 -0.2469 -1.3479 -0.2150
 3643TIP3    H210894   3.912   5.411   5.827 -0.6711  0.7829  0.4641
 3644TIP3   OH210895   1.225   4.061   5.141  0.0569  0.3328 -0.3888
 3644TIP3    H110896   1.246   4.138   5.087 -0.3368  0.2447 -0.6688
 3644TIP3    H210897   1.265   4.080   5.226  0.4993  0.5685 -0.6456
 3645TIP3   OH210898   4.364   2.648   5.756 -0.3537 -0.3289  0.1434
 3645TIP3    H110899   4.316   2.588   5.814 -1.9602  0.8420  0.0929
 3645TIP3    H210900   4.419   2.590   5.702 -2.3157 -1.8391 -0.3564
 3646TIP3   OH210901   7.195   5.546   0.135  0.0447 -0.0425 -0.0362
 3646TIP3    H110902   7.244   5.557   0.217  1.4679  1.9389 -1.0761
 3646TIP3    H210903   7.133   5.620   0.135  0.0436 -0.0425 -0.7266
 3647TIP3   OH210904   0.812   6.297   4.061  0.4502  0.3928 -0.2767
 3647TIP3    H110905   0.843   6.217   4.019 -1.5512 -0.4964 -0.1350
 3647TIP3    H210906   0.877   6.314   4.129  1.0169 -0.9877 -0.4336
 3648TIP3   OH210907   0.922   6.806   1.036 -0.6609  0.3163  1.1780
 3648TIP3    H110908   0.933   6.721   0.992 -0.0957  0.7022  0.5405
 3648TIP3    H210909   0.880   6.862   0.970  0.7143  1.0657  0.9006
 3649TIP3   OH210910   4.370   4.106   1.364  0.2998  0.5758  0.2007
 3649TIP3    H110911   4.415   4.155   1.295 -1.5362  1.2946 -0.5643
 3649TIP3    H210912   4.331   4.032   1.320 -1.5046  1.4298  0.2658
 3650TIP3   OH210913   6.774   3.233   3.396  0.1874 -0.4337 -0.3924
 3650TIP3    H110914   6.724   3.268   3.322 -0.5564  0.4903  0.5135
 3650TIP3    H210915   6.772   3.303   3.461  1.3924 -0.9791  0.2533
 3651TIP3   OH210916   2.180   2.209   0.946 -0.0592 -0.7723  0.2457
 3651TIP3    H110917   2.190   2.302   0.930  0.0152 -0.6406  1.0173
 3651TIP3    H210918   2.255   2.168   0.902 -1.0630 -0.6673 -1.6624
 3652TIP3   OH210919   3.615   4.162   4.482 -0.4008 -0.1430  0.5393
 3652TIP3    H110920   3.624   4.203   4.396 -1.7161  2.6498  1.6148
 3652TIP3    H210921   3.536   4.109   4.476  0.8076 -1.9345 -0.5967
 3653TIP3   OH210922   5.326   4.174   5.285 -0.1586 -0.2015 -0.2718
 3653TIP3    H110923   5.296   4.148   5.198 -0.0263  0.6291 -0.5813
 3653TIP3    H210924   5.250   4.159   5.341  0.3741 -2.6836 -0.1061
 3654TIP3   OH210925   3.751   3.579   4.863  0.2678 -0.6108  0.3833
 3654TIP3    H110926   3.804   3.603   4.787  0.4088 -0.2460  0.5936
 3654TIP3    H210927   3.776   3.642   4.930 -0.0584 -0.7601  0.6462
 3655TIP3   OH210928   2.784   3.902   0.685 -0.2336  0.2558 -0.2494
 3655TIP3    H110929   2.810   3.915   0.776 -0.6678 -0.0711 -0.0716
 3655TIP3    H210930   2.845   3.955   0.634 -0.7691  1.4633  0.3208
 3656TIP3   OH210931   1.090   5.914   0.440  0.0613 -0.0458 -0.3483
 3656TIP3    H110932   1.090   5.859   0.519  0.1225 -0.7499 -0.8324
 3656TIP3    H210933   1.073   5.854   0.369  0.2171  0.5575 -0.9053
 3657TIP3   OH210934   4.675   4.204   0.578  0.1783  0.7309 -0.0939
 3657TIP3    H110935   4.677   4.263   0.654  3.2226  0.5766  0.0696
 3657TIP3    H210936   4.654   4.261   0.504  1.4291  1.7531  0.3014
 3658TIP3   OH210937   5.823   0.765   2.695 -0.2590  0.1587 -0.2013
 3658TIP3    H110938   5.899   0.748   2.639  0.1971 -2.0160  0.9982
 3658TIP3    H210939   5.858   0.814   2.769  0.1879 -1.5500  0.7595
 3659TIP3   OH210940   2.918   2.779   4.294 -0.1740  0.0048 -0.0581
 3659TIP3    H110941   2.997   2.733   4.321 -0.4047  0.6646  1.9357
 3659TIP3    H210942   2.948   2.841   4.227  0.8410 -0.3111  0.0875
 3660TIP3   OH210943   0.883   1.415   4.479 -0.7096 -0.3946  0.0608
 3660TIP3    H110944   0.807   1.445   4.529  0.0998  1.1923  0.3797
 3660TIP3    H210945   0.885   1.473   4.403  0.4513 -0.1169  0.2978
 3661TIP3   OH210946   1.124   0.599   4.414  0.1865 -0.0157 -0.3114
 3661TIP3    H110947   1.165   0.565   4.493  0.3960  0.2617 -0.2996
 3661TIP3    H210948   1.171   0.680   4.396 -1.0109  0.8451  0.2785
 3662TIP3   OH210949   6.340   4.342   2.600  0.1062  0.1423  0.2125
 3662TIP3    H110950   6.274   4.407   2.625 -1.4387 -0.9827 -0.7354
 3662TIP3    H210951   6.304   4.259   2.630  1.2480 -0.4712 -0.0689
 3663TIP3   OH210952   6.212   6.278   1.365  0.1772 -0.3765 -0.0485
 3663TIP3    H110953   6.195   6.263   1.458  2.4945  0.9411  0.6694
 3663TIP3    H210954   6.257   6.199   1.336 -0.2844 -0.6645 -0.0042
 3664TIP3   OH210955   7.044   1.105   5.596  0.1829 -0.1575  0.0152
 3664TIP3    H110956   7.071   1.039   5.532 -0.1488 -1.5533  1.2616
 3664TIP3    H210957   6.960   1.073   5.630 -0.9027  1.8559 -0.6403
 3665TIP3   OH210958   6.030   5.467   0.823  0.2150  0.2055 -0.3495
 3665TIP3    H110959   5.964   5.481   0.891  0.8898 -2.6475  1.0672
 3665TIP3    H210960   6.110   5.505   0.858  0.2518 -0.0728 -0.1247
 3666TIP3   OH210961   2.108   2.251   2.975  0.3152  0.0967  0.1566
 3666TIP3    H110962   2.019   2.216   2.964  0.4355  0.0707 -0.7613
 3666TIP3    H210963   2.114   2.268   3.069 -0.6198 -0.0132  0.2546
 3667TIP3   OH210964   7.105   3.903   5.247 -0.3454  0.2462 -0.5301
 3667TIP3    H110965   7.029   3.905   5.306 -0.1040  0.0206 -0.2075
 3667TIP3    H210966   7.173   3.860   5.298 -0.1410  0.0214 -0.9874
 3668TIP3   OH210967   1.214   5.740   2.049  0.2564 -0.0374  0.4678
 3668TIP3    H110968   1.236   5.770   1.960 -0.6277 -0.3642  0.1283
 3668TIP3    H210969   1.218   5.645   2.043 -3.5483 -0.3051 -0.3084
 3669TIP3   OH210970   6.255   3.803   4.029  0.3580 -0.1763 -0.1517
 3669TIP3    H110971   6.205   3.780   4.107  1.8090 -1.5955  0.4293
 3669TIP3    H210972   6.220   3.748   3.959  0.0842 -0.0336 -0.1253
 3670TIP3   OH210973   4.945   2.071   5.348 -0.3358  0.1727  0.1684
 3670TIP3    H110974   4.866   2.022   5.370 -0.6494  0.5323 -0.1538
 3670TIP3    H210975   5.014   2.031   5.402 -0.2812 -1.5412 -1.1008
 3671TIP3   OH210976   0.553   2.048   0.769 -0.1063 -0.4379 -0.3646
 3671TIP3    H110977   0.617   2.119   0.769  0.2954 -0.8002 -0.1958
 3671TIP3    H210978   0.475   2.087   0.729 -0.0700  0.2602  0.2093
 3672TIP3   OH210979   0.338   6.115   5.658  0.1500  0.6323 -0.2111
 3672TIP3    H110980   0.431   6.109   5.633 -0.1918  0.6813 -1.6112
 3672TIP3    H210981   0.339   6.130   5.752  1.5086 -2.5938  0.4235
 3673TIP3   OH210982   1.326   6.637   4.147  0.1525 -0.1828  0.3339
 3673TIP3    H110983   1.396   6.644   4.082  0.5820  0.8305  0.8744
 3673TIP3    H210984   1.356   6.569   4.207 -0.0962 -0.8945 -0.3209
 3674TIP3   OH210985   6.736   0.499   3.844  0.6957 -0.5236 -0.2021
 3674TIP3    H110986   6.735   0.484   3.939  2.0197 -0.3725 -0.1461
 3674TIP3    H210987   6.643   0.504   3.820  0.3230 -1.2655  0.9670
 3675TIP3   OH210988   6.695   4.829   3.348  0.1256 -1.0652 -0.1059
 3675TIP3    H110989   6.731   4.816   3.436  0.2989 -0.0715 -0.0251
 3675TIP3    H210990   6.770   4.817   3.290  0.6076  0.9020  0.0565
 3676TIP3   OH210991   2.898   6.565   0.447  0.3895 -0.4368  0.0816
 3676TIP3    H110992   2.882   6.480   0.489 -2.1787  0.0005  0.1566
 3676TIP3    H210993   2.815   6.585   0.402  0.4838  2.5598  1.0619
 3677TIP3   OH210994   0.007   2.444   1.403 -0.1940  0.6849  0.0045
 3677TIP3    H110995   0.061   2.513   1.366  0.1026  0.3929 -0.1121
 3677TIP3    H210996   0.059   2.364   1.393 -0.1988  0.5638  0.8577
 3678TIP3   OH210997   4.966   3.220   0.284 -0.6583 -0.1540  0.0578
 3678TIP3    H110998   4.927   3.206   0.197 -2.4470 -2.6965  1.1519
 3678TIP3    H210999   5.034   3.153   0.291 -1.1643 -0.5813  0.9602
 3679TIP3   OH211000   5.904   5.211   0.785 -0.4082 -0.5759 -0.4782
 3679TIP3    H111001   5.854   5.206   0.867 -1.3444  0.7608 -0.9228
 3679TIP3    H211002   5.955   5.292   0.793  1.8113 -1.9382 -0.0118
 3680TIP3   OH211003   6.712   2.565   3.299  0.4033  0.2881 -0.1292
 3680TIP3    H111004   6.631   2.560   3.248 -0.0588 -2.2565  0.7228
 3680TIP3    H211005   6.781   2.538   3.239 -0.0397 -1.9829  0.3208
 3681TIP3   OH211006   4.286   5.240   0.117  0.2664 -0.3589 -0.4794
 3681TIP3    H111007   4.359   5.195   0.160  1.7024  1.8416 -0.4575
 3681TIP3    H211008   4.269   5.316   0.172  0.4606  1.1744 -2.4481
 3682TIP3   OH211009   6.654   5.174   3.633 -0.0416  0.3125 -0.2064
 3682TIP3    H111010   6.626   5.100   3.687  1.8407 -1.0295 -0.9930
 3682TIP3    H211011   6.572   5.207   3.595 -1.3406  0.7190  2.6161
 3683TIP3   OH211012   5.870   5.325   4.822 -0.0720 -0.2379  0.3042
 3683TIP3    H111013   5.805   5.393   4.803 -0.7925 -0.9716  0.1045
 3683TIP3    H211014   5.829   5.271   4.890  0.9591  0.1818  1.2837
 3684TIP3   OH211015   7.205   6.667   2.113 -0.3427 -0.0388  0.8495
 3684TIP3    H111016   7.140   6.737   2.105  0.2259  0.5432  1.2184
 3684TIP3    H211017   7.181   6.621   2.194 -1.7471 -1.3812 -0.2654
 3685TIP3   OH211018   5.922   0.181   5.429  0.0880  0.1900 -0.5965
 3685TIP3    H111019   5.963   0.263   5.403  0.8157  0.6137  1.6434
 3685TIP3    H211020   5.875   0.151   5.351  0.4451  2.3207 -1.6957
 3686TIP3   OH211021   1.807   0.212   5.310 -0.8452 -0.0962 -0.2331
 3686TIP3    H111022   1.765   0.133   5.275  2.1989 -1.4051 -1.2713
 3686TIP3    H211023   1.820   0.268   5.233 -2.3140  1.1949  0.3874
 3687TIP3   OH211024   6.004   0.788   4.104  0.4434  0.5513 -0.3335
 3687TIP3    H111025   5.929   0.740   4.070 -0.7318  1.1328  1.2641
 3687TIP3    H211026   6.080   0.737   4.077 -0.6318 -1.1216 -0.3610
 3688TIP3   OH211027   2.614   1.978   0.617  0.0098 -0.1217 -0.3252
 3688TIP3    H111028   2.663   1.994   0.697 -1.1725  0.8512  0.2393
 3688TIP3    H211029   2.573   1.893   0.630 -0.1636  0.0253  0.1007
 3689TIP3   OH211030   2.967   4.546   2.523  0.1712  0.2166 -0.1382
 3689TIP3    H111031   3.062   4.551   2.511  0.5147  0.6114  2.3197
 3689TIP3    H211032   2.933   4.620   2.472  1.1912  0.2780 -0.7632
 3690TIP3   OH211033   5.519   1.865   5.312  0.1249 -0.4303 -0.4326
 3690TIP3    H111034   5.603   1.832   5.278  0.3004  0.3736 -0.8025
 3690TIP3    H211035   5.468   1.887   5.234 -0.0499  0.0053 -0.2032
 3691TIP3   OH211036   1.803   1.070   3.161  0.0171  0.4842 -0.7537
 3691TIP3    H111037   1.874   1.008   3.176 -1.6984 -1.1091  1.5892
 3691TIP3    H211038   1.752   1.032   3.090  0.2265  0.4273 -0.8742
 3692TIP3   OH211039   3.013   4.592   4.319 -0.1245  0.8027 -0.6607
 3692TIP3    H111040   2.948   4.587   4.249 -0.6604 -0.4963 -0.1003
 3692TIP3    H211041   2.964   4.573   4.399  0.9963 -0.6130 -0.2662
 3693TIP3   OH211042   0.227   6.307   1.309  0.0827 -0.2736  0.1210
 3693TIP3    H111043   0.204   6.390   1.269  0.5255 -0.2498 -0.0846
 3693TIP3    H211044   0.269   6.330   1.391 -0.6077 -0.3174  0.4979
 3694TIP3   OH211045   4.831   6.493   0.053  0.5372  0.3135  0.5314
 3694TIP3    H111046   4.859   6.584   0.062  0.3983  0.3237  0.8990
 3694TIP3    H211047   4.736   6.496   0.066  0.5237  0.1296  0.4667
 3695TIP3   OH211048   6.554   5.568   1.532  0.3282  0.0259  0.2114
 3695TIP3    H111049   6.478   5.519   1.500  0.2814 -0.3305  0.8433
 3695TIP3    H211050   6.569   5.635   1.466  0.3462 -0.7952 -0.6328
 3696TIP3   OH211051   2.417   4.744   3.376  0.6925 -0.3092  0.4647
 3696TIP3    H111052   2.465   4.820   3.342 -0.4301  0.1728 -0.0938
 3696TIP3    H211053   2.450   4.733   3.465  1.8340 -0.0063  0.1051
 3697TIP3   OH211054   2.106   6.706   3.787 -0.3905 -0.0155  0.0357
 3697TIP3    H111055   2.197   6.721   3.812 -0.0050 -1.0802 -0.6195
 3697TIP3    H211056   2.084   6.781   3.731  0.5762 -0.4561 -0.9867
 3698TIP3   OH211057   1.044   5.581   3.766  0.3207 -0.1133  0.3243
 3698TIP3    H111058   1.070   5.521   3.696  0.8145  0.3075  0.1442
 3698TIP3    H211059   1.041   5.526   3.845 -0.2175 -0.5845 -0.0209
 3699TIP3   OH211060   5.552   1.764   2.355 -0.4130 -0.7327  0.8471
 3699TIP3    H111061   5.581   1.822   2.285  1.6049  1.0942  3.0342
 3699TIP3    H211062   5.579   1.677   2.326  0.5992 -0.0097 -0.5134
 3700TIP3   OH211063   1.237   3.466   3.452  0.4601  0.0613 -0.4352
 3700TIP3    H111064   1.195   3.442   3.369  1.2245  0.3243 -0.9079
 3700TIP3    H211065   1.210   3.397   3.513  2.2272 -1.8123 -1.6304
 3701TIP3   OH211066   0.291   3.579   0.450 -0.0164 -0.2145  0.2774
 3701TIP3    H111067   0.345   3.514   0.406 -4.3709 -3.4653 -0.9771
 3701TIP3    H211068   0.296   3.656   0.393  0.7508 -1.5234 -1.5279
 3702TIP3   OH211069   6.223   5.867   5.798 -0.2262 -0.4803 -0.3966
 3702TIP3    H111070   6.163   5.904   5.863  0.1730 -0.8261  0.1781
 3702TIP3    H211071   6.310   5.896   5.827 -0.1681  0.7192 -1.6881
 3703TIP3   OH211072   5.248   3.963   5.706  0.7005  0.4327 -0.7263
 3703TIP3    H111073   5.282   3.915   5.782 -1.1183 -0.6840 -0.5743
 3703TIP3    H211074   5.217   3.895   5.646 -3.4876  1.2656  0.2062
 3704TIP3   OH211075   5.842   3.302   5.078  0.2453 -0.5205 -0.1626
 3704TIP3    H111076   5.917   3.268   5.127 -0.0640 -1.0857 -0.0645
 3704TIP3    H211077   5.780   3.331   5.145  1.2945  2.1118 -0.2433
 3705TIP3   OH211078   3.485   0.177   2.890  0.0045 -0.1721 -0.0865
 3705TIP3    H111079   3.444   0.146   2.970 -0.7841 -2.6066 -1.3263
 3705TIP3    H211080   3.458   0.268   2.882 -1.6678 -0.5012  1.3031
 3706TIP3   OH211081   5.892   1.379   4.398 -0.1380  0.3088 -0.0237
 3706TIP3    H111082   5.850   1.462   4.378  0.7095  0.5605 -0.7898
 3706TIP3    H211083   5.827   1.313   4.372 -0.4517  0.7045 -0.2639
 3707TIP3   OH211084   5.622   2.343   3.673 -0.4428 -0.7539  0.2232
 3707TIP3    H111085   5.542   2.386   3.644  0.3240 -0.0295 -0.9059
 3707TIP3    H211086   5.673   2.412   3.715  0.0763 -0.9328 -0.0926
 3708TIP3   OH211087   3.921   2.206   4.831 -0.1756 -0.1947 -0.5058
 3708TIP3    H111088   3.883   2.136   4.777 -0.0874 -0.0279 -0.7835
 3708TIP3    H211089   3.896   2.183   4.920  1.3041 -1.5235 -0.3935
 3709TIP3   OH211090   1.513   3.050   3.716 -0.0718  0.2066  0.4226
 3709TIP3    H111091   1.585   3.007   3.762 -0.1523 -0.9350 -0.4848
 3709TIP3    H211092   1.442   3.053   3.780  0.4562  0.4740  1.0096
 3710TIP3   OH211093   5.391   3.591   0.574 -0.5520  0.8065 -0.3264
 3710TIP3    H111094   5.459   3.589   0.641 -0.4960 -0.1387 -0.3918
 3710TIP3    H211095   5.327   3.654   0.606 -1.3981 -0.8570  1.5053
 3711TIP3   OH211096   5.422   2.135   0.192  0.9648 -0.1196  0.1956
 3711TIP3    H111097   5.478   2.154   0.268 -0.5745 -1.0629  1.6441
 3711TIP3    H211098   5.391   2.045   0.208  0.9621 -0.5214 -1.8211
 3712TIP3   OH211099   7.175   5.802   1.088  0.0174  0.0877 -0.1012
 3712TIP3    H111100   7.161   5.722   1.037  1.8202  0.9235 -2.0762
 3712TIP3    H211101   7.259   5.835   1.058 -0.3972  2.4471  1.0773
 3713TIP3   OH211102   1.046   0.660   3.096 -0.9337  0.3528  0.2852
 3713TIP3    H111103   1.118   0.604   3.126  0.3090  1.0196 -1.3348
 3713TIP3    H211104   0.995   0.677   3.175  0.6814 -0.1281  1.4902
 3714TIP3   OH211105   2.126   6.791   5.167  0.1588 -0.6790  0.3482
 3714TIP3    H111106   2.086   6.753   5.089 -0.5621 -2.2163  1.4132
 3714TIP3    H211107   2.051   6.814   5.223  0.6579 -2.3615  1.8076
 3715TIP3   OH211108   0.099   2.385   3.087 -0.1126  0.0004 -0.0559
 3715TIP3    H111109   0.136   2.454   3.143 -0.7171 -0.0231  0.3829
 3715TIP3    H211110   0.048   2.433   3.022 -0.3220 -0.0146  0.0942
 3716TIP3   OH211111   4.882   6.465   3.536 -0.1854  0.1236 -0.0042
 3716TIP3    H111112   4.885   6.447   3.442 -2.4379 -0.5023 -0.0269
 3716TIP3    H211113   4.974   6.466   3.563  0.6022  1.5238 -2.3921
 3717TIP3   OH211114   5.990   3.945   2.604 -0.2633 -0.4645  0.3071
 3717TIP3    H111115   5.963   3.854   2.590 -0.1790 -0.6445  1.2530
 3717TIP3    H211116   6.052   3.963   2.533 -1.7437 -0.5030 -1.0365
 3718TIP3   OH211117   6.298   0.307   4.486  0.0964  0.4379 -0.4111
 3718TIP3    H111118   6.265   0.279   4.400  0.1252  1.5503 -0.7946
 3718TIP3    H211119   6.392   0.318   4.472  0.1240  0.4727 -0.1949
 3719TIP3   OH211120   6.996   6.304   2.547  0.0101 -0.4638 -0.5953
 3719TIP3    H111121   6.945   6.368   2.497  1.5600  0.3177 -1.2531
 3719TIP3    H211122   6.976   6.220   2.505  0.2554  0.0040 -1.6954
 3720TIP3   OH211123   0.628   3.302   3.603 -0.6301  0.5603 -0.1617
 3720TIP3    H111124   0.599   3.211   3.602 -0.6462  0.5395  0.7305
 3720TIP3    H211125   0.547   3.353   3.598 -0.9560  0.5030  2.7594
 3721TIP3   OH211126   5.696   1.236   2.656  0.0932 -0.2460  0.2516
 3721TIP3    H111127   5.691   1.291   2.734 -0.7059 -0.8851  0.6671
 3721TIP3    H211128   5.749   1.160   2.683 -1.8702 -1.4706  0.8253
 3722TIP3   OH211129   6.032   0.317   3.106 -0.2024 -0.2341 -0.4340
 3722TIP3    H111130   5.942   0.341   3.129 -0.0214  0.1315 -0.0990
 3722TIP3    H211131   6.030   0.307   3.011 -0.1392  1.8010 -0.6917
 3723TIP3   OH211132   7.090   6.701   1.483 -0.7060 -0.3167  0.3533
 3723TIP3    H111133   7.169   6.694   1.537 -1.6552 -0.4537  1.7801
 3723TIP3    H211134   7.071   6.611   1.457 -0.2904 -0.2608 -0.1513
 3724TIP3   OH211135   5.229   4.432   1.829  0.2395  0.1471 -0.4703
 3724TIP3    H111136   5.151   4.456   1.878 -0.9740  0.3635 -2.4203
 3724TIP3    H211137   5.290   4.505   1.845 -0.3010  0.4335  0.3299
 3725TIP3   OH211138   6.864   2.863   3.181  0.2598 -0.2215 -0.6020
 3725TIP3    H111139   6.784   2.861   3.233  0.8525  0.7503  0.3780
 3725TIP3    H211140   6.851   2.795   3.115 -1.0283 -0.6294  0.0390
 3726TIP3   OH211141   4.120   4.525   0.445  0.0851 -0.1553 -0.2448
 3726TIP3    H111142   4.216   4.529   0.451  0.0827 -0.5428  0.1100
 3726TIP3    H211143   4.095   4.457   0.507 -0.4442  0.1224 -0.1480
 3727TIP3   OH211144   3.085   2.732   0.433  0.0329 -0.0308 -0.4056
 3727TIP3    H111145   3.097   2.803   0.371  1.5537  0.0733 -0.0139
 3727TIP3    H211146   3.153   2.669   0.412  0.0043 -0.4107  0.5766
 3728TIP3   OH211147   3.129   4.093   5.243 -0.7438 -0.6171 -0.0038
 3728TIP3    H111148   3.150   4.024   5.306  0.0542 -0.4126 -0.0291
 3728TIP3    H211149   3.110   4.170   5.296  0.9147 -0.1751 -0.0069
 3729TIP3   OH211150   1.898   1.239   1.628 -0.4367 -0.0934 -0.0987
 3729TIP3    H111151   1.825   1.177   1.635 -0.2377 -0.2613  0.5540
 3729TIP3    H211152   1.864   1.320   1.665 -0.7477  0.2489 -1.0945
 3730TIP3   OH211153   3.559   6.754   1.468 -0.4533 -0.5245  0.3867
 3730TIP3    H111154   3.505   6.817   1.421 -1.1250 -1.4088 -0.0779
 3730TIP3    H211155   3.516   6.745   1.554  1.3179  1.8084  1.6161
 3731TIP3   OH211156   2.274   5.500   5.468 -0.4351  0.5080 -0.1171
 3731TIP3    H111157   2.365   5.480   5.490 -0.4633  0.1487 -0.3115
 3731TIP3    H211158   2.235   5.414   5.450 -1.2119  0.4964  1.4357
 3732TIP3   OH211159   0.420   3.940   5.743  0.4263  0.4364  0.1694
 3732TIP3    H111160   0.431   3.988   5.825  0.6493  2.4308 -0.9386
 3732TIP3    H211161   0.507   3.938   5.704  0.1563  0.3773 -0.4487
 3733TIP3   OH211162   3.023   5.023   5.743 -0.4372 -0.3487 -0.3307
 3733TIP3    H111163   2.992   4.937   5.773  1.5284 -1.3323 -0.9052
 3733TIP3    H211164   3.116   5.023   5.765 -0.0658  1.0012 -1.7464
 3734TIP3   OH211165   0.258   2.240   1.712 -0.0794  0.0341  0.4184
 3734TIP3    H111166   0.245   2.245   1.806 -0.7243 -0.6497  0.3802
 3734TIP3    H211167   0.284   2.328   1.686 -1.3894  0.6368  1.0267
 3735TIP3   OH211168   5.030   0.252   0.064  0.2536 -0.1625  0.1502
 3735TIP3    H111169   5.097   0.226   0.001  0.4480 -0.3559  0.4297
 3735TIP3    H211170   5.075   0.314   0.122  1.1475 -2.5678  2.2274
 3736TIP3   OH211171   1.409   0.246   4.824 -0.5191 -0.0597  0.0035
 3736TIP3    H111172   1.497   0.209   4.824  0.3626  1.9230  0.1152
 3736TIP3    H211173   1.377   0.233   4.735  0.1568 -0.2093 -0.2207
 3737TIP3   OH211174   5.582   4.647   3.798  0.3351  0.2366  0.3788
 3737TIP3    H111175   5.643   4.620   3.729  0.6188  1.1848  0.2532
 3737TIP3    H211176   5.495   4.632   3.761  0.3629 -2.9312  1.2186
 3738TIP3   OH211177   2.871   6.201   1.799  0.3913 -0.9716  0.1009
 3738TIP3    H111178   2.807   6.206   1.729 -1.0452  1.5353  1.4734
 3738TIP3    H211179   2.824   6.159   1.871  0.6773 -0.1897  0.7474
 3739TIP3   OH211180   2.910   6.645   2.437 -0.1751  0.0401 -0.3936
 3739TIP3    H111181   2.936   6.727   2.396  0.1158  0.3902  0.4683
 3739TIP3    H211182   2.871   6.671   2.520  1.8511 -0.7890  0.8805
 3740TIP3   OH211183   6.685   0.113   2.564 -0.0704 -0.5779 -0.2578
 3740TIP3    H111184   6.773   0.088   2.591 -0.7012 -2.3630  0.3405
 3740TIP3    H211185   6.686   0.106   2.469  0.7196  0.4909 -0.3370
 3741TIP3   OH211186   1.127   6.824   4.128 -0.0068  0.4075  0.0874
 3741TIP3    H111187   1.144   6.837   4.035  0.1359  0.9883  0.1883
 3741TIP3    H211188   1.172   6.743   4.150  0.5928  0.6619 -0.1830
 3742TIP3   OH211189   4.316   3.517   5.124 -0.3436  0.0355 -0.3421
 3742TIP3    H111190   4.262   3.454   5.077 -2.2409  0.5382  1.0483
 3742TIP3    H211191   4.259   3.592   5.138  1.0766  1.0666  0.2394
 3743TIP3   OH211192   2.561   2.517   4.366  0.4649  0.0576 -0.0672
 3743TIP3    H111193   2.559   2.593   4.425 -1.6678 -1.2175  1.6669
 3743TIP3    H211194   2.538   2.554   4.281  3.7945  1.9817 -0.3041
 3744TIP3   OH211195   6.356   3.862   4.971  0.2896  0.2276 -0.1928
 3744TIP3    H111196   6.318   3.949   4.967 -0.5768 -0.1454 -0.3459
 3744TIP3    H211197   6.282   3.804   4.987  1.0948 -0.2979  2.1400
 3745TIP3   OH211198   0.224   2.869   0.094 -0.1532  0.5042 -0.0429
 3745TIP3    H111199   0.234   2.867  -0.002  0.3763  1.2904 -0.0166
 3745TIP3    H211200   0.165   2.796   0.113  0.4873 -0.2672 -0.8789
 3746TIP3   OH211201   6.274   4.784   4.712  0.2504  0.3767 -0.3157
 3746TIP3    H111202   6.199   4.811   4.765  1.4325  1.2825  0.9655
 3746TIP3    H211203   6.334   4.858   4.717  1.6780 -0.7421 -0.4438
 3747TIP3   OH211204   6.160   0.724   3.560  0.5741 -0.3921  0.1921
 3747TIP3    H111205   6.198   0.785   3.622  0.5494  0.1435 -0.3109
 3747TIP3    H211206   6.206   0.641   3.576  1.0386 -0.0855  0.4582
 3748TIP3   OH211207   3.986   1.755   4.789 -0.1158 -0.2098  0.6501
 3748TIP3    H111208   4.047   1.776   4.718  0.1466 -0.9074  0.6571
 3748TIP3    H211209   3.970   1.839   4.832 -2.0356  0.6737 -1.5793
 3749TIP3   OH211210   4.256   1.276   0.162 -0.2247  0.5234 -0.4172
 3749TIP3    H111211   4.211   1.360   0.168  0.2239  0.7949 -0.8376
 3749TIP3    H211212   4.277   1.254   0.253 -1.1292  0.4290 -0.2218
 3750TIP3   OH211213   5.448   1.256   5.304  0.6233  1.4239  0.1950
 3750TIP3    H111214   5.451   1.333   5.362 -2.0505  0.1830  2.1930
 3750TIP3    H211215   5.428   1.183   5.362 -2.0942  0.0566 -2.2070
 3751TIP3   OH211216   1.159   1.431   4.894  0.0048  0.3565 -0.2911
 3751TIP3    H111217   1.082   1.415   4.840 -0.5086  0.6318  0.3371
 3751TIP3    H211218   1.168   1.352   4.948 -0.4845  0.7517  0.3876
 3752TIP3   OH211219   6.465   1.133   5.289  0.4366  0.0346  0.0714
 3752TIP3    H111220   6.539   1.072   5.291  0.5965  0.2167 -0.2069
 3752TIP3    H211221   6.391   1.081   5.319  0.4308 -0.5087 -0.8311
 3753TIP3   OH211222   4.617   4.925   2.785 -0.4409  0.0058 -0.1118
 3753TIP3    H111223   4.531   4.942   2.824  0.9957  3.2252  2.1507
 3753TIP3    H211224   4.675   4.916   2.861  1.5080 -0.3941 -1.5909
 3754TIP3   OH211225   6.058   2.918   4.244 -0.0374  0.2894  0.0613
 3754TIP3    H111226   6.073   2.824   4.231 -2.6168 -0.0544 -0.9719
 3754TIP3    H211227   5.963   2.927   4.243  0.1418  2.8802  0.6295
 3755TIP3   OH211228   0.381   5.443   4.744 -0.1973 -0.7918 -0.8607
 3755TIP3    H111229   0.432   5.375   4.789  1.3403  0.4103 -0.7017
 3755TIP3    H211230   0.334   5.488   4.815 -0.2493 -0.9104 -0.8200
 3756TIP3   OH211231   5.202   2.296   4.649  0.4843 -0.4974 -0.2654
 3756TIP3    H111232   5.255   2.320   4.573 -1.1066 -1.9963 -1.9625
 3756TIP3    H211233   5.113   2.325   4.625 -0.0372 -0.9353  1.0592
 3757TIP3   OH211234   6.718   6.703   3.616 -0.1746  0.1907 -0.0645
 3757TIP3    H111235   6.724   6.712   3.521  0.0907 -0.0100 -0.0688
 3757TIP3    H211236   6.796   6.653   3.640 -0.6574 -0.4595  0.1697
 3758TIP3   OH211237   5.231   0.750   4.674  0.4538  0.3679  0.5826
 3758TIP3    H111238   5.230   0.822   4.737 -0.4471  0.1037  0.8815
 3758TIP3    H211239   5.313   0.761   4.626  1.1235  0.6058  1.7558
 3759TIP3   OH211240   6.438   2.513   2.788 -0.2019 -0.1817  0.1896
 3759TIP3    H111241   6.512   2.453   2.795 -0.6124 -0.9878 -1.5909
 3759TIP3    H211242   6.472   2.589   2.741 -0.5465 -0.7370 -1.0166
 3760TIP3   OH211243   0.701   1.147   1.173 -0.2730  0.2445 -0.3143
 3760TIP3    H111244   0.764   1.101   1.117 -0.9979 -1.6355  0.3186
 3760TIP3    H211245   0.750   1.168   1.252  0.1853  0.9600 -0.7843
 3761TIP3   OH211246   2.490   1.220   4.653  0.0545  0.0716 -0.2763
 3761TIP3    H111247   2.518   1.294   4.599  0.6796 -0.4549 -0.6876
 3761TIP3    H211248   2.481   1.147   4.592 -3.2078  0.3828 -0.3573
 3762TIP3   OH211249   5.704   2.672   2.610 -0.0582 -0.7542  0.2031
 3762TIP3    H111250   5.784   2.656   2.661 -0.1902 -2.1584  0.0136
 3762TIP3    H211251   5.647   2.719   2.670  0.2957 -1.1989  0.9040
 3763TIP3   OH211252   2.180   0.262   0.213  0.3671 -0.6109 -0.5616
 3763TIP3    H111253   2.193   0.168   0.215  1.7046 -0.4387  0.8003
 3763TIP3    H211254   2.184   0.286   0.121  1.3034 -1.7325 -0.8250
 3764TIP3   OH211255   3.860   4.710   4.713 -0.0452 -0.2356  0.2621
 3764TIP3    H111256   3.771   4.717   4.748 -0.2036 -0.4598 -0.0870
 3764TIP3    H211257   3.915   4.698   4.790 -0.1726  1.1283  0.5974
 3765TIP3   OH211258   2.413   2.007   4.020 -0.0261  0.4135  0.3197
 3765TIP3    H111259   2.332   2.006   3.971 -0.3789 -2.3453  0.7670
 3765TIP3    H211260   2.391   2.050   4.103 -0.0537  2.8314 -0.8652
 3766TIP3   OH211261   0.807   2.368   4.074  0.4005  0.6570 -0.1584
 3766TIP3    H111262   0.755   2.341   3.999 -0.8579  0.9359  0.5851
 3766TIP3    H211263   0.877   2.302   4.080 -3.1470 -3.4417  2.2893
 3767TIP3   OH211264   0.915   1.445   0.355 -0.2491  0.3802 -0.1052
 3767TIP3    H111265   0.984   1.461   0.420 -0.7483 -1.1663  0.8542
 3767TIP3    H211266   0.839   1.420   0.407 -0.7692 -0.5244 -1.2583
 3768TIP3   OH211267   6.104   1.840   0.680  0.5824 -0.1731  0.0695
 3768TIP3    H111268   6.156   1.902   0.730 -0.1936  0.5211  0.0328
 3768TIP3    H211269   6.036   1.893   0.638  1.1508 -0.7418 -1.6565
 3769TIP3   OH211270   3.988   6.367   0.383  0.7205 -0.1954  0.3573
 3769TIP3    H111271   3.910   6.366   0.327  1.1214 -0.3765 -0.2048
 3769TIP3    H211272   3.972   6.298   0.447  0.0945  0.2550  0.7065
 3770TIP3   OH211273   4.800   0.508   1.491 -0.6605 -0.6334 -0.1499
 3770TIP3    H111274   4.855   0.584   1.468  0.8503 -1.2449  1.2348
 3770TIP3    H211275   4.711   0.543   1.493 -0.2005  0.7046 -1.2081
 3771TIP3   OH211276   2.936   3.189   0.952  0.4539  0.0588  0.2522
 3771TIP3    H111277   2.849   3.191   0.912  0.8023  1.4488 -0.5187
 3771TIP3    H211278   2.988   3.249   0.899  1.5516  0.2308  1.4681
 3772TIP3   OH211279   6.321   1.310   0.147  0.1852  0.2718 -0.4337
 3772TIP3    H111280   6.246   1.259   0.118  0.0415  1.1785 -1.7314
 3772TIP3    H211281   6.391   1.246   0.158 -0.4276 -0.4090 -0.4334
 3773TIP3   OH211282   5.654   5.104   4.476  0.5285  0.1789 -0.4029
 3773TIP3    H111283   5.724   5.169   4.468  0.0065  0.5376 -2.8256
 3773TIP3    H211284   5.585   5.151   4.524  1.8382 -0.1914  2.0431
 3774TIP3   OH211285   2.254   6.742   4.316 -0.0856 -0.3615 -0.7188
 3774TIP3    H111286   2.178   6.801   4.314 -0.2620 -0.6018 -2.0668
 3774TIP3    H211287   2.314   6.779   4.251  0.8600 -0.3059  0.1785
 3775TIP3   OH211288   1.150   5.871   1.577 -0.4721 -0.9184 -0.3396
 3775TIP3    H111289   1.164   5.927   1.500  0.9865  1.2846  1.3959
 3775TIP3    H211290   1.061   5.893   1.605  0.2015  0.9237  0.5245
 3776TIP3   OH211291   5.782   5.049   0.305 -0.1426  0.0663  0.0294
 3776TIP3    H111292   5.772   5.053   0.400 -0.9175 -1.0269  0.0276
 3776TIP3    H211293   5.703   5.090   0.271  1.0235  2.2306 -0.1978
 3777TIP3   OH211294   4.588   1.024   4.366  0.4419 -0.3472 -0.3544
 3777TIP3    H111295   4.672   1.021   4.412  0.5877  0.2988 -0.5664
 3777TIP3    H211296   4.554   1.111   4.385 -0.1883 -0.6100 -0.2632
 3778TIP3   OH211297   2.810   6.658   4.337  0.2461  0.2956  0.0794
 3778TIP3    H111298   2.813   6.672   4.432  1.4977  3.1686 -0.2786
 3778TIP3    H211299   2.747   6.723   4.306  0.9589  0.4066 -1.1910
 3779TIP3   OH211300   2.487   2.624   5.081  0.4137  0.2377  0.7040
 3779TIP3    H111301   2.535   2.550   5.118 -0.6216 -1.2648 -0.8326
 3779TIP3    H211302   2.539   2.650   5.005 -0.5936 -0.6828 -0.3232
 3780TIP3   OH211303   1.035   4.740   3.245  1.2726 -0.0413 -0.2305
 3780TIP3    H111304   0.976   4.786   3.185  1.2925 -0.6650 -0.7456
 3780TIP3    H211305   1.013   4.647   3.232  3.3870 -0.4177 -1.5776
 3781TIP3   OH211306   2.204   0.038   5.727  0.4943  0.0650 -0.4302
 3781TIP3    H111307   2.161  -0.033   5.775 -0.1846  0.0991 -0.9690
 3781TIP3    H211308   2.297   0.016   5.730  0.4945  0.1270  0.9891
 3782TIP3   OH211309   0.468   4.204   4.216  0.0646  0.2480  0.2035
 3782TIP3    H111310   0.544   4.259   4.199 -0.1298  1.0765  1.7991
 3782TIP3    H211311   0.500   4.137   4.278  0.0315 -0.8032 -0.8770
 3783TIP3   OH211312   5.623   3.861   5.704 -0.3520  0.7171 -0.3731
 3783TIP3    H111313   5.596   3.879   5.614  2.0551  1.4963 -1.0410
 3783TIP3    H211314   5.683   3.933   5.725 -0.2609  0.1205  1.5750
 3784TIP3   OH211315   4.732   0.394   5.114 -0.3329 -0.5186  0.1974
 3784TIP3    H111316   4.767   0.350   5.037  1.6685  0.7942  0.2776
 3784TIP3    H211317   4.796   0.377   5.183 -0.9499  0.1657  0.9720
 3785TIP3   OH211318   1.020   3.181   5.514 -0.6232  0.3458 -0.1126
 3785TIP3    H111319   1.026   3.208   5.605 -0.2954  2.7100 -0.7649
 3785TIP3    H211320   0.926   3.180   5.496 -0.6484  1.1262 -0.0643
 3786TIP3   OH211321   7.168   0.065   1.598  0.1418 -0.0543  0.2050
 3786TIP3    H111322   7.090   0.109   1.565  1.6058  0.9687 -2.1668
 3786TIP3    H211323   7.179   0.099   1.687 -1.9884 -0.1252  0.5311
 3787TIP3   OH211324   5.488   0.338   1.605  0.0651 -0.3060  0.3128
 3787TIP3    H111325   5.395   0.338   1.628  0.3164  0.5756  1.4213
 3787TIP3    H211326   5.494   0.278   1.531 -1.2295 -1.1862  0.8774
 3788TIP3   OH211327   2.579   3.622   4.076  0.5699  0.0374  0.4840
 3788TIP3    H111328   2.664   3.578   4.071  1.0369  0.9249  0.3018
 3788TIP3    H211329   2.567   3.640   4.169  0.7372  0.2061  0.4725
 3789TIP3   OH211330   1.049   4.296   5.486  0.0913  0.3107 -0.6554
 3789TIP3    H111331   1.089   4.209   5.481  0.9253  0.4907  1.8299
 3789TIP3    H211332   1.017   4.311   5.397 -0.7056 -2.7953 -1.0372
 3790TIP3   OH211333   6.761   4.063   5.006  0.0060 -0.8470  0.2077
 3790TIP3    H111334   6.715   4.005   5.067 -2.1585  0.7334  0.1934
 3790TIP3    H211335   6.693   4.121   4.972  2.1014  2.2046  0.7950
 3791TIP3   OH211336   4.741   1.833   4.036 -0.1578 -0.3159 -0.4824
 3791TIP3    H111337   4.737   1.775   3.959 -0.7039 -0.7852 -0.1096
 3791TIP3    H211338   4.784   1.912   4.004  0.1987 -0.7521 -1.1153
 3792TIP3   OH211339   3.615   4.934   4.431 -0.2937 -0.0830  0.4284
 3792TIP3    H111340   3.670   5.008   4.456 -0.5328  0.3570 -0.3064
 3792TIP3    H211341   3.526   4.966   4.442 -0.3971 -0.3711  0.4211
 3793TIP3   OH211342   4.609   2.558   2.912 -0.3647 -0.4820  0.2229
 3793TIP3    H111343   4.668   2.545   2.986  0.0893  0.8076  0.1123
 3793TIP3    H211344   4.527   2.516   2.939 -0.0198 -0.5356  1.2147
 3794TIP3   OH211345   3.536   4.617   2.620 -0.0103 -0.1674  0.2238
 3794TIP3    H111346   3.534   4.713   2.624  0.1561 -0.1048 -0.8886
 3794TIP3    H211347   3.587   4.591   2.697 -0.9070  0.5731  1.1066
 3795TIP3   OH211348   6.709   3.291   1.023  0.1388 -0.0699 -0.2638
 3795TIP3    H111349   6.722   3.367   1.078 -0.3277  0.3043 -0.6566
 3795TIP3    H211350   6.773   3.300   0.953  1.2273 -0.9226  0.5865
 3796TIP3   OH211351   1.902   2.143   5.865 -0.3633 -0.4173 -0.4763
 3796TIP3    H111352   1.983   2.131   5.815  0.4661 -0.3749  0.8027
 3796TIP3    H211353   1.854   2.211   5.817  1.9682  2.1470  0.5670
 3797TIP3   OH211354   5.981   5.428   5.628 -0.2041  0.3445 -0.2545
 3797TIP3    H111355   6.064   5.398   5.664 -1.1422 -1.5437  0.5031
 3797TIP3    H211356   5.938   5.472   5.701 -0.3553  0.2718 -0.2988
 3798TIP3   OH211357   3.548   4.572   2.076 -0.3517  0.4926  0.6557
 3798TIP3    H111358   3.623   4.631   2.074 -0.7265  1.0272  1.6239
 3798TIP3    H211359   3.525   4.567   2.169 -1.8654  0.7813  0.3145
 3799TIP3   OH211360   1.287   0.944   3.124 -0.1859  0.4777  0.0248
 3799TIP3    H111361   1.340   1.013   3.164  1.0038 -0.2265 -0.2842
 3799TIP3    H211362   1.204   0.947   3.171  0.6373  0.6728  1.5126
 3800TIP3   OH211363   6.353   3.180   5.690  0.2105 -0.8725 -0.4514
 3800TIP3    H111364   6.370   3.273   5.701 -0.7039 -0.8350  0.7760
 3800TIP3    H211365   6.279   3.161   5.748  0.2811 -2.3332 -0.7852
 3801TIP3   OH211366   4.162   6.369   4.297 -0.5925 -0.1955 -0.3225
 3801TIP3    H111367   4.225   6.377   4.368 -0.9812  2.5917 -0.1833
 3801TIP3    H211368   4.216   6.359   4.218 -0.0196  0.4720 -0.0245
 3802TIP3   OH211369   6.512   6.077   4.022 -0.4253  0.2666 -0.2068
 3802TIP3    H111370   6.518   5.985   3.995 -2.4187 -0.3681  1.2596
 3802TIP3    H211371   6.581   6.121   3.973 -0.0002 -1.8486 -1.6372
 3803TIP3   OH211372   2.905   6.686   2.690  0.3793  0.3821  0.1787
 3803TIP3    H111373   2.828   6.736   2.720  0.1766  0.6672 -0.7682
 3803TIP3    H211374   2.980   6.735   2.724  0.1624 -0.1037  1.4321
 3804TIP3   OH211375   2.427   5.271   4.670 -0.2971 -0.1066  0.7440
 3804TIP3    H111376   2.404   5.332   4.601  1.1888 -0.5293 -0.1532
 3804TIP3    H211377   2.426   5.185   4.628  0.8580 -0.3460  1.1694
 3805TIP3   OH211378   6.215   6.791   0.433 -0.0126 -0.1957  0.1176
 3805TIP3    H111379   6.258   6.852   0.373  0.9786 -0.0004  0.9859
 3805TIP3    H211380   6.286   6.757   0.487 -0.5869 -1.9645 -0.1892
 3806TIP3   OH211381   2.118   6.295   3.896  0.2364  0.5912  0.0386
 3806TIP3    H111382   2.029   6.323   3.875  0.4676  0.8689 -0.5826
 3806TIP3    H211383   2.172   6.373   3.881  0.6475  0.2951 -0.0346
 3807TIP3   OH211384   5.091   1.881   0.718  0.2744 -0.2205  0.1465
 3807TIP3    H111385   5.151   1.827   0.666 -0.5578 -0.6759 -0.3584
 3807TIP3    H211386   5.147   1.948   0.758  1.3194 -1.4324  0.7631
 3808TIP3   OH211387   6.196   0.261   1.830  0.5715  0.0824  0.5351
 3808TIP3    H111388   6.154   0.325   1.772 -0.1990  0.7602  1.8018
 3808TIP3    H211389   6.175   0.176   1.791  0.4191  0.5262 -0.3965
 3809TIP3   OH211390   2.363   4.929   1.635 -0.1772 -0.0099 -0.2202
 3809TIP3    H111391   2.307   4.929   1.713  0.2689 -2.2003  0.1585
 3809TIP3    H211392   2.321   4.867   1.576  0.1920  0.6720 -1.2212
 3810TIP3   OH211393   5.529   1.970   1.673  0.1420  0.1901  0.3415
 3810TIP3    H111394   5.540   1.971   1.578  2.0618  1.4866  0.5308
 3810TIP3    H211395   5.612   1.938   1.707 -0.8961 -1.3690  1.6067
 3811TIP3   OH211396   2.505   0.132   0.446  0.2606 -0.8608  0.3631
 3811TIP3    H111397   2.426   0.183   0.463  0.3529 -0.7654  0.5136
 3811TIP3    H211398   2.487   0.046   0.485  0.8757 -0.3238  1.9253
 3812TIP3   OH211399   0.298   2.912   3.205 -0.2964 -0.0496  0.2594
 3812TIP3    H111400   0.296   2.827   3.250  0.1322 -0.7467 -0.9705
 3812TIP3    H211401   0.321   2.890   3.114  0.5268  1.4549  0.0723
 3813TIP3   OH211402   4.039   1.895   3.993 -0.0725  0.6031  0.2886
 3813TIP3    H111403   4.055   1.912   4.086  1.1374  0.5159  0.1102
 3813TIP3    H211404   4.024   1.800   3.988  0.3335  0.5323  0.3429
 3814TIP3   OH211405   4.555   3.432   1.701  0.5018  0.4374  0.3053
 3814TIP3    H111406   4.580   3.495   1.768  1.9265 -0.6352  0.8210
 3814TIP3    H211407   4.575   3.346   1.739 -1.4743 -0.3676 -0.3396
 3815TIP3   OH211408   7.112   2.502   3.734  0.6044  0.2333 -0.3128
 3815TIP3    H111409   7.092   2.485   3.642  0.8205  1.5466 -0.6305
 3815TIP3    H211410   7.189   2.559   3.731 -0.3438  1.6393  0.5936
 3816TIP3   OH211411   6.940   0.247   4.142 -0.3086  0.4795 -0.0029
 3816TIP3    H111412   6.905   0.203   4.065  0.1389  0.9317 -0.4730
 3816TIP3    H211413   6.919   0.340   4.128  0.4207  0.6624  0.0533
 3817TIP3   OH211414   3.215   1.682   3.884 -0.3595 -0.0613 -0.3169
 3817TIP3    H111415   3.207   1.740   3.809 -2.1761  1.4104  0.9420
 3817TIP3    H211416   3.181   1.598   3.853 -2.3751  0.8744 -0.8063
 3818TIP3   OH211417   0.030   4.963   1.709  0.5293  0.1965 -0.0569
 3818TIP3    H111418   0.074   5.048   1.715  0.0806  0.5602 -1.5664
 3818TIP3    H211419  -0.060   4.984   1.683  0.2852 -0.7142  0.0161
 3819TIP3   OH211420   0.115   4.783   3.255  0.5736 -0.1642 -0.5855
 3819TIP3    H111421   0.094   4.859   3.310  0.9305 -0.8345  0.5146
 3819TIP3    H211422   0.030   4.748   3.228  0.3790 -0.0906 -0.0769
 3820TIP3   OH211423   2.702   4.127   2.859  0.3105  0.4580 -0.2520
 3820TIP3    H111424   2.784   4.173   2.874 -0.1532  1.1249  0.3389
 3820TIP3    H211425   2.654   4.135   2.942  0.0768 -0.8271 -0.2354
 3821TIP3   OH211426   5.131   3.122   0.883 -0.5850 -0.8631 -0.2130
 3821TIP3    H111427   5.046   3.123   0.926 -0.6206 -0.3303 -0.2921
 3821TIP3    H211428   5.192   3.093   0.951 -0.5679  0.4048  0.3464
 3822TIP3   OH211429   0.696   1.471   4.673  0.0870 -0.1704  0.0628
 3822TIP3    H111430   0.668   1.421   4.749 -0.3244 -0.4229 -0.2519
 3822TIP3    H211431   0.624   1.463   4.610  0.8502 -0.8198 -0.7528
 3823TIP3   OH211432   0.224   2.023   4.676 -0.0180 -0.4321  0.4777
 3823TIP3    H111433   0.263   2.108   4.655 -0.3001 -0.6015 -0.7886
 3823TIP3    H211434   0.146   2.045   4.728 -2.2124  0.4163 -2.8485
 3824TIP3   OH211435   4.093   3.591   3.795  0.6562 -0.1542  0.3099
 3824TIP3    H111436   4.102   3.685   3.810  0.7836  0.0423 -0.8949
 3824TIP3    H211437   3.999   3.575   3.796  0.5480  0.2678 -0.9455
 3825TIP3   OH211438   6.434   3.162   4.873 -0.5598 -0.1847 -0.1321
 3825TIP3    H111439   6.399   3.195   4.791  0.2062 -0.2730 -0.5069
 3825TIP3    H211440   6.432   3.236   4.933  1.3642  0.6655 -1.0282
 3826TIP3   OH211441   1.487   1.039   0.511  0.0805 -0.0674  0.1030
 3826TIP3    H111442   1.432   0.962   0.498 -0.1241 -0.1598  1.4009
 3826TIP3    H211443   1.557   1.009   0.568 -0.6263  0.9504  1.5721
 3827TIP3   OH211444   3.265   4.665   1.618 -0.4719 -0.2527 -0.3521
 3827TIP3    H111445   3.180   4.654   1.659  0.5074 -0.0369  1.8401
 3827TIP3    H211446   3.309   4.581   1.631  0.0918  0.0314 -0.3942
 3828TIP3   OH211447   5.446   1.860   3.733 -0.1264 -0.3710  0.2600
 3828TIP3    H111448   5.503   1.935   3.715  0.7905 -1.0014  0.4438
 3828TIP3    H211449   5.359   1.889   3.708  0.4522  0.2405 -1.1348
 3829TIP3   OH211450   5.602   3.087   3.309  0.1907 -0.1881 -0.3620
 3829TIP3    H111451   5.526   3.030   3.316  1.7473 -2.4790 -1.1280
 3829TIP3    H211452   5.625   3.085   3.216  1.8701 -0.5123  0.0247
 3830TIP3   OH211453   7.098   3.992   0.473  0.3706 -0.5519 -0.3047
 3830TIP3    H111454   7.077   3.920   0.412 -2.3482  0.0048 -0.1691
 3830TIP3    H211455   7.109   4.068   0.416 -0.7224 -0.3204 -0.2246
 3831TIP3   OH211456   5.846   0.215   2.229  0.4436 -0.1247 -0.0753
 3831TIP3    H111457   5.834   0.251   2.141  0.4012  1.8576  0.6861
 3831TIP3    H211458   5.897   0.135   2.215 -0.1318 -0.2315 -1.9487
 3832TIP3   OH211459   6.536   0.344   4.762  0.1747  0.3544 -0.1288
 3832TIP3    H111460   6.591   0.418   4.739 -0.7603  1.0987 -0.0140
 3832TIP3    H211461   6.596   0.278   4.795  0.9219  1.4073  0.6599
 3833TIP3   OH211462   4.612   0.735   2.043  0.0853 -0.3378 -0.4312
 3833TIP3    H111463   4.567   0.780   2.115  1.8217  0.6576  0.0971
 3833TIP3    H211464   4.657   0.662   2.085 -0.7617 -1.1355 -0.8983
 3834TIP3   OH211465   0.900   5.004   3.595  0.0207 -0.7062  0.3783
 3834TIP3    H111466   0.904   5.046   3.681 -3.7927 -2.4140  1.6048
 3834TIP3    H211467   0.924   5.073   3.533 -0.4395  1.5928  2.5949
 3835TIP3   OH211468   5.025   5.001   5.061  0.3234  0.2563 -0.4031
 3835TIP3    H111469   4.976   4.933   5.015 -1.2049  0.1957  1.2045
 3835TIP3    H211470   4.966   5.076   5.064  1.6083  1.3401 -1.2796
 3836TIP3   OH211471   2.584   5.909   1.307  0.1962  0.1581 -0.0653
 3836TIP3    H111472   2.567   5.903   1.400  1.2256  1.0650  0.2070
 3836TIP3    H211473   2.516   5.855   1.266  0.4666 -1.2538  1.2642
 3837TIP3   OH211474   4.757   0.525   4.659 -0.6055 -0.0579  0.1525
 3837TIP3    H111475   4.814   0.495   4.588 -1.1846  1.6078 -1.0789
 3837TIP3    H211476   4.705   0.447   4.682  0.0386 -0.7924 -0.8099
 3838TIP3   OH211477   1.091   1.719   4.882 -0.4947  0.4075  0.4030
 3838TIP3    H111478   1.091   1.809   4.850  0.4269  0.8115  1.4697
 3838TIP3    H211479   0.999   1.702   4.904 -0.7493  0.9284 -0.2155
 3839TIP3   OH211480   2.746   1.722   5.043 -0.7145  0.0347 -0.2780
 3839TIP3    H111481   2.681   1.688   5.105 -0.2146  2.1051  1.4915
 3839TIP3    H211482   2.820   1.663   5.051 -0.1967  0.9064  2.0836
 3840TIP3   OH211483   1.440   6.755   0.220 -0.5089  0.0652  0.3333
 3840TIP3    H111484   1.390   6.836   0.219 -0.6874 -0.0064 -1.9140
 3840TIP3    H211485   1.403   6.703   0.149  2.6416 -0.0336 -1.4141
 3841TIP3   OH211486   1.298   1.623   5.086  0.0657  0.2276  0.0918
 3841TIP3    H111487   1.218   1.643   5.136 -0.1735  0.1045 -0.2347
 3841TIP3    H211488   1.368   1.624   5.151 -0.3021 -0.3776  0.5109
 3842TIP3   OH211489   4.184   5.451   3.621  0.4449  0.5173  0.2823
 3842TIP3    H111490   4.228   5.484   3.700  1.2286 -3.2107  1.5727
 3842TIP3    H211491   4.255   5.416   3.568 -0.3479  0.8118 -1.0005
 3843TIP3   OH211492   3.576   4.361   1.342 -0.6650  0.1672  0.4327
 3843TIP3    H111493   3.564   4.370   1.248  1.5711  0.4613  0.1277
 3843TIP3    H211494   3.490   4.382   1.379 -0.8017  3.3605 -1.3515
 3844TIP3   OH211495   5.017   2.599   4.210 -0.2711  0.0542  0.4531
 3844TIP3    H111496   5.093   2.613   4.267 -0.7117  0.7484  0.8911
 3844TIP3    H211497   4.997   2.506   4.219  0.5687 -0.1505  0.2759
 3845TIP3   OH211498   1.214   6.676   1.153 -0.0519  0.0428 -0.3659
 3845TIP3    H111499   1.142   6.631   1.198 -0.0464  0.9866  0.6031
 3845TIP3    H211500   1.208   6.767   1.181  2.7284 -0.1844  1.3623
 3846TIP3   OH211501   6.087   0.882   0.221 -0.6028  0.2226  0.1058
 3846TIP3    H111502   6.096   0.969   0.181  0.6803 -0.6818 -1.6956
 3846TIP3    H211503   6.001   0.851   0.193 -1.2263  1.0482  1.0704
 3847TIP3   OH211504   6.922   4.075   4.767  1.0319 -0.0143  0.1999
 3847TIP3    H111505   6.882   4.054   4.851  0.5888  1.6059  0.4229
 3847TIP3    H211506   6.914   4.170   4.760  2.2437  0.0168 -1.0820
 3848TIP3   OH211507   3.351   3.875   1.750  0.0965  0.4481  0.1164
 3848TIP3    H111508   3.349   3.787   1.787 -0.7512 -0.1196 -1.1937
 3848TIP3    H211509   3.425   3.918   1.793 -0.1158 -0.5372  1.5511
 3849TIP3   OH211510   5.966   0.535   0.368 -0.2500  0.0636  0.1817
 3849TIP3    H111511   6.042   0.553   0.313 -0.7486 -0.0108 -0.5421
 3849TIP3    H211512   6.003   0.509   0.452  0.5152  1.9831  0.4837
 3850TIP3   OH211513   1.666   0.164   1.484 -0.4890 -0.0098  0.1687
 3850TIP3    H111514   1.711   0.226   1.541  1.3753 -0.0762 -1.1352
 3850TIP3    H211515   1.686   0.078   1.522  1.8023 -0.1474 -1.1520
 3851TIP3   OH211516   4.590   4.178   2.508 -1.1485  0.1191 -1.1187
 3851TIP3    H111517   4.532   4.252   2.527 -0.5213  0.7055 -1.4749
 3851TIP3    H211518   4.542   4.125   2.445 -1.7973 -0.0311 -0.5132
 3852TIP3   OH211519   0.742   1.806   5.317  0.1101 -0.3381  0.0983
 3852TIP3    H111520   0.801   1.853   5.258 -0.0296 -0.0577  0.1792
 3852TIP3    H211521   0.779   1.823   5.404 -0.3374  0.2032  0.1872
 3853TIP3   OH211522   1.205   3.658   2.452  0.6786 -0.0446  0.2602
 3853TIP3    H111523   1.218   3.564   2.442  1.2817 -0.0509  0.9811
 3853TIP3    H211524   1.128   3.666   2.508 -0.9517 -0.0481 -1.8717
 3854TIP3   OH211525   6.426   5.731   2.352  0.1329 -0.5337  0.4338
 3854TIP3    H111526   6.463   5.651   2.313  0.0399  0.1799 -1.2407
 3854TIP3    H211527   6.393   5.704   2.437 -0.6954 -2.5035 -0.4470
 3855TIP3   OH211528   0.861   0.990   4.898  0.1628  0.0162  0.6413
 3855TIP3    H111529   0.946   0.953   4.877  0.4853  0.8256  0.4822
 3855TIP3    H211530   0.876   1.042   4.977  0.4170  2.2169 -0.7806
 3856TIP3   OH211531   6.737   6.059   3.570 -0.2067 -0.3423 -0.7139
 3856TIP3    H111532   6.781   6.144   3.579 -0.3806 -0.3618  0.4504
 3856TIP3    H211533   6.678   6.071   3.495 -2.9087  1.8046  1.5492
 3857TIP3   OH211534   4.947   5.570   5.431 -0.3337  0.0218  0.5748
 3857TIP3    H111535   5.002   5.493   5.416  0.9613  0.7348  1.4016
 3857TIP3    H211536   4.886   5.543   5.499 -0.0626 -0.3720  0.6659
 3858TIP3   OH211537   6.086   2.992   2.423  0.1994 -0.0460 -0.8522
 3858TIP3    H111538   6.161   2.945   2.461 -0.5158 -0.1866  0.4324
 3858TIP3    H211539   6.010   2.960   2.472 -0.6750  0.3015 -1.9496
 3859TIP3   OH211540   5.855   6.256   3.282  0.2570  0.1500  0.0938
 3859TIP3    H111541   5.900   6.316   3.342  1.4857 -0.1503 -0.5004
 3859TIP3    H211542   5.762   6.276   3.294  0.6098  1.8102  0.2899
 3860TIP3   OH211543   0.326   1.491   2.683 -0.5154 -0.2743  0.3016
 3860TIP3    H111544   0.330   1.466   2.775  0.2208  0.0987  0.3800
 3860TIP3    H211545   0.417   1.489   2.654 -0.6762  0.2260 -0.2494
 3861TIP3   OH211546   4.755   2.343   3.583 -0.2331 -0.8003 -0.1690
 3861TIP3    H111547   4.735   2.259   3.625 -1.8673 -0.5746 -0.4461
 3861TIP3    H211548   4.692   2.404   3.621  0.7965  0.2666 -0.1395
 3862TIP3   OH211549   4.324   1.312   1.886 -0.0500  0.2285  0.4023
 3862TIP3    H111550   4.314   1.235   1.830  0.0115 -1.3861  2.4914
 3862TIP3    H211551   4.353   1.277   1.970  2.3334  2.7601  0.7908
 3863TIP3   OH211552   3.483   3.457   4.779 -0.2456  0.3554  0.1043
 3863TIP3    H111553   3.561   3.498   4.816 -1.2270  3.0420 -0.6104
 3863TIP3    H211554   3.517   3.388   4.722  1.4881  0.0529  1.4198
 3864TIP3   OH211555   6.960   1.879   2.667  0.0816 -0.3471  0.4242
 3864TIP3    H111556   6.963   1.935   2.589 -0.3428  0.5950  1.0562
 3864TIP3    H211557   6.986   1.793   2.636  2.4386  0.5263 -0.3018
 3865TIP3   OH211558   7.078   6.382   1.668 -0.0517 -0.1176 -0.0949
 3865TIP3    H111559   7.159   6.428   1.691  0.1310 -1.0006  1.0984
 3865TIP3    H211560   7.094   6.291   1.692 -1.8705 -0.0825  1.4917
 3866TIP3   OH211561   0.208   5.508   1.838  0.1970  0.3029  0.2246
 3866TIP3    H111562   0.185   5.586   1.888  1.3886  0.3705  0.7047
 3866TIP3    H211563   0.289   5.477   1.878  0.0611 -0.8442 -0.3445
 3867TIP3   OH211564   4.218   3.139   4.266 -0.1184  0.3695  0.2077
 3867TIP3    H111565   4.214   3.053   4.225  1.3144  0.3285  0.1029
 3867TIP3    H211566   4.177   3.126   4.352 -0.4196 -0.2738 -0.0232
 3868TIP3   OH211567   1.281   3.128   0.844 -0.2235 -0.0678  0.2227
 3868TIP3    H111568   1.229   3.140   0.924 -1.2733  1.5990 -0.6465
 3868TIP3    H211569   1.229   3.168   0.775  0.7653 -1.2685 -1.2896
 3869TIP3   OH211570   5.410   0.208   3.932  0.1106 -0.0925  0.0721
 3869TIP3    H111571   5.414   0.248   3.845  1.0607 -1.3479 -0.4956
 3869TIP3    H211572   5.335   0.250   3.975  0.6948  1.8305 -0.6893
 3870TIP3   OH211573   6.800   3.824   4.284  0.1126  0.1344 -0.3416
 3870TIP3    H111574   6.788   3.761   4.213  0.5027 -0.8895  0.4690
 3870TIP3    H211575   6.829   3.771   4.358  0.8960  1.3337  0.2456
 3871TIP3   OH211576   3.126   2.965   5.083  0.4774  0.0791  0.1774
 3871TIP3    H111577   3.139   3.060   5.074  1.9632 -0.0678  0.6449
 3871TIP3    H211578   3.033   2.957   5.104  0.2984  1.4301  0.0313
 3872TIP3   OH211579   4.419   4.753   0.324 -0.5581  0.6635  0.3414
 3872TIP3    H111580   4.349   4.817   0.338  0.2232  1.4681  0.6731
 3872TIP3    H211581   4.496   4.806   0.304  0.1417 -0.1729  0.7708
 3873TIP3   OH211582   6.150   2.466   1.968  0.5303  0.4019 -0.2062
 3873TIP3    H111583   6.106   2.449   1.884  1.1153 -3.0766  0.0570
 3873TIP3    H211584   6.084   2.448   2.034  0.8522  0.4157  0.1241
 3874TIP3   OH211585   6.415   6.462   0.748  0.3619 -0.6105 -0.0840
 3874TIP3    H111586   6.461   6.530   0.797 -1.5051  0.3851  0.3960
 3874TIP3    H211587   6.377   6.405   0.815 -1.3778  0.1843 -0.3486
 3875TIP3   OH211588   5.214   2.434   0.666 -0.0916  0.0470 -0.1638
 3875TIP3    H111589   5.128   2.459   0.633 -0.6088 -1.8753 -0.3842
 3875TIP3    H211590   5.250   2.515   0.704 -1.7545  0.9980 -0.5244
 3876TIP3   OH211591   2.422   1.473   4.826  0.4768  0.2771  0.2045
 3876TIP3    H111592   2.460   1.387   4.846  1.4181  0.4265 -0.8930
 3876TIP3    H211593   2.368   1.458   4.748  0.5783  0.6613  0.0570
 3877TIP3   OH211594   0.646   2.896   3.915 -0.0915 -0.0132  0.1642
 3877TIP3    H111595   0.653   2.932   4.003 -0.5569  0.9823 -0.1887
 3877TIP3    H211596   0.629   2.803   3.928  1.4990 -0.2133  1.0983
 3878TIP3   OH211597   7.127   2.068   4.461  0.1127  0.8668 -0.4561
 3878TIP3    H111598   7.068   2.064   4.386  0.0367  3.4356 -0.6219
 3878TIP3    H211599   7.183   2.144   4.443  0.5996  1.0931  1.7301
 3879TIP3   OH211600   2.268   1.817   0.664 -0.2963 -0.3515  0.4831
 3879TIP3    H111601   2.183   1.809   0.620  0.1412 -3.5781  0.0128
 3879TIP3    H211602   2.282   1.732   0.705  2.4898  0.2594  0.9954
 3880TIP3   OH211603   4.767   3.662   1.649 -0.0644  0.2853  0.0725
 3880TIP3    H111604   4.740   3.725   1.716  0.8938 -0.2602  1.0017
 3880TIP3    H211605   4.850   3.627   1.681  0.9094  0.6835 -1.8697
 3881TIP3   OH211606   3.659   1.429   3.249  0.4494 -0.1687  0.5308
 3881TIP3    H111607   3.616   1.360   3.199  0.3177  0.3679 -0.0952
 3881TIP3    H211608   3.710   1.382   3.315 -0.3651 -0.8333  0.6922
 3882TIP3   OH211609   1.372   5.500   1.792 -0.3838 -0.8777  0.1330
 3882TIP3    H111610   1.419   5.571   1.747 -2.2542 -0.2239 -0.9027
 3882TIP3    H211611   1.427   5.480   1.868  0.4043  1.4390  0.2747
 3883TIP3   OH211612   3.496   5.388   3.475 -0.5989 -0.3018 -0.3294
 3883TIP3    H111613   3.470   5.322   3.410 -1.3861 -0.2841 -0.0349
 3883TIP3    H211614   3.535   5.458   3.424  0.6180 -1.1490 -0.6269
 3884TIP3   OH211615   4.115   2.933   5.323 -0.5408  0.3477 -0.3498
 3884TIP3    H111616   4.149   2.844   5.329 -0.9103  0.2056 -0.2964
 3884TIP3    H211617   4.021   2.924   5.341 -0.4869  0.8223  0.1877
 3885TIP3   OH211618   5.522   6.439   5.528 -0.4359 -0.2575 -0.1678
 3885TIP3    H111619   5.609   6.458   5.494 -1.2664 -0.8361 -2.8563
 3885TIP3    H211620   5.484   6.524   5.546 -0.3460  0.1912 -1.9010
 3886TIP3   OH211621   5.548   1.249   4.797  0.0365  0.6977  0.0770
 3886TIP3    H111622   5.560   1.261   4.891 -0.6342 -1.0980  0.4354
 3886TIP3    H211623   5.636   1.256   4.761  0.7368 -1.2413  1.2241
 3887TIP3   OH211624   0.336   3.991   3.650 -0.8197  0.3574  0.0272
 3887TIP3    H111625   0.403   3.926   3.631 -0.7434  0.2596  0.6033
 3887TIP3    H211626   0.383   4.061   3.697 -0.9974  0.5877 -0.1327
 3888TIP3   OH211627   4.247   3.380   4.394  0.7468 -0.1430 -0.3604
 3888TIP3    H111628   4.287   3.354   4.477 -0.1017 -2.3541 -0.5860
 3888TIP3    H211629   4.238   3.299   4.345  2.2122  1.2375 -3.1392
 3889TIP3   OH211630   4.916   0.940   1.822 -0.1734  0.5402  0.1056
 3889TIP3    H111631   4.961   0.866   1.864 -0.0920  0.5019 -0.0499
 3889TIP3    H211632   4.823   0.921   1.836 -0.1508  0.4594  0.1535
 3890TIP3   OH211633   2.063   1.842   4.879 -0.0403 -0.0334 -0.1793
 3890TIP3    H111634   2.026   1.796   4.804 -0.5987 -0.7548  0.5293
 3890TIP3    H211635   2.116   1.776   4.924  2.6061  1.0606 -1.4224
 3891TIP3   OH211636   4.167   3.490   0.746  0.3296  0.2268 -0.3729
 3891TIP3    H111637   4.237   3.486   0.811  1.1087 -0.7276 -1.2478
 3891TIP3    H211638   4.200   3.551   0.680  0.5415 -0.5759 -1.0161
 3892TIP3   OH211639   2.007   4.078   0.287  0.0397  0.0583 -0.9735
 3892TIP3    H111640   1.966   4.002   0.246  1.4245  0.2080 -2.7405
 3892TIP3    H211641   1.953   4.096   0.364  0.3362 -3.4018  0.2045
 3893TIP3   OH211642   7.038   0.579   1.152  0.7632 -0.4982  0.1358
 3893TIP3    H111643   6.963   0.637   1.143 -0.0598 -1.7177 -1.0554
 3893TIP3    H211644   7.005   0.492   1.130  2.0272 -1.4231  1.6182
 3894TIP3   OH211645   3.184   2.627   2.521 -0.4995  0.2553 -0.1721
 3894TIP3    H111646   3.134   2.708   2.510  1.4310  1.7683  1.5034
 3894TIP3    H211647   3.242   2.645   2.595  1.1793 -2.0952 -0.8265
 3895TIP3   OH211648   6.099   0.903   4.494  0.1869 -0.1939 -0.0950
 3895TIP3    H111649   6.095   0.967   4.565 -2.0335 -0.7622  0.3577
 3895TIP3    H211650   6.151   0.831   4.529 -1.5269 -0.8183  1.3119
 3896TIP3   OH211651   4.843   5.328   2.655  0.4820  0.0632 -1.1609
 3896TIP3    H111652   4.883   5.401   2.701  0.0472 -0.9303  0.8830
 3896TIP3    H211653   4.895   5.252   2.680 -0.8948 -0.7881 -0.7867
 3897TIP3   OH211654   3.583   3.426   1.604  0.0786  0.0879  0.0491
 3897TIP3    H111655   3.610   3.515   1.583 -1.7758  0.5958 -0.4249
 3897TIP3    H211656   3.607   3.375   1.527  2.5082 -0.1948  0.9111
 3898TIP3   OH211657   6.818   4.997   0.958  0.5614 -0.4325 -0.0366
 3898TIP3    H111658   6.835   5.090   0.943  3.0124 -0.8304 -0.1819
 3898TIP3    H211659   6.853   4.980   1.046  1.3833 -1.4637 -0.5381
 3899TIP3   OH211660   3.940   5.010   1.241  0.0912 -0.1088 -0.3816
 3899TIP3    H111661   4.035   5.013   1.241  0.0991  2.6532 -1.5857
 3899TIP3    H211662   3.918   4.935   1.187  1.4788 -2.5018  2.1502
 3900TIP3   OH211663   5.414   5.249   4.218  0.1210  1.0366 -0.4546
 3900TIP3    H111664   5.473   5.191   4.169  0.1105  1.0942 -0.5361
 3900TIP3    H211665   5.355   5.284   4.152 -1.1754 -0.4045 -0.1179
 3901TIP3   OH211666   7.022   5.778   0.122 -0.6416  0.3376  0.3028
 3901TIP3    H111667   7.090   5.840   0.147  0.1022 -0.5895  0.6063
 3901TIP3    H211668   6.943   5.810   0.167  0.4267 -0.7076  3.1384
 3902TIP3   OH211669   6.419   3.825   2.495 -0.1863  0.1165  0.0037
 3902TIP3    H111670   6.354   3.894   2.482  0.3864  0.5382 -0.7166
 3902TIP3    H211671   6.489   3.846   2.432  0.5215 -0.4716  0.5751
 3903TIP3   OH211672   2.841   1.136   4.273  1.1422  0.0341 -0.2273
 3903TIP3    H111673   2.749   1.133   4.245  0.9989 -0.9612  0.2949
 3903TIP3    H211674   2.890   1.098   4.200  1.2643  1.4731 -0.9197
 3904TIP3   OH211675   3.632   0.955   2.824 -0.0403 -0.0673 -0.1495
 3904TIP3    H111676   3.664   1.003   2.901 -1.4971  0.9226 -0.1071
 3904TIP3    H211677   3.555   0.908   2.856 -1.4673  1.4094 -1.2312
 3905TIP3   OH211678   1.403   3.643   4.593  0.3383  0.1999 -0.2256
 3905TIP3    H111679   1.360   3.704   4.654 -0.5789 -0.4042 -0.2538
 3905TIP3    H211680   1.394   3.685   4.507  1.5888  1.0282  0.0166
 3906TIP3   OH211681   1.628   5.360   0.427 -0.2565  0.5664  0.1771
 3906TIP3    H111682   1.540   5.358   0.465 -0.9487  0.4917 -1.3822
 3906TIP3    H211683   1.630   5.287   0.365  0.8504  0.6832  0.0459
 3907TIP3   OH211684   4.295   2.158   5.343 -0.0719  0.4098  0.4843
 3907TIP3    H111685   4.269   2.080   5.293 -0.3411  0.7646  0.0595
 3907TIP3    H211686   4.247   2.230   5.301  0.4499  0.8560  0.6473
 3908TIP3   OH211687   7.146   1.962   3.066  0.3658  0.0075  0.6719
 3908TIP3    H111688   7.097   2.035   3.029  1.8135  0.3448 -0.7033
 3908TIP3    H211689   7.233   1.997   3.083  0.4498 -0.8234  2.1534
 3909TIP3   OH211690   2.683   2.541   0.259  0.2176  0.4740  0.5857
 3909TIP3    H111691   2.624   2.481   0.304 -1.5663  1.0699 -0.8509
 3909TIP3    H211692   2.691   2.615   0.320 -1.5552  0.9375  0.3155
 3910TIP3   OH211693   0.190   3.649   1.028 -0.3233  0.6159 -0.0155
 3910TIP3    H111694   0.273   3.613   1.058 -0.9496 -1.8946 -1.0972
 3910TIP3    H211695   0.151   3.580   0.975 -3.2547  1.5983  0.6734
 3911TIP3   OH211696   3.281   0.971   4.975 -0.2863  0.0527 -0.2259
 3911TIP3    H111697   3.289   0.876   4.967  0.6658  0.2477 -2.2697
 3911TIP3    H211698   3.241   0.999   4.892 -0.6544  1.4271  0.3866
 3912TIP3   OH211699   4.571   0.170   3.342  0.7053 -0.4242  0.3270
 3912TIP3    H111700   4.554   0.257   3.378  0.5610  0.1975 -1.1632
 3912TIP3    H211701   4.640   0.184   3.278 -0.1712 -1.1602 -0.8213
 3913TIP3   OH211702   0.827   2.447   4.497 -0.4587  0.1063 -0.5241
 3913TIP3    H111703   0.868   2.395   4.565  1.2164  0.7420 -0.9840
 3913TIP3    H211704   0.781   2.516   4.543 -0.2239 -0.0814 -0.0070
 3914TIP3   OH211705   0.471   0.380   4.431 -0.4087  0.5450  0.1000
 3914TIP3    H111706   0.539   0.359   4.495 -0.1600  0.7651 -0.0885
 3914TIP3    H211707   0.509   0.356   4.346 -0.8809 -0.0985  0.0674
 3915TIP3   OH211708   6.963   6.544   5.046 -0.9165  0.2695 -0.1387
 3915TIP3    H111709   6.921   6.630   5.050 -2.2644 -0.3746  0.0364
 3915TIP3    H211710   6.950   6.507   5.133 -0.7331 -0.2827 -0.3453
 3916TIP3   OH211711   3.534   5.398   3.096 -0.0214 -0.0583  0.7967
 3916TIP3    H111712   3.508   5.306   3.098  1.5323 -0.5252  1.4434
 3916TIP3    H211713   3.602   5.405   3.164  1.9677  0.8910 -1.1561
 3917TIP3   OH211714   1.095   2.032   1.178  0.1640  0.2831 -0.1710
 3917TIP3    H111715   1.087   2.088   1.101 -0.7911  0.0323 -0.2660
 3917TIP3    H211716   1.084   1.943   1.145  0.5736  0.1139  0.1395
 3918TIP3   OH211717   6.987   4.282   1.473 -0.1146  0.0719 -0.0707
 3918TIP3    H111718   7.034   4.319   1.547 -0.2147  0.7824 -0.3510
 3918TIP3    H211719   7.041   4.301   1.397 -1.3163  1.8543 -0.5406
 3919TIP3   OH211720   6.610   2.324   5.762 -0.2218  0.7049  0.7578
 3919TIP3    H111721   6.640   2.415   5.764  1.2215  0.3328 -0.8385
 3919TIP3    H211722   6.530   2.323   5.814  0.3385  2.6510  1.7378
 3920TIP3   OH211723   4.843   4.018   3.739  0.0267 -0.6917 -0.2323
 3920TIP3    H111724   4.844   4.047   3.648 -2.0785  2.0794  0.4986
 3920TIP3    H211725   4.763   4.055   3.776  1.1220 -1.1553  2.9394
 3921TIP3   OH211726   2.086   2.456   0.596 -0.4280  0.0969 -0.0733
 3921TIP3    H111727   2.022   2.430   0.530 -1.8541  2.6098  0.1649
 3921TIP3    H211728   2.096   2.551   0.583  2.5275 -0.0423  0.5773
 3922TIP3   OH211729   0.696   2.695   5.035  0.6280  0.6236 -0.0437
 3922TIP3    H111730   0.753   2.754   5.085  1.9341  0.3699 -1.1645
 3922TIP3    H211731   0.734   2.694   4.948 -0.4531 -0.4665 -0.5293
 3923TIP3   OH211732   1.853   4.382   4.619  0.3924 -0.8259 -0.1384
 3923TIP3    H111733   1.794   4.341   4.556 -1.4056  3.1848 -1.4225
 3923TIP3    H211734   1.921   4.423   4.565  1.9743 -1.7494  1.0452
 3924TIP3   OH211735   2.395   0.076   5.164  0.0775  0.0826 -0.3592
 3924TIP3    H111736   2.397   0.014   5.237  1.2579 -1.2273 -1.4236
 3924TIP3    H211737   2.334   0.144   5.191 -1.2168 -1.4973  0.9303
 3925TIP3   OH211738   5.247   5.273   2.520 -0.0745 -0.3233  0.0071
 3925TIP3    H111739   5.259   5.290   2.613 -1.5586  0.4044  0.1032
 3925TIP3    H211740   5.335   5.264   2.485  0.5379  0.4225  1.3032
 3926TIP3   OH211741   3.528   4.044   4.137 -0.2976 -0.2598 -0.4133
 3926TIP3    H111742   3.446   3.995   4.126 -1.2898  1.1055  0.4142
 3926TIP3    H211743   3.506   4.133   4.108  0.5375  0.4040  0.8799
 3927TIP3   OH211744   5.060   4.537   0.972 -0.4104 -0.2124  0.3876
 3927TIP3    H111745   5.104   4.618   0.944  1.6439 -0.6301  2.1381
 3927TIP3    H211746   4.977   4.567   1.009  1.7776  1.7217  4.3603
 3928TIP3   OH211747   1.894   3.426   3.178  0.2295 -0.4581  0.4974
 3928TIP3    H111748   1.801   3.446   3.187  0.3210 -0.3329  1.2188
 3928TIP3    H211749   1.913   3.365   3.249  0.7529 -0.2926  0.5058
 3929TIP3   OH211750   3.867   3.894   3.003  0.1045 -0.2765  0.2067
 3929TIP3    H111751   3.848   3.956   3.074  0.1076 -0.8601  0.7238
 3929TIP3    H211752   3.918   3.825   3.045 -3.6405 -3.0099  0.7522
 3930TIP3   OH211753   2.226   4.257   5.080  0.5744 -0.0117 -0.2088
 3930TIP3    H111754   2.243   4.195   5.009 -1.0228 -1.1604  0.3678
 3930TIP3    H211755   2.229   4.343   5.038  0.9195 -0.5823 -1.3982
 3931TIP3   OH211756   1.686   5.560   4.882 -0.0348 -0.3694  0.2421
 3931TIP3    H111757   1.611   5.546   4.940 -0.4813 -0.1119 -0.2711
 3931TIP3    H211758   1.727   5.474   4.875 -0.9121 -0.7503 -0.3388
 3932TIP3   OH211759   7.211   3.620   1.425  0.1947 -0.0982 -0.2729
 3932TIP3    H111760   7.183   3.660   1.343 -0.4411  0.3190  0.1425
 3932TIP3    H211761   7.141   3.558   1.447  0.2979 -0.1119  0.0244
 3933TIP3   OH211762   5.604   0.691   0.110  0.2515 -0.2091  0.3607
 3933TIP3    H111763   5.518   0.674   0.074  0.1887 -1.0349  0.8845
 3933TIP3    H211764   5.594   0.772   0.160 -0.3711 -0.6037  0.8930
 3934TIP3   OH211765   2.988   5.756   2.462  0.2180 -0.3007  0.2988
 3934TIP3    H111766   3.083   5.756   2.462  0.3372  2.9629  1.7117
 3934TIP3    H211767   2.964   5.793   2.377  0.1503 -1.2737 -0.1240
 3935TIP3   OH211768   0.358   1.746   1.884  0.3192  0.1720 -0.1735
 3935TIP3    H111769   0.439   1.796   1.873  1.6325 -1.3663  1.8919
 3935TIP3    H211770   0.353   1.728   1.977 -1.9487 -0.6158 -0.3777
 3936TIP3   OH211771   6.858   3.163   3.074 -0.1179  0.1756  0.0484
 3936TIP3    H111772   6.788   3.219   3.042 -1.0916 -0.5509  0.8798
 3936TIP3    H211773   6.914   3.221   3.125 -0.5563  0.5881  0.0634
 3937TIP3   OH211774   1.730   6.534   0.789  0.1591  0.1561  0.0807
 3937TIP3    H111775   1.773   6.617   0.769 -0.1757  0.4979  0.7291
 3937TIP3    H211776   1.773   6.470   0.732 -0.5170  0.9981 -1.4289
 3938TIP3   OH211777   6.022   6.132   5.437 -0.3315  0.0825  0.1038
 3938TIP3    H111778   6.028   6.227   5.450  1.2753 -0.2868  2.8573
 3938TIP3    H211779   5.934   6.118   5.403 -0.4803  2.5766 -0.7448
 3939TIP3   OH211780   0.639   5.686   2.662  0.1227  0.3781 -0.3981
 3939TIP3    H111781   0.714   5.741   2.686  1.7033 -1.7146 -0.2131
 3939TIP3    H211782   0.573   5.705   2.729  1.5163  0.3338  1.0559
 3940TIP3   OH211783   0.800   3.282   2.128 -0.1951 -0.0198  0.0827
 3940TIP3    H111784   0.796   3.351   2.193  0.8474 -0.1609  0.3254
 3940TIP3    H211785   0.799   3.201   2.179 -0.3164 -0.1575 -0.1349
 3941TIP3   OH211786   6.411   3.024   0.656 -0.2454  0.3789 -0.1867
 3941TIP3    H111787   6.414   2.988   0.744 -2.0254  0.7666  0.0732
 3941TIP3    H211788   6.447   2.955   0.600  1.3831  0.3248  0.8655
 3942TIP3   OH211789   4.541   6.238   5.800 -0.1165  0.0280  0.2346
 3942TIP3    H111790   4.581   6.252   5.886  1.5234 -1.6835 -0.1621
 3942TIP3    H211791   4.547   6.323   5.757  1.9270  0.2081  0.7343
 3943TIP3   OH211792   7.188   2.082   4.790 -0.0787  0.2147 -0.1478
 3943TIP3    H111793   7.109   2.037   4.762 -0.6177  0.5282  0.8470
 3943TIP3    H211794   7.160   2.172   4.808  0.2091 -0.0041  1.5179
 3944TIP3   OH211795   7.049   2.304   2.598 -0.3134  0.1940 -0.0878
 3944TIP3    H111796   7.014   2.331   2.513 -3.1334 -0.5300  0.7063
 3944TIP3    H211797   7.056   2.385   2.648  1.1924  0.6029 -0.9049
 3945TIP3   OH211798   7.011   1.502   0.786 -0.4717  0.6467  0.1446
 3945TIP3    H111799   7.083   1.492   0.723  0.5134 -0.8064  1.4190
 3945TIP3    H211800   7.053   1.541   0.863 -0.7933 -1.1233  1.2616
 3946TIP3   OH211801   6.473   4.794   1.878  0.0804 -0.5911 -0.2169
 3946TIP3    H111802   6.422   4.714   1.889  0.6518 -0.8961  0.2986
 3946TIP3    H211803   6.539   4.771   1.813  0.4633 -0.6547  0.1872
 3947TIP3   OH211804   6.907   4.221   2.511 -0.3838 -0.4366  0.9692
 3947TIP3    H111805   6.813   4.233   2.498 -0.3419 -0.2370  0.8405
 3947TIP3    H211806   6.922   4.128   2.494 -0.8784 -0.9415  2.9585
 3948TIP3   OH211807   6.459   2.475   3.705  0.5271  0.2237 -0.0612
 3948TIP3    H111808   6.494   2.563   3.724  1.0551  0.4603 -1.9574
 3948TIP3    H211809   6.414   2.450   3.786 -2.0681  3.3946 -0.3091
 3949TIP3   OH211810   1.149   1.414   5.836  0.1000  0.2281  0.1810
 3949TIP3    H111811   1.145   1.416   5.740 -4.9470  0.4700  0.1596
 3949TIP3    H211812   1.164   1.322   5.857 -0.6716 -0.1648 -0.9044
 3950TIP3   OH211813   2.262   0.483   1.230  0.4181 -0.3609  0.4501
 3950TIP3    H111814   2.200   0.540   1.276  0.0081  0.1075 -0.6399
 3950TIP3    H211815   2.322   0.543   1.186 -1.0723 -0.6163 -2.1688
 3951TIP3   OH211816   1.008   6.234   4.424  0.2857 -0.1403  0.3811
 3951TIP3    H111817   0.927   6.183   4.416  1.6492 -2.2042 -1.7939
 3951TIP3    H211818   1.034   6.224   4.515 -0.3293 -2.0819  0.3861
 3952TIP3   OH211819   2.403   6.651   2.859 -0.0791  0.3813  0.3035
 3952TIP3    H111820   2.452   6.617   2.935 -0.0973  0.9247  0.5663
 3952TIP3    H211821   2.344   6.580   2.834  0.2265  0.0438  0.5384
 3953TIP3   OH211822   5.525   3.446   5.851  0.3920 -0.2590  0.0204
 3953TIP3    H111823   5.430   3.439   5.854  0.4379 -0.7568  1.1258
 3953TIP3    H211824   5.556   3.362   5.884  1.2584 -0.7982 -2.0405
 3954TIP3   OH211825   6.700   3.939   1.122 -0.1206 -0.5875 -0.2504
 3954TIP3    H111826   6.747   3.996   1.182  1.1823  0.0043 -1.7519
 3954TIP3    H211827   6.623   3.909   1.171  2.0807 -2.1076  2.5423
 3955TIP3   OH211828   6.754   5.017   2.130  0.7195  0.1511  0.2038
 3955TIP3    H111829   6.717   5.102   2.105 -1.2326 -1.2523 -2.1608
 3955TIP3    H211830   6.749   4.965   2.050 -0.0909 -2.8066  2.0392
 3956TIP3   OH211831   2.775   0.100   3.962 -0.1623  0.1888  0.7582
 3956TIP3    H111832   2.740   0.185   3.985  0.2519  0.8141 -0.8000
 3956TIP3    H211833   2.801   0.108   3.870 -1.0919 -1.9351  0.2404
 3957TIP3   OH211834   1.348   6.548   3.668  0.3476 -0.5040  0.4048
 3957TIP3    H111835   1.351   6.484   3.739 -0.8254  1.4461  2.3217
 3957TIP3    H211836   1.434   6.541   3.626  0.5245 -2.7473  1.0441
 3958TIP3   OH211837   3.694   3.782   5.735 -0.0915  0.8837  0.1081
 3958TIP3    H111838   3.691   3.849   5.803  0.3059  0.9139  0.0999
 3958TIP3    H211839   3.721   3.829   5.656  0.0623  0.7411  0.0736
 3959TIP3   OH211840   0.948   5.492   2.337 -0.6310  0.3523 -0.2435
 3959TIP3    H111841   0.934   5.522   2.426  3.0493  0.3921  0.4625
 3959TIP3    H211842   0.961   5.573   2.286  2.1077  0.2747  0.2288
 3960TIP3   OH211843   2.808   6.453   1.415  0.5511  0.4129 -0.1123
 3960TIP3    H111844   2.811   6.391   1.487 -2.0363 -0.1416 -0.3841
 3960TIP3    H211845   2.806   6.399   1.336 -0.6248  0.8312 -0.3992
 3961TIP3   OH211846   1.243   5.277   2.439 -0.0548 -0.2488  0.4008
 3961TIP3    H111847   1.196   5.249   2.517 -0.4832  0.3916  0.3774
 3961TIP3    H211848   1.186   5.250   2.366  0.4130 -0.9798  0.2943
 3962TIP3   OH211849   1.404   4.338   1.004  0.1271 -0.3944  0.3329
 3962TIP3    H111850   1.433   4.247   1.001 -0.2732 -0.5882  1.9149
 3962TIP3    H211851   1.327   4.340   0.947  1.2411 -0.5947 -1.2420
 3963TIP3   OH211852   3.046   2.066   3.288  0.4833 -0.0632 -0.0944
 3963TIP3    H111853   3.082   1.980   3.268  0.1646 -0.1564 -0.2617
 3963TIP3    H211854   2.967   2.073   3.234  0.5050  0.3306 -0.0795
 3964TIP3   OH211855   4.059   5.849   3.346  0.4773 -0.5733 -0.1165
 3964TIP3    H111856   4.060   5.943   3.332  0.3360 -0.5935 -0.2577
 3964TIP3    H211857   3.974   5.831   3.386 -0.3866 -0.9233 -2.0235
 3965TIP3   OH211858   0.176   5.684   3.889  0.4169 -0.2814 -0.6742
 3965TIP3    H111859   0.136   5.745   3.951 -0.7686 -1.4978 -0.1888
 3965TIP3    H211860   0.159   5.722   3.803 -0.3634  0.0439 -0.3827
 3966TIP3   OH211861   6.204   6.437   2.390  0.3068  0.2579 -0.2157
 3966TIP3    H111862   6.209   6.342   2.393 -1.4370  0.0153 -2.2673
 3966TIP3    H211863   6.119   6.458   2.429  0.1594  0.8473 -0.8174
 3967TIP3   OH211864   6.382   2.402   0.762 -0.9133  0.1247 -0.2951
 3967TIP3    H111865   6.319   2.410   0.690 -1.6184 -0.3328  0.2557
 3967TIP3    H211866   6.461   2.366   0.721 -1.4443 -0.5238 -0.7720
 3968TIP3   OH211867   6.828   5.639   0.680  0.1617 -0.0373 -0.4789
 3968TIP3    H111868   6.833   5.588   0.761  1.6970 -1.1911 -1.2516
 3968TIP3    H211869   6.749   5.607   0.637 -0.7198  0.6455  0.5730
 3969TIP3   OH211870   0.718   3.779   5.240 -0.0908  0.1761 -0.3223
 3969TIP3    H111871   0.811   3.788   5.220 -0.4515  1.8482 -1.4225
 3969TIP3    H211872   0.698   3.687   5.221  2.4003 -1.9039  4.9092
 3970TIP3   OH211873   2.488   0.287   1.599  0.1074 -0.7099  0.2025
 3970TIP3    H111874   2.478   0.205   1.648  0.5312 -0.8671  0.0283
 3970TIP3    H211875   2.404   0.331   1.609 -0.0302 -1.0417  0.5272
 3971TIP3   OH211876   2.701   4.163   1.586  0.1812  0.4041  0.0557
 3971TIP3    H111877   2.651   4.082   1.575 -0.4373  0.9864 -1.7001
 3971TIP3    H211878   2.766   4.161   1.517  1.0150  0.8287  0.8072
 3972TIP3   OH211879   1.501   2.849   2.189 -0.0742 -0.4268 -0.3931
 3972TIP3    H111880   1.596   2.854   2.203 -0.3703  1.0975  1.5232
 3972TIP3    H211881   1.463   2.863   2.276 -2.0748 -1.7463 -0.9878
 3973TIP3   OH211882   0.378   6.134   3.094 -0.8479 -0.3028 -0.6440
 3973TIP3    H111883   0.436   6.165   3.025  1.7453 -2.6884  0.2717
 3973TIP3    H211884   0.418   6.165   3.175 -0.4268 -2.4413  0.0386
 3974TIP3   OH211885   1.919   3.890   1.101  0.2712 -0.4729  0.6420
 3974TIP3    H111886   1.960   3.912   1.185  0.4272 -0.4179  0.5515
 3974TIP3    H211887   1.966   3.943   1.037 -0.1039 -0.2267  0.5664
 3975TIP3   OH211888   5.220   6.128   4.921  0.1591  0.4131 -0.0031
 3975TIP3    H111889   5.172   6.105   4.842 -0.7301  0.1273  0.6157
 3975TIP3    H211890   5.200   6.221   4.936  0.9032  0.6680 -0.4987
 3976TIP3   OH211891   3.629   5.200   1.617  0.1888  1.0090  0.3918
 3976TIP3    H111892   3.675   5.140   1.559  0.4045  2.2397 -0.7576
 3976TIP3    H211893   3.676   5.194   1.700  1.0806  0.6579 -0.1279
 3977TIP3   OH211894   4.512   5.155   1.728  0.0398  0.3892 -0.1992
 3977TIP3    H111895   4.540   5.243   1.703  0.4829  0.5276  0.7491
 3977TIP3    H211896   4.419   5.165   1.748 -0.2994  0.2988 -1.6250
 3978TIP3   OH211897   0.752   0.782   1.391 -0.5008  0.2361 -0.4649
 3978TIP3    H111898   0.777   0.858   1.444  0.2602  0.8447 -1.6423
 3978TIP3    H211899   0.678   0.813   1.339 -1.4615 -0.4611  0.4260
 3979TIP3   OH211900   5.182   4.269   4.184 -0.1425  0.2876 -0.1973
 3979TIP3    H111901   5.151   4.357   4.201 -0.9427 -0.2582  1.4060
 3979TIP3    H211902   5.105   4.213   4.193  1.0396 -1.0482  3.3820
 3980TIP3   OH211903   4.472   6.006   2.274  0.8413  0.1033  0.0765
 3980TIP3    H111904   4.400   6.058   2.238  1.4264 -0.8280 -2.6714
 3980TIP3    H211905   4.431   5.929   2.311  0.2510  0.8794  1.0996
 3981TIP3   OH211906   5.175   1.947   3.724  0.3577  0.2321  0.0068
 3981TIP3    H111907   5.114   2.021   3.717  0.2034  0.0285 -0.9403
 3981TIP3    H211908   5.212   1.939   3.636  1.8798  0.4598  0.6034
 3982TIP3   OH211909   6.810   3.443   3.557 -0.3875 -0.6317  0.0156
 3982TIP3    H111910   6.890   3.460   3.607 -0.6534  1.4429 -0.1590
 3982TIP3    H211911   6.746   3.504   3.593 -2.1287 -2.6405  0.5544
 3983TIP3   OH211912   5.034   5.556   4.275 -0.0036 -0.0616  0.0188
 3983TIP3    H111913   5.098   5.540   4.206  1.3976  0.5919  1.1130
 3983TIP3    H211914   5.019   5.470   4.314 -1.3594 -0.5680 -1.5034
 3984TIP3   OH211915   4.065   2.801   5.063 -0.0642  0.4212  0.4849
 3984TIP3    H111916   4.127   2.814   4.992 -0.3500 -0.0185  0.1470
 3984TIP3    H211917   4.116   2.763   5.134  0.1747  0.6479  0.4359
 3985TIP3   OH211918   7.121   2.293   1.898 -0.0975 -0.4328 -0.3612
 3985TIP3    H111919   7.146   2.348   1.824 -0.3923 -0.2662 -0.3383
 3985TIP3    H211920   7.097   2.209   1.859  2.6295 -1.3670 -0.2185
 3986TIP3   OH211921   2.503   4.378   4.319 -0.7697 -0.5450 -0.3616
 3986TIP3    H111922   2.454   4.395   4.238  0.3164  1.8275 -0.6343
 3986TIP3    H211923   2.555   4.301   4.300 -0.9952 -0.3861 -1.7334
 3987TIP3   OH211924   1.269   4.860   3.297 -0.5882  0.2694 -0.1583
 3987TIP3    H111925   1.186   4.815   3.284 -0.1571 -0.6042  0.0388
 3987TIP3    H211926   1.317   4.844   3.216  0.0283 -0.6627  0.3698
 3988TIP3   OH211927   7.176   1.461   2.898  0.1426 -0.7127  0.0162
 3988TIP3    H111928   7.266   1.428   2.897  0.6607  0.6559 -0.4715
 3988TIP3    H211929   7.184   1.555   2.888 -1.4000 -0.7013 -1.7471
 3989TIP3   OH211930   0.535   4.915   4.112  0.0371 -0.8770 -0.3674
 3989TIP3    H111931   0.504   5.005   4.119 -0.1007 -0.9075 -0.5731
 3989TIP3    H211932   0.455   4.862   4.110  0.1261 -1.1454  1.5747
 3990TIP3   OH211933   3.686   5.929   0.608  0.0967  0.0893  0.3779
 3990TIP3    H111934   3.714   5.866   0.674 -0.5859 -0.9348 -0.2695
 3990TIP3    H211935   3.620   5.882   0.557 -1.7979  1.9466  0.9882
 3991TIP3   OH211936   5.862   0.537   1.787  0.3006 -0.1651  0.4046
 3991TIP3    H111937   5.775   0.549   1.825  0.4460  0.8865  0.4552
 3991TIP3    H211938   5.885   0.624   1.754  1.5496 -0.3076  0.8627
 3992TIP3   OH211939   5.734   3.802   4.654  0.4213  0.4873 -0.7714
 3992TIP3    H111940   5.782   3.842   4.582  0.4723 -0.4407 -1.2660
 3992TIP3    H211941   5.654   3.854   4.661 -0.0116  0.0487 -2.0999
 3993TIP3   OH211942   0.272   6.342   2.073  0.2858 -0.2981 -0.2236
 3993TIP3    H111943   0.338   6.393   2.120  1.0532 -0.3975 -1.1556
 3993TIP3    H211944   0.241   6.279   2.138  2.7579 -1.7571 -0.3016
 3994TIP3   OH211945   3.527   1.756   5.264  0.1237 -0.0577  0.2796
 3994TIP3    H111946   3.569   1.804   5.193  3.6228 -2.7222  0.2945
 3994TIP3    H211947   3.505   1.671   5.227 -0.8396 -0.4245  1.6101
 3995TIP3   OH211948   3.881   3.488   1.262  0.0535  0.3002 -0.0036
 3995TIP3    H111949   3.840   3.570   1.236 -2.2483 -1.4085 -2.3671
 3995TIP3    H211950   3.926   3.457   1.183  1.3211 -0.4713  0.9816
 3996TIP3   OH211951   3.256   3.469   5.059 -0.4298 -0.3279 -0.1773
 3996TIP3    H111952   3.291   3.549   5.098  0.0310 -0.7496  0.2882
 3996TIP3    H211953   3.271   3.479   4.965 -2.1989  1.0136 -0.3671
 3997TIP3   OH211954   4.501   1.586   0.766  0.2984  0.0342  0.1310
 3997TIP3    H111955   4.589   1.548   0.756 -0.0906 -1.6774  2.4479
 3997TIP3    H211956   4.515   1.680   0.760  2.2464 -0.2085  0.0920
 3998TIP3   OH211957   0.337   3.544   1.760 -0.1378  0.1688 -0.0992
 3998TIP3    H111958   0.429   3.539   1.736  0.2241  1.9200  0.8195
 3998TIP3    H211959   0.291   3.538   1.676  0.8250  0.0465 -0.6342
 3999TIP3   OH211960   0.902   3.068   4.938  0.7604 -0.3910 -0.3505
 3999TIP3    H111961   0.888   3.105   5.025  0.7328 -2.2114  0.4660
 3999TIP3    H211962   0.996   3.050   4.934  0.7570 -0.3364 -0.6782
 4000TIP3   OH211963   1.495   1.952   5.528  0.3009  0.6304  0.1971
 4000TIP3    H111964   1.567   2.014   5.523  0.9247 -0.1565 -1.3516
 4000TIP3    H211965   1.534   1.867   5.504 -0.9414  0.0213  0.2279
 4001TIP3   OH211966   5.304   1.953   1.084 -0.0505 -0.2961  0.4985
 4001TIP3    H111967   5.285   2.029   1.139  1.0815  0.8056 -0.5582
 4001TIP3    H211968   5.220   1.910   1.072 -0.9493  1.4469  0.2142
 4002TIP3   OH211969   4.176   5.438   3.151 -0.3799 -0.0231  0.4973
 4002TIP3    H111970   4.196   5.398   3.067  0.8062 -1.5190  1.4487
 4002TIP3    H211971   4.176   5.532   3.133  0.3350 -0.2889 -1.0704
 4003TIP3   OH211972   3.558   0.302   4.185 -0.3709  0.1751  0.0208
 4003TIP3    H111973   3.571   0.207   4.177  0.5483  0.1327  1.5834
 4003TIP3    H211974   3.463   0.313   4.189 -0.4789 -0.9223  1.8889
 4004TIP3   OH211975   2.383   5.444   3.419 -0.5670 -0.2941  0.3738
 4004TIP3    H111976   2.461   5.487   3.453  0.6619 -3.5762  2.1254
 4004TIP3    H211977   2.401   5.350   3.428 -2.8086 -1.3471 -3.5967
 4005TIP3   OH211978   2.280   1.088   4.447  0.3169  0.2842  0.4322
 4005TIP3    H111979   2.256   1.169   4.401 -1.0246 -0.2968  0.0651
 4005TIP3    H211980   2.230   1.091   4.528 -2.4516 -1.6615 -1.0147
 4006TIP3   OH211981   4.892   2.597   3.842  0.2817  0.0400 -0.0728
 4006TIP3    H111982   4.831   2.545   3.790 -1.2580  0.2330  1.4203
 4006TIP3    H211983   4.896   2.552   3.926  1.2276  0.7315  0.2672
 4007TIP3   OH211984   3.417   3.259   3.064 -0.4591 -0.0210  0.5401
 4007TIP3    H111985   3.441   3.332   3.006  2.1148 -0.9836  0.2774
 4007TIP3    H211986   3.415   3.183   3.006  0.4596 -0.7259  1.4163
 4008TIP3   OH211987   4.121   4.159   5.622  0.0029 -0.3673 -0.1429
 4008TIP3    H111988   4.046   4.177   5.678 -1.9381 -0.7551 -2.4916
 4008TIP3    H211989   4.143   4.244   5.583  0.0637 -0.4684 -0.3285
 4009TIP3   OH211990   4.544   0.441   4.229 -0.1421  0.0338 -0.1660
 4009TIP3    H111991   4.550   0.473   4.319 -0.2678  0.7898 -0.4240
 4009TIP3    H211992   4.461   0.394   4.226  1.0163 -2.2111  0.7978
 4010TIP3   OH211993   4.586   0.271   2.530  0.3621  0.0248 -0.0697
 4010TIP3    H111994   4.604   0.198   2.471 -1.0067 -0.1032 -0.3615
 4010TIP3    H211995   4.545   0.337   2.474 -1.6441 -0.3879  0.8348
 4011TIP3   OH211996   6.780   5.776   2.525 -0.2623  0.3992 -0.4319
 4011TIP3    H111997   6.744   5.849   2.473  1.2382  1.0633 -0.5810
 4011TIP3    H211998   6.858   5.813   2.567 -0.9270 -0.3879  1.6058
 4012TIP3   OH211999   5.841   3.897   2.273  0.5538  0.4592 -0.3478
 4012TIP3    H112000   5.785   3.911   2.350  0.4552 -1.1008 -0.1022
 4012TIP3    H212001   5.904   3.969   2.276  1.6531 -0.5186  2.1915
 4013TIP3   OH212002   0.561   0.591   2.705  0.0081  0.1876  0.2634
 4013TIP3    H112003   0.627   0.524   2.723 -2.0240 -1.2517  3.1231
 4013TIP3    H212004   0.584   0.664   2.763 -0.0212  0.3282  0.0992
 4014TIP3   OH212005   4.278   2.743   1.909  0.3325  0.1594  0.4188
 4014TIP3    H112006   4.261   2.786   1.826 -1.1756 -0.5967  0.3056
 4014TIP3    H212007   4.316   2.812   1.964  0.2377  0.9786 -0.5058
 4015TIP3   OH212008   0.214   4.947   5.748 -0.7961  0.2301  0.2643
 4015TIP3    H112009   0.258   4.884   5.691 -0.7977  0.1050  0.3991
 4015TIP3    H212010   0.153   4.993   5.690  0.0861  0.9701 -0.0937
 4016TIP3   OH212011   6.604   3.060   4.124  0.2033  0.4611  0.1569
 4016TIP3    H112012   6.564   3.028   4.043 -1.6943 -1.1795  1.6361
 4016TIP3    H212013   6.529   3.085   4.179  1.4553  1.9621  1.2846
 4017TIP3   OH212014   4.967   6.804   0.523 -0.4055  0.3916  0.6443
 4017TIP3    H112015   4.881   6.846   0.522 -0.8705 -0.2958  3.3584
 4017TIP3    H212016   4.954   6.721   0.477 -1.0803  0.4902  0.6506
 4018TIP3   OH212017   6.761   4.699   1.819  0.2938  0.5019 -0.1729
 4018TIP3    H112018   6.719   4.618   1.847 -2.7172  1.8170 -0.4745
 4018TIP3    H212019   6.754   4.699   1.723  1.5672  0.4894 -0.2781
 4019TIP3   OH212020   0.416   3.207   3.822  0.3956 -0.0267 -0.5178
 4019TIP3    H112021   0.326   3.180   3.841  0.3463  0.8731  0.6609
 4019TIP3    H212022   0.409   3.300   3.799  1.2538  0.7649  2.0916
 4020TIP3   OH212023   2.161   6.451   1.919 -1.0120 -0.3508  0.4753
 4020TIP3    H112024   2.222   6.384   1.888 -1.2563 -0.5225  0.3599
 4020TIP3    H212025   2.214   6.530   1.928 -1.3154  0.2858 -2.4367
 4021TIP3   OH212026   3.765   5.243   1.229  0.0473  0.6134  0.0130
 4021TIP3    H112027   3.826   5.312   1.255  0.6120  0.5338 -1.0344
 4021TIP3    H212028   3.808   5.162   1.254 -0.4839  0.6218  0.9768
 4022TIP3   OH212029   4.046   4.610   1.310  0.0173  0.1680 -0.2529
 4022TIP3    H112030   4.088   4.525   1.319 -0.3781  0.1627  2.7631
 4022TIP3    H212031   4.003   4.607   1.225 -0.2493 -2.7647 -0.1221
 4023TIP3   OH212032   1.628   4.205   3.744 -0.0767 -0.7537  0.0517
 4023TIP3    H112033   1.676   4.133   3.783  0.4077 -0.4753 -0.0227
 4023TIP3    H212034   1.606   4.175   3.655  0.1372 -0.8024  0.0152
 4024TIP3   OH212035   2.534   2.077   3.042 -0.5336 -0.1717  0.1288
 4024TIP3    H112036   2.587   2.049   2.967 -0.1551 -1.2674  0.7840
 4024TIP3    H212037   2.550   2.171   3.049  1.9077 -0.5581  0.7050
 4025TIP3   OH212038   4.586   6.617   5.717  0.5829  0.0965  0.0065
 4025TIP3    H112039   4.544   6.669   5.648  1.2664  0.8531  0.1497
 4025TIP3    H212040   4.634   6.681   5.769  0.6446 -0.5601  0.7764
 4026TIP3   OH212041   4.617   3.282   2.832  0.2137  0.1229  0.0435
 4026TIP3    H112042   4.570   3.326   2.761 -0.4464 -0.0736  0.3628
 4026TIP3    H212043   4.698   3.333   2.841 -0.6480  1.4444  0.5814
 4027TIP3   OH212044   5.538   1.629   3.111  0.4086  0.0795  0.1845
 4027TIP3    H112045   5.583   1.713   3.123 -1.2441  0.9160  0.9695
 4027TIP3    H212046   5.565   1.576   3.186  1.9355 -0.3352 -0.6369
 4028TIP3   OH212047   0.867   3.831   4.408 -0.1319 -0.8679  0.0853
 4028TIP3    H112048   0.788   3.781   4.428 -1.3894  0.7704 -0.5257
 4028TIP3    H212049   0.920   3.772   4.355 -1.4477 -1.6468 -0.4317
 4029TIP3   OH212050   1.993   6.301   4.634 -0.4764 -0.2013  0.3884
 4029TIP3    H112051   1.987   6.291   4.729 -1.4160  0.0789  0.3766
 4029TIP3    H212052   1.904   6.325   4.607 -0.2150 -0.2372 -0.5583
 4030TIP3   OH212053   0.515   6.193   3.347 -0.2255 -0.3368 -0.4369
 4030TIP3    H112054   0.490   6.279   3.314  1.9652  0.3487 -0.4453
 4030TIP3    H212055   0.566   6.211   3.426 -0.0337 -1.6493 -0.2382
 4031TIP3   OH212056   3.148   5.794   4.741 -0.4815 -0.2618 -0.2201
 4031TIP3    H112057   3.212   5.764   4.676  1.4458  0.3699  1.2917
 4031TIP3    H212058   3.130   5.885   4.716  0.1354 -0.0671  0.0425
 4032TIP3   OH212059   4.195   1.585   2.125  0.7030 -0.3536 -0.4872
 4032TIP3    H112060   4.217   1.652   2.190  2.3020  0.9709 -2.2810
 4032TIP3    H212061   4.228   1.504   2.163 -0.2245  0.0141  1.2237
 4033TIP3   OH212062   6.830   2.686   2.257 -0.3167 -0.3977  0.0009
 4033TIP3    H112063   6.738   2.661   2.255 -0.5582  0.3422  0.9271
 4033TIP3    H212064   6.869   2.630   2.325 -0.2043 -0.3333 -0.0096
 4034TIP3   OH212065   3.973   0.599   2.798 -0.4915  0.1663 -0.1880
 4034TIP3    H112066   3.959   0.562   2.711 -0.7434 -1.1727  0.3990
 4034TIP3    H212067   4.057   0.562   2.827 -0.0596  1.1579 -0.1325
 4035TIP3   OH212068   0.402   4.818   1.800 -0.4622  0.2229  0.7167
 4035TIP3    H112069   0.435   4.891   1.747 -1.1509  0.7001  0.9269
 4035TIP3    H212070   0.343   4.771   1.742 -1.0401  0.6136  0.9680
 4036TIP3   OH212071   5.917   2.642   2.773  0.8980  0.0547 -0.4209
 4036TIP3    H112072   5.994   2.586   2.774  0.5126 -0.5092  1.2712
 4036TIP3    H212073   5.923   2.692   2.855  0.5697  1.5816 -1.2789
 4037TIP3   OH212074   2.821   1.900   3.643 -0.2095  0.2388  0.1563
 4037TIP3    H112075   2.740   1.887   3.593  0.8830  2.1031 -2.2961
 4037TIP3    H212076   2.874   1.823   3.624 -0.6597 -0.0904  0.2306
 4038TIP3   OH212077   0.587   5.616   4.685  0.2776 -0.5172  0.0764
 4038TIP3    H112078   0.498   5.580   4.678 -0.4074  0.9083  0.9268
 4038TIP3    H212079   0.596   5.640   4.777 -0.3086  3.6786 -0.7287
 4039TIP3   OH212080   5.890   0.386   1.517 -0.1267 -0.1996  0.2963
 4039TIP3    H112081   5.837   0.367   1.440  2.5040 -2.3037 -1.1547
 4039TIP3    H212082   5.892   0.482   1.522 -1.0940 -0.0334 -1.6955
 4040TIP3   OH212083   4.618   4.098   5.328 -0.3231 -0.5779  0.0933
 4040TIP3    H112084   4.609   4.124   5.420  0.9332 -2.6388  0.8713
 4040TIP3    H212085   4.528   4.078   5.301 -0.7966  0.6941  0.6322
 4041TIP3   OH212086   5.716   2.050   5.574 -0.1286 -0.3711  0.2042
 4041TIP3    H112087   5.774   2.019   5.505 -1.6543  1.2605 -1.9517
 4041TIP3    H212088   5.776   2.088   5.640  1.3218  1.3267 -1.9509
 4042TIP3   OH212089   3.615   5.419   3.710 -0.0261  0.2670 -0.1896
 4042TIP3    H112090   3.706   5.421   3.680  0.4833 -1.6107  1.0056
 4042TIP3    H212091   3.563   5.415   3.629  1.0534 -0.3645 -0.8791
 4043TIP3   OH212092   5.728   3.054   1.514  0.2102 -0.2237  0.2613
 4043TIP3    H112093   5.763   2.967   1.532  1.4537 -0.0219 -1.0691
 4043TIP3    H212094   5.759   3.076   1.426  0.5451  1.8617  0.8390
 4044TIP3   OH212095   6.902   1.807   2.119  0.0347 -0.2326 -0.5704
 4044TIP3    H112096   6.998   1.814   2.116  0.0926 -0.5196  0.2910
 4044TIP3    H212097   6.884   1.767   2.204 -0.8409 -0.4044 -0.8290
 4045TIP3   OH212098   2.604   3.748   2.919 -0.1452  0.0419 -0.0480
 4045TIP3    H112099   2.607   3.657   2.890  0.1561  0.1858 -0.4921
 4045TIP3    H212100   2.623   3.799   2.840 -0.4564  0.4949  0.1651
 4046TIP3   OH212101   3.693   5.138   4.148 -0.0755  0.2578  0.8238
 4046TIP3    H112102   3.776   5.156   4.192 -0.4054  0.7045  1.2767
 4046TIP3    H212103   3.673   5.219   4.100 -0.0953  0.0394  0.4553
 4047TIP3   OH212104   0.300   2.225   0.245  0.2664 -0.5851  0.4371
 4047TIP3    H112105   0.278   2.313   0.275  1.2362  0.1795 -0.9752
 4047TIP3    H212106   0.231   2.203   0.183  0.6028 -0.3677 -0.0183
 4048TIP3   OH212107   4.360   1.464   5.022 -0.3048  0.6029 -0.1692
 4048TIP3    H112108   4.354   1.429   4.933 -1.7773  0.2189  0.0490
 4048TIP3    H212109   4.450   1.494   5.031  0.6108 -1.7559 -0.9044
 4049TIP3   OH212110   4.486   0.164   0.040  0.0373 -0.4615 -0.0181
 4049TIP3    H112111   4.559   0.135   0.096 -0.5283  0.8037  1.4431
 4049TIP3    H212112   4.451   0.241   0.084 -0.3993  0.6706 -2.1960
 4050TIP3   OH212113   6.187   5.578   3.423 -0.3597  0.0468 -0.5102
 4050TIP3    H112114   6.194   5.633   3.345  2.4938 -1.9227 -1.8205
 4050TIP3    H212115   6.197   5.639   3.496  2.7456  1.4197 -1.8880
 4051TIP3   OH212116   2.486   0.373   4.503 -0.5045 -0.2532 -0.0948
 4051TIP3    H112117   2.552   0.304   4.500  1.5636  1.6752 -1.7762
 4051TIP3    H212118   2.529   0.445   4.549 -2.6504  0.0012  1.7242
 4052TIP3   OH212119   5.822   4.576   3.117  0.3856  0.3621  0.6446
 4052TIP3    H112120   5.838   4.662   3.077  1.4159  0.1916  0.6766
 4052TIP3    H212121   5.903   4.528   3.104 -0.2043 -0.6380  0.5797
 4053TIP3   OH212122   3.034   3.544   1.438 -0.0459 -0.4509  0.2904
 4053TIP3    H112123   3.081   3.527   1.356  0.2611 -0.7000  0.5193
 4053TIP3    H212124   3.013   3.638   1.433 -0.2463 -0.5144 -0.1838
 4054TIP3   OH212125   1.833   4.145   5.047  0.4236  0.3249 -0.0365
 4054TIP3    H112126   1.850   4.063   5.092  0.0932  0.9415  1.2403
 4054TIP3    H212127   1.889   4.209   5.090 -2.4074  1.6630  1.9749
 4055TIP3   OH212128   5.661   0.494   4.741 -0.0735  0.2328 -0.6964
 4055TIP3    H112129   5.607   0.485   4.820  0.6545  1.5371 -0.0296
 4055TIP3    H212130   5.608   0.453   4.672 -1.2781  0.1944  0.2074
 4056TIP3   OH212131   1.091   6.445   0.296 -0.4530  0.4194 -0.5081
 4056TIP3    H112132   1.040   6.375   0.335  0.2612  0.6375  0.9054
 4056TIP3    H212133   1.139   6.403   0.224  0.4389 -0.7115  0.6967
 4057TIP3   OH212134   3.529   4.353   4.935 -0.8511 -0.0704  0.0113
 4057TIP3    H112135   3.542   4.410   4.859  0.8128 -1.4267 -0.7897
 4057TIP3    H212136   3.584   4.392   5.004 -1.3013  0.3967  0.1170
 4058TIP3   OH212137   2.090   6.185   2.518  0.3037 -0.7231 -0.0033
 4058TIP3    H112138   2.067   6.244   2.447 -2.1246  1.5814  2.4559
 4058TIP3    H212139   2.044   6.103   2.497 -0.9837  0.1523 -0.7378
 4059TIP3   OH212140   0.624   3.020   5.644 -0.2928  0.8293 -0.4137
 4059TIP3    H112141   0.610   3.091   5.707  0.2642  0.9604 -0.4375
 4059TIP3    H212142   0.670   2.953   5.694 -0.3116  0.7192 -0.5446
 4060TIP3   OH212143   3.721   3.861   0.434  0.7062 -0.6104 -0.1459
 4060TIP3    H112144   3.749   3.949   0.458  1.1750 -0.5938 -0.7364
 4060TIP3    H212145   3.637   3.873   0.389  1.8052 -0.2241 -2.2124
 4061TIP3   OH212146   1.408   6.385   0.935 -0.1060 -0.0763  0.0054
 4061TIP3    H112147   1.420   6.448   0.864  1.4756 -0.4035 -0.0468
 4061TIP3    H212148   1.313   6.379   0.945 -0.3095  2.2394 -0.0336
 4062TIP3   OH212149   7.199   3.320   4.170 -0.3291 -0.3413  0.3456
 4062TIP3    H112150   7.145   3.392   4.203  0.3243  0.2308  0.1843
 4062TIP3    H212151   7.222   3.345   4.081  0.9957 -0.0979  0.7216
 4063TIP3   OH212152   4.878   0.766   4.671  0.2666  0.2475  0.4409
 4063TIP3    H112153   4.827   0.685   4.667 -1.0372  1.0763 -0.4830
 4063TIP3    H212154   4.969   0.738   4.656 -0.2384 -0.9699 -0.5291
 4064TIP3   OH212155   2.886   5.390   0.113 -0.7879  0.2355 -0.5909
 4064TIP3    H112156   2.796   5.404   0.083 -1.3273 -0.5623  0.5667
 4064TIP3    H212157   2.893   5.441   0.194  0.0684  0.9299 -1.0885
 4065TIP3   OH212158   5.701   1.220   1.396  0.0193  0.0774 -1.0597
 4065TIP3    H112159   5.793   1.222   1.424  0.6201 -0.4231 -2.8017
 4065TIP3    H212160   5.687   1.129   1.368 -1.7003 -0.4308  1.1564
 4066TIP3   OH212161   4.358   6.523   2.688  0.0123  1.0881  0.3862
 4066TIP3    H112162   4.337   6.573   2.766 -0.4356  1.3940  0.0751
 4066TIP3    H212163   4.278   6.474   2.668  0.2687  0.6668  0.3716
 4067TIP3   OH212164   6.090   5.733   1.680  0.0463 -0.3806  0.1488
 4067TIP3    H112165   6.081   5.654   1.735 -0.6368 -0.3784  0.0591
 4067TIP3    H212166   6.008   5.781   1.695  0.7437  0.6591  0.7303
 4068TIP3   OH212167   5.139   4.374   5.843  0.3984 -0.0832  0.0830
 4068TIP3    H112168   5.131   4.382   5.938 -0.4765 -4.1844  0.5740
 4068TIP3    H212169   5.208   4.435   5.819  1.5382  0.1995  3.5565
 4069TIP3   OH212170   2.152   6.130   5.272 -0.5981 -0.3934 -0.5860
 4069TIP3    H112171   2.184   6.221   5.275 -2.1368  0.1744 -0.3235
 4069TIP3    H212172   2.183   6.096   5.189  0.9794 -0.0184 -0.1874
 4070TIP3   OH212173   3.871   0.284   0.598  0.2151  0.1407 -0.1880
 4070TIP3    H112174   3.874   0.190   0.615  2.5126  0.4512  1.6201
 4070TIP3    H212175   3.961   0.314   0.614 -0.5918  2.7415 -0.1183
 4071TIP3   OH212176   4.229   4.798   1.400 -0.2708 -0.2380 -0.0521
 4071TIP3    H112177   4.269   4.836   1.322 -1.4302  1.1740 -0.0103
 4071TIP3    H212178   4.176   4.726   1.367 -0.6277  0.2502 -0.5650
 4072TIP3   OH212179   2.450   6.704   2.272  0.2868  0.4082 -0.0159
 4072TIP3    H112180   2.486   6.779   2.225 -0.4994  1.5420  1.0977
 4072TIP3    H212181   2.507   6.694   2.349  0.3227 -0.0755 -0.0998
 4073TIP3   OH212182   5.550   3.807   1.959 -0.1813  0.1355  0.0649
 4073TIP3    H112183   5.502   3.880   1.920  0.1214  0.2757 -0.0427
 4073TIP3    H212184   5.493   3.731   1.945 -0.4650  0.3368  0.1150
 4074TIP3   OH212185   6.293   2.022   4.594  0.0653  0.0978 -0.0491
 4074TIP3    H112186   6.295   2.112   4.561  0.1890 -0.1157 -0.6215
 4074TIP3    H212187   6.232   1.977   4.535  0.3459 -0.3020 -0.0282
 4075TIP3   OH212188   5.203   6.440   0.611  0.0343 -0.2086  0.0768
 4075TIP3    H112189   5.194   6.491   0.531  0.7091  0.1027  0.1903
 4075TIP3    H212190   5.158   6.491   0.678 -1.5272 -1.0137 -0.3075
 4076TIP3   OH212191   2.001   3.149   0.026 -0.2729 -0.3814  0.3791
 4076TIP3    H112192   2.063   3.184  -0.038  0.6380 -1.1100  0.8397
 4076TIP3    H212193   2.002   3.213   0.097 -1.4721  0.5565 -0.4105
 4077TIP3   OH212194   0.871   1.397   3.153 -0.4667  0.0581 -0.3867
 4077TIP3    H112195   0.911   1.313   3.130  0.9091  0.9386 -1.3705
 4077TIP3    H212196   0.938   1.442   3.206 -2.5216 -0.8220  3.2900
 4078TIP3   OH212197   0.558   2.791   0.635 -0.4342  0.2467  0.1715
 4078TIP3    H112198   0.560   2.884   0.614 -2.0351  0.6557  1.5602
 4078TIP3    H212199   0.497   2.753   0.572  1.3088 -0.1915 -1.3354
 4079TIP3   OH212200   0.801   5.490   3.277 -0.3663 -0.0560  0.7278
 4079TIP3    H112201   0.870   5.444   3.229  0.2341  0.7118  0.8425
 4079TIP3    H212202   0.771   5.558   3.218 -0.9830 -0.3383  0.7078
 4080TIP3   OH212203   4.117   4.580   5.209 -0.1524  0.0670  0.1168
 4080TIP3    H112204   4.087   4.671   5.204  0.4083  0.2297 -0.4150
 4080TIP3    H212205   4.043   4.532   5.247 -1.0544  0.4804 -1.0573
 4081TIP3   OH212206   3.620   0.744   4.013 -0.7068 -0.5983 -0.0281
 4081TIP3    H112207   3.559   0.740   4.086 -0.3322  0.2935  0.3504
 4081TIP3    H212208   3.649   0.653   4.000  0.8397 -0.5096  2.3247
 4082TIP3   OH212209   3.389   5.129   0.870 -0.1267  0.0127  0.0951
 4082TIP3    H112210   3.384   5.214   0.914 -0.1800  0.0002  0.1132
 4082TIP3    H212211   3.482   5.106   0.873  0.1076  0.7218 -1.1345
 4083TIP3   OH212212   5.615   5.135   4.051  0.7051 -0.1118 -0.0306
 4083TIP3    H112213   5.597   5.069   3.984 -1.1221 -1.1196  1.3722
 4083TIP3    H212214   5.680   5.094   4.108 -0.0528 -0.5062  0.5550
 4084TIP3   OH212215   0.571   0.119   1.405 -0.4761 -0.4871 -0.4675
 4084TIP3    H112216   0.558   0.201   1.357  0.4399 -0.0795 -0.0462
 4084TIP3    H212217   0.609   0.147   1.489  0.4444 -1.3904 -0.5701
 4085TIP3   OH212218   1.473   3.914   0.978 -0.6993  0.4685 -0.0455
 4085TIP3    H112219   1.421   3.994   0.964 -1.2942  0.0586 -0.2434
 4085TIP3    H212220   1.535   3.913   0.906 -0.6929  0.7521 -0.0456
 4086TIP3   OH212221   6.061   3.363   4.218 -0.4155  0.0666  0.0194
 4086TIP3    H112222   6.091   3.283   4.175  0.4640  0.9389 -1.0699
 4086TIP3    H212223   5.983   3.388   4.169  1.2443  1.7081 -2.0088
 4087TIP3   OH212224   1.807   3.034   0.178 -0.0749  0.1173 -0.1677
 4087TIP3    H112225   1.845   3.029   0.266 -0.3400 -1.3191 -0.1040
 4087TIP3    H212226   1.873   3.077   0.125  0.7539 -0.4278  0.4009
 4088TIP3   OH212227   4.778   6.590   3.790  0.6693 -0.3689 -0.5802
 4088TIP3    H112228   4.838   6.649   3.837 -0.4809 -0.0856  0.5725
 4088TIP3    H212229   4.830   6.559   3.715  2.0529  0.3381  0.0380
 4089TIP3   OH212230   3.870   1.192   1.228 -0.1655 -0.4179  0.4547
 4089TIP3    H112231   3.961   1.223   1.219 -0.8894  1.5657 -0.5460
 4089TIP3    H212232   3.848   1.211   1.319 -0.2950  1.3688  0.1024
 4090TIP3   OH212233   1.410   1.557   1.282  0.1625 -0.0504  0.0255
 4090TIP3    H112234   1.433   1.583   1.371  0.3176 -0.0776 -0.0055
 4090TIP3    H212235   1.452   1.623   1.226 -1.4675  1.0503  0.0428
 4091TIP3   OH212236   3.822   3.054   4.079  0.3361 -0.2465 -0.1550
 4091TIP3    H112237   3.838   3.040   4.173  0.3095 -1.0094 -0.2588
 4091TIP3    H212238   3.843   2.970   4.038  0.5005  0.1286 -0.8581
 4092TIP3   OH212239   2.363   4.065   3.738 -0.6840  0.1633  0.4040
 4092TIP3    H112240   2.353   4.055   3.833 -0.1144  1.9024  0.6898
 4092TIP3    H212241   2.455   4.044   3.722 -0.6311  0.4550  0.3277
 4093TIP3   OH212242   3.937   5.561   0.986 -0.5475 -0.2260 -0.2066
 4093TIP3    H112243   3.863   5.586   1.043  0.1893  0.1214  0.6241
 4093TIP3    H212244   3.984   5.642   0.971 -0.6084 -0.3555 -1.1735
 4094TIP3   OH212245   5.037   5.332   3.566 -0.3902  0.4169 -0.2157
 4094TIP3    H112246   5.104   5.264   3.581 -0.3972  0.7321  1.4599
 4094TIP3    H212247   4.954   5.286   3.577 -0.4012  0.5822  0.4211
 4095TIP3   OH212248   0.576   2.885   1.988 -0.0947  0.4546 -0.3699
 4095TIP3    H112249   0.671   2.900   1.989 -0.1509  1.0195 -1.4499
 4095TIP3    H212250   0.550   2.908   1.899 -1.4717  1.7299  0.3225
 4096TIP3   OH212251   6.242   5.660   3.163 -0.1997  0.1441  0.3204
 4096TIP3    H112252   6.297   5.738   3.156  0.8186 -0.4584  1.3250
 4096TIP3    H212253   6.304   5.587   3.157 -0.9978 -0.5692  0.6005
 4097TIP3   OH212254   1.801   6.061   5.311 -0.5352  0.0558  0.4551
 4097TIP3    H112255   1.757   6.114   5.245 -1.4388 -2.3238 -0.9963
 4097TIP3    H212256   1.861   6.004   5.261 -0.5698 -1.1887  1.7457
 4098TIP3   OH212257   3.939   3.936   5.841 -0.0266  0.3957  0.3570
 4098TIP3    H112258   3.871   3.895   5.894 -0.0592  0.2603  0.2112
 4098TIP3    H212259   3.895   4.009   5.797 -0.8019 -1.3420 -1.9252
 4099TIP3   OH212260   2.670   1.949   2.169  0.0554  0.7646 -0.4737
 4099TIP3    H112261   2.728   1.893   2.219 -1.0399  0.0266  0.0039
 4099TIP3    H212262   2.591   1.957   2.223 -1.1787 -0.1004 -2.0711
 4100TIP3   OH212263   0.092   3.071   3.596  0.0920  0.2338 -0.3817
 4100TIP3    H112264   0.078   2.982   3.563  0.3781 -0.2861  0.8493
 4100TIP3    H212265   0.124   3.120   3.520  2.5951 -1.3813 -0.4797
 4101TIP3   OH212266   5.919   1.871   2.515  0.2338 -0.5618 -0.0871
 4101TIP3    H112267   5.904   1.962   2.539  2.8850 -0.0974  0.1753
 4101TIP3    H212268   5.906   1.868   2.421 -1.8210 -0.4169  0.1539
 4102TIP3   OH212269   5.350   3.842   4.854 -0.0996 -0.1860  0.7248
 4102TIP3    H112270   5.290   3.795   4.796 -0.1686  1.9799 -1.1030
 4102TIP3    H212271   5.434   3.839   4.808  0.5369 -0.7498  1.8867
 4103TIP3   OH212272   1.375   6.061   0.470 -0.3632  0.8234  0.0283
 4103TIP3    H112273   1.295   6.014   0.493 -0.7032  0.9200 -0.9471
 4103TIP3    H212274   1.387   6.123   0.542 -0.5555  0.0615  0.7346
 4104TIP3   OH212275   2.265   2.038   2.970  0.1092  0.2348 -0.2216
 4104TIP3    H112276   2.221   2.123   2.978 -0.3132 -0.1080  1.4784
 4104TIP3    H212277   2.344   2.047   3.024  0.4744 -0.2072 -0.6731
 4105TIP3   OH212278   0.861   5.654   5.120  0.1464  0.0669  0.1345
 4105TIP3    H112279   0.881   5.737   5.076  0.1083  0.1507  0.2765
 4105TIP3    H212280   0.875   5.672   5.213  1.4309 -0.4397  0.0641
 4106TIP3   OH212281   6.500   4.483   0.105 -0.4592 -0.2407  0.4972
 4106TIP3    H112282   6.445   4.498   0.028 -0.7843  0.7675  0.9057
 4106TIP3    H212283   6.557   4.410   0.080 -0.8872 -0.2469 -0.5166
 4107TIP3   OH212284   3.238   6.295   4.056 -0.8242  0.1805 -0.3790
 4107TIP3    H112285   3.226   6.378   4.100  0.8951  0.2442  0.0681
 4107TIP3    H212286   3.153   6.251   4.061 -1.3704  1.3134  0.6004
 4108TIP3   OH212287   5.486   4.217   4.759  0.4037  0.2237  0.1086
 4108TIP3    H112288   5.479   4.302   4.803  0.9969  0.3149  0.0293
 4108TIP3    H212289   5.449   4.232   4.672 -1.3667 -0.1159  0.7603
 4109TIP3   OH212290   0.572   1.006   0.309 -0.8485 -0.0039 -0.0057
 4109TIP3    H112291   0.488   0.983   0.348 -0.2167 -0.5877  1.0567
 4109TIP3    H212292   0.637   0.980   0.375  0.2609 -1.0154 -1.4293
 4110TIP3   OH212293   2.330   0.242   3.786  0.2499 -0.3935  0.3421
 4110TIP3    H112294   2.410   0.279   3.824 -0.6076  0.5675  1.2706
 4110TIP3    H212295   2.261   0.268   3.847 -1.0789  0.5421 -1.4818
 4111TIP3   OH212296   1.431   4.446   4.926  0.2284  0.3726 -0.2410
 4111TIP3    H112297   1.448   4.377   4.862  0.3816 -1.2128  1.4201
 4111TIP3    H212298   1.499   4.434   4.993  0.7656  2.6792 -0.2689
 4112TIP3   OH212299   1.762   1.001   5.220  0.0729  0.2498 -0.0251
 4112TIP3    H112300   1.747   0.926   5.163 -0.2760 -0.2380  0.6863
 4112TIP3    H212301   1.767   1.076   5.162  0.3410 -0.3152 -0.7437
 4113TIP3   OH212302   1.073   5.577   1.731 -0.7184  0.5385  0.8035
 4113TIP3    H112303   1.035   5.530   1.657  0.0837  0.7514  0.2355
 4113TIP3    H212304   1.157   5.533   1.746  0.1515  1.8806  0.1205
 4114TIP3   OH212305   4.641   5.423   4.373 -0.5973 -0.2308  0.0648
 4114TIP3    H112306   4.694   5.497   4.342  1.9266 -1.6636  0.7073
 4114TIP3    H212307   4.589   5.459   4.445 -0.6016  1.2560 -0.6462
 4115TIP3   OH212308   7.013   1.827   5.233 -0.1985  0.5623  0.3177
 4115TIP3    H112309   6.937   1.879   5.258 -0.2358  0.1870  1.0087
 4115TIP3    H212310   7.088   1.875   5.270 -0.0094  1.3728 -1.0657
 4116TIP3   OH212311   0.166   2.648   2.299 -0.1014 -0.7799  0.7940
 4116TIP3    H112312   0.171   2.584   2.370 -1.2894 -0.3135  1.3206
 4116TIP3    H212313   0.101   2.612   2.239  0.0504 -0.6128  0.5271
 4117TIP3   OH212314   0.512   0.077   4.429 -0.5570 -0.3725  0.0958
 4117TIP3    H112315   0.496   0.052   4.338 -2.6000 -0.8944  0.5672
 4117TIP3    H212316   0.602   0.110   4.428 -0.1045 -1.4711 -1.8669
 4118TIP3   OH212317   1.699   5.155   2.888  0.2818 -0.8579 -0.8172
 4118TIP3    H112318   1.660   5.141   2.974  2.0816 -1.5377 -0.0377
 4118TIP3    H212319   1.758   5.080   2.877  0.3172 -0.6210 -2.5209
 4119TIP3   OH212320   1.754   4.434   3.619 -0.1517 -0.3545  0.0521
 4119TIP3    H112321   1.800   4.385   3.551 -0.3343  1.1249 -1.1990
 4119TIP3    H212322   1.698   4.369   3.662  0.1380 -1.3695 -1.0509
 4120TIP3   OH212323   6.824   6.164   2.973 -0.1063  0.2000  0.1368
 4120TIP3    H112324   6.817   6.202   3.061  0.9663  0.0267  0.3139
 4120TIP3    H212325   6.885   6.091   2.984 -0.5006 -0.2545 -0.6208
 4121TIP3   OH212326   3.081   2.028   3.826 -0.6346 -0.2324 -0.0373
 4121TIP3    H112327   3.176   2.033   3.814 -0.4982 -0.1714  1.0159
 4121TIP3    H212328   3.045   2.039   3.737  0.2930  1.1397 -0.2743
 4122TIP3   OH212329   1.370   0.196   5.189 -0.2447  0.0221  0.9267
 4122TIP3    H112330   1.360   0.239   5.274  0.7520  0.5496  0.7958
 4122TIP3    H212331   1.458   0.220   5.160 -0.7398  0.2595 -0.4783
 4123TIP3   OH212332   6.986   0.296   2.765 -0.3492  0.0233 -0.6962
 4123TIP3    H112333   6.960   0.210   2.732 -1.6912  0.2768 -0.3538
 4123TIP3    H212334   7.042   0.277   2.841 -1.4560 -0.5595 -0.0069
 4124TIP3   OH212335   7.233   6.332   2.690  0.7300 -0.0046  0.2000
 4124TIP3    H112336   7.190   6.286   2.618  0.6666  0.7232 -0.2439
 4124TIP3    H212337   7.162   6.357   2.749  0.6888  0.1280  0.0925
 4125TIP3   OH212338   4.124   3.691   1.269  0.4590 -0.3338  0.5112
 4125TIP3    H112339   4.087   3.626   1.210 -1.7841 -0.5756  2.0288
 4125TIP3    H212340   4.048   3.738   1.303  1.8171  1.2415  1.5421
 4126TIP3   OH212341   6.042   2.122   1.200  0.6178  0.1067  0.2581
 4126TIP3    H112342   6.096   2.044   1.211 -0.3479 -0.7562 -0.8513
 4126TIP3    H212343   5.977   2.097   1.134  0.6475  2.0409 -0.5621
 4127TIP3   OH212344   6.893   3.459   0.097 -0.3598 -0.0895  0.4142
 4127TIP3    H112345   6.848   3.395   0.152 -0.7395 -0.4988 -0.3670
 4127TIP3    H212346   6.824   3.516   0.063  0.0548  1.3955  1.8825
 4128TIP3   OH212347   2.367   3.153   0.153 -0.1016 -0.1251  0.0213
 4128TIP3    H112348   2.459   3.130   0.138  0.0996 -1.7059  2.9425
 4128TIP3    H212349   2.367   3.249   0.157  1.8647 -0.1053  1.8324
 4129TIP3   OH212350   1.741   6.604   0.011 -0.1481 -0.3669 -0.7136
 4129TIP3    H112351   1.733   6.692   0.048  0.7373 -1.2682  1.7966
 4129TIP3    H212352   1.671   6.600  -0.055  0.3399  2.4729 -1.5479
 4130TIP3   OH212353   2.762   2.474   1.672  1.2875 -0.0782  0.0094
 4130TIP3    H112354   2.674   2.473   1.635  0.7354  3.7178  0.7482
 4130TIP3    H212355   2.752   2.445   1.762  1.0078 -0.6974 -0.2190
 4131TIP3   OH212356   4.520   0.133   3.649  0.0772 -0.0574 -0.2720
 4131TIP3    H112357   4.492   0.222   3.670  1.6918  0.9034 -1.9197
 4131TIP3    H212358   4.615   0.136   3.654  0.1424 -1.8408  0.0905
 4132TIP3   OH212359   3.561   5.066   3.570  0.3144 -0.5270 -0.4131
 4132TIP3    H112360   3.559   4.975   3.540 -0.7985 -0.8768  0.6454
 4132TIP3    H212361   3.650   5.078   3.603  0.3793 -1.3406 -0.2636
 4133TIP3   OH212362   6.746   4.945   3.887 -0.2576  0.2405  0.6002
 4133TIP3    H112363   6.816   4.911   3.943  1.1667  0.6862 -0.8347
 4133TIP3    H212364   6.750   5.040   3.899 -0.6068  0.2706  0.4948
 4134TIP3   OH212365   2.276   4.150   1.742  0.2535 -0.4154 -0.0730
 4134TIP3    H112366   2.301   4.080   1.801 -1.7566 -0.8023  0.3958
 4134TIP3    H212367   2.221   4.208   1.795  0.3242  0.4919 -0.9497
 4135TIP3   OH212368   0.569   3.447   0.387  0.5739 -0.2348  0.0912
 4135TIP3    H112369   0.506   3.376   0.391 -2.2336  2.0659 -0.1894
 4135TIP3    H212370   0.577   3.468   0.294 -0.0835  0.9420  0.2731
 4136TIP3   OH212371   6.850   1.146   2.107 -0.4764 -0.2857 -0.6697
 4136TIP3    H112372   6.788   1.105   2.046 -0.0850 -0.1170 -1.1895
 4136TIP3    H212373   6.819   1.236   2.116 -0.8207 -0.4448 -0.2249
 4137TIP3   OH212374   2.556   1.115   2.674 -0.1079  0.0479  0.0802
 4137TIP3    H112375   2.623   1.158   2.727 -0.6392  0.0444  0.7799
 4137TIP3    H212376   2.537   1.177   2.604 -0.8159  0.9628  1.0334
 4138TIP3   OH212377   2.424   1.482   3.580 -0.3354 -0.3471 -0.0858
 4138TIP3    H112378   2.442   1.550   3.645 -0.2532 -1.5733  1.2110
 4138TIP3    H212379   2.333   1.499   3.554 -0.3606  0.1838  0.3205
 4139TIP3   OH212380   5.900   2.432   5.231  0.2112 -0.1950  0.1542
 4139TIP3    H112381   5.956   2.365   5.191 -0.7069 -0.2887 -0.9910
 4139TIP3    H212382   5.933   2.515   5.196  0.2880 -0.1635  0.2968
 4140TIP3   OH212383   1.302   3.725   0.460 -0.0465  0.6650 -0.1288
 4140TIP3    H112384   1.260   3.652   0.506  1.0654 -0.2606 -0.5179
 4140TIP3    H212385   1.245   3.744   0.387 -1.2850  1.4362  0.9923
 4141TIP3   OH212386   5.011   2.463   3.141 -0.3839  0.0842  0.9749
 4141TIP3    H112387   5.057   2.524   3.083  0.1987 -1.1851  0.0464
 4141TIP3    H212388   5.054   2.474   3.226  0.7335 -0.1064  0.4525
 4142TIP3   OH212389   3.001   4.253   3.397 -0.0511 -0.6202 -0.2418
 4142TIP3    H112390   2.907   4.270   3.410 -0.1026 -0.3294 -0.9605
 4142TIP3    H212391   3.035   4.241   3.486 -0.6773 -0.2335  0.0633
 4143TIP3   OH212392   6.300   0.062   0.823  0.1965 -0.6971  0.1265
 4143TIP3    H112393   6.375   0.056   0.764  0.1601 -0.2174  0.0293
 4143TIP3    H212394   6.305   0.150   0.859  0.4279 -1.1019  1.1254
 4144TIP3   OH212395   1.201   6.254   1.074  1.0937  0.2908 -0.3477
 4144TIP3    H112396   1.250   6.300   1.141 -1.0906  2.1485  0.0910
 4144TIP3    H212397   1.151   6.188   1.122 -0.1470  1.3423 -0.1331
 4145TIP3   OH212398   6.235   1.982   5.877 -0.3235  0.1271 -0.2404
 4145TIP3    H112399   6.193   2.003   5.960  0.9489  2.5278 -0.1316
 4145TIP3    H212400   6.164   1.989   5.812 -1.3838 -2.0331  0.5896
 4146TIP3   OH212401   2.852   6.535   2.905 -0.0184 -0.4051 -0.5099
 4146TIP3    H112402   2.920   6.467   2.898 -0.8335 -1.1850 -1.2350
 4146TIP3    H212403   2.866   6.591   2.828 -0.2982 -0.6814 -0.7681
 4147TIP3   OH212404   1.816   0.808   1.736  1.0449 -0.1283 -0.7527
 4147TIP3    H112405   1.876   0.825   1.809  1.3779  0.7911 -1.2246
 4147TIP3    H212406   1.844   0.724   1.701  2.1311  0.3352 -1.0238
 4148TIP3   OH212407   6.863   5.522   3.185  0.2706 -0.1851  0.2710
 4148TIP3    H112408   6.893   5.436   3.154 -1.4985 -0.6286 -0.3332
 4148TIP3    H212409   6.844   5.508   3.278  1.3702 -0.0273  0.5395
 4149TIP3   OH212410   2.803   4.351   5.526  0.3208  0.0527  0.2083
 4149TIP3    H112411   2.899   4.347   5.517  0.3318  2.0472 -1.5968
 4149TIP3    H212412   2.771   4.312   5.445 -0.5733 -3.1673  1.9693
 4150TIP3   OH212413   6.322   4.908   2.111  0.4067 -0.3727 -0.2012
 4150TIP3    H112414   6.368   4.875   2.034 -1.8754 -0.6848 -1.5173
 4150TIP3    H212415   6.247   4.850   2.121  1.0617 -0.8768  2.8458
 4151TIP3   OH212416   2.198   0.146   4.814 -0.0867  0.2417  0.0535
 4151TIP3    H112417   2.207   0.055   4.786  0.8011  0.2361  0.3235
 4151TIP3    H212418   2.124   0.146   4.875  0.1337 -0.3618  0.3185
 4152TIP3   OH212419   2.742   5.067   2.926  0.9285 -0.3117 -0.1210
 4152TIP3    H112420   2.757   4.989   2.979 -0.5510 -0.0944  0.6522
 4152TIP3    H212421   2.733   5.033   2.836  0.1461 -1.0500  0.2262
 4153TIP3   OH212422   3.319   0.177   2.587 -0.3052 -0.0573  0.3271
 4153TIP3    H112423   3.412   0.154   2.598 -0.2625 -0.2542 -0.4047
 4153TIP3    H212424   3.314   0.212   2.498 -0.8272  0.5115  0.5768
 4154TIP3   OH212425   6.112   4.527   3.187  0.3696  0.4663  0.0685
 4154TIP3    H112426   6.153   4.489   3.265  0.4304  0.5866  0.0954
 4154TIP3    H212427   6.087   4.452   3.134  1.8271  0.4028 -0.5740
 4155TIP3   OH212428   6.845   3.631   5.322 -0.2556 -0.3442 -0.1812
 4155TIP3    H112429   6.899   3.577   5.264 -0.0003  0.8933 -1.1588
 4155TIP3    H212430   6.763   3.583   5.330  0.3379 -1.3803 -0.1510
 4156TIP3   OH212431   0.857   4.890   1.382 -0.0182 -0.5351  0.1964
 4156TIP3    H112432   0.894   4.811   1.341 -3.9778 -1.3864 -2.2908
 4156TIP3    H212433   0.859   4.956   1.313 -0.1461  0.3831  1.0548
 4157TIP3   OH212434   4.930   4.395   5.058 -0.0312 -0.9249 -0.4267
 4157TIP3    H112435   4.862   4.333   5.085 -1.6257  1.4128  1.3921
 4157TIP3    H212436   4.884   4.459   5.004  1.0221 -0.0510 -0.3357
 4158TIP3   OH212437   1.720   6.084   3.514 -0.3179 -0.0704 -0.1748
 4158TIP3    H112438   1.765   6.093   3.430 -0.5967  0.8071 -0.2338
 4158TIP3    H212439   1.666   6.005   3.503  0.8851 -0.9066 -0.2321
 4159TIP3   OH212440   2.968   0.703   5.590  0.1983 -0.9096 -0.3282
 4159TIP3    H112441   2.945   0.795   5.580 -0.4823 -0.9698  0.4725
 4159TIP3    H212442   3.037   0.687   5.526  0.7784  0.3182 -0.0329
 4160TIP3   OH212443   6.983   3.854   0.232  0.2617  0.5830  0.4063
 4160TIP3    H112444   6.997   3.791   0.161 -1.9216 -0.9264  1.2112
 4160TIP3    H212445   6.913   3.911   0.200  0.4529  0.9938  0.7060
 4161TIP3   OH212446   4.355   3.821   4.286 -0.1284 -0.7164  0.0211
 4161TIP3    H112447   4.324   3.898   4.334  1.8155 -0.6025  1.1526
 4161TIP3    H212448   4.290   3.753   4.305 -2.2126  0.7208 -1.4722
 4162TIP3   OH212449   1.678   3.787   2.664 -0.3421  0.4939  0.3162
 4162TIP3    H112450   1.662   3.709   2.611 -3.9311  1.2842 -0.0055
 4162TIP3    H212451   1.685   3.858   2.600  2.9675  0.6069  0.5966
 4163TIP3   OH212452   5.508   3.381   1.284 -0.0772 -0.3619 -0.3106
 4163TIP3    H112453   5.569   3.308   1.280  0.5506  0.1689 -0.5664
 4163TIP3    H212454   5.538   3.435   1.357 -0.1263 -0.0006 -0.5530
 4164TIP3   OH212455   6.273   6.080   0.721  0.8227 -0.2436  0.0831
 4164TIP3    H112456   6.263   5.999   0.671 -0.5279 -0.8798  1.3088
 4164TIP3    H212457   6.190   6.126   0.708  0.5893 -0.2476  1.3684
 4165TIP3   OH212458   5.242   5.812   2.428  0.0679 -1.0743 -0.4043
 4165TIP3    H112459   5.203   5.767   2.502 -0.3477 -1.2334 -0.7178
 4165TIP3    H212460   5.272   5.742   2.370  2.5410 -1.0129  0.6894
 4166TIP3   OH212461   4.997   5.977   3.217 -0.6512  0.6052  0.1839
 4166TIP3    H112462   5.068   6.030   3.182  0.0994  0.5979  1.6003
 4166TIP3    H212463   4.945   6.039   3.269 -0.5526  0.2257  0.7385
 4167TIP3   OH212464   5.119   6.435   3.649 -0.1157  0.0877 -0.0715
 4167TIP3    H112465   5.166   6.396   3.723  0.4759  0.4948 -0.2324
 4167TIP3    H212466   5.132   6.529   3.659 -3.2428  0.4939  1.5006
 4168TIP3   OH212467   0.589   0.182   2.640 -0.1141 -0.3396  0.1120
 4168TIP3    H112468   0.647   0.233   2.696 -0.1822 -0.5372  0.3620
 4168TIP3    H212469   0.602   0.219   2.552 -0.5271  0.4291  0.3656
 4169TIP3   OH212470   0.836   1.600   4.245 -0.0847  0.0974 -0.0434
 4169TIP3    H112471   0.898   1.673   4.256  0.6569 -0.6656  1.0986
 4169TIP3    H212472   0.757   1.629   4.290  0.9740 -0.6402  2.5154
 4170TIP3   OH212473   6.173   2.071   2.943  0.2593  0.4702  0.0011
 4170TIP3    H112474   6.209   2.035   2.862 -2.1497  1.5065 -1.6381
 4170TIP3    H212475   6.163   1.995   3.001  0.2090 -0.6296 -1.3981
 4171TIP3   OH212476   0.664   2.968   1.535 -0.5528 -0.2621  0.4174
 4171TIP3    H112477   0.750   2.960   1.495 -0.4182 -0.0740  0.6656
 4171TIP3    H212478   0.605   2.923   1.474 -0.1389 -1.2418  0.7168
 4172TIP3   OH212479   4.100   4.992   4.361 -0.0936 -0.0660 -0.0454
 4172TIP3    H112480   4.107   4.919   4.423  0.7315 -1.2565 -1.4698
 4172TIP3    H212481   4.189   5.024   4.350  0.0483 -0.9004 -1.7321
 4173TIP3   OH212482   3.015   0.577   5.225 -0.5563 -0.0747 -0.5353
 4173TIP3    H112483   3.004   0.591   5.130  0.0039 -2.8027 -1.0874
 4173TIP3    H212484   3.081   0.641   5.251 -0.2291  0.2875 -2.1478
 4174TIP3   OH212485   7.132   6.584   3.970  0.4775 -0.7783 -0.8046
 4174TIP3    H112486   7.220   6.622   3.971  0.2523 -0.2503 -0.6986
 4174TIP3    H212487   7.079   6.647   3.920 -0.2437 -0.1651  0.6637
 4175TIP3   OH212488   6.327   2.716   3.920 -0.1270 -0.1022  0.3433
 4175TIP3    H112489   6.373   2.660   3.983 -0.6903  0.2755  1.1045
 4175TIP3    H212490   6.376   2.799   3.921  0.3610 -0.3681 -0.3538
 4176TIP3   OH212491   3.415   3.912   4.898 -0.6141 -0.0531  0.1848
 4176TIP3    H112492   3.464   3.899   4.817 -0.5690 -0.3823  0.2621
 4176TIP3    H212493   3.379   4.000   4.891  0.1226  0.2565  0.1993
 4177TIP3   OH212494   0.294   4.794   4.764  0.5258 -0.3331 -0.6629
 4177TIP3    H112495   0.306   4.762   4.853  0.6812 -0.4069 -0.7101
 4177TIP3    H212496   0.381   4.820   4.736  0.3180  0.6372 -0.4359
 4178TIP3   OH212497   0.059   4.890   5.090  0.4485 -0.4516 -0.0570
 4178TIP3    H112498   0.119   4.835   5.140  0.8151  0.3706  0.4249
 4178TIP3    H212499  -0.023   4.839   5.088  0.6468 -0.8279  0.7517
 4179TIP3   OH212500   3.698   1.657   0.885 -0.1111  0.1687  0.6175
 4179TIP3    H112501   3.720   1.593   0.952 -1.4696 -2.2291 -1.0550
 4179TIP3    H212502   3.603   1.648   0.873 -0.5727  3.4026  1.1170
 4180TIP3   OH212503   2.293   3.135   4.826 -1.1347  0.4329  0.9746
 4180TIP3    H112504   2.386   3.119   4.807 -1.1025 -0.7007  1.9519
 4180TIP3    H212505   2.263   3.054   4.868 -3.6055 -0.8890 -2.8039
 4181TIP3   OH212506   3.412   5.273   4.100 -0.1168  0.2179 -0.9566
 4181TIP3    H112507   3.317   5.264   4.103 -0.4790  2.7738 -2.1561
 4181TIP3    H212508   3.432   5.283   4.007  0.9866  2.2921 -0.5530
 4182TIP3   OH212509   0.771   1.500   5.306 -0.1443  0.5321  0.1068
 4182TIP3    H112510   0.790   1.479   5.215 -2.1162 -0.0639 -0.2006
 4182TIP3    H212511   0.729   1.587   5.303  0.0138  0.6277  0.4804
 4183TIP3   OH212512   3.705   1.640   2.033  0.5341 -0.0121  0.1503
 4183TIP3    H112513   3.615   1.664   2.053  0.2737 -2.1487  2.0005
 4183TIP3    H212514   3.758   1.687   2.097  0.6868  0.6936 -0.4823
 4184TIP3   OH212515   3.758   2.616   1.403 -0.3871 -0.2903  0.0926
 4184TIP3    H112516   3.764   2.634   1.309  0.6645  1.8639  0.4929
 4184TIP3    H212517   3.680   2.663   1.431 -1.0085 -1.3863  0.2200
 4185TIP3   OH212518   0.214   2.472   0.352  0.6089 -0.0276  0.4936
 4185TIP3    H112519   0.171   2.466   0.437 -0.3499  0.0546  0.0260
 4185TIP3    H212520   0.297   2.517   0.370  0.7407 -0.6455  1.4901
 4186TIP3   OH212521   4.910   0.884   0.920  0.6472  0.5729 -0.2034
 4186TIP3    H112522   4.838   0.939   0.951  1.4986  2.3229 -1.2006
 4186TIP3    H212523   4.954   0.856   1.000 -0.8051 -0.0923  0.3938
 4187TIP3   OH212524   2.071   0.331   1.058  0.0185  0.3176  0.3666
 4187TIP3    H112525   2.021   0.357   1.135 -0.8397 -0.5208  0.1011
 4187TIP3    H212526   2.066   0.236   1.056  0.3672  0.3062 -0.5044
 4188TIP3   OH212527   5.150   2.936   4.805 -0.0687  0.4877 -0.1149
 4188TIP3    H112528   5.243   2.934   4.829 -0.0188 -0.0811 -0.3361
 4188TIP3    H212529   5.146   2.999   4.733  0.0001  1.1773  0.4833
 4189TIP3   OH212530   3.190   4.526   5.316  0.0374 -0.4993  0.4324
 4189TIP3    H112531   3.221   4.613   5.344 -0.3320 -0.1367 -0.2532
 4189TIP3    H212532   3.099   4.540   5.290 -0.5459 -1.4381  1.8640
 4190TIP3   OH212533   1.577   5.130   4.407  0.1883  0.2689 -0.0306
 4190TIP3    H112534   1.620   5.046   4.393 -1.1461 -0.7072  1.3075
 4190TIP3    H212535   1.483   5.109   4.409 -0.1331  1.6110  1.2944
 4191TIP3   OH212536   0.899   0.844   2.887 -0.2650  0.7161 -0.3363
 4191TIP3    H112537   0.952   0.924   2.884  0.0532  0.4953 -0.9493
 4191TIP3    H212538   0.954   0.781   2.934  0.6486  0.0718 -2.1520
 4192TIP3   OH212539   6.511   3.053   1.190 -0.1009  0.2107 -0.5300
 4192TIP3    H112540   6.585   3.021   1.139  0.8479  0.5519  0.6015
 4192TIP3    H212541   6.492   2.982   1.251 -1.4540 -0.3397 -1.5427
 4193TIP3   OH212542   5.195   6.038   3.580 -0.0614 -0.3650 -0.5948
 4193TIP3    H112543   5.239   6.107   3.628 -1.1622  0.6589 -1.0098
 4193TIP3    H212544   5.250   6.023   3.503  0.5257 -0.4342 -0.1667
 4194TIP3   OH212545   2.314   1.700   5.380  0.2873  0.6433  0.2952
 4194TIP3    H112546   2.248   1.730   5.442 -0.6978  0.7372 -0.7788
 4194TIP3    H212547   2.324   1.772   5.318 -0.7483 -0.4872 -1.2316
 4195TIP3   OH212548   2.457   0.120   1.050 -0.1849  0.6915  0.2528
 4195TIP3    H112549   2.513   0.042   1.060  0.6707  1.2751  0.0944
 4195TIP3    H212550   2.405   0.121   1.131 -0.3895 -0.1807  0.1479
 4196TIP3   OH212551   2.141   1.611   5.838  0.2099 -0.3629  0.0873
 4196TIP3    H112552   2.138   1.684   5.776  0.2144 -0.6739 -0.2860
 4196TIP3    H212553   2.053   1.575   5.837  0.8987 -2.1815 -1.9697
 4197TIP3   OH212554   4.698   0.971   1.083  0.5147 -0.0726 -0.0154
 4197TIP3    H112555   4.670   0.947   1.172  0.6713  0.6056  0.2232
 4197TIP3    H212556   4.772   1.030   1.096 -0.0604  0.7992 -0.5613
 4198TIP3   OH212557   3.134   3.367   0.857  0.1516  0.1506  0.0751
 4198TIP3    H112558   3.138   3.458   0.827 -0.0469  0.1586  0.0732
 4198TIP3    H212559   3.225   3.342   0.869  0.2740 -0.0194 -1.0688
 4199TIP3   OH212560   0.387   6.200   0.313  0.6008 -0.2117 -0.1285
 4199TIP3    H112561   0.318   6.243   0.263 -2.3496 -2.6615  1.4581
 4199TIP3    H212562   0.394   6.252   0.393 -0.6584 -0.8238  0.4075
 4200TIP3   OH212563   1.452   3.382   2.557  0.1285  0.1580 -0.2608
 4200TIP3    H112564   1.495   3.465   2.535 -1.7739  1.4996  0.7388
 4200TIP3    H212565   1.363   3.392   2.522 -1.3554  0.1976  3.1234
 4201TIP3   OH212566   1.786   3.747   3.917  0.4878 -0.5321 -0.2629
 4201TIP3    H112567   1.696   3.719   3.938  0.7245 -1.9610 -1.0715
 4201TIP3    H212568   1.837   3.666   3.915  1.6690  0.1963 -0.5087
 4202TIP3   OH212569   5.096   1.372   2.962  0.5069 -0.0750 -0.0143
 4202TIP3    H112570   5.158   1.438   2.992 -2.9528  2.7902  1.5797
 4202TIP3    H212571   5.081   1.392   2.870 -1.2133  2.2477  0.6591
 4203TIP3   OH212572   2.818   5.430   0.574 -0.0746  0.1731  0.2705
 4203TIP3    H112573   2.872   5.372   0.628 -0.0894  0.9680  1.1560
 4203TIP3    H212574   2.730   5.394   0.582 -0.1547  0.5418  1.1509
 4204TIP3   OH212575   4.039   1.349   0.864  0.0835 -0.4787  0.5411
 4204TIP3    H112576   3.958   1.299   0.875  1.1297 -2.5050 -0.3223
 4204TIP3    H212577   4.059   1.341   0.771  1.0462  0.3835  0.6579
 4205TIP3   OH212578   3.194   5.000   2.965 -0.0889  0.3441  0.0026
 4205TIP3    H112579   3.122   5.061   2.984 -2.4013 -1.8855 -1.0810
 4205TIP3    H212580   3.195   4.993   2.869  0.2427 -1.1223  0.0898
 4206TIP3   OH212581   5.799   3.392   2.521  0.1782  0.3321  0.2694
 4206TIP3    H112582   5.749   3.312   2.502 -0.0334  0.1287  1.6053
 4206TIP3    H212583   5.766   3.422   2.606  0.1796  1.9159 -0.2529
 4207TIP3   OH212584   0.273   2.105   0.753 -0.0219  0.4417 -0.4320
 4207TIP3    H112585   0.274   2.133   0.662  0.5782  0.8745 -0.2965
 4207TIP3    H212586   0.200   2.152   0.792  1.4800  2.5459 -0.0009
 4208TIP3   OH212587   3.369   0.500   5.344 -0.3216 -0.2228 -0.2134
 4208TIP3    H112588   3.448   0.546   5.317 -0.5712 -0.0352 -0.6306
 4208TIP3    H212589   3.381   0.484   5.438  1.5924 -2.8980 -0.7887
 4209TIP3   OH212590   1.071   5.953   0.749 -0.0539  0.6568 -0.4646
 4209TIP3    H112591   1.164   5.929   0.752 -0.4071 -0.6918  1.8607
 4209TIP3    H212592   1.070   6.040   0.709  2.1437  0.4694 -1.0430
 4210TIP3   OH212593   2.755   0.026   0.455 -0.4017 -0.2629  0.4420
 4210TIP3    H112594   2.832   0.070   0.419  0.0453 -0.1323  1.5179
 4210TIP3    H212595   2.685   0.092   0.450 -0.0110  0.2081  1.0245
 4211TIP3   OH212596   4.670   4.643   0.033  0.1558 -0.6369  0.1121
 4211TIP3    H112597   4.578   4.618   0.041 -0.5455  2.1106  2.7033
 4211TIP3    H212598   4.674   4.696  -0.047 -0.6924 -0.2375  0.3202
 4212TIP3   OH212599   2.933   0.416   0.028 -0.1663 -0.1099 -0.1282
 4212TIP3    H112600   2.998   0.346   0.027 -0.8593 -0.8138 -2.7464
 4212TIP3    H212601   2.921   0.436   0.121  1.7866 -1.7989  0.5587
 4213TIP3   OH212602   5.362   1.754   2.550 -0.3755  0.5767 -0.0045
 4213TIP3    H112603   5.387   1.669   2.588 -1.3085 -0.0927 -0.8416
 4213TIP3    H212604   5.407   1.757   2.466  1.2035  1.7931  0.8408
 4214TIP3   OH212605   3.525   3.064   0.990  0.5241 -0.2182 -0.4369
 4214TIP3    H112606   3.521   3.052   1.085  1.9594  1.2115 -0.1648
 4214TIP3    H212607   3.481   2.986   0.955 -2.3918  0.4199  1.3885
 4215TIP3   OH212608   6.528   0.326   3.510  0.0206  0.7247 -0.1741
 4215TIP3    H112609   6.536   0.421   3.498  0.2155  0.6536 -0.6188
 4215TIP3    H212610   6.572   0.309   3.593  1.1094  0.8566 -0.7176
 4216TIP3   OH212611   6.306   2.012   2.702 -0.4344  0.5455  0.1592
 4216TIP3    H112612   6.369   2.027   2.773 -0.3893  0.1400  0.2103
 4216TIP3    H212613   6.349   1.948   2.645 -0.8659  0.1285  0.2908
 4217TIP3   OH212614   1.826   6.023   0.148 -0.0585 -0.1131 -0.4825
 4217TIP3    H112615   1.903   6.021   0.091 -0.3739 -0.2437 -0.9125
 4217TIP3    H212616   1.751   6.016   0.088 -0.4536  1.2019 -0.1782
 4218TIP3   OH212617   5.289   3.253   2.042  0.4574  0.3537  0.0774
 4218TIP3    H112618   5.312   3.267   2.133  0.4275  0.1068  0.1240
 4218TIP3    H212619   5.351   3.186   2.011 -0.2816 -0.4293  0.2470
 4219TIP3   OH212620   0.972   5.618   5.384 -0.2379 -0.0241  0.0036
 4219TIP3    H112621   0.989   5.712   5.373  0.5302 -0.1049  0.4102
 4219TIP3    H212622   0.985   5.603   5.478 -0.0044 -0.6027 -0.1217
 4220TIP3   OH212623   3.457   0.748   3.377 -0.0487 -0.5507  0.3215
 4220TIP3    H112624   3.421   0.830   3.342 -1.7560 -1.1958  0.5065
 4220TIP3    H212625   3.465   0.691   3.301  0.1564 -0.5791  0.3627
 4221TIP3   OH212626   0.281   4.240   5.770 -0.1006 -0.4956 -0.0334
 4221TIP3    H112627   0.336   4.200   5.837 -0.4345 -0.6072  0.1748
 4221TIP3    H212628   0.191   4.230   5.802 -0.1866  0.5814  0.1258
 4222TIP3   OH212629   5.278   6.569   2.112 -0.4965 -0.3455  0.2449
 4222TIP3    H112630   5.250   6.660   2.123 -1.4016 -0.5519 -0.2529
 4222TIP3    H212631   5.288   6.536   2.201 -2.2657 -0.3818  0.4599
 4223TIP3   OH212632   7.063   6.452   1.397  0.8323  0.1570  0.3016
 4223TIP3    H112633   7.062   6.392   1.472  3.3518 -0.4030 -0.0466
 4223TIP3    H212634   7.071   6.396   1.321 -0.6803  0.7869 -0.3615
 4224TIP3   OH212635   5.586   3.613   5.617  0.5365 -0.5024 -0.3607
 4224TIP3    H112636   5.595   3.687   5.677  0.9062 -0.7880 -0.0611
 4224TIP3    H212637   5.573   3.537   5.674  1.1341 -0.8142 -0.6243
 4225TIP3   OH212638   4.676   4.585   2.345  0.2804  0.3706  0.1177
 4225TIP3    H112639   4.770   4.570   2.343  0.0548 -1.3201  0.2327
 4225TIP3    H212640   4.665   4.670   2.387  1.7691  0.9094 -0.5395
 4226TIP3   OH212641   4.313   1.552   2.400 -0.1245 -0.4482 -0.0231
 4226TIP3    H112642   4.329   1.545   2.494 -0.9325 -0.4673  0.1196
 4226TIP3    H212643   4.220   1.574   2.393 -0.2816 -1.3392 -0.8535
 4227TIP3   OH212644   7.133   1.493   4.281 -0.1363 -0.2130 -0.6242
 4227TIP3    H112645   7.101   1.413   4.239 -1.3418 -0.3197  0.4502
 4227TIP3    H212646   7.074   1.507   4.355  2.1490 -0.2627  1.3372
 4228TIP3   OH212647   3.355   1.051   3.678  0.3554 -0.3583 -0.0041
 4228TIP3    H112648   3.381   0.961   3.699  0.5553  0.0091  1.4704
 4228TIP3    H212649   3.298   1.076   3.751  0.8453  0.9361 -0.0532
 4229TIP3   OH212650   2.685   3.140   5.392 -0.4780 -0.1195 -0.9730
 4229TIP3    H112651   2.699   3.220   5.340  0.8361  0.0773 -0.3556
 4229TIP3    H212652   2.737   3.154   5.471 -1.2399 -1.0681 -0.2906
 4230TIP3   OH212653   4.941   6.102   1.827  0.7379 -0.1242  0.3321
 4230TIP3    H112654   4.945   6.103   1.731  2.5712  0.4865  0.3931
 4230TIP3    H212655   4.966   6.190   1.853  0.5688 -0.3812  1.4056
 4231TIP3   OH212656   2.590   6.574   3.573  0.0662 -0.3505  0.2259
 4231TIP3    H112657   2.519   6.525   3.615  0.0733 -0.2159  0.3998
 4231TIP3    H212658   2.553   6.662   3.560  0.0663 -0.3901 -0.0471
 4232TIP3   OH212659   0.772   5.988   1.423  0.0696  0.1534 -0.0869
 4232TIP3    H112660   0.718   5.909   1.428  0.5333 -0.2371 -1.1054
 4232TIP3    H212661   0.748   6.029   1.340  0.3671  0.7062  0.0884
 4233TIP3   OH212662   2.311   0.974   5.500 -0.4508 -0.0522 -0.2295
 4233TIP3    H112663   2.403   1.001   5.509 -0.0420 -1.7465  1.1505
 4233TIP3    H212664   2.309   0.928   5.416  0.4122 -1.4848  0.4856
 4234TIP3   OH212665   5.327   2.263   3.759 -0.1895  0.2960 -0.6339
 4234TIP3    H112666   5.231   2.264   3.756 -0.2566 -0.5380  0.4531
 4234TIP3    H212667   5.352   2.356   3.761 -1.0086  0.5198 -0.2938
 4235TIP3   OH212668   5.632   0.895   0.296 -0.4234 -0.4315  0.4979
 4235TIP3    H112669   5.666   0.824   0.350 -1.1965 -0.3400  1.1174
 4235TIP3    H212670   5.697   0.965   0.304 -0.4988 -0.4419  1.2715
 4236TIP3   OH212671   4.009   2.293   3.658 -0.6626 -0.2064  0.5207
 4236TIP3    H112672   3.916   2.279   3.643 -0.3705 -2.5370  0.5291
 4236TIP3    H212673   4.032   2.233   3.730  0.3821  2.1156  2.2784
 4237TIP3   OH212674   1.304   4.774   0.834 -0.1912 -0.2780  0.0900
 4237TIP3    H112675   1.349   4.760   0.917 -0.2211 -1.2721 -0.0532
 4237TIP3    H212676   1.250   4.696   0.822  0.0226 -0.2764 -1.0009
 4238TIP3   OH212677   2.102   6.715   3.460 -0.4488 -0.2491  0.1101
 4238TIP3    H112678   2.141   6.749   3.379  0.5156  0.0288  0.6819
 4238TIP3    H212679   2.103   6.789   3.520  1.8804 -1.2433  1.4493
 4239TIP3   OH212680   1.079   1.909   3.523 -0.2315 -0.1617 -0.0113
 4239TIP3    H112681   1.075   2.003   3.535  0.0921 -0.0632 -0.6141
 4239TIP3    H212682   0.992   1.877   3.547 -0.2673  0.2625  0.4161
 4240TIP3   OH212683   1.921   0.061   3.856 -0.3701 -0.4911 -0.4039
 4240TIP3    H112684   1.904   0.014   3.774  0.1642  0.2278 -0.9384
 4240TIP3    H212685   1.901   0.152   3.836  1.2440 -0.0722 -0.1900
 4241TIP3   OH212686   1.127   0.647   2.406  0.3855 -0.1403 -0.3010
 4241TIP3    H112687   1.033   0.630   2.413  0.3390 -0.0683 -0.7470
 4241TIP3    H212688   1.143   0.720   2.465  0.1402 -0.0786 -0.3104
 4242TIP3   OH212689   3.816   0.611   5.666 -0.3384 -0.8603 -0.6322
 4242TIP3    H112690   3.873   0.539   5.639  1.1589  0.5039 -1.2754
 4242TIP3    H212691   3.872   0.669   5.717 -1.6544 -0.3900  0.3463
 4243TIP3   OH212692   2.343   0.559   0.187 -0.7494  0.5386  0.3208
 4243TIP3    H112693   2.363   0.500   0.114  2.2580 -2.2842  3.1180
 4243TIP3    H212694   2.268   0.519   0.231  1.3621 -1.5386  2.2869
 4244TIP3   OH212695   6.717   2.080   4.130  0.1030 -0.2616  0.3502
 4244TIP3    H112696   6.708   2.168   4.095 -0.2941 -0.1109  0.8181
 4244TIP3    H212697   6.750   2.028   4.056 -0.5630  0.0808 -0.2010
 4245TIP3   OH212698   5.637   0.981   1.266 -0.8504  0.2411 -0.3173
 4245TIP3    H112699   5.670   0.921   1.199 -1.7815 -1.2163  0.4673
 4245TIP3    H212700   5.627   0.926   1.344 -1.9422  1.3656  0.3689
 4246TIP3   OH212701   1.243   4.259   4.788 -0.4287  0.3995 -0.3079
 4246TIP3    H112702   1.199   4.185   4.745 -2.1450  2.3072 -2.0017
 4246TIP3    H212703   1.327   4.265   4.743 -0.2533 -0.5057 -0.1312
 4247TIP3   OH212704   1.049   4.870   1.023 -0.0224  0.2613 -0.3304
 4247TIP3    H112705   1.081   4.809   0.956  0.1659  0.0798 -0.0744
 4247TIP3    H212706   1.096   4.845   1.102 -0.4862  0.2664 -0.0511
 4248TIP3   OH212707   1.212   5.466   2.076 -0.5600 -0.0600 -0.3087
 4248TIP3    H112708   1.275   5.410   2.032  0.2614  1.9275 -1.8188
 4248TIP3    H212709   1.161   5.406   2.131  0.9937 -2.0737 -0.9347
 4249TIP3   OH212710   6.859   3.989   0.710  0.5953  0.0585 -0.0069
 4249TIP3    H112711   6.916   3.970   0.636  0.6205  0.1003  0.0016
 4249TIP3    H212712   6.899   3.943   0.784 -0.4906 -1.6128 -0.4141
 4250TIP3   OH212713   5.312   4.385   2.205 -0.6830 -0.6813 -0.1144
 4250TIP3    H112714   5.406   4.377   2.222 -0.2593  0.8890 -1.4047
 4250TIP3    H212715   5.290   4.307   2.153 -0.3533 -1.5870  1.0626
 4251TIP3   OH212716   5.275   4.885   2.114 -0.5023  0.2034 -0.1162
 4251TIP3    H112717   5.202   4.946   2.105  0.4468  1.2412 -1.0716
 4251TIP3    H212718   5.352   4.935   2.086  0.4092 -1.2213 -0.2608
 4252TIP3   OH212719   5.221   3.424   4.644 -0.2360 -0.0520 -0.8580
 4252TIP3    H112720   5.285   3.392   4.581  1.7807  2.0431 -0.0015
 4252TIP3    H212721   5.237   3.372   4.723  0.9141  0.9147 -0.4347
 4253TIP3   OH212722   3.236   2.212   3.136  0.4697  0.3808  0.5824
 4253TIP3    H112723   3.196   2.229   3.051  0.9453 -0.6554  0.1390
 4253TIP3    H212724   3.185   2.139   3.173  1.3834 -0.3792  0.3851
 4254TIP3   OH212725   6.186   2.899   4.739 -0.7528 -0.1222 -0.4827
 4254TIP3    H112726   6.210   2.942   4.657  0.8206  0.5080  0.2813
 4254TIP3    H212727   6.141   2.967   4.789 -0.7362 -0.1873 -0.3798
 4255TIP3   OH212728   0.934   5.465   1.953  0.6625 -0.2842 -0.5378
 4255TIP3    H112729   1.004   5.488   2.014 -0.9596  0.6513  1.0513
 4255TIP3    H212730   0.956   5.511   1.872  0.8353  1.6897  0.5948
 4256TIP3   OH212731   0.473   1.005   5.878 -0.2046  0.2493  0.0071
 4256TIP3    H112732   0.427   1.006   5.962  0.0273  0.7860  0.1278
 4256TIP3    H212733   0.403   1.006   5.812 -0.4261  3.3810  0.1429
 4257TIP3   OH212734   4.797   3.804   1.982  0.4201  0.2715  0.4520
 4257TIP3    H112735   4.762   3.867   1.919  0.3729  0.3784  0.5826
 4257TIP3    H212736   4.733   3.733   1.984 -1.8179  2.0967  3.3960
 4258TIP3   OH212737   6.414   5.081   0.428  0.4251  0.1134  0.0761
 4258TIP3    H112738   6.364   5.123   0.498 -0.6037 -0.1820 -0.4634
 4258TIP3    H212739   6.413   4.988   0.452 -0.8323 -0.1346 -0.8521
 4259TIP3   OH212740   2.583   5.435   2.410  0.0331  0.0091  0.2324
 4259TIP3    H112741   2.529   5.433   2.490  0.4415 -0.0906  0.5079
 4259TIP3    H212742   2.635   5.356   2.415 -0.3569 -0.2962 -0.4346
 4260TIP3   OH212743   2.700   5.267   5.109  0.3712 -0.5277  0.0860
 4260TIP3    H112744   2.605   5.268   5.093  0.1383 -1.6013  1.3076
 4260TIP3    H212745   2.730   5.187   5.066  0.7176 -0.2518 -0.1903
 4261TIP3   OH212746   1.966   1.541   1.382 -1.3722  0.4406 -0.4593
 4261TIP3    H112747   2.026   1.592   1.327 -0.7819 -0.8880 -1.0910
 4261TIP3    H212748   1.994   1.559   1.471 -0.5410  0.4433 -0.7178
 4262TIP3   OH212749   2.503   2.533   4.663 -0.2584 -0.4540 -0.5964
 4262TIP3    H112750   2.519   2.448   4.704 -1.4301  0.2303  1.4116
 4262TIP3    H212751   2.420   2.523   4.617 -0.3076 -0.4390 -0.5102
 4263TIP3   OH212752   3.082   4.309   5.454  0.2783  0.4205 -0.4875
 4263TIP3    H112753   3.123   4.388   5.420 -1.6101  1.8116  0.2898
 4263TIP3    H212754   3.120   4.297   5.541 -0.2491  1.1579 -0.1475
 4264TIP3   OH212755   5.598   1.499   3.367  0.3160  0.4114 -0.2085
 4264TIP3    H112756   5.603   1.415   3.413  0.5073  0.0329 -0.9083
 4264TIP3    H212757   5.639   1.561   3.427 -0.9203  0.2487  0.8470
 4265TIP3   OH212758   6.252   4.375   3.364 -0.3719  0.0929 -0.1340
 4265TIP3    H112759   6.344   4.348   3.366 -0.4372 -0.2787 -1.4744
 4265TIP3    H212760   6.218   4.350   3.450  1.5585  3.1971  1.7194
 4266TIP3   OH212761   2.338   3.259   1.615 -0.1319 -0.0795  0.3411
 4266TIP3    H112762   2.257   3.262   1.564 -0.9898 -0.3596  1.6258
 4266TIP3    H212763   2.408   3.269   1.550 -1.1994  0.5091 -0.7590
 4267TIP3   OH212764   1.672   4.840   1.260 -0.4023  0.1784  0.6716
 4267TIP3    H112765   1.681   4.746   1.240 -2.6021 -0.1755  1.0946
 4267TIP3    H212766   1.653   4.843   1.353  1.0060  1.1841  0.9533
 4268TIP3   OH212767   0.987   2.507   5.000  0.1340  0.8169  0.1438
 4268TIP3    H112768   0.940   2.588   4.980 -1.5337  1.1502  4.3735
 4268TIP3    H212769   1.043   2.530   5.075  1.1210 -1.4895  0.1922
 4269TIP3   OH212770   1.021   6.643   1.565 -0.1250  0.3372  0.1391
 4269TIP3    H112771   0.937   6.686   1.548 -0.8795 -1.3635 -0.6777
 4269TIP3    H212772   1.086   6.712   1.556 -1.2994  1.3442 -0.9920
 4270TIP3   OH212773   6.533   6.608   0.114  0.2202  0.3013 -0.3179
 4270TIP3    H112774   6.595   6.624   0.043 -1.1505  0.2700 -1.5606
 4270TIP3    H212775   6.473   6.682   0.111  1.4095  1.5243  2.3190
 4271TIP3   OH212776   5.751   5.088   0.590  0.0046  0.0361 -0.4919
 4271TIP3    H112777   5.673   5.050   0.631 -0.8385  2.0004 -0.1356
 4271TIP3    H212778   5.798   5.129   0.662  2.0294 -2.0537 -0.5231
 4272TIP3   OH212779   7.083   3.108   0.105 -0.0172 -0.3091  0.5722
 4272TIP3    H112780   7.136   3.033   0.132  0.7325  0.0834  0.2267
 4272TIP3    H212781   7.004   3.102   0.158 -0.0797 -1.4806  0.3779
 4273TIP3   OH212782   2.641   4.475   0.440  0.3419  0.3952  0.2593
 4273TIP3    H112783   2.664   4.462   0.532  1.2625 -0.1475 -0.0388
 4273TIP3    H212784   2.570   4.413   0.423 -0.4576  1.1283  0.8274
 4274TIP3   OH212785   5.394   3.550   2.171  0.0406  0.7525 -0.3192
 4274TIP3    H112786   5.454   3.622   2.189 -1.5064  1.4892  2.4126
 4274TIP3    H212787   5.342   3.579   2.095 -0.1963  2.2999  0.4169
 4275TIP3   OH212788   3.251   6.189   0.554 -0.0647 -0.1514  0.2897
 4275TIP3    H112789   3.309   6.125   0.594  0.3162 -1.7548 -2.5740
 4275TIP3    H212790   3.164   6.168   0.589  0.2359 -1.5045  0.2716
 4276TIP3   OH212791   4.592   3.394   2.578  0.7140 -0.7492 -0.1034
 4276TIP3    H112792   4.643   3.341   2.516 -1.1621 -2.5869 -0.1648
 4276TIP3    H212793   4.607   3.484   2.549  0.2959 -1.4886 -2.9806
 4277TIP3   OH212794   4.671   6.780   4.841 -0.3526 -0.4395  0.3025
 4277TIP3    H112795   4.699   6.776   4.932  0.1832 -2.6677  0.0919
 4277TIP3    H212796   4.601   6.715   4.834 -0.6598 -0.0165 -0.8000
 4278TIP3   OH212797   4.908   3.689   0.826 -0.2818  0.5105 -0.1107
 4278TIP3    H112798   4.942   3.758   0.883  1.8821 -0.4066 -0.2039
 4278TIP3    H212799   4.970   3.684   0.754 -0.1443 -1.7978  0.1049
 4279TIP3   OH212800   4.702   4.796   0.744  0.2136  0.3847 -0.0604
 4279TIP3    H112801   4.779   4.788   0.800  0.0750  0.0513  0.0853
 4279TIP3    H212802   4.710   4.883   0.704 -0.3528  1.1675  1.4533
 4280TIP3   OH212803   1.016   5.095   4.245 -0.5020 -0.1269  0.1864
 4280TIP3    H112804   1.067   5.175   4.232  0.0319 -0.6502 -1.1839
 4280TIP3    H212805   0.935   5.125   4.285 -0.8386  1.2925 -1.4345
 4281TIP3   OH212806   5.870   1.065   5.405  0.3665  0.5352  0.1954
 4281TIP3    H112807   5.835   1.097   5.489  1.8183  1.3458  0.5185
 4281TIP3    H212808   5.930   1.134   5.376  2.2539 -1.1041  0.0281
 4282TIP3   OH212809   4.207   4.920   3.449  0.8322 -0.5046 -0.0642
 4282TIP3    H112810   4.142   4.941   3.382  1.7194  1.1010 -0.4635
 4282TIP3    H212811   4.157   4.920   3.531 -0.0510 -1.4016 -0.5725
 4283TIP3   OH212812   6.125   0.212   1.559 -0.3106  0.1698 -0.7833
 4283TIP3    H112813   6.041   0.258   1.560  0.1595  1.0464 -0.4354
 4283TIP3    H212814   6.105   0.125   1.593 -0.4172  1.6020  3.3917
 4284TIP3   OH212815   6.389   2.849   3.473 -0.0932 -0.0289 -0.4123
 4284TIP3    H112816   6.319   2.814   3.528 -0.4008  1.1277 -0.0548
 4284TIP3    H212817   6.362   2.939   3.453  1.5082  0.5953  0.1049
 4285TIP3   OH212818   6.809   2.059   4.556  0.2742  0.1917  0.0442
 4285TIP3    H112819   6.720   2.046   4.523  0.9653 -1.3943 -1.3710
 4285TIP3    H212820   6.856   2.100   4.484  1.1248 -0.6827  0.0856
 4286TIP3   OH212821   6.251   0.939   3.722 -0.0250  0.5290 -0.2368
 4286TIP3    H112822   6.237   1.008   3.657  0.4069  0.8915  0.0540
 4286TIP3    H212823   6.188   0.959   3.792 -0.0643  0.4926 -0.2617
 4287TIP3   OH212824   0.157   5.054   3.142 -0.1786  0.2797  0.4863
 4287TIP3    H112825   0.068   5.036   3.172 -0.0824 -0.1978  0.4988
 4287TIP3    H212826   0.213   5.014   3.209  0.0441  0.4757  0.4178
 4288TIP3   OH212827   2.238   5.194   2.172  0.6183  0.2225  0.0222
 4288TIP3    H112828   2.280   5.238   2.098  2.0262 -0.2320  0.5110
 4288TIP3    H212829   2.150   5.231   2.175  0.7269  0.6708 -1.5076
 4289TIP3   OH212830   7.018   4.074   3.272 -0.0879  0.2314  0.0395
 4289TIP3    H112831   7.078   4.076   3.346 -1.1375 -0.1848  0.9333
 4289TIP3    H212832   7.042   3.995   3.223 -0.2971 -0.2724  0.7404
 4290TIP3   OH212833   1.171   1.527   1.094  0.7240 -0.0922  0.2828
 4290TIP3    H112834   1.201   1.559   1.179 -0.3499  1.8640  0.0016
 4290TIP3    H212835   1.250   1.489   1.054  1.7627  0.8725  1.3096
 4291TIP3   OH212836   5.647   3.595   2.995 -0.3327  0.0131 -0.5747
 4291TIP3    H112837   5.726   3.583   3.047 -1.3074 -1.9188  0.5573
 4291TIP3    H212838   5.675   3.580   2.905  0.4141 -1.7825 -0.0851
 4292TIP3   OH212839   0.535   6.633   1.428 -0.3909 -0.0464  0.2117
 4292TIP3    H112840   0.601   6.579   1.473 -1.0269  0.8260  2.3493
 4292TIP3    H212841   0.547   6.613   1.335  2.7555 -0.0720  0.5028
 4293TIP3   OH212842   1.793   1.253   4.022  0.0961  0.1768 -0.1997
 4293TIP3    H112843   1.826   1.237   4.111 -0.7373  1.1187  0.3021
 4293TIP3    H212844   1.770   1.167   3.989  3.0608 -0.5625 -0.6012
 4294TIP3   OH212845   1.345   1.442   1.691  0.2568 -0.5633 -0.3079
 4294TIP3    H112846   1.339   1.469   1.782  1.1657  0.0575 -0.4147
 4294TIP3    H212847   1.323   1.348   1.691 -0.8127 -0.3273  0.3780
 4295TIP3   OH212848   5.179   0.704   4.061  0.2229  0.1545 -0.1470
 4295TIP3    H112849   5.121   0.630   4.079 -1.1036  1.3256  0.6053
 4295TIP3    H212850   5.249   0.695   4.126  0.3306 -0.6850 -0.3662
 4296TIP3   OH212851   6.582   1.939   5.490  0.6581  0.2294 -0.7033
 4296TIP3    H112852   6.535   1.980   5.562 -2.8587 -2.7324 -1.0086
 4296TIP3    H212853   6.632   1.868   5.530 -1.2183 -1.3540 -1.0135
 4297TIP3   OH212854   5.207   0.471   4.769 -0.5687 -0.4254  0.4536
 4297TIP3    H112855   5.215   0.561   4.739 -1.5031 -0.0103  1.3704
 4297TIP3    H212856   5.202   0.478   4.865 -0.1732 -1.4904  0.5703
 4298TIP3   OH212857   7.076   1.062   5.317  0.1310  0.0632 -0.5853
 4298TIP3    H112858   7.011   1.117   5.273  0.4633  0.6291 -0.3778
 4298TIP3    H212859   7.103   0.999   5.250 -0.7486 -0.2874 -0.6245
 4299TIP3   OH212860   6.586   3.838   1.733  0.0407 -0.3154 -0.7235
 4299TIP3    H112861   6.534   3.800   1.662 -0.1603 -1.4425 -0.0121
 4299TIP3    H212862   6.618   3.762   1.782  0.8456  0.4190 -0.0834
 4300TIP3   OH212863   4.096   2.693   2.710 -0.5281 -0.2199  0.3834
 4300TIP3    H112864   4.096   2.784   2.741  0.8677  0.0139 -0.2188
 4300TIP3    H212865   4.177   2.656   2.745  0.2587 -0.4393 -1.5653
 4301TIP3   OH212866   6.100   5.892   0.356 -0.2146  0.1326 -0.6860
 4301TIP3    H112867   6.028   5.843   0.317 -0.6553  0.7048 -0.6057
 4301TIP3    H212868   6.110   5.968   0.299 -0.4292  0.6347 -0.0662
 4302TIP3   OH212869   0.050   4.758   5.561  0.5516  0.1372 -0.4786
 4302TIP3    H112870  -0.004   4.734   5.486  0.3180  1.0352 -0.6177
 4302TIP3    H212871   0.110   4.684   5.574 -0.8563 -0.9851 -0.1700
 4303TIP3   OH212872   4.727   6.229   5.300  0.4736 -0.1001  0.1047
 4303TIP3    H112873   4.751   6.244   5.208  0.4996 -0.8467 -0.0198
 4303TIP3    H212874   4.784   6.287   5.350  0.3595  0.4223 -0.3551
 4304TIP3   OH212875   3.448   4.839   5.019  0.0872 -0.0932  0.0934
 4304TIP3    H112876   3.394   4.900   4.968  0.6780 -0.5935 -1.1857
 4304TIP3    H212877   3.495   4.895   5.080  2.3658  1.1522 -2.5518
 4305TIP3   OH212878   0.587   4.995   3.087  0.7808 -0.6762  0.1077
 4305TIP3    H112879   0.552   4.982   3.175  1.3398  0.8377  0.5661
 4305TIP3    H212880   0.608   5.088   3.082  5.0135 -1.4447 -0.0083
 4306TIP3   OH212881   4.246   5.988   3.983  0.7887 -0.1692  0.5227
 4306TIP3    H112882   4.309   5.931   3.940  1.8376 -0.1718  1.9908
 4306TIP3    H212883   4.222   6.053   3.917  0.2816 -1.7218 -0.8837
 4307TIP3   OH212884   4.817   0.387   4.268 -0.3337  0.7671  0.0108
 4307TIP3    H112885   4.829   0.352   4.356  0.1055  2.4716  0.6615
 4307TIP3    H212886   4.725   0.410   4.264 -0.3392  0.7505  0.0433
 4308TIP3   OH212887   0.578   5.203   3.286 -0.1831  0.2005 -0.0096
 4308TIP3    H112888   0.653   5.191   3.344  0.0776 -2.0637 -0.7045
 4308TIP3    H212889   0.502   5.190   3.342 -0.0813  1.7648  0.5423
 4309TIP3   OH212890   3.628   3.839   3.218 -0.0412  0.7761 -0.0761
 4309TIP3    H112891   3.698   3.878   3.269 -0.9746  0.2243  1.7367
 4309TIP3    H212892   3.566   3.805   3.284 -0.6076 -1.2903 -1.5476
 4310TIP3   OH212893   6.627   1.596   2.454 -0.0179 -0.1733  0.3145
 4310TIP3    H112894   6.532   1.588   2.458 -0.0324 -0.1169  0.0606
 4310TIP3    H212895   6.654   1.613   2.544 -0.2471 -0.1989  0.3865
 4311TIP3   OH212896   1.989   3.713   5.596 -0.0825  0.0477 -0.5215
 4311TIP3    H112897   2.076   3.695   5.631 -0.0231  0.0276 -0.6799
 4311TIP3    H212898   1.966   3.799   5.630 -0.1124 -0.0600 -0.2608
 4312TIP3   OH212899   0.432   0.376   5.739  0.1668 -0.4908  0.1122
 4312TIP3    H112900   0.493   0.386   5.666  1.1722 -0.8079  0.8817
 4312TIP3    H212901   0.410   0.283   5.739 -1.4184 -0.1507 -0.9958
 4313TIP3   OH212902   3.155   4.155   1.861 -0.3541 -0.4238  0.3094
 4313TIP3    H112903   3.202   4.120   1.937 -0.7958  0.3739  0.9810
 4313TIP3    H212904   3.186   4.246   1.854 -0.7186 -0.3292 -0.1295
 4314TIP3   OH212905   1.342   5.563   2.391  0.4154 -0.4111  0.0205
 4314TIP3    H112906   1.282   5.492   2.415  3.0076 -2.2389  1.6430
 4314TIP3    H212907   1.351   5.554   2.296 -0.1692 -1.5241  0.0445
 4315TIP3   OH212908   5.012   5.973   0.861 -0.5230 -0.1494  0.2853
 4315TIP3    H112909   4.923   6.007   0.871  0.4110  2.5199  0.3830
 4315TIP3    H212910   5.068   6.051   0.866  1.7211 -1.5248 -1.5220
 4316TIP3   OH212911   1.372   2.594   0.272 -0.3075  0.5039 -0.4157
 4316TIP3    H112912   1.322   2.675   0.261 -1.8489 -0.2960  0.4271
 4316TIP3    H212913   1.433   2.594   0.198 -1.8201  1.3289 -1.7201
 4317TIP3   OH212914   2.213   0.853   2.082 -0.2376 -0.1041 -0.3873
 4317TIP3    H112915   2.288   0.912   2.079 -0.3602  0.2691  2.0559
 4317TIP3    H212916   2.238   0.785   2.144 -1.8711 -0.0210  0.4029
 4318TIP3   OH212917   6.540   0.790   5.830 -0.0155 -0.0919  0.0900
 4318TIP3    H112918   6.482   0.715   5.819 -1.2950  1.2312 -3.6916
 4318TIP3    H212919   6.626   0.758   5.803 -0.6226 -0.1880 -1.8418
 4319TIP3   OH212920   7.109   4.671   1.414 -0.0543 -0.5110  0.0043
 4319TIP3    H112921   7.153   4.743   1.369  0.8148 -0.0522  1.4876
 4319TIP3    H212922   7.018   4.675   1.385 -0.0470  1.2769  0.1519
 4320TIP3   OH212923   1.843   2.380   1.189 -0.0674  0.2259  0.2179
 4320TIP3    H112924   1.843   2.317   1.116  0.3338 -0.1037  0.4983
 4320TIP3    H212925   1.763   2.361   1.237  0.4817 -0.6654  0.8018
 4321TIP3   OH212926   1.326   0.787   5.308 -0.7768  0.2591  0.0585
 4321TIP3    H112927   1.273   0.824   5.378 -2.7364 -0.3527 -1.0196
 4321TIP3    H212928   1.285   0.703   5.289  2.7857 -2.0500  1.5871
 4322TIP3   OH212929   4.858   4.529   1.779  0.1897 -0.3772  0.0512
 4322TIP3    H112930   4.852   4.434   1.782  0.3700 -0.4142 -0.6277
 4322TIP3    H212931   4.813   4.553   1.698 -1.4705  0.2556  1.0917
 4323TIP3   OH212932   5.883   1.323   0.656  0.1774 -0.4865  0.6853
 4323TIP3    H112933   5.950   1.265   0.693  0.1136 -1.8790 -1.2060
 4323TIP3    H212934   5.927   1.367   0.583  0.2104  1.9096  2.0539
 4324TIP3   OH212935   6.970   2.045   3.394 -0.1160  0.2164 -0.5793
 4324TIP3    H112936   7.047   2.008   3.351 -0.1976 -0.5099 -0.1210
 4324TIP3    H212937   6.970   2.006   3.482 -1.2495 -0.1396 -0.7184
 4325TIP3   OH212938   3.025   6.644   5.700  0.6038 -0.4939 -0.2379
 4325TIP3    H112939   2.960   6.577   5.678  0.0873  0.5567 -2.1740
 4325TIP3    H212940   2.982   6.727   5.680  1.8038  0.3435  0.5080
 4326TIP3   OH212941   7.153   6.319   4.575 -0.0984  0.3576 -0.4461
 4326TIP3    H112942   7.171   6.250   4.511 -0.2008 -0.6563  0.5822
 4326TIP3    H212943   7.062   6.305   4.600 -0.0835  0.7981 -0.1334
 4327TIP3   OH212944   3.189   5.457   3.301  0.3697 -0.2281  0.3805
 4327TIP3    H112945   3.133   5.379   3.299  0.0792 -0.0187 -0.0006
 4327TIP3    H212946   3.248   5.446   3.226  0.8379 -0.4485  0.7836
 4328TIP3   OH212947   7.200   2.284   3.530 -0.0712 -0.2262 -0.0846
 4328TIP3    H112948   7.166   2.256   3.445  0.2775 -0.4094 -0.1692
 4328TIP3    H212949   7.234   2.203   3.569  0.9905  0.0769 -0.3458
 4329TIP3   OH212950   3.222   5.041   4.656  0.1689 -0.1701  0.2839
 4329TIP3    H112951   3.181   4.954   4.654 -0.3610  0.0810  0.1755
 4329TIP3    H212952   3.150   5.101   4.673  0.8191  0.0823  2.5232
 4330TIP3   OH212953   3.706   3.022   4.971  0.3987  0.6598  0.5006
 4330TIP3    H112954   3.654   3.092   5.010 -0.6373  2.0367 -2.9299
 4330TIP3    H212955   3.792   3.062   4.957  0.1041  0.9878 -0.5253
 4331TIP3   OH212956   1.108   0.142   1.281  0.1684  0.1082  0.5165
 4331TIP3    H112957   1.189   0.118   1.326  0.3624 -1.5056 -0.6117
 4331TIP3    H212958   1.039   0.125   1.344  0.6007  0.1658  1.0082
 4332TIP3   OH212959   4.337   6.404   5.554 -0.0161  0.3780 -0.2297
 4332TIP3    H112960   4.341   6.495   5.524 -0.2238  0.2449 -0.6781
 4332TIP3    H212961   4.370   6.354   5.480  1.1251  0.1640  0.4114
 4333TIP3   OH212962   3.429   0.964   3.127 -0.7789  0.7753 -0.1906
 4333TIP3    H112963   3.512   0.973   3.174 -0.6326 -0.4633 -0.1736
 4333TIP3    H212964   3.442   0.888   3.070 -2.6583 -0.9588  1.5331
 4334TIP3   OH212965   0.950   5.256   4.925 -0.3765  0.1475  0.0201
 4334TIP3    H112966   0.909   5.184   4.875  1.1153 -0.3913 -0.4715
 4334TIP3    H212967   1.028   5.218   4.963  1.1681  1.7961 -1.3046
 4335TIP3   OH212968   6.437   6.650   3.482  0.3483  0.0114 -0.0283
 4335TIP3    H112969   6.415   6.738   3.452 -1.8836 -1.0185 -1.6123
 4335TIP3    H212970   6.515   6.663   3.537 -0.7144  3.1323  0.9575
 4336TIP3   OH212971   2.167   0.587   4.565  0.1925 -0.3816  0.1552
 4336TIP3    H112972   2.128   0.609   4.481  2.1962 -1.3720 -1.0915
 4336TIP3    H212973   2.148   0.494   4.578  0.2451 -0.3324  0.6173
 4337TIP3   OH212974   1.187   4.240   3.585  0.4178  0.4822 -0.9621
 4337TIP3    H112975   1.171   4.153   3.548  1.8047  0.1906 -0.9336
 4337TIP3    H212976   1.253   4.279   3.528  1.0207  0.8602 -0.0368
 4338TIP3   OH212977   6.681   1.167   4.486 -0.3844 -0.1154  0.0628
 4338TIP3    H112978   6.591   1.189   4.462 -0.5311 -1.4639 -0.6948
 4338TIP3    H212979   6.711   1.110   4.416  0.4024 -1.2472  1.2797
 4339TIP3   OH212980   7.101   5.429   4.421 -0.2970  0.1756  0.2794
 4339TIP3    H112981   7.100   5.434   4.326  2.3680  0.3924  0.1917
 4339TIP3    H212982   7.123   5.517   4.450 -0.2705 -0.0750  1.0493
 4340TIP3   OH212983   5.041   1.352   4.025  0.6868 -0.1297  0.2032
 4340TIP3    H112984   4.963   1.376   3.976  1.4280  1.5800 -0.2013
 4340TIP3    H212985   5.013   1.280   4.081 -0.5604 -1.1161 -1.6197
 4341TIP3   OH212986   1.217   0.456   4.146  0.2862 -0.4811 -0.2355
 4341TIP3    H112987   1.236   0.540   4.103  0.8310 -0.4238  0.1124
 4341TIP3    H212988   1.131   0.431   4.112 -0.0694  0.4211 -0.0238
 4342TIP3   OH212989   1.033   6.096   5.910  0.2026 -0.0201 -0.0978
 4342TIP3    H112990   0.939   6.108   5.921  0.2431  0.3909 -0.1929
 4342TIP3    H212991   1.046   6.098   5.815  0.1006 -1.6666 -0.1738
 4343TIP3   OH212992   4.765   4.737   3.799 -0.5976  0.2694  0.3243
 4343TIP3    H112993   4.774   4.664   3.737  0.0740  0.6020  0.0177
 4343TIP3    H212994   4.687   4.716   3.850 -0.4743 -0.6062  0.1618
 4344TIP3   OH212995   0.506   4.647   1.304  0.1249  0.2710 -0.1214
 4344TIP3    H112996   0.425   4.654   1.254 -0.0978 -0.6313  0.0949
 4344TIP3    H212997   0.491   4.701   1.382  0.5528  1.8537 -1.0795
 4345TIP3   OH212998   2.318   0.822   0.938  0.1071  0.1644  0.1856
 4345TIP3    H112999   2.231   0.790   0.962  0.3948  0.4949  1.7995
 4345TIP3    H213000   2.326   0.906   0.984  1.9805 -0.7368  1.6470
 4346TIP3   OH213001   2.431   1.733   1.496 -0.3193  0.0053 -0.3210
 4346TIP3    H113002   2.492   1.665   1.467  1.1203  1.5832 -1.1955
 4346TIP3    H213003   2.479   1.782   1.562 -0.4337  1.5419 -1.3221
 4347TIP3   OH213004   1.249   3.779   4.769 -0.2340 -0.2546  0.4584
 4347TIP3    H113005   1.189   3.714   4.806 -0.4975 -0.5070 -0.3802
 4347TIP3    H213006   1.307   3.802   4.841  1.8504 -3.6659  0.0481
 4348TIP3   OH213007   5.401   4.622   1.949 -0.0625  0.0967 -0.2070
 4348TIP3    H113008   5.454   4.701   1.958  0.1349 -0.1476  1.0205
 4348TIP3    H213009   5.325   4.638   2.006  1.0870 -1.4664  1.9178
 4349TIP3   OH213010   1.040   6.684   0.726 -0.3117 -0.6039 -0.5959
 4349TIP3    H113011   1.128   6.712   0.700  0.1278 -1.3652  0.0288
 4349TIP3    H213012   1.055   6.618   0.794 -1.3850 -0.3530 -0.1037
 4350TIP3   OH213013   2.628   1.567   5.270  0.9863  0.4974 -0.2959
 4350TIP3    H113014   2.698   1.618   5.310  0.2584  1.5241 -0.2929
 4350TIP3    H213015   2.631   1.482   5.314  2.8368  0.1637 -0.9631
 4351TIP3   OH213016   6.473   4.524   3.662  0.1906 -0.0044 -0.0545
 4351TIP3    H113017   6.422   4.597   3.627  0.5211  0.2770  0.0447
 4351TIP3    H213018   6.478   4.462   3.589  0.2802  0.2664 -0.2820
 4352TIP3   OH213019   7.110   5.784   5.615  0.8242 -0.3165  0.1539
 4352TIP3    H113020   7.150   5.866   5.643  0.1134  0.0084  0.2518
 4352TIP3    H213021   7.169   5.716   5.647  1.3540  0.1526  0.1802
 4353TIP3   OH213022   6.828   1.389   5.406 -0.1482  0.5942  0.3072
 4353TIP3    H113023   6.743   1.351   5.429  0.0855  0.6398  1.2559
 4353TIP3    H213024   6.865   1.327   5.343 -0.2892 -0.1356  0.9286
 4354TIP3   OH213025   6.500   5.241   4.592 -0.1902 -0.3095  0.0094
 4354TIP3    H113026   6.406   5.228   4.610 -0.0839 -1.0192  0.0883
 4354TIP3    H213027   6.537   5.266   4.676 -0.6565  2.2021 -0.4471
 4355TIP3   OH213028   4.871   6.484   4.853 -0.5067 -0.2404  0.3156
 4355TIP3    H113029   4.835   6.572   4.848 -0.4222 -0.2552 -0.8518
 4355TIP3    H213030   4.797   6.427   4.832 -0.9724 -0.5814  2.6170
 4356TIP3   OH213031   5.522   5.380   2.108 -0.3657  0.5821  0.6448
 4356TIP3    H113032   5.448   5.408   2.162 -0.1838  0.6249  0.8716
 4356TIP3    H213033   5.523   5.441   2.034 -1.2165 -0.0706  0.0705
 4357TIP3   OH213034   3.689   2.177   4.434  0.3978 -0.2140  0.0714
 4357TIP3    H113035   3.651   2.173   4.346  0.1886  0.7615  0.1059
 4357TIP3    H213036   3.696   2.271   4.453 -0.2684 -0.4122  1.3917
 4358TIP3   OH213037   3.840   1.953   3.365  0.0179 -0.1624  0.1260
 4358TIP3    H113038   3.917   1.977   3.313  0.0838 -0.0098  0.2912
 4358TIP3    H213039   3.845   1.858   3.375  1.8665  0.1179  2.7304
 4359TIP3   OH213040   5.254   1.488   5.121  0.1543 -0.4902  0.2704
 4359TIP3    H113041   5.209   1.422   5.174  0.6964 -1.5619 -0.5605
 4359TIP3    H213042   5.261   1.448   5.034 -1.3384  1.4980 -0.8531
 4360TIP3   OH213043   6.030   5.632   2.139  0.0949  0.5078  0.1432
 4360TIP3    H113044   6.071   5.717   2.156  0.7749  0.4812 -1.2222
 4360TIP3    H213045   6.095   5.567   2.166  0.8014  0.4635 -1.5357
 4361TIP3   OH213046   3.590   5.537   5.698 -0.0727  0.1493 -0.0506
 4361TIP3    H113047   3.500   5.516   5.675 -0.0059 -0.3485  0.1239
 4361TIP3    H213048   3.588   5.550   5.793  0.2783 -1.2015  0.1631
 4362TIP3   OH213049   4.162   4.030   4.875  0.2811 -0.6185 -0.0853
 4362TIP3    H113050   4.166   4.108   4.820 -0.5713 -0.5985 -0.1332
 4362TIP3    H213051   4.236   3.977   4.846 -0.0804 -0.5552 -1.1897
 4363TIP3   OH213052   0.917   6.436   0.658 -0.3041 -0.2884 -0.6171
 4363TIP3    H113053   0.827   6.445   0.688 -0.1873  0.2409 -0.4148
 4363TIP3    H213054   0.948   6.526   0.649  1.4495 -0.3458  3.0910
 4364TIP3   OH213055   0.942   1.126   4.097 -0.2935  0.7621 -0.3084
 4364TIP3    H113056   0.899   1.179   4.029 -1.9990  0.6686  0.6537
 4364TIP3    H213057   1.010   1.183   4.132 -1.4993  2.0125  0.0841
 4365TIP3   OH213058   2.562   4.794   4.476  0.4382  0.1681  0.7367
 4365TIP3    H113059   2.654   4.770   4.485  0.1941 -1.2470 -0.2308
 4365TIP3    H213060   2.514   4.717   4.508 -0.3717 -0.4128 -1.6974
 4366TIP3   OH213061   6.415   6.797   3.063 -0.1097  0.1732  0.2535
 4366TIP3    H113062   6.351   6.725   3.064  0.6122 -0.4898  1.2807
 4366TIP3    H213063   6.379   6.860   3.001 -1.9060 -0.0615  0.9882
 4367TIP3   OH213064   6.709   3.738   2.852  0.4038  0.1332 -0.4492
 4367TIP3    H113065   6.748   3.812   2.898 -0.4927  0.3718 -0.0473
 4367TIP3    H213066   6.653   3.696   2.917  0.3042 -0.4408 -0.8959
 4368TIP3   OH213067   1.314   5.354   3.993 -0.3749  0.0051  0.1210
 4368TIP3    H113068   1.340   5.413   3.922 -0.9485  0.1443  0.0216
 4368TIP3    H213069   1.375   5.373   4.064 -0.0272  0.1248 -0.2106
 4369TIP3   OH213070   0.870   1.349   3.947  0.2995 -0.2616  0.3929
 4369TIP3    H113071   0.961   1.361   3.975  0.1554  2.6600 -0.1126
 4369TIP3    H213072   0.832   1.437   3.950 -1.5558 -0.8132 -2.6069
 4370TIP3   OH213073   6.474   5.491   3.201 -0.3080  0.2231 -0.1629
 4370TIP3    H113074   6.441   5.401   3.202  0.8127 -0.2065  0.7282
 4370TIP3    H213075   6.490   5.512   3.293 -0.3596  1.2608 -0.3806
 4371TIP3   OH213076   3.186   2.340   0.780 -0.7866 -0.1417 -0.0545
 4371TIP3    H113077   3.261   2.397   0.800 -0.8825  0.4035 -1.1689
 4371TIP3    H213078   3.135   2.339   0.860  1.3713 -2.0899  1.4334
 4372TIP3   OH213079   1.893   1.893   2.356  0.1429  0.2762 -0.2362
 4372TIP3    H113080   1.968   1.951   2.361  0.0702  0.2712  2.9082
 4372TIP3    H213081   1.819   1.950   2.336  0.4631  0.8547  0.2057
 4373TIP3   OH213082   2.021   1.367   3.888  0.6647  0.4005 -0.5895
 4373TIP3    H113083   2.007   1.433   3.955  2.4360 -0.1395  0.3879
 4373TIP3    H213084   1.970   1.291   3.918  1.1025  0.3088 -0.0578
 4374TIP3   OH213085   4.413   5.341   2.466  0.0801 -0.6333 -0.2367
 4374TIP3    H113086   4.383   5.424   2.428  1.6094 -0.2472 -0.6762
 4374TIP3    H213087   4.369   5.274   2.415 -2.9279 -0.1690  1.5159
 4375TIP3   OH213088   5.053   0.178   1.348  0.0732  0.4880  0.0186
 4375TIP3    H113089   5.057   0.089   1.382 -1.5236  0.4943  0.3006
 4375TIP3    H213090   5.139   0.193   1.309  0.8951 -0.6202  1.3192
 4376TIP3   OH213091   6.561   1.948   5.819  0.2059  0.4229  0.0021
 4376TIP3    H113092   6.470   1.929   5.844 -0.0355 -0.3572 -1.3860
 4376TIP3    H213093   6.554   2.012   5.749  0.6747 -0.2165 -0.6459
 4377TIP3   OH213094   4.353   0.018   1.421  0.3628 -0.1929  0.2193
 4377TIP3    H113095   4.274   0.043   1.373  1.1611 -2.0690 -2.3057
 4377TIP3    H213096   4.322  -0.027   1.499 -1.0142  1.6536  0.7963
 4378TIP3   OH213097   6.966   6.535   4.193  0.0124  0.4614 -0.3625
 4378TIP3    H113098   7.019   6.511   4.117  1.3156  0.4571  0.5121
 4378TIP3    H213099   6.885   6.485   4.183 -0.2997  1.2782 -2.2869
 4379TIP3   OH213100   4.061   4.143   1.137 -0.3344  0.3513  0.1097
 4379TIP3    H113101   4.003   4.118   1.209 -0.6530  0.1485 -0.2202
 4379TIP3    H213102   4.056   4.071   1.075 -0.4355  0.7455 -0.3493
 4380TIP3   OH213103   4.648   0.872   3.963 -0.0771 -0.4968  0.3304
 4380TIP3    H113104   4.574   0.933   3.968 -1.0454 -1.4008 -1.5024
 4380TIP3    H213105   4.646   0.825   4.046  0.4627  1.6311  1.6384
 4381TIP3   OH213106   6.052   4.026   5.386 -0.0670 -0.5772 -0.1061
 4381TIP3    H113107   6.011   4.081   5.320 -2.6287 -0.2366  1.6008
 4381TIP3    H213108   6.003   3.943   5.382 -1.0694 -0.1589  2.0157
 4382TIP3   OH213109   6.515   0.832   3.775  0.3321  0.1064 -0.5027
 4382TIP3    H113110   6.420   0.838   3.767  0.3125  0.7128  0.0814
 4382TIP3    H213111   6.548   0.852   3.687 -0.0624  0.6034 -0.5422
 4383TIP3   OH213112   5.578   2.828   2.273 -0.0808 -0.2503  1.0373
 4383TIP3    H113113   5.549   2.917   2.252 -1.7603 -1.0322 -0.1998
 4383TIP3    H213114   5.500   2.787   2.310 -0.0330 -1.8671 -0.5339
 4384TIP3   OH213115   4.965   5.502   1.528 -0.5629 -0.5234 -0.2739
 4384TIP3    H113116   4.897   5.552   1.573 -0.7157  0.8146 -1.8599
 4384TIP3    H213117   5.044   5.515   1.580 -0.1694  2.9570 -1.5015
 4385TIP3   OH213118   6.589   1.032   1.252 -0.3646  0.1767  0.4553
 4385TIP3    H113119   6.534   1.095   1.204 -0.4374 -0.4768 -0.3523
 4385TIP3    H213120   6.532   0.956   1.263  0.1713 -0.2710  0.1670
 4386TIP3   OH213121   0.032   0.665   1.000  0.0951  0.6084  0.0755
 4386TIP3    H113122  -0.053   0.651   1.042 -1.5562 -0.5408 -3.2854
 4386TIP3    H213123   0.061   0.578   0.975  2.5759  0.9396  1.5007
 4387TIP3   OH213124   5.738   4.499   4.736  0.5196  0.3633 -0.0702
 4387TIP3    H113125   5.714   4.497   4.828  2.7555  1.1651  0.5871
 4387TIP3    H213126   5.775   4.413   4.718 -1.4416 -0.3997 -0.7293
 4388TIP3   OH213127   2.881   5.115   5.501  0.3571  0.4483 -0.4659
 4388TIP3    H113128   2.905   5.068   5.581  2.1022  1.6506 -0.2069
 4388TIP3    H213129   2.798   5.077   5.474 -0.8236  0.6504  2.4731
 4389TIP3   OH213130   3.644   0.542   2.754  0.0644  0.7103  0.4262
 4389TIP3    H113131   3.620   0.634   2.748  0.2056  0.8311  1.4260
 4389TIP3    H213132   3.564   0.498   2.782 -0.4148  0.2832 -1.5198
 4390TIP3   OH213133   0.794   1.624   3.984 -0.3264  0.2155  0.3692
 4390TIP3    H113134   0.769   1.716   3.977  0.8931  0.5467  0.1856
 4390TIP3    H213135   0.812   1.611   4.077  1.1696  0.6395  0.1659
 4391TIP3   OH213136   6.803   1.510   1.497 -0.0221  0.4232  0.3560
 4391TIP3    H113137   6.884   1.557   1.477 -0.9342  1.5417 -0.9879
 4391TIP3    H213138   6.752   1.572   1.549 -0.6611  0.4088 -0.2271
 4392TIP3   OH213139   5.338   5.125   0.762 -0.8057  0.0004 -0.0937
 4392TIP3    H113140   5.413   5.066   0.760 -0.4437  0.4704 -0.8901
 4392TIP3    H213141   5.367   5.199   0.816 -0.1531  0.8614 -1.5713
 4393TIP3   OH213142   0.527   4.592   2.827 -0.3012 -0.8633 -0.1203
 4393TIP3    H113143   0.611   4.603   2.782 -1.0209  1.1216 -1.1205
 4393TIP3    H213144   0.546   4.531   2.898  2.7170  1.4940  1.3802
 4394TIP3   OH213145   0.449   5.552   0.374 -0.2782  0.3358 -0.5888
 4394TIP3    H113146   0.524   5.600   0.409  0.2476 -0.1081 -1.1087
 4394TIP3    H213147   0.485   5.469   0.343 -1.2821 -0.6880  0.8792
 4395TIP3   OH213148   6.943   0.507   5.225  0.3306  0.3942  0.0551
 4395TIP3    H113149   6.971   0.568   5.293  1.2751 -0.4686  0.4775
 4395TIP3    H213150   6.985   0.424   5.249  0.4366 -0.0054 -1.4068
 4396TIP3   OH213151   3.200   4.643   2.651 -0.2035  0.2783 -0.5822
 4396TIP3    H113152   3.269   4.636   2.717  0.2045 -2.6069 -1.1827
 4396TIP3    H213153   3.241   4.611   2.571 -1.7705  0.0996 -1.3377
 4397TIP3   OH213154   3.839   3.135   5.496  0.3662 -0.0017 -0.1605
 4397TIP3    H113155   3.908   3.132   5.562  1.0746  1.8076 -0.7310
 4397TIP3    H213156   3.757   3.138   5.545  0.7935 -0.3307  0.5777
 4398TIP3   OH213157   0.673   4.489   5.792 -0.7358  0.0244  0.2789
 4398TIP3    H113158   0.585   4.519   5.768 -1.1380 -1.3390 -0.0422
 4398TIP3    H213159   0.716   4.469   5.709 -0.7422 -0.9472  0.4920
 4399TIP3   OH213160   3.225   5.633   0.999  0.2108 -0.1123  0.0867
 4399TIP3    H113161   3.197   5.546   0.969 -0.6481 -0.0723  0.7286
 4399TIP3    H213162   3.143   5.679   1.017  0.6653  0.7510 -0.0105
 4400TIP3   OH213163   2.087   2.106   1.611  0.0101 -0.1062  0.8140
 4400TIP3    H113164   2.143   2.035   1.640 -1.5362 -2.3130 -1.2803
 4400TIP3    H213165   1.998   2.073   1.623 -0.7714  1.5968  0.0761
 4401TIP3   OH213166   2.264   2.419   2.838 -0.1301  0.2068 -0.1300
 4401TIP3    H113167   2.211   2.357   2.887  0.4616  1.0149  1.6066
 4401TIP3    H213168   2.322   2.365   2.785 -0.1006 -0.7082  0.8199
 4402TIP3   OH213169   3.191   0.694   5.416  0.1410  0.3951  0.0178
 4402TIP3    H113170   3.206   0.773   5.364 -1.9178 -0.8612 -2.7780
 4402TIP3    H213171   3.268   0.639   5.399 -0.1724  0.3009 -1.2125
 4403TIP3   OH213172   4.921   6.755   4.292  0.8996 -0.0761 -0.5950
 4403TIP3    H113173   4.909   6.683   4.354  1.4280  0.5662  0.2734
 4403TIP3    H213174   4.842   6.807   4.299  0.2465 -0.8701 -1.6686
 4404TIP3   OH213175   4.835   2.476   0.397  0.1443  0.5314 -0.7992
 4404TIP3    H113176   4.789   2.557   0.419 -1.1813 -0.6538  1.1301
 4404TIP3    H213177   4.766   2.413   0.376  1.0943 -0.3556 -1.4289
 4405TIP3   OH213178   1.020   4.786   2.612 -0.6751 -0.4316 -0.2767
 4405TIP3    H113179   0.961   4.760   2.682 -0.8275 -0.4576 -0.4143
 4405TIP3    H213180   0.992   4.874   2.587 -1.2544 -0.8021 -0.9738
 4406TIP3   OH213181   1.765   3.215   2.265 -0.2422 -0.6722 -0.1774
 4406TIP3    H113182   1.692   3.189   2.320 -0.0570 -1.3560 -0.2406
 4406TIP3    H213183   1.740   3.300   2.229 -2.2886 -2.0768 -2.4259
 4407TIP3   OH213184   1.550   0.531   4.061 -0.4842 -0.1322  0.8407
 4407TIP3    H113185   1.554   0.621   4.028  0.9379 -0.1604  0.8573
 4407TIP3    H213186   1.570   0.477   3.985  1.3927 -0.2658  1.3643
 4408TIP3   OH213187   2.276   0.182   5.512  0.1565  0.3146 -0.2442
 4408TIP3    H113188   2.370   0.194   5.525 -0.1654  0.2319  3.0954
 4408TIP3    H213189   2.250   0.122   5.582 -1.9125 -2.4245 -3.0728
 4409TIP3   OH213190   6.068   5.299   1.605 -0.7845 -0.2782 -0.0080
 4409TIP3    H113191   6.042   5.279   1.694 -0.6160  0.6306  0.2574
 4409TIP3    H213192   5.998   5.263   1.550 -0.9580 -0.7084  0.4924
 4410TIP3   OH213193   5.828   3.566   5.500  0.0737 -0.3414 -0.2766
 4410TIP3    H113194   5.854   3.477   5.476  2.6133 -0.1813  1.4779
 4410TIP3    H213195   5.741   3.555   5.540 -0.6197 -1.6630 -1.9688
 4411TIP3   OH213196   3.330   4.941   3.192 -0.3830  0.4073  0.2765
 4411TIP3    H113197   3.268   4.935   3.264 -0.8604 -1.6004 -0.2332
 4411TIP3    H213198   3.277   4.964   3.116 -0.3423 -0.2116  0.0548
 4412TIP3   OH213199   4.882   4.665   0.195 -0.5894  0.1159  0.7927
 4412TIP3    H113200   4.810   4.672   0.133  0.2118  2.1389 -0.0186
 4412TIP3    H213201   4.862   4.588   0.248 -1.7617 -1.1755 -1.3890
 4413TIP3   OH213202   6.809   2.838   0.539 -0.3682 -0.3862 -0.1362
 4413TIP3    H113203   6.764   2.857   0.457 -0.9562  0.4676  0.3640
 4413TIP3    H213204   6.806   2.921   0.587  1.8072 -0.2708 -0.1101
 4414TIP3   OH213205   4.373   4.995   2.523 -0.1181 -0.3470 -0.5501
 4414TIP3    H113206   4.328   5.044   2.592  2.6456  1.4491  0.1391
 4414TIP3    H213207   4.340   5.033   2.441 -0.2297  0.5634 -0.0914
 4415TIP3   OH213208   0.655   6.569   2.506 -0.1946  0.1584  0.4217
 4415TIP3    H113209   0.691   6.485   2.480 -0.1952  1.0786 -2.9107
 4415TIP3    H213210   0.595   6.548   2.579 -1.6909 -3.0480 -1.5339
 4416TIP3   OH213211   1.120   4.442   5.038 -0.1951  0.4275  0.0905
 4416TIP3    H113212   1.150   4.443   4.947  0.1087 -1.9186  0.0986
 4416TIP3    H213213   1.039   4.391   5.036 -0.6213  1.0309  1.0483
 4417TIP3   OH213214   2.399   0.841   5.048  0.6098 -0.2572  0.3710
 4417TIP3    H113215   2.338   0.862   4.978  0.8175  0.0936  0.2877
 4417TIP3    H213216   2.416   0.747   5.039  1.0615 -0.1077 -0.3949
 4418TIP3   OH213217   1.709   0.844   0.222 -0.7977  0.0559 -0.2364
 4418TIP3    H113218   1.729   0.792   0.300  0.0956  2.2561  1.0855
 4418TIP3    H213219   1.614   0.837   0.212 -0.7766 -1.2440  0.2950
 4419TIP3   OH213220   4.826   3.100   4.435  0.2261 -0.0607 -0.1540
 4419TIP3    H113221   4.819   3.064   4.347  1.9489  2.2529 -1.3475
 4419TIP3    H213222   4.920   3.095   4.455 -0.0832 -0.1357  1.3745
 4420TIP3   OH213223   0.219   4.919   3.667  0.0537 -0.3931 -0.0947
 4420TIP3    H113224   0.130   4.890   3.690  0.6263 -1.2658  1.1260
 4420TIP3    H213225   0.265   4.839   3.642  0.5044  0.0492 -0.6899
 4421TIP3   OH213226   1.432   5.550   5.518  0.0530 -0.3220 -0.2527
 4421TIP3    H113227   1.421   5.513   5.431  0.4396 -0.8003 -0.0977
 4421TIP3    H213228   1.445   5.475   5.575  1.0920  0.0593  0.0279
 4422TIP3   OH213229   3.256   4.415   4.426  0.3100 -0.4879  0.3895
 4422TIP3    H113230   3.212   4.461   4.355  0.2632  0.0908  0.7818
 4422TIP3    H213231   3.310   4.482   4.468  0.2034 -0.7769  1.0034
 4423TIP3   OH213232   4.348   0.917   5.875  0.2926 -0.1663 -0.7048
 4423TIP3    H113233   4.427   0.943   5.923  0.2947 -2.0151  0.3895
 4423TIP3    H213234   4.348   0.972   5.797  2.7293 -0.1908 -0.7944
 4424TIP3   OH213235   1.245   5.304   1.622 -0.2161 -0.2988  0.0066
 4424TIP3    H113236   1.303   5.366   1.667 -0.3659  0.5199 -0.8929
 4424TIP3    H213237   1.176   5.286   1.686  0.4354 -0.4280  0.6882
 4425TIP3   OH213238   2.151   0.480   3.022  0.7011  0.2264  0.0134
 4425TIP3    H113239   2.068   0.432   3.020 -1.3358  3.4793 -0.0790
 4425TIP3    H213240   2.167   0.497   3.115  0.0653  1.4472 -0.0859
 4426TIP3   OH213241   4.156   1.363   2.679  0.2322 -0.4039  0.0391
 4426TIP3    H113242   4.234   1.418   2.685 -0.3935  0.4761  0.0919
 4426TIP3    H213243   4.189   1.281   2.640  1.6098 -0.9164  2.1272
 4427TIP3   OH213244   6.669   5.914   2.304 -0.3834  0.5852 -0.2390
 4427TIP3    H113245   6.589   5.889   2.350  0.6068  0.6212  1.5694
 4427TIP3    H213246   6.672   6.009   2.312 -0.0830  0.5711 -0.1948
 4428TIP3   OH213247   0.164   0.680   0.537 -0.7790  0.4948 -0.5155
 4428TIP3    H113248   0.128   0.707   0.621  1.2151  1.6728  0.0310
 4428TIP3    H213249   0.258   0.670   0.553 -0.6175 -1.1151 -2.1673
 4429TIP3   OH213250   5.841   6.822   3.493  0.2534  0.1875  0.2703
 4429TIP3    H113251   5.853   6.734   3.529  0.0520  0.4878  1.1172
 4429TIP3    H213252   5.882   6.820   3.407  0.0278 -0.8056  0.1783
 4430TIP3   OH213253   6.588   2.332   1.831 -0.1909 -0.2389  0.0971
 4430TIP3    H113254   6.550   2.295   1.910  0.3565 -0.5988  0.1932
 4430TIP3    H213255   6.531   2.407   1.810 -0.6047 -0.4178  0.5632
 4431TIP3   OH213256   2.133   4.672   3.945  0.0855  0.4608 -0.3790
 4431TIP3    H113257   2.101   4.649   4.032 -0.8504  3.3299  0.1232
 4431TIP3    H213258   2.091   4.608   3.887 -1.2277 -0.0043  1.0166
 4432TIP3   OH213259   7.166   6.116   4.339  0.0937  0.5378 -0.1018
 4432TIP3    H113260   7.126   6.029   4.333  0.7034  0.2306  0.1060
 4432TIP3    H213261   7.150   6.155   4.253  0.5641 -0.1322 -0.5115
 4433TIP3   OH213262   7.185   0.700   3.227 -0.0217 -1.2469  0.2691
 4433TIP3    H113263   7.127   0.757   3.277 -0.2692 -0.7411 -0.5746
 4433TIP3    H213264   7.273   0.722   3.258 -0.0735 -0.0685 -0.3627
 4434TIP3   OH213265   5.997   3.681   5.717 -0.6200  0.3005  0.3025
 4434TIP3    H113266   5.942   3.648   5.645  1.2823  0.1365 -1.1464
 4434TIP3    H213267   5.938   3.685   5.792 -2.6818  0.3872 -1.2343
 4435TIP3   OH213268   5.077   4.434   3.849  0.3213  0.0514 -0.3684
 4435TIP3    H113269   5.121   4.349   3.845 -2.0187 -1.5040  2.4960
 4435TIP3    H213270   4.992   4.418   3.808  0.1956  1.3076 -0.6286
 4436TIP3   OH213271   4.540   4.828   5.727 -0.3522  0.5710  0.2069
 4436TIP3    H113272   4.497   4.776   5.660 -0.2666  0.6875  0.0621
 4436TIP3    H213273   4.469   4.875   5.770 -0.2714  1.5078 -0.6718
 4437TIP3   OH213274   0.661   1.106   4.662 -0.4568 -0.3509 -0.1866
 4437TIP3    H113275   0.633   1.038   4.723 -4.5247  0.2368 -1.1046
 4437TIP3    H213276   0.634   1.188   4.705 -1.9741  0.1561 -1.9852
 4438TIP3   OH213277   1.789   2.336   2.365 -0.3364 -0.4606 -0.2155
 4438TIP3    H113278   1.714   2.350   2.422 -0.9815 -1.4929 -0.7786
 4438TIP3    H213279   1.809   2.423   2.330 -0.9752 -0.0987  0.2841
 4439TIP3   OH213280   6.302   4.921   1.566  0.4559 -0.3904 -0.1281
 4439TIP3    H113281   6.356   4.994   1.596  2.1740 -0.9061 -1.8264
 4439TIP3    H213282   6.350   4.842   1.594  0.5713 -0.8541 -1.5529
 4440TIP3   OH213283   3.710   0.709   4.401 -0.7711 -0.2839  0.1050
 4440TIP3    H113284   3.646   0.661   4.349  0.5882 -1.7405 -0.3262
 4440TIP3    H213285   3.719   0.794   4.358 -1.2092 -0.6837 -0.7883
 4441TIP3   OH213286   4.726   1.453   4.110 -0.5151  0.2354 -0.1318
 4441TIP3    H113287   4.648   1.504   4.088 -0.6024  0.1784  0.0435
 4441TIP3    H213288   4.771   1.441   4.027 -0.6585  0.3275 -0.2235
 4442TIP3   OH213289   2.174   2.815   1.095 -0.4975 -0.4027  0.0960
 4442TIP3    H113290   2.099   2.765   1.128 -0.2145 -0.2365  1.0310
 4442TIP3    H213291   2.205   2.765   1.020 -1.3064 -0.6832 -0.0584
 4443TIP3   OH213292   5.040   3.242   2.950 -0.0053  0.2773 -0.3888
 4443TIP3    H113293   5.045   3.295   3.030  0.6314 -0.6253  0.1799
 4443TIP3    H213294   5.125   3.255   2.908  0.3307 -0.6299 -0.0157
 4444TIP3   OH213295   0.554   4.705   0.158  0.3074  0.1267  0.2355
 4444TIP3    H113296   0.540   4.611   0.168 -1.4411  0.5654  2.5855
 4444TIP3    H213297   0.470   4.738   0.126  0.7645  0.9622 -0.1224
 4445TIP3   OH213298   4.907   6.045   0.042 -0.1218  0.2199  0.2492
 4445TIP3    H113299   4.852   6.123   0.042 -1.7453 -0.8262 -1.7034
 4445TIP3    H213300   4.966   6.057  -0.032  0.0808 -0.0871  0.3581
 4446TIP3   OH213301   5.240   2.850   2.112  0.1074 -0.3824 -0.2522
 4446TIP3    H113302   5.149   2.850   2.144  0.5411  0.3656  1.0851
 4446TIP3    H213303   5.251   2.765   2.071 -0.9103 -0.8905  0.4693
 4447TIP3   OH213304   0.444   0.970   5.010 -0.1781 -0.5701 -0.3362
 4447TIP3    H113305   0.447   0.976   4.915 -1.9549  1.5633 -0.3313
 4447TIP3    H213306   0.491   1.047   5.041  0.6854 -1.4162  0.5681
 4448TIP3   OH213307   2.509   3.493   3.148 -0.3160  0.2936  0.7261
 4448TIP3    H113308   2.423   3.518   3.182 -0.8583 -0.9086  0.3140
 4448TIP3    H213309   2.572   3.543   3.200 -1.1998 -0.0112  2.1280
 4449TIP3   OH213310   3.766   6.348   0.241  0.1001 -0.3704 -0.5147
 4449TIP3    H113311   3.716   6.425   0.215  0.9008  0.3189 -0.0723
 4449TIP3    H213312   3.744   6.281   0.176  0.2247  0.5704 -1.5481
 4450TIP3   OH213313   7.025   3.620   1.084 -0.5785  0.1219  0.1375
 4450TIP3    H113314   7.051   3.710   1.062 -1.5265  0.5106  0.5847
 4450TIP3    H213315   6.931   3.624   1.097 -0.7666 -1.1257 -0.6927
 4451TIP3   OH213316   6.190   3.612   4.983 -0.3908 -0.2371 -0.4315
 4451TIP3    H113317   6.162   3.603   5.074 -1.2240 -1.5104 -0.7935
 4451TIP3    H213318   6.118   3.656   4.939  0.2065  0.8099 -0.4034
 4452TIP3   OH213319   3.452   3.210   0.614  0.1149  0.5183 -0.3130
 4452TIP3    H113320   3.543   3.200   0.642 -0.3573  0.2232  1.2048
 4452TIP3    H213321   3.455   3.200   0.518  1.2452 -3.0839 -0.0448
 4453TIP3   OH213322   4.718   3.089   4.034 -0.0232 -0.0629 -0.0830
 4453TIP3    H113323   4.660   3.164   4.029  0.6477  0.7898  2.8387
 4453TIP3    H213324   4.686   3.038   4.109  1.7012 -0.6755  0.3033
 4454TIP3   OH213325   1.145   0.637   2.843  0.0874 -0.3391  0.1977
 4454TIP3    H113326   1.228   0.684   2.839  0.3891 -0.8089  0.6872
 4454TIP3    H213327   1.112   0.653   2.931 -1.0600  1.0030 -0.4330
 4455TIP3   OH213328   6.292   5.125   2.627  0.2197 -0.3182 -0.0375
 4455TIP3    H113329   6.229   5.104   2.697  0.3454  0.9212  0.4800
 4455TIP3    H213330   6.290   5.049   2.569  0.0800 -1.3562  1.2955
 4456TIP3   OH213331   2.726   5.816   1.750  0.0093 -0.0784  0.2866
 4456TIP3    H113332   2.705   5.743   1.809  1.1430 -0.1639  0.6177
 4456TIP3    H213333   2.776   5.877   1.805 -0.7110  0.8315 -0.0575
 4457TIP3   OH213334   5.142   2.623   3.687 -0.1293  0.8084  0.1074
 4457TIP3    H113335   5.054   2.640   3.722  0.3098  4.2402 -0.0754
 4457TIP3    H213336   5.133   2.640   3.593  0.2154 -1.5722 -0.4241
 4458TIP3   OH213337   6.670   1.772   4.619  0.4084 -0.0060 -0.2253
 4458TIP3    H113338   6.657   1.854   4.571  0.2786 -1.1855 -2.3232
 4458TIP3    H213339   6.592   1.720   4.599 -0.7523  0.2084  3.0941
 4459TIP3   OH213340   0.397   0.384   1.649 -0.6984 -0.0507 -0.2666
 4459TIP3    H113341   0.309   0.409   1.676 -0.9295 -0.6939 -0.4054
 4459TIP3    H213342   0.404   0.292   1.672  0.4094  0.3120  0.9419
 4460TIP3   OH213343   2.073   2.383   4.111 -0.1980 -0.5205 -0.8481
 4460TIP3    H113344   2.154   2.381   4.061 -0.4826  1.9956 -1.5746
 4460TIP3    H213345   2.006   2.348   4.052 -0.0087 -0.5132 -1.0641
 4461TIP3   OH213346   1.358   5.268   3.505 -0.0657  0.3435 -0.2554
 4461TIP3    H113347   1.336   5.176   3.522  0.4982  0.0849 -0.8896
 4461TIP3    H213348   1.453   5.272   3.516  0.7380 -0.2717 -4.9105
 4462TIP3   OH213349   4.285   3.117   4.882 -0.6413 -0.2501  0.5041
 4462TIP3    H113350   4.263   3.027   4.861 -1.8593 -0.0881  1.0102
 4462TIP3    H213351   4.321   3.114   4.971 -0.7866 -0.2234  0.5638
 4463TIP3   OH213352   3.115   3.463   1.175 -0.1841  0.3803  0.0687
 4463TIP3    H113353   3.094   3.399   1.107 -0.0420 -0.2144  0.5759
 4463TIP3    H213354   3.208   3.480   1.164 -0.1110  0.1142  0.2448
 4464TIP3   OH213355   4.089   6.046   5.658  0.1995 -0.6862  0.4352
 4464TIP3    H113356   4.184   6.034   5.652  0.5179  1.6787 -0.0558
 4464TIP3    H213357   4.057   6.032   5.569  0.4558  0.9538  0.0534
 4465TIP3   OH213358   4.107   5.622   2.182  0.1656  0.0893  0.8691
 4465TIP3    H113359   4.163   5.554   2.144  0.1649  0.4637  0.1684
 4465TIP3    H213360   4.023   5.611   2.138  0.0100  0.2116  1.1321
 4466TIP3   OH213361   0.478   4.859   2.856  0.0006  0.1561  0.4075
 4466TIP3    H113362   0.518   4.895   2.935 -1.7381 -0.9477  1.8560
 4466TIP3    H213363   0.489   4.764   2.864 -0.8886 -0.0248 -0.2929
 4467TIP3   OH213364   6.613   4.085   0.050 -0.6913 -0.8122 -0.2846
 4467TIP3    H113365   6.533   4.107   0.002 -1.0890 -1.7513 -0.0746
 4467TIP3    H213366   6.674   4.156   0.029 -1.6499  0.0330 -0.2745
 4468TIP3   OH213367   4.648   3.258   3.451 -0.1986  0.0210 -0.3862
 4468TIP3    H113368   4.616   3.305   3.374  0.1467  1.4329  0.2940
 4468TIP3    H213369   4.623   3.314   3.525  2.5304  0.4923  0.2973
 4469TIP3   OH213370   6.399   0.970   4.009 -0.1425  0.0882  0.0906
 4469TIP3    H113371   6.448   0.897   3.969  1.4700  0.9245  0.4483
 4469TIP3    H213372   6.358   1.015   3.935 -0.4639 -0.6752 -0.2125
 4470TIP3   OH213373   1.652   5.265   3.494 -0.7543  0.4718 -0.4193
 4470TIP3    H113374   1.744   5.279   3.472 -0.7124 -1.3714 -1.5844
 4470TIP3    H213375   1.653   5.194   3.559 -1.2633  1.9315  1.2789
 4471TIP3   OH213376   3.326   3.974   3.517 -0.3399 -0.1477 -0.0074
 4471TIP3    H113377   3.244   3.931   3.540 -1.2698  1.0863 -0.8602
 4471TIP3    H213378   3.377   3.908   3.471 -1.2174 -0.6853 -0.2227
 4472TIP3   OH213379   2.274   5.741   5.563  0.4557  0.0919  0.1946
 4472TIP3    H113380   2.249   5.651   5.542  0.4494 -0.5839  2.7109
 4472TIP3    H213381   2.192   5.782   5.591  0.7748  0.2637  0.9125
 4473TIP3   OH213382   5.026   6.331   0.197 -0.8593  0.0050 -0.2928
 4473TIP3    H113383   4.944   6.356   0.155 -0.5736  1.6989  0.0849
 4473TIP3    H213384   5.000   6.271   0.267 -1.5994 -0.6658 -1.1106
 4474TIP3   OH213385   4.358   5.756   3.330  0.3409  0.1677 -0.1124
 4474TIP3    H113386   4.374   5.835   3.278  0.8357 -0.0613 -0.3170
 4474TIP3    H213387   4.263   5.752   3.338  0.3361  1.2849  0.6891
 4475TIP3   OH213388   1.519   5.659   2.092 -0.1991  0.6029  0.2389
 4475TIP3    H113389   1.512   5.696   2.004  0.4484  0.8801  0.2968
 4475TIP3    H213390   1.529   5.565   2.077  0.9860  0.7490 -0.0539
 4476TIP3   OH213391   6.643   2.589   1.141  0.6665 -0.3752  0.2199
 4476TIP3    H113392   6.679   2.502   1.153  1.0493 -0.4907 -1.5771
 4476TIP3    H213393   6.570   2.577   1.080  0.6117  0.5403  0.0862
 4477TIP3   OH213394   4.923   4.492   2.803 -0.1521  0.7704  0.3727
 4477TIP3    H113395   4.878   4.411   2.780  1.2107 -0.5173  2.0557
 4477TIP3    H213396   4.970   4.517   2.723  0.4709 -0.8529  0.2036
 4478TIP3   OH213397   4.856   0.947   4.936  0.2583 -0.3467 -0.0593
 4478TIP3    H113398   4.776   0.909   4.972 -1.5325  1.3953 -1.9507
 4478TIP3    H213399   4.850   0.932   4.842  1.6931  0.6601 -0.3461
 4479TIP3   OH213400   0.489   6.523   2.719 -0.4297 -0.0108  0.6747
 4479TIP3    H113401   0.447   6.488   2.797  1.6680 -2.1217  0.9537
 4479TIP3    H213402   0.419   6.527   2.654 -1.4895 -1.5100  1.6602
 4480TIP3   OH213403   4.665   4.538   4.415 -0.7484  0.5062  0.5094
 4480TIP3    H113404   4.758   4.552   4.431 -0.3895 -0.1685 -0.8051
 4480TIP3    H213405   4.627   4.524   4.502  0.6110 -0.5272  0.9754
 4481TIP3   OH213406   4.942   1.130   1.626  0.4497  0.0126 -0.2569
 4481TIP3    H113407   4.932   1.058   1.688  1.4397  1.0459  1.1656
 4481TIP3    H213408   4.961   1.206   1.680  3.1105  0.6416 -1.8702
 4482TIP3   OH213409   4.651   3.645   4.422 -0.0630  0.4898  0.0432
 4482TIP3    H113410   4.713   3.573   4.422 -0.0633  0.4599  1.2833
 4482TIP3    H213411   4.672   3.696   4.343  3.1166  1.7859  1.5516
 4483TIP3   OH213412   0.312   1.658   5.006  0.5302 -0.2628 -0.3967
 4483TIP3    H113413   0.310   1.697   5.094  0.7925  1.0786 -0.9642
 4483TIP3    H213414   0.227   1.613   4.998  0.1233  0.3776  0.2025
 4484TIP3   OH213415   6.255   6.503   3.339  0.5186  0.2225 -0.8631
 4484TIP3    H113416   6.302   6.549   3.409 -1.5353  0.4980  0.4453
 4484TIP3    H213417   6.264   6.410   3.362 -0.9476  0.3488  0.3926
 4485TIP3   OH213418   6.843   1.655   5.433  0.2053  0.0511  0.0050
 4485TIP3    H113419   6.869   1.563   5.429 -1.7577 -0.5344 -1.2221
 4485TIP3    H213420   6.794   1.663   5.515  1.4791  0.3552  0.7527
 4486TIP3   OH213421   6.223   3.722   3.548 -0.3407 -0.0225 -0.1357
 4486TIP3    H113422   6.145   3.772   3.525  1.1719  1.4238 -2.5060
 4486TIP3    H213423   6.228   3.652   3.483  0.9912  0.7123 -0.8818
 4487TIP3   OH213424   5.481   1.712   3.964 -0.0810 -0.0499  0.0397
 4487TIP3    H113425   5.472   1.787   3.905 -1.4850 -0.2677 -0.0411
 4487TIP3    H213426   5.447   1.743   4.048 -3.8200 -1.4612 -0.7487
 4488TIP3   OH213427   5.741   2.998   3.524  0.4382 -0.2615  0.0512
 4488TIP3    H113428   5.684   3.014   3.449 -0.4491  0.3452  0.8483
 4488TIP3    H213429   5.806   2.935   3.491 -0.9991 -1.3984 -0.7147
 4489TIP3   OH213430   3.568   6.668   5.053 -0.2871  0.7005  0.6171
 4489TIP3    H113431   3.605   6.746   5.094 -0.8344 -0.2139  3.0384
 4489TIP3    H213432   3.566   6.603   5.124 -0.6249 -1.2483 -1.1024
 4490TIP3   OH213433   3.415   5.970   3.693  0.0842 -0.6668  0.5777
 4490TIP3    H113434   3.411   5.875   3.690  1.2659 -0.7785  1.6519
 4490TIP3    H213435   3.394   5.998   3.604 -0.2919 -1.9220  0.2563
 4491TIP3   OH213436   4.412   0.412   3.473  0.0754 -0.2615 -0.1382
 4491TIP3    H113437   4.318   0.394   3.468  0.3926 -2.4192  0.7182
 4491TIP3    H213438   4.433   0.403   3.566  1.1414  0.2390 -0.3189
 4492TIP3   OH213439   3.224   1.147   2.514  0.1439 -0.0116 -0.7439
 4492TIP3    H113440   3.148   1.198   2.541 -0.0227  0.0327 -1.2997
 4492TIP3    H213441   3.211   1.131   2.421  1.6836  1.5082 -1.2756
 4493TIP3   OH213442   3.992   6.692   1.518 -0.1733 -0.1182  0.5261
 4493TIP3    H113443   4.060   6.675   1.583 -1.2231 -1.9917  1.2321
 4493TIP3    H213444   3.963   6.781   1.536  0.2234 -0.2650  2.0214
 4494TIP3   OH213445   6.722   5.147   4.415  0.1717 -0.6013  0.0441
 4494TIP3    H113446   6.725   5.236   4.450 -2.1088 -0.0554 -0.9413
 4494TIP3    H213447   6.775   5.095   4.476  4.2428  1.8395 -0.9956
 4495TIP3   OH213448   0.567   4.571   3.443 -0.4491 -0.4770 -0.5119
 4495TIP3    H113449   0.611   4.499   3.398 -0.3783 -0.1188 -1.0312
 4495TIP3    H213450   0.616   4.649   3.416 -0.1860 -0.2877  0.4646
 4496TIP3   OH213451   1.251   1.524   4.485  0.4821  0.0697  0.2349
 4496TIP3    H113452   1.302   1.506   4.563 -1.7294 -0.1682  1.7284
 4496TIP3    H213453   1.188   1.451   4.480  0.2957  0.3006 -1.5265
 4497TIP3   OH213454   0.728   2.292   2.830 -0.4227  0.0479 -0.5096
 4497TIP3    H113455   0.746   2.356   2.762  0.2321 -1.1187 -1.4778
 4497TIP3    H213456   0.664   2.232   2.790  0.4728 -1.0348 -0.3794
 4498TIP3   OH213457   1.123   6.318   5.450 -0.3599  0.0133 -0.2730
 4498TIP3    H113458   1.066   6.342   5.523 -1.3424 -0.7666 -0.7631
 4498TIP3    H213459   1.067   6.269   5.390  0.6665 -0.2005 -1.0977
 4499TIP3   OH213460   2.896   3.015   5.260  0.1857  0.2935  0.0004
 4499TIP3    H113461   2.867   2.924   5.251  2.4310 -0.6768  1.7901
 4499TIP3    H213462   2.908   3.027   5.354  3.7606  1.1114 -0.4306
 4500TIP3   OH213463   1.040   2.610   4.642  0.0802  0.5612  0.8506
 4500TIP3    H113464   1.093   2.672   4.693  1.0135  0.9262 -0.5115
 4500TIP3    H213465   1.042   2.645   4.553 -0.0142 -1.0149  0.1989
 4501TIP3   OH213466   1.050   3.765   3.398  0.0925 -0.7284 -0.0014
 4501TIP3    H113467   0.962   3.731   3.377 -0.5128  1.1682 -0.7616
 4501TIP3    H213468   1.096   3.763   3.314  0.7916 -1.6583  0.3854
 4502TIP3   OH213469   4.891   4.959   0.501  0.8044 -0.3534  0.1864
 4502TIP3    H113470   4.958   5.012   0.543  0.9380 -0.0624 -0.3754
 4502TIP3    H213471   4.939   4.883   0.466  0.8443 -0.1556 -0.1968
 4503TIP3   OH213472   5.980   1.131   5.039  0.4566  0.2704 -0.0404
 4503TIP3    H113473   5.999   1.038   5.050  0.5371  0.3426  0.4594
 4503TIP3    H213474   5.903   1.133   4.982  0.9878 -0.0661 -0.7872
 4504TIP3   OH213475   4.055   5.002   3.218  0.2797 -0.5432 -0.3117
 4504TIP3    H113476   3.974   5.049   3.198  1.8509  1.9964 -1.2286
 4504TIP3    H213477   4.062   4.936   3.150 -1.5322 -1.5771  0.4394
 4505TIP3   OH213478   0.347   4.093   2.112 -0.2298  0.2749 -0.1223
 4505TIP3    H113479   0.289   4.034   2.159 -0.3379  1.1892  0.9142
 4505TIP3    H213480   0.377   4.042   2.036 -0.2371 -1.1345  0.7931
 4506TIP3   OH213481   6.946   3.673   3.435  0.4069 -0.3554  0.2308
 4506TIP3    H113482   6.916   3.582   3.444 -0.3806 -0.1603 -0.2687
 4506TIP3    H213483   6.964   3.683   3.342  0.5151 -0.0110  0.2887
 4507TIP3   OH213484   0.501   3.540   5.427 -0.2959  0.5171  0.1597
 4507TIP3    H113485   0.550   3.602   5.481  0.0302  0.1608  0.2819
 4507TIP3    H213486   0.446   3.493   5.489 -0.4667  0.6136  0.0813
 4508TIP3   OH213487   2.731   5.734   2.898  0.1478 -0.0942  0.0649
 4508TIP3    H113488   2.811   5.700   2.938  0.1857  0.5764  0.5789
 4508TIP3    H213489   2.755   5.749   2.807  0.8711  0.8892  0.4010
 4509TIP3   OH213490   6.147   3.119   1.874  0.1649 -0.0262 -0.0171
 4509TIP3    H113491   6.177   3.182   1.940 -0.4740 -0.2135  0.4630
 4509TIP3    H213492   6.217   3.054   1.869  0.3182  0.1092  0.3157
 4510TIP3   OH213493   3.915   2.556   4.658 -0.4765  0.3877 -0.4849
 4510TIP3    H113494   3.947   2.615   4.590 -1.6914  1.3140 -0.2978
 4510TIP3    H213495   3.964   2.475   4.645  0.8569  1.2521 -1.0884
 4511TIP3   OH213496   4.017   6.717   5.687  0.0695  0.2742 -0.2534
 4511TIP3    H113497   4.041   6.747   5.775 -1.3724  0.5120  0.0844
 4511TIP3    H213498   4.096   6.675   5.654  1.3427  2.0825  0.3112
 4512TIP3   OH213499   4.659   2.898   0.693  0.1750 -0.2473 -0.0207
 4512TIP3    H113500   4.741   2.947   0.697  1.3209 -2.1486  2.0699
 4512TIP3    H213501   4.630   2.893   0.784 -1.0777 -1.4706 -0.4585
 4513TIP3   OH213502   4.589   2.844   2.633 -0.4754  0.0686 -1.0466
 4513TIP3    H113503   4.630   2.839   2.719  1.1854 -1.4493 -1.8787
 4513TIP3    H213504   4.540   2.927   2.634 -0.1722  0.2594  1.1878
 4514TIP3   OH213505   6.591   5.494   2.167  0.3697 -0.6764  0.2650
 4514TIP3    H113506   6.671   5.541   2.191 -1.3435  1.7001  1.7643
 4514TIP3    H213507   6.592   5.495   2.071  1.6264  0.2346  0.2501
 4515TIP3   OH213508   5.469   0.218   0.964  0.7646 -0.2884  0.0594
 4515TIP3    H113509   5.403   0.198   1.031 -0.7124 -0.9389 -1.4819
 4515TIP3    H213510   5.464   0.313   0.953 -0.4593 -0.3911 -0.4999
 4516TIP3   OH213511   2.481   6.407   0.633  0.2124 -0.3529  0.0213
 4516TIP3    H113512   2.518   6.469   0.696  0.8924 -0.3070 -0.4056
 4516TIP3    H213513   2.410   6.456   0.591  1.7288  0.7384 -1.4130
 4517TIP3   OH213514   2.619   2.812   1.015  0.4451  0.4149  0.0475
 4517TIP3    H113515   2.611   2.794   0.922 -0.7051 -0.8474  0.3616
 4517TIP3    H213516   2.543   2.866   1.036  0.7681  0.8023  0.2323
 4518TIP3   OH213517   1.786   4.183   2.897  0.1424  0.2667 -1.0025
 4518TIP3    H113518   1.727   4.198   2.823  0.3615 -0.0328 -1.2428
 4518TIP3    H213519   1.845   4.114   2.866 -0.7153 -0.9726 -0.0141
 4519TIP3   OH213520   0.849   4.791   0.653 -0.1958 -0.1832 -0.5018
 4519TIP3    H113521   0.870   4.758   0.566 -1.1182 -0.0143 -0.7986
 4519TIP3    H213522   0.761   4.826   0.645 -0.5711 -0.8058  0.6732
 4520TIP3   OH213523   5.608   1.333   0.349 -0.0114  0.1597 -0.1618
 4520TIP3    H113524   5.698   1.355   0.321  0.0744 -0.3007 -0.2505
 4520TIP3    H213525   5.578   1.271   0.283 -1.1485  1.8581 -1.3287
 4521TIP3   OH213526   4.530   6.647   2.425 -0.4090 -0.2904  0.5086
 4521TIP3    H113527   4.452   6.624   2.475 -0.6868 -0.1105  0.1594
 4521TIP3    H213528   4.581   6.567   2.422 -1.4077 -0.9084 -0.7766
 4522TIP3   OH213529   3.882   4.245   5.124  0.1107  0.6914 -0.0724
 4522TIP3    H113530   3.787   4.234   5.128  0.3089 -1.8255 -0.7458
 4522TIP3    H213531   3.897   4.309   5.054 -1.1094  3.0919  1.7071
 4523TIP3   OH213532   6.491   4.314   3.489 -0.0007  0.5563  0.0474
 4523TIP3    H113533   6.474   4.259   3.566 -1.3571  1.6544  0.5876
 4523TIP3    H213534   6.550   4.262   3.435  1.3721 -0.0861  2.0208
 4524TIP3   OH213535   1.552   4.140   3.106 -0.3800 -0.0987  0.2313
 4524TIP3    H113536   1.615   4.183   3.164  1.0908  2.4074 -2.9003
 4524TIP3    H213537   1.605   4.099   3.038 -2.0390 -0.3965 -0.9681
 4525TIP3   OH213538   2.471   4.457   1.514  0.0720 -0.0680 -0.1855
 4525TIP3    H113539   2.416   4.388   1.475  0.1287  0.5956 -1.4960
 4525TIP3    H213540   2.523   4.411   1.580  0.6104 -1.4409 -1.4852
 4526TIP3   OH213541   4.516   6.125   4.366  0.1780  0.6495 -0.3634
 4526TIP3    H113542   4.487   6.216   4.370 -0.2890  0.4432  1.4178
 4526TIP3    H213543   4.501   6.090   4.454  0.1062 -1.2315 -1.0698
 4527TIP3   OH213544   0.672   1.478   0.770 -0.1813  0.0028 -0.4625
 4527TIP3    H113545   0.707   1.392   0.750  1.0397  0.0468  1.3114
 4527TIP3    H213546   0.746   1.538   0.759 -0.3253  0.4543  0.8376
 4528TIP3   OH213547   3.089   4.787   4.657  0.4003 -0.1898 -0.8631
 4528TIP3    H113548   3.136   4.708   4.685 -1.3490 -1.2748 -0.8635
 4528TIP3    H213549   3.051   4.823   4.737 -0.1708 -0.2827 -1.0872
 4529TIP3   OH213550   1.958   3.173   1.261 -0.7662 -0.3535  0.1576
 4529TIP3    H113551   1.899   3.140   1.193  1.4238 -1.8766 -1.1477
 4529TIP3    H213552   1.953   3.108   1.331 -4.0014  1.8534  2.2479
 4530TIP3   OH213553   5.144   3.565   5.391 -0.0410 -0.3002 -0.3180
 4530TIP3    H113554   5.050   3.576   5.405  0.2094 -0.6880  1.9523
 4530TIP3    H213555   5.150   3.516   5.309 -1.9741 -3.0960  1.0564
 4531TIP3   OH213556   3.312   4.895   1.872  0.1956  0.3582 -0.1495
 4531TIP3    H113557   3.342   4.858   1.789 -0.2524 -0.3530  0.0029
 4531TIP3    H213558   3.306   4.990   1.855  0.2135  0.2330 -0.8882
 4532TIP3   OH213559   3.885   6.050   4.818  0.3087  0.2572 -0.2420
 4532TIP3    H113560   3.827   6.003   4.758  0.0399 -2.0695  1.6946
 4532TIP3    H213561   3.830   6.119   4.854 -0.9438 -1.1275  0.6218
 4533TIP3   OH213562   2.931   0.918   2.340 -0.1936 -0.2077  0.1731
 4533TIP3    H113563   3.007   0.973   2.319 -0.5257  0.3003  0.2972
 4533TIP3    H213564   2.875   0.973   2.394  0.0512 -1.0918  1.3578
 4534TIP3   OH213565   6.193   4.990   3.244  0.3768  0.2752 -1.0841
 4534TIP3    H113566   6.266   4.935   3.217  2.0268  1.7969  0.0348
 4534TIP3    H213567   6.212   5.012   3.335 -1.8455  0.1869 -0.5486
 4535TIP3   OH213568   2.661   3.575   5.543  0.2801  0.0356 -0.3402
 4535TIP3    H113569   2.721   3.638   5.503  3.0939 -1.8694  0.5881
 4535TIP3    H213570   2.631   3.521   5.469  1.0011  0.0165 -0.6265
 4536TIP3   OH213571   5.720   1.568   4.017 -0.2141 -0.3181  0.4626
 4536TIP3    H113572   5.668   1.647   4.002  0.8464  0.0979 -1.4810
 4536TIP3    H213573   5.677   1.501   3.964  1.4704  0.1951 -1.7113
 4537TIP3   OH213574   4.003   4.886   5.830 -0.1199  0.1071 -0.0320
 4537TIP3    H113575   4.009   4.819   5.761  0.7216 -0.6047  0.6971
 4537TIP3    H213576   3.911   4.888   5.853 -0.0510 -1.4736  0.5395
 4538TIP3   OH213577   1.219   2.176   4.143  0.1627 -0.4184  0.0584
 4538TIP3    H113578   1.124   2.181   4.140  0.1655 -0.3091  0.1213
 4538TIP3    H213579   1.243   2.219   4.226  0.2869 -0.0781 -0.1483
 4539TIP3   OH213580   0.746   5.047   0.228 -0.9051  0.5514 -0.1124
 4539TIP3    H113581   0.839   5.029   0.212 -1.0823 -1.1407  0.6336
 4539TIP3    H213582   0.742   5.074   0.320 -1.1941  0.1993 -0.0177
 4540TIP3   OH213583   6.443   4.160   3.742 -0.2304  0.5941 -0.4129
 4540TIP3    H113584   6.428   4.066   3.748 -0.2018  0.6220  0.2073
 4540TIP3    H213585   6.430   4.192   3.832  3.4899  0.6378  0.2607
 4541TIP3   OH213586   6.029   0.314   4.574  0.7221  0.1557 -0.2389
 4541TIP3    H113587   6.112   0.306   4.528 -0.2826 -1.6269 -1.8918
 4541TIP3    H213588   5.966   0.342   4.508 -0.3922 -0.5434  0.4792
 4542TIP3   OH213589   4.799   5.589   0.087 -0.6730 -0.7883 -0.2473
 4542TIP3    H113590   4.787   5.683   0.078 -0.9581 -0.9132 -1.2912
 4542TIP3    H213591   4.717   5.559   0.128 -1.0951 -0.7316 -1.0268
 4543TIP3   OH213592   1.550   2.420   2.093  0.1960  0.2608 -0.5621
 4543TIP3    H113593   1.612   2.442   2.163  0.4262 -0.4362 -0.5445
 4543TIP3    H213594   1.585   2.341   2.053 -0.7338 -0.2033 -0.4943
 4544TIP3   OH213595   5.465   3.854   4.595 -0.6338 -0.2144 -0.2196
 4544TIP3    H113596   5.386   3.800   4.599 -1.2149  0.6423  0.4007
 4544TIP3    H213597   5.448   3.914   4.522 -0.1721 -0.5897 -0.6395
 4545TIP3   OH213598   5.484   4.407   5.241  0.8195  0.3694  0.0852
 4545TIP3    H113599   5.483   4.453   5.326  1.5794  0.0158  0.2977
 4545TIP3    H213600   5.446   4.321   5.260  0.4765  0.4894 -0.0561
 4546TIP3   OH213601   1.887   5.373   4.567 -0.3469 -0.3424 -0.6451
 4546TIP3    H113602   1.879   5.452   4.621 -1.2401 -1.1474  0.4571
 4546TIP3    H213603   1.883   5.301   4.630 -2.5020 -1.3675 -1.8591
 4547TIP3   OH213604   0.579   6.021   4.170 -0.6573  0.1770  0.2016
 4547TIP3    H113605   0.599   6.109   4.138 -2.8419  0.6736  0.0507
 4547TIP3    H213606   0.630   5.963   4.115 -2.6676  1.1141 -2.9166
 4548TIP3   OH213607   0.902   1.318   2.177 -0.4240 -0.4215 -0.1905
 4548TIP3    H113608   0.886   1.409   2.155  0.2788  0.0534  1.1259
 4548TIP3    H213609   0.946   1.321   2.262  1.7223 -1.8643 -1.1379
 4549TIP3   OH213610   4.215   6.233   2.790 -0.4819  0.0749 -0.7408
 4549TIP3    H113611   4.187   6.307   2.844  2.6471  1.5364 -0.8812
 4549TIP3    H213612   4.171   6.247   2.705 -0.9204  1.0358 -0.3705
 4550TIP3   OH213613   3.863   0.889   4.111 -0.6728 -0.1260 -0.1291
 4550TIP3    H113614   3.830   0.951   4.176  0.4503 -0.1934  0.5348
 4550TIP3    H213615   3.789   0.830   4.095 -0.3971 -1.4419  2.7514
 4551TIP3   OH213616   4.363   2.150   2.226 -0.2672 -0.8248  0.1797
 4551TIP3    H113617   4.426   2.207   2.269 -1.8815  0.2250  1.2586
 4551TIP3    H213618   4.414   2.073   2.200  1.2818 -0.4189  1.8014
 4552TIP3   OH213619   2.030   4.651   4.676  0.6761  0.1889 -0.7422
 4552TIP3    H113620   1.978   4.617   4.749  3.0204  1.7939  1.8433
 4552TIP3    H213621   1.969   4.705   4.626 -0.5080  0.8037  1.2822
 4553TIP3   OH213622   3.124   2.774   4.676 -0.7138 -0.3375 -1.1508
 4553TIP3    H113623   3.175   2.820   4.610  0.2676  0.5577  0.1753
 4553TIP3    H213624   3.035   2.810   4.667 -0.0253  1.7507 -0.2862
 4554TIP3   OH213625   6.088   4.687   2.814 -0.2077  0.0993  0.2676
 4554TIP3    H113626   6.017   4.744   2.845 -0.7872 -0.8832  0.7900
 4554TIP3    H213627   6.166   4.720   2.859 -0.5021  0.5978  0.4197
 4555TIP3   OH213628   6.260   2.059   3.965  0.0219  0.2847 -0.2478
 4555TIP3    H113629   6.310   2.000   3.909  2.6632  1.2635  0.9082
 4555TIP3    H213630   6.256   2.015   4.049 -2.8592 -0.6204 -0.7225
 4556TIP3   OH213631   4.195   4.167   1.855  0.1893  0.0140 -0.0158
 4556TIP3    H113632   4.257   4.128   1.794 -0.5458 -0.4935 -0.4626
 4556TIP3    H213633   4.249   4.214   1.918  0.9085  1.6226 -1.7662
 4557TIP3   OH213634   0.734   1.233   2.370 -0.2112  0.1702 -0.0985
 4557TIP3    H113635   0.678   1.273   2.304 -1.1104  0.8742  1.0504
 4557TIP3    H213636   0.719   1.285   2.449 -1.7569 -2.6596  1.6141
 4558TIP3   OH213637   4.123   4.409   5.495  0.1802 -0.2963 -0.6184
 4558TIP3    H113638   4.109   4.480   5.558 -0.0617 -0.5181 -0.4241
 4558TIP3    H213639   4.056   4.422   5.429  0.4682 -0.0309 -0.8633
 4559TIP3   OH213640   0.065   3.370   2.636 -0.5608  0.0343 -0.4007
 4559TIP3    H113641  -0.018   3.414   2.617 -0.6217  0.1957  0.2154
 4559TIP3    H213642   0.043   3.309   2.706  0.1067  1.0233  0.7065
 4560TIP3   OH213643   3.793   5.662   2.143  0.2114  0.0883  0.2778
 4560TIP3    H113644   3.732   5.618   2.203  0.0995 -0.8557 -0.4956
 4560TIP3    H213645   3.762   5.638   2.056  2.3665 -1.4875 -0.1625
 4561TIP3   OH213646   0.573   5.373   5.307 -0.5238 -0.0896 -0.0247
 4561TIP3    H113647   0.627   5.387   5.384 -0.2206  0.0929 -0.2679
 4561TIP3    H213648   0.633   5.336   5.242 -1.0199 -1.3329  0.1909
 4562TIP3   OH213649   5.456   1.937   5.556  0.0509  0.3402  0.0114
 4562TIP3    H113650   5.527   2.001   5.561  1.1697 -0.6775 -1.8508
 4562TIP3    H213651   5.454   1.910   5.464 -0.5781 -2.0682  0.6630
 4563TIP3   OH213652   1.534   6.717   3.945 -0.2857  0.2714  0.2144
 4563TIP3    H113653   1.617   6.760   3.966 -1.0284  0.8484  2.2139
 4563TIP3    H213654   1.479   6.788   3.913 -1.1383  0.6781  2.4060
 4564TIP3   OH213655   3.443   6.583   4.660  0.0204  0.0204  0.0097
 4564TIP3    H113656   3.485   6.652   4.608  0.1730  0.5865  0.8460
 4564TIP3    H213657   3.428   6.511   4.599  3.0479 -0.5926 -0.1644
 4565TIP3   OH213658   2.066   4.315   2.685 -0.3429  0.0705 -0.2336
 4565TIP3    H113659   2.131   4.284   2.749  0.5988  2.9103  0.3430
 4565TIP3    H213660   2.062   4.245   2.619  1.6472 -1.1853  0.8634
 4566TIP3   OH213661   2.990   4.720   4.009 -0.3386 -0.3114  0.1734
 4566TIP3    H113662   2.920   4.744   3.949  0.5427 -1.8313 -1.5470
 4566TIP3    H213663   2.951   4.730   4.096 -1.9503  1.0200 -0.6461
 4567TIP3   OH213664   1.188   6.301   0.012 -0.6377  0.0979  0.8019
 4567TIP3    H113665   1.142   6.217   0.010 -0.3608 -0.0529 -0.8559
 4567TIP3    H213666   1.280   6.278   0.018 -0.6000  0.3112  1.0624
 4568TIP3   OH213667   5.916   0.719   2.360 -0.5019 -0.5208  0.0874
 4568TIP3    H113668   6.007   0.745   2.345  0.3796 -2.6797  1.2420
 4568TIP3    H213669   5.898   0.655   2.291 -2.2145  1.9838 -1.9656
 4569TIP3   OH213670   6.877   4.699   1.210  0.1706  0.4991  0.2080
 4569TIP3    H113671   6.902   4.630   1.148  2.6146  0.9367  0.6132
 4569TIP3    H213672   6.897   4.780   1.163  1.6082  0.8414  1.3639
 4570TIP3   OH213673   5.553   2.688   1.047 -0.0421 -0.3030  0.3876
 4570TIP3    H113674   5.646   2.690   1.023  0.1209 -2.7657  0.6018
 4570TIP3    H213675   5.540   2.769   1.095  1.3951  1.2468 -1.6357
 4571TIP3   OH213676   2.661   4.784   0.541  0.0561 -0.2580  0.0799
 4571TIP3    H113677   2.636   4.738   0.461  1.9656 -0.1071 -0.6617
 4571TIP3    H213678   2.757   4.780   0.542  0.1767  1.7639  1.1560
 4572TIP3   OH213679   2.202   2.214   1.388 -0.1891  0.4372  0.3277
 4572TIP3    H113680   2.257   2.136   1.378  0.6558  0.9549  0.8287
 4572TIP3    H213681   2.155   2.199   1.470  1.0651  1.0834  1.1988
 4573TIP3   OH213682   3.101   5.663   4.384  0.0201  0.1493 -0.0447
 4573TIP3    H113683   3.123   5.570   4.380  1.4594  0.4951 -0.6744
 4573TIP3    H213684   3.041   5.669   4.458  1.1472 -1.0568  1.0342
 4574TIP3   OH213685   1.298   6.469   5.303 -0.1491  0.5746 -0.6136
 4574TIP3    H113686   1.337   6.515   5.377  0.1255 -1.5414  0.6657
 4574TIP3    H213687   1.225   6.420   5.341  0.0327 -0.6124 -1.6975
 4575TIP3   OH213688   6.329   3.022   5.119  0.2408  0.0678  0.4001
 4575TIP3    H113689   6.380   2.949   5.084 -0.9799 -0.7617  0.2876
 4575TIP3    H213690   6.314   3.080   5.044 -1.2837 -1.0619 -0.2093
 4576TIP3   OH213691   0.680   5.919   2.126  0.0336  0.2147 -0.1647
 4576TIP3    H113692   0.620   5.982   2.166 -2.1686 -1.4522 -0.6599
 4576TIP3    H213693   0.624   5.861   2.075  1.6453 -3.1738  1.5310
 4577TIP3   OH213694   5.073   6.178   3.927 -0.3297  0.3042  0.2082
 4577TIP3    H113695   5.046   6.179   3.836  2.9651  0.9832 -0.9038
 4577TIP3    H213696   5.060   6.088   3.956  1.4371 -0.7491 -1.9922
 4578TIP3   OH213697   3.207   0.072   2.343 -0.5168  0.2428  0.6460
 4578TIP3    H113698   3.198   0.137   2.274  0.2689  1.7322  1.8760
 4578TIP3    H213699   3.146   0.101   2.411  0.5984  0.3041  1.6478
 4579TIP3   OH213700   3.879   4.789   1.096  0.0237 -0.1921  0.4378
 4579TIP3    H113701   3.885   4.805   1.001 -1.7504  1.9899  0.5968
 4579TIP3    H213702   3.796   4.743   1.107 -0.4777  0.8059  0.9979
 4580TIP3   OH213703   4.310   2.572   2.792  0.0166  0.4415 -0.4870
 4580TIP3    H113704   4.350   2.645   2.838  0.4913  0.0886 -0.3326
 4580TIP3    H213705   4.301   2.503   2.858 -3.0725  1.2764  0.1547
 4581TIP3   OH213706   6.248   2.167   0.136 -0.1256 -0.8271  0.4683
 4581TIP3    H113707   6.209   2.245   0.097 -1.2506 -1.2672  0.6643
 4581TIP3    H213708   6.248   2.102   0.066  1.9199 -0.3322 -0.0559
 4582TIP3   OH213709   4.383   5.646   0.631 -0.3630  0.1185 -0.0344
 4582TIP3    H113710   4.451   5.596   0.587 -1.6187 -0.7933 -1.0195
 4582TIP3    H213711   4.346   5.585   0.696 -0.6335  0.3993  0.0798
 4583TIP3   OH213712   4.313   4.202   0.145  0.3220 -0.4936 -0.1395
 4583TIP3    H113713   4.258   4.256   0.088  0.8420 -0.0099 -0.1866
 4583TIP3    H213714   4.402   4.228   0.124  0.5296 -0.4840  0.7301
 4584TIP3   OH213715   1.775   0.651   2.998  0.4416  0.0457 -0.1187
 4584TIP3    H113716   1.801   0.560   2.984  1.9571  0.7850 -2.7109
 4584TIP3    H213717   1.820   0.676   3.078  0.5729 -1.2726  0.2473
 4585TIP3   OH213718   3.165   5.221   3.555 -0.1688 -0.3161  0.0695
 4585TIP3    H113719   3.070   5.213   3.550 -0.1830  0.3503 -1.0317
 4585TIP3    H213720   3.188   5.284   3.487  1.3041 -2.3897 -1.5059
 4586TIP3   OH213721   4.190   0.130   1.221 -0.0656  0.2862 -0.2356
 4586TIP3    H113722   4.107   0.116   1.175  0.3925  0.0803 -1.0219
 4586TIP3    H213723   4.252   0.155   1.153  0.5644  0.2783  0.3160
 4587TIP3   OH213724   5.409   4.536   5.831 -0.0184 -0.5311 -0.6688
 4587TIP3    H113725   5.503   4.551   5.845  0.5420 -4.0425  0.3264
 4587TIP3    H213726   5.369   4.560   5.914  0.4190 -1.5880 -0.1349
 4588TIP3   OH213727   2.537   4.928   3.224  0.0839  0.4612 -0.2118
 4588TIP3    H113728   2.542   5.016   3.188  2.6449 -0.2589 -1.8423
 4588TIP3    H213729   2.547   4.871   3.148 -1.3708 -1.2886  0.8253
 4589TIP3   OH213730   4.078   6.300   4.708 -0.3142 -0.4698  0.1580
 4589TIP3    H113731   4.034   6.385   4.714 -3.6238 -2.0623  0.8786
 4589TIP3    H213732   4.039   6.248   4.778  2.0458 -2.4502  0.1335
 4590TIP3   OH213733   6.189   6.249   1.634 -0.8697 -0.0669 -0.2901
 4590TIP3    H113734   6.147   6.171   1.670  0.6757  0.4671  3.0004
 4590TIP3    H213735   6.158   6.321   1.689  0.5782  1.0725 -0.8952
 4591TIP3   OH213736   0.128   0.547   2.154  0.1269 -0.2077  0.5790
 4591TIP3    H113737   0.049   0.503   2.123  1.2529 -0.1465 -2.7241
 4591TIP3    H213738   0.165   0.589   2.076  2.5551  1.1637  2.3274
 4592TIP3   OH213739   3.182   4.331   5.020 -0.3660 -0.2710  0.3591
 4592TIP3    H113740   3.235   4.392   5.071 -0.8892 -0.2576  0.8983
 4592TIP3    H213741   3.091   4.352   5.043 -0.5538 -1.3508  0.6862
 4593TIP3   OH213742   5.365   3.980   3.057 -0.3498 -0.4758  0.2604
 4593TIP3    H113743   5.299   3.925   3.014 -1.0249  0.6034 -0.1138
 4593TIP3    H213744   5.446   3.961   3.009 -0.2775 -2.0516  0.9325
 4594TIP3   OH213745   2.285   3.097   3.956  0.4804 -0.2630 -0.4478
 4594TIP3    H113746   2.366   3.144   3.976  0.9430 -0.5275 -1.6340
 4594TIP3    H213747   2.308   3.040   3.883 -1.1659  0.7950 -1.8583
 4595TIP3   OH213748   3.819   5.801   3.489  0.1415  0.1725 -0.3586
 4595TIP3    H113749   3.782   5.884   3.458 -1.3875 -0.2742  0.2061
 4595TIP3    H213750   3.807   5.803   3.584 -1.5948 -1.4349 -0.4813
 4596TIP3   OH213751   5.268   4.625   5.076 -0.0845 -0.4343  0.0238
 4596TIP3    H113752   5.222   4.703   5.046  0.2868 -1.0817 -2.4775
 4596TIP3    H213753   5.356   4.634   5.040  0.7399 -0.8436  1.8252
 4597TIP3   OH213754   5.210   2.502   3.933 -0.0560  0.0097 -0.3928
 4597TIP3    H113755   5.273   2.564   3.970  0.7604  0.3577 -2.2939
 4597TIP3    H213756   5.208   2.521   3.839  0.9653 -3.4753 -1.2704
 4598TIP3   OH213757   0.904   1.962   1.399  0.0605 -0.3033  0.3185
 4598TIP3    H113758   0.814   1.994   1.393 -0.7312 -2.3052  0.9153
 4598TIP3    H213759   0.944   1.986   1.314 -0.2763  2.5871  0.8699
 4599TIP3   OH213760   0.585   2.466   4.635 -1.0058  0.2510  0.4195
 4599TIP3    H113761   0.501   2.479   4.680 -1.3988  3.1707 -0.9440
 4599TIP3    H213762   0.586   2.533   4.566  2.0893 -0.2705 -0.1769
 4600TIP3   OH213763   0.641   1.257   3.617  0.2417  0.3219 -0.0821
 4600TIP3    H113764   0.590   1.195   3.564 -0.1330  1.4336 -1.0604
 4600TIP3    H213765   0.704   1.202   3.664 -0.0277 -0.7964 -0.9874
 4601TIP3   OH213766   5.819   6.094   1.103 -0.2782  0.4725  0.3019
 4601TIP3    H113767   5.875   6.018   1.115  1.5176  1.8324  1.1398
 4601TIP3    H213768   5.765   6.074   1.026  0.7227 -1.2807  0.0236
 4602TIP3   OH213769   0.730   0.712   0.990  0.3594  0.2373  0.0366
 4602TIP3    H113770   0.754   0.746   0.904 -0.6957 -1.0850 -0.8188
 4602TIP3    H213771   0.720   0.789   1.045  1.9332  1.0562 -0.7766
 4603TIP3   OH213772   6.875   3.066   4.036 -0.0127  0.3222  0.2230
 4603TIP3    H113773   6.781   3.052   4.051  0.3815 -1.3050  1.5174
 4603TIP3    H213774   6.880   3.151   3.992 -2.1255  0.1940 -0.3894
 4604TIP3   OH213775   5.593   3.931   0.631 -0.1761  0.8066  0.4674
 4604TIP3    H113776   5.605   3.967   0.719  2.4341 -1.7455  1.2968
 4604TIP3    H213777   5.582   4.008   0.575 -1.7727  2.5240  2.9261
 4605TIP3   OH213778   5.084   2.547   2.479  0.0732 -0.4135 -0.3276
 4605TIP3    H113779   4.988   2.549   2.478  0.0719 -0.2103 -1.1797
 4605TIP3    H213780   5.110   2.638   2.487  0.1892 -0.4445 -0.3465
 4606TIP3   OH213781   1.440   1.144   0.175  0.0731 -0.2598 -0.3218
 4606TIP3    H113782   1.498   1.197   0.230 -0.1755 -0.3323  0.0121
 4606TIP3    H213783   1.354   1.184   0.186  0.3775  1.1758 -2.4595
 4607TIP3   OH213784   0.455   1.761   3.957 -0.4120  0.0160  0.1338
 4607TIP3    H113785   0.370   1.748   3.915 -1.0097  1.5703  0.7909
 4607TIP3    H213786   0.435   1.808   4.038  1.0218 -0.1042  0.5838
 4608TIP3   OH213787   6.776   0.606   1.617  0.2293  0.4215  0.2498
 4608TIP3    H113788   6.808   0.682   1.569  0.4263  0.9311  1.1545
 4608TIP3    H213789   6.681   0.607   1.603  0.3869 -0.0331 -0.9434
 4609TIP3   OH213790   5.113   2.133   5.708  0.3228  0.7081 -0.0825
 4609TIP3    H113791   5.130   2.161   5.618 -0.1005 -1.8133 -1.0434
 4609TIP3    H213792   5.031   2.083   5.702  1.7353 -1.9316  1.1087
 4610TIP3   OH213793   4.745   5.709   4.940  0.4876 -1.0501  0.4085
 4610TIP3    H113794   4.759   5.662   5.022 -1.1348 -0.0525  1.3078
 4610TIP3    H213795   4.650   5.710   4.929  0.6270 -0.2317 -0.9321
 4611TIP3   OH213796   5.731   4.861   3.600 -0.0033 -0.6427  0.0475
 4611TIP3    H113797   5.789   4.902   3.664  0.7336 -1.3348 -0.1574
 4611TIP3    H213798   5.644   4.895   3.620  0.5943  1.0874 -0.1806
 4612TIP3   OH213799   0.414   6.245   0.740  0.1102 -0.2025 -0.0115
 4612TIP3    H113800   0.389   6.271   0.651  0.1284 -0.2611 -0.0341
 4612TIP3    H213801   0.363   6.165   0.756  0.8585 -0.7626 -0.3516
 4613TIP3   OH213802   1.959   0.347   2.694 -0.3227  0.0128  0.3083
 4613TIP3    H113803   2.031   0.324   2.635 -1.7836 -2.2774 -0.7317
 4613TIP3    H213804   1.950   0.271   2.751 -0.8344  0.9941  1.5818
 4614TIP3   OH213805   0.256   2.416   0.880  0.9702  0.2469  0.3398
 4614TIP3    H113806   0.322   2.414   0.811  0.0016  0.1660 -0.6137
 4614TIP3    H213807   0.197   2.345   0.859 -0.4580  1.4568  0.1079
 4615TIP3   OH213808  -0.006   0.623   4.203 -0.7177  0.4404 -0.6011
 4615TIP3    H113809  -0.038   0.672   4.128 -1.4808  0.9926  0.0580
 4615TIP3    H213810   0.088   0.614   4.188 -0.7494  1.1519 -1.2806
 4616TIP3   OH213811   5.513   6.334   0.559  0.1654  0.5368 -0.4521
 4616TIP3    H113812   5.441   6.343   0.497 -0.7354  2.4510  0.7682
 4616TIP3    H213813   5.572   6.406   0.537  0.9065 -0.0509 -0.4208
 4617TIP3   OH213814   3.520   2.140   5.924 -0.1327  0.0695 -0.3312
 4617TIP3    H113815   3.485   2.064   5.877  1.4520 -0.1683 -1.1994
 4617TIP3    H213816   3.527   2.208   5.858 -2.4858  1.3874  0.6368
 4618TIP3   OH213817   6.905   0.088   3.887 -0.1495  0.1753 -0.3183
 4618TIP3    H113818   6.961   0.165   3.885 -0.6518  0.6019  1.0815
 4618TIP3    H213819   6.911   0.051   3.799  1.0909  1.0909 -0.6296
 4619TIP3   OH213820   6.951   3.815   5.726 -0.3918 -0.3338  0.2631
 4619TIP3    H113821   7.001   3.758   5.784 -0.2335 -0.5408 -0.0722
 4619TIP3    H213822   6.897   3.868   5.784  1.5662  1.2235  0.7467
 4620TIP3   OH213823   1.324   2.299   0.618 -0.8259  0.1569  0.0285
 4620TIP3    H113824   1.295   2.316   0.707  1.6824 -0.2343  1.0043
 4620TIP3    H213825   1.331   2.386   0.578 -2.1876  0.3186  0.1112
 4621TIP3   OH213826   4.413   2.832   1.346 -0.0877 -0.1207  0.0628
 4621TIP3    H113827   4.335   2.803   1.393 -0.2946  0.1201 -0.1368
 4621TIP3    H213828   4.390   2.826   1.254  0.7845 -1.9683 -0.0962
 4622TIP3   OH213829   2.840   0.697   3.585 -0.3184  0.0155 -0.0148
 4622TIP3    H113830   2.781   0.769   3.608 -0.5640 -0.4471  0.8475
 4622TIP3    H213831   2.823   0.680   3.493 -2.3841 -0.8795  0.4801
 4623TIP3   OH213832   3.806   5.999   0.897  0.2964 -0.2203  0.3934
 4623TIP3    H113833   3.823   5.996   0.991 -0.3411  0.0097  0.5207
 4623TIP3    H213834   3.770   5.913   0.877  0.9693 -0.4770  0.2436
 4624TIP3   OH213835   6.824   6.580   2.494  0.1434  0.1525  0.3932
 4624TIP3    H113836   6.756   6.568   2.559 -1.5857  0.7391 -1.2205
 4624TIP3    H213837   6.819   6.672   2.469  1.3570  0.1479  0.0528
 4625TIP3   OH213838   5.823   4.366   5.386  0.1385  0.2855 -0.8373
 4625TIP3    H113839   5.771   4.303   5.435  2.6044 -0.8388  0.5157
 4625TIP3    H213840   5.838   4.438   5.448  1.7804 -0.3129 -0.4998
 4626TIP3   OH213841   6.300   0.629   2.473 -0.4798 -0.1136  0.1446
 4626TIP3    H113842   6.268   0.691   2.407 -2.7498 -0.0364  1.2132
 4626TIP3    H213843   6.302   0.545   2.428  2.9761  0.6425 -1.4284
 4627TIP3   OH213844   6.023   0.671   5.332 -0.2850  0.5222  0.3099
 4627TIP3    H113845   6.056   0.592   5.374 -0.1114  0.6571  0.4245
 4627TIP3    H213846   5.974   0.717   5.400 -0.3101  0.5585  0.2681
 4628TIP3   OH213847   0.937   4.474   4.696 -0.0649 -0.2331 -0.3909
 4628TIP3    H113848   0.869   4.518   4.646  0.2847 -0.7362 -1.3212
 4628TIP3    H213849   0.889   4.419   4.758 -0.5469  2.2551  1.6210
 4629TIP3   OH213850   5.900   5.312   3.782  0.2981  0.5128 -0.0713
 4629TIP3    H113851   5.855   5.287   3.701  0.4804  1.8011 -0.5960
 4629TIP3    H213852   5.830   5.319   3.847  0.4133 -3.0737  0.6250
 4630TIP3   OH213853   4.096   4.345   4.272 -0.4851  0.1262  0.3620
 4630TIP3    H113854   4.006   4.345   4.237 -0.5863 -0.0839  0.6185
 4630TIP3    H213855   4.086   4.370   4.363 -0.1129  1.6943  0.0004
 4631TIP3   OH213856   0.116   3.374   1.911  0.2921  0.5304 -0.0577
 4631TIP3    H113857   0.194   3.424   1.891  1.8101 -1.2831  0.9666
 4631TIP3    H213858   0.148   3.297   1.958 -1.9256 -1.2523 -1.2520
 4632TIP3   OH213859   0.062   4.164   4.750 -0.6444  0.5271 -0.0934
 4632TIP3    H113860   0.019   4.114   4.680  1.5176 -1.3466 -0.2218
 4632TIP3    H213861   0.156   4.154   4.732 -0.0105  0.3316  2.8134
 4633TIP3   OH213862   3.184   2.656   0.119  1.2641  0.2170  0.2094
 4633TIP3    H113863   3.266   2.610   0.102 -0.0377 -1.3017 -2.4341
 4633TIP3    H213864   3.115   2.591   0.103 -0.5814  2.3733 -1.3069
 4634TIP3   OH213865   6.013   5.536   1.845  0.0911  0.6270 -0.1639
 4634TIP3    H113866   6.027   5.598   1.916  0.7759  0.9078 -0.5302
 4634TIP3    H213867   6.030   5.450   1.883 -1.4568  0.5759  0.5107
 4635TIP3   OH213868   5.366   2.107   4.402  0.2887  0.0888  0.0184
 4635TIP3    H113869   5.393   2.150   4.483  2.8132 -0.8191 -0.2657
 4635TIP3    H213870   5.419   2.148   4.334 -1.2223  0.2793 -1.1056
 4636TIP3   OH213871   1.348   5.937   0.752 -0.3545 -0.6917  0.6780
 4636TIP3    H113872   1.373   5.978   0.835  0.2438 -0.1919  0.2524
 4636TIP3    H213873   1.424   5.947   0.696 -0.3452 -1.9911  0.4099
 4637TIP3   OH213874   4.449   1.850   3.375  0.5777  0.0235  0.0752
 4637TIP3    H113875   4.516   1.912   3.404  0.4494  0.8990 -1.3987
 4637TIP3    H213876   4.369   1.878   3.419  0.7381  0.2786  0.2042
 4638TIP3   OH213877   6.655   4.023   3.932 -0.4178  0.2231  0.0584
 4638TIP3    H113878   6.560   4.017   3.940 -0.2850 -0.5153  1.4135
 4638TIP3    H213879   6.686   4.047   4.019  0.6932 -0.2404 -0.1814
 4639TIP3   OH213880   4.558   0.827   0.045  0.3584  0.2550 -0.3992
 4639TIP3    H113881   4.518   0.743   0.067  1.9940 -0.4944 -0.1314
 4639TIP3    H213882   4.500   0.864  -0.022 -0.2343 -1.2271 -0.7457
 4640TIP3   OH213883   4.822   3.819   3.354 -0.0303 -0.0306  0.0926
 4640TIP3    H113884   4.886   3.792   3.419 -1.3031 -0.2758  1.2967
 4640TIP3    H213885   4.740   3.777   3.382 -1.1410  1.7536 -0.3021
 4641TIP3   OH213886   1.505   3.366   4.271  0.3452  0.1632 -1.0413
 4641TIP3    H113887   1.434   3.302   4.264 -0.6308  1.2688 -1.5178
 4641TIP3    H213888   1.471   3.444   4.228  0.9491  1.5057  0.8319
 4642TIP3   OH213889   2.187   0.213   4.052 -0.7620  0.3218  0.2971
 4642TIP3    H113890   2.182   0.253   4.139  1.1790  1.4972 -0.0752
 4642TIP3    H213891   2.248   0.140   4.063 -1.4606 -0.2852  0.1742
 4643TIP3   OH213892   1.440   6.302   3.256  0.3636  0.4059 -0.4116
 4643TIP3    H113893   1.402   6.373   3.204 -0.5471 -1.1024 -1.9110
 4643TIP3    H213894   1.503   6.346   3.314  0.1143  2.3744 -1.5353
 4644TIP3   OH213895   3.021   4.069   4.413  0.2523  0.0980  0.4997
 4644TIP3    H113896   3.071   4.139   4.455 -1.1744  0.9780  0.7891
 4644TIP3    H213897   2.930   4.086   4.437 -0.0221 -2.8792  2.1098
 4645TIP3   OH213898   3.688   5.901   5.113 -0.1427  0.1027 -0.2449
 4645TIP3    H113899   3.676   5.996   5.119  1.8628  0.4941 -1.4860
 4645TIP3    H213900   3.618   5.871   5.056 -0.9264  0.7815  0.3393
 4646TIP3   OH213901   1.854   6.157   3.752  0.0472  0.5119 -0.0792
 4646TIP3    H113902   1.820   6.132   3.667 -0.5981  0.3550  0.2157
 4646TIP3    H213903   1.857   6.076   3.802 -0.6555  0.7716  0.4058
 4647TIP3   OH213904   2.380   4.943   5.280 -0.6462 -0.4209  0.3187
 4647TIP3    H113905   2.407   4.900   5.199  0.0220 -0.3377  0.4921
 4647TIP3    H213906   2.352   4.871   5.337 -0.9553 -0.4942  0.0773
 4648TIP3   OH213907   5.454   5.854   2.604  0.3847  0.7023  0.2413
 4648TIP3    H113908   5.374   5.862   2.551  0.8968 -2.0386 -1.1268
 4648TIP3    H213909   5.522   5.894   2.550  0.2127  1.8361  0.8258
 4649TIP3   OH213910   1.619   4.356   5.103  0.3731  0.7412  0.6248
 4649TIP3    H113911   1.616   4.335   5.197  0.1913  0.6886  0.6064
 4649TIP3    H213912   1.699   4.312   5.072  0.3116  0.5679  0.7088
 4650TIP3   OH213913   3.326   3.441   1.541  0.0535  0.3659  0.5078
 4650TIP3    H113914   3.360   3.517   1.494 -0.9349 -0.0812 -1.0050
 4650TIP3    H213915   3.404   3.402   1.582  0.8888  1.0700 -0.3500
 4651TIP3   OH213916   2.840   6.569   3.681 -0.5008 -0.1238  0.1790
 4651TIP3    H113917   2.757   6.574   3.634 -1.1960  0.8793  1.4375
 4651TIP3    H213918   2.895   6.635   3.639 -0.1903 -1.0007 -0.8586
 4652TIP3   OH213919   4.043   4.878   2.626  0.2834 -0.3421 -0.0920
 4652TIP3    H113920   3.986   4.862   2.701  1.9102 -2.2655  0.8133
 4652TIP3    H213921   4.132   4.864   2.659  1.1403 -0.0808 -2.1031
 4653TIP3   OH213922   1.748   6.555   1.089  0.0083 -0.2861 -0.0388
 4653TIP3    H113923   1.779   6.560   0.999 -0.9288  0.2905 -0.3509
 4653TIP3    H213924   1.717   6.644   1.109 -0.4534 -0.5768  0.5905
 4654TIP3   OH213925   4.288   4.567   3.783 -0.9368 -0.2384  0.2028
 4654TIP3    H113926   4.302   4.574   3.877 -2.3131  1.1624  0.3315
 4654TIP3    H213927   4.312   4.476   3.762 -0.1555 -0.4344  1.7914
 4655TIP3   OH213928   4.462   1.270   2.780  0.1638  0.1224  0.2635
 4655TIP3    H113929   4.525   1.198   2.779 -0.3953 -0.4313  1.6728
 4655TIP3    H213930   4.388   1.239   2.728  0.4982  0.2625 -0.3099
 4656TIP3   OH213931   3.087   3.843   3.583 -0.2303 -0.5756 -0.1981
 4656TIP3    H113932   3.089   3.768   3.642  0.7087 -2.1607 -2.1079
 4656TIP3    H213933   3.014   3.824   3.523  0.5236 -0.3869 -1.1998
 4657TIP3   OH213934   4.533   0.120   0.819 -0.0674 -0.0997  0.1290
 4657TIP3    H113935   4.625   0.122   0.845 -0.1065 -1.2682  0.4388
 4657TIP3    H213936   4.527   0.183   0.747  0.8698  0.3260  0.4045
 4658TIP3   OH213937   5.290   6.441   2.345 -0.0432  0.0063  0.1995
 4658TIP3    H113938   5.309   6.347   2.339  0.0678  0.1015 -1.2524
 4658TIP3    H213939   5.322   6.466   2.432  0.8484 -1.1016  0.2180
 4659TIP3   OH213940   0.966   1.457   0.871  0.6241  0.8386  0.2835
 4659TIP3    H113941   0.994   1.374   0.832  0.1341  0.1277  1.3821
 4659TIP3    H213942   1.039   1.483   0.927  0.3956  0.6470  0.6746
 4660TIP3   OH213943   6.122   6.532   0.775 -0.2915  0.6262  0.5117
 4660TIP3    H113944   6.092   6.507   0.862 -0.1616  1.7620  0.9043
 4660TIP3    H213945   6.193   6.594   0.792  0.5683 -0.0891 -0.4079
 4661TIP3   OH213946   3.762   3.302   4.314 -0.1911 -0.0391  0.4689
 4661TIP3    H113947   3.768   3.208   4.330 -1.8216 -0.0197  1.3916
 4661TIP3    H213948   3.670   3.318   4.293 -0.0756  1.4227  0.9021
 4662TIP3   OH213949   3.052   6.407   1.067  0.0451 -0.3840 -0.5708
 4662TIP3    H113950   3.044   6.433   0.975 -0.9202 -0.5490 -0.5491
 4662TIP3    H213951   3.143   6.425   1.090  0.3873 -0.6598 -1.6569
 4663TIP3   OH213952   0.411   1.856   4.852 -0.2118 -0.4469  0.3348
 4663TIP3    H113953   0.354   1.895   4.786 -0.9350 -0.2163  1.0747
 4663TIP3    H213954   0.368   1.773   4.874  0.3952 -0.8465  0.0184
 4664TIP3   OH213955   0.089   1.495   3.679 -0.6812 -0.1689  0.5031
 4664TIP3    H113956   0.154   1.436   3.715 -0.5218  0.0556  0.5849
 4664TIP3    H213957   0.049   1.446   3.607 -2.0974 -1.2134  1.9502
 4665TIP3   OH213958   5.100   2.503   1.427  0.1736 -0.5008  0.2601
 4665TIP3    H113959   5.074   2.477   1.339 -1.5382 -0.3359  0.6820
 4665TIP3    H213960   5.143   2.588   1.414  1.4601 -1.2294 -0.5636
 4666TIP3   OH213961   6.394   2.545   1.810  0.5716 -0.1826 -0.0250
 4666TIP3    H113962   6.459   2.568   1.876  0.7298 -1.0005  0.1125
 4666TIP3    H213963   6.313   2.530   1.859  0.4924 -0.0180 -0.1038
 4667TIP3   OH213964   4.101   4.831   4.597 -0.4498 -0.1775 -0.1252
 4667TIP3    H113965   4.039   4.770   4.558  0.1797 -0.5858 -0.4948
 4667TIP3    H213966   4.055   4.866   4.673 -0.8132 -1.1060  0.0903
 4668TIP3   OH213967   3.341   4.183   4.822  0.1271  0.4877 -0.2632
 4668TIP3    H113968   3.390   4.260   4.793 -1.2814  1.4863 -0.0731
 4668TIP3    H213969   3.297   4.212   4.903 -1.0590 -0.2452 -0.6271
 4669TIP3   OH213970   7.015   3.287   5.756 -0.2165 -0.1483 -0.1162
 4669TIP3    H113971   6.977   3.307   5.842 -0.3444  0.2911 -0.2693
 4669TIP3    H213972   7.016   3.372   5.711  0.6466 -0.2117 -0.2318
 4670TIP3   OH213973   3.353   0.101   1.962 -0.0879 -0.6335  0.1573
 4670TIP3    H113974   3.309   0.180   1.994  1.2425  1.6589 -3.1090
 4670TIP3    H213975   3.283   0.035   1.960 -1.6861  0.9044  1.4216
 4671TIP3   OH213976   1.104   1.481   3.634  0.0137  0.1420  0.5506
 4671TIP3    H113977   1.184   1.429   3.628  0.5548  0.9276  0.7207
 4671TIP3    H213978   1.123   1.545   3.703 -0.4521  0.8483  0.0346
 4672TIP3   OH213979   3.822   5.006   5.459  0.4762 -0.2557 -0.3004
 4672TIP3    H113980   3.766   5.055   5.519  0.6749  0.3391 -0.5868
 4672TIP3    H213981   3.849   4.929   5.508  1.8779  0.9485  0.9381
 4673TIP3   OH213982   1.410   4.741   1.088 -0.5910  0.4644 -0.3125
 4673TIP3    H113983   1.408   4.655   1.130  0.3585  0.4859 -0.1962
 4673TIP3    H213984   1.493   4.779   1.116 -0.8093  1.2492 -0.7064
 4674TIP3   OH213985   5.417   0.738   2.061 -0.5364 -0.1317  0.5207
 4674TIP3    H113986   5.398   0.663   2.117 -0.3491 -0.5571  0.0202
 4674TIP3    H213987   5.331   0.775   2.041 -0.7970 -1.3568 -0.7859
 4675TIP3   OH213988   4.515   1.169   3.464 -0.2172  0.0085 -0.4509
 4675TIP3    H113989   4.513   1.230   3.390  0.3856 -0.3190 -0.7502
 4675TIP3    H213990   4.558   1.217   3.534 -0.9817  0.3943 -0.2364
 4676TIP3   OH213991   1.571   5.210   2.658  0.1982  0.3167  0.3588
 4676TIP3    H113992   1.619   5.201   2.740  0.7576  0.4528  0.0553
 4676TIP3    H213993   1.618   5.152   2.597 -0.2592  0.1544  0.1588
 4677TIP3   OH213994   3.727   6.614   3.844 -0.5120 -0.0145  0.7216
 4677TIP3    H113995   3.810   6.609   3.892 -0.3225 -1.4631  0.2961
 4677TIP3    H213996   3.687   6.528   3.858 -2.0628  0.7507  1.1137
 4678TIP3   OH213997   1.949   1.916   4.481  0.1100 -0.1754 -0.0543
 4678TIP3    H113998   1.878   1.858   4.453  1.7073 -1.3964 -1.8953
 4678TIP3    H213999   1.944   1.990   4.420  1.5090 -1.2057 -1.5331
 4679TIP3   OH214000   0.197   4.718   5.271  0.2483  0.7400 -0.3419
 4679TIP3    H114001   0.271   4.658   5.259  0.0600  0.6567 -1.1315
 4679TIP3    H214002   0.129   4.664   5.313 -0.4766 -0.0545 -2.4269
 4680TIP3   OH214003   1.433   1.550   4.152 -1.0011  0.3666 -0.4966
 4680TIP3    H114004   1.383   1.474   4.183 -0.8575 -0.2477 -1.7392
 4680TIP3    H214005   1.469   1.589   4.232 -0.0349 -1.6045  0.0994
 4681TIP3   OH214006   2.642   6.655   0.370  0.4772  0.0596 -0.0030
 4681TIP3    H114007   2.624   6.747   0.352  0.0508 -0.0768 -0.3009
 4681TIP3    H214008   2.603   6.640   0.456  0.3839  0.1137 -0.0351
 4682TIP3   OH214009   5.820   0.895   0.735 -0.4849  0.0771  0.1383
 4682TIP3    H114010   5.736   0.939   0.722 -0.5918 -0.1906 -0.0867
 4682TIP3    H214011   5.843   0.914   0.826 -1.6803 -1.3273  0.7863
 4683TIP3   OH214012   2.553   1.585   3.239  0.4343 -0.6878  0.2681
 4683TIP3    H114013   2.480   1.523   3.231  0.3113 -0.4892 -0.1697
 4683TIP3    H214014   2.608   1.567   3.163 -0.5900  1.0169 -0.9416
 4684TIP3   OH214015   1.505   5.363   2.020  1.1035  0.0629 -0.2120
 4684TIP3    H114016   1.514   5.327   2.108 -1.1391  0.1919  0.1529
 4684TIP3    H214017   1.515   5.288   1.962  0.9911 -0.3236  0.2602
 4685TIP3   OH214018   2.093   1.663   4.295  0.3475  0.1142 -0.1534
 4685TIP3    H114019   2.182   1.635   4.273  0.7054  0.6132  0.6015
 4685TIP3    H214020   2.098   1.758   4.299 -0.0583  0.1131  0.5368
 4686TIP3   OH214021   5.234   0.569   1.500  0.0261 -0.1499 -0.0580
 4686TIP3    H114022   5.146   0.606   1.494 -0.4042 -1.2066 -0.4667
 4686TIP3    H214023   5.268   0.602   1.584 -0.4298  0.9296 -0.2785
 4687TIP3   OH214024   0.204   4.606   0.516 -0.4812  0.2360  0.1016
 4687TIP3    H114025   0.143   4.633   0.585 -0.0945 -2.1054  1.4769
 4687TIP3    H214026   0.281   4.574   0.563  0.8179  0.8505 -1.5246
 4688TIP3   OH214027   5.868   6.226   1.478 -1.0401  0.2474  0.2424
 4688TIP3    H114028   5.838   6.259   1.393 -1.1994  0.3884  0.3511
 4688TIP3    H214029   5.916   6.146   1.458 -0.6914  0.5163 -0.0262
 4689TIP3   OH214030   6.617   6.469   5.139  0.4259  0.1385 -0.0485
 4689TIP3    H114031   6.681   6.520   5.091  1.6869  0.0703  1.4793
 4689TIP3    H214032   6.661   6.386   5.157 -0.2861 -0.1224  0.5612
 4690TIP3   OH214033   3.917   3.530   1.996 -0.3865  0.4449  0.7999
 4690TIP3    H114034   3.890   3.469   2.065 -1.0448 -0.1272  0.0527
 4690TIP3    H214035   3.931   3.474   1.920  0.1006  1.1029  0.4018
 4691TIP3   OH214036   7.054   2.011   1.965 -0.5785 -0.7513 -0.3030
 4691TIP3    H114037   7.137   1.968   1.944  1.6193  3.4134 -1.2768
 4691TIP3    H214038   7.070   2.054   2.049 -0.3646  2.8189 -2.0023
 4692TIP3   OH214039   4.581   5.931   5.462 -0.1779 -0.4658 -0.1121
 4692TIP3    H114040   4.609   5.918   5.371 -0.9789  0.1786 -0.4594
 4692TIP3    H214041   4.579   5.843   5.499  1.7262 -0.6143 -0.2205
 4693TIP3   OH214042   1.786   5.378   3.210  0.2273  0.3985  0.3800
 4693TIP3    H114043   1.772   5.285   3.192  1.2942  0.0533  1.2161
 4693TIP3    H214044   1.701   5.409   3.241  0.3223 -0.7788  1.9589
 4694TIP3   OH214045   7.204   4.206   0.317  0.0626 -0.0005 -0.0941
 4694TIP3    H114046   7.200   4.298   0.341  0.0556  0.1199 -0.5454
 4694TIP3    H214047   7.179   4.204   0.225 -1.5422 -0.6322  0.3192
 4695TIP3   OH214048   6.535   0.875   3.429 -0.7989  0.4237  0.6205
 4695TIP3    H114049   6.500   0.960   3.456  0.0400  1.1013 -0.3698
 4695TIP3    H214050   6.510   0.867   3.337  0.4993  0.3319  0.2590
 4696TIP3   OH214051   2.521   6.423   5.391 -0.8108  0.1232  0.2497
 4696TIP3    H114052   2.549   6.369   5.318 -2.2342  0.1016 -0.3171
 4696TIP3    H214053   2.575   6.502   5.384 -1.6010  0.5659 -1.4623
 4697TIP3   OH214054   5.296   4.660   4.098 -0.3599  0.0833  0.4626
 4697TIP3    H114055   5.282   4.663   4.003  0.6773  1.7868  0.3160
 4697TIP3    H214056   5.391   4.659   4.108 -0.4632 -1.4714  1.4969
 4698TIP3   OH214057   1.131   3.236   4.723 -0.3473  0.4862 -0.0450
 4698TIP3    H114058   1.077   3.236   4.644  1.3122 -0.7185 -1.2590
 4698TIP3    H214059   1.218   3.261   4.693  0.3847 -0.2066  1.3605
 4699TIP3   OH214060   2.779   1.910   1.290 -0.1022  0.5254  0.2359
 4699TIP3    H114061   2.757   1.822   1.323 -0.7753  0.9343  0.8971
 4699TIP3    H214062   2.701   1.962   1.307  0.2127  1.2041 -0.3658
 4700TIP3   OH214063   2.321   5.592   4.722 -0.5060 -0.0290 -0.0120
 4700TIP3    H114064   2.376   5.669   4.706 -1.2907  0.2489 -1.5192
 4700TIP3    H214065   2.370   5.542   4.788  0.8456  0.9070 -0.2476
 4701TIP3   OH214066   0.965   2.609   1.305  0.8048 -0.0300 -0.4661
 4701TIP3    H114067   1.020   2.587   1.381  0.8987 -0.0681 -0.5456
 4701TIP3    H214068   0.895   2.544   1.307  0.4196  0.3881 -0.0091
 4702TIP3   OH214069   0.268   6.599   5.141  0.6932 -0.1480  0.3180
 4702TIP3    H114070   0.204   6.612   5.211 -0.2145  0.3276 -0.5759
 4702TIP3    H214071   0.269   6.505   5.126 -0.1471 -0.1235  0.0395
 4703TIP3   OH214072   5.633   2.679   3.645 -0.0716  0.1960  0.0589
 4703TIP3    H114073   5.639   2.773   3.625  0.8564 -0.0446 -0.8672
 4703TIP3    H214074   5.687   2.668   3.723 -1.1236  0.6156  0.8600
 4704TIP3   OH214075   3.776   5.678   4.852 -0.3488 -0.2975  0.3312
 4704TIP3    H114076   3.809   5.649   4.937  0.9453  2.3583  0.8362
 4704TIP3    H214077   3.848   5.662   4.791  1.2623  3.3524  1.0002
 4705TIP3   OH214078   6.028   0.067   4.254  0.4914  0.3163  0.0129
 4705TIP3    H114079   6.091   0.136   4.276 -0.2227  1.4228 -1.2281
 4705TIP3    H214080   6.018   0.074   4.159  1.1703 -2.2208 -0.3162
 4706TIP3   OH214081   1.895   0.402   5.106 -0.3318  0.2064 -0.4264
 4706TIP3    H114082   1.812   0.446   5.123 -0.2332  0.6562 -1.0668
 4706TIP3    H214083   1.946   0.417   5.185 -1.3601 -1.3071  0.5708
 4707TIP3   OH214084   1.750   2.970   2.139  0.2751  0.0144  0.0895
 4707TIP3    H114085   1.757   3.062   2.165 -0.5468 -0.0585  0.6027
 4707TIP3    H214086   1.740   2.973   2.043 -0.7452  0.5278  0.1930
 4708TIP3   OH214087   6.536   0.685   1.069 -0.6856  0.2802  0.3022
 4708TIP3    H114088   6.545   0.635   0.988  0.7421 -0.0926  0.6635
 4708TIP3    H214089   6.625   0.695   1.101 -1.2979 -0.6810  2.5064
 4709TIP3   OH214090   2.556   1.038   4.858  0.2218 -0.1708 -0.3133
 4709TIP3    H114091   2.543   1.114   4.801 -1.4628 -0.4246 -0.3179
 4709TIP3    H214092   2.601   0.974   4.804  0.2760  0.2588 -0.7827
 4710TIP3   OH214093   1.449   6.088   3.687  0.5729 -0.1861  0.4804
 4710TIP3    H114094   1.415   6.097   3.598  0.5242 -1.2010  0.3876
 4710TIP3    H214095   1.544   6.099   3.677  0.4510  1.1123  0.5233
 4711TIP3   OH214096   4.520   0.183   1.296  0.3487 -0.1182 -0.0212
 4711TIP3    H114097   4.457   0.144   1.357  0.2223 -1.9036 -1.2150
 4711TIP3    H214098   4.606   0.162   1.333  0.2862  1.0318  0.8341
 4712TIP3   OH214099   0.304   0.111   5.476 -0.2274  0.4570  0.4247
 4712TIP3    H114100   0.316   0.109   5.571  1.0328  0.9816  0.2959
 4712TIP3    H214101   0.242   0.040   5.459 -0.9336  0.7244  1.6826
 4713TIP3   OH214102   5.178   4.031   3.627  0.2447 -0.8021 -0.4222
 4713TIP3    H114103   5.168   4.082   3.708 -0.8119 -2.2751  0.4390
 4713TIP3    H214104   5.109   4.063   3.569  1.1976  0.4695 -0.8867
 4714TIP3   OH214105   1.897   2.700   4.590  0.7395 -0.1659 -0.2563
 4714TIP3    H114106   1.859   2.682   4.677  0.4235  2.2322  0.1639
 4714TIP3    H214107   1.981   2.742   4.609  1.4823 -1.1746 -1.1680
 4715TIP3   OH214108   4.714   0.508   2.163  0.1226 -0.5902 -0.5191
 4715TIP3    H114109   4.647   0.497   2.230 -0.2745  0.6730 -0.6851
 4715TIP3    H214110   4.733   0.419   2.133 -0.7144 -1.0495  0.2655
 4716TIP3   OH214111   2.081   2.572   5.814  0.3800  0.1897 -0.4674
 4716TIP3    H114112   2.108   2.523   5.892 -0.5396  0.5623  0.1069
 4716TIP3    H214113   2.127   2.656   5.822  0.3808  0.1825 -0.3968
 4717TIP3   OH214114   5.208   6.760   2.369  0.5849 -0.3385  0.2654
 4717TIP3    H114115   5.141   6.705   2.412  1.0821 -0.6541  0.6497
 4717TIP3    H214116   5.202   6.844   2.414 -0.4311  0.0545 -0.5696
 4718TIP3   OH214117   3.410   2.186   1.359  0.0420  0.1384 -0.1795
 4718TIP3    H114118   3.436   2.267   1.314 -0.1603 -0.6636 -1.8049
 4718TIP3    H214119   3.457   2.190   1.443 -0.8984  2.4939  0.3206
 4719TIP3   OH214120   0.239   2.271   4.118 -0.5661 -0.0966  0.8325
 4719TIP3    H114121   0.291   2.238   4.045  0.8161  1.5438  1.0063
 4719TIP3    H214122   0.177   2.332   4.077  0.1052  0.7044  0.9761
 4720TIP3   OH214123   2.581   5.653   3.782 -0.4142 -0.1451 -0.2811
 4720TIP3    H114124   2.573   5.579   3.843 -0.1724 -1.1684 -1.4510
 4720TIP3    H214125   2.670   5.648   3.749 -0.8916 -0.3285 -1.5913
 4721TIP3   OH214126   0.995   3.937   0.676 -0.0033 -0.0619  0.7547
 4721TIP3    H114127   1.085   3.970   0.683 -0.2545  1.2141 -1.3814
 4721TIP3    H214128   0.996   3.855   0.727  2.7555 -0.8614 -0.3919
 4722TIP3   OH214129   0.986   1.575   0.113 -0.5549  0.0485 -0.4446
 4722TIP3    H114130   0.978   1.520   0.191  0.2830 -0.2352 -0.5464
 4722TIP3    H214131   1.074   1.611   0.117  0.6572 -2.3086 -2.7146
 4723TIP3   OH214132   1.778   0.893   1.175 -0.3800  0.3294  0.4851
 4723TIP3    H114133   1.856   0.899   1.121 -0.8448  0.4791 -0.1863
 4723TIP3    H214134   1.804   0.842   1.252  0.4178  0.5424  0.3566
 4724TIP3   OH214135   3.442   2.332   3.262  0.2386  0.2565 -0.0864
 4724TIP3    H114136   3.351   2.332   3.232  0.3281  2.9274 -0.5638
 4724TIP3    H214137   3.484   2.263   3.211 -1.9343 -2.8286  1.8953
 4725TIP3   OH214138   2.510   6.756   0.011 -0.3578 -0.4593  0.6224
 4725TIP3    H114139   2.450   6.732   0.081 -0.6895 -1.3910  0.0402
 4725TIP3    H214140   2.454   6.776  -0.064  0.0245 -0.6612  0.2748
 4726TIP3   OH214141   2.705   2.318   1.345 -0.1045  0.1168  0.4208
 4726TIP3    H114142   2.780   2.259   1.341 -1.2684 -1.3736 -1.8670
 4726TIP3    H214143   2.646   2.276   1.409  0.8553  1.2173  2.1159
 4727TIP3   OH214144   3.402   6.111   5.094  0.8939 -0.5978 -0.0115
 4727TIP3    H114145   3.383   6.115   5.000 -0.6548 -1.8831  0.2040
 4727TIP3    H214146   3.342   6.044   5.128  0.9345  0.3222  2.0178
 4728TIP3   OH214147   1.474   0.447   2.210  0.5446  0.0361  0.2096
 4728TIP3    H114148   1.529   0.485   2.278  0.0629  0.0208  0.6153
 4728TIP3    H214149   1.409   0.396   2.258 -1.0107  1.5854 -0.1407
 4729TIP3   OH214150   3.009   3.550   5.776  0.6191  0.2683  0.0587
 4729TIP3    H114151   2.957   3.623   5.743  1.7992  1.5227  0.8355
 4729TIP3    H214152   3.094   3.560   5.733  0.0468 -2.2705 -1.8935
 4730TIP3   OH214153   1.550   0.613   5.824  0.4749  0.0884  0.3892
 4730TIP3    H114154   1.560   0.606   5.919  0.3507  0.7714  0.4589
 4730TIP3    H214155   1.478   0.675   5.812  0.1508 -0.3908 -0.1482
 4731TIP3   OH214156  -0.003   4.088   1.443 -0.0664  0.9655 -0.2987
 4731TIP3    H114157   0.052   4.012   1.463 -0.9915  0.3980  0.1499
 4731TIP3    H214158  -0.004   4.138   1.525 -1.3177  0.2580  0.1409
 4732TIP3   OH214159   4.181   6.152   0.570 -0.0906 -0.3299 -0.0194
 4732TIP3    H114160   4.145   6.092   0.634  0.1938  0.0406  0.4970
 4732TIP3    H214161   4.275   6.152   0.587 -0.1084  0.4126  0.1345
 4733TIP3   OH214162   1.086   2.226   2.303 -0.1946 -0.5263 -0.0011
 4733TIP3    H114163   1.103   2.309   2.258 -2.3513 -0.5069 -0.8893
 4733TIP3    H214164   1.172   2.187   2.314  0.8193  1.5046 -0.1833
 4734TIP3   OH214165   5.368   2.850   4.349 -0.1320  0.0623  0.4578
 4734TIP3    H114166   5.379   2.941   4.320  0.5230 -0.1247  0.1074
 4734TIP3    H214167   5.404   2.848   4.438  0.7566 -0.0670  0.1043
 4735TIP3   OH214168   4.251   3.046   0.109 -0.6225  0.0386  0.0811
 4735TIP3    H114169   4.256   3.139   0.129  0.3045  0.2620 -1.0370
 4735TIP3    H214170   4.253   3.002   0.194 -2.8231  1.0536  0.7179
 4736TIP3   OH214171   2.490   2.375   0.362 -0.0739  0.2009  0.0627
 4736TIP3    H114172   2.503   2.297   0.415 -0.9548  0.0807  0.1049
 4736TIP3    H214173   2.413   2.356   0.308 -0.0290  0.8645 -0.2494
 4737TIP3   OH214174   1.132   2.378   1.387 -0.1081  0.4617  0.4425
 4737TIP3    H114175   1.189   2.332   1.448 -0.3735  0.2916  0.5670
 4737TIP3    H214176   1.179   2.376   1.303  0.8422  1.8197  0.9152
 4738TIP3   OH214177   7.163   1.222   3.186 -0.1653  0.5121  0.4507
 4738TIP3    H114178   7.150   1.183   3.100 -0.2079 -0.8655  1.0530
 4738TIP3    H214179   7.117   1.306   3.182 -1.0836 -0.0195 -0.5132
 4739TIP3   OH214180   6.833   5.744   5.730  0.2682  0.3142  0.2800
 4739TIP3    H114181   6.918   5.756   5.687 -0.2895 -0.3788 -1.0463
 4739TIP3    H214182   6.770   5.783   5.670 -0.5768 -1.0306  0.2633
 4740TIP3   OH214183   6.072   3.999   3.813 -0.1272 -0.0429 -0.0849
 4740TIP3    H114184   6.066   3.926   3.875  0.6950  0.1233  0.2041
 4740TIP3    H214185   6.013   4.065   3.847 -1.7064 -0.9621 -0.9167
 4741TIP3   OH214186   1.515   1.786   1.158 -0.1185 -0.1579 -0.6941
 4741TIP3    H114187   1.610   1.789   1.167 -0.0117 -1.6856 -1.1309
 4741TIP3    H214188   1.493   1.868   1.113  0.8358  0.8088  0.5331
 4742TIP3   OH214189   1.681   3.599   3.269  0.1015  1.4518 -0.7793
 4742TIP3    H114190   1.599   3.640   3.298  0.6874  1.5460  0.8792
 4742TIP3    H214191   1.720   3.662   3.209 -1.2082  1.2310 -1.9019
 4743TIP3   OH214192   6.520   2.776   0.707 -0.1048  0.3588 -0.1370
 4743TIP3    H114193   6.472   2.714   0.653 -1.1502 -0.1681  1.2992
 4743TIP3    H214194   6.598   2.729   0.736  0.0007  0.3332 -0.4637
 4744TIP3   OH214195   0.077   3.788   1.218 -0.1402  0.4274  0.0981
 4744TIP3    H114196   0.132   3.866   1.221  2.0338 -0.9992 -0.0974
 4744TIP3    H214197   0.117   3.733   1.150 -1.9411 -0.6183 -0.1606
 4745TIP3   OH214198   3.513   3.072   5.166 -0.8977  0.2607  0.0725
 4745TIP3    H114199   3.484   2.982   5.179  2.9363 -0.8228  2.6565
 4745TIP3    H214200   3.463   3.122   5.230 -1.5976 -0.3723  0.0375
 4746TIP3   OH214201   1.773   5.448   2.310 -0.2167  0.0184  0.3243
 4746TIP3    H114202   1.795   5.411   2.396  0.9963  0.1047  0.0742
 4746TIP3    H214203   1.806   5.538   2.313  2.4001 -0.7812 -1.1377
 4747TIP3   OH214204   5.597   2.246   2.253  0.2699  0.2599 -0.6370
 4747TIP3    H114205   5.633   2.299   2.181  0.3856 -0.0158 -0.7814
 4747TIP3    H214206   5.562   2.168   2.210  3.3658 -1.5725 -0.1168
 4748TIP3   OH214207   6.443   5.547   4.216  0.2545  0.1703 -0.3400
 4748TIP3    H114208   6.483   5.508   4.138  1.0467 -0.6552  0.4511
 4748TIP3    H214209   6.428   5.473   4.275 -1.4474  0.6141 -0.1558
 4749TIP3   OH214210   4.458   1.078   4.901 -0.1669 -0.3510  0.3453
 4749TIP3    H114211   4.423   1.086   4.813  0.3508  1.1801  0.2521
 4749TIP3    H214212   4.397   1.019   4.946 -0.2333 -1.4388 -1.1159
 4750TIP3   OH214213   4.876   0.574   4.943  0.2654 -0.4339  0.6776
 4750TIP3    H114214   4.853   0.514   5.014 -0.6543  0.6551  1.3407
 4750TIP3    H214215   4.825   0.544   4.869  0.6670 -1.1311  0.6671
 4751TIP3   OH214216   1.731   6.714   1.813 -0.3028  0.1143 -0.3750
 4751TIP3    H114217   1.712   6.717   1.719 -0.0121  0.9921 -0.4182
 4751TIP3    H214218   1.693   6.794   1.848 -0.4705 -0.2421  0.2751
 4752TIP3   OH214219   5.212   1.905   3.225 -0.2028 -0.8071 -0.2613
 4752TIP3    H114220   5.198   1.997   3.203 -2.6526 -1.2142 -0.7359
 4752TIP3    H214221   5.212   1.904   3.321  3.3472  0.0356 -0.0966
 4753TIP3   OH214222   0.897   2.869   1.187 -0.3560  0.4463 -0.2268
 4753TIP3    H114223   0.850   2.797   1.230  0.6509  0.0512  0.2633
 4753TIP3    H214224   0.986   2.863   1.222  0.2224  0.7916 -1.5734
 4754TIP3   OH214225   1.106   1.284   4.423 -0.1965 -0.0378 -0.0503
 4754TIP3    H114226   1.136   1.213   4.479 -1.3567  0.9866  1.9752
 4754TIP3    H214227   1.019   1.306   4.456 -1.3256  0.0974 -2.8090
 4755TIP3   OH214228   0.335   0.287   3.876 -0.3666  0.3826  0.2388
 4755TIP3    H114229   0.289   0.343   3.814  0.5006  1.7855  0.8023
 4755TIP3    H214230   0.266   0.234   3.916 -0.9135 -0.7605 -2.0495
 4756TIP3   OH214231   6.831   2.873   1.872  0.0489 -0.2311  0.2116
 4756TIP3    H114232   6.907   2.929   1.857 -0.4332 -0.1664 -2.6996
 4756TIP3    H214233   6.867   2.785   1.880  0.5343 -0.6570 -3.9737
 4757TIP3   OH214234   1.978   5.966   1.244 -0.2664  0.0929  0.4054
 4757TIP3    H114235   1.898   6.018   1.242 -1.7736 -2.0880 -2.0703
 4757TIP3    H214236   2.034   6.004   1.176 -1.3941 -1.3414 -1.4477
 4758TIP3   OH214237   4.573   6.406   0.718  0.1593 -0.0922  0.2101
 4758TIP3    H114238   4.663   6.377   0.733  1.2078  3.2191  1.2051
 4758TIP3    H214239   4.553   6.462   0.793 -2.7174 -0.6078 -0.0741
 4759TIP3   OH214240   4.612   6.432   2.645 -0.4020 -0.2675 -0.4666
 4759TIP3    H114241   4.639   6.353   2.693 -0.6956 -1.2440 -1.8335
 4759TIP3    H214242   4.523   6.449   2.675 -0.1836 -0.1777  0.1602
 4760TIP3   OH214243   3.231   1.744   4.534 -0.4490 -0.3019 -0.2226
 4760TIP3    H114244   3.207   1.769   4.623 -2.0416 -1.4229 -0.2919
 4760TIP3    H214245   3.151   1.708   4.496  0.1567  0.2503 -2.1672
 4761TIP3   OH214246   7.092   3.971   2.978  0.5267  0.3821  0.6249
 4761TIP3    H114247   7.138   4.054   2.990  0.9134  0.1665  0.6567
 4761TIP3    H214248   7.156   3.914   2.935  0.0713  0.2829  0.0768
 4762TIP3   OH214249   5.684   1.000   5.158  0.2672 -0.2076  0.2904
 4762TIP3    H114250   5.641   0.915   5.162  0.6007 -0.5285 -1.6636
 4762TIP3    H214251   5.763   0.990   5.211  0.2404 -1.0941  0.1688
 4763TIP3   OH214252   4.160   0.258   1.614  0.3155 -0.4369 -0.9091
 4763TIP3    H114253   4.130   0.347   1.629  0.1839 -0.6270  0.0139
 4763TIP3    H214254   4.240   0.268   1.562  0.7391  0.2667 -0.1513
 4764TIP3   OH214255   2.810   3.154   4.540  0.3265 -0.0737  0.2140
 4764TIP3    H114256   2.736   3.187   4.489 -1.0028 -0.2778  1.9223
 4764TIP3    H214257   2.858   3.232   4.565 -0.0076  0.1677  0.1124
 4765TIP3   OH214258   5.338   6.144   0.974  0.1624  0.0540 -0.2267
 4765TIP3    H114259   5.293   6.111   0.896 -1.3582  0.0996  0.5945
 4765TIP3    H214260   5.373   6.228   0.947  2.3175 -1.2383 -1.7420
 4766TIP3   OH214261   0.849   0.651   3.313  0.7924  0.6916 -0.2007
 4766TIP3    H114262   0.845   0.599   3.393 -2.7421  0.6710 -0.2050
 4766TIP3    H214263   0.825   0.740   3.341 -1.3741  0.5145 -1.2249
 4767TIP3   OH214264   3.036   0.154   4.201  0.5382 -0.2928  0.3215
 4767TIP3    H114265   3.118   0.137   4.156  0.5348  1.4006 -0.3697
 4767TIP3    H214266   2.987   0.072   4.195  0.3985 -0.0676 -3.0533
 4768TIP3   OH214267   5.861   4.942   3.837  0.2150 -0.1090  0.1395
 4768TIP3    H114268   5.837   4.973   3.924  0.8827  2.0762 -0.3985
 4768TIP3    H214269   5.957   4.936   3.840  0.1363 -2.1437  0.1766
 4769TIP3   OH214270   1.343   3.104   3.497 -0.2606  0.0143  0.5515
 4769TIP3    H114271   1.278   3.170   3.519  0.5530  1.4752 -1.1873
 4769TIP3    H214272   1.404   3.106   3.571 -0.7961  0.4576  0.9928
 4770TIP3   OH214273   2.494   1.874   3.237  0.5975  0.1678  0.1449
 4770TIP3    H114274   2.535   1.790   3.256 -1.9455 -1.2031 -0.0436
 4770TIP3    H214275   2.524   1.895   3.148  1.9221 -0.0696  0.5116
 4771TIP3   OH214276   1.612   6.312   1.096  0.0478  0.2977 -0.3200
 4771TIP3    H114277   1.664   6.389   1.073  0.2154  0.8446  1.6980
 4771TIP3    H214278   1.528   6.326   1.053  0.8084  0.4701 -1.8262
 4772TIP3   OH214279   2.276   3.542   3.255  0.4440 -0.1576  0.3242
 4772TIP3    H114280   2.218   3.618   3.264  0.8386  0.0702  1.0075
 4772TIP3    H214281   2.239   3.478   3.316  0.6596 -0.1735  0.4362
 4773TIP3   OH214282   2.098   2.728   0.575  0.0645 -0.2122  0.0934
 4773TIP3    H114283   2.177   2.749   0.626  0.4566  0.5889 -0.8157
 4773TIP3    H214284   2.034   2.794   0.603 -0.0384 -0.3790  0.2560
 4774TIP3   OH214285   6.166   0.020   5.733  0.5312 -0.4908  0.2975
 4774TIP3    H114286   6.243  -0.037   5.741  1.7165  1.3002  3.3893
 4774TIP3    H214287   6.198   0.098   5.687 -0.2252 -0.8220 -0.8609
 4775TIP3   OH214288   0.459   2.558   0.309 -0.1424 -0.2903  0.0117
 4775TIP3    H114289   0.479   2.645   0.276  0.1955  0.1903  1.3990
 4775TIP3    H214290   0.537   2.506   0.287 -0.2571 -0.2020 -0.6302
 4776TIP3   OH214291   6.991   5.188   1.813 -0.0009  0.0152 -0.1245
 4776TIP3    H114292   6.922   5.127   1.840 -0.6753 -0.3309 -2.3826
 4776TIP3    H214293   7.004   5.169   1.720  3.6676 -0.3989  0.3307
 4777TIP3   OH214294   5.259   4.687   1.431 -0.1732  0.5747 -0.3194
 4777TIP3    H114295   5.196   4.657   1.364  0.3082  0.9746 -0.9666
 4777TIP3    H214296   5.259   4.617   1.496 -1.4848  0.6807 -0.1713
 4778TIP3   OH214297   4.272   2.238   1.291  0.4341 -0.1503 -0.0863
 4778TIP3    H114298   4.317   2.200   1.366  0.4583  1.3557  0.6956
 4778TIP3    H214299   4.204   2.294   1.329 -3.1662 -3.3966 -1.2129
 4779TIP3   OH214300   1.614   2.156   2.941  0.3323 -0.3065 -0.8977
 4779TIP3    H114301   1.589   2.240   2.904  1.7420  0.4834 -0.1476
 4779TIP3    H214302   1.533   2.120   2.977  0.1463  2.0960  1.3746
 4780TIP3   OH214303   0.317   3.237   3.049  0.7085 -0.0977 -0.1340
 4780TIP3    H114304   0.290   3.329   3.059  3.6333  0.7208  1.2483
 4780TIP3    H214305   0.337   3.228   2.956 -2.1423 -0.2164 -0.8454
 4781TIP3   OH214306   6.797   0.592   5.802 -0.2271  0.4660  0.1242
 4781TIP3    H114307   6.716   0.541   5.806  0.2030 -0.1583  1.4615
 4781TIP3    H214308   6.861   0.532   5.763  0.3629 -0.1931  2.0041
 4782TIP3   OH214309   7.125   3.233   0.692  0.2140  0.6045 -0.3258
 4782TIP3    H114310   7.207   3.276   0.672  0.2321  1.2069  0.9210
 4782TIP3    H214311   7.067   3.255   0.619  0.8408  1.0295 -0.7002
 4783TIP3   OH214312   4.332   5.778   5.875  0.0802 -0.4921 -0.1608
 4783TIP3    H114313   4.409   5.835   5.866  0.0741 -0.3392  0.6871
 4783TIP3    H214314   4.262   5.837   5.901 -0.6518 -0.4271 -2.1123
 4784TIP3   OH214315   3.558   3.916   1.157  0.1711 -0.1189  0.6424
 4784TIP3    H114316   3.488   3.965   1.200  0.3112  1.1427 -0.4744
 4784TIP3    H214317   3.615   3.984   1.120  2.7272 -1.0460  2.5663
 4785TIP3   OH214318   3.520   5.463   4.995  0.0806  0.1647  0.4161
 4785TIP3    H114319   3.578   5.404   4.946 -1.6583 -0.5733 -0.8843
 4785TIP3    H214320   3.577   5.507   5.058  1.7736 -1.5355  0.1495
 4786TIP3   OH214321   6.673   4.728   1.547  0.4041 -0.7156 -1.0452
 4786TIP3    H114322   6.735   4.687   1.487  0.5498 -1.1728 -0.5908
 4786TIP3    H214323   6.648   4.810   1.504  1.3297 -0.5181 -1.2331
 4787TIP3   OH214324   6.398   3.574   1.816 -0.1042 -0.7317  0.7342
 4787TIP3    H114325   6.465   3.612   1.872  0.9843 -1.7951  0.2057
 4787TIP3    H214326   6.441   3.499   1.774 -0.9692 -0.1708 -1.2887
 4788TIP3   OH214327   6.973   5.874   2.269 -0.6798 -0.5953  0.5230
 4788TIP3    H114328   7.030   5.845   2.340  1.0083  0.5571 -0.2976
 4788TIP3    H214329   6.925   5.795   2.244  1.1337 -1.8252  0.7170
 4789TIP3   OH214330   4.098   4.792   3.693  0.1331 -0.1862  0.3145
 4789TIP3    H114331   4.051   4.780   3.776  0.5224  0.0272  0.5722
 4789TIP3    H214332   4.174   4.734   3.700  0.4520  0.2277  0.3337
 4790TIP3   OH214333   5.860   2.549   4.320 -0.3340 -0.0940 -0.2246
 4790TIP3    H114334   5.862   2.529   4.227  0.2865 -2.6635  0.2655
 4790TIP3    H214335   5.947   2.585   4.338 -0.9989  1.9814 -0.8732
 4791TIP3   OH214336   4.239   3.336   0.082 -0.0986  0.3195  0.6842
 4791TIP3    H114337   4.150   3.338   0.047  1.1740  1.4703 -2.9511
 4791TIP3    H214338   4.259   3.427   0.104  1.3035  0.8112 -2.1543
 4792TIP3   OH214339   5.426   2.689   3.267 -0.0692  0.2460 -0.1765
 4792TIP3    H114340   5.439   2.666   3.174 -1.3534 -2.0849  0.1520
 4792TIP3    H214341   5.498   2.645   3.312 -0.3655  0.0373  0.0919
 4793TIP3   OH214342   0.416   2.379   5.685 -0.0918 -0.2444 -0.4257
 4793TIP3    H114343   0.372   2.294   5.676 -1.4534  0.3765  0.0218
 4793TIP3    H214344   0.453   2.378   5.773  0.7535 -0.7432 -0.7765
 4794TIP3   OH214345   0.896   0.504   0.702  0.1728 -0.0775 -0.3717
 4794TIP3    H114346   0.837   0.496   0.627  0.7403 -1.1205 -0.7214
 4794TIP3    H214347   0.879   0.427   0.756  1.6562 -0.7556 -0.8144
 4795TIP3   OH214348   0.740   3.380   0.964 -0.2147  0.2555 -0.3956
 4795TIP3    H114349   0.701   3.460   0.999 -2.2004 -0.4598 -0.8311
 4795TIP3    H214350   0.759   3.326   1.041 -0.8174  0.3044 -0.2110
 4796TIP3   OH214351   3.681   4.779   3.526  0.0352 -0.5473  0.0599
 4796TIP3    H114352   3.751   4.769   3.461 -0.9847  1.3459 -1.4342
 4796TIP3    H214353   3.725   4.770   3.610  1.7460 -1.1793 -0.8534
 4797TIP3   OH214354   3.271   3.934   4.111  0.1915 -0.4189 -0.7408
 4797TIP3    H114355   3.187   3.980   4.111  1.0281  1.2004 -0.2381
 4797TIP3    H214356   3.273   3.886   4.194 -0.9985 -2.0462 -1.5913
 4798TIP3   OH214357   4.625   0.437   1.227  0.2146 -0.4450 -0.3455
 4798TIP3    H114358   4.703   0.399   1.186  0.4683 -1.5259  1.0589
 4798TIP3    H214359   4.564   0.364   1.235 -0.6306  0.2121 -0.6867
 4799TIP3   OH214360   3.978   3.969   2.767  0.0309  0.4069 -0.1544
 4799TIP3    H114361   3.931   3.946   2.848 -1.8056  2.1825 -0.6346
 4799TIP3    H214362   3.937   4.051   2.738  1.4736  0.4618 -2.2470
 4800TIP3   OH214363   1.569   5.511   1.243  0.3532 -0.0345  0.1448
 4800TIP3    H114364   1.510   5.435   1.246  0.5951 -0.2174  0.2930
 4800TIP3    H214365   1.643   5.486   1.298  0.0437  0.6402  0.8949
 4801TIP3   OH214366   4.619   5.487   2.572 -0.3278  0.1171  0.2138
 4801TIP3    H114367   4.548   5.436   2.534 -0.2028  0.3063 -0.2881
 4801TIP3    H214368   4.677   5.422   2.612  0.4792 -0.2772 -1.5085
 4802TIP3   OH214369   1.516   2.632   2.769  0.0024 -0.0671 -0.1479
 4802TIP3    H114370   1.429   2.671   2.779 -0.3648 -0.6423 -1.0173
 4802TIP3    H214371   1.511   2.550   2.818  0.3594  0.3333  0.5771
 4803TIP3   OH214372   1.952   3.537   4.127 -0.2076 -0.0396  1.5544
 4803TIP3    H114373   2.034   3.515   4.084 -1.0356 -0.1412 -0.0607
 4803TIP3    H214374   1.914   3.452   4.151 -0.0712 -0.0161  1.8556
 4804TIP3   OH214375   6.532   1.263   4.047  0.3138  0.5665 -0.1788
 4804TIP3    H114376   6.540   1.354   4.018 -1.2656  0.8739  0.2471
 4804TIP3    H214377   6.528   1.212   3.966 -2.2069  1.2409 -0.5742
 4805TIP3   OH214378   0.554   4.881   5.803  0.3528  0.1159  0.1931
 4805TIP3    H114379   0.518   4.794   5.786 -0.2034  0.3352  0.2156
 4805TIP3    H214380   0.643   4.877   5.769 -0.6873  0.5658 -2.8781
 4806TIP3   OH214381   6.019   4.306   4.947  0.4999  0.2867  0.7293
 4806TIP3    H114382   5.940   4.268   4.909 -0.1287  0.7829  1.5234
 4806TIP3    H214383   6.046   4.373   4.884  0.5613 -0.2042  0.2298
 4807TIP3   OH214384   3.279   4.183   3.360  0.1935 -0.3403  0.4369
 4807TIP3    H114385   3.289   4.102   3.409 -0.2343 -1.1513 -0.7579
 4807TIP3    H214386   3.308   4.251   3.420  3.6473 -1.6214  0.4393
 4808TIP3   OH214387   1.601   0.954   2.988 -0.0421  0.5451  0.6334
 4808TIP3    H114388   1.643   0.921   2.909 -1.0709  1.2016 -0.2216
 4808TIP3    H214389   1.531   0.890   3.006 -2.1911  2.2080 -1.1593
 4809TIP3   OH214390   6.101   2.792   1.650 -0.8490 -0.7596  0.1134
 4809TIP3    H114391   6.132   2.726   1.588 -2.1381 -0.2525 -1.1347
 4809TIP3    H214392   6.174   2.806   1.710  1.2800  0.3216 -2.5746
 4810TIP3   OH214393   1.418   2.008   1.032 -0.5385 -0.1961 -0.9247
 4810TIP3    H114394   1.348   2.073   1.041 -0.5038 -0.4229  1.3547
 4810TIP3    H214395   1.494   2.059   1.006 -0.4362  0.7823  1.1099
 4811TIP3   OH214396   2.858   5.322   1.751  0.2139  0.2578  0.2593
 4811TIP3    H114397   2.770   5.286   1.755  0.7717 -1.0958  1.8767
 4811TIP3    H214398   2.916   5.246   1.757  1.4881  1.1706  0.0985
 4812TIP3   OH214399   1.270   5.465   0.184 -0.1025  0.0706 -0.2536
 4812TIP3    H114400   1.178   5.463   0.159  0.0310  0.7196 -0.8014
 4812TIP3    H214401   1.273   5.416   0.267 -0.6288 -1.6891 -1.2288
 4813TIP3   OH214402   5.708   6.484   1.769 -0.0549  0.1480 -0.2176
 4813TIP3    H114403   5.616   6.484   1.795 -0.0330 -1.0748 -0.0888
 4813TIP3    H214404   5.748   6.413   1.819  0.1932 -1.7093 -2.8600
 4814TIP3   OH214405   2.781   6.179   4.505  0.0740 -0.2279 -0.2445
 4814TIP3    H114406   2.846   6.164   4.437  2.2414  0.2916  1.5944
 4814TIP3    H214407   2.816   6.252   4.557 -1.3705 -0.7307  1.5649
 4815TIP3   OH214408   6.343   1.843   1.566  0.1276 -0.2790 -0.2995
 4815TIP3    H114409   6.388   1.832   1.483  1.4772  0.1015  0.3428
 4815TIP3    H214410   6.412   1.866   1.628 -0.8322 -0.5930  0.9401
 4816TIP3   OH214411   5.670   0.451   3.472  0.5820 -0.1140 -0.0945
 4816TIP3    H114412   5.659   0.462   3.567 -1.5031  0.6992 -0.3781
 4816TIP3    H214413   5.728   0.376   3.463 -0.8340 -1.5239  1.8424
 4817TIP3   OH214414   6.307   5.472   2.188  0.0203 -0.0581 -0.8644
 4817TIP3    H114415   6.297   5.461   2.282 -2.1647 -1.1352 -1.1491
 4817TIP3    H214416   6.401   5.461   2.172  0.6715  1.6438  1.3101
 4818TIP3   OH214417   4.596   2.770   3.705 -0.4606 -0.0039  0.0689
 4818TIP3    H114418   4.598   2.675   3.715  0.6938 -0.1266 -1.0684
 4818TIP3    H214419   4.679   2.800   3.741 -1.2257  0.7034  1.3191
 4819TIP3   OH214420   0.008   4.140   5.380 -0.2684  0.0585  0.1120
 4819TIP3    H114421   0.017   4.065   5.322 -0.2497 -0.6857  1.0566
 4819TIP3    H214422  -0.004   4.102   5.467 -2.3933  1.0948  0.3347
 4820TIP3   OH214423   2.553   4.139   1.133  0.7587 -0.6590 -0.4964
 4820TIP3    H114424   2.457   4.144   1.132  0.6468 -1.0301  1.8164
 4820TIP3    H214425   2.571   4.045   1.137  1.1107 -0.5515  1.0002
 4821TIP3   OH214426   4.171   3.234   3.104 -0.5242  0.3948  0.2168
 4821TIP3    H114427   4.088   3.208   3.063  0.2043  1.3332 -1.9765
 4821TIP3    H214428   4.186   3.167   3.172 -2.5296 -0.3788 -0.0268
 4822TIP3   OH214429   2.278   3.749   4.407  0.2582  0.1140 -0.1738
 4822TIP3    H114430   2.248   3.689   4.475  2.7173  0.2693  1.1865
 4822TIP3    H214431   2.242   3.834   4.432  0.5501  0.0319  0.5610
 4823TIP3   OH214432   4.358   1.023   5.589 -0.1947 -0.1818  0.1187
 4823TIP3    H114433   4.354   0.928   5.598 -1.8226 -0.0449  1.3233
 4823TIP3    H214434   4.277   1.046   5.542 -0.6786  0.7222  1.3351
 4824TIP3   OH214435   2.947   3.023   5.518 -0.1537 -0.1994  0.2233
 4824TIP3    H114436   3.042   3.033   5.527 -0.1434  0.2965 -0.3892
 4824TIP3    H214437   2.924   2.956   5.582  1.0176 -2.3750 -1.4526
 4825TIP3   OH214438   3.705   0.918   4.816  0.0814  0.2099  0.1765
 4825TIP3    H114439   3.633   0.910   4.754  1.1549  0.7775 -1.1974
 4825TIP3    H214440   3.706   0.835   4.864  0.9441 -1.4402 -2.5103
 4826TIP3   OH214441   1.833   3.584   0.569 -0.0952 -0.3556 -0.8562
 4826TIP3    H114442   1.809   3.509   0.623  1.3398 -0.8055 -0.8073
 4826TIP3    H214443   1.856   3.546   0.484  2.7093 -0.2717 -0.2197
 4827TIP3   OH214444   3.660   2.478   0.596  0.1498  0.0997 -0.3378
 4827TIP3    H114445   3.702   2.563   0.580  0.0752  0.1168 -0.4410
 4827TIP3    H214446   3.627   2.451   0.511 -0.8098  0.4943 -0.1080
 4828TIP3   OH214447   4.182   1.102   1.703  0.5283 -0.5175  0.4637
 4828TIP3    H114448   4.179   1.086   1.608 -0.9351 -1.2414  0.6002
 4828TIP3    H214449   4.201   1.017   1.741  1.5581 -0.1419  0.8217
 4829TIP3   OH214450   5.349   3.495   3.422 -0.0071 -0.5357 -0.4150
 4829TIP3    H114451   5.420   3.437   3.451  1.3396  1.7272  1.2712
 4829TIP3    H214452   5.395   3.574   3.392 -1.7039  1.6349  2.1641
 4830TIP3   OH214453   2.877   5.017   4.444 -0.1490  0.3029 -0.1803
 4830TIP3    H114454   2.858   4.941   4.389  2.1266 -0.8329  0.4591
 4830TIP3    H214455   2.815   5.084   4.416  0.6685 -0.3001 -3.9202
 4831TIP3   OH214456   6.515   2.027   2.889  0.4801  0.3005  0.2508
 4831TIP3    H114457   6.575   2.096   2.918 -0.3088  1.4787 -0.8108
 4831TIP3    H214458   6.570   1.968   2.836  0.7917  1.1604 -0.3982
 4832TIP3   OH214459   0.068   5.113   5.256  0.1080 -0.4983 -0.2753
 4832TIP3    H114460   0.053   5.042   5.193  0.5232  0.7326 -1.8408
 4832TIP3    H214461  -0.018   5.152   5.268  0.0340 -0.7107 -0.1032
 4833TIP3   OH214462   6.069   5.993   5.129  0.1637 -0.1146 -0.6920
 4833TIP3    H114463   6.075   6.088   5.138 -2.7531  0.3772 -2.5980
 4833TIP3    H214464   6.128   5.972   5.057  0.7706  0.2327 -0.3027
 4834TIP3   OH214465   5.985   2.940   0.209 -0.6760 -0.0664 -0.0031
 4834TIP3    H114466   5.932   2.980   0.140 -0.7669 -1.5555 -0.8575
 4834TIP3    H214467   5.935   2.862   0.234  1.9914 -2.8725 -2.4679
 4835TIP3   OH214468   2.588   6.465   3.008 -0.0643  0.6139 -0.2378
 4835TIP3    H114469   2.661   6.499   2.956  0.1750  1.6570  0.7387
 4835TIP3    H214470   2.580   6.373   2.981  2.2366  0.1977  0.3075
 4836TIP3   OH214471   6.214   4.162   1.668 -0.5362 -0.2064 -0.0981
 4836TIP3    H114472   6.169   4.230   1.718 -0.5373 -1.5242  1.8309
 4836TIP3    H214473   6.148   4.095   1.653 -0.1663 -0.4669 -0.6229
 4837TIP3   OH214474   1.522   0.311   4.423 -0.0737 -0.4633 -0.2184
 4837TIP3    H114475   1.505   0.405   4.423 -1.3479 -0.6733  0.4007
 4837TIP3    H214476   1.597   0.300   4.365  0.5025  0.9997  0.2101
 4838TIP3   OH214477   4.514   6.529   5.239  0.1721 -0.7732 -0.6942
 4838TIP3    H114478   4.441   6.574   5.281 -0.6031 -0.7508 -2.0031
 4838TIP3    H214479   4.568   6.498   5.311 -0.6970 -0.0681  0.2835
 4839TIP3   OH214480   3.292   0.686   2.267  0.3149 -0.6763 -0.0756
 4839TIP3    H114481   3.339   0.670   2.349  0.3056 -0.8503 -0.1033
 4839TIP3    H214482   3.317   0.775   2.242 -0.2643 -0.3501  0.4934
 4840TIP3   OH214483   4.933   5.234   1.893  0.4078 -0.6148 -0.2749
 4840TIP3    H114484   4.880   5.155   1.892  1.4402 -1.3209  0.0414
 4840TIP3    H214485   4.989   5.226   1.816  0.6750 -0.3009 -0.1146
 4841TIP3   OH214486   2.875   1.466   0.520 -0.0160  0.2558 -0.0545
 4841TIP3    H114487   2.920   1.469   0.604 -1.1683 -1.9971  0.7325
 4841TIP3    H214488   2.913   1.391   0.475 -1.5186 -0.4583 -0.2029
 4842TIP3   OH214489   6.975   1.710   2.909 -0.7539  0.1955 -0.0921
 4842TIP3    H114490   7.027   1.788   2.927  1.5629 -1.3998  0.5467
 4842TIP3    H214491   6.999   1.684   2.820 -0.4521 -0.5581  0.2030
 4843TIP3   OH214492   0.711   2.935   0.980 -0.7545  0.0763  0.6472
 4843TIP3    H114493   0.707   2.848   0.942  0.4046  0.4489 -0.4005
 4843TIP3    H214494   0.768   2.925   1.057  0.4317  0.1175 -0.1919
 4844TIP3   OH214495   1.598   1.350   1.325  0.3930  0.0541 -0.2303
 4844TIP3    H114496   1.549   1.428   1.299  0.1191  0.7940  2.2866
 4844TIP3    H214497   1.683   1.384   1.354 -0.6699 -0.1084  3.5597
 4845TIP3   OH214498   1.898   6.426   2.022  0.2156  0.8995 -0.3419
 4845TIP3    H114499   1.987   6.453   2.002  0.5746  1.6522  2.0565
 4845TIP3    H214500   1.853   6.507   2.046 -1.2475  0.5766 -1.7669
 4846TIP3   OH214501   5.763   1.621   4.345 -0.4045 -0.3036 -0.0265
 4846TIP3    H114502   5.729   1.685   4.408  0.0317  0.8188 -0.8982
 4846TIP3    H214503   5.702   1.625   4.272 -1.5736 -2.4440  0.7512
 4847TIP3   OH214504   3.999   3.513   2.795  0.3305 -0.3916 -0.4129
 4847TIP3    H114505   4.014   3.419   2.797 -1.5293 -0.7187  1.2105
 4847TIP3    H214506   4.069   3.550   2.849  0.6114 -0.9001 -0.4206
 4848TIP3   OH214507   0.043   5.899   4.062  0.1291 -0.1321 -0.5567
 4848TIP3    H114508   0.003   5.876   4.146  0.5449 -1.1878 -0.6308
 4848TIP3    H214509   0.116   5.956   4.085 -1.2779  1.7017 -0.4086
 4849TIP3   OH214510   3.409   0.495   1.757  0.1325 -0.5440 -0.1377
 4849TIP3    H114511   3.393   0.519   1.848  0.5545 -0.1133 -0.1734
 4849TIP3    H214512   3.364   0.411   1.746 -2.0324  0.5437 -0.2050
 4850TIP3   OH214513   3.931   4.281   2.723 -0.1852 -0.1836 -0.0235
 4850TIP3    H114514   4.011   4.274   2.774 -0.9398  0.3913  1.2888
 4850TIP3    H214515   3.945   4.355   2.665  0.2410 -0.1019  0.1827
 4851TIP3   OH214516   5.853   3.104   0.651 -0.8653  0.0026 -0.0690
 4851TIP3    H114517   5.796   3.178   0.627 -0.1589  0.6628  0.2373
 4851TIP3    H214518   5.889   3.128   0.736  0.1698 -0.2032 -0.4257
 4852TIP3   OH214519   1.976   0.845   0.718 -0.0388  0.4287 -0.0472
 4852TIP3    H114520   2.042   0.897   0.671  1.3588 -2.7107 -1.8483
 4852TIP3    H214521   2.013   0.757   0.720 -2.8533 -0.8145  1.6867
 4853TIP3   OH214522   2.037   2.655   4.185  0.9885  0.4130 -0.1486
 4853TIP3    H114523   2.046   2.705   4.103  0.3384 -0.5140 -0.8081
 4853TIP3    H214524   2.074   2.569   4.164 -0.7302 -0.3998 -0.0138
 4854TIP3   OH214525   4.707   3.661   3.903 -0.2098  0.2076 -1.0352
 4854TIP3    H114526   4.616   3.658   3.933 -0.1104 -2.2583 -0.7793
 4854TIP3    H214527   4.758   3.676   3.982 -0.2152 -2.0781 -0.5403
 4855TIP3   OH214528   0.465   1.670   1.435  0.3347  0.1804 -0.0415
 4855TIP3    H114529   0.468   1.763   1.416  1.1563 -0.2452 -2.2137
 4855TIP3    H214530   0.509   1.661   1.520 -0.1927  1.7972  0.4274
 4856TIP3   OH214531   0.579   0.894   1.215  0.0705  0.2804 -0.5174
 4856TIP3    H114532   0.489   0.913   1.190  0.0579 -1.1147 -1.6493
 4856TIP3    H214533   0.621   0.980   1.221 -1.3096  0.9552  0.0344
 4857TIP3   OH214534   5.497   5.085   4.847 -0.6246 -0.4831 -0.7479
 4857TIP3    H114535   5.531   5.159   4.896  0.1546 -1.3212  0.0274
 4857TIP3    H214536   5.415   5.063   4.890  0.2087 -1.4146  0.4482
 4858TIP3   OH214537   3.792   1.504   1.296 -0.1073 -0.4816 -0.0783
 4858TIP3    H114538   3.862   1.543   1.347 -0.6718 -0.3825  0.6310
 4858TIP3    H214539   3.826   1.503   1.206 -0.0567  1.6107 -0.1306
 4859TIP3   OH214540   1.337   2.409   2.274 -0.3124  0.2217  0.3675
 4859TIP3    H114541   1.354   2.317   2.296 -2.2180  0.0051  1.1152
 4859TIP3    H214542   1.358   2.416   2.181 -2.2311 -1.5629 -0.2743
 4860TIP3   OH214543   0.344   0.387   2.530 -0.5099 -1.4960  0.2504
 4860TIP3    H114544   0.406   0.374   2.602 -0.0580 -0.9480 -0.0256
 4860TIP3    H214545   0.258   0.388   2.572 -0.1746  0.2776  1.0094
 4861TIP3   OH214546   6.236   0.472   3.575 -0.5672  0.0901 -0.3261
 4861TIP3    H114547   6.304   0.438   3.516 -0.6423 -0.9253  0.1526
 4861TIP3    H214548   6.164   0.409   3.568 -0.9614  0.4792  0.1207
 4862TIP3   OH214549   2.967   5.917   1.845  0.3921  0.3207  0.4245
 4862TIP3    H114550   3.013   5.951   1.921 -1.3773  1.1325  1.1829
 4862TIP3    H214551   2.961   5.991   1.785 -0.4503  0.3960  0.5973
 4863TIP3   OH214552   1.457   5.140   3.093 -0.2718 -0.4395 -0.6753
 4863TIP3    H114553   1.496   5.054   3.084 -0.7336 -1.0166  1.9629
 4863TIP3    H214554   1.364   5.127   3.072 -0.2469 -0.4798 -0.7589
 4864TIP3   OH214555   4.805   5.318   5.178 -0.1188  0.6435  0.2266
 4864TIP3    H114556   4.713   5.330   5.203 -0.0066  1.4762  0.2561
 4864TIP3    H214557   4.801   5.266   5.098 -0.5414 -0.7615  1.1129
 4865TIP3   OH214558   0.527   0.620   1.603  0.2192  0.0481 -0.3528
 4865TIP3    H114559   0.465   0.551   1.626 -0.1767  0.5844  0.2138
 4865TIP3    H214560   0.517   0.630   1.508  2.3571 -2.6602 -1.0122
 4866TIP3   OH214561   2.843   3.574   0.281 -0.3593  0.4894 -0.4451
 4866TIP3    H114562   2.800   3.654   0.251  0.8565  1.7305  0.9743
 4866TIP3    H214563   2.832   3.575   0.376 -0.0426 -0.8899 -0.3683
 4867TIP3   OH214564   4.219   2.486   5.480  0.2485  0.4349 -0.1701
 4867TIP3    H114565   4.128   2.463   5.500  0.6312 -0.4466  0.6563
 4867TIP3    H214566   4.271   2.423   5.530  1.3194 -0.8579 -2.7124
 4868TIP3   OH214567   3.377   2.851   1.442  0.2413 -0.0444 -0.6959
 4868TIP3    H114568   3.333   2.766   1.436 -0.2172  0.0613  0.7850
 4868TIP3    H214569   3.397   2.861   1.535  1.2459  1.0050 -1.0030
 4869TIP3   OH214570   5.201   2.667   3.419  0.1421  0.0671  0.2193
 4869TIP3    H114571   5.276   2.649   3.362 -0.5462 -0.6130 -0.4840
 4869TIP3    H214572   5.149   2.731   3.371 -0.2250 -0.1926  0.2707
 4870TIP3   OH214573   3.875   2.062   1.410 -0.2963  0.0302  0.8331
 4870TIP3    H114574   3.863   2.040   1.503 -2.7029 -0.0574  0.5519
 4870TIP3    H214575   3.902   2.154   1.411 -1.6098  0.4298  1.5931
 4871TIP3   OH214576   3.049   1.250   0.390 -0.0076  0.3969 -0.6614
 4871TIP3    H114577   3.012   1.237   0.303 -0.7797  2.8083 -0.7686
 4871TIP3    H214578   3.135   1.289   0.375 -0.4145  1.4349 -0.3663
 4872TIP3   OH214579   6.924   4.135   3.639  0.4852  0.7240 -0.0465
 4872TIP3    H114580   6.886   4.118   3.553 -2.5084 -0.9149  1.4669
 4872TIP3    H214581   6.931   4.049   3.680  1.6248  1.4837  1.4839
 4873TIP3   OH214582   3.253   4.284   2.397 -0.2991  0.0381 -0.5339
 4873TIP3    H114583   3.173   4.335   2.408  0.3651  1.3589 -1.4841
 4873TIP3    H214584   3.279   4.300   2.306 -0.5193 -2.7286 -1.1520
 4874TIP3   OH214585   0.858   4.512   5.337  0.2672  0.3619  0.8132
 4874TIP3    H114586   0.866   4.439   5.275  0.0681 -0.5652  1.8617
 4874TIP3    H214587   0.908   4.583   5.296  1.4204 -0.7053  0.3143
 4875TIP3   OH214588   3.625   0.607   0.387 -0.4759  0.5651  0.3029
 4875TIP3    H114589   3.684   0.665   0.435  1.6169 -2.1938  1.3437
 4875TIP3    H214590   3.665   0.598   0.300  0.9630 -1.5361  1.1016
 4876TIP3   OH214591   6.750   2.729   5.413 -0.6217  0.4341  0.1925
 4876TIP3    H114592   6.758   2.637   5.438 -0.0190  0.1847 -0.8855
 4876TIP3    H214593   6.840   2.761   5.410 -0.8273  1.0906  0.6245
 4877TIP3   OH214594   5.235   5.499   3.166 -0.3068  0.4912 -0.1527
 4877TIP3    H114595   5.228   5.574   3.225 -0.9841 -0.2369  0.7168
 4877TIP3    H214596   5.326   5.470   3.176 -0.0306  1.2014 -0.5186
 4878TIP3   OH214597   3.384   0.151   3.277  0.5589  0.5272  0.5074
 4878TIP3    H114598   3.474   0.133   3.254  0.0740  1.2005 -2.2829
 4878TIP3    H214599   3.360   0.083   3.340  2.4104 -0.7955 -0.1683
 4879TIP3   OH214600   0.036   2.188   3.270 -0.4095 -0.4880  0.0734
 4879TIP3    H114601   0.089   2.245   3.215 -0.3926 -0.3290  0.2530
 4879TIP3    H214602   0.091   2.110   3.284  0.1445  0.0389  0.9743
 4880TIP3   OH214603   6.010   0.969   3.505  0.5943 -0.0582 -0.0008
 4880TIP3    H114604   6.051   0.904   3.562 -1.0329  0.1674  1.4964
 4880TIP3    H214605   6.067   1.046   3.511 -0.3882  0.5594  2.7520
 4881TIP3   OH214606   0.848   3.819   4.898 -0.4678  0.2698  0.3977
 4881TIP3    H114607   0.811   3.902   4.870 -0.7872  0.4143  1.2219
 4881TIP3    H214608   0.897   3.840   4.978 -0.6303 -0.3504  0.6638
 4882TIP3   OH214609   0.770   4.353   4.883  1.1190 -1.2476 -0.3637
 4882TIP3    H114610   0.717   4.281   4.915 -1.0184  0.3853 -0.0743
 4882TIP3    H214611   0.810   4.390   4.961 -0.0750 -0.3730 -0.1531
 4883TIP3   OH214612   3.635   1.919   4.745  0.0077  0.4302  0.7219
 4883TIP3    H114613   3.717   1.954   4.712  1.3663 -2.7331  0.4969
 4883TIP3    H214614   3.569   1.948   4.681  1.0670  2.0633  0.3078
 4884TIP3   OH214615   2.777   1.044   5.062  0.4547 -0.3368  0.3055
 4884TIP3    H114616   2.732   1.036   5.146 -1.1345 -0.0518 -0.4895
 4884TIP3    H214617   2.707   1.041   4.997  1.5937  0.1997 -0.9789
 4885TIP3   OH214618   2.737   5.775   4.922  0.2473  0.1347  0.2650
 4885TIP3    H114619   2.649   5.777   4.961  0.6643  3.0263  1.2875
 4885TIP3    H214620   2.722   5.786   4.828 -0.5092  2.0148  0.5597
 4886TIP3   OH214621   5.139   3.167   5.066 -0.0669 -0.0576 -0.0620
 4886TIP3    H114622   5.102   3.080   5.054 -0.0781 -0.0453 -0.1183
 4886TIP3    H214623   5.122   3.188   5.158  0.6819 -0.4643  0.1722
 4887TIP3   OH214624   2.752   1.773   5.500 -0.4625 -0.0126  0.1644
 4887TIP3    H114625   2.778   1.787   5.591  0.0108  0.4472 -0.0371
 4887TIP3    H214626   2.834   1.771   5.452 -0.7174 -0.1355 -0.2711
 4888TIP3   OH214627   0.899   1.061   2.606 -0.4412 -0.5434  0.9131
 4888TIP3    H114628   0.862   1.142   2.640  1.4567  0.9514 -0.3265
 4888TIP3    H214629   0.824   1.011   2.574 -1.5259  1.8005 -0.4640
 4889TIP3   OH214630   2.109   6.369   4.381  0.0126  0.4776 -0.2763
 4889TIP3    H114631   2.075   6.310   4.448 -2.1131  3.1304  1.1803
 4889TIP3    H214632   2.111   6.316   4.301 -2.0282 -1.5092  0.8730
 4890TIP3   OH214633   3.481   0.328   1.445 -0.4219  0.5529 -0.1621
 4890TIP3    H114634   3.426   0.348   1.370 -1.4362 -0.0034  0.4108
 4890TIP3    H214635   3.421   0.292   1.510  0.5492  0.3562  0.6550
 4891TIP3   OH214636   6.281   3.841   5.369 -0.2436  0.1033  0.1560
 4891TIP3    H114637   6.204   3.896   5.350 -1.0918 -1.6399 -1.9650
 4891TIP3    H214638   6.356   3.895   5.345 -0.8381  1.3931  1.0701
 4892TIP3   OH214639   5.223   4.181   3.857  0.2987  0.5906 -0.0607
 4892TIP3    H114640   5.293   4.243   3.833  1.2686 -0.8745 -1.1868
 4892TIP3    H214641   5.270   4.105   3.891 -0.8336  0.0993  0.4319
 4893TIP3   OH214642   6.842   2.144   5.736 -0.1400  0.1802  0.2494
 4893TIP3    H114643   6.846   2.083   5.662  1.4210  1.2335 -0.5900
 4893TIP3    H214644   6.756   2.185   5.727  0.5502  1.3051 -1.8784
 4894TIP3   OH214645   5.602   4.117   0.422  0.3583 -0.0507  0.2153
 4894TIP3    H114646   5.650   4.155   0.348 -1.8676  0.1688 -1.2016
 4894TIP3    H214647   5.530   4.178   0.438  1.0187  0.1437  2.9215
 4895TIP3   OH214648   3.496   4.337   0.340 -0.2214 -0.2113 -0.1143
 4895TIP3    H114649   3.442   4.403   0.382 -0.2671  0.4709 -1.1973
 4895TIP3    H214650   3.526   4.378   0.259 -0.1644 -1.4808 -0.7717
 4896TIP3   OH214651   2.873   2.397   4.807 -0.0577 -0.4265  0.5123
 4896TIP3    H114652   2.796   2.345   4.827 -0.6391  0.5373  0.8609
 4896TIP3    H214653   2.942   2.360   4.863 -0.0505 -1.7629 -0.3378
 4897TIP3   OH214654   1.802   1.455   1.802 -0.5197 -0.1648 -0.6058
 4897TIP3    H114655   1.724   1.483   1.850  0.9555  1.0658  1.2258
 4897TIP3    H214656   1.853   1.534   1.790  2.0377 -1.3298  1.3959
 4898TIP3   OH214657   4.957   4.215   1.139 -0.4929 -0.1512  0.0110
 4898TIP3    H114658   4.982   4.298   1.098  0.5616 -1.2391 -1.6803
 4898TIP3    H214659   4.891   4.178   1.080 -1.8059 -0.0407  1.3431
 4899TIP3   OH214660   0.933   4.068   4.561 -0.5024  0.4245 -0.0710
 4899TIP3    H114661   0.930   3.987   4.510  0.9875  1.2692 -1.6174
 4899TIP3    H214662   0.856   4.117   4.533 -0.6794  0.1044 -0.1477
 4900TIP3   OH214663   1.451   6.495   1.570 -0.0840  0.4899  0.4838
 4900TIP3    H114664   1.402   6.413   1.580  0.3508  0.3593  1.7487
 4900TIP3    H214665   1.523   6.487   1.632  1.8592  0.4810 -1.6157
 4901TIP3   OH214666   2.363   3.200   0.890  0.0075 -0.0527  0.0790
 4901TIP3    H114667   2.414   3.196   0.970  0.9539 -1.9787 -0.5520
 4901TIP3    H214668   2.414   3.256   0.831 -0.3879  0.8662  0.5940
 4902TIP3   OH214669   3.989   1.455   5.649  0.3201  0.4014  0.1783
 4902TIP3    H114670   4.036   1.534   5.677  0.7792  0.3430 -0.3925
 4902TIP3    H214671   4.014   1.444   5.557  2.4059 -1.8841  0.8955
 4903TIP3   OH214672   2.736   3.546   1.824 -0.2411  0.1964 -0.3177
 4903TIP3    H114673   2.661   3.544   1.884  0.5024  0.2809  0.6338
 4903TIP3    H214674   2.807   3.505   1.873  0.4977  0.6586 -0.9872
 4904TIP3   OH214675   3.968   3.647   2.386 -0.1496 -0.0086 -0.7635
 4904TIP3    H114676   4.012   3.671   2.468  1.6363  0.0581 -1.7197
 4904TIP3    H214677   4.029   3.671   2.317 -0.4102 -2.5944 -2.0309
 4905TIP3   OH214678   6.028   5.975   3.046  0.5734  0.0592  0.0390
 4905TIP3    H114679   6.054   5.968   2.954 -0.2382 -1.0465 -0.1289
 4905TIP3    H214680   6.047   5.889   3.083  1.4041  0.6584  1.0652
 4906TIP3   OH214681   2.501   0.000   5.719  0.1002 -0.0038  0.2684
 4906TIP3    H114682   2.528   0.063   5.786 -2.0519  1.7366 -0.3942
 4906TIP3    H214683   2.558   0.020   5.644 -0.7182  1.3669 -0.0158
 4907TIP3   OH214684   4.947   4.607   4.042  0.1114 -0.7239  0.5777
 4907TIP3    H114685   5.031   4.575   4.009  0.4394 -1.8892  2.4145
 4907TIP3    H214686   4.891   4.529   4.043 -1.2716  0.1576 -1.2443
 4908TIP3   OH214687   0.202   6.341   3.107  0.1053  0.0014  0.1145
 4908TIP3    H114688   0.254   6.261   3.103  0.4765  0.1865  1.1134
 4908TIP3    H214689   0.219   6.377   3.194 -1.3478  0.2953  0.3052
 4909TIP3   OH214690   1.072   0.849   2.598 -0.1556 -0.0757 -0.0098
 4909TIP3    H114691   1.162   0.881   2.602 -0.4434  0.6392  1.5672
 4909TIP3    H214692   1.019   0.929   2.593 -0.8502 -0.2075  3.0959
 4910TIP3   OH214693   2.886   3.777   5.702  0.4741 -0.2602  0.2623
 4910TIP3    H114694   2.840   3.795   5.620 -1.2824  0.9588  1.4437
 4910TIP3    H214695   2.938   3.855   5.718  0.7105 -0.4439  0.4050
 4911TIP3   OH214696   6.235   6.235   3.372  0.1383 -0.2753 -0.0223
 4911TIP3    H114697   6.188   6.203   3.449  2.5905 -1.2215  1.1860
 4911TIP3    H214698   6.172   6.226   3.301 -1.9955 -0.0245  1.7028
 4912TIP3   OH214699   5.101   4.172   0.365 -0.1531 -0.5663 -0.2908
 4912TIP3    H114700   5.157   4.114   0.312  0.7279 -0.6161  0.6602
 4912TIP3    H214701   5.047   4.113   0.417 -1.3641 -0.5214 -1.4347
 4913TIP3   OH214702   6.954   3.734   3.166  0.2749 -0.1518  0.0333
 4913TIP3    H114703   6.926   3.649   3.130 -0.1352 -0.3985  0.9160
 4913TIP3    H214704   7.035   3.754   3.119  3.0356 -3.2863  2.9383
 4914TIP3   OH214705   5.310   5.858   4.804  0.1123  0.2085 -0.3220
 4914TIP3    H114706   5.264   5.776   4.785 -0.4087  0.3347  0.3107
 4914TIP3    H214707   5.247   5.908   4.856  0.6563  0.7533 -0.1787
 4915TIP3   OH214708   0.292   1.014   4.155  0.0484 -0.4398  0.2165
 4915TIP3    H114709   0.286   0.991   4.063 -1.4863  0.5526  0.0267
 4915TIP3    H214710   0.345   0.944   4.194  1.2528 -0.5370 -1.4921
 4916TIP3   OH214711   0.412   4.555   5.271  0.1796 -0.1873  0.5522
 4916TIP3    H114712   0.424   4.470   5.313 -0.3973 -1.3199 -1.4296
 4916TIP3    H214713   0.498   4.574   5.231  0.2181  0.0052  0.7270
 4917TIP3   OH214714   2.733   1.256   3.677 -0.5121 -0.4141  0.0166
 4917TIP3    H114715   2.643   1.224   3.669 -0.9064 -0.3804  3.1980
 4917TIP3    H214716   2.725   1.351   3.667 -0.8977 -0.3761  0.6181
 4918TIP3   OH214717   2.916   1.364   2.385  0.4407 -0.5941  0.4757
 4918TIP3    H114718   3.001   1.388   2.421  0.1784 -1.2592  1.5743
 4918TIP3    H214719   2.934   1.342   2.293  1.1020  1.2365  0.1244
 4919TIP3   OH214720   4.801   1.580   2.816 -0.0998  0.9043 -0.1893
 4919TIP3    H114721   4.782   1.490   2.842 -1.1014  1.8526  2.8041
 4919TIP3    H214722   4.873   1.573   2.754  0.7971 -1.8608  1.0281
 4920TIP3   OH214723   5.125   0.086   1.007  0.3141 -0.5061 -0.0838
 4920TIP3    H114724   5.093   0.057   1.092  1.5783  0.4549  0.7652
 4920TIP3    H214725   5.195   0.025   0.985  0.4663 -0.3349 -0.0817
 4921TIP3   OH214726   6.014   2.211   2.306 -0.2714  0.4746  0.2954
 4921TIP3    H114727   6.070   2.133   2.304 -0.5740  0.2506  0.3793
 4921TIP3    H214728   6.046   2.265   2.234 -1.8236 -0.9811 -1.6290
 4922TIP3   OH214729   5.261   4.912   1.553  0.9344  0.0459 -0.5718
 4922TIP3    H114730   5.283   4.823   1.523 -0.9862 -0.8427  0.4622
 4922TIP3    H214731   5.258   4.905   1.648 -2.0078  0.4346 -0.5490
 4923TIP3   OH214732   6.025   0.514   0.864  0.0269 -0.2489  0.4910
 4923TIP3    H114733   6.119   0.499   0.864  0.1719  0.5710 -0.1320
 4923TIP3    H214734   5.990   0.449   0.925  1.0523 -0.1899  1.1707
 4924TIP3   OH214735   1.819   4.900   4.080 -0.5002  0.1755  0.1080
 4924TIP3    H114736   1.746   4.914   4.019  1.2048 -0.8797 -2.3761
 4924TIP3    H214737   1.851   4.813   4.059  1.3713  0.5351  1.2255
 4925TIP3   OH214738   4.693   4.659   0.480 -0.5175 -0.0816  0.0911
 4925TIP3    H114739   4.732   4.666   0.567  1.5044  0.8725 -0.8248
 4925TIP3    H214740   4.733   4.581   0.442 -0.2027  0.3676 -0.5162
 4926TIP3   OH214741   2.312   3.120   1.189  0.1514 -0.1327  0.2188
 4926TIP3    H114742   2.329   3.050   1.251 -1.4868 -0.0556  0.7942
 4926TIP3    H214743   2.287   3.075   1.108 -1.9960 -0.2493  0.9096
 4927TIP3   OH214744   3.896   1.116   2.852 -0.4614  0.5509  0.0747
 4927TIP3    H114745   3.951   1.042   2.826  0.1825  0.9485  0.2810
 4927TIP3    H214746   3.934   1.146   2.934 -0.7847  1.0389  0.0468
 4928TIP3   OH214747   3.653   2.735   0.903  0.0980  0.2303 -0.2717
 4928TIP3    H114748   3.591   2.805   0.881  0.3161  0.6121  0.3168
 4928TIP3    H214749   3.628   2.663   0.844 -1.5017  0.0428  0.5737
 4929TIP3   OH214750   2.042   1.200   3.276 -0.1202 -0.1470  0.4432
 4929TIP3    H114751   2.064   1.191   3.184  2.0555  0.3294  0.8680
 4929TIP3    H214752   1.947   1.217   3.277 -0.0983  0.3238 -1.7151
 4930TIP3   OH214753   6.814   1.910   3.935  0.4146  0.0376 -0.6533
 4930TIP3    H114754   6.755   1.975   3.896 -1.3788 -0.6234  0.8624
 4930TIP3    H214755   6.789   1.827   3.894  0.5633 -0.1943 -0.2781
 4931TIP3   OH214756   3.446   3.711   5.835  0.0871 -0.2989  0.0107
 4931TIP3    H114757   3.538   3.735   5.847  0.5410 -2.4424  1.4881
 4931TIP3    H214758   3.400   3.795   5.826  1.8655  0.9728  1.8397
 4932TIP3   OH214759   5.397   1.141   0.487  0.2439 -0.1544  0.1579
 4932TIP3    H114760   5.403   1.089   0.567  1.8517 -0.4087 -0.0979
 4932TIP3    H214761   5.488   1.158   0.462 -0.2297  0.5276 -1.2239
 4933TIP3   OH214762   0.316   4.215   5.147  0.6353 -0.1588  0.4808
 4933TIP3    H114763   0.271   4.273   5.208  1.8710  1.0131  0.3479
 4933TIP3    H214764   0.250   4.190   5.084  0.3661  2.4253 -0.3775
 4934TIP3   OH214765   3.207   1.220   0.941  0.1835 -0.4911  0.3232
 4934TIP3    H114766   3.128   1.206   0.993 -0.0394  0.1701  0.1823
 4934TIP3    H214767   3.273   1.250   1.004  0.7860 -2.4520  0.6956
 4935TIP3   OH214768   2.184   0.525   5.771  0.1422 -0.5671 -0.0949
 4935TIP3    H114769   2.133   0.446   5.790  0.4603 -1.0083 -0.9990
 4935TIP3    H214770   2.119   0.588   5.741 -0.0464 -0.6546  0.1188
 4936TIP3   OH214771   4.253   2.429   0.648  0.1633  0.0850  0.0885
 4936TIP3    H114772   4.253   2.464   0.560 -0.2343 -0.1256  0.0021
 4936TIP3    H214773   4.179   2.368   0.650  0.6896 -0.5674  0.3016
 4937TIP3   OH214774   5.232   0.066   1.691  0.0484  0.5565 -0.1854
 4937TIP3    H114775   5.199   0.032   1.774  1.9074  0.1989  0.4698
 4937TIP3    H214776   5.200   0.156   1.688 -1.3983  0.0699  0.1172
 4938TIP3   OH214777   3.288   2.022   5.715  0.5116  0.0631 -0.6394
 4938TIP3    H114778   3.256   2.112   5.703  1.6233  0.4981 -0.4814
 4938TIP3    H214779   3.379   2.025   5.684  0.2001 -1.3026 -1.7668
 4939TIP3   OH214780   3.615   2.289   1.848  0.1043  0.1329 -0.6357
 4939TIP3    H114781   3.646   2.380   1.854 -1.3322  0.7123 -1.5548
 4939TIP3    H214782   3.570   2.275   1.931  2.4313 -0.6249  0.5943
 4940TIP3   OH214783   3.291   2.496   0.389  0.3772  0.2504  0.4186
 4940TIP3    H114784   3.264   2.407   0.409  0.9284 -0.2727 -0.9676
 4940TIP3    H214785   3.381   2.487   0.356  0.0011  1.1336 -0.9525
 4941TIP3   OH214786   5.272   1.417   4.862  0.1232 -0.5571  0.3963
 4941TIP3    H114787   5.332   1.356   4.820  1.0338 -0.4060  1.4470
 4941TIP3    H214788   5.288   1.501   4.819 -0.8113 -0.9213 -0.7353
 4942TIP3   OH214789   4.963   1.174   1.370  0.2448 -0.0256 -0.1878
 4942TIP3    H114790   4.944   1.139   1.457 -1.6306  0.9743 -0.1529
 4942TIP3    H214791   5.040   1.229   1.383  0.0780 -0.0091  0.8106
 4943TIP3   OH214792   4.317   2.484   2.064  0.3464 -0.2110  0.2960
 4943TIP3    H114793   4.395   2.489   2.120 -0.6669 -0.6222  1.8122
 4943TIP3    H214794   4.292   2.575   2.050 -0.2187 -0.1006  1.7925
 4944TIP3   OH214795   3.590   3.683   3.025  0.5753 -0.5928  0.1941
 4944TIP3    H114796   3.608   3.738   3.101  2.0770  0.1131 -0.6045
 4944TIP3    H214797   3.616   3.738   2.950 -1.2857 -1.0963 -0.8642
 4945TIP3   OH214798   2.711   3.558   1.125 -0.7982  0.4306  0.1532
 4945TIP3    H114799   2.717   3.555   1.221 -1.2690 -2.0231  0.1761
 4945TIP3    H214800   2.625   3.595   1.107 -0.6329  1.0730  0.6619
 4946TIP3   OH214801   4.679   2.229   2.914  0.0191 -0.3311  0.6290
 4946TIP3    H114802   4.769   2.263   2.918  0.3042 -0.8350 -1.0265
 4946TIP3    H214803   4.627   2.297   2.958  1.1438  0.1473  1.2799
 4947TIP3   OH214804   0.905   1.824   3.015  0.0852 -0.0126 -0.4137
 4947TIP3    H114805   0.906   1.744   2.962  0.3918 -0.9838  1.0328
 4947TIP3    H214806   0.864   1.798   3.097 -1.8306  1.8481 -0.6944
 4948TIP3   OH214807   3.974   0.458   2.531  0.1654  0.1471 -0.1886
 4948TIP3    H114808   4.045   0.403   2.498  0.7852  1.4656 -1.1323
 4948TIP3    H214809   3.898   0.400   2.531  1.3600 -1.5351  1.6455
 4949TIP3   OH214810   6.345   3.911   3.736  0.8271 -0.5878  0.0711
 4949TIP3    H114811   6.259   3.951   3.752  1.3988  0.6427  0.2072
 4949TIP3    H214812   6.330   3.850   3.664  0.3028  1.4092 -1.6056
 4950TIP3   OH214813   2.189   3.394   2.050  0.2212 -0.5519  0.5386
 4950TIP3    H114814   2.123   3.416   2.116  1.1959 -3.0123  2.5056
 4950TIP3    H214815   2.152   3.319   2.003 -0.2324  0.8525 -1.4766
 4951TIP3   OH214816   4.675   2.217   5.338 -0.2225  0.4239 -0.1111
 4951TIP3    H114817   4.644   2.135   5.300  0.5841 -0.1678  0.4776
 4951TIP3    H214818   4.725   2.259   5.268  0.3067 -0.1235 -0.0660
 4952TIP3   OH214819   6.381   5.825   5.567 -0.5986  0.7314  0.0055
 4952TIP3    H114820   6.336   5.858   5.645 -2.5586  0.3722 -0.9059
 4952TIP3    H214821   6.323   5.846   5.495  0.5918 -0.0339 -1.2308
 4953TIP3   OH214822   5.429   1.983   2.712  0.1735  0.0631 -0.3307
 4953TIP3    H114823   5.476   2.052   2.760  0.1850 -0.0583 -0.1668
 4953TIP3    H214824   5.498   1.927   2.676  0.1558 -0.1229 -0.0785
 4954TIP3   OH214825   6.908   0.344   1.972 -0.1113 -0.5094 -0.1852
 4954TIP3    H114826   6.853   0.265   1.975  0.0416 -0.5999  0.9773
 4954TIP3    H214827   6.852   0.412   2.009  0.5601 -0.6210  1.1035
 4955TIP3   OH214828   3.249   6.227   2.448 -0.0475 -0.0834  0.4460
 4955TIP3    H114829   3.180   6.269   2.498 -0.4196  0.1661 -0.2536
 4955TIP3    H214830   3.206   6.151   2.407  0.2893 -0.3831  0.6458
 4956TIP3   OH214831   3.132   4.824   1.118 -0.0363  0.1169 -0.0395
 4956TIP3    H114832   3.186   4.744   1.116  0.4572  0.3855  1.4599
 4956TIP3    H214833   3.157   4.870   1.038 -1.4820 -1.9183 -1.7806
 4957TIP3   OH214834   0.113   5.854   5.257 -0.1427 -0.0542 -0.1725
 4957TIP3    H114835   0.099   5.770   5.301  1.2205 -1.8446 -2.8510
 4957TIP3    H214836   0.046   5.912   5.293 -1.7376 -2.5595  1.1520
 4958TIP3   OH214837   7.056   5.301   3.872  0.2700 -0.0545  0.0149
 4958TIP3    H114838   7.123   5.368   3.857 -0.5872  0.6011 -1.1564
 4958TIP3    H214839   7.057   5.249   3.792  0.5213 -1.0926  0.6849
 4959TIP3   OH214840   5.841   6.582   3.908 -0.4769 -0.0339 -0.1674
 4959TIP3    H114841   5.917   6.526   3.894 -0.7361 -0.6004  0.6415
 4959TIP3    H214842   5.878   6.665   3.938 -0.0531  0.4711 -1.9759
 4960TIP3   OH214843   4.701   3.539   4.920 -0.0752  0.3474 -0.3598
 4960TIP3    H114844   4.656   3.558   5.002  0.7912  0.6464  0.0584
 4960TIP3    H214845   4.787   3.506   4.946  0.3936  0.9011 -1.1472
 4961TIP3   OH214846   5.906   5.762   5.234 -0.1700 -0.5058  0.3626
 4961TIP3    H114847   5.945   5.846   5.211 -0.2307 -0.6978 -0.4824
 4961TIP3    H214848   5.956   5.731   5.309  1.4860 -0.8609 -0.8388
 4962TIP3   OH214849   6.604   5.788   4.683 -0.3726 -0.1358  0.0190
 4962TIP3    H114850   6.623   5.752   4.596 -0.7284 -2.4373  0.8300
 4962TIP3    H214851   6.538   5.729   4.720 -0.3891  0.9105  1.7742
 4963TIP3   OH214852   6.777   2.255   5.187  0.4578  0.2417 -0.0607
 4963TIP3    H114853   6.856   2.303   5.210  0.0001  0.7830  0.4043
 4963TIP3    H214854   6.706   2.318   5.198  0.0573  0.0815 -1.5052
 4964TIP3   OH214855   4.173   5.876   3.625 -0.1413 -0.3967 -0.6480
 4964TIP3    H114856   4.248   5.816   3.636  0.2238 -0.0666 -1.2801
 4964TIP3    H214857   4.144   5.861   3.535 -2.8510 -2.7928  0.4675
 4965TIP3   OH214858   3.256   0.260   3.641  0.2688  0.0143 -0.3591
 4965TIP3    H114859   3.268   0.355   3.646  0.4427  0.0655 -1.4957
 4965TIP3    H214860   3.334   0.229   3.595  0.6243 -0.7900  0.7291
 4966TIP3   OH214861   0.284   2.796   0.541  0.7665 -0.1818  0.2057
 4966TIP3    H114862   0.207   2.852   0.529  1.7839  1.1102 -0.4904
 4966TIP3    H214863   0.248   2.713   0.572 -1.0417 -0.0278 -1.2873
 4967TIP3   OH214864   2.707   0.807   4.218  0.0938  0.7021 -0.0714
 4967TIP3    H114865   2.762   0.803   4.140  0.9397  1.3760  0.4593
 4967TIP3    H214866   2.618   0.816   4.185  0.4352  0.9158 -0.9609
 4968TIP3   OH214867   6.763   1.407   2.075 -0.0781  0.6531  0.4976
 4968TIP3    H114868   6.847   1.453   2.071  1.0992 -1.4448 -2.2869
 4968TIP3    H214869   6.715   1.437   1.998 -2.3564  2.3905  2.4317
 4969TIP3   OH214870   3.151   6.048   2.266 -0.4222  0.2940  0.0105
 4969TIP3    H114871   3.238   6.037   2.304 -1.1375  2.0264  2.3733
 4969TIP3    H214872   3.167   6.083   2.179  1.2781  1.3788  0.7072
 4970TIP3   OH214873   5.670   0.711   3.439 -0.4696  0.2095  0.4609
 4970TIP3    H114874   5.763   0.717   3.418  0.0387  0.8242  2.6718
 4970TIP3    H214875   5.657   0.620   3.464 -0.1320  0.4411  1.5073
 4971TIP3   OH214876   0.633   3.577   2.468  0.3800  0.4376 -0.0232
 4971TIP3    H114877   0.593   3.608   2.387  1.9159 -0.2483 -1.0746
 4971TIP3    H214878   0.648   3.484   2.453 -0.2526  0.0661  1.4650
 4972TIP3   OH214879   0.731   0.950   0.526  0.1628  0.1183 -0.5199
 4972TIP3    H114880   0.826   0.955   0.519  0.1662 -0.8508 -1.4197
 4972TIP3    H214881   0.715   0.937   0.619  0.7262  2.9891  0.0909
 4973TIP3   OH214882   6.952   5.195   2.388  0.4729 -0.0465 -0.3859
 4973TIP3    H114883   6.860   5.177   2.367  0.0300 -0.3473  1.6417
 4973TIP3    H214884   6.999   5.118   2.358  0.2883  0.5799 -2.4917
 4974TIP3   OH214885   6.613   5.744   5.912  0.5771  0.6358  0.7041
 4974TIP3    H114886   6.565   5.824   5.890 -2.6440 -1.3981 -0.1936
 4974TIP3    H214887   6.686   5.742   5.849 -1.0879  1.3525 -1.3547
 4975TIP3   OH214888   0.915   0.627   2.703  0.6781  0.2527  0.5664
 4975TIP3    H114889   0.895   0.699   2.763 -0.7950 -0.4122  0.9422
 4975TIP3    H214890   1.010   0.617   2.707  0.7130  0.8753  2.0436
 4976TIP3   OH214891   1.377   5.338   5.846 -0.1571  0.0193 -0.2869
 4976TIP3    H114892   1.318   5.327   5.772  0.0297 -1.0468 -0.2937
 4976TIP3    H214893   1.354   5.267   5.906  1.0313 -0.3707 -0.2496
 4977TIP3   OH214894   1.456   3.926   5.840  0.2344 -0.1074  0.3369
 4977TIP3    H114895   1.543   3.886   5.849  1.9288  2.5376 -2.3567
 4977TIP3    H214896   1.439   3.926   5.746 -1.3350  2.0083  0.5423
 4978TIP3   OH214897   5.506   2.441   4.780 -0.1707 -0.0240 -0.3347
 4978TIP3    H114898   5.493   2.374   4.847 -0.2501  1.3908  1.1202
 4978TIP3    H214899   5.594   2.474   4.795 -0.2163  0.3640 -0.8888
 4979TIP3   OH214900   7.193   6.038   5.453  0.4996 -0.9294  0.3221
 4979TIP3    H114901   7.227   6.127   5.445  1.6064 -1.2207  1.4732
 4979TIP3    H214902   7.109   6.040   5.408  1.5111  0.1080 -1.6395
 4980TIP3   OH214903   5.341   0.657   5.397 -0.3655  0.2743 -0.8854
 4980TIP3    H114904   5.258   0.689   5.433  0.4360  1.8148 -0.3017
 4980TIP3    H214905   5.400   0.653   5.472  0.5091  0.7148 -1.5281
 4981TIP3   OH214906   4.496   0.663   2.497  0.6746  0.0507  0.6322
 4981TIP3    H114907   4.498   0.641   2.590 -0.3541  1.3778  1.0088
 4981TIP3    H214908   4.466   0.584   2.453 -0.7882 -0.0041  1.6730
 4982TIP3   OH214909   2.274   4.660   1.283 -0.1897  0.4468  0.6345
 4982TIP3    H114910   2.266   4.710   1.202 -0.3709  1.3502  1.1977
 4982TIP3    H214911   2.341   4.706   1.333  0.8998 -0.8613  0.4686
 4983TIP3   OH214912   4.454   3.254   4.028 -0.4235  0.1445  0.0641
 4983TIP3    H114913   4.447   3.331   4.085 -0.4145 -1.4665  2.3740
 4983TIP3    H214914   4.375   3.257   3.974 -0.0927  2.0980 -0.4121
 4984TIP3   OH214915   2.462   5.984   5.064 -0.1904 -0.1754  0.5872
 4984TIP3    H114916   2.372   6.009   5.083 -0.4594 -0.2530 -0.5488
 4984TIP3    H214917   2.505   6.066   5.039 -0.0939 -0.2343  0.5579
 4985TIP3   OH214918   0.439   5.036   2.397  0.3909 -0.4557 -0.8442
 4985TIP3    H114919   0.379   4.972   2.359 -1.3385  2.2972 -3.2502
 4985TIP3    H214920   0.413   5.043   2.489 -0.9812 -1.4581 -1.1336
 4986TIP3   OH214921   2.634   1.054   3.870  0.4588 -0.0680 -0.2095
 4986TIP3    H114922   2.559   1.113   3.872 -0.7056 -1.4571 -0.5822
 4986TIP3    H214923   2.692   1.086   3.939 -1.0085  0.3956  0.8618
 4987TIP3   OH214924   1.736   5.395   1.439  0.0697 -0.1556 -0.1694
 4987TIP3    H114925   1.825   5.410   1.407  0.5988 -1.4254  0.6269
 4987TIP3    H214926   1.734   5.301   1.458 -0.9709  0.1428  1.2696
 4988TIP3   OH214927   2.422   1.585   2.693 -0.1654 -0.7632 -0.1031
 4988TIP3    H114928   2.507   1.581   2.736  0.6980 -0.0173 -1.6838
 4988TIP3    H214929   2.418   1.507   2.638 -0.1051 -0.3350 -0.7268
 4989TIP3   OH214930   2.924   3.889   1.694 -0.0726  0.2806  0.1652
 4989TIP3    H114931   3.007   3.916   1.653  0.1991  0.3206  0.7382
 4989TIP3    H214932   2.950   3.856   1.780 -0.6191 -0.0183  0.2148
 4990TIP3   OH214933   2.387   0.087   2.851 -0.7956 -0.5412 -0.0822
 4990TIP3    H114934   2.373   0.077   2.756  2.4565  0.3653 -0.8037
 4990TIP3    H214935   2.370   0.179   2.869  2.2574  0.2739 -0.7254
 4991TIP3   OH214936   1.698   0.338   4.826  0.3991  0.1637 -0.0960
 4991TIP3    H114937   1.727   0.423   4.794  0.5041  1.1392  2.3859
 4991TIP3    H214938   1.686   0.285   4.747  0.4171  2.4338 -1.7030
 4992TIP3   OH214939   2.866   6.228   3.487  0.0437  0.0666  0.3078
 4992TIP3    H114940   2.941   6.173   3.509  0.9777  1.3660  0.5104
 4992TIP3    H214941   2.903   6.315   3.473 -1.4223  0.7439  0.3754
 4993TIP3   OH214942   3.364   2.818   5.128 -0.2482  0.3283 -0.1205
 4993TIP3    H114943   3.300   2.839   5.060 -1.0464 -1.4398  0.0524
 4993TIP3    H214944   3.313   2.807   5.208  0.6996  2.5301  0.8692
 4994TIP3   OH214945   0.729   5.257   1.031  0.4830 -0.8753  0.5046
 4994TIP3    H114946   0.765   5.333   0.986  1.2544 -0.6401  1.4821
 4994TIP3    H214947   0.802   5.195   1.036 -0.4572 -2.2203 -1.3666
 4995TIP3   OH214948   4.128   1.124   3.985 -0.2024  0.1265 -0.3024
 4995TIP3    H114949   4.136   1.219   3.985  0.4045  0.1099  1.1254
 4995TIP3    H214950   4.047   1.107   4.033 -0.6733 -0.0676 -1.1588
 4996TIP3   OH214951   2.864   1.624   3.860 -0.1530 -0.3960 -0.1116
 4996TIP3    H114952   2.881   1.654   3.771 -1.7789  0.0202 -0.3209
 4996TIP3    H214953   2.862   1.704   3.913 -3.2456 -0.0883 -0.4598
 4997TIP3   OH214954   0.160   0.317   1.954 -0.2347 -0.5244 -0.1395
 4997TIP3    H114955   0.251   0.289   1.956  0.0804  0.4534  1.3934
 4997TIP3    H214956   0.119   0.271   2.027 -0.0658  1.6453  1.4398
 4998TIP3   OH214957   5.799   2.141   5.830  0.3698 -0.0385  0.1178
 4998TIP3    H114958   5.803   2.063   5.885 -0.9490 -0.1318  0.0952
 4998TIP3    H214959   5.891   2.160   5.810  0.7132 -1.9414 -0.3761
 4999TIP3   OH214960   0.348   3.325   0.884 -0.1577 -0.3315  0.5123
 4999TIP3    H114961   0.269   3.289   0.844 -0.3457  0.9221 -0.3147
 4999TIP3    H214962   0.346   3.418   0.860  1.0152 -0.0603  1.3877
 5000TIP3   OH214963   0.069   5.923   4.549 -0.4120  0.5465 -0.7001
 5000TIP3    H114964   0.110   6.005   4.521 -1.2180  1.1329 -0.2161
 5000TIP3    H214965   0.047   5.878   4.467  1.8614 -0.1592 -0.9817
 5001TIP3   OH214966   3.084   4.952   4.148 -0.1690 -0.2574 -0.1442
 5001TIP3    H114967   3.107   4.867   4.111 -0.2718 -0.3629  0.0328
 5001TIP3    H214968   3.073   4.936   4.242  0.9866  0.1883  0.0859
 5002TIP3   OH214969   2.517   3.019   2.114 -0.2432 -0.3054  0.1740
 5002TIP3    H114970   2.443   3.023   2.176 -1.2245  1.2970 -1.0266
 5002TIP3    H214971   2.593   2.999   2.169 -1.5101 -1.9132  1.4740
 5003TIP3   OH214972   2.798   4.195   1.346 -0.6342  0.2186 -0.5270
 5003TIP3    H114973   2.818   4.142   1.269  0.3967  0.7438 -0.6438
 5003TIP3    H214974   2.747   4.268   1.312 -1.8959 -0.5753 -0.3932
 5004TIP3   OH214975   6.147   0.037   2.687  0.3321  0.2829 -0.3931
 5004TIP3    H114976   6.120   0.010   2.599  0.1764 -1.3255  0.1105
 5004TIP3    H214977   6.242   0.040   2.682  0.3748 -0.6598 -0.4109
 5005TIP3   OH214978   4.786   1.860   5.489  0.0686 -0.3733  0.7525
 5005TIP3    H114979   4.699   1.899   5.490  0.3139  0.2408 -0.1733
 5005TIP3    H214980   4.781   1.789   5.552 -1.0917 -0.3270  0.7423
 5006TIP3   OH214981   0.308   2.490   4.459  0.1597 -0.2248  0.7718
 5006TIP3    H114982   0.374   2.552   4.489  0.4835  1.0188 -2.1512
 5006TIP3    H214983   0.304   2.503   4.364 -3.1404 -1.4243  0.6161
 5007TIP3   OH214984   5.951   2.228   2.879  0.4150  0.1005  0.3821
 5007TIP3    H114985   5.909   2.171   2.815 -0.6037  1.2568 -0.0154
 5007TIP3    H214986   6.036   2.187   2.896  0.5066 -0.4936 -1.3237
 5008TIP3   OH214987   6.551   0.538   0.792  0.4107 -0.4935  0.0547
 5008TIP3    H114988   6.520   0.596   0.722 -0.5963  1.5834  2.1006
 5008TIP3    H214989   6.637   0.509   0.762 -0.5038 -0.7632 -2.6076
 5009TIP3   OH214990   1.687   3.945   4.357  0.0987 -0.7249 -0.0159
 5009TIP3    H114991   1.689   3.865   4.304  0.4096 -0.9985  0.4020
 5009TIP3    H214992   1.596   3.975   4.351 -0.4414 -2.0375  1.1835
 5010TIP3   OH214993   1.639   5.946   1.656 -0.3068 -0.0384  0.6849
 5010TIP3    H114994   1.609   6.011   1.719  0.4048  1.6626 -0.6223
 5010TIP3    H214995   1.729   5.974   1.635 -0.1466 -1.1948 -0.2407
 5011TIP3   OH214996   3.001   1.191   1.122  0.2063  0.8920 -0.4591
 5011TIP3    H114997   3.060   1.202   1.196 -0.8098 -0.3191  0.5671
 5011TIP3    H214998   2.913   1.195   1.160 -0.3335 -0.8558 -1.4008
 5012TIP3   OH214999   0.928   3.708   1.596  0.1823 -0.0983 -0.1379
 5012TIP3    H115000   1.010   3.659   1.602  1.7159  2.4806  1.6383
 5012TIP3    H215001   0.908   3.733   1.687 -1.8101  0.5559 -0.7020
 5013TIP3   OH215002   6.786   2.718   2.955  0.0331 -0.4697 -0.4486
 5013TIP3    H115003   6.832   2.655   2.899  1.9588 -0.6229  1.2062
 5013TIP3    H215004   6.766   2.792   2.897  1.1580 -1.0004 -1.5568
 5014TIP3   OH215005   1.040   0.943   0.465  0.4316 -0.3019  0.0633
 5014TIP3    H115006   1.110   0.981   0.411  0.7132 -0.2494  0.4583
 5014TIP3    H215007   1.082   0.928   0.550 -0.0828 -0.1152  0.3514
 5015TIP3   OH215008   5.400   1.210   2.676 -0.2802 -0.5240 -0.1541
 5015TIP3    H115009   5.361   1.123   2.679  1.2163 -1.1888  0.9002
 5015TIP3    H215010   5.484   1.201   2.721  0.1886  1.3235 -0.5669
 5016TIP3   OH215011   7.008   3.206   5.316 -0.4468  0.0564  0.0790
 5016TIP3    H115012   6.925   3.244   5.343  0.3179  0.9747  1.2484
 5016TIP3    H215013   6.997   3.186   5.223 -2.0195 -0.0111  0.2549
 5017TIP3   OH215014   0.445   1.034   2.820  0.1785 -0.5289  0.0337
 5017TIP3    H115015   0.506   0.967   2.850  0.1808 -0.5266  0.0343
 5017TIP3    H215016   0.501   1.105   2.788  0.1863 -0.9663 -0.9582
 5018TIP3   OH215017   1.373   2.944   1.964  0.0619 -0.4174 -0.0730
 5018TIP3    H115018   1.413   2.895   2.035 -0.8100  0.9944  1.4726
 5018TIP3    H215019   1.439   3.010   1.940 -0.1973  0.0325  0.4410
 5019TIP3   OH215020   5.149   6.244   4.432 -0.0864  0.0824 -0.0464
 5019TIP3    H115021   5.184   6.169   4.482  0.8658  0.7365  0.3150
 5019TIP3    H215022   5.155   6.216   4.341  0.9543 -0.0166  0.0387
 5020TIP3   OH215023   1.598   2.806   4.214 -0.5028 -0.2756  0.1227
 5020TIP3    H115024   1.654   2.844   4.282 -0.7020 -1.3689  0.9370
 5020TIP3    H215025   1.660   2.768   4.151 -0.3163 -0.1362  0.2193
 5021TIP3   OH215026   1.004   0.239   5.230  0.7252 -0.2176  0.5690
 5021TIP3    H115027   0.992   0.191   5.312  3.1526 -0.5897  0.7688
 5021TIP3    H215028   1.013   0.330   5.258  1.3373 -0.3167  0.7057
 5022TIP3   OH215029   2.136   4.116   4.011 -0.1292  0.3047 -0.5635
 5022TIP3    H115030   2.086   4.035   4.009  0.8730 -0.3094 -1.4553
 5022TIP3    H215031   2.072   4.184   3.993 -0.5343 -0.5394 -2.5112
 5023TIP3   OH215032   2.843   3.282   0.312  0.3001 -0.0859 -0.0267
 5023TIP3    H115033   2.924   3.267   0.361  0.0692  1.0696  0.7273
 5023TIP3    H215034   2.851   3.372   0.280 -0.4929 -0.1203 -0.3290
 5024TIP3   OH215035   4.131   3.091   4.520  0.7909  0.1242  0.2108
 5024TIP3    H115036   4.155   3.148   4.593  0.0502  0.2008  0.4024
 5024TIP3    H215037   4.171   3.006   4.541  0.5578  0.1391  0.7247
 5025TIP3   OH215038   3.510   4.657   3.827 -0.0305  0.0758 -0.1041
 5025TIP3    H115039   3.577   4.723   3.806 -0.5603  0.8058  0.4390
 5025TIP3    H215040   3.431   4.708   3.842 -1.0452 -0.8399 -1.9051
 5026TIP3   OH215041   1.126   5.508   0.650 -0.1765 -0.0441 -0.0673
 5026TIP3    H115042   1.134   5.443   0.580 -0.5117  0.9000 -1.0130
 5026TIP3    H215043   1.215   5.541   0.662 -0.0379 -0.5237  0.2895
 5027TIP3   OH215044   3.325   6.015   3.022  0.1799  0.2612 -0.0955
 5027TIP3    H115045   3.358   6.068   2.949  1.3880  1.1961  1.0839
 5027TIP3    H215046   3.372   6.048   3.099 -0.5628 -1.1510  1.0089
 5028TIP3   OH215047   0.687   4.027   2.623 -0.2855 -0.2098 -0.5864
 5028TIP3    H115048   0.717   3.946   2.664  1.9032  0.8775  0.1170
 5028TIP3    H215049   0.680   4.090   2.695  1.5868  1.1681 -1.4990
 5029TIP3   OH215050   0.442   0.160   0.325 -0.0092 -0.4193 -0.2183
 5029TIP3    H115051   0.474   0.120   0.243 -0.1090 -1.7717  0.3691
 5029TIP3    H215052   0.520   0.199   0.364  0.1130 -0.0919 -0.7841
 5030TIP3   OH215053   0.534   0.730   5.151 -0.1086 -0.1262 -0.1582
 5030TIP3    H115054   0.526   0.806   5.092 -2.1296  1.7739  2.3621
 5030TIP3    H215055   0.476   0.664   5.113 -2.6640  1.6480  0.4230
 5031TIP3   OH215056   7.125   2.975   0.882  0.4143  0.6332 -0.2071
 5031TIP3    H115057   7.158   3.024   0.807  1.7546 -0.2719 -0.2455
 5031TIP3    H215058   7.126   3.038   0.954 -2.5293  2.0336 -1.2287
 5032TIP3   OH215059   1.503   0.109   3.474 -0.0755 -0.0234  0.0758
 5032TIP3    H115060   1.480   0.103   3.566  0.3434  0.7783  0.2344
 5032TIP3    H215061   1.419   0.105   3.428 -0.4599  1.5828  0.5884
 5033TIP3   OH215062   4.304   4.211   3.518 -0.0096  0.2075  0.0094
 5033TIP3    H115063   4.394   4.228   3.489 -0.2480 -0.3648 -1.1120
 5033TIP3    H215064   4.249   4.247   3.448 -0.6294 -0.3770  0.1889
 5034TIP3   OH215065   0.059   5.698   2.719  1.0712 -0.2019 -0.4042
 5034TIP3    H115066   0.137   5.732   2.674  1.2952  0.8637  0.7222
 5034TIP3    H215067   0.069   5.728   2.809 -0.7823  0.1892 -0.2945
 5035TIP3   OH215068   4.092   1.346   3.653 -0.2279 -0.3147  0.1643
 5035TIP3    H115069   4.066   1.438   3.658  2.6529  0.6147 -0.2956
 5035TIP3    H215070   4.016   1.298   3.686 -2.2842  2.1140 -0.6669
 5036TIP3   OH215071   3.503   3.647   3.463  0.3677 -0.4592 -0.2972
 5036TIP3    H115072   3.542   3.603   3.388 -1.3456 -1.1266 -0.8635
 5036TIP3    H215073   3.482   3.576   3.524  3.0024  0.1789  1.5291
 5037TIP3   OH215074   0.285   5.342   2.230  0.3884 -0.5584 -0.1273
 5037TIP3    H115075   0.226   5.417   2.221  0.2248 -0.6444  0.2011
 5037TIP3    H215076   0.298   5.333   2.325  1.2738 -0.2728 -0.2075
 5038TIP3   OH215077   4.047   6.602   5.073  0.4922 -0.3873 -0.0861
 5038TIP3    H115078   4.113   6.617   5.006  0.7870  0.7861  0.4395
 5038TIP3    H215079   4.089   6.628   5.155 -0.1725 -0.9048  0.4364
 5039TIP3   OH215080   5.533   2.253   4.196 -0.1633  0.2412 -0.3532
 5039TIP3    H115081   5.461   2.308   4.163  0.7466  0.8573 -1.3575
 5039TIP3    H215082   5.598   2.255   4.127  1.3274  0.6106  1.0030
 5040TIP3   OH215083   0.977   4.599   2.375  0.1340  0.3193  0.4316
 5040TIP3    H115084   1.008   4.638   2.457 -1.1545 -1.5402  1.8764
 5040TIP3    H215085   0.951   4.510   2.399 -1.3470  0.0822 -1.7775
 5041TIP3   OH215086   2.315   4.843   0.493 -0.2866 -0.5533  0.1600
 5041TIP3    H115087   2.395   4.894   0.500 -1.1043  0.6795  0.7868
 5041TIP3    H215088   2.316   4.785   0.569  0.3858 -1.1242 -0.2720
 5042TIP3   OH215089   0.515   0.363   1.276  0.2055 -0.3791  0.0819
 5042TIP3    H115090   0.516   0.427   1.346  0.3589  0.5401 -0.7345
 5042TIP3    H215091   0.595   0.381   1.226  1.3092 -2.5075  0.9608
 5043TIP3   OH215092   4.631   4.648   2.658 -0.1270  0.0685 -0.3271
 5043TIP3    H115093   4.626   4.708   2.733 -1.6756 -0.0365 -0.3062
 5043TIP3    H215094   4.699   4.686   2.602  0.8851  0.2919  0.9887
 5044TIP3   OH215095   2.292   4.223   2.841 -0.1428  0.0637  0.4643
 5044TIP3    H115096   2.316   4.175   2.762  0.6020 -1.1164  1.3852
 5044TIP3    H215097   2.363   4.207   2.902 -1.1579  0.1673  1.7132
 5045TIP3   OH215098   5.623   4.049   3.822  0.2829  0.0414 -0.1582
 5045TIP3    H115099   5.639   4.125   3.766  0.5056  0.8152  0.9233
 5045TIP3    H215100   5.613   3.976   3.761 -1.0091  1.1040 -1.2897
 5046TIP3   OH215101   4.101   2.798   3.591  0.3469 -0.0893 -0.4800
 5046TIP3    H115102   4.039   2.870   3.601  0.4386  0.2351 -2.0316
 5046TIP3    H215103   4.080   2.738   3.663  0.0236  1.2841  0.6062
 5047TIP3   OH215104   7.095   5.070   4.246 -0.0590  0.6128 -0.3117
 5047TIP3    H115105   7.154   5.123   4.299 -1.1593  0.8471  0.7443
 5047TIP3    H215106   7.076   4.993   4.300 -0.0602  0.1258 -0.9832
 5048TIP3   OH215107   3.764   1.391   5.761  0.1419  0.7441 -0.0810
 5048TIP3    H115108   3.845   1.419   5.717  0.5916  0.8493  0.7962
 5048TIP3    H215109   3.740   1.466   5.816  0.4683  0.0368  1.0563
 5049TIP3   OH215110   1.555   5.745   2.354 -0.1232 -0.2144  0.4407
 5049TIP3    H115111   1.566   5.717   2.263 -0.7421  0.5476  0.1177
 5049TIP3    H215112   1.495   5.680   2.391 -1.9033  0.8412 -0.4275
 5050TIP3   OH215113   2.406   4.061   4.024 -0.7771  0.2399  0.4627
 5050TIP3    H115114   2.311   4.066   4.019 -1.0750 -3.3467 -0.0194
 5050TIP3    H215115   2.426   4.067   4.117 -1.4218  1.2961  0.5436
 5051TIP3   OH215116   6.820   6.240   3.251  0.0278 -0.8159 -0.0447
 5051TIP3    H115117   6.756   6.174   3.278  0.0114 -0.8435 -0.1483
 5051TIP3    H215118   6.770   6.321   3.247 -0.6289 -1.2427 -2.5287
 5052TIP3   OH215119   3.161   3.665   2.139  0.5681  0.0445 -0.0892
 5052TIP3    H115120   3.248   3.632   2.159  0.1145  0.1766  2.5009
 5052TIP3    H215121   3.109   3.643   2.216 -0.6250  3.6416  0.3113
 5053TIP3   OH215122   7.148   2.330   5.104  0.3142 -0.2032  0.4705
 5053TIP3    H115123   7.243   2.342   5.107  0.2635  0.3307 -0.0088
 5053TIP3    H215124   7.136   2.235   5.110  0.9484 -0.4036 -0.9625
 5054TIP3   OH215125   3.213   6.793   2.282 -0.2079 -0.7276  0.2458
 5054TIP3    H115126   3.212   6.698   2.290  1.3862 -0.8492 -0.5239
 5054TIP3    H215127   3.304   6.814   2.258 -0.8428  0.8628 -0.9531
 5055TIP3   OH215128   1.540   4.347   0.105 -0.1999 -0.6958  0.4298
 5055TIP3    H115129   1.576   4.435   0.097  0.5837 -1.0872 -0.4810
 5055TIP3    H215130   1.609   4.290   0.071 -0.5677 -1.6927  1.2996
 5056TIP3   OH215131   4.652   0.589   3.133  0.1896 -0.3776 -0.4134
 5056TIP3    H115132   4.679   0.674   3.099  1.2065 -0.1996  0.7633
 5056TIP3    H215133   4.569   0.570   3.088 -0.1752  1.3225 -0.5177
 5057TIP3   OH215134   6.113   0.634   2.854  0.2479  0.0072  0.1505
 5057TIP3    H115135   6.054   0.681   2.912  0.6537  0.2087  0.4066
 5057TIP3    H215136   6.094   0.670   2.767  0.7601  0.8829  0.3799
 5058TIP3   OH215137   2.352   6.451   5.007 -0.1466  0.6663 -0.1124
 5058TIP3    H115138   2.278   6.463   4.948 -0.7788 -1.1084  0.2509
 5058TIP3    H215139   2.428   6.446   4.950 -0.3899  1.8090 -0.5471
 5059TIP3   OH215140   0.883   5.767   1.813 -0.4936  0.6073 -0.5166
 5059TIP3    H115141   0.832   5.703   1.762 -0.1168  1.1555 -1.6137
 5059TIP3    H215142   0.962   5.719   1.839 -0.0103  0.7206 -1.7032
 5060TIP3   OH215143   0.292   6.534   4.086 -0.1535 -0.1676  0.1437
 5060TIP3    H115144   0.230   6.555   4.155 -1.4062 -0.5741 -0.8257
 5060TIP3    H215145   0.278   6.441   4.068  2.0222 -0.7588  1.1331
 5061TIP3   OH215146   1.751   6.179   1.264 -0.1649  0.2530  0.3914
 5061TIP3    H115147   1.702   6.228   1.198  0.8694 -0.5856 -1.0507
 5061TIP3    H215148   1.691   6.110   1.292  0.0658 -0.6279 -1.1890
 5062TIP3   OH215149   4.785   1.346   1.766 -0.1622 -0.2259  0.0489
 5062TIP3    H115150   4.744   1.327   1.850  0.5462  0.5874  0.6058
 5062TIP3    H215151   4.713   1.345   1.703 -0.4786 -2.4049  0.3744
 5063TIP3   OH215152   2.148   5.375   4.961  0.2450 -0.3608  0.5989
 5063TIP3    H115153   2.199   5.373   5.041  2.2166 -0.9027 -0.6018
 5063TIP3    H215154   2.136   5.468   4.941  0.3066 -0.2326  1.1581
 5064TIP3   OH215155   6.422   2.762   1.644 -0.3927 -0.0618  0.4655
 5064TIP3    H115156   6.517   2.765   1.630 -0.4327 -1.1234 -0.1086
 5064TIP3    H215157   6.407   2.681   1.693 -1.0216 -0.0214  0.3536
 5065TIP3   OH215158   1.304   2.386   0.904  0.0456  0.1294 -0.0934
 5065TIP3    H115159   1.342   2.472   0.920  0.8766 -0.3246  0.4225
 5065TIP3    H215160   1.295   2.347   0.991  1.5104 -1.0624 -0.4311
 5066TIP3   OH215161   3.401   5.256   3.798  0.5264 -0.1108  0.4261
 5066TIP3    H115162   3.339   5.265   3.726 -0.8206 -1.8916  1.2792
 5066TIP3    H215163   3.487   5.256   3.756 -0.1464  0.2416 -1.0167
 5067TIP3   OH215164   1.027   1.575   2.461  0.6174 -0.1767  0.0464
 5067TIP3    H115165   1.033   1.663   2.497 -0.5819  0.0318 -0.2371
 5067TIP3    H215166   0.965   1.530   2.518 -0.0034 -0.3476 -0.7418
 5068TIP3   OH215167   1.162   0.114   1.897 -0.2436 -0.2069  0.2376
 5068TIP3    H115168   1.194   0.048   1.835 -1.3343 -0.6625  0.1384
 5068TIP3    H215169   1.198   0.197   1.864 -1.8954 -0.2243 -1.8383
 5069TIP3   OH215170   4.276   0.303   3.101  0.6398 -0.5369  0.9558
 5069TIP3    H115171   4.331   0.373   3.136 -0.3686  0.5591  0.4452
 5069TIP3    H215172   4.191   0.317   3.142  0.2536 -1.0788  0.3617
 5070TIP3   OH215173   4.275   3.182   2.838  0.7179 -0.2606  0.1482
 5070TIP3    H115174   4.250   3.176   2.931  0.5934 -0.0560  0.1287
 5070TIP3    H215175   4.193   3.205   2.793  0.7792 -0.3567 -0.0113
 5071TIP3   OH215176   2.087   5.408   0.813  0.6095 -0.0896 -0.2058
 5071TIP3    H115177   2.076   5.375   0.724  1.0709 -1.6956  0.3020
 5071TIP3    H215178   2.167   5.366   0.845  0.0660 -0.0972  1.2094
 5072TIP3   OH215179   5.820   1.487   5.346 -0.1932  0.1366 -0.1029
 5072TIP3    H115180   5.844   1.555   5.409  1.7132  1.4796 -2.1554
 5072TIP3    H215181   5.818   1.532   5.262  2.6197 -2.5609 -1.7884
 5073TIP3   OH215182   1.302   2.627   5.415  0.6283 -0.1942  0.2060
 5073TIP3    H115183   1.374   2.613   5.477  0.2349 -1.3133  0.4350
 5073TIP3    H215184   1.304   2.550   5.358  0.8268  0.7074 -1.0362
 5074TIP3   OH215185   4.133   4.381   2.358  0.0179  0.0058  0.6924
 5074TIP3    H115186   4.057   4.327   2.334 -1.1142  1.9235 -0.3491
 5074TIP3    H215187   4.164   4.417   2.275 -1.2304  3.3551  1.5048
 5075TIP3   OH215188   5.116   6.376   4.829  0.0230 -0.9094  0.2796
 5075TIP3    H115189   5.040   6.433   4.828 -0.7916 -1.9647 -0.7889
 5075TIP3    H215190   5.161   6.394   4.746  1.5288  0.4204  1.3253
 5076TIP3   OH215191   0.818   3.715   0.888  0.0171 -0.1566 -0.0954
 5076TIP3    H115192   0.888   3.718   0.953 -0.0263 -0.4508 -0.0324
 5076TIP3    H215193   0.749   3.663   0.930 -0.9377  1.5189  0.5232
 5077TIP3   OH215194   1.432   2.447   4.174 -0.4409  0.1816  0.3397
 5077TIP3    H115195   1.336   2.441   4.180 -0.5702 -2.4080 -2.1685
 5077TIP3    H215196   1.451   2.430   4.082  2.4500  1.1559  0.6660
 5078TIP3   OH215197   7.147   1.414   3.434  0.2191 -0.1974 -0.5545
 5078TIP3    H115198   7.063   1.450   3.462 -0.2683 -0.7728 -1.2707
 5078TIP3    H215199   7.138   1.400   3.340  0.9020 -0.8404 -0.5363
 5079TIP3   OH215200   5.246   6.562   1.644  0.1262 -0.2521 -0.0338
 5079TIP3    H115201   5.258   6.582   1.551 -1.1879 -1.0398 -0.3997
 5079TIP3    H215202   5.182   6.627   1.674 -1.2373 -1.4447 -0.2836
 5080TIP3   OH215203   5.535   0.167   2.001  0.4520 -0.2670 -0.3073
 5080TIP3    H115204   5.595   0.241   2.004  0.3952 -0.2112 -0.5421
 5080TIP3    H215205   5.449   0.204   2.022  0.4895 -0.3367 -0.0283
 5081TIP3   OH215206   1.561   2.527   5.556  0.3851  0.0258 -0.2414
 5081TIP3    H115207   1.644   2.504   5.600 -0.8425 -1.9377  1.2227
 5081TIP3    H215208   1.497   2.467   5.593 -1.9681  2.1752 -0.5434
 5082TIP3   OH215209   4.637   2.275   3.909  0.3903  0.3324 -0.4164
 5082TIP3    H115210   4.718   2.244   3.949  0.1003 -1.0577 -0.8352
 5082TIP3    H215211   4.573   2.207   3.929 -0.9025  1.7738  0.5753
 5083TIP3   OH215212   5.833   6.246   3.669  0.2494 -0.3628 -0.8376
 5083TIP3    H115213   5.869   6.249   3.757  0.9185 -0.7246 -1.0926
 5083TIP3    H215214   5.755   6.190   3.677  0.0297  0.0023 -0.3875
 5084TIP3   OH215215   3.179   2.950   2.810  0.3290  0.1228 -0.3109
 5084TIP3    H115216   3.097   2.905   2.830 -0.0895  0.9031 -0.2436
 5084TIP3    H215217   3.155   3.042   2.802  1.6836  1.0000  3.3072
 5085TIP3   OH215218   1.464   6.766   1.372  0.8047 -0.2251 -0.2819
 5085TIP3    H115219   1.373   6.757   1.345  0.8829  2.2984 -1.6395
 5085TIP3    H215220   1.499   6.677   1.369 -1.6619 -1.2909  0.5829
 5086TIP3   OH215221   4.322   5.883   3.016  0.3216 -0.1358  0.0598
 5086TIP3    H115222   4.329   5.935   3.095 -2.8849 -1.1634  1.1641
 5086TIP3    H215223   4.358   5.939   2.947  1.0045  1.7219  1.8295
 5087TIP3   OH215224   6.155   1.957   2.350  0.3510  0.5222 -0.6111
 5087TIP3    H115225   6.160   1.880   2.293 -0.3642  1.1269 -1.5163
 5087TIP3    H215226   6.166   1.921   2.438  0.7641 -0.5227 -1.0582
 5088TIP3   OH215227   4.251   5.639   2.589 -0.5925 -0.2684 -0.0889
 5088TIP3    H115228   4.267   5.733   2.599 -1.5021 -0.1954  0.9178
 5088TIP3    H215229   4.255   5.605   2.679 -1.5206 -0.9772 -0.3074
 5089TIP3   OH215230   6.226   4.063   3.466 -0.4187 -0.0469  0.5758
 5089TIP3    H115231   6.177   4.079   3.386  1.0155  0.4636 -0.2390
 5089TIP3    H215232   6.223   4.146   3.514 -0.0803  0.0961  0.3571
 5090TIP3   OH215233   6.666   6.457   1.889  0.5747  0.0495 -0.0862
 5090TIP3    H115234   6.734   6.400   1.853  2.2021  2.4289 -1.1067
 5090TIP3    H215235   6.705   6.545   1.885 -1.8067  1.2676  1.2767
 5091TIP3   OH215236   0.395   3.507   1.208  0.0979 -0.2721 -0.2643
 5091TIP3    H115237   0.475   3.521   1.258 -0.2889  0.5580  0.1371
 5091TIP3    H215238   0.408   3.422   1.165  0.1335 -1.4162  1.8561
 5092TIP3   OH215239   6.857   2.407   2.116  0.2176 -0.4161 -0.2073
 5092TIP3    H115240   6.810   2.328   2.089  0.6018 -0.3040 -1.2721
 5092TIP3    H215241   6.845   2.468   2.043  1.3364 -0.1107 -0.1575
 5093TIP3   OH215242   3.473   6.302   1.736  0.0434  0.1935 -0.6474
 5093TIP3    H115243   3.441   6.351   1.812  0.1945  1.3408 -1.2999
 5093TIP3    H215244   3.448   6.356   1.661 -0.9413 -1.3728 -1.4971
 5094TIP3   OH215245   4.180   3.659   4.797  0.2317  0.1268 -0.4238
 5094TIP3    H115246   4.115   3.698   4.739  0.4771 -0.5824 -1.1921
 5094TIP3    H215247   4.260   3.709   4.782 -0.3224  1.5534  1.1445
 5095TIP3   OH215248   4.298   3.401   3.766  0.0822  0.6806  1.0350
 5095TIP3    H115249   4.237   3.471   3.791 -0.3759  0.9676 -0.7774
 5095TIP3    H215250   4.272   3.377   3.677  0.4712 -1.5560  1.4724
 5096TIP3   OH215251   4.612   5.442   2.863  1.0666 -0.0607 -0.1213
 5096TIP3    H115252   4.707   5.451   2.859  1.2665 -1.4704  0.8919
 5096TIP3    H215253   4.579   5.521   2.820  2.6891  0.0670 -1.2465
 5097TIP3   OH215254   3.464   2.224   1.627 -0.5651 -0.6315  0.5036
 5097TIP3    H115255   3.369   2.217   1.638 -0.6152  1.2296  1.6142
 5097TIP3    H215256   3.495   2.265   1.707  1.1288 -0.6535 -0.0916
 5098TIP3   OH215257   6.078   1.667   5.603 -0.0298 -0.6372  0.0511
 5098TIP3    H115258   6.140   1.688   5.533 -0.3714  0.7170  0.1233
 5098TIP3    H215259   6.077   1.571   5.607  1.2851 -0.7013 -0.6296
 5099TIP3   OH215260   1.591   2.425   2.573  0.4353  0.9194 -0.1502
 5099TIP3    H115261   1.615   2.469   2.655  0.4241  0.9397 -0.1577
 5099TIP3    H215262   1.541   2.491   2.525 -2.1569  0.0101  1.0829
 5100TIP3   OH215263   1.892   4.210   1.321  0.4717 -0.3740  0.3200
 5100TIP3    H115264   1.876   4.304   1.327 -0.4118 -0.5431  0.7645
 5100TIP3    H215265   1.891   4.179   1.412  2.3599 -0.5727  0.3045
 5101TIP3   OH215266   6.953   5.964   1.900  0.1346  0.0269  0.2246
 5101TIP3    H115267   6.861   5.982   1.917  0.4744  1.7189  0.4279
 5101TIP3    H215268   7.000   6.004   1.973  1.0606 -0.6195  0.0149
 5102TIP3   OH215269   3.657   5.144   5.619 -0.2484  0.3250  0.2561
 5102TIP3    H115270   3.701   5.207   5.676 -0.0335  1.8966 -1.5522
 5102TIP3    H215271   3.567   5.175   5.614 -0.0127  0.8584 -1.0799
 5103TIP3   OH215272   6.702   6.205   5.135  0.2100 -0.2582 -0.1282
 5103TIP3    H115273   6.772   6.159   5.181  1.2205 -0.3885 -1.7389
 5103TIP3    H215274   6.664   6.139   5.077 -0.1618  0.2381 -0.4558
 5104TIP3   OH215275   4.252   1.706   3.861  0.2602 -0.1854 -0.2117
 5104TIP3    H115276   4.246   1.612   3.878  1.4420 -0.6618 -2.2252
 5104TIP3    H215277   4.206   1.719   3.779  0.4280  0.9535 -0.1426
 5105TIP3   OH215278   5.246   1.145   4.538 -0.2139  0.6874 -0.3787
 5105TIP3    H115279   5.244   1.118   4.446  2.0515  0.5874 -0.4632
 5105TIP3    H215280   5.270   1.238   4.534 -0.8342  0.8772  0.1139
 5106TIP3   OH215281   4.053   1.732   1.891  0.9479  0.2880 -0.0743
 5106TIP3    H115282   4.052   1.784   1.971  1.4763 -1.1346  0.9171
 5106TIP3    H215283   4.145   1.709   1.879  0.7502 -0.2863 -0.5568
 5107TIP3   OH215284   0.992   3.614   2.590  0.1008  0.0638  0.5117
 5107TIP3    H115285   0.946   3.614   2.674 -2.8077 -0.8323 -0.9379
 5107TIP3    H215286   1.005   3.521   2.570  1.5085  0.2833  0.2845
 5108TIP3   OH215287   3.696   4.602   1.071 -0.1035  0.2044 -0.3434
 5108TIP3    H115288   3.768   4.546   1.098 -0.3225  0.4955  0.8964
 5108TIP3    H215289   3.629   4.542   1.038  0.0336 -0.1942  0.1012
 5109TIP3   OH215290   5.513   5.644   2.002 -0.4311  0.2829 -0.4654
 5109TIP3    H115291   5.453   5.699   2.052  1.6827  2.5564 -0.2329
 5109TIP3    H215292   5.496   5.667   1.911 -0.3641  0.4510 -0.4363
 5110TIP3   OH215293   6.146   4.814   0.410 -0.0802 -0.5590  0.3486
 5110TIP3    H115294   6.129   4.727   0.445 -1.6667 -0.8431 -1.0242
 5110TIP3    H215295   6.198   4.799   0.331 -1.7432 -0.4505 -0.8254
 5111TIP3   OH215296   3.048   0.240   5.135 -0.6142  0.1146 -0.0614
 5111TIP3    H115297   3.054   0.155   5.092  0.0598  0.3430 -0.4329
 5111TIP3    H215298   3.121   0.291   5.099 -0.2024  0.4096  1.1215
 5112TIP3   OH215299   6.338   1.033   2.364  0.5123  0.5585 -0.5347
 5112TIP3    H115300   6.269   1.082   2.320  0.3062 -0.0255 -0.8757
 5112TIP3    H215301   6.419   1.065   2.324  0.3996  0.8352 -0.5406
 5113TIP3   OH215302   4.353   3.485   4.168 -0.1427  0.0616 -0.1122
 5113TIP3    H115303   4.352   3.459   4.260  0.4209  0.7147  0.0963
 5113TIP3    H215304   4.265   3.466   4.136 -0.0988 -0.9495  0.3308
 5114TIP3   OH215305   5.890   3.179   3.909 -0.5419  0.1627  0.3993
 5114TIP3    H115306   5.834   3.203   3.835 -0.7663  2.1528  1.1743
 5114TIP3    H215307   5.933   3.260   3.934  1.7554 -1.0651  0.6548
 5115TIP3   OH215308   5.425   0.658   1.297 -0.1153 -0.0283  0.0422
 5115TIP3    H115309   5.383   0.654   1.383  1.4581  0.9963  0.9041
 5115TIP3    H215310   5.393   0.580   1.252 -0.5515 -0.9070  1.7544
 5116TIP3   OH215311   6.013   0.770   1.971  0.1976 -0.2197  0.0904
 5116TIP3    H115312   6.067   0.828   2.023 -0.9059  1.1690 -0.2593
 5116TIP3    H215313   5.990   0.698   2.030  0.9852  0.0547  0.7438
 5117TIP3   OH215314   0.558   1.238   1.529  0.0472  0.4444  0.0470
 5117TIP3    H115315   0.482   1.291   1.504 -0.4764 -0.6236 -0.7224
 5117TIP3    H215316   0.624   1.259   1.462 -0.3651 -0.2849 -0.6082
 5118TIP3   OH215317   3.917   3.306   3.340 -0.4367 -0.0861 -0.6679
 5118TIP3    H115318   3.862   3.369   3.387 -1.4670 -1.5236  0.0923
 5118TIP3    H215319   3.989   3.287   3.400 -1.1579 -1.0741 -0.0927
 5119TIP3   OH215320   2.640   2.562   2.347 -0.6024  0.1376  0.5164
 5119TIP3    H115321   2.615   2.540   2.436 -1.2115  0.3526  0.4065
 5119TIP3    H215322   2.724   2.519   2.333 -0.5791 -0.0167  1.1426
 5120TIP3   OH215323   2.922   0.638   0.664 -0.0803 -0.0240  0.1982
 5120TIP3    H115324   2.960   0.700   0.726  1.3421  0.7938 -1.3981
 5120TIP3    H215325   2.829   0.661   0.659  0.4737  2.2662 -0.6122
 5121TIP3   OH215326   5.022   5.674   4.506  0.0572 -0.4828 -0.1348
 5121TIP3    H115327   4.933   5.685   4.540 -0.0213 -2.4169  0.3895
 5121TIP3    H215328   5.010   5.660   4.412 -0.1002  0.3023 -0.2346
 5122TIP3   OH215329   1.003   5.873   5.299  0.1472 -0.1241  0.0334
 5122TIP3    H115330   1.065   5.912   5.237  1.6538 -1.0363  0.9082
 5122TIP3    H215331   0.946   5.946   5.324  0.8680  0.7559 -0.7953
 5123TIP3   OH215332   5.573   5.728   4.466 -0.8293 -0.8298 -0.9483
 5123TIP3    H115333   5.525   5.645   4.456 -0.4544 -1.3860  1.3523
 5123TIP3    H215334   5.507   5.789   4.501 -0.6867 -0.6437 -1.0053
 5124TIP3   OH215335   6.274   3.202   1.169  0.3311  0.1087  0.3129
 5124TIP3    H115336   6.205   3.138   1.154 -0.6680  1.2406 -0.0318
 5124TIP3    H215337   6.354   3.150   1.179 -0.3148 -1.1303 -0.7993
 5125TIP3   OH215338   4.309   1.275   5.239  0.6597 -0.1920  0.4113
 5125TIP3    H115339   4.365   1.197   5.235  0.9597  0.0819 -1.2012
 5125TIP3    H215340   4.322   1.318   5.155 -2.2884 -0.3369 -0.2260
 5126TIP3   OH215341   0.156   4.324   1.630 -0.2204 -0.1177 -0.0808
 5126TIP3    H115342   0.204   4.329   1.547  1.1136  0.5527  0.6817
 5126TIP3    H215343   0.218   4.358   1.695 -1.3168 -0.3980  1.1566
 5127TIP3   OH215344   3.426   0.630   0.171 -0.4241 -0.0273  0.5410
 5127TIP3    H115345   3.454   0.621   0.263 -1.2467  0.7164  0.8754
 5127TIP3    H215346   3.490   0.690   0.132  0.5575 -1.1754  0.3286
 5128TIP3   OH215347   2.740   4.469   2.662 -0.0650  0.2275  0.1016
 5128TIP3    H115348   2.668   4.533   2.664  1.0848  1.6537 -1.2219
 5128TIP3    H215349   2.790   4.491   2.583  1.7760 -0.7631  0.9115
 5129TIP3   OH215350   5.693   0.751   3.700 -0.4864 -0.6186 -0.6516
 5129TIP3    H115351   5.645   0.751   3.617 -2.0463 -1.6206  0.1880
 5129TIP3    H215352   5.695   0.843   3.726  0.4003 -0.2365 -1.9756
 5130TIP3   OH215353   1.651   4.790   3.599 -0.6805  0.0097 -0.4774
 5130TIP3    H115354   1.689   4.779   3.686  0.5440 -1.4712 -1.1560
 5130TIP3    H215355   1.563   4.752   3.607 -0.3874 -0.5885 -0.0115
 5131TIP3   OH215356   1.673   3.862   0.780 -0.2399 -0.2224 -0.2082
 5131TIP3    H115357   1.767   3.844   0.780 -0.5589 -2.1733  0.1760
 5131TIP3    H215358   1.646   3.847   0.690 -0.0844  1.1079 -0.4954
 5132TIP3   OH215359   6.900   5.611   0.365 -0.2786  0.4607  0.1050
 5132TIP3    H115360   6.843   5.666   0.311  0.0587  0.5917 -0.1244
 5132TIP3    H215361   6.857   5.609   0.450 -0.2019  1.2301  0.1720
 5133TIP3   OH215362   4.374   3.148   1.783 -0.5760 -0.3656 -0.6058
 5133TIP3    H115363   4.460   3.107   1.779 -0.1523  0.5765 -1.9716
 5133TIP3    H215364   4.374   3.196   1.865 -0.4048 -1.6237  0.1483
 5134TIP3   OH215365   2.509   1.975   2.392 -0.1616  0.5528 -0.0098
 5134TIP3    H115366   2.484   2.066   2.410 -0.7057  0.8402 -2.0264
 5134TIP3    H215367   2.504   1.932   2.478 -2.1293  1.9033  0.6226
 5135TIP3   OH215368   6.380   5.183   0.173 -0.1703  0.1608  0.2810
 5135TIP3    H115369   6.393   5.277   0.161  0.2420  0.0383 -0.2562
 5135TIP3    H215370   6.363   5.173   0.267 -0.9430  0.8543  0.2267
 5136TIP3   OH215371   2.486   1.724   5.595  0.0856 -0.1142  0.1999
 5136TIP3    H115372   2.432   1.700   5.519  1.1094  2.2008 -1.3955
 5136TIP3    H215373   2.564   1.763   5.556 -0.1849  2.9431  2.4104
 5137TIP3   OH215374   7.012   5.850   5.332  0.0542  0.3134 -0.5239
 5137TIP3    H115375   7.026   5.767   5.286 -1.7392 -0.3558  0.0257
 5137TIP3    H215376   7.034   5.831   5.423 -1.0512  0.2008 -0.2645
 5138TIP3   OH215377   6.093   6.049   1.792 -0.4902 -0.5602  0.0092
 5138TIP3    H115378   6.170   6.013   1.836  0.4424  2.5834  1.2493
 5138TIP3    H215379   6.021   6.032   1.853 -0.0431 -0.2226  0.6444
 5139TIP3   OH215380   3.713   4.346   1.667  0.0023  0.5681  0.3091
 5139TIP3    H115381   3.699   4.348   1.573  1.6978 -1.6012 -0.0693
 5139TIP3    H215382   3.731   4.437   1.690  0.3228  1.0309 -1.5877
 5140TIP3   OH215383   5.512   4.355   4.444 -0.1799 -0.7502 -0.0671
 5140TIP3    H115384   5.491   4.445   4.422 -1.0473 -1.1189 -0.8179
 5140TIP3    H215385   5.608   4.353   4.450  0.0023 -0.2067 -2.0506
 5141TIP3   OH215386   3.074   2.654   1.397  0.1689  0.7327  0.1131
 5141TIP3    H115387   2.981   2.672   1.413  0.1639 -0.1741  1.2529
 5141TIP3    H215388   3.110   2.636   1.484  1.4494  1.1931 -0.2993
 5142TIP3   OH215389   1.780   1.111   0.234  0.3831  0.1144 -0.1729
 5142TIP3    H115390   1.865   1.121   0.277  0.1056 -2.2243  1.0818
 5142TIP3    H215391   1.756   1.019   0.248 -0.8423 -0.1940 -3.3557
 5143TIP3   OH215392   4.536   0.560   1.011  0.0041 -0.7083  0.3783
 5143TIP3    H115393   4.544   0.655   1.015 -0.7493 -0.4945 -1.6635
 5143TIP3    H215394   4.572   0.529   1.094  2.4007  1.2126  0.1829
 5144TIP3   OH215395   6.228   1.392   1.057 -0.7600  0.1120 -0.5471
 5144TIP3    H115396   6.221   1.468   1.115 -0.1109 -0.7139  0.6713
 5144TIP3    H215397   6.145   1.346   1.067 -0.0772 -0.8732  1.0213
 5145TIP3   OH215398   3.089   4.755   3.073 -0.3085  0.0639  0.1975
 5145TIP3    H115399   3.126   4.703   3.145 -1.4055 -0.5698  0.3116
 5145TIP3    H215400   3.151   4.828   3.063  0.7188 -0.7052  0.7008
 5146TIP3   OH215401   5.490   1.965   0.517 -0.1708  0.9324  0.0301
 5146TIP3    H115402   5.452   1.946   0.602 -2.1017  0.9066 -0.7895
 5146TIP3    H215403   5.415   1.985   0.461  1.1155  1.8886 -1.4328
 5147TIP3   OH215404   0.118   5.887   3.679  0.0557 -0.5613  0.2753
 5147TIP3    H115405   0.047   5.932   3.724  0.4585 -1.0918  1.4988
 5147TIP3    H215406   0.104   5.905   3.586 -1.6370 -0.6173  0.5004
 5148TIP3   OH215407   0.529   4.937   4.811  0.3603 -0.0559 -0.1632
 5148TIP3    H115408   0.553   5.017   4.765 -0.1070 -0.0427 -0.3876
 5148TIP3    H215409   0.453   4.961   4.863 -0.7797 -0.7362 -1.4469
 5149TIP3   OH215410   3.423   6.505   1.537  0.6270  0.2228 -0.4824
 5149TIP3    H115411   3.437   6.589   1.494  0.7647  1.1770  1.3451
 5149TIP3    H215412   3.328   6.494   1.538  0.4342  1.6051  1.4562
 5150TIP3   OH215413   2.198   0.568   3.280 -0.3664  0.3893 -0.1717
 5150TIP3    H115414   2.240   0.653   3.281 -2.3558  1.4233  1.1519
 5150TIP3    H215415   2.268   0.506   3.299  0.6318  2.0000  1.6586
 5151TIP3   OH215416   4.987   5.723   3.110 -0.5404 -0.2291  0.0145
 5151TIP3    H115417   5.007   5.686   3.197 -0.7206  1.6656  0.9131
 5151TIP3    H215418   4.991   5.817   3.123 -1.1492  0.1028 -1.9395
 5152TIP3   OH215419   5.681   0.745   5.309  0.1794  0.2715 -0.4783
 5152TIP3    H115420   5.658   0.753   5.402  1.7812 -2.0507  0.2209
 5152TIP3    H215421   5.738   0.668   5.306 -0.8416 -0.4765 -3.6100
 5153TIP3   OH215422   4.578   2.978   4.961 -0.2843  0.1378 -0.1547
 5153TIP3    H115423   4.538   3.065   4.972 -1.5384 -0.5134  0.7455
 5153TIP3    H215424   4.621   2.982   4.876  0.5314  1.9556  0.2942
 5154TIP3   OH215425   6.569   0.695   0.120 -0.2771 -0.2488 -0.0622
 5154TIP3    H115426   6.609   0.765   0.069  0.5616 -1.7117 -1.4988
 5154TIP3    H215427   6.492   0.736   0.159 -1.5617  0.7744 -3.2831
 5155TIP3   OH215428   4.920   0.510   2.928 -0.1846  0.0412  0.4161
 5155TIP3    H115429   4.864   0.467   2.864  0.5861 -1.1947  0.5464
 5155TIP3    H215430   4.958   0.584   2.880  0.6624 -1.0640 -0.7030
 5156TIP3   OH215431   5.479   5.044   2.431 -0.8339  0.2392  0.5285
 5156TIP3    H115432   5.519   5.129   2.450  1.9005 -1.0025  0.7780
 5156TIP3    H215433   5.489   5.033   2.336 -2.1270  0.5875  0.3284
 5157TIP3   OH215434   3.997   4.822   5.258  0.0539  0.1084  0.5784
 5157TIP3    H115435   4.041   4.884   5.200  2.1044 -1.2093  0.5962
 5157TIP3    H215436   3.936   4.875   5.308  0.7328  1.8686 -0.3610
 5158TIP3   OH215437   4.500   6.372   4.994  0.5205  0.3090 -0.0872
 5158TIP3    H115438   4.595   6.360   4.999  0.5119  0.8407  2.4640
 5158TIP3    H215439   4.478   6.423   5.072 -1.7649  0.9696 -1.0917
 5159TIP3   OH215440   5.705   3.159   1.770  0.1458 -0.5327 -0.0723
 5159TIP3    H115441   5.710   3.254   1.779 -2.3718 -0.3760  0.6555
 5159TIP3    H215442   5.712   3.143   1.676  0.2788  0.4104 -0.2341
 5160TIP3   OH215443   1.051   4.962   0.715  0.4755  0.0279 -0.3509
 5160TIP3    H115444   1.119   4.909   0.756  0.0029 -0.7510 -0.5618
 5160TIP3    H215445   0.972   4.908   0.720 -0.6019  1.6473  1.5674
 5161TIP3   OH215446   1.162   2.262   0.320 -0.5559 -0.0989 -0.2205
 5161TIP3    H115447   1.122   2.343   0.288 -0.7975 -0.1224  0.0214
 5161TIP3    H215448   1.254   2.284   0.331 -0.0842 -0.5856 -2.6663
 5162TIP3   OH215449   5.044   6.219   1.478 -0.3899  0.0346  0.2722
 5162TIP3    H115450   5.130   6.257   1.461 -1.2932  1.7959 -0.6323
 5162TIP3    H215451   5.061   6.125   1.488  1.3699 -0.0253 -2.2740
 5163TIP3   OH215452   3.768   4.800   3.784  0.5218 -0.2050 -0.6310
 5163TIP3    H115453   3.837   4.747   3.824 -0.2653 -1.0327 -0.3468
 5163TIP3    H215454   3.745   4.864   3.852  0.8161 -0.1001 -0.6282
 5164TIP3   OH215455   6.865   5.438   1.849  0.3933  0.4762  0.0298
 5164TIP3    H115456   6.925   5.509   1.873  1.2293 -0.1435 -0.1982
 5164TIP3    H215457   6.920   5.359   1.849 -0.5765 -0.2165  0.5293
 5165TIP3   OH215458   1.103   4.634   4.221 -0.1764  0.2566  0.4658
 5165TIP3    H115459   1.187   4.608   4.257  0.4392 -0.2293 -1.2209
 5165TIP3    H215460   1.125   4.691   4.148 -1.3964  1.9062  1.3171
 5166TIP3   OH215461   5.000   2.172   3.674 -0.2850  0.7255  0.3228
 5166TIP3    H115462   5.004   2.230   3.598  0.0179 -0.5020 -0.6248
 5166TIP3    H215463   4.997   2.231   3.749  0.7900  1.9611 -0.5742
 5167TIP3   OH215464   6.115   5.855   1.372 -0.1412  0.3143 -0.6332
 5167TIP3    H115465   6.044   5.891   1.427  1.0435  0.3729  0.9336
 5167TIP3    H215466   6.134   5.770   1.411  1.7727  1.0199  0.0684
 5168TIP3   OH215467   6.752   4.449   4.520 -0.3707  0.0414  0.0973
 5168TIP3    H115468   6.819   4.481   4.460 -0.5985 -0.6345 -0.5254
 5168TIP3    H215469   6.674   4.502   4.500 -0.3824 -0.0311 -0.0495
 5169TIP3   OH215470   3.590   4.104   1.425 -0.6156  0.4711 -0.0574
 5169TIP3    H115471   3.606   4.196   1.403  2.3428  0.5576  1.9050
 5169TIP3    H215472   3.505   4.085   1.386 -1.0347  3.8266 -1.1296
 5170TIP3   OH215473   3.927   3.862   4.324  0.6725 -0.0532 -0.2475
 5170TIP3    H115474   3.917   3.767   4.324 -0.4357  0.0531  0.3252
 5170TIP3    H215475   3.889   3.889   4.241 -1.6282  0.1159  0.8036
 5171TIP3   OH215476   5.111   0.051   2.793  0.0932 -0.0645 -0.4298
 5171TIP3    H115477   5.073   0.101   2.721  0.8002  0.8144 -0.2063
 5171TIP3    H215478   5.036   0.030   2.849 -0.1426  1.3805 -0.1565
 5172TIP3   OH215479   7.004   4.736   0.295  0.3173 -0.0091 -0.2193
 5172TIP3    H115480   7.081   4.777   0.256 -0.1408  0.8661 -0.2258
 5172TIP3    H215481   6.930   4.766   0.242 -0.4814  2.2625  1.9826
 5173TIP3   OH215482   6.033   4.206   4.605 -0.3038  0.2219 -0.5431
 5173TIP3    H115483   6.066   4.284   4.559  0.7717 -0.3643 -0.8095
 5173TIP3    H215484   6.098   4.190   4.674 -0.8402 -0.0934 -0.1011
 5174TIP3   OH215485   5.526   3.766   2.240  0.2180 -0.6011  0.2995
 5174TIP3    H115486   5.529   3.814   2.156 -1.2563 -4.6820 -2.3973
 5174TIP3    H215487   5.609   3.717   2.242 -0.9248 -2.6802 -0.3537
 5175TIP3   OH215488   6.453   5.943   0.478  0.0969 -0.0451  0.0199
 5175TIP3    H115489   6.382   5.927   0.541 -0.5131 -0.7732 -0.8222
 5175TIP3    H215490   6.426   6.022   0.432 -0.1252 -0.2640 -0.2301
 5176TIP3   OH215491   6.390   2.217   1.449 -0.1904  0.5821  0.6128
 5176TIP3    H115492   6.365   2.295   1.499  0.4865  0.1885  1.5907
 5176TIP3    H215493   6.422   2.155   1.515  1.4551  0.3211 -0.3724
 5177TIP3   OH215494   2.387   1.457   1.231  0.0573  0.1529 -0.3109
 5177TIP3    H115495   2.333   1.389   1.190 -0.1911 -1.0539  1.8805
 5177TIP3    H215496   2.476   1.438   1.202 -0.3788  1.0602 -2.4844
 5178TIP3   OH215497   4.673   3.717   3.630 -0.2041  0.8112  0.1638
 5178TIP3    H115498   4.692   3.810   3.637  0.4652  0.5886  1.4655
 5178TIP3    H215499   4.661   3.687   3.720 -1.7099 -0.1080 -0.3045
 5179TIP3   OH215500   6.436   5.909   4.396  0.7817  0.7067 -0.4434
 5179TIP3    H115501   6.496   5.836   4.408 -0.2415  0.2061  2.2945
 5179TIP3    H215502   6.352   5.868   4.375  0.2305  1.0641  0.9713
 5180TIP3   OH215503   0.704   6.079   1.183 -0.4372  0.2718 -0.0552
 5180TIP3    H115504   0.754   6.104   1.106  0.3164  2.1373  0.9822
 5180TIP3    H215505   0.647   6.008   1.153  2.3903 -1.6355 -1.4363
 5181TIP3   OH215506   0.640   3.470   0.124 -0.0189  0.2163  0.2359
 5181TIP3    H115507   0.560   3.470   0.071 -1.9882  3.2589  2.8185
 5181TIP3    H215508   0.684   3.552   0.101  0.6290  0.1356  1.1440
 5182TIP3   OH215509   1.043   3.284   0.976 -0.2834 -0.1014  0.6175
 5182TIP3    H115510   1.014   3.313   0.890  1.1396  1.1826  0.5426
 5182TIP3    H215511   0.973   3.225   1.006 -0.7711 -0.6377 -1.4162
 5183TIP3   OH215512   6.537   4.398   4.010 -0.2831 -0.4373 -0.2239
 5183TIP3    H115513   6.602   4.347   3.960  0.2160 -0.3999  0.3789
 5183TIP3    H215514   6.532   4.481   3.963 -0.0749 -0.5329 -0.4189
 5184TIP3   OH215515   1.782   2.403   3.185  0.1762  0.3188 -0.1609
 5184TIP3    H115516   1.723   2.477   3.175  0.2607  0.1165 -2.9390
 5184TIP3    H215517   1.853   2.421   3.123  0.8775 -1.4423  0.0840
 5185TIP3   OH215518   5.333   6.186   2.655  0.0841 -0.3404  0.2116
 5185TIP3    H115519   5.338   6.243   2.731 -1.0163 -0.8375  0.6764
 5185TIP3    H215520   5.425   6.163   2.636  0.4695  0.9458  0.4745
 5186TIP3   OH215521   1.930   4.908   3.495  0.5876 -0.4813 -0.1362
 5186TIP3    H115522   1.943   4.932   3.404  1.3453 -1.2271 -0.2361
 5186TIP3    H215523   1.870   4.834   3.493 -0.1728  0.1185  0.0426
 5187TIP3   OH215524   2.883   0.153   3.305  0.2431 -0.1426  0.0794
 5187TIP3    H115525   2.961   0.109   3.270  0.3188 -0.1111  0.2078
 5187TIP3    H215526   2.825   0.162   3.230  1.0958  1.4265 -0.4551
 5188TIP3   OH215527   4.991   5.584   2.197 -0.0532 -0.5571  0.2653
 5188TIP3    H115528   4.989   5.540   2.281  0.1355 -0.3744  0.3669
 5188TIP3    H215529   4.913   5.640   2.197 -0.0011 -0.4847  0.3590
 5189TIP3   OH215530   4.632   5.244   0.490  0.2178 -0.6601 -0.1999
 5189TIP3    H115531   4.704   5.307   0.485 -1.0920  1.0403  1.0772
 5189TIP3    H215532   4.573   5.269   0.419  0.7937 -1.9926 -1.1868
 5190TIP3   OH215533   3.454   5.150   2.973 -0.2951 -0.3139 -0.5455
 5190TIP3    H115534   3.374   5.102   2.995 -0.2385 -0.9888 -1.7341
 5190TIP3    H215535   3.422   5.232   2.933 -0.3841  0.1179  0.3846
 5191TIP3   OH215536   1.863   5.365   5.032  0.2258  0.1636  0.1518
 5191TIP3    H115537   1.952   5.385   5.003  0.6534 -0.7116  0.8407
 5191TIP3    H215538   1.848   5.275   5.003 -1.1500  0.8872 -1.6351
 5192TIP3   OH215539   3.611   5.513   1.639  0.1852  0.0927 -0.3333
 5192TIP3    H115540   3.566   5.430   1.625 -0.7357  0.6132 -0.5544
 5192TIP3    H215541   3.542   5.578   1.638  0.7538  0.7588  1.0476
 5193TIP3   OH215542   4.605   5.815   0.414  0.5602  0.2048  0.2660
 5193TIP3    H115543   4.522   5.842   0.373  2.0450  0.2581 -3.0723
 5193TIP3    H215544   4.588   5.726   0.445 -0.7831  0.2670 -0.1997
 5194TIP3   OH215545   4.318   6.537   3.815  0.6686 -0.6361  0.4374
 5194TIP3    H115546   4.375   6.610   3.791  0.1774 -0.4444 -0.1665
 5194TIP3    H215547   4.229   6.572   3.807  0.4507 -0.6878  2.1405
 5195TIP3   OH215548   4.147   0.293   0.109 -0.0870  0.0082  0.0356
 5195TIP3    H115549   4.201   0.371   0.124 -0.4767  0.6846 -1.8611
 5195TIP3    H215550   4.071   0.325   0.060 -0.4000 -1.5123 -0.5274
 5196TIP3   OH215551   0.960   2.365   4.732 -0.9961  0.3767  0.2335
 5196TIP3    H115552   1.012   2.325   4.802 -1.8595 -0.1129  0.6095
 5196TIP3    H215553   1.006   2.446   4.712  0.8884 -0.8441 -0.6530
 5197TIP3   OH215554   3.855   1.790   2.224  0.2811  0.2739 -0.1362
 5197TIP3    H115555   3.810   1.844   2.288 -0.9047 -1.7433  0.8253
 5197TIP3    H215556   3.941   1.831   2.215 -0.6193  2.4024  0.3533
 5198TIP3   OH215557   0.027   4.871   1.303  0.0506  0.3608  0.4047
 5198TIP3    H115558   0.031   4.942   1.239  0.0149  0.2747  0.3074
 5198TIP3    H215559   0.089   4.897   1.371  0.8117 -0.0065 -0.1342
 5199TIP3   OH215560   6.541   1.171   2.697 -0.1464  0.4473  0.1492
 5199TIP3    H115561   6.528   1.241   2.632 -1.1912  1.0465  0.9832
 5199TIP3    H215562   6.503   1.093   2.657 -1.3939  0.9625  0.3007
 5200TIP3   OH215563   4.347   4.074   1.647  0.6524  0.4547  0.5061
 5200TIP3    H115564   4.343   4.054   1.553 -0.1144  0.5503  0.5118
 5200TIP3    H215565   4.401   4.005   1.684 -0.6061 -0.7118  0.2691
 5201TIP3   OH215566   7.143   2.379   4.821  0.1217  0.2030 -0.2821
 5201TIP3    H115567   7.057   2.418   4.804 -1.0514 -2.5197 -1.0536
 5201TIP3    H215568   7.142   2.359   4.915 -0.6137 -0.9017 -0.5078
 5202TIP3   OH215569   3.966   6.287   5.734  0.1635  0.9241  0.2669
 5202TIP3    H115570   4.020   6.210   5.716  0.6238  1.0529  1.0649
 5202TIP3    H215571   4.021   6.344   5.787 -0.9110  0.8218  1.5686
 5203TIP3   OH215572   5.002   2.435   0.070 -0.3396  0.3799 -0.0392
 5203TIP3    H115573   5.035   2.524   0.058  0.6143  0.2466  1.3435
 5203TIP3    H215574   5.073   2.378   0.039 -0.2513  0.1115  0.6229
 5204TIP3   OH215575   6.393   5.448   5.247 -0.3543 -0.5818  0.3848
 5204TIP3    H115576   6.481   5.431   5.214  0.5985 -0.0243  2.4501
 5204TIP3    H215577   6.352   5.501   5.179  0.0671 -2.6692 -1.6325
 5205TIP3   OH215578   5.560   3.078   2.219  0.3912 -0.3780 -0.5668
 5205TIP3    H115579   5.530   3.076   2.128  1.6549  3.3317 -1.2063
 5205TIP3    H215580   5.528   3.161   2.254 -0.2304 -1.7767  2.5197
 5206TIP3   OH215581   3.069   4.493   1.862  0.7362  0.0065 -0.6226
 5206TIP3    H115582   3.145   4.537   1.901  0.1096 -0.6206  1.4402
 5206TIP3    H215583   3.037   4.554   1.796  0.3663  2.3639  1.5802
 5207TIP3   OH215584   5.121   2.914   3.300 -0.3818 -0.4929  0.5536
 5207TIP3    H115585   5.041   2.933   3.349 -2.1221 -2.5475 -1.2384
 5207TIP3    H215586   5.111   2.963   3.219  1.1160  0.6568  1.0225
 5208TIP3   OH215587   5.335   0.383   4.336 -0.3152  0.3351 -0.6629
 5208TIP3    H115588   5.332   0.327   4.259  1.0658 -1.2360  0.3461
 5208TIP3    H215589   5.327   0.323   4.410  1.2535  1.4282  0.4658
 5209TIP3   OH215590   0.225   5.437   4.375  0.1611 -0.3659 -0.0942
 5209TIP3    H115591   0.192   5.477   4.455 -0.4783 -0.8521 -0.1043
 5209TIP3    H215592   0.153   5.383   4.344  0.7394 -0.9304 -0.4824
 5210TIP3   OH215593   6.667   5.607   1.919 -0.4794  0.0312  0.8019
 5210TIP3    H115594   6.744   5.633   1.970 -0.7832  1.5605  0.5205
 5210TIP3    H215595   6.703   5.550   1.851  0.4642  0.8780  0.5562
 5211TIP3   OH215596   5.293   4.572  -0.010  0.1314 -0.0685 -0.6613
 5211TIP3    H115597   5.256   4.609   0.069  0.9568  1.7158 -1.0670
 5211TIP3    H215598   5.284   4.477   0.001 -0.5431  0.1806  1.1566
 5212TIP3   OH215599   5.208   2.186   5.450  0.3604  0.3903 -0.1257
 5212TIP3    H115600   5.206   2.091   5.443  0.6635  0.2972  0.9048
 5212TIP3    H215601   5.299   2.207   5.469  0.1119  0.7980  0.6586
 5213TIP3   OH215602   2.546   3.577   0.037  0.4204  0.2174  0.4451
 5213TIP3    H115603   2.637   3.551   0.024 -0.3172 -2.1341 -0.3980
 5213TIP3    H215604   2.536   3.656  -0.017  2.1906  1.1602  1.4017
 5214TIP3   OH215605   0.816   6.414   3.085  0.4236 -0.6407 -0.0036
 5214TIP3    H115606   0.880   6.427   3.155 -0.0577  0.0001  0.3290
 5214TIP3    H215607   0.833   6.486   3.024 -1.2019  0.7123  1.0421
 5215TIP3   OH215608   3.912   6.618   0.971  0.4795  0.1824  0.4664
 5215TIP3    H115609   3.819   6.633   0.985  0.0472  0.4724 -2.1941
 5215TIP3    H215610   3.949   6.705   0.956  0.1876 -0.1638 -3.1760
 5216TIP3   OH215611   3.600   1.353   4.651  0.2352 -0.3488 -0.2056
 5216TIP3    H115612   3.582   1.447   4.649 -0.7456 -0.5272 -0.1369
 5216TIP3    H215613   3.693   1.347   4.672 -0.2547  0.5971  2.7721
 5217TIP3   OH215614   4.754   3.717   4.737 -0.7696  0.5459  0.0970
 5217TIP3    H115615   4.672   3.747   4.697 -0.6276 -0.7588 -1.2421
 5217TIP3    H215616   4.728   3.645   4.794 -0.6437  0.6480  0.2835
 5218TIP3   OH215617   6.669   2.304   4.402 -0.0563  0.3249 -0.0683
 5218TIP3    H115618   6.668   2.400   4.401 -1.5449  0.3295 -0.2025
 5218TIP3    H215619   6.761   2.281   4.388  0.7828  1.7457  2.4694
 5219TIP3   OH215620   1.684   6.230   2.057  0.0611  0.9919 -0.0417
 5219TIP3    H115621   1.729   6.280   1.989 -0.3232  2.1730  0.5504
 5219TIP3    H215622   1.661   6.295   2.124 -0.0321 -0.0565  0.9731
 5220TIP3   OH215623   1.280   0.805   1.757  0.3340 -0.5644 -0.3562
 5220TIP3    H115624   1.202   0.765   1.796  0.2662  1.2378  1.4966
 5220TIP3    H215625   1.346   0.802   1.826  1.1066  0.1994 -1.0376
 5221TIP3   OH215626   6.775   4.785   2.266  0.0138 -0.3313 -0.3406
 5221TIP3    H115627   6.748   4.795   2.357 -0.6308  0.1591 -0.5760
 5221TIP3    H215628   6.776   4.874   2.231  2.0851 -0.3069 -0.3261
 5222TIP3   OH215629   4.691   0.418   0.831  0.3065  0.2754 -0.6611
 5222TIP3    H115630   4.769   0.472   0.821 -0.3418  1.1372 -1.1722
 5222TIP3    H215631   4.642   0.459   0.902  0.8775 -0.9775  0.5067
 5223TIP3   OH215632   6.491   5.090   5.502 -0.5345 -0.0409  0.1246
 5223TIP3    H115633   6.506   5.005   5.543  1.2973  0.9703  1.6895
 5223TIP3    H215634   6.535   5.084   5.417 -0.7800 -0.7890  0.0460
 5224TIP3   OH215635   0.823   0.945   1.867  0.0656  0.0186 -0.5919
 5224TIP3    H115636   0.791   1.030   1.837  0.7547 -0.1898 -1.9822
 5224TIP3    H215637   0.798   0.941   1.959  0.2484  1.8393 -0.4428
 5225TIP3   OH215638   3.871   3.928   5.288  0.0201 -0.2065 -0.3789
 5225TIP3    H115639   3.903   4.012   5.254  0.3062  0.1486  0.7285
 5225TIP3    H215640   3.950   3.883   5.318 -0.2712 -0.2962  0.2666
 5226TIP3   OH215641   0.336   1.167   2.053 -0.0756  0.6023 -0.5678
 5226TIP3    H115642   0.383   1.091   2.088 -1.2845 -0.5944 -1.4479
 5226TIP3    H215643   0.299   1.209   2.130  0.3653  0.1400 -0.0865
 5227TIP3   OH215644   2.318   3.159   2.292  0.7376 -0.2927 -0.1851
 5227TIP3    H115645   2.228   3.135   2.269  0.8105 -0.3191 -0.4470
 5227TIP3    H215646   2.335   3.113   2.374 -1.8355  4.8004  3.8102
 5228TIP3   OH215647   0.574   0.160   3.676  0.0758 -0.4135 -0.1798
 5228TIP3    H115648   0.637   0.136   3.609  0.9423  0.1351  0.4199
 5228TIP3    H215649   0.491   0.122   3.646  1.0607 -2.9687  0.0310
 5229TIP3   OH215650   7.209   3.635   4.653 -0.0743  0.3613  0.1214
 5229TIP3    H115651   7.129   3.688   4.656  0.8369  1.8220 -0.4460
 5229TIP3    H215652   7.243   3.648   4.565  0.7012 -0.4006  0.2946
 5230TIP3   OH215653   0.480   1.178   4.358 -0.4684 -0.0247  0.3031
 5230TIP3    H115654   0.442   1.093   4.381  1.0522 -0.5571  0.9960
 5230TIP3    H215655   0.574   1.160   4.349 -0.1905  1.4873 -0.0662
 5231TIP3   OH215656   1.221   4.306   0.813  0.0758  0.3655 -0.2942
 5231TIP3    H115657   1.266   4.313   0.728  0.5910 -2.0776 -0.2873
 5231TIP3    H215658   1.162   4.232   0.802 -1.1799  1.1487  0.9472
 5232TIP3   OH215659   6.810   4.774   3.587  0.7506  0.4196 -0.0007
 5232TIP3    H115660   6.808   4.679   3.572 -1.7628  0.7195 -2.3286
 5232TIP3    H215661   6.804   4.783   3.683  1.4127 -1.7417  0.3011
 5233TIP3   OH215662   1.084   2.714   5.560 -0.0921 -0.1236  0.1578
 5233TIP3    H115663   1.158   2.680   5.511 -0.5835 -2.1363  0.7344
 5233TIP3    H215664   1.008   2.668   5.524 -0.9128  0.9161  0.4923
 5234TIP3   OH215665   6.468   5.586   5.660 -0.1415 -0.3447  0.2654
 5234TIP3    H115666   6.437   5.672   5.631 -1.5080 -0.3878  1.5311
 5234TIP3    H215667   6.429   5.525   5.598  1.3254 -0.0543 -1.0130
 5235TIP3   OH215668   5.419   4.347   4.021  0.1801  0.3545 -0.0860
 5235TIP3    H115669   5.420   4.348   3.926 -0.4082  0.9239 -0.0870
 5235TIP3    H215670   5.346   4.289   4.044 -0.0226  0.6486  0.0166
 5236TIP3   OH215671   5.144   2.410   5.273  0.2458 -0.6467 -0.3602
 5236TIP3    H115672   5.169   2.337   5.330  1.5161 -0.7895 -1.0622
 5236TIP3    H215673   5.219   2.422   5.216  0.5036  1.8835  0.3899
 5237TIP3   OH215674   0.516   6.500   3.375  0.0875 -0.1800 -0.5613
 5237TIP3    H115675   0.431   6.487   3.334 -0.2108  1.0943 -0.3975
 5237TIP3    H215676   0.579   6.495   3.303 -0.0659 -1.5606 -0.6178
 5238TIP3   OH215677   4.936   3.397   4.999 -0.3204 -0.1734  0.4047
 5238TIP3    H115678   5.030   3.385   5.015  0.1230  0.0520 -1.7062
 5238TIP3    H215679   4.899   3.413   5.085  1.7246  0.6427  1.2011
 5239TIP3   OH215680   6.286   6.211   0.034  0.1722 -0.2027  0.1187
 5239TIP3    H115681   6.306   6.295   0.074 -0.3317 -0.2724  0.5327
 5239TIP3    H215682   6.325   6.215  -0.053  0.5577  0.2740  0.3102
 5240TIP3   OH215683   7.039   4.685   2.599  1.2512 -0.5058 -0.6244
 5240TIP3    H115684   7.068   4.594   2.602 -0.5884 -1.1800 -1.4044
 5240TIP3    H215685   6.948   4.682   2.628  1.1769  1.1148 -0.5880
 5241TIP3   OH215686   2.811   2.919   0.619  0.5937 -0.4205  0.1696
 5241TIP3    H115687   2.812   2.991   0.683 -0.4312 -1.5028  1.4693
 5241TIP3    H215688   2.899   2.883   0.623  0.5537 -0.4493  0.9570
 5242TIP3   OH215689   5.063   1.920   5.094  0.4409  0.6551 -0.0744
 5242TIP3    H115690   5.117   1.852   5.133 -0.5704  0.7386  1.5470
 5242TIP3    H215691   5.001   1.945   5.162 -1.1547  1.1167 -1.5935
 5243TIP3   OH215692   1.978   2.930   2.852 -0.2070  0.0515 -0.1204
 5243TIP3    H115693   1.964   2.986   2.928 -2.2453 -1.8154  1.0100
 5243TIP3    H215694   2.045   2.867   2.880 -1.5221 -1.1244  0.4691
 5244TIP3   OH215695   0.334   4.887   5.486  0.2773 -0.5238  0.7555
 5244TIP3    H115696   0.351   4.977   5.458  0.6390 -0.0597  2.3632
 5244TIP3    H215697   0.311   4.841   5.405  2.4291  0.4446 -0.5022
 5245TIP3   OH215698   5.118   4.533   3.559  0.3801 -0.6622  0.0319
 5245TIP3    H115699   5.070   4.490   3.629 -0.1304 -0.9520 -0.4794
 5245TIP3    H215700   5.073   4.505   3.479  1.0888 -0.5252 -0.4236
 5246TIP3   OH215701   4.487   0.629   2.804 -0.0426  0.1497 -0.3976
 5246TIP3    H115702   4.439   0.637   2.886 -1.7762  0.6911 -1.4149
 5246TIP3    H215703   4.552   0.699   2.807 -2.2752  2.3613 -0.8518
 5247TIP3   OH215704   4.735   4.827   2.475 -0.3901  0.2408  0.0799
 5247TIP3    H115705   4.800   4.847   2.408 -0.7470  0.1571 -0.2973
 5247TIP3    H215706   4.713   4.911   2.514 -1.4096  0.5241 -1.0563
 5248TIP3   OH215707   5.709   4.722   4.285  0.1928 -0.0614 -0.0501
 5248TIP3    H115708   5.673   4.646   4.240  0.7394 -0.2605 -0.1691
 5248TIP3    H215709   5.634   4.779   4.301 -0.3797 -1.0492  0.8949
 5249TIP3   OH215710   2.636   0.886   3.215 -0.3704  0.3666  0.0084
 5249TIP3    H115711   2.618   0.915   3.125  1.7201  0.6695 -0.3610
 5249TIP3    H215712   2.695   0.811   3.204 -0.3629  0.1996  1.1306
 5250TIP3   OH215713   3.227   0.494   3.100 -0.0855 -0.5324 -0.3256
 5250TIP3    H115714   3.167   0.566   3.078 -0.5842 -1.3356 -1.7542
 5250TIP3    H215715   3.266   0.520   3.183  0.5213  1.9109 -1.2516
 5251TIP3   OH215716   1.500   6.480   5.724 -0.0627  0.1433 -0.1937
 5251TIP3    H115717   1.508   6.385   5.716  2.4618 -0.0016  2.5827
 5251TIP3    H215718   1.431   6.492   5.789 -0.5537  0.2796 -0.7236
 5252TIP3   OH215719   3.973   4.707   1.589  0.0346 -0.1994 -0.4273
 5252TIP3    H115720   3.884   4.683   1.616 -0.1146  0.4410 -0.3203
 5252TIP3    H215721   3.969   4.711   1.494  0.1105 -0.7700 -0.4569
 5253TIP3   OH215722   4.887   0.989   2.633  0.2846 -0.3356  0.2974
 5253TIP3    H115723   4.970   0.950   2.608  1.2826  0.7385  1.7962
 5253TIP3    H215724   4.831   0.979   2.556  2.1926  0.0366 -1.1926
 5254TIP3   OH215725   1.329   6.120   3.430  0.1660  0.5234  0.3112
 5254TIP3    H115726   1.345   6.192   3.369 -0.1904  1.0839  0.8682
 5254TIP3    H215727   1.324   6.042   3.374  1.2696  0.8171 -0.2325
 5255TIP3   OH215728   2.010   5.972   0.846 -0.5710 -0.3899 -0.5853
 5255TIP3    H115729   1.982   5.977   0.754 -0.2766  0.2549 -0.6502
 5255TIP3    H215730   2.021   5.879   0.863  1.8356 -0.4634 -1.9992
 5256TIP3   OH215731   2.892   1.691   4.380 -0.3351 -0.4137  0.2524
 5256TIP3    H115732   2.805   1.716   4.411 -0.7974  1.1633 -2.0777
 5256TIP3    H215733   2.886   1.596   4.366 -1.4478 -0.4383  0.7698
 5257TIP3   OH215734   3.508   6.211   3.187 -0.3417 -0.1493  0.2788
 5257TIP3    H115735   3.564   6.191   3.112  0.1249 -2.5875  1.1716
 5257TIP3    H215736   3.521   6.304   3.203  2.6831 -0.4062 -0.2041
 5258TIP3   OH215737   4.133   3.929   0.995 -0.0802 -0.1366  0.3664
 5258TIP3    H115738   4.214   3.922   0.944 -1.0189 -0.8257 -1.1008
 5258TIP3    H215739   4.070   3.875   0.946 -2.3712  3.0441 -0.4798
 5259TIP3   OH215740   0.449   4.993   0.808  0.1950 -0.4684 -0.1337
 5259TIP3    H115741   0.495   4.975   0.726  0.0905  0.6377 -0.4534
 5259TIP3    H215742   0.357   4.995   0.783  0.0517 -1.4655  0.2765
 5260TIP3   OH215743   6.394   6.598   3.788  0.5649  0.1966 -0.8050
 5260TIP3    H115744   6.443   6.529   3.833 -4.3959 -1.6282  2.8236
 5260TIP3    H215745   6.344   6.552   3.721 -1.6958  0.2638  0.6944
 5261TIP3   OH215746   0.997   2.176   2.667  0.3752  0.3452  0.4045
 5261TIP3    H115747   0.945   2.106   2.707  1.8722 -1.2359 -0.2778
 5261TIP3    H215748   0.932   2.237   2.632 -1.0148 -1.0292  0.4422
 5262TIP3   OH215749   2.045   2.780   3.946  0.4462 -0.1354 -0.5701
 5262TIP3    H115750   2.028   2.735   3.863 -0.8040 -0.3335 -0.2252
 5262TIP3    H215751   2.018   2.871   3.929  0.4338 -0.1168 -0.4477
 5263TIP3   OH215752   0.375   1.771   0.430  0.3569  0.1259 -0.2138
 5263TIP3    H115753   0.339   1.760   0.342  0.6416  0.3195 -0.3549
 5263TIP3    H215754   0.438   1.842   0.422 -1.7517  2.2544  0.7520
 5264TIP3   OH215755   4.792   6.729   0.983 -0.3131  0.3858  0.1547
 5264TIP3    H115756   4.763   6.650   0.937 -0.1793  1.3400 -1.6298
 5264TIP3    H215757   4.751   6.722   1.070  0.9745 -2.4122  0.6578
 5265TIP3   OH215758   3.760   1.991   2.053  0.4711  0.0155 -0.3167
 5265TIP3    H115759   3.821   1.930   2.096  0.4685  0.2145 -0.0288
 5265TIP3    H215760   3.817   2.061   2.018  0.3361  0.6561  0.7109
 5266TIP3   OH215761   5.996   4.661   5.169 -0.7442 -0.5930  0.1383
 5266TIP3    H115762   5.905   4.660   5.198 -0.8807  1.1637 -0.1421
 5266TIP3    H215763   6.013   4.752   5.144  0.6215 -1.1800 -1.2817
 5267TIP3   OH215764   4.699   5.815   2.201 -0.9640  0.4641 -0.4742
 5267TIP3    H115765   4.642   5.889   2.218  0.6507  1.4454  1.0085
 5267TIP3    H215766   4.771   5.825   2.263 -0.2803 -1.9116 -0.7806
 5268TIP3   OH215767   4.348   2.699   3.544 -0.6840  0.2068  0.0076
 5268TIP3    H115768   4.269   2.752   3.557  0.1884  1.6884 -0.4580
 5268TIP3    H215769   4.413   2.739   3.602 -0.6391 -1.9286  1.5357
 5269TIP3   OH215770   3.092   3.577   0.152  0.2731 -0.4271 -0.0827
 5269TIP3    H115771   3.006   3.573   0.194 -0.1643  1.6009 -0.6492
 5269TIP3    H215772   3.154   3.557   0.222 -0.6164 -1.0023  0.5599
 5270TIP3   OH215773   3.578   1.671   5.520 -0.1611 -0.4366  1.1222
 5270TIP3    H115774   3.620   1.585   5.520 -0.1201 -0.4448 -0.6655
 5270TIP3    H215775   3.569   1.694   5.428 -0.7663  1.2007  1.5504
 5271TIP3   OH215776   3.063   6.365   2.611  0.4562 -0.2756  0.4786
 5271TIP3    H115777   3.059   6.460   2.622 -0.7508 -0.2091 -0.3551
 5271TIP3    H215778   2.981   6.333   2.649  0.4722 -0.9029 -0.0009
 5272TIP3   OH215779   0.065   6.047   1.346  0.2681 -0.2633  0.0262
 5272TIP3    H115780   0.081   5.996   1.425 -1.3057  1.2362  1.4187
 5272TIP3    H215781   0.140   6.106   1.340  0.5757 -0.6341  0.1858
 5273TIP3   OH215782   3.983   0.977   4.693 -0.3258  0.4078 -0.5039
 5273TIP3    H115783   3.915   0.991   4.759  1.1386  0.4359  1.0925
 5273TIP3    H215784   4.001   0.883   4.696 -1.2251  0.1732 -1.9139
 5274TIP3   OH215785   5.773   2.920   4.237 -0.2615  0.0311  0.4490
 5274TIP3    H115786   5.699   2.865   4.260  0.0557 -1.0608 -0.9963
 5274TIP3    H215787   5.735   2.990   4.183 -0.0852 -1.4552 -1.7099
 5275TIP3   OH215788   0.055   0.307   2.473 -0.4124 -0.7177 -0.2751
 5275TIP3    H115789  -0.022   0.312   2.417 -0.8834  0.0583  0.4234
 5275TIP3    H215790   0.058   0.216   2.502 -0.8076 -0.8542 -0.6575
 5276TIP3   OH215791   2.793   2.358   4.310  0.0488 -0.4623  0.3196
 5276TIP3    H115792   2.721   2.409   4.346  1.4823  1.1529  1.0383
 5276TIP3    H215793   2.844   2.421   4.258  0.3518 -1.8093 -1.1069
 5277TIP3   OH215794   1.653   5.208   1.673 -0.2937 -0.3377 -0.4352
 5277TIP3    H115795   1.681   5.140   1.734  0.8382 -1.6077 -2.2594
 5277TIP3    H215796   1.586   5.166   1.619  0.2160  0.0528 -1.4006
 5278TIP3   OH215797   7.099   2.770   0.508  0.1295  0.4522 -0.2703
 5278TIP3    H115798   7.004   2.783   0.516 -0.2539 -2.3026  1.0436
 5278TIP3    H215799   7.108   2.675   0.497  2.7543  0.6190 -0.0443
 5279TIP3   OH215800   3.536   3.658   0.203 -0.1764  0.2777  0.2697
 5279TIP3    H115801   3.502   3.695   0.122 -0.3041  0.3158  0.3404
 5279TIP3    H215802   3.464   3.666   0.266 -0.0069  0.4393  0.4436
 5280TIP3   OH215803   0.758   0.740   5.736 -0.0480  0.2200 -0.1720
 5280TIP3    H115804   0.673   0.730   5.777  0.4203  0.3783  0.8609
 5280TIP3    H215805   0.801   0.655   5.749  0.2761  0.4203  0.0613
 5281TIP3   OH215806   4.944   6.740   5.710  0.4681 -0.0160 -0.0384
 5281TIP3    H115807   4.859   6.733   5.752  1.4636  1.7227  2.5425
 5281TIP3    H215808   4.926   6.731   5.617 -2.3018 -1.1884  0.5131
 5282TIP3   OH215809   4.913   5.597   2.871 -0.1967 -0.3191  0.3233
 5282TIP3    H115810   4.957   5.623   2.952 -0.4888 -0.6718  0.6026
 5282TIP3    H215811   4.882   5.679   2.832  1.3839  0.0244 -0.2917
 5283TIP3   OH215812   5.703   1.358   3.701  0.1468  0.3054 -0.5471
 5283TIP3    H115813   5.680   1.298   3.771 -0.1542 -2.0760 -2.5715
 5283TIP3    H215814   5.796   1.342   3.684  0.0861  0.4484 -1.0536
 5284TIP3   OH215815   6.941   2.687   4.312 -0.3798  0.1576  0.4076
 5284TIP3    H115816   6.988   2.665   4.232  0.3719  1.1974  0.5318
 5284TIP3    H215817   7.001   2.746   4.359 -2.1687  2.3299  0.1202
 5285TIP3   OH215818   0.666   5.123   5.084 -0.4581 -0.3131 -0.4329
 5285TIP3    H115819   0.725   5.167   5.146  1.1375 -0.0244 -2.0603
 5285TIP3    H215820   0.669   5.031   5.110 -0.9267 -0.0199  0.7483
 5286TIP3   OH215821   5.306   4.896   3.372  0.0706 -0.1715 -0.4605
 5286TIP3    H115822   5.389   4.921   3.412 -0.7605 -1.1299  2.0268
 5286TIP3    H215823   5.322   4.809   3.334 -0.6317 -2.2100  3.4208
 5287TIP3   OH215824   5.712   4.023   2.565 -0.0301 -0.7120  0.2417
 5287TIP3    H115825   5.659   4.097   2.596 -1.2420 -1.4147 -0.0873
 5287TIP3    H215826   5.779   4.012   2.632 -1.0505 -0.5710  1.3319
 5288TIP3   OH215827   2.097   0.400   4.257  0.7382 -0.3352  0.1692
 5288TIP3    H115828   2.189   0.396   4.281  0.1443  0.7007  3.0580
 5288TIP3    H215829   2.084   0.491   4.228  0.3453  0.0459  1.4432
 5289TIP3   OH215830  -0.024   2.129   1.644  0.8041 -0.4088 -0.3512
 5289TIP3    H115831  -0.003   2.149   1.552 -1.2523 -0.8982 -0.9912
 5289TIP3    H215832   0.054   2.153   1.692  2.2184 -0.8061 -2.3240
 5290TIP3   OH215833   6.644   6.505   3.222 -0.3516  0.2454 -0.0936
 5290TIP3    H115834   6.588   6.445   3.273 -0.7281 -0.9629 -1.8541
 5290TIP3    H215835   6.678   6.566   3.287 -2.1440 -0.1991  1.3598
 5291TIP3   OH215836   3.435   5.859   4.778  0.2329  0.4597  0.1141
 5291TIP3    H115837   3.418   5.772   4.741  1.8380  0.5733 -0.9971
 5291TIP3    H215838   3.457   5.842   4.870  0.6914 -0.3457 -0.1317
 5292TIP3   OH215839   2.115   6.155   1.057  0.1746  0.1025 -0.5992
 5292TIP3    H115840   2.080   6.102   0.985 -1.5147  0.0562  0.2067
 5292TIP3    H215841   2.123   6.243   1.021  0.0258 -0.0684 -1.0575
 5293TIP3   OH215842   4.619   4.120   3.831  0.1253  0.2387 -0.3127
 5293TIP3    H115843   4.535   4.076   3.817  0.1971 -0.1559  0.4776
 5293TIP3    H215844   4.620   4.142   3.924  1.2964 -0.6133 -0.0963
 5294TIP3   OH215845   6.073   5.096   4.024 -0.1764  0.7008  0.1857
 5294TIP3    H115846   6.058   5.183   4.063  0.1729  0.3060  1.2455
 5294TIP3    H215847   6.050   5.035   4.094 -0.1478 -0.0593 -0.4616
 5295TIP3   OH215848   4.565   1.056   0.670  0.2395 -0.3056 -0.0635
 5295TIP3    H115849   4.651   1.089   0.697  0.6393  0.4507 -2.1150
 5295TIP3    H215850   4.583   0.993   0.601 -0.8153 -1.1800  0.4260
 5296TIP3   OH215851   0.202   4.520   5.575  0.1280 -0.3164 -0.0639
 5296TIP3    H115852   0.280   4.483   5.535  0.0651 -1.5970  0.9492
 5296TIP3    H215853   0.182   4.463   5.649 -0.5631  1.1750  0.9676
 5297TIP3   OH215854   3.514   0.327   2.120 -0.0996 -0.1042  0.5197
 5297TIP3    H115855   3.604   0.355   2.133  0.6481 -0.7183 -2.5712
 5297TIP3    H215856   3.517   0.232   2.126 -0.4718 -0.1502  0.0800
 5298TIP3   OH215857   5.070   3.615   0.598  0.4757 -0.0190  0.4425
 5298TIP3    H115858   5.073   3.522   0.623  0.9818 -0.0463  0.3035
 5298TIP3    H215859   5.135   3.656   0.655  1.4171 -0.0282 -0.6007
 5299TIP3   OH215860   4.859   0.569   5.584  0.5095 -0.5943 -0.4338
 5299TIP3    H115861   4.861   0.506   5.656 -0.0809 -0.3683 -0.2121
 5299TIP3    H215862   4.788   0.538   5.527 -0.8422  0.7033  0.4711
 5300TIP3   OH215863   4.298   6.807   4.059  0.3909  0.9460 -0.6354
 5300TIP3    H115864   4.316   6.723   4.100 -1.7015  0.7035 -0.1318
 5300TIP3    H215865   4.364   6.814   3.990 -0.1033 -1.6406 -1.4743
 5301TIP3   OH215866   5.502   1.083   4.095  0.0262 -0.1867 -0.1930
 5301TIP3    H115867   5.417   1.048   4.068  0.0099  0.0135 -0.4089
 5301TIP3    H215868   5.561   1.008   4.095  0.4673  0.0739 -2.5525
 5302TIP3   OH215869   0.361   0.628   0.912  0.1167  0.2077  0.4331
 5302TIP3    H115870   0.438   0.579   0.885  0.8497  1.6324 -0.2213
 5302TIP3    H215871   0.288   0.566   0.905  0.7893 -0.4258 -1.6216
 5303TIP3   OH215872   1.727   0.049   1.227 -0.2300 -0.0059 -0.3153
 5303TIP3    H115873   1.638   0.018   1.245 -0.5810  0.2033 -1.5795
 5303TIP3    H215874   1.760   0.078   1.312 -0.6362 -1.9036  0.5519
 5304TIP3   OH215875   1.970   3.719   5.013 -0.5847 -0.0692  0.3530
 5304TIP3    H115876   1.997   3.628   5.017  0.9042  0.2812 -0.8519
 5304TIP3    H215877   1.877   3.716   4.992 -0.4338 -1.3146 -0.2080
 5305TIP3   OH215878   3.203   0.844   1.271  0.2750  0.0417 -0.3737
 5305TIP3    H115879   3.276   0.859   1.330  0.7346  0.1093 -0.9492
 5305TIP3    H215880   3.132   0.812   1.327  0.9950 -0.7985  0.0813
 5306TIP3   OH215881   2.528   3.935   1.646  0.4527  0.3317 -0.0417
 5306TIP3    H115882   2.524   3.847   1.683  0.5718  0.8584  1.3106
 5306TIP3    H215883   2.480   3.989   1.709  0.1924  1.1978 -0.9642
 5307TIP3   OH215884   3.121   2.247   4.059  0.1376 -0.2811  0.4721
 5307TIP3    H115885   3.216   2.236   4.058  0.1435 -0.3632  1.3581
 5307TIP3    H215886   3.088   2.176   4.005  0.5490 -0.5968  0.6304
 5308TIP3   OH215887   5.620   1.791   0.109 -0.4734  0.0088  0.5546
 5308TIP3    H115888   5.590   1.749   0.028  2.4381 -0.1803 -0.5447
 5308TIP3    H215889   5.632   1.718   0.170 -2.2253  0.1066  1.0875
 5309TIP3   OH215890   4.270   2.253   0.282  0.9426 -0.0502 -0.1803
 5309TIP3    H115891   4.314   2.331   0.315  1.2655  0.0957 -0.9168
 5309TIP3    H215892   4.196   2.287   0.231 -1.2331 -0.3204  2.5548
 5310TIP3   OH215893   4.199   1.649   5.650 -0.3989 -0.0827 -0.2136
 5310TIP3    H115894   4.185   1.622   5.559  0.8933 -0.8938 -0.1825
 5310TIP3    H215895   4.252   1.580   5.688  0.6993  1.1834  0.6325
 5311TIP3   OH215896   4.778   6.660   2.975 -0.5276  0.0152 -0.0221
 5311TIP3    H115897   4.698   6.627   3.014 -0.1371 -1.3253 -0.2979
 5311TIP3    H215898   4.832   6.689   3.049 -0.1963 -1.5727  0.3884
 5312TIP3   OH215899   1.332   1.728   5.741  0.4059 -0.1530 -0.2635
 5312TIP3    H115900   1.254   1.781   5.755  0.0125 -0.4153 -1.3305
 5312TIP3    H215901   1.324   1.698   5.650  0.7884 -1.7419  0.1988
 5313TIP3   OH215902   1.600   6.025   5.875 -0.3078  0.4079 -0.2345
 5313TIP3    H115903   1.529   6.089   5.874 -0.5640  0.1231 -1.0616
 5313TIP3    H215904   1.612   6.002   5.783 -0.5799 -1.1248  0.0993
 5314TIP3   OH215905   5.288   4.224   2.782  0.4528 -0.0871  0.0996
 5314TIP3    H115906   5.374   4.183   2.772  0.7831  0.5820  0.1648
 5314TIP3    H215907   5.291   4.301   2.726  0.0583  0.1887  0.4462
 5315TIP3   OH215908   5.053   0.224   3.936 -0.2331  0.2955 -0.0860
 5315TIP3    H115909   5.007   0.308   3.930 -1.2939 -0.3056 -0.7132
 5315TIP3    H215910   5.060   0.195   3.845  1.0168  0.1536  0.0401
 5316TIP3   OH215911   3.806   3.371   2.462  0.0096  0.1740  0.7660
 5316TIP3    H115912   3.766   3.427   2.529 -0.3519  1.4856 -0.5007
 5316TIP3    H215913   3.872   3.426   2.421 -0.9307 -0.0076 -1.0864
 5317TIP3   OH215914   0.822   0.767   4.302 -0.3008  0.8651  0.4035
 5317TIP3    H115915   0.825   0.825   4.378 -2.3815  1.1878  0.2827
 5317TIP3    H215916   0.729   0.747   4.290 -0.1077  1.2015 -2.3376
 5318TIP3   OH215917   5.998   2.723   4.606 -0.3595  0.0066  0.5911
 5318TIP3    H115918   5.933   2.789   4.583  1.0011  1.1616 -0.1182
 5318TIP3    H215919   6.062   2.770   4.660  1.1048 -0.4768 -0.6664
 5319TIP3   OH215920   4.405   1.174   1.470 -0.3543 -0.0955  0.0207
 5319TIP3    H115921   4.389   1.267   1.459 -1.0453 -0.1887  0.1681
 5319TIP3    H215922   4.325   1.132   1.439 -0.8437 -0.5368  1.7927
 5320TIP3   OH215923   5.664   1.916   2.096 -0.0382  0.2321  0.4676
 5320TIP3    H115924   5.607   1.991   2.080 -0.1279  0.2602  0.9055
 5320TIP3    H215925   5.720   1.911   2.018 -0.1174  0.6738  0.3809
 5321TIP3   OH215926   2.992   6.223   4.094  0.1885 -0.4661 -0.9216
 5321TIP3    H115927   2.969   6.314   4.113  0.1461 -0.7881  0.7761
 5321TIP3    H215928   2.942   6.201   4.015 -0.9361  0.5504 -0.5258
 5322TIP3   OH215929   5.424   6.781   0.086  1.0086  0.1117 -0.0977
 5322TIP3    H115930   5.423   6.843   0.013  0.9055  0.8711  0.5274
 5322TIP3    H215931   5.517   6.765   0.102  1.3823  3.8380  2.7369
 5323TIP3   OH215932   1.932   1.882   5.684  0.2356 -0.2103 -0.0101
 5323TIP3    H115933   1.911   1.869   5.777  0.2488 -2.2409 -0.2454
 5323TIP3    H215934   1.913   1.975   5.668 -0.0694  0.1096  1.9323
 5324TIP3   OH215935   5.854   3.689   3.721 -0.4387  0.4725  0.4100
 5324TIP3    H115936   5.876   3.736   3.802  1.2303  0.9466 -0.2766
 5324TIP3    H215937   5.871   3.752   3.651  0.4506 -0.6681 -0.4428
 5325TIP3   OH215938   2.166   6.801   3.034 -0.0941  0.0962 -0.5168
 5325TIP3    H115939   2.083   6.772   3.071  0.1405  0.7365  0.5357
 5325TIP3    H215940   2.150   6.804   2.940 -0.5772 -1.9994 -0.5651
 5326TIP3   OH215941   4.535   0.148   1.939 -0.6724  0.1790 -0.1530
 5326TIP3    H115942   4.538   0.215   1.871  1.5578  0.5034  0.1815
 5326TIP3    H215943   4.526   0.065   1.891 -1.4624  0.5538 -0.6761
 5327TIP3   OH215944   0.682   3.230   1.640 -0.0073  0.1438  0.7752
 5327TIP3    H115945   0.679   3.142   1.602 -0.1986  0.1534  0.7685
 5327TIP3    H215946   0.717   3.217   1.728  0.6931  0.1531  0.4991
 5328TIP3   OH215947   6.103   0.206   3.565 -0.4512  0.4328 -0.2774
 5328TIP3    H115948   6.077   0.115   3.578  2.0250 -0.1865  1.1316
 5328TIP3    H215949   6.127   0.212   3.473  2.0290 -1.2062  0.1761
 5329TIP3   OH215950   0.668   1.981   3.104  0.6456  0.4435 -0.0250
 5329TIP3    H115951   0.646   1.918   3.034 -0.7170  1.0405 -0.1669
 5329TIP3    H215952   0.763   1.991   3.098  0.8030 -1.0588 -0.4667
 5330TIP3   OH215953   5.409   2.535   3.677 -0.7370 -0.2384 -0.3807
 5330TIP3    H115954   5.338   2.580   3.630 -1.0939 -0.9948 -0.5827
 5330TIP3    H215955   5.474   2.603   3.692 -1.8802  0.6815  0.5755
 5331TIP3   OH215956   2.752   6.471   4.909  0.0946  0.1693  0.1048
 5331TIP3    H115957   2.708   6.537   4.854  0.0310  2.0445  2.2416
 5331TIP3    H215958   2.833   6.514   4.936 -0.4797 -0.1354  2.4805
 5332TIP3   OH215959   1.705   6.440   4.285 -0.8074 -0.4153 -0.7370
 5332TIP3    H115960   1.745   6.462   4.369  0.1334  0.1224 -1.3178
 5332TIP3    H215961   1.759   6.369   4.251  0.0180  0.6856 -1.7832
 5333TIP3   OH215962   4.506   2.147   1.869 -0.4369 -0.3413 -0.5123
 5333TIP3    H115963   4.456   2.229   1.867 -1.8440 -1.1452  0.3860
 5333TIP3    H215964   4.551   2.145   1.785 -0.8552  1.0629 -0.8057
 5334TIP3   OH215965   2.724   2.965   3.303  0.1793  0.3682  0.3109
 5334TIP3    H115966   2.772   2.968   3.220  0.2527 -1.0151  0.2707
 5334TIP3    H215967   2.632   2.963   3.278  0.1870 -3.1045  0.0082
 5335TIP3   OH215968   6.618   4.141   2.783  0.2445  0.0639  0.3498
 5335TIP3    H115969   6.601   4.159   2.875 -2.5298 -0.8963  0.1369
 5335TIP3    H215970   6.585   4.052   2.769  0.3677  0.2725 -1.5906
 5336TIP3   OH215971   0.778   1.212   0.730  0.2718  0.1697  0.2147
 5336TIP3    H115972   0.741   1.132   0.768 -0.1255  0.1506 -0.1973
 5336TIP3    H215973   0.863   1.221   0.771  0.3888 -0.5576  0.1460
 5337TIP3   OH215974   2.860   3.903   2.145  0.0299  0.5724  0.0045
 5337TIP3    H115975   2.939   3.908   2.091 -0.1872  2.5061 -0.1804
 5337TIP3    H215976   2.891   3.922   2.234 -0.3649  2.4632 -0.2354
 5338TIP3   OH215977   4.277   3.456   2.621  0.2451 -0.3639  0.2435
 5338TIP3    H115978   4.352   3.417   2.667  0.2217  0.4386  0.9996
 5338TIP3    H215979   4.250   3.390   2.558  1.4268 -0.7749  0.1445
 5339TIP3   OH215980   5.452   4.616   2.347  0.1807  0.1259  0.1808
 5339TIP3    H115981   5.492   4.605   2.433  0.1358  0.9618  0.3193
 5339TIP3    H215982   5.432   4.527   2.318 -1.4567 -0.0962  1.8173
 5340TIP3   OH215983   2.087   0.968   1.201 -0.2909  0.5155  0.1913
 5340TIP3    H115984   2.028   1.001   1.269  0.1839 -0.1825  0.9749
 5340TIP3    H215985   2.041   0.982   1.119 -1.4087  0.2908  0.7629
 5341TIP3   OH215986   7.089   6.040   1.176 -0.4998  0.1674 -0.2401
 5341TIP3    H115987   7.102   5.967   1.116 -2.4903  0.9704 -1.7513
 5341TIP3    H215988   7.170   6.044   1.226  0.8514 -1.1745 -2.1677
 5342TIP3   OH215989   5.900   3.377   0.192  0.6375 -0.1501 -0.0386
 5342TIP3    H115990   5.944   3.315   0.250  1.0643 -1.3127 -1.5369
 5342TIP3    H215991   5.970   3.429   0.154  0.4531 -0.0707 -0.2749
 5343TIP3   OH215992   5.416   5.741   1.433 -0.4136  0.1281 -0.2296
 5343TIP3    H115993   5.381   5.697   1.355 -1.1547 -0.2239  0.2927
 5343TIP3    H215994   5.494   5.786   1.402 -0.3958 -0.4586 -1.0634
 5344TIP3   OH215995   1.753   5.616   3.012 -0.3088  0.2528 -0.2371
 5344TIP3    H115996   1.769   5.692   3.068  1.4378 -0.2869  0.0549
 5344TIP3    H215997   1.801   5.545   3.054  1.0136 -0.1877 -2.3786
 5345TIP3   OH215998   5.161   5.017   3.179  0.0816  0.0105 -0.0474
 5345TIP3    H115999   5.074   5.005   3.218  0.5197 -0.0752  0.9384
 5345TIP3    H216000   5.222   4.995   3.250  0.9146  1.7203 -0.1718
 5346TIP3   OH216001   5.823   3.655   5.075 -0.1742 -0.2620  0.7589
 5346TIP3    H116002   5.894   3.598   5.102 -0.1479 -0.6364 -0.0747
 5346TIP3    H216003   5.809   3.713   5.149  1.0756 -0.1039  0.8895
 5347TIP3   OH216004   3.369   1.009   4.219 -0.5534 -0.1186 -0.1067
 5347TIP3    H116005   3.376   1.034   4.126 -0.6375 -0.7370 -0.2830
 5347TIP3    H216006   3.379   1.092   4.266 -2.3329  0.4911 -0.7255
 5348TIP3   OH216007   2.472   1.737   4.724  1.0086 -0.3104  0.5478
 5348TIP3    H116008   2.530   1.708   4.654  0.7339 -0.2433  0.2866
 5348TIP3    H216009   2.446   1.657   4.770 -0.7185 -0.6585 -0.9247
 5349TIP3   OH216010   3.063   2.106   2.411 -0.3178 -0.1628 -0.5718
 5349TIP3    H116011   3.103   2.110   2.325  1.2645  0.5020  0.1584
 5349TIP3    H216012   2.977   2.147   2.400  0.3937  1.1169 -1.5442
 5350TIP3   OH216013   6.384   1.182   1.650 -0.1521 -0.0595  0.1184
 5350TIP3    H116014   6.460   1.151   1.601  0.1289  2.2834 -1.0697
 5350TIP3    H216015   6.421   1.242   1.715 -0.8901  0.1906  0.3092
 5351TIP3   OH216016   2.546   5.489   1.438  0.0540  0.5153  0.2987
 5351TIP3    H116017   2.514   5.522   1.521  1.7182  1.8702  0.4407
 5351TIP3    H216018   2.510   5.548   1.372  0.6045  0.8235  0.2722
 5352TIP3   OH216019   4.359   2.562   3.312  0.4942 -0.3069 -0.3980
 5352TIP3    H116020   4.327   2.476   3.337  0.1747 -0.2467 -0.5949
 5352TIP3    H216021   4.359   2.613   3.393  0.8529 -0.5409 -0.2468
 5353TIP3   OH216022   2.800   2.679   3.743  0.3285  0.7085 -0.0556
 5353TIP3    H116023   2.799   2.758   3.688 -2.0762  0.1370 -0.9470
 5353TIP3    H216024   2.723   2.629   3.715  2.3728 -2.5504 -0.3259
 5354TIP3   OH216025   3.211   2.117   0.284 -0.0293  0.6353  0.3826
 5354TIP3    H116026   3.135   2.070   0.252 -0.6065  2.4436 -1.0881
 5354TIP3    H216027   3.176   2.176   0.351  0.4847 -0.0925  1.3266
 5355TIP3   OH216028   3.336   2.500   4.156  0.4355  0.4874 -0.3026
 5355TIP3    H116029   3.394   2.462   4.091 -0.2898 -1.2476 -0.0058
 5355TIP3    H216030   3.335   2.436   4.228  2.0039  2.7942  1.9241
 5356TIP3   OH216031   2.956   3.984   3.970 -0.4464 -0.4558 -0.0077
 5356TIP3    H116032   2.965   4.051   3.902 -0.7061 -0.5691 -0.1558
 5356TIP3    H216033   2.865   3.957   3.965 -0.0508 -1.6791 -0.7472
 5357TIP3   OH216034   4.628   3.330   4.691  0.2022 -0.0538 -0.1368
 5357TIP3    H116035   4.631   3.423   4.714 -1.0337 -0.2009  0.7378
 5357TIP3    H216036   4.708   3.293   4.726 -1.1558 -0.0816  3.2734
 5358TIP3   OH216037   2.257   3.094   5.630 -0.2074 -0.3881  0.2354
 5358TIP3    H116038   2.233   3.116   5.540 -0.0390 -2.0944 -0.2761
 5358TIP3    H216039   2.351   3.074   5.626 -0.4559 -1.7305  0.4888
 5359TIP3   OH216040   5.320   1.091   0.932 -0.3100  0.3497 -0.2494
 5359TIP3    H116041   5.386   1.050   0.876 -0.8637  1.2510 -1.6035
 5359TIP3    H216042   5.297   1.023   0.996  2.3519  0.2090  0.6651
 5360TIP3   OH216043   1.988   5.477   2.558  0.4218 -0.4848  0.4364
 5360TIP3    H116044   2.023   5.474   2.647  1.4133 -0.3735  0.0635
 5360TIP3    H216045   2.009   5.391   2.521 -2.3047 -1.5742  1.1153
 5361TIP3   OH216046   4.367   1.348   4.773  0.0235 -0.5046 -0.1960
 5361TIP3    H116047   4.326   1.272   4.730  0.9594 -0.8245 -0.5505
 5361TIP3    H216048   4.461   1.336   4.758  0.3430 -0.3402  1.4938
 5362TIP3   OH216049   1.426   3.039   0.615  0.0095 -0.0473 -0.3096
 5362TIP3    H116050   1.411   3.057   0.708 -0.5215 -0.4836 -0.3064
 5362TIP3    H216051   1.477   3.114   0.584  1.5351 -0.6144  0.6808
 5363TIP3   OH216052   0.248   6.543   0.436  0.4924  0.4181  0.8469
 5363TIP3    H116053   0.164   6.496   0.432  1.1190 -0.9158  2.4348
 5363TIP3    H216054   0.223   6.635   0.441 -0.8868  0.0419  1.3867
 5364TIP3   OH216055   0.755   0.262   0.378 -0.4921 -0.1749 -0.0958
 5364TIP3    H116056   0.786   0.172   0.386  1.1170  0.3723  0.1626
 5364TIP3    H216057   0.817   0.304   0.318 -1.4119  0.6828 -0.4820
 5365TIP3   OH216058   6.320   6.708   1.244 -0.3251  0.2966  0.5382
 5365TIP3    H116059   6.286   6.619   1.257  1.0602 -0.3475 -0.0861
 5365TIP3    H216060   6.274   6.741   1.167  1.1130 -0.9586 -0.9348
 5366TIP3   OH216061   2.830   2.150   0.254  0.1771 -0.2957 -0.4242
 5366TIP3    H116062   2.818   2.232   0.207  0.1139 -0.7706 -1.2524
 5366TIP3    H216063   2.778   2.160   0.334 -1.0695 -0.0962 -1.2349
 5367TIP3   OH216064   4.819   2.011   3.098  0.4022 -0.0590 -0.0838
 5367TIP3    H116065   4.777   1.936   3.138 -0.1348  1.4234  2.3146
 5367TIP3    H216066   4.759   2.037   3.028  0.1844 -1.3312 -0.3940
 5368TIP3   OH216067   5.562   4.821   1.942 -0.1638 -0.2755 -0.5072
 5368TIP3    H116068   5.573   4.813   2.037  0.8595  0.0510 -0.5846
 5368TIP3    H216069   5.532   4.912   1.930 -0.2294 -0.2964 -0.5040
 5369TIP3   OH216070   6.142   0.535   1.802 -0.3689  0.1995  0.0850
 5369TIP3    H116071   6.050   0.519   1.821 -0.4253 -0.4398 -0.7082
 5369TIP3    H216072   6.167   0.603   1.865 -1.1187 -0.3013  0.9640
 5370TIP3   OH216073   1.920   4.476   0.029 -0.3166 -0.0661 -0.2414
 5370TIP3    H116074   1.959   4.502  -0.054 -1.3427  0.2368 -0.6445
 5370TIP3    H216075   1.947   4.385   0.042 -1.3165 -0.5892 -1.6289
 5371TIP3   OH216076   6.969   5.176   0.482 -0.2728  0.4360  0.0438
 5371TIP3    H116077   6.961   5.132   0.567 -1.5575  1.3546  0.4347
 5371TIP3    H216078   6.879   5.201   0.460 -0.4667 -2.3987 -3.0663
 5372TIP3   OH216079   4.228   2.691   5.305 -0.0384  0.9140  0.1190
 5372TIP3    H116080   4.216   2.616   5.365 -1.8836 -0.7157 -2.0948
 5372TIP3    H216081   4.296   2.663   5.244 -1.7970  0.2943 -1.6612
 5373TIP3   OH216082   6.878   0.760   2.307  0.4559 -0.0005  0.3681
 5373TIP3    H116083   6.795   0.729   2.272 -1.0082  1.9301  1.9633
 5373TIP3    H216084   6.941   0.744   2.236 -1.7810  1.0609 -2.0020
 5374TIP3   OH216085   0.215   1.325   4.332  0.9799  1.0079 -1.2076
 5374TIP3    H116086   0.232   1.416   4.356  2.9977  0.1896  0.8941
 5374TIP3    H216087   0.301   1.283   4.333  0.1327 -0.9054 -2.3133
 5375TIP3   OH216088   6.108   5.618   2.944  0.2517 -0.0972 -0.4732
 5375TIP3    H116089   6.161   5.633   3.022 -2.3127 -0.3335  1.4430
 5375TIP3    H216090   6.046   5.550   2.970 -0.8334 -0.0468 -2.6760
 5376TIP3   OH216091   6.738   4.405   3.319  0.5813 -0.5547 -0.7297
 5376TIP3    H116092   6.834   4.413   3.318  0.5094  0.4089 -1.2045
 5376TIP3    H216093   6.715   4.381   3.229  0.2590  1.0540 -1.1062
 5377TIP3   OH216094   5.154   1.857   4.807  0.0250 -0.3191  0.4449
 5377TIP3    H116095   5.189   1.941   4.837 -1.1366  0.3579 -0.0244
 5377TIP3    H216096   5.129   1.812   4.888 -0.5549  0.3451  0.6446
 5378TIP3   OH216097   1.700   6.396   5.446  0.7600  0.2310 -0.4779
 5378TIP3    H116098   1.610   6.390   5.479  0.5721 -0.6696 -1.1043
 5378TIP3    H216099   1.755   6.389   5.523  0.3089 -0.8537 -0.2394
 5379TIP3   OH216100   6.599   5.592   3.461 -0.0692 -0.0251  0.2342
 5379TIP3    H116101   6.672   5.531   3.451  0.1692  0.1340  0.9328
 5379TIP3    H216102   6.551   5.560   3.537 -2.0080 -1.3890 -1.4534
 5380TIP3   OH216103   6.532   1.049   0.327 -0.1694  0.6262  0.3096
 5380TIP3    H116104   6.608   0.991   0.335 -1.5116 -1.1445  1.0396
 5380TIP3    H216105   6.517   1.057   0.233 -0.4861 -1.0042  0.1906
 5381TIP3   OH216106   2.039   2.863   4.830  0.0556 -0.0156  0.2973
 5381TIP3    H116107   2.119   2.887   4.784  0.0238  0.8580  0.6887
 5381TIP3    H216108   2.059   2.779   4.871 -0.0354 -1.0299 -1.6045
 5382TIP3   OH216109   2.246   4.035   3.118  0.2518 -0.1420 -0.1572
 5382TIP3    H116110   2.199   4.067   3.195  0.8506 -2.3737  1.2585
 5382TIP3    H216111   2.185   3.973   3.077  0.8375 -0.8533  0.0137
 5383TIP3   OH216112   6.915   5.002   4.531 -0.5731 -0.4941  0.1327
 5383TIP3    H116113   6.914   4.945   4.454 -1.3905 -1.7148  1.0087
 5383TIP3    H216114   6.989   4.971   4.583 -1.5425 -1.3671  1.0262
 5384TIP3   OH216115   6.488   6.171   0.858  0.0707  0.6593 -0.0647
 5384TIP3    H116116   6.412   6.144   0.806  0.8275 -0.2995 -0.6940
 5384TIP3    H216117   6.450   6.197   0.942 -1.1673  2.1663 -1.0224
 5385TIP3   OH216118   3.812   1.676   3.347  0.5238  0.3289  0.2563
 5385TIP3    H116119   3.833   1.616   3.419  0.9553  0.7661  0.4992
 5385TIP3    H216120   3.758   1.624   3.287  0.5560 -0.1784  0.6648
 5386TIP3   OH216121   0.133   6.170   2.241 -0.1373  0.1007 -0.1990
 5386TIP3    H116122   0.191   6.096   2.260  0.0698  0.3906  0.3049
 5386TIP3    H216123   0.051   6.129   2.211  0.9622 -0.3156 -2.9411
 5387TIP3   OH216124   6.495   2.006   5.245 -0.3551 -0.2228  0.4216
 5387TIP3    H116125   6.510   1.999   5.340 -0.1882  0.3447  0.4454
 5387TIP3    H216126   6.518   1.920   5.210 -0.5003 -0.4617  0.9092
 5388TIP3   OH216127   4.987   5.273   4.332  0.1639 -0.2858  0.5568
 5388TIP3    H116128   4.937   5.202   4.371  0.0125 -1.4870 -1.6987
 5388TIP3    H216129   4.960   5.275   4.241  0.2411  2.6443  0.4908
 5389TIP3   OH216130   0.052   0.814   3.717 -0.5454 -0.1017 -0.3879
 5389TIP3    H116131   0.027   0.890   3.769  0.8722 -0.4476  0.8733
 5389TIP3    H216132  -0.029   0.785   3.676 -1.1685  1.9372 -0.7240
 5390TIP3   OH216133   1.546   2.569   0.549  0.0669  0.7987  0.3467
 5390TIP3    H116134   1.590   2.632   0.491  1.3327  0.2768  0.7070
 5390TIP3    H216135   1.487   2.623   0.601  1.0566  1.7040  0.5835
 5391TIP3   OH216136   7.176   2.273   0.212 -0.6218  0.1645 -0.1926
 5391TIP3    H116137   7.097   2.324   0.191  0.3353  1.5277 -0.6197
 5391TIP3    H216138   7.199   2.230   0.130  0.7504  2.1897 -0.9627
 5392TIP3   OH216139   5.773   3.448   3.812  0.6073  0.1483 -0.2310
 5392TIP3    H116140   5.762   3.386   3.740 -1.5102  0.7282 -0.4578
 5392TIP3    H216141   5.786   3.532   3.769 -1.3641  0.6116  0.0197
 5393TIP3   OH216142   7.140   2.210   0.493 -0.5003 -0.5293 -0.6390
 5393TIP3    H116143   7.061   2.158   0.487 -1.3160  0.5502  0.3151
 5393TIP3    H216144   7.174   2.212   0.403 -0.3078 -2.8183 -0.6843
 5394TIP3   OH216145   5.748   4.341   0.247 -0.8973 -0.5763  0.1232
 5394TIP3    H116146   5.821   4.376   0.195 -1.4689 -1.4941 -1.3515
 5394TIP3    H216147   5.768   4.369   0.337  0.5114  0.4250 -0.4519
 5395TIP3   OH216148   4.858   2.339   5.543 -0.2661 -0.1239  0.3237
 5395TIP3    H116149   4.812   2.258   5.522 -0.4806  0.4499 -1.6791
 5395TIP3    H216150   4.885   2.374   5.457  0.4567  1.5453  1.1809
 5396TIP3   OH216151   4.755   2.773   0.432 -0.9489  0.0504  0.5593
 5396TIP3    H116152   4.712   2.821   0.502 -1.0504 -0.9128  1.1723
 5396TIP3    H216153   4.707   2.796   0.353 -0.6823  1.3333  0.7578
 5397TIP3   OH216154   0.767   3.068   2.300  0.2124 -0.7405 -0.0579
 5397TIP3    H116155   0.784   2.983   2.261 -1.7958 -1.2313  0.0076
 5397TIP3    H216156   0.775   3.054   2.394 -1.1613 -1.1674  0.0202
 5398TIP3   OH216157   3.649   6.520   1.870 -0.4477  0.2574  0.1316
 5398TIP3    H116158   3.553   6.512   1.877 -0.4228 -0.1339  0.0223
 5398TIP3    H216159   3.666   6.523   1.776 -0.2369 -1.1510  0.1063
 5399TIP3   OH216160   2.627   3.862   1.070 -0.1143 -0.4055 -0.1148
 5399TIP3    H116161   2.662   3.855   1.158 -0.7163  1.5678  0.3431
 5399TIP3    H216162   2.550   3.805   1.069 -0.0142 -0.5526  0.5951
 5400TIP3   OH216163   2.638   6.485   3.313 -0.3479  0.0021  0.5915
 5400TIP3    H116164   2.732   6.471   3.312 -0.3605 -0.0465 -0.2401
 5400TIP3    H216165   2.618   6.507   3.404  0.5843  0.8034  0.6195
 5401TIP3   OH216166   3.586   1.016   0.683 -0.2074 -0.0820  0.9442
 5401TIP3    H116167   3.494   1.037   0.696 -0.5944 -1.6396  0.9409
 5401TIP3    H216168   3.589   0.920   0.680  1.1298 -0.0402 -1.1320
 5402TIP3   OH216169   5.639   3.160   4.653 -0.6616 -0.2151 -0.3436
 5402TIP3    H116170   5.617   3.249   4.682 -0.0392 -0.1240 -0.1190
 5402TIP3    H216171   5.638   3.165   4.557 -0.5024  0.0739 -0.3323
 5403TIP3   OH216172   1.376   5.502   3.768  0.0868 -0.3728  0.5002
 5403TIP3    H116173   1.305   5.516   3.705  0.5796  0.2159  0.0676
 5403TIP3    H216174   1.407   5.590   3.789  1.3788 -0.6688 -0.0985
 5404TIP3   OH216175   2.158   1.218   3.687  0.9026  0.0439  0.4284
 5404TIP3    H116176   2.110   1.276   3.745 -0.4222  0.9643 -1.4751
 5404TIP3    H216177   2.122   1.131   3.705 -2.0429  0.7625 -1.3165
 5405TIP3   OH216178   0.463   3.887   3.099 -0.0990  0.2420  0.3632
 5405TIP3    H116179   0.411   3.818   3.139 -1.9011  1.7125  0.7050
 5405TIP3    H216180   0.466   3.956   3.165 -0.1131  1.3129 -0.7206
 5406TIP3   OH216181   4.217   6.623   0.619 -0.0432  0.0815  0.7017
 5406TIP3    H116182   4.156   6.693   0.593 -1.6011 -0.3942  2.8447
 5406TIP3    H216183   4.303   6.666   0.621 -0.6922  1.4724  0.2561
 5407TIP3   OH216184   2.024   0.044   1.415  0.3453  0.4743 -0.5072
 5407TIP3    H116185   2.082   0.117   1.394  1.1083  0.4732  1.3356
 5407TIP3    H216186   2.083  -0.031   1.422 -0.3224 -0.1546 -1.5986
 5408TIP3   OH216187   2.261   1.204   1.413 -0.5375  0.0115  0.5927
 5408TIP3    H116188   2.332   1.152   1.376 -0.7392  0.1791 -0.0479
 5408TIP3    H216189   2.181   1.161   1.383 -0.7176 -0.6046  1.9180
 5409TIP3   OH216190   3.446   5.162   3.315 -0.4342  0.0506 -0.6971
 5409TIP3    H116191   3.431   5.145   3.408 -0.8444  2.0175 -0.3614
 5409TIP3    H216192   3.454   5.075   3.276  0.8673 -0.8382  1.3410
 5410TIP3   OH216193   3.844   4.529   4.262  0.2838  0.0298  0.9637
 5410TIP3    H116194   3.755   4.559   4.245  0.3383  0.1915  0.9616
 5410TIP3    H216195   3.866   4.567   4.346  0.9389  1.3401  0.2355
 5411TIP3   OH216196   6.563   1.622   0.927 -0.1919 -0.4453  0.0415
 5411TIP3    H116197   6.606   1.646   1.009 -0.0713  0.6536 -0.3258
 5411TIP3    H216198   6.615   1.548   0.894  0.3932 -0.2248  0.4419
 5412TIP3   OH216199   0.713   0.289   1.617 -0.3367  0.2320 -0.3256
 5412TIP3    H116200   0.761   0.247   1.689  1.9096  0.1931 -1.7267
 5412TIP3    H216201   0.646   0.342   1.660  0.5271 -0.2655  1.7628
 5413TIP3   OH216202   1.960   5.400   5.297  0.5571 -0.1276  0.0016
 5413TIP3    H116203   1.924   5.348   5.369  2.9708 -0.3645  1.1644
 5413TIP3    H216204   1.932   5.355   5.218 -0.3040 -1.1789  0.8841
 5414TIP3   OH216205   2.161   4.909   4.232 -0.0365  0.3602  0.1388
 5414TIP3    H116206   2.151   4.817   4.209  1.1989  0.2611 -0.0464
 5414TIP3    H216207   2.147   4.956   4.150 -1.2966  0.3960  0.3570
 5415TIP3   OH216208   3.353   6.470   3.481 -0.0529  0.1917  0.3106
 5415TIP3    H116209   3.338   6.395   3.423 -1.0109 -0.1776  1.0093
 5415TIP3    H216210   3.282   6.465   3.546  0.0540  1.5145  0.5654
 5416TIP3   OH216211   5.984   0.678   4.357 -0.0760 -0.2066  0.3226
 5416TIP3    H116212   5.987   0.714   4.268 -0.3083  0.4400  0.5750
 5416TIP3    H216213   6.043   0.734   4.407 -2.3869  1.4432  1.3039
 5417TIP3   OH216214   6.864   0.789   5.159 -0.0707 -0.4014 -0.5415
 5417TIP3    H116215   6.891   0.697   5.164  0.9533 -0.0467  1.6532
 5417TIP3    H216216   6.944   0.839   5.180 -0.8919  0.9232 -0.4542
 5418TIP3   OH216217   6.821   4.797   0.763  0.5247 -0.3850 -0.3487
 5418TIP3    H116218   6.802   4.705   0.783  1.5004 -0.7754 -1.1706
 5418TIP3    H216219   6.822   4.840   0.849 -0.1183 -1.0950  0.0272
 5419TIP3   OH216220   3.144   5.131   2.307  0.2159  0.3829 -0.0760
 5419TIP3    H116221   3.102   5.065   2.252  1.8356 -0.4257 -0.4265
 5419TIP3    H216222   3.221   5.157   2.257  0.5619  1.2240  0.8702
 5420TIP3   OH216223   0.917   4.303   3.577 -0.3059 -0.4415 -0.0145
 5420TIP3    H116224   0.919   4.394   3.606 -2.2029 -0.7535  1.2544
 5420TIP3    H216225   1.010   4.279   3.568  0.2363  1.7631 -1.0163
 5421TIP3   OH216226   1.885   3.992   1.570  0.0302  0.0453 -0.6536
 5421TIP3    H116227   1.790   4.004   1.564 -0.1074 -0.8080 -0.3467
 5421TIP3    H216228   1.918   4.078   1.596 -0.8440 -0.0368  0.9002
 5422TIP3   OH216229   3.651   3.276   4.674 -0.0787 -0.3127 -0.4974
 5422TIP3    H116230   3.612   3.251   4.591  1.1288 -0.5964 -0.9980
 5422TIP3    H216231   3.673   3.193   4.717 -2.7757 -0.2667  1.1884
 5423TIP3   OH216232   6.294   4.258   1.038  0.3059 -0.5607  0.1730
 5423TIP3    H116233   6.358   4.219   1.098  1.5989  0.0389 -0.7640
 5423TIP3    H216234   6.280   4.191   0.971 -0.4987 -0.9064  0.6710
 5424TIP3   OH216235   2.373   0.645   3.924 -0.3294 -0.5698  0.2528
 5424TIP3    H116236   2.433   0.570   3.922 -1.5663 -1.5860 -0.3170
 5424TIP3    H216237   2.288   0.606   3.945 -1.2714  0.4731 -1.4148
 5425TIP3   OH216238   6.553   5.771   4.059  0.2514  0.5841  0.3344
 5425TIP3    H116239   6.552   5.701   4.125 -1.7718 -0.0206 -0.2589
 5425TIP3    H216240   6.639   5.765   4.018  0.6455 -0.5964  1.2851
 5426TIP3   OH216241   1.597   3.300   1.293  0.5947 -0.8786  0.6530
 5426TIP3    H116242   1.635   3.277   1.208  0.2117 -0.4924  0.3709
 5426TIP3    H216243   1.655   3.368   1.327 -0.8287  1.1534 -0.6562
 5427TIP3   OH216244   6.268   0.579   0.604  0.3534  0.4943 -0.4922
 5427TIP3    H116245   6.252   0.540   0.690 -1.4240 -0.5646 -1.2305
 5427TIP3    H216246   6.278   0.504   0.546 -3.5347  0.9388 -2.0240
 5428TIP3   OH216247   5.774   1.037   3.254 -0.1454 -0.1500  0.0038
 5428TIP3    H116248   5.750   1.007   3.166 -0.4256  0.5959 -0.1791
 5428TIP3    H216249   5.831   0.968   3.288  0.8803  0.0894 -1.1925
 5429TIP3   OH216250   1.679   0.087   4.621 -0.3041  0.0162 -0.1534
 5429TIP3    H116251   1.635   0.003   4.606  2.0689 -1.4132  0.4409
 5429TIP3    H216252   1.692   0.122   4.533  1.2663 -1.7051 -0.6740
 5430TIP3   OH216253   0.565   2.690   4.501  0.1598  0.0734  0.8875
 5430TIP3    H116254   0.647   2.739   4.506 -0.4445  1.1516  0.5896
 5430TIP3    H216255   0.498   2.757   4.492 -0.6104 -0.8528 -0.7733
 5431TIP3   OH216256   0.774   6.058   0.607 -0.0831 -0.7905 -0.2400
 5431TIP3    H116257   0.857   6.097   0.637  0.7703 -0.7312 -2.5121
 5431TIP3    H216258   0.758   6.098   0.522 -1.0877 -2.7211 -1.0097
 5432TIP3   OH216259   1.131   1.424   0.575  0.2782  0.1950 -0.1825
 5432TIP3    H116260   1.167   1.490   0.634 -0.8495 -2.4783  3.8336
 5432TIP3    H216261   1.198   1.357   0.570  0.3697  0.3719 -2.1283
 5433TIP3   OH216262   6.119   4.831   3.808  0.2216  0.0982  0.3120
 5433TIP3    H116263   6.123   4.841   3.904 -1.3605 -1.8861  0.6614
 5433TIP3    H216264   6.113   4.737   3.795  2.1311  0.2133 -1.8848
 5434TIP3   OH216265   2.504   1.024   5.231  0.1712 -0.5414 -0.4068
 5434TIP3    H116266   2.481   0.942   5.187 -0.9044  0.4972 -1.8402
 5434TIP3    H216267   2.542   0.996   5.315  2.0607 -2.5865 -1.8343
 5435TIP3   OH216268   5.443   0.963   3.303  0.2553  0.0017  0.0600
 5435TIP3    H116269   5.530   0.927   3.285 -0.5174 -2.7722  1.3776
 5435TIP3    H216270   5.431   0.952   3.397 -1.9366 -0.7387 -0.2494
 5436TIP3   OH216271   1.461   2.620   2.410  0.5259  0.2950  0.5107
 5436TIP3    H116272   1.396   2.662   2.467  0.9019  0.0739  1.1139
 5436TIP3    H216273   1.411   2.555   2.361  0.3794 -0.2843  1.3955
 5437TIP3   OH216274   2.303   2.700   2.087 -0.3656  0.1780 -0.2608
 5437TIP3    H116275   2.327   2.652   2.167  0.2956 -0.2792 -0.7137
 5437TIP3    H216276   2.387   2.720   2.046 -0.6316  1.7654 -0.0829
 5438TIP3   OH216277   0.813   6.590   1.233 -0.3018  0.1479 -0.2553
 5438TIP3    H116278   0.802   6.588   1.138  0.3227  0.7871 -0.3590
 5438TIP3    H216279   0.759   6.663   1.262 -1.6940 -0.9755  0.0872
 5439TIP3   OH216280   1.607   1.773   5.735 -0.3566 -0.3604 -0.0128
 5439TIP3    H116281   1.650   1.728   5.807 -0.3697  0.6767  0.6766
 5439TIP3    H216282   1.515   1.750   5.744 -0.3745 -0.1544  0.3805
 5440TIP3   OH216283   6.770   1.245   1.079  0.3992  0.7291 -0.1120
 5440TIP3    H116284   6.750   1.311   1.013 -0.5400  0.4421 -0.1278
 5440TIP3    H216285   6.707   1.261   1.149 -0.5297 -0.7570 -0.5531
 5441TIP3   OH216286   2.594   4.862   2.441 -1.3539  0.5755  0.7552
 5441TIP3    H116287   2.584   4.768   2.426  0.1940  0.1095  2.2487
 5441TIP3    H216288   2.514   4.901   2.407 -2.3266 -1.3619  0.7155
 5442TIP3   OH216289   2.369   3.359   5.595  0.2096 -0.2381  0.3201
 5442TIP3    H116290   2.330   3.310   5.522 -0.4613  0.7834 -0.0244
 5442TIP3    H216291   2.303   3.354   5.664 -0.1028  0.6152  0.0958
 5443TIP3   OH216292   5.319   3.156   1.720 -0.0569 -0.4179 -0.2147
 5443TIP3    H116293   5.398   3.176   1.669 -0.6641 -0.7455 -1.3255
 5443TIP3    H216294   5.260   3.229   1.701 -0.1189 -0.3024  0.4094
 5444TIP3   OH216295   5.167   3.547   2.766  0.2797  0.0549 -0.3678
 5444TIP3    H116296   5.194   3.586   2.683 -0.8526 -0.5233 -1.0409
 5444TIP3    H216297   5.248   3.517   2.806  0.8943  0.7723 -1.0357
 5445TIP3   OH216298   2.291   0.456   2.637  0.5593 -0.4074 -0.6470
 5445TIP3    H116299   2.349   0.531   2.621 -0.7087  0.8499  0.3838
 5445TIP3    H216300   2.214   0.494   2.678 -0.6317 -2.1527 -1.1543
 5446TIP3   OH216301   6.582   1.104   2.294 -0.0303  0.3558  0.3917
 5446TIP3    H116302   6.610   1.195   2.305  2.8274 -0.2761 -0.7867
 5446TIP3    H216303   6.629   1.056   2.362 -1.0416 -0.3377  0.6120
 5447TIP3   OH216304   5.442   0.774   0.479 -0.3753  0.2055 -0.3211
 5447TIP3    H116305   5.478   0.777   0.568  0.2886  1.7074 -0.6037
 5447TIP3    H216306   5.474   0.854   0.438 -0.1978 -0.7386 -2.1105
 5448TIP3   OH216307   0.321   2.295   4.651  0.2901  0.2267 -0.1669
 5448TIP3    H116308   0.306   2.342   4.733  2.2277  0.8688 -0.1282
 5448TIP3    H216309   0.324   2.363   4.584 -0.6404 -0.2319 -0.6866
 5449TIP3   OH216310   2.525   3.049   5.121 -0.5333  0.4484 -0.4509
 5449TIP3    H116311   2.581   3.044   5.199 -0.8343 -0.7220 -0.2914
 5449TIP3    H216312   2.585   3.073   5.051 -0.1603  1.0013  0.0405
 5450TIP3   OH216313   6.623   5.316   0.089  0.0591  0.3701 -0.0146
 5450TIP3    H116314   6.668   5.357   0.015  0.3963  0.4644  0.2424
 5450TIP3    H216315   6.595   5.389   0.145  0.8304  0.2467  0.5402
 5451TIP3   OH216316   4.342   6.234   1.146  0.0683  0.3570  0.1981
 5451TIP3    H116317   4.436   6.232   1.128  0.0204  1.0365 -0.1503
 5451TIP3    H216318   4.316   6.324   1.128 -0.6513  0.1749  0.3024
 5452TIP3   OH216319   3.566   6.361   1.087 -0.2530  0.1386 -0.1818
 5452TIP3    H116320   3.505   6.344   1.158 -1.0038  3.5560  0.1374
 5452TIP3    H216321   3.652   6.342   1.125 -0.8223 -0.9908  0.6135
 5453TIP3   OH216322   0.931   5.731   0.894 -0.1627 -0.4747  0.5136
 5453TIP3    H116323   0.977   5.810   0.865  0.5196 -1.0184  0.0940
 5453TIP3    H216324   0.841   5.743   0.864  0.2071 -0.3988 -0.6077
 5454TIP3   OH216325   7.136   1.020   3.843  1.0476 -0.4358 -0.2398
 5454TIP3    H116326   7.046   1.016   3.812  1.2523 -1.3690 -0.7491
 5454TIP3    H216327   7.163   1.110   3.827 -0.0615  0.0851  0.7202
 5455TIP3   OH216328   2.029   2.611   1.196  0.6852 -0.0482 -0.4770
 5455TIP3    H116329   2.048   2.599   1.290 -0.6914 -0.4752 -0.2267
 5455TIP3    H216330   1.981   2.531   1.172  0.8619  0.1526 -1.4989
 5456TIP3   OH216331   0.113   4.035   2.642  0.2422 -0.4477  0.4489
 5456TIP3    H116332   0.128   4.056   2.734 -1.2747  0.3321  0.5441
 5456TIP3    H216333   0.057   3.957   2.643 -1.4766  0.7294  0.2704
 5457TIP3   OH216334   6.249   1.395   2.751 -0.0338  0.1965  0.3834
 5457TIP3    H116335   6.341   1.402   2.774  0.1696 -1.4596  0.2212
 5457TIP3    H216336   6.249   1.365   2.660 -0.6975 -0.8262  0.7044
 5458TIP3   OH216337   1.809   6.188   4.191  0.6284  0.6259  0.7530
 5458TIP3    H116338   1.798   6.110   4.246  0.7015  0.4842  0.5644
 5458TIP3    H216339   1.901   6.210   4.198  0.9980 -0.3517 -0.6114
 5459TIP3   OH216340   6.964   2.097   0.996 -0.7840 -0.0219 -1.2933
 5459TIP3    H116341   6.941   2.118   1.086 -0.0617  0.1895 -1.1453
 5459TIP3    H216342   6.961   2.002   0.991  1.6826 -0.2355 -0.3002
 5460TIP3   OH216343   5.011   0.770   1.149  0.2486  0.4450  0.2360
 5460TIP3    H116344   5.026   0.821   1.229 -1.7611  1.4251  0.0621
 5460TIP3    H216345   4.931   0.721   1.166 -0.2705  0.7348 -1.1702
 5461TIP3   OH216346   0.828   5.138   5.719  0.0400 -0.2631  0.7920
 5461TIP3    H116347   0.837   5.087   5.639 -0.6869  1.2529 -0.2919
 5461TIP3    H216348   0.734   5.141   5.736 -0.0735  1.8822  0.0152
 5462TIP3   OH216349   4.738   2.650   4.226 -0.2331  0.0587  0.0743
 5462TIP3    H116350   4.829   2.640   4.253  0.4346  0.9816 -1.6519
 5462TIP3    H216351   4.703   2.561   4.223  0.9716 -0.4207 -0.3758
 5463TIP3   OH216352   6.590   5.800   1.367 -0.3801 -0.4104 -0.5235
 5463TIP3    H116353   6.525   5.799   1.297 -1.1929 -0.4721  0.2123
 5463TIP3    H216354   6.553   5.858   1.433 -0.4979 -1.7726  0.6465
 5464TIP3   OH216355   6.739   5.650   5.197  0.2555 -0.5952 -0.0736
 5464TIP3    H116356   6.756   5.677   5.107 -0.2010 -1.5321 -0.4498
 5464TIP3    H216357   6.664   5.703   5.225  0.5985 -0.0726 -0.1230
 5465TIP3   OH216358   1.879   5.262   2.109  0.1804 -0.4340 -0.2940
 5465TIP3    H116359   1.938   5.291   2.040  1.8493  0.7101  1.4966
 5465TIP3    H216360   1.852   5.343   2.153 -1.0720 -1.1017  0.2188
 5466TIP3   OH216361   3.637   6.594   0.357 -0.0297 -0.2803  0.4496
 5466TIP3    H116362   3.731   6.607   0.350 -0.0823 -0.1224 -0.0164
 5466TIP3    H216363   3.602   6.625   0.273 -0.7604  2.0906  1.5661
 5467TIP3   OH216364   5.565   4.651   1.696  0.0189 -0.6080 -0.2213
 5467TIP3    H116365   5.546   4.728   1.749  0.4712 -0.7341  0.1297
 5467TIP3    H216366   5.531   4.577   1.747 -1.2726 -0.5762 -0.9844
 5468TIP3   OH216367   2.217   5.068   0.892 -0.3230  0.1268 -0.0629
 5468TIP3    H116368   2.196   5.072   0.799  1.3846 -2.4272 -0.6424
 5468TIP3    H216369   2.311   5.082   0.896 -0.1066 -1.4753  1.0867
 5469TIP3   OH216370   5.652   6.672   1.564  0.1071 -0.3745 -0.3131
 5469TIP3    H116371   5.685   6.605   1.624 -1.9368 -3.0862 -1.9317
 5469TIP3    H216372   5.605   6.734   1.619  0.7989 -1.1221  1.1591
 5470TIP3   OH216373   3.355   6.397   2.181 -0.0093 -0.0217 -0.8380
 5470TIP3    H116374   3.401   6.326   2.225  0.5734  1.2172  0.6624
 5470TIP3    H216375   3.274   6.408   2.232 -0.8179 -0.5689 -1.9700
 5471TIP3   OH216376   4.361   4.854   2.952 -0.1511  0.1938 -0.0595
 5471TIP3    H116377   4.387   4.835   3.042 -0.3597  0.2824  0.0221
 5471TIP3    H216378   4.266   4.869   2.958 -0.0122  1.2076 -0.1168
 5472TIP3   OH216379   6.347   3.574   2.590  1.1050  0.3003 -0.2201
 5472TIP3    H116380   6.315   3.553   2.502 -0.4365  0.8885  0.1650
 5472TIP3    H216381   6.375   3.666   2.584  1.9871  0.0324 -0.3442
 5473TIP3   OH216382   2.848   4.607   2.004  0.2734  0.1728  0.0770
 5473TIP3    H116383   2.797   4.596   1.924  0.2453 -2.7701  0.3705
 5473TIP3    H216384   2.918   4.542   1.997  0.1321 -0.3559  2.4792
 5474TIP3   OH216385   4.158   1.454   5.392  0.0724  0.0089  0.2996
 5474TIP3    H116386   4.115   1.459   5.307  1.7666 -0.1367 -0.6203
 5474TIP3    H216387   4.219   1.381   5.383  1.1425  0.7600  1.2185
 5475TIP3   OH216388   5.292   6.475   3.914  0.2103 -0.5443 -0.0598
 5475TIP3    H116389   5.317   6.566   3.932 -0.2277 -0.7169  1.5092
 5475TIP3    H216390   5.201   6.469   3.941  0.1326 -1.3711 -0.4782
 5476TIP3   OH216391   0.048   3.489   3.613 -0.5721 -0.2103 -0.0285
 5476TIP3    H116392   0.001   3.419   3.657 -3.1483  1.9102  0.8195
 5476TIP3    H216393   0.011   3.570   3.649  2.3701  1.6510 -0.8147
 5477TIP3   OH216394   6.520   0.600   3.460  0.1645 -0.0095 -0.0132
 5477TIP3    H116395   6.479   0.590   3.374 -0.4891 -0.6060  0.3509
 5477TIP3    H216396   6.515   0.693   3.479  1.0108  0.2390 -0.9528
 5478TIP3   OH216397   2.396   0.048   1.721 -0.3312 -0.3418 -0.2517
 5478TIP3    H116398   2.326   0.084   1.776 -0.0329  0.3430 -0.3037
 5478TIP3    H216399   2.469   0.033   1.781 -0.3437 -0.5463 -0.2881
 5479TIP3   OH216400   4.399   1.134   2.076 -0.2209 -0.0945  0.2359
 5479TIP3    H116401   4.436   1.126   2.164  2.4086 -3.1747 -0.9535
 5479TIP3    H216402   4.341   1.058   2.068  1.4964 -1.3101 -1.4266
 5480TIP3   OH216403   3.534   1.130   4.484  0.0382 -0.1558  0.1229
 5480TIP3    H116404   3.551   1.084   4.567  0.1747  0.6453  0.5488
 5480TIP3    H216405   3.537   1.223   4.507 -0.9644  0.0655 -0.5851
 5481TIP3   OH216406   1.341   1.758   3.640 -0.3721  0.4375  0.2155
 5481TIP3    H116407   1.270   1.808   3.599 -1.3392  0.0967  1.3979
 5481TIP3    H216408   1.379   1.706   3.569 -1.2884  0.6637 -0.4526
 5482TIP3   OH216409   2.326   5.410   2.887  0.0568 -0.7745  0.2790
 5482TIP3    H116410   2.316   5.318   2.910  1.2334 -0.6205  1.4978
 5482TIP3    H216411   2.355   5.453   2.967 -0.0441  0.5851 -0.3752
 5483TIP3   OH216412   4.509   2.446   5.344 -0.2750  0.0765 -0.1603
 5483TIP3    H116413   4.570   2.489   5.405 -0.5052  0.9213 -0.5075
 5483TIP3    H216414   4.520   2.353   5.362  0.0611  0.2797  0.7982
 5484TIP3   OH216415   1.345   3.448   1.206  0.4937 -0.0810 -0.0709
 5484TIP3    H116416   1.339   3.544   1.210 -1.0230 -0.1863  0.7067
 5484TIP3    H216417   1.412   3.427   1.272  0.7862  0.4322 -0.1910
 5485TIP3   OH216418   0.920   0.699   0.377  0.3171  0.4490 -0.5658
 5485TIP3    H116419   0.941   0.771   0.436  0.4280 -0.1317  0.1172
 5485TIP3    H216420   1.000   0.685   0.327  0.6902  0.0290  0.1298
 5486TIP3   OH216421   2.410   4.197   1.389 -0.6229 -0.1293  0.7327
 5486TIP3    H116422   2.473   4.200   1.317 -0.7269  1.3164  0.6682
 5486TIP3    H216423   2.432   4.117   1.437 -1.4562 -1.9068 -1.6742
 5487TIP3   OH216424   5.489   1.563   3.715 -0.1951 -0.7087 -0.4857
 5487TIP3    H116425   5.578   1.526   3.711 -0.0675 -0.3010 -2.0782
 5487TIP3    H216426   5.487   1.610   3.798  1.2287 -0.3806 -0.6076
 5488TIP3   OH216427   6.894   4.220   3.040  0.1180  0.1819  0.1691
 5488TIP3    H116428   6.954   4.182   3.104  2.1212 -0.1419 -1.7520
 5488TIP3    H216429   6.945   4.288   2.996 -0.9818  0.0585 -1.4120
 5489TIP3   OH216430   5.210   4.819   2.987 -0.0653  0.1831 -0.9949
 5489TIP3    H116431   5.304   4.835   2.974 -0.1911  0.5026 -1.5240
 5489TIP3    H216432   5.180   4.895   3.039 -0.4698  1.2372 -2.7035
 5490TIP3   OH216433   5.692   3.341   3.359  0.1029  0.0474  0.0426
 5490TIP3    H116434   5.638   3.262   3.367  0.8643 -0.3375  1.7426
 5490TIP3    H216435   5.722   3.340   3.268 -1.0363 -0.8579 -0.3476
 5491TIP3   OH216436   0.867   6.710   3.684 -0.0389  0.0638  0.1781
 5491TIP3    H116437   0.847   6.765   3.760 -4.3079 -0.2128 -0.4887
 5491TIP3    H216438   0.834   6.623   3.708  0.0527 -0.4389 -1.3901
 5492TIP3   OH216439   2.299   0.037   3.219 -0.3938 -0.2266  0.2157
 5492TIP3    H116440   2.288   0.132   3.223  3.2191  0.3065  1.5949
 5492TIP3    H216441   2.345   0.023   3.136 -0.0684 -0.6502  0.4669
 5493TIP3   OH216442   5.036   4.729   0.418 -0.3909  0.2263 -0.2102
 5493TIP3    H116443   5.127   4.742   0.393  0.4724  0.6826  2.7120
 5493TIP3    H216444   4.990   4.713   0.336  2.1475  0.8791 -1.8781
 5494TIP3   OH216445   6.412   2.086   5.640  0.7289 -0.0835 -0.1903
 5494TIP3    H116446   6.375   2.175   5.639  0.6702 -0.0932 -1.6159
 5494TIP3    H216447   6.339   2.030   5.664  0.6219  0.1891  0.1412
 5495TIP3   OH216448   5.675   5.045   5.631 -0.4310 -0.1056  0.6009
 5495TIP3    H116449   5.706   5.116   5.686  2.0712  0.8088 -1.7280
 5495TIP3    H216450   5.591   5.077   5.596  0.0524  1.1828  0.5499
 5496TIP3   OH216451   0.369   4.109   1.141 -0.0577  0.3018 -0.3849
 5496TIP3    H116452   0.281   4.113   1.104 -0.7480  0.1632  1.1865
 5496TIP3    H216453   0.377   4.188   1.193 -0.1332 -0.7633  1.3223
 5497TIP3   OH216454   6.872   5.376   5.513 -0.3893 -0.2817  0.5716
 5497TIP3    H116455   6.859   5.410   5.601 -1.4789  2.5343 -0.5594
 5497TIP3    H216456   6.787   5.339   5.489 -0.1641 -0.8225  0.5893
 5498TIP3   OH216457   3.316   6.744   3.487 -0.4087  0.1613  0.0886
 5498TIP3    H116458   3.340   6.661   3.528  1.4009  0.3895 -0.4345
 5498TIP3    H216459   3.280   6.719   3.402  0.9298 -0.0950 -0.4365
 5499TIP3   OH216460   2.175   1.439   4.659  0.2481 -0.6183  0.4716
 5499TIP3    H116461   2.163   1.531   4.632  2.0925  0.0379  1.6929
 5499TIP3    H216462   2.102   1.422   4.718  0.2654  0.3068  0.7862
 5500TIP3   OH216463   5.749   0.862   4.439  0.3978  0.8414  0.2298
 5500TIP3    H116464   5.821   0.845   4.501  1.4900 -0.3863 -1.2984
 5500TIP3    H216465   5.748   0.958   4.430  1.3600  0.9265  0.8340
 5501TIP3   OH216466   4.986   4.771   1.883  0.2121 -0.4337 -0.3050
 5501TIP3    H116467   5.001   4.727   1.966 -2.0641 -0.6017  0.0614
 5501TIP3    H216468   4.962   4.701   1.822 -1.4767  0.0382 -0.2191
 5502TIP3   OH216469   6.798   0.446   0.718  0.2977  0.2069  0.5540
 5502TIP3    H116470   6.845   0.523   0.751 -0.0604 -0.0953  1.8161
 5502TIP3    H216471   6.837   0.430   0.632  1.3359  0.9737  0.8547
 5503TIP3   OH216472   4.863   2.939   3.436  0.3578 -0.1437 -0.2431
 5503TIP3    H116473   4.786   2.988   3.464  0.3153  0.0512 -0.6984
 5503TIP3    H216474   4.918   2.936   3.514  0.9347  1.7260 -0.5139
 5504TIP3   OH216475   6.135   2.922   5.564  0.0200 -0.3622 -0.0380
 5504TIP3    H116476   6.083   2.859   5.615 -1.5230 -0.6566 -1.8491
 5504TIP3    H216477   6.208   2.870   5.529 -0.7634 -0.9767 -0.8098
 5505TIP3   OH216478   1.948   5.843   4.813  0.1702  0.0810 -0.1240
 5505TIP3    H116479   1.927   5.878   4.900  0.4144  1.0588 -0.4418
 5505TIP3    H216480   2.007   5.909   4.775  1.7776 -1.3369 -0.2306
 5506TIP3   OH216481   0.502   0.425   4.981  0.2621  0.4230  0.0230
 5506TIP3    H116482   0.411   0.456   4.981  0.4899  1.1145  0.0041
 5506TIP3    H216483   0.511   0.376   5.062 -0.1228  0.3724  0.0377
 5507TIP3   OH216484   0.874   2.725   2.539 -0.0215  0.2051  0.2963
 5507TIP3    H116485   0.864   2.668   2.463  2.8867  0.3663 -0.3229
 5507TIP3    H216486   0.882   2.813   2.502  1.4109  0.2878  0.7512
 5508TIP3   OH216487   6.391   4.567   1.333 -0.4948  0.3430 -0.7795
 5508TIP3    H116488   6.307   4.612   1.324 -0.5664  0.3717 -0.0444
 5508TIP3    H216489   6.452   4.618   1.280 -0.5494  1.3991  0.1279
 5509TIP3   OH216490   0.183   3.591   2.158 -0.1471  0.4941  0.5061
 5509TIP3    H116491   0.237   3.638   2.094 -0.7761  0.2247 -0.2328
 5509TIP3    H216492   0.127   3.535   2.106 -2.1807  1.8034  1.1557
 5510TIP3   OH216493   2.387   2.055   5.698 -0.2228 -0.1090  0.3016
 5510TIP3    H116494   2.449   2.071   5.626 -0.5431 -0.0805  0.0281
 5510TIP3    H216495   2.442   2.053   5.776 -0.0646  1.5439  0.2628
 5511TIP3   OH216496   5.223   1.154   2.385 -0.4214  0.3329 -0.3489
 5511TIP3    H116497   5.196   1.245   2.398  0.6173  0.6734 -0.5380
 5511TIP3    H216498   5.317   1.153   2.403 -0.7806 -1.1624  1.8711
 5512TIP3   OH216499   1.764   4.403   2.678 -0.2179  0.2961  0.5079
 5512TIP3    H116500   1.848   4.372   2.711 -0.7481  0.3490  2.0086
 5512TIP3    H216501   1.763   4.378   2.586  1.2966  0.0169  0.5448
 5513TIP3   OH216502   0.537   3.951   4.345 -0.1211  0.3488  0.1215
 5513TIP3    H116503   0.596   3.904   4.403 -0.8177  2.2113  2.5313
 5513TIP3    H216504   0.449   3.921   4.371 -0.4034 -1.0157 -2.1363
 5514TIP3   OH216505   1.051   4.932   1.642  0.4290 -0.2914 -0.1547
 5514TIP3    H116506   0.983   4.928   1.574 -0.3165 -2.6147  0.6404
 5514TIP3    H216507   1.037   5.018   1.684  0.0483  0.6155 -2.0171
 5515TIP3   OH216508   1.527   4.580   3.883 -0.3940  0.7041 -0.1183
 5515TIP3    H116509   1.585   4.505   3.895 -0.8930 -0.1744 -2.5841
 5515TIP3    H216510   1.439   4.546   3.897 -0.5030  1.5236  1.4404
 5516TIP3   OH216511   6.276   0.080   3.773 -0.1691  0.1239 -0.1115
 5516TIP3    H116512   6.208   0.012   3.764  2.1032 -2.2782 -0.2956
 5516TIP3    H216513   6.282   0.118   3.685 -0.6650 -0.2862 -0.3361
 5517TIP3   OH216514   0.799   3.009   2.553  0.7672  0.2694  0.2024
 5517TIP3    H116515   0.802   3.088   2.608  1.7383 -0.9568  2.0183
 5517TIP3    H216516   0.724   2.960   2.586 -0.9765  1.1841 -2.1364
 5518TIP3   OH216517   1.539   4.802   4.601 -0.5006  1.1905 -0.2106
 5518TIP3    H116518   1.469   4.738   4.587 -0.0488  0.2514  1.5463
 5518TIP3    H216519   1.560   4.795   4.694  2.2482  1.1083 -0.7704
 5519TIP3   OH216520   2.015   1.752   0.587 -0.4034  0.2905 -0.3475
 5519TIP3    H116521   1.989   1.756   0.679 -1.2772 -1.0848 -0.5062
 5519TIP3    H216522   1.977   1.831   0.548 -0.2897  0.7214  0.3974
 5520TIP3   OH216523   4.114   6.218   1.381 -0.2237 -0.2156  0.0253
 5520TIP3    H116524   4.135   6.193   1.291 -1.6985  1.3214 -0.7977
 5520TIP3    H216525   4.179   6.286   1.402 -0.7975  0.4918 -0.4461
 5521TIP3   OH216526   6.783   0.759   3.308 -0.5247 -0.4463 -0.2653
 5521TIP3    H116527   6.697   0.780   3.343 -0.0092 -0.8520  1.3404
 5521TIP3    H216528   6.783   0.795   3.219 -1.2207  2.4231  0.8046
 5522TIP3   OH216529   3.606   1.892   3.590  0.1964 -0.7567  0.0128
 5522TIP3    H116530   3.598   1.796   3.592 -0.1525 -0.7312 -0.1460
 5522TIP3    H216531   3.540   1.921   3.527  0.5967 -0.4378 -0.2648
 5523TIP3   OH216532   1.532   2.844   5.144 -0.5317 -0.2752 -0.1151
 5523TIP3    H116533   1.557   2.811   5.230 -1.2100 -0.8762 -0.1412
 5523TIP3    H216534   1.557   2.774   5.083  0.5088  0.3961 -0.4903
 5524TIP3   OH216535   7.192   2.370   5.609 -0.0998 -0.1891 -0.2361
 5524TIP3    H116536   7.219   2.301   5.670 -2.3236 -0.7930  0.1703
 5524TIP3    H216537   7.233   2.345   5.526 -0.1302 -1.5195  0.1133
 5525TIP3   OH216538   3.437   6.054   0.085  0.2168 -0.6396  0.0716
 5525TIP3    H116539   3.393   6.014   0.010 -0.2519  1.3952 -0.8049
 5525TIP3    H216540   3.426   5.991   0.156 -1.2781 -1.6213 -0.9830
 5526TIP3   OH216541   3.649   6.020   1.158  0.6953 -0.0270 -0.7351
 5526TIP3    H116542   3.677   5.947   1.213 -0.7832  0.3406  0.5717
 5526TIP3    H216543   3.553   6.018   1.163  0.4261 -0.3381 -3.8014
 5527TIP3   OH216544   1.227   1.609   3.856  0.6037 -0.4533  0.1966
 5527TIP3    H116545   1.270   1.678   3.806 -2.6825  1.3138 -0.4965
 5527TIP3    H216546   1.217   1.645   3.944 -0.8197 -0.0945 -0.0789
 5528TIP3   OH216547   1.691   5.791   4.132  0.6350 -0.2230 -0.1895
 5528TIP3    H116548   1.712   5.698   4.133  2.4061  0.1303 -0.4136
 5528TIP3    H216549   1.614   5.798   4.075  2.7773 -1.1712 -3.4945
 5529TIP3   OH216550   1.612   2.983   0.936 -0.5474 -0.0715 -0.5750
 5529TIP3    H116551   1.624   2.981   0.841 -3.1199 -1.9466 -0.9892
 5529TIP3    H216552   1.670   2.916   0.970 -2.3387 -2.1129 -1.3470
 5530TIP3   OH216553   4.580   2.094   3.448 -0.2569 -0.1478  0.0575
 5530TIP3    H116554   4.666   2.103   3.407 -0.3121 -2.2813 -0.6561
 5530TIP3    H216555   4.520   2.142   3.389  0.3387  0.8892  0.2720
 5531TIP3   OH216556   1.826   5.890   4.347  0.4014 -0.2375 -0.2256
 5531TIP3    H116557   1.785   5.860   4.266 -1.3660 -0.8288  0.8288
 5531TIP3    H216558   1.911   5.846   4.348 -0.5026 -2.1017 -0.6592
 5532TIP3   OH216559   6.499   3.801   1.259 -0.0414 -0.0573 -0.1672
 5532TIP3    H116560   6.406   3.823   1.263 -0.2782 -0.8037 -1.2307
 5532TIP3    H216561   6.519   3.766   1.346 -1.1815 -1.4204 -0.4134
 5533TIP3   OH216562   2.541   0.492   5.628 -0.6956  0.1399 -0.4520
 5533TIP3    H116563   2.521   0.400   5.610  0.3373 -0.2306  0.2103
 5533TIP3    H216564   2.457   0.537   5.616 -1.4326 -1.0219  0.1343
 5534TIP3   OH216565   0.334   4.057   4.023  0.0471 -0.3031 -0.2343
 5534TIP3    H116566   0.370   4.116   4.090  0.6057 -0.9259  0.0234
 5534TIP3    H216567   0.369   4.090   3.940  1.2964 -0.9512  0.0214
 5535TIP3   OH216568   5.408   3.120   4.301  0.3348 -0.3728  0.1089
 5535TIP3    H116569   5.368   3.169   4.228  0.5033  0.8843  0.8332
 5535TIP3    H216570   5.481   3.174   4.329  0.0039 -0.6015  1.5091
 5536TIP3   OH216571   2.968   2.414   1.999  0.2245  0.2235  0.0460
 5536TIP3    H116572   2.877   2.390   1.982  0.1094  0.1572  0.7206
 5536TIP3    H216573   2.965   2.506   2.026  0.6038  0.8683 -1.9646
 5537TIP3   OH216574   1.614   2.675   1.990 -0.0021  0.1471  0.2841
 5537TIP3    H116575   1.609   2.588   2.029  0.6141 -0.4922 -1.0110
 5537TIP3    H216576   1.564   2.731   2.049  2.4167 -0.3671  3.0606
 5538TIP3   OH216577   4.421   1.247   4.038  0.3537  0.3082 -0.0250
 5538TIP3    H116578   4.511   1.257   4.007  0.0909 -0.4554 -1.0872
 5538TIP3    H216579   4.367   1.279   3.966 -0.2440  0.0307  0.2924
 5539TIP3   OH216580   2.105   1.541   3.706 -0.0607 -0.5000 -0.3229
 5539TIP3    H116581   2.177   1.582   3.754 -1.1709 -0.4781  1.3827
 5539TIP3    H216582   2.083   1.463   3.757 -2.8494  0.7748  0.5996
 5540TIP3   OH216583   4.768   5.620   1.657  0.1009 -0.2772 -1.1941
 5540TIP3    H116584   4.767   5.635   1.752  0.6938 -0.0037 -1.2231
 5540TIP3    H216585   4.743   5.705   1.619 -1.9135 -0.8497 -1.2630
 5541TIP3   OH216586   1.063   0.951   3.298  0.6406  0.2397  0.0615
 5541TIP3    H116587   1.038   1.043   3.303 -0.5387 -0.0589 -0.0638
 5541TIP3    H216588   1.031   0.912   3.379  1.3896 -0.0099  0.2469
 5542TIP3   OH216589   7.019   1.541   5.108  0.5272 -0.1560 -0.0341
 5542TIP3    H116590   7.020   1.635   5.092 -2.2325  0.1068  0.8568
 5542TIP3    H216591   6.956   1.506   5.045 -1.2351 -0.8167  1.9700
 5543TIP3   OH216592   1.870   3.732   1.495 -0.3683 -0.1592 -0.5742
 5543TIP3    H116593   1.799   3.702   1.553 -4.1163 -1.5900 -5.2587
 5543TIP3    H216594   1.880   3.825   1.517 -0.3729 -0.8681  3.1933
 5544TIP3   OH216595   1.161   2.090   1.479 -0.1098  0.0398  0.5748
 5544TIP3    H116596   1.162   1.994   1.478  0.2425  0.0263  1.3259
 5544TIP3    H216597   1.158   2.115   1.387 -0.7209 -0.6951  0.3795
 5545TIP3   OH216598   4.620   6.047   1.333 -0.1296 -0.0636 -0.5407
 5545TIP3    H116599   4.679   6.011   1.399  0.1859 -1.3679 -1.4929
 5545TIP3    H216600   4.546   6.082   1.383  1.3899  1.5805  0.6651
 5546TIP3   OH216601   6.937   1.186   0.298 -0.0500  0.6838 -0.8735
 5546TIP3    H116602   6.967   1.256   0.356  0.2364  0.3955 -0.6739
 5546TIP3    H216603   6.921   1.111   0.356 -1.6407  0.9686 -0.8950
 5547TIP3   OH216604   5.529   0.453   0.815 -0.3994  0.5626  0.3471
 5547TIP3    H116605   5.471   0.469   0.741  1.2512  3.1959 -0.5147
 5547TIP3    H216606   5.611   0.425   0.775 -0.6130 -1.9015  1.4760
 5548TIP3   OH216607   4.707   6.696   5.116 -0.2963 -0.7272 -0.2475
 5548TIP3    H116608   4.654   6.618   5.134  0.5459 -1.2211  0.2001
 5548TIP3    H216609   4.699   6.749   5.195 -1.0791 -0.2349 -0.6567
 5549TIP3   OH216610   1.892   6.467   0.304 -0.4201  0.3494 -0.6664
 5549TIP3    H116611   1.951   6.485   0.378 -0.9910  1.2944 -0.4243
 5549TIP3    H216612   1.820   6.529   0.315 -2.2093 -1.7093 -0.1505
 5550TIP3   OH216613   6.709   5.464   5.753  0.6010  0.0192 -0.3281
 5550TIP3    H116614   6.738   5.555   5.760 -1.0373  0.4640  1.7265
 5550TIP3    H216615   6.621   5.471   5.716  0.6118 -0.7729 -0.5160
 5551TIP3   OH216616   1.133   1.352   5.235 -0.6326  0.3377 -0.0294
 5551TIP3    H116617   1.078   1.426   5.213 -0.8641  0.7492  1.8207
 5551TIP3    H216618   1.220   1.389   5.247 -0.6904  0.2654  0.6232
 5552TIP3   OH216619   5.080   4.599   5.587 -0.2165  0.2050 -1.0750
 5552TIP3    H116620   5.002   4.590   5.532  0.1388  0.4620 -1.6422
 5552TIP3    H216621   5.066   4.680   5.636 -1.8482 -1.4915  1.4304
 5553TIP3   OH216622   0.184   2.741   5.262  0.5671  0.0390 -0.1574
 5553TIP3    H116623   0.224   2.756   5.347 -0.4307  0.1963  0.2978
 5553TIP3    H216624   0.153   2.651   5.265  0.0883  0.2003 -0.1598
 5554TIP3   OH216625   5.447   5.062   1.932 -0.3902  0.1898  0.3452
 5554TIP3    H116626   5.448   5.080   1.838  0.7837 -0.5355  0.1938
 5554TIP3    H216627   5.431   5.147   1.972 -1.1348  0.4740 -0.5089
 5555TIP3   OH216628   3.674   6.629   0.086  0.0311 -0.0460  0.3013
 5555TIP3    H116629   3.689   6.722   0.105 -0.1393  0.1353 -0.4280
 5555TIP3    H216630   3.704   6.618  -0.004 -0.7352 -0.5128  0.0936
 5556TIP3   OH216631   2.695   2.477   0.594  0.0131  0.2779 -0.5276
 5556TIP3    H116632   2.621   2.434   0.637  0.5482 -0.5600 -0.4340
 5556TIP3    H216633   2.659   2.562   0.566 -0.2147  1.1744  2.1101
 5557TIP3   OH216634   6.184   1.297   0.497  0.8335  0.2342  0.4597
 5557TIP3    H116635   6.278   1.297   0.475  0.5376  0.0472 -0.8859
 5557TIP3    H216636   6.176   1.229   0.565  1.7239  0.5223  0.8726
 5558TIP3   OH216637   1.179   6.552   2.779 -0.2414 -0.1480 -0.0310
 5558TIP3    H116638   1.168   6.647   2.773 -0.5794 -0.2308 -0.9030
 5558TIP3    H216639   1.271   6.540   2.800 -0.5913  0.4142  2.0286
 5559TIP3   OH216640   5.649   2.298   4.428 -0.1235  0.3282 -0.1473
 5559TIP3    H116641   5.581   2.352   4.469 -0.0840  0.2175  0.0638
 5559TIP3    H216642   5.614   2.279   4.341  0.0108  0.9763 -0.3525
 5560TIP3   OH216643   2.745   0.140   1.482  0.0433  0.3411 -0.3543
 5560TIP3    H116644   2.792   0.109   1.404  2.7389  1.8790  0.5485
 5560TIP3    H216645   2.770   0.078   1.551 -1.2915 -0.2501 -0.3667
 5561TIP3   OH216646   0.965   6.562   3.939 -0.9995  0.1470 -0.4801
 5561TIP3    H116647   1.035   6.607   3.892 -1.5810  0.6237 -0.9236
 5561TIP3    H216648   1.003   6.536   4.022 -0.6853  1.6450 -0.1256
 5562TIP3   OH216649   0.038   3.458   0.858  0.4282 -1.0121 -0.3653
 5562TIP3    H116650   0.032   3.535   0.801 -0.1561 -0.8570 -0.1052
 5562TIP3    H216651   0.024   3.383   0.801  2.3393 -1.0316 -0.8732
 5563TIP3   OH216652   4.088   2.654   0.917  0.2048 -0.1983  0.4406
 5563TIP3    H116653   4.072   2.573   0.966 -0.3413 -1.2191 -1.3383
 5563TIP3    H216654   4.097   2.626   0.826 -0.1020  1.7730 -0.2460
 5564TIP3   OH216655   2.803   5.375   1.399 -0.3849 -0.3152  0.2326
 5564TIP3    H116656   2.716   5.412   1.417 -0.3558 -0.7593  1.3671
 5564TIP3    H216657   2.807   5.369   1.304 -1.2176  0.6127  0.1222
 5565TIP3   OH216658   3.966   4.386   3.798  0.1247 -0.0607 -0.2032
 5565TIP3    H116659   3.939   4.468   3.757 -1.0537 -0.2500  0.1366
 5565TIP3    H216660   3.987   4.410   3.888  2.8731  0.3831 -0.8797
 5566TIP3   OH216661   1.908   4.872   3.211 -0.1053  0.1649 -0.2646
 5566TIP3    H116662   1.914   4.853   3.117 -0.1367 -2.5371  0.1942
 5566TIP3    H216663   1.947   4.795   3.253 -0.9387  0.8864  1.9508
 5567TIP3   OH216664   5.322   6.223   3.742 -0.3750  0.8551 -0.3555
 5567TIP3    H116665   5.370   6.293   3.786  0.5293 -0.1042  0.2307
 5567TIP3    H216666   5.291   6.167   3.812  0.2252 -0.1527 -0.8718
 5568TIP3   OH216667   1.259   2.101   5.126  0.2615  0.0731 -0.2863
 5568TIP3    H116668   1.241   2.114   5.033 -1.1529  0.9424  0.0733
 5568TIP3    H216669   1.253   2.189   5.164  3.8008  0.2453  0.1970
 5569TIP3   OH216670   5.786   2.013   1.491  0.1453 -0.8816 -0.9780
 5569TIP3    H116671   5.769   2.105   1.471  2.5438 -0.1861 -0.1768
 5569TIP3    H216672   5.881   2.004   1.482  0.6275 -2.1096  3.2646
 5570TIP3   OH216673   4.289   1.090   2.369 -0.1611  0.3422  0.2112
 5570TIP3    H116674   4.250   1.003   2.380  0.3401  0.0869 -0.0028
 5570TIP3    H216675   4.214   1.149   2.361 -0.5039 -0.1740 -0.4673
 5571TIP3   OH216676   3.303   6.395   3.007  0.0142 -0.3047  0.5011
 5571TIP3    H116677   3.335   6.397   2.917 -0.3554  1.9112  0.3685
 5571TIP3    H216678   3.249   6.316   3.012  1.1109 -1.1713 -0.8144
 5572TIP3   OH216679   3.162   6.074   5.390 -0.2395 -0.1516  0.1698
 5572TIP3    H116680   3.168   6.026   5.308 -0.1846 -0.1862  0.1936
 5572TIP3    H216681   3.213   6.022   5.452 -0.8813 -0.4974  0.4066
 5573TIP3   OH216682   6.089   4.415   4.446 -0.1771  0.1929 -0.2247
 5573TIP3    H116683   6.147   4.479   4.487 -0.2281 -0.2054  0.4910
 5573TIP3    H216684   6.041   4.465   4.380 -0.6863  1.0559  0.7539
 5574TIP3   OH216685   6.300   2.176   5.330 -0.0011  0.1133  0.1659
 5574TIP3    H116686   6.245   2.201   5.256  1.8359  1.3486 -0.8761
 5574TIP3    H216687   6.370   2.123   5.291 -0.5943 -1.7313  1.5024
 5575TIP3   OH216688   1.254   3.347   4.072  0.3028 -0.3936  0.2072
 5575TIP3    H116689   1.186   3.393   4.023  0.6733  0.9733  0.9258
 5575TIP3    H216690   1.228   3.354   4.163  1.8161  0.9485  0.5856
 5576TIP3   OH216691   2.929   0.562   2.445  0.2142  0.2183 -0.3532
 5576TIP3    H116692   2.927   0.576   2.350 -1.0019  0.0375 -0.3767
 5576TIP3    H216693   2.956   0.647   2.481 -0.4659  0.6499 -0.8170
 5577TIP3   OH216694   0.384   2.061   5.109 -0.4260 -0.0571 -0.5762
 5577TIP3    H116695   0.392   1.993   5.176 -0.7341 -0.5935 -1.0819
 5577TIP3    H216696   0.474   2.090   5.094 -0.2224 -0.8083 -0.8292
 5578TIP3   OH216697   5.997   5.291   2.705 -0.4240  0.2684 -0.5083
 5578TIP3    H116698   5.920   5.248   2.668  1.1672 -2.3361 -1.0295
 5578TIP3    H216699   6.030   5.230   2.770  2.5744  0.0742 -2.0188
 5579TIP3   OH216700   1.936   1.770   0.096  0.0486  0.0502 -0.2657
 5579TIP3    H116701   1.957   1.862   0.115 -1.3183  0.4057 -0.4037
 5579TIP3    H216702   1.920   1.731   0.182 -0.7166  0.2887 -0.2952
 5580TIP3   OH216703   0.039   6.319   5.498  0.0263  0.0920  0.1160
 5580TIP3    H116704   0.039   6.336   5.592  0.2294  0.2794  0.0832
 5580TIP3    H216705   0.131   6.322   5.472 -0.0460  0.2777 -0.1291
 5581TIP3   OH216706   4.070   3.708   0.271  0.3872  0.2868 -0.1691
 5581TIP3    H116707   4.048   3.789   0.224  1.0284  0.1219 -0.7724
 5581TIP3    H216708   4.066   3.732   0.363 -0.9159  0.6177 -0.2895
 5582TIP3   OH216709   0.477   0.126   3.412 -0.3699 -0.3965  0.1268
 5582TIP3    H116710   0.428   0.081   3.343  0.8344  0.1475 -1.1359
 5582TIP3    H216711   0.498   0.212   3.376 -0.7657  0.3925  1.6716
 5583TIP3   OH216712   2.208   5.281   1.385 -0.6792  0.4880  0.1181
 5583TIP3    H116713   2.271   5.250   1.450 -1.2187 -1.1581 -0.0907
 5583TIP3    H216714   2.192   5.373   1.408  1.4436  0.8249  0.4252
 5584TIP3   OH216715   3.624   2.502   5.167  0.3830 -0.3945 -0.2086
 5584TIP3    H116716   3.691   2.570   5.155  3.3277 -3.1449 -0.8019
 5584TIP3    H216717   3.585   2.490   5.081  1.1750 -0.6484 -0.5449
 5585TIP3   OH216718   1.721   4.769   5.527  0.2321  0.3063 -0.2255
 5585TIP3    H116719   1.813   4.767   5.553 -0.0866  0.3507  0.9776
 5585TIP3    H216720   1.714   4.704   5.457  1.1018  0.0313 -0.0651
 5586TIP3   OH216721   0.279   1.128   3.745  0.2570 -0.2638  0.0355
 5586TIP3    H116722   0.220   1.157   3.675  0.2839 -0.8099 -0.2172
 5586TIP3    H216723   0.281   1.202   3.807  1.0580  0.6466 -1.0497
 5587TIP3   OH216724   5.682   2.903   1.858  0.1700  0.0510  0.3152
 5587TIP3    H116725   5.770   2.904   1.896  0.4469 -0.5568 -0.2850
 5587TIP3    H216726   5.667   2.993   1.831 -0.1008  0.5366  1.9873
 5588TIP3   OH216727   3.906   6.529   4.716 -0.7368 -0.6258 -0.8448
 5588TIP3    H116728   3.813   6.507   4.708 -0.7885 -1.0248  0.5460
 5588TIP3    H216729   3.907   6.621   4.744 -0.6945 -0.5606 -1.0533
 5589TIP3   OH216730   2.221   5.274   4.473  0.3574 -0.0293  0.0706
 5589TIP3    H116731   2.188   5.216   4.542 -0.1841  0.0278 -0.1426
 5589TIP3    H216732   2.223   5.361   4.513 -2.5239  0.5146 -0.7733
 5590TIP3   OH216733   2.443   2.787   5.316  0.1637 -0.0298  0.0868
 5590TIP3    H116734   2.393   2.759   5.393 -1.4369  0.0015 -0.8975
 5590TIP3    H216735   2.448   2.709   5.261  2.6653 -0.4893  0.8577
 5591TIP3   OH216736   3.671   4.507   5.802  0.0253  0.1676 -0.5266
 5591TIP3    H116737   3.586   4.537   5.836 -0.0335  1.2693 -1.6033
 5591TIP3    H216738   3.722   4.488   5.881 -0.8366  0.5750  0.1498
 5592TIP3   OH216739   0.290   1.571   4.136 -0.3125 -0.7425 -0.2172
 5592TIP3    H116740   0.234   1.564   4.058 -0.5095  1.2804 -0.2908
 5592TIP3    H216741   0.229   1.586   4.208 -0.0125 -1.0566  0.1087
 5593TIP3   OH216742   3.330   6.605   4.946 -0.0813 -0.6311  0.0615
 5593TIP3    H116743   3.264   6.598   5.015  0.5614 -0.7000  0.6754
 5593TIP3    H216744   3.410   6.631   4.991 -0.0055  0.8591 -0.8517
 5594TIP3   OH216745   1.095   5.341   0.422  0.0160  0.2314  0.5433
 5594TIP3    H116746   1.020   5.290   0.390  1.4734 -0.7768 -1.5526
 5594TIP3    H216747   1.164   5.275   0.434  0.8109  1.2390  1.5955
 5595TIP3   OH216748   2.307   2.720   3.877 -0.0084  0.0472  0.5885
 5595TIP3    H116749   2.219   2.744   3.906 -0.6734 -0.3527 -1.0201
 5595TIP3    H216750   2.336   2.795   3.825 -0.2926 -0.7027 -0.6851
 5596TIP3   OH216751   4.304   5.651   2.840  0.0127 -0.3190  0.5048
 5596TIP3    H116752   4.275   5.708   2.911  0.3959 -0.8488  1.1045
 5596TIP3    H216753   4.399   5.659   2.841  0.2205 -2.2548  1.7514
 5597TIP3   OH216754   4.222   0.475   2.853 -0.3110  0.2878  0.4600
 5597TIP3    H116755   4.306   0.494   2.813  0.4418 -1.3419  1.1863
 5597TIP3    H216756   4.243   0.435   2.938 -1.7180 -1.7917 -0.0785
 5598TIP3   OH216757   4.455   5.493   3.153 -0.4030  0.2443 -0.2164
 5598TIP3    H116758   4.503   5.569   3.120  0.9143 -0.5940 -0.3138
 5598TIP3    H216759   4.403   5.463   3.079 -1.1964  1.2337 -0.0767
 5599TIP3   OH216760   5.942   2.363   0.544 -0.8427  0.2137 -0.2566
 5599TIP3    H116761   6.005   2.424   0.582 -2.1514  1.6092 -0.2376
 5599TIP3    H216762   5.859   2.410   0.545 -1.9457 -1.6232 -0.1324
 5600TIP3   OH216763   7.122   5.664   4.635 -0.2941  0.0621 -0.0958
 5600TIP3    H116764   7.078   5.712   4.564 -1.2697 -0.3525  0.2053
 5600TIP3    H216765   7.151   5.732   4.695 -0.1446  0.3742 -0.5125
 5601TIP3   OH216766   1.937   1.333   1.189 -0.2303  0.4499 -0.3730
 5601TIP3    H116767   1.939   1.248   1.234  0.3582 -0.4970 -2.0998
 5601TIP3    H216768   1.960   1.396   1.257 -1.2201 -0.6826  1.0890
 5602TIP3   OH216769   0.403   3.697   2.353 -0.1293 -0.5619 -0.2675
 5602TIP3    H116770   0.337   3.712   2.286 -0.1860  0.5116  0.0078
 5602TIP3    H216771   0.363   3.728   2.434  0.0617 -1.5423  0.2144
 5603TIP3   OH216772   4.572   3.349   3.706 -0.3502 -0.1417 -0.8141
 5603TIP3    H116773   4.626   3.350   3.785  0.2853  1.0209 -1.2438
 5603TIP3    H216774   4.482   3.344   3.739 -0.0374 -1.7720 -0.0829
 5604TIP3   OH216775   0.162   1.581   2.014  0.3159  0.1705  0.4084
 5604TIP3    H116776   0.171   1.598   1.920 -0.5623  0.8988  0.4421
 5604TIP3    H216777   0.109   1.501   2.018  0.6430 -0.0548  0.2829
 5605TIP3   OH216778   1.824   0.494   5.459  0.1976 -0.6908 -0.1650
 5605TIP3    H116779   1.740   0.451   5.442  0.1704 -0.5457 -0.4047
 5605TIP3    H216780   1.814   0.582   5.421  0.9421 -1.1348 -1.4421
 5606TIP3   OH216781   1.513   3.301   0.786  0.6100 -0.1985 -0.0819
 5606TIP3    H116782   1.494   3.384   0.831  1.2435 -0.0911 -0.0121
 5606TIP3    H216783   1.438   3.245   0.808 -1.0251  1.1008 -2.0348
 5607TIP3   OH216784   1.631   3.966   5.106  0.1691 -0.7856  0.0846
 5607TIP3    H116785   1.632   3.956   5.201 -1.5739  1.0997  0.3853
 5607TIP3    H216786   1.688   4.042   5.089 -0.0688 -0.6875 -0.2924
 5608TIP3   OH216787   3.111   0.788   5.863  0.0019 -0.3363  0.1378
 5608TIP3    H116788   3.198   0.819   5.838  1.1990 -3.4386 -0.0472
 5608TIP3    H216789   3.055   0.811   5.789  0.4483  2.1689  0.4787
 5609TIP3   OH216790   5.057   3.089   1.605 -0.1481 -0.1061 -0.4567
 5609TIP3    H116791   5.097   3.006   1.629 -0.7632 -0.5814 -1.0085
 5609TIP3    H216792   5.120   3.131   1.546 -0.1408 -0.5068 -0.7342
 5610TIP3   OH216793   4.234   6.139   2.222 -0.3164  0.0208 -0.2295
 5610TIP3    H116794   4.177   6.094   2.285 -0.2475  0.2781  0.0175
 5610TIP3    H216795   4.176   6.163   2.150 -0.7023  1.0287  0.3955
 5611TIP3   OH216796   6.912   6.276   2.150 -0.3344 -0.4899  0.3061
 5611TIP3    H116797   6.863   6.358   2.148 -0.4730 -0.5769  0.0750
 5611TIP3    H216798   6.984   6.290   2.088 -0.4487 -0.5969  0.1471
 5612TIP3   OH216799   0.938   5.662   2.551  0.2817 -0.1457 -0.2259
 5612TIP3    H116800   0.895   5.705   2.476 -0.9492 -0.3916  0.3147
 5612TIP3    H216801   1.018   5.713   2.565  0.3802  0.0936 -1.5096
 5613TIP3   OH216802   0.914   4.310   2.834  0.4213  0.2992 -0.0629
 5613TIP3    H116803   1.006   4.298   2.855  0.1987  0.8945  1.3323
 5613TIP3    H216804   0.869   4.237   2.876  0.2842 -0.2687 -1.1510
 5614TIP3   OH216805   3.265   4.773   0.235 -0.3194  0.3844 -0.5067
 5614TIP3    H116806   3.184   4.812   0.202  0.5704  2.4732 -0.3644
 5614TIP3    H216807   3.311   4.744   0.156 -0.6757  0.2591 -0.6723
 5615TIP3   OH216808   4.308   6.426   1.412 -0.6757  0.3623 -0.2957
 5615TIP3    H116809   4.277   6.507   1.372 -2.5867 -0.2746 -0.1893
 5615TIP3    H216810   4.373   6.454   1.477  0.9936  1.5547 -2.3668
 5616TIP3   OH216811   0.967   1.445   1.344  0.3503  0.1211 -0.0578
 5616TIP3    H116812   0.938   1.393   1.419 -1.6099 -1.3791 -1.7576
 5616TIP3    H216813   1.029   1.508   1.381 -0.6130 -0.4905  2.8213
 5617TIP3   OH216814   0.276   1.421   3.241 -0.9148 -0.2898  0.1366
 5617TIP3    H116815   0.270   1.515   3.261  0.0413 -0.1320 -0.2361
 5617TIP3    H216816   0.302   1.381   3.324  1.0123  0.0969 -0.2356
 5618TIP3   OH216817   4.203   2.046   3.194 -0.1242 -0.1273  0.2825
 5618TIP3    H116818   4.133   1.982   3.180 -2.1370  1.5399  2.1414
 5618TIP3    H216819   4.213   2.051   3.289  1.5253  0.7171  0.0914
 5619TIP3   OH216820   1.974   6.280   4.928 -0.6210 -0.1758  0.0903
 5619TIP3    H116821   2.051   6.231   4.958 -0.9441 -1.4683 -1.0761
 5619TIP3    H216822   1.953   6.339   5.000  1.5032  0.2721  0.4099
 5620TIP3   OH216823   6.069   2.683   3.226  0.1269 -0.3107  0.1641
 5620TIP3    H116824   6.091   2.703   3.135 -1.1864 -0.1951 -0.1498
 5620TIP3    H216825   6.153   2.665   3.268  0.6623 -1.3796 -1.3014
 5621TIP3   OH216826   1.909   0.574   1.186 -0.0849  0.1350 -0.3799
 5621TIP3    H116827   1.818   0.592   1.161  0.0775 -0.2050 -1.2262
 5621TIP3    H216828   1.902   0.514   1.260 -0.5392 -0.2771 -0.7561
 5622TIP3   OH216829   4.152   5.339   2.642  0.0802  0.5139 -0.1123
 5622TIP3    H116830   4.207   5.360   2.566  0.7619 -1.3524 -0.1997
 5622TIP3    H216831   4.111   5.256   2.619  1.9758 -1.2747  2.3469
 5623TIP3   OH216832   1.722   3.217   3.990  0.2460 -0.0904  0.0228
 5623TIP3    H116833   1.628   3.216   3.971  0.1436  0.1588  0.4885
 5623TIP3    H216834   1.761   3.157   3.927 -0.2532 -0.3424 -0.0442
 5624TIP3   OH216835   2.245   3.091   0.508 -0.3387  0.7145  0.6817
 5624TIP3    H116836   2.329   3.069   0.467 -0.4268 -1.4041  1.5056
 5624TIP3    H216837   2.241   3.187   0.505  0.4059  0.7774 -2.6586
 5625TIP3   OH216838   2.194   2.888   1.621 -0.7963  0.4299  0.1405
 5625TIP3    H116839   2.227   2.805   1.656 -0.0084  0.8737  0.4907
 5625TIP3    H216840   2.212   2.883   1.527 -0.4965  0.3125  0.2007
 5626TIP3   OH216841   0.651   5.608   4.949 -0.8397  0.0665 -0.2973
 5626TIP3    H116842   0.573   5.610   5.004 -0.6127  1.5166  0.0080
 5626TIP3    H216843   0.722   5.637   5.007 -0.1985 -0.5182 -0.7705
 5627TIP3   OH216844   7.202   5.038   5.555  0.1952  0.0915 -0.0653
 5627TIP3    H116845   7.222   4.945   5.560 -0.5373 -0.0899 -0.3311
 5627TIP3    H216846   7.184   5.053   5.462 -0.6479  0.2875  0.1264
 5628TIP3   OH216847   1.318   1.032   4.235  0.2792 -0.2166  0.3035
 5628TIP3    H116848   1.317   1.039   4.139 -0.5839  0.2672  0.3383
 5628TIP3    H216849   1.295   1.120   4.266  0.0259 -0.5019  0.9464
 5629TIP3   OH216850   3.951   0.048   5.734 -0.6299  0.1411 -0.6243
 5629TIP3    H116851   3.963   0.107   5.659  1.6239  1.5994  0.7660
 5629TIP3    H216852   3.933   0.107   5.808  0.9965 -0.9082  0.6775
 5630TIP3   OH216853   5.517   0.254   4.762 -0.2331 -0.3380  0.9189
 5630TIP3    H116854   5.608   0.241   4.790 -0.2665 -0.6355  0.8916
 5630TIP3    H216855   5.524   0.296   4.676 -0.0937 -1.8683  0.1520
 5631TIP3   OH216856   3.125   0.045   4.647  0.0420 -0.3379 -0.7640
 5631TIP3    H116857   3.187   0.034   4.720 -0.6099  0.0940 -0.1334
 5631TIP3    H216858   3.056  -0.019   4.664 -0.4611  0.2325 -0.6244
 5632TIP3   OH216859   6.053   5.435   2.393 -0.1686 -0.9121  0.0912
 5632TIP3    H116860   6.135   5.434   2.441 -0.9663  0.1524  1.5359
 5632TIP3    H216861   6.049   5.349   2.351  2.0858 -0.6537 -0.7723
 5633TIP3   OH216862   5.237   1.229   1.740  0.4509  0.9666  0.2886
 5633TIP3    H116863   5.315   1.182   1.710 -0.5714  0.1243 -1.1807
 5633TIP3    H216864   5.240   1.221   1.836  0.7623 -1.4286  0.1410
 5634TIP3   OH216865   2.014   4.419   3.263  0.7195 -0.1815  0.1348
 5634TIP3    H116866   2.038   4.400   3.173  0.1676  0.2980 -0.1218
 5634TIP3    H216867   2.055   4.503   3.282  0.3379  0.0103  0.1255
 5635TIP3   OH216868   2.054   0.110   0.822  0.0237 -0.6393  0.3395
 5635TIP3    H116869   2.021   0.101   0.912  0.3728  1.3642  0.7183
 5635TIP3    H216870   2.143   0.076   0.825  0.1951 -0.1547  0.8827
 5636TIP3   OH216871   1.203   2.545   3.669  0.1681 -0.7139  0.0889
 5636TIP3    H116872   1.182   2.465   3.717 -3.2539 -0.2007 -0.3205
 5636TIP3    H216873   1.194   2.520   3.577  0.8329 -0.2665 -0.1032
 5637TIP3   OH216874   0.315   0.082   4.914 -0.0633  0.2869  0.1013
 5637TIP3    H116875   0.223   0.072   4.938 -0.6416  1.4921 -1.4256
 5637TIP3    H216876   0.322   0.043   4.827  0.5556  1.3339 -0.3451
 5638TIP3   OH216877   1.901   2.517   4.869  0.2164  0.1617  0.8956
 5638TIP3    H116878   1.878   2.484   4.956 -1.0337 -1.0291  0.1595
 5638TIP3    H216879   1.989   2.484   4.853  0.0490 -0.5058  1.2988
 5639TIP3   OH216880   3.379   6.496   1.936  0.1439  0.4785 -0.2521
 5639TIP3    H116881   3.334   6.580   1.937  2.6289  1.8941 -0.5280
 5639TIP3    H216882   3.373   6.464   2.026  0.2118  1.5446  0.1341
 5640TIP3   OH216883   3.594   6.325   3.453  0.3421 -0.3578  0.4167
 5640TIP3    H116884   3.632   6.303   3.539 -1.5331 -1.1410  1.0841
 5640TIP3    H216885   3.511   6.367   3.474  0.5265  0.7962 -1.0307
 5641TIP3   OH216886   3.833   4.520   3.206 -0.1356  0.4262  0.3303
 5641TIP3    H116887   3.830   4.477   3.291  1.6734 -1.8825 -0.6384
 5641TIP3    H216888   3.766   4.477   3.154 -0.3435  0.8919  0.2097
 5642TIP3   OH216889   5.381   5.102   5.505  0.3115  0.0493  0.7540
 5642TIP3    H116890   5.387   5.008   5.519  1.1007  0.1925  1.4326
 5642TIP3    H216891   5.287   5.122   5.510  0.3043 -0.3703  2.7900
 5643TIP3   OH216892   1.791   2.088   2.714 -0.2467  0.2347 -0.3417
 5643TIP3    H116893   1.710   2.133   2.740  0.2297  0.1202  1.4261
 5643TIP3    H216894   1.760   2.011   2.666 -1.1792  0.4008 -0.0409
 5644TIP3   OH216895   2.311   5.880   2.774 -0.1215  0.6962 -0.2060
 5644TIP3    H116896   2.338   5.966   2.742 -0.0319  1.7081  2.3161
 5644TIP3    H216897   2.323   5.821   2.700  2.8037  2.2889 -1.1534
 5645TIP3   OH216898   5.958   1.748   3.167  0.2855  0.1878 -0.0554
 5645TIP3    H116899   5.966   1.680   3.100  1.0220  0.1334  0.0751
 5645TIP3    H216900   5.864   1.767   3.171  0.2944  0.8477 -1.7756
 5646TIP3   OH216901   1.568   1.436   0.830 -0.0529  0.4879 -0.6438
 5646TIP3    H116902   1.595   1.524   0.803 -0.7672  0.8259 -0.2883
 5646TIP3    H216903   1.612   1.377   0.769  0.8315  1.0608 -0.5737
 5647TIP3   OH216904   6.798   2.552   2.542 -0.1976  0.3045 -0.2915
 5647TIP3    H116905   6.861   2.574   2.611 -0.5360  0.2711  0.0290
 5647TIP3    H216906   6.834   2.473   2.502  0.0067  0.3296 -0.1591
 5648TIP3   OH216907   1.954   0.846   1.987 -0.1765  0.0696  0.3198
 5648TIP3    H116908   2.025   0.847   2.052  0.1557  0.6513 -0.0421
 5648TIP3    H216909   1.963   0.930   1.942 -0.0238 -0.5815 -0.8846
 5649TIP3   OH216910   5.825   4.320   4.473 -0.3880  0.4581  0.2920
 5649TIP3    H116911   5.871   4.334   4.390 -1.1974 -0.7277 -0.3893
 5649TIP3    H216912   5.889   4.277   4.529 -0.8327 -2.0224 -0.9520
 5650TIP3   OH216913   2.474   2.570   3.482  0.1500 -0.5051 -1.4017
 5650TIP3    H116914   2.392   2.617   3.463 -0.6825 -1.1529  0.3157
 5650TIP3    H216915   2.535   2.600   3.415 -1.1849  0.8132 -2.0950
 5651TIP3   OH216916   2.963   5.781   3.502  0.1113 -0.2611  0.1773
 5651TIP3    H116917   3.035   5.719   3.497  0.2683 -0.0045 -1.1413
 5651TIP3    H216918   2.905   5.745   3.569  0.6112 -1.3793  0.0337
 5652TIP3   OH216919   4.651   0.148   5.701  0.1576 -0.3594 -0.2557
 5652TIP3    H116920   4.623   0.056   5.708  2.5553 -1.0856  0.6126
 5652TIP3    H216921   4.665   0.161   5.607 -0.5557 -0.7561 -0.4281
 5653TIP3   OH216922   1.782   3.591   1.134 -0.1685  0.4607  0.3198
 5653TIP3    H116923   1.745   3.574   1.221 -0.5637 -2.1882 -0.2585
 5653TIP3    H216924   1.873   3.613   1.150  0.3457 -2.1054  1.3704
 5654TIP3   OH216925   0.388   6.625   5.833  0.0453  0.2312  0.4974
 5654TIP3    H116926   0.394   6.700   5.773 -0.2926 -0.8707 -0.9946
 5654TIP3    H216927   0.401   6.663   5.920  1.0884  1.8423 -0.2951
 5655TIP3   OH216928   3.484   1.994   0.350  0.2293 -0.1298  0.4108
 5655TIP3    H116929   3.418   2.061   0.371 -0.4089 -0.6385  0.0391
 5655TIP3    H216930   3.525   1.974   0.434 -1.6036 -1.4086  1.0531
 5656TIP3   OH216931   5.315   4.395   3.377 -0.1389  0.0710 -0.1641
 5656TIP3    H116932   5.344   4.304   3.369 -0.3550 -0.1466  1.2846
 5656TIP3    H216933   5.274   4.400   3.463 -1.6088  1.1534 -0.8867
 5657TIP3   OH216934   6.294   3.356   5.024  0.8185 -0.9458 -0.5137
 5657TIP3    H116935   6.345   3.371   5.104  0.5557  0.0971 -0.5271
 5657TIP3    H216936   6.268   3.443   4.995 -0.8786 -1.4201 -0.5631
 5658TIP3   OH216937   4.295   3.061   1.039 -0.0002 -0.1069 -0.1598
 5658TIP3    H116938   4.287   3.064   0.944 -0.1205  0.2933 -0.1397
 5658TIP3    H216939   4.292   2.968   1.061  0.3219 -0.2174 -0.5720
 5659TIP3   OH216940   3.362   2.615   4.694 -0.2708 -0.8754  0.3442
 5659TIP3    H116941   3.296   2.682   4.711 -0.0699 -1.2416  2.9500
 5659TIP3    H216942   3.351   2.552   4.765  2.6887 -1.1274  0.6995
 5660TIP3   OH216943   6.396   0.394   5.309  0.3548 -0.4186 -0.3132
 5660TIP3    H116944   6.459   0.324   5.293  0.0969 -0.3081 -1.9337
 5660TIP3    H216945   6.352   0.407   5.225  0.5992  1.9121 -0.1476
 5661TIP3   OH216946   4.462   4.033   0.669  0.8139 -0.0892  0.0502
 5661TIP3    H116947   4.478   3.938   0.675  1.0129 -0.0939 -0.4772
 5661TIP3    H216948   4.527   4.064   0.605 -1.0821 -0.0665 -1.9785
 5662TIP3   OH216949   5.757   1.976   4.868 -0.2981  0.2608 -0.0610
 5662TIP3    H116950   5.770   2.039   4.939 -0.3794  0.6310 -0.3777
 5662TIP3    H216951   5.733   2.028   4.792  1.1539 -0.0116 -0.7286
 5663TIP3   OH216952   1.334   4.231   4.193  0.4313 -0.2260 -0.0701
 5663TIP3    H116953   1.388   4.248   4.116  0.7797  0.3328  0.2863
 5663TIP3    H216954   1.263   4.176   4.161 -0.2050  1.1208 -1.0883
 5664TIP3   OH216955   0.961   3.763   2.177 -0.0430 -0.1009 -0.7656
 5664TIP3    H116956   0.931   3.773   2.267 -0.8173  0.0197 -1.0315
 5664TIP3    H216957   1.055   3.781   2.181 -0.0656 -0.1172  0.0170
 5665TIP3   OH216958   0.530   3.099   3.203 -0.2006 -0.7204 -0.1868
 5665TIP3    H116959   0.490   3.020   3.240  0.3709 -1.1259 -0.4112
 5665TIP3    H216960   0.461   3.138   3.149 -0.6955 -0.7098  0.4393
 5666TIP3   OH216961   3.061   2.117   3.570 -0.7171 -0.1149 -0.0568
 5666TIP3    H116962   3.034   2.105   3.479 -0.1271  0.1602 -0.2774
 5666TIP3    H216963   3.116   2.196   3.567 -0.2432 -0.4216  0.4385
 5667TIP3   OH216964   2.502   4.553   0.900  0.8623 -0.3283  0.2420
 5667TIP3    H116965   2.419   4.512   0.924  0.3117 -0.5465 -1.8040
 5667TIP3    H216966   2.535   4.591   0.981 -1.2771 -0.1742  1.1082
 5668TIP3   OH216967   4.383   1.607   0.061  0.3070  0.2279 -0.8832
 5668TIP3    H116968   4.401   1.689   0.015  1.5024  0.1502 -0.5893
 5668TIP3    H216969   4.436   1.542   0.014  1.5149  0.1384  0.5493
 5669TIP3   OH216970   3.550   1.233   5.170  0.4888 -0.0559  0.9919
 5669TIP3    H116971   3.639   1.200   5.177  0.3798 -0.7855 -0.6473
 5669TIP3    H216972   3.525   1.218   5.079 -0.7326  1.6301  0.9906
 5670TIP3   OH216973   0.436   3.840   0.848 -0.1195 -0.6076 -0.5796
 5670TIP3    H116974   0.484   3.835   0.930  0.9190 -2.0328 -1.2137
 5670TIP3    H216975   0.408   3.750   0.832 -0.4366 -0.3242 -1.6981
 5671TIP3   OH216976   1.245   1.668   5.484  0.1613  0.4680  0.0285
 5671TIP3    H116977   1.275   1.735   5.423 -0.4943  0.6009 -0.1531
 5671TIP3    H216978   1.151   1.684   5.493  0.1679  0.1565  0.7080
 5672TIP3   OH216979   4.945   6.175   0.401 -0.0270 -0.2423  0.3769
 5672TIP3    H116980   4.880   6.118   0.442  0.6900 -0.5572  1.0968
 5672TIP3    H216981   5.027   6.156   0.447  0.4118  0.7390  0.0302
 5673TIP3   OH216982  -0.004   5.224   4.933 -0.0145 -0.7672 -0.4302
 5673TIP3    H116983   0.003   5.271   4.850 -0.8644 -0.2370 -0.2125
 5673TIP3    H216984   0.071   5.165   4.933 -0.3522 -1.2334 -1.8570
 5674TIP3   OH216985   1.649   0.539   1.997 -0.0391 -0.0429  0.6733
 5674TIP3    H116986   1.585   0.601   1.962 -0.8759 -1.2380  0.0037
 5674TIP3    H216987   1.609   0.506   2.077  0.3382  0.1678  0.9508
 5675TIP3   OH216988   4.650   0.891   0.443 -0.5140  0.0366  0.3767
 5675TIP3    H116989   4.567   0.894   0.394  0.2283  0.1602 -0.9264
 5675TIP3    H216990   4.715   0.926   0.381  0.8994 -2.1338  0.5401
 5676TIP3   OH216991   2.894   6.746   4.068 -0.2426 -0.3071 -0.4089
 5676TIP3    H116992   2.844   6.826   4.081  1.4999  1.0085 -1.4115
 5676TIP3    H216993   2.899   6.706   4.155 -3.6919 -1.0202 -0.3711
 5677TIP3   OH216994   2.673   1.634   4.565  0.1280  0.3506 -0.2965
 5677TIP3    H116995   2.666   1.539   4.570 -0.3933  0.2937 -1.6312
 5677TIP3    H216996   2.742   1.657   4.628  1.1318 -1.0396 -0.8341
 5678TIP3   OH216997   7.098   4.397   2.622  0.4842 -0.5138  0.1217
 5678TIP3    H116998   7.024   4.358   2.576  0.1139  2.2356 -1.8876
 5678TIP3    H216999   7.175   4.356   2.582  0.0943 -0.3865 -0.7790
 5679TIP3   OH217000   6.685   6.191   2.276  0.4297 -0.9813 -0.5418
 5679TIP3    H117001   6.764   6.195   2.223 -0.3835 -1.3196 -1.8322
 5679TIP3    H217002   6.687   6.272   2.327  1.3286 -0.7165 -0.9674
 5680TIP3   OH217003   4.460   6.792   1.778  0.1745 -0.2833 -0.1057
 5680TIP3    H117004   4.377   6.793   1.826  0.3364  0.0561  0.1633
 5680TIP3    H217005   4.516   6.732   1.826  0.0946 -0.4974 -0.2767
 5681TIP3   OH217006   7.068   4.837   2.915  0.3370  0.0606 -0.4158
 5681TIP3    H117007   7.052   4.916   2.966 -0.0428 -0.1803 -0.1527
 5681TIP3    H217008   7.047   4.861   2.825  2.0303  0.7968 -0.6428
 5682TIP3   OH217009   4.853   5.641   0.933  0.3153  0.2233  0.3970
 5682TIP3    H117010   4.901   5.630   1.015  1.9243 -1.5839 -0.6928
 5682TIP3    H217011   4.763   5.616   0.955  0.3466  1.3242  1.9437
 5683TIP3   OH217012   6.194   0.238   3.314 -0.0318 -0.0417  0.2095
 5683TIP3    H117013   6.276   0.246   3.265  0.8813 -2.0255  1.2892
 5683TIP3    H217014   6.127   0.269   3.253  1.4873  1.7561 -0.6593
 5684TIP3   OH217015   6.565   0.247   1.149  0.8225  0.8539 -0.0569
 5684TIP3    H117016   6.581   0.183   1.218 -0.5780  0.7979  0.2376
 5684TIP3    H217017   6.518   0.318   1.193 -0.6513  0.5343 -1.0606
 5685TIP3   OH217018   6.827   1.438   0.262  0.5421 -0.8823  0.5769
 5685TIP3    H117019   6.887   1.386   0.208  0.8084  0.5537 -0.5987
 5685TIP3    H217020   6.798   1.379   0.331 -1.4416 -3.5341 -2.2489
 5686TIP3   OH217021   0.284   3.856   0.344  0.0632  0.3590 -0.2659
 5686TIP3    H117022   0.301   3.949   0.358 -0.1235  0.1268  1.7169
 5686TIP3    H217023   0.216   3.854   0.276 -0.2731  1.6805  0.0046
 5687TIP3   OH217024   4.339   4.700   5.560 -0.2739 -0.6399  0.1694
 5687TIP3    H117025   4.302   4.766   5.502 -0.3099  0.0732  0.9784
 5687TIP3    H217026   4.263   4.664   5.606 -0.0274  1.1625  2.1852
 5688TIP3   OH217027   0.144   6.718   4.919 -0.0696 -0.0337  0.4531
 5688TIP3    H117028   0.207   6.658   4.960 -0.6714 -0.8350  0.2287
 5688TIP3    H217029   0.165   6.714   4.826  0.2125  0.4983  0.4917
 5689TIP3   OH217030   0.415   0.659   2.480  0.0462 -0.0782 -0.1793
 5689TIP3    H117031   0.464   0.633   2.558 -0.6218 -1.1670 -0.0953
 5689TIP3    H217032   0.334   0.608   2.484  0.6845 -1.4103 -2.4183
 5690TIP3   OH217033   6.005   1.687   1.855  0.5308  0.3587 -0.4008
 5690TIP3    H117034   5.961   1.602   1.856 -1.6977  1.4135 -1.7241
 5690TIP3    H217035   6.067   1.680   1.782  1.2832 -0.5169  0.2927
 5691TIP3   OH217036   6.899   5.045   2.725  0.0164  0.0734 -0.0424
 5691TIP3    H117037   6.872   5.136   2.735 -1.5739 -0.3547 -0.1899
 5691TIP3    H217038   6.837   4.995   2.777  1.1900 -0.9062  0.4717
 5692TIP3   OH217039   3.002   0.911   5.078  0.2430  0.2498 -0.5766
 5692TIP3    H117040   2.967   0.840   5.025  0.2642  1.0738 -1.7235
 5692TIP3    H217041   2.937   0.980   5.073  0.5960  0.6237 -0.1493
 5693TIP3   OH217042   2.839   5.915   0.517  0.8351 -0.0774 -0.0348
 5693TIP3    H117043   2.905   5.977   0.547  1.0806 -0.2577 -0.1968
 5693TIP3    H217044   2.888   5.848   0.469  0.4389  0.3057 -1.0017
 5694TIP3   OH217045   3.164   4.139   5.847  0.2472  0.1355 -0.6250
 5694TIP3    H117046   3.153   4.145   5.942  2.2227 -0.4036 -0.3268
 5694TIP3    H217047   3.082   4.098   5.817 -0.2764 -0.0136  0.8765
 5695TIP3   OH217048   1.133   6.047   4.742  0.6179 -0.3036  0.3698
 5695TIP3    H117049   1.071   6.017   4.675 -0.6215  2.3327  0.2154
 5695TIP3    H217050   1.219   6.030   4.704  0.0047 -1.9457 -0.4063
 5696TIP3   OH217051   2.438   6.484   4.730  0.3252 -0.3446 -0.0659
 5696TIP3    H117052   2.454   6.480   4.636 -0.9785 -0.0809 -0.3139
 5696TIP3    H217053   2.450   6.576   4.753  0.2056 -0.3350 -0.0460
 5697TIP3   OH217054   7.143   0.932   4.269 -0.1952  0.6448 -0.1719
 5697TIP3    H117055   7.168   1.020   4.241  1.0450  0.2484 -0.3809
 5697TIP3    H217056   7.157   0.877   4.192 -2.7187  0.5206 -0.6205
 5698TIP3   OH217057   7.244   3.010   0.532  0.2062  0.0876 -0.3064
 5698TIP3    H117058   7.185   3.079   0.561 -2.2402 -1.3787 -1.4876
 5698TIP3    H217059   7.203   2.929   0.562  2.8882 -0.9666  0.8988
 5699TIP3   OH217060   4.273   3.338   5.397  0.3547 -0.2023  0.0565
 5699TIP3    H117061   4.342   3.373   5.341  0.2215 -0.6189 -0.3781
 5699TIP3    H217062   4.192   3.357   5.350  0.3403 -2.1578 -0.8254
 5700TIP3   OH217063   2.992   2.482   4.171 -0.4181  0.4059 -0.6391
 5700TIP3    H117064   3.030   2.395   4.162 -1.2231 -0.1431  0.8744
 5700TIP3    H217065   3.065   2.538   4.197 -0.3441 -0.3526  0.8914
 5701TIP3   OH217066   2.964   0.438   5.717  0.0082 -0.4228  0.4266
 5701TIP3    H117067   2.997   0.416   5.630 -0.2201 -0.5440  0.3698
 5701TIP3    H217068   2.989   0.529   5.729 -0.2653 -0.2994  0.0883
 5702TIP3   OH217069   3.859   1.640   0.036 -0.2999 -0.6367 -0.2194
 5702TIP3    H117070   3.866   1.668  -0.055 -0.7667 -0.1173 -0.0989
 5702TIP3    H217071   3.804   1.706   0.078  1.6211  0.3151  0.9307
 5703TIP3   OH217072   0.282   0.237   2.188  0.3499  0.2458  0.0404
 5703TIP3    H117073   0.216   0.264   2.252  0.8922  3.1303 -0.4594
 5703TIP3    H217074   0.363   0.277   2.220  1.2638 -0.8682 -0.8320
 5704TIP3   OH217075   3.806   2.093   3.629 -0.0192  0.3176 -0.2445
 5704TIP3    H117076   3.731   2.034   3.634  0.7741 -0.7892 -0.9524
 5704TIP3    H217077   3.856   2.062   3.554  0.9471  1.2901 -0.0295
 5705TIP3   OH217078   2.607   5.342   0.180 -0.4072 -0.3415 -0.2239
 5705TIP3    H117079   2.525   5.307   0.145 -0.0118 -1.5253 -0.0295
 5705TIP3    H217080   2.652   5.265   0.216  0.1983  0.4839  0.8560
 5706TIP3   OH217081   0.256   0.297   3.578  0.0316 -0.9261  0.2992
 5706TIP3    H117082   0.333   0.269   3.528 -0.6373 -0.2352 -1.1889
 5706TIP3    H217083   0.203   0.218   3.588 -0.1734 -0.9412 -0.7637
 5707TIP3   OH217084   6.706   6.363   0.895 -0.4506  0.1665  0.0107
 5707TIP3    H117085   6.755   6.438   0.864 -1.0045  1.1256  1.3619
 5707TIP3    H217086   6.658   6.332   0.818  1.3483 -0.1037 -1.0536
 5708TIP3   OH217087   4.367   3.322   4.613  0.1048 -0.2651 -0.5846
 5708TIP3    H117088   4.459   3.328   4.640 -0.4646  1.6849  1.2660
 5708TIP3    H217089   4.319   3.311   4.695 -1.4374  0.9923 -1.2555
 5709TIP3   OH217090   0.629   6.296   0.074  0.1794 -0.5279  0.7359
 5709TIP3    H117091   0.700   6.281   0.136  1.9260  2.6102 -0.2317
 5709TIP3    H217092   0.615   6.212   0.031  1.8593 -1.7283  2.4034
 5710TIP3   OH217093   2.722   4.678   3.937 -0.0901  0.2633  0.1828
 5710TIP3    H117094   2.716   4.632   3.854 -1.3607 -1.8382  1.3567
 5710TIP3    H217095   2.637   4.721   3.947  0.6137  1.8441 -0.2770
 5711TIP3   OH217096   4.986   4.889   5.418  0.2172 -0.0575  0.4732
 5711TIP3    H117097   4.930   4.842   5.480  1.1212 -0.7530  0.7923
 5711TIP3    H217098   5.027   4.958   5.470 -1.7355  1.7021 -0.1704
 5712TIP3   OH217099   2.092   4.592   1.911  0.3354  0.0528  0.5189
 5712TIP3    H117100   2.149   4.665   1.888  0.5392 -0.5365 -0.9351
 5712TIP3    H217101   2.138   4.514   1.879  0.4039 -0.7981  2.5568
 5713TIP3   OH217102   6.457   3.264   1.430  0.5631 -0.0733 -0.0060
 5713TIP3    H117103   6.478   3.299   1.344 -0.9322  0.8188 -0.0424
 5713TIP3    H217104   6.447   3.170   1.416  4.0835 -0.6023 -0.0118
 5714TIP3   OH217105   6.804   4.535   5.187 -0.2401 -0.4779  0.1906
 5714TIP3    H117106   6.742   4.607   5.201  0.1868  0.3279 -1.7026
 5714TIP3    H217107   6.750   4.456   5.186 -1.1383  0.1172 -0.4991
 5715TIP3   OH217108   2.917   3.937   0.337  0.0862 -0.7038  0.0703
 5715TIP3    H117109   2.834   3.981   0.321 -1.4366 -3.0279  1.0485
 5715TIP3    H217110   2.937   3.894   0.254  0.0873 -0.4984 -0.0363
 5716TIP3   OH217111   3.373   0.363   1.007  0.0352 -0.3374 -0.5101
 5716TIP3    H117112   3.284   0.398   0.998 -0.1078 -0.7730 -0.8450
 5716TIP3    H217113   3.410   0.369   0.919  1.0427  1.6401 -0.0184
 5717TIP3   OH217114   2.480   4.159   3.049  0.5206  0.4964  0.0247
 5717TIP3    H117115   2.474   4.237   3.103 -2.0939  3.0599 -3.4946
 5717TIP3    H217116   2.407   4.104   3.078  1.2353  0.1622  1.2648
 5718TIP3   OH217117   4.287   4.776   3.232  0.0755 -0.0452  0.1926
 5718TIP3    H117118   4.215   4.713   3.231  1.1678 -1.3955 -2.0431
 5718TIP3    H217119   4.287   4.811   3.321 -5.1727  2.3103 -0.3807
 5719TIP3   OH217120   4.920   2.554   3.416 -0.1740  0.1960  0.1499
 5719TIP3    H117121   4.856   2.500   3.461 -1.0694  1.7601  0.8114
 5719TIP3    H217122   4.868   2.615   3.363  0.8257 -0.3078 -1.5067
 5720TIP3   OH217123   2.100   3.544   1.531  0.0512 -0.2408  0.3098
 5720TIP3    H117124   2.020   3.596   1.528  0.7198  0.8295  0.5289
 5720TIP3    H217125   2.117   3.521   1.439 -0.4951 -0.4871  0.2624
 5721TIP3   OH217126   7.084   1.842   1.694  0.2823 -0.0679  0.4544
 5721TIP3    H117127   7.014   1.902   1.717  0.5136  1.1823 -1.8448
 5721TIP3    H217128   7.143   1.843   1.770 -1.5509 -0.2746  1.9442
 5722TIP3   OH217129   2.967   6.686   1.042  0.3072 -0.0820  0.1971
 5722TIP3    H117130   3.051   6.718   1.011 -0.2092 -0.3407 -1.5995
 5722TIP3    H217131   2.960   6.597   1.006  0.0139 -0.7631  1.8083
 5723TIP3   OH217132   7.186   0.338   4.515 -0.4430 -0.5557  0.2591
 5723TIP3    H117133   7.192   0.306   4.425 -2.3840 -1.2428  0.3251
 5723TIP3    H217134   7.200   0.260   4.569 -2.1894 -0.7403  0.4768
 5724TIP3   OH217135   1.919   1.030   4.853  0.0738 -0.0475 -0.3334
 5724TIP3    H117136   1.927   1.117   4.893  0.6261 -0.9247  1.5742
 5724TIP3    H217137   1.834   1.032   4.809 -1.0002  0.7204  1.6584
 5725TIP3   OH217138   0.097   0.191   3.994 -0.1988  0.4791 -0.4985
 5725TIP3    H117139   0.099   0.233   4.080 -1.5253  1.2331 -0.8011
 5725TIP3    H217140   0.090   0.097   4.014  0.6426  0.5542  0.1993
 5726TIP3   OH217141   4.040   6.605   3.570 -0.0801 -0.0959 -0.2462
 5726TIP3    H117142   4.031   6.701   3.565  0.6691 -0.0696 -1.6265
 5726TIP3    H217143   4.033   6.585   3.664  1.1690  1.4671  0.2167
 5727TIP3   OH217144   1.183   5.733   4.612  0.2791  0.3565 -0.0960
 5727TIP3    H117145   1.190   5.752   4.705  2.0030  0.0903 -0.1328
 5727TIP3    H217146   1.274   5.732   4.581 -0.1937 -0.5940 -1.5569
 5728TIP3   OH217147   5.947   4.234   0.650  0.0483  0.1605 -0.1461
 5728TIP3    H117148   6.030   4.213   0.692 -0.2853  0.3226  0.6249
 5728TIP3    H217149   5.914   4.151   0.617  1.1270  0.2884 -1.6488
 5729TIP3   OH217150   6.382   1.272   3.371 -0.2734 -0.1878 -0.6620
 5729TIP3    H117151   6.391   1.255   3.277  1.2938 -1.7332 -0.2830
 5729TIP3    H217152   6.422   1.358   3.383 -1.2393  0.4067 -1.5029
 5730TIP3   OH217153   5.614   5.111   3.267 -0.6726  0.6733 -0.3656
 5730TIP3    H117154   5.709   5.123   3.270 -0.3401  0.4727 -4.2991
 5730TIP3    H217155   5.601   5.017   3.280 -0.0098  0.2765 -2.2441
 5731TIP3   OH217156   0.540   6.404   3.111  0.1624 -0.6438 -0.2180
 5731TIP3    H117157   0.517   6.375   3.023  1.2759  2.0037 -1.4810
 5731TIP3    H217158   0.635   6.394   3.117  0.4276  1.3957 -0.2695
 5732TIP3   OH217159   2.094   5.669   0.605  0.0125  0.1021 -0.2920
 5732TIP3    H117160   2.028   5.705   0.546  1.5711  2.5049 -0.6840
 5732TIP3    H217161   2.135   5.598   0.555 -0.6162  0.1953 -0.9595
 5733TIP3   OH217162   0.882   1.187   0.237  0.3443 -0.0419  0.0711
 5733TIP3    H117163   0.847   1.167   0.325 -1.7871 -1.0953 -0.9261
 5733TIP3    H217164   0.863   1.280   0.224 -0.5193 -0.1886  0.2379
 5734TIP3   OH217165   4.545   0.571   5.487  0.0520  0.5381  0.1084
 5734TIP3    H117166   4.532   0.499   5.425  1.0734 -0.2688  0.7806
 5734TIP3    H217167   4.518   0.649   5.440 -0.6026 -0.2246 -0.8268
 5735TIP3   OH217168   3.740   0.221   3.055  0.2457 -0.2119 -0.1724
 5735TIP3    H117169   3.679   0.212   2.982 -2.3031  1.8682  1.5175
 5735TIP3    H217170   3.718   0.149   3.115 -0.5160  0.4814  0.3931
 5736TIP3   OH217171   0.244   3.621   5.670 -0.1800 -0.2411  0.0081
 5736TIP3    H117172   0.186   3.548   5.646 -1.2292  1.0147 -1.4957
 5736TIP3    H217173   0.208   3.696   5.623 -0.7365  1.8940  3.5198
 5737TIP3   OH217174   6.578   1.572   4.018  0.6956  0.4609 -0.1035
 5737TIP3    H117175   6.487   1.566   4.047  0.4582 -1.0306 -1.0544
 5737TIP3    H217176   6.573   1.568   3.923  1.7162  1.1023 -0.1905
 5738TIP3   OH217177   2.089   0.455   3.945 -0.0782 -0.1323  0.2330
 5738TIP3    H117178   2.138   0.385   3.989  0.2936  0.0399  0.0946
 5738TIP3    H217179   2.009   0.413   3.915 -0.4141 -0.2238  1.2130
 5739TIP3   OH217180   1.284   2.205   4.845 -0.2527 -0.2554  0.3727
 5739TIP3    H117181   1.378   2.199   4.864 -0.1664 -2.5614 -0.5052
 5739TIP3    H217182   1.274   2.164   4.760 -1.9512  0.9821 -0.0763
 5740TIP3   OH217183   1.942   2.247   4.517  0.3179  0.4849 -0.1360
 5740TIP3    H117184   1.986   2.331   4.504  0.6363  0.4589  0.7543
 5740TIP3    H217185   1.997   2.200   4.578  0.2114 -0.4397 -0.7304
 5741TIP3   OH217186   0.096   5.357   4.702 -0.1100 -0.1575  0.5665
 5741TIP3    H117187   0.185   5.356   4.737  0.5259  0.4036 -0.9331
 5741TIP3    H217188   0.088   5.441   4.658 -1.3947 -0.2003  0.6711
 5742TIP3   OH217189   7.205   3.211   2.845  0.3444  0.4550 -0.6293
 5742TIP3    H117190   7.218   3.183   2.935 -0.3473  1.0790 -0.3207
 5742TIP3    H217191   7.119   3.176   2.822 -0.9264  2.9213  0.0459
 5743TIP3   OH217192   1.181   4.684   0.542  0.1872 -0.1435  0.0024
 5743TIP3    H117193   1.266   4.687   0.585  0.1913 -0.8421  0.0512
 5743TIP3    H217194   1.122   4.647   0.608  0.3889 -2.1429 -0.8795
 5744TIP3   OH217195   3.275   3.117   2.180 -0.1699 -0.5416  0.3615
 5744TIP3    H117196   3.316   3.172   2.247  0.0406 -0.9165  0.5373
 5744TIP3    H217197   3.197   3.082   2.223 -1.5320  1.3568 -0.4271
 5745TIP3   OH217198   1.276   5.886   1.825 -0.7805 -0.1936 -0.1607
 5745TIP3    H117199   1.348   5.940   1.792 -0.7788 -0.6619 -0.9220
 5745TIP3    H217200   1.235   5.849   1.747  0.4286 -2.8752  0.3903
 5746TIP3   OH217201   5.836   3.277   5.478 -0.0865 -0.2771 -0.1424
 5746TIP3    H117202   5.800   3.225   5.551 -0.1388  0.3219  0.2712
 5746TIP3    H217203   5.931   3.267   5.486 -0.0927 -0.2291 -0.0060
 5747TIP3   OH217204   6.082   3.661   4.188 -0.0404  0.4733  0.5915
 5747TIP3    H117205   6.077   3.566   4.177  0.7937  0.4386  0.4208
 5747TIP3    H217206   6.039   3.679   4.272  0.2109 -0.1056  0.8432
 5748TIP3   OH217207   6.996   2.967   4.868 -0.4263 -0.6074  0.0319
 5748TIP3    H117208   7.063   3.035   4.872 -0.8371 -0.2362  1.7684
 5748TIP3    H217209   6.923   3.009   4.823 -0.1513 -0.3727 -0.2006
 5749TIP3   OH217210   4.135   6.642   1.233 -0.3182 -0.4123  0.2098
 5749TIP3    H117211   4.064   6.583   1.208 -1.0998  1.4153 -2.3157
 5749TIP3    H217212   4.091   6.720   1.267  0.5945 -0.1867  0.9295
 5750TIP3   OH217213   2.660   0.669   5.832  0.6433  0.0036 -0.0553
 5750TIP3    H117214   2.700   0.752   5.809  1.6073 -0.6123 -0.6611
 5750TIP3    H217215   2.631   0.632   5.749  1.9539 -1.1168 -0.0603
 5751TIP3   OH217216   4.593   3.105   1.999 -0.3941  0.3203 -0.3588
 5751TIP3    H117217   4.601   3.161   2.076 -1.3152  1.3641 -0.9865
 5751TIP3    H217218   4.591   3.016   2.034  2.5137  0.5390  0.5577
 5752TIP3   OH217219   4.419   3.081   2.386  0.1348  0.2466 -0.1636
 5752TIP3    H117220   4.488   3.135   2.348  0.0868 -0.1576 -0.8411
 5752TIP3    H217221   4.430   3.091   2.481  3.7792 -2.9321  0.0109
 5753TIP3   OH217222   0.696   6.395   1.398 -0.2246  0.2006 -0.1553
 5753TIP3    H117223   0.691   6.455   1.323 -0.6251  0.4238  0.0456
 5753TIP3    H217224   0.642   6.320   1.372 -1.2927  0.7750  0.3524
 5754TIP3   OH217225   0.763   2.223   5.626 -0.3454 -0.5346 -1.1561
 5754TIP3    H117226   0.709   2.238   5.704 -0.9317 -1.2227 -1.4210
 5754TIP3    H217227   0.850   2.253   5.652 -0.4844 -0.9461 -0.1515
 5755TIP3   OH217228   7.207   2.227   0.757  0.1898  0.2422 -0.1235
 5755TIP3    H117229   7.179   2.316   0.780 -1.4524 -0.2973  0.1142
 5755TIP3    H217230   7.185   2.219   0.664  0.8064  0.2489 -0.2717
 5756TIP3   OH217231   4.450   0.375   3.752 -0.6269 -0.1021 -0.1218
 5756TIP3    H117232   4.388   0.338   3.814 -0.2157  0.5095  0.6693
 5756TIP3    H217233   4.500   0.439   3.803  1.3275 -1.2680 -0.4613
 5757TIP3   OH217234   7.078   3.492   2.526  0.5506 -0.0171  0.6612
 5757TIP3    H117235   7.002   3.493   2.584  0.2791  2.3450  0.3629
 5757TIP3    H217236   7.045   3.461   2.442 -0.0469  0.7203  0.6121
 5758TIP3   OH217237   2.572   6.321   5.672  0.2149  0.2452  0.6397
 5758TIP3    H117238   2.600   6.340   5.583 -0.6889 -0.6000  0.1622
 5758TIP3    H217239   2.536   6.404   5.704  1.7742  0.9223  0.7282
 5759TIP3   OH217240   1.878   5.451   0.984  0.2981 -0.2112 -0.7910
 5759TIP3    H117241   1.814   5.517   0.959  0.0317 -0.8457 -1.8537
 5759TIP3    H217242   1.938   5.447   0.910  0.9603 -0.3654 -0.2534
 5760TIP3   OH217243   6.289   0.474   0.858  0.1773 -0.2915  0.6596
 5760TIP3    H117244   6.281   0.399   0.916 -0.2113 -0.8018 -0.0375
 5760TIP3    H217245   6.383   0.481   0.840  0.1152 -1.2590 -0.0950
 5761TIP3   OH217246   4.240   3.041   3.562 -0.1493  0.8426 -0.3955
 5761TIP3    H117247   4.332   3.039   3.586 -0.1655  0.4827 -0.3497
 5761TIP3    H217248   4.200   2.971   3.615 -1.0540  3.0122  2.0330
 5762TIP3   OH217249   6.758   1.412   0.856 -0.4069 -0.9204  0.2897
 5762TIP3    H117250   6.786   1.335   0.806 -0.1507 -1.4307  1.1799
 5762TIP3    H217251   6.834   1.471   0.854 -0.4199 -0.9130  0.0261
 5763TIP3   OH217252   0.114   6.218   3.752  0.5315 -0.1166 -0.3146
 5763TIP3    H117253   0.198   6.183   3.724  0.6005 -1.5435  1.4851
 5763TIP3    H217254   0.055   6.142   3.750 -0.9638  0.9889 -2.2485
 5764TIP3   OH217255   1.954   6.272   1.800 -0.0190 -0.0620 -0.1272
 5764TIP3    H117256   1.945   6.328   1.877 -0.8801 -0.6649  0.2275
 5764TIP3    H217257   2.038   6.296   1.763  0.5544  0.0482  1.1721
 5765TIP3   OH217258   2.618   2.400   5.125 -0.2437 -0.6710  0.0147
 5765TIP3    H117259   2.589   2.317   5.088  0.0137 -1.0520  0.6380
 5765TIP3    H217260   2.698   2.378   5.173  0.6026  0.2036 -0.9662
 5766TIP3   OH217261   1.077   5.527   4.433 -0.5377 -0.8235 -0.1108
 5766TIP3    H117262   1.123   5.459   4.481  0.4695 -0.3541 -0.3853
 5766TIP3    H217263   1.077   5.602   4.492 -3.2985 -1.5518  0.9710
 5767TIP3   OH217264   3.269   3.589   4.358 -0.0785 -0.7344 -0.1021
 5767TIP3    H117265   3.247   3.682   4.355  1.7200 -0.3058 -1.6105
 5767TIP3    H217266   3.215   3.549   4.290  0.1320 -0.5699 -0.3625
 5768TIP3   OH217267   6.842   3.092   0.280  0.2418  0.0904  0.4598
 5768TIP3    H117268   6.825   3.005   0.244  0.9089 -0.0185  0.3881
 5768TIP3    H217269   6.766   3.111   0.334  0.6008 -1.0214  1.3883
 5769TIP3   OH217270   2.867   2.872   3.569  0.2268 -0.1219  0.5105
 5769TIP3    H117271   2.888   2.885   3.477  2.6297  2.2327  1.2677
 5769TIP3    H217272   2.831   2.956   3.598  2.7244  0.4168  2.4113
 5770TIP3   OH217273   2.509   2.264   0.681 -0.3317 -0.2957 -0.5685
 5770TIP3    H117274   2.431   2.307   0.715 -0.2021 -0.0850 -0.5308
 5770TIP3    H217275   2.507   2.177   0.720  0.4224  0.3192  0.9552
 5771TIP3   OH217276   2.010   3.186   1.991  0.3833 -0.5217 -0.3331
 5771TIP3    H117277   2.054   3.148   1.916 -1.2110  0.0238 -1.6177
 5771TIP3    H217278   1.918   3.193   1.964  0.0373  1.1486  1.0632
 5772TIP3   OH217279   6.997   2.344   5.320  0.1735 -0.1618  0.3292
 5772TIP3    H117280   7.045   2.284   5.376  0.2060 -0.7561 -0.3135
 5772TIP3    H217281   7.060   2.368   5.252  0.6011  1.6945  1.3206
 5773TIP3   OH217282   1.586   0.393   2.975 -0.3068 -0.3290 -0.2309
 5773TIP3    H117283   1.651   0.358   3.036 -0.5463 -0.8939 -0.2938
 5773TIP3    H217284   1.575   0.484   3.002  1.1228  0.0328 -0.7340
 5774TIP3   OH217285   2.349   6.100   4.164  0.0733  0.1515  0.2782
 5774TIP3    H117286   2.418   6.163   4.145 -0.8987  1.2132  0.1426
 5774TIP3    H217287   2.382   6.050   4.239  0.3818  1.6076  1.1449
 5775TIP3   OH217288   6.713   2.356   1.280  0.2666 -0.0265 -0.0763
 5775TIP3    H117289   6.790   2.360   1.224  1.4017  1.7787  1.4617
 5775TIP3    H217290   6.747   2.328   1.365 -1.2338 -1.7445  0.0130
 5776TIP3   OH217291   0.662   1.665   3.354  0.0284 -0.2135 -0.7658
 5776TIP3    H117292   0.711   1.603   3.408  0.1771  0.4175 -0.1574
 5776TIP3    H217293   0.571   1.658   3.384 -0.0297 -0.4418 -0.9924
 5777TIP3   OH217294   4.992   6.635   5.106 -0.9159  0.3823  0.4772
 5777TIP3    H117295   4.909   6.682   5.114 -1.2937  0.2034 -1.8194
 5777TIP3    H217296   5.052   6.700   5.070 -0.6839 -0.1050 -0.0303
 5778TIP3   OH217297   2.733   4.488   1.730 -0.0887 -0.0615 -0.4925
 5778TIP3    H117298   2.651   4.533   1.747  0.4587  0.4908  0.8035
 5778TIP3    H217299   2.773   4.537   1.658  0.2775  1.2638  0.5869
 5779TIP3   OH217300   2.610   5.582   5.773  0.2873 -0.1417 -0.4237
 5779TIP3    H117301   2.682   5.527   5.740  0.0283  0.3333 -1.8626
 5779TIP3    H217302   2.648   5.669   5.779  0.3292 -0.2251  0.5798
 5780TIP3   OH217303   1.168   0.330   4.949  0.2975 -0.7197 -0.4850
 5780TIP3    H117304   1.253   0.298   4.917  2.0188  1.2736  1.7575
 5780TIP3    H217305   1.111   0.253   4.946  1.9198 -1.9644 -2.7358
 5781TIP3   OH217306   3.383   0.141   5.189 -0.4355 -0.1041  0.1089
 5781TIP3    H117307   3.427   0.074   5.241  1.7496  0.4897 -0.8535
 5781TIP3    H217308   3.332   0.192   5.253 -1.0711 -1.8121  1.0332
 5782TIP3   OH217309   1.873   1.182   2.387 -0.1593 -0.4328  0.2663
 5782TIP3    H117310   1.958   1.218   2.363 -0.6427 -0.6294 -1.9157
 5782TIP3    H217311   1.814   1.213   2.319 -1.4441 -1.8776  0.6800
 5783TIP3   OH217312   1.610   2.045   5.847  0.4130  0.3388  0.7686
 5783TIP3    H117313   1.649   1.973   5.797 -0.5600 -1.1555  2.0860
 5783TIP3    H217314   1.522   2.015   5.869 -0.5309  2.5001  0.2488
 5784TIP3   OH217315   4.180   3.273   2.422  0.6755 -0.1776  0.3046
 5784TIP3    H117316   4.200   3.186   2.455 -0.6661 -1.1167 -1.1748
 5784TIP3    H217317   4.110   3.259   2.358  0.8252  1.9156 -0.4187
 5785TIP3   OH217318   4.044   6.586   3.839 -0.3654 -0.2956  0.0745
 5785TIP3    H117319   4.071   6.523   3.906  0.1477  0.6304  0.7530
 5785TIP3    H217320   4.014   6.662   3.888 -0.5322  0.1762 -0.7470
 5786TIP3   OH217321   1.925   3.519   2.873 -0.0222  0.7098 -0.0872
 5786TIP3    H117322   1.905   3.489   2.962 -1.1997  0.9846 -0.2464
 5786TIP3    H217323   1.856   3.581   2.853 -1.2418 -1.1712 -2.1039
 5787TIP3   OH217324   0.820   0.548   4.118  0.3741  0.1259  0.1029
 5787TIP3    H117325   0.850   0.596   4.196  2.9407 -0.6628 -0.3082
 5787TIP3    H217326   0.777   0.470   4.154 -0.8690  1.0406  0.7105
 5788TIP3   OH217327   5.385   0.299   3.671  0.2284 -0.1223 -0.3721
 5788TIP3    H117328   5.460   0.356   3.658 -0.6882  0.9185 -1.3193
 5788TIP3    H217329   5.318   0.333   3.611 -1.4092 -0.2754  1.2821
 5789TIP3   OH217330   2.837   0.093   1.204 -1.2386  0.0737  0.3214
 5789TIP3    H117331   2.838   0.175   1.155  1.5903  0.3987  0.7783
 5789TIP3    H217332   2.792   0.031   1.145 -0.0800  1.0434 -1.6938
 5790TIP3   OH217333   2.393   5.144   3.962  1.1343 -0.3360 -0.4571
 5790TIP3    H117334   2.349   5.186   4.036  1.0231 -1.0045 -0.1355
 5790TIP3    H217335   2.344   5.063   3.948  0.9941 -0.0939 -1.4394
 5791TIP3   OH217336   0.827   1.146   1.431  0.3192 -0.1210 -0.8754
 5791TIP3    H117337   0.843   1.200   1.509  1.6973  0.0137 -1.2131
 5791TIP3    H217338   0.883   1.069   1.445 -0.7324 -0.9139 -0.9480
 5792TIP3   OH217339   6.692   0.289   1.661 -0.2595 -0.1974 -0.5862
 5792TIP3    H117340   6.678   0.274   1.755  3.1922 -0.5376  0.0186
 5792TIP3    H217341   6.723   0.380   1.656  0.9811 -0.6336 -1.1664
 5793TIP3   OH217342   3.454   4.244   2.586 -0.5544 -0.0863  0.0296
 5793TIP3    H117343   3.425   4.247   2.677 -0.4609 -1.8063  0.1520
 5793TIP3    H217344   3.375   4.262   2.535 -0.4739  1.5436  0.4293
 5794TIP3   OH217345   1.923   5.873   5.641  0.1197  0.3760  0.0554
 5794TIP3    H117346   1.901   5.826   5.560  0.6470  0.0527  0.0894
 5794TIP3    H217347   2.017   5.887   5.635  0.1115  0.6168  0.4765
 5795TIP3   OH217348   4.944   2.358   4.615 -0.6529 -0.4171 -0.0866
 5795TIP3    H117349   4.935   2.380   4.708  0.1779 -0.5423  0.0384
 5795TIP3    H217350   4.915   2.436   4.568  0.2535  0.1869  0.3181
 5796TIP3   OH217351   1.602   1.313   0.322  0.0683  0.2494  0.1039
 5796TIP3    H117352   1.611   1.391   0.268 -3.8993 -0.4964 -1.9431
 5796TIP3    H217353   1.671   1.254   0.290  1.4205  1.8510 -0.1067
 5797TIP3   OH217354   1.099   2.332  -0.001  0.0423 -0.0178  0.3094
 5797TIP3    H117355   1.064   2.409   0.043  1.5380  0.5991  0.4676
 5797TIP3    H217356   1.193   2.335   0.016  0.3643 -0.9278 -1.1242
 5798TIP3   OH217357   3.668   3.647   1.981 -0.0101 -0.3551  0.3339
 5798TIP3    H117358   3.657   3.649   2.076  0.3489 -0.6653  0.3858
 5798TIP3    H217359   3.743   3.589   1.967  0.5185  0.4164 -0.0865
 5799TIP3   OH217360   3.567   4.826   0.968  0.4035  0.1677 -0.2600
 5799TIP3    H117361   3.582   4.885   1.041  2.6749  0.4669 -0.8938
 5799TIP3    H217362   3.611   4.744   0.994  0.0751 -0.1613 -0.7270
 5800TIP3   OH217363   3.916   3.127   4.765 -0.4118  0.4167  0.0036
 5800TIP3    H117364   3.969   3.181   4.706 -1.1079  0.8311 -0.2454
 5800TIP3    H217365   3.966   3.128   4.847 -0.2328  1.1522 -0.0994
 5801TIP3   OH217366   4.491   2.847   0.924 -0.1793 -0.7603  0.0262
 5801TIP3    H117367   4.408   2.862   0.879  0.8194  0.2738 -1.5613
 5801TIP3    H217368   4.501   2.752   0.925 -1.4701 -0.9183  0.4716
 5802TIP3   OH217369   1.632   5.790   5.127  0.3121  0.0417  0.7682
 5802TIP3    H117370   1.615   5.842   5.049  0.7300  1.2515  1.4516
 5802TIP3    H217371   1.575   5.713   5.119 -3.2440  2.3663  1.5141
 5803TIP3   OH217372   2.847   5.526   4.898 -1.0781  0.1266  0.5116
 5803TIP3    H117373   2.918   5.485   4.947 -2.4383 -3.1895 -0.0582
 5803TIP3    H217374   2.845   5.617   4.930  2.6608  0.0917  1.2782
 5804TIP3   OH217375   0.427   3.112   3.552 -0.1130 -0.0237  0.2430
 5804TIP3    H117376   0.422   3.023   3.589  1.0526  0.4548  1.6823
 5804TIP3    H217377   0.408   3.169   3.627  0.2273  0.9578 -0.4065
 5805TIP3   OH217378   7.200   3.411   1.175 -0.4585  0.2994  0.1984
 5805TIP3    H117379   7.283   3.457   1.163 -0.4682  0.4441  0.6810
 5805TIP3    H217380   7.135   3.469   1.133 -0.4737  0.7421  0.8159
 5806TIP3   OH217381   5.887   2.320   0.036  0.6096 -0.4203  0.5269
 5806TIP3    H117382   5.796   2.348   0.045  1.6305  2.7746  2.5000
 5806TIP3    H217383   5.909   2.279   0.120  1.1896 -0.5705  0.3112
 5807TIP3   OH217384   3.115   1.697   0.231 -0.7405 -0.2430 -0.0192
 5807TIP3    H117385   3.193   1.694   0.286  0.6647  0.1167 -1.8819
 5807TIP3    H217386   3.093   1.790   0.226 -0.9811 -0.2932  0.0891
 5808TIP3   OH217387   5.721   2.040   0.027 -0.3114 -0.1425  0.3486
 5808TIP3    H117388   5.680   1.954   0.032 -2.3484  0.7919  1.0045
 5808TIP3    H217389   5.778   2.044   0.103  0.6919 -1.3123 -0.3155
 5809TIP3   OH217390   2.726   4.565   3.689  0.1249 -0.0762 -0.8108
 5809TIP3    H117391   2.754   4.566   3.598 -2.7111  1.6033 -1.7733
 5809TIP3    H217392   2.672   4.487   3.698 -1.2850  0.8257 -1.1912
 5810TIP3   OH217393   6.421   5.856   3.551 -0.0435  0.2594 -0.2158
 5810TIP3    H117394   6.491   5.794   3.531  1.9793  1.9595  1.1297
 5810TIP3    H217395   6.340   5.804   3.545  1.3780 -2.0249 -0.8609
 5811TIP3   OH217396   1.744   5.005   1.856  0.7297 -0.6261 -0.1863
 5811TIP3    H117397   1.677   4.936   1.853 -0.3908  0.4461 -0.6974
 5811TIP3    H217398   1.770   5.008   1.948  0.6988 -1.6389 -0.1309
 5812TIP3   OH217399   3.860   1.323   4.662  0.3953  0.7716  0.6731
 5812TIP3    H117400   3.917   1.250   4.638  1.6643  1.4853  1.3800
 5812TIP3    H217401   3.894   1.353   4.747 -1.0051  1.2769  1.0876
 5813TIP3   OH217402   2.253   0.426   4.888  0.1607 -0.2853  0.0829
 5813TIP3    H117403   2.247   0.488   4.815 -0.4585 -0.2524  0.1600
 5813TIP3    H217404   2.232   0.341   4.849  1.3517 -0.5194 -0.0988
 5814TIP3   OH217405   6.461   3.926   0.593 -0.2805  0.1937 -0.2419
 5814TIP3    H117406   6.371   3.925   0.561 -1.1710  1.7216  2.0041
 5814TIP3    H217407   6.496   4.010   0.565 -0.5889  0.9082  1.4151
 5815TIP3   OH217408   2.844   5.827   3.212 -0.0575  0.0836  0.2425
 5815TIP3    H117409   2.862   5.799   3.302 -1.8039 -0.3109  0.5154
 5815TIP3    H217410   2.885   5.913   3.206 -0.4436  0.4032  1.6386
 5816TIP3   OH217411   6.873   1.237   5.181  0.4157 -0.4117  0.0176
 5816TIP3    H117412   6.816   1.168   5.146 -0.9173  0.0606  1.1458
 5816TIP3    H217413   6.860   1.311   5.121  1.3285 -0.8896 -0.8055
 5817TIP3   OH217414   3.124   5.689   1.753 -0.1191  0.3367  0.4459
 5817TIP3    H117415   3.066   5.630   1.705  0.9779 -0.1477 -0.3315
 5817TIP3    H217416   3.065   5.751   1.797 -1.1732  0.5287 -1.1695
 5818TIP3   OH217417   2.429   6.073   2.561 -0.6800  0.1850  0.5808
 5818TIP3    H117418   2.352   6.054   2.507  0.3180 -0.5157 -0.6488
 5818TIP3    H217419   2.502   6.076   2.498  0.4428 -0.0935  1.8349
 5819TIP3   OH217420   0.553   4.268   1.566  0.4675  0.3569  0.1778
 5819TIP3    H117421   0.504   4.229   1.638  1.8013 -2.2449 -0.2139
 5819TIP3    H217422   0.487   4.285   1.499 -0.2985 -0.4493  0.7115
 5820TIP3   OH217423   6.176   1.400   2.090  0.0131 -0.0982 -0.8918
 5820TIP3    H117424   6.156   1.315   2.129  0.2806 -0.3932 -1.3784
 5820TIP3    H217425   6.095   1.427   2.048 -0.0833 -0.1007 -0.7064
 5821TIP3   OH217426   2.470   0.579   4.977  0.5871 -0.5636 -0.3937
 5821TIP3    H117427   2.484   0.602   4.886  0.9558 -1.4098 -0.5651
 5821TIP3    H217428   2.393   0.522   4.977  0.5114 -0.4648 -0.1620
 5822TIP3   OH217429   0.573   5.611   1.179 -0.5937 -0.1464  0.0969
 5822TIP3    H117430   0.518   5.538   1.150  1.2158 -0.4681 -3.0803
 5822TIP3    H217431   0.647   5.568   1.222 -1.0546  0.0608  1.1192
 5823TIP3   OH217432   0.936   1.303   1.620  0.4184  0.3541 -0.1342
 5823TIP3    H117433   1.006   1.250   1.658  0.0898 -0.7761 -1.0403
 5823TIP3    H217434   0.861   1.288   1.676  0.3139 -0.1840 -0.4157
 5824TIP3   OH217435   5.155   4.544   4.305 -0.2773 -0.5538 -0.2439
 5824TIP3    H117436   5.227   4.567   4.364 -0.2559 -2.3568  0.5248
 5824TIP3    H217437   5.177   4.587   4.223  0.1948  1.2471  0.7738
 5825TIP3   OH217438   2.914   3.369   4.821  0.7696  0.6409 -0.3189
 5825TIP3    H117439   2.824   3.370   4.853  1.3360 -0.7217  1.4474
 5825TIP3    H217440   2.905   3.374   4.725 -1.0985  1.7018 -0.1439
 5826TIP3   OH217441   0.930   3.359   3.555  0.0927 -0.5739  0.2381
 5826TIP3    H117442   0.861   3.306   3.595  0.3577 -1.1802 -0.0891
 5826TIP3    H217443   0.889   3.398   3.478  0.3157 -1.5576 -0.3978
 5827TIP3   OH217444   6.705   1.029   1.925 -0.7761 -0.1116 -0.0566
 5827TIP3    H117445   6.737   0.977   1.852 -0.7580 -0.7875  0.4240
 5827TIP3    H217446   6.675   1.111   1.885  2.0063  0.7819 -0.4725
 5828TIP3   OH217447   5.427   5.567   2.459 -0.6442  0.2614 -0.1725
 5828TIP3    H117448   5.475   5.646   2.435 -1.9623  0.6743 -1.7036
 5828TIP3    H217449   5.386   5.588   2.543  1.3927  0.0605  0.9260
 5829TIP3   OH217450   2.805   5.969   4.033 -0.0678  0.0265 -0.1337
 5829TIP3    H117451   2.886   5.921   4.053  0.3373  1.1737  1.1100
 5829TIP3    H217452   2.735   5.907   4.054  0.4652 -0.4578  0.2341
 5830TIP3   OH217453   0.769   0.659   3.694 -0.1020 -0.3452  0.6565
 5830TIP3    H117454   0.699   0.672   3.757  0.4525  0.7315  1.0783
 5830TIP3    H217455   0.848   0.648   3.747  0.2473 -0.2303  0.1708
 5831TIP3   OH217456   1.923   1.767   2.688  0.7940 -0.1662 -0.0197
 5831TIP3    H117457   1.996   1.798   2.635  1.1780  0.5974  0.9335
 5831TIP3    H217458   1.848   1.818   2.657  0.5194 -1.3407 -1.3795
 5832TIP3   OH217459   1.617   0.231   5.519  0.5428  0.1219 -0.3987
 5832TIP3    H117460   1.667   0.230   5.601 -0.6122  0.8639  0.3471
 5832TIP3    H217461   1.682   0.210   5.452  1.6048 -0.1247  0.6515
 5833TIP3   OH217462   5.222   2.661   4.623 -0.8554 -0.3031  0.1135
 5833TIP3    H117463   5.194   2.649   4.714  1.6007 -0.9753  0.8789
 5833TIP3    H217464   5.290   2.728   4.628 -1.1891  0.1864 -1.3638
 5834TIP3   OH217465   1.629   3.421   5.073 -0.1169  0.1863 -0.2637
 5834TIP3    H117466   1.624   3.456   4.984 -0.4492  0.1749 -0.2515
 5834TIP3    H217467   1.562   3.469   5.122 -0.2404 -0.1183 -0.1289
 5835TIP3   OH217468   2.787   1.375   4.619  0.4273  0.5085 -0.0693
 5835TIP3    H117469   2.823   1.398   4.533  2.7351 -0.3862  0.5956
 5835TIP3    H217470   2.812   1.284   4.632 -0.9526  0.2611  1.0486
 5836TIP3   OH217471   4.730   2.486   3.156 -0.1413 -0.1511  0.0534
 5836TIP3    H117472   4.824   2.483   3.141 -0.1866 -0.0176 -0.2482
 5836TIP3    H217473   4.713   2.576   3.185  0.0148 -0.5225  1.3568
 5837TIP3   OH217474   2.108   5.521   3.456 -0.4694 -0.4371 -0.0585
 5837TIP3    H117475   2.193   5.485   3.431 -1.3877 -1.5495 -1.7360
 5837TIP3    H217476   2.117   5.538   3.550  1.7294 -0.0982 -0.2664
 5838TIP3   OH217477   5.223   2.869   2.489 -0.1768 -0.2116 -0.3753
 5838TIP3    H117478   5.295   2.930   2.504 -0.3609 -0.2387  0.7276
 5838TIP3    H217479   5.145   2.916   2.519 -0.2571 -1.1480  0.9813
 5839TIP3   OH217480   1.025   1.494   1.806  0.0383  0.1070 -0.1750
 5839TIP3    H117481   1.005   1.587   1.795 -2.7603 -0.4548 -0.5583
 5839TIP3    H217482   1.007   1.455   1.721 -2.1086 -1.2484  0.8180
 5840TIP3   OH217483   4.087   2.399   1.031 -0.1732  0.1679  0.3109
 5840TIP3    H117484   4.016   2.356   0.984  1.7690 -1.8285 -1.0180
 5840TIP3    H217485   4.078   2.368   1.121 -1.5656  0.7709  0.3951
 5841TIP3   OH217486   0.030   5.491   3.151  0.2973 -0.0732 -0.2940
 5841TIP3    H117487   0.006   5.582   3.172 -0.7015 -0.3304 -0.3087
 5841TIP3    H217488  -0.008   5.475   3.065  1.5294 -0.1181 -0.8553
 5842TIP3   OH217489   6.210   3.574   5.445  0.0391 -0.3600  0.3447
 5842TIP3    H117490   6.226   3.562   5.539  1.9436  0.0880  0.1323
 5842TIP3    H217491   6.240   3.664   5.428 -2.5735  0.4704 -0.2860
 5843TIP3   OH217492   3.153   1.646   5.821  0.0861 -0.1339  1.0886
 5843TIP3    H117493   3.190   1.724   5.862  0.9594 -0.1130  0.2949
 5843TIP3    H217494   3.224   1.611   5.768 -0.8537 -0.4405 -0.0079
 5844TIP3   OH217495   3.375   3.674   0.431 -0.5912 -0.2999 -0.3058
 5844TIP3    H117496   3.315   3.739   0.468 -0.5550 -0.3020 -0.2436
 5844TIP3    H217497   3.425   3.642   0.506  0.1523  0.3940 -0.4965
 5845TIP3   OH217498   1.512   4.508   1.199  0.8724  0.1698  0.6249
 5845TIP3    H117499   1.603   4.480   1.213  0.0919 -3.0141  0.0788
 5845TIP3    H217500   1.481   4.454   1.126 -0.7093  3.1363 -1.0585
 5846TIP3   OH217501   2.249   6.295   1.654  0.1901 -0.0896 -0.4333
 5846TIP3    H117502   2.266   6.217   1.706  0.0352  0.2239  0.0969
 5846TIP3    H217503   2.318   6.295   1.587  1.7764  0.6830  1.1259
 5847TIP3   OH217504   6.287   0.264   1.011  0.1319  0.1694 -0.5990
 5847TIP3    H117505   6.369   0.232   1.049  0.1921 -0.6826 -1.4214
 5847TIP3    H217506   6.230   0.279   1.086  0.7563 -0.0213 -0.0778
 5848TIP3   OH217507   4.168   3.691   2.571  0.6038  0.3314  0.4642
 5848TIP3    H117508   4.190   3.741   2.650 -1.8029  0.0658  1.3834
 5848TIP3    H217509   4.170   3.600   2.600 -0.2681  0.2317  0.2448
 5849TIP3   OH217510   6.045   2.071   5.667 -0.1825  0.3205 -0.3213
 5849TIP3    H117511   6.059   2.074   5.572 -1.5279  0.3770 -0.5437
 5849TIP3    H217512   6.063   2.161   5.696  0.7035  0.1868 -0.4454
 5850TIP3   OH217513   1.458   3.451   2.232  0.0200 -0.6505 -0.4646
 5850TIP3    H117514   1.390   3.490   2.177 -0.2883 -0.1381  0.2535
 5850TIP3    H217515   1.413   3.433   2.315  0.3519 -1.8347 -0.5245
 5851TIP3   OH217516   2.571   5.032   0.503  0.2106 -0.5641 -0.8218
 5851TIP3    H117517   2.605   4.948   0.533  1.4893  0.2509  0.1585
 5851TIP3    H217518   2.637   5.064   0.442  1.2692  0.9958  1.0168
 5852TIP3   OH217519   4.421   6.171   5.362 -0.6045  0.0414 -0.3715
 5852TIP3    H117520   4.417   6.077   5.376  0.0647 -0.2534 -1.9792
 5852TIP3    H217521   4.514   6.190   5.349 -0.7678  0.8846 -0.3859
 5853TIP3   OH217522   6.579   6.086   2.523 -0.5803  0.2286 -0.2320
 5853TIP3    H117523   6.574   6.179   2.501  2.8584  0.4238 -0.7126
 5853TIP3    H217524   6.560   6.082   2.617 -1.1251  1.3385 -0.2818
 5854TIP3   OH217525   2.868   3.841   4.678  0.2772 -0.3675 -1.2434
 5854TIP3    H117526   2.777   3.869   4.668 -0.0009 -0.4874  0.5955
 5854TIP3    H217527   2.917   3.923   4.688  0.2208 -0.3412 -1.1825
 5855TIP3   OH217528   6.207   5.537   4.051  0.0498 -0.3371  0.4492
 5855TIP3    H117529   6.192   5.522   3.957  0.3950  1.2999  0.0865
 5855TIP3    H217530   6.301   5.554   4.058 -0.1519  0.7245  0.8777
 5856TIP3   OH217531   4.470   3.708   5.845  0.1106 -0.1019 -0.1745
 5856TIP3    H117532   4.474   3.762   5.766  4.7831 -2.1561 -1.6774
 5856TIP3    H217533   4.427   3.627   5.817 -0.0283 -0.0755 -0.0406
 5857TIP3   OH217534   3.499   3.324   4.220 -0.0848 -0.8493 -0.1025
 5857TIP3    H117535   3.507   3.254   4.155  0.0975 -0.3673 -0.6091
 5857TIP3    H217536   3.445   3.390   4.178 -0.1321 -0.6170  0.3174
 5858TIP3   OH217537   0.050   2.441   3.951  0.7176 -0.2160 -0.0812
 5858TIP3    H117538  -0.023   2.489   3.990  1.5634 -0.2963  1.7318
 5858TIP3    H217539   0.010   2.389   3.881 -0.9347 -0.0832  0.7022
 5859TIP3   OH217540   2.635   2.722   5.670 -0.2349 -0.0884  0.5082
 5859TIP3    H117541   2.632   2.661   5.596 -0.9107 -0.4548  0.8330
 5859TIP3    H217542   2.596   2.803   5.636  0.4346  0.0929  0.1508
 5860TIP3   OH217543   2.492   5.981   3.907  0.2083  0.1359 -0.6703
 5860TIP3    H117544   2.534   5.971   3.992  0.8650  0.5401 -0.9446
 5860TIP3    H217545   2.451   5.896   3.890 -2.7171  0.9474  1.4955
 5861TIP3   OH217546   3.502   4.598   5.365 -0.1231 -0.4180  0.6849
 5861TIP3    H117547   3.483   4.507   5.388  0.1767 -0.2915  1.4572
 5861TIP3    H217548   3.453   4.649   5.430 -1.1973  0.0059 -0.4218
 5862TIP3   OH217549   1.636   2.446   0.805  0.2680 -0.0883 -0.4068
 5862TIP3    H117550   1.626   2.451   0.710  0.4670 -1.0466 -0.4890
 5862TIP3    H217551   1.696   2.517   0.827  0.0492  0.2753 -0.9715
 5863TIP3   OH217552   5.007   0.754   1.987 -0.0676  0.1334  0.2260
 5863TIP3    H117553   5.082   0.810   2.003  0.5725 -0.3861 -0.7921
 5863TIP3    H217554   4.977   0.728   2.074  0.0185  1.5029  0.6912
 5864TIP3   OH217555   3.559   6.565   4.174 -0.5270  0.2236  0.2168
 5864TIP3    H117556   3.632   6.533   4.121 -0.7737  0.1776 -0.1023
 5864TIP3    H217557   3.560   6.659   4.161 -0.0384  0.3111  0.8480
 5865TIP3   OH217558   4.450   5.258   5.033  0.1964  0.5497  0.2911
 5865TIP3    H117559   4.444   5.331   5.095 -0.2148  0.1333  0.7465
 5865TIP3    H217560   4.448   5.180   5.088 -0.6142  0.1615 -0.2744
 5866TIP3   OH217561   3.624   6.611   0.992 -0.0252 -0.1655  0.1114
 5866TIP3    H117562   3.595   6.522   1.013 -0.3854  0.1325  0.9538
 5866TIP3    H217563   3.653   6.646   1.076 -2.0765  1.3100  0.2866
 5867TIP3   OH217564   3.572   2.447   5.444  0.0688  0.0084  0.0306
 5867TIP3    H117565   3.515   2.517   5.477  0.0985  0.8170 -1.4978
 5867TIP3    H217566   3.591   2.473   5.353 -0.1019 -2.1044 -0.6672
 5868TIP3   OH217567   4.394   6.160   1.470 -0.4196 -0.4241  0.2886
 5868TIP3    H117568   4.391   6.248   1.430  0.4333 -1.0458 -1.2237
 5868TIP3    H217569   4.334   6.166   1.544 -1.3687  1.0693 -0.5408
 5869TIP3   OH217570   0.479   2.830   3.623 -0.1979 -0.5204 -0.2460
 5869TIP3    H117571   0.568   2.861   3.642 -1.0122  1.7382  0.2713
 5869TIP3    H217572   0.438   2.822   3.708 -1.2040  0.9207 -0.5619
 5870TIP3   OH217573   3.071   6.446   0.259 -0.4810  0.2019  0.1276
 5870TIP3    H117574   3.025   6.515   0.307 -0.2950  0.8096 -0.5644
 5870TIP3    H217575   3.002   6.400   0.212 -0.8294 -1.1426  1.8473
 5871TIP3   OH217576   1.972   5.044   4.428  0.4019 -0.1981 -0.3681
 5871TIP3    H117577   2.002   5.122   4.474  0.2673 -1.3284  1.7957
 5871TIP3    H217578   2.049   5.013   4.380  0.4907  1.1466 -1.1389
 5872TIP3   OH217579   2.342   0.901   3.732  0.0866 -0.6538 -0.4230
 5872TIP3    H117580   2.303   0.833   3.678 -2.5776 -0.5668  1.2439
 5872TIP3    H217581   2.422   0.925   3.686 -1.2863 -1.5931 -3.5183
 5873TIP3   OH217582   6.616   0.430   0.375  0.0942 -0.3792  0.2337
 5873TIP3    H117583   6.670   0.351   0.380 -0.0974 -0.4957  0.4715
 5873TIP3    H217584   6.650   0.486   0.445  0.1408 -0.3071  0.1529
 5874TIP3   OH217585   6.466   3.286   0.925  0.4033 -0.2583 -0.3702
 5874TIP3    H117586   6.551   3.274   0.967  0.8954 -1.3560 -1.6221
 5874TIP3    H217587   6.446   3.379   0.939  1.6172 -0.0691  0.2679
 5875TIP3   OH217588   3.292   4.380   1.398 -0.1690 -0.0562  0.5792
 5875TIP3    H117589   3.309   4.474   1.393 -0.2094 -0.1085 -2.9181
 5875TIP3    H217590   3.197   4.374   1.409 -0.2997  0.3274 -0.3158
 5876TIP3   OH217591   1.469   5.995   4.011 -0.5328  0.6595  0.1294
 5876TIP3    H117592   1.523   6.073   3.999  1.3932 -0.7745 -1.2342
 5876TIP3    H217593   1.459   5.987   4.105  0.2913  1.8623  0.3456
 5877TIP3   OH217594   2.305   3.324   3.703  0.2064  0.3852  0.2709
 5877TIP3    H117595   2.305   3.234   3.736 -1.5607 -0.2531 -1.2974
 5877TIP3    H217596   2.244   3.371   3.760 -2.6081 -0.6410 -1.7013
 5878TIP3   OH217597   6.239   5.017   0.006  0.4730  0.1983  0.0887
 5878TIP3    H117598   6.284   5.094   0.040  1.2840 -0.2615  0.0893
 5878TIP3    H217599   6.200   4.976   0.083 -0.9046  1.1773 -0.0436
 5879TIP3   OH217600   4.229   5.266   0.476 -0.5480  0.2477  0.6682
 5879TIP3    H117601   4.165   5.281   0.546 -1.5726  2.4535 -0.6164
 5879TIP3    H217602   4.190   5.197   0.422 -1.0374  0.3987  0.8230
 5880TIP3   OH217603   2.627   5.592   0.233  0.6197  0.3431  0.2553
 5880TIP3    H117604   2.722   5.592   0.237  0.7259 -0.2065 -1.4160
 5880TIP3    H217605   2.604   5.503   0.206 -0.3007  0.7835 -0.4861
 5881TIP3   OH217606   4.709   6.080   0.544 -0.3962 -0.3702 -0.7174
 5881TIP3    H117607   4.651   6.009   0.572  0.2174 -0.4499  0.3660
 5881TIP3    H217608   4.718   6.135   0.621 -0.4369  0.6129 -1.3994
 5882TIP3   OH217609   5.876   3.376   4.805 -0.0867  0.9353  0.2230
 5882TIP3    H117610   5.826   3.347   4.881 -0.3677  0.4484 -0.1393
 5882TIP3    H217611   5.811   3.378   4.734  0.0298  1.9726  0.1228
 5883TIP3   OH217612   1.589   5.495   3.612 -0.2136  0.4891  0.4581
 5883TIP3    H117613   1.513   5.487   3.671  0.6114 -0.6723  1.3990
 5883TIP3    H217614   1.585   5.417   3.557  0.4857  0.2344  0.7552
 5884TIP3   OH217615   3.929   1.228   4.156 -0.3451  0.6710  0.1041
 5884TIP3    H117616   3.857   1.224   4.093 -0.4445 -1.6877  0.2979
 5884TIP3    H217617   3.887   1.230   4.242 -0.2080 -0.3581  0.2068
 5885TIP3   OH217618   5.297   3.259   4.872 -0.5872  0.4484 -0.1851
 5885TIP3    H117619   5.250   3.206   4.936 -1.9998  0.6198 -1.0469
 5885TIP3    H217620   5.387   3.226   4.875 -0.6018  0.4625  1.8729
 5886TIP3   OH217621   0.763   3.615   4.658  0.1798 -0.1737  0.5226
 5886TIP3    H117622   0.815   3.546   4.699  1.0278 -0.0506 -0.3099
 5886TIP3    H217623   0.787   3.694   4.706  0.2759 -0.2246  0.5592
 5887TIP3   OH217624   0.471   0.629   1.339  0.2420  0.7727 -0.3011
 5887TIP3    H117625   0.547   0.668   1.296  0.8211  0.0179  0.0174
 5887TIP3    H217626   0.403   0.630   1.273  1.4031 -1.3218 -1.6389
 5888TIP3   OH217627   4.734   6.642   1.467 -0.7939 -0.0342 -0.3573
 5888TIP3    H117628   4.816   6.652   1.418  0.6695 -0.8792  1.7633
 5888TIP3    H217629   4.735   6.714   1.530 -0.3525 -1.4561  1.3568
 5889TIP3   OH217630   4.632   1.996   5.163  0.3195  0.2253  0.2786
 5889TIP3    H117631   4.643   2.031   5.075 -0.8270  2.2769  0.8875
 5889TIP3    H217632   4.713   1.947   5.180  1.5690  1.7172 -1.0565
 5890TIP3   OH217633   5.311   1.170   0.181 -0.4269  0.2518 -0.3265
 5890TIP3    H117634   5.333   1.221   0.103  0.5818  1.1901  0.5401
 5890TIP3    H217635   5.379   1.192   0.244 -0.5398 -1.4190  0.4300
 5891TIP3   OH217636   7.004   2.109   2.815 -0.2932 -0.2688  0.5636
 5891TIP3    H117637   6.996   2.026   2.768 -0.5983 -1.1333  2.0873
 5891TIP3    H217638   6.974   2.175   2.753 -3.8568 -1.6903  0.5802
 5892TIP3   OH217639   5.160   0.328   1.664  0.1859 -0.4912  0.4469
 5892TIP3    H117640   5.175   0.380   1.585 -1.5945 -0.4840  0.0749
 5892TIP3    H217641   5.065   0.333   1.679  0.4986 -0.2467  2.7604
 5893TIP3   OH217642   6.733   3.277   1.511  0.2956 -0.3023 -0.2655
 5893TIP3    H117643   6.757   3.188   1.535  1.3791  0.0108 -0.0972
 5893TIP3    H217644   6.688   3.312   1.588  1.3215 -0.1937  0.3139
 5894TIP3   OH217645   3.673   0.859   0.979  0.5389  0.1786  0.4551
 5894TIP3    H117646   3.629   0.776   0.964  0.4769  0.0830  1.1613
 5894TIP3    H217647   3.694   0.859   1.072  0.8998  0.7772  0.3787
 5895TIP3   OH217648   1.711   5.965   2.628 -0.2684 -0.3231  0.5666
 5895TIP3    H117649   1.724   5.870   2.625 -0.0212 -0.2880  0.4986
 5895TIP3    H217650   1.661   5.980   2.709 -0.6363 -0.5466  0.3808
 5896TIP3   OH217651   4.310   3.597   1.713  0.3606  0.1145  0.5011
 5896TIP3    H117652   4.263   3.530   1.664 -1.3811  1.8844 -0.4234
 5896TIP3    H217653   4.356   3.648   1.646  0.8621  0.4360  1.0775
 5897TIP3   OH217654   6.354   4.165   4.298 -0.0906  0.5165 -0.0252
 5897TIP3    H117655   6.390   4.102   4.361 -0.6367 -1.2030 -1.3452
 5897TIP3    H217656   6.411   4.241   4.306  0.2952  0.0922  2.0039
 5898TIP3   OH217657   5.852   3.867   3.920 -0.1884 -0.5452 -0.3666
 5898TIP3    H117658   5.888   3.870   4.009 -1.2242 -1.7574  0.1140
 5898TIP3    H217659   5.766   3.908   3.928  0.0522  0.1169 -1.0129
 5899TIP3   OH217660   0.539   5.446   1.738 -0.0162  1.0603  0.2206
 5899TIP3    H117661   0.623   5.469   1.699  0.4558 -1.7644 -0.6932
 5899TIP3    H217662   0.559   5.427   1.830  0.3699  0.4673  0.0224
 5900TIP3   OH217663   4.011   3.995   2.201  0.0997 -0.0058 -0.2135
 5900TIP3    H117664   4.056   3.920   2.163 -2.2492 -1.8462  0.3978
 5900TIP3    H217665   4.016   3.981   2.295 -0.4495  0.5461 -0.0981
 5901TIP3   OH217666   5.295   2.566   2.093  0.4597 -0.3138 -0.1288
 5901TIP3    H117667   5.372   2.588   2.039  0.3182 -0.7202 -0.5063
 5901TIP3    H217668   5.278   2.474   2.073  0.1293 -0.3415  0.2759
 5902TIP3   OH217669   0.331   2.750   1.577 -0.1885 -0.3474 -0.0034
 5902TIP3    H117670   0.393   2.769   1.507  1.0872  0.9151  1.3922
 5902TIP3    H217671   0.263   2.817   1.568 -0.5332 -0.7650 -0.5788
 5903TIP3   OH217672   0.126   0.427   1.710 -0.4665 -0.9416  0.0165
 5903TIP3    H117673   0.131   0.379   1.793  1.9221  0.8937  1.0898
 5903TIP3    H217674   0.032   0.431   1.690 -1.3691  0.1166  3.6807
 5904TIP3   OH217675   0.081   1.801   4.080  0.1056 -0.0138  0.0741
 5904TIP3    H117676   0.158   1.800   4.137 -0.6633  1.4486  1.2306
 5904TIP3    H217677   0.043   1.713   4.090  0.0829  0.1425  1.7448
 5905TIP3   OH217678   3.092   5.284   5.608 -0.3811 -0.3097 -0.2784
 5905TIP3    H117679   3.084   5.189   5.617  0.1500 -0.3007  0.3307
 5905TIP3    H217680   3.095   5.317   5.698 -2.0151  0.4290 -0.4611
 5906TIP3   OH217681   1.460   1.095   2.047  0.3220 -0.4393  0.6926
 5906TIP3    H117682   1.412   1.042   2.111  0.3479 -0.9983  0.2553
 5906TIP3    H217683   1.516   1.151   2.100 -1.8544  1.3002  1.3125
 5907TIP3   OH217684   4.006   0.225   3.234  0.1618 -0.1435  0.1607
 5907TIP3    H117685   4.009   0.130   3.220  1.8648 -0.0786 -0.1275
 5907TIP3    H217686   3.918   0.250   3.206 -0.2530 -1.6054  0.0438
 5908TIP3   OH217687   0.648   5.059   1.712  0.1537  0.2698 -0.1826
 5908TIP3    H117688   0.644   5.002   1.635 -1.6424 -1.3255  1.0048
 5908TIP3    H217689   0.663   5.146   1.676 -2.0217 -0.1771 -2.5092
 5909TIP3   OH217690   3.027   4.820   1.426  0.6173 -0.3225 -0.0047
 5909TIP3    H117691   3.010   4.732   1.458  0.2157 -0.2791 -0.1040
 5909TIP3    H217692   3.097   4.853   1.483 -1.5290  0.5596  2.3181
 5910TIP3   OH217693   1.004   5.858   3.129 -0.0607 -0.0286 -0.2543
 5910TIP3    H117694   1.043   5.832   3.045 -0.8398  0.9722 -0.9612
 5910TIP3    H217695   1.005   5.954   3.127 -2.0421  0.0468 -0.1066
 5911TIP3   OH217696   5.460   5.846   3.698  0.2254  0.3902  0.4104
 5911TIP3    H117697   5.458   5.794   3.617  0.8832  0.3845  0.3909
 5911TIP3    H217698   5.416   5.791   3.763 -1.5869  0.9853 -0.2651
 5912TIP3   OH217699   2.704   4.840   1.483 -0.0598 -0.4698 -0.9782
 5912TIP3    H117700   2.739   4.846   1.571  2.1113 -1.8257 -1.6745
 5912TIP3    H217701   2.716   4.927   1.446  1.6633 -0.6051 -0.8141
 5913TIP3   OH217702   0.512   1.397   2.109 -0.7036 -0.0909  0.4313
 5913TIP3    H117703   0.432   1.359   2.074 -0.7716 -0.4102  0.9258
 5913TIP3    H217704   0.570   1.406   2.034 -2.1583  2.6766 -0.4831
 5914TIP3   OH217705   1.859   6.102   2.988  0.1285  0.1413  0.4481
 5914TIP3    H117706   1.816   6.185   3.007 -2.4542 -1.0485  0.3891
 5914TIP3    H217707   1.873   6.103   2.893 -2.4098 -0.4445 -0.0292
 5915TIP3   OH217708   4.482   5.207   0.947 -0.4032  0.4215 -0.0510
 5915TIP3    H117709   4.464   5.153   0.870 -0.3704 -0.8493  0.8092
 5915TIP3    H217710   4.541   5.276   0.915 -1.7372  0.9442 -1.5294
 5916TIP3   OH217711   2.847   0.335   1.088  0.6082  0.0387 -0.0697
 5916TIP3    H117712   2.856   0.358   0.995  0.5463  2.0359  0.3741
 5916TIP3    H217713   2.868   0.416   1.135 -0.6858 -0.5497  1.6173
 5917TIP3   OH217714   5.943   5.211   5.280  0.6132 -0.0098  0.5121
 5917TIP3    H117715   5.972   5.302   5.289  1.9286 -0.4454  0.9638
 5917TIP3    H217716   5.931   5.181   5.370 -0.8773  0.0229  0.3390
 5918TIP3   OH217717   3.142   6.075   1.648 -0.2455 -0.2059  0.0164
 5918TIP3    H117718   3.135   6.169   1.660 -0.6863 -0.3889  1.3440
 5918TIP3    H217719   3.062   6.050   1.602 -0.8135 -0.1126  0.9274
 5919TIP3   OH217720   4.686   3.107   3.027  0.1758  0.0902 -0.3638
 5919TIP3    H117721   4.650   3.174   2.969 -0.1084  1.0626  0.8771
 5919TIP3    H217722   4.617   3.092   3.092 -0.4961 -2.7543 -1.5872
 5920TIP3   OH217723   6.119   3.645   3.803 -0.3978 -0.3877 -0.2978
 5920TIP3    H117724   6.181   3.648   3.730  1.8575 -2.4193  1.3475
 5920TIP3    H217725   6.033   3.644   3.763  0.6955  0.1225 -2.8238
 5921TIP3   OH217726   4.758   1.806   4.536  0.0830  0.1626  0.3880
 5921TIP3    H117727   4.748   1.772   4.625 -0.0210  3.2170  1.6667
 5921TIP3    H217728   4.674   1.847   4.517 -0.3304 -1.5060 -1.6926
 5922TIP3   OH217729   4.853   3.729   2.338 -0.7633  0.4652 -0.0960
 5922TIP3    H117730   4.819   3.670   2.271  0.1426  0.7326 -0.8187
 5922TIP3    H217731   4.945   3.704   2.347 -0.1089  2.3379 -1.0777
 5923TIP3   OH217732   5.332   2.331   3.095 -0.1174 -0.5472 -0.0136
 5923TIP3    H117733   5.313   2.387   3.019 -1.5523 -0.6146  0.2546
 5923TIP3    H217734   5.390   2.263   3.061  1.3927  0.8997 -0.4299
 5924TIP3   OH217735   0.026   0.225   1.056  0.4564  0.4107 -0.3994
 5924TIP3    H117736   0.088   0.158   1.027 -1.6367 -1.0066 -1.8570
 5924TIP3    H217737   0.023   0.215   1.151  1.6622 -0.1846 -0.4035
 5925TIP3   OH217738   4.796   0.102   3.674 -0.4029  0.0798 -0.1104
 5925TIP3    H117739   4.885   0.138   3.667 -0.1293 -0.4193  0.6221
 5925TIP3    H217740   4.799   0.046   3.752 -1.2680 -0.2230 -0.2808
 5926TIP3   OH217741   1.667   5.431   5.212 -0.3260 -0.3138 -0.3023
 5926TIP3    H117742   1.711   5.464   5.291 -0.8851  1.7996 -0.8007
 5926TIP3    H217743   1.737   5.426   5.147 -0.2893  0.2763 -0.3142
 5927TIP3   OH217744   2.284   1.968   0.148  0.2049  0.1128 -0.3814
 5927TIP3    H117745   2.320   1.948   0.234 -0.7111  0.6472  0.1485
 5927TIP3    H217746   2.316   1.898   0.091  1.1920  0.0039  0.2882
 5928TIP3   OH217747   6.999   2.967   2.924  0.2449 -0.2935  0.9137
 5928TIP3    H117748   6.953   3.025   2.984  0.9052 -0.0071  1.1605
 5928TIP3    H217749   7.045   2.905   2.982  0.8727 -0.0242  0.7182
 5929TIP3   OH217750   4.566   0.799   4.223 -0.1127  0.0747 -0.5042
 5929TIP3    H117751   4.561   0.875   4.281 -2.1076  1.1082 -1.9210
 5929TIP3    H217752   4.643   0.751   4.254 -1.2955  0.2611  3.3243
 5930TIP3   OH217753   3.204   2.315   1.909  0.2961  0.0902 -0.1937
 5930TIP3    H117754   3.283   2.354   1.947  0.0201  1.1771 -0.6784
 5930TIP3    H217755   3.132   2.354   1.957  0.0070  0.2957 -0.7774
 5931TIP3   OH217756   1.074   0.069   5.016 -0.0191 -0.3008  0.5118
 5931TIP3    H117757   1.120  -0.012   5.038 -1.0609 -1.1130 -0.2160
 5931TIP3    H217758   1.093   0.127   5.089  0.8969 -1.1338  0.9643
 5932TIP3   OH217759   1.342   1.859   2.637  0.0665  0.1385  0.0360
 5932TIP3    H117760   1.405   1.839   2.567  0.4406  0.4924  0.2698
 5932TIP3    H217761   1.305   1.774   2.661  0.2739 -0.0403 -0.2760
 5933TIP3   OH217762   2.493   4.153   3.415 -0.5421  0.0448 -0.1016
 5933TIP3    H117763   2.541   4.165   3.333 -2.5228  0.1994 -1.3191
 5933TIP3    H217764   2.464   4.062   3.413  0.4580 -0.3242  1.0783
 5934TIP3   OH217765   5.417   5.447   5.106 -0.4726  0.3848 -0.0741
 5934TIP3    H117766   5.422   5.496   5.024  2.1947 -1.7608 -1.3646
 5934TIP3    H217767   5.492   5.478   5.157  0.0211 -0.8570 -0.0229
 5935TIP3   OH217768   0.559   2.140   4.552  0.2639 -0.5578  0.0200
 5935TIP3    H117769   0.547   2.219   4.498  0.1772 -0.1346  0.6493
 5935TIP3    H217770   0.472   2.123   4.589  0.3578 -0.7604  0.1496
 5936TIP3   OH217771   6.118   4.795   4.084  0.4002  0.3464 -0.0080
 5936TIP3    H117772   6.107   4.827   4.173  0.5450  1.2884 -0.3142
 5936TIP3    H217773   6.168   4.714   4.093 -1.5521 -0.8204  0.9370
 5937TIP3   OH217774   4.158   0.117   0.433  0.1226 -0.0409  0.4155
 5937TIP3    H117775   4.253   0.113   0.426  0.0209 -0.4475 -0.8691
 5937TIP3    H217776   4.139   0.084   0.521  1.1660  0.1716  0.7336
 5938TIP3   OH217777   5.981   4.199   5.891 -0.5012 -0.3193 -0.0032
 5938TIP3    H117778   6.074   4.181   5.895 -0.6951 -1.4064  0.0244
 5938TIP3    H217779   5.949   4.142   5.821 -1.3514 -0.9692  0.8871
 5939TIP3   OH217780   3.564   0.044   2.217 -0.3245  0.1725 -0.2238
 5939TIP3    H117781   3.659   0.034   2.221 -0.4220 -0.7576  0.1305
 5939TIP3    H217782   3.537   0.051   2.308 -0.5004  1.6102 -0.3659
 5940TIP3   OH217783   3.135   5.224   4.125  0.5573 -0.3653 -0.3577
 5940TIP3    H117784   3.067   5.212   4.191 -1.5044 -1.3641 -2.5534
 5940TIP3    H217785   3.161   5.136   4.101 -0.1681 -0.0923 -2.2658
 5941TIP3   OH217786   2.687   6.147   1.165 -0.2000 -0.3674 -0.4874
 5941TIP3    H117787   2.641   6.184   1.090 -0.1527  0.0537 -0.3106
 5941TIP3    H217788   2.652   6.058   1.173 -0.5174 -0.2684 -0.7393
 5942TIP3   OH217789   1.885   5.967   0.612 -0.3862  0.3026  0.5225
 5942TIP3    H117790   1.963   5.962   0.557  1.4412  3.4624  2.5740
 5942TIP3    H217791   1.818   6.006   0.555  0.9068  1.8216 -0.0142
 5943TIP3   OH217792   3.143   5.018   5.242 -0.0019  0.1682 -0.0678
 5943TIP3    H117793   3.225   5.014   5.290  0.3392 -1.6388 -0.7152
 5943TIP3    H217794   3.085   5.071   5.297  1.4879  1.2237  0.5264
 5944TIP3   OH217795   6.744   4.541   0.876 -0.0005 -0.1184 -0.9198
 5944TIP3    H117796   6.718   4.483   0.948  1.7725 -1.1163 -1.0209
 5944TIP3    H217797   6.747   4.484   0.799 -0.4489  0.6190 -1.4985
 5945TIP3   OH217798   1.448   0.441   5.576 -0.2390 -0.5835  0.0427
 5945TIP3    H117799   1.490   0.356   5.586 -1.5076 -1.2228  0.1437
 5945TIP3    H217800   1.475   0.490   5.654  0.7743 -0.7506 -0.1849
 5946TIP3   OH217801   1.964   3.974   5.750 -0.4928 -0.3142  0.5191
 5946TIP3    H117802   1.956   3.991   5.844 -0.0672 -1.3598  0.7548
 5946TIP3    H217803   1.979   4.060   5.711 -2.1501  0.3384  1.2357
 5947TIP3   OH217804   0.632   1.805   0.659 -0.3985 -0.3385 -0.3267
 5947TIP3    H117805   0.631   1.876   0.724 -0.6601 -0.7542  0.1364
 5947TIP3    H217806   0.611   1.727   0.710  1.3397 -0.9897 -0.5516
 5948TIP3   OH217807   1.945   3.971   3.230  0.0789  0.2080 -0.2933
 5948TIP3    H117808   1.991   4.054   3.243  0.3630  0.3802 -2.0984
 5948TIP3    H217809   1.984   3.934   3.151 -0.6524 -1.2281 -0.0178
 5949TIP3   OH217810   0.948   0.596   1.328 -0.2547  0.8543  0.0910
 5949TIP3    H117811   0.999   0.557   1.400  1.3839  0.7811 -1.0444
 5949TIP3    H217812   0.886   0.654   1.372 -1.8812 -1.9372  1.7706
 5950TIP3   OH217813   1.031   0.054   1.539 -0.6084  0.4368 -0.0193
 5950TIP3    H117814   1.118   0.025   1.567 -0.3103  1.0339 -0.2971
 5950TIP3    H217815   0.978  -0.025   1.539 -0.1648  0.1325  0.5371
 5951TIP3   OH217816   6.020   1.378   3.679  0.3470 -0.0436  0.1192
 5951TIP3    H117817   6.015   1.387   3.774  0.4492  0.0935  0.1116
 5951TIP3    H217818   5.991   1.462   3.645  1.2239  0.2395  0.0498
 5952TIP3   OH217819   4.916   6.359   5.516 -0.4126 -0.1975  0.2213
 5952TIP3    H117820   4.958   6.375   5.601 -1.9438 -0.6236  1.1087
 5952TIP3    H217821   4.958   6.279   5.484  0.1986 -0.0251  0.5690
 5953TIP3   OH217822   2.196   6.634   4.575 -0.1034 -0.3225 -0.3341
 5953TIP3    H117823   2.262   6.663   4.511 -0.8131  0.4129 -0.7492
 5953TIP3    H217824   2.161   6.715   4.612  0.6996 -0.7397  1.4444
 5954TIP3   OH217825   5.411   6.385   0.806  0.5544 -0.2611 -0.4307
 5954TIP3    H117826   5.323   6.397   0.770  0.3636 -1.6276 -0.4518
 5954TIP3    H217827   5.462   6.347   0.734  0.6238 -1.3698  0.1761
 5955TIP3   OH217828   4.228   4.521   5.823 -0.1694  0.4329 -0.1585
 5955TIP3    H117829   4.321   4.499   5.822 -0.6180 -1.6138 -0.9261
 5955TIP3    H217830   4.198   4.496   5.910 -0.3502 -0.6001 -0.5057
 5956TIP3   OH217831   1.199   2.169   1.851  0.5506  0.1423  0.2939
 5956TIP3    H117832   1.291   2.194   1.861  0.2692  1.1613  0.4973
 5956TIP3    H217833   1.167   2.225   1.781  0.3143 -0.8825 -0.4329
 5957TIP3   OH217834   4.193   6.465   5.780  0.2973  0.5602 -0.2333
 5957TIP3    H117835   4.267   6.483   5.838  0.5590  0.1865 -0.4496
 5957TIP3    H217836   4.232   6.429   5.700  0.0043  1.6672 -0.9087
 5958TIP3   OH217837   0.791   4.515   2.727  0.2831 -0.0921 -0.3227
 5958TIP3    H117838   0.827   4.448   2.785 -1.8597 -0.3506  0.8267
 5958TIP3    H217839   0.840   4.595   2.747 -0.5138 -0.1279  2.0753
 5959TIP3   OH217840   0.790   4.861   4.095 -0.2273  0.3160 -0.2455
 5959TIP3    H117841   0.694   4.865   4.099 -0.4575 -2.3378 -1.1308
 5959TIP3    H217842   0.809   4.781   4.047  2.4662 -0.1416  1.3509
 5960TIP3   OH217843   2.917   1.596   3.348  0.0234  0.0609 -0.1871
 5960TIP3    H117844   2.892   1.664   3.285 -0.6652 -1.5996 -1.7786
 5960TIP3    H217845   2.998   1.559   3.314 -0.7214 -1.3249 -0.5246
 5961TIP3   OH217846   2.904   5.546   0.340 -0.0638  0.1760 -0.2389
 5961TIP3    H117847   2.848   5.531   0.416 -1.8425  1.0297 -1.3093
 5961TIP3    H217848   2.993   5.535   0.373 -0.8202 -0.4424  1.7234
 5962TIP3   OH217849   6.497   4.861   2.716 -0.5765  0.2620  0.0993
 5962TIP3    H117850   6.480   4.950   2.686 -2.0735 -0.5852 -1.7443
 5962TIP3    H217851   6.443   4.851   2.794  0.2614  1.2156  0.8251
 5963TIP3   OH217852   4.442   1.281   4.464  0.2148 -0.3455  0.0157
 5963TIP3    H117853   4.494   1.290   4.544 -0.2514  0.3594  0.2474
 5963TIP3    H217854   4.501   1.308   4.394  0.5873 -0.8537  0.1239
 5964TIP3   OH217855   4.198   3.850   1.556  0.1730  0.2520 -0.0527
 5964TIP3    H117856   4.202   3.922   1.618  1.0237  0.6779 -0.5741
 5964TIP3    H217857   4.290   3.829   1.538 -0.0328  0.5634 -1.6328
 5965TIP3   OH217858   5.619   4.855   3.328  0.2800  0.8040 -0.3865
 5965TIP3    H117859   5.626   4.760   3.324  0.9094  0.8965 -2.1998
 5965TIP3    H217860   5.679   4.881   3.399  0.1258 -0.1281  0.0949
 5966TIP3   OH217861   3.040   3.222   1.856 -0.0407  0.2603  0.0793
 5966TIP3    H117862   3.025   3.262   1.942  0.7473  0.3643  0.1747
 5966TIP3    H217863   3.027   3.128   1.871  0.9157  0.1822  0.5176
 5967TIP3   OH217864   0.833   1.523   1.095 -0.5612  0.0479  0.1679
 5967TIP3    H117865   0.833   1.475   1.012  1.1573  1.4786 -0.7489
 5967TIP3    H217866   0.897   1.476   1.149  0.2751  0.5942 -0.3146
 5968TIP3   OH217867   3.903   1.529   2.289 -0.5808  0.2052  0.1371
 5968TIP3    H117868   3.961   1.555   2.361  1.2496 -1.0160 -0.8034
 5968TIP3    H217869   3.871   1.611   2.253  0.5930  0.9416  0.7053
 5969TIP3   OH217870   0.346   3.290   1.514  0.0795 -0.4586  0.5907
 5969TIP3    H117871   0.348   3.264   1.606  1.2897 -1.4153  0.3173
 5969TIP3    H217872   0.291   3.224   1.472 -1.5221  0.6876  0.8010
 5970TIP3   OH217873   1.161   2.387   3.141 -0.5866 -0.3228  0.1443
 5970TIP3    H117874   1.225   2.317   3.154 -0.4895 -0.3937 -0.6718
 5970TIP3    H217875   1.081   2.342   3.116 -0.2871 -0.1085 -1.2529
 5971TIP3   OH217876   5.122   2.288   1.584  0.6964 -0.2894 -0.0312
 5971TIP3    H117877   5.101   2.324   1.670  0.6613  1.3662 -0.6958
 5971TIP3    H217878   5.137   2.365   1.529 -0.0518 -1.2989 -1.7059
 5972TIP3   OH217879   0.589   1.107   3.400 -0.2848  0.4456  0.5596
 5972TIP3    H117880   0.504   1.105   3.356 -1.4969  1.1560  2.6877
 5972TIP3    H217881   0.640   1.040   3.357 -2.5498 -1.2820  0.3683
 5973TIP3   OH217882   4.091   1.945   2.105  0.1185 -0.1169 -0.1531
 5973TIP3    H117883   4.149   1.938   2.181 -0.2047  0.2670  0.1368
 5973TIP3    H217884   4.149   1.962   2.031  0.2795  1.9138  0.3783
 5974TIP3   OH217885   5.296   3.800   3.666 -0.4548  0.4206  0.2430
 5974TIP3    H117886   5.356   3.784   3.593 -0.3558 -1.8001  0.7559
 5974TIP3    H217887   5.249   3.880   3.640 -1.1937 -0.8374 -2.7803
 5975TIP3   OH217888   5.587   4.171   1.386 -0.9339 -0.2735 -0.1812
 5975TIP3    H117889   5.592   4.090   1.435  2.2107  0.7520  1.4697
 5975TIP3    H217890   5.589   4.240   1.452 -0.5861  1.1614 -1.6124
 5976TIP3   OH217891   3.108   0.462   1.088 -0.4589  0.2322 -0.2647
 5976TIP3    H117892   3.064   0.485   1.006 -2.3549 -1.0683  0.3340
 5976TIP3    H217893   3.048   0.492   1.157  0.8824  0.8831  0.6738
 5977TIP3   OH217894   0.583   6.720   3.116 -0.1834 -0.0180  0.1160
 5977TIP3    H117895   0.576   6.626   3.101  1.3042 -0.0390 -0.6370
 5977TIP3    H217896   0.555   6.760   3.033  1.2681  0.1045 -0.3462
 5978TIP3   OH217897   1.381   4.597   3.136 -0.2555 -0.3684 -0.1837
 5978TIP3    H117898   1.374   4.507   3.103  0.7918  0.1187 -1.8548
 5978TIP3    H217899   1.406   4.587   3.227  0.6489 -1.8025 -0.5492
 5979TIP3   OH217900   2.424   4.516   3.149  0.1610 -0.3337 -0.2631
 5979TIP3    H117901   2.489   4.580   3.118 -0.0180 -0.2230 -0.4068
 5979TIP3    H217902   2.341   4.545   3.111 -0.3885  0.7759  1.6571
 5980TIP3   OH217903   6.577   6.052   5.393 -0.4296  0.3651  0.1189
 5980TIP3    H117904   6.627   5.990   5.446  0.0665  0.4547 -0.2288
 5980TIP3    H217905   6.515   5.999   5.344  0.0146  0.1351 -0.2000
 5981TIP3   OH217906   5.802   4.745   0.252  0.3355  0.1136 -0.0881
 5981TIP3    H117907   5.710   4.767   0.245  0.5862  1.5063  0.5740
 5981TIP3    H217908   5.811   4.704   0.338  0.4270  0.5323  0.1043
 5982TIP3   OH217909   2.395   5.137   3.470  0.5101  0.0559  0.1467
 5982TIP3    H117910   2.380   5.119   3.378 -1.1521  0.1949  0.3526
 5982TIP3    H217911   2.463   5.075   3.497 -0.1484 -1.0996 -0.7840
 5983TIP3   OH217912   6.729   1.342   3.103  0.1075 -0.5452 -0.0504
 5983TIP3    H117913   6.798   1.395   3.065 -0.6869 -0.4713 -1.5072
 5983TIP3    H217914   6.755   1.252   3.084  0.1616 -0.5485  0.0419
 5984TIP3   OH217915   2.903   2.519   0.765 -0.3670 -0.0242 -0.0726
 5984TIP3    H117916   2.927   2.498   0.674  0.1542 -2.5652  0.5715
 5984TIP3    H217917   2.808   2.534   0.762 -0.2310  0.7703 -1.1378
 5985TIP3   OH217918   6.118   3.404   1.294 -0.6378 -0.2538 -0.4671
 5985TIP3    H117919   6.159   3.490   1.309 -0.6005 -0.3374 -0.0768
 5985TIP3    H217920   6.184   3.354   1.247 -0.7867  0.0429 -0.9979
 5986TIP3   OH217921   6.134   6.203   3.112 -0.6633 -0.1223  0.0507
 5986TIP3    H117922   6.215   6.207   3.061 -0.9567  0.9397 -0.3672
 5986TIP3    H217923   6.092   6.121   3.085  0.2112 -0.6156  0.1791
 5987TIP3   OH217924   0.040   6.688   0.562  0.1922 -0.5148 -0.5081
 5987TIP3    H117925  -0.054   6.678   0.547 -0.0509  0.6891  0.1049
 5987TIP3    H217926   0.051   6.676   0.657  0.1407  2.5147 -0.0071
 5988TIP3   OH217927   5.290   5.303   1.521  0.8749 -0.5220  0.4105
 5988TIP3    H117928   5.363   5.331   1.466  0.2155 -0.9389 -0.7070
 5988TIP3    H217929   5.212   5.319   1.468  0.1053  0.2960  1.7418
 5989TIP3   OH217930   7.099   0.920   4.808 -0.3875 -0.3020  0.5755
 5989TIP3    H117931   7.090   0.898   4.901 -0.1084  2.2002  1.2760
 5989TIP3    H217932   7.122   1.013   4.808 -0.1126 -0.3019 -2.0113
 5990TIP3   OH217933   1.127   0.791   5.541 -0.0623 -0.3935  0.3835
 5990TIP3    H117934   1.115   0.819   5.631 -0.4905 -1.7408  0.7668
 5990TIP3    H217935   1.123   0.695   5.544 -0.0205 -0.4696 -1.0488
 5991TIP3   OH217936   3.902   0.141   1.790  0.4972 -0.1276  0.1597
 5991TIP3    H117937   3.820   0.190   1.776  1.3763  1.6580  0.9301
 5991TIP3    H217938   3.969   0.195   1.748  1.3870 -1.2515  0.0891
 5992TIP3   OH217939   6.054   0.240   2.839  0.8359  0.2032 -0.0803
 5992TIP3    H117940   5.991   0.272   2.775 -1.2334  0.0671  1.7519
 5992TIP3    H217941   6.084   0.156   2.804 -1.0673 -0.3821 -0.4249
 5993TIP3   OH217942   0.432   3.543   5.170  0.3298 -0.1195 -0.0902
 5993TIP3    H117943   0.445   3.550   5.264 -1.9573 -2.8127  0.5575
 5993TIP3    H217944   0.340   3.565   5.157  0.5697  0.0843 -1.7227
 5994TIP3   OH217945   6.918   2.374   4.157  0.6094  0.0334 -0.2863
 5994TIP3    H117946   6.968   2.445   4.116 -1.2974  1.3181 -0.5667
 5994TIP3    H217947   6.861   2.342   4.087 -1.1522  0.7732  0.7241
 5995TIP3   OH217948   6.372   0.841   0.279  0.0976  0.0323  0.3251
 5995TIP3    H117949   6.280   0.857   0.298  0.0817  2.8884 -1.4865
 5995TIP3    H217950   6.416   0.921   0.307  1.9385 -1.0164  0.5520
 5996TIP3   OH217951   5.183   0.893   2.888 -0.1415  0.6851 -0.2350
 5996TIP3    H117952   5.238   0.863   2.960 -0.6035 -0.4453 -0.3375
 5996TIP3    H217953   5.095   0.899   2.926 -0.5117 -0.5771 -0.8658
 5997TIP3   OH217954   0.759   5.412   0.226  0.2687  0.7996  0.3525
 5997TIP3    H117955   0.673   5.379   0.251  0.0332  0.6004 -0.6988
 5997TIP3    H217956   0.779   5.369   0.143  1.8077  0.1086  1.0208
 5998TIP3   OH217957   5.644   0.565   1.940 -0.1533 -0.6672 -0.0782
 5998TIP3    H117958   5.596   0.515   2.007  0.2066 -1.0056 -0.0676
 5998TIP3    H217959   5.622   0.656   1.957  2.2055 -0.4619  2.3495
 5999TIP3   OH217960   0.663   5.692   0.468 -0.8239  0.0617 -0.9187
 5999TIP3    H117961   0.754   5.662   0.471 -1.6195 -2.5254 -0.3541
 5999TIP3    H217962   0.645   5.724   0.556 -1.2060 -2.0495 -0.1699
 6000TIP3   OH217963   2.084   3.654   1.182 -0.5055  0.3250 -0.4982
 6000TIP3    H117964   2.044   3.719   1.241 -0.9300  0.3628 -0.8216
 6000TIP3    H217965   2.098   3.701   1.100  0.7980  0.4871 -0.2021
 6001TIP3   OH217966   3.319   4.936   1.590 -0.4795 -0.0901  0.1463
 6001TIP3    H117967   3.390   4.945   1.527  0.2090  1.5361  1.0781
 6001TIP3    H217968   3.300   4.842   1.592  0.6227 -0.3672 -1.2237
 6002TIP3   OH217969   4.491   6.756   0.665 -0.0728  0.4061  0.0910
 6002TIP3    H117970   4.582   6.756   0.695 -0.3082  0.8691  0.8591
 6002TIP3    H217971   4.455   6.838   0.699 -1.1427 -0.3860  0.9528
 6003TIP3   OH217972   5.440   3.356   2.880  0.1653 -0.8693 -0.2333
 6003TIP3    H117973   5.453   3.269   2.917 -1.5852 -0.5510  1.3168
 6003TIP3    H217974   5.409   3.409   2.954 -1.3532  0.3743 -1.6688
 6004TIP3   OH217975   0.360   5.961   1.353 -0.3336  0.1477 -0.3647
 6004TIP3    H117976   0.322   5.874   1.362  0.2715 -0.2509 -1.4932
 6004TIP3    H217977   0.358   5.997   1.442 -2.4761 -0.2012 -0.2125
 6005TIP3   OH217978   1.000   0.736   4.641  0.4760  0.3819  0.4431
 6005TIP3    H117979   0.907   0.713   4.653  0.7096 -1.2648 -0.6294
 6005TIP3    H217980   1.021   0.706   4.553  2.3513 -0.3665  1.1097
 6006TIP3   OH217981   4.188   0.855   2.328 -0.2167 -0.3703 -0.1022
 6006TIP3    H117982   4.099   0.885   2.348  0.1471  1.5715 -1.1677
 6006TIP3    H217983   4.175   0.770   2.286 -1.6042 -0.0188 -0.4590
 6007TIP3   OH217984   0.312   4.469   1.847 -0.3611 -0.1657  0.1734
 6007TIP3    H117985   0.326   4.555   1.886 -0.2679  2.1784 -4.3535
 6007TIP3    H217986   0.394   4.422   1.862  0.9386  1.8913 -0.1112
 6008TIP3   OH217987   5.876   1.051   2.323  0.1254  0.2177 -0.6332
 6008TIP3    H117988   5.814   1.056   2.250 -0.3782  2.2548 -0.1155
 6008TIP3    H217989   5.830   1.000   2.390 -0.8845  1.4219 -0.3835
 6009TIP3   OH217990   0.480   6.117   2.210  0.5441  0.0410  0.2730
 6009TIP3    H117991   0.416   6.046   2.207  0.0734  0.4054  1.3482
 6009TIP3    H217992   0.449   6.174   2.280  0.8748  1.3397 -0.5959
 6010TIP3   OH217993   4.524   0.186   1.647 -0.9567  0.3206  0.2462
 6010TIP3    H117994   4.492   0.105   1.688  1.3992 -0.6256  0.3900
 6010TIP3    H217995   4.540   0.161   1.556  1.5913  0.0027  0.7236
 6011TIP3   OH217996   4.903   4.725   5.153 -0.8094 -0.0899  0.6484
 6011TIP3    H117997   4.932   4.787   5.220 -0.4844  0.7203 -0.2242
 6011TIP3    H217998   4.921   4.639   5.191  1.0817  0.3626  0.8869
 6012TIP3   OH217999   2.770   6.405   4.170 -0.5262 -0.3847  0.3518
 6012TIP3    H118000   2.811   6.474   4.222 -2.4878  0.7988  0.4201
 6012TIP3    H218001   2.762   6.442   4.083 -1.8228 -0.4131  0.4483
 6013TIP3   OH218002   1.195   6.212   4.956 -0.3034 -0.5481 -0.6795
 6013TIP3    H118003   1.209   6.297   4.914 -0.6991  0.0597  0.3716
 6013TIP3    H218004   1.168   6.154   4.885 -2.8077  0.8936 -1.0207
 6014TIP3   OH218005   5.784   0.600   5.640 -0.9784  0.3714  0.0314
 6014TIP3    H118006   5.857   0.538   5.639  0.3306  1.7313  2.3601
 6014TIP3    H218007   5.822   0.682   5.607 -1.9599  0.6417 -0.4607
 6015TIP3   OH218008   0.134   4.915   4.264 -0.3279 -0.0475 -0.4706
 6015TIP3    H118009   0.194   4.902   4.337  1.1311  1.1965 -1.3750
 6015TIP3    H218010   0.063   4.853   4.279  0.1914 -0.1681  1.7006
 6016TIP3   OH218011   3.216   1.187   5.172  0.0187 -0.4493  0.0245
 6016TIP3    H118012   3.260   1.131   5.108  1.2267 -0.1124  0.5364
 6016TIP3    H218013   3.217   1.274   5.134  0.6086 -0.2756  0.4137
 6017TIP3   OH218014   6.375   0.689   4.358  0.5775 -0.4588 -0.7134
 6017TIP3    H118015   6.311   0.684   4.428 -1.0102  0.2776 -2.0549
 6017TIP3    H218016   6.451   0.732   4.398  0.2633 -1.3196  0.8877
 6018TIP3   OH218017   4.806   6.333   1.424 -0.4169  0.0472 -0.1863
 6018TIP3    H118018   4.842   6.414   1.461 -0.1084  0.1520 -0.7090
 6018TIP3    H218019   4.879   6.272   1.425 -0.3838  0.0800 -0.7113
 6019TIP3   OH218020   3.744   2.130   2.389  0.4415 -0.0625  0.1946
 6019TIP3    H118021   3.836   2.146   2.369  0.6218 -1.8863 -0.6412
 6019TIP3    H218022   3.708   2.216   2.410  2.0777  0.8340 -0.5562
 6020TIP3   OH218023   3.797   2.300   3.174 -0.1972 -0.2251 -0.2786
 6020TIP3    H118024   3.872   2.269   3.123 -0.9885 -1.2146 -0.8870
 6020TIP3    H218025   3.723   2.296   3.113 -0.8454  0.2593  0.4509
 6021TIP3   OH218026   5.444   4.092   4.442  0.3499 -0.1560 -0.7023
 6021TIP3    H118027   5.392   4.084   4.362 -1.3174  3.5141 -0.1754
 6021TIP3    H218028   5.471   4.183   4.445  2.4255 -0.7141  1.7636
 6022TIP3   OH218029   3.054   1.301   2.697  0.3240 -0.8142  0.2416
 6022TIP3    H118030   3.105   1.371   2.657 -0.6867  0.8944  1.7896
 6022TIP3    H218031   3.098   1.284   2.780  1.5563 -3.3039 -0.8016
 6023TIP3   OH218032   1.683   1.158   5.476 -1.2094  0.0761  0.6865
 6023TIP3    H118033   1.604   1.136   5.525 -1.7293  0.7692  0.1813
 6023TIP3    H218034   1.699   1.082   5.421 -1.0635 -0.3912  1.3628
 6024TIP3   OH218035   4.285   3.860   3.161 -0.0142 -0.1893 -0.3370
 6024TIP3    H118036   4.356   3.813   3.117 -1.0924 -0.8598 -1.3956
 6024TIP3    H218037   4.297   3.952   3.135  1.0870 -0.1044  0.3759
 6025TIP3   OH218038   0.207   0.139   2.878  0.3800  0.1777  0.0680
 6025TIP3    H118039   0.217   0.178   2.792 -0.6238  0.0138 -0.1437
 6025TIP3    H218040   0.261   0.060   2.876  1.8852  1.1724  0.2709
 6026TIP3   OH218041   3.528   5.295   1.367 -0.2224  0.1928 -0.5573
 6026TIP3    H118042   3.615   5.290   1.326 -0.1882  0.6013 -0.5383
 6026TIP3    H218043   3.540   5.257   1.454  0.2239  1.3286 -0.0996
 6027TIP3   OH218044   6.399   0.237   5.804  0.5524 -0.3404  0.0155
 6027TIP3    H118045   6.343   0.214   5.730  0.2020 -1.8544  0.7096
 6027TIP3    H218046   6.371   0.179   5.875  2.4356 -0.5663  0.6389
 6028TIP3   OH218047   7.083   0.723   2.119 -0.2263  0.0966 -0.1743
 6028TIP3    H118048   7.102   0.655   2.054 -0.9265 -0.6556  0.3849
 6028TIP3    H218049   7.089   0.805   2.071 -0.1820 -0.4142 -1.0576
 6029TIP3   OH218050   0.858   4.253   5.229  0.1893  0.1520 -0.0949
 6029TIP3    H118051   0.915   4.211   5.165 -2.4565 -2.6425 -0.8215
 6029TIP3    H218052   0.781   4.197   5.234 -2.7904  3.8927  0.4566
 6030TIP3   OH218053   1.727   1.817   4.349  0.1846  0.3774 -0.0292
 6030TIP3    H118054   1.680   1.892   4.385  0.1852  0.8454 -0.9794
 6030TIP3    H218055   1.661   1.748   4.344 -0.1453  0.7137 -0.3673
 6031TIP3   OH218056   6.909   1.164   2.960  0.1760  0.0809 -0.3336
 6031TIP3    H118057   7.003   1.146   2.963  0.2630  0.6211  0.7211
 6031TIP3    H218058   6.886   1.155   2.868  1.6827  2.1232 -0.9713
 6032TIP3   OH218059   6.448   2.363   1.218  0.3886  0.1443 -0.0894
 6032TIP3    H118060   6.543   2.353   1.226  0.2794 -0.1162  1.1551
 6032TIP3    H218061   6.413   2.316   1.294 -0.7333  0.3259 -0.4746
 6033TIP3   OH218062   3.987   4.312   0.543  0.3359  0.5653  0.5029
 6033TIP3    H118063   4.035   4.281   0.466  0.5107  1.5539  0.1900
 6033TIP3    H218064   3.908   4.354   0.507 -0.1249  0.0873  0.9346
 6034TIP3   OH218065   0.034   4.826   2.073 -0.5545  0.0693  0.0679
 6034TIP3    H118066   0.004   4.824   1.982  3.0923 -1.8995 -1.3227
 6034TIP3    H218067   0.097   4.898   2.076 -0.9242  0.3665  1.1812
 6035TIP3   OH218068   5.708   4.636   5.795  0.5731  0.1195  0.1109
 6035TIP3    H118069   5.713   4.731   5.796  0.3976  0.1275  0.5817
 6035TIP3    H218070   5.764   4.608   5.867  2.8494 -0.2651 -1.7089
 6036TIP3   OH218071   5.405   1.719   1.720  0.6782  0.6958  0.0824
 6036TIP3    H118072   5.448   1.801   1.695  0.5888  0.4562 -0.8832
 6036TIP3    H218073   5.324   1.718   1.669  1.0404 -0.3521 -0.5012
 6037TIP3   OH218074   4.057   1.799   3.684 -0.0929  0.4822 -0.3015
 6037TIP3    H118075   3.978   1.778   3.734  0.0531 -0.2132 -0.3615
 6037TIP3    H218076   4.072   1.892   3.702  1.0627 -0.1568  2.5664
 6038TIP3   OH218077   4.828   1.482   4.625 -0.4681 -0.0669  0.1996
 6038TIP3    H118078   4.746   1.463   4.671 -0.2644 -1.2639  0.1031
 6038TIP3    H218079   4.896   1.459   4.688 -0.1959 -0.9154 -0.3853
 6039TIP3   OH218080   5.623   3.657   4.883 -0.4395  0.3499 -0.0727
 6039TIP3    H118081   5.688   3.661   4.953 -0.2322  1.0632 -0.2970
 6039TIP3    H218082   5.667   3.696   4.807 -1.4091  1.6836  0.0103
 6040TIP3   OH218083   4.071   0.895   1.985  0.3522  0.4963 -1.1119
 6040TIP3    H118084   4.117   0.865   2.063 -2.1384 -1.7670 -0.3546
 6040TIP3    H218085   4.019   0.969   2.015 -0.9132 -0.6241 -0.4549
 6041TIP3   OH218086   5.919   2.183   3.531  0.0743 -0.2527  0.3654
 6041TIP3    H118087   5.963   2.253   3.579 -0.2191  0.4222 -0.3119
 6041TIP3    H218088   5.885   2.125   3.598 -0.3781  0.6960  0.9753
 6042TIP3   OH218089   3.538   3.897   4.653 -0.3177 -0.0431 -1.1534
 6042TIP3    H118090   3.629   3.918   4.674 -0.1463 -1.1955 -0.6704
 6042TIP3    H218091   3.537   3.886   4.558 -0.1879  0.9989 -1.2897
 6043TIP3   OH218092   0.906   6.546   4.617 -0.3959 -0.4131  0.5330
 6043TIP3    H118093   0.846   6.517   4.548 -1.7368 -0.4830  1.6787
 6043TIP3    H218094   0.902   6.476   4.683 -0.3257  0.3666  1.3774
 6044TIP3   OH218095   2.009   0.044   1.103  0.0653 -0.6220 -0.4681
 6044TIP3    H118096   2.087   0.004   1.140  0.3138  0.2812  0.0293
 6044TIP3    H218097   1.936  -0.002   1.143  0.3432 -0.6035  0.0690
 6045TIP3   OH218098   1.431   3.222   5.029 -0.5442  0.3595 -0.0520
 6045TIP3    H118099   1.520   3.246   5.003 -0.2116  0.1710  0.8792
 6045TIP3    H218100   1.401   3.295   5.083  0.3173 -1.0045  2.4377
 6046TIP3   OH218101   2.777   2.265   2.562  0.3090 -0.0189 -0.5349
 6046TIP3    H118102   2.814   2.318   2.491  0.9726 -0.4120 -0.4935
 6046TIP3    H218103   2.850   2.211   2.592 -0.5532 -1.5850 -1.1552
 6047TIP3   OH218104   3.496   0.638   1.005 -0.2915  0.0201  0.0405
 6047TIP3    H118105   3.403   0.659   0.997 -0.2747  0.6200  1.2369
 6047TIP3    H218106   3.498   0.545   1.025 -0.5958 -0.1052 -0.4779
 6048TIP3   OH218107   6.475   6.817   4.896  0.6538  0.1403  0.5312
 6048TIP3    H118108   6.476   6.818   4.800  2.5414 -0.5672  0.4950
 6048TIP3    H218109   6.498   6.727   4.918  2.3491  0.8062  1.6153
 6049TIP3   OH218110   0.486   4.678   3.138  0.5010  0.0964 -0.2785
 6049TIP3    H118111   0.394   4.660   3.121  0.9343 -3.4724  0.2965
 6049TIP3    H218112   0.485   4.740   3.211 -1.4615 -0.1600 -0.0276
 6050TIP3   OH218113   5.086   5.991   2.132  0.1653  0.4200  0.4073
 6050TIP3    H118114   5.022   5.970   2.201 -1.0651  4.3336  0.6973
 6050TIP3    H218115   5.050   5.949   2.053 -0.6689 -0.6127  1.2920
 6051TIP3   OH218116   3.768   1.843   5.729 -0.4993 -0.0540 -0.1287
 6051TIP3    H118117   3.862   1.858   5.736 -0.7512  1.4720  0.4911
 6051TIP3    H218118   3.753   1.763   5.781  0.3896 -0.0581  0.1447
 6052TIP3   OH218119   3.869   6.069   2.087  1.0137  0.2470  0.5445
 6052TIP3    H118120   3.855   6.017   2.008 -2.6861  0.4710  0.9040
 6052TIP3    H218121   3.853   6.008   2.159  0.3520  0.9825  1.0356
 6053TIP3   OH218122   2.690   4.037   5.532  0.1942  0.1119  0.3589
 6053TIP3    H118123   2.662   4.089   5.607  0.6300  1.6819 -0.5157
 6053TIP3    H218124   2.631   4.063   5.462  1.0013  0.1343 -0.3321
 6054TIP3   OH218125   0.861   4.667   3.908 -0.0639  0.2416 -0.0212
 6054TIP3    H118126   0.820   4.658   3.822 -0.3729 -0.3528  0.1884
 6054TIP3    H218127   0.883   4.578   3.935 -0.4146  0.3759  0.7318
 6055TIP3   OH218128   2.650   2.566   1.276  0.4007  0.0522  0.0530
 6055TIP3    H118129   2.672   2.473   1.278 -0.4383 -0.1544  0.3589
 6055TIP3    H218130   2.630   2.584   1.185  0.3199 -0.1319  0.0334
 6056TIP3   OH218131   1.401   0.235   4.095  0.2146 -0.1409  0.1096
 6056TIP3    H118132   1.335   0.213   4.030 -0.6230  0.3031  0.7831
 6056TIP3    H218133   1.385   0.327   4.116  2.8974  0.8819 -1.7842
 6057TIP3   OH218134   4.237   1.642   0.639 -0.1317 -0.6097  0.4018
 6057TIP3    H118135   4.306   1.630   0.573  0.1167  0.7541  0.3840
 6057TIP3    H218136   4.285   1.652   0.721 -0.4447 -2.4381  0.8538
 6058TIP3   OH218137   5.053   0.251   4.715 -0.3953 -0.4542 -0.3533
 6058TIP3    H118138   5.086   0.340   4.723  1.7946 -1.1800 -0.5355
 6058TIP3    H218139   5.086   0.220   4.630 -0.9666 -1.4742 -0.2218
 6059TIP3   OH218140   1.308   2.442   4.499 -0.3733 -0.5225 -0.1687
 6059TIP3    H118141   1.214   2.462   4.506 -0.0906  1.0449 -0.5707
 6059TIP3    H218142   1.350   2.497   4.565  0.3368 -0.7060 -0.4575
 6060TIP3   OH218143   1.813   5.271   4.213  0.1827  0.5182  0.1209
 6060TIP3    H118144   1.861   5.228   4.142 -1.3113 -0.4490 -0.3551
 6060TIP3    H218145   1.815   5.208   4.285 -1.2837 -0.0340 -0.2856
 6061TIP3   OH218146   5.929   3.862   0.201 -0.3314 -0.6447 -0.1203
 6061TIP3    H118147   6.006   3.910   0.169 -1.5077 -0.4100 -2.9442
 6061TIP3    H218148   5.958   3.821   0.282  2.7019 -0.4032 -0.9592
 6062TIP3   OH218149   3.190   2.274   2.865  0.5224  0.2835  0.0165
 6062TIP3    H118150   3.257   2.342   2.857 -0.2264  0.8503 -3.1358
 6062TIP3    H218151   3.178   2.242   2.775 -1.0621 -2.1669  0.9888
 6063TIP3   OH218152   3.596   0.083   1.315  0.2425  0.4607 -0.5785
 6063TIP3    H118153   3.647   0.149   1.267  2.1387 -0.2351  0.3549
 6063TIP3    H218154   3.539   0.134   1.372  1.3895  1.3372 -0.1651
 6064TIP3   OH218155   6.800   0.763   1.152 -0.3832  0.1993  0.1781
 6064TIP3    H118156   6.792   0.858   1.141  1.4116  0.4766  0.8913
 6064TIP3    H218157   6.788   0.750   1.246 -0.1059 -0.2160  0.1544
 6065TIP3   OH218158   5.279   5.608   2.907  0.0512  0.2265 -0.1646
 6065TIP3    H118159   5.261   5.574   2.994 -1.4552  0.8207 -0.2190
 6065TIP3    H218160   5.303   5.700   2.921 -0.0384  0.2822 -0.3685
 6066TIP3   OH218161   5.008   5.356   4.021 -0.3058 -0.3350  0.4647
 6066TIP3    H118162   5.102   5.369   4.005 -0.1270 -3.4747 -1.9182
 6066TIP3    H218163   4.965   5.426   3.971  0.7498 -0.8241 -1.2210
 6067TIP3   OH218164   0.341   1.682   3.356  0.2676  0.5853  0.2556
 6067TIP3    H118165   0.358   1.771   3.325 -0.4700  0.9342  0.8252
 6067TIP3    H218166   0.252   1.686   3.393  0.4360 -0.2545  0.7730
 6068TIP3   OH218167   1.478   5.747   3.858 -0.3696  0.4442  0.2772
 6068TIP3    H118168   1.566   5.761   3.822 -0.7286  2.6718  0.1693
 6068TIP3    H218169   1.445   5.835   3.876 -2.0636 -0.4149  1.6075
 6069TIP3   OH218170   6.090   6.155   3.578  0.3076 -0.2289  0.9275
 6069TIP3    H118171   6.011   6.207   3.564 -0.4711 -1.8181 -1.0495
 6069TIP3    H218172   6.078   6.116   3.665  0.6627  2.3329  2.2162
 6070TIP3   OH218173   2.337   5.235   1.875 -0.0794  0.1419  0.0977
 6070TIP3    H118174   2.416   5.210   1.921 -1.1438 -2.9026  0.4996
 6070TIP3    H218175   2.365   5.248   1.784  1.2156  1.3993  0.6520
 6071TIP3   OH218176   3.227   6.474   0.667  0.3658 -0.2363 -0.1741
 6071TIP3    H118177   3.240   6.402   0.605  0.6510  0.1682 -0.5978
 6071TIP3    H218178   3.285   6.453   0.740 -1.1117 -1.5115  0.6843
 6072TIP3   OH218179   1.396   4.765   0.100 -0.4994  0.5432  0.3245
 6072TIP3    H118180   1.421   4.673   0.107  0.1685  0.7805  1.2206
 6072TIP3    H218181   1.313   4.764   0.053 -0.6814 -0.5445  0.6493
 6073TIP3   OH218182   3.770   0.118   3.877 -0.2730  0.0713  0.2225
 6073TIP3    H118183   3.694   0.176   3.883 -0.6055 -0.2099 -1.0323
 6073TIP3    H218184   3.815   0.146   3.797  0.0772 -0.7740  0.1156
 6074TIP3   OH218185   0.779   5.529   1.601 -0.4762  0.2268  0.1540
 6074TIP3    H118186   0.755   5.594   1.535 -2.0865 -0.3543  0.1022
 6074TIP3    H218187   0.864   5.496   1.572 -1.1850 -0.1051 -1.7316
 6075TIP3   OH218188   3.466   4.339   4.647 -0.2940  0.0698 -0.5778
 6075TIP3    H118189   3.458   4.426   4.607  0.8815 -0.9000 -3.1837
 6075TIP3    H218190   3.507   4.286   4.579 -1.0508 -2.5738  0.9002
 6076TIP3   OH218191   4.079   2.245   0.635 -0.0740  0.0235  0.0896
 6076TIP3    H118192   4.145   2.176   0.626  0.1243  0.1175  0.7325
 6076TIP3    H218193   4.004   2.202   0.676 -0.1019  0.0976  0.1170
 6077TIP3   OH218194   4.558   3.247   0.034  0.1996  0.0307  0.4033
 6077TIP3    H118195   4.654   3.243   0.037  0.2068 -0.6966 -0.3038
 6077TIP3    H218196   4.532   3.280   0.119  1.1166  0.8765  0.3735
 6078TIP3   OH218197   0.978   5.327   3.160  0.1882  0.0874 -0.1386
 6078TIP3    H118198   1.035   5.251   3.153 -0.0823 -0.0189 -1.4128
 6078TIP3    H218199   1.020   5.394   3.106 -0.9320 -0.0334 -1.2093
 6079TIP3   OH218200   2.941   2.773   5.645  0.2661 -0.0556  0.6448
 6079TIP3    H118201   2.868   2.742   5.698 -0.6460  1.1048  0.0988
 6079TIP3    H218202   2.983   2.692   5.612 -2.3978 -0.8080 -1.2469
 6080TIP3   OH218203   0.978   2.908   2.714 -0.3977  0.5077  0.0203
 6080TIP3    H118204   0.949   2.818   2.708  0.1094  0.2153  1.5696
 6080TIP3    H218205   0.925   2.955   2.649 -0.5239 -0.9183 -0.9379
 6081TIP3   OH218206   6.858   2.502   3.527  0.1540  0.3173 -0.3708
 6081TIP3    H118207   6.846   2.410   3.505  0.3976 -0.1044  1.2031
 6081TIP3    H218208   6.804   2.549   3.463 -0.7710 -0.9509 -0.5478
 6082TIP3   OH218209   1.215   3.315   5.371 -0.3320  0.6947  0.7329
 6082TIP3    H118210   1.240   3.229   5.337 -0.1508  1.2178 -0.5171
 6082TIP3    H218211   1.131   3.299   5.415 -1.4328  0.2493 -1.4033
 6083TIP3   OH218212   5.335   2.258   0.480 -0.0235 -0.1201  0.2242
 6083TIP3    H118213   5.265   2.252   0.415 -0.2172 -1.1313  0.5061
 6083TIP3    H218214   5.294   2.303   0.554 -0.2667 -0.3785  0.2481
 6084TIP3   OH218215   6.109   0.544   4.008  0.3447  0.0462  0.8426
 6084TIP3    H118216   6.052   0.510   3.939  1.6833  1.1331 -0.8643
 6084TIP3    H218217   6.168   0.471   4.027  1.5205  0.4723 -0.9383
 6085TIP3   OH218218   4.406   6.195   1.991  0.3788 -0.0707 -0.0828
 6085TIP3    H118219   4.362   6.165   2.071 -0.5623 -1.8418 -1.1930
 6085TIP3    H218220   4.491   6.228   2.021 -0.7987  1.3987  1.8708
 6086TIP3   OH218221   7.203   1.786   4.535 -0.2498  0.2708 -0.1444
 6086TIP3    H118222   7.115   1.749   4.532 -0.7588  1.4922 -0.7903
 6086TIP3    H218223   7.191   1.879   4.517  0.5808  1.4811  4.3289
 6087TIP3   OH218224   3.434   6.387   0.436 -0.2100  0.3792 -0.3349
 6087TIP3    H118225   3.387   6.316   0.479  1.7170 -0.6745  0.1634
 6087TIP3    H218226   3.456   6.353   0.350  0.0054  0.6743 -0.4004
 6088TIP3   OH218227   0.092   2.245   4.355 -0.0327  0.4016  0.5541
 6088TIP3    H118228   0.155   2.245   4.283 -0.9101 -0.6559 -0.2431
 6088TIP3    H218229   0.140   2.284   4.428  1.6404 -0.5575  0.0389
 6089TIP3   OH218230   3.403   1.511   4.884  0.2593 -0.0766 -0.2590
 6089TIP3    H118231   3.498   1.517   4.878  0.2390  1.4182  0.4339
 6089TIP3    H218232   3.387   1.467   4.967  0.4286  4.4083  2.5173
 6090TIP3   OH218233   1.291   5.684   4.033 -0.4042 -0.0005 -0.0277
 6090TIP3    H118234   1.352   5.678   3.960 -0.0669 -0.5372  0.2957
 6090TIP3    H218235   1.344   5.667   4.111 -0.8547  0.0728  0.3010
 6091TIP3   OH218236   6.172   6.218   5.805 -0.2586 -0.0902  0.2795
 6091TIP3    H118237   6.098   6.182   5.757 -0.6119  0.5746  0.3187
 6091TIP3    H218238   6.248   6.167   5.775 -0.9441 -1.8298  1.3842
 6092TIP3   OH218239   6.982   1.877   0.306 -0.0640  0.4073 -0.1845
 6092TIP3    H118240   6.919   1.931   0.353  1.0736  2.5132 -0.9519
 6092TIP3    H218241   6.971   1.902   0.214  2.0531  1.0447 -0.3149
 6093TIP3   OH218242   0.143   5.034   4.613 -0.3550  0.3603 -0.1846
 6093TIP3    H118243   0.144   5.040   4.708  1.8481 -0.5425 -0.0768
 6093TIP3    H218244   0.228   4.994   4.591 -1.4354 -0.9026 -2.4250
 6094TIP3   OH218245   0.431   5.224   3.626 -0.1589  0.3309  0.3258
 6094TIP3    H118246   0.402   5.237   3.536 -1.1657 -0.4220  0.5296
 6094TIP3    H218247   0.489   5.298   3.643  1.1193 -0.1978 -1.3629
 6095TIP3   OH218248   4.310   4.211   2.095 -0.4377  0.0285  0.0499
 6095TIP3    H118249   4.277   4.139   2.148 -2.0297  1.2960  0.8584
 6095TIP3    H218250   4.399   4.226   2.128 -0.5765 -0.6971  0.7798
 6096TIP3   OH218251   3.584   0.796   1.964 -0.2495 -0.3327  0.3058
 6096TIP3    H118252   3.606   0.792   2.057 -1.6274 -2.4627  0.5998
 6096TIP3    H218253   3.489   0.811   1.962 -0.3454 -0.9516 -0.7098
 6097TIP3   OH218254   5.955   4.761   0.757 -0.2500 -0.3102  0.1561
 6097TIP3    H118255   5.889   4.723   0.699 -2.0474  1.0313  1.2128
 6097TIP3    H218256   5.967   4.850   0.725 -0.9661  0.3146  1.5350
 6098TIP3   OH218257   5.284   2.477   2.875  0.3262  0.3994 -0.3055
 6098TIP3    H118258   5.258   2.560   2.835 -1.1891  0.2421  0.2999
 6098TIP3    H218259   5.278   2.413   2.804  1.6769  0.8091 -0.8205
 6099TIP3   OH218260   6.416   0.470   4.235 -0.3800 -0.1228  0.6042
 6099TIP3    H118261   6.457   0.413   4.300  0.5850  0.0728  0.1724
 6099TIP3    H218262   6.414   0.556   4.277 -0.1478 -0.0871  0.5429
 6100TIP3   OH218263   4.599   4.025   0.337  0.5109 -0.3558  0.3755
 6100TIP3    H118264   4.637   4.110   0.359 -2.9992  1.5371 -0.2662
 6100TIP3    H218265   4.660   3.961   0.376  1.8407  2.4473  3.3602
 6101TIP3   OH218266   1.813   1.163   4.501  0.2017  0.0018  0.3005
 6101TIP3    H118267   1.817   1.068   4.513  1.0211 -0.1246 -0.7837
 6101TIP3    H218268   1.833   1.176   4.408 -1.0957  1.1666  0.1573
 6102TIP3   OH218269   3.511   2.980   3.261 -0.1888  0.5135 -0.3025
 6102TIP3    H118270   3.485   3.024   3.180 -1.0335  2.3419  0.8946
 6102TIP3    H218271   3.471   2.893   3.255 -1.6849  1.2148 -1.1171
 6103TIP3   OH218272   5.698   1.580   2.772  0.1833 -0.1056  0.3396
 6103TIP3    H118273   5.721   1.561   2.863  0.5600  2.5644  0.8870
 6103TIP3    H218274   5.769   1.541   2.721  0.2121 -1.2351  1.1892
 6104TIP3   OH218275   7.154   1.853   2.242  0.0563  0.3233 -0.0982
 6104TIP3    H118276   7.192   1.832   2.328  0.2709  1.2056  0.0289
 6104TIP3    H218277   7.155   1.948   2.238 -0.8581  0.3165 -0.6857
 6105TIP3   OH218278   1.869   4.008   5.473  0.3426 -0.1638  0.3438
 6105TIP3    H118279   1.950   4.008   5.525  1.1302  2.4382 -0.7362
 6105TIP3    H218280   1.897   3.989   5.384 -0.1465  1.1848 -0.1161
 6106TIP3   OH218281   1.561   5.159   0.059  0.0715 -0.3857 -0.4049
 6106TIP3    H118282   1.638   5.180   0.111 -0.0500  1.0135 -0.7544
 6106TIP3    H218283   1.515   5.242   0.049 -1.4508 -1.1627 -0.2808
 6107TIP3   OH218284   0.807   4.290   1.717 -0.5731  0.1286  0.0347
 6107TIP3    H118285   0.801   4.345   1.795  0.7234  0.1457  0.1469
 6107TIP3    H218286   0.743   4.327   1.656  0.8381  2.2971 -0.2188
 6108TIP3   OH218287   1.865   1.445   0.938 -0.4319 -0.0480 -0.2177
 6108TIP3    H118288   1.770   1.447   0.952 -0.2298  1.1653  1.3107
 6108TIP3    H218289   1.901   1.427   1.025  0.7369 -1.2369 -0.9154
 6109TIP3   OH218290   6.574   3.180   4.506  0.2367 -0.0188  0.0789
 6109TIP3    H118291   6.480   3.191   4.520  0.0166 -1.0338 -0.5132
 6109TIP3    H218292   6.581   3.136   4.422  1.2320 -0.2753  0.2800
 6110TIP3   OH218293   0.420   2.853   0.278 -0.2784 -0.4040  0.3996
 6110TIP3    H118294   0.355   2.870   0.210  0.6802  0.0856 -0.4187
 6110TIP3    H218295   0.395   2.910   0.351 -0.4889  0.1233 -0.0832
 6111TIP3   OH218296   5.066   1.772   1.130 -0.2550  0.1766  0.1756
 6111TIP3    H118297   5.083   1.732   1.044 -1.1910  1.0488 -0.4252
 6111TIP3    H218298   5.048   1.697   1.187  0.6629 -0.4355 -0.3035
 6112TIP3   OH218299   5.445   2.419   2.411  0.7707 -0.0511 -0.1306
 6112TIP3    H118300   5.481   2.372   2.335  2.3874  1.9068 -0.6662
 6112TIP3    H218301   5.445   2.511   2.384 -0.7405  0.4722  1.4678
 6113TIP3   OH218302   0.942   4.487   3.116  0.1156  0.3158  0.2575
 6113TIP3    H118303   0.959   4.393   3.125 -0.6006 -0.0022 -1.4302
 6113TIP3    H218304   1.009   4.519   3.056 -0.0550  0.7439  0.2886
 6114TIP3   OH218305   6.509   4.674   0.757  0.1590  0.1517 -0.5538
 6114TIP3    H118306   6.458   4.630   0.824  0.3631  2.6684  1.3934
 6114TIP3    H218307   6.591   4.625   0.753 -1.0621 -1.9805 -1.4265
 6115TIP3   OH218308   6.713   5.198   3.261 -0.0264 -0.0578  0.5854
 6115TIP3    H118309   6.646   5.134   3.239  0.5455 -0.7828  0.8808
 6115TIP3    H218310   6.722   5.252   3.183  0.0456 -0.8551  0.0285
 6116TIP3   OH218311   0.479   2.532   1.100  0.0891  0.3903 -0.0098
 6116TIP3    H118312   0.389   2.561   1.086 -0.6520 -2.0120 -0.5773
 6116TIP3    H218313   0.480   2.441   1.071  3.1379  0.8283 -1.6974
 6117TIP3   OH218314   0.116   3.924   0.149  0.0818 -0.1672 -0.6295
 6117TIP3    H118315   0.025   3.928   0.179 -0.6984 -2.1999 -2.4581
 6117TIP3    H218316   0.126   3.999   0.091 -0.6253 -0.2356 -0.8505
 6118TIP3   OH218317   6.739   4.262   3.858 -0.0314 -0.2615 -0.0551
 6118TIP3    H118318   6.806   4.236   3.795  0.6405  0.6472  0.2591
 6118TIP3    H218319   6.680   4.187   3.863 -0.0123 -0.4223 -1.6446
 6119TIP3   OH218320   0.926   5.086   0.466 -0.0553  0.4774 -0.2569
 6119TIP3    H118321   0.988   5.041   0.525 -0.4700 -0.6314 -0.6470
 6119TIP3    H218322   0.840   5.060   0.498 -0.4208  2.8948  0.9768
 6120TIP3   OH218323   2.388   3.674   3.893 -0.2508  0.0552  0.0608
 6120TIP3    H118324   2.327   3.719   3.951  1.1838  1.0143  0.9080
 6120TIP3    H218325   2.451   3.633   3.953 -0.0233 -0.8370 -0.7777
 6121TIP3   OH218326   5.745   2.416   2.933 -0.1980 -0.1383  0.5830
 6121TIP3    H118327   5.782   2.499   2.903  0.1319 -0.9685 -1.3889
 6121TIP3    H218328   5.820   2.359   2.947 -0.4671 -0.3348  1.3217
 6122TIP3   OH218329   3.600   4.340   4.278 -0.3874 -0.4021 -0.2448
 6122TIP3    H118330   3.510   4.314   4.257 -0.3826  0.0520 -0.8772
 6122TIP3    H218331   3.596   4.436   4.283  0.0331 -0.3872 -0.1540
 6123TIP3   OH218332   0.656   0.027   5.800 -0.5713  0.2938  0.3469
 6123TIP3    H118333   0.681  -0.062   5.826 -0.3701  0.1603 -0.2695
 6123TIP3    H218334   0.695   0.084   5.866 -0.7257 -0.0818  0.7599
 6124TIP3   OH218335   3.572   2.357   0.847 -0.0265  0.0577  0.0698
 6124TIP3    H118336   3.505   2.426   0.857 -1.2746 -0.8737 -1.4080
 6124TIP3    H218337   3.604   2.367   0.758 -0.1535 -1.1863 -0.1370
 6125TIP3   OH218338   6.819   3.963   2.954 -0.2974 -0.2312 -0.0577
 6125TIP3    H118339   6.801   4.057   2.958 -1.4995 -0.2307 -3.1709
 6125TIP3    H218340   6.911   3.957   2.930 -0.5101  0.2021 -1.0044
 6126TIP3   OH218341   6.180   3.324   0.769 -0.1988 -0.5701 -0.5814
 6126TIP3    H118342   6.251   3.313   0.832  0.3867 -0.2220 -1.1720
 6126TIP3    H218343   6.101   3.299   0.817  0.3358 -1.0845  0.0429
 6127TIP3   OH218344   6.196   2.800   3.678 -0.0622 -0.1926 -0.0119
 6127TIP3    H118345   6.242   2.750   3.745  0.6545  0.4912  0.0276
 6127TIP3    H218346   6.168   2.880   3.723 -0.2805 -0.0951 -0.3209
 6128TIP3   OH218347   0.212   4.576   3.719 -0.0684  0.1404 -0.1597
 6128TIP3    H118348   0.303   4.577   3.747 -0.1578 -0.7078  0.1821
 6128TIP3    H218349   0.217   4.586   3.624  0.3237  1.1425 -0.0419
 6129TIP3   OH218350   5.747   2.759   4.968  0.2302  0.1424 -0.2810
 6129TIP3    H118351   5.785   2.822   4.907 -0.8043  1.9366  0.8376
 6129TIP3    H218352   5.652   2.775   4.963 -0.0938 -1.5159 -0.1319
 6130TIP3   OH218353   0.067   1.716   2.874  0.2562  0.4199  0.0198
 6130TIP3    H118354   0.095   1.776   2.944 -1.0838  1.9422 -0.6823
 6130TIP3    H218355   0.098   1.757   2.794 -3.0035  1.7545 -0.7269
 6131TIP3   OH218356   6.334   1.502   0.845  0.1928  0.1365 -0.5296
 6131TIP3    H118357   6.314   1.448   0.922 -0.1967  0.2648 -0.5386
 6131TIP3    H218358   6.405   1.559   0.873  0.4951 -0.2643 -0.4673
 6132TIP3   OH218359   2.158   6.565   4.867 -0.0026 -0.5593  0.0776
 6132TIP3    H118360   2.166   6.535   4.777  1.2671  0.5203 -0.1987
 6132TIP3    H218361   2.067   6.595   4.875  0.3763  1.1493 -1.4507
 6133TIP3   OH218362   5.033   1.228   2.650 -0.3809  0.6722  0.3242
 6133TIP3    H118363   5.109   1.178   2.681 -0.2327  1.1630  0.7684
 6133TIP3    H218364   4.970   1.161   2.625 -0.2609  0.2503  1.1037
 6134TIP3   OH218365   0.868   0.724   5.491 -0.3796  0.2540 -0.2056
 6134TIP3    H118366   0.814   0.726   5.570  0.5827 -1.5969  0.5511
 6134TIP3    H218367   0.947   0.774   5.514 -1.4156  2.4783 -1.1294
 6135TIP3   OH218368   6.561   2.857   3.925  0.5386 -0.0755  0.1408
 6135TIP3    H118369   6.580   2.801   3.850  1.4478  1.1419 -0.5657
 6135TIP3    H218370   6.616   2.823   3.996  1.2487  0.0621 -0.3430
 6136TIP3   OH218371   1.942   5.873   1.725 -0.1897  0.1475 -0.5488
 6136TIP3    H118372   1.966   5.791   1.683  0.1561  1.0448 -2.1810
 6136TIP3    H218373   1.943   5.938   1.654 -3.3088  1.0468  0.0749
 6137TIP3   OH218374   2.318   4.975   2.431  0.1971  0.1075 -0.1414
 6137TIP3    H118375   2.240   4.927   2.403 -1.4106  1.5691  1.5628
 6137TIP3    H218376   2.288   5.065   2.440  2.0594  0.6755  0.7672
 6138TIP3   OH218377   0.039   5.202   1.474 -0.5743 -0.4120 -0.1259
 6138TIP3    H118378   0.106   5.136   1.459 -1.6506 -1.2351 -1.6433
 6138TIP3    H218379   0.043   5.221   1.568  2.3356  0.2408 -0.3086
 6139TIP3   OH218380   2.071   0.891   2.451  0.3332 -0.0798  0.5567
 6139TIP3    H118381   2.092   0.977   2.488  1.0945 -1.1099  2.6830
 6139TIP3    H218382   1.975   0.886   2.454  0.2092  1.0829 -0.6186
 6140TIP3   OH218383   2.840   0.641   1.010 -0.1615 -0.5191 -0.3849
 6140TIP3    H118384   2.894   0.713   1.043  0.6873 -0.6156 -1.4978
 6140TIP3    H218385   2.763   0.684   0.971 -0.6547 -0.3524  0.7261
 6141TIP3   OH218386   2.518   6.162   0.493 -0.2335  0.4799  0.7452
 6141TIP3    H118387   2.473   6.198   0.417 -2.7562  0.6423  2.1856
 6141TIP3    H218388   2.530   6.237   0.552  0.5338  0.1443  1.0330
 6142TIP3   OH218389   1.276   4.700   5.439 -0.0971 -0.5931 -0.2138
 6142TIP3    H118390   1.278   4.669   5.530 -0.6594 -1.7280 -0.5738
 6142TIP3    H218391   1.326   4.634   5.390  0.1412 -0.0284 -0.7467
 6143TIP3   OH218392   4.519   2.239   0.750 -0.1179 -0.1113  0.2575
 6143TIP3    H118393   4.490   2.319   0.707 -1.3670 -0.8220 -0.2768
 6143TIP3    H218394   4.463   2.233   0.828  0.3077 -0.2107  0.5563
 6144TIP3   OH218395   2.202   0.875   4.822  0.3304 -0.0230  0.3027
 6144TIP3    H118396   2.242   0.961   4.808 -0.7750  0.4330 -0.2076
 6144TIP3    H218397   2.110   0.887   4.799  0.0782 -1.2623  0.5612
 6145TIP3   OH218398   6.535   3.460   2.731  0.7808 -0.1044  0.4529
 6145TIP3    H118399   6.476   3.497   2.665  1.2991  1.0402  0.6187
 6145TIP3    H218400   6.534   3.523   2.802  0.4582 -1.1882  1.4373
 6146TIP3   OH218401   6.728   4.450   5.883  0.3183  0.1297 -0.0233
 6146TIP3    H118402   6.745   4.481   5.794 -0.6970  0.2128 -0.2021
 6146TIP3    H218403   6.699   4.529   5.930 -1.0005 -0.2666 -0.1333
 6147TIP3   OH218404   2.566   2.257   5.457  0.2099  0.3654 -0.8170
 6147TIP3    H118405   2.614   2.280   5.536  2.2212  3.1214 -2.6729
 6147TIP3    H218406   2.612   2.181   5.422 -0.2680 -0.4381  0.2255
 6148TIP3   OH218407   5.732   6.051   0.411 -0.2021  0.0112 -0.1259
 6148TIP3    H118408   5.790   6.051   0.335  0.4228  0.4238  0.3465
 6148TIP3    H218409   5.716   5.958   0.429  0.3350 -0.1035 -0.2363
 6149TIP3   OH218410   1.819   3.983   0.517 -0.5496  0.5304  0.0810
 6149TIP3    H118411   1.735   3.940   0.532 -0.1900 -0.2974 -0.2045
 6149TIP3    H218412   1.855   3.997   0.605  0.6644 -2.5186  0.2047
 6150TIP3   OH218413   2.954   0.405   0.306 -0.6744 -0.0766 -0.0724
 6150TIP3    H118414   3.004   0.486   0.314 -1.3086  0.7207 -2.9798
 6150TIP3    H218415   3.017   0.336   0.324  1.1976  0.9396 -2.1784
 6151TIP3   OH218416   3.900   6.321   1.541 -0.2448 -0.1607  0.1790
 6151TIP3    H118417   3.973   6.315   1.479 -0.4546 -0.5161 -0.0390
 6151TIP3    H218418   3.912   6.246   1.599 -1.2530 -1.1047 -0.7696
 6152TIP3   OH218419   3.942   1.095   2.088  0.7561  0.2682  0.4447
 6152TIP3    H118420   3.855   1.067   2.057 -0.9612  2.5658  2.7093
 6152TIP3    H218421   3.940   1.191   2.078  3.4294  0.3197 -0.2431
 6153TIP3   OH218422   3.051   1.076   0.619  0.1071  0.0010  0.2742
 6153TIP3    H118423   2.999   1.127   0.681 -0.5805  1.6417 -1.5455
 6153TIP3    H218424   3.041   1.122   0.535 -1.2958 -3.6119 -1.7513
 6154TIP3   OH218425   5.718   3.568   2.712  0.1044  0.3133  0.2279
 6154TIP3    H118426   5.655   3.616   2.658  1.3117  0.4044 -1.1561
 6154TIP3    H218427   5.799   3.619   2.705  0.5700 -0.2463  1.3008
 6155TIP3   OH218428   3.534   1.220   1.770  0.2299 -0.1376 -0.0455
 6155TIP3    H118429   3.535   1.215   1.865  0.0255  0.2672 -0.0194
 6155TIP3    H218430   3.612   1.270   1.747  0.4565 -0.5182 -0.1106
 6156TIP3   OH218431   3.673   2.062   1.191 -0.3305 -0.2530  0.0716
 6156TIP3    H118432   3.672   1.970   1.217 -0.9413 -0.8026 -1.7430
 6156TIP3    H218433   3.741   2.102   1.245 -0.5167 -1.6175  1.3588
 6157TIP3   OH218434   2.576   6.489   0.181  0.5584  0.6011 -0.2691
 6157TIP3    H118435   2.586   6.544   0.259 -1.1330  0.9498 -0.2474
 6157TIP3    H218436   2.539   6.548   0.115 -2.4915 -0.6679  0.1190
 6158TIP3   OH218437   1.136   3.083   2.899  0.1465  0.2711  0.0835
 6158TIP3    H118438   1.081   3.020   2.854 -0.2097 -0.7536  1.8614
 6158TIP3    H218439   1.225   3.062   2.872 -0.1288  0.2909 -0.8467
 6159TIP3   OH218440   5.142   3.995   2.469  0.0910 -0.1674 -0.1838
 6159TIP3    H118441   5.140   3.946   2.387 -0.1369 -1.0804  0.3504
 6159TIP3    H218442   5.235   4.009   2.487  0.1732 -0.5844 -0.2556
 6160TIP3   OH218443   6.979   3.490   4.735  0.0569  0.1416  0.5503
 6160TIP3    H118444   7.015   3.554   4.797 -0.0888  1.6649 -0.8806
 6160TIP3    H218445   7.055   3.450   4.694  0.1398 -0.3329  1.1394
 6161TIP3   OH218446   5.802   0.043   5.214 -0.0752 -0.1981  0.3857
 6161TIP3    H118447   5.714   0.078   5.196 -1.0902 -2.8199 -0.1757
 6161TIP3    H218448   5.809  -0.034   5.158  1.9253 -1.0350  1.6863
 6162TIP3   OH218449   4.295   0.612   3.919 -0.2928  0.4324  0.2171
 6162TIP3    H118450   4.382   0.574   3.934  0.2026  1.1455 -0.7308
 6162TIP3    H218451   4.297   0.696   3.965  0.0777  1.1290 -1.0079
 6163TIP3   OH218452   5.419   3.427   4.430 -0.1736  0.3012 -0.2508
 6163TIP3    H118453   5.500   3.376   4.421 -0.6035 -1.1958  2.8727
 6163TIP3    H218454   5.448   3.516   4.449  0.6980  0.1243 -0.6957
 6164TIP3   OH218455   3.168   2.654   4.371 -0.1658 -0.2307 -0.0636
 6164TIP3    H118456   3.228   2.720   4.406 -1.1640  0.2205  0.8558
 6164TIP3    H218457   3.225   2.584   4.339  0.8990  0.8754 -0.6568
 6165TIP3   OH218458   0.120   1.241   3.537  0.3510 -0.2484 -0.0241
 6165TIP3    H118459   0.039   1.277   3.501 -0.2612 -1.6754 -0.1575
 6165TIP3    H218460   0.150   1.178   3.471  0.3090 -1.4250  1.0314
 6166TIP3   OH218461   3.199  -0.019   1.558 -0.3873 -0.1542 -0.6732
 6166TIP3    H118462   3.148   0.030   1.622 -1.3660 -0.4664 -1.1800
 6166TIP3    H218463   3.155  -0.003   1.474 -0.3902 -1.4077 -0.9387
 6167TIP3   OH218464   5.069   0.000   4.815 -0.1484 -0.2762 -0.3433
 6167TIP3    H118465   4.988  -0.036   4.850  0.6054  0.0756  1.9725
 6167TIP3    H218466   5.046   0.090   4.791 -0.9690 -0.8842 -1.9498
 6168TIP3   OH218467   2.738   4.852   2.090 -0.6131  0.0625  0.0947
 6168TIP3    H118468   2.673   4.861   2.020  1.5104 -1.8736 -2.3585
 6168TIP3    H218469   2.784   4.770   2.069  1.7708  0.6721  2.4047
 6169TIP3   OH218470   5.935   0.475   4.849 -0.1920  0.2873 -0.0102
 6169TIP3    H118471   5.981   0.436   4.775  0.1980 -3.2036  1.8732
 6169TIP3    H218472   5.842   0.458   4.832 -0.1340 -0.1649  0.1297
 6170TIP3   OH218473   6.412   4.022   4.040  0.0323  0.2641 -0.4825
 6170TIP3    H118474   6.371   4.082   4.103  1.3828  0.8988 -0.1534
 6170TIP3    H218475   6.363   3.940   4.048 -0.9313  0.8895  0.1167
 6171TIP3   OH218476   5.201   4.219   3.034 -0.0893  0.8838  0.1101
 6171TIP3    H118477   5.232   4.213   2.943 -1.8296  1.5774 -0.5731
 6171TIP3    H218478   5.259   4.161   3.083  0.5569  0.0655 -1.5408
 6172TIP3   OH218479   0.871   4.751   3.473  0.3322  0.7860 -0.5801
 6172TIP3    H118480   0.846   4.821   3.534  0.2111  3.1676 -3.1754
 6172TIP3    H218481   0.927   4.794   3.409  0.5838 -1.6300 -2.1041
 6173TIP3   OH218482   1.397   1.390   5.371 -0.1959 -0.3304  0.5414
 6173TIP3    H118483   1.399   1.364   5.464  0.1965 -1.2134  0.3045
 6173TIP3    H218484   1.408   1.485   5.372  0.3260 -0.3858  1.3814
 6174TIP3   OH218485   2.823   0.472   2.833 -0.0640  0.6628  0.2151
 6174TIP3    H118486   2.773   0.392   2.816 -0.0080  0.6403  0.1521
 6174TIP3    H218487   2.892   0.445   2.893 -0.7410  0.9189  1.1140
 6175TIP3   OH218488   5.586   2.366   1.100  0.0388 -0.7086  0.7511
 6175TIP3    H118489   5.614   2.308   1.030  1.3700 -0.6752  1.2307
 6175TIP3    H218490   5.577   2.452   1.058  0.8225 -0.6899  0.6115
 6176TIP3   OH218491   3.963   4.953   0.474  0.3694  0.1462  0.4134
 6176TIP3    H118492   3.892   4.924   0.417  0.7901  1.3552 -0.7917
 6176TIP3    H218493   3.937   5.041   0.502  2.0188  1.2318 -1.2534
 6177TIP3   OH218494   4.873   6.255   4.537  0.0795 -0.5961 -0.5782
 6177TIP3    H118495   4.900   6.248   4.628 -0.4631  2.5256 -0.0809
 6177TIP3    H218496   4.954   6.240   4.487  0.9169  0.1008  0.5288
 6178TIP3   OH218497   6.927   5.557   2.902  0.5578 -0.2944 -0.2623
 6178TIP3    H118498   6.955   5.569   2.993 -0.9744  0.9324  0.1054
 6178TIP3    H218499   6.831   5.560   2.907  0.4467 -0.6057 -1.8753
 6179TIP3   OH218500   2.688   0.475   0.346 -0.2598 -0.1123 -0.2239
 6179TIP3    H118501   2.772   0.455   0.305 -0.3567 -0.3233 -0.3203
 6179TIP3    H218502   2.699   0.447   0.437 -0.2302 -0.1505 -0.2391
 6180TIP3   OH218503   6.438   2.060   0.514 -0.1450  0.1094  0.7138
 6180TIP3    H118504   6.429   1.964   0.509 -0.3297  0.1707 -1.2268
 6180TIP3    H218505   6.348   2.092   0.505  0.0307  0.4676  0.1843
 6181TIP3   OH218506   5.025   4.152   5.698 -0.1334 -0.0918  0.8150
 6181TIP3    H118507   5.087   4.083   5.721  0.8072  0.2986 -0.4733
 6181TIP3    H218508   5.049   4.226   5.754 -0.2918 -0.3655  1.2487
 6182TIP3   OH218509   7.070   6.219   4.108 -0.2038 -0.4255 -0.0764
 6182TIP3    H118510   7.106   6.256   4.027  0.9197 -0.4532  0.3905
 6182TIP3    H218511   6.984   6.186   4.083  0.5127 -1.3322 -1.5027
 6183TIP3   OH218512   0.920   5.461   1.201 -0.0891  0.2877  0.1191
 6183TIP3    H118513   1.010   5.489   1.191  0.0430  0.3108  1.2451
 6183TIP3    H218514   0.926   5.366   1.213 -0.1299  0.3959  1.0634
 6184TIP3   OH218515   7.050   1.788   4.951  0.1183 -0.1386  0.4208
 6184TIP3    H118516   7.018   1.863   4.901  2.3168  0.2527 -0.4983
 6184TIP3    H218517   7.067   1.823   5.039  0.6307  0.3237  0.1412
 6185TIP3   OH218518   2.621   3.257   5.696 -0.4704  0.4996 -0.0949
 6185TIP3    H118519   2.533   3.293   5.692 -0.8205 -0.0519  1.7310
 6185TIP3    H218520   2.659   3.277   5.610 -2.6787 -0.0854 -1.3023
 6186TIP3   OH218521   6.253   4.093   2.068 -0.2269  0.3118 -0.2676
 6186TIP3    H118522   6.302   4.125   2.144  0.8321 -0.5517 -0.5607
 6186TIP3    H218523   6.316   4.097   1.996 -0.4880 -1.0764 -0.5937
 6187TIP3   OH218524   0.354   3.161   1.770 -0.1385 -0.3272 -0.4506
 6187TIP3    H118525   0.384   3.070   1.774 -1.3816 -0.8174 -1.5010
 6187TIP3    H218526   0.407   3.206   1.836 -0.0819 -1.9793  0.7110
 6188TIP3   OH218527   0.512   2.982   4.282  0.3050  0.1485 -0.6109
 6188TIP3    H118528   0.424   2.995   4.317 -0.0040 -0.7824 -1.0215
 6188TIP3    H218529   0.517   3.041   4.207 -0.0122  0.1162 -0.6573
 6189TIP3   OH218530   2.546   1.075   4.434  0.7331 -0.4319  0.3765
 6189TIP3    H118531   2.456   1.044   4.433  0.5009  0.1965  1.3652
 6189TIP3    H218532   2.557   1.122   4.351  0.4858 -1.4122 -0.2267
 6190TIP3   OH218533   2.820   0.812   2.616 -0.5036 -0.5610 -0.0351
 6190TIP3    H118534   2.799   0.859   2.697  0.9754 -0.1064  0.1175
 6190TIP3    H218535   2.753   0.840   2.554  0.2533  1.6890  0.0923
 6191TIP3   OH218536   4.375   3.389   2.250 -0.1227  0.2398 -0.1128
 6191TIP3    H118537   4.464   3.377   2.286 -0.3980 -0.4166  0.3745
 6191TIP3    H218538   4.323   3.321   2.294 -0.9912  0.9957  0.0430
 6192TIP3   OH218539   2.042   2.244   5.230 -0.4160 -0.3792  0.0819
 6192TIP3    H118540   2.134   2.243   5.256 -0.5603 -2.0907  0.6413
 6192TIP3    H218541   2.036   2.177   5.161 -0.8802  1.0993 -1.3662
 6193TIP3   OH218542   5.732   6.655   2.469  0.1601 -0.0590  0.3777
 6193TIP3    H118543   5.651   6.648   2.418  0.9985  0.4016 -1.0671
 6193TIP3    H218544   5.734   6.746   2.498  0.6568  0.2140 -0.4782
 6194TIP3   OH218545   2.631   5.981   0.667  0.3177 -0.5118 -0.2252
 6194TIP3    H118546   2.568   6.020   0.606 -0.6201 -1.0643  0.3624
 6194TIP3    H218547   2.701   5.948   0.611  0.4864  0.7968 -0.8360
 6195TIP3   OH218548   1.235   5.911   0.048 -0.0153  0.1388  0.6708
 6195TIP3    H118549   1.316   5.862   0.067  1.7963  2.9098  0.6655
 6195TIP3    H218550   1.172   5.878   0.112  0.9550 -2.3598  0.4616
 6196TIP3   OH218551   2.723   5.450   4.593  0.3667 -0.3365  0.0339
 6196TIP3    H118552   2.720   5.375   4.652 -0.3915  0.8013  1.4990
 6196TIP3    H218553   2.639   5.449   4.548  0.5732 -0.6685 -0.3486
 6197TIP3   OH218554   4.659   3.604   2.809 -0.0902  0.6429  0.0742
 6197TIP3    H118555   4.732   3.543   2.795 -0.3626  0.4759 -0.6768
 6197TIP3    H218556   4.600   3.587   2.736  0.3758  2.6161 -0.8311
 6198TIP3   OH218557   0.979   0.476   5.342 -0.4202  0.3157  0.0381
 6198TIP3    H118558   1.010   0.534   5.273 -1.3175  0.8100  0.0348
 6198TIP3    H218559   0.958   0.534   5.415 -0.1152 -0.1355  0.4926
 6199TIP3   OH218560   3.074   0.504   1.636  0.3139  0.0959  0.0437
 6199TIP3    H118561   3.065   0.422   1.589 -1.5251 -0.8570  1.9002
 6199TIP3    H218562   3.166   0.528   1.626  0.7209 -1.8107 -1.1277
 6200TIP3   OH218563   2.103   2.756   3.074 -0.4494  0.2121  0.4020
 6200TIP3    H118564   2.166   2.686   3.091  0.3433  1.1271  1.3115
 6200TIP3    H218565   2.156   2.832   3.051 -1.2972  0.5698 -0.4490
 6201TIP3   OH218566   6.130   0.044   5.203  0.4254 -0.3952  0.6079
 6201TIP3    H118567   6.221   0.015   5.214  1.2709  1.9866  0.5272
 6201TIP3    H218568   6.090   0.029   5.288  0.3555 -3.0480  0.1676
 6202TIP3   OH218569   2.876   4.996   1.261 -0.1709  0.2835  0.5058
 6202TIP3    H118570   2.849   5.070   1.207 -0.7472 -0.5585 -0.3970
 6202TIP3    H218571   2.884   5.032   1.349 -0.1183  1.4834  0.0244
 6203TIP3   OH218572   1.880   4.096   4.208 -0.3131  0.2105 -0.2372
 6203TIP3    H118573   1.802   4.055   4.246 -0.4223 -0.0869 -0.7776
 6203TIP3    H218574   1.938   4.023   4.188  1.1313  0.5613  2.3561
 6204TIP3   OH218575   1.974   1.030   5.420 -0.8286 -0.2308 -0.0455
 6204TIP3    H118576   2.049   1.014   5.362 -1.0909  2.3556 -1.2237
 6204TIP3    H218577   1.899   1.035   5.361 -1.5794 -0.3928  0.8669
 6205TIP3   OH218578   6.496   0.896   3.157 -0.0321  0.3910 -0.3227
 6205TIP3    H118579   6.577   0.946   3.149  0.0822  0.1636 -0.5630
 6205TIP3    H218580   6.505   0.824   3.095  0.7231 -1.1893  1.5203
 6206TIP3   OH218581   5.021   6.437   3.993 -0.0171  0.2905  0.0430
 6206TIP3    H118582   4.940   6.468   4.033 -1.2446  0.2921 -2.2918
 6206TIP3    H218583   5.008   6.343   3.981  0.1467  0.3548 -0.6916
 6207TIP3   OH218584   4.897   4.942   4.046  0.2188 -0.3334  0.2035
 6207TIP3    H118585   4.871   5.028   4.077  0.6170  0.2713 -1.0509
 6207TIP3    H218586   4.963   4.960   3.979  0.0831 -1.5990 -0.2978
 6208TIP3   OH218587   3.027   5.108   0.359 -0.1315 -0.7705 -0.1124
 6208TIP3    H118588   3.060   5.105   0.449  0.8770 -2.2142 -0.4914
 6208TIP3    H218589   3.054   5.194   0.326 -1.8200  0.4019  1.4051
 6209TIP3   OH218590   3.202   1.950   0.538  0.7514 -0.3091  0.2546
 6209TIP3    H118591   3.265   2.002   0.587  0.8816 -1.2040  1.0737
 6209TIP3    H218592   3.202   1.989   0.450  2.2760 -0.1364  0.2970
 6210TIP3   OH218593   5.499   6.805   1.770  0.1624 -0.2261  0.5150
 6210TIP3    H118594   5.466   6.717   1.787  1.8823 -0.9917  0.1067
 6210TIP3    H218595   5.548   6.827   1.849 -1.4831  1.0187  1.2448
 6211TIP3   OH218596   4.706   5.025   2.126  0.0006 -0.1017  0.4373
 6211TIP3    H118597   4.761   4.995   2.053  1.5877  2.5705  0.4082
 6211TIP3    H218598   4.738   4.977   2.202  0.7917 -0.3094 -0.0156
 6212TIP3   OH218599   0.921   3.417   5.386 -0.3994  0.1458 -0.4461
 6212TIP3    H118600   0.845   3.434   5.443 -0.7053 -0.9859 -0.4932
 6212TIP3    H218601   0.896   3.340   5.335  0.8296 -0.3134 -0.3892
 6213TIP3   OH218602   2.175   1.776   2.528  0.3819  0.2982 -0.1675
 6213TIP3    H118603   2.144   1.685   2.536 -1.8771  1.0609  0.5563
 6213TIP3    H218604   2.250   1.780   2.588  1.5983 -1.4709 -1.4573
 6214TIP3   OH218605   6.503   3.940   4.401  0.2325 -0.2691  0.5501
 6214TIP3    H118606   6.567   3.998   4.442  0.8036 -0.5751  0.1025
 6214TIP3    H218607   6.521   3.853   4.438  0.6920 -0.5302 -0.2676
 6215TIP3   OH218608   4.880   1.527   2.100 -0.2718  0.2443 -0.2371
 6215TIP3    H118609   4.850   1.586   2.031 -0.2687 -0.5352 -0.9301
 6215TIP3    H218610   4.917   1.452   2.052 -0.2743 -0.3136  0.6168
 6216TIP3   OH218611   3.650   6.522   4.822 -0.0914  0.4051 -0.3317
 6216TIP3    H118612   3.569   6.533   4.772 -0.1247 -0.2845 -0.4320
 6216TIP3    H218613   3.641   6.584   4.895 -1.2710 -0.5425  0.3546
 6217TIP3   OH218614   4.921   2.464   2.733 -0.5175  0.2434  0.3605
 6217TIP3    H118615   4.899   2.553   2.763 -0.9168  0.0428  0.6699
 6217TIP3    H218616   4.884   2.459   2.645  1.3167  1.0982 -0.5135
 6218TIP3   OH218617   3.909   4.226   2.338 -0.0470 -0.2246 -0.0352
 6218TIP3    H118618   3.941   4.141   2.308  0.9998  0.3413 -0.6044
 6218TIP3    H218619   3.838   4.206   2.399 -1.3742 -1.4590 -1.8968
 6219TIP3   OH218620   2.133   5.641   4.914 -0.0236 -0.0263 -0.0244
 6219TIP3    H118621   2.070   5.711   4.898 -0.7237 -0.0128  2.4317
 6219TIP3    H218622   2.169   5.622   4.827 -1.4787  1.7621 -1.1134
 6220TIP3   OH218623   2.172   5.996   4.740 -0.7970 -0.2043  0.0150
 6220TIP3    H118624   2.221   5.940   4.680 -2.1265  0.6449 -1.9583
 6220TIP3    H218625   2.193   6.086   4.713  0.2182  0.3107  2.2334
 6221TIP3   OH218626   6.503   2.640   3.107 -0.2106 -0.6113  0.0838
 6221TIP3    H118627   6.524   2.559   3.061 -0.9068 -1.3780  1.0703
 6221TIP3    H218628   6.501   2.707   3.038 -0.6209 -1.6096 -0.9014
 6222TIP3   OH218629   3.732   3.777   2.547 -0.3639 -0.0678 -0.0284
 6222TIP3    H118630   3.654   3.813   2.506 -0.3254 -0.3134 -0.3167
 6222TIP3    H218631   3.805   3.819   2.502 -0.3298  0.4650  0.5130
 6223TIP3   OH218632   4.871   3.774   2.805  0.2817  0.1770 -0.2050
 6223TIP3    H118633   4.886   3.838   2.736  0.4587  1.4721  0.9870
 6223TIP3    H218634   4.788   3.733   2.782 -0.3683  1.5834 -0.4709
 6224TIP3   OH218635   2.618   4.996   5.394 -0.4264 -0.3065  0.1573
 6224TIP3    H118636   2.525   4.982   5.378 -0.6226  1.8639 -1.0320
 6224TIP3    H218637   2.658   4.999   5.307  0.2101  1.6584  0.4462
 6225TIP3   OH218638   3.898   3.906   4.847  0.5995  0.4247 -0.1859
 6225TIP3    H118639   3.862   3.893   4.759  0.2320  1.3171 -0.1747
 6225TIP3    H218640   3.991   3.923   4.832  0.2654  2.1349 -0.5526
 6226TIP3   OH218641   3.525   4.873   1.431 -0.7464  0.4321  0.2933
 6226TIP3    H118642   3.603   4.923   1.458 -0.8207  0.6902  0.0357
 6226TIP3    H218643   3.523   4.882   1.336 -0.9004  0.1402  0.2691
 6227TIP3   OH218644   3.699   1.829   1.567 -0.2907 -0.5010  0.1532
 6227TIP3    H118645   3.721   1.912   1.608  0.3392 -0.8661  0.5716
 6227TIP3    H218646   3.741   1.763   1.622  1.7154 -0.9563 -1.7576
 6228TIP3   OH218647   5.583   1.955   5.837 -0.1202 -0.4014  0.3735
 6228TIP3    H118648   5.537   1.926   5.758  1.0286 -1.1680 -0.0342
 6228TIP3    H218649   5.662   1.998   5.804 -0.4116  0.7217  1.0750
 6229TIP3   OH218650   7.171   1.462   1.362  0.0256  0.7069 -0.0030
 6229TIP3    H118651   7.236   1.495   1.299 -0.3565  1.7895  0.1405
 6229TIP3    H218652   7.131   1.541   1.398 -1.0194  0.0632  0.2889
 6230TIP3   OH218653   3.051   6.670   1.679  0.2282  0.0958 -0.0849
 6230TIP3    H118654   3.041   6.695   1.587 -0.1964  0.4108  0.0467
 6230TIP3    H218655   2.969   6.697   1.721  1.3867  2.2707  0.9103
 6231TIP3   OH218656   1.240   6.835   3.224  0.1985 -0.1985 -0.0052
 6231TIP3    H118657   1.292   6.817   3.303 -0.0937 -0.7738  0.0638
 6231TIP3    H218658   1.225   6.749   3.185 -1.2334 -0.1230  0.3249
 6232TIP3   OH218659   0.149   1.467   5.748 -0.5193 -0.2747 -0.3721
 6232TIP3    H118660   0.058   1.451   5.721 -0.8418  0.7553  0.0412
 6232TIP3    H218661   0.199   1.398   5.705 -1.5047 -0.9062 -0.5555
 6233TIP3   OH218662   6.046   0.065   0.213  0.2366  1.0655  0.0051
 6233TIP3    H118663   6.065   0.151   0.177  0.4068  0.8292 -0.4731
 6233TIP3    H218664   5.959   0.074   0.253 -0.7793  0.8547 -2.0383
 6234TIP3   OH218665   0.261   4.671   1.173  0.7952 -1.0207  0.4211
 6234TIP3    H118666   0.227   4.760   1.172  1.9620 -0.5437  0.9424
 6234TIP3    H218667   0.251   4.640   1.083  0.1950 -0.4441  0.2795
 6235TIP3   OH218668   0.991   6.416   4.217 -0.1523 -0.0998  0.2194
 6235TIP3    H118669   1.070   6.385   4.172 -0.1323  1.7026 -1.0590
 6235TIP3    H218670   0.997   6.377   4.304  0.7988 -2.1108 -0.6705
 6236TIP3   OH218671   0.250   1.698   3.813  0.2356 -0.3791  0.3368
 6236TIP3    H118672   0.189   1.629   3.789 -1.5827  1.4969 -0.7566
 6236TIP3    H218673   0.312   1.702   3.740 -0.1874 -0.3032 -0.0231
 6237TIP3   OH218674   5.301   3.191   5.477  0.5404 -0.3151  0.4951
 6237TIP3    H118675   5.313   3.278   5.516 -0.6585 -0.2355  0.7231
 6237TIP3    H218676   5.371   3.184   5.411  2.3329 -0.2792  2.3031
 6238TIP3   OH218677   0.880   0.021   0.152 -0.0948  0.1532  0.2061
 6238TIP3    H118678   0.975   0.033   0.151 -0.1221  0.3841  0.5431
 6238TIP3    H218679   0.854   0.039   0.242 -0.6419  1.4927 -0.1952
 6239TIP3   OH218680   3.724   3.594   2.254  0.4592  0.1351 -0.4159
 6239TIP3    H118681   3.793   3.627   2.312 -0.3217 -0.5458  0.9533
 6239TIP3    H218682   3.732   3.499   2.258 -1.7188 -0.0669  1.3558
 6240TIP3   OH218683   3.266   4.638   1.977  0.5900  0.0327  0.2440
 6240TIP3    H118684   3.269   4.729   1.947  1.4278 -0.6240 -1.8245
 6240TIP3    H218685   3.358   4.613   1.986  0.3634 -0.5128  1.1289
 6241TIP3   OH218686   0.995   5.243   3.472  0.9284  0.1003  0.2406
 6241TIP3    H118687   1.023   5.267   3.384  0.2645  1.6836  0.4249
 6241TIP3    H218688   0.904   5.270   3.477  0.3716 -1.7222  0.8144
 6242TIP3   OH218689   4.418   2.067   3.687 -0.0032  0.6005 -0.4271
 6242TIP3    H118690   4.473   2.047   3.611  2.1113 -1.6990  1.5083
 6242TIP3    H218691   4.475   2.119   3.744 -1.2738  1.6162 -0.0373
 6243TIP3   OH218692   2.757   6.534   3.941  0.4105  0.0292  0.1277
 6243TIP3    H118693   2.788   6.522   3.851 -0.7996 -0.1069 -0.2961
 6243TIP3    H218694   2.803   6.612   3.972  1.0944 -0.1177 -0.4871
 6244TIP3   OH218695   0.559   1.948   1.845  0.2458 -0.1115 -0.6728
 6244TIP3    H118696   0.614   1.886   1.894  0.3777  0.5346  0.0128
 6244TIP3    H218697   0.572   2.032   1.889 -1.0565  0.1215 -0.6937
 6245TIP3   OH218698   3.631   2.374   2.398 -0.4500 -0.0445  0.2526
 6245TIP3    H118699   3.548   2.418   2.414 -0.5875 -1.0456  2.6543
 6245TIP3    H218700   3.681   2.437   2.345 -0.8107  2.8350  3.0280
 6246TIP3   OH218701   3.041   6.657   1.417  0.4717 -0.8547  0.2354
 6246TIP3    H118702   3.120   6.627   1.373  0.1270 -1.5061  0.0394
 6246TIP3    H218703   2.979   6.584   1.407 -0.4480 -0.0258 -0.3781
 6247TIP3   OH218704   3.799   6.407   3.294  0.2463  0.0304 -0.3580
 6247TIP3    H118705   3.731   6.366   3.348  0.7776  1.0002  1.1131
 6247TIP3    H218706   3.871   6.423   3.355  1.1825  0.4592 -1.5419
 6248TIP3   OH218707   3.898   3.469   0.332 -0.4638  0.7596  0.0546
 6248TIP3    H118708   3.844   3.519   0.393  0.5550  1.3614  0.4874
 6248TIP3    H218709   3.959   3.533   0.295 -1.1074  0.4233 -1.6743
 6249TIP3   OH218710   2.661   1.822   2.982  0.0226  0.4116  0.0942
 6249TIP3    H118711   2.686   1.881   2.911  1.6484 -0.2132  0.0909
 6249TIP3    H218712   2.637   1.741   2.938  0.4521  0.2156  0.2115
 6250TIP3   OH218713   4.524   2.477   4.185  0.2088  0.6587 -0.0159
 6250TIP3    H118714   4.516   2.382   4.183  1.5279  0.5370 -0.7314
 6250TIP3    H218715   4.487   2.505   4.101  1.6485  0.5864 -0.7000
 6251TIP3   OH218716   4.472   4.605   1.892  0.1599  0.4232 -0.3067
 6251TIP3    H118717   4.396   4.555   1.864 -0.6510  0.9707  0.8232
 6251TIP3    H218718   4.520   4.624   1.811 -0.5172 -0.5385 -0.9507
 6252TIP3   OH218719   7.109   2.588   4.114  0.3091 -0.4112  0.1871
 6252TIP3    H118720   7.122   2.658   4.050 -1.2842  0.6211  0.9502
 6252TIP3    H218721   7.171   2.608   4.185 -0.9712  0.9746  0.9684
 6253TIP3   OH218722   3.945   0.024   5.062  0.1974 -0.0774  0.2022
 6253TIP3    H118723   3.967  -0.048   5.121 -1.5218 -2.0664 -1.4272
 6253TIP3    H218724   3.852   0.041   5.077 -0.8572 -2.0301 -3.1427
 6254TIP3   OH218725   6.160   3.490   3.402 -0.2286 -0.2889  0.2710
 6254TIP3    H118726   6.114   3.416   3.442  1.3836 -1.2981  0.3638
 6254TIP3    H218727   6.156   3.472   3.308  0.3011 -0.5893  0.3033
 6255TIP3   OH218728   2.827   6.284   2.741 -0.4579  0.1330  0.0483
 6255TIP3    H118729   2.775   6.359   2.714 -0.6922  0.9992  2.6423
 6255TIP3    H218730   2.767   6.209   2.732 -2.0537  1.0243  2.4047
 6256TIP3   OH218731   2.778   2.039   5.430  0.3286  0.2236  0.5875
 6256TIP3    H118732   2.762   1.945   5.422  0.3096 -0.2634  4.4379
 6256TIP3    H218733   2.871   2.049   5.413  0.1490 -0.3073 -0.8197
 6257TIP3   OH218734   5.440   4.862   5.756  0.0286 -0.5102  0.0247
 6257TIP3    H118735   5.482   4.813   5.827 -1.8371 -0.6966  1.0818
 6257TIP3    H218736   5.457   4.811   5.677 -0.5016 -2.0371  0.8593
 6258TIP3   OH218737   5.814   4.171   0.936  0.5973 -0.0693  0.2725
 6258TIP3    H118738   5.854   4.231   0.873  0.5896  0.4437  0.7501
 6258TIP3    H218739   5.828   4.212   1.021 -0.2619 -0.2576  0.5198
 6259TIP3   OH218740   0.778   3.122   5.437  0.0854  0.2862 -0.1833
 6259TIP3    H118741   0.722   3.084   5.504  1.6490 -0.8185  0.5690
 6259TIP3    H218742   0.726   3.193   5.399 -1.3892 -0.0168  1.1742
 6260TIP3   OH218743   0.645   4.048   5.215 -0.3421  0.2597  0.3083
 6260TIP3    H118744   0.607   3.989   5.281 -0.7190 -0.6165 -0.6594
 6260TIP3    H218745   0.720   3.999   5.180 -0.7033  0.3109 -0.5609
 6261TIP3   OH218746   2.249   3.670   5.675  0.3246  0.6272 -0.0600
 6261TIP3    H118747   2.311   3.730   5.717  1.1671  0.3284 -0.8606
 6261TIP3    H218748   2.241   3.597   5.736 -0.3991  1.3359  0.7349
 6262TIP3   OH218749   6.211   5.542   1.202 -0.3779 -0.2060  0.1662
 6262TIP3    H118750   6.251   5.459   1.173 -0.4439 -0.1222 -0.1659
 6262TIP3    H218751   6.221   5.540   1.297 -1.8981 -1.3785  0.3390
 6263TIP3   OH218752   0.484   6.143   1.876  0.3697  0.6665  0.0837
 6263TIP3    H118753   0.498   6.236   1.859  1.0386  0.3735 -1.0833
 6263TIP3    H218754   0.411   6.141   1.939 -0.8393  1.9239 -1.1823
 6264TIP3   OH218755   5.109   1.859   2.488 -0.6257 -0.4210 -0.1576
 6264TIP3    H118756   5.104   1.770   2.455 -1.3462  0.4150 -2.4751
 6264TIP3    H218757   5.088   1.914   2.413 -0.1542  1.7212  1.1890
 6265TIP3   OH218758   6.840   3.381   0.508 -0.6862  0.4540  0.0665
 6265TIP3    H118759   6.839   3.445   0.580  0.2444 -0.4648  0.9258
 6265TIP3    H218760   6.751   3.385   0.472 -1.0379  1.2748  0.9700
 6266TIP3   OH218761   5.950   2.643   1.168 -0.4013  0.0238  0.3043
 6266TIP3    H118762   6.027   2.587   1.178 -1.3308 -1.6331 -1.3308
 6266TIP3    H218763   5.889   2.613   1.235 -0.6214 -0.4197 -0.0968
 6267TIP3   OH218764   6.783   0.176   4.461  0.4201  0.1594 -0.0322
 6267TIP3    H118765   6.844   0.243   4.493  0.0396  1.2425 -1.4951
 6267TIP3    H218766   6.832   0.094   4.472  1.4793  0.8158  0.4088
 6268TIP3   OH218767   6.459   6.157   0.291  0.0690 -0.3143  0.4262
 6268TIP3    H118768   6.552   6.168   0.271 -0.0948 -0.3513 -0.3769
 6268TIP3    H218769   6.417   6.144   0.206 -0.5145 -1.5369  0.8817
 6269TIP3   OH218770   3.382   5.551   3.884  0.0567  0.4017  0.0453
 6269TIP3    H118771   3.425   5.471   3.854 -0.8245 -0.0991  0.0621
 6269TIP3    H218772   3.377   5.606   3.807  1.4219  0.8042  0.2206
 6270TIP3   OH218773   4.325   3.092   5.172  0.0308  0.3821 -0.6246
 6270TIP3    H118774   4.298   3.022   5.232  1.5537 -0.1065 -0.4435
 6270TIP3    H218775   4.274   3.168   5.198 -0.0822 -0.1012  0.6314
 6271TIP3   OH218776   4.700   5.873   1.007  0.4378 -0.6953  0.1592
 6271TIP3    H118777   4.771   5.887   1.070 -1.5928 -1.4502  2.7953
 6271TIP3    H218778   4.676   5.781   1.018 -2.0776 -0.0459  0.6965
 6272TIP3   OH218779   5.587   2.223   0.404 -0.3244  0.0335 -0.3654
 6272TIP3    H118780   5.600   2.129   0.418 -0.3095  0.1223  0.1993
 6272TIP3    H218781   5.506   2.244   0.450  0.7932  0.7309  1.4007
 6273TIP3   OH218782   4.763   4.639   3.529 -0.3634 -0.1952  0.1215
 6273TIP3    H118783   4.780   4.654   3.436 -1.6179 -1.7404 -0.4130
 6273TIP3    H218784   4.682   4.687   3.547  0.7259  1.4635  0.8889
 6274TIP3   OH218785   0.133   1.648   4.332  0.1740  0.4571 -0.0699
 6274TIP3    H118786   0.098   1.733   4.357 -0.8968  0.8806 -2.7090
 6274TIP3    H218787   0.057   1.595   4.311  0.8994  0.0921 -2.0317
 6275TIP3   OH218788   1.560   1.107   2.688 -0.0756  0.4515  0.2803
 6275TIP3    H118789   1.602   1.127   2.772 -1.2765 -0.9356  1.2487
 6275TIP3    H218790   1.553   1.192   2.645  0.9896  1.1323  1.3654
 6276TIP3   OH218791   1.986   3.417   5.587  0.1862 -0.0834  0.3881
 6276TIP3    H118792   1.984   3.417   5.491 -0.8930  0.2669  0.3940
 6276TIP3    H218793   1.994   3.509   5.611  1.1077 -0.2211  0.6398
 6277TIP3   OH218794   5.896   1.741   1.475  0.2751  0.2886  0.2889
 6277TIP3    H118795   5.908   1.749   1.381 -0.8482  1.7474  0.2394
 6277TIP3    H218796   5.801   1.740   1.488  0.4067  0.5854  1.4300
 6278TIP3   OH218797   5.248   3.667   2.533  0.3391  0.7119  0.0455
 6278TIP3    H118798   5.246   3.762   2.523  1.2256  0.9835  2.0257
 6278TIP3    H218799   5.195   3.635   2.460  0.2370  2.6871 -0.8367
 6279TIP3   OH218800   6.337   5.663   5.078  0.5023  0.3761  0.0171
 6279TIP3    H118801   6.250   5.652   5.040  0.0966  0.2493  0.9609
 6279TIP3    H218802   6.393   5.685   5.004 -0.0446 -0.9824 -0.8373
 6280TIP3   OH218803   6.765   3.725   1.472  0.0747 -0.6461  0.4387
 6280TIP3    H118804   6.796   3.740   1.561  0.9250 -0.2844  0.0915
 6280TIP3    H218805   6.835   3.758   1.416 -0.7812 -0.1686 -0.3761
 6281TIP3   OH218806   4.326   6.023   3.267 -0.2369 -0.1362 -0.2355
 6281TIP3    H118807   4.322   6.032   3.363 -2.0702  0.4684 -0.3270
 6281TIP3    H218808   4.306   6.111   3.235 -1.9405 -0.8107 -1.1563
 6282TIP3   OH218809   2.745   4.276   1.934  0.0375  0.3365 -0.0058
 6282TIP3    H118810   2.703   4.196   1.964 -1.3145  0.8241 -0.5264
 6282TIP3    H218811   2.814   4.292   1.999  0.0052 -0.9608  0.3787
 6283TIP3   OH218812   3.311   4.214   0.176 -0.1235 -0.6714 -0.0978
 6283TIP3    H118813   3.347   4.267   0.248 -1.3632 -0.1345  0.1577
 6283TIP3    H218814   3.217   4.211   0.193 -0.1543 -2.5292 -0.4192
 6284TIP3   OH218815   4.593   4.429   2.844 -0.0767  0.1922 -0.6609
 6284TIP3    H118816   4.581   4.481   2.765 -1.0033 -0.8932 -1.2694
 6284TIP3    H218817   4.634   4.489   2.906  0.0136  1.2738 -1.7229
 6285TIP3   OH218818   4.980   1.736   4.167 -0.1778  0.0340 -0.1028
 6285TIP3    H118819   5.032   1.761   4.090  0.7119 -0.2323  0.3948
 6285TIP3    H218820   4.890   1.759   4.144 -0.1945 -1.6683 -1.9095
 6286TIP3   OH218821   0.839   1.713   0.367 -0.1474  0.6751 -0.5082
 6286TIP3    H118822   0.787   1.718   0.447  0.2998  1.5517 -0.2541
 6286TIP3    H218823   0.841   1.620   0.345 -0.6243  0.4738  0.2668
 6287TIP3   OH218824   4.424   2.803   4.117 -0.6575  0.0133  0.1118
 6287TIP3    H118825   4.474   2.869   4.071 -1.5363  0.2081 -0.5906
 6287TIP3    H218826   4.403   2.843   4.202  0.6950 -0.2317  0.5820
 6288TIP3   OH218827   1.192   4.722   3.825  0.2613 -0.2943  0.1076
 6288TIP3    H118828   1.198   4.781   3.900 -1.8921  1.6558 -1.1068
 6288TIP3    H218829   1.102   4.689   3.827  0.1641 -0.2267 -1.5693
 6289TIP3   OH218830   1.372   1.704   0.402 -1.0037  0.1348 -0.2802
 6289TIP3    H118831   1.284   1.739   0.408 -0.5159  1.9442 -2.4942
 6289TIP3    H218832   1.426   1.763   0.455 -0.8232  0.2701 -0.6088
 6290TIP3   OH218833   4.339   0.908   0.725 -0.0648 -0.6303  0.0343
 6290TIP3    H118834   4.421   0.956   0.715 -0.2194 -0.0565  1.4086
 6290TIP3    H218835   4.274   0.965   0.684 -0.2586  0.4148  1.7150
 6291TIP3   OH218836   0.239   5.613   0.683  0.4032 -0.4230 -0.7826
 6291TIP3    H118837   0.262   5.670   0.609  0.8616 -0.1330 -0.4207
 6291TIP3    H218838   0.237   5.525   0.646  0.7977 -0.2987 -1.1010
 6292TIP3   OH218839   5.423   5.974   4.539 -0.0101 -0.7592 -0.2764
 6292TIP3    H118840   5.345   5.962   4.486  0.6920 -3.3404 -0.8743
 6292TIP3    H218841   5.395   5.954   4.629 -0.1542 -1.1945 -0.4177
 6293TIP3   OH218842   2.571   4.708   3.016  0.1567 -0.0536  0.1358
 6293TIP3    H118843   2.604   4.640   2.957 -0.4506  0.2982 -0.6342
 6293TIP3    H218844   2.512   4.759   2.962 -0.5638  0.1750  1.1118
 6294TIP3   OH218845   6.379   0.661   3.999  0.2594  0.4935  0.1819
 6294TIP3    H118846   6.387   0.653   4.094  2.3020 -0.9348 -0.0473
 6294TIP3    H218847   6.289   0.635   3.981 -1.3715  4.1765  1.9515
 6295TIP3   OH218848   1.067   6.124   3.097  0.9305  0.3525 -0.3475
 6295TIP3    H118849   1.059   6.168   3.182 -0.0851 -0.4120 -0.0320
 6295TIP3    H218850   1.097   6.192   3.038  0.3646  1.2355  0.3514
 6296TIP3   OH218851   0.168   0.835   3.366  0.2023  0.0866  0.3194
 6296TIP3    H118852   0.169   0.928   3.343 -0.0269 -0.3992 -1.8489
 6296TIP3    H218853   0.203   0.833   3.455  0.7847  2.1865  0.2111
 6297TIP3   OH218854   3.688   6.183   2.990  0.2550 -0.4163  0.2233
 6297TIP3    H118855   3.709   6.097   2.955 -1.2145 -1.2023  1.1630
 6297TIP3    H218856   3.692   6.242   2.914 -0.5696 -1.6561 -0.8146
 6298TIP3   OH218857   1.171   1.577   3.091  0.0734  0.3283 -0.2919
 6298TIP3    H118858   1.126   1.660   3.107  0.6517  1.2188 -2.7441
 6298TIP3    H218859   1.178   1.536   3.177 -0.9689  2.4333  0.8775
 6299TIP3   OH218860   0.996   3.323   1.518  0.1431  0.0542  0.3072
 6299TIP3    H118861   0.914   3.280   1.491  1.0932 -2.0685  0.6045
 6299TIP3    H218862   1.046   3.254   1.560  1.6807  1.5747  1.0863
 6300TIP3   OH218863   5.259   5.509   3.513 -0.0128 -0.3554  0.0334
 6300TIP3    H118864   5.241   5.600   3.535  2.0970 -0.0575  0.7330
 6300TIP3    H218865   5.178   5.462   3.533 -0.5410  1.0848  1.3765
 6301TIP3   OH218866   6.257   4.030   3.091 -0.5724  0.0259  0.0089
 6301TIP3    H118867   6.195   4.032   3.164  0.1757  0.1468  0.6621
 6301TIP3    H218868   6.274   4.122   3.072 -1.3179  0.0056 -0.8182
 6302TIP3   OH218869   5.248   5.838   0.984 -0.0736 -0.2168 -0.4286
 6302TIP3    H118870   5.158   5.818   1.008 -0.0814 -0.3276 -0.5507
 6302TIP3    H218871   5.273   5.909   1.043  0.3333 -1.3354  0.8041
 6303TIP3   OH218872   2.798   1.706   0.808  0.6078  0.0977 -0.2701
 6303TIP3    H118873   2.891   1.685   0.814  0.4925 -0.3668 -0.0648
 6303TIP3    H218874   2.777   1.748   0.891  0.3658 -0.8903  0.1766
 6304TIP3   OH218875   6.131   3.607   1.652 -0.3956 -0.2360 -0.3571
 6304TIP3    H118876   6.108   3.526   1.696 -0.1600 -0.1715 -0.1154
 6304TIP3    H218877   6.216   3.631   1.688 -0.0291 -0.3725 -1.1115
 6305TIP3   OH218878   6.821   6.598   0.828  0.1954 -0.0341  0.1732
 6305TIP3    H118879   6.900   6.571   0.875  0.4487 -1.6540 -1.0767
 6305TIP3    H218880   6.851   6.663   0.765  0.2814  0.3458  0.6022
 6306TIP3   OH218881   7.093   6.639   2.384 -0.2683 -0.2351  0.1897
 6306TIP3    H118882   7.007   6.609   2.415 -0.5020  1.0172  0.8290
 6306TIP3    H218883   7.150   6.563   2.393 -0.7132 -0.3808  2.2599
 6307TIP3   OH218884   5.984   3.730   0.452  0.3761  0.4336  0.1160
 6307TIP3    H118885   5.905   3.694   0.492  0.1237  0.4677 -0.3523
 6307TIP3    H218886   6.056   3.690   0.501  0.1194 -0.9919 -0.6339
 6308TIP3   OH218887   3.384   1.196   5.452 -0.2551 -0.5864  0.1203
 6308TIP3    H118888   3.413   1.105   5.457 -0.3522 -0.6194  0.0897
 6308TIP3    H218889   3.364   1.210   5.360 -1.4155 -0.9049  0.3097
 6309TIP3   OH218890   0.564   2.451   0.007  0.1726 -0.0312 -0.0803
 6309TIP3    H118891   0.613   2.400   0.072 -0.3458 -0.3747  0.0497
 6309TIP3    H218892   0.630   2.506  -0.036  0.6455 -0.3945  0.1768
 6310TIP3   OH218893   3.623   2.225   4.180  0.3473  0.0306 -0.7670
 6310TIP3    H118894   3.556   2.289   4.205 -0.3192 -0.9967  0.1814
 6310TIP3    H218895   3.585   2.180   4.104 -1.1254 -2.0540  1.0648
 6311TIP3   OH218896   7.206   4.840   0.835 -0.2256  0.0213  0.2317
 6311TIP3    H118897   7.173   4.759   0.874 -1.1391 -0.2795 -1.0868
 6311TIP3    H218898   7.226   4.896   0.910  1.0107 -1.6164  1.1918
 6312TIP3   OH218899   2.123   1.713   4.594 -0.0146  0.0722  0.3299
 6312TIP3    H118900   2.064   1.757   4.534 -0.1737  1.4695  1.4473
 6312TIP3    H218901   2.206   1.760   4.584  0.5909 -1.1004 -0.3591
 6313TIP3   OH218902   6.238   6.423   2.086 -0.1289 -0.6032 -0.0570
 6313TIP3    H118903   6.332   6.437   2.101 -0.6079  1.2169  1.5900
 6313TIP3    H218904   6.201   6.413   2.174 -1.7074  0.2887 -0.5881
 6314TIP3   OH218905   3.729   1.301   2.244  1.1225 -0.1984 -0.2470
 6314TIP3    H118906   3.733   1.318   2.150  0.4271  2.1301  0.0708
 6314TIP3    H218907   3.797   1.358   2.282  0.8807 -0.5236  0.7152
 6315TIP3   OH218908   2.048   5.582   0.111  0.6071 -0.2553  0.9540
 6315TIP3    H118909   2.040   5.566   0.017  1.9737  1.6332  0.4387
 6315TIP3    H218910   1.957   5.593   0.142  0.1606 -0.5884 -0.2006
 6316TIP3   OH218911   5.734   6.576   4.687 -0.3981  0.0973 -0.0355
 6316TIP3    H118912   5.647   6.568   4.724 -0.4535 -2.5717 -0.5850
 6316TIP3    H218913   5.748   6.495   4.638  2.2923  0.5435 -0.1969
 6317TIP3   OH218914   4.332   2.352   1.808  0.0101 -0.2118 -0.0760
 6317TIP3    H118915   4.247   2.361   1.765 -0.6022 -1.0588  0.8828
 6317TIP3    H218916   4.319   2.391   1.894  1.1903  1.4031 -0.5845
 6318TIP3   OH218917   5.372   0.201   5.361 -0.3734 -0.1275 -0.2077
 6318TIP3    H118918   5.336   0.113   5.352  0.8548 -0.6378 -0.4393
 6318TIP3    H218919   5.456   0.187   5.405  0.4052  0.7774 -1.3383
 6319TIP3   OH218920   2.674   6.050   2.712  0.0982 -0.0523  0.1129
 6319TIP3    H118921   2.694   5.956   2.714 -0.2806 -0.1388 -0.0486
 6319TIP3    H218922   2.620   6.061   2.634 -0.5296  0.1656  0.5753
 6320TIP3   OH218923   0.190   3.884   5.608  0.0996  0.3470  0.1146
 6320TIP3    H118924   0.122   3.951   5.613  1.7203  2.0046  1.5013
 6320TIP3    H218925   0.267   3.925   5.648  1.1119 -2.4541  1.2690
 6321TIP3   OH218926   0.219   3.095   2.654 -0.3190 -0.0702  0.3064
 6321TIP3    H118927   0.218   3.015   2.601  2.6557 -0.0857  0.0988
 6321TIP3    H218928   0.129   3.104   2.687 -0.7890 -3.3805  0.2083
 6322TIP3   OH218929   1.473   1.497   5.775 -0.2966  0.3458 -0.2024
 6322TIP3    H118930   1.557   1.542   5.783 -0.4929  0.3980  2.9006
 6322TIP3    H218931   1.415   1.561   5.734  1.0658  0.3637 -2.2469
 6323TIP3   OH218932   3.617   3.178   2.382 -0.2079  0.2285  0.4721
 6323TIP3    H118933   3.675   3.103   2.371 -0.6249  0.1622 -1.7444
 6323TIP3    H218934   3.674   3.250   2.409  0.2653 -0.7316  2.1280
 6324TIP3   OH218935   1.476   4.808   5.098  0.1717 -0.6525 -0.9463
 6324TIP3    H118936   1.482   4.805   5.194  3.0519 -1.6177 -1.0652
 6324TIP3    H218937   1.451   4.898   5.078  0.7708 -0.0907  0.6751
 6325TIP3   OH218938   4.578   3.993   1.183 -0.1060  0.1004 -0.6219
 6325TIP3    H118939   4.509   3.929   1.200 -1.2130  1.0578 -1.4170
 6325TIP3    H218940   4.656   3.955   1.224 -1.3286 -0.4506  1.2851
 6326TIP3   OH218941   3.102   4.939   2.090 -0.0500 -0.2107  0.2358
 6326TIP3    H118942   3.169   4.961   2.024  0.3400 -0.3991  0.5684
 6326TIP3    H218943   3.063   4.858   2.058 -0.6677  0.3057 -0.3681
 6327TIP3   OH218944   7.187   0.426   0.166  0.3086  0.0532  0.0523
 6327TIP3    H118945   7.109   0.373   0.180  1.1441 -1.3129 -0.2280
 6327TIP3    H218946   7.259   0.362   0.165  1.2933  1.1324 -0.8887
 6328TIP3   OH218947   0.766   4.463   2.184 -0.4153  0.0014  0.1387
 6328TIP3    H118948   0.817   4.463   2.103  0.1418 -0.1806  0.4778
 6328TIP3    H218949   0.803   4.390   2.235  0.8699  1.5338  1.5336
 6329TIP3   OH218950   0.215   4.884   0.705 -0.0610  0.3458  0.7698
 6329TIP3    H118951   0.196   4.899   0.613  0.7070 -0.1679  0.5124
 6329TIP3    H218952   0.129   4.876   0.747 -0.4512 -1.3509 -0.2372
 6330TIP3   OH218953   5.866   1.823   2.259  0.4495  0.3992 -0.6787
 6330TIP3    H118954   5.797   1.817   2.193  2.3237 -3.1090 -2.6212
 6330TIP3    H218955   5.947   1.830   2.208  1.7741  0.8735  1.3896
 6331TIP3   OH218956   1.779   0.050   0.447 -0.4481  0.2239  0.4387
 6331TIP3    H118957   1.763   0.046   0.353  0.4718 -0.0897  0.2814
 6331TIP3    H218958   1.716  -0.012   0.485 -1.6190  1.2189  0.1557
 6332TIP3   OH218959   5.667   4.271   1.638 -0.2050  0.2538 -0.1334
 6332TIP3    H118960   5.695   4.189   1.679 -1.1573 -0.6287 -1.1800
 6332TIP3    H218961   5.632   4.323   1.711  0.4827 -0.2230  0.5538
 6333TIP3   OH218962   1.138   4.646   2.966 -0.0744 -0.3076 -0.2683
 6333TIP3    H118963   1.161   4.617   2.877 -0.7605  0.4730 -0.7182
 6333TIP3    H218964   1.222   4.653   3.011  0.4308  0.5625 -1.2718
 6334TIP3   OH218965   0.861   6.372   3.763  0.5745  0.1370 -0.3219
 6334TIP3    H118966   0.934   6.312   3.746  0.4607 -0.4839  1.2018
 6334TIP3    H218967   0.888   6.422   3.840  0.0975  1.1174 -0.7695
 6335TIP3   OH218968   5.490   5.651   4.892 -0.1534  0.0436 -0.4420
 6335TIP3    H118969   5.544   5.682   4.965 -0.0777 -3.0415  0.9496
 6335TIP3    H218970   5.445   5.729   4.861  2.3537  2.0866  0.6747
 6336TIP3   OH218971   0.191   1.660   1.449 -0.0127  0.4872 -0.8095
 6336TIP3    H118972   0.282   1.690   1.444 -0.2538  1.3707 -0.0701
 6336TIP3    H218973   0.168   1.668   1.542 -0.4569 -0.9244 -0.7712
 6337TIP3   OH218974   1.278   2.058   0.122 -0.1588 -0.2297  0.5178
 6337TIP3    H118975   1.248   2.133   0.172 -0.4454  0.0761 -0.1032
 6337TIP3    H218976   1.374   2.061   0.128 -0.0817  1.0993 -0.7840
 6338TIP3   OH218977   3.762   5.351   2.621  0.2165 -0.2940 -0.3839
 6338TIP3    H118978   3.836   5.374   2.677  0.6275  0.0881 -1.0573
 6338TIP3    H218979   3.751   5.428   2.564 -0.8642 -0.2480 -0.1273
 6339TIP3   OH218980   3.960   5.739   2.847 -0.0759 -0.1317  0.0583
 6339TIP3    H118981   4.004   5.723   2.931  0.6747 -0.2491 -0.3472
 6339TIP3    H218982   4.004   5.816   2.811 -1.3124  0.7537  0.3842
 6340TIP3   OH218983   2.700   0.326   4.130  0.3428 -0.0927 -0.3426
 6340TIP3    H118984   2.680   0.259   4.195  0.0681  0.7833  0.5032
 6340TIP3    H218985   2.741   0.396   4.180  0.4539  0.4523 -1.1778
 6341TIP3   OH218986   6.834   3.503   3.101  0.0903  0.1370 -0.1597
 6341TIP3    H118987   6.809   3.437   3.036  0.5992 -2.3172  1.9845
 6341TIP3    H218988   6.754   3.519   3.150  0.6296 -1.1919  1.2111
 6342TIP3   OH218989   0.761   0.285   4.177 -0.0539 -0.2431  0.5653
 6342TIP3    H118990   0.779   0.221   4.246  0.6710 -0.8516 -0.1713
 6342TIP3    H218991   0.676   0.258   4.141  0.8641 -1.6540 -0.6519
 6343TIP3   OH218992   1.082   1.858   5.786 -0.1939 -0.1169  0.1364
 6343TIP3    H118993   1.019   1.911   5.835  0.4788 -0.7172  1.7146
 6343TIP3    H218994   1.083   1.897   5.698 -2.7915 -0.1189  0.0133
 6344TIP3   OH218995   0.405   5.558   4.183 -0.3012  0.5239 -0.1165
 6344TIP3    H118996   0.379   5.504   4.257 -1.3707  0.5044 -0.4937
 6344TIP3    H218997   0.352   5.637   4.190  1.5904  1.7802  0.6960
 6345TIP3   OH218998   5.576   0.985   4.847  0.3251  0.4310 -0.2375
 6345TIP3    H118999   5.551   1.076   4.829  0.4683  0.6032  0.3906
 6345TIP3    H219000   5.671   0.989   4.864  0.0941  0.4028  1.1971
 6346TIP3   OH219001   1.770   0.819   3.434  0.0894 -0.9416 -0.0966
 6346TIP3    H119002   1.850   0.854   3.473 -0.0054 -0.9610  0.1172
 6346TIP3    H219003   1.800   0.748   3.376  0.0345 -3.1503  2.3793
 6347TIP3   OH219004   2.229   4.900   3.899  0.1422 -0.5670  0.3278
 6347TIP3    H119005   2.235   4.891   3.804 -1.8505  0.2396  0.0596
 6347TIP3    H219006   2.197   4.815   3.929 -2.4359  0.1316 -0.1856
 6348TIP3   OH219007   2.148   2.181   5.717 -0.1829  0.3566  0.0915
 6348TIP3    H119008   2.228   2.138   5.688  0.3832  1.7583 -0.5558
 6348TIP3    H219009   2.178   2.266   5.751 -1.4049  1.0363 -0.4489
 6349TIP3   OH219010   1.669   6.097   0.475  0.5888  0.3818  0.2517
 6349TIP3    H119011   1.657   6.105   0.381  1.0415 -0.6902  0.0920
 6349TIP3    H219012   1.599   6.150   0.513 -0.2986 -0.0927 -0.6830
 6350TIP3   OH219013   1.920   5.312   3.551  0.3119 -0.2483  0.0839
 6350TIP3    H119014   1.989   5.361   3.507  0.7476  1.2165  2.2254
 6350TIP3    H219015   1.965   5.238   3.591  0.3841 -0.1312  0.2213
 6351TIP3   OH219016   7.116   6.025   0.511  0.1333 -0.0285 -0.5197
 6351TIP3    H119017   7.121   6.096   0.575 -0.8248  0.1590 -0.6323
 6351TIP3    H219018   7.026   5.992   0.519  0.9183 -2.0419  0.3859
 6352TIP3   OH219019   3.260   3.429   0.304  0.2802  0.1769 -0.0480
 6352TIP3    H119020   3.310   3.488   0.360  1.9108 -0.6734 -0.5373
 6352TIP3    H219021   3.324   3.363   0.277 -0.2479  0.8925 -3.4179
 6353TIP3   OH219022   3.937   4.796   3.436  0.1235 -0.2276  0.7633
 6353TIP3    H119023   3.964   4.747   3.358 -1.1672 -0.1154  0.2212
 6353TIP3    H219024   4.007   4.780   3.500  2.3160  1.4348 -1.0914
 6354TIP3   OH219025   1.344   3.612   2.759 -0.2039  0.0252  0.5349
 6354TIP3    H119026   1.308   3.525   2.739  0.5021 -0.1688  0.0597
 6354TIP3    H219027   1.438   3.602   2.746  0.0037  0.5816  1.5379
 6355TIP3   OH219028   0.625   4.570   5.092  0.0189 -0.6382  0.7084
 6355TIP3    H119029   0.609   4.664   5.087 -1.1606 -0.8923 -0.8643
 6355TIP3    H219030   0.719   4.561   5.077  0.6896  0.4358  3.6408
 6356TIP3   OH219031   4.027   3.986   0.202  0.6451 -0.2251  0.7118
 6356TIP3    H119032   4.114   4.024   0.219  0.7880  0.1123 -0.5982
 6356TIP3    H219033   3.967   4.041   0.251  1.1544 -0.3578  1.5035
 6357TIP3   OH219034   7.024   2.613   1.325  0.1495 -0.6931 -0.1109
 6357TIP3    H119035   7.092   2.548   1.342  1.2964  0.7103  0.9893
 6357TIP3    H219036   6.952   2.564   1.285  1.5349 -2.3443 -0.6759
 6358TIP3   OH219037   0.042   4.416   4.114  0.1240 -0.1246 -0.1191
 6358TIP3    H119038   0.029   4.322   4.127  0.6890 -0.4391 -1.6367
 6358TIP3    H219039   0.004   4.434   4.028 -1.0930  1.3005  0.6612
 6359TIP3   OH219040   6.463   3.287   0.268 -0.2085 -0.2552  0.5983
 6359TIP3    H119041   6.411   3.211   0.293  0.3979 -0.9848 -0.3045
 6359TIP3    H219042   6.402   3.344   0.221 -0.1000 -1.3763 -0.9796
 6360TIP3   OH219043   0.717   5.869   4.746 -0.4112 -0.1484 -0.1791
 6360TIP3    H119044   0.712   5.941   4.683  0.4522  0.6288  0.6142
 6360TIP3    H219045   0.680   5.794   4.699  1.3783  0.0724 -2.1108
 6361TIP3   OH219046   3.345   5.023   4.404  1.0140 -0.1256 -0.4059
 6361TIP3    H119047   3.286   4.968   4.352  1.4608 -0.3183 -0.7145
 6361TIP3    H219048   3.307   5.021   4.492  1.1719 -1.1661 -0.3444
 6362TIP3   OH219049   0.428   6.363   4.831  0.2430  0.2750 -0.3584
 6362TIP3    H119050   0.478   6.284   4.808 -0.8405 -0.6934  0.5190
 6362TIP3    H219051   0.357   6.366   4.766 -0.4654 -0.2097  0.3778
 6363TIP3   OH219052   1.795   0.573   0.860 -0.7599 -0.1037  0.1968
 6363TIP3    H119053   1.884   0.580   0.825 -0.5772  0.5606  0.7765
 6363TIP3    H219054   1.801   0.505   0.926 -0.8860 -0.6708 -0.3638
 6364TIP3   OH219055   0.699   4.005   3.893  0.2449 -0.1746  0.4957
 6364TIP3    H119056   0.759   4.054   3.949  0.6783  0.1229 -0.2279
 6364TIP3    H219057   0.691   3.920   3.936  0.1890  0.2112  1.2757
 6365TIP3   OH219058   4.325   3.802   1.887 -0.4306 -0.3855  0.1627
 6365TIP3    H119059   4.312   3.732   1.823 -0.9858 -1.2038  1.1374
 6365TIP3    H219060   4.240   3.810   1.931  0.0771 -0.2025  1.1359
 6366TIP3   OH219061   1.048   6.173   3.732 -0.5354 -0.2387 -0.6503
 6366TIP3    H119062   1.037   6.110   3.661  2.9507 -1.7228 -0.0604
 6366TIP3    H219063   1.101   6.127   3.797  0.7897  2.7682  0.5767
 6367TIP3   OH219064   5.931   5.570   2.605  0.5349 -0.5366  0.0684
 6367TIP3    H119065   5.896   5.487   2.636  0.7339 -0.7256 -0.2135
 6367TIP3    H219066   5.978   5.548   2.525 -2.0815  0.2751 -1.8581
 6368TIP3   OH219067   0.925   2.511   5.765  0.3468  0.3208  0.3939
 6368TIP3    H119068   0.991   2.443   5.752  1.3690  1.0876  1.3343
 6368TIP3    H219069   0.889   2.526   5.677  0.5422 -0.9751  0.0761
 6369TIP3   OH219070   2.456   4.997   4.609  0.6942 -0.1442 -0.1427
 6369TIP3    H119071   2.400   4.928   4.646  0.8075  0.2926  0.8727
 6369TIP3    H219072   2.512   4.950   4.548  0.6830 -0.9535  0.4345
 6370TIP3   OH219073   5.311   3.547   3.078 -0.4858  1.0086  0.0748
 6370TIP3    H119074   5.336   3.535   3.169 -2.1163  0.1207  0.4603
 6370TIP3    H219075   5.327   3.639   3.060 -0.3238  1.2378  1.3254
 6371TIP3   OH219076   6.252   5.938   4.908 -0.0883 -0.1345 -0.5122
 6371TIP3    H119077   6.254   5.880   4.833  0.9382 -0.1976 -0.4460
 6371TIP3    H219078   6.311   6.010   4.885 -0.6610  0.4470 -0.2352
 6372TIP3   OH219079   4.403   4.610   0.011  0.2622  0.3601 -0.3201
 6372TIP3    H119080   4.367   4.562  -0.063  0.1406 -0.2396  0.1230
 6372TIP3    H219081   4.337   4.602   0.080  0.4712  0.7244 -0.0737
 6373TIP3   OH219082   4.637   2.521   5.569  0.4405 -0.1632  0.4091
 6373TIP3    H119083   4.586   2.471   5.632 -1.5852 -0.9410 -1.6953
 6373TIP3    H219084   4.705   2.461   5.539  0.1080 -0.5067  0.3420
 6374TIP3   OH219085   4.977   5.825   1.902  0.4876 -0.0890 -0.1832
 6374TIP3    H119086   4.915   5.897   1.887  0.1001 -0.0831  1.3179
 6374TIP3    H219087   4.923   5.746   1.898  1.1615 -0.5604 -3.5577
 6375TIP3   OH219088   5.473   4.995   3.602 -0.2113  0.2417  0.2600
 6375TIP3    H119089   5.455   5.089   3.605  1.5012  0.6161 -0.0630
 6375TIP3    H219090   5.488   4.970   3.693  1.5048  0.7782  0.1554
 6376TIP3   OH219091   1.035   3.473   1.179 -0.3189  0.4161 -0.1635
 6376TIP3    H119092   1.107   3.429   1.224 -1.2653 -1.0922 -0.0624
 6376TIP3    H219093   1.034   3.434   1.092  1.6038  3.4148 -1.7194
 6377TIP3   OH219094   3.936   0.360   4.245 -0.6453  0.0789  0.3462
 6377TIP3    H119095   3.986   0.382   4.166 -1.2622  1.1555  0.2317
 6377TIP3    H219096   3.871   0.295   4.215  0.1380 -0.7143  0.3281
 6378TIP3   OH219097   5.888   6.805   4.746 -0.1379 -0.0067  0.2297
 6378TIP3    H119098   5.865   6.810   4.839  3.1138 -1.2628  1.2299
 6378TIP3    H219099   5.842   6.726   4.715 -0.2415 -0.3050  1.1069
 6379TIP3   OH219100   6.605   5.893   2.952  0.8858  0.4374 -0.4807
 6379TIP3    H119101   6.614   5.798   2.945  1.4662  0.5216 -0.8952
 6379TIP3    H219102   6.671   5.920   3.015 -0.0087  0.4489  0.4816
 6380TIP3   OH219103   3.420   4.922   3.797 -0.3197 -0.4802 -0.3350
 6380TIP3    H119104   3.338   4.936   3.750  0.2489 -2.3414 -2.0257
 6380TIP3    H219105   3.483   4.980   3.753 -0.1056 -1.1551 -0.9218
 6381TIP3   OH219106   6.381   2.931   1.866  0.3121 -0.4819  0.0962
 6381TIP3    H119107   6.458   2.981   1.895 -0.1290  0.6711 -0.6612
 6381TIP3    H219108   6.408   2.892   1.783  0.5992 -1.4258  0.6059
 6382TIP3   OH219109   5.051   3.475   1.379 -0.4111  0.5670  0.3795
 6382TIP3    H119110   4.994   3.430   1.318  2.1588 -1.2275 -0.8801
 6382TIP3    H219111   5.028   3.440   1.465  0.9053 -2.7212 -0.4635
 6383TIP3   OH219112   5.217   1.127   3.697 -0.0493 -0.3657  0.0632
 6383TIP3    H119113   5.253   1.190   3.759 -0.5321 -0.6281  0.6145
 6383TIP3    H219114   5.122   1.142   3.699 -0.1855 -1.2378  0.3392
 6384TIP3   OH219115   2.276   4.833   1.082  0.0252 -0.8938 -0.3366
 6384TIP3    H119116   2.216   4.777   1.033 -0.8222  0.0556 -0.4144
 6384TIP3    H219117   2.283   4.912   1.030  1.9516 -1.2562 -0.6999
 6385TIP3   OH219118   4.731   2.744   5.724 -0.0838 -0.1006 -0.3439
 6385TIP3    H119119   4.705   2.661   5.683  0.6732 -1.2092  1.2711
 6385TIP3    H219120   4.826   2.735   5.736  0.0223  1.0608 -0.2709
 6386TIP3   OH219121   4.645   1.729   3.225 -0.3050 -0.6987 -0.3174
 6386TIP3    H119122   4.627   1.638   3.250 -3.0496  0.0328  0.6560
 6386TIP3    H219123   4.575   1.780   3.266  1.4335  1.9655 -0.3982
 6387TIP3   OH219124   0.411   2.650   1.962 -0.2173  0.7532 -0.3217
 6387TIP3    H119125   0.454   2.734   1.977  0.1267  0.8917 -1.8905
 6387TIP3    H219126   0.469   2.604   1.902  0.1187 -1.0566  1.2988
 6388TIP3   OH219127   0.417   6.468   0.112 -0.2002 -0.3793  0.0844
 6388TIP3    H119128   0.375   6.396   0.064  1.0100 -0.6360 -0.6291
 6388TIP3    H219129   0.499   6.430   0.144 -0.1783  0.3035  0.8759
 6389TIP3   OH219130   2.063   3.232   2.562  0.0064 -0.5739 -0.1225
 6389TIP3    H119131   2.044   3.326   2.567  0.0436 -0.6324  1.4516
 6389TIP3    H219132   2.051   3.211   2.470 -0.6033  0.8485 -0.4008
 6390TIP3   OH219133   7.190   5.995   0.215 -0.2178 -0.5313 -0.1962
 6390TIP3    H119134   7.104   6.034   0.204 -0.7591  0.1475  4.4805
 6390TIP3    H219135   7.214   6.015   0.305  2.7348 -4.8075  0.2601
 6391TIP3   OH219136   4.118   5.042   0.055  0.2637  0.0715  0.0389
 6391TIP3    H119137   4.185   5.103   0.086 -0.6926  0.5064  1.3182
 6391TIP3    H219138   4.168   4.967   0.021  1.4266 -0.2247  2.2142
 6392TIP3   OH219139   2.732   0.132   2.819 -0.4936 -0.1497 -0.1421
 6392TIP3    H119140   2.690   0.076   2.753 -1.0832 -0.6524  0.6321
 6392TIP3    H219141   2.820   0.095   2.829 -0.2847  0.1375 -0.8798
 6393TIP3   OH219142   1.874   2.624   2.598  0.3121  0.6551 -0.2576
 6393TIP3    H119143   1.885   2.592   2.509 -2.3491 -1.1291 -0.0321
 6393TIP3    H219144   1.864   2.719   2.589  0.5335  0.5443 -1.7930
 6394TIP3   OH219145   4.748   2.995   4.741 -0.8104 -0.2347 -0.9079
 6394TIP3    H119146   4.810   2.943   4.690 -1.4366  0.5830 -2.5801
 6394TIP3    H219147   4.800   3.066   4.776 -0.0782 -1.5663  0.8632
 6395TIP3   OH219148   4.377   4.198   5.733 -0.4013 -0.1825  0.0969
 6395TIP3    H119149   4.288   4.162   5.740  0.0120 -1.5854 -1.1779
 6395TIP3    H219150   4.412   4.192   5.822 -2.1202  2.0082  0.9975
 6396TIP3   OH219151   5.900   5.733   0.217 -0.6280 -0.3775 -0.0522
 6396TIP3    H119152   5.805   5.741   0.212 -0.7869 -2.5022 -1.7542
 6396TIP3    H219153   5.924   5.679   0.142  1.8553 -0.5718  0.7794
 6397TIP3   OH219154   0.856   6.336   2.762 -0.1589  0.5022 -0.2272
 6397TIP3    H119155   0.939   6.337   2.810 -0.4677  0.3043  0.3123
 6397TIP3    H219156   0.866   6.406   2.697  1.1901 -0.7580 -1.4678
 6398TIP3   OH219157   6.523   6.506   2.932 -0.2780  0.2872 -0.1510
 6398TIP3    H119158   6.606   6.519   2.979 -1.0051 -1.5824  1.8134
 6398TIP3    H219159   6.459   6.554   2.983 -0.7089  0.2015 -0.6073
 6399TIP3   OH219160   2.406   5.318   5.056  0.0173  0.3429 -0.0999
 6399TIP3    H119161   2.390   5.239   5.005  0.0823  0.2194  0.0714
 6399TIP3    H219162   2.432   5.384   4.992  0.5463  0.0653 -0.1667
 6400TIP3   OH219163   6.233   1.267   4.019  0.7939  0.0628 -0.2565
 6400TIP3    H119164   6.302   1.228   4.074  0.9957  0.1460 -0.4489
 6400TIP3    H219165   6.257   1.242   3.930  1.4558  1.4286 -0.4736
 6401TIP3   OH219166   6.538   2.647   0.230 -0.2072 -0.5752  0.7502
 6401TIP3    H119167   6.492   2.625   0.149 -0.1998 -1.5331  0.9887
 6401TIP3    H219168   6.629   2.625   0.213 -0.3774 -1.8862  1.3736
 6402TIP3   OH219169   6.081   4.785   5.868 -0.3909  0.1408  0.4730
 6402TIP3    H119170   6.154   4.847   5.868 -0.7812  0.6131  1.4601
 6402TIP3    H219171   6.003   4.839   5.858 -0.5634 -0.5281 -3.8708
 6403TIP3   OH219172   5.892   0.890   2.976  0.2956 -0.8009 -0.8870
 6403TIP3    H119173   5.839   0.968   2.960  1.7891  0.3091 -0.6252
 6403TIP3    H219174   5.974   0.924   3.010  1.3351 -2.4426 -1.6663
 6404TIP3   OH219175   5.840   6.272   1.878 -0.6229  0.0308  0.4934
 6404TIP3    H119176   5.934   6.263   1.893 -0.1935  1.1556 -1.2251
 6404TIP3    H219177   5.806   6.183   1.882  1.3590 -1.1520 -3.6041
 6405TIP3   OH219178   2.878   1.099   4.542  0.8818  0.1599 -0.4602
 6405TIP3    H119179   2.972   1.088   4.529  0.6371 -2.4866 -0.5381
 6405TIP3    H219180   2.840   1.089   4.455  0.4525 -0.4383 -0.2178
 6406TIP3   OH219181   3.782   6.447   5.092 -0.4780  0.3676  0.2492
 6406TIP3    H119182   3.863   6.484   5.057  0.3760  0.7052  2.4046
 6406TIP3    H219183   3.776   6.482   5.181  0.1155 -4.0106  2.3354
 6407TIP3   OH219184   6.724   5.174   0.351 -0.1495  0.3636  0.7862
 6407TIP3    H119185   6.706   5.096   0.403 -0.8724  1.0935  1.6667
 6407TIP3    H219186   6.638   5.202   0.319 -0.2800  2.2179  2.5806
 6408TIP3   OH219187   3.448   3.469   3.692  0.2785  0.0519 -0.1298
 6408TIP3    H119188   3.432   3.531   3.763  2.5263  0.7710 -0.1536
 6408TIP3    H219189   3.478   3.389   3.735  0.5766  0.1122 -0.2221
 6409TIP3   OH219190   4.738   2.285   1.028  0.4544  0.3469  0.2450
 6409TIP3    H119191   4.650   2.313   1.006  0.8648  0.6281 -1.1453
 6409TIP3    H219192   4.731   2.189   1.035  0.1750  0.2949 -0.5949
 6410TIP3   OH219193   6.682   1.091   5.009  0.3560  0.7330 -0.2468
 6410TIP3    H119194   6.710   1.035   4.937  0.0399  0.7025 -0.3465
 6410TIP3    H219195   6.629   1.034   5.065 -1.4947  1.3455 -1.2766
 6411TIP3   OH219196   1.653   6.431   1.778 -0.0274  0.2152 -0.7877
 6411TIP3    H119197   1.583   6.393   1.831 -0.1178 -0.1509 -1.1628
 6411TIP3    H219198   1.665   6.519   1.812 -0.6116  0.2474 -0.6660
 6412TIP3   OH219199   3.188   3.787   1.178  0.5293  0.2225 -0.4378
 6412TIP3    H119200   3.119   3.763   1.116 -1.4142 -0.8236  1.9707
 6412TIP3    H219201   3.254   3.831   1.124 -2.6298  2.6873 -2.7052
 6413TIP3   OH219202   5.530   5.929   0.096  0.4484  0.3653 -0.0117
 6413TIP3    H119203   5.437   5.912   0.086  0.3389  1.0466 -0.2306
 6413TIP3    H219204   5.535   5.987   0.172  0.8893 -1.3579  1.3447
 6414TIP3   OH219205   4.404   1.343   0.634 -0.7871  1.0832  0.1842
 6414TIP3    H119206   4.397   1.252   0.662 -1.9585  1.0386 -0.1789
 6414TIP3    H219207   4.385   1.394   0.712 -2.6955  0.9686 -0.1464
 6415TIP3   OH219208   6.338   3.408   5.287 -0.6676  0.7944  0.1139
 6415TIP3    H119209   6.346   3.339   5.353 -0.1028  1.7125  1.0276
 6415TIP3    H219210   6.274   3.469   5.324  0.8016  2.1162  0.5674
 6416TIP3   OH219211   6.320   2.857   0.972  0.2919  0.1393  0.2130
 6416TIP3    H119212   6.290   2.859   1.063 -0.9449  1.5218 -0.1914
 6416TIP3    H219213   6.411   2.888   0.976  1.4163 -2.8995  1.3083
 6417TIP3   OH219214   6.598   1.971   2.143  1.0542  0.1753  0.6088
 6417TIP3    H119215   6.624   1.938   2.229 -0.0337 -2.1527  0.1390
 6417TIP3    H219216   6.563   2.058   2.160  2.1033  0.3116  2.3027
 6418TIP3   OH219217   6.906   0.978   4.377  0.4268  0.9817  0.3408
 6418TIP3    H119218   6.995   0.983   4.342 -0.0464  0.4384 -1.0059
 6418TIP3    H219219   6.905   0.899   4.431  0.7573  0.9813  0.3471
 6419TIP3   OH219220   3.709   1.046   3.110  0.0081 -0.0542 -0.2943
 6419TIP3    H119221   3.791   1.003   3.088 -0.8030 -1.0746 -1.4984
 6419TIP3    H219222   3.715   1.063   3.204  1.2445 -0.8988 -0.2021
 6420TIP3   OH219223   3.056   5.815   0.374 -0.2744 -0.6945  0.2110
 6420TIP3    H119224   3.087   5.727   0.354  1.1935  0.1785 -1.6454
 6420TIP3    H219225   3.135   5.864   0.397 -1.0526  0.1922  1.1168
 6421TIP3   OH219226   2.026   4.631   3.595 -0.2699  0.5579 -0.2132
 6421TIP3    H119227   1.973   4.673   3.662  0.9038 -0.2117  1.2793
 6421TIP3    H219228   2.055   4.549   3.635  0.6286  0.1509 -1.5991
 6422TIP3   OH219229   0.520   3.434   4.576  0.0777  0.1855  0.2171
 6422TIP3    H119230   0.598   3.489   4.581 -1.3974  2.3833  0.6988
 6422TIP3    H219231   0.448   3.493   4.601 -1.6017 -2.0533  0.9379
 6423TIP3   OH219232   6.301   6.207   1.902  0.4815  0.1141  0.4910
 6423TIP3    H119233   6.248   6.259   1.963  0.5725  0.8031 -0.0042
 6423TIP3    H219234   6.271   6.234   1.815  0.9430 -0.2411  0.2162
 6424TIP3   OH219235   6.182   1.977   3.413  0.0993  0.1242  0.6990
 6424TIP3    H119236   6.147   1.959   3.326  0.6036  0.0572  0.5070
 6424TIP3    H219237   6.122   1.932   3.473  1.4616 -2.5234  0.2343
 6425TIP3   OH219238   2.728   6.004   0.264  0.1395 -0.2669  0.1962
 6425TIP3    H119239   2.661   6.071   0.248  1.7297  1.2184 -0.5482
 6425TIP3    H219240   2.737   6.001   0.359 -1.3492 -0.9136  0.3546
 6426TIP3   OH219241   2.657   6.111   1.983  0.5599 -0.6282 -0.7264
 6426TIP3    H119242   2.643   6.027   2.028 -0.1889  0.5064  1.3085
 6426TIP3    H219243   2.575   6.159   1.997  1.4926  0.9886 -0.5535
 6427TIP3   OH219244   3.717   5.778   5.443  0.1680  0.2876  0.3848
 6427TIP3    H119245   3.728   5.849   5.380  1.1546 -0.0685  0.1330
 6427TIP3    H219246   3.658   5.813   5.510  0.3813  1.2209  0.0895
 6428TIP3   OH219247   3.995   6.015   4.379 -0.1358 -0.0231 -0.3935
 6428TIP3    H119248   3.963   6.099   4.347 -1.0196  0.2712  1.1658
 6428TIP3    H219249   3.917   5.960   4.382  0.3754 -0.8034 -1.0579
 6429TIP3   OH219250   5.892   5.765   4.170  0.1791  0.0116 -0.3932
 6429TIP3    H119251   5.978   5.749   4.132 -0.0136  0.3867 -1.0142
 6429TIP3    H219252   5.842   5.806   4.099 -1.0684 -1.8304 -0.6320
 6430TIP3   OH219253   5.710   0.901   2.479  0.1698 -0.0474 -0.1609
 6430TIP3    H119254   5.725   0.825   2.424 -1.7520 -0.6014  0.0059
 6430TIP3    H219255   5.709   0.867   2.568 -0.7792  0.1305 -0.0905
 6431TIP3   OH219256   6.890   5.071   5.588  0.0926 -0.1617  0.2312
 6431TIP3    H119257   6.877   5.144   5.649 -0.0517  0.3617 -0.4196
 6431TIP3    H219258   6.980   5.082   5.557  0.5349 -1.0445  1.1418
 6432TIP3   OH219259   6.285   6.769   0.797  0.4000 -0.5883  0.4301
 6432TIP3    H119260   6.270   6.852   0.753  1.0102 -0.5834  0.2219
 6432TIP3    H219261   6.380   6.763   0.805  0.3048 -0.2749  2.3283
 6433TIP3   OH219262   2.550   3.689   4.361 -0.3531 -0.8300 -0.0159
 6433TIP3    H119263   2.463   3.727   4.373  0.2114  0.3987  0.2826
 6433TIP3    H219264   2.569   3.645   4.444 -0.1856 -0.0411  0.3692
 6434TIP3   OH219265   4.529   0.096   4.669 -0.5418 -0.1539  0.3578
 6434TIP3    H119266   4.455   0.138   4.626  0.1778  0.9280  0.1477
 6434TIP3    H219267   4.569   0.165   4.721  1.0264 -0.3964 -0.4679
 6435TIP3   OH219268   0.923   2.203   3.042 -0.7914 -0.2784  0.1449
 6435TIP3    H119269   0.859   2.205   3.113 -2.0599  0.3291 -0.9567
 6435TIP3    H219270   0.876   2.240   2.967  1.0959  0.9229 -0.5236
 6436TIP3   OH219271   3.791   1.645   1.779  0.5702  0.0983  0.4172
 6436TIP3    H119272   3.744   1.651   1.861 -0.3545 -0.2364 -0.0764
 6436TIP3    H219273   3.881   1.671   1.800  0.3245  0.0821  1.5048
 6437TIP3   OH219274   5.174   2.937   2.828 -0.0687  0.1301 -0.1717
 6437TIP3    H119275   5.104   2.930   2.763 -0.4398  1.5128  0.0431
 6437TIP3    H219276   5.194   2.846   2.852 -0.5499 -0.3657 -1.5391
 6438TIP3   OH219277   4.787   5.649   2.436 -0.3824 -0.1561  0.1998
 6438TIP3    H119278   4.709   5.627   2.486 -0.8593 -2.0876 -1.2339
 6438TIP3    H219279   4.832   5.565   2.424  0.9227  0.6185 -0.5945
 6439TIP3   OH219280   4.308   2.816   3.847 -0.2914 -0.2762  0.6566
 6439TIP3    H119281   4.329   2.723   3.834  1.6439 -0.0049  1.5669
 6439TIP3    H219282   4.343   2.837   3.934 -2.6315  0.8005  1.4202
 6440TIP3   OH219283   4.628   2.726   5.052 -0.2578 -0.2357  0.2435
 6440TIP3    H119284   4.647   2.709   4.960 -0.2622  0.4335  0.1098
 6440TIP3    H219285   4.632   2.821   5.060 -0.7464 -0.2542  0.8280
 6441TIP3   OH219286   4.752   1.688   5.699 -0.0594 -0.0465 -0.0872
 6441TIP3    H119287   4.732   1.738   5.779  1.4240  1.0052 -0.3259
 6441TIP3    H219288   4.666   1.663   5.665 -0.7351 -1.8723  2.6108
 6442TIP3   OH219289   5.511   2.147   1.232 -0.6022  0.1622  0.2233
 6442TIP3    H119290   5.541   2.106   1.150 -1.9242 -1.4215  0.4879
 6442TIP3    H219291   5.508   2.240   1.212  0.3552 -0.0584 -1.1161
 6443TIP3   OH219292   1.250   5.647   1.456 -0.2435  0.1057 -0.1072
 6443TIP3    H119293   1.328   5.675   1.505 -0.7757  1.5687 -0.0409
 6443TIP3    H219294   1.177   5.690   1.501 -0.9954 -0.4787 -0.7453
 6444TIP3   OH219295   4.200   3.392   1.236 -0.5043 -0.2794  0.4183
 6444TIP3    H119296   4.292   3.401   1.211 -0.9376 -0.3077 -1.2877
 6444TIP3    H219297   4.174   3.479   1.265 -0.2546  0.0292 -0.2634
 6445TIP3   OH219298   2.069   2.628   2.790  0.1832  0.0245 -0.5250
 6445TIP3    H119299   2.129   2.554   2.803  0.9698  0.8882  1.0530
 6445TIP3    H219300   2.010   2.599   2.720  0.1145 -2.2974  0.4137
 6446TIP3   OH219301   4.091   5.964   2.765  0.1298  0.0550 -0.0487
 6446TIP3    H119302   4.139   5.917   2.697 -0.5432  0.1114 -0.5704
 6446TIP3    H219303   4.120   6.055   2.758  2.1881 -0.3774  1.6069
 6447TIP3   OH219304   1.902   4.216   3.536  0.1615 -0.1305  0.1420
 6447TIP3    H119305   1.892   4.121   3.533  0.0921 -0.1275  0.2743
 6447TIP3    H219306   1.990   4.230   3.570  1.4782 -0.1744 -2.9586
 6448TIP3   OH219307   5.447   6.255   4.001  0.4684  0.4542  0.0996
 6448TIP3    H119308   5.400   6.334   3.974  1.2433  0.9370  0.1269
 6448TIP3    H219309   5.525   6.288   4.047 -0.1291 -0.3380  1.7630
 6449TIP3   OH219310   0.158   0.342   5.183  0.1547  0.1658  0.1850
 6449TIP3    H119311   0.208   0.394   5.120  0.8430 -0.2872  0.3467
 6449TIP3    H219312   0.210   0.345   5.263  0.3967 -1.0747  0.0947
 6450TIP3   OH219313   0.997   2.877   0.462  0.1726  0.3037  0.1593
 6450TIP3    H119314   1.041   2.904   0.543  0.8109  0.4372 -0.2283
 6450TIP3    H219315   0.918   2.931   0.459  0.5049  0.8123  0.3323
 6451TIP3   OH219316   3.702   4.364   0.847  0.0590  0.7779  0.1459
 6451TIP3    H119317   3.665   4.425   0.783 -1.8464 -0.6091 -0.1858
 6451TIP3    H219318   3.629   4.346   0.907  0.1872 -1.9001 -0.3660
 6452TIP3   OH219319   5.525   3.195   5.322 -0.5636 -0.0198 -0.0260
 6452TIP3    H119320   5.588   3.266   5.312  0.3480 -0.6046  1.2876
 6452TIP3    H219321   5.542   3.136   5.249 -0.4990  0.4882 -0.4242
 6453TIP3   OH219322   6.171   3.960   0.510 -0.0789  0.0913 -0.4356
 6453TIP3    H119323   6.142   3.887   0.564  0.0765  1.9241  2.3037
 6453TIP3    H219324   6.090   4.005   0.486 -0.0724 -0.1170 -0.8641
 6454TIP3   OH219325   4.683   5.906   5.200  1.1008 -0.1693 -0.8575
 6454TIP3    H119326   4.703   5.999   5.187  0.0261  0.1748 -0.1950
 6454TIP3    H219327   4.763   5.869   5.238  1.3027  0.6451 -0.4690
 6455TIP3   OH219328   6.450   5.576   4.805 -0.0268  0.7194  0.0736
 6455TIP3    H119329   6.363   5.545   4.778  0.2559  1.2262 -1.4854
 6455TIP3    H219330   6.502   5.496   4.815 -0.1707  0.5050 -0.8117
 6456TIP3   OH219331   2.716   4.322   5.250  0.2368 -0.3826  0.3325
 6456TIP3    H119332   2.782   4.322   5.181 -0.5830 -0.1245 -0.4747
 6456TIP3    H219333   2.681   4.411   5.251 -1.6608 -1.0454 -0.8245
 6457TIP3   OH219334   1.162   4.707   0.005  0.3662  0.1810  0.7041
 6457TIP3    H119335   1.084   4.750   0.040  1.5818  1.8733  1.4502
 6457TIP3    H219336   1.144   4.614   0.014 -2.7286  0.3711 -1.7647
 6458TIP3   OH219337   1.327   5.234   0.676  0.0959 -0.2733  0.2194
 6458TIP3    H119338   1.361   5.159   0.725  3.8029 -0.0807 -1.7559
 6458TIP3    H219339   1.390   5.304   0.692 -0.1506  0.6605 -2.4620
 6459TIP3   OH219340   0.080   0.886   5.476 -0.0919 -0.3704  0.2388
 6459TIP3    H119341   0.073   0.878   5.381 -0.8311  1.3877  0.0956
 6459TIP3    H219342   0.166   0.925   5.490 -0.1680 -0.2025  0.2453
 6460TIP3   OH219343   2.282   5.552   2.162 -0.1828 -0.5227  0.2997
 6460TIP3    H119344   2.201   5.544   2.112 -0.5366  2.5560  0.1949
 6460TIP3    H219345   2.254   5.577   2.250  0.5772  2.3180 -0.1663
 6461TIP3   OH219346   6.897   4.923   5.358 -0.0175  0.0535  0.5297
 6461TIP3    H119347   6.861   4.972   5.432  0.9054  1.5986  0.0009
 6461TIP3    H219348   6.900   4.987   5.287  1.2956 -0.7606 -0.1696
 6462TIP3   OH219349   2.559   0.008   1.938  0.1852  0.0792 -0.4671
 6462TIP3    H119350   2.551   0.096   1.975  1.3961  0.0538 -0.0944
 6462TIP3    H219351   2.508  -0.047   1.997 -0.9088  0.5684 -0.9207
 6463TIP3   OH219352   6.812   2.013   5.315 -0.0672 -0.8006  0.1491
 6463TIP3    H119353   6.734   2.003   5.370  0.2662  0.2170  0.8485
 6463TIP3    H219354   6.802   2.098   5.274  1.1015 -0.2226  0.9951
 6464TIP3   OH219355   3.513   4.343   5.477 -0.8712 -0.3783 -0.1353
 6464TIP3    H119356   3.548   4.261   5.442 -0.3082 -0.9420  1.6124
 6464TIP3    H219357   3.445   4.316   5.539 -2.5239  0.6151 -1.4220
 6465TIP3   OH219358   5.166   4.994   2.460 -0.6378  0.2868 -0.3850
 6465TIP3    H119359   5.258   4.970   2.467 -0.9089 -0.6027  0.2862
 6465TIP3    H219360   5.163   5.085   2.489 -0.0147  0.2253 -0.1100
 6466TIP3   OH219361   1.052   1.659   5.207  0.3851  0.4061  0.4517
 6466TIP3    H119362   1.017   1.657   5.296  1.4515 -0.2532  0.8760
 6466TIP3    H219363   0.980   1.693   5.154  0.5518  3.3505  1.9172
 6467TIP3   OH219364   2.788   0.280   2.489 -0.1796  0.5002 -0.0795
 6467TIP3    H119365   2.735   0.340   2.541 -0.6773  1.4593 -1.6261
 6467TIP3    H219366   2.878   0.309   2.503 -0.2573  0.3839  0.6813
 6468TIP3   OH219367   4.057   4.735   2.389  0.3603 -0.3426 -0.4151
 6468TIP3    H119368   4.046   4.772   2.477  0.3785  1.1635 -1.0093
 6468TIP3    H219369   3.997   4.660   2.386  0.1379 -0.2239  0.7811
 6469TIP3   OH219370   2.973   5.755   2.171 -0.6001 -0.6986 -0.5107
 6469TIP3    H119371   2.886   5.719   2.157  0.1090 -2.4608 -0.6515
 6469TIP3    H219372   3.033   5.683   2.151  0.8103 -0.2914  1.7844
 6470TIP3   OH219373   5.972   1.530   3.012  0.1238 -0.4918  0.6283
 6470TIP3    H119374   5.905   1.462   3.020 -0.3013 -0.1553  0.0180
 6470TIP3    H219375   6.035   1.494   2.950  0.3634 -0.6957  0.9908
 6471TIP3   OH219376   5.667   5.766   5.089 -0.5847  0.6080 -0.5343
 6471TIP3    H119377   5.681   5.860   5.093  1.8128  0.2680  0.3440
 6471TIP3    H219378   5.739   5.728   5.140 -1.2187 -1.7197 -1.2455
 6472TIP3   OH219379   0.495   4.068   4.622  0.2113 -0.4747 -0.1569
 6472TIP3    H119380   0.429   4.061   4.553 -1.0695  1.3667  0.7857
 6472TIP3    H219381   0.454   4.030   4.699 -0.6759  2.4292  0.9524
 6473TIP3   OH219382   1.505   4.307   4.687 -0.2233  0.2040  0.2159
 6473TIP3    H119383   1.508   4.364   4.611 -1.7697 -0.7093 -0.5962
 6473TIP3    H219384   1.558   4.231   4.663  0.2099  0.4100  0.5087
 6474TIP3   OH219385   0.554   3.930   1.579 -0.1073  0.1611  0.0365
 6474TIP3    H119386   0.569   3.840   1.549  1.3569  0.0364  1.0121
 6474TIP3    H219387   0.460   3.935   1.595 -0.2811 -1.0476 -0.4893
 6475TIP3   OH219388   5.467   1.686   0.366 -0.1771 -0.0663  0.0422
 6475TIP3    H119389   5.539   1.708   0.426  1.1734 -0.3747 -1.3981
 6475TIP3    H219390   5.421   1.769   0.353  1.8134  0.9013 -1.3905
 6476TIP3   OH219391   1.378   1.686   4.792  0.3706 -0.1001  0.1403
 6476TIP3    H119392   1.421   1.638   4.720  0.0675  0.6043 -0.5234
 6476TIP3    H219393   1.434   1.762   4.806 -0.7440  0.9499 -0.8869
 6477TIP3   OH219394   5.942   4.241   3.792 -0.1958  1.2166  0.4335
 6477TIP3    H119395   5.945   4.241   3.696  1.4007  1.7493  0.4645
 6477TIP3    H219396   5.998   4.313   3.818 -1.7274  1.9734  1.7746
 6478TIP3   OH219397   6.259   3.638   1.398  0.4034 -0.1185 -0.6074
 6478TIP3    H119398   6.349   3.637   1.428  0.2290  0.9628  0.0118
 6478TIP3    H219399   6.207   3.614   1.475  0.0890  0.4283 -0.6439
 6479TIP3   OH219400   0.065   0.138   5.009  0.4065  0.3916 -0.6081
 6479TIP3    H119401   0.098   0.187   5.085  0.9984  1.4331 -1.5130
 6479TIP3    H219402   0.027   0.205   4.952  1.5640 -0.1403 -2.0559
 6480TIP3   OH219403   3.498   6.664   2.512 -0.0733 -0.2780  0.2573
 6480TIP3    H119404   3.479   6.697   2.424 -1.8568  0.1265  0.7367
 6480TIP3    H219405   3.580   6.616   2.503  0.2484  0.4985 -1.4295
 6481TIP3   OH219406   0.639   4.826   5.063  0.0745 -0.4850 -0.3279
 6481TIP3    H119407   0.719   4.819   5.115  0.0801  0.7685 -0.1439
 6481TIP3    H219408   0.670   4.845   4.974 -0.0160 -0.1270 -0.2828
 6482TIP3   OH219409   5.335   1.513   0.198  0.0682 -0.6235  0.3978
 6482TIP3    H119410   5.403   1.566   0.240 -0.2885 -0.4870  0.8122
 6482TIP3    H219411   5.363   1.507   0.107 -1.2798  2.6530 -0.3544
 6483TIP3   OH219412   3.510   3.834   1.480 -0.3291 -0.0489  0.0677
 6483TIP3    H119413   3.561   3.907   1.445  1.8042 -1.0380  0.9740
 6483TIP3    H219414   3.454   3.874   1.547 -0.3649  0.9828 -0.5539
 6484TIP3   OH219415   5.780   1.808   0.426 -0.3166 -0.4902 -0.2267
 6484TIP3    H119416   5.782   1.781   0.518  1.3390  0.7401  0.1360
 6484TIP3    H219417   5.714   1.877   0.423  0.8664  0.7193  0.4553
 6485TIP3   OH219418   6.604   6.625   4.438 -0.4737 -0.0759  0.5440
 6485TIP3    H119419   6.597   6.712   4.398 -0.2629  0.0343  0.7486
 6485TIP3    H219420   6.514   6.605   4.465 -0.6334 -0.1817 -0.0415
 6486TIP3   OH219421   3.059   2.573   5.468 -0.2106  0.3487 -0.1201
 6486TIP3    H119422   3.005   2.576   5.389 -1.4373  0.7940  0.7100
 6486TIP3    H219423   3.108   2.655   5.467 -0.9382  0.7911  0.0636
 6487TIP3   OH219424   3.689   1.230   4.035 -0.1408 -0.0861 -0.1978
 6487TIP3    H119425   3.647   1.312   4.060 -0.8551 -0.5233  0.0633
 6487TIP3    H219426   3.633   1.161   4.071  0.7079 -0.6917  0.0123
 6488TIP3   OH219427   6.163   6.465   1.814  0.0412 -0.1898 -0.1289
 6488TIP3    H119428   6.254   6.494   1.804  0.1578 -0.0707  1.1557
 6488TIP3    H219429   6.141   6.486   1.904 -1.4300  0.2175 -0.5527
 6489TIP3   OH219430   6.519   5.245   1.397  0.1224  0.1380 -0.4018
 6489TIP3    H119431   6.481   5.265   1.482 -1.1728  0.9711 -1.1322
 6489TIP3    H219432   6.590   5.307   1.386 -0.8042  1.1961 -0.6203
 6490TIP3   OH219433   3.676   4.868   4.107  0.0444 -0.2402 -0.7054
 6490TIP3    H119434   3.658   4.959   4.130 -2.0066 -0.9375  0.7753
 6490TIP3    H219435   3.770   4.857   4.121 -0.2205  0.7717  2.5575
 6491TIP3   OH219436   2.051   4.703   5.388 -0.0246 -0.2065 -0.4343
 6491TIP3    H119437   2.142   4.705   5.358 -0.1032  0.7917 -0.6629
 6491TIP3    H219438   2.003   4.753   5.322 -1.0087 -1.9457 -1.0980
 6492TIP3   OH219439   0.660   3.420   5.817 -0.4485  0.2154 -0.3210
 6492TIP3    H119440   0.637   3.347   5.876  0.5196  0.6781  0.6527
 6492TIP3    H219441   0.593   3.486   5.834  0.2427  0.6468  0.8415
 6493TIP3   OH219442   3.792   3.954   4.101 -0.3747 -0.4807 -0.2955
 6493TIP3    H119443   3.712   4.004   4.119 -0.5741 -0.8111 -0.2554
 6493TIP3    H219444   3.813   3.974   4.010  1.1739  1.9620  0.5025
 6494TIP3   OH219445   2.968   6.250   4.867  0.7111 -0.2376  0.4867
 6494TIP3    H119446   2.944   6.291   4.784  0.0538  0.0716  0.8287
 6494TIP3    H219447   3.061   6.270   4.877  0.6527  0.2329  0.1180
 6495TIP3   OH219448   6.829   1.591   0.605 -0.4691 -0.7655 -0.6300
 6495TIP3    H119449   6.897   1.567   0.668  1.8970  0.3082 -2.5797
 6495TIP3    H219450   6.807   1.682   0.626 -0.6909 -0.8517 -0.4931
 6496TIP3   OH219451   0.344   3.667   3.283 -0.0196 -0.0533  0.1623
 6496TIP3    H119452   0.298   3.594   3.243 -1.5737  0.0021  1.7415
 6496TIP3    H219453   0.276   3.730   3.305  1.2463  1.7899 -0.9013
 6497TIP3   OH219454   2.981   3.340   3.420 -0.1590 -0.4270  0.5043
 6497TIP3    H119455   2.908   3.397   3.445 -0.1372  0.5122 -1.4176
 6497TIP3    H219456   3.055   3.373   3.471  0.6732  3.5617 -2.8095
 6498TIP3   OH219457   5.759   1.467   5.056 -0.3382 -0.4579 -0.4304
 6498TIP3    H119458   5.693   1.526   5.020  0.3600  1.2821  0.9916
 6498TIP3    H219459   5.712   1.384   5.069 -2.2372  0.7013  0.4669
 6499TIP3   OH219460   1.436   0.188   0.619  0.2260  0.6125 -0.4172
 6499TIP3    H119461   1.398   0.146   0.542  0.6323  0.8918 -0.7717
 6499TIP3    H219462   1.525   0.210   0.593  0.4584  0.4559  0.2267
 6500TIP3   OH219463   6.823   0.451   2.995  0.1163 -0.2618 -0.1591
 6500TIP3    H119464   6.809   0.411   2.909 -0.2470  0.2015 -0.3209
 6500TIP3    H219465   6.886   0.393   3.039  0.2835 -0.5154 -0.7250
 6501TIP3   OH219466   0.545   3.163   4.077 -0.2634 -0.2173  0.2403
 6501TIP3    H119467   0.494   3.175   3.996 -1.8146 -0.8077  1.0800
 6501TIP3    H219468   0.635   3.155   4.048 -0.9638 -2.4330 -1.6419
 6502TIP3   OH219469   6.579   3.571   3.634 -0.2177 -0.5877 -0.2709
 6502TIP3    H119470   6.554   3.622   3.711  1.5267  1.9039 -1.2275
 6502TIP3    H219471   6.589   3.636   3.564  1.0575 -2.3878 -1.8761
 6503TIP3   OH219472   7.034   4.812   3.414  0.3133 -0.7438 -0.0053
 6503TIP3    H119473   6.982   4.829   3.493  0.0760  1.0210 -0.4936
 6503TIP3    H219474   7.048   4.718   3.415 -1.5285 -1.0691  1.0086
 6504TIP3   OH219475   5.220   3.427   1.660 -0.0524 -0.2692  0.4231
 6504TIP3    H119476   5.226   3.490   1.731  2.2225 -0.6805  0.6715
 6504TIP3    H219477   5.126   3.421   1.642 -0.4000  2.8914  0.5870
 6505TIP3   OH219478   0.744   0.796   3.978  0.2355  0.0738  0.0832
 6505TIP3    H119479   0.779   0.714   4.011 -0.7089 -0.6773 -0.7190
 6505TIP3    H219480   0.698   0.834   4.053  0.4283 -0.2619  0.3774
 6506TIP3   OH219481   0.970   1.609   5.886  0.0890 -0.0180 -0.4497
 6506TIP3    H119482   1.018   1.686   5.855  1.2783 -0.1547  0.9361
 6506TIP3    H219483   1.036   1.540   5.891  0.0674  0.0301  2.3890
 6507TIP3   OH219484   1.313   2.618   3.172 -0.0354  0.1514  0.2700
 6507TIP3    H119485   1.268   2.535   3.157  0.5289 -0.5145  2.0059
 6507TIP3    H219486   1.251   2.685   3.141 -0.8696 -0.8607 -0.3222
 6508TIP3   OH219487   6.107   5.051   2.810 -0.1505 -0.3695  0.2041
 6508TIP3    H119488   6.130   4.996   2.884  1.8128  0.3648  0.1933
 6508TIP3    H219489   6.023   5.017   2.780 -1.1455 -0.5135  2.9098
 6509TIP3   OH219490   5.360   3.087   2.921  0.2270  0.5728  0.4235
 6509TIP3    H119491   5.281   3.052   2.881  0.5194 -0.1029  0.4184
 6509TIP3    H219492   5.426   3.019   2.906  0.7314  1.0022  0.6776
 6510TIP3   OH219493   4.183   1.290   3.376  0.2663 -0.4033 -0.2460
 6510TIP3    H119494   4.199   1.285   3.470  0.6923  1.2883 -0.1985
 6510TIP3    H219495   4.192   1.200   3.345 -1.5066 -1.2614  1.5578
 6511TIP3   OH219496   6.997   6.702   4.722  0.2815 -0.2337 -0.2219
 6511TIP3    H119497   6.942   6.649   4.664  0.2658 -0.2282 -0.2124
 6511TIP3    H219498   7.082   6.658   4.721 -0.0895 -1.0221  0.8128
 6512TIP3   OH219499   4.546   4.743   4.813 -0.1863 -0.8827 -0.1958
 6512TIP3    H119500   4.506   4.761   4.728 -2.0201  1.4863  1.0522
 6512TIP3    H219501   4.520   4.652   4.833 -1.8894 -0.6314 -1.0644
 6513TIP3   OH219502   7.231   3.136   5.462 -0.1657 -0.3717  0.6312
 6513TIP3    H119503   7.154   3.180   5.427 -1.6937 -2.0864  1.6570
 6513TIP3    H219504   7.250   3.066   5.400  0.4317 -0.0860  0.4897
 6514TIP3   OH219505   4.222   0.758   2.926 -0.3438  0.2535  0.1926
 6514TIP3    H119506   4.218   0.747   2.831 -0.0746  0.4195  0.1619
 6514TIP3    H219507   4.298   0.814   2.941  1.1176 -1.7926  0.6897
 6515TIP3   OH219508   5.895   4.784   1.525  0.7180 -0.5138  0.2078
 6515TIP3    H119509   5.824   4.841   1.555  1.0231 -0.5917  1.0936
 6515TIP3    H219510   5.863   4.747   1.442 -0.0656 -0.1597  0.3503
 6516TIP3   OH219511   5.323   6.112   3.121 -0.0046 -0.0753  0.4239
 6516TIP3    H119512   5.307   6.200   3.086 -0.5487 -0.6401 -0.7897
 6516TIP3    H219513   5.413   6.092   3.094 -0.7629 -0.9171 -1.6183
 6517TIP3   OH219514   1.582   3.375   5.480  0.2517  0.0876  0.4416
 6517TIP3    H119515   1.641   3.307   5.447 -0.3995 -0.9096  1.2510
 6517TIP3    H219516   1.640   3.447   5.505  0.8949  0.1726 -1.1556
 6518TIP3   OH219517   0.125   1.141   5.372  0.0230 -0.5082 -0.1076
 6518TIP3    H119518   0.038   1.104   5.383 -0.4804  1.1263  1.8737
 6518TIP3    H219519   0.155   1.107   5.287 -1.7879 -2.5135 -0.0074
 6519TIP3   OH219520   0.177   5.077   2.014  0.0704  0.4277  0.1952
 6519TIP3    H119521   0.127   5.158   2.015  0.8582  0.9535 -1.0721
 6519TIP3    H219522   0.243   5.090   1.947  2.0529 -0.1663  1.9228
 6520TIP3   OH219523   0.480   3.608   5.807  0.4379  0.2653 -0.5606
 6520TIP3    H119524   0.495   3.702   5.819 -1.8167  0.6881 -0.6784
 6520TIP3    H219525   0.404   3.602   5.750  1.1334 -1.6640 -1.3820
 6521TIP3   OH219526   4.388   0.770   5.360 -0.3797 -0.3024 -0.7316
 6521TIP3    H119527   4.330   0.724   5.299  0.6280 -2.2929 -0.2898
 6521TIP3    H219528   4.347   0.758   5.446  0.8376 -2.1825 -0.3388
 6522TIP3   OH219529   2.366   0.063   4.541  0.4692 -0.1872 -0.1159
 6522TIP3    H119530   2.309   0.005   4.592  1.3174 -0.9415 -0.0147
 6522TIP3    H219531   2.311   0.088   4.466 -0.0232 -0.8575  0.0051
 6523TIP3   OH219532   1.434   3.002   4.163  0.2952 -0.1578  0.1439
 6523TIP3    H119533   1.399   2.990   4.075  0.7564  0.8848 -0.2113
 6523TIP3    H219534   1.493   2.928   4.176 -0.1296 -0.5684 -0.2395
 6524TIP3   OH219535   1.136   0.103   5.509 -0.4005  0.0636  0.0042
 6524TIP3    H119536   1.224   0.068   5.521  0.2225  1.7630  0.6440
 6524TIP3    H219537   1.084   0.059   5.576  0.4656  0.6677  1.1125
 6525TIP3   OH219538   2.459   1.202   0.703  0.0872  0.0417 -0.2341
 6525TIP3    H119539   2.485   1.169   0.617  0.7631  0.5219 -0.2190
 6525TIP3    H219540   2.448   1.296   0.690  0.5389  0.1713  0.2830
 6526TIP3   OH219541   4.314   0.860   1.741  0.0816  0.0605  0.0542
 6526TIP3    H119542   4.322   0.808   1.821  0.3834 -1.4126 -0.8807
 6526TIP3    H219543   4.239   0.821   1.695 -0.4159  1.2242 -0.1513
 6527TIP3   OH219544   6.799   1.874   3.574 -0.2734  0.4685  0.3816
 6527TIP3    H119545   6.871   1.931   3.600 -0.9729  1.2701  0.6334
 6527TIP3    H219546   6.808   1.797   3.629  2.0457 -0.7629 -1.5404
 6528TIP3   OH219547   4.203   5.372   4.940 -0.5574 -0.2120 -0.4509
 6528TIP3    H119548   4.168   5.395   5.026 -1.3210  1.6630 -1.2086
 6528TIP3    H219549   4.285   5.326   4.959  0.9094  2.8000  1.3262
 6529TIP3   OH219550   2.425   6.081   5.642 -0.0029  0.4639 -0.3057
 6529TIP3    H119551   2.390   6.066   5.730  2.0807  0.3751  0.5738
 6529TIP3    H219552   2.464   6.168   5.647 -1.2282  1.1277 -1.6575
 6530TIP3   OH219553   6.235   0.601   4.971 -0.4898 -0.5332 -0.3972
 6530TIP3    H119554   6.236   0.554   4.888 -0.3303 -0.0747 -0.6622
 6530TIP3    H219555   6.154   0.652   4.969  0.2668  0.6808 -0.9716
 6531TIP3   OH219556   5.891   0.397   3.810  0.5766  0.6570 -0.4483
 6531TIP3    H119557   5.933   0.312   3.798  1.5244  0.8872  1.0174
 6531TIP3    H219558   5.909   0.444   3.729  2.7535  0.5520 -0.0822
 6532TIP3   OH219559   3.475   2.575   2.448  0.0312 -0.1776  0.4069
 6532TIP3    H119560   3.386   2.569   2.483  0.3520 -0.1499  1.2534
 6532TIP3    H219561   3.471   2.645   2.383 -0.1008  1.2977  1.9389
 6533TIP3   OH219562   4.778   3.984   5.647 -0.4920  0.6192 -0.0844
 6533TIP3    H119563   4.786   3.941   5.732  1.7831  1.0461 -0.0402
 6533TIP3    H219564   4.848   4.049   5.645 -0.9295  1.1021 -2.0173
 6534TIP3   OH219565   7.059   1.076   2.597  0.1204  0.5220 -0.2194
 6534TIP3    H119566   7.058   1.011   2.667 -1.2510  1.0815  0.3245
 6534TIP3    H219567   7.039   1.026   2.518  0.7617  0.0337 -0.0815
 6535TIP3   OH219568   7.149   0.147   0.556 -0.3955 -0.0970 -0.3139
 6535TIP3    H119569   7.189   0.232   0.578 -1.2216  0.3881 -0.6304
 6535TIP3    H219570   7.112   0.116   0.638 -1.4115  0.5858 -0.4884
 6536TIP3   OH219571   5.115   3.105   3.658 -0.0631 -0.1149  0.4067
 6536TIP3    H119572   5.206   3.075   3.658 -0.1241 -0.3255 -0.3700
 6536TIP3    H219573   5.114   3.182   3.715  0.8179  0.5372 -0.4451
 6537TIP3   OH219574   2.158   3.371   4.368  0.6425 -0.0562  0.0615
 6537TIP3    H119575   2.178   3.359   4.461 -1.4099 -0.1661  0.5274
 6537TIP3    H219576   2.078   3.322   4.354 -0.0856  1.4402 -1.3300
 6538TIP3   OH219577   1.932   1.479   0.686 -0.2441  0.7175  0.0914
 6538TIP3    H119578   1.903   1.565   0.658  2.5408  1.0741 -2.1836
 6538TIP3    H219579   1.901   1.471   0.776  0.1634  4.5021  0.7288
 6539TIP3   OH219580   4.588   0.610   5.002  0.3985 -0.7715 -0.2013
 6539TIP3    H119581   4.604   0.532   5.054 -0.3767 -0.3571  0.6726
 6539TIP3    H219582   4.668   0.662   5.013  0.8895 -1.3938 -0.7319
 6540TIP3   OH219583   3.026   0.404   4.097 -0.2829 -0.1233  0.3102
 6540TIP3    H119584   3.027   0.395   4.001 -0.6721 -0.2886  0.3210
 6540TIP3    H219585   3.013   0.315   4.129 -0.9258  0.0299  0.4953
 6541TIP3   OH219586   1.352   4.510   2.456  0.1165 -0.0254 -0.0760
 6541TIP3    H119587   1.388   4.494   2.544 -1.7060 -0.7422  0.5774
 6541TIP3    H219588   1.426   4.493   2.397  1.5099  0.8969  1.3100
 6542TIP3   OH219589   5.893   6.514   3.028 -0.4914  0.1684 -0.1363
 6542TIP3    H119590   5.958   6.493   2.960 -0.8555  2.3576 -1.2566
 6542TIP3    H219591   5.854   6.430   3.050  3.4831 -1.5386  1.5137
 6543TIP3   OH219592   2.313   0.474   3.580 -0.8901 -0.3298  0.4438
 6543TIP3    H119593   2.299   0.390   3.622  0.2121 -1.9411 -2.1710
 6543TIP3    H219594   2.317   0.454   3.486 -1.3430  2.7518 -0.3506
 6544TIP3   OH219595   2.614   3.854   5.101  0.2205 -0.0937 -0.0265
 6544TIP3    H119596   2.562   3.862   5.180  0.0744 -0.7137 -0.0557
 6544TIP3    H219597   2.550   3.845   5.030  0.3396  0.8028 -0.2688
 6545TIP3   OH219598   6.525   6.175   4.275 -0.4769 -0.3748  0.1098
 6545TIP3    H119599   6.454   6.139   4.330 -2.4033  2.5892 -0.2384
 6545TIP3    H219600   6.505   6.143   4.187 -1.4780  0.4753  0.0053
 6546TIP3   OH219601   2.280   5.666   1.920 -0.0034 -0.3933 -0.1712
 6546TIP3    H119602   2.305   5.651   2.011  1.5187  0.4955 -0.4196
 6546TIP3    H219603   2.239   5.753   1.921 -1.5768 -1.1036 -0.0694
 6547TIP3   OH219604   3.818   3.116   2.619 -0.0232  0.0098  0.6708
 6547TIP3    H119605   3.827   3.192   2.562  0.6449  1.0176  2.0701
 6547TIP3    H219606   3.832   3.041   2.562  0.9813  0.9980 -0.4117
 6548TIP3   OH219607   4.339   4.029   2.550  0.6594  0.3354  0.2581
 6548TIP3    H119608   4.312   4.010   2.640  0.0639 -0.6181 -0.1111
 6548TIP3    H219609   4.332   4.124   2.543  1.7351  0.5532  1.5347
 6549TIP3   OH219610   0.719   3.803   3.277  0.1119  0.3350  0.2869
 6549TIP3    H119611   0.728   3.779   3.185  0.1346 -0.2079  0.4266
 6549TIP3    H219612   0.674   3.729   3.317 -0.4419  0.8292  0.5962
 6550TIP3   OH219613   2.418   3.951   0.474  0.0781 -0.2680 -0.7827
 6550TIP3    H119614   2.493   4.011   0.472 -0.0234 -0.1326 -0.5928
 6550TIP3    H219615   2.381   3.963   0.561  0.5578 -1.2306 -0.4340
 6551TIP3   OH219616   0.056   2.193   5.375  0.9762 -0.2623  0.2928
 6551TIP3    H119617   0.151   2.194   5.386  0.6825  0.4128  3.7565
 6551TIP3    H219618   0.029   2.106   5.403  0.6025 -0.9114 -1.9162
 6552TIP3   OH219619   3.043   5.824   0.738  0.1340  0.0481  0.7491
 6552TIP3    H119620   2.959   5.802   0.779 -0.6976  0.0788 -0.8489
 6552TIP3    H219621   3.087   5.739   0.728 -0.8818 -0.3386 -0.8019
 6553TIP3   OH219622   2.671   1.546   1.486 -0.4490  0.0062  0.5449
 6553TIP3    H119623   2.732   1.591   1.544 -1.3964  0.7917  0.9752
 6553TIP3    H219624   2.678   1.592   1.402  0.7770 -1.0034  0.0699
 6554TIP3   OH219625   6.334   2.319   5.563 -0.1011  0.2019 -0.3091
 6554TIP3    H119626   6.320   2.276   5.479  1.0070 -0.2197 -0.3004
 6554TIP3    H219627   6.253   2.367   5.580  0.2215  1.5909 -2.3586
 6555TIP3   OH219628   0.200   5.649   4.563 -0.2560 -0.2348  0.0832
 6555TIP3    H119629   0.254   5.729   4.566 -0.4318 -0.0932 -0.3817
 6555TIP3    H219630   0.112   5.679   4.584  0.0566 -0.6979  2.3202
 6556TIP3   OH219631   5.599   0.329   5.906  0.4074  0.5012 -0.2161
 6556TIP3    H119632   5.507   0.353   5.911  0.1673 -0.3345 -0.4282
 6556TIP3    H219633   5.622   0.343   5.814  0.3044  0.0655 -0.3103
 6557TIP3   OH219634   3.781   5.282   5.254 -0.7002 -0.2485 -0.0695
 6557TIP3    H119635   3.688   5.294   5.271 -0.4836 -0.0439  1.0763
 6557TIP3    H219636   3.817   5.250   5.337  0.6467  1.9133  0.2489
 6558TIP3   OH219637   5.841   4.396   1.468  0.4357  0.4079  0.5776
 6558TIP3    H119638   5.792   4.437   1.397  0.3079  0.0109  0.4380
 6558TIP3    H219639   5.774   4.360   1.526  0.5324  0.8665  0.9884
 6559TIP3   OH219640   2.787   3.788   5.431  0.7512 -0.0225 -0.6170
 6559TIP3    H119641   2.824   3.801   5.343  0.9553  1.6008 -0.3379
 6559TIP3    H219642   2.719   3.855   5.438 -0.9553 -1.7028 -0.3920
 6560TIP3   OH219643   7.027   5.127   2.114 -0.0930  0.0676  0.4044
 6560TIP3    H119644   7.014   5.085   2.029  1.2001  0.7191 -0.1441
 6560TIP3    H219645   7.011   5.220   2.098 -2.2188 -0.0549  1.4463
 6561TIP3   OH219646   6.237   6.725   4.213  0.7480 -0.1927  0.5442
 6561TIP3    H119647   6.325   6.722   4.174  0.9084 -0.5549  0.9288
 6561TIP3    H219648   6.251   6.760   4.301  0.2932  1.3695  0.0375
 6562TIP3   OH219649   7.150   6.682   0.022 -0.3309  0.1313  0.0364
 6562TIP3    H119650   7.225   6.626   0.042 -1.7287 -2.2602 -1.0341
 6562TIP3    H219651   7.120   6.712   0.108 -2.9128 -5.4940  1.5436
 6563TIP3   OH219652   0.621   3.514   1.687 -0.0904 -0.0393  0.2877
 6563TIP3    H119653   0.628   3.422   1.662 -0.1877  0.0170  0.0462
 6563TIP3    H219654   0.616   3.561   1.603  0.8558  0.2651  0.3849
 6564TIP3   OH219655   1.925   4.834   5.176  0.9993  0.1948  0.2261
 6564TIP3    H119656   1.846   4.801   5.134  1.1622 -2.2962  1.6633
 6564TIP3    H219657   1.992   4.828   5.108  0.2986  0.8231 -0.5428
 6565TIP3   OH219658   2.414   1.858   2.657 -0.5763  0.1251  0.3097
 6565TIP3    H119659   2.435   1.764   2.660 -2.0061 -0.1997  1.5764
 6565TIP3    H219660   2.464   1.896   2.729 -1.4117  0.0089  0.9541
 6566TIP3   OH219661   0.081   2.035   1.047  0.2317 -0.4337  0.0964
 6566TIP3    H119662   0.083   1.957   0.992  1.2253 -1.3870  1.4292
 6566TIP3    H219663  -0.008   2.035   1.085  0.5024 -1.4297  0.7666
 6567TIP3   OH219664   2.701   4.006   3.269  0.2172 -0.4824 -0.3666
 6567TIP3    H119665   2.751   3.961   3.337  0.1991 -0.8726 -0.6089
 6567TIP3    H219666   2.697   3.944   3.196  0.4502  0.0237 -0.8213
 6568TIP3   OH219667   6.262   1.649   5.124 -0.3275 -0.4061  0.1127
 6568TIP3    H119668   6.305   1.568   5.096 -1.1873 -0.7040 -0.3803
 6568TIP3    H219669   6.256   1.702   5.044 -0.7819 -0.3275  0.1953
 6569TIP3   OH219670   4.768   3.435   5.684  0.1062 -0.3184  0.6325
 6569TIP3    H119671   4.765   3.397   5.772 -0.5537 -1.6962  0.0422
 6569TIP3    H219672   4.688   3.404   5.642 -0.2160  1.3580 -0.0612
 6570TIP3   OH219673   3.557   0.675   5.273 -0.2610  0.3309  0.0137
 6570TIP3    H119674   3.562   0.765   5.307  1.6453 -0.5572  2.3092
 6570TIP3    H219675   3.617   0.674   5.199 -1.5230  1.3058 -1.0767
 6571TIP3   OH219676   4.615   0.871   4.989 -0.7989  0.2436  0.6244
 6571TIP3    H119677   4.562   0.791   4.990  0.8551 -0.8879  1.7604
 6571TIP3    H219678   4.558   0.937   4.950 -2.5543 -1.2463  0.5645
 6572TIP3   OH219679   6.339   2.572   3.309  0.0243  0.0507  0.1767
 6572TIP3    H119680   6.389   2.585   3.228  1.0908 -1.2890  0.5756
 6572TIP3    H219681   6.388   2.621   3.375  0.5510 -0.8554  0.4724
 6573TIP3   OH219682   2.427   5.187   1.611 -0.1634  0.1133  0.0724
 6573TIP3    H119683   2.391   5.099   1.618 -1.3965  0.7060  1.6837
 6573TIP3    H219684   2.482   5.184   1.532  1.3145 -2.5698  1.0796
 6574TIP3   OH219685   4.121   5.388   1.100 -0.2975  0.2306  0.2772
 6574TIP3    H119686   4.067   5.457   1.063  0.2063  0.4784 -0.0138
 6574TIP3    H219687   4.119   5.404   1.194  2.1740  2.4937  0.0708
 6575TIP3   OH219688   2.389   1.878   5.176  0.0110  0.1526  0.1954
 6575TIP3    H119689   2.382   1.861   5.082  1.6722 -1.8126  0.3393
 6575TIP3    H219690   2.393   1.973   5.183 -0.0405  0.3415 -1.7233
 6576TIP3   OH219691   5.217   1.629   5.504 -0.4340 -0.1857 -0.2064
 6576TIP3    H119692   5.278   1.655   5.573  2.4435 -3.3709 -1.3008
 6576TIP3    H219693   5.171   1.552   5.539 -2.3091  0.8357 -0.2627
 6577TIP3   OH219694   2.266   6.236   4.652 -0.0268  0.4044 -0.0093
 6577TIP3    H119695   2.239   6.327   4.635 -0.0347  0.6297  1.1294
 6577TIP3    H219696   2.354   6.230   4.616 -0.7129  0.3106 -1.7645
 6578TIP3   OH219697   5.125   5.539   5.727 -0.1910 -0.4821 -0.0333
 6578TIP3    H119698   5.103   5.446   5.717  1.3311 -0.8741  0.0327
 6578TIP3    H219699   5.192   5.555   5.660 -1.3013  0.9049 -0.8852
 6579TIP3   OH219700   6.653   5.350   1.669  0.5663  0.3280 -0.4816
 6579TIP3    H119701   6.747   5.365   1.660  0.6770  0.5676  0.8478
 6579TIP3    H219702   6.613   5.432   1.640  0.7479  0.1348 -1.2957
 6580TIP3   OH219703   2.761   4.290   4.034 -0.0172 -0.1281 -0.1970
 6580TIP3    H119704   2.742   4.228   4.104  1.1170 -1.0462 -0.6583
 6580TIP3    H219705   2.676   4.312   3.997 -0.7422  1.0966  2.0233
 6581TIP3   OH219706   6.490   2.924   4.705 -0.2821  0.3846 -0.2745
 6581TIP3    H119707   6.429   2.881   4.765  0.9078 -1.2283 -0.1515
 6581TIP3    H219708   6.523   2.999   4.755 -0.5119 -0.0043  0.4783
 6582TIP3   OH219709   5.111   1.328   5.297 -0.4475 -0.1591 -0.5738
 6582TIP3    H119710   5.143   1.238   5.303 -0.8935 -0.4034 -1.6893
 6582TIP3    H219711   5.107   1.358   5.388  0.8928 -0.8329 -0.2720
 6583TIP3   OH219712   4.347   5.967   1.226  0.4341  0.0144 -0.1724
 6583TIP3    H119713   4.435   5.933   1.241  0.2837  0.3672  1.6694
 6583TIP3    H219714   4.355   6.062   1.238  0.2300  0.3407 -2.2431
 6584TIP3   OH219715   2.755   0.953   0.602 -0.4406 -0.0312  0.1170
 6584TIP3    H119716   2.825   0.984   0.661 -1.0673  1.1872  0.2467
 6584TIP3    H219717   2.780   0.986   0.516  1.4511 -3.3484 -0.7791
 6585TIP3   OH219718   5.029   5.012   4.749 -0.0914  0.1264 -0.3311
 6585TIP3    H119719   5.078   5.068   4.689  2.3579 -1.2154  0.2808
 6585TIP3    H219720   5.016   5.065   4.827  1.1858  0.2379 -0.1855
 6586TIP3   OH219721   4.690   6.270   1.161  0.0564  0.1240  0.1772
 6586TIP3    H119722   4.679   6.198   1.100  2.0076  1.0746 -1.4118
 6586TIP3    H219723   4.673   6.232   1.247 -1.1626 -1.6485 -0.7963
 6587TIP3   OH219724   5.753   2.498   4.890 -0.6452 -0.3789  0.0149
 6587TIP3    H119725   5.767   2.590   4.909 -2.0920  0.1264 -1.2004
 6587TIP3    H219726   5.809   2.480   4.814  0.4378 -0.8107  0.8795
 6588TIP3   OH219727   1.092   3.551   3.002  0.2296 -0.2879 -0.4236
 6588TIP3    H119728   1.092   3.645   3.020 -1.2664 -0.5027  0.8873
 6588TIP3    H219729   1.133   3.543   2.916  0.5139  1.5487 -0.4863
 6589TIP3   OH219730   4.289   0.238   5.566  0.8071  0.6008 -0.5354
 6589TIP3    H119731   4.267   0.154   5.525 -0.3465  1.2915 -1.3890
 6589TIP3    H219732   4.299   0.217   5.659 -0.6365 -0.2899 -0.5529
 6590TIP3   OH219733   2.030   0.643   0.345 -0.9002 -0.0885 -0.2329
 6590TIP3    H119734   2.106   0.610   0.393 -0.2522  3.0920  1.1722
 6590TIP3    H219735   2.025   0.586   0.268  0.4310 -2.9041  1.5655
 6591TIP3   OH219736   6.581   2.706   2.629  0.2415 -0.1544  0.8853
 6591TIP3    H119737   6.659   2.651   2.630  3.1963  3.5251 -0.0281
 6591TIP3    H219738   6.551   2.705   2.538  1.7996  1.4038  0.2848
 6592TIP3   OH219739   6.406   3.698   4.253 -0.5592  0.4731  0.0436
 6592TIP3    H119740   6.485   3.749   4.266 -1.1992  1.5591 -0.1684
 6592TIP3    H219741   6.335   3.761   4.265 -1.3275  0.4350 -3.3875
 6593TIP3   OH219742   6.934   4.235   4.223  0.3900  0.3732  0.1877
 6593TIP3    H119743   7.008   4.178   4.248  0.9170  1.9396  2.4890
 6593TIP3    H219744   6.856   4.182   4.240  0.9127 -0.3734  0.3093
 6594TIP3   OH219745   5.585   5.887   3.310 -0.1130 -0.0109 -0.0137
 6594TIP3    H119746   5.649   5.924   3.250  1.2611 -3.0320 -0.6303
 6594TIP3    H219747   5.636   5.828   3.366 -2.2284 -2.3189 -0.3029
 6595TIP3   OH219748   1.423   1.923   4.438  0.4739  0.0532  0.0460
 6595TIP3    H119749   1.455   2.012   4.425  1.0400  0.4717  3.4798
 6595TIP3    H219750   1.333   1.934   4.469  0.2071 -0.6476 -0.4432
 6596TIP3   OH219751   3.050   2.889   0.969  0.0251  0.2335  0.0796
 6596TIP3    H119752   3.048   2.859   0.878  1.3927  1.1661 -0.2776
 6596TIP3    H219753   3.011   2.817   1.018 -0.6310 -0.3365 -1.2210
 6597TIP3   OH219754   0.009   3.004   4.628 -0.0512  0.0643 -0.0299
 6597TIP3    H119755  -0.046   2.930   4.604 -0.7076  0.6580 -0.3848
 6597TIP3    H219756   0.065   2.970   4.698  3.8333 -2.5748 -3.9213
 6598TIP3   OH219757   5.110   3.621   2.291  0.1139 -0.3120 -0.1661
 6598TIP3    H119758   5.078   3.578   2.213 -0.0855 -0.6685  0.1091
 6598TIP3    H219759   5.180   3.679   2.260  1.0940 -1.5827 -0.4297
 6599TIP3   OH219760   3.912   4.431   1.088 -0.7400  0.0723 -0.3530
 6599TIP3    H119761   3.956   4.356   1.126  1.8153  2.1624  1.1263
 6599TIP3    H219762   3.932   4.426   0.994 -0.2788 -0.8551 -0.2120
 6600TIP3   OH219763   5.747   2.818   4.521  0.4349  0.3821  0.9032
 6600TIP3    H119764   5.690   2.746   4.494  3.2452 -1.6134 -0.1841
 6600TIP3    H219765   5.760   2.870   4.442 -0.7426  1.5803  1.4435
 6601TIP3   OH219766   6.933   0.034   2.222 -0.2537  0.1709 -0.5624
 6601TIP3    H119767   6.917   0.127   2.237  0.2369  0.4233 -1.5210
 6601TIP3    H219768   6.935  -0.004   2.310 -0.5916  1.0387 -0.1630
 6602TIP3   OH219769   0.414   0.119   1.695  0.1843  0.2011  0.4721
 6602TIP3    H119770   0.361   0.052   1.739  0.3004  0.7532  1.4909
 6602TIP3    H219771   0.503   0.085   1.700 -0.0698 -0.9568 -1.6674
 6603TIP3   OH219772   3.549   2.146   3.928  0.1974  0.6079  0.1779
 6603TIP3    H119773   3.621   2.083   3.928 -1.0468 -0.9036  1.9061
 6603TIP3    H219774   3.510   2.137   3.841  1.5190  0.7911 -0.4565
 6604TIP3   OH219775   5.835   0.542   5.120 -0.2106  0.1982 -0.6491
 6604TIP3    H119776   5.740   0.537   5.113 -0.2001  0.9210 -1.3495
 6604TIP3    H219777   5.867   0.513   5.035  0.0968  2.9774 -1.5672
 6605TIP3   OH219778   4.107   5.685   5.353  0.2288  0.2634  0.2975
 6605TIP3    H119779   4.185   5.740   5.362 -0.5370  1.2777  0.8716
 6605TIP3    H219780   4.048   5.737   5.298 -0.7665  0.3185  1.3877
 6606TIP3   OH219781   2.552   2.074   3.426  0.3511  0.1808 -0.1533
 6606TIP3    H119782   2.593   2.043   3.507 -3.1003 -0.4394  1.5446
 6606TIP3    H219783   2.538   1.995   3.374 -0.7622  0.0173  0.3620
 6607TIP3   OH219784   4.291   5.627   3.830  0.1730  0.1831  0.1129
 6607TIP3    H119785   4.335   5.660   3.752 -0.0701  0.8332  0.2498
 6607TIP3    H219786   4.338   5.667   3.903  2.3220 -2.6569  0.4658
 6608TIP3   OH219787   4.251   6.170   3.751 -0.1946  0.3986  0.2044
 6608TIP3    H119788   4.262   6.115   3.673 -1.5716  0.2048  0.1117
 6608TIP3    H219789   4.169   6.216   3.736  1.0818  2.8014  0.1346
 6609TIP3   OH219790   6.767   6.146   4.416 -0.4691 -0.1705 -0.4891
 6609TIP3    H119791   6.812   6.068   4.450 -2.4688 -0.2675  2.3495
 6609TIP3    H219792   6.736   6.120   4.330  1.5587 -1.3870 -0.9323
 6610TIP3   OH219793   2.766   0.315   0.567  0.1493 -0.7165  0.9006
 6610TIP3    H119794   2.859   0.304   0.546 -0.0598 -1.4600  0.3350
 6610TIP3    H219795   2.762   0.308   0.662  0.8479  0.6951  1.0614
 6611TIP3   OH219796   6.259   0.930   5.246 -0.2805 -0.1226 -0.1588
 6611TIP3    H119797   6.173   0.910   5.208 -1.1480  2.1274  0.4229
 6611TIP3    H219798   6.313   0.954   5.171 -0.5220 -0.3922 -0.4225
 6612TIP3   OH219799   4.822   1.995   0.441  0.2060 -0.0146 -0.1081
 6612TIP3    H119800   4.777   1.912   0.454 -1.0268  0.7480  0.6771
 6612TIP3    H219801   4.875   1.982   0.362  2.5818 -2.5934  1.6906
 6613TIP3   OH219802   7.197   5.822   3.222  0.0219  0.2527  0.1685
 6613TIP3    H119803   7.122   5.876   3.199 -0.5619 -1.3409 -2.1083
 6613TIP3    H219804   7.164   5.761   3.288  0.1216  1.3080  1.2202
 6614TIP3   OH219805   4.522   3.238   1.136 -0.4644  0.6739 -0.1078
 6614TIP3    H119806   4.468   3.166   1.106 -0.0211 -0.4832  1.6816
 6614TIP3    H219807   4.609   3.221   1.100 -0.4782  0.5995 -0.1046
 6615TIP3   OH219808   4.641   1.998   2.497  0.0174 -0.0889 -0.3151
 6615TIP3    H119809   4.735   2.012   2.509 -0.1639  0.6084  0.3439
 6615TIP3    H219810   4.608   1.977   2.584 -0.5386  0.2934 -0.4292
 6616TIP3   OH219811   2.521   6.224   2.879 -0.2870 -0.1292  0.0064
 6616TIP3    H119812   2.554   6.158   2.818 -0.6950  0.7620 -1.2000
 6616TIP3    H219813   2.427   6.206   2.886 -0.0900 -0.8403  1.1717
 6617TIP3   OH219814   6.473   0.488   3.783 -0.1235  0.4631 -0.0284
 6617TIP3    H119815   6.447   0.533   3.863  1.0386  2.0750 -0.5066
 6617TIP3    H219816   6.406   0.513   3.719  0.0095  0.7688 -0.0505
 6618TIP3   OH219817   5.010   4.744   2.572  0.1344  0.0797 -0.5370
 6618TIP3    H119818   4.931   4.722   2.523 -0.6241  2.0880 -0.3276
 6618TIP3    H219819   5.073   4.771   2.504  1.2223 -2.8687 -0.8346
 6619TIP3   OH219820   4.614   6.702   4.549 -0.6439 -0.2842 -0.2688
 6619TIP3    H119821   4.532   6.696   4.597 -0.9671  0.7207 -0.6828
 6619TIP3    H219822   4.662   6.622   4.573 -1.4467 -0.5418  0.5011
 6620TIP3   OH219823   4.057   4.716   4.897  0.3160  0.0932 -0.2769
 6620TIP3    H119824   4.057   4.647   4.962  2.8530 -1.2025 -1.5372
 6620TIP3    H219825   4.132   4.771   4.919  0.1192  0.7070 -1.0586
 6621TIP3   OH219826   2.586   6.209   4.905  0.0804  0.4611 -0.0168
 6621TIP3    H119827   2.590   6.188   4.812  2.3780  0.1088  0.1008
 6621TIP3    H219828   2.647   6.282   4.916  0.0175  0.3493  1.2598
 6622TIP3   OH219829   4.329   4.612   4.042 -0.2982 -0.5240  0.5733
 6622TIP3    H119830   4.347   4.616   4.136  0.0606  1.1011  0.4535
 6622TIP3    H219831   4.293   4.698   4.020 -1.1686 -1.1564 -0.6336
 6623TIP3   OH219832   0.895   4.755   0.361  0.4449 -0.5436  0.1058
 6623TIP3    H119833   0.879   4.739   0.268  0.2063  0.7355 -0.0873
 6623TIP3    H219834   0.967   4.818   0.363 -0.2544  0.2679  0.7414
 6624TIP3   OH219835   1.639   4.638   1.658 -0.3262  0.4106 -0.3315
 6624TIP3    H119836   1.706   4.606   1.718 -0.3113  0.8820 -0.0917
 6624TIP3    H219837   1.634   4.572   1.590 -0.2085 -0.0401  0.0926
 6625TIP3   OH219838   3.483   3.612   0.684 -0.5374 -0.2049 -0.1471
 6625TIP3    H119839   3.525   3.536   0.726 -0.7334 -0.2387 -0.0079
 6625TIP3    H219840   3.454   3.666   0.758 -0.7915 -0.2122 -0.2412
 6626TIP3   OH219841   5.744   1.779   0.963  0.1459 -0.5168 -0.1116
 6626TIP3    H119842   5.751   1.868   0.996  0.5687  0.0287 -1.6011
 6626TIP3    H219843   5.687   1.734   1.025  1.6011  0.1961  1.8300
 6627TIP3   OH219844   5.899   4.694   4.651  0.4380  0.3351  0.0214
 6627TIP3    H119845   5.847   4.620   4.684  1.0794  0.5130  1.5368
 6627TIP3    H219846   5.853   4.772   4.684  0.4003  0.5799 -0.5989
 6628TIP3   OH219847   6.655   6.588   2.695 -0.4868  0.6530 -0.2059
 6628TIP3    H119848   6.568   6.587   2.736 -0.0387  1.4432  0.7986
 6628TIP3    H219849   6.714   6.556   2.763 -0.0083 -0.1027 -0.9633
 6629TIP3   OH219850   5.698   5.734   2.772  0.6912  0.1455  0.6954
 6629TIP3    H119851   5.772   5.704   2.719 -0.2709 -0.5963 -0.2798
 6629TIP3    H219852   5.635   5.766   2.708  0.1422  0.7254  1.5119
 6630TIP3   OH219853   3.112   0.827   3.440 -0.2655  0.4148 -0.0058
 6630TIP3    H119854   3.029   0.838   3.486  0.0188  3.3999  0.0101
 6630TIP3    H219855   3.111   0.736   3.409 -2.7998 -0.1021  1.3311
 6631TIP3   OH219856   3.209   6.650   2.962  0.4951  0.0070  0.4039
 6631TIP3    H119857   3.205   6.699   3.045  0.2372 -0.7099  0.8263
 6631TIP3    H219858   3.239   6.562   2.988 -0.2312 -0.4193 -0.1682
 6632TIP3   OH219859   6.692   2.358   0.395  0.2621  0.5082  0.0660
 6632TIP3    H119860   6.728   2.431   0.445 -2.2081  0.5668  1.9472
 6632TIP3    H219861   6.742   2.282   0.424 -0.7408  0.6344  2.2780
 6633TIP3   OH219862   4.935   5.822   2.655 -0.2195 -0.1140  0.3235
 6633TIP3    H119863   4.885   5.797   2.576  0.4859 -0.0251 -0.1561
 6633TIP3    H219864   4.906   5.911   2.674  0.4457  0.3026 -0.5267
 6634TIP3   OH219865   6.329   5.275   5.018  0.4383  0.0516  0.3369
 6634TIP3    H119866   6.246   5.321   5.003  0.8389  0.1961 -1.6021
 6634TIP3    H219867   6.327   5.253   5.112 -2.6013 -1.5183  0.0203
 6635TIP3   OH219868   3.381   2.758   4.164 -0.4971  0.2565  0.4714
 6635TIP3    H119869   3.350   2.668   4.159 -3.8687  1.3585 -1.2739
 6635TIP3    H219870   3.315   2.809   4.118  0.4213  3.8762  2.7619
 6636TIP3   OH219871   4.263   0.748   5.578 -0.4789 -0.7666  0.8376
 6636TIP3    H119872   4.184   0.787   5.615  0.9281  1.3821  1.8012
 6636TIP3    H219873   4.265   0.659   5.613 -2.5513 -0.9297  0.6112
 6637TIP3   OH219874   6.218   1.099   1.442 -0.1050  0.6406 -0.2198
 6637TIP3    H119875   6.281   1.138   1.503  0.6763 -0.5815 -0.2163
 6637TIP3    H219876   6.257   1.015   1.418 -1.4040  0.1789 -0.7799
 6638TIP3   OH219877   2.387   4.688   2.160 -0.6885  0.4501 -0.2570
 6638TIP3    H119878   2.394   4.783   2.146  0.4552  0.5040  0.5887
 6638TIP3    H219879   2.439   4.650   2.089 -1.3942  0.4272 -0.7761
 6639TIP3   OH219880   7.183   1.936   5.506  0.5763  0.0761  0.0325
 6639TIP3    H119881   7.194   1.966   5.596  0.3944 -0.3304  0.1916
 6639TIP3    H219882   7.190   1.841   5.511 -0.5469 -0.0242 -0.2193
 6640TIP3   OH219883   1.630   4.760   0.597 -0.3336  0.4379  0.2552
 6640TIP3    H119884   1.542   4.727   0.612 -0.0205 -0.4944  0.1380
 6640TIP3    H219885   1.660   4.788   0.684  0.3483 -2.1093  0.9552
 6641TIP3   OH219886   2.356   1.313   2.555 -0.6103  0.6556  0.0272
 6641TIP3    H119887   2.296   1.295   2.483 -0.1800 -0.2704 -0.1156
 6641TIP3    H219888   2.299   1.336   2.628 -1.1167  0.2497 -0.2315
 6642TIP3   OH219889   3.417   3.521   2.536 -0.0106 -0.4094 -0.1276
 6642TIP3    H119890   3.502   3.531   2.579 -0.1549 -1.4612  0.4528
 6642TIP3    H219891   3.355   3.567   2.593  0.3519  1.6373 -1.3178
 6643TIP3   OH219892   3.517   5.867   4.345  0.0138 -0.2515  0.1420
 6643TIP3    H119893   3.485   5.956   4.330  0.7316  0.1631  0.9745
 6643TIP3    H219894   3.503   5.822   4.262 -1.2570  0.3580  0.0050
 6644TIP3   OH219895   3.032   2.090   5.381  0.2527 -0.3749  0.0426
 6644TIP3    H119896   3.099   2.158   5.390 -1.6604  1.4290  2.0415
 6644TIP3    H219897   3.075   2.019   5.335  3.3264  0.9433  0.6562
 6645TIP3   OH219898   3.454   1.083   3.954  0.0514 -0.4488 -0.3656
 6645TIP3    H119899   3.413   1.002   3.922 -0.9745 -0.0370 -0.1305
 6645TIP3    H219900   3.532   1.094   3.898 -0.7647 -0.6593 -1.5894
 6646TIP3   OH219901   3.591   4.639   4.258  0.1642  0.1037 -0.0266
 6646TIP3    H119902   3.620   4.708   4.198 -0.6848  1.0071  0.5643
 6646TIP3    H219903   3.497   4.653   4.267  0.2116 -0.2422  1.2176
 6647TIP3   OH219904   5.351   6.544   2.597 -0.6371  0.1581  0.5968
 6647TIP3    H119905   5.412   6.613   2.622 -0.9682  0.8117 -0.3522
 6647TIP3    H219906   5.351   6.483   2.671  1.3890 -0.0203  0.4915
 6648TIP3   OH219907   0.287   3.781   4.042 -0.1967  0.2434 -0.0138
 6648TIP3    H119908   0.209   3.790   4.096  0.2383  0.2644  0.6181
 6648TIP3    H219909   0.329   3.866   4.046  1.2264 -0.4813  1.7987
 6649TIP3   OH219910   0.094   4.088   0.679  0.2380 -0.9430 -0.3053
 6649TIP3    H119911   0.171   4.042   0.644  0.1576  0.7017 -2.9156
 6649TIP3    H219912   0.024   4.067   0.618 -0.5409  0.2585  0.1445
 6650TIP3   OH219913   5.217   0.822   0.732 -0.0080 -0.1580 -0.2962
 6650TIP3    H119914   5.218   0.770   0.812 -3.5755 -0.5743 -0.3692
 6650TIP3    H219915   5.305   0.860   0.727  1.4795 -2.9110  1.8951
 6651TIP3   OH219916   3.707   6.504   1.601 -0.2221  1.0855 -0.2502
 6651TIP3    H119917   3.655   6.503   1.521 -0.2000 -0.3575 -0.2818
 6651TIP3    H219918   3.785   6.452   1.579 -1.5659 -1.9361  1.5056
 6652TIP3   OH219919   6.673   4.478   0.601 -0.2847  0.3028  0.3114
 6652TIP3    H119920   6.757   4.514   0.573  1.5162 -3.4198  0.2943
 6652TIP3    H219921   6.620   4.477   0.522 -0.1888  2.1995  0.1912
 6653TIP3   OH219922   1.063   5.238   0.792  0.1972  0.8947  0.5288
 6653TIP3    H119923   1.068   5.158   0.739  2.6802  0.4598  1.2915
 6653TIP3    H219924   1.137   5.291   0.763 -0.0094  1.8624  1.6888
 6654TIP3   OH219925   6.021   5.185   0.243  0.0977 -0.4483 -0.2630
 6654TIP3    H119926   5.949   5.122   0.254 -1.0142  0.6955 -0.7949
 6654TIP3    H219927   6.051   5.172   0.153  0.5744 -0.9226 -0.0426
 6655TIP3   OH219928   2.959   0.441   4.942  0.6153 -0.2165  0.4783
 6655TIP3    H119929   2.872   0.479   4.949  0.6828  0.4157 -1.4645
 6655TIP3    H219930   2.969   0.389   5.021 -0.9244  0.8938  1.4517
 6656TIP3   OH219931   4.010   4.143   3.945  0.2968 -0.3561  0.4226
 6656TIP3    H119932   3.956   4.148   4.024 -0.6701 -0.9932 -0.1751
 6656TIP3    H219933   3.975   4.213   3.889  0.1393 -0.7203  0.0649
 6657TIP3   OH219934   0.347   2.829   4.593 -0.4219 -0.0271  0.2191
 6657TIP3    H119935   0.276   2.788   4.643  0.0779  0.3239  1.2520
 6657TIP3    H219936   0.425   2.817   4.647 -0.5697  4.0787  1.7419
 6658TIP3   OH219937   3.033   4.236   0.203 -0.0353 -0.3204 -0.2397
 6658TIP3    H119938   2.967   4.217   0.270  1.3661  0.8804  1.5402
 6658TIP3    H219939   3.032   4.331   0.194 -0.6143 -0.4786 -2.4274
 6659TIP3   OH219940   4.607   3.101   5.738 -0.1999 -0.2811 -0.0659
 6659TIP3    H119941   4.673   3.149   5.787 -0.9311  0.5701  0.1251
 6659TIP3    H219942   4.641   3.098   5.648 -0.1525  0.6483 -0.0894
 6660TIP3   OH219943   4.205   4.527   2.128 -0.1117 -0.3455  0.6984
 6660TIP3    H119944   4.263   4.477   2.071  0.1395  2.6372 -1.9285
 6660TIP3    H219945   4.231   4.618   2.115 -3.9050  0.9734  1.0363
 6661TIP3   OH219946   3.734   0.734   3.519 -0.0146  0.3288 -0.6775
 6661TIP3    H119947   3.663   0.777   3.471 -0.5150  2.1382  1.5406
 6661TIP3    H219948   3.813   0.760   3.472 -0.5346  1.4863 -0.9469
 6662TIP3   OH219949   4.377   1.431   1.353 -0.9377  0.4134  0.4921
 6662TIP3    H119950   4.411   1.467   1.271  0.2009  1.4961  1.4206
 6662TIP3    H219951   4.379   1.503   1.415 -2.6102 -0.1453  1.2870
 6663TIP3   OH219952   2.562   4.573   2.380  0.4268  0.1754  0.1000
 6663TIP3    H119953   2.576   4.577   2.285  0.7359 -0.0941  0.1321
 6663TIP3    H219954   2.585   4.484   2.403  0.3065  0.2296  0.4238
 6664TIP3   OH219955   4.146   1.891   5.330 -0.0367  0.3175  0.0190
 6664TIP3    H119956   4.109   1.939   5.256 -0.8334 -0.1223  0.1248
 6664TIP3    H219957   4.152   1.801   5.299  0.1976  0.2391  0.2897
 6665TIP3   OH219958   1.009   3.877   0.112 -0.1588  0.5909  1.0288
 6665TIP3    H119959   0.927   3.836   0.086  0.5517  0.3423 -0.9653
 6665TIP3    H219960   0.985   3.965   0.140 -0.8266  1.8152 -2.8127
 6666TIP3   OH219961   1.025   2.804   1.729  1.2170 -0.2000 -0.6335
 6666TIP3    H119962   1.102   2.773   1.776  1.5494  0.0944 -0.9820
 6666TIP3    H219963   1.037   2.773   1.640  0.6436 -0.6568 -0.5550
 6667TIP3   OH219964   3.935   2.538   4.969 -0.0908 -0.1037 -0.0529
 6667TIP3    H119965   3.910   2.568   4.881 -0.6761 -0.6974 -0.0972
 6667TIP3    H219966   3.997   2.604   4.999  1.0898 -0.5451 -1.4111
 6668TIP3   OH219967   0.178   3.910   2.193  0.3411 -0.3992  0.5390
 6668TIP3    H119968   0.100   3.903   2.247  0.7410  0.2794  1.2333
 6668TIP3    H219969   0.156   3.866   2.111 -0.7370 -0.2718  0.7554
 6669TIP3   OH219970   2.505   3.570   3.667  0.0103 -0.6162  0.0677
 6669TIP3    H119971   2.457   3.491   3.642  0.5939 -0.5798 -1.2642
 6669TIP3    H219972   2.460   3.601   3.745 -3.3389  0.3933 -2.0238
 6670TIP3   OH219973   6.963   1.829   4.168 -0.6573  0.1042 -0.0800
 6670TIP3    H119974   6.914   1.850   4.088 -0.4392 -1.1857 -0.5794
 6670TIP3    H219975   7.049   1.868   4.154 -0.3234 -0.8847 -0.8967
 6671TIP3   OH219976   1.957   4.959   1.660  0.2509 -0.4364  0.4347
 6671TIP3    H119977   1.968   5.048   1.626  0.2830 -0.8901 -0.7921
 6671TIP3    H219978   1.885   4.967   1.723  0.6174  0.5506  0.7625
 6672TIP3   OH219979   0.754   1.510   5.739 -0.2599 -0.3594 -0.4160
 6672TIP3    H119980   0.672   1.559   5.737 -0.7119 -1.0518  0.3444
 6672TIP3    H219981   0.813   1.562   5.793  0.2320  0.7369 -1.9201
 6673TIP3   OH219982   2.796   0.909   4.742  0.1115  0.0003 -0.4221
 6673TIP3    H119983   2.774   0.863   4.661 -1.3368 -1.4063  0.7081
 6673TIP3    H219984   2.820   0.997   4.714 -1.9151  0.0396 -2.2560
 6674TIP3   OH219985   4.527   3.743   3.028  0.4378  0.0203 -0.0878
 6674TIP3    H119986   4.568   3.685   2.964  0.2730  1.5532 -1.6529
 6674TIP3    H219987   4.596   3.806   3.050 -0.2781  1.0850 -0.8000
 6675TIP3   OH219988   0.698   2.663   3.394  0.3783 -0.1180 -0.0264
 6675TIP3    H119989   0.644   2.601   3.443 -1.0830  1.5056  0.5206
 6675TIP3    H219990   0.705   2.739   3.452 -0.3922  1.3860 -1.8362
 6676TIP3   OH219991   1.927   5.946   3.959  0.2481 -0.3940 -0.4682
 6676TIP3    H119992   1.887   5.963   4.044  1.1950 -2.6809  0.5292
 6676TIP3    H219993   2.021   5.946   3.975  0.4763 -0.1801 -1.6737
 6677TIP3   OH219994   5.976   3.605   1.162 -0.4678  0.5208  0.7267
 6677TIP3    H119995   5.891   3.647   1.153 -1.1264 -1.1877 -2.8856
 6677TIP3    H219996   5.959   3.523   1.207 -0.6959  0.3467  0.3272
 6678TIP3   OH219997   1.545   3.611   3.009  0.1548 -0.0795 -0.1212
 6678TIP3    H119998   1.560   3.606   3.103  0.5956  0.5496 -0.1464
 6678TIP3    H219999   1.554   3.521   2.978  1.3388 -0.1029  0.2558
 6679TIP3   OH220000   5.971   2.584   0.229 -0.0942 -0.3320  0.4119
 6679TIP3    H120001   5.891   2.562   0.277  0.4989  0.0777  1.6342
 6679TIP3    H220002   5.941   2.606   0.141 -0.9092 -4.2354 -0.4474
 6680TIP3   OH220003   3.598   3.765   3.693  0.1889  0.1459  0.1657
 6680TIP3    H120004   3.540   3.742   3.621 -1.4674 -0.7935  1.7142
 6680TIP3    H220005   3.683   3.779   3.652 -0.6423 -0.5343 -1.9264
 6681TIP3   OH220006   0.671   5.879   0.258  0.2284  0.3431 -0.1663
 6681TIP3    H120007   0.596   5.861   0.201 -0.3830  2.0094  0.0366
 6681TIP3    H220008   0.674   5.805   0.318 -0.2906 -0.5080 -1.1605
 6682TIP3   OH220009   6.261   0.418   2.889 -0.0227  0.5848  0.5643
 6682TIP3    H120010   6.195   0.481   2.859  1.2922  1.7655  0.0736
 6682TIP3    H220011   6.224   0.333   2.865 -1.0570  1.2570 -0.3533
 6683TIP3   OH220012   3.741   4.413   0.427  0.0375 -0.0058 -0.4819
 6683TIP3    H120013   3.677   4.359   0.382  0.6807 -1.5667  0.3927
 6683TIP3    H220014   3.690   4.464   0.490 -0.4882 -0.2729 -0.6924
 6684TIP3   OH220015   1.360   2.775   1.360 -0.1624 -0.2420  0.5641
 6684TIP3    H120016   1.407   2.692   1.353  1.2878  0.6796 -2.0384
 6684TIP3    H220017   1.387   2.825   1.283 -3.2646  1.5287  0.4536
 6685TIP3   OH220018   6.825   6.311   0.458 -0.0027 -0.1885  0.2217
 6685TIP3    H120019   6.780   6.292   0.375  0.1700 -0.6142  0.2210
 6685TIP3    H220020   6.755   6.324   0.521 -0.2326  2.7076 -0.4909
 6686TIP3   OH220021   5.470   5.681   1.729  0.8903  0.2160  0.8035
 6686TIP3    H120022   5.501   5.599   1.690 -0.2165  0.0182  0.2910
 6686TIP3    H220023   5.468   5.743   1.656 -1.3916 -0.2105  0.4346
 6687TIP3   OH220024   7.222   0.108   4.648 -0.4006  0.4046 -0.1877
 6687TIP3    H120025   7.191   0.065   4.727 -0.5694  0.3563 -0.2793
 6687TIP3    H220026   7.211   0.043   4.579  1.1229 -0.0821 -0.0084
 6688TIP3   OH220027   0.410   0.092   5.725 -0.2548  0.4222  0.3293
 6688TIP3    H120028   0.360   0.016   5.755  0.5406  0.8938  3.1475
 6688TIP3    H220029   0.501   0.070   5.748  0.3381  1.1746 -1.1903
 6689TIP3   OH220030   1.224   3.887   0.269  0.1808  0.2377 -0.0139
 6689TIP3    H120031   1.154   3.853   0.213 -0.3982 -0.9618  1.3586
 6689TIP3    H220032   1.185   3.960   0.316  1.3536  2.8539 -2.7793
 6690TIP3   OH220033   0.286   0.204   3.189  0.3063  0.0206  0.2661
 6690TIP3    H120034   0.319   0.226   3.102  0.4220  1.0908  0.5624
 6690TIP3    H220035   0.266   0.289   3.229 -0.3823 -0.4894  1.0380
 6691TIP3   OH220036   3.395   5.777   4.091 -0.0801  0.1442  0.0113
 6691TIP3    H120037   3.311   5.736   4.115 -0.2916  0.9253  0.6514
 6691TIP3    H220038   3.419   5.734   4.009 -1.3702  0.2668 -0.4634
 6692TIP3   OH220039   2.748   1.996   4.725  0.0118 -0.3439 -0.3851
 6692TIP3    H120040   2.709   1.987   4.638  1.6571  1.1412 -1.3500
 6692TIP3    H220041   2.674   1.997   4.785 -1.4247  1.6019 -2.0449
 6693TIP3   OH220042   6.291   4.971   1.044  0.0866 -0.0592  0.0807
 6693TIP3    H120043   6.372   4.992   0.997 -0.2387  1.9070  0.3223
 6693TIP3    H220044   6.313   4.983   1.136 -0.1776 -0.6437  0.2218
 6694TIP3   OH220045   3.685   5.154   0.930  0.2268 -0.3778  0.0616
 6694TIP3    H120046   3.666   5.245   0.906  1.4968  0.3055  1.4747
 6694TIP3    H220047   3.709   5.158   1.022 -0.7495 -2.3381  0.4343
 6695TIP3   OH220048   0.436   2.140   4.236 -0.2233  0.0091 -0.4909
 6695TIP3    H120049   0.380   2.203   4.191 -1.1010 -0.3456  0.0707
 6695TIP3    H220050   0.507   2.193   4.273 -0.4905  0.5491 -0.7416
 6696TIP3   OH220051   7.203   4.513   0.342  0.1300  0.3922 -0.6244
 6696TIP3    H120052   7.150   4.592   0.332  0.6025  0.6810 -0.8998
 6696TIP3    H220053   7.273   4.539   0.402  1.7878  0.9875 -2.6856
 6697TIP3   OH220054   6.613   3.037   3.019 -0.2918  0.5005  0.3279
 6697TIP3    H120055   6.621   2.983   3.098  0.4116  0.2619  0.1069
 6697TIP3    H220056   6.700   3.076   3.008  0.3031 -1.1601 -1.5107
 6698TIP3   OH220057   6.172   1.728   2.784  0.0709 -0.6583  0.5117
 6698TIP3    H120058   6.200   1.639   2.767  2.1809  0.6458 -4.9051
 6698TIP3    H220059   6.246   1.770   2.827 -0.4101 -1.1700  1.8595
 6699TIP3   OH220060   0.810   2.796   4.496  0.1946  0.5174  0.2070
 6699TIP3    H120061   0.793   2.873   4.440  0.1516  0.4002  0.0580
 6699TIP3    H220062   0.881   2.750   4.452 -0.4555 -0.0709 -0.2518
 6700TIP3   OH220063   6.618   6.365   2.494  0.5821 -0.0946 -0.1031
 6700TIP3    H120064   6.586   6.444   2.451  0.9041  0.5625  0.8261
 6700TIP3    H220065   6.674   6.397   2.565  0.5871 -1.1565  0.3971
 6701TIP3   OH220066   4.995   3.153   2.689 -0.4501  0.6304  0.3222
 6701TIP3    H120067   4.964   3.222   2.630  1.5409  0.5452 -0.9174
 6701TIP3    H220068   4.994   3.194   2.776  0.3570  2.1321 -0.3376
 6702TIP3   OH220069   5.457   3.814   3.450  0.0095  0.9653  0.5699
 6702TIP3    H120070   5.396   3.847   3.384  0.2669  0.4355  0.0567
 6702TIP3    H220071   5.525   3.769   3.399  0.8526  1.5745  1.1241
 6703TIP3   OH220072   3.471   3.940   0.363 -0.1122 -0.2196  0.0681
 6703TIP3    H120073   3.409   3.948   0.291  0.4095 -1.8149 -0.6185
 6703TIP3    H220074   3.429   3.881   0.425  0.0577 -0.0323  0.3659
 6704TIP3   OH220075   6.382   1.271   5.706  0.1402 -0.2988 -0.6427
 6704TIP3    H120076   6.377   1.176   5.699  1.8648 -0.3463 -1.7714
 6704TIP3    H220077   6.436   1.287   5.783 -0.2917 -0.2264 -0.3535
 6705TIP3   OH220078   7.090   4.906   4.023 -0.1286 -0.4334 -0.0135
 6705TIP3    H120079   7.099   4.973   4.091 -1.1860  0.4068 -0.6777
 6705TIP3    H220080   7.047   4.833   4.068 -1.9345  0.5677 -0.0019
 6706TIP3   OH220081   5.885   5.723   3.694 -0.4074  0.1168 -0.0590
 6706TIP3    H120082   5.850   5.774   3.622 -0.0494 -0.8309 -0.9271
 6706TIP3    H220083   5.827   5.647   3.701 -0.0806 -0.1085  0.2438
 6707TIP3   OH220084   5.375   6.040   5.173 -0.0414  0.6801  0.1797
 6707TIP3    H120085   5.329   6.051   5.089  1.0879  0.4909 -0.4867
 6707TIP3    H220086   5.365   6.125   5.217 -0.4182  0.8697 -0.2625
 6708TIP3   OH220087   3.283   6.214   3.391  0.1236 -0.5967 -0.2623
 6708TIP3    H120088   3.273   6.127   3.431  1.2525 -0.2822  0.7760
 6708TIP3    H220089   3.361   6.206   3.336  1.2735  0.1956  1.1868
 6709TIP3   OH220090   4.772   3.749   0.508  0.7826  0.6975 -0.2935
 6709TIP3    H120091   4.816   3.702   0.578  0.4633  1.5909  0.5352
 6709TIP3    H220092   4.681   3.721   0.514  0.8166  0.5234 -0.5719
 6710TIP3   OH220093   6.685   0.814   5.546  0.5384 -0.0198  0.5844
 6710TIP3    H120094   6.780   0.806   5.552  0.7076 -0.2532 -1.5944
 6710TIP3    H220095   6.655   0.728   5.515 -0.1240  0.6211 -0.6692
 6711TIP3   OH220096   1.926   1.725   5.356  0.0078  0.0423  0.6551
 6711TIP3    H120097   1.994   1.782   5.391  0.8182 -1.7178  2.0763
 6711TIP3    H220098   1.973   1.649   5.321 -1.0238  0.2203 -1.3156
 6712TIP3   OH220099   6.342   4.988   4.017  0.1561 -0.0516 -0.9570
 6712TIP3    H120100   6.248   5.003   4.008 -0.1488 -1.7216 -0.8485
 6712TIP3    H220101   6.360   4.999   4.110 -0.2011 -0.9979 -0.7628
 6713TIP3   OH220102   1.361   1.285   0.541  0.9787 -0.2409 -0.4978
 6713TIP3    H120103   1.406   1.202   0.535  0.9967 -0.2615 -0.0800
 6713TIP3    H220104   1.428   1.351   0.524  1.1459 -0.2742  0.0462
 6714TIP3   OH220105   5.892   5.045   3.295 -0.4467  0.2575  0.1679
 6714TIP3    H120106   5.973   5.053   3.245 -0.6503  1.1135 -0.0476
 6714TIP3    H220107   5.893   4.956   3.329  0.9691  0.5191  0.8549
 6715TIP3   OH220108   7.229   6.379   2.383 -0.1064  0.1762 -0.1428
 6715TIP3    H120109   7.157   6.333   2.426 -1.3957 -0.1245 -2.5059
 6715TIP3    H220110   7.255   6.323   2.311  1.9226  0.7214  0.0930
 6716TIP3   OH220111   5.071   1.921   1.731  0.4585 -0.4700  0.7841
 6716TIP3    H120112   5.110   1.874   1.658 -0.2067 -0.3658  0.3510
 6716TIP3    H220113   4.980   1.936   1.705 -0.3511 -2.0917  2.4026
 6717TIP3   OH220114   6.001   5.037   4.320 -0.5547  0.0380 -0.3551
 6717TIP3    H120115   5.987   4.973   4.390  1.8257 -1.4785 -1.1400
 6717TIP3    H220116   6.016   5.120   4.365 -1.0856 -0.4754  0.8066
 6718TIP3   OH220117   5.277   0.901   5.861  0.2952  0.3423 -0.0361
 6718TIP3    H120118   5.192   0.923   5.823 -0.3397  0.4310  1.3660
 6718TIP3    H220119   5.259   0.825   5.916  0.9572  0.8068  0.8474
 6719TIP3   OH220120   0.638   5.948   3.707  0.0987 -0.1624  0.4318
 6719TIP3    H120121   0.578   5.918   3.639 -0.6474 -0.4023  1.1717
 6719TIP3    H220122   0.689   5.870   3.730  1.5500  0.3088 -1.0134
 6720TIP3   OH220123   3.033   3.351   2.256 -0.0890 -0.1400 -0.3656
 6720TIP3    H120124   2.945   3.318   2.276 -1.1639  2.6859  0.0268
 6720TIP3    H220125   3.031   3.365   2.161  0.4013 -1.1608 -0.5464
 6721TIP3   OH220126   2.546   1.277   2.345  0.2921  0.4116 -0.3196
 6721TIP3    H120127   2.475   1.245   2.400 -0.4417  1.2572 -0.7451
 6721TIP3    H220128   2.571   1.201   2.293 -0.3144  0.0996 -0.1727
 6722TIP3   OH220129   4.928   0.767   2.264 -0.3608  0.1860 -0.3971
 6722TIP3    H120130   4.835   0.785   2.280 -0.4210 -0.6416  0.2706
 6722TIP3    H220131   4.974   0.815   2.333 -0.3643 -0.2421 -0.0942
 6723TIP3   OH220132   3.080   0.019   1.254 -1.0115  0.2866 -0.3156
 6723TIP3    H120133   2.985   0.018   1.270 -1.1183  0.1022 -0.9199
 6723TIP3    H220134   3.088   0.056   1.166 -0.5660 -0.3258 -0.5380
 6724TIP3   OH220135   5.113   5.773   3.620 -0.6514 -0.0560  0.8035
 6724TIP3    H120136   5.019   5.789   3.617 -0.7637 -0.7810  0.0892
 6724TIP3    H220137   5.152   5.859   3.600 -1.1919 -0.0151 -0.1424
 6725TIP3   OH220138   6.819   1.729   1.007 -0.5688  0.4225 -0.5681
 6725TIP3    H120139   6.773   1.768   0.932  0.1667  0.4467 -1.0212
 6725TIP3    H220140   6.911   1.746   0.989 -0.4236  1.3344  0.8559
 6726TIP3   OH220141   3.077   1.326   5.792 -0.3015 -0.2258  0.0373
 6726TIP3    H120142   3.048   1.391   5.727  0.3984  0.3696  0.3024
 6726TIP3    H220143   3.005   1.264   5.798 -0.7973  0.2787 -0.5674
 6727TIP3   OH220144   4.724   0.720   3.726  0.0297  0.4002 -0.4522
 6727TIP3    H120145   4.697   0.742   3.815  1.0083  1.1895 -0.3354
 6727TIP3    H220146   4.666   0.771   3.669 -1.3065 -0.9116 -0.3167
 6728TIP3   OH220147   6.369   4.684   5.445  0.3814 -0.1788  0.1764
 6728TIP3    H120148   6.334   4.611   5.395  0.4462 -0.7334  0.9246
 6728TIP3    H220149   6.411   4.643   5.521  1.3591  0.5591  0.0614
 6729TIP3   OH220150   5.523   6.320   4.621  0.7819  0.3854 -0.2630
 6729TIP3    H120151   5.617   6.310   4.605  0.9010  0.9071  0.0898
 6729TIP3    H220152   5.503   6.255   4.689  0.4923 -1.0693 -1.6722
 6730TIP3   OH220153   0.359   4.777   5.039  0.0725  0.3569 -0.0881
 6730TIP3    H120154   0.326   4.806   5.124 -0.0251  0.3491 -0.1230
 6730TIP3    H220155   0.452   4.800   5.040  0.2618 -0.4060  0.3541
 6731TIP3   OH220156   0.861   1.784   3.602 -0.3862 -0.0434 -0.2815
 6731TIP3    H120157   0.859   1.692   3.574  0.4307 -0.1457 -0.0376
 6731TIP3    H220158   0.789   1.792   3.665 -1.2104 -0.2171 -1.1744
 6732TIP3   OH220159   4.664   5.151   4.083 -0.4930  0.3617 -0.6827
 6732TIP3    H120160   4.675   5.246   4.085 -0.3303  0.3357  0.1553
 6732TIP3    H220161   4.620   5.133   4.000 -1.3516  1.2620 -0.4400
 6733TIP3   OH220162   5.418   0.958   3.563 -0.0005  0.7892 -0.2096
 6733TIP3    H120163   5.381   1.042   3.588 -1.3606  0.3996 -0.8480
 6733TIP3    H220164   5.443   0.917   3.646 -2.0550  0.5987  0.3588
 6734TIP3   OH220165   5.274   2.908   5.281 -0.2456  0.5418  0.1409
 6734TIP3    H120166   5.348   2.847   5.286 -1.2852 -0.7741  0.0987
 6734TIP3    H220167   5.308   2.990   5.318  1.3944  0.1538 -0.4238
 6735TIP3   OH220168   6.713   5.957   3.856 -0.4607 -0.4584  0.3606
 6735TIP3    H120169   6.731   5.970   3.763  0.8186  0.9625  0.7678
 6735TIP3    H220170   6.745   5.869   3.875 -0.6768 -0.7351 -0.5210
 6736TIP3   OH220171   6.375   2.351   3.977 -0.1051 -0.2531  0.5013
 6736TIP3    H120172   6.365   2.391   4.064  2.5850 -1.6650  1.5603
 6736TIP3    H220173   6.367   2.257   3.993  0.0771 -0.5106 -0.8518
 6737TIP3   OH220174   4.111   5.790   1.018 -0.0481 -0.6780  0.7108
 6737TIP3    H120175   4.032   5.841   1.036 -0.3968 -0.6045 -0.8246
 6737TIP3    H220176   4.173   5.855   0.986  0.9927 -0.5842  2.7676
 6738TIP3   OH220177   6.722   6.152   0.254 -0.1702 -0.4076 -0.1288
 6738TIP3    H120178   6.729   6.086   0.322  0.3060 -1.0459 -0.7781
 6738TIP3    H220179   6.806   6.148   0.208 -0.9031 -0.8048 -1.4743
 6739TIP3   OH220180   3.301   4.770   5.442  0.4828  0.4668  0.5713
 6739TIP3    H120181   3.300   4.866   5.433  1.7968  0.4428 -0.0922
 6739TIP3    H220182   3.291   4.755   5.536  0.8509  1.2787  0.7545
 6740TIP3   OH220183   5.172   0.109   2.479  0.0844  0.4694  0.1364
 6740TIP3    H120184   5.240   0.103   2.411  0.0027  1.0707 -0.0014
 6740TIP3    H220185   5.094   0.139   2.433 -0.0271  0.6830  0.4603
 6741TIP3   OH220186   2.079   2.590   5.436 -0.0723 -0.2320  0.1227
 6741TIP3    H120187   1.985   2.576   5.445 -0.1451  0.4569  0.4628
 6741TIP3    H220188   2.100   2.659   5.499  0.8559 -1.1719  0.8841
 6742TIP3   OH220189   0.088   5.582   2.268  0.1357  0.3000 -0.4063
 6742TIP3    H120190   0.063   5.624   2.186  1.1409  1.6661 -0.0659
 6742TIP3    H220191   0.020   5.609   2.330  0.5265  1.1122 -0.3031
 6743TIP3   OH220192   3.844   4.419   4.626  0.0530  0.4530  0.0564
 6743TIP3    H120193   3.832   4.474   4.703 -0.5280  1.4147 -0.7119
 6743TIP3    H220194   3.769   4.359   4.628  1.1528 -0.9783  1.3896
 6744TIP3   OH220195   3.527   1.156   0.062  0.6824  0.1328 -0.3637
 6744TIP3    H120196   3.585   1.087   0.029  0.2625 -0.0677 -0.6951
 6744TIP3    H220197   3.577   1.236   0.053  0.0252  0.3193 -3.0005
 6745TIP3   OH220198   5.872   5.315   3.347 -0.5423  0.2478 -0.5127
 6745TIP3    H120199   5.901   5.224   3.349 -0.3279  0.2788  2.6029
 6745TIP3    H220200   5.807   5.321   3.417  0.8937  2.8827  0.7506
 6746TIP3   OH220201   5.840   2.023   3.750 -0.2815 -0.9832  0.9098
 6746TIP3    H120202   5.861   2.026   3.843 -1.9087  2.9183  1.3347
 6746TIP3    H220203   5.744   2.017   3.747 -0.3872  0.6199 -0.4215
 6747TIP3   OH220204   4.712   5.503   4.743 -0.0705  0.5164  0.0359
 6747TIP3    H120205   4.736   5.542   4.659  2.5083  0.0439  0.4647
 6747TIP3    H220206   4.757   5.557   4.808 -0.1951 -0.4478  0.9442
 6748TIP3   OH220207   2.896   4.730   2.327 -0.1912 -0.2631  0.4983
 6748TIP3    H120208   2.808   4.736   2.291 -0.1835  0.7155  0.6093
 6748TIP3    H220209   2.898   4.794   2.398  0.7964  0.2230  0.0684
 6749TIP3   OH220210   6.762   4.380   1.658 -0.6335  0.4162 -0.1870
 6749TIP3    H120211   6.836   4.414   1.608 -0.0990  0.2000  0.4522
 6749TIP3    H220212   6.685   4.402   1.605 -0.1439  0.9721 -0.6705
 6750TIP3   OH220213   0.171   0.021   3.612  0.4200  0.1204 -0.4694
 6750TIP3    H120214   0.229   0.031   3.688  0.0546  0.5972 -0.2515
 6750TIP3    H220215   0.217  -0.041   3.555  0.9054  0.1017 -0.0636
 6751TIP3   OH220216   4.243   0.729   4.734 -0.2945  0.5382  0.0708
 6751TIP3    H120217   4.286   0.740   4.649  1.3708 -2.5857  0.3487
 6751TIP3    H220218   4.173   0.667   4.718 -1.4939  1.7197  0.5929
 6752TIP3   OH220219   6.381   5.413   0.464  0.2660  0.6160 -0.1475
 6752TIP3    H120220   6.323   5.430   0.391  2.9196  0.5613 -2.4386
 6752TIP3    H220221   6.346   5.335   0.506 -3.1255  2.4394  0.7432
 6753TIP3   OH220222   2.818   5.049   4.938 -0.2834  0.2045 -0.0137
 6753TIP3    H120223   2.893   4.998   4.968  0.7184  1.0362 -1.0388
 6753TIP3    H220224   2.753   4.983   4.913  0.4939 -0.5470 -0.1039
 6754TIP3   OH220225   3.719   6.746   1.234 -0.0991 -0.1146  0.0232
 6754TIP3    H120226   3.774   6.672   1.259 -0.2776  0.4296  2.2032
 6754TIP3    H220227   3.647   6.744   1.296  0.0222  2.0079  0.2947
 6755TIP3   OH220228   2.975   0.649   4.401  0.3701  0.1595  0.1678
 6755TIP3    H120229   2.968   0.626   4.494  0.0717 -0.2653  0.0463
 6755TIP3    H220230   3.013   0.737   4.400  0.9696 -0.0841  0.6742
 6756TIP3   OH220231   3.100   2.537   3.800 -0.5384  0.1388  0.1246
 6756TIP3    H120232   3.074   2.615   3.850  1.0435  0.2701  0.8035
 6756TIP3    H220233   3.195   2.543   3.794 -0.6080 -0.3620 -2.1756
 6757TIP3   OH220234   6.233   4.027   2.454 -0.4591 -0.4479 -0.1165
 6757TIP3    H120235   6.287   4.059   2.382 -0.2579 -1.0537 -0.2399
 6757TIP3    H220236   6.225   4.102   2.513  0.9436 -0.4787  0.1613
 6758TIP3   OH220237   4.943   3.011   3.078  0.0860 -0.2995  0.4328
 6758TIP3    H120238   4.857   3.046   3.053  0.2079  0.0822  0.5374
 6758TIP3    H220239   5.005   3.074   3.041  0.4813 -2.2483 -2.5030
 6759TIP3   OH220240   1.782   5.532   0.210 -0.6699  0.4070  0.5627
 6759TIP3    H120241   1.798   5.461   0.272 -0.7509 -1.7784 -1.7792
 6759TIP3    H220242   1.688   5.550   0.219 -0.1401  2.4896  3.3234
 6760TIP3   OH220243   1.246   2.552   0.513  0.1752  0.3399 -0.4319
 6760TIP3    H120244   1.254   2.630   0.567 -0.9085  0.2736 -0.1526
 6760TIP3    H220245   1.301   2.569   0.437  0.9445  0.8347  0.2294
 6761TIP3   OH220246   1.678   1.952   1.856 -0.3168  0.6796 -0.6181
 6761TIP3    H120247   1.643   2.016   1.918 -1.0663 -0.5149  0.2297
 6761TIP3    H220248   1.772   1.969   1.855 -0.4923  1.7464 -0.3628
 6762TIP3   OH220249   2.251   3.361   0.525 -0.3247 -0.1876  0.8040
 6762TIP3    H120250   2.346   3.360   0.518 -0.3676 -2.1650 -0.1319
 6762TIP3    H220251   2.224   3.435   0.470  0.6087 -0.7025 -0.3987
 6763TIP3   OH220252   3.776   6.149   5.589  0.9847  0.0959  0.1453
 6763TIP3    H120253   3.758   6.063   5.628 -0.6493  0.2048 -0.2807
 6763TIP3    H220254   3.838   6.190   5.650 -2.0059  0.5529  3.1967
 6764TIP3   OH220255   0.528   2.057   0.184  0.1789  0.0787 -0.4716
 6764TIP3    H120256   0.562   2.027   0.268  1.1676  1.4631 -0.3413
 6764TIP3    H220257   0.454   2.113   0.207  1.0233  1.2193 -0.4304
 6765TIP3   OH220258   2.644   0.574   4.591  0.2928 -0.0179 -0.0453
 6765TIP3    H120259   2.672   0.662   4.567  0.7097 -0.1517 -0.0512
 6765TIP3    H220260   2.573   0.588   4.654  0.3828  0.3191 -0.0170
 6766TIP3   OH220261   5.208   6.687   1.389 -0.2870 -0.1018 -0.5377
 6766TIP3    H120262   5.231   6.671   1.297 -0.2874 -0.4934 -0.4699
 6766TIP3    H220263   5.264   6.761   1.415 -1.9771  1.6230 -1.5433
 6767TIP3   OH220264   6.821   2.671   5.841 -0.3910 -0.5762  0.3149
 6767TIP3    H120265   6.821   2.746   5.782 -0.2364 -1.0605 -0.3112
 6767TIP3    H220266   6.867   2.603   5.793 -2.0929 -1.6568  0.1194
 6768TIP3   OH220267   5.503   4.701   4.994  0.2022  0.2321 -0.3243
 6768TIP3    H120268   5.592   4.673   5.015  0.5470  0.9479 -0.7910
 6768TIP3    H220269   5.500   4.793   5.019 -0.3132  0.2904 -0.5773
 6769TIP3   OH220270   1.392   1.144   3.286  0.5421  0.4161 -0.0309
 6769TIP3    H120271   1.416   1.193   3.207  0.1279 -0.4408 -0.7016
 6769TIP3    H220272   1.465   1.157   3.346  0.8209  1.1526 -0.5197
 6770TIP3   OH220273   5.574   2.214   3.923  0.3479 -0.2291  0.0940
 6770TIP3    H120274   5.616   2.262   3.851 -1.0227 -1.5963 -1.7459
 6770TIP3    H220275   5.484   2.199   3.892  0.1294 -2.1171  1.4727
 6771TIP3   OH220276   4.423   4.623   4.322 -0.6220 -0.0857  0.0935
 6771TIP3    H120277   4.403   4.695   4.382  0.1465  3.1732 -3.1197
 6771TIP3    H220278   4.517   4.609   4.331 -0.6310 -0.1081  0.1510
 6772TIP3   OH220279   3.299   4.139   4.531  0.2769  0.3157 -0.3206
 6772TIP3    H120280   3.288   4.118   4.624 -3.1402  1.5148 -0.3005
 6772TIP3    H220281   3.289   4.234   4.527  0.2834  0.2785 -1.9124
 6773TIP3   OH220282   3.273   2.869   0.284  0.1003  0.1193 -0.0165
 6773TIP3    H120283   3.343   2.910   0.233 -1.0848  2.1149 -0.1433
 6773TIP3    H220284   3.254   2.787   0.238  0.8819  0.5934 -1.2297
 6774TIP3   OH220285   1.685   1.648   0.538 -0.7130  0.6865  0.6379
 6774TIP3    H120286   1.717   1.559   0.552  2.3064  1.6137  0.4382
 6774TIP3    H220287   1.672   1.683   0.626  0.3442  0.7147  0.8056
 6775TIP3   OH220288   1.738   3.696   4.192  0.4558  0.2141 -0.4992
 6775TIP3    H120289   1.822   3.673   4.152 -1.0851  1.3738 -5.0445
 6775TIP3    H220290   1.674   3.640   4.147 -1.6631  2.6949 -0.7957
 6776TIP3   OH220291   3.799   1.574   0.530 -0.1252 -0.1914  0.2589
 6776TIP3    H120292   3.888   1.539   0.530  0.3153  0.8900  0.7188
 6776TIP3    H220293   3.757   1.532   0.606 -0.1112 -0.9109 -0.1186
 6777TIP3   OH220294   5.415   5.147   4.600  0.1103 -0.4581 -0.0177
 6777TIP3    H120295   5.444   5.129   4.690 -1.6518 -1.9207  0.3425
 6777TIP3    H220296   5.379   5.063   4.570 -0.6862  0.3846 -1.5415
 6778TIP3   OH220297   6.338   6.246   1.077  0.2689 -0.0313 -0.2954
 6778TIP3    H120298   6.312   6.163   1.117  0.5331 -0.6340 -1.3301
 6778TIP3    H220299   6.261   6.302   1.088  0.9912  0.5351  2.7729
 6779TIP3   OH220300   1.737   3.544   5.639 -0.1252 -0.2031 -0.3165
 6779TIP3    H120301   1.749   3.524   5.732  1.9239 -0.5314 -0.6005
 6779TIP3    H220302   1.814   3.598   5.617 -0.1948 -0.7522 -1.9776
 6780TIP3   OH220303   3.477   5.482   0.977 -0.4931 -0.2472  0.0103
 6780TIP3    H120304   3.573   5.483   0.967 -0.6054 -0.6588 -1.1716
 6780TIP3    H220305   3.457   5.567   1.017  0.3733 -0.2009  0.3728
 6781TIP3   OH220306   3.904   0.776   5.366  0.5389  0.0662 -0.1274
 6781TIP3    H120307   3.862   0.740   5.445  0.2069  0.0393 -0.3117
 6781TIP3    H220308   3.984   0.724   5.356  1.9031  1.7223  1.6047
 6782TIP3   OH220309   5.757   4.222   5.626  1.1652 -0.7619  0.2940
 6782TIP3    H120310   5.697   4.168   5.575  1.1471  0.2328 -0.7700
 6782TIP3    H220311   5.837   4.169   5.632  1.7017 -0.3277 -2.0793
 6783TIP3   OH220312   6.948   4.259   0.646  0.5934  0.2594  0.0971
 6783TIP3    H120313   6.928   4.165   0.651 -0.5488  0.4964  0.2717
 6783TIP3    H220314   6.871   4.297   0.603  0.0154  1.4218  2.0468
 6784TIP3   OH220315   6.565   0.081   0.936  0.2324  0.3393 -0.0678
 6784TIP3    H120316   6.558   0.119   1.024 -1.1143 -0.2630  0.1119
 6784TIP3    H220317   6.633   0.013   0.945  0.8236  0.9623  0.2424
 6785TIP3   OH220318   5.436   5.615   0.909  0.4171  0.1464 -0.0840
 6785TIP3    H120319   5.426   5.598   0.815  1.8402  0.6389 -0.3586
 6785TIP3    H220320   5.361   5.670   0.932 -1.5847 -2.3715 -0.2359
 6786TIP3   OH220321   3.000   1.558   1.012  1.1828 -0.2728  0.7022
 6786TIP3    H120322   3.059   1.631   1.028  0.8988  0.2650 -0.5686
 6786TIP3    H220323   2.978   1.525   1.099  1.3815  1.0937  1.2896
 6787TIP3   OH220324   0.676   5.366   1.980 -0.7999 -0.2887 -0.3282
 6787TIP3    H120325   0.668   5.365   2.075  0.7243 -1.3289 -0.1911
 6787TIP3    H220326   0.753   5.421   1.963 -1.2318  0.1290 -0.9883
 6788TIP3   OH220327   2.259   4.171   5.838  0.2116 -0.3831 -0.9297
 6788TIP3    H120328   2.306   4.093   5.811  1.5354 -0.8364  2.3668
 6788TIP3    H220329   2.205   4.144   5.912 -0.2924  1.5613 -0.5054
 6789TIP3   OH220330   5.309   4.838   0.437  0.3037 -0.6127 -0.2009
 6789TIP3    H120331   5.307   4.919   0.388 -0.4251 -0.9802 -0.8053
 6789TIP3    H220332   5.370   4.782   0.390  0.5565 -0.5273  0.0265
 6790TIP3   OH220333   6.330   3.313   2.381  0.3139  0.3411 -0.2742
 6790TIP3    H120334   6.260   3.275   2.435 -0.7501 -0.8792 -2.3716
 6790TIP3    H220335   6.406   3.259   2.400  0.1203  0.3185  0.4562
 6791TIP3   OH220336   5.636   6.747   2.083 -0.1799 -0.3846 -0.1624
 6791TIP3    H120337   5.697   6.675   2.065  1.5487  0.4354  2.0100
 6791TIP3    H220338   5.571   6.710   2.142 -0.0674 -0.4855 -0.1026
 6792TIP3   OH220339   1.754   4.180   0.993  0.6832  0.4646  0.2847
 6792TIP3    H120340   1.821   4.220   1.048  2.0529 -1.2577 -0.0207
 6792TIP3    H220341   1.768   4.086   1.002 -1.4071  0.0468 -0.1939
 6793TIP3   OH220342   3.268   5.325   1.063  0.6619 -0.0063 -0.2923
 6793TIP3    H120343   3.192   5.379   1.084  0.9042 -0.4474  1.9075
 6793TIP3    H220344   3.335   5.388   1.035  0.0050  0.5167 -0.7182
 6794TIP3   OH220345   2.817   0.032   5.660  0.2447 -0.7053 -0.3259
 6794TIP3    H120346   2.787   0.121   5.676 -1.5263 -1.2042 -0.6468
 6794TIP3    H220347   2.852   0.034   5.571  0.2771 -0.3021 -0.3034
 6795TIP3   OH220348   6.910   6.094   5.266  0.0872  0.1903 -0.0455
 6795TIP3    H120349   6.916   6.002   5.291  0.2160  0.6277  1.6274
 6795TIP3    H220350   6.966   6.102   5.189  0.8406 -0.9374  0.3719
 6796TIP3   OH220351   3.913   4.435   5.327 -0.2836 -0.9176  0.3045
 6796TIP3    H120352   3.908   4.356   5.273  0.8266 -0.6638 -0.2050
 6796TIP3    H220353   3.849   4.421   5.397 -0.5973 -1.9560 -0.1759
 6797TIP3   OH220354   5.685   6.823   0.419  0.6362  0.2403 -0.3184
 6797TIP3    H120355   5.780   6.813   0.420  0.7300  1.0804  0.1131
 6797TIP3    H220356   5.651   6.735   0.434  1.3594  0.0488  0.2141
 6798TIP3   OH220357   6.730   3.640   4.060 -0.6999 -0.3299 -0.0674
 6798TIP3    H120358   6.696   3.551   4.056  0.6767 -0.8803 -0.0123
 6798TIP3    H220359   6.663   3.693   4.016 -0.5286 -1.7147 -2.1376
 6799TIP3   OH220360   0.541   6.337   4.132  0.4064  0.1931  0.2138
 6799TIP3    H120361   0.511   6.344   4.222 -0.3486  3.3149 -0.1381
 6799TIP3    H220362   0.462   6.317   4.082  0.6622 -0.6850  0.1537
 6800TIP3   OH220363   2.077   3.099   4.480  0.0549 -0.3584  0.2299
 6800TIP3    H120364   2.135   3.035   4.522  2.0577  0.9219 -0.4460
 6800TIP3    H220365   2.097   3.090   4.386 -0.2817  0.6392  0.0584
 6801TIP3   OH220366   5.893   3.530   3.087 -0.1679 -0.3250 -0.1106
 6801TIP3    H120367   5.936   3.469   3.146  0.8620  1.1532  0.7093
 6801TIP3    H220368   5.964   3.583   3.051 -0.8725 -0.5814 -1.9968
 6802TIP3   OH220369   0.764   3.993   0.878  0.1042  0.1983  0.1285
 6802TIP3    H120370   0.762   3.897   0.873  0.5670  0.2325 -2.1231
 6802TIP3    H220371   0.851   4.013   0.912  0.1256 -0.1771  0.2991
 6803TIP3   OH220372   6.397   1.181   1.129 -0.0001  0.1281 -0.4421
 6803TIP3    H120373   6.364   1.265   1.096  0.0826  0.0645 -0.6843
 6803TIP3    H220374   6.364   1.116   1.068  0.4994  0.0551 -0.6421
 6804TIP3   OH220375   2.875   5.653   3.757  0.3679 -0.6054 -0.1431
 6804TIP3    H120376   2.914   5.569   3.733  0.6952 -0.5128  0.0629
 6804TIP3    H220377   2.947   5.704   3.793  0.5874  0.4914 -2.0464
 6805TIP3   OH220378   3.339   2.649   0.651 -0.2659 -0.3545  0.3852
 6805TIP3    H120379   3.373   2.728   0.609  0.9214 -0.5090  1.0292
 6805TIP3    H220380   3.331   2.585   0.580 -0.2514  0.0176  0.0454
 6806TIP3   OH220381   5.423   1.058   5.523  0.5066  0.5104  0.1996
 6806TIP3    H120382   5.440   1.120   5.594 -2.7977  0.4139  1.2558
 6806TIP3    H220383   5.435   0.972   5.562  2.3875  0.4125 -0.4992
 6807TIP3   OH220384   0.714   0.282   3.070 -0.2861 -0.0490  0.3035
 6807TIP3    H120385   0.692   0.301   3.161  1.8437  2.0372  0.4724
 6807TIP3    H220386   0.764   0.200   3.074  0.8236  0.6401  1.2013
 6808TIP3   OH220387   1.654   4.050   2.546  0.5789 -0.0847  0.1654
 6808TIP3    H120388   1.590   4.107   2.589  0.6888  1.2005 -1.2978
 6808TIP3    H220389   1.719   4.109   2.509 -0.2164 -0.9208 -2.9224
 6809TIP3   OH220390   1.653   3.381   3.700  0.0284 -0.3820  0.1574
 6809TIP3    H120391   1.604   3.403   3.621  0.1831  0.3188  0.2536
 6809TIP3    H220392   1.587   3.364   3.766 -0.1199  1.6687  0.6009
 6810TIP3   OH220393   3.577   3.593   4.333 -0.4785  1.1227  0.6273
 6810TIP3    H120394   3.631   3.515   4.324 -2.0396  0.0371  0.2633
 6810TIP3    H220395   3.489   3.564   4.311 -0.8994  3.3000 -0.9793
 6811TIP3   OH220396   3.898   2.791   0.382  0.3601  0.5670  0.1830
 6811TIP3    H120397   3.977   2.739   0.371  0.2826  0.3788  0.4984
 6811TIP3    H220398   3.875   2.821   0.293  1.2866  1.3809  0.2037
 6812TIP3   OH220399   6.262   5.062   1.852  0.1829  0.1706 -0.2029
 6812TIP3    H120400   6.171   5.061   1.880  0.0174  0.9317 -0.6829
 6812TIP3    H220401   6.293   4.972   1.866 -0.8965 -0.3244 -0.8621
 6813TIP3   OH220402   6.149   2.494   2.477 -0.2236  0.5450 -0.0572
 6813TIP3    H120403   6.154   2.404   2.509 -0.3477  0.0090 -1.4933
 6813TIP3    H220404   6.055   2.512   2.471 -0.2101  1.1133  1.0825
 6814TIP3   OH220405   5.891   3.991   5.726 -0.5314 -0.0526  0.0974
 6814TIP3    H120406   5.870   3.914   5.780 -1.2126  0.2813  0.3164
 6814TIP3    H220407   5.947   3.956   5.656 -1.4850 -0.9027 -0.2667
 6815TIP3   OH220408   1.623   1.104   3.833 -0.0758 -0.1004 -0.5448
 6815TIP3    H120409   1.671   1.162   3.773  1.5942 -0.8519 -0.0070
 6815TIP3    H220410   1.686   1.034   3.854 -1.6650 -1.5072 -0.3092
 6816TIP3   OH220411   4.304   2.389   4.399  0.1224 -0.1937  0.0475
 6816TIP3    H120412   4.282   2.445   4.325 -0.1761 -1.6529 -1.0123
 6816TIP3    H220413   4.308   2.449   4.474 -0.0437  1.2447 -1.0435
 6817TIP3   OH220414   2.531   2.129   5.101 -0.2701 -0.0939 -0.3986
 6817TIP3    H120415   2.605   2.078   5.133 -0.7039  0.0562  0.8888
 6817TIP3    H220416   2.517   2.097   5.012  0.6125 -0.9246 -0.2590
 6818TIP3   OH220417   2.951   2.205   5.792  0.5754  0.7040 -0.3217
 6818TIP3    H120418   2.957   2.282   5.849 -2.2492  0.8142 -0.0553
 6818TIP3    H220419   2.958   2.130   5.851  2.3897  0.7023 -0.4744
 6819TIP3   OH220420   3.443   2.916   4.747 -0.3862  1.7331  0.0456
 6819TIP3    H120421   3.504   2.865   4.800  1.5394  2.7516 -1.0795
 6819TIP3    H220422   3.428   2.996   4.798  1.3998  2.6752 -0.8049
 6820TIP3   OH220423   5.978   5.747   3.185 -0.2463 -0.1687  0.2289
 6820TIP3    H120424   5.934   5.697   3.116 -0.0632 -0.1288  0.0840
 6820TIP3    H220425   6.052   5.693   3.211 -0.8349 -0.6055  1.0345
 6821TIP3   OH220426   3.157   0.259   0.140  0.1645  0.5020 -0.2996
 6821TIP3    H120427   3.131   0.185   0.084 -0.3293 -0.8131  1.5748
 6821TIP3    H220428   3.234   0.227   0.188  1.1869  1.9590 -0.8702
 6822TIP3   OH220429   2.437   1.025   2.010  0.7280 -0.2080  0.2451
 6822TIP3    H120430   2.408   1.107   2.050 -1.2583 -0.8341  0.2289
 6822TIP3    H220431   2.512   0.998   2.063  1.4270  1.6089  0.2344
 6823TIP3   OH220432   0.344   6.198   1.080 -0.3617  0.4466  0.2469
 6823TIP3    H120433   0.270   6.223   1.025  0.3341 -0.3363 -1.0904
 6823TIP3    H220434   0.322   6.233   1.167 -1.5642  1.5593 -0.4713
 6824TIP3   OH220435   3.300   4.596   2.414  0.4501  0.2825 -0.0483
 6824TIP3    H120436   3.384   4.566   2.450  0.0993  1.0173  1.4540
 6824TIP3    H220437   3.321   4.679   2.372  0.1314  1.7253  2.4326
 6825TIP3   OH220438   2.844   6.151   0.903  0.2083  0.4716 -0.2693
 6825TIP3    H120439   2.751   6.170   0.916  0.0148 -0.0847 -0.8369
 6825TIP3    H220440   2.871   6.107   0.984 -0.6231 -1.5800 -1.0748
 6826TIP3   OH220441   3.026   5.079   1.865 -0.2385 -0.0375 -0.0242
 6826TIP3    H120442   3.018   5.053   1.957 -0.6256 -0.3010 -0.1266
 6826TIP3    H220443   3.118   5.102   1.854 -0.4479  1.2190  0.7445
 6827TIP3   OH220444   3.760   3.316   2.080 -0.7494 -0.5011  0.1399
 6827TIP3    H120445   3.676   3.360   2.094 -1.0704 -1.7032  2.7977
 6827TIP3    H220446   3.737   3.234   2.036 -0.6953  0.0383 -0.9119
 6828TIP3   OH220447   0.327   4.287   4.770  0.2103  0.2899 -0.4395
 6828TIP3    H120448   0.337   4.322   4.682 -1.4783  1.6060 -0.1585
 6828TIP3    H220449   0.367   4.354   4.827 -0.6442  0.4983 -0.0737
 6829TIP3   OH220450   4.741   0.289  -0.006  0.2274 -0.2997  0.0985
 6829TIP3    H120451   4.734   0.216   0.057  2.3599  0.1056  0.8922
 6829TIP3    H220452   4.834   0.311  -0.006 -0.0528  1.0736 -1.7164
 6830TIP3   OH220453   2.902   6.286   3.191  0.4353  0.3694  0.0981
 6830TIP3    H120454   2.922   6.287   3.097  1.0859  0.9667  0.2367
 6830TIP3    H220455   2.812   6.254   3.196  0.6497 -0.3886 -0.6781
 6831TIP3   OH220456   0.832   1.386   5.039 -0.2185  0.8480 -0.1699
 6831TIP3    H120457   0.860   1.305   5.081  1.0128  1.2848 -0.1270
 6831TIP3    H220458   0.837   1.368   4.946 -0.5889  0.6610 -0.1535
 6832TIP3   OH220459   0.897   1.261   5.886  0.7390  0.1874  0.1180
 6832TIP3    H120460   0.850   1.334   5.845  1.4649  0.3846 -0.3961
 6832TIP3    H220461   0.876   1.185   5.831 -0.7201 -0.2117  1.1497
 6833TIP3   OH220462   1.126   0.900   4.847  0.8630  0.0190  0.2447
 6833TIP3    H120463   1.105   0.847   4.770 -0.9170  2.6742 -1.2511
 6833TIP3    H220464   1.207   0.862   4.881  0.6502 -2.4670 -1.7441
 6834TIP3   OH220465   1.924   5.786   2.108 -0.9019  0.2841  0.0289
 6834TIP3    H120466   1.880   5.736   2.039 -0.3148 -0.0088 -0.1448
 6834TIP3    H220467   1.886   5.753   2.189  0.0717 -1.0843 -0.0291
 6835TIP3   OH220468   2.619   0.854   3.678  0.1839  0.0961  0.1603
 6835TIP3    H120469   2.568   0.803   3.740 -0.5777  0.0013 -0.5314
 6835TIP3    H220470   2.645   0.932   3.728  0.4481 -0.4477  0.8941
 6836TIP3   OH220471   0.189   2.451   4.828  0.3874  0.0743  0.4141
 6836TIP3    H120472   0.104   2.422   4.796  0.9119 -0.3080 -0.6625
 6836TIP3    H220473   0.204   2.398   4.906  0.4561 -1.1814 -0.4278
 6837TIP3   OH220474   5.818   1.066   3.817 -0.3012  0.2326  0.3297
 6837TIP3    H120475   5.752   1.050   3.885 -0.1198 -0.3326  0.3845
 6837TIP3    H220476   5.768   1.099   3.742 -0.5525  0.4901  0.6113
 6838TIP3   OH220477   0.379   4.300   2.597  0.2612  0.2884  0.3428
 6838TIP3    H120478   0.399   4.211   2.626 -1.5054 -0.8589 -1.6828
 6838TIP3    H220479   0.425   4.310   2.514 -0.9595  0.5696 -0.3298
 6839TIP3   OH220480   0.440   0.696   5.634  0.1755  0.3326  0.1996
 6839TIP3    H120481   0.467   0.688   5.725 -2.2201 -1.2114  0.8556
 6839TIP3    H220482   0.497   0.636   5.586  0.6949  0.3046  0.8442
 6840TIP3   OH220483   6.233   0.650   1.138 -0.0372 -0.3962 -0.4880
 6840TIP3    H120484   6.282   0.709   1.080  1.3470  1.3259  2.2538
 6840TIP3    H220485   6.294   0.577   1.154  0.1976 -0.1022 -0.0165
 6841TIP3   OH220486   7.158   3.986   5.678  0.0973  0.0081  0.0581
 6841TIP3    H120487   7.204   3.985   5.762  0.3401  0.4695 -0.0647
 6841TIP3    H220488   7.088   3.921   5.688 -0.0240  0.2290  0.6965
 6842TIP3   OH220489   2.623   6.096   3.179  0.3374 -0.1056 -0.8389
 6842TIP3    H120490   2.597   6.015   3.134  0.7011  0.1990 -1.6368
 6842TIP3    H220491   2.588   6.166   3.124  0.7430  0.2828 -0.6101
 6843TIP3   OH220492   0.970   1.289   4.754  0.1003 -0.1930 -0.4011
 6843TIP3    H120493   0.951   1.198   4.776  0.9484  0.0884  1.8225
 6843TIP3    H220494   0.918   1.307   4.676 -1.0773 -2.1957 -0.1469
 6844TIP3   OH220495   2.019   0.152   1.684 -0.3627  0.1550  0.3139
 6844TIP3    H120496   1.950   0.218   1.685 -3.1221 -2.5062 -0.1132
 6844TIP3    H220497   2.020   0.120   1.594 -0.1701 -1.4018  0.8493
 6845TIP3   OH220498   0.323   3.231   5.840  0.4417  0.6286  0.2555
 6845TIP3    H120499   0.260   3.303   5.851  0.6497  1.1468 -1.5920
 6845TIP3    H220500   0.271   3.158   5.807  0.8118  1.2341 -1.8448
 6846TIP3   OH220501   1.300   0.515   0.078  0.2375  0.2522 -0.5056
 6846TIP3    H120502   1.234   0.585   0.084  0.2556  0.3130 -1.0253
 6846TIP3    H220503   1.295   0.471   0.163  0.1388  0.8074 -0.2137
 6847TIP3   OH220504   4.391   5.311   1.223  0.0212  0.0224  0.5724
 6847TIP3    H120505   4.486   5.304   1.228 -0.0367 -0.8795  0.5860
 6847TIP3    H220506   4.373   5.317   1.129  0.1717  1.8136  0.6182
 6848TIP3   OH220507   2.561   5.504   4.870 -0.0369  0.9088 -0.2588
 6848TIP3    H120508   2.529   5.569   4.934  1.3065 -0.0276  1.4631
 6848TIP3    H220509   2.650   5.486   4.898 -0.6366 -2.3463 -0.1093
 6849TIP3   OH220510   6.037   3.310   3.159  0.3706  0.1670 -1.0251
 6849TIP3    H120511   6.125   3.335   3.133 -0.0150  0.0351 -2.5185
 6849TIP3    H220512   6.046   3.222   3.194  1.2037  1.0593  1.2303
 6850TIP3   OH220513   4.399   0.183   1.057 -0.0242 -0.2438  0.4516
 6850TIP3    H120514   4.454   0.164   1.133 -0.3759 -0.3708  0.6723
 6850TIP3    H220515   4.459   0.172   0.982  0.8193  1.6724  0.7775
 6851TIP3   OH220516   3.668   6.676   3.340 -0.0067  0.2547  0.1248
 6851TIP3    H120517   3.683   6.588   3.304  1.6963  1.4268 -2.3182
 6851TIP3    H220518   3.581   6.701   3.307  0.8936  0.7039 -2.0986
 6852TIP3   OH220519   0.195   4.933   2.366  0.0176  0.4963  0.3146
 6852TIP3    H120520   0.130   4.885   2.417 -0.2770  0.9427  0.3648
 6852TIP3    H220521   0.151   5.015   2.342  1.6803  2.4688  3.3461
 6853TIP3   OH220522   5.394   5.331   0.937 -0.0814  0.4516 -0.2271
 6853TIP3    H120523   5.476   5.335   0.987  0.6641 -1.8257 -1.1369
 6853TIP3    H220524   5.381   5.421   0.905  1.6440  1.0260  0.5716
 6854TIP3   OH220525   1.682   3.510   0.887  0.2477  0.0121  0.1264
 6854TIP3    H120526   1.723   3.546   0.966 -0.3522 -0.6257  0.7374
 6854TIP3    H220527   1.596   3.551   0.884 -0.2044 -0.8931  0.4899
 6855TIP3   OH220528   6.570   5.673   4.430 -0.2913  0.1651 -0.1055
 6855TIP3    H120529   6.511   5.616   4.381 -0.3535  0.4243 -0.3353
 6855TIP3    H220530   6.658   5.651   4.397 -0.1965 -0.6153  0.6343
 6856TIP3   OH220531   4.803   2.983   2.335 -0.1991  0.0774  0.0076
 6856TIP3    H120532   4.743   3.057   2.321 -0.0414  0.3381  0.6611
 6856TIP3    H220533   4.817   2.947   2.248  0.5898  1.4949 -0.4787
 6857TIP3   OH220534   6.332   4.755   2.942  0.6661  0.2382 -0.2060
 6857TIP3    H120535   6.361   4.780   3.029 -0.6082  0.1263  0.2782
 6857TIP3    H220536   6.385   4.678   2.920  1.8715  1.0069 -0.0767
 6858TIP3   OH220537   4.878   1.632   4.962  0.9473  0.2627  0.4582
 6858TIP3    H120538   4.846   1.713   4.922  0.8871  0.7224  1.4155
 6858TIP3    H220539   4.922   1.586   4.891 -0.0151  0.5980 -0.3797
 6859TIP3   OH220540   2.352   5.510   3.834  1.1804  0.0652  0.6174
 6859TIP3    H120541   2.329   5.596   3.870 -1.2674 -0.2583  0.0083
 6859TIP3    H220542   2.431   5.526   3.782  0.2572  2.1571 -0.2617
 6860TIP3   OH220543   0.829   1.705   4.728 -0.1718 -0.0920  0.1109
 6860TIP3    H120544   0.792   1.617   4.737  0.1491 -0.4894 -1.8622
 6860TIP3    H220545   0.755   1.764   4.739 -0.9384 -0.7572 -1.2463
 6861TIP3   OH220546   1.379   6.302   4.081  0.3492  0.3683  0.3418
 6861TIP3    H120547   1.468   6.268   4.073  0.3599 -0.2238  2.4553
 6861TIP3    H220548   1.377   6.347   4.165 -1.2175  0.8301  0.1003
 6862TIP3   OH220549   1.156   3.241   3.661  0.0033 -0.4065 -0.3053
 6862TIP3    H120550   1.126   3.191   3.737 -0.1006 -0.1975 -0.2054
 6862TIP3    H220551   1.076   3.272   3.619  0.0596  1.0006  0.5363
 6863TIP3   OH220552   6.365   3.129   5.379  0.3976  0.2769  0.9475
 6863TIP3    H120553   6.322   3.081   5.308  0.2517  0.4434  0.9229
 6863TIP3    H220554   6.400   3.061   5.436  0.2040  0.1401  0.9056
 6864TIP3   OH220555   5.982   6.694   0.568 -0.0575  0.3087  0.0893
 6864TIP3    H120556   6.060   6.697   0.514 -1.0979 -0.4096 -1.5370
 6864TIP3    H220557   6.006   6.639   0.643  0.9559  0.0131 -0.4439
 6865TIP3   OH220558   6.047   6.715   1.711  0.3175  0.3311 -0.0466
 6865TIP3    H120559   6.142   6.718   1.725  0.0444  0.7291  2.0499
 6865TIP3    H220560   6.026   6.622   1.705  0.9792  0.2688 -1.8879
 6866TIP3   OH220561   1.621   0.269   3.232  0.3395  0.7011 -0.7190
 6866TIP3    H120562   1.708   0.253   3.195 -0.8320 -0.7121 -3.1663
 6866TIP3    H220563   1.610   0.199   3.297  1.4274  1.5947  0.4722
 6867TIP3   OH220564   0.360   0.953   5.597 -0.3759 -0.2184 -0.0259
 6867TIP3    H120565   0.409   0.873   5.615  0.0639  0.2086  0.7782
 6867TIP3    H220566   0.416   1.003   5.538 -0.8834 -0.7183 -0.9461
 6868TIP3   OH220567   6.434   0.051   2.610  0.6895  0.3643  0.1277
 6868TIP3    H120568   6.415   0.047   2.516  3.2077 -5.3824 -0.5798
 6868TIP3    H220569   6.520   0.092   2.615  1.3431 -0.9000 -0.3783
 6869TIP3   OH220570   6.031   2.310   4.872  0.3210 -0.5318  0.9547
 6869TIP3    H120571   5.957   2.265   4.829  1.7120 -1.2347 -0.8354
 6869TIP3    H220572   6.049   2.385   4.815  3.1167 -2.2601 -0.6910
 6870TIP3   OH220573   6.515   3.303   3.222 -0.1410 -0.3619  0.3355
 6870TIP3    H120574   6.480   3.219   3.193 -2.8442  1.1443 -1.1557
 6870TIP3    H220575   6.486   3.311   3.313 -0.8555 -0.5636  0.1276
 6871TIP3   OH220576   6.128   2.884   5.264  0.4340  0.2349  0.0938
 6871TIP3    H120577   6.169   2.958   5.219  0.4079  0.1809 -0.0175
 6871TIP3    H220578   6.095   2.922   5.346 -0.8976  0.6682 -0.6276
 6872TIP3   OH220579   5.572   4.234   2.707 -0.1975 -0.0343 -0.3270
 6872TIP3    H120580   5.610   4.259   2.791  0.5111  0.1570 -0.7015
 6872TIP3    H220581   5.570   4.315   2.657  0.5478 -0.3857 -0.9427
 6873TIP3   OH220582   2.263   4.956   0.124  0.1245 -0.0382  0.5668
 6873TIP3    H120583   2.185   4.961   0.069  1.1853 -0.6791 -1.0471
 6873TIP3    H220584   2.271   4.864   0.146 -0.3884  0.2321  1.9949
 6874TIP3   OH220585   4.065   5.739   5.806  0.1984  0.5208 -0.0507
 6874TIP3    H120586   4.160   5.723   5.813  0.0539 -0.1720  0.5017
 6874TIP3    H220587   4.038   5.685   5.732  0.0244 -0.3167  0.6164
 6875TIP3   OH220588   0.575   4.212   4.992  0.3085  0.5236 -0.1583
 6875TIP3    H120589   0.495   4.265   4.996 -0.1798 -0.1833 -0.4955
 6875TIP3    H220590   0.575   4.162   5.073 -0.7724 -1.1444 -1.1379
 6876TIP3   OH220591   4.589   0.297   0.603  0.0263 -0.2021 -0.1820
 6876TIP3    H120592   4.634   0.344   0.673  0.8056 -1.4284  0.1745
 6876TIP3    H220593   4.644   0.311   0.526 -0.1094  0.0365 -0.2352
 6877TIP3   OH220594   1.880   5.704   5.877 -0.3688 -0.4759  0.8730
 6877TIP3    H120595   1.912   5.785   5.835 -0.7668 -1.5168 -1.6368
 6877TIP3    H220596   1.886   5.638   5.808 -2.4741 -2.0224  2.0711
 6878TIP3   OH220597   5.291   3.426   5.610  0.4110  0.4193  0.1517
 6878TIP3    H120598   5.219   3.472   5.566  0.2095  0.3483  0.4007
 6878TIP3    H220599   5.280   3.449   5.702 -0.0228 -0.5503  0.3570
 6879TIP3   OH220600   6.020   2.385   3.704 -0.4313  0.0577 -0.0144
 6879TIP3    H120601   6.030   2.330   3.782 -1.0444 -2.2858 -1.4629
 6879TIP3    H220602   6.104   2.376   3.658  0.5014  2.6506  1.0054
 6880TIP3   OH220603   4.087   4.796   1.828 -0.7198  0.8370  0.4420
 6880TIP3    H120604   4.054   4.782   1.740 -2.0828  3.5099  0.4328
 6880TIP3    H220605   4.172   4.837   1.816 -0.7718  0.9194  0.3495
 6881TIP3   OH220606   3.252   3.063   5.599  0.9147  0.2008 -0.0256
 6881TIP3    H120607   3.204   3.144   5.620  0.3968 -0.2502  0.5823
 6881TIP3    H220608   3.205   2.995   5.647  1.7115 -0.3751 -0.0535
 6882TIP3   OH220609   6.587   1.836   5.040  0.3534  0.0875  0.0359
 6882TIP3    H120610   6.605   1.745   5.015 -0.0489 -0.1130  0.4623
 6882TIP3    H220611   6.548   1.875   4.963  1.3783  0.1599 -0.4629
 6883TIP3   OH220612   3.881   1.864   0.785  0.0813 -0.0826  0.2648
 6883TIP3    H120613   3.839   1.783   0.814 -2.4217  0.0862 -2.4309
 6883TIP3    H220614   3.915   1.844   0.698 -0.8186  1.7574 -0.5755
 6884TIP3   OH220615   3.362   2.728   3.603 -0.2473 -0.2784  0.8360
 6884TIP3    H120616   3.425   2.667   3.565 -0.0174  0.7438 -0.4934
 6884TIP3    H220617   3.341   2.690   3.688  2.1803 -0.6444  1.3503
 6885TIP3   OH220618   6.605   1.012   4.215  0.3090 -0.4133 -0.1530
 6885TIP3    H120619   6.516   1.006   4.178  0.0664 -0.8101  0.4816
 6885TIP3    H220620   6.658   1.046   4.143 -0.4868  0.4767 -0.3384
 6886TIP3   OH220621   1.374   5.999   4.645 -0.0949 -0.0151 -0.4456
 6886TIP3    H120622   1.433   5.928   4.672 -0.3338 -0.1837 -0.3665
 6886TIP3    H220623   1.366   5.988   4.551 -1.6853 -1.3048 -0.1997
 6887TIP3   OH220624   0.533   1.587   1.687  0.0503 -0.2445 -0.4322
 6887TIP3    H120625   0.617   1.618   1.721  0.1178  0.1517 -0.9480
 6887TIP3    H220626   0.513   1.508   1.738  1.3529 -1.0768 -1.1433
 6888TIP3   OH220627   6.047   5.819   5.596 -0.2462  0.1228 -0.6759
 6888TIP3    H120628   6.008   5.906   5.603 -1.9615 -0.7258  1.6599
 6888TIP3    H220629   6.107   5.814   5.671 -0.9369 -1.0360 -0.1765
 6889TIP3   OH220630   6.365   4.368   4.759 -0.1361  0.2080 -0.5170
 6889TIP3    H120631   6.273   4.382   4.784 -0.9250 -2.3289 -1.6225
 6889TIP3    H220632   6.399   4.456   4.743 -2.7157  1.2020 -1.1584
 6890TIP3   OH220633   6.186   3.077   3.766 -0.2759 -0.4608  0.3189
 6890TIP3    H120634   6.137   3.158   3.755  0.3987  0.0187  0.7258
 6890TIP3    H220635   6.272   3.095   3.727  0.2541 -0.5924  1.3772
 6891TIP3   OH220636   1.061   3.824   3.093 -0.0821  0.0991 -0.1970
 6891TIP3    H120637   1.006   3.864   3.026  0.4565  0.1070 -0.6395
 6891TIP3    H220638   1.147   3.816   3.052  0.2188 -0.0163  0.4496
 6892TIP3   OH220639   1.530   5.414   2.923  0.4997  0.8214 -0.0459
 6892TIP3    H120640   1.589   5.487   2.903  2.4229 -0.3799  0.8883
 6892TIP3    H220641   1.580   5.336   2.899 -1.6732 -0.2265 -1.4519
 6893TIP3   OH220642   2.743   2.684   4.117  0.4475 -0.0373 -0.0172
 6893TIP3    H120643   2.784   2.720   4.196  1.7329 -0.5449 -0.4237
 6893TIP3    H220644   2.816   2.649   4.066 -0.6182 -2.2709 -0.1307
 6894TIP3   OH220645   0.047   6.556   0.844 -0.7242  0.2618  0.3670
 6894TIP3    H120646  -0.037   6.524   0.877  0.1955  0.1873  2.8186
 6894TIP3    H220647   0.111   6.490   0.872  0.1034 -0.1706 -2.2682
 6895TIP3   OH220648   1.557   5.240   5.507  0.2383 -0.0937 -0.3526
 6895TIP3    H120649   1.650   5.216   5.502  0.7948  1.2593  1.8879
 6895TIP3    H220650   1.516   5.166   5.551  0.4934 -0.1753 -0.2456
 6896TIP3   OH220651   5.227   5.393   1.785 -0.5252 -0.6645 -0.4907
 6896TIP3    H120652   5.297   5.456   1.766 -2.8218  1.5437 -2.2641
 6896TIP3    H220653   5.221   5.339   1.707 -0.7792 -0.8900 -0.3199
 6897TIP3   OH220654   4.612   4.258   0.076 -0.0065  0.3607  0.6489
 6897TIP3    H120655   4.596   4.276  -0.016 -1.3580  3.7302  1.3931
 6897TIP3    H220656   4.705   4.236   0.081  0.1776  0.5131 -1.4445
 6898TIP3   OH220657   0.916   3.103   4.285  0.0375 -0.4932 -0.1430
 6898TIP3    H120658   0.990   3.054   4.247  0.6467 -0.9425  1.5509
 6898TIP3    H220659   0.842   3.044   4.279  0.5577 -1.2984  1.0270
 6899TIP3   OH220660   4.112   3.717   5.069  0.3049  0.0041  0.4134
 6899TIP3    H120661   4.126   3.703   4.975 -0.9813 -1.2068  0.3627
 6899TIP3    H220662   4.021   3.744   5.075  1.1859  3.1458  1.0832
 6900TIP3   OH220663   6.920   1.995   4.811 -0.3347  0.2535  0.4156
 6900TIP3    H120664   6.845   2.035   4.855  0.5463  0.9134  1.3968
 6900TIP3    H220665   6.896   1.993   4.719 -1.2674  1.1115  0.6237
 6901TIP3   OH220666   6.169   3.055   4.514 -0.1016  0.3106 -0.2070
 6901TIP3    H120667   6.136   3.038   4.426  1.4827  0.5473 -0.8636
 6901TIP3    H220668   6.151   3.147   4.530  0.7002  0.5736 -0.7784
 6902TIP3   OH220669   6.162   0.965   2.084 -0.4304 -0.3067  0.2058
 6902TIP3    H120670   6.116   1.048   2.077  0.6394  0.2876 -0.0909
 6902TIP3    H220671   6.196   0.948   1.996  0.4100 -0.4217  0.5397
 6903TIP3   OH220672   2.489   4.787   4.007  0.0095 -0.3232 -0.5591
 6903TIP3    H120673   2.476   4.823   4.094 -0.7059 -0.6745 -0.5143
 6903TIP3    H220674   2.410   4.810   3.959  1.3271  1.8240 -1.8194
 6904TIP3   OH220675   2.017   4.592   2.199 -0.3338  0.3677  0.1443
 6904TIP3    H120676   2.034   4.643   2.119 -0.4107  1.6830  0.9353
 6904TIP3    H220677   1.921   4.584   2.202 -0.2699 -0.7580 -0.5302
 6905TIP3   OH220678   1.584   1.489   3.791 -0.4552 -0.3255 -0.4909
 6905TIP3    H120679   1.671   1.492   3.751  0.1709 -2.0865  0.6537
 6905TIP3    H220680   1.601   1.493   3.885 -1.7877  1.6776 -0.2644
 6906TIP3   OH220681   2.079   2.768   1.945 -0.0326  0.0574 -0.0200
 6906TIP3    H120682   2.098   2.856   1.977 -0.7620  0.0805  0.3563
 6906TIP3    H220683   2.137   2.711   1.996  0.4080  0.3124 -0.2337
 6907TIP3   OH220684   6.659   0.562   5.420  0.2127  0.5206  0.6324
 6907TIP3    H120685   6.598   0.509   5.368 -0.7177  1.8320  0.3386
 6907TIP3    H220686   6.699   0.500   5.481 -2.7600 -0.1301  2.0859
 6908TIP3   OH220687   3.690   2.824   4.766 -0.0580 -0.5251 -0.6448
 6908TIP3    H120688   3.704   2.916   4.788 -0.2485 -0.0006 -2.5256
 6908TIP3    H220689   3.671   2.781   4.850 -0.0544  1.1534  0.2487
 6909TIP3   OH220690   1.966   2.428   0.850  0.3393  0.0738  0.3279
 6909TIP3    H120691   1.932   2.516   0.833  0.0753  0.2238  1.5335
 6909TIP3    H220692   2.007   2.402   0.767 -2.7716 -0.1687 -1.2944
 6910TIP3   OH220693   5.665   3.147   1.232 -0.3454  0.6443 -0.2974
 6910TIP3    H120694   5.680   3.103   1.148  1.4248 -1.3558  0.9578
 6910TIP3    H220695   5.752   3.169   1.264 -0.7604 -0.6499  1.9928
 6911TIP3   OH220696   6.522   4.948   3.740 -0.4800 -0.0499 -0.6182
 6911TIP3    H120697   6.596   4.943   3.800 -0.1031 -0.8521 -1.1305
 6911TIP3    H220698   6.445   4.947   3.797 -0.1036  0.7429 -0.0819
 6912TIP3   OH220699   0.203   2.886   4.966 -0.2099  0.8069 -0.0324
 6912TIP3    H120700   0.232   2.825   5.034 -1.4705  1.0121  0.7187
 6912TIP3    H220701   0.268   2.956   4.968  0.1955  0.4289  0.4211
 6913TIP3   OH220702   6.063   3.343   1.696  0.5062 -0.1335 -0.6002
 6913TIP3    H120703   6.069   3.251   1.725  0.2118  0.5235  1.8297
 6913TIP3    H220704   6.053   3.338   1.601  0.2787 -2.6299 -0.5158
 6914TIP3   OH220705   5.521   4.754   1.448 -0.2535 -0.0741 -0.5790
 6914TIP3    H120706   5.548   4.726   1.535 -0.7556  2.6048  0.5470
 6914TIP3    H220707   5.453   4.692   1.422  0.0441 -1.0389  0.8306
 6915TIP3   OH220708   4.914   1.598   3.078  0.6846  0.2091 -0.9164
 6915TIP3    H120709   4.873   1.586   2.992  0.4563 -1.3246 -0.6102
 6915TIP3    H220710   5.000   1.634   3.059  0.7102 -0.2967 -1.8051
 6916TIP3   OH220711   0.692   1.618   3.092  0.1607  0.1174  0.5249
 6916TIP3    H120712   0.675   1.643   3.182  0.0087 -0.3428  0.6261
 6916TIP3    H220713   0.763   1.553   3.097 -0.7026 -0.8610  0.4287
 6917TIP3   OH220714   0.939   2.125   4.141 -0.3406 -0.2487 -0.0016
 6917TIP3    H120715   0.933   2.070   4.063 -0.7650 -2.2378  1.3616
 6917TIP3    H220716   0.863   2.100   4.193 -0.2405  1.2722  0.9212
 6918TIP3   OH220717   0.504   0.160   4.099 -0.7071  0.0471 -0.6646
 6918TIP3    H120718   0.426   0.184   4.150  0.1285 -2.2800  1.9808
 6918TIP3    H220719   0.469   0.116   4.022 -2.0229  0.2708 -0.2344
 6919TIP3   OH220720   4.085   3.794   5.377 -0.0999 -0.0503  0.0058
 6919TIP3    H120721   4.155   3.819   5.317  0.1738 -0.9470 -0.0678
 6919TIP3    H220722   4.117   3.817   5.464 -0.3156  0.8528 -0.1470
 6920TIP3   OH220723   6.386   0.014   5.340 -0.3359  0.9034  0.3719
 6920TIP3    H120724   6.440   0.081   5.298 -1.7292  0.8821 -1.6097
 6920TIP3    H220725   6.448  -0.054   5.364  0.6977  1.3948 -0.7513
 6921TIP3   OH220726   4.121   4.084   5.173 -0.5021 -0.0933 -0.0118
 6921TIP3    H120727   4.054   4.152   5.165 -1.4245 -1.1257 -1.5246
 6921TIP3    H220728   4.135   4.053   5.084  2.5666  0.5781  0.1120
 6922TIP3   OH220729   3.401   4.779   3.474  0.0703  0.4438 -0.1560
 6922TIP3    H120730   3.395   4.697   3.425  1.1542  1.4211 -2.0084
 6922TIP3    H220731   3.481   4.770   3.526 -1.1455 -0.6430  1.6767
 6923TIP3   OH220732   6.162   5.388   5.815 -0.5978  0.1940  0.0924
 6923TIP3    H120733   6.106   5.366   5.889 -0.1938  1.1400  0.7055
 6923TIP3    H220734   6.223   5.453   5.850 -0.0018  0.1997 -0.9143
 6924TIP3   OH220735   1.805   5.995   3.262 -0.1969 -0.1406  0.1569
 6924TIP3    H120736   1.829   6.023   3.174  0.1427  1.0377  0.6136
 6924TIP3    H220737   1.711   5.975   3.256  0.0407 -1.0655 -0.7043
 6925TIP3   OH220738   5.262   5.087   4.982  0.1280 -0.0452  0.2892
 6925TIP3    H120739   5.173   5.053   4.990 -0.1274  0.5499  0.1100
 6925TIP3    H220740   5.257   5.174   5.022  0.3913  0.3699 -0.5629
 6926TIP3   OH220741   0.290   5.826   5.008  0.4921  0.1628  0.4156
 6926TIP3    H120742   0.215   5.838   5.067  0.0095 -0.6227 -0.0208
 6926TIP3    H220743   0.297   5.731   4.997  0.4699  0.3008 -0.9220
 6927TIP3   OH220744   4.000   5.148   2.565  0.2388  0.3818 -0.5470
 6927TIP3    H120745   3.921   5.151   2.618 -0.2659  1.0121 -1.3037
 6927TIP3    H220746   4.017   5.055   2.552 -1.2727  0.2076 -1.6241
 6928TIP3   OH220747   2.347   1.329   1.786 -0.4174 -0.0743 -0.0630
 6928TIP3    H120748   2.421   1.342   1.726 -0.5595  1.2757  0.0201
 6928TIP3    H220749   2.270   1.353   1.735 -0.7030 -0.4851  0.1716
 6929TIP3   OH220750   4.711   5.001   3.485 -0.2268 -0.2103  0.0832
 6929TIP3    H120751   4.786   4.971   3.433  0.2349  0.3741  0.3990
 6929TIP3    H220752   4.649   5.036   3.421  2.1467  4.6430  0.0057
 6930TIP3   OH220753   6.908   0.771   4.667  0.3582  0.1306  0.0094
 6930TIP3    H120754   6.948   0.728   4.590  1.3111  0.2847  0.4031
 6930TIP3    H220755   6.980   0.821   4.706 -0.3787  0.8866  0.4161
 6931TIP3   OH220756   0.948   1.985   0.546  0.6906 -0.3208  0.1549
 6931TIP3    H120757   0.930   1.897   0.578  0.4342 -0.3112  0.0417
 6931TIP3    H220758   0.993   2.028   0.618  0.0960 -0.2895  0.5116
 6932TIP3   OH220759   1.714   0.665   3.663  0.0034  0.1886 -0.0259
 6932TIP3    H120760   1.620   0.679   3.649 -0.4153  1.8792  3.4707
 6932TIP3    H220761   1.756   0.741   3.623 -0.5460  1.4733  1.7166
 6933TIP3   OH220762   0.382   3.523   4.019  0.3153 -0.6878 -0.0270
 6933TIP3    H120763   0.478   3.527   4.018  0.2879  0.0689 -0.5905
 6933TIP3    H220764   0.354   3.614   4.023 -0.3631 -0.6252 -3.2377
 6934TIP3   OH220765   1.293   3.943   0.618  0.2499 -0.3301  0.3372
 6934TIP3    H120766   1.380   3.923   0.653  0.2182 -1.2078 -0.0510
 6934TIP3    H220767   1.294   3.906   0.529  0.7379  2.7638 -1.1072
 6935TIP3   OH220768   2.710   0.819   4.496  0.1124 -0.1293  0.1873
 6935TIP3    H120769   2.654   0.897   4.499  1.0556  0.5740  0.0420
 6935TIP3    H220770   2.715   0.799   4.402  0.6638  0.2331  0.1362
 6936TIP3   OH220771   0.794   5.879   2.420  0.1583 -0.0180  0.2054
 6936TIP3    H120772   0.808   5.957   2.473 -1.3926 -0.6074  1.5465
 6936TIP3    H220773   0.808   5.909   2.330 -2.9564  2.5473  0.3849
 6937TIP3   OH220774   2.977   4.813   2.585 -0.0182  0.2887 -0.1588
 6937TIP3    H120775   3.025   4.885   2.626 -2.2141  0.6714  1.9804
 6937TIP3    H220776   3.037   4.739   2.589  0.7068  0.9306  1.6981
 6938TIP3   OH220777   5.352   5.402   4.516 -0.4214  0.1430 -0.1550
 6938TIP3    H120778   5.393   5.315   4.523 -3.3033 -1.3429 -0.2217
 6938TIP3    H220779   5.405   5.448   4.451  2.4441 -0.7459  1.4061
 6939TIP3   OH220780   3.897   5.006   4.751  0.1979 -0.2136  0.3762
 6939TIP3    H120781   3.868   4.916   4.771  2.7040 -1.4026 -0.8619
 6939TIP3    H220782   3.931   5.038   4.835  0.3789 -0.8992  0.5779
 6940TIP3   OH220783   5.268   2.709   1.829  0.2095 -0.2201 -0.3205
 6940TIP3    H120784   5.346   2.733   1.777  0.1109 -0.8559 -0.7810
 6940TIP3    H220785   5.197   2.757   1.788  0.7935  3.0868  2.1515
 6941TIP3   OH220786   5.751   5.197   5.048 -0.0197  0.3001 -0.0588
 6941TIP3    H120787   5.675   5.202   5.107 -0.0277  2.2360 -0.1756
 6941TIP3    H220788   5.825   5.223   5.102  0.1049  1.2444 -0.6606
 6942TIP3   OH220789   3.408   5.673   1.977  0.2330 -0.3379 -0.1814
 6942TIP3    H120790   3.363   5.757   1.969  0.4535 -0.3302 -1.5281
 6942TIP3    H220791   3.353   5.611   1.929 -0.3147 -1.1407  1.4297
 6943TIP3   OH220792   6.642   5.293   5.408 -0.1726 -0.4304 -0.6267
 6943TIP3    H120793   6.591   5.265   5.484  0.9445  0.7723  0.6093
 6943TIP3    H220794   6.645   5.215   5.352 -0.9706 -1.3675  0.5696
 6944TIP3   OH220795   6.995   6.015   3.196 -0.0569  0.2931  0.4657
 6944TIP3    H120796   7.056   6.055   3.134 -0.0360  0.1764  0.4106
 6944TIP3    H220797   6.943   6.088   3.229 -1.8811  0.0903 -1.6862
 6945TIP3   OH220798   5.253   0.978   4.030  0.4617  0.0161  0.0875
 6945TIP3    H120799   5.176   1.010   3.985  0.2838  0.9879  1.0335
 6945TIP3    H220800   5.245   0.883   4.028 -0.4480  0.0992 -0.3517
 6946TIP3   OH220801   5.038   3.354   4.470  0.2891 -0.4177 -0.5265
 6946TIP3    H120802   5.089   3.359   4.550 -0.9115 -0.1056  0.2520
 6946TIP3    H220803   5.099   3.379   4.401  1.0483  0.4498  0.4249
 6947TIP3   OH220804   3.803   6.264   1.170  0.3539 -0.0015 -0.1276
 6947TIP3    H120805   3.775   6.176   1.194 -0.7773  0.2013 -0.6213
 6947TIP3    H220806   3.898   6.257   1.159  0.5575 -0.6997  1.7351
 6948TIP3   OH220807   2.839   2.155   2.240  0.0779  0.0930 -0.1182
 6948TIP3    H120808   2.780   2.081   2.224  1.8990 -1.3364 -0.7215
 6948TIP3    H220809   2.911   2.141   2.179  1.9592  0.6623  1.8359
 6949TIP3   OH220810   1.815   3.515   4.403  0.4544 -0.0871  0.0123
 6949TIP3    H120811   1.888   3.495   4.345  0.7935  1.3604 -0.0907
 6949TIP3    H220812   1.763   3.581   4.356 -1.0339 -1.2022  0.0047
 6950TIP3   OH220813   6.768   1.090   5.643  0.9071  0.2160 -0.1156
 6950TIP3    H120814   6.727   1.005   5.628  1.5261 -0.0180 -0.5423
 6950TIP3    H220815   6.722   1.150   5.583 -1.1355  0.7234  1.8287
 6951TIP3   OH220816   0.763   0.886   2.138  0.0163 -0.6895  0.7099
 6951TIP3    H120817   0.779   0.960   2.196  1.8171 -0.4942  0.0042
 6951TIP3    H220818   0.704   0.829   2.188  0.7884 -0.0917  2.3565
 6952TIP3   OH220819   5.048   4.649   1.256 -0.2803  0.0845 -0.1834
 6952TIP3    H120820   4.973   4.632   1.199  0.0937 -0.8344 -0.4083
 6952TIP3    H220821   5.113   4.690   1.198 -0.2154 -0.0821 -0.2287
 6953TIP3   OH220822   5.366   0.689   3.396  0.4657  0.0872  0.1354
 6953TIP3    H120823   5.314   0.738   3.459 -0.1136 -0.0852 -0.2027
 6953TIP3    H220824   5.435   0.750   3.368  0.6702  0.1882  0.8579
 6954TIP3   OH220825   4.338   6.672   0.998  0.1541  0.0552 -0.2830
 6954TIP3    H120826   4.273   6.630   1.055 -0.5347  1.1880 -0.1951
 6954TIP3    H220827   4.310   6.649   0.910 -0.6701  0.9394 -0.2631
 6955TIP3   OH220828   2.867   3.568   4.076  0.4048  0.2981  0.0045
 6955TIP3    H120829   2.889   3.538   4.164 -0.2437  1.3190  0.5359
 6955TIP3    H220830   2.944   3.616   4.046  0.1117  1.1716  0.6038
 6956TIP3   OH220831   2.511   1.921   1.965 -0.4401  0.1861  0.1732
 6956TIP3    H120832   2.594   1.939   2.008  0.7738 -1.6025 -1.2523
 6956TIP3    H220833   2.454   1.888   2.035  0.4529  0.2310  0.9364
 6957TIP3   OH220834   2.743   0.309   5.708 -0.4095  0.1651 -0.1132
 6957TIP3    H120835   2.678   0.348   5.767  0.7597 -0.4007  1.6122
 6957TIP3    H220836   2.824   0.354   5.728  0.1141 -0.3671 -0.9835
 6958TIP3   OH220837   4.973   0.904   4.164  0.3834 -0.7585 -0.4089
 6958TIP3    H120838   4.975   0.838   4.232  0.0813 -1.1738 -0.7989
 6958TIP3    H220839   4.978   0.854   4.082  0.2732 -0.2966 -0.7006
 6959TIP3   OH220840   2.077   6.612   2.373 -0.1192  0.2087  0.0035
 6959TIP3    H120841   2.157   6.586   2.329  0.6930  2.1227  0.2196
 6959TIP3    H220842   2.076   6.562   2.455  1.1848  0.5860  0.2650
 6960TIP3   OH220843   6.688   4.250   2.284  0.2767  0.0588  0.1964
 6960TIP3    H120844   6.641   4.267   2.202  1.3495  0.1727 -0.4174
 6960TIP3    H220845   6.775   4.221   2.255  0.5483 -0.2505  1.2992
 6961TIP3   OH220846   0.368   4.706   2.024  0.2214 -0.1252 -0.1763
 6961TIP3    H120847   0.345   4.784   2.075  0.7765 -0.2093  0.2002
 6961TIP3    H220848   0.403   4.742   1.942  0.0244  0.0126 -0.2041
 6962TIP3   OH220849   0.830   4.832   5.762 -0.8344 -0.0385 -0.2122
 6962TIP3    H120850   0.890   4.757   5.752  0.5173  1.0155 -0.4014
 6962TIP3    H220851   0.828   4.872   5.675 -1.1274  0.4427  0.0125
 6963TIP3   OH220852   1.017   4.992   0.129  0.1119  0.2487  0.0162
 6963TIP3    H120853   1.070   4.968   0.205 -0.4223 -0.3887  0.1948
 6963TIP3    H220854   1.081   5.018   0.063  0.5664  1.0551  0.7640
 6964TIP3   OH220855   1.569   4.708   2.376 -0.2914 -0.0914  0.0340
 6964TIP3    H120856   1.474   4.706   2.378 -0.3466  0.5797 -1.3534
 6964TIP3    H220857   1.594   4.642   2.311  0.2457 -0.7134  0.8295
 6965TIP3   OH220858   2.908   4.263   2.150 -0.1162  0.0152  0.6847
 6965TIP3    H120859   2.928   4.196   2.215 -0.0306  0.1709  0.8202
 6965TIP3    H220860   2.945   4.344   2.186  0.0667  0.0726  0.3696
 6966TIP3   OH220861   5.225   5.545   0.750 -0.4333  0.2450 -0.0509
 6966TIP3    H120862   5.144   5.594   0.761 -0.5562  0.0307  0.0001
 6966TIP3    H220863   5.197   5.460   0.716 -0.3333 -0.2807  1.1544
 6967TIP3   OH220864   4.750   4.522   3.253  0.3360 -0.5502  0.0359
 6967TIP3    H120865   4.808   4.575   3.198  1.5497  0.1438  1.9084
 6967TIP3    H220866   4.665   4.567   3.247  1.1382  1.1616  0.9226
 6968TIP3   OH220867   4.468   3.528   5.336  0.3334  0.3660  0.0640
 6968TIP3    H120868   4.493   3.621   5.341 -0.9102  0.7482 -0.4150
 6968TIP3    H220869   4.415   3.522   5.257  1.3579 -1.0110 -0.5380
 6969TIP3   OH220870   3.102   1.674   0.546  0.4554  0.2531 -0.4213
 6969TIP3    H120871   3.182   1.620   0.544  0.7056  0.6137 -2.2003
 6969TIP3    H220872   3.035   1.618   0.506  0.1288  0.4011 -0.0796
 6970TIP3   OH220873   3.486   6.259   5.669  0.3744 -0.4510  0.4140
 6970TIP3    H120874   3.577   6.238   5.688  0.4807  0.3665  0.8663
 6970TIP3    H220875   3.477   6.244   5.575  1.7531  2.0345 -0.2260
 6971TIP3   OH220876   0.511   0.173   5.081 -0.2984 -0.0106 -0.0548
 6971TIP3    H120877   0.595   0.136   5.055 -0.9836 -1.9279  0.2903
 6971TIP3    H220878   0.454   0.160   5.005 -0.8835 -0.8080  0.5075
 6972TIP3   OH220879   6.528   0.496   2.778 -0.1422 -0.2212 -0.0471
 6972TIP3    H120880   6.444   0.464   2.812  0.1187 -1.1874 -0.2624
 6972TIP3    H220881   6.581   0.416   2.768  1.0108  0.4405  0.6376
 6973TIP3   OH220882   3.175   3.042   1.430 -0.0272  0.4843  0.3789
 6973TIP3    H120883   3.242   2.974   1.416  0.7981  1.2946  0.3283
 6973TIP3    H220884   3.219   3.124   1.408 -0.7715  1.1281  1.2263
 6974TIP3   OH220885   1.040   2.474   2.757 -0.4141 -1.0156 -0.1535
 6974TIP3    H120886   1.029   2.471   2.662 -0.5881  1.5678 -0.2858
 6974TIP3    H220887   0.954   2.503   2.789 -0.2579 -1.5564  0.7802
 6975TIP3   OH220888   5.222   1.418   2.721 -0.4067  0.3990 -0.4354
 6975TIP3    H120889   5.271   1.492   2.758 -0.2428 -0.9215  2.2804
 6975TIP3    H220890   5.288   1.349   2.710 -1.1201 -0.4557  0.4593
 6976TIP3   OH220891   0.640   4.825   0.917 -0.1079  0.1285  0.2437
 6976TIP3    H120892   0.589   4.897   0.881  0.8631  0.8375  0.2484
 6976TIP3    H220893   0.576   4.756   0.934 -0.8409  0.4224 -1.1766
 6977TIP3   OH220894   6.357   5.240   3.239 -0.2663  0.6738  0.0628
 6977TIP3    H120895   6.377   5.180   3.167  0.9930  0.3794  0.6269
 6977TIP3    H220896   6.263   5.232   3.251 -0.1575 -1.0828  0.0100
 6978TIP3   OH220897   4.974   2.682   0.834  0.4661 -0.1868 -0.4853
 6978TIP3    H120898   5.000   2.715   0.920  3.8905 -1.2620 -0.9426
 6978TIP3    H220899   4.932   2.598   0.851  2.0111 -0.8560  0.1413
 6979TIP3   OH220900   5.656   5.361   1.654  0.1724 -0.1460  0.7414
 6979TIP3    H120901   5.692   5.411   1.582  0.0622 -2.8065 -1.3109
 6979TIP3    H220902   5.730   5.311   1.689  0.1984  0.9904  2.4781
 6980TIP3   OH220903   0.193   2.093   3.033  0.0337  0.7447 -0.5489
 6980TIP3    H120904   0.166   2.180   3.002  0.1063  0.3568 -1.7561
 6980TIP3    H220905   0.285   2.087   3.008 -0.1021  0.1350 -0.9221
 6981TIP3   OH220906   0.388   0.907   2.150 -0.5041  0.1208  0.4331
 6981TIP3    H120907   0.441   0.837   2.113 -1.0181  0.5593 -1.2274
 6981TIP3    H220908   0.420   0.917   2.240  1.4804 -0.3513 -0.1741
 6982TIP3   OH220909   4.533   5.492   0.168  0.1716  0.1548 -0.0560
 6982TIP3    H120910   4.471   5.498   0.095  1.4371 -0.0134 -1.1803
 6982TIP3    H220911   4.578   5.409   0.155  1.2909  0.7022  0.1994
 6983TIP3   OH220912   4.989   1.600   1.462  0.0014 -0.3123 -0.3369
 6983TIP3    H120913   5.011   1.693   1.472 -1.6052  0.2214 -1.3932
 6983TIP3    H220914   4.962   1.573   1.549 -1.3349  0.7511 -0.3818
 6984TIP3   OH220915   0.695   2.335   0.451 -0.6413  0.9693 -0.1659
 6984TIP3    H120916   0.700   2.319   0.357 -1.3924 -0.8673  0.0775
 6984TIP3    H220917   0.786   2.335   0.480 -0.4874 -0.6695 -0.5744
 6985TIP3   OH220918   0.096   0.382   3.022  0.1908  0.7058  0.5998
 6985TIP3    H120919   0.055   0.379   3.109 -0.2193 -0.6037  0.3966
 6985TIP3    H220920   0.108   0.290   2.999 -2.1011  0.9023 -1.8231
 6986TIP3   OH220921   0.938   3.311   4.461 -0.1481  0.1115  0.2308
 6986TIP3    H120922   0.908   3.288   4.549 -0.0382  0.6593  0.4154
 6986TIP3    H220923   0.942   3.227   4.414 -0.2810 -0.1738  0.7225
 6987TIP3   OH220924   4.265   4.076   0.412 -0.7932 -0.0577  0.3213
 6987TIP3    H120925   4.322   4.091   0.487 -0.9041 -1.6859  0.7753
 6987TIP3    H220926   4.306   4.126   0.341  0.9305 -0.7627  0.7598
 6988TIP3   OH220927   2.155   6.400   0.962 -0.3739  0.1814 -0.2878
 6988TIP3    H120928   2.099   6.473   0.934 -0.2373  0.4470  0.1198
 6988TIP3    H220929   2.166   6.413   1.056 -0.0633 -0.1702 -0.2732
 6989TIP3   OH220930   1.632   1.207   1.095  0.0948 -0.6677  0.2780
 6989TIP3    H120931   1.619   1.271   1.165  0.8709  0.6255 -0.7116
 6989TIP3    H220932   1.665   1.129   1.140  1.6072  0.4843  1.2570
 6990TIP3   OH220933   0.208   3.444   3.180  0.5772  1.0665 -0.3288
 6990TIP3    H120934   0.158   3.497   3.117  1.2638  1.4820 -0.5344
 6990TIP3    H220935   0.142   3.407   3.238 -0.1009  0.4941 -1.4310
 6991TIP3   OH220936   1.912   3.467   2.581  0.1282 -0.7800 -0.5116
 6991TIP3    H120937   1.986   3.524   2.561 -0.6431  0.4373 -0.0415
 6991TIP3    H220938   1.900   3.478   2.676 -1.0971 -0.3717 -0.7002
 6992TIP3   OH220939   5.840   5.971   3.274 -0.3970 -0.4433 -0.4269
 6992TIP3    H120940   5.891   6.044   3.237  2.1519 -0.5373  2.5396
 6992TIP3    H220941   5.877   5.893   3.233 -0.1649 -0.3440 -0.4051
 6993TIP3   OH220942   6.580   0.875   4.447 -0.2377 -0.0193  0.4209
 6993TIP3    H120943   6.522   0.940   4.486 -1.1711 -0.1091 -0.7662
 6993TIP3    H220944   6.591   0.904   4.356 -0.6853 -1.5202 -0.1390
 6994TIP3   OH220945   4.158   0.835   0.078 -0.5507  0.3606 -0.4505
 6994TIP3    H120946   4.122   0.815  -0.009 -1.4185  0.9165 -0.2243
 6994TIP3    H220947   4.231   0.894   0.061  0.5964 -1.1372 -0.9493
 6995TIP3   OH220948   1.050   5.315   0.070 -0.5583  0.0234  0.4442
 6995TIP3    H120949   0.982   5.254   0.042 -0.1982 -0.3610  0.4092
 6995TIP3    H220950   1.131   5.264   0.068 -0.3563  0.3094  1.0745
 6996TIP3   OH220951   0.182   6.409   5.786 -0.1416  0.2614  0.3517
 6996TIP3    H120952   0.234   6.329   5.781 -0.2114  0.0522  2.4579
 6996TIP3    H220953   0.247   6.479   5.789 -0.0560  0.2040 -0.0646
 6997TIP3   OH220954   6.203   3.428   1.959  0.6106 -0.3628  0.2250
 6997TIP3    H120955   6.263   3.479   1.904  0.1716  0.1540  0.2248
 6997TIP3    H220956   6.157   3.371   1.897 -0.1456  0.4760 -0.0047
 6998TIP3   OH220957   1.127   0.586   4.906 -0.1416 -0.1558 -0.0705
 6998TIP3    H120958   1.152   0.494   4.908  1.0700  0.1551 -0.2526
 6998TIP3    H220959   1.210   0.633   4.895 -0.7577  0.9479 -0.0939
 6999TIP3   OH220960   6.421   3.721   0.066  0.2917 -0.2331  0.0348
 6999TIP3    H120961   6.357   3.752   0.129  1.2262 -0.2698  1.0282
 6999TIP3    H220962   6.505   3.726   0.111  0.8154 -1.6516 -0.6847
 7000TIP3   OH220963   4.894   0.351   1.709 -0.0828  0.2594  0.2114
 7000TIP3    H120964   4.871   0.395   1.791 -1.5889 -1.8953  1.0250
 7000TIP3    H220965   4.842   0.396   1.643 -0.9055  0.3171  0.8792
 7001TIP3   OH220966   5.818   2.744   0.948 -0.1590  0.2414  0.6171
 7001TIP3    H120967   5.881   2.717   1.015  1.4730  3.8449  0.7801
 7001TIP3    H220968   5.864   2.731   0.865 -0.3425  0.1343  0.5323
 7002TIP3   OH220969   3.012   6.800   4.641  0.1477  0.0017  0.1326
 7002TIP3    H120970   3.057   6.867   4.691  0.5278 -0.3264  0.2358
 7002TIP3    H220971   3.052   6.718   4.669 -1.2432 -0.4034  1.0305
 7003TIP3   OH220972   5.514   4.832   0.150 -0.4656  0.2190  0.1726
 7003TIP3    H120973   5.527   4.796   0.062 -1.2559 -0.7893  0.4428
 7003TIP3    H220974   5.547   4.921   0.144  0.6470 -0.2270 -0.8062
 7004TIP3   OH220975   0.842   0.721   1.696  0.3215  0.1455  0.0978
 7004TIP3    H120976   0.852   0.794   1.757  1.2061 -0.2035  0.3977
 7004TIP3    H220977   0.909   0.736   1.629  0.9771 -0.7197  0.5287
 7005TIP3   OH220978   4.710   2.338   2.179  0.2406 -0.4511  0.0532
 7005TIP3    H120979   4.702   2.245   2.156 -2.0368 -0.6479  1.2619
 7005TIP3    H220980   4.667   2.344   2.265 -0.1131  1.7972 -0.2251
 7006TIP3   OH220981   5.884   4.954   2.686 -0.3450 -0.2098  0.5907
 7006TIP3    H120982   5.844   5.017   2.627 -0.2609 -0.9003 -0.2272
 7006TIP3    H220983   5.889   4.873   2.635  1.3632 -0.3561  0.9123
 7007TIP3   OH220984   4.211   2.774   4.591  0.1288 -0.3697 -0.5728
 7007TIP3    H120985   4.132   2.774   4.538 -1.0753 -2.9531  1.0317
 7007TIP3    H220986   4.249   2.687   4.579  0.3984 -0.6685  1.8820
 7008TIP3   OH220987   5.512   6.010   2.197 -0.5184  0.2507  0.2508
 7008TIP3    H120988   5.604   6.034   2.204 -0.5153 -0.1446  1.9897
 7008TIP3    H220989   5.465   6.085   2.234 -0.7078 -0.6503  1.9680
 7009TIP3   OH220990   3.042   6.523  -0.014 -0.0020 -0.0426 -0.3900
 7009TIP3    H120991   3.004   6.575   0.056  0.6278 -0.4796  0.2893
 7009TIP3    H220992   3.131   6.503   0.016 -0.0428 -1.0498 -0.8782
 7010TIP3   OH220993   4.466   4.761   5.084 -0.0385  0.1903 -0.2143
 7010TIP3    H120994   4.475   4.761   4.989  1.5131 -0.1212 -0.0990
 7010TIP3    H220995   4.497   4.674   5.111 -0.9264  0.0923  0.5492
 7011TIP3   OH220996   2.981   6.354   3.762  0.0360 -0.0036  0.1162
 7011TIP3    H120997   2.925   6.420   3.723 -1.2708 -1.5726 -0.7995
 7011TIP3    H220998   2.920   6.291   3.802  1.0084 -2.2485 -1.6886
 7012TIP3   OH220999   3.749   5.578   2.478 -0.3106  0.2448  0.3932
 7012TIP3    H121000   3.836   5.617   2.487  0.2549 -0.6038 -0.9967
 7012TIP3    H221001   3.694   5.649   2.446  0.3138  0.3384 -0.4937
 7013TIP3   OH221002   1.404   4.727   1.795 -0.3202 -0.0591  0.3877
 7013TIP3    H121003   1.480   4.685   1.754  0.1103 -1.0975  2.1587
 7013TIP3    H221004   1.338   4.729   1.725  1.0587  0.1863 -0.9678
 7014TIP3   OH221005   6.224   4.331   3.625 -0.4902  0.1394  0.0871
 7014TIP3    H121006   6.167   4.369   3.693 -0.1120 -0.8203  0.9625
 7014TIP3    H221007   6.307   4.315   3.670  0.1903  0.6922 -0.9545
 7015TIP3   OH221008   2.350   2.644   5.546 -0.0266 -0.0599 -0.2463
 7015TIP3    H121009   2.364   2.572   5.607 -0.2385  0.3806  0.3309
 7015TIP3    H221010   2.267   2.683   5.574  0.1670  0.5051 -0.4546
 7016TIP3   OH221011   1.246   0.485   4.631 -0.2767  0.0605 -0.3520
 7016TIP3    H121012   1.218   0.455   4.718  1.8560  0.9911  0.7406
 7016TIP3    H221013   1.330   0.528   4.647  0.4493 -0.2269 -2.9805
 7017TIP3   OH221014   6.460   0.357   1.897 -0.6049  0.1352 -0.1026
 7017TIP3    H121015   6.368   0.339   1.877 -0.5778 -0.3622  0.2048
 7017TIP3    H221016   6.473   0.449   1.871 -0.9345 -0.0733 -1.0359
 7018TIP3   OH221017   0.556   6.320   0.948  0.1482  0.2493 -0.0705
 7018TIP3    H121018   0.513   6.280   1.024  0.3482  0.4250  0.1374
 7018TIP3    H221019   0.503   6.292   0.874  0.3229 -0.4476  0.0640
 7019TIP3   OH221020   3.642   6.755   5.480  0.1158 -0.1068 -0.4193
 7019TIP3    H121021   3.592   6.834   5.458  1.4480  0.8608 -0.1488
 7019TIP3    H221022   3.666   6.767   5.572  0.1944 -0.9159 -0.3315
 7020TIP3   OH221023   6.279   4.896   2.446 -0.2346 -0.1454 -0.2771
 7020TIP3    H121024   6.311   4.806   2.447 -0.7609 -0.3400 -0.7567
 7020TIP3    H221025   6.343   4.943   2.391 -1.3661 -0.7798 -2.2503
 7021TIP3   OH221026   4.303   2.110   4.943  0.0393 -0.7706 -0.5679
 7021TIP3    H121027   4.371   2.177   4.951 -1.5421  0.7922  0.6804
 7021TIP3    H221028   4.346   2.028   4.968  1.4046  0.1988  0.3568
 7022TIP3   OH221029   3.490   0.924   5.472  0.2933 -0.4715  0.2526
 7022TIP3    H121030   3.498   0.912   5.377  1.4960 -1.1838  0.4236
 7022TIP3    H221031   3.475   0.836   5.506 -0.2111 -0.2070  0.7230
 7023TIP3   OH221032   6.086   1.413   1.353  0.8989 -0.2112 -0.2912
 7023TIP3    H121033   6.051   1.364   1.428  1.4633 -1.3118 -0.7242
 7023TIP3    H221034   6.089   1.504   1.383  0.5829 -0.5490  0.8229
 7024TIP3   OH221035   0.364   5.488   3.919  0.2300  0.1492 -0.2321
 7024TIP3    H121036   0.412   5.499   4.001 -1.2854  1.1694  0.5469
 7024TIP3    H221037   0.308   5.564   3.913 -0.9073 -0.7353 -1.3996
 7025TIP3   OH221038   1.612   2.184   0.945 -0.1672  0.5585  0.1225
 7025TIP3    H121039   1.696   2.206   0.986  0.2020 -1.3526  0.5217
 7025TIP3    H221040   1.607   2.241   0.869  1.5474  0.6910  0.0621
 7026TIP3   OH221041   4.685   2.596   2.034  0.1670 -1.0676  0.4265
 7026TIP3    H121042   4.676   2.504   2.057  0.4775 -0.8511  1.4826
 7026TIP3    H221043   4.779   2.609   2.022  0.3298 -0.4891  2.1406
 7027TIP3   OH221044   0.135   0.810   4.749 -0.7129 -0.3911 -0.2533
 7027TIP3    H121045   0.161   0.773   4.833 -1.3974  0.8956  0.5719
 7027TIP3    H221046   0.039   0.816   4.754 -0.8501 -1.1669 -1.5173
 7028TIP3   OH221047   0.728   4.081   0.198  0.0454 -0.1425 -0.8334
 7028TIP3    H121048   0.675   4.005   0.223 -0.7754 -0.0072 -2.0570
 7028TIP3    H221049   0.706   4.147   0.264  1.4325 -1.1963  0.7711
 7029TIP3   OH221050   3.686   1.518   3.939  0.2545  0.0998  0.0028
 7029TIP3    H121051   3.696   1.527   4.033 -0.5317  1.9349 -0.0530
 7029TIP3    H221052   3.615   1.455   3.927 -0.2960  0.5991  0.6468
 7030TIP3   OH221053   2.422   1.340   3.259  0.4705 -0.7264  0.2758
 7030TIP3    H121054   2.448   1.253   3.230  0.6279 -0.1555 -1.4305
 7030TIP3    H221055   2.367   1.325   3.336  3.3196 -2.1392  2.2096
 7031TIP3   OH221056   1.209   0.879   4.474 -0.2524 -0.0829  0.2894
 7031TIP3    H121057   1.245   0.943   4.413 -1.8412  0.1544 -0.4643
 7031TIP3    H221058   1.126   0.919   4.503 -0.3961 -1.0070  1.2037
 7032TIP3   OH221059   4.465   0.830   1.033  0.2559  0.1818  0.0591
 7032TIP3    H121060   4.543   0.885   1.024  0.5353  0.2741  2.3661
 7032TIP3    H221061   4.403   0.866   0.970  1.0690  2.0044  0.2367
 7033TIP3   OH221062   0.224   1.398   2.960 -0.0713 -0.2675 -0.0995
 7033TIP3    H121063   0.246   1.310   2.928 -1.5396 -0.5460 -0.4187
 7033TIP3    H221064   0.214   1.387   3.055  0.1848 -0.3492 -0.0817
 7034TIP3   OH221065   1.880   1.963   4.015 -0.3813  0.1006 -0.1511
 7034TIP3    H121066   1.822   1.888   4.005  0.7843 -0.9141  0.4226
 7034TIP3    H221067   1.863   1.995   4.104 -1.7091  1.2927 -0.7788
 7035TIP3   OH221068   6.024   1.022   4.248  0.1182 -0.0003 -0.1950
 7035TIP3    H121069   5.997   0.949   4.192 -1.1737  0.3719 -0.0932
 7035TIP3    H221070   6.042   0.981   4.333  0.8178 -0.3830 -0.5164
 7036TIP3   OH221071   7.107   0.855   2.850  0.3836 -0.8347  0.1457
 7036TIP3    H121072   7.098   0.815   2.764 -1.4613  0.5009 -0.3517
 7036TIP3    H221073   7.173   0.802   2.895  1.7632 -1.2568 -2.2381
 7037TIP3   OH221074   3.984   0.579   5.016  0.3832 -0.0364 -0.1724
 7037TIP3    H121075   4.004   0.594   4.924 -0.2125  0.6519 -0.1962
 7037TIP3    H221076   3.897   0.616   5.028  0.7296  0.4790  0.8227
 7038TIP3   OH221077   5.576   0.099   5.495 -0.0277  0.2323  0.1604
 7038TIP3    H121078   5.660   0.138   5.519 -0.3220  0.1591  1.4034
 7038TIP3    H221079   5.574   0.015   5.542 -0.6284  0.0562 -0.1696
 7039TIP3   OH221080   6.431   1.545   5.794  0.1834  0.2443 -0.6617
 7039TIP3    H121081   6.337   1.532   5.778 -0.1525  1.5887  0.0269
 7039TIP3    H221082   6.434   1.608   5.867  1.6149 -1.4512  0.8585
 7040TIP3   OH221083   6.152   2.475   2.794  0.0430  0.3279 -0.0103
 7040TIP3    H121084   6.246   2.455   2.796 -0.0747 -0.2343  0.2374
 7040TIP3    H221085   6.112   2.394   2.761 -0.3200  0.7006 -0.4929
 7041TIP3   OH221086   4.486   6.064   4.960  0.1960 -0.3456  0.4921
 7041TIP3    H121087   4.551   6.118   5.003  0.7687  0.9814 -1.8797
 7041TIP3    H221088   4.402   6.106   4.980  0.5741  1.0605 -0.7508
 7042TIP3   OH221089   0.220   6.151   4.404 -0.1570  0.6554 -0.3411
 7042TIP3    H121090   0.249   6.107   4.324 -0.1037 -0.0375  0.0498
 7042TIP3    H221091   0.126   6.166   4.390 -0.0629  0.9123 -0.7022
 7043TIP3   OH221092   0.898   6.689   0.357 -0.3210 -0.0520 -0.0825
 7043TIP3    H121093   0.984   6.657   0.383  0.1216  1.9019  1.0730
 7043TIP3    H221094   0.876   6.639   0.278  2.8573  0.9000 -1.7277
 7044TIP3   OH221095   1.491   6.211   5.613 -0.2641 -0.9386  0.1377
 7044TIP3    H121096   1.568   6.157   5.593  1.1385  1.7116 -2.3934
 7044TIP3    H221097   1.419   6.168   5.568  0.5462 -1.3528 -0.7938
 7045TIP3   OH221098   2.040   2.018   3.341 -0.5887  0.1587 -0.2850
 7045TIP3    H121099   1.955   2.021   3.384 -0.2299 -1.0673  0.5632
 7045TIP3    H221100   2.022   1.981   3.254 -0.8517 -0.6382  0.1023
 7046TIP3   OH221101   4.995   2.359   2.183  0.3989 -0.3458 -0.0433
 7046TIP3    H121102   5.009   2.453   2.172  0.4009 -0.2761  0.5347
 7046TIP3    H221103   4.903   2.345   2.161  0.2810 -0.1359  0.3067
 7047TIP3   OH221104   5.452   6.343   4.360  0.2726 -0.3770 -0.0372
 7047TIP3    H121105   5.523   6.308   4.305 -1.7895 -2.7557 -1.4475
 7047TIP3    H221106   5.486   6.338   4.449  2.3465 -0.1299 -0.7590
 7048TIP3   OH221107   3.255   3.877   3.850  0.0010  0.5114 -0.1236
 7048TIP3    H121108   3.282   3.903   3.939 -0.6998 -0.0994  0.2778
 7048TIP3    H221109   3.242   3.960   3.804 -2.2781  0.9327  1.1574
 7049TIP3   OH221110   2.972   5.645   5.642 -0.5620 -0.5143  0.3985
 7049TIP3    H121111   2.954   5.713   5.706  2.4412  1.1051 -0.2587
 7049TIP3    H221112   2.936   5.678   5.560 -2.4586 -1.5786  0.7367
 7050TIP3   OH221113   3.220   0.012   3.429  0.2335  0.3127  0.3651
 7050TIP3    H121114   3.127   0.031   3.418  0.5272  2.3666  1.1045
 7050TIP3    H221115   3.230  -0.005   3.523  0.8405  1.6468  0.5579
 7051TIP3   OH221116   5.781   0.281   0.368  0.0072 -0.4354  0.1745
 7051TIP3    H121117   5.841   0.338   0.320 -0.6390 -1.4358 -1.9734
 7051TIP3    H221118   5.737   0.339   0.431  0.5254  1.0925 -0.8120
 7052TIP3   OH221119   1.637   1.340   4.943 -0.1949  0.0813 -0.0606
 7052TIP3    H121120   1.714   1.291   4.973  0.1681  0.0317 -1.0542
 7052TIP3    H221121   1.564   1.304   4.994  0.5084  0.4923  1.2824
 7053TIP3   OH221122   0.067   4.494   2.883 -0.1791 -0.1893  0.2264
 7053TIP3    H121123   0.126   4.518   2.812 -0.5514  1.6011  0.4522
 7053TIP3    H221124  -0.021   4.504   2.846 -0.3562 -0.6360  0.5250
 7054TIP3   OH221125   1.027   1.726   3.313 -0.1037 -0.1767  0.4067
 7054TIP3    H121126   0.964   1.662   3.346  0.9561 -1.0553  0.8013
 7054TIP3    H221127   1.038   1.788   3.385 -1.1998  0.5172 -0.0083
 7055TIP3   OH221128   4.664   0.871   1.814  0.2755  0.0896  0.2485
 7055TIP3    H121129   4.607   0.945   1.794  1.3727  0.9487  0.1825
 7055TIP3    H221130   4.612   0.815   1.872 -1.6402 -0.6057 -1.9852
 7056TIP3   OH221131   6.714   3.887   3.193  0.2743  0.1254 -0.0658
 7056TIP3    H121132   6.763   3.938   3.128  0.9098 -0.3978 -0.0124
 7056TIP3    H221133   6.774   3.817   3.218 -0.1414  0.0424  0.7393
 7057TIP3   OH221134   0.168   3.889   4.772 -0.3822  0.1842 -0.0631
 7057TIP3    H121135   0.252   3.910   4.812 -0.2175  1.4746 -1.0035
 7057TIP3    H221136   0.110   3.872   4.845  0.4161  0.4205  0.6461
 7058TIP3   OH221137   4.795   3.994   2.968  0.0670 -0.2486  0.2840
 7058TIP3    H121138   4.799   4.072   2.914 -3.3541 -2.4107 -3.6127
 7058TIP3    H221139   4.848   3.929   2.921 -1.1215 -1.5728  0.6829
 7059TIP3   OH221140   4.184   1.646   5.175  1.0310 -0.0635  0.2488
 7059TIP3    H121141   4.262   1.593   5.157  0.7362 -0.4832  0.1952
 7059TIP3    H221142   4.111   1.585   5.167  0.5711  0.6243 -1.0452
 7060TIP3   OH221143   3.314   5.911   5.563 -0.0619 -0.1501  0.2211
 7060TIP3    H121144   3.410   5.912   5.566  0.0360  2.2685 -0.9935
 7060TIP3    H221145   3.287   5.923   5.654  0.7321 -1.4572  0.6615
 7061TIP3   OH221146   3.464   6.301   0.159  0.3238  0.1024 -0.0631
 7061TIP3    H121147   3.429   6.221   0.120  1.3249 -0.4152  0.0579
 7061TIP3    H221148   3.405   6.370   0.130  0.5293 -0.4032 -1.7480
 7062TIP3   OH221149   4.492   4.922   4.208  0.1562  0.1721 -0.2523
 7062TIP3    H121150   4.568   4.955   4.161 -0.9374  0.2172 -2.1095
 7062TIP3    H221151   4.454   5.000   4.250  0.4357  0.3598 -0.3475
 7063TIP3   OH221152   1.894   4.535   4.009 -0.3063  0.2277 -0.7569
 7063TIP3    H121153   1.893   4.439   4.015  0.9349  0.2511  0.2875
 7063TIP3    H221154   1.857   4.565   4.092  0.1371  0.6392 -0.7010
 7064TIP3   OH221155   4.867   0.108   5.126  0.2623 -0.0791  0.0896
 7064TIP3    H121156   4.961   0.095   5.126  0.1515 -1.7215  2.7783
 7064TIP3    H221157   4.830   0.020   5.128 -1.4939  0.4343 -2.7511
 7065TIP3   OH221158   0.641   5.122   2.692  0.5178  0.0793  0.2268
 7065TIP3    H121159   0.642   5.217   2.680  2.7613  0.1423  0.5558
 7065TIP3    H221160   0.549   5.098   2.684  0.0287  2.1243 -1.0443
 7066TIP3   OH221161   6.501   5.009   2.283 -0.0884 -0.0808  0.5401
 7066TIP3    H121162   6.469   4.993   2.194  2.1827  1.0652 -0.5905
 7066TIP3    H221163   6.597   5.000   2.275  0.1290 -0.7960  3.0870
 7067TIP3   OH221164   6.037   1.600   4.264  0.0136 -0.2660  0.0370
 7067TIP3    H121165   6.024   1.505   4.263  1.2887 -0.5325  2.3293
 7067TIP3    H221166   5.952   1.636   4.293  0.0069 -0.8405  0.7465
 7068TIP3   OH221167   1.954   5.620   3.285  0.6884 -0.4987  0.4401
 7068TIP3    H121168   1.875   5.568   3.301  0.2253  0.4271  1.2574
 7068TIP3    H221169   2.021   5.579   3.341  0.1367  0.2051  1.6484
 7069TIP3   OH221170   4.174   5.449   1.379  0.2679 -0.2383  0.4273
 7069TIP3    H121171   4.254   5.412   1.341  1.0558  2.2254 -0.5543
 7069TIP3    H221172   4.203   5.529   1.423 -1.5131  0.1708  0.9485
 7070TIP3   OH221173   6.887   6.070   2.481 -0.6057  0.2079  0.1753
 7070TIP3    H121174   6.910   6.042   2.392 -0.4192 -0.3010  0.3767
 7070TIP3    H221175   6.792   6.065   2.483 -0.5685 -0.6209  0.2625
 7071TIP3   OH221176   6.361   5.985   3.331 -0.4322 -0.0011 -0.3253
 7071TIP3    H121177   6.367   5.948   3.418 -2.1807 -0.4857 -0.3700
 7071TIP3    H221178   6.285   6.044   3.335 -1.1618 -0.7818 -1.7422
 7072TIP3   OH221179   0.475   5.002   0.352  0.0150 -0.0445  0.0119
 7072TIP3    H121180   0.448   5.023   0.262  0.0234 -0.7297 -0.1618
 7072TIP3    H221181   0.396   4.964   0.392  0.0379  0.1761  0.2677
 7073TIP3   OH221182   5.444   0.462   5.226  0.1618 -0.3622  0.0974
 7073TIP3    H121183   5.417   0.541   5.273 -0.1988 -1.1282  1.1995
 7073TIP3    H221184   5.406   0.390   5.276  2.0147 -1.3480  0.1627
 7074TIP3   OH221185   4.185   0.309   2.370 -0.9429 -0.3334  0.0769
 7074TIP3    H121186   4.149   0.314   2.282  1.1531 -1.5678 -0.9345
 7074TIP3    H221187   4.275   0.341   2.361 -0.8035 -0.1138  1.8534
 7075TIP3   OH221188   0.033   1.410   1.084  0.7037 -0.0232  0.8200
 7075TIP3    H121189  -0.027   1.335   1.080 -2.3720  2.2730 -0.4458
 7075TIP3    H221190   0.090   1.399   1.009 -0.9273 -0.2670 -0.4539
 7076TIP3   OH221191   3.796   5.047   0.706  0.0934  0.2922 -0.4133
 7076TIP3    H121192   3.745   5.056   0.786 -0.3293  0.3570 -0.6908
 7076TIP3    H221193   3.789   5.132   0.663 -0.0903  0.1004 -0.7646
 7077TIP3   OH221194   3.657   1.343   0.775 -0.2301 -0.2894 -0.9766
 7077TIP3    H121195   3.642   1.249   0.763 -0.8206  0.0409 -3.2584
 7077TIP3    H221196   3.721   1.348   0.846 -0.1291 -2.4019 -0.8432
 7078TIP3   OH221197   2.931   2.685   1.694 -0.3748  0.0950  0.6687
 7078TIP3    H121198   2.864   2.750   1.716 -1.1029  0.3570 -1.9207
 7078TIP3    H221199   2.882   2.604   1.680 -0.1117  0.1346 -0.6248
 7079TIP3   OH221200   6.495   6.475   5.393  0.0756  0.2642 -0.1451
 7079TIP3    H121201   6.540   6.472   5.308 -0.4208  1.2486 -0.4509
 7079TIP3    H221202   6.554   6.428   5.452  0.3760 -0.5522 -1.0516
 7080TIP3   OH221203   6.561   2.737   3.691 -0.0055 -0.2923  0.0210
 7080TIP3    H121204   6.507   2.777   3.623  0.8116  0.9155  0.0445
 7080TIP3    H221205   6.651   2.759   3.666  0.4044 -1.2019  0.6445
 7081TIP3   OH221206   5.578   2.727   0.321 -0.4170 -0.1478  0.2547
 7081TIP3    H121207   5.605   2.635   0.326 -0.5870 -0.2375 -0.4286
 7081TIP3    H221208   5.661   2.775   0.311 -0.2079 -0.0997  1.9484
 7082TIP3   OH221209   1.539   0.901   2.524  0.0306 -0.0608 -0.0276
 7082TIP3    H121210   1.533   0.989   2.562  3.6943  1.0771 -1.6366
 7082TIP3    H221211   1.507   0.843   2.593 -2.5773  2.4298  1.0880
 7083TIP3   OH221212   5.202   1.165   5.743  0.3724 -0.2555 -0.2365
 7083TIP3    H121213   5.297   1.181   5.739  0.3661 -0.2894 -0.5064
 7083TIP3    H221214   5.170   1.233   5.802  0.6706 -0.7222  0.4782
 7084TIP3   OH221215   2.213   6.163   2.848 -0.7309  0.3286  0.1206
 7084TIP3    H121216   2.226   6.128   2.936 -0.6013  1.6442  0.6559
 7084TIP3    H221217   2.142   6.112   2.811  0.5830 -1.6567  0.1757
 7085TIP3   OH221218   1.076   1.343   2.865 -0.0314  0.2695 -0.1780
 7085TIP3    H121219   1.070   1.287   2.943  0.5829 -0.8352 -0.9030
 7085TIP3    H221220   0.991   1.334   2.822  0.4228 -0.9557 -0.8452
 7086TIP3   OH221221   4.341   5.202   3.711  0.0038  0.5705  0.1483
 7086TIP3    H121222   4.251   5.177   3.730  0.6426 -2.1045  0.0198
 7086TIP3    H221223   4.342   5.220   3.617 -0.2993  0.0584  0.0450
 7087TIP3   OH221224   5.573   0.481   0.496 -0.2753  0.1704  0.3477
 7087TIP3    H121225   5.588   0.568   0.458 -2.8096 -0.1536 -1.6966
 7087TIP3    H221226   5.486   0.487   0.536 -0.0493 -1.1442  1.0968
 7088TIP3   OH221227   2.707   0.944   5.806 -0.1858  0.4981  0.1760
 7088TIP3    H121228   2.727   0.987   5.889 -0.0861  0.3568  0.2254
 7088TIP3    H221229   2.619   0.975   5.784  0.7536  2.4964 -0.9314
 7089TIP3   OH221230   5.892   4.325   2.628  0.5143  0.0190 -0.0293
 7089TIP3    H121231   5.814   4.379   2.619 -0.6352 -1.5847  0.0902
 7089TIP3    H221232   5.918   4.337   2.720  0.8409  1.0855 -0.2424
 7090TIP3   OH221233   6.804   1.141   3.631  0.0838 -0.0933 -0.2751
 7090TIP3    H121234   6.815   1.086   3.709 -1.7128 -0.7280 -0.4158
 7090TIP3    H221235   6.848   1.092   3.561 -1.3751 -1.3513 -0.3708
 7091TIP3   OH221236  -0.004   2.635   5.611  0.2712  0.2015 -0.0216
 7091TIP3    H121237   0.066   2.628   5.547  0.1735  0.2652 -0.1355
 7091TIP3    H221238  -0.039   2.546   5.618 -1.9609  0.7539 -2.5821
 7092TIP3   OH221239   0.827   5.143   1.946  0.0904 -0.4737  0.1337
 7092TIP3    H121240   0.783   5.059   1.932  0.3418 -0.3286 -1.9101
 7092TIP3    H221241   0.757   5.206   1.958 -0.1058 -0.9164  1.4558
 7093TIP3   OH221242   3.795   1.000   1.717 -0.6876 -0.6999 -0.6288
 7093TIP3    H121243   3.790   0.936   1.645  1.0832  0.0994 -1.5476
 7093TIP3    H221244   3.818   1.082   1.673 -1.3463  0.2106  0.6976
 7094TIP3   OH221245   4.176   5.424   5.209 -0.3180  0.3158 -0.2702
 7094TIP3    H121246   4.269   5.443   5.210 -0.3239  0.9041 -2.7443
 7094TIP3    H221247   4.134   5.505   5.237 -0.0951  0.5275 -0.5390
 7095TIP3   OH221248   4.763   6.460   2.414  0.1888 -0.1147 -0.1094
 7095TIP3    H121249   4.701   6.445   2.485  0.5667 -0.9820  0.0564
 7095TIP3    H221250   4.849   6.460   2.457  0.3167  1.0535 -0.3369
 7096TIP3   OH221251   0.291   1.707   5.747 -0.2023  0.2757 -0.4233
 7096TIP3    H121252   0.252   1.622   5.724  1.3066 -1.0974  1.6770
 7096TIP3    H221253   0.218   1.759   5.779 -0.9616 -0.7293 -0.4530
 7097TIP3   OH221254   6.118   1.979   1.506 -0.2070 -0.2121  0.1836
 7097TIP3    H121255   6.200   1.941   1.537 -0.2242 -1.0442 -0.7602
 7097TIP3    H221256   6.113   1.954   1.414 -1.9975 -1.0345  0.4638
 7098TIP3   OH221257   1.373   5.051   3.913 -0.4944 -0.0693  0.2914
 7098TIP3    H121258   1.349   5.140   3.938 -0.2822 -0.1034  0.6276
 7098TIP3    H221259   1.313   5.029   3.842 -0.1270  0.5829 -0.2373
 7099TIP3   OH221260   0.167   6.696   4.629  0.8171 -0.5053 -0.6400
 7099TIP3    H121261   0.105   6.746   4.577  1.1613  0.5352 -0.0747
 7099TIP3    H221262   0.253   6.731   4.604  0.9147  1.4921  2.0360
 7100TIP3   OH221263   7.136   5.314   2.693 -0.2910  0.1223  0.4512
 7100TIP3    H121264   7.220   5.269   2.706 -0.5081 -1.2492 -2.1938
 7100TIP3    H221265   7.159   5.391   2.640 -0.6097  0.1322  0.3277
 7101TIP3   OH221266   5.530   4.952   3.875  0.1728  0.5084 -0.5501
 7101TIP3    H121267   5.561   4.862   3.892  0.0831  0.5807  0.0115
 7101TIP3    H221268   5.436   4.947   3.889  0.0533  0.5054 -1.3358
 7102TIP3   OH221269   5.302   0.171   4.909 -0.2422 -0.3992 -0.2156
 7102TIP3    H121270   5.253   0.134   4.835  0.5433 -2.1746  0.0994
 7102TIP3    H221271   5.382   0.207   4.869 -0.6600  0.3172 -0.4304
 7103TIP3   OH221272   4.050   6.306   4.979  0.1111  0.4465  0.3387
 7103TIP3    H121273   4.107   6.347   5.044  1.4325 -2.2658  1.0613
 7103TIP3    H221274   3.972   6.280   5.027  0.6384 -0.6119  0.6703
 7104TIP3   OH221275   1.276   1.160   5.730 -0.2866  0.1482  0.0944
 7104TIP3    H121276   1.319   1.102   5.668 -1.1653  0.1731 -0.5631
 7104TIP3    H221277   1.249   1.236   5.678 -0.1441  0.6381  0.7138
 7105TIP3   OH221278   7.165   3.646   0.405  0.3457  0.1965 -0.4822
 7105TIP3    H121279   7.076   3.681   0.396  0.3842 -0.2358 -3.1686
 7105TIP3    H221280   7.182   3.601   0.323  2.0798 -2.1193  1.0182
 7106TIP3   OH221281   1.440   4.504   5.317 -0.3960 -0.1102  0.7043
 7106TIP3    H121282   1.461   4.464   5.401  2.8297 -1.0129 -0.3756
 7106TIP3    H221283   1.416   4.430   5.261  0.9158  0.0162 -0.0503
 7107TIP3   OH221284   5.566   2.649   0.035  0.7217 -0.3402 -0.5138
 7107TIP3    H121285   5.503   2.706  -0.008  0.6146  0.4771  0.6777
 7107TIP3    H221286   5.514   2.600   0.100  1.3312  0.5458  0.6709
 7108TIP3   OH221287   0.333   4.897   4.465 -0.0048  0.0834  0.1921
 7108TIP3    H121288   0.343   4.806   4.438 -0.6525 -0.1413  0.7106
 7108TIP3    H221289   0.421   4.934   4.455  0.9739 -1.3217  2.7142
 7109TIP3   OH221290   4.429   6.328   2.386  0.5272  0.1612  0.4763
 7109TIP3    H121291   4.385   6.301   2.466  1.6346 -1.3874  0.6056
 7109TIP3    H221292   4.377   6.288   2.316  1.0947 -0.7518  0.5711
 7110TIP3   OH221293   1.917   3.218   3.361 -0.4196  0.0786 -0.4043
 7110TIP3    H121294   1.833   3.213   3.407 -1.2182 -0.7008 -1.8513
 7110TIP3    H221295   1.938   3.126   3.341  0.9670  0.2372  0.2502
 7111TIP3   OH221296   0.566   1.847   0.980 -0.2160 -0.2497  0.4804
 7111TIP3    H121297   0.541   1.935   0.953 -0.3912  0.1504  1.8869
 7111TIP3    H221298   0.483   1.798   0.982 -0.0563 -0.6368 -0.8348
 7112TIP3   OH221299   1.860   4.305   0.463 -0.6537  0.6244  0.2143
 7112TIP3    H121300   1.802   4.357   0.518  0.1401  1.0899  0.6455
 7112TIP3    H221301   1.865   4.220   0.507 -0.8328  0.6624  0.3073
 7113TIP3   OH221302   6.110   6.564   1.358  0.1112  0.4418  0.0160
 7113TIP3    H121303   6.143   6.475   1.344 -1.4845  0.0917 -2.1734
 7113TIP3    H221304   6.061   6.559   1.440 -1.5377 -1.2829 -0.9749
 7114TIP3   OH221305   2.810   3.342   4.272 -0.2482  0.1551 -0.3636
 7114TIP3    H121306   2.897   3.302   4.274 -1.3185 -2.3660 -0.4625
 7114TIP3    H221307   2.789   3.357   4.364 -1.1338 -2.8061  0.0308
 7115TIP3   OH221308   2.116   1.176   3.009 -0.1416 -0.7888 -0.7411
 7115TIP3    H121309   2.062   1.255   3.004 -2.2118 -2.0364  0.4115
 7115TIP3    H221310   2.179   1.185   2.937 -1.1016  1.3110 -1.3979
 7116TIP3   OH221311   2.214   2.456   2.293  0.1893  0.1334 -0.0604
 7116TIP3    H121312   2.205   2.547   2.320  0.1527 -0.4029  1.9025
 7116TIP3    H221313   2.168   2.450   2.209 -1.1952  1.5530  0.5713
 7117TIP3   OH221314   2.993   6.807   0.532 -0.1840  0.1569 -0.6306
 7117TIP3    H121315   3.087   6.798   0.518  0.5186  0.7418  2.7864
 7117TIP3    H221316   2.960   6.717   0.535  1.1592 -0.3605  2.4397
 7118TIP3   OH221317   3.496   6.123   5.393  0.0602 -0.2194  0.2784
 7118TIP3    H121318   3.511   6.115   5.299 -0.5665  0.4248  0.1175
 7118TIP3    H221319   3.572   6.079   5.433  0.1118 -0.8793 -0.5181
 7119TIP3   OH221320   5.896   6.477   2.315  0.1430 -0.0739  0.5700
 7119TIP3    H121321   5.861   6.539   2.379 -1.2657 -0.5619  0.3306
 7119TIP3    H221322   5.883   6.520   2.230 -1.3130 -0.8397  0.3588
 7120TIP3   OH221323   3.729   2.276   0.177 -0.3599 -0.1649  0.4360
 7120TIP3    H121324   3.795   2.324   0.226 -0.9295  0.8976  0.1931
 7120TIP3    H221325   3.774   2.243   0.100 -0.0852  0.4785  0.3152
 7121TIP3   OH221326   6.487   1.818   2.575  0.1698 -0.5171 -0.1550
 7121TIP3    H121327   6.514   1.880   2.507 -2.9315  0.5710 -0.5772
 7121TIP3    H221328   6.550   1.831   2.645  0.8167  1.6941 -1.0317
 7122TIP3   OH221329   3.233   1.075   3.407 -0.1251 -0.1954 -0.7063
 7122TIP3    H121330   3.201   0.985   3.398  0.9515 -0.7649  0.7050
 7122TIP3    H221331   3.273   1.077   3.494  0.3763  1.5014 -0.9467
 7123TIP3   OH221332   4.937   6.551   0.435 -0.3626  0.1303 -0.0432
 7123TIP3    H121333   4.881   6.485   0.394  0.7891 -0.4931 -0.6549
 7123TIP3    H221334   5.026   6.523   0.416  0.1941  2.5120 -1.3819
 7124TIP3   OH221335   4.779   6.141   5.040 -0.1495  0.6192 -0.0297
 7124TIP3    H121336   4.804   6.069   4.982 -0.2074 -0.1895  0.9036
 7124TIP3    H221337   4.859   6.192   5.050  0.1628  0.1204  0.0632
 7125TIP3   OH221338   4.057   1.430   5.135 -0.2665  0.1329 -0.1013
 7125TIP3    H121339   4.085   1.345   5.100 -0.9937  1.2625 -3.8974
 7125TIP3    H221340   3.961   1.430   5.125 -0.4355  0.9273  1.1979
 7126TIP3   OH221341   4.593   4.336   1.914  0.0903 -0.2067  0.5668
 7126TIP3    H121342   4.686   4.336   1.937 -0.0678 -1.5610  1.3331
 7126TIP3    H221343   4.559   4.418   1.948  0.4697 -0.8817  2.7316
 7127TIP3   OH221344   6.173   5.745   3.645  0.7347  0.2314 -0.4548
 7127TIP3    H121345   6.082   5.717   3.630  1.1802 -1.6970  0.2036
 7127TIP3    H221346   6.176   5.767   3.738  1.2500 -1.0356 -0.1573
 7128TIP3   OH221347   6.313   2.857   2.139 -0.2035 -0.2791 -0.3089
 7128TIP3    H121348   6.224   2.826   2.155 -0.1890 -0.9193 -1.3921
 7128TIP3    H221349   6.319   2.866   2.044 -0.0831  2.7155 -0.1202
 7129TIP3   OH221350   0.239   5.085   4.948  0.4170  0.7098 -0.3199
 7129TIP3    H121351   0.283   5.167   4.968 -0.9540  1.3536  0.1645
 7129TIP3    H221352   0.240   5.037   5.031 -0.2005  0.9226 -0.1901
 7130TIP3   OH221353   6.814   1.872   5.878  0.3217 -0.0114  0.2555
 7130TIP3    H121354   6.732   1.921   5.880  0.7905  1.1135 -2.6783
 7130TIP3    H221355   6.871   1.922   5.819  1.8186 -2.6292 -0.7186
 7131TIP3   OH221356   5.444   4.965   1.216  0.6666  0.6853 -0.2936
 7131TIP3    H121357   5.472   4.892   1.272  1.0182  0.4505 -0.7686
 7131TIP3    H221358   5.375   5.008   1.266  0.3077 -0.0988 -0.0882
 7132TIP3   OH221359   0.473   6.520   4.562  0.1118 -0.2082  0.0842
 7132TIP3    H121360   0.469   6.615   4.562 -1.7216 -0.2542  0.6826
 7132TIP3    H221361   0.518   6.498   4.644  1.4830  0.1296 -0.5459
 7133TIP3   OH221362   1.387   0.978   3.940 -0.3940 -0.0238 -0.3349
 7133TIP3    H121363   1.473   0.980   3.898 -0.3497 -0.9231 -0.2909
 7133TIP3    H221364   1.333   1.036   3.886  0.2003  0.4564 -0.4287
 7134TIP3   OH221365   1.743   2.504   1.576 -0.3695  0.5629  0.3459
 7134TIP3    H121366   1.783   2.566   1.514 -0.2051  1.3454  1.2114
 7134TIP3    H221367   1.811   2.490   1.643 -0.5143 -0.3332  0.3198
 7135TIP3   OH221368   0.780   3.157   0.796 -0.6432 -0.1768 -0.4020
 7135TIP3    H121369   0.745   3.083   0.846  0.1185 -0.9794 -1.0317
 7135TIP3    H221370   0.770   3.232   0.855  2.0942 -1.4121  1.8715
 7136TIP3   OH221371   3.827   4.264   4.118  0.0372 -0.0997 -0.5408
 7136TIP3    H121372   3.800   4.309   4.037 -0.4654 -0.6142 -0.6743
 7136TIP3    H221373   3.760   4.288   4.182 -0.0328 -0.3613 -0.5139
 7137TIP3   OH221374   2.743   5.224   4.352 -0.7423  0.4333  0.1360
 7137TIP3    H121375   2.740   5.239   4.257 -0.9353  0.7262  0.1883
 7137TIP3    H221376   2.746   5.312   4.390 -0.3559  0.3136  0.3916
 7138TIP3   OH221377   3.911   5.018   1.703  0.0300 -0.2640 -0.0362
 7138TIP3    H121378   4.001   5.033   1.673  0.2830 -1.2705  0.1845
 7138TIP3    H221379   3.890   5.095   1.755  1.2900 -0.6362  1.0888
 7139TIP3   OH221380   2.945   4.050   5.010 -0.2646 -0.0377 -0.0543
 7139TIP3    H121381   2.992   3.969   4.987 -0.2347  0.4264 -1.7092
 7139TIP3    H221382   2.988   4.080   5.091  1.0591 -0.6110 -0.5214
 7140TIP3   OH221383   1.759   1.233   3.615  0.3286  0.0517 -0.1642
 7140TIP3    H121384   1.695   1.221   3.544 -3.2421 -2.1021  3.0061
 7140TIP3    H221385   1.808   1.151   3.617  2.4905  1.2162 -1.7826
 7141TIP3   OH221386   5.979   3.640   2.617 -0.4009 -0.2894  0.1933
 7141TIP3    H121387   6.011   3.653   2.528 -1.3469  1.8391  0.1038
 7141TIP3    H221388   6.056   3.608   2.665 -0.0846 -2.2956 -1.5060
 7142TIP3   OH221389   3.814   5.315   2.298  0.3314 -0.0857  0.6310
 7142TIP3    H121390   3.814   5.389   2.358  3.3429  0.2189  0.4001
 7142TIP3    H221391   3.792   5.240   2.354  0.8262  0.4936  1.6458
 7143TIP3   OH221392   1.998   6.472   5.153  0.2302  0.1988 -0.0508
 7143TIP3    H121393   2.078   6.439   5.194  0.0792  0.3594  0.3701
 7143TIP3    H221394   1.991   6.562   5.184 -1.7772 -0.7051  2.4239
 7144TIP3   OH221395   6.246   5.442   4.661 -0.4910  0.1371 -0.1436
 7144TIP3    H121396   6.240   5.351   4.690 -0.3769  0.3320  0.5013
 7144TIP3    H221397   6.208   5.442   4.573  0.7135 -0.7783 -0.6771
 7145TIP3   OH221398   4.066   0.545   4.703  0.3620  0.2016 -0.0540
 7145TIP3    H121399   3.998   0.537   4.635  0.7654  0.3842 -0.4832
 7145TIP3    H221400   4.059   0.464   4.753 -1.6518  1.1083  1.3068
 7146TIP3   OH221401   6.212   2.169   5.045 -0.1774  0.2291  0.5335
 7146TIP3    H121402   6.306   2.189   5.044 -0.0738 -0.0163  2.0143
 7146TIP3    H221403   6.172   2.237   4.992  0.9227 -0.2038 -0.9153
 7147TIP3   OH221404   0.831   2.211   1.221  0.1101  0.1923  0.2968
 7147TIP3    H121405   0.770   2.139   1.234 -0.2122  0.5774  0.9766
 7147TIP3    H221406   0.886   2.183   1.148  0.3562 -0.9883  0.9029
 7148TIP3   OH221407   1.080   2.239   5.407  0.3584 -0.0655 -0.1453
 7148TIP3    H121408   1.158   2.268   5.360  1.3305  0.5614  1.7213
 7148TIP3    H221409   1.007   2.285   5.366  1.3442  1.6178 -0.1011
 7149TIP3   OH221410   3.450   0.788   3.666  0.0596 -0.1928  0.2013
 7149TIP3    H121411   3.530   0.832   3.694 -0.8460  1.5830  0.1778
 7149TIP3    H221412   3.468   0.760   3.576  0.8063 -0.1860  0.3489
 7150TIP3   OH221413   7.170   4.420   0.668 -0.3642  0.2706 -0.8496
 7150TIP3    H121414   7.227   4.350   0.635 -1.9126 -0.2834 -2.5064
 7150TIP3    H221415   7.082   4.383   0.665 -1.0828  1.8595 -0.5230
 7151TIP3   OH221416   0.856   4.887   3.090 -0.0870  0.1799 -0.5900
 7151TIP3    H121417   0.762   4.896   3.106  0.1246  2.1289 -0.1901
 7151TIP3    H221418   0.873   4.947   3.017  0.6083 -1.3468 -1.7246
 7152TIP3   OH221419   2.550   5.126   1.317  0.1671 -0.1807  0.2743
 7152TIP3    H121420   2.480   5.152   1.257 -0.4021  0.5871  1.2279
 7152TIP3    H221421   2.631   5.150   1.271 -0.1652 -1.3178 -0.9523
 7153TIP3   OH221422   5.819   3.435   4.087 -0.5544  0.4132 -0.4319
 7153TIP3    H121423   5.797   3.441   3.994 -0.2010  2.2136 -0.4301
 7153TIP3    H221424   5.778   3.512   4.127 -3.3592 -1.8560  1.5193
 7154TIP3   OH221425   1.881   4.904   2.866 -0.2250  0.6405 -0.1498
 7154TIP3    H121426   1.972   4.927   2.885 -0.8489  1.0657  2.7263
 7154TIP3    H221427   1.873   4.812   2.891 -0.4506  0.4131 -1.0213
 7155TIP3   OH221428   0.385   1.450   1.215 -0.1061  0.0208 -0.0138
 7155TIP3    H121429   0.386   1.357   1.241  0.9466  0.1921  0.6079
 7155TIP3    H221430   0.311   1.487   1.262 -1.7895 -0.8881 -1.7795
 7156TIP3   OH221431   0.561   3.083   0.581  0.0539  0.2026  0.0165
 7156TIP3    H121432   0.492   3.141   0.549 -0.0575  0.4617  0.7148
 7156TIP3    H221433   0.597   3.128   0.658  0.6875 -0.1478 -0.0673
 7157TIP3   OH221434   1.715   3.050   3.217  0.1015 -0.0890  0.2027
 7157TIP3    H121435   1.756   3.137   3.222  1.3272 -0.6520  0.4382
 7157TIP3    H221436   1.630   3.061   3.259  0.6561  0.7709  1.1559
 7158TIP3   OH221437   4.757   6.103   3.414  0.3224  0.0941 -0.4742
 7158TIP3    H121438   4.780   6.020   3.373 -0.7556  0.1874 -1.3236
 7158TIP3    H221439   4.827   6.163   3.388  1.4508 -0.6776  0.6768
 7159TIP3   OH221440   5.753   4.210   4.840  0.0974 -0.3737  0.0615
 7159TIP3    H121441   5.665   4.216   4.801  0.1670 -1.2419 -0.2600
 7159TIP3    H221442   5.780   4.120   4.822  2.0257  0.5117 -1.9204
 7160TIP3   OH221443   3.944   2.217   0.364  0.0477 -0.2138  0.0900
 7160TIP3    H121444   3.912   2.307   0.351 -0.5372 -0.4799 -0.3439
 7160TIP3    H221445   3.988   2.220   0.449  0.4619  0.6007 -0.1394
 7161TIP3   OH221446   5.614   6.188   2.620  0.7982  0.3348  0.3542
 7161TIP3    H121447   5.670   6.112   2.632 -0.6013 -0.5557  1.6402
 7161TIP3    H221448   5.630   6.216   2.530  0.6457 -2.0776 -0.4823
 7162TIP3   OH221449   1.346   3.139   4.387 -0.0414 -0.6465  0.1486
 7162TIP3    H121450   1.391   3.083   4.324  0.7849  0.7762 -0.5510
 7162TIP3    H221451   1.374   3.106   4.472  1.6077 -0.3965 -0.2600
 7163TIP3   OH221452   5.866   3.850   3.102 -0.2212 -0.7107 -0.3079
 7163TIP3    H121453   5.941   3.794   3.082 -0.4547 -0.3560 -2.3039
 7163TIP3    H221454   5.813   3.850   3.023 -2.2054 -0.6825  0.9344
 7164TIP3   OH221455   1.368   4.336   3.030 -0.1130  0.1601 -0.2928
 7164TIP3    H121456   1.403   4.259   3.074 -1.6558 -0.3385  0.0951
 7164TIP3    H221457   1.418   4.341   2.948  0.8923 -0.4832  0.2603
 7165TIP3   OH221458   2.014   2.445   2.070 -0.0863  0.4549 -0.4865
 7165TIP3    H121459   2.072   2.385   2.023  1.3153 -0.2378  1.9355
 7165TIP3    H221460   1.958   2.389   2.123 -0.2052  1.2269  0.2264
 7166TIP3   OH221461   0.454   2.072   1.605  0.5863 -0.1219 -0.0887
 7166TIP3    H121462   0.386   2.137   1.623 -0.0491 -1.0716  1.0776
 7166TIP3    H221463   0.478   2.038   1.691  0.8385 -1.4932 -0.6722
 7167TIP3   OH221464   6.943   1.024   2.335 -0.7276 -0.4762 -0.2095
 7167TIP3    H121465   6.927   1.075   2.255  0.5500  0.4470  0.0919
 7167TIP3    H221466   6.907   0.938   2.316 -2.0372  0.2416 -1.1192
 7168TIP3   OH221467   5.435   5.354   1.313  0.2065 -0.3126 -0.1517
 7168TIP3    H121468   5.413   5.440   1.277 -0.7483 -0.3530  0.2946
 7168TIP3    H221469   5.530   5.355   1.321  0.1944  0.7937  0.0470
 7169TIP3   OH221470   0.271   5.923   2.254  0.4145 -0.0092  0.4144
 7169TIP3    H121471   0.237   5.883   2.175  0.9231  1.3451 -0.5265
 7169TIP3    H221472   0.304   5.850   2.306  1.5444 -0.7963 -1.3442
 7170TIP3   OH221473   6.770   5.552   4.320  0.1922  0.9406 -0.0129
 7170TIP3    H121474   6.734   5.479   4.270 -0.3642  1.3704 -0.2578
 7170TIP3    H221475   6.861   5.559   4.292  0.8472 -0.8714  1.4253
 7171TIP3   OH221476   2.223   6.683   5.771  0.0076  0.7270 -0.3053
 7171TIP3    H121477   2.174   6.748   5.821 -0.6646  1.3874 -1.7669
 7171TIP3    H221478   2.220   6.604   5.825 -2.5843  0.7678 -0.2831
 7172TIP3   OH221479   4.734   6.263   2.864  0.5504  0.6654  0.1372
 7172TIP3    H121480   4.823   6.284   2.892  0.1902 -0.5142  2.3570
 7172TIP3    H221481   4.680   6.280   2.940 -0.9677  0.2058 -0.8017
 7173TIP3   OH221482   0.254   2.097   0.489 -1.1127 -0.2283 -0.0927
 7173TIP3    H121483   0.292   2.142   0.413 -0.5776  0.4163  0.5475
 7173TIP3    H221484   0.172   2.060   0.456 -0.8577 -0.0054 -1.0015
 7174TIP3   OH221485   3.999   5.157   4.952 -0.1983  0.0599  0.0091
 7174TIP3    H121486   4.025   5.238   4.908 -1.7939  1.3817  1.3658
 7174TIP3    H221487   4.020   5.171   5.044 -0.4599 -1.0878  0.2620
 7175TIP3   OH221488   1.702   3.192   4.367  0.5440  0.2783  0.4046
 7175TIP3    H121489   1.649   3.271   4.364  0.4089  0.1774  0.0046
 7175TIP3    H221490   1.673   3.141   4.291  0.5459 -0.2102  0.7296
 7176TIP3   OH221491   7.088   3.244   4.992  0.1190 -0.3791 -0.6037
 7176TIP3    H121492   7.150   3.297   4.942  0.4534  0.1028  0.2905
 7176TIP3    H221493   7.005   3.255   4.946  0.3978  0.1219 -1.0049
 7177TIP3   OH221494   5.253   2.580   4.352 -0.1138 -0.4957 -0.4323
 7177TIP3    H121495   5.216   2.591   4.439  0.1611  0.3079 -0.4171
 7177TIP3    H221496   5.300   2.661   4.334  0.8131 -1.1086 -0.8637
 7178TIP3   OH221497   2.679   2.008   0.901 -0.1523  0.0462 -0.0259
 7178TIP3    H121498   2.627   2.024   0.980 -1.6539  1.3133 -1.1931
 7178TIP3    H221499   2.770   2.015   0.931 -0.5906 -1.5683  1.9548
 7179TIP3   OH221500   3.786   3.021   0.920 -0.1200 -0.1842 -0.3942
 7179TIP3    H121501   3.697   3.049   0.941 -0.6075 -1.9165  0.0046
 7179TIP3    H221502   3.833   3.026   1.003 -0.4478 -1.3313 -0.1227
 7180TIP3   OH221503   5.956   2.074   4.552  0.0484 -0.0172  0.3572
 7180TIP3    H121504   5.999   2.158   4.538 -1.3289  0.7118  0.3281
 7180TIP3    H221505   6.018   2.010   4.518  0.4290  1.1099 -1.2006
 7181TIP3   OH221506   4.963   0.253   0.562 -0.0790 -0.3624 -0.2904
 7181TIP3    H121507   5.042   0.201   0.579 -0.0370 -0.2976 -0.2851
 7181TIP3    H221508   4.916   0.254   0.645 -1.2309 -2.3154 -0.8770
 7182TIP3   OH221509   3.725   6.516   2.300 -0.9750  0.2299 -0.0682
 7182TIP3    H121510   3.729   6.446   2.236  0.7550  0.5490 -0.3628
 7182TIP3    H221511   3.739   6.473   2.384 -1.7961 -0.0031 -0.0454
 7183TIP3   OH221512   6.462   2.348   0.171  0.2508  0.1751 -0.1486
 7183TIP3    H121513   6.386   2.292   0.182  1.0258 -1.1760 -1.4390
 7183TIP3    H221514   6.429   2.425   0.125 -0.6969  0.5517  1.1000
 7184TIP3   OH221515   6.740   1.069   3.188 -0.0739  0.6635  0.2567
 7184TIP3    H121516   6.747   1.084   3.282 -0.3678 -0.7479  0.5260
 7184TIP3    H221517   6.821   1.024   3.164 -1.0531 -1.2798  0.3580
 7185TIP3   OH221518   4.894   5.035   3.284  0.4661  0.7390 -0.9899
 7185TIP3    H121519   4.898   5.129   3.297 -1.1829  0.8544 -1.0741
 7185TIP3    H221520   4.832   5.023   3.213 -0.1920 -0.4431 -0.2619
 7186TIP3   OH221521   5.692   1.811   3.238  0.0011  0.5537  0.5613
 7186TIP3    H121522   5.646   1.799   3.321 -0.2727 -0.2600  0.3049
 7186TIP3    H221523   5.700   1.906   3.228 -1.3204  0.7084  0.7772
 7187TIP3   OH221524   1.181   1.360   5.570  0.4696  0.2372 -0.1594
 7187TIP3    H121525   1.090   1.332   5.557  0.2846  0.3113  0.8759
 7187TIP3    H221526   1.186   1.444   5.524 -0.0487  0.3342 -0.0483
 7188TIP3   OH221527   5.571   4.966   0.740 -0.7259 -0.0232 -0.2476
 7188TIP3    H121528   5.549   4.873   0.737 -1.4918  0.1585 -0.5823
 7188TIP3    H221529   5.580   4.986   0.834  0.1676 -0.5909 -0.2106
 7189TIP3   OH221530   3.259   3.704   2.659 -0.1365  0.5929 -0.1794
 7189TIP3    H121531   3.182   3.653   2.684  0.2096 -0.0479 -0.3983
 7189TIP3    H221532   3.249   3.787   2.705 -1.1842  0.6902 -0.5524
 7190TIP3   OH221533   4.368   1.881   1.282 -0.1995  0.7761 -0.0169
 7190TIP3    H121534   4.273   1.877   1.280 -0.1773  0.5898 -1.0151
 7190TIP3    H221535   4.389   1.905   1.373 -1.0355 -2.5743  1.1925
 7191TIP3   OH221536   0.898   0.959   1.129 -0.5436 -0.6643 -0.2157
 7191TIP3    H121537   0.987   0.930   1.108  0.0321  1.2634 -0.5954
 7191TIP3    H221538   0.870   0.899   1.199  2.1023  0.3466  1.9128
 7192TIP3   OH221539   3.563   4.178   5.765  0.1528 -0.0995 -0.0963
 7192TIP3    H121540   3.539   4.251   5.708 -0.3614 -2.7269 -3.5752
 7192TIP3    H221541   3.655   4.194   5.787  0.2874  1.2212 -1.4445
 7193TIP3   OH221542   0.108   2.923   1.559 -0.4295  0.0319  0.0738
 7193TIP3    H121543   0.134   3.007   1.522 -0.0139  0.7234  1.8454
 7193TIP3    H221544   0.113   2.862   1.485 -0.3568  1.4663 -1.1545
 7194TIP3   OH221545   5.017   2.292   3.908 -0.0738 -0.1624 -0.0084
 7194TIP3    H121546   5.067   2.218   3.943  0.3045 -0.6741 -1.5493
 7194TIP3    H221547   5.065   2.369   3.938  1.2354 -0.6318 -0.8191
 7195TIP3   OH221548   5.733   4.385   0.530  0.1192  0.3614  0.8357
 7195TIP3    H121549   5.662   4.329   0.562  1.6580 -1.3595  1.4217
 7195TIP3    H221550   5.812   4.347   0.568  1.4468  1.7690 -0.3894
 7196TIP3   OH221551   0.208   1.069   1.599  0.2546 -0.1320 -0.2219
 7196TIP3    H121552   0.123   1.042   1.563  0.6171 -1.2194 -0.2990
 7196TIP3    H221553   0.199   1.164   1.612 -1.9236 -0.5744  2.3108
 7197TIP3   OH221554   6.925   3.025   3.435  0.2402 -0.1102  0.1570
 7197TIP3    H121555   6.877   3.107   3.420 -0.5943 -0.3469  1.3573
 7197TIP3    H221556   6.890   2.965   3.370  0.6980  0.4115 -0.5894
 7198TIP3   OH221557   2.839   5.197   4.034 -0.4621  0.2936 -0.0832
 7198TIP3    H121558   2.785   5.119   4.044 -0.0162  0.1238  1.2497
 7198TIP3    H221559   2.906   5.172   3.971  1.0068 -1.1918  1.9458
 7199TIP3   OH221560   2.999   6.476   1.920 -0.3921  0.2984 -0.7264
 7199TIP3    H121561   2.960   6.434   1.996  1.2542 -2.2537 -1.1748
 7199TIP3    H221562   3.072   6.527   1.955  1.4133 -2.1887 -0.5991
 7200TIP3   OH221563   6.958   4.491   4.350 -0.2147  0.1565  0.8234
 7200TIP3    H121564   7.036   4.525   4.307 -0.2282  1.1455  1.5460
 7200TIP3    H221565   6.938   4.410   4.303 -0.5414  1.4175 -1.3734
 7201TIP3   OH221566   0.448   0.617   0.533 -0.4618  0.2063 -0.0792
 7201TIP3    H121567   0.413   0.668   0.460 -1.0626 -2.5068 -1.8478
 7201TIP3    H221568   0.540   0.603   0.511 -0.2470  0.6265  0.5020
 7202TIP3   OH221569   1.832   4.497   0.661 -0.4983 -0.5355  0.2344
 7202TIP3    H121570   1.880   4.580   0.654 -1.5993  0.0860 -0.3308
 7202TIP3    H221571   1.773   4.510   0.735 -0.3491 -0.9965  0.4366
 7203TIP3   OH221572   2.825   4.451   4.573  0.2680  0.2477 -0.3044
 7203TIP3    H121573   2.801   4.368   4.532  2.2601  0.2128 -1.5657
 7203TIP3    H221574   2.900   4.429   4.629  1.9490  1.3892 -1.9751
 7204TIP3   OH221575   0.260   0.829   2.749 -0.4246 -0.5276 -0.3358
 7204TIP3    H121576   0.299   0.894   2.808 -0.5495 -0.7457 -0.0110
 7204TIP3    H221577   0.303   0.747   2.772  0.2177 -0.4444 -1.2040
 7205TIP3   OH221578   5.031   5.491   2.454 -0.2758  0.1055 -0.3930
 7205TIP3    H121579   5.055   5.404   2.483 -0.1354 -0.7141 -2.7145
 7205TIP3    H221580   5.062   5.550   2.523  1.6000 -1.4989  0.2106
 7206TIP3   OH221581   5.610   0.615   2.521  0.4364 -0.6607  0.5662
 7206TIP3    H121582   5.684   0.641   2.575  0.8678 -0.3529 -0.1575
 7206TIP3    H221583   5.638   0.535   2.477  1.0007  0.3333 -0.9724
 7207TIP3   OH221584   2.017   3.928   2.778  0.4695 -0.6862 -0.1076
 7207TIP3    H121585   1.956   3.941   2.704 -0.7755  0.2113  1.0119
 7207TIP3    H221586   2.093   3.885   2.739 -0.4461 -0.9028 -1.7752
 7208TIP3   OH221587   2.152   1.368   1.611  0.0804  0.3910  0.0966
 7208TIP3    H121588   2.208   1.321   1.550  2.9046 -0.1629  2.8696
 7208TIP3    H221589   2.090   1.301   1.642  0.9333 -0.2533  0.4380
 7209TIP3   OH221590   1.404   3.630   3.272 -0.1207  0.1802  0.1807
 7209TIP3    H121591   1.352   3.608   3.350 -2.4359 -1.9529 -1.7864
 7209TIP3    H221592   1.367   3.713   3.242 -0.7838 -0.1198  0.1370
 7210TIP3   OH221593   4.531   1.631   3.984  0.2482 -0.3751  0.2524
 7210TIP3    H121594   4.449   1.666   4.019  0.9416  1.4362  0.2103
 7210TIP3    H221595   4.532   1.659   3.893  0.3345 -1.4917 -0.0920
 7211TIP3   OH221596   3.087   3.444   1.675  0.5060 -0.4591 -0.2685
 7211TIP3    H121597   3.164   3.430   1.621  1.1723  1.8034 -0.0244
 7211TIP3    H221598   3.036   3.510   1.628 -1.2036 -1.7256 -0.2981
 7212TIP3   OH221599   6.488   5.466   3.922 -0.4087 -0.2609  0.1012
 7212TIP3    H121600   6.570   5.473   3.873 -1.0930 -0.0096 -1.0532
 7212TIP3    H221601   6.487   5.376   3.955 -0.0278 -0.5074 -0.5390
 7213TIP3   OH221602   4.568   2.195   4.193  0.0997  0.6712 -0.0402
 7213TIP3    H121603   4.650   2.163   4.230 -0.4495  0.6661  1.2123
 7213TIP3    H221604   4.545   2.130   4.126 -0.3936 -0.9835  1.6527
 7214TIP3   OH221605   2.835   3.258   5.170  0.4587  0.0630  0.0021
 7214TIP3    H121606   2.869   3.180   5.213  2.1429  1.3481  1.1275
 7214TIP3    H221607   2.913   3.308   5.146 -0.5835  1.8462  0.1908
 7215TIP3   OH221608   6.548   3.343   3.808 -0.6103  0.4360 -0.0750
 7215TIP3    H121609   6.592   3.386   3.735 -0.3081 -0.4665 -0.4344
 7215TIP3    H221610   6.499   3.271   3.769 -0.6154  0.0698  0.5766
 7216TIP3   OH221611   6.251   1.234   5.087 -0.6039  0.4217  0.4480
 7216TIP3    H121612   6.159   1.211   5.094 -0.7714  0.5803 -0.9051
 7216TIP3    H221613   6.271   1.225   4.993  0.7694  0.3266  0.7224
 7217TIP3   OH221614   2.679   1.949   4.095  0.0463  0.1770 -0.6763
 7217TIP3    H121615   2.687   2.045   4.097 -0.5479  0.2239 -0.1094
 7217TIP3    H221616   2.665   1.928   4.003 -1.3503  0.7794 -0.6322
 7218TIP3   OH221617   3.118   0.528   3.402  0.0659 -0.3135  0.7810
 7218TIP3    H121618   3.062   0.452   3.415 -0.1209 -0.7567 -1.9591
 7218TIP3    H221619   3.201   0.491   3.371  0.1723  0.5653 -0.0031
 7219TIP3   OH221620   3.029   4.605   3.622 -0.1976  0.0272 -0.0922
 7219TIP3    H121621   3.116   4.591   3.659  0.6464  3.0424 -0.6173
 7219TIP3    H221622   2.968   4.569   3.687  1.3814  0.1701  1.5405
 7220TIP3   OH221623   2.255   0.578   0.474  0.4309  0.5895 -0.6443
 7220TIP3    H121624   2.288   0.612   0.557  0.9584  2.7804 -1.6747
 7220TIP3    H221625   2.330   0.535   0.433  0.0911 -0.7645  0.1163
 7221TIP3   OH221626   3.984   2.231   2.370 -0.1780  0.2075 -0.2949
 7221TIP3    H121627   4.026   2.273   2.294  0.2816 -1.3384 -0.9375
 7221TIP3    H221628   4.057   2.207   2.427 -0.4918  0.9584  0.4391
 7222TIP3   OH221629   3.195   3.095   1.118  0.1042  0.2432  0.2103
 7222TIP3    H121630   3.206   3.148   1.197 -0.7447  0.3733  0.2540
 7222TIP3    H221631   3.270   3.036   1.118  1.5390  1.9919 -0.2922
 7223TIP3   OH221632   1.414   4.998   0.235 -0.1144  0.2575  0.2275
 7223TIP3    H121633   1.403   4.907   0.207  0.6003  0.9257 -2.5322
 7223TIP3    H221634   1.461   5.040   0.163 -1.6565  3.1697  0.7413
 7224TIP3   OH221635   5.076   0.644   2.752 -0.0082  0.5624  0.2727
 7224TIP3    H121636   5.161   0.624   2.711 -0.6460  1.4901 -1.6116
 7224TIP3    H221637   5.073   0.740   2.757 -1.1917  0.5690 -0.2524
 7225TIP3   OH221638   5.442   4.253   0.627  0.0013  0.0848 -0.3021
 7225TIP3    H121639   5.461   4.275   0.718 -0.3793  0.6232 -0.3451
 7225TIP3    H221640   5.390   4.173   0.632  0.5323 -0.2570 -0.0872
 7226TIP3   OH221641   1.178   5.318   5.662  0.0912 -0.2269 -0.3766
 7226TIP3    H121642   1.146   5.325   5.572 -0.9203 -0.1033 -0.0270
 7226TIP3    H221643   1.102   5.287   5.712  0.9044 -1.2756  0.2715
 7227TIP3   OH221644   6.869   5.166   4.011  0.2222  0.3932 -0.7240
 7227TIP3    H121645   6.940   5.198   3.956  0.1188  1.6293 -0.1847
 7227TIP3    H221646   6.912   5.129   4.088  0.3132  2.2787  0.2001
 7228TIP3   OH221647   6.976   0.835   5.582  0.4245  0.0424 -0.5346
 7228TIP3    H121648   7.048   0.801   5.529 -0.7842 -2.4303 -0.7521
 7228TIP3    H221649   6.982   0.786   5.664 -0.7686  0.0669 -0.4108
 7229TIP3   OH221650   3.423   3.629   2.254 -0.1064  0.4150  0.7899
 7229TIP3    H121651   3.508   3.651   2.293 -0.0407  1.5254  0.0615
 7229TIP3    H221652   3.377   3.582   2.324  0.3975  1.4390  1.8666
 7230TIP3   OH221653   0.803   6.352   5.074  0.1031  0.4184  0.4455
 7230TIP3    H121654   0.791   6.443   5.100  0.6383  0.1879  1.5579
 7230TIP3    H221655   0.719   6.310   5.095  0.4255  0.3018  1.5856
 7231TIP3   OH221656   1.813   4.547   1.855 -0.2140 -0.3008 -0.1605
 7231TIP3    H121657   1.775   4.596   1.928  0.7145 -1.7921  1.3965
 7231TIP3    H221658   1.905   4.536   1.878 -0.6594 -4.2014  0.5120
 7232TIP3   OH221659   7.206   2.753   1.070 -0.9552 -0.2394 -0.0362
 7232TIP3    H121660   7.207   2.828   1.011 -0.0724  2.0679  2.6860
 7232TIP3    H221661   7.129   2.768   1.126 -1.2398 -1.8477  0.0569
 7233TIP3   OH221662   5.021   5.409   1.005  0.6359 -0.0943 -0.5492
 7233TIP3    H121663   4.996   5.408   0.913  1.7561 -1.8053 -0.8896
 7233TIP3    H221664   5.048   5.318   1.023 -1.7981 -0.4248  2.0987
 7234TIP3   OH221665   0.802   5.830   4.384  0.4245 -0.1890 -0.1671
 7234TIP3    H121666   0.831   5.765   4.447 -0.1864  0.2422  0.5712
 7234TIP3    H221667   0.719   5.862   4.418 -0.5503 -0.8169 -1.8270
 7235TIP3   OH221668   4.346   5.545   5.575 -0.2267  0.2441  0.1319
 7235TIP3    H121669   4.299   5.600   5.513  0.3574  0.3348 -0.2397
 7235TIP3    H221670   4.394   5.607   5.630  0.9571  0.1018 -0.7097
 7236TIP3   OH221671   0.703   5.121   2.381  0.0834 -0.6347  0.4187
 7236TIP3    H121672   0.626   5.068   2.398  0.0045  0.2729  3.3432
 7236TIP3    H221673   0.669   5.206   2.355 -0.0028  0.0919  2.7437
 7237TIP3   OH221674   3.147   1.559   3.158 -0.3270 -0.1011 -0.5731
 7237TIP3    H121675   3.228   1.534   3.114  0.1998 -1.7534  1.1795
 7237TIP3    H221676   3.079   1.508   3.114  0.0836 -1.1527 -0.0458
 7238TIP3   OH221677   4.802   1.830   3.532 -0.3020 -0.2241  0.7937
 7238TIP3    H121678   4.878   1.796   3.484  0.4873  1.2421  0.9673
 7238TIP3    H221679   4.727   1.787   3.491  0.4756 -0.2475 -0.6663
 7239TIP3   OH221680   0.156   0.425   2.738  0.3570 -0.4551  0.0176
 7239TIP3    H121681   0.112   0.510   2.734 -1.6890 -1.4639 -0.5932
 7239TIP3    H221682   0.144   0.395   2.828 -0.1541 -0.6899 -0.1253
 7240TIP3   OH221683   1.193   1.341   2.573 -0.2715  0.1636 -1.3167
 7240TIP3    H121684   1.137   1.311   2.644  0.2898 -1.8037 -1.6423
 7240TIP3    H221685   1.137   1.399   2.521 -1.0083  0.7519  0.0751
 7241TIP3   OH221686   4.594   1.221   1.201 -0.3266 -0.0141 -0.2574
 7241TIP3    H121687   4.606   1.147   1.261 -0.9017 -1.2097 -1.5639
 7241TIP3    H221688   4.665   1.212   1.138 -0.0098  0.9598 -0.0581
 7242TIP3   OH221689   2.998   5.971   2.801 -0.2338 -0.0306  0.2063
 7242TIP3    H121690   2.936   6.030   2.843 -0.3604 -0.2286  0.2979
 7242TIP3    H221691   2.944   5.912   2.749 -0.0730  0.2746 -0.3202
 7243TIP3   OH221692   0.598   2.646   4.003 -0.2982 -0.0879 -0.0601
 7243TIP3    H121693   0.587   2.641   4.098  0.4094  0.5587  0.0666
 7243TIP3    H221694   0.691   2.628   3.989 -0.8544 -2.8049 -0.8709
 7244TIP3   OH221695   5.587   0.366   4.504  0.1732 -0.2961 -0.5726
 7244TIP3    H121696   5.680   0.356   4.487  0.4050  1.5454 -0.5880
 7244TIP3    H221697   5.556   0.426   4.437 -0.7431  0.1562  0.2154
 7245TIP3   OH221698   6.790   3.070   4.647  0.2952  0.2566  0.1799
 7245TIP3    H121699   6.715   3.120   4.615  0.2803 -0.7103 -1.4186
 7245TIP3    H221700   6.837   3.044   4.567  2.3568  0.8490  1.1370
 7246TIP3   OH221701   2.031   1.516   5.247 -0.1267  0.4232 -0.2043
 7246TIP3    H121702   1.999   1.440   5.296 -0.0890  0.2431 -0.4572
 7246TIP3    H221703   2.093   1.480   5.184  0.2348  0.7191 -0.0240
 7247TIP3   OH221704   1.541   3.400   3.460 -0.4830 -0.2013 -0.0814
 7247TIP3    H121705   1.571   3.453   3.386 -0.7219 -0.6149 -0.4786
 7247TIP3    H221706   1.448   3.384   3.442 -1.0696  1.3730  1.3213
 7248TIP3   OH221707   5.762   5.881   5.891  0.6274 -0.9340  0.3068
 7248TIP3    H121708   5.718   5.845   5.814  0.8713 -0.6161  0.0166
 7248TIP3    H221709   5.784   5.804   5.944 -0.3082 -1.1014  0.4834
 7249TIP3   OH221710   2.806   0.879   5.314 -0.1132  0.4116 -0.1987
 7249TIP3    H121711   2.864   0.877   5.238  1.1254  1.4135  0.6657
 7249TIP3    H221712   2.861   0.915   5.384 -0.8745 -1.4850  1.4630
 7250TIP3   OH221713   2.663   3.754   3.570  0.3819 -0.8945 -0.3087
 7250TIP3    H121714   2.747   3.730   3.611  0.3535 -0.9891 -0.3049
 7250TIP3    H221715   2.600   3.695   3.611  0.0391  0.2383  0.8796
 7251TIP3   OH221716   6.699   0.559   4.745 -0.5701 -0.5020  0.4765
 7251TIP3    H121717   6.707   0.577   4.652  1.6897  2.5001  1.0747
 7251TIP3    H221718   6.789   0.544   4.775 -0.8159  1.4710  2.5298
 7252TIP3   OH221719   6.110   1.771   0.187  0.0212 -0.1356  0.1215
 7252TIP3    H121720   6.048   1.710   0.226 -1.5632  1.2913 -0.0615
 7252TIP3    H221721   6.195   1.728   0.196 -0.6037 -1.0193  2.7542
 7253TIP3   OH221722   2.311   6.720   0.349 -0.0399 -0.0158 -0.5102
 7253TIP3    H121723   2.323   6.667   0.271 -0.0120 -0.2467 -0.3524
 7253TIP3    H221724   2.328   6.660   0.422 -0.2929  0.1344 -0.3226
 7254TIP3   OH221725   5.916   0.576   3.595 -0.4051  0.1588  0.1404
 7254TIP3    H121726   5.996   0.622   3.569 -1.0278  0.2362 -1.8081
 7254TIP3    H221727   5.846   0.641   3.585 -1.0467 -0.6464 -0.7717
 7255TIP3   OH221728   5.172   1.870   5.810  0.4504  0.1827 -0.0728
 7255TIP3    H121729   5.204   1.960   5.814  0.9384 -0.0258  1.1703
 7255TIP3    H221730   5.234   1.820   5.863 -1.6545 -0.3146  2.0798
 7256TIP3   OH221731   5.232   4.762   0.709  0.2775  0.1225  0.4025
 7256TIP3    H121732   5.290   4.689   0.687  0.9733  0.5227  0.8539
 7256TIP3    H221733   5.224   4.812   0.627 -2.1641 -1.7282 -0.6009
 7257TIP3   OH221734   2.437   3.866   3.418  0.4564  0.2847 -0.1178
 7257TIP3    H121735   2.509   3.818   3.460 -0.7540  0.2435  2.0397
 7257TIP3    H221736   2.439   3.836   3.327  1.7656 -1.4098  0.4034
 7258TIP3   OH221737   0.981   3.895   5.121 -0.3539 -0.6418  0.1356
 7258TIP3    H121738   1.053   3.957   5.131  0.3761 -1.5202  0.3783
 7258TIP3    H221739   1.001   3.825   5.183 -1.4961 -0.8284  0.3069
 7259TIP3   OH221740   6.913   6.231   4.664  0.9420  0.3381  0.0681
 7259TIP3    H121741   6.855   6.276   4.724 -1.0431  0.2440 -1.6519
 7259TIP3    H221742   6.864   6.226   4.582  2.4299 -1.8992 -0.8060
 7260TIP3   OH221743   0.925   3.194   5.190  0.1600 -0.2037 -0.3497
 7260TIP3    H121744   0.865   3.140   5.242  1.2041 -2.7994 -1.6661
 7260TIP3    H221745   1.010   3.151   5.199  1.3378  1.9646 -0.5295
 7261TIP3   OH221746   2.542   2.257   3.893  0.5131  0.1119 -0.2254
 7261TIP3    H121747   2.560   2.187   3.830 -0.7193 -0.4738  0.0322
 7261TIP3    H221748   2.616   2.253   3.954  0.7900 -0.5352 -0.5865
 7262TIP3   OH221749   0.903   6.379   4.826 -0.2200 -0.2591  0.2987
 7262TIP3    H121750   0.869   6.351   4.911  0.4149 -0.8821  0.3555
 7262TIP3    H221751   0.987   6.421   4.846  0.0887 -0.7022 -0.0493
 7263TIP3   OH221752   4.293   1.911   4.741  0.4278  0.1544  0.0403
 7263TIP3    H121753   4.244   1.945   4.816 -0.8953 -1.2534 -0.1203
 7263TIP3    H221754   4.318   1.823   4.767  1.8323  0.4061 -0.3890
 7264TIP3   OH221755   2.919   1.462   3.023 -0.1751  0.2282  0.8504
 7264TIP3    H121756   2.877   1.414   3.095 -0.5666 -1.7687 -0.6384
 7264TIP3    H221757   2.846   1.506   2.978 -0.0856  0.4325  0.9013
 7265TIP3   OH221758   4.434   6.096   2.608  0.0000  0.4039  0.5078
 7265TIP3    H121759   4.402   6.089   2.698 -0.3628  1.7904  0.5106
 7265TIP3    H221760   4.528   6.114   2.617  0.8942 -3.4139  0.5021
 7266TIP3   OH221761   2.441   4.865   2.797  0.0781 -0.5705  0.3088
 7266TIP3    H121762   2.358   4.841   2.756  0.0534  0.7968 -0.4921
 7266TIP3    H221763   2.507   4.849   2.729  0.6116 -2.2541  1.1356
 7267TIP3   OH221764   5.732   4.069   1.806 -0.3982  0.0299 -0.3917
 7267TIP3    H121765   5.637   4.058   1.800 -0.2824 -1.4751 -0.0104
 7267TIP3    H221766   5.759   4.000   1.866  0.7985  1.2855  0.5638
 7268TIP3   OH221767   1.580   0.869   4.163  0.0381 -0.0946 -0.0182
 7268TIP3    H121768   1.611   0.838   4.078 -0.7868 -1.5093  0.1695
 7268TIP3    H221769   1.516   0.937   4.142 -0.8105 -1.0408 -0.5748
 7269TIP3   OH221770   2.036   0.599   4.937  0.1515 -0.2285  0.2114
 7269TIP3    H121771   2.122   0.557   4.944  0.9519  1.5175  1.6914
 7269TIP3    H221772   1.975   0.534   4.973  0.5475 -2.0817 -2.1641
 7270TIP3   OH221773   5.050   3.970   4.851  0.1213 -0.5208 -0.0779
 7270TIP3    H121774   4.956   3.983   4.865  0.2245  0.0509  0.0954
 7270TIP3    H221775   5.074   3.901   4.912  0.0318  0.1047  0.6798
 7271TIP3   OH221776   4.226   4.882   5.034  0.1540 -0.3031 -0.0237
 7271TIP3    H121777   4.306   4.853   5.077 -1.4501  0.2541  3.7954
 7271TIP3    H221778   4.253   4.952   4.975  2.4179  0.6160  1.9555
 7272TIP3   OH221779   2.088   5.354   1.921 -0.2763  0.0140 -0.3177
 7272TIP3    H121780   2.032   5.331   1.846 -0.5953 -1.8060  0.4216
 7272TIP3    H221781   2.177   5.336   1.890 -0.2797  0.6569 -0.7210
 7273TIP3   OH221782   6.835   3.098   0.670 -0.4288  0.2914  0.5596
 7273TIP3    H121783   6.914   3.111   0.721 -0.4485 -0.5451  0.8235
 7273TIP3    H221784   6.784   3.178   0.681  0.5405  0.9878  0.0872
 7274TIP3   OH221785   4.772   6.211   3.947  0.7119  0.3455 -0.3132
 7274TIP3    H121786   4.825   6.187   3.870 -0.5823 -1.1153 -0.7901
 7274TIP3    H221787   4.686   6.233   3.912 -0.5430 -2.3197  0.7877
 7275TIP3   OH221788   4.547   1.612   5.529  0.7205  0.2918  0.0837
 7275TIP3    H121789   4.508   1.530   5.559  0.3732  0.4541  0.0804
 7275TIP3    H221790   4.547   1.605   5.434 -0.4923  0.8287  0.0298
 7276TIP3   OH221791   5.212   5.242   3.323  0.1117 -0.2145  0.9018
 7276TIP3    H121792   5.281   5.275   3.266  0.7628 -3.2006 -0.2001
 7276TIP3    H221793   5.150   5.200   3.263 -0.8937 -0.5954  2.1755
 7277TIP3   OH221794   4.597   4.471   5.172  0.0917 -0.1359  0.1281
 7277TIP3    H121795   4.516   4.488   5.218  0.5428  0.7299  0.6117
 7277TIP3    H221796   4.666   4.507   5.228  0.6411  1.0170 -1.2357
 7278TIP3   OH221797   4.131   0.348   3.439  0.1259  0.0510  1.0851
 7278TIP3    H121798   4.102   0.316   3.354  0.8147 -0.0475  0.8821
 7278TIP3    H221799   4.124   0.271   3.497  1.1601 -0.3041  0.7480
 7279TIP3   OH221800   5.174   3.646   0.204 -0.5498 -0.1918 -0.6020
 7279TIP3    H121801   5.249   3.692   0.166  0.1814 -0.0689  0.9142
 7279TIP3    H221802   5.097   3.695   0.173  0.0969  0.7641 -0.7258
 7280TIP3   OH221803   5.410   6.175   1.942 -0.1468  0.6232 -0.1536
 7280TIP3    H121804   5.387   6.200   1.852 -0.7100  0.8495  0.0461
 7280TIP3    H221805   5.349   6.104   1.964  0.0014  0.5553  0.0446
 7281TIP3   OH221806   2.718   3.266   2.166  0.2966  0.0126 -0.1405
 7281TIP3    H121807   2.628   3.297   2.159  0.4909  0.8658  0.8909
 7281TIP3    H221808   2.742   3.241   2.076 -0.1607  2.0621 -0.8914
 7282TIP3   OH221809   3.094   4.446   3.239 -0.0539 -0.0324 -0.5775
 7282TIP3    H121810   3.010   4.446   3.192  0.0123 -1.2030 -0.7299
 7282TIP3    H221811   3.088   4.370   3.297 -0.0414  1.2412  1.1766
 7283TIP3   OH221812   6.262   4.739   3.584 -0.4085  0.1230  0.3911
 7283TIP3    H121813   6.269   4.828   3.548  0.2531 -0.2838 -0.5233
 7283TIP3    H221814   6.169   4.729   3.604 -0.6588  0.6659 -0.4482
 7284TIP3   OH221815   0.178   6.024   2.855  0.4135 -0.2783 -0.4803
 7284TIP3    H121816   0.244   5.965   2.817 -0.1621 -0.7677 -0.7293
 7284TIP3    H221817   0.154   5.984   2.938  1.8126  0.8915  0.5476
 7285TIP3   OH221818   0.189   1.296   2.238  0.4854  0.6846 -0.1966
 7285TIP3    H121819   0.194   1.391   2.252 -0.9945  0.8473 -0.6022
 7285TIP3    H221820   0.164   1.261   2.324  1.7524  0.5493  0.1489
 7286TIP3   OH221821   2.007   4.220   2.147  0.4329 -0.0112 -0.1468
 7286TIP3    H121822   1.965   4.142   2.110  1.7467  0.3922 -2.6508
 7286TIP3    H221823   1.940   4.257   2.206 -0.8692 -2.0119 -0.2523
 7287TIP3   OH221824   6.316   5.287   1.140  0.5270  0.1162  0.2842
 7287TIP3    H121825   6.356   5.254   1.059 -1.7186  0.1225 -0.9130
 7287TIP3    H221826   6.317   5.212   1.200  0.3933 -0.5066 -0.4795
 7288TIP3   OH221827   5.341   4.458   2.669  0.1970  0.2347 -0.0646
 7288TIP3    H121828   5.307   4.542   2.700  0.3636  0.4427 -0.4392
 7288TIP3    H221829   5.436   4.469   2.669  0.3597 -0.6959  1.9811
 7289TIP3   OH221830   2.960   2.487   0.055  0.0355 -0.6194 -0.1907
 7289TIP3    H121831   2.950   2.529  -0.031 -0.2385  0.7274  0.4743
 7289TIP3    H221832   2.871   2.479   0.088  0.0989 -1.6143 -0.2367
 7290TIP3   OH221833   5.599   4.493   4.177  0.0966 -0.9358  0.2193
 7290TIP3    H121834   5.522   4.454   4.136  0.4175  0.3562 -1.7720
 7290TIP3    H221835   5.669   4.430   4.163 -0.1477 -1.1902  0.1400
 7291TIP3   OH221836   5.165   5.647   2.656  0.6101  0.0608  0.5938
 7291TIP3    H121837   5.097   5.710   2.681  1.5612  0.9959  0.9263
 7291TIP3    H221838   5.211   5.627   2.738  0.2056 -1.2262  0.5244
 7292TIP3   OH221839   0.083   3.755   5.369  0.6389 -0.5406  0.2037
 7292TIP3    H121840   0.142   3.794   5.434  0.2949  0.7182 -0.2141
 7292TIP3    H221841   0.140   3.730   5.296  0.5332  2.2298 -0.9370
 7293TIP3   OH221842   1.594   2.942   2.593  0.7266 -0.1487 -0.0381
 7293TIP3    H121843   1.684   2.976   2.600  0.8389 -0.3751 -0.3498
 7293TIP3    H221844   1.603   2.848   2.609  1.0190 -0.7402 -2.9969
 7294TIP3   OH221845   0.430   4.503   4.880  0.8269 -0.2347 -0.0396
 7294TIP3    H121846   0.520   4.526   4.906 -0.0925  0.7327  2.6413
 7294TIP3    H221847   0.377   4.575   4.915 -1.0435 -0.9560 -1.2858
 7295TIP3   OH221848   1.163   3.562   0.646 -0.0311  0.2222 -0.0625
 7295TIP3    H121849   1.189   3.633   0.705  0.2735 -0.3204  0.4589
 7295TIP3    H221850   1.077   3.535   0.677  0.9075 -1.3084  1.3150
 7296TIP3   OH221851   5.286   2.300   2.059 -0.2830  0.6813 -0.0548
 7296TIP3    H121852   5.200   2.261   2.075 -0.2492 -0.6675 -2.6187
 7296TIP3    H221853   5.349   2.235   2.091 -0.0123  2.5864  3.9111
 7297TIP3   OH221854   2.818   5.771   1.242  0.1385 -0.2884  0.1723
 7297TIP3    H121855   2.846   5.762   1.333 -1.3112  1.0404  0.7877
 7297TIP3    H221856   2.743   5.829   1.245 -0.5652 -1.0007 -1.7821
 7298TIP3   OH221857   6.305   3.599   0.512  0.0090 -0.1670  0.1653
 7298TIP3    H121858   6.314   3.623   0.604 -0.6044  0.4726  0.0627
 7298TIP3    H221859   6.373   3.532   0.498 -0.4016 -0.8357  1.2733
 7299TIP3   OH221860   0.850   1.020   5.720  0.0161  0.6475 -0.0049
 7299TIP3    H121861   0.836   0.940   5.771  0.1230  1.2420  0.9810
 7299TIP3    H221862   0.769   1.032   5.671 -0.2249  0.2556  0.2894
 7300TIP3   OH221863   6.812   5.610   2.289  0.0971  0.1814 -0.0490
 7300TIP3    H121864   6.773   5.683   2.337 -2.8567 -2.3854  1.7722
 7300TIP3    H221865   6.890   5.587   2.339 -1.1013 -0.3119  1.6894
 7301TIP3   OH221866   6.749   4.752   4.754  0.0796 -0.9536 -0.1593
 7301TIP3    H121867   6.806   4.676   4.742  0.6763 -0.5692  0.1932
 7301TIP3    H221868   6.797   4.809   4.815 -0.7133 -0.6591  0.2087
 7302TIP3   OH221869   4.025   2.850   1.297 -0.1967 -0.2958 -0.2956
 7302TIP3    H121870   3.938   2.838   1.258 -0.9462 -0.5009  1.3740
 7302TIP3    H221871   4.038   2.945   1.297 -0.8432 -0.1980  0.2977
 7303TIP3   OH221872   3.956   0.554   1.438  0.2571 -0.1450  0.3613
 7303TIP3    H121873   3.908   0.475   1.461 -0.4333  0.3971  0.8062
 7303TIP3    H221874   3.989   0.537   1.350 -3.2211  0.5623 -1.2294
 7304TIP3   OH221875   0.471   2.919   1.738 -0.1984  0.5741  0.3149
 7304TIP3    H121876   0.427   2.843   1.698 -1.0517  1.3354 -0.2389
 7304TIP3    H221877   0.533   2.949   1.671  2.0679 -1.1634  1.5045
 7305TIP3   OH221878   5.328   5.831   2.092  0.4022  0.2138  0.5139
 7305TIP3    H121879   5.391   5.882   2.142  0.2946 -1.1202  2.0890
 7305TIP3    H221880   5.243   5.853   2.130  0.1595  0.2109 -0.0119
 7306TIP3   OH221881   1.960   1.612   0.350  0.4102  0.1116 -0.2026
 7306TIP3    H121882   1.871   1.577   0.351  0.4519 -0.0382  1.4542
 7306TIP3    H221883   1.972   1.650   0.437  2.4094 -1.0477  0.1027
 7307TIP3   OH221884   0.449   0.493   2.035 -0.1563  0.3731  0.1503
 7307TIP3    H121885   0.365   0.505   1.990 -0.1655 -0.1087  0.0383
 7307TIP3    H221886   0.424   0.477   2.126 -0.1069  2.3664  0.5703
 7308TIP3   OH221887   1.630   3.857   3.417 -0.4319  0.2241  0.7004
 7308TIP3    H121888   1.679   3.798   3.474  0.5859  1.8429  1.5596
 7308TIP3    H221889   1.688   3.872   3.343  0.2711  1.8274  1.5298
 7309TIP3   OH221890   2.302   3.399   1.223 -1.1448  0.3242 -0.1473
 7309TIP3    H121891   2.236   3.433   1.162  0.6503  1.1534 -1.7753
 7309TIP3    H221892   2.308   3.306   1.202  0.1407  0.7719 -2.0510
 7310TIP3   OH221893   5.388   3.486   1.065 -0.1344  0.1906 -0.1974
 7310TIP3    H121894   5.306   3.526   1.091 -1.2666 -0.8708 -1.9037
 7310TIP3    H221895   5.422   3.446   1.145 -1.7243 -0.1073  0.3611
 7311TIP3   OH221896   0.258   4.907   3.985 -0.2170  0.4838 -0.7068
 7311TIP3    H121897   0.198   4.884   3.914 -1.7459 -0.3150  0.7867
 7311TIP3    H221898   0.202   4.923   4.061  1.3642  1.2842  0.3666
 7312TIP3   OH221899   5.213   6.690   3.654 -0.2159  0.5156  0.8508
 7312TIP3    H121900   5.261   6.715   3.733  0.2574  2.3856  0.0174
 7312TIP3    H221901   5.281   6.675   3.588 -0.6656  0.5665  0.3625
 7313TIP3   OH221902   1.413   1.032   5.548 -0.0844 -0.1507  0.1857
 7313TIP3    H121903   1.478   0.967   5.523 -2.2007 -2.6068  0.5567
 7313TIP3    H221904   1.379   1.065   5.465  0.4103 -0.1478 -0.0199
 7314TIP3   OH221905   0.958   3.452   5.066 -0.4702 -0.2619 -0.0282
 7314TIP3    H121906   0.941   3.365   5.102 -1.0590 -0.3109 -0.4115
 7314TIP3    H221907   0.873   3.482   5.033 -0.0324 -0.0622 -1.0153
 7315TIP3   OH221908   5.757   6.516   5.455 -0.1265 -0.8283  0.3479
 7315TIP3    H121909   5.780   6.544   5.366  0.5496 -0.7746  0.5339
 7315TIP3    H221910   5.825   6.454   5.479 -1.2531 -2.1870  0.1872
 7316TIP3   OH221911   6.894   0.138   1.513  0.3566  0.1698  0.1656
 7316TIP3    H121912   6.854   0.111   1.595 -0.6191  0.0149 -0.3429
 7316TIP3    H221913   6.835   0.204   1.478  1.1701  0.8114 -0.0427
 7317TIP3   OH221914   5.128   0.942   1.336 -0.2769 -0.1663 -0.5610
 7317TIP3    H121915   5.218   0.975   1.335 -0.5043  0.6002  1.0585
 7317TIP3    H221916   5.074   1.020   1.342 -1.0205 -0.6679 -0.5962
 7318TIP3   OH221917   3.338   5.954   1.476  0.1378 -0.0004 -0.3018
 7318TIP3    H121918   3.390   6.034   1.465 -0.1089  0.1911 -0.0738
 7318TIP3    H221919   3.260   5.982   1.523 -0.1067 -0.3174 -0.5193
 7319TIP3   OH221920   3.960   3.811   1.443 -0.0272 -0.3396 -0.1329
 7319TIP3    H121921   3.932   3.901   1.426 -0.4393 -0.6189 -1.0443
 7319TIP3    H221922   4.043   3.820   1.490 -0.2403  0.5122  0.1055
 7320TIP3   OH221923   3.831   6.115   0.464 -0.1040 -0.2613  0.0901
 7320TIP3    H121924   3.767   6.097   0.395  1.1949 -3.4209 -0.4548
 7320TIP3    H221925   3.809   6.055   0.535  0.5399  0.6481  1.0923
 7321TIP3   OH221926   6.499   6.451   2.133 -0.4173 -0.8112  0.1659
 7321TIP3    H121927   6.480   6.358   2.149  0.5412 -1.0973 -0.2495
 7321TIP3    H221928   6.575   6.449   2.075 -0.9825  0.2362 -0.6306
 7322TIP3   OH221929   4.235   6.091   0.119 -0.0172 -0.1416 -0.4188
 7322TIP3    H121930   4.175   6.068   0.049  0.0496 -1.4668 -0.0557
 7322TIP3    H221931   4.186   6.074   0.200  0.0891  0.8657 -0.1238
 7323TIP3   OH221932   0.074   0.406   0.602  0.4140 -0.2125  0.0711
 7323TIP3    H121933   0.118   0.459   0.535 -1.9344  4.1289  1.5520
 7323TIP3    H221934   0.133   0.409   0.677  0.6960 -0.4940 -0.1380
 7324TIP3   OH221935   0.677   5.355   1.330 -0.1631 -0.1748  0.5583
 7324TIP3    H121936   0.722   5.332   1.249  0.7171 -2.0243  1.4945
 7324TIP3    H221937   0.590   5.315   1.322  0.2162 -1.0853  0.8333
 7325TIP3   OH221938   6.514   3.170   1.955 -0.2327 -0.2890  0.2879
 7325TIP3    H121939   6.580   3.225   1.998  0.4069  0.7061 -1.8464
 7325TIP3    H221940   6.431   3.199   1.994  0.2190  1.3524  0.1041
 7326TIP3   OH221941   2.144   4.071   5.336 -0.0516 -0.0107 -0.1044
 7326TIP3    H121942   2.167   4.023   5.416 -2.0055 -0.8236  0.0152
 7326TIP3    H221943   2.178   4.160   5.351 -0.0148 -0.2629  1.4534
 7327TIP3   OH221944   6.403   6.014   5.166 -0.0396 -0.1839 -0.5428
 7327TIP3    H121945   6.354   5.974   5.094 -2.0506  2.2595 -0.6680
 7327TIP3    H221946   6.442   6.092   5.127  1.6163 -0.5568  0.2795
 7328TIP3   OH221947   4.557   1.384   0.352 -0.5200  0.0962 -0.2836
 7328TIP3    H121948   4.512   1.352   0.430 -0.8804 -0.8598 -0.8622
 7328TIP3    H221949   4.536   1.477   0.347  0.7401  0.5264  1.5796
 7329TIP3   OH221950   0.028   1.892   1.371  0.2244  0.2899  0.3234
 7329TIP3    H121951  -0.041   1.854   1.317  1.9468  1.2030 -2.8075
 7329TIP3    H221952   0.090   1.821   1.384  0.8126  0.5604 -0.8218
 7330TIP3   OH221953   5.816   0.279   1.945 -0.6148 -0.2896 -0.4899
 7330TIP3    H121954   5.791   0.215   1.878 -2.1565 -0.2570  0.0268
 7330TIP3    H221955   5.818   0.363   1.898 -1.7239 -0.2620 -0.4952
 7331TIP3   OH221956   1.430   0.556   4.317 -0.9504  0.2161  0.3666
 7331TIP3    H121957   1.489   0.584   4.247  0.7103  1.5097  2.1896
 7331TIP3    H221958   1.343   0.558   4.277 -0.2276  2.2373 -1.2837
 7332TIP3   OH221959   1.282   6.706   1.609 -0.0690 -0.2115 -0.1438
 7332TIP3    H121960   1.341   6.772   1.572  1.7777 -0.8926  1.4339
 7332TIP3    H221961   1.321   6.622   1.584 -0.8852 -0.6960  0.1647
 7333TIP3   OH221962   3.918   4.073   1.362 -0.4292  0.1116  0.4529
 7333TIP3    H121963   3.823   4.083   1.358 -0.1570  2.9102 -1.4293
 7333TIP3    H221964   3.943   4.116   1.444 -0.6831  0.5068  0.3253
 7334TIP3   OH221965   3.683   2.477   4.506 -0.1998  0.4193  0.3586
 7334TIP3    H121966   3.773   2.488   4.537  0.3411 -3.7471  0.9205
 7334TIP3    H221967   3.641   2.561   4.522  2.9107  1.7322  2.5462
 7335TIP3   OH221968   4.101   4.682   0.220 -0.2064  0.4395 -0.0353
 7335TIP3    H121969   4.028   4.656   0.163 -1.6718  2.0720  0.9797
 7335TIP3    H221970   4.094   4.622   0.295 -2.0688  2.0530  1.1737
 7336TIP3   OH221971   4.916   6.257   2.141  0.0147 -0.2611  0.7859
 7336TIP3    H121972   4.982   6.305   2.091  0.6091  0.9544  2.6238
 7336TIP3    H221973   4.962   6.178   2.172  0.2053 -0.0785  0.9673
 7337TIP3   OH221974   4.921   2.684   0.207  0.6735  0.3578  0.1719
 7337TIP3    H121975   4.874   2.642   0.134 -0.3274  0.1997  0.8797
 7337TIP3    H221976   4.906   2.626   0.281  2.7448 -0.1366  0.2472
 7338TIP3   OH221977   1.189   3.521   4.892  0.1263 -0.1793  0.2218
 7338TIP3    H121978   1.176   3.434   4.854  1.1324 -0.3174  0.1626
 7338TIP3    H221979   1.147   3.516   4.977  0.7027 -0.9378  0.4793
 7339TIP3   OH221980   6.799   0.424   2.542  0.1465 -0.3033  0.1002
 7339TIP3    H121981   6.794   0.374   2.623  0.0708 -0.2071  0.1545
 7339TIP3    H221982   6.859   0.496   2.563 -0.4334  0.1307  0.2859
 7340TIP3   OH221983   2.295   2.109   3.260  0.0370  0.4321  0.3824
 7340TIP3    H121984   2.364   2.043   3.265  0.7211  1.0788 -0.0600
 7340TIP3    H221985   2.237   2.091   3.333 -0.9443 -1.9012 -0.8582
 7341TIP3   OH221986   1.403   5.773   2.945 -0.2305 -0.7875 -0.6090
 7341TIP3    H121987   1.472   5.711   2.921  1.8774  1.2732 -0.2633
 7341TIP3    H221988   1.371   5.742   3.030 -0.3183 -2.2049 -1.1280
 7342TIP3   OH221989   4.919   3.547   0.050 -0.0673  0.0034  0.2756
 7342TIP3    H121990   4.943   3.638   0.065 -0.2549  0.0562  0.2464
 7342TIP3    H221991   4.897   3.514   0.137  0.4199 -0.1338  0.3509
 7343TIP3   OH221992   2.235   6.390   5.230  0.0672  0.1774  0.3222
 7343TIP3    H121993   2.289   6.378   5.152 -0.3959 -1.8039  0.2468
 7343TIP3    H221994   2.295   6.425   5.296  0.3572  2.3383 -0.9880
 7344TIP3   OH221995   0.588   4.524   1.884 -0.1074 -0.4347 -0.1779
 7344TIP3    H121996   0.681   4.524   1.861 -0.6506  0.8725 -2.7338
 7344TIP3    H221997   0.581   4.459   1.953  3.1001  1.1946  1.9878
 7345TIP3   OH221998   5.546   1.336   3.934  0.4872 -0.0922  0.3632
 7345TIP3    H121999   5.535   1.257   3.986  0.1214 -0.1722  0.1660
 7345TIP3    H222000   5.457   1.361   3.909  0.5760  0.5123  0.6188
 7346TIP3   OH222001   4.113   1.804   2.779  0.0049 -0.2068  0.2312
 7346TIP3    H122002   4.191   1.778   2.827  0.9793  0.3983 -0.9330
 7346TIP3    H222003   4.056   1.728   2.781  0.9866 -0.9618  0.4307
 7347TIP3   OH222004   6.088   2.958   0.614  0.8384 -0.5133 -0.2227
 7347TIP3    H122005   6.175   2.974   0.577 -0.3092  0.7504 -2.5924
 7347TIP3    H222006   6.045   3.043   0.612 -1.2525 -1.5241 -1.3432
 7348TIP3   OH222007   5.589   1.421   0.614 -0.0990  0.1512  0.2512
 7348TIP3    H122008   5.607   1.399   0.523 -0.8580 -1.5847  0.4607
 7348TIP3    H222009   5.496   1.444   0.615 -0.0576  0.3159  0.5655
 7349TIP3   OH222010   4.567   1.543   1.642  0.1477 -0.7497  0.5278
 7349TIP3    H122011   4.473   1.562   1.641  0.2982  0.1089  1.1781
 7349TIP3    H222012   4.578   1.470   1.581 -0.7641  0.0266 -0.6066
 7350TIP3   OH222013   2.539   2.833   0.753 -0.4411 -0.0868  0.2360
 7350TIP3    H122014   2.588   2.908   0.720 -0.4769 -0.3326 -0.4106
 7350TIP3    H222015   2.520   2.781   0.674  0.9165 -1.5576  0.8000
 7351TIP3   OH222016   5.418   2.413   4.523 -0.4370  0.0118  0.0842
 7351TIP3    H122017   5.382   2.490   4.478 -0.6268 -0.4768 -0.6102
 7351TIP3    H222018   5.438   2.445   4.611 -1.5774  0.5591  0.1591
 7352TIP3   OH222019   2.957   2.704   2.052 -0.3929  0.4514  0.1078
 7352TIP3    H122020   2.883   2.762   2.036 -0.3721  0.5930  0.5168
 7352TIP3    H222021   3.021   2.727   1.985 -0.6565  0.4329 -0.1520
 7353TIP3   OH222022   4.221   1.085   4.405 -0.3084  0.2352 -0.3007
 7353TIP3    H122023   4.279   1.155   4.375 -0.4769 -0.1621 -1.6150
 7353TIP3    H222024   4.253   1.007   4.359 -0.7675 -0.3391  0.3478
 7354TIP3   OH222025   2.794   2.083   3.174  0.0487  0.4057 -0.1095
 7354TIP3    H122026   2.817   2.115   3.086 -0.4910  0.1298 -0.3553
 7354TIP3    H222027   2.701   2.104   3.183  0.3981  1.6491  0.9306
 7355TIP3   OH222028   1.012   3.041   0.685 -0.2355 -0.1065  0.1018
 7355TIP3    H122029   0.926   3.077   0.705 -0.8216 -2.0078  1.2392
 7355TIP3    H222030   1.060   3.114   0.646 -2.6508  0.7655 -1.4936
 7356TIP3   OH222031   4.060   1.936   2.542  0.0081  0.0132  0.3903
 7356TIP3    H122032   4.139   1.987   2.527  1.3633 -1.7722  1.0248
 7356TIP3    H222033   4.084   1.874   2.611 -1.8107 -0.8599  0.3066
 7357TIP3   OH222034   4.282   0.864   4.985  0.3542 -0.4583 -0.0291
 7357TIP3    H122035   4.247   0.825   4.905  2.2532  0.0295 -1.1497
 7357TIP3    H222036   4.271   0.796   5.051 -2.0597 -0.5449 -0.4519
 7358TIP3   OH222037   4.630   0.339   5.890  0.2246 -0.5163 -0.2621
 7358TIP3    H122038   4.659   0.278   5.822  2.0857 -0.2867  0.2720
 7358TIP3    H222039   4.607   0.418   5.842 -0.0578 -0.8976 -0.7681
 7359TIP3   OH222040   3.800   1.986   3.896  0.0780 -0.1555 -0.5165
 7359TIP3    H122041   3.811   2.025   3.809  0.5047  2.6610  0.6700
 7359TIP3    H222042   3.888   1.964   3.924 -0.0135 -0.6662 -0.6243
 7360TIP3   OH222043   2.346   5.149   3.191  0.1538  0.1744 -0.1383
 7360TIP3    H122044   2.384   5.151   3.103 -1.8271  1.5592 -1.0539
 7360TIP3    H222045   2.251   5.142   3.176 -0.2935  1.0657  1.8582
 7361TIP3   OH222046   5.729   0.388   3.150  0.2640  0.0205  0.3278
 7361TIP3    H122047   5.726   0.393   3.246 -0.6143  3.2747  0.2716
 7361TIP3    H222048   5.734   0.480   3.122 -1.0593 -0.7270 -2.7877
 7362TIP3   OH222049   2.478   3.815   3.147  0.1717  0.0400  0.2588
 7362TIP3    H122050   2.535   3.794   3.072 -0.9670 -1.7747 -0.1389
 7362TIP3    H222051   2.410   3.871   3.110 -0.7287 -1.3427 -0.2296
 7363TIP3   OH222052   1.665   5.088   0.709 -0.2659 -0.1901 -0.7779
 7363TIP3    H122053   1.593   5.054   0.762 -0.4711 -1.5020 -1.8483
 7363TIP3    H222054   1.640   5.068   0.619  0.8197  0.5584 -1.2683
 7364TIP3   OH222055   1.383   5.559   0.760  0.6101 -0.8219  0.5858
 7364TIP3    H122056   1.423   5.645   0.750 -1.4055  0.2097  1.1266
 7364TIP3    H222057   1.452   5.498   0.731  2.1528  0.9142  0.4138
 7365TIP3   OH222058   0.583   1.048   0.854  0.2423 -0.8605 -0.4996
 7365TIP3    H122059   0.539   0.963   0.846 -0.3330 -0.7566  1.1074
 7365TIP3    H222060   0.528   1.098   0.915 -0.2748  1.2610 -2.5660
 7366TIP3   OH222061   1.699   3.727   4.950 -0.1995 -0.2755  0.5933
 7366TIP3    H122062   1.631   3.663   4.929 -0.6054  0.2084  0.4027
 7366TIP3    H222063   1.656   3.790   5.008  0.1198 -0.0336  0.5720
 7367TIP3   OH222064   0.672   4.909   1.949 -0.0855 -0.1890 -0.1288
 7367TIP3    H122065   0.619   4.924   2.027  2.0162  1.0796  1.1446
 7367TIP3    H222066   0.609   4.880   1.883 -2.2010  0.3493  1.5308
 7368TIP3   OH222067   3.535   6.166   2.491  0.4716 -0.0542  0.7602
 7368TIP3    H122068   3.583   6.132   2.567  0.4972 -1.3995  0.1830
 7368TIP3    H222069   3.446   6.177   2.523 -0.0649 -2.7749  0.4816
 7369TIP3   OH222070   3.677   6.155   4.069 -0.5193  0.0485 -0.0876
 7369TIP3    H122071   3.764   6.167   4.108  0.5232  0.2178 -2.3224
 7369TIP3    H222072   3.669   6.060   4.061 -1.4573 -0.0920  1.9599
 7370TIP3   OH222073   5.330   0.851   5.187 -0.1963 -0.4823 -0.3219
 7370TIP3    H122074   5.330   0.778   5.250  1.4546 -0.8427 -0.7060
 7370TIP3    H222075   5.243   0.848   5.148 -0.7825 -1.1041  0.9690
 7371TIP3   OH222076   6.560   5.064   3.033  0.2191  0.4217 -0.1037
 7371TIP3    H122077   6.586   5.153   3.008  1.1838  0.0697 -0.3825
 7371TIP3    H222078   6.618   5.007   2.983 -0.0020 -0.3569  0.5107
 7372TIP3   OH222079   6.928   2.023   2.442  0.5152  0.1826  0.2933
 7372TIP3    H122080   6.939   2.115   2.466 -0.8537  0.6232 -0.6790
 7372TIP3    H222081   6.969   2.016   2.356  0.8397 -0.1883  0.4750
 7373TIP3   OH222082   0.753   5.363   5.521  0.0252 -0.5201  0.0221
 7373TIP3    H122083   0.811   5.320   5.585 -1.4096 -0.4900  1.3958
 7373TIP3    H222084   0.697   5.419   5.574 -1.7502 -1.0893 -1.1862
 7374TIP3   OH222085   4.158   3.847   0.543  0.0743 -0.1448 -0.2065
 7374TIP3    H122086   4.200   3.932   0.549  0.1812 -0.1171 -1.1656
 7374TIP3    H222087   4.221   3.786   0.581  0.7776 -0.0324 -1.1610
 7375TIP3   OH222088   4.228   2.810   1.139 -0.4094  0.3498 -0.6225
 7375TIP3    H122089   4.188   2.755   1.071 -0.8431  1.1781 -1.0488
 7375TIP3    H222090   4.158   2.824   1.203 -0.5911  1.1911 -0.9971
 7376TIP3   OH222091   6.975   3.347   3.894 -0.2171 -0.3958 -0.5264
 7376TIP3    H122092   7.000   3.439   3.907  0.2463 -0.4955 -0.6912
 7376TIP3    H222093   7.026   3.319   3.818 -0.7596 -0.6382 -0.8034
 7377TIP3   OH222094   3.113   3.607   3.334  0.0458 -0.3489  0.1912
 7377TIP3    H122095   3.154   3.556   3.404 -1.7645 -1.0081  0.8283
 7377TIP3    H222096   3.087   3.541   3.269  0.9099  0.1670 -0.6984
 7378TIP3   OH222097   5.147   0.349   2.945 -0.0950 -0.4734  0.3526
 7378TIP3    H122098   5.172   0.347   2.853  0.4812  0.0658  0.4927
 7378TIP3    H222099   5.060   0.389   2.945 -0.3644 -1.0512 -0.0101
 7379TIP3   OH222100   1.520   3.172   2.367 -0.0842  0.2729  0.5774
 7379TIP3    H122101   1.482   3.092   2.402 -1.1822  0.2571 -0.5683
 7379TIP3    H222102   1.461   3.242   2.397 -0.1462  0.4364  0.0874
 7380TIP3   OH222103   3.872   3.383   4.546 -0.0690 -0.3815  0.0432
 7380TIP3    H122104   3.854   3.342   4.461 -2.3718  2.2701 -0.8908
 7380TIP3    H222105   3.801   3.354   4.602 -0.5734  0.6829 -0.0315
 7381TIP3   OH222106   6.988   5.571   4.111 -0.3555  0.0991  0.7507
 7381TIP3    H122107   7.049   5.498   4.118 -0.0236  0.4228  1.3891
 7381TIP3    H222108   7.034   5.645   4.152 -1.1448  0.3642  1.1866
 7382TIP3   OH222109   4.132   2.058   3.763  0.0197 -0.1396 -0.5084
 7382TIP3    H122110   4.145   2.013   3.847 -1.0253  0.2103 -0.1388
 7382TIP3    H222111   4.220   2.072   3.729  0.4307 -0.9150  0.1973
 7383TIP3   OH222112   6.699   6.674   4.969  0.2691 -0.1120 -0.4528
 7383TIP3    H122113   6.742   6.759   4.974 -0.1652  0.2660 -2.3242
 7383TIP3    H222114   6.692   6.656   4.875 -2.0165 -1.0058 -0.1707
 7384TIP3   OH222115   6.607   6.315   0.630 -0.0158 -0.1366  0.3841
 7384TIP3    H122116   6.603   6.233   0.680  1.5581 -0.5662 -0.1212
 7384TIP3    H222117   6.527   6.361   0.652 -0.5421 -1.4519  1.3317
 7385TIP3   OH222118   6.093   5.406   4.980 -0.5143 -0.7259  0.1015
 7385TIP3    H122119   6.065   5.491   5.016  0.1231 -0.4326 -0.0819
 7385TIP3    H222120   6.020   5.378   4.925 -0.6987 -0.2523  0.0979
 7386TIP3   OH222121   5.534   0.949   3.838  0.2118  0.3811  0.5664
 7386TIP3    H122122   5.455   0.975   3.884  0.9683  0.3331  1.9577
 7386TIP3    H222123   5.554   0.861   3.871  0.5911  0.1989 -0.1145
 7387TIP3   OH222124   2.531   6.665   2.551  0.5078 -0.5280 -0.0960
 7387TIP3    H122125   2.553   6.758   2.554  0.8531 -0.6195  1.6799
 7387TIP3    H222126   2.439   6.661   2.575  0.2501 -0.5926 -1.0732
 7388TIP3   OH222127   4.740   2.913   5.447  0.5776  0.4780 -0.0608
 7388TIP3    H122128   4.647   2.926   5.430  0.3901 -0.0951  0.4920
 7388TIP3    H222129   4.743   2.857   5.525  1.3848  0.8948  0.2250
 7389TIP3   OH222130   2.410   1.109   0.950 -1.0170  0.1669 -0.4256
 7389TIP3    H122131   2.328   1.153   0.974 -0.8525  0.7852 -0.9724
 7389TIP3    H222132   2.436   1.151   0.868  0.5273  0.8565  0.3890
 7390TIP3   OH222133   4.882   2.736   2.736 -0.2275  0.0560  0.4000
 7390TIP3    H122134   4.920   2.775   2.658 -1.4607  0.4040 -0.0478
 7390TIP3    H222135   4.803   2.787   2.753 -0.3880 -0.4977  1.4313
 7391TIP3   OH222136   3.790   4.242   2.988  0.0471  0.4093 -0.6790
 7391TIP3    H122137   3.845   4.267   2.914 -0.4516  0.1670 -1.1363
 7391TIP3    H222138   3.722   4.186   2.950 -1.9061  2.5326 -0.5428
 7392TIP3   OH222139   0.425   6.190   3.796  0.1392  0.1523  0.2480
 7392TIP3    H122140   0.467   6.259   3.745  2.7984  0.9291  3.1328
 7392TIP3    H222141   0.475   6.111   3.777  0.6849  0.2947  1.0119
 7393TIP3   OH222142   5.880   5.996   1.987  0.0729  1.0116 -0.6457
 7393TIP3    H122143   5.847   6.030   2.070  1.2080  1.0899 -0.2116
 7393TIP3    H222144   5.864   5.902   1.991  0.7076  0.9245 -0.0548
 7394TIP3   OH222145   1.810   5.552   3.798  0.0101  0.6025 -0.1735
 7394TIP3    H122146   1.795   5.476   3.854 -0.7180  0.2600 -0.8222
 7394TIP3    H222147   1.755   5.537   3.721  0.0280  1.6815 -0.4111
 7395TIP3   OH222148   4.805   6.645   2.662 -0.1656 -0.1562  0.1637
 7395TIP3    H122149   4.730   6.585   2.664 -0.8031  0.6303  0.4277
 7395TIP3    H222150   4.790   6.704   2.736 -0.4352  1.3706 -1.0607
 7396TIP3   OH222151   5.914   6.110   5.712 -0.3300 -0.2205  0.1906
 7396TIP3    H122152   5.850   6.045   5.738 -0.4736 -0.3324 -0.4303
 7396TIP3    H222153   5.881   6.145   5.630  0.4144 -0.2955 -0.1507
 7397TIP3   OH222154   2.498   4.168   4.563  0.5394  0.3097 -0.3762
 7397TIP3    H122155   2.435   4.225   4.606  2.1600  0.2045  2.4099
 7397TIP3    H222156   2.516   4.099   4.628  2.6867 -0.2434 -1.4452
 7398TIP3   OH222157   7.234   5.641   5.413 -0.1608  0.2021  0.3468
 7398TIP3    H122158   7.152   5.595   5.396  0.8623 -1.4402 -0.4776
 7398TIP3    H222159   7.254   5.622   5.504  0.2607 -1.0728  0.0089
 7399TIP3   OH222160   6.727   1.393   4.658  0.1039 -0.2162 -0.3052
 7399TIP3    H122161   6.724   1.320   4.597 -0.8596 -1.3085  0.9807
 7399TIP3    H222162   6.820   1.416   4.663  0.1374  0.3276 -2.6075
 7400TIP3   OH222163   4.739   0.853   2.455 -0.0324  0.1949 -0.5402
 7400TIP3    H122164   4.698   0.903   2.385  0.2575  0.7753 -0.3043
 7400TIP3    H222165   4.677   0.783   2.474 -1.2875  1.4687  0.3218
 7401TIP3   OH222166   0.744   0.238   4.439 -0.0000 -0.4999  0.7387
 7401TIP3    H122167   0.791   0.222   4.521 -2.4043  0.1063  2.3423
 7401TIP3    H222168   0.770   0.326   4.413  2.0589 -1.3072 -0.1334
 7402TIP3   OH222169   3.420   5.285   4.450  0.5359  0.4002  0.4609
 7402TIP3    H122170   3.395   5.193   4.439 -2.0611  0.9815  0.8170
 7402TIP3    H222171   3.449   5.311   4.363  0.7250 -0.6038  0.2021
 7403TIP3   OH222172   3.327   0.216   1.679 -0.6678  0.0852  0.0742
 7403TIP3    H122173   3.250   0.173   1.641  0.6066 -2.0443 -0.2675
 7403TIP3    H222174   3.353   0.159   1.751  2.2771 -0.9854 -1.6333
 7404TIP3   OH222175   6.742   4.348   1.082  0.0159  0.6067  0.1532
 7404TIP3    H122176   6.754   4.290   1.007  1.7130 -0.7271  1.3667
 7404TIP3    H222177   6.685   4.298   1.142 -1.9267  1.9535 -0.4751
 7405TIP3   OH222178   2.512   4.630   1.845  0.1953 -0.6126  0.1239
 7405TIP3    H122179   2.444   4.636   1.778 -2.8262  0.8105  3.0268
 7405TIP3    H222180   2.545   4.720   1.854  0.7302 -0.8306  0.3977
 7406TIP3   OH222181   2.534   3.257   3.553  0.5415 -0.0012 -0.3956
 7406TIP3    H122182   2.445   3.286   3.575  1.1596  0.8077  1.1217
 7406TIP3    H222183   2.531   3.245   3.458 -1.1849  0.0311 -0.3852
 7407TIP3   OH222184   1.941   3.343   3.685 -0.2835 -0.4751 -0.2353
 7407TIP3    H122185   1.845   3.339   3.692 -0.3650 -2.3245 -1.6621
 7407TIP3    H222186   1.969   3.387   3.765 -2.4542  2.4680 -0.8848
 7408TIP3   OH222187   3.000   5.382   1.040  0.4206  0.5916  0.1258
 7408TIP3    H122188   2.968   5.410   1.127  0.9978  1.2931  0.1228
 7408TIP3    H222189   2.938   5.421   0.979  0.1011  0.2262  0.2139
 7409TIP3   OH222190   2.038   2.030   0.726 -0.4445  0.4200 -0.0658
 7409TIP3    H122191   2.118   2.081   0.743  0.2237 -0.5084 -0.2957
 7409TIP3    H222192   1.980   2.090   0.681 -0.4033  1.5270  1.2921
 7410TIP3   OH222193   6.716   3.360   4.010 -0.2464  0.3349 -0.0899
 7410TIP3    H122194   6.655   3.352   3.937 -0.8906  0.2185  0.4506
 7410TIP3    H222195   6.803   3.351   3.971 -0.6303 -2.4674 -0.4896
 7411TIP3   OH222196   3.339   1.528   5.593 -0.1572 -0.3176  0.3593
 7411TIP3    H122197   3.416   1.585   5.586 -0.5249  0.1242 -0.1062
 7411TIP3    H222198   3.297   1.534   5.508 -0.5476 -0.7925  0.5185
 7412TIP3   OH222199   4.422   5.231   4.561 -0.4089 -0.1438  0.1209
 7412TIP3    H122200   4.468   5.271   4.635  2.8158 -0.4676 -1.5365
 7412TIP3    H222201   4.392   5.305   4.508 -0.7716  0.0686  0.6187
 7413TIP3   OH222202   1.006   4.050   1.419  0.0116  0.3264 -0.3760
 7413TIP3    H122203   1.055   4.108   1.477 -0.5909  1.2814 -0.8038
 7413TIP3    H222204   0.914   4.067   1.440 -0.2278 -2.5650  1.5271
 7414TIP3   OH222205   1.178   0.305   4.445  0.1327  0.2228 -0.5105
 7414TIP3    H122206   1.168   0.347   4.359 -0.1135  1.0231 -0.1016
 7414TIP3    H222207   1.216   0.374   4.501  0.6473 -0.4082 -0.0723
 7415TIP3   OH222208   1.959   0.491   0.138 -0.1706  0.3477  0.1715
 7415TIP3    H122209   1.906   0.537   0.072 -0.4886  0.6028  0.5974
 7415TIP3    H222210   1.990   0.412   0.093 -2.3309 -0.7137  0.3972
 7416TIP3   OH222211   1.174   5.562   1.188 -0.1914  0.2528  0.0912
 7416TIP3    H122212   1.188   5.612   1.107  1.8301 -0.8590 -0.3176
 7416TIP3    H222213   1.227   5.608   1.254 -1.8680  1.1813  0.8476
 7417TIP3   OH222214   6.976   5.676   1.973 -0.3887 -0.0092  0.4259
 7417TIP3    H122215   7.071   5.677   1.967 -0.1876 -3.3535  1.1646
 7417TIP3    H222216   6.951   5.768   1.973  2.9330  1.0417  1.8808
 7418TIP3   OH222217   4.216   4.583   1.582 -0.2267 -0.4288 -0.1087
 7418TIP3    H122218   4.246   4.644   1.515  0.5268 -0.5811  0.0752
 7418TIP3    H222219   4.126   4.609   1.601 -0.7228 -0.8757 -1.7378
 7419TIP3   OH222220   1.031   0.862   4.177  0.0907 -0.4040 -0.7459
 7419TIP3    H122221   0.989   0.939   4.140 -0.3487 -0.6611 -0.7981
 7419TIP3    H222222   0.960   0.817   4.224  0.9067  0.6733  1.6944
 7420TIP3   OH222223   1.062   1.239   1.171 -0.0147 -0.5231  0.0087
 7420TIP3    H122224   1.006   1.291   1.230  2.1497 -0.6486  2.3430
 7420TIP3    H222225   1.121   1.304   1.131 -1.4341 -0.4463 -2.1085
 7421TIP3   OH222226   0.503   5.764   3.042 -0.1990  0.3038 -0.0088
 7421TIP3    H122227   0.512   5.855   3.015  0.7691  0.5108  0.9247
 7421TIP3    H222228   0.479   5.768   3.134 -2.5333 -0.3926 -0.5320
 7422TIP3   OH222229   4.343   2.689   2.519  0.2048  0.7120 -0.1599
 7422TIP3    H122230   4.412   2.751   2.542  2.0880 -1.4911  0.5561
 7422TIP3    H222231   4.313   2.654   2.603  0.0785 -0.2282 -0.5851
 7423TIP3   OH222232   4.038   0.897   5.649 -0.0769 -0.5606 -0.5550
 7423TIP3    H122233   4.026   0.940   5.564  0.2094 -0.1300 -0.3792
 7423TIP3    H222234   3.962   0.924   5.701 -0.4866 -1.1880 -0.8211
 7424TIP3   OH222235   0.687   2.432   5.181  0.0625  0.2610  0.1476
 7424TIP3    H122236   0.592   2.435   5.195 -0.3558 -1.9542 -1.5785
 7424TIP3    H222237   0.700   2.481   5.099  0.1157 -1.0390 -0.6388
 7425TIP3   OH222238   4.705   5.534   3.611  0.2048 -0.7616  0.7037
 7425TIP3    H122239   4.728   5.441   3.615  1.0270 -0.6144 -0.1499
 7425TIP3    H222240   4.669   5.546   3.523 -2.9555 -0.8931  1.8352
 7426TIP3   OH222241   2.374   6.236   2.297  0.5772 -0.0094 -0.3708
 7426TIP3    H122242   2.458   6.269   2.329  0.9828 -1.7202  0.4031
 7426TIP3    H222243   2.328   6.315   2.266  2.5370  0.9334 -1.0591
 7427TIP3   OH222244   5.117   6.364   1.972  0.1319 -0.1355  0.0100
 7427TIP3    H122245   5.207   6.330   1.975  0.0126 -0.3812  2.6508
 7427TIP3    H222246   5.125   6.456   1.995 -0.1087  0.4988 -2.1730
 7428TIP3   OH222247   2.099   3.693   3.759 -0.2152  0.1823  0.4994
 7428TIP3    H122248   2.029   3.678   3.696 -0.0024  0.7707  0.1129
 7428TIP3    H222249   2.146   3.769   3.725  0.0866  0.3226  1.2091
 7429TIP3   OH222250   1.875   0.328   1.309  0.2208  0.1823  0.2296
 7429TIP3    H122251   1.826   0.285   1.239 -0.3723  2.2777 -0.7313
 7429TIP3    H222252   1.908   0.256   1.363  0.9790 -1.5366 -2.3673
 7430TIP3   OH222253   1.630   0.609   1.144 -0.0181 -0.3822  0.0951
 7430TIP3    H122254   1.583   0.682   1.104  1.1038  0.5824  0.4817
 7430TIP3    H222255   1.602   0.609   1.235 -1.1918 -1.4407 -0.2340
 7431TIP3   OH222256   1.411   4.115   2.694  0.3642 -0.1516  0.1767
 7431TIP3    H122257   1.342   4.181   2.687 -0.7043 -1.0771  1.5241
 7431TIP3    H222258   1.378   4.040   2.646  2.4758  0.8522 -3.2209
 7432TIP3   OH222259   5.213   1.767   1.522 -0.3581 -0.0350 -0.4225
 7432TIP3    H122260   5.240   1.688   1.474  3.0341 -0.7185  2.2349
 7432TIP3    H222261   5.244   1.839   1.467 -0.9220 -0.5827 -1.5089
 7433TIP3   OH222262   5.742   1.116   1.052  0.5514 -0.5697  0.2198
 7433TIP3    H122263   5.733   1.106   1.147  1.6052 -1.2496  0.2637
 7433TIP3    H222264   5.796   1.043   1.025  2.7146  1.1784 -0.4872
 7434TIP3   OH222265   0.820   6.151   3.011  0.3054 -0.3269  0.1832
 7434TIP3    H122266   0.801   6.245   3.020 -1.0749 -0.6453  0.7101
 7434TIP3    H222267   0.908   6.141   3.049  0.1254  0.6180  0.8783
 7435TIP3   OH222268   1.976   5.279   2.878  0.0693 -0.0807 -0.6206
 7435TIP3    H122269   1.886   5.261   2.904  0.4884 -0.1393  0.9037
 7435TIP3    H222270   2.029   5.236   2.945  1.2215  0.7444 -0.9726
 7436TIP3   OH222271   3.461   0.346   5.593 -0.1565 -0.0911 -0.4257
 7436TIP3    H122272   3.540   0.376   5.547  1.4729 -1.5873  1.2088
 7436TIP3    H222273   3.453   0.406   5.667 -0.6050  0.0992 -0.6268
 7437TIP3   OH222274   3.923   3.565   4.335 -0.6070 -0.0944  0.1826
 7437TIP3    H122275   3.873   3.514   4.272 -0.5045 -1.0096  0.8311
 7437TIP3    H222276   3.906   3.524   4.420  0.8484 -0.1398  0.4892
 7438TIP3   OH222277   7.085   6.092   1.665  0.5703 -0.0495 -0.6794
 7438TIP3    H122278   7.090   6.011   1.716 -0.8927 -0.1446 -0.6572
 7438TIP3    H222279   7.043   6.067   1.583 -0.9139  0.8750 -0.2232
 7439TIP3   OH222280   5.621   2.672   4.338  0.6153  0.2445 -0.2770
 7439TIP3    H122281   5.591   2.633   4.256  0.9517  1.0362 -0.7830
 7439TIP3    H222282   5.707   2.633   4.353 -0.3372 -1.5817  0.8723
 7440TIP3   OH222283   2.662   6.596   5.197  0.0096 -0.6721 -0.2260
 7440TIP3    H122284   2.666   6.515   5.146 -1.5136 -0.5040 -0.6444
 7440TIP3    H222285   2.573   6.628   5.185  0.7590  1.3933 -0.5299
 7441TIP3   OH222286   7.146   5.352   4.164 -1.0222 -0.0195  0.5812
 7441TIP3    H122287   7.109   5.281   4.111 -1.2929  0.7862 -0.3335
 7441TIP3    H222288   7.230   5.372   4.123 -1.0036  0.2781  0.7593
 7442TIP3   OH222289   3.128   5.530   2.214 -0.0518 -0.2468 -0.0668
 7442TIP3    H122290   3.183   5.525   2.293  0.7533 -1.4520 -0.6728
 7442TIP3    H222291   3.058   5.467   2.230 -0.6094  0.4348  0.2090
 7443TIP3   OH222292   3.934   2.220   1.982 -0.4596 -0.5203 -0.4800
 7443TIP3    H122293   3.876   2.296   1.989 -0.2426 -0.4087  0.1668
 7443TIP3    H222294   4.006   2.239   2.042 -0.1986 -1.0589 -0.6135
 7444TIP3   OH222295   6.959   1.893   1.218 -0.0364  0.2477  0.1695
 7444TIP3    H122296   6.882   1.949   1.201  0.0640  0.3142 -0.0768
 7444TIP3    H222297   6.945   1.816   1.163 -1.2386 -0.9958  2.0878
 7445TIP3   OH222298   1.869   2.809   2.346  0.5048  0.1760 -0.2355
 7445TIP3    H122299   1.936   2.836   2.408 -0.0384 -0.0602  0.4577
 7445TIP3    H222300   1.861   2.883   2.285  1.3683  0.2131 -0.3104
 7446TIP3   OH222301   4.187   4.357   1.248  0.3803 -0.0149  0.2788
 7446TIP3    H122302   4.280   4.363   1.230  0.1869 -0.5490 -0.9926
 7446TIP3    H222303   4.157   4.283   1.195 -0.9779  0.8566 -0.2065
 7447TIP3   OH222304   0.485   3.549   4.903  0.0184 -0.1480 -0.2956
 7447TIP3    H122305   0.422   3.585   4.840 -0.3130  0.2522  0.2575
 7447TIP3    H222306   0.447   3.567   4.988  1.4883  1.2794  0.1169
 7448TIP3   OH222307   2.699   5.024   3.426 -0.4540 -0.1488 -0.0952
 7448TIP3    H122308   2.761   4.954   3.447 -0.0171 -0.0917 -1.1493
 7448TIP3    H222309   2.635   4.983   3.368 -0.0514  0.3683 -0.9274
 7449TIP3   OH222310   6.088   6.411   2.845 -0.2767  0.0196 -0.2316
 7449TIP3    H122311   6.148   6.345   2.812  0.2329  0.4103 -0.1106
 7449TIP3    H222312   6.075   6.471   2.772 -0.8257 -0.2724 -0.3761
 7450TIP3   OH222313   0.430   5.549   2.827 -0.3597 -0.5456 -0.5485
 7450TIP3    H122314   0.443   5.467   2.875  0.0083 -0.2370 -0.1154
 7450TIP3    H222315   0.417   5.615   2.895 -0.5939 -0.2340 -0.8939
 7451TIP3   OH222316   6.010   6.422   4.851 -0.2664  0.0800 -0.1026
 7451TIP3    H122317   5.993   6.351   4.789 -0.2755  0.1055 -0.1296
 7451TIP3    H222318   6.069   6.481   4.804 -0.9345  0.5297 -0.4006
 7452TIP3   OH222319   3.708   1.425   1.638 -0.2599  0.5637 -0.4206
 7452TIP3    H122320   3.738   1.504   1.683  1.3255 -0.0415 -0.3585
 7452TIP3    H222321   3.622   1.449   1.602 -0.5136  1.8049  0.9105
 7453TIP3   OH222322   3.792   2.616   2.383 -0.8210 -0.6518  0.5310
 7453TIP3    H122323   3.752   2.640   2.467 -1.1173 -0.0364  0.2243
 7453TIP3    H222324   3.880   2.588   2.406 -0.7371 -0.0211  1.0002
 7454TIP3   OH222325   6.383   6.151   5.664  0.3645  0.3674 -0.1579
 7454TIP3    H122326   6.471   6.186   5.653 -0.2191  1.7179 -0.7322
 7454TIP3    H222327   6.340   6.167   5.580 -1.2137  2.0868  0.8943
 7455TIP3   OH222328   6.847   1.652   3.823  0.4028  0.1109 -0.0757
 7455TIP3    H122329   6.836   1.562   3.793  0.9787 -0.2663  0.8113
 7455TIP3    H222330   6.940   1.670   3.811  0.0214  1.1351 -1.7068
 7456TIP3   OH222331   2.515   2.307   4.823 -0.0743 -0.1895  0.0147
 7456TIP3    H122332   2.440   2.255   4.852 -1.4683  1.1784 -0.9737
 7456TIP3    H222333   2.518   2.380   4.885 -0.1612  0.2658 -0.5147
 7457TIP3   OH222334   5.350   1.401   4.549 -0.0545 -0.5221 -0.0534
 7457TIP3    H122335   5.429   1.411   4.603 -0.0442 -1.8472  0.2211
 7457TIP3    H222336   5.313   1.489   4.544  2.5858  0.6325 -2.0060
 7458TIP3   OH222337   6.789   6.103   1.524  1.0778  0.0614  0.3122
 7458TIP3    H122338   6.870   6.061   1.496  0.8422 -0.8630  0.9400
 7458TIP3    H222339   6.743   6.124   1.443  1.7646  0.2405 -0.0382
 7459TIP3   OH222340   7.182   0.995   1.466 -0.0271  0.0028  0.5944
 7459TIP3    H122341   7.220   0.972   1.381  0.2773 -0.8576  0.9520
 7459TIP3    H222342   7.140   0.915   1.496  0.4410  0.0939  1.5544
 7460TIP3   OH222343   3.692   1.098   3.381 -0.5746 -0.0974 -0.3020
 7460TIP3    H122344   3.776   1.141   3.398 -0.5072 -0.5824  0.6486
 7460TIP3    H222345   3.628   1.151   3.429 -0.7016 -0.1883 -0.3715
 7461TIP3   OH222346   1.251   3.719   5.458  0.2251 -0.9799  0.0393
 7461TIP3    H122347   1.198   3.647   5.490 -1.6559 -0.7827 -2.3236
 7461TIP3    H222348   1.234   3.721   5.364 -0.2602  2.8850  0.0536
 7462TIP3   OH222349   6.816   4.448   4.077  0.3652 -0.0027 -0.1119
 7462TIP3    H122350   6.755   4.407   4.015 -0.2902 -1.0615  1.1748
 7462TIP3    H222351   6.859   4.375   4.121  0.7752  0.7187  0.7226
 7463TIP3   OH222352   4.934   6.005   2.362 -0.5693 -0.4696 -0.6403
 7463TIP3    H122353   5.003   6.001   2.428 -0.7847  1.6635 -0.2198
 7463TIP3    H222354   4.875   6.073   2.393 -1.6244 -0.6296 -2.1666
 7464TIP3   OH222355   1.017   4.982   4.990 -0.3737  0.2846  0.3744
 7464TIP3    H122356   1.103   5.023   4.990 -1.3450  2.4435  0.1013
 7464TIP3    H222357   1.022   4.916   4.921  1.8502 -1.5519  2.1211
 7465TIP3   OH222358   2.163   0.297   1.382 -0.4784  0.1155  0.5021
 7465TIP3    H122359   2.210   0.312   1.465 -0.2988 -2.0943  0.8677
 7465TIP3    H222360   2.194   0.367   1.324  3.0701 -0.9716  0.8300
 7466TIP3   OH222361   0.714   6.584   5.751 -0.2803  0.4766  0.1248
 7466TIP3    H122362   0.701   6.678   5.752 -1.0597  0.4358 -1.5707
 7466TIP3    H222363   0.688   6.554   5.838  0.2459  1.8425  0.7663
 7467TIP3   OH222364   6.038   5.030   5.519  0.0416  0.4820  0.1158
 7467TIP3    H122365   6.104   5.051   5.585  0.6203  1.6416 -0.7923
 7467TIP3    H222366   6.083   4.974   5.456 -0.6467 -1.0289  0.9283
 7468TIP3   OH222367   3.945   3.168   2.244 -0.4692 -0.1108 -0.0608
 7468TIP3    H122368   3.884   3.214   2.186 -0.9421  0.4216  0.8342
 7468TIP3    H222369   4.022   3.151   2.190 -0.2320  1.8408 -0.4052
 7469TIP3   OH222370   2.900   1.558   5.886  0.5925 -0.0785 -0.0633
 7469TIP3    H122371   2.854   1.635   5.853  0.4303  0.7161  1.9096
 7469TIP3    H222372   2.993   1.578   5.871  0.6416  1.1133  1.5632
 7470TIP3   OH222373   0.703   6.516   4.375 -0.5705 -0.8376 -0.1087
 7470TIP3    H122374   0.720   6.422   4.379 -2.9582 -1.3471  0.0020
 7470TIP3    H222375   0.619   6.527   4.420 -0.3485  1.3596 -0.1108
 7471TIP3   OH222376   6.230   5.828   2.160  0.1720 -0.1159 -0.5217
 7471TIP3    H122377   6.265   5.830   2.071  1.8851  0.7327  0.1457
 7471TIP3    H222378   6.303   5.801   2.215  0.2336  2.9130  1.0849
 7472TIP3   OH222379   3.517   2.339   5.724 -0.2345  0.3439  0.2756
 7472TIP3    H122380   3.519   2.356   5.630 -0.8160  1.7810  0.4964
 7472TIP3    H222381   3.469   2.412   5.761 -0.6239 -0.5502  1.6341
 7473TIP3   OH222382   6.549   6.482   5.752 -0.1909  0.1929  0.2601
 7473TIP3    H122383   6.605   6.516   5.821 -0.3966 -1.4032  1.2637
 7473TIP3    H222384   6.586   6.395   5.732 -0.3594  0.4631 -1.3772
 7474TIP3   OH222385   4.557   1.938   2.795  0.2190 -0.4342 -0.0754
 7474TIP3    H122386   4.597   2.020   2.822 -1.3111 -0.0028  1.0532
 7474TIP3    H222387   4.575   1.878   2.867  0.2130 -0.7050 -0.2971
 7475TIP3   OH222388   4.939   6.404   1.139  0.0999 -0.5621 -0.4944
 7475TIP3    H122389   4.857   6.358   1.155  0.6884 -1.5310 -0.1150
 7475TIP3    H222390   4.929   6.489   1.181 -0.4429 -0.9438  0.1608
 7476TIP3   OH222391   5.954   1.768   4.872 -0.0379 -0.2344  0.3114
 7476TIP3    H122392   6.031   1.812   4.908 -0.6488  0.6586  0.5642
 7476TIP3    H222393   5.883   1.830   4.887 -0.6405 -0.6593 -0.7372
 7477TIP3   OH222394   4.481   4.304   5.503 -1.0570 -0.0034  0.1610
 7477TIP3    H122395   4.426   4.298   5.582 -0.3013 -1.2969  0.6270
 7477TIP3    H222396   4.437   4.248   5.439 -0.2952 -1.0934  0.5553
 7478TIP3   OH222397   4.119   1.512   0.131  0.5830 -0.7542 -0.4455
 7478TIP3    H122398   4.201   1.555   0.108  0.3078  0.6369  0.9947
 7478TIP3    H222399   4.053   1.551   0.073  0.7473 -1.1517 -0.9129
 7479TIP3   OH222400   4.624   3.753   1.023  0.3407 -0.4660 -0.2035
 7479TIP3    H122401   4.551   3.703   1.059  0.2381 -0.4048 -0.3287
 7479TIP3    H222402   4.680   3.771   1.099  1.4811 -2.6068 -0.4541
 7480TIP3   OH222403   1.768   0.842   2.789  0.9858  0.4862  0.1980
 7480TIP3    H122404   1.768   0.771   2.853  1.2687 -0.3023 -0.6551
 7480TIP3    H222405   1.701   0.817   2.725  2.4193 -0.0140 -1.1711
 7481TIP3   OH222406   4.410   0.700   0.463  0.3861 -0.6727  0.1144
 7481TIP3    H122407   4.424   0.752   0.543 -0.6004  1.1502 -0.8340
 7481TIP3    H222408   4.421   0.763   0.392 -0.8835 -1.7534 -1.0922
 7482TIP3   OH222409   6.300   0.761   5.483  0.2130  0.5949 -0.5638
 7482TIP3    H122410   6.245   0.837   5.501 -0.6636 -0.5578  2.3279
 7482TIP3    H222411   6.315   0.763   5.389 -2.2452  2.6662 -1.0159
 7483TIP3   OH222412   3.249   5.379   4.668 -0.3323  0.3051  0.5550
 7483TIP3    H122413   3.174   5.425   4.632 -0.1474  0.5926  0.5392
 7483TIP3    H222414   3.304   5.359   4.592 -0.6049 -0.3019  0.5079
 7484TIP3   OH222415   2.391   4.381   5.275 -0.0061 -0.3017 -0.9623
 7484TIP3    H122416   2.354   4.345   5.194 -0.0679 -0.6070 -0.7977
 7484TIP3    H222417   2.459   4.319   5.301  0.0873 -0.1478 -0.8362
 7485TIP3   OH222418   4.828   1.345   0.430 -0.1605  0.3851 -0.7206
 7485TIP3    H122419   4.742   1.383   0.448  0.5825  1.5290  0.5609
 7485TIP3    H222420   4.831   1.266   0.485  0.9721  2.3250  2.2802
 7486TIP3   OH222421   4.162   2.103   4.320  0.0388 -0.7312  0.8617
 7486TIP3    H122422   4.154   2.103   4.415 -1.2028 -0.8468  0.7767
 7486TIP3    H222423   4.203   2.187   4.300  0.1710 -0.6407  1.4835
 7487TIP3   OH222424   0.983   1.723   5.502 -0.0004  0.8794 -0.1227
 7487TIP3    H122425   1.005   1.816   5.505 -0.0159  0.8661  2.5459
 7487TIP3    H222426   0.893   1.719   5.532  0.0523 -0.0042 -0.0729
 7488TIP3   OH222427   3.967   4.714   3.945  0.5838 -0.0149 -0.6955
 7488TIP3    H122428   3.994   4.629   3.977 -1.0474 -0.4939 -0.4933
 7488TIP3    H222429   3.969   4.772   4.021  2.9107  0.5093 -1.0671
 7489TIP3   OH222430   0.911   4.125   1.131 -0.0248  0.1653  0.6780
 7489TIP3    H122431   0.907   4.057   1.198 -3.0122  2.0021  2.6362
 7489TIP3    H222432   0.984   4.181   1.157  2.2387 -1.9179 -0.7605
 7490TIP3   OH222433   3.654   0.193   5.366 -0.8500  0.0041 -0.1913
 7490TIP3    H122434   3.620   0.277   5.335  0.4187  0.7986  0.4781
 7490TIP3    H222435   3.694   0.213   5.451  2.1175 -0.6097 -1.3151
 7491TIP3   OH222436   0.687   2.892   0.188 -0.2042 -0.3728 -0.3085
 7491TIP3    H122437   0.632   2.891   0.267 -0.6645  1.4976 -0.5550
 7491TIP3    H222438   0.625   2.889   0.115 -0.1467  2.6848 -0.6003
 7492TIP3   OH222439   3.797   5.691   5.884  0.1353 -0.2161  0.1825
 7492TIP3    H122440   3.779   5.600   5.862 -0.7747  0.1381 -0.6235
 7492TIP3    H222441   3.882   5.709   5.846  0.4106 -0.7846  0.5190
 7493TIP3   OH222442   5.061   1.922   4.575  0.1237 -0.4338 -0.3672
 7493TIP3    H122443   5.107   1.882   4.648  0.9826 -1.2982 -1.3426
 7493TIP3    H222444   4.972   1.938   4.608  0.2498 -1.5684  0.5930
 7494TIP3   OH222445   1.575   0.655   0.718 -0.0822  0.5374  0.3727
 7494TIP3    H122446   1.546   0.564   0.718  0.9881  0.1561 -1.2442
 7494TIP3    H222447   1.657   0.654   0.767 -0.2463  0.7023  0.6536
 7495TIP3   OH222448   2.209   1.331   3.447  0.4375 -0.2398  0.3931
 7495TIP3    H122449   2.186   1.278   3.523 -1.6477 -0.1337 -0.1150
 7495TIP3    H222450   2.155   1.297   3.376 -0.2811  1.9419 -0.1856
 7496TIP3   OH222451   6.192   2.287   3.301 -0.3528  0.1400  0.3190
 7496TIP3    H122452   6.193   2.228   3.377 -2.1997  1.4059  1.4061
 7496TIP3    H222453   6.235   2.366   3.332 -0.3347  0.3482 -0.2356
 7497TIP3   OH222454   6.757   3.908   0.421 -0.6030 -0.6953  0.6128
 7497TIP3    H122455   6.697   3.919   0.494 -0.6962 -2.2250  0.8120
 7497TIP3    H222456   6.828   3.854   0.456  0.6058  0.5656  0.2143
 7498TIP3   OH222457   5.328   2.951   1.028  0.3305  0.7113 -0.2952
 7498TIP3    H122458   5.251   2.895   1.037  0.6047  0.1256 -1.4670
 7498TIP3    H222459   5.358   2.965   1.118  1.2375 -2.4479  0.0087
 7499TIP3   OH222460   4.613   3.892   4.266  0.1827  0.0036 -0.1766
 7499TIP3    H122461   4.598   3.971   4.214 -0.0872  0.3294  0.3921
 7499TIP3    H222462   4.527   3.868   4.299  0.5086  0.4533  1.0484
 7500TIP3   OH222463   1.972   5.955   2.423 -0.2506  0.9466  0.0958
 7500TIP3    H122464   1.887   5.934   2.383  0.2967 -0.8721 -0.1965
 7500TIP3    H222465   1.975   5.900   2.502  1.1357  0.0374 -0.5488
 7501TIP3   OH222466   3.659   1.724   3.012 -0.3793 -1.2990  0.2987
 7501TIP3    H122467   3.624   1.687   2.931 -1.7395 -1.4227  0.9001
 7501TIP3    H222468   3.741   1.678   3.027  0.9427  0.1275 -2.0258
 7502TIP3   OH222469   4.983   4.824   0.817 -0.0157 -0.1395  0.5687
 7502TIP3    H122470   5.065   4.784   0.789  0.0538 -0.3332  1.0320
 7502TIP3    H222471   4.999   4.918   0.811 -0.5766 -0.1361 -1.6595
 7503TIP3   OH222472   5.907   2.006   4.039 -0.0514 -0.1949  0.0083
 7503TIP3    H122473   5.984   1.959   4.070  1.4512  2.6722  0.9626
 7503TIP3    H222474   5.857   2.025   4.119 -0.9061 -0.5542 -0.4222
 7504TIP3   OH222475   1.313   1.451   2.903  0.1194  0.1758 -0.3220
 7504TIP3    H122476   1.239   1.394   2.881 -0.0991  0.8570 -1.4827
 7504TIP3    H222477   1.277   1.511   2.969  0.2477 -0.7774  0.6343
 7505TIP3   OH222478   1.627   6.575   0.295 -0.2021  0.2689 -0.0027
 7505TIP3    H122479   1.572   6.651   0.277 -0.9878 -0.3903 -0.4581
 7505TIP3    H222480   1.657   6.546   0.209  1.5774  1.1153  0.2944
 7506TIP3   OH222481   0.271   4.523   2.687 -0.2755  0.1140  0.5261
 7506TIP3    H122482   0.281   4.435   2.650 -0.8182  0.7987 -1.3228
 7506TIP3    H222483   0.358   4.544   2.722  0.7923  0.0800 -1.9214
 7507TIP3   OH222484   6.647   1.996   0.847 -0.0089 -0.1556  0.1791
 7507TIP3    H122485   6.649   1.935   0.774 -1.9943 -1.7472  1.3506
 7507TIP3    H222486   6.589   2.067   0.817  0.3387 -0.0667 -0.2936
 7508TIP3   OH222487   6.590   4.226   4.878 -0.2523  0.3166  0.2355
 7508TIP3    H122488   6.509   4.263   4.841  0.4341  1.6463  0.0029
 7508TIP3    H222489   6.660   4.279   4.840  0.6239  0.3272  1.7911
 7509TIP3   OH222490   6.396   2.230   4.412 -0.1890  0.2238 -0.2737
 7509TIP3    H122491   6.470   2.286   4.435  0.2332 -1.1291  1.9403
 7509TIP3    H222492   6.380   2.248   4.319  3.2496  0.1760 -1.0111
 7510TIP3   OH222493   4.327   3.850   1.205  0.1586 -0.6595  0.5405
 7510TIP3    H122494   4.250   3.796   1.225 -0.5902  0.0349 -0.4092
 7510TIP3    H222495   4.305   3.894   1.123  0.9827  0.6796  1.0120
 7511TIP3   OH222496   4.801   4.288   2.101  0.1040 -0.4561  0.1585
 7511TIP3    H122497   4.833   4.301   2.190  1.5948 -1.3162 -0.1987
 7511TIP3    H222498   4.880   4.297   2.047 -0.5868 -0.9847 -0.9595
 7512TIP3   OH222499   3.884   2.311   5.121  0.9147  0.0861  0.1338
 7512TIP3    H122500   3.839   2.367   5.184  0.0601  0.5495 -0.8551
 7512TIP3    H222501   3.908   2.370   5.049 -1.8942 -1.0750 -1.9547
 7513TIP3   OH222502   1.410   2.002   3.068 -0.6462 -0.0007 -0.0405
 7513TIP3    H122503   1.318   2.025   3.082 -0.9960  0.2437 -2.3006
 7513TIP3    H222504   1.408   1.942   2.993  1.0051 -0.4364  0.2203
 7514TIP3   OH222505   1.232   0.386   1.257 -0.4764 -0.0149 -0.1686
 7514TIP3    H122506   1.286   0.393   1.336 -0.7086 -0.1553  0.0041
 7514TIP3    H222507   1.167   0.320   1.279 -0.5595 -0.0312 -0.4691
 7515TIP3   OH222508   4.027   2.559   3.715 -0.2186  0.5715  0.1034
 7515TIP3    H122509   3.933   2.571   3.705 -0.0356  0.4095 -2.5903
 7515TIP3    H222510   4.043   2.469   3.687  0.7934  0.7223  0.1605
 7516TIP3   OH222511   1.020   5.207   1.759 -0.4390  0.0779  0.2378
 7516TIP3    H122512   0.982   5.219   1.846 -1.4040 -0.9594 -0.0332
 7516TIP3    H222513   0.949   5.226   1.698  0.7161  2.8079 -0.4592
 7517TIP3   OH222514   5.104   2.908   5.556 -0.0725  0.3073  0.5330
 7517TIP3    H122515   5.092   2.828   5.505 -1.1606  0.7365  0.0717
 7517TIP3    H222516   5.146   2.969   5.495 -2.5479  1.2473 -0.3533
 7518TIP3   OH222517   5.004   2.699   0.575 -0.0838 -0.3408 -0.2637
 7518TIP3    H122518   4.983   2.700   0.668  0.1778 -0.3459 -0.2047
 7518TIP3    H222519   4.947   2.765   0.537 -1.3587 -1.4363 -0.3491
 7519TIP3   OH222520   4.386   5.389   3.429 -0.9625  0.1165  0.6101
 7519TIP3    H122521   4.432   5.416   3.349  0.1788 -1.5498  0.6506
 7519TIP3    H222522   4.317   5.329   3.398 -1.5277  0.6845  0.7564
 7520TIP3   OH222523   1.777   0.736   4.288 -0.2450  0.4275  0.5853
 7520TIP3    H122524   1.718   0.789   4.234 -1.5428  1.3701  2.7867
 7520TIP3    H222525   1.734   0.651   4.295  0.2693  0.0721 -0.3688
 7521TIP3   OH222526   4.757   0.160   1.412 -0.4172 -0.5408  0.6274
 7521TIP3    H122527   4.799   0.233   1.458 -1.1777  0.3140 -0.0052
 7521TIP3    H222528   4.789   0.082   1.457  0.5941  0.1663  1.1684
 7522TIP3   OH222529   5.760   0.706   0.421 -0.2123  0.8435 -0.2849
 7522TIP3    H122530   5.781   0.691   0.514  0.7931  2.5525 -0.2072
 7522TIP3    H222531   5.815   0.643   0.374 -0.5085  0.1657  0.2542
 7523TIP3   OH222532   0.661   5.461   4.122 -0.4898  0.2510 -0.1476
 7523TIP3    H122533   0.737   5.520   4.113 -0.5146  0.1538 -1.1465
 7523TIP3    H222534   0.588   5.519   4.143  0.1392  0.1792  2.6206
 7524TIP3   OH222535   7.141   2.721   4.587 -0.1612 -0.0388  0.0882
 7524TIP3    H122536   7.217   2.700   4.641 -0.6010  2.2108  1.7145
 7524TIP3    H222537   7.066   2.698   4.643 -0.6691 -0.3322 -0.6998
 7525TIP3   OH222538   4.880   4.487   5.844  0.1925 -0.3383  0.1545
 7525TIP3    H122539   4.812   4.433   5.803  0.3526 -1.1730  0.9519
 7525TIP3    H222540   4.961   4.459   5.802  0.1278  0.1816 -0.3225
 7526TIP3   OH222541   4.020   3.642   3.455 -0.0084  0.5724  0.3098
 7526TIP3    H122542   3.964   3.581   3.503 -0.2465  0.4890 -0.0688
 7526TIP3    H222543   4.108   3.606   3.466 -0.1322  0.2231  0.1853
 7527TIP3   OH222544   2.169   1.150   4.707 -0.0389  0.1016  0.0714
 7527TIP3    H122545   2.197   1.227   4.758 -1.0252 -0.9747  2.3601
 7527TIP3    H222546   2.074   1.146   4.718 -0.0171 -1.4086 -0.0289
 7528TIP3   OH222547   0.209   6.397   4.648 -0.2591 -0.6167  0.2314
 7528TIP3    H122548   0.194   6.491   4.642 -0.7649 -0.7821 -3.2717
 7528TIP3    H222549   0.129   6.358   4.614  1.4241 -2.0764 -2.4534
 7529TIP3   OH222550   4.481   4.250   0.836 -0.3495 -0.5550  0.1683
 7529TIP3    H122551   4.394   4.262   0.872 -1.2640  1.2478 -2.2870
 7529TIP3    H222552   4.470   4.185   0.766 -0.2886  1.2173 -1.5834
 7530TIP3   OH222553   0.754   2.868   4.224 -0.6202  0.2355  0.2362
 7530TIP3    H122554   0.752   2.775   4.205 -0.6537 -0.0327  1.4247
 7530TIP3    H222555   0.662   2.894   4.232 -0.6273  0.4979 -0.6209
 7531TIP3   OH222556   5.277   2.731   1.422 -0.4157 -0.1940 -0.3225
 7531TIP3    H122557   5.321   2.752   1.339 -1.6362  0.6880 -0.7783
 7531TIP3    H222558   5.348   2.713   1.483  0.5880  1.3386 -0.9869
 7532TIP3   OH222559   3.638   1.793   4.987 -0.0515 -0.1850 -0.5975
 7532TIP3    H122560   3.641   1.825   4.897  2.0119 -2.6541 -1.5267
 7532TIP3    H222561   3.620   1.699   4.979 -1.0557 -0.2521  1.6565
 7533TIP3   OH222562   0.730   4.182   4.447 -0.3826 -0.7812  0.7087
 7533TIP3    H122563   0.648   4.133   4.444 -0.7972 -0.1461  1.3227
 7533TIP3    H222564   0.722   4.245   4.375 -0.9853  0.1073  1.5323
 7534TIP3   OH222565   7.148   3.167   1.085  0.3394 -0.5954  0.4029
 7534TIP3    H122566   7.191   3.252   1.096 -0.6877 -0.0452  0.2901
 7534TIP3    H222567   7.092   3.159   1.163 -1.4535 -0.0055 -0.7633
 7535TIP3   OH222568   2.138   1.974   5.357  0.3454  0.2216  0.3288
 7535TIP3    H122569   2.072   1.974   5.288  1.3106 -1.7358 -0.6831
 7535TIP3    H222570   2.208   2.031   5.325  0.6806 -0.4890 -0.2505
 7536TIP3   OH222571   2.462   1.220   3.666 -0.2154 -0.2061 -0.5541
 7536TIP3    H122572   2.383   1.182   3.703 -0.3817  1.1531  0.5642
 7536TIP3    H222573   2.432   1.299   3.622  0.4456  0.0016 -0.6411
 7537TIP3   OH222574   2.462   4.833   1.362  0.2110  0.0097 -0.0857
 7537TIP3    H122575   2.540   4.820   1.416  0.1418 -0.9900 -0.1924
 7537TIP3    H222576   2.455   4.927   1.351  1.0538  0.1436  0.4409
 7538TIP3   OH222577   1.110   1.803   0.394 -0.2833  0.1891  0.1954
 7538TIP3    H122578   1.043   1.742   0.364 -1.5291  1.2464  0.7460
 7538TIP3    H222579   1.062   1.874   0.436  1.2349  0.5083  1.4962
 7539TIP3   OH222580   4.371   2.544   0.415 -0.2953 -0.1322 -0.2836
 7539TIP3    H122581   4.419   2.609   0.363 -0.2249 -0.7521 -0.9998
 7539TIP3    H222582   4.425   2.532   0.493  1.2639 -1.5315 -1.5039
 7540TIP3   OH222583   3.055   3.711   3.958  0.1618  0.4377 -0.7393
 7540TIP3    H122584   3.026   3.802   3.969  0.0255  0.3330 -0.1679
 7540TIP3    H222585   3.151   3.716   3.959  0.3879  0.1584  4.1894
 7541TIP3   OH222586   5.860   5.192   1.799 -0.5168  0.7469  0.1177
 7541TIP3    H122587   5.897   5.144   1.873  1.4883 -0.5817 -1.6443
 7541TIP3    H222588   5.846   5.126   1.732 -1.5489  2.0277 -0.9798
 7542TIP3   OH222589   6.095   1.523   3.320  0.0409  0.2941  0.2316
 7542TIP3    H122590   6.041   1.575   3.260 -0.0028  0.1240  0.1233
 7542TIP3    H222591   6.068   1.433   3.304  1.9277 -0.0452 -1.4485
 7543TIP3   OH222592   5.460   0.777   4.499 -0.1792 -0.1449 -0.8013
 7543TIP3    H122593   5.510   0.846   4.544  0.3024 -0.4121 -0.9130
 7543TIP3    H222594   5.528   0.719   4.463 -0.5440  0.1555 -2.0095
 7544TIP3   OH222595   3.063   1.907   4.246 -0.1498  0.3123 -0.9723
 7544TIP3    H122596   3.023   1.836   4.297 -0.2848  0.1586 -1.2922
 7544TIP3    H222597   3.008   1.983   4.266  1.2877  0.8966  1.1469
 7545TIP3   OH222598   5.525   5.976   5.453 -0.3372  0.0475  0.4841
 7545TIP3    H122599   5.477   5.933   5.383 -0.5927 -0.5072  0.9904
 7545TIP3    H222600   5.470   6.051   5.477  0.0451  0.5875 -0.3098
 7546TIP3   OH222601   3.864   0.638   2.163 -0.0910 -0.5652 -0.1952
 7546TIP3    H122602   3.845   0.715   2.215  2.1854 -0.0545 -0.0146
 7546TIP3    H222603   3.815   0.651   2.081  1.5295  1.9617 -0.8727
 7547TIP3   OH222604   3.694   5.884   4.034 -0.6383 -0.0129  0.2348
 7547TIP3    H122605   3.694   5.799   4.078  1.3508 -0.0727  0.1945
 7547TIP3    H222606   3.786   5.906   4.025 -1.0925  1.5110 -1.0205
 7548TIP3   OH222607   0.246   6.503   2.534 -0.7794  0.0365  0.1219
 7548TIP3    H122608   0.273   6.427   2.586  1.1679 -0.1391 -1.0431
 7548TIP3    H222609   0.185   6.467   2.470 -1.3213 -0.1797  0.7437
 7549TIP3   OH222610   2.147   4.668   3.326 -0.3345  0.2198  0.1672
 7549TIP3    H122611   2.106   4.648   3.410  0.2696 -2.2709 -0.0542
 7549TIP3    H222612   2.227   4.715   3.349 -0.0700 -0.6083  1.0201
 7550TIP3   OH222613   3.938   6.791   4.838  0.2338  0.6222  0.1756
 7550TIP3    H122614   3.943   6.807   4.743  3.6092 -0.6185  0.0306
 7550TIP3    H222615   4.028   6.797   4.868 -0.4942 -0.9890  3.0044
 7551TIP3   OH222616   6.747   1.339   0.511 -0.0274 -0.3065 -0.2745
 7551TIP3    H122617   6.767   1.426   0.543  1.3736 -1.0086  0.8288
 7551TIP3    H222618   6.797   1.280   0.567  0.8337 -1.7092 -2.3868
 7552TIP3   OH222619   0.168   1.149   5.653  0.3472  0.0195 -0.7639
 7552TIP3    H122620   0.232   1.078   5.642 -0.8829 -1.0198 -1.5463
 7552TIP3    H222621   0.153   1.182   5.564  0.5728  0.9782 -0.4566
 7553TIP3   OH222622   1.167   3.302   0.324 -0.3238 -0.0862 -0.1879
 7553TIP3    H122623   1.072   3.308   0.314 -0.4212 -1.5579 -0.2644
 7553TIP3    H222624   1.194   3.234   0.262  0.8074  0.4182 -0.2806
 7554TIP3   OH222625   6.383   5.327   1.888  0.5038  0.2194 -0.7668
 7554TIP3    H122626   6.332   5.392   1.938  1.8058  0.4044  0.3710
 7554TIP3    H222627   6.327   5.250   1.886  0.1506  0.4199  0.4443
 7555TIP3   OH222628   4.972   1.205   3.145  0.7761  0.7281  0.6096
 7555TIP3    H122629   5.030   1.154   3.201  1.5954  0.1561 -0.7334
 7555TIP3    H222630   5.030   1.259   3.092 -0.0021  1.5079  0.5177
 7556TIP3   OH222631   1.413   1.379   2.132  0.3536 -0.0958  0.2991
 7556TIP3    H122632   1.324   1.383   2.098  0.6353 -0.7219 -0.5615
 7556TIP3    H222633   1.409   1.318   2.205 -0.2592  1.2451  1.4333
 7557TIP3   OH222634   4.494   5.534   4.560  0.4670 -0.5182 -0.4055
 7557TIP3    H122635   4.518   5.561   4.649  0.3898 -0.9117 -0.2656
 7557TIP3    H222636   4.421   5.591   4.537  1.4808  0.6744 -0.8165
 7558TIP3   OH222637   5.486   2.268   1.757  0.2330  0.1067  0.4826
 7558TIP3    H122638   5.421   2.199   1.747  0.4700 -0.1603  0.8001
 7558TIP3    H222639   5.505   2.271   1.851  2.0251 -1.0474  0.1943
 7559TIP3   OH222640   6.437   5.292   2.824  0.5187 -0.2421 -0.1505
 7559TIP3    H122641   6.420   5.205   2.786  0.7244 -0.9203  1.2356
 7559TIP3    H222642   6.353   5.337   2.817  0.5644 -0.3014 -1.4507
 7560TIP3   OH222643   7.192   2.849   0.230 -0.5144 -0.7543 -0.6410
 7560TIP3    H122644   7.219   2.876   0.318 -1.7884  1.0075 -0.7417
 7560TIP3    H222645   7.189   2.753   0.235  0.1248 -0.7261  1.0127
 7561TIP3   OH222646   3.810   6.050   5.351 -0.5007  0.0593 -0.0156
 7561TIP3    H122647   3.767   6.098   5.281 -0.5217  0.5902  0.3505
 7561TIP3    H222648   3.800   6.106   5.428 -0.2201 -0.3746  0.3443
 7562TIP3   OH222649   4.673   5.460   3.921  0.0992 -0.2370 -0.7402
 7562TIP3    H122650   4.630   5.528   3.973 -0.8767 -1.8378  0.6370
 7562TIP3    H222651   4.705   5.506   3.843 -0.6929  1.7427  0.0478
 7563TIP3   OH222652   0.014   2.004   5.765 -0.4380 -0.0724  0.3556
 7563TIP3    H122653   0.050   1.944   5.831  1.6229  0.5077 -0.1710
 7563TIP3    H222654   0.000   2.086   5.813  1.7662  0.5774 -0.0176
 7564TIP3   OH222655   0.078   3.085   5.744 -0.5375 -0.0134  0.7452
 7564TIP3    H122656   0.103   3.081   5.652 -0.4454  0.6528  0.7350
 7564TIP3    H222657  -0.017   3.096   5.743 -0.6060 -0.5656  0.7462
 7565TIP3   OH222658   1.150   5.440   3.574  0.2826  0.0693  0.4863
 7565TIP3    H122659   1.231   5.392   3.556 -0.0029  0.3468 -1.7922
 7565TIP3    H222660   1.080   5.379   3.549 -0.1421  0.8388 -0.1985
 7566TIP3   OH222661   0.095   4.663   4.568  0.4946  0.2637  0.1191
 7566TIP3    H122662   0.157   4.721   4.612 -1.5785  1.9760  0.9602
 7566TIP3    H222663   0.074   4.596   4.633  1.4325 -0.3327 -0.1757
 7567TIP3   OH222664   0.627   1.425   1.350  0.0712 -0.0060 -0.3677
 7567TIP3    H122665   0.553   1.485   1.349  0.0979  0.0485  0.2817
 7567TIP3    H222666   0.671   1.439   1.267  0.8278  1.8143  0.3101
 7568TIP3   OH222667   5.904   2.212   0.294  0.7900  0.6259  0.0240
 7568TIP3    H122668   5.933   2.276   0.360 -1.3459 -0.1595  1.8215
 7568TIP3    H222669   5.950   2.131   0.318  2.1535  1.0001 -1.2021
 7569TIP3   OH222670   2.459   0.072   4.068  0.3003 -0.5531  0.2265
 7569TIP3    H122671   2.546   0.098   4.099  0.6253 -2.9524  1.5335
 7569TIP3    H222672   2.473   0.048   3.976  0.6425  0.5787 -0.0412
 7570TIP3   OH222673   2.863   0.604   3.299  0.0562  0.5136  0.3595
 7570TIP3    H122674   2.873   0.574   3.208 -1.2279 -0.1738  0.4181
 7570TIP3    H222675   2.943   0.574   3.342 -0.1869 -0.9105 -0.1124
 7571TIP3   OH222676   4.348   5.524   2.030 -0.4252 -0.4240  0.4375
 7571TIP3    H122677   4.412   5.526   1.959  1.4165  1.4954  1.9989
 7571TIP3    H222678   4.402   5.527   2.110 -2.4362  1.8808  1.8331
 7572TIP3   OH222679   0.489   5.779   1.948  0.1136  0.5390 -0.0617
 7572TIP3    H122680   0.441   5.715   2.000  3.2239 -0.8393  1.3115
 7572TIP3    H222681   0.432   5.795   1.872 -1.9490 -1.7910  0.8600
 7573TIP3   OH222682   3.184   1.466   0.101 -0.4452  0.1604  0.4643
 7573TIP3    H122683   3.218   1.419   0.177  0.8354  0.9518  0.4223
 7573TIP3    H222684   3.156   1.551   0.135 -1.2104 -0.0031  0.2731
 7574TIP3   OH222685   4.153   0.556   0.144  0.2336  0.1417 -0.0010
 7574TIP3    H122686   4.155   0.652   0.140  0.5120  0.2125  1.3068
 7574TIP3    H222687   4.067   0.536   0.181  0.5414 -0.0585  0.6239
 7575TIP3   OH222688   3.861   1.470   4.386  0.1538  0.0534  0.4974
 7575TIP3    H122689   3.880   1.536   4.452  2.3222 -0.6235  0.6291
 7575TIP3    H222690   3.864   1.387   4.432 -0.9458 -0.2827  0.0163
 7576TIP3   OH222691   3.140   2.880   5.795 -0.3399  0.5279 -0.1147
 7576TIP3    H122692   3.089   2.804   5.766  1.8513 -0.7786 -0.7891
 7576TIP3    H222693   3.074   2.941   5.829 -2.4765 -0.3860 -2.2803
 7577TIP3   OH222694   1.875   2.650   5.634 -0.4993 -0.0415  0.3672
 7577TIP3    H122695   1.953   2.612   5.674 -0.2433  0.1808  0.0904
 7577TIP3    H222696   1.875   2.741   5.662  0.3092  0.4239 -1.0068
 7578TIP3   OH222697   0.648   2.460   3.792  0.0324 -0.4705 -0.2074
 7578TIP3    H122698   0.648   2.371   3.826  1.4471  0.1207  1.5209
 7578TIP3    H222699   0.620   2.514   3.866  1.2533  0.6980 -0.5592
 7579TIP3   OH222700   1.809   0.922   2.448  0.1052 -0.7141 -0.3160
 7579TIP3    H122701   1.716   0.912   2.471  0.1212 -0.5850 -0.1917
 7579TIP3    H222702   1.815   1.012   2.416  0.5200 -0.1412  1.2848
 7580TIP3   OH222703   0.510   3.391   2.679  0.1629 -0.0278 -0.1692
 7580TIP3    H122704   0.567   3.396   2.602  0.5962 -0.0774  0.1446
 7580TIP3    H222705   0.458   3.471   2.675  0.5493  0.2225 -0.2334
 7581TIP3   OH222706   6.050   4.357   2.388  0.3456 -0.0284  0.0311
 7581TIP3    H122707   6.133   4.393   2.418  0.7401 -1.1239  0.2985
 7581TIP3    H222708   5.995   4.353   2.466 -0.7385  2.5813 -0.4687
 7582TIP3   OH222709   3.962   5.973   4.070 -0.0123  0.0035 -0.2193
 7582TIP3    H122710   4.051   5.954   4.040 -0.4976 -1.8466 -0.5889
 7582TIP3    H222711   3.971   5.983   4.165  0.4987 -0.7677 -0.1811
 7583TIP3   OH222712   1.455   1.194   5.111 -0.3355 -0.0046 -0.3598
 7583TIP3    H122713   1.442   1.099   5.112  1.4811 -0.2843 -0.4599
 7583TIP3    H222714   1.453   1.220   5.203 -0.2291 -0.2254 -0.2967
 7584TIP3   OH222715   3.492   1.124   1.456 -0.5445 -0.1146 -0.7600
 7584TIP3    H122716   3.479   1.032   1.433 -2.3867  0.4477 -2.1554
 7584TIP3    H222717   3.477   1.128   1.551 -1.4709 -1.0861 -0.8598
 7585TIP3   OH222718   1.676   0.242   1.935 -0.1045 -0.5804  0.1016
 7585TIP3    H122719   1.630   0.321   1.964 -1.4331  0.1507 -3.5416
 7585TIP3    H222720   1.756   0.240   1.988  0.3799  3.6395 -0.1215
 7586TIP3   OH222721   6.718   2.180   3.319 -0.1872  0.3423 -0.3828
 7586TIP3    H122722   6.693   2.221   3.402 -0.2824 -1.7889  0.7083
 7586TIP3    H222723   6.809   2.153   3.333 -0.8401 -1.8602 -0.1762
 7587TIP3   OH222724   4.651   4.128   4.121 -0.4872 -0.0099  0.0120
 7587TIP3    H122725   4.643   4.201   4.183  2.2163  1.0928 -0.7660
 7587TIP3    H222726   4.744   4.126   4.099 -0.8593 -2.3201 -1.7083
 7588TIP3   OH222727   0.956   0.150   2.601 -0.3324 -0.7074  0.2620
 7588TIP3    H122728   1.024   0.090   2.633 -1.1893 -1.9844 -0.2352
 7588TIP3    H222729   0.968   0.229   2.654  0.5222 -1.4789  1.2887
 7589TIP3   OH222730   5.855   3.034   5.664 -0.1576 -0.4216 -0.1633
 7589TIP3    H122731   5.824   3.092   5.733  0.3978 -1.6773  1.1901
 7589TIP3    H222732   5.933   2.992   5.701  1.4814  0.4372 -2.3339
 7590TIP3   OH222733   2.146   2.984   4.203 -0.6326  0.4118  0.1413
 7590TIP3    H122734   2.238   3.007   4.213  0.1082 -2.0006 -0.4534
 7590TIP3    H222735   2.124   3.012   4.114 -0.3597  0.6071  0.1331
 7591TIP3   OH222736   7.151   0.182   1.848 -0.0031  0.4919  0.0874
 7591TIP3    H122737   7.162   0.125   1.925 -0.0001  0.0811 -0.2137
 7591TIP3    H222738   7.070   0.229   1.865 -0.2215  0.0974  0.1517
 7592TIP3   OH222739   6.671   5.840   5.539  0.2028 -0.0728 -0.2172
 7592TIP3    H122740   6.576   5.834   5.549  0.1481  0.8725 -0.0711
 7592TIP3    H222741   6.691   5.787   5.462 -0.0654 -2.7726  1.4100
 7593TIP3   OH222742   7.177   2.801   5.858  0.2222 -0.3247 -0.2372
 7593TIP3    H122743   7.211   2.735   5.798 -0.0504  0.1483 -0.9210
 7593TIP3    H222744   7.153   2.875   5.802 -3.8551 -1.3138 -0.1277
 7594TIP3   OH222745   1.531   3.335   0.523  0.1720 -0.0496  0.2308
 7594TIP3    H122746   1.436   3.342   0.517 -0.0246 -1.2879  1.4800
 7594TIP3    H222747   1.549   3.331   0.617  1.5320  0.9501  0.0391
 7595TIP3   OH222748   6.732   4.881   2.882 -0.2564 -0.2629  0.3014
 7595TIP3    H122749   6.781   4.846   2.957 -1.0688 -1.0156  0.4981
 7595TIP3    H222750   6.705   4.804   2.833 -0.5607  0.1827 -0.2426
 7596TIP3   OH222751   5.472   3.870   1.262 -0.4961 -0.3965 -0.2654
 7596TIP3    H122752   5.523   3.858   1.342  1.2661  1.6072 -0.9827
 7596TIP3    H222753   5.381   3.866   1.291  0.0782  0.9773  2.0019
 7597TIP3   OH222754   0.560   6.624   5.489 -0.4277 -0.8898  0.2033
 7597TIP3    H122755   0.548   6.622   5.584  1.1735 -0.1953  0.4575
 7597TIP3    H222756   0.641   6.576   5.474  0.3920  0.6662 -0.5932
 7598TIP3   OH222757   6.217   3.391   0.143  0.6071 -0.2281  1.0020
 7598TIP3    H122758   6.176   3.328   0.203  1.6482 -1.1614  0.7707
 7598TIP3    H222759   6.209   3.351   0.057  2.4137 -0.6952  1.0120
 7599TIP3   OH222760   2.764   6.534   5.611 -0.3043  0.1623 -0.1819
 7599TIP3    H122761   2.760   6.463   5.547 -0.8799  0.6510 -0.7011
 7599TIP3    H222762   2.701   6.598   5.580 -0.6338  0.3932  0.9112
 7600TIP3   OH222763   1.465   1.660   4.413  0.7564  0.5393  0.5800
 7600TIP3    H122764   1.374   1.631   4.415  0.9910 -0.3400 -0.6903
 7600TIP3    H222765   1.460   1.753   4.435 -0.5650  0.7441 -0.4441
 7601TIP3   OH222766   6.702   1.856   2.785  0.3454  0.0896 -0.7423
 7601TIP3    H122767   6.790   1.866   2.749  0.2658  1.2916 -0.6616
 7601TIP3    H222768   6.699   1.766   2.817  1.8250  0.2439 -0.0554
 7602TIP3   OH222769   3.367   2.525   0.896  0.7204 -0.3555 -0.4028
 7602TIP3    H122770   3.346   2.571   0.814  2.2126  1.8138  0.3455
 7602TIP3    H222771   3.304   2.560   0.959  0.5643 -0.8870 -0.2589
 7603TIP3   OH222772   1.926   0.875   1.461 -0.0946  0.0576  0.1178
 7603TIP3    H122773   1.890   0.795   1.499 -0.1633 -1.6909 -3.2628
 7603TIP3    H222774   2.004   0.894   1.514 -0.9184 -1.3400  1.9360
 7604TIP3   OH222775   5.155   4.146   2.173 -0.5410  0.2310  0.4253
 7604TIP3    H122776   5.142   4.181   2.261 -0.4848 -1.4739  1.1536
 7604TIP3    H222777   5.092   4.075   2.166  0.6926 -0.8461 -0.2016
 7605TIP3   OH222778   1.481   3.543   4.879  0.2190 -0.2965 -0.6366
 7605TIP3    H122779   1.390   3.567   4.897  0.6335  0.0811  1.1053
 7605TIP3    H222780   1.475   3.477   4.810 -1.2553  1.0030 -1.8334
 7606TIP3   OH222781   2.761   1.096   1.597  0.4930  0.2676 -0.2397
 7606TIP3    H122782   2.795   1.142   1.520 -1.0711  0.1577 -1.0407
 7606TIP3    H222783   2.667   1.088   1.580 -0.0213  0.8927  2.0239
 7607TIP3   OH222784   3.288   2.662   1.893  0.5459 -0.1821  0.1306
 7607TIP3    H122785   3.288   2.745   1.941  1.9751 -0.0862  0.0372
 7607TIP3    H222786   3.254   2.685   1.806  1.8487  0.5605 -0.2226
 7608TIP3   OH222787   4.174   2.741   1.497 -0.0747  0.3199 -0.2938
 7608TIP3    H122788   4.160   2.788   1.579  0.1894  1.0182 -0.6372
 7608TIP3    H222789   4.108   2.775   1.438  0.1235  0.2634 -0.5513
 7609TIP3   OH222790   3.386   0.541   2.030 -0.7457 -0.1698  0.7141
 7609TIP3    H122791   3.392   0.606   2.100  0.9865  0.0846  0.3750
 7609TIP3    H222792   3.418   0.460   2.070  1.0915  0.1646  0.0628
 7610TIP3   OH222793   2.495   4.207   4.929  0.3319  0.2833 -0.3352
 7610TIP3    H122794   2.411   4.226   4.887 -0.3468  0.2357  0.9415
 7610TIP3    H222795   2.473   4.145   4.999  1.7096 -1.1070 -1.0736
 7611TIP3   OH222796   7.032   4.357   3.299  0.2651  0.2801  0.0422
 7611TIP3    H122797   7.081   4.280   3.327  1.9990  0.9531 -0.9477
 7611TIP3    H222798   7.079   4.431   3.339  1.6955  1.1349 -2.9654
 7612TIP3   OH222799   2.614   0.255   0.851  0.7041  0.2691  0.8344
 7612TIP3    H122800   2.538   0.289   0.805 -0.6176 -0.6139  2.2621
 7612TIP3    H222801   2.580   0.225   0.936  2.1152 -2.5247  0.5573
 7613TIP3   OH222802   6.439   6.148   4.876  0.0023 -0.2911  0.2864
 7613TIP3    H122803   6.483   6.135   4.792  0.6897 -1.1412  0.7695
 7613TIP3    H222804   6.453   6.240   4.896 -0.9624  0.1715 -0.9587
 7614TIP3   OH222805   6.168   1.914   4.955  0.5548  0.6669 -0.2832
 7614TIP3    H122806   6.172   2.005   4.985  1.7570  0.6493 -0.3427
 7614TIP3    H222807   6.251   1.900   4.910  0.2087 -0.3432 -0.6272
 7615TIP3   OH222808   3.807   4.402   3.455  0.0378 -0.5619  0.2233
 7615TIP3    H122809   3.782   4.433   3.541  2.3064 -0.0864  0.7790
 7615TIP3    H222810   3.848   4.317   3.471 -1.7404 -1.6521 -0.7193
 7616TIP3   OH222811   2.797   6.315   5.469  0.3086  0.3445 -0.5370
 7616TIP3    H122812   2.767   6.230   5.438 -1.5771  1.2851 -1.4823
 7616TIP3    H222813   2.882   6.328   5.426  0.2272 -0.6964 -1.0284
 7617TIP3   OH222814   6.161   5.195   0.469  0.1925  0.3356 -0.2032
 7617TIP3    H122815   6.139   5.115   0.516 -0.3625  0.2167 -0.6461
 7617TIP3    H222816   6.098   5.198   0.397  0.1182  1.2383 -0.1117
 7618TIP3   OH222817   7.157   1.725   3.786 -0.2686  1.0099  0.3986
 7618TIP3    H122818   7.211   1.648   3.770 -0.3564  0.9870  0.2081
 7618TIP3    H222819   7.196   1.767   3.863  0.2472  1.1987  0.0410
 7619TIP3   OH222820   2.648   3.103   1.338  0.0590  0.0233  0.2660
 7619TIP3    H122821   2.690   3.056   1.411  0.2119  0.6229  0.5679
 7619TIP3    H222822   2.585   3.161   1.380 -0.8686 -0.6440 -0.1680
 7620TIP3   OH222823   3.201   1.207   1.316 -0.4306  0.3781 -0.0964
 7620TIP3    H122824   3.289   1.176   1.335 -1.0779 -1.2792  0.3662
 7620TIP3    H222825   3.175   1.254   1.395 -0.0957  0.5459 -0.0860
 7621TIP3   OH222826   2.955   0.793   0.141 -0.0602  0.0479 -0.1294
 7621TIP3    H122827   2.863   0.803   0.116 -0.2589  2.4694  1.2669
 7621TIP3    H222828   2.952   0.754   0.228  0.2983 -0.8450 -0.5088
 7622TIP3   OH222829   3.226   5.673   5.148  0.3501 -0.0552  0.4276
 7622TIP3    H122830   3.224   5.578   5.134 -0.4807 -0.3415  2.1537
 7622TIP3    H222831   3.140   5.704   5.120  0.2690  0.0365  0.7750
 7623TIP3   OH222832   5.114   5.507   4.879 -0.0480  0.4228  0.4104
 7623TIP3    H122833   5.060   5.443   4.833 -1.1562 -0.5355  2.8794
 7623TIP3    H222834   5.159   5.555   4.809 -2.4605 -0.1549 -1.6926
 7624TIP3   OH222835   0.943   6.662   2.911  0.9058  0.1046 -0.0305
 7624TIP3    H122836   0.913   6.675   2.821  0.3610 -0.5633  0.0480
 7624TIP3    H222837   0.928   6.746   2.954 -0.3747 -0.0556 -0.1379
 7625TIP3   OH222838   4.880   6.782   0.067 -0.3940 -0.0492 -0.0782
 7625TIP3    H122839   4.962   6.738   0.044 -0.7154 -0.3537 -0.6670
 7625TIP3    H222840   4.903   6.838   0.141  0.8188  1.3843 -1.4646
 7626TIP3   OH222841   0.270   6.033   4.796  0.3378  0.4759 -0.4697
 7626TIP3    H122842   0.249   5.968   4.864 -1.1731 -0.9092 -2.1130
 7626TIP3    H222843   0.200   6.098   4.803 -0.8087 -0.5467 -1.6432
 7627TIP3   OH222844   3.937   2.873   4.594 -0.4206  0.0478 -0.3916
 7627TIP3    H122845   3.946   2.964   4.623 -3.4140  0.0980  0.7302
 7627TIP3    H222846   3.899   2.828   4.670  1.4125 -2.3017 -0.7620
 7628TIP3   OH222847   5.863   2.466   4.600 -0.2183  0.2057 -0.2656
 7628TIP3    H122848   5.852   2.470   4.505  0.6364  3.0012 -0.3363
 7628TIP3    H222849   5.923   2.537   4.621  0.1726 -0.7443  2.3385
 7629TIP3   OH222850   1.868   5.143   4.712  0.0639  0.7411 -0.1687
 7629TIP3    H122851   1.959   5.111   4.714  0.1058  0.8765  0.0720
 7629TIP3    H222852   1.816   5.066   4.737  0.0931  0.5962 -0.5470
 7630TIP3   OH222853   1.687   1.494   4.446 -0.1211 -0.0908  0.3456
 7630TIP3    H122854   1.629   1.570   4.451 -0.4484 -0.3807  1.2643
 7630TIP3    H222855   1.721   1.484   4.535 -0.2235 -1.1160  0.2862
 7631TIP3   OH222856   6.554   0.164   5.201 -0.1603 -0.3256  0.3812
 7631TIP3    H122857   6.628   0.120   5.242 -1.0091 -2.1870 -0.0062
 7631TIP3    H222858   6.591   0.205   5.123  0.7175 -0.0201  0.9483
 7632TIP3   OH222859   4.183   2.364   5.193 -0.2828  0.0026  0.1651
 7632TIP3    H122860   4.224   2.440   5.152 -0.4113  0.0153  0.0578
 7632TIP3    H222861   4.152   2.397   5.278  0.2301 -0.0946  0.3967
 7633TIP3   OH222862   0.277   5.939   0.306 -0.1254 -0.3402  0.4422
 7633TIP3    H122863   0.291   5.927   0.213 -0.8268 -0.6597  0.3692
 7633TIP3    H222864   0.341   6.005   0.332  0.5235 -0.7315 -0.1274
 7634TIP3   OH222865   0.566   3.243   4.757  0.2004 -0.2880  0.0899
 7634TIP3    H122866   0.544   3.318   4.702 -1.8068 -0.3806  0.6582
 7634TIP3    H222867   0.661   3.241   4.759  0.3190  0.7601 -1.9303
 7635TIP3   OH222868   0.041   1.532   4.015  0.1051  0.1075  0.6138
 7635TIP3    H122869  -0.047   1.533   4.053 -0.2190  0.1860 -0.1237
 7635TIP3    H222870   0.044   1.452   3.964  0.2231  0.4426  0.0893
 7636TIP3   OH222871   1.432   6.571   2.000 -0.0150 -0.1655 -0.6080
 7636TIP3    H122872   1.366   6.635   1.972 -0.6128  0.3117  1.7065
 7636TIP3    H222873   1.424   6.568   2.095  1.1117 -2.5209 -0.5166
 7637TIP3   OH222874   0.439   2.753   0.887 -0.0419 -0.3045 -0.7766
 7637TIP3    H122875   0.465   2.778   0.799  0.9000  1.2216 -0.1203
 7637TIP3    H222876   0.512   2.700   0.920  1.1672  1.8113  0.1568
 7638TIP3   OH222877   0.905   2.105   0.296  0.1846 -0.0711  0.0616
 7638TIP3    H122878   0.885   2.050   0.372 -1.4297  0.7857  0.2996
 7638TIP3    H222879   0.983   2.153   0.321 -0.7937  0.8218  1.5708
 7639TIP3   OH222880   6.105   0.843   1.335 -0.0013  0.3700  0.5768
 7639TIP3    H122881   6.117   0.912   1.270  2.2144  0.4511  0.9980
 7639TIP3    H222882   6.156   0.769   1.301 -0.3574 -0.2294  1.3189
 7640TIP3   OH222883   0.759   1.962   4.322 -0.2348  0.3867 -0.5051
 7640TIP3    H122884   0.847   1.923   4.318 -0.9420 -1.3682  0.0892
 7640TIP3    H222885   0.738   1.965   4.415 -1.0142  0.2775 -0.6678
 7641TIP3   OH222886   3.467   5.464   5.423 -0.8672 -0.6469 -0.0263
 7641TIP3    H122887   3.389   5.517   5.442 -0.0008  0.3393  0.9264
 7641TIP3    H222888   3.538   5.528   5.414 -0.3041 -1.4644 -1.7911
 7642TIP3   OH222889   1.608   1.545   1.954  0.0212 -0.5256 -0.3001
 7642TIP3    H122890   1.628   1.588   2.037  1.7951 -0.2131 -0.8260
 7642TIP3    H222891   1.514   1.531   1.955 -0.0995  0.2174  1.3997
 7643TIP3   OH222892   3.035   5.627  -0.031 -0.4461 -0.3578 -0.8147
 7643TIP3    H122893   2.975   5.669   0.031 -0.0182  2.0353 -1.9257
 7643TIP3    H222894   3.074   5.555   0.019 -0.1479  1.4209  1.7224
 7644TIP3   OH222895   6.838   1.342   3.365 -0.0663  0.2207  0.4460
 7644TIP3    H122896   6.855   1.380   3.279 -0.8713 -0.0639  0.1500
 7644TIP3    H222897   6.865   1.251   3.358  1.7903  0.6807  1.1340
 7645TIP3   OH222898   2.897   4.550   0.966  0.0546  0.6373 -0.2391
 7645TIP3    H122899   2.951   4.532   0.890  0.2113  0.7016 -0.1422
 7645TIP3    H222900   2.863   4.464   0.992 -0.3953  0.6713 -0.6749
 7646TIP3   OH222901   5.106   3.612   4.114  0.2530 -0.2497  0.3716
 7646TIP3    H122902   5.128   3.678   4.180 -2.6540  0.6395  0.5635
 7646TIP3    H222903   5.151   3.642   4.035 -0.6306  1.7872  0.5757
 7647TIP3   OH222904   2.326   5.751   1.018  0.2194  0.6292  0.1368
 7647TIP3    H122905   2.357   5.831   0.976 -1.0693  0.9245 -0.3126
 7647TIP3    H222906   2.244   5.730   0.972  0.9454 -1.4095 -0.3080
 7648TIP3   OH222907   5.995   6.405   5.494 -0.8493  0.2652 -0.2063
 7648TIP3    H122908   6.023   6.438   5.579 -0.6131  0.7135 -0.4505
 7648TIP3    H222909   6.059   6.442   5.432 -1.5845  0.7345 -0.6925
 7649TIP3   OH222910   6.389   0.132   1.651  0.0623 -0.2351  0.2143
 7649TIP3    H122911   6.446   0.198   1.692  0.3223  0.8535 -1.7680
 7649TIP3    H222912   6.311   0.181   1.625 -0.5286 -1.1058  0.3143
 7650TIP3   OH222913   3.037   5.450   3.739  0.1336 -0.1162  0.2014
 7650TIP3    H122914   3.054   5.356   3.731 -0.8710 -0.2097 -1.3835
 7650TIP3    H222915   3.070   5.474   3.825  2.2738 -1.5037 -0.1484
 7651TIP3   OH222916   0.235   0.441   0.360  0.0925 -0.2313  0.4882
 7651TIP3    H122917   0.259   0.533   0.344  0.3512 -0.5438 -1.1004
 7651TIP3    H222918   0.317   0.397   0.377  0.2158 -0.5007 -0.6833
 7652TIP3   OH222919   2.109   3.207   5.848 -0.3884  0.7766 -0.0166
 7652TIP3    H122920   2.159   3.158   5.784 -1.1727 -1.2050  0.8039
 7652TIP3    H222921   2.020   3.211   5.813 -0.5950  0.5582  0.4613
 7653TIP3   OH222922   5.439   3.953   2.759  0.6294 -0.2428  0.5685
 7653TIP3    H122923   5.444   3.957   2.663  0.5958 -0.4129  0.5593
 7653TIP3    H222924   5.374   3.885   2.776  0.3668  0.0432  0.7095
 7654TIP3   OH222925   4.536   0.481   1.632  0.0339 -0.0055  0.4181
 7654TIP3    H122926   4.546   0.389   1.605 -0.2799 -0.5804  2.1617
 7654TIP3    H222927   4.495   0.476   1.718  3.3851  1.6286  2.2816
 7655TIP3   OH222928   5.157   4.892   5.756 -0.1508  0.4805  0.1222
 7655TIP3    H122929   5.165   4.963   5.693 -1.5726 -1.1986 -2.1430
 7655TIP3    H222930   5.247   4.865   5.774  0.4289  2.9660  1.2936
 7656TIP3   OH222931   0.196   3.697   5.124 -0.4569 -0.4173  0.3867
 7656TIP3    H122932   0.120   3.692   5.065 -0.9886  0.0410  1.0037
 7656TIP3    H222933   0.245   3.774   5.094 -1.0710  0.1988  0.9106
 7657TIP3   OH222934   5.749   5.528   4.246 -0.0127 -0.4396 -0.0715
 7657TIP3    H122935   5.784   5.494   4.328  1.5934 -0.5522 -0.7637
 7657TIP3    H222936   5.793   5.612   4.234  0.1266 -0.6339 -1.0261
 7658TIP3   OH222937   1.593   0.631   1.420 -0.3788 -0.9040  0.0713
 7658TIP3    H122938   1.522   0.690   1.446  0.4574 -0.8070  2.2999
 7658TIP3    H222939   1.555   0.543   1.430 -0.3324 -0.8422  0.8082
 7659TIP3   OH222940   3.287   5.171   0.549  0.4733  0.3899 -0.1048
 7659TIP3    H122941   3.310   5.190   0.458 -0.6841 -1.6438 -0.8817
 7659TIP3    H222942   3.364   5.126   0.583 -0.0109 -1.0807 -0.8768
 7660TIP3   OH222943   3.689   3.063   0.430  0.0794 -0.0914  0.1393
 7660TIP3    H122944   3.760   3.095   0.374  0.0803  0.1129  0.2545
 7660TIP3    H222945   3.708   3.099   0.517  1.1926 -2.0689  0.7720
 7661TIP3   OH222946   1.506   5.275   2.274  0.1406 -0.5907 -0.2253
 7661TIP3    H122947   1.437   5.279   2.340  1.2195 -2.3425  1.0902
 7661TIP3    H222948   1.571   5.340   2.304  0.4647 -1.1298  0.2497
 7662TIP3   OH222949   2.979   2.378   3.226 -0.5883 -0.4824 -0.0785
 7662TIP3    H122950   3.048   2.358   3.289  0.4170 -1.7219 -1.5166
 7662TIP3    H222951   2.902   2.330   3.258  0.3694 -2.5097 -0.6444
 7663TIP3   OH222952   2.773   2.224   4.034  0.5746 -0.3720 -0.2011
 7663TIP3    H122953   2.765   2.247   4.127 -1.3524 -0.4048 -0.3225
 7663TIP3    H222954   2.840   2.284   4.000  1.5531 -0.5712  1.2473
 7664TIP3   OH222955   5.645   4.853   4.742  0.1181 -0.1495 -0.3855
 7664TIP3    H122956   5.584   4.793   4.698  0.4490 -0.0859 -0.9364
 7664TIP3    H222957   5.599   4.937   4.743  0.3867  0.0143 -1.2337
 7665TIP3   OH222958   2.172   5.169   0.278  0.6488  0.1017 -0.1729
 7665TIP3    H122959   2.263   5.180   0.307  0.5118 -1.3186  0.8531
 7665TIP3    H222960   2.166   5.077   0.252 -0.7250 -0.0413  0.5771
 7666TIP3   OH222961   0.062   3.329   2.255 -0.0312  0.2207 -0.4639
 7666TIP3    H122962   0.095   3.270   2.187  0.5870 -0.3674  0.3445
 7666TIP3    H222963   0.140   3.356   2.304 -0.3946  1.1481 -0.3784
 7667TIP3   OH222964   3.023   5.254   0.710 -0.4225 -0.2395 -0.1480
 7667TIP3    H122965   3.104   5.228   0.668  1.4596  2.3103  1.5704
 7667TIP3    H222966   3.029   5.216   0.798 -2.5637 -2.4416 -0.8403
 7668TIP3   OH222967   2.714   3.142   4.909 -0.4754  0.5649 -0.0172
 7668TIP3    H122968   2.767   3.165   4.985  1.3706  0.0985 -1.1229
 7668TIP3    H222969   2.721   3.046   4.903  1.4452  0.7697 -2.1566
 7669TIP3   OH222970   2.462   1.056   5.852  0.2348  0.2576  0.2622
 7669TIP3    H122971   2.480   1.132   5.907 -1.0478  0.1456  0.8672
 7669TIP3    H222972   2.369   1.062   5.833 -0.6256 -2.7369  2.8193
 7670TIP3   OH222973   4.561   5.042   5.449 -0.0686 -0.1518 -0.2164
 7670TIP3    H122974   4.641   5.061   5.497 -1.5317  2.4327  1.4186
 7670TIP3    H222975   4.517   4.974   5.500 -0.1326  0.3333  0.3885
 7671TIP3   OH222976   6.069   3.361   4.501  0.5904  0.4006  0.3333
 7671TIP3    H122977   6.070   3.373   4.406  0.0448  0.6595  0.3562
 7671TIP3    H222978   6.085   3.449   4.536  0.3486  0.3868  0.4815
 7672TIP3   OH222979   2.986   1.682   3.614 -0.4139 -0.0573 -0.6904
 7672TIP3    H122980   2.981   1.677   3.518  0.0093 -1.0309 -0.6786
 7672TIP3    H222981   3.077   1.706   3.632 -0.4958  0.1357 -0.5310
 7673TIP3   OH222982   2.887   0.726   4.897 -0.3413  0.8326 -0.1435
 7673TIP3    H122983   2.933   0.679   4.827  0.3123  0.6482  0.4029
 7673TIP3    H222984   2.861   0.809   4.857 -3.4892 -0.7591 -1.8761
 7674TIP3   OH222985   1.477   0.908   5.109  0.1861  0.0518 -0.3010
 7674TIP3    H122986   1.518   0.835   5.062 -2.1556 -1.4731 -0.1522
 7674TIP3    H222987   1.419   0.866   5.172 -1.8629  2.0620 -0.7361
 7675TIP3   OH222988   5.076   3.129   4.276 -0.2949  0.0960  0.0121
 7675TIP3    H122989   5.034   3.140   4.191  1.2383 -0.2212 -0.8149
 7675TIP3    H222990   5.126   3.209   4.290 -0.1669 -0.0477  0.4033
 7676TIP3   OH222991   4.105   0.429   4.041 -0.1897  0.0876  0.2244
 7676TIP3    H122992   4.045   0.428   3.968 -0.5925 -1.1914  0.5361
 7676TIP3    H222993   4.180   0.481   4.011 -1.4777  1.8221 -0.1096
 7677TIP3   OH222994   3.980   1.176   5.754  0.5483  0.0979  0.8635
 7677TIP3    H122995   4.055   1.137   5.709 -0.5293 -0.7554 -0.2626
 7677TIP3    H222996   3.975   1.265   5.718  0.4645 -0.1544  0.2425
 7678TIP3   OH222997   3.345   6.031   1.166 -0.6153  0.0431  0.4616
 7678TIP3    H122998   3.307   6.035   1.078  1.1163 -1.6737 -0.4477
 7678TIP3    H222999   3.334   6.119   1.201 -2.1174  0.5450 -1.1420
 7679TIP3   OH223000   4.897   3.379   4.160 -0.0758 -0.5750  0.1305
 7679TIP3    H123001   4.936   3.466   4.159  0.0886 -0.6502 -0.1561
 7679TIP3    H223002   4.853   3.373   4.245 -1.8931  0.5720 -0.6657
 7680TIP3   OH223003   2.848   3.373   5.520  0.3950 -0.0347 -0.2490
 7680TIP3    H123004   2.909   3.405   5.454  1.9724  0.9355  1.5924
 7680TIP3    H223005   2.790   3.448   5.537  1.4454  0.5120  1.0645
 7681TIP3   OH223006   4.066   4.464   4.028 -0.3036 -0.5013  0.5443
 7681TIP3    H123007   4.157   4.491   4.014 -0.2216 -0.5961  0.8829
 7681TIP3    H223008   4.048   4.486   4.119 -0.1278 -1.8646  0.9404
 7682TIP3   OH223009   2.832   4.196   0.802  0.1386  0.1139  0.8023
 7682TIP3    H123010   2.816   4.177   0.709  2.2104 -0.1806  0.4627
 7682TIP3    H223011   2.842   4.110   0.843  0.9646  0.2815  0.9553
 7683TIP3   OH223012   4.741   5.166   4.422  0.4862  0.2195 -0.4272
 7683TIP3    H123013   4.701   5.239   4.375 -0.4097 -0.9772 -1.5758
 7683TIP3    H223014   4.700   5.168   4.508  0.4257  1.0224 -0.4644
 7684TIP3   OH223015   3.880   5.470   3.684  0.4177  0.1925 -0.3156
 7684TIP3    H123016   3.907   5.520   3.761  0.0164 -1.2852  0.8346
 7684TIP3    H223017   3.962   5.433   3.650  0.4640 -0.1594  0.1614
 7685TIP3   OH223018   4.911   1.603   3.363  0.1169  0.0102  0.2605
 7685TIP3    H123019   4.898   1.627   3.271 -2.9638  1.2935  0.8838
 7685TIP3    H223020   4.850   1.531   3.378  2.2298 -1.7705  0.8428
 7686TIP3   OH223021   3.949   5.476   2.777  0.2591 -0.2582  0.4973
 7686TIP3    H123022   3.964   5.571   2.784 -0.3672 -0.0746 -0.4569
 7686TIP3    H223023   4.024   5.444   2.727 -0.1880 -0.0355 -0.3524
 7687TIP3   OH223024   2.621   6.424   2.625 -0.3991  0.3802 -0.0837
 7687TIP3    H123025   2.536   6.380   2.617 -0.7395  0.9788  0.1957
 7687TIP3    H223026   2.601   6.516   2.610  0.0178  0.6680  1.0589
 7688TIP3   OH223027   2.527   5.424   0.609  0.6702 -0.9443  0.5544
 7688TIP3    H123028   2.542   5.519   0.617  0.5986 -1.0270  2.0146
 7688TIP3    H223029   2.468   5.403   0.681 -0.7640 -1.8318 -0.8252
 7689TIP3   OH223030   1.205   5.937   5.128  0.2250 -0.4022 -0.5649
 7689TIP3    H123031   1.215   5.888   5.047  1.5176  0.0702 -0.7088
 7689TIP3    H223032   1.260   6.015   5.117 -2.1753  1.3993 -0.5538
 7690TIP3   OH223033   0.363   1.122   3.109  0.0104  0.1796 -0.2310
 7690TIP3    H123034   0.339   1.030   3.107 -0.6883  0.2531  1.9514
 7690TIP3    H223035   0.425   1.133   3.037 -1.3368 -1.5429 -1.7352
 7691TIP3   OH223036   3.956   6.341   3.510  0.1156 -0.2191 -0.2171
 7691TIP3    H123037   3.905   6.326   3.590 -1.5166  1.2662 -0.8847
 7691TIP3    H223038   3.991   6.430   3.521  1.0727 -0.5436 -0.5654
 7692TIP3   OH223039   1.279   2.728   1.801 -0.3421 -0.1138  0.3454
 7692TIP3    H123040   1.365   2.700   1.769  0.6776 -0.1528  2.8474
 7692TIP3    H223041   1.297   2.809   1.848 -1.9446  0.6170 -0.2554
 7693TIP3   OH223042   5.478   1.294   2.972 -0.0542 -0.6831  0.0281
 7693TIP3    H123043   5.462   1.275   3.065 -2.5437 -2.6579 -0.6839
 7693TIP3    H223044   5.423   1.370   2.954  1.1377  0.2828  0.3163
 7694TIP3   OH223045   3.016   3.836   0.065 -0.0679 -0.0639 -0.5695
 7694TIP3    H123046   2.970   3.800  -0.011 -3.5364 -1.8290  2.0323
 7694TIP3    H223047   3.058   3.760   0.105 -0.3126  0.3293  0.4794
 7695TIP3   OH223048   2.804   4.208   5.886 -0.2238  0.0727 -0.0016
 7695TIP3    H123049   2.842   4.158   5.814 -0.1599 -0.8909  0.6728
 7695TIP3    H223050   2.869   4.275   5.906 -1.0911  1.6366 -2.1023
 7696TIP3   OH223051   3.626   3.656   1.113  0.3087 -0.0092 -0.1902
 7696TIP3    H123052   3.616   3.747   1.140 -0.7086 -0.2595  0.3123
 7696TIP3    H223053   3.548   3.612   1.146  1.5191 -1.4003  0.9966
 7697TIP3   OH223054   6.191   2.185   0.483  0.2236 -0.6082 -0.4546
 7697TIP3    H123055   6.186   2.279   0.501 -1.8939 -1.0572  1.7329
 7697TIP3    H223056   6.169   2.177   0.390 -1.0154  0.9793 -0.3406
 7698TIP3   OH223057   7.085   5.691   1.306  0.1883 -0.0154  0.2591
 7698TIP3    H123058   7.131   5.720   1.228 -0.0849 -3.3595 -1.2928
 7698TIP3    H223059   6.993   5.702   1.285  0.1266  0.6527  0.8295
 7699TIP3   OH223060   1.636   5.847   3.486  0.1428 -0.0861 -0.3607
 7699TIP3    H123061   1.686   5.784   3.434 -0.7602  0.6074 -2.1298
 7699TIP3    H223062   1.677   5.843   3.573  1.2723 -1.7598 -0.9060
 7700TIP3   OH223063   1.758   1.357   3.321 -0.1332 -0.1421 -0.5766
 7700TIP3    H123064   1.783   1.428   3.262 -1.7751 -0.2747 -1.4837
 7700TIP3    H223065   1.749   1.399   3.406  0.7231  0.3572 -0.7210
 7701TIP3   OH223066   6.002   0.875   5.102 -0.2518 -0.0543 -0.2546
 7701TIP3    H123067   5.992   0.816   5.177  0.3384 -0.4580 -0.4897
 7701TIP3    H223068   5.944   0.839   5.035  0.4361 -0.6345 -0.5520
 7702TIP3   OH223069   2.459   3.820   2.418  0.2760  0.0978  0.7924
 7702TIP3    H123070   2.440   3.808   2.511 -0.6379 -2.4957  0.3694
 7702TIP3    H223071   2.539   3.769   2.404  1.3662  1.8571  0.4434
 7703TIP3   OH223072   7.031   1.696   1.447 -0.2046  0.7111 -0.2348
 7703TIP3    H123073   7.001   1.752   1.375  3.0183 -0.7720 -3.0154
 7703TIP3    H223074   7.069   1.757   1.510  1.5460  1.9343 -2.3043
 7704TIP3   OH223075   3.504   1.832   5.726 -0.1853  0.1187 -0.6030
 7704TIP3    H123076   3.524   1.773   5.653  1.0958 -0.5950  0.2784
 7704TIP3    H223077   3.590   1.859   5.759 -0.7496  1.1523  0.0828
 7705TIP3   OH223078   7.039   1.630   0.396  0.3248  0.3257 -0.3960
 7705TIP3    H123079   7.040   1.720   0.365 -0.4552  1.1124  1.7220
 7705TIP3    H223080   6.954   1.619   0.438  0.2325 -1.5606 -0.9528
 7706TIP3   OH223081   2.747   3.497   1.417 -0.2931  0.1094  0.7886
 7706TIP3    H123082   2.714   3.566   1.474  0.8069  1.9807 -0.6994
 7706TIP3    H223083   2.842   3.499   1.429  0.0695  1.1203 -1.5483
 7707TIP3   OH223084   5.450   6.744   2.760 -0.1636 -0.5682  0.7957
 7707TIP3    H123085   5.461   6.831   2.722 -0.8994 -1.1320 -0.7826
 7707TIP3    H223086   5.539   6.718   2.785  0.1903  0.2624  0.4462
 7708TIP3   OH223087   2.687   3.789   0.217 -0.1726 -0.0486  0.4161
 7708TIP3    H123088   2.605   3.753   0.250  0.3651  0.5384  2.5683
 7708TIP3    H223089   2.670   3.882   0.206  0.2799  0.1538  1.2861
 7709TIP3   OH223090   2.553   4.376   3.874  0.2255 -0.1187 -0.7159
 7709TIP3    H123091   2.539   4.358   3.781  0.5436  1.7749 -1.1679
 7709TIP3    H223092   2.466   4.367   3.914 -0.1487  0.3056 -1.4256
 7710TIP3   OH223093   7.129   6.399   2.017 -0.0575  0.7874 -0.1104
 7710TIP3    H123094   7.082   6.477   1.987  0.5662  0.5137 -1.8905
 7710TIP3    H223095   7.217   6.430   2.035  0.2158  0.5058 -0.9086
 7711TIP3   OH223096   4.492   6.585   3.351 -0.1273  0.1439  0.0502
 7711TIP3    H123097   4.542   6.523   3.297  0.6574 -0.0830  1.0114
 7711TIP3    H223098   4.469   6.536   3.429 -1.1108  0.5248  0.0046
 7712TIP3   OH223099   2.667   4.859   0.144 -0.1521  0.3699 -0.0583
 7712TIP3    H123100   2.596   4.832   0.202  0.7197 -2.0022  0.0354
 7712TIP3    H223101   2.628   4.862   0.057 -1.0633  2.2886  0.3555
 7713TIP3   OH223102   1.364   2.707   4.321 -0.1225  0.1094 -0.0132
 7713TIP3    H123103   1.407   2.634   4.277 -0.1028 -1.3049  2.1760
 7713TIP3    H223104   1.427   2.779   4.316  0.9196 -0.7808 -0.1030
 7714TIP3   OH223105   2.341   2.381   4.050  0.0036 -0.0201 -0.2438
 7714TIP3    H123106   2.409   2.322   4.019 -0.2771 -0.4972  0.0367
 7714TIP3    H223107   2.388   2.458   4.083  0.4573 -0.7615  0.8607
 7715TIP3   OH223108   4.607   6.582   1.926  0.2122 -0.1687  0.3700
 7715TIP3    H123109   4.660   6.641   1.979 -1.5671  2.0773 -0.2115
 7715TIP3    H223110   4.536   6.555   1.983 -0.1508 -0.0430 -0.0193
 7716TIP3   OH223111   5.517   2.930   5.522  0.5801 -0.1218  0.0688
 7716TIP3    H123112   5.564   2.997   5.474 -1.4626  1.0713 -0.3899
 7716TIP3    H223113   5.481   2.976   5.598  0.7148 -1.1552  0.7819
 7717TIP3   OH223114   1.137   1.057   1.366 -0.0254  0.3481 -0.2324
 7717TIP3    H123115   1.194   1.130   1.393  1.6921 -0.5527 -1.2302
 7717TIP3    H223116   1.104   1.084   1.281 -0.5090  0.5419  0.0126
 7718TIP3   OH223117   4.997   3.589   3.050 -0.4962  0.0456 -0.2972
 7718TIP3    H123118   5.083   3.629   3.061  0.1274 -1.3959  0.2991
 7718TIP3    H223119   4.983   3.586   2.956  1.7966 -2.9990 -0.7045
 7719TIP3   OH223120   0.569   5.984   4.484 -0.0500  0.3250  0.4650
 7719TIP3    H123121   0.487   5.942   4.510  0.5311 -1.1420 -0.0101
 7719TIP3    H223122   0.560   5.998   4.390  0.5373 -0.5143  0.2826
 7720TIP3   OH223123   6.165   0.985   3.043  0.3681 -0.6766  0.2467
 7720TIP3    H123124   6.192   0.909   3.094 -0.1542 -0.3693  0.9998
 7720TIP3    H223125   6.240   1.005   2.987  0.9568 -1.0079  0.9081
 7721TIP3   OH223126   1.353   4.390   1.890  0.0295 -0.1034  0.8258
 7721TIP3    H123127   1.433   4.353   1.929  0.1250 -0.8369 -0.0367
 7721TIP3    H223128   1.329   4.462   1.949  1.8170  0.7089  0.6379
 7722TIP3   OH223129   1.077   2.729   4.389  0.5976  0.1103  0.3162
 7722TIP3    H123130   1.171   2.731   4.405  0.7777 -3.8635  0.7140
 7722TIP3    H223131   1.069   2.720   4.294  0.8061 -1.8426  0.4483
 7723TIP3   OH223132   6.017   2.470   0.844  0.2379 -0.2647  0.0138
 7723TIP3    H123133   6.019   2.566   0.850  0.0863 -0.2268 -0.4701
 7723TIP3    H223134   6.047   2.440   0.930 -0.0942  0.2159  0.3044
 7724TIP3   OH223135   7.054   1.922   3.634  0.4388  0.2130 -0.5540
 7724TIP3    H123136   7.139   1.961   3.614  0.6942 -0.3865 -0.6742
 7724TIP3    H223137   7.073   1.858   3.703  0.0255  0.3176 -0.3367
 7725TIP3   OH223138   4.226   6.330   5.245  0.2713  0.0875 -0.1894
 7725TIP3    H123139   4.292   6.280   5.293  0.5079  0.7768  0.2220
 7725TIP3    H223140   4.246   6.422   5.264 -0.0460  0.3562 -1.0689
 7726TIP3   OH223141   6.536   1.392   2.895 -0.2348  0.8921  0.5631
 7726TIP3    H123142   6.589   1.381   2.973  2.0391 -0.6940 -1.0910
 7726TIP3    H223143   6.541   1.308   2.849 -1.9939  1.5515 -1.0049
 7727TIP3   OH223144   3.492   2.907   0.770  0.9699  0.1273  0.3670
 7727TIP3    H123145   3.477   2.992   0.729 -0.7643 -0.9211 -1.3263
 7727TIP3    H223146   3.514   2.849   0.698 -1.8882 -1.7074  0.8074
 7728TIP3   OH223147   3.666   6.181   5.145  0.2876 -0.2110 -0.0355
 7728TIP3    H123148   3.695   6.266   5.112  1.0007 -0.6328 -0.5248
 7728TIP3    H223149   3.574   6.177   5.122 -0.3227  1.3217  1.8802
 7729TIP3   OH223150   4.736   0.155   1.043 -0.1834  0.6123  0.8769
 7729TIP3    H123151   4.736   0.063   1.071 -0.0257 -0.1667 -1.4565
 7729TIP3    H223152   4.790   0.200   1.108  0.5078 -1.1035  1.5514
 7730TIP3   OH223153   0.079   4.961   0.444 -0.2294  0.3437 -0.1177
 7730TIP3    H123154  -0.010   4.961   0.479 -0.4773 -1.6782 -0.6256
 7730TIP3    H223155   0.094   5.051   0.417 -1.6677  0.9815  1.0851
 7731TIP3   OH223156   0.342   2.487   5.175 -0.0954  0.2093 -0.1136
 7731TIP3    H123157   0.342   2.549   5.102 -1.6125 -0.6841 -0.9376
 7731TIP3    H223158   0.392   2.530   5.244  0.0858  1.7281 -1.1492
 7732TIP3   OH223159   2.003   3.627   0.168  0.2636  0.2941  0.3053
 7732TIP3    H123160   2.042   3.655   0.085  0.7564 -0.0297  0.4260
 7732TIP3    H223161   1.933   3.690   0.183  0.9958  1.1382  0.2891
 7733TIP3   OH223162   1.717   3.229   5.243 -0.3362 -0.0571  0.0637
 7733TIP3    H123163   1.745   3.175   5.169  0.1199  0.2431  0.0091
 7733TIP3    H223164   1.690   3.312   5.203  0.4788  0.3191  0.2822
 7734TIP3   OH223165   3.958   0.913   2.469  0.3029 -0.2766  0.3519
 7734TIP3    H123166   3.921   0.919   2.557 -1.2512  0.6145 -0.3267
 7734TIP3    H223167   3.974   1.004   2.444  1.3483 -0.5592 -0.0640
 7735TIP3   OH223168   6.600   3.967   2.330  0.2573 -0.3478 -0.5331
 7735TIP3    H123169   6.680   4.014   2.351  1.0994 -1.2877 -1.4562
 7735TIP3    H223170   6.582   3.990   2.239 -1.3300  0.9333  0.0605
 7736TIP3   OH223171   3.777   0.361   2.176 -0.6621 -0.2684 -0.1814
 7736TIP3    H123172   3.818   0.446   2.190 -2.5382  0.8528 -1.0512
 7736TIP3    H223173   3.850   0.300   2.163  0.7890  0.8546  2.0268
 7737TIP3   OH223174   4.314   5.584   4.777  0.0496 -0.1167 -0.8132
 7737TIP3    H123175   4.307   5.510   4.838 -1.7539  0.8326  0.2286
 7737TIP3    H223176   4.270   5.554   4.698  0.3846 -0.5716 -0.8313
 7738TIP3   OH223177   1.884   3.880   4.560 -0.1991 -0.2514  0.2768
 7738TIP3    H123178   1.822   3.898   4.489 -0.1904 -1.3101 -0.0157
 7738TIP3    H223179   1.852   3.799   4.599  0.4338 -0.2653  0.7698
 7739TIP3   OH223180   5.105   2.905   4.441 -0.0997  0.0637  0.0472
 7739TIP3    H123181   5.089   2.936   4.352 -1.3630 -1.8040 -0.4345
 7739TIP3    H223182   5.166   2.832   4.431  0.3558  0.3272  0.7988
 7740TIP3   OH223183   2.039   0.340   3.472 -0.1333  0.4192 -0.1097
 7740TIP3    H123184   2.042   0.245   3.485  2.0086  0.1754 -1.6720
 7740TIP3    H223185   1.956   0.368   3.509 -0.5143 -1.9735  0.9929
 7741TIP3   OH223186   5.128   5.215   4.567  0.2853 -1.1792 -0.1327
 7741TIP3    H123187   5.091   5.222   4.479  0.0930 -3.5342 -0.2996
 7741TIP3    H223188   5.212   5.261   4.562  0.0572 -0.8701 -1.4144
 7742TIP3   OH223189   3.495   2.975   0.157  0.0895 -0.4473  0.1802
 7742TIP3    H123190   3.514   3.046   0.096 -1.1761 -0.3383 -0.1314
 7742TIP3    H223191   3.580   2.947   0.191  0.6526  0.7389 -0.2329
 7743TIP3   OH223192   1.576   3.696   5.473 -0.4697 -0.0735 -0.3279
 7743TIP3    H123193   1.602   3.658   5.557  0.1163 -2.7818 -1.6128
 7743TIP3    H223194   1.491   3.656   5.454 -1.0351  1.2214 -0.6360
 7744TIP3   OH223195   4.575   2.059   1.131 -0.6015  0.1662 -0.0874
 7744TIP3    H123196   4.611   1.978   1.095 -1.9880 -0.4143 -0.2165
 7744TIP3    H223197   4.493   2.033   1.172 -0.2140  1.2177  1.4529
 7745TIP3   OH223198   0.856   0.492   4.419 -0.0434 -0.4454 -0.4373
 7745TIP3    H123199   0.817   0.576   4.440  0.4734 -0.9487  3.2427
 7745TIP3    H223200   0.947   0.512   4.398 -0.5078  0.0768 -2.0883
 7746TIP3   OH223201   6.600   2.012   4.399 -0.1425 -0.0535  0.5311
 7746TIP3    H123202   6.630   2.058   4.321  0.1331 -0.2037  0.5468
 7746TIP3    H223203   6.532   2.068   4.435  0.5753  0.6237  0.8688
 7747TIP3   OH223204   3.384   1.438   2.056  0.1185  0.7436 -0.7530
 7747TIP3    H123205   3.420   1.349   2.052 -3.3404 -0.9503  1.3864
 7747TIP3    H223206   3.459   1.493   2.074  2.1840 -1.9588 -0.4174
 7748TIP3   OH223207   1.721   6.172   4.895 -0.3636  0.3246 -0.0749
 7748TIP3    H123208   1.729   6.262   4.928  0.2149  0.3220 -0.1942
 7748TIP3    H223209   1.810   6.138   4.897 -0.6139 -0.3203  0.1633
 7749TIP3   OH223210   6.434   2.932   5.570  0.2716  0.4590  0.1657
 7749TIP3    H123211   6.416   2.865   5.636  1.1567 -0.7222 -0.7513
 7749TIP3    H223212   6.407   3.014   5.611  1.2024 -0.1724  2.1624
 7750TIP3   OH223213   2.766   1.273   2.795 -0.1013 -0.0468  0.4161
 7750TIP3    H123214   2.760   1.360   2.833  2.3868  0.0549  0.7041
 7750TIP3    H223215   2.844   1.275   2.740 -0.1659 -2.0048  0.1563
 7751TIP3   OH223216   1.807   3.763   3.095 -0.0992  0.0036 -0.1201
 7751TIP3    H123217   1.755   3.832   3.054 -1.1364 -1.4057 -1.2696
 7751TIP3    H223218   1.898   3.784   3.073 -0.4989  0.3119 -1.5620
 7752TIP3   OH223219   3.676   2.542   3.041  0.6171  0.1214 -0.1748
 7752TIP3    H123220   3.706   2.536   3.132  0.3863  1.7195  0.0404
 7752TIP3    H223221   3.629   2.460   3.026 -2.9460  1.3839  2.5065
 7753TIP3   OH223222   1.877   1.013   5.699 -0.4376  0.5599  0.1844
 7753TIP3    H123223   1.921   1.000   5.615 -1.1582  0.0451 -0.1195
 7753TIP3    H223224   1.803   0.952   5.697 -0.2375  0.2567  1.3554
 7754TIP3   OH223225   0.166   3.834   1.506  0.3075 -0.1590 -0.3731
 7754TIP3    H123226   0.129   3.761   1.456 -1.4263  1.2963 -1.3375
 7754TIP3    H223227   0.112   3.839   1.584  0.1375  0.3598 -0.5222
 7755TIP3   OH223228   5.930   5.819   0.738 -0.2451  0.0451  0.3198
 7755TIP3    H123229   5.869   5.755   0.774  2.1552 -2.0238  0.9520
 7755TIP3    H223230   5.914   5.898   0.790  0.1230 -1.5648  3.0587
 7756TIP3   OH223231   5.773   5.218   5.823  0.6262  0.1710 -0.6540
 7756TIP3    H123232   5.851   5.211   5.878  0.6198 -0.0170 -0.6654
 7756TIP3    H223233   5.730   5.298   5.851  1.3680  0.8330 -1.3577
 7757TIP3   OH223234   5.111   1.402   0.460 -0.6646 -0.0569 -0.0274
 7757TIP3    H123235   5.134   1.452   0.382  2.3691 -1.8758 -0.4804
 7757TIP3    H223236   5.017   1.383   0.450 -0.9967  2.1108 -1.7426
 7758TIP3   OH223237   1.734   2.094   2.275  0.2739 -0.9209  0.2247
 7758TIP3    H123238   1.656   2.059   2.318  1.5600 -0.9305  2.7309
 7758TIP3    H223239   1.743   2.183   2.309  0.7478 -0.5057 -0.9230
 7759TIP3   OH223240   4.062   2.079   5.145 -0.7102 -0.0121 -0.2360
 7759TIP3    H123241   3.994   2.146   5.142  0.4946  1.4616  2.1173
 7759TIP3    H223242   4.137   2.118   5.100 -0.2126  0.0166  0.5756
 7760TIP3   OH223243   2.128   1.938   3.887  0.0783 -0.7811 -0.0449
 7760TIP3    H123244   2.045   1.930   3.934 -1.0307 -1.9991 -2.0858
 7760TIP3    H223245   2.110   1.998   3.815  0.5334 -2.0389 -1.2671
 7761TIP3   OH223246   0.414   1.364   1.788 -0.8286 -0.3133  0.2639
 7761TIP3    H123247   0.407   1.328   1.700 -1.8997 -0.4637  0.3935
 7761TIP3    H223248   0.403   1.289   1.846  1.5615 -0.5032  0.5593
 7762TIP3   OH223249   7.020   1.445   3.157 -0.4222  0.5433  0.2388
 7762TIP3    H123250   6.977   1.530   3.173 -1.9252 -0.0465 -0.4937
 7762TIP3    H223251   7.040   1.446   3.064 -1.4397 -0.3174 -0.0080
 7763TIP3   OH223252   0.208   2.294   2.833  0.1225  0.2997 -0.0215
 7763TIP3    H123253   0.166   2.378   2.850  1.0764  0.8504 -0.3217
 7763TIP3    H223254   0.142   2.244   2.784 -0.8255  0.4784  1.0115
 7764TIP3   OH223255   0.608   6.189   5.192  0.6188 -0.2553  0.2010
 7764TIP3    H123256   0.535   6.205   5.252  0.0890  0.1133 -0.5285
 7764TIP3    H223257   0.569   6.143   5.118  0.8798  1.0552 -0.7738
 7765TIP3   OH223258   5.877   4.545   0.062  0.1698 -0.1301 -0.7120
 7765TIP3    H123259   5.827   4.601   0.121  1.2262  1.3449 -1.1312
 7765TIP3    H223260   5.833   4.553  -0.022 -0.1757 -0.6330 -0.5830
 7766TIP3   OH223261   2.037   2.985   3.244 -0.1549  0.4936 -0.8139
 7766TIP3    H123262   2.048   3.025   3.158  0.8157  0.5106 -0.6856
 7766TIP3    H223263   2.026   2.891   3.225 -0.6081  0.5771 -0.9898
 7767TIP3   OH223264   6.172   0.269   3.960 -0.9456  0.2605  0.0301
 7767TIP3    H123265   6.088   0.246   3.922 -0.5686 -1.6650  0.2382
 7767TIP3    H223266   6.236   0.239   3.896 -0.3957  0.9865  0.2266
 7768TIP3   OH223267   5.506   6.673   4.064 -0.2350 -0.1149 -0.3137
 7768TIP3    H123268   5.458   6.675   4.146 -1.2257 -0.9023 -0.8461
 7768TIP3    H223269   5.552   6.589   4.065  0.1954  0.1179 -0.3220
 7769TIP3   OH223270   6.487   2.551   0.483  0.1425  0.1162  0.2812
 7769TIP3    H123271   6.510   2.607   0.409  0.4128 -0.4469 -0.0694
 7769TIP3    H223272   6.545   2.475   0.474 -2.2158 -1.6593 -0.9941
 7770TIP3   OH223273   5.956   0.277   2.541 -0.3458 -0.4428 -0.5042
 7770TIP3    H123274   5.924   0.317   2.459 -0.4940 -1.2910 -0.8658
 7770TIP3    H223275   6.048   0.301   2.544  0.0549 -1.7076 -1.7381
 7771TIP3   OH223276   7.142   5.809   0.764 -0.0827 -0.3543  0.3038
 7771TIP3    H123277   7.091   5.795   0.685 -0.1684  0.8279  0.1320
 7771TIP3    H223278   7.155   5.721   0.800  0.3575 -0.9619 -1.2566
 7772TIP3   OH223279   4.045   5.113   5.247 -0.3256 -0.1685  0.0440
 7772TIP3    H123280   4.140   5.112   5.245 -0.2836 -1.2319  1.2628
 7772TIP3    H223281   4.022   5.188   5.303 -0.2507  0.5081 -0.8032
 7773TIP3   OH223282   7.185   4.878   3.770 -0.7594  0.6168  0.1498
 7773TIP3    H123283   7.172   4.784   3.768  1.1562  0.3231 -1.2628
 7773TIP3    H223284   7.167   4.903   3.861 -0.5952 -1.2133  0.7189
 7774TIP3   OH223285   6.981   2.923   2.662  0.1700 -0.7462  0.2572
 7774TIP3    H123286   6.974   2.969   2.746 -2.2703  0.0471 -0.2981
 7774TIP3    H223287   6.975   2.830   2.685  0.8260 -0.5994  1.0501
 7775TIP3   OH223288   3.409   1.955   1.197  0.3168  0.7894 -0.1965
 7775TIP3    H123289   3.455   1.986   1.119  0.2518 -0.4603 -0.7422
 7775TIP3    H223290   3.413   2.030   1.257  0.3894  1.7623 -1.3697
 7776TIP3   OH223291   5.453   6.537   1.848 -0.3022  0.1408 -0.8747
 7776TIP3    H123292   5.400   6.563   1.923 -1.0602  0.3310 -1.4566
 7776TIP3    H223293   5.389   6.501   1.786  0.5112 -1.7871 -0.6838
 7777TIP3   OH223294   2.263   2.681   3.358 -0.2852  0.7712  0.1111
 7777TIP3    H123295   2.207   2.622   3.409  0.4800 -0.2871 -0.2406
 7777TIP3    H223296   2.264   2.643   3.270  1.3639  0.4647  0.2215
 7778TIP3   OH223297   1.277   1.844   0.843 -0.2518  0.7392 -0.0457
 7778TIP3    H123298   1.329   1.874   0.917  0.4223  0.1173 -0.2521
 7778TIP3    H223299   1.191   1.826   0.880 -0.0596  0.9032  0.4893
 7779TIP3   OH223300   5.479   5.372   3.271  0.5464  0.1230 -0.1023
 7779TIP3    H123301   5.511   5.292   3.312 -2.3324 -0.7334  0.7440
 7779TIP3    H223302   5.553   5.433   3.274  1.8316 -1.4098  2.2381
 7780TIP3   OH223303   6.069   1.115   1.213 -0.0384 -0.2861  0.3178
 7780TIP3    H123304   6.119   1.115   1.295  0.4191 -1.2465  0.0449
 7780TIP3    H223305   6.035   1.204   1.206  3.9170  1.3135 -0.9015
 7781TIP3   OH223306   6.696   3.397   5.017 -0.7656 -0.2188 -0.3386
 7781TIP3    H123307   6.756   3.345   4.964 -0.7134 -0.7511  0.2356
 7781TIP3    H223308   6.652   3.334   5.074 -1.4025  0.2441 -0.2972
 7782TIP3   OH223309   0.448   6.740   3.513 -0.5777  0.5855 -0.5349
 7782TIP3    H123310   0.434   6.761   3.420 -3.7607  2.5483  0.2366
 7782TIP3    H223311   0.459   6.645   3.515  1.1127  0.6416 -3.0280
 7783TIP3   OH223312   4.905   2.061   4.076 -0.0899  0.2186 -0.2850
 7783TIP3    H123313   4.889   2.052   4.170  0.5707  0.5367 -0.1339
 7783TIP3    H223314   5.000   2.051   4.067  0.2472  2.8609 -0.5647
 7784TIP3   OH223315   3.573   1.361   1.286  0.5185  0.3868 -0.0000
 7784TIP3    H123316   3.656   1.403   1.309  0.1353  0.1547  1.9707
 7784TIP3    H223317   3.565   1.288   1.347 -0.2443 -0.7883 -1.4284
 7785TIP3   OH223318   4.336   4.282   3.781 -0.1880  0.1626  0.1920
 7785TIP3    H123319   4.352   4.244   3.695 -0.1067 -1.3318  0.8305
 7785TIP3    H223320   4.254   4.241   3.810  0.4762 -0.3544  1.3646
 7786TIP3   OH223321   1.251   2.716   2.818 -0.4950 -0.1218  0.5540
 7786TIP3    H123322   1.171   2.713   2.870 -0.4242  2.8995  0.9744
 7786TIP3    H223323   1.304   2.785   2.858  2.1734 -1.6882 -0.0003
 7787TIP3   OH223324   5.995   3.272   3.500  0.0898  0.5377  0.9440
 7787TIP3    H123325   5.984   3.190   3.451 -1.9893  1.6893 -0.6607
 7787TIP3    H223326   5.910   3.288   3.540  0.2294  2.2904  0.6170
 7788TIP3   OH223327   0.666   5.409   2.280  0.0922  0.9007  0.1891
 7788TIP3    H123328   0.761   5.420   2.284  0.2408 -0.6234  2.8239
 7788TIP3    H223329   0.632   5.474   2.341 -0.5079  0.9549 -0.2022
 7789TIP3   OH223330   5.256   5.634   4.654  0.0554 -0.2161 -0.4416
 7789TIP3    H123331   5.177   5.633   4.600  0.3451 -1.0351 -0.8573
 7789TIP3    H223332   5.308   5.560   4.624 -0.1169 -1.1790  1.4570
 7790TIP3   OH223333   2.041   6.549   4.181  0.2316  0.4237 -0.6056
 7790TIP3    H123334   2.119   6.595   4.210 -0.6084  0.8922  1.0447
 7790TIP3    H223335   2.002   6.514   4.262 -0.5962 -0.8721 -1.5195
 7791TIP3   OH223336   4.811   2.756   3.240  0.1654  0.0116 -0.6277
 7791TIP3    H123337   4.829   2.835   3.291  1.1316  0.1057 -1.0830
 7791TIP3    H223338   4.721   2.767   3.209 -0.9270 -0.6383  2.0891
 7792TIP3   OH223339   2.386   3.354   4.945  0.1090 -0.3137  0.1012
 7792TIP3    H123340   2.337   3.311   5.015  1.4682 -0.7600  0.8279
 7792TIP3    H223341   2.365   3.304   4.866  0.9344 -1.7662  0.7586
 7793TIP3   OH223342   1.268   4.065   0.026 -0.1432  0.3681 -0.7001
 7793TIP3    H123343   1.239   3.992  -0.029  1.6607 -0.7932 -0.2104
 7793TIP3    H223344   1.245   4.038   0.115  1.4896 -0.1591 -0.4005
 7794TIP3   OH223345   3.509   0.675   5.601  0.1735  0.1622  0.1090
 7794TIP3    H123346   3.596   0.650   5.630  0.0845 -1.2142 -0.6942
 7794TIP3    H223347   3.450   0.640   5.669  0.2796  2.3745  1.4265
 7795TIP3   OH223348   3.199   2.271   5.681  0.7010  0.6367 -0.2148
 7795TIP3    H123349   3.190   2.320   5.599  2.6609 -1.0021 -1.5005
 7795TIP3    H223350   3.109   2.258   5.711 -0.0484  1.5614 -1.9393
 7796TIP3   OH223351   0.313   5.442   1.587 -0.0649  0.3524  0.1072
 7796TIP3    H123352   0.402   5.425   1.620  0.9211  0.5224 -2.2613
 7796TIP3    H223353   0.264   5.469   1.664  1.0920 -2.7397  2.1266
 7797TIP3   OH223354   2.797   3.105   2.653 -0.4068  0.4070 -0.0006
 7797TIP3    H123355   2.794   3.174   2.586  0.2355 -0.5856 -1.0769
 7797TIP3    H223356   2.872   3.130   2.708  0.0258  0.4067 -0.5765
 7798TIP3   OH223357   2.260   2.520   5.245  0.2992  0.1538 -0.3513
 7798TIP3    H123358   2.184   2.533   5.301 -0.8929 -0.3178 -1.7987
 7798TIP3    H223359   2.321   2.469   5.299  0.0014  1.3103  1.1454
 7799TIP3   OH223360   4.142   0.110   4.885 -0.1638 -0.1425  0.5315
 7799TIP3    H123361   4.103   0.076   4.965 -0.6456 -0.5081  0.1478
 7799TIP3    H223362   4.126   0.042   4.819  0.0071  0.2567  0.0660
 7800TIP3   OH223363   3.246   3.142   1.686  0.0059  0.2691 -0.2229
 7800TIP3    H123364   3.193   3.117   1.610  0.0102  0.2480 -0.2188
 7800TIP3    H223365   3.186   3.194   1.740 -0.4926 -1.0555  0.5464
 7801TIP3   OH223366   4.315   3.941   2.249 -0.3351 -0.6659 -0.1191
 7801TIP3    H123367   4.365   3.987   2.316  1.7458 -0.6178 -1.6197
 7801TIP3    H223368   4.349   3.851   2.252 -2.1324 -1.3702  0.6454
 7802TIP3   OH223369   2.357   6.213   1.985  0.4614  0.5909  0.3878
 7802TIP3    H123370   2.332   6.143   1.925  1.6564 -1.7986  2.5000
 7802TIP3    H223371   2.293   6.208   2.056  0.0964  2.2202  0.2237
 7803TIP3   OH223372   1.115   4.973   5.462 -0.5638  0.1352 -0.1633
 7803TIP3    H123373   1.120   5.032   5.387 -1.6879 -0.3194 -0.6082
 7803TIP3    H223374   1.169   4.898   5.437  2.7601  1.8011  1.2794
 7804TIP3   OH223375   0.667   0.981   3.176 -0.1698  0.0924  0.2566
 7804TIP3    H123376   0.699   0.901   3.135 -1.1785 -0.4190  0.4187
 7804TIP3    H223377   0.597   1.012   3.118 -0.2242  0.4870  0.5272
 7805TIP3   OH223378   4.649   6.423   3.176 -0.3906  0.0322 -0.3093
 7805TIP3    H123379   4.626   6.332   3.191  0.4823  0.0986  1.7409
 7805TIP3    H223380   4.744   6.422   3.162 -0.5714  0.4933 -1.6933
 7806TIP3   OH223381   1.075   2.355   4.379 -0.2133  0.5190  0.2899
 7806TIP3    H123382   1.057   2.264   4.404 -0.2248  0.9842  2.1049
 7806TIP3    H223383   0.996   2.403   4.404  0.0275  1.1393 -0.0974
 7807TIP3   OH223384   2.347   4.446   3.408 -0.5364 -0.6218 -0.6417
 7807TIP3    H123385   2.306   4.532   3.404 -0.4350 -0.6001 -1.4465
 7807TIP3    H223386   2.409   4.445   3.335  2.1813 -0.0361  1.4849
 7808TIP3   OH223387   0.160   6.711   1.562 -0.2395  0.4197  0.6177
 7808TIP3    H123388   0.160   6.631   1.615  0.4401  0.2770  0.4093
 7808TIP3    H223389   0.145   6.781   1.626 -2.2894  0.0341  0.6217
 7809TIP3   OH223390   3.081   0.171   2.695  0.1750  0.2134  0.1765
 7809TIP3    H123391   3.044   0.230   2.630  1.4586 -0.3217 -1.0729
 7809TIP3    H223392   3.175   0.176   2.682  0.3969 -0.7191  1.2842
 7810TIP3   OH223393   7.033   2.767   1.571 -0.1393  0.7093 -0.0832
 7810TIP3    H123394   6.983   2.687   1.551 -1.7285  1.5772  0.2310
 7810TIP3    H223395   7.120   2.751   1.535 -0.1986 -1.4442  0.5741
 7811TIP3   OH223396   0.215   2.280   5.059  0.1277 -0.3330  0.1775
 7811TIP3    H123397   0.275   2.334   5.111  1.4594 -0.4875 -1.1233
 7811TIP3    H223398   0.247   2.190   5.071  0.0243 -0.4445 -0.3661
 7812TIP3   OH223399   3.934   3.065   1.864 -0.0068  0.5181  0.6319
 7812TIP3    H123400   3.998   3.073   1.934 -1.5935  2.5356  1.9578
 7812TIP3    H223401   3.851   3.092   1.904 -1.4792 -0.7407 -1.3541
 7813TIP3   OH223402   4.454   4.587   3.534 -0.2036 -0.2892 -0.5651
 7813TIP3    H123403   4.433   4.566   3.625 -2.0422  3.1677 -0.0037
 7813TIP3    H223404   4.429   4.679   3.525  1.9236  0.1129 -4.0207
 7814TIP3   OH223405   2.239   3.667   2.037 -0.1960 -0.1146  0.8460
 7814TIP3    H123406   2.245   3.574   2.017  0.7081 -0.1891  1.4190
 7814TIP3    H223407   2.300   3.709   1.976 -1.2945  0.2241 -0.0605
 7815TIP3   OH223408   3.908   1.223   1.821 -0.5365  0.6378 -0.0522
 7815TIP3    H123409   3.967   1.149   1.837 -2.1329 -0.3928  1.3997
 7815TIP3    H223410   3.957   1.299   1.853  0.4173 -0.0471  0.1644
 7816TIP3   OH223411   6.053   3.013   1.122  0.2636  0.0808  0.1831
 7816TIP3    H123412   6.092   2.937   1.164 -1.0069  0.2676  1.8025
 7816TIP3    H223413   6.027   2.981   1.035 -0.2502 -1.3686  0.8246
 7817TIP3   OH223414   3.191   3.857   0.681  0.1140  0.1194  0.1276
 7817TIP3    H123415   3.195   3.881   0.588 -1.3372  0.0371  0.0304
 7817TIP3    H223416   3.172   3.763   0.680  1.7966 -0.2697  0.5303
 7818TIP3   OH223417   3.558   4.900   2.689 -0.2721  0.2718 -0.2010
 7818TIP3    H123418   3.618   4.973   2.674 -1.1738  1.1807  0.4390
 7818TIP3    H223419   3.478   4.926   2.644 -1.0805  0.3750  1.2390
 7819TIP3   OH223420   0.391   5.832   4.614 -0.2109 -0.3034  0.0698
 7819TIP3    H123421   0.371   5.903   4.676  0.8345  0.3131 -0.2652
 7819TIP3    H223422   0.469   5.790   4.651 -0.2188 -0.6124 -0.2682
 7820TIP3   OH223423   4.265   3.300   3.370  0.5127 -0.4319  0.1026
 7820TIP3    H123424   4.278   3.216   3.327  1.2916 -0.2226 -0.0709
 7820TIP3    H223425   4.201   3.282   3.439 -2.0806 -0.4517 -2.1376
 7821TIP3   OH223426   0.546   6.516   1.156  0.1424  0.7286  0.5665
 7821TIP3    H123427   0.613   6.458   1.122 -0.1413  0.6985  0.0495
 7821TIP3    H223428   0.481   6.523   1.086 -2.0812 -1.8324  2.1603
 7822TIP3   OH223429   4.529   0.088   2.747 -0.0493  0.0878 -0.1267
 7822TIP3    H123430   4.440   0.093   2.783 -0.0053  0.0027 -0.0042
 7822TIP3    H223431   4.539   0.169   2.697  0.1670  0.6009  0.7062
 7823TIP3   OH223432   2.691   6.508   0.820 -0.4549 -0.0016 -0.1016
 7823TIP3    H123433   2.679   6.582   0.760 -0.2386  0.3425  0.2695
 7823TIP3    H223434   2.783   6.513   0.845 -0.2546 -0.8435 -0.6436
 7824TIP3   OH223435   1.266   4.118   1.343  0.5059 -0.2093 -0.3771
 7824TIP3    H123436   1.331   4.176   1.383 -0.3665  0.7129 -0.2476
 7824TIP3    H223437   1.265   4.041   1.400 -1.1366  1.3126  1.8754
 7825TIP3   OH223438   0.428   1.774  -0.005  0.1411 -0.3522 -0.5949
 7825TIP3    H123439   0.467   1.829   0.063  0.0468 -1.2615  0.2321
 7825TIP3    H223440   0.503   1.732  -0.047  0.1886  0.0472 -0.9144
 7826TIP3   OH223441   5.639   2.666   1.395 -0.0691  0.7783  0.5895
 7826TIP3    H123442   5.675   2.595   1.342  1.3042  2.4559 -0.8664
 7826TIP3    H223443   5.710   2.690   1.455  0.4373  2.4909 -0.6182
 7827TIP3   OH223444   1.996   2.007   5.095 -0.2671  0.1729  0.3437
 7827TIP3    H123445   1.902   1.998   5.113 -0.6102  2.1841 -0.2412
 7827TIP3    H223446   2.015   1.937   5.032 -1.5969  0.3186 -0.2462
 7828TIP3   OH223447   2.122   4.176   3.338  0.1439 -0.0278  0.2693
 7828TIP3    H123448   2.194   4.178   3.401 -0.9143 -0.4520  1.5700
 7828TIP3    H223449   2.084   4.263   3.342  0.2994  0.0514 -0.0416
 7829TIP3   OH223450   4.499   6.827   2.719  0.0351 -0.3301 -0.3820
 7829TIP3    H123451   4.583   6.789   2.694  0.3050 -0.4186  0.5935
 7829TIP3    H223452   4.469   6.771   2.792 -1.6292 -1.2680 -1.7091
 7830TIP3   OH223453   4.971   3.809   0.074 -0.1841  0.1246  0.1073
 7830TIP3    H123454   5.021   3.886   0.049  0.6063 -0.3422  0.2328
 7830TIP3    H223455   4.881   3.841   0.086  0.1726  1.0459  0.3259
 7831TIP3   OH223456   3.556   0.162   1.015  0.1913  0.0549 -0.5066
 7831TIP3    H123457   3.515   0.247   1.030  1.2197  0.3042  1.0926
 7831TIP3    H223458   3.488   0.099   1.036  0.1372  0.4766  0.6499
 7832TIP3   OH223459   1.680   3.769   2.090  0.0345  0.0359  0.2615
 7832TIP3    H123460   1.668   3.824   2.167 -0.1277 -0.2659  0.4510
 7832TIP3    H223461   1.775   3.770   2.074  0.3650 -1.6168  1.7474
 7833TIP3   OH223462   4.678   2.704   4.784  0.0144 -0.4706  0.3573
 7833TIP3    H123463   4.626   2.710   4.704 -0.3246 -0.0652  0.6075
 7833TIP3    H223464   4.769   2.712   4.754 -0.1212 -0.1285  0.0393
 7834TIP3   OH223465   6.164   0.299   0.151  0.4292 -0.0716  0.1233
 7834TIP3    H123466   6.185   0.277   0.060 -0.4209  1.2508 -0.4174
 7834TIP3    H223467   6.189   0.391   0.160 -0.4828  0.1149  0.9016
 7835TIP3   OH223468   3.844   2.061   4.610 -0.4268  0.2261  0.6462
 7835TIP3    H123469   3.928   2.103   4.592 -1.5175  2.1253 -0.2856
 7835TIP3    H223470   3.784   2.099   4.546 -1.7958 -1.8715  0.5933
 7836TIP3   OH223471   3.002   0.947   2.952  0.0238  0.4323  0.4810
 7836TIP3    H123472   2.908   0.964   2.959 -0.0983 -0.1148  0.2455
 7836TIP3    H223473   3.043   1.010   3.012 -0.4270  1.2662 -0.0772
 7837TIP3   OH223474   1.972   1.664   2.222 -0.1817  0.1565 -0.1696
 7837TIP3    H123475   2.015   1.644   2.305  0.1851  2.0236  0.1446
 7837TIP3    H223476   1.941   1.754   2.233  0.0298  0.5056 -2.1070
 7838TIP3   OH223477   4.583   0.333   4.775  0.1205  0.0286 -0.3566
 7838TIP3    H123478   4.659   0.322   4.833 -0.0877 -1.0271 -0.2632
 7838TIP3    H223479   4.520   0.381   4.828  1.1797  2.1343 -0.8754
 7839TIP3   OH223480   0.959   1.983   5.209  0.2120  0.7820 -0.4173
 7839TIP3    H123481   0.889   2.042   5.238  1.5463  1.9331  0.6175
 7839TIP3    H223482   0.970   2.002   5.116 -0.6234  0.8229 -0.5164
 7840TIP3   OH223483   0.756   5.624   3.020 -0.0941  0.8320  0.4971
 7840TIP3    H123484   0.693   5.696   3.022  0.4105  1.2726  0.8782
 7840TIP3    H223485   0.703   5.545   3.033 -0.6532  1.1323  0.0396
 7841TIP3   OH223486   0.918   5.033   2.535  0.2953 -0.2145 -0.0722
 7841TIP3    H123487   0.848   5.087   2.497 -0.8295 -0.6245  1.3394
 7841TIP3    H223488   0.968   5.094   2.590 -0.0285 -0.2766  0.2958
 7842TIP3   OH223489   1.370   0.780   0.539  1.0503  0.5469  0.7089
 7842TIP3    H123490   1.440   0.746   0.595  0.1437  1.7504  2.7034
 7842TIP3    H223491   1.294   0.783   0.596 -0.2815  0.6402 -0.9983
 7843TIP3   OH223492   0.209   0.586   3.773 -0.5423  0.9494 -0.1372
 7843TIP3    H123493   0.151   0.662   3.766 -0.0436  1.2254 -1.7950
 7843TIP3    H223494   0.155   0.512   3.745 -0.5876  0.9390 -0.0211
 7844TIP3   OH223495   1.791   6.015   2.205 -0.2460  0.3881  0.1226
 7844TIP3    H123496   1.765   6.054   2.122 -2.7593 -0.6579  0.3248
 7844TIP3    H223497   1.838   5.935   2.180 -2.0110 -0.5541 -0.3926
 7845TIP3   OH223498   0.947   4.563   5.590 -0.0887  0.1261  0.1584
 7845TIP3    H123499   0.912   4.520   5.511  0.0067  1.0510 -0.4018
 7845TIP3    H223500   1.008   4.628   5.556  0.8080 -0.2260  1.0580
 7846TIP3   OH223501   1.257   0.312   5.397  0.4534 -0.3381 -0.2362
 7846TIP3    H123502   1.189   0.250   5.423  0.1417  0.6744  1.4538
 7846TIP3    H223503   1.310   0.324   5.476 -0.1603  2.4046 -0.1589
 7847TIP3   OH223504   5.718   1.993   2.835 -0.2850 -0.4716  0.0112
 7847TIP3    H123505   5.808   1.966   2.855 -0.1455  0.3030  0.4500
 7847TIP3    H223506   5.689   1.931   2.768 -0.1692 -2.0663  1.3635
 7848TIP3   OH223507   2.001   3.180   3.040 -0.2385 -0.1111  0.6603
 7848TIP3    H123508   1.909   3.188   3.016 -0.4516  0.5049  1.6217
 7848TIP3    H223509   2.021   3.262   3.086  1.0693  0.2129 -0.4129
 7849TIP3   OH223510   6.937   3.034   4.408 -0.0651  0.3002  0.7632
 7849TIP3    H123511   6.872   2.969   4.383 -1.4094  1.4694  1.1247
 7849TIP3    H223512   7.017   3.007   4.362 -0.6462 -1.4377  0.7057
 7850TIP3   OH223513   3.546   6.595   0.665 -0.0936  0.0073  0.1633
 7850TIP3    H123514   3.632   6.628   0.688 -0.1147 -0.5871  1.1563
 7850TIP3    H223515   3.489   6.625   0.737 -0.0112 -2.5357  1.3980
 7851TIP3   OH223516   0.643   4.278   3.476  0.1279 -0.2020  0.0350
 7851TIP3    H123517   0.622   4.204   3.533  0.4584 -1.2084 -1.1213
 7851TIP3    H223518   0.732   4.303   3.500 -1.1368  2.1910  2.9086
 7852TIP3   OH223519   6.507   1.404   4.291 -0.5957 -0.0256  0.3503
 7852TIP3    H123520   6.496   1.348   4.214  0.2267 -0.6261  0.6519
 7852TIP3    H223521   6.592   1.446   4.278 -0.8011  0.4664  0.5626
 7853TIP3   OH223522   4.939   0.746   5.861  0.0502 -0.1593 -0.0735
 7853TIP3    H123523   4.903   0.767   5.775  1.1030 -0.7916 -0.6847
 7853TIP3    H223524   4.932   0.828   5.910 -0.4489  0.2411 -0.7948
 7854TIP3   OH223525   2.976   1.777   5.323  0.3182  0.0797  0.1717
 7854TIP3    H123526   3.069   1.795   5.338  0.3880  1.2854 -1.4893
 7854TIP3    H223527   2.975   1.698   5.269  0.3392 -0.1467  0.4941
 7855TIP3   OH223528   6.970   0.222   4.840 -0.0643 -1.0190 -0.6395
 7855TIP3    H123529   6.877   0.216   4.860 -0.3105  0.2386 -1.2737
 7855TIP3    H223530   7.005   0.135   4.857 -1.5492 -1.7879 -1.3972
 7856TIP3   OH223531   4.896   1.687   0.558 -0.0969 -0.0895  0.4326
 7856TIP3    H123532   4.805   1.706   0.536 -0.2734 -2.6614 -1.5220
 7856TIP3    H223533   4.891   1.608   0.612  0.9500  0.1180  0.8454
 7857TIP3   OH223534   6.707   3.712   2.556 -0.0622 -0.7675 -0.4044
 7857TIP3    H123535   6.694   3.736   2.648 -0.6647 -2.6376  0.0585
 7857TIP3    H223536   6.619   3.687   2.526  0.3882 -1.7652 -0.9616
 7858TIP3   OH223537   3.665   0.921   3.806 -0.0021 -0.0072 -0.8253
 7858TIP3    H123538   3.651   0.849   3.867 -0.6799 -0.6378 -1.6963
 7858TIP3    H223539   3.753   0.907   3.771  0.9909  1.1780  1.0306
 7859TIP3   OH223540   1.466   1.810   2.881  0.0666  0.4353 -0.0812
 7859TIP3    H123541   1.422   1.832   2.798 -0.1981 -0.4845 -0.2005
 7859TIP3    H223542   1.556   1.791   2.855  0.6300  2.4864  0.1856
 7860TIP3   OH223543   1.159   1.807   0.052 -0.2473  0.8600 -0.4928
 7860TIP3    H123544   1.212   1.886   0.068  1.0711  0.2281 -1.5500
 7860TIP3    H223545   1.071   1.832   0.080  1.0258  0.9662  4.3972
 7861TIP3   OH223546   1.454   4.000   2.343 -0.1637 -0.1998  0.4526
 7861TIP3    H123547   1.368   3.957   2.346 -0.9484  1.3202  1.0403
 7861TIP3    H223548   1.490   3.988   2.431  1.4440 -3.0601 -0.4748
 7862TIP3   OH223549   0.823   2.017   1.643 -0.4389  0.5568 -0.5332
 7862TIP3    H123550   0.854   2.097   1.602 -1.7146  0.1415 -2.4965
 7862TIP3    H223551   0.748   2.043   1.695  1.0450  1.0520  1.4854
 7863TIP3   OH223552   4.448   5.004   1.109  0.3561  0.1026  0.1938
 7863TIP3    H123553   4.380   5.041   1.166 -0.2012 -1.0240  0.2908
 7863TIP3    H223554   4.468   5.074   1.047  0.1589  0.9588  1.0695
 7864TIP3   OH223555   7.142   6.017   3.831 -0.2246  0.0473  0.3486
 7864TIP3    H123556   7.048   6.005   3.820 -0.3585  0.6572  0.7691
 7864TIP3    H223557   7.159   5.991   3.922 -0.3751  2.0336  1.0000
 7865TIP3   OH223558   1.491   6.577   0.521  0.0601 -0.2071  0.0052
 7865TIP3    H123559   1.549   6.579   0.445 -0.0075  1.5727 -0.0372
 7865TIP3    H223560   1.513   6.495   0.566  2.3078  0.1989 -0.2415
 7866TIP3   OH223561   0.418   6.756   4.225  0.2869 -0.0342  0.6356
 7866TIP3    H123562   0.404   6.670   4.185 -1.6513  0.2954  0.5185
 7866TIP3    H223563   0.419   6.817   4.152 -2.2657  0.4495  0.9043
 7867TIP3   OH223564   0.685   4.534   2.479  0.4831 -0.1544 -0.1701
 7867TIP3    H123565   0.644   4.448   2.470 -0.9716  0.3674  1.0345
 7867TIP3    H223566   0.709   4.539   2.572  3.0320 -0.2806 -0.7334
 7868TIP3   OH223567   2.901   5.748   5.402 -0.5066  0.4094  0.2938
 7868TIP3    H123568   2.815   5.733   5.363 -0.4032 -2.1724  0.8929
 7868TIP3    H223569   2.949   5.797   5.335 -1.8356  0.2386 -0.8314
 7869TIP3   OH223570   1.449   0.874   0.819 -0.4231 -0.0207  0.2029
 7869TIP3    H123571   1.487   0.801   0.770 -1.2518 -0.1456 -0.2848
 7869TIP3    H223572   1.476   0.859   0.909  0.4778 -0.2260 -0.0896
 7870TIP3   OH223573   2.489   3.641   1.457 -0.0365 -0.3074  0.2638
 7870TIP3    H123574   2.560   3.682   1.506  0.3179 -1.4069  0.6966
 7870TIP3    H223575   2.409   3.672   1.500  0.1127  1.3713 -0.5568
 7871TIP3   OH223576   6.879   6.277   5.478 -0.3771 -0.2709  0.2090
 7871TIP3    H123577   6.943   6.348   5.480  1.1320 -1.5790  0.7817
 7871TIP3    H223578   6.907   6.221   5.406 -1.2891 -0.5220  0.0349
 7872TIP3   OH223579   3.590   3.238   0.010 -0.5782 -0.0704 -0.0957
 7872TIP3    H123580   3.664   3.248  -0.050 -1.2530 -0.8254 -1.0870
 7872TIP3    H223581   3.605   3.304   0.078  1.3222 -0.6179  0.0804
 7873TIP3   OH223582   1.789   5.514   0.625 -0.3749  0.0030  0.3737
 7873TIP3    H123583   1.777   5.465   0.543  0.7339  0.4876 -0.1029
 7873TIP3    H223584   1.842   5.590   0.600  0.5822 -0.2028  1.6540
 7874TIP3   OH223585   1.239   5.688   2.632 -0.3796  0.0444 -0.0044
 7874TIP3    H123586   1.227   5.607   2.681 -1.4208  1.0492  1.5113
 7874TIP3    H223587   1.271   5.661   2.547 -2.9866 -2.1593 -0.3978
 7875TIP3   OH223588   4.410   4.512   0.486 -0.0502  0.1037 -0.2830
 7875TIP3    H123589   4.431   4.601   0.458 -0.1067 -0.4201 -2.0522
 7875TIP3    H223590   4.416   4.515   0.582  0.7962  1.7843 -0.3667
 7876TIP3   OH223591   6.491   4.284   2.004 -0.3937 -0.2211 -0.3160
 7876TIP3    H123592   6.482   4.233   1.924 -2.3242  0.6802 -0.7210
 7876TIP3    H223593   6.570   4.336   1.991  1.0293 -2.2882 -0.3185
 7877TIP3   OH223594   0.053   5.568   5.677 -0.2783  0.0712 -0.1994
 7877TIP3    H123595   0.033   5.475   5.679 -1.8039  0.3415 -0.9533
 7877TIP3    H223596   0.148   5.573   5.686 -0.0190 -1.6395 -1.4959
 7878TIP3   OH223597   1.079   5.515   4.039 -0.1026  0.7567  0.2442
 7878TIP3    H123598   1.144   5.450   4.067 -0.2411 -0.6138 -2.2803
 7878TIP3    H223599   1.131   5.592   4.016  0.1630  1.2481  2.3649
 7879TIP3   OH223600   2.765   4.983   3.732 -0.4454 -0.2831  1.0326
 7879TIP3    H123601   2.844   4.996   3.785 -0.2185  1.0216  0.4233
 7879TIP3    H223602   2.780   4.902   3.685  0.0219 -0.6532  1.7935
 7880TIP3   OH223603   2.852   3.700   3.773  0.2887 -0.0166  0.4606
 7880TIP3    H123604   2.937   3.700   3.818 -0.3102  0.6254  1.6463
 7880TIP3    H223605   2.795   3.750   3.831 -0.7501  0.0836 -0.6215
 7881TIP3   OH223606   3.119   4.299   3.643  0.3907 -0.4732 -0.1291
 7881TIP3    H123607   3.151   4.256   3.722  1.0861 -0.1163 -0.2135
 7881TIP3    H223608   3.179   4.372   3.629  1.3024 -1.4859 -1.9091
 7882TIP3   OH223609   1.213   4.736   1.568  0.0225  0.0988  0.3692
 7882TIP3    H123610   1.160   4.805   1.609 -2.0650 -1.9184  1.3350
 7882TIP3    H223611   1.225   4.765   1.478 -1.9931  1.1358  0.3644
 7883TIP3   OH223612   2.942   0.214   4.772 -0.1286 -0.1822  0.6472
 7883TIP3    H123613   3.020   0.161   4.753  0.0213 -0.0312  0.8321
 7883TIP3    H223614   2.977   0.293   4.815 -0.2891  0.3550 -0.1857
 7884TIP3   OH223615   0.277   4.648   3.476  0.0893 -0.7009  0.4559
 7884TIP3    H123616   0.247   4.706   3.405  0.0932 -1.9434 -0.5865
 7884TIP3    H223617   0.369   4.631   3.456 -0.1682 -1.8359  0.2190
 7885TIP3   OH223618   2.150   4.893   2.936 -0.4978 -0.2448  0.5212
 7885TIP3    H123619   2.187   4.815   2.978  0.0235 -0.3268 -0.0672
 7885TIP3    H223620   2.160   4.876   2.842  0.5623  0.9578  0.3833
 7886TIP3   OH223621   4.453   4.911   3.851 -0.4825 -0.2804  0.1045
 7886TIP3    H123622   4.432   5.003   3.832 -1.2332 -0.1362  1.4889
 7886TIP3    H223623   4.384   4.883   3.911 -0.8171 -2.0582 -1.0353
 7887TIP3   OH223624   6.061   3.553   0.695 -0.3968 -0.0282 -0.5167
 7887TIP3    H123625   6.126   3.488   0.720 -0.0956 -0.0217 -1.2679
 7887TIP3    H223626   5.983   3.502   0.674 -0.8352 -0.0008  0.9430
 7888TIP3   OH223627   5.999   1.207   2.754  0.4874 -0.0017  0.5248
 7888TIP3    H123628   5.982   1.291   2.711 -0.9675 -0.3274  0.3961
 7888TIP3    H223629   6.044   1.231   2.835  0.7149  0.8433  0.1659
 7889TIP3   OH223630   3.759   2.077   1.733 -0.1691 -0.0052  0.7010
 7889TIP3    H123631   3.841   2.125   1.722 -1.3990  2.0889 -0.0194
 7889TIP3    H223632   3.703   2.138   1.781 -1.0539 -1.7254  1.9638
 7890TIP3   OH223633   1.603   4.193   1.301 -0.5458 -0.0041  0.3273
 7890TIP3    H123634   1.681   4.173   1.249  0.9623  1.5422  1.9216
 7890TIP3    H223635   1.570   4.107   1.327  0.1182 -0.7134 -1.0511
 7891TIP3   OH223636   1.449   2.963   5.551  0.0732  0.2058 -0.9642
 7891TIP3    H123637   1.477   2.872   5.563  1.3726  0.8320  1.2655
 7891TIP3    H223638   1.371   2.972   5.605 -0.3520  0.2911 -1.5873
 7892TIP3   OH223639   2.862   5.789   0.122 -0.1408 -0.4043 -0.3725
 7892TIP3    H123640   2.773   5.824   0.124 -0.7296 -1.7991 -0.7147
 7892TIP3    H223641   2.893   5.797   0.212 -0.6826 -0.0624 -0.2110
 7893TIP3   OH223642   1.532   6.012   4.978 -0.2179  0.3391  0.1615
 7893TIP3    H123643   1.603   6.064   4.939  2.1359 -2.4266  0.4245
 7893TIP3    H223644   1.485   5.976   4.904 -0.1869  0.7039 -0.0382
 7894TIP3   OH223645   5.562   4.668   0.704  0.4632  0.9514  0.6986
 7894TIP3    H123646   5.550   4.676   0.799 -2.8875  0.9239  0.3890
 7894TIP3    H223647   5.487   4.616   0.675 -0.2213  3.3703 -2.3114
 7895TIP3   OH223648   0.952   6.235   1.372  0.0383  0.7600  0.2290
 7895TIP3    H123649   0.865   6.261   1.342  0.5024  0.5148 -1.4350
 7895TIP3    H223650   1.011   6.301   1.335  0.6168  0.6614  0.9513
 7896TIP3   OH223651   4.389   6.327   4.752 -0.2872  0.0493 -0.4571
 7896TIP3    H123652   4.298   6.313   4.775 -0.3779  2.4935  1.0513
 7896TIP3    H223653   4.435   6.333   4.836  0.9136  0.7441 -1.1236
 7897TIP3   OH223654   4.982   0.641   3.225  0.3033 -0.7528  0.4564
 7897TIP3    H123655   4.938   0.586   3.161 -0.1685  0.8164 -0.6293
 7897TIP3    H223656   4.912   0.686   3.272  0.6677  0.3956 -0.0414
 7898TIP3   OH223657   3.305   2.876   4.502 -0.1249 -0.1384 -0.2181
 7898TIP3    H123658   3.274   2.963   4.476  0.0747  0.2418  0.7712
 7898TIP3    H223659   3.360   2.892   4.579  0.6278 -1.0496 -0.5445
 7899TIP3   OH223660   0.906   1.205   3.710  0.0947 -0.4339 -0.3667
 7899TIP3    H123661   0.932   1.258   3.785  1.6008  0.1213 -1.2326
 7899TIP3    H223662   0.850   1.137   3.747 -2.6035  2.1281  0.7098
 7900TIP3   OH223663   1.665   0.746   4.897 -0.4276 -0.3943 -0.1795
 7900TIP3    H123664   1.674   0.840   4.881  2.2164 -0.4148  0.7350
 7900TIP3    H223665   1.732   0.706   4.841 -1.5703 -1.7653 -0.6171
 7901TIP3   OH223666   4.117   1.758   4.472  0.1107 -0.1940 -0.5453
 7901TIP3    H123667   4.199   1.774   4.425  0.8207 -0.5073  0.5502
 7901TIP3    H223668   4.140   1.695   4.540 -1.1137 -0.5189 -0.4032
 7902TIP3   OH223669   6.713   2.891   4.329 -0.0690  0.2294  0.1974
 7902TIP3    H123670   6.700   2.902   4.235  0.9483  0.5795  0.0867
 7902TIP3    H223671   6.624   2.888   4.365 -0.5170  2.8003 -0.4617
 7903TIP3   OH223672   4.536   0.527   5.749  0.5116 -0.0876 -0.3885
 7903TIP3    H123673   4.567   0.616   5.765  0.3277  0.0601 -0.8565
 7903TIP3    H223674   4.533   0.519   5.654 -0.6347 -0.1917 -0.3498
 7904TIP3   OH223675   5.419   5.429   3.754 -0.2619 -0.0130  0.2193
 7904TIP3    H123676   5.396   5.365   3.687 -0.6960 -1.6518  1.8300
 7904TIP3    H223677   5.353   5.498   3.746  0.4831  0.5276 -1.8486
 7905TIP3   OH223678   5.534   4.252   0.893 -0.6007 -0.1096  0.5006
 7905TIP3    H123679   5.607   4.201   0.858 -0.2770  1.7487 -1.7210
 7905TIP3    H223680   5.574   4.329   0.933 -1.2824  1.0932 -1.0270
 7906TIP3   OH223681   1.608   6.650   5.275  0.2955  0.0421 -0.2824
 7906TIP3    H123682   1.543   6.686   5.335 -0.1432  0.9563 -1.2586
 7906TIP3    H223683   1.616   6.558   5.300  0.5199  0.5239  1.4887
 7907TIP3   OH223684   0.556   2.315   1.460  0.4402  0.0249 -0.4992
 7907TIP3    H123685   0.544   2.220   1.461  0.5688 -0.0071 -1.1206
 7907TIP3    H223686   0.474   2.350   1.494  0.7122 -0.3262  0.5514
 7908TIP3   OH223687   5.411   0.159   3.345 -0.6863 -0.2167  0.0736
 7908TIP3    H123688   5.503   0.173   3.367 -0.6572 -0.1477 -0.0893
 7908TIP3    H223689   5.387   0.234   3.291 -0.2883 -1.2026 -1.5399
 7909TIP3   OH223690   3.809   0.960   5.784  0.4745  0.0048  0.6198
 7909TIP3    H123691   3.715   0.973   5.797  0.3267 -0.3553 -0.0825
 7909TIP3    H223692   3.845   1.048   5.781 -0.1272  0.2263 -1.1731
 7910TIP3   OH223693   6.110   2.505   5.505  0.4246  0.1428 -0.2098
 7910TIP3    H123694   6.024   2.469   5.484  1.1031 -1.3633 -0.5157
 7910TIP3    H223695   6.143   2.540   5.422  0.6077 -0.3942 -0.3686
 7911TIP3   OH223696   5.520   0.700   3.099  0.3105 -0.5959 -0.2007
 7911TIP3    H123697   5.428   0.714   3.119  0.6230  0.4956  0.5759
 7911TIP3    H223698   5.546   0.628   3.156 -0.0234 -0.7953 -0.3016
 7912TIP3   OH223699   3.912   0.682   0.757 -0.0986  0.2174  0.1008
 7912TIP3    H123700   3.927   0.777   0.749  1.7474 -0.0826 -0.6597
 7912TIP3    H223701   3.996   0.648   0.787 -1.1772 -1.0434  1.8215
 7913TIP3   OH223702   4.242   5.338   2.901  0.1292  0.4026 -0.2175
 7913TIP3    H123703   4.244   5.364   2.809 -2.3289  1.6794 -0.0188
 7913TIP3    H223704   4.163   5.284   2.909  1.5593 -1.6791  0.7308
 7914TIP3   OH223705   0.420   4.073   0.140 -0.6754 -0.2116  0.8028
 7914TIP3    H123706   0.482   4.000   0.149 -1.3516 -0.9673 -0.4220
 7914TIP3    H223707   0.386   4.086   0.228  0.1033 -0.7887  1.2083
 7915TIP3   OH223708   4.663   6.418   4.600 -0.3197 -1.0176  0.1609
 7915TIP3    H123709   4.633   6.352   4.663 -1.4587 -1.3688 -0.7205
 7915TIP3    H223710   4.743   6.380   4.563  0.6716 -0.5617  1.7566
 7916TIP3   OH223711   6.439   4.091   1.822 -0.2908 -0.2094 -0.0799
 7916TIP3    H123712   6.364   4.116   1.768  0.4086  1.0382 -0.5267
 7916TIP3    H223713   6.471   4.010   1.782  1.2368  1.5386 -2.7214
 7917TIP3   OH223714   3.045   4.064   2.315  0.2235  0.1504 -0.3083
 7917TIP3    H123715   3.033   4.138   2.373 -0.2451  0.1021 -0.3435
 7917TIP3    H223716   3.138   4.066   2.293  0.8967 -1.0863  2.1308
 7918TIP3   OH223717   1.423   4.037   4.387  0.7080  0.1075 -0.0589
 7918TIP3    H123718   1.440   4.046   4.481 -0.5761  0.9510  0.1238
 7918TIP3    H223719   1.407   4.127   4.358 -0.6006 -0.3228 -0.7326
 7919TIP3   OH223720   0.737   4.108   1.467  0.7502  0.0928  0.7684
 7919TIP3    H123721   0.696   4.027   1.497  0.4105 -0.2542 -0.5774
 7919TIP3    H223722   0.675   4.176   1.491  0.3205 -0.2154  0.5560
 7920TIP3   OH223723   6.619   2.245   2.573 -0.0281  0.1380  0.5925
 7920TIP3    H123724   6.541   2.289   2.537 -0.3144 -0.4615  0.4760
 7920TIP3    H223725   6.629   2.283   2.660  1.1960  2.2644 -0.4069
 7921TIP3   OH223726   5.785   2.380   3.325  0.2688 -0.1251  0.2273
 7921TIP3    H123727   5.808   2.306   3.380 -0.2336 -1.2385 -1.0202
 7921TIP3    H223728   5.842   2.372   3.249 -0.1929  0.4315 -0.1902
 7922TIP3   OH223729   2.319   3.851   0.059 -0.0106 -0.0407  1.0701
 7922TIP3    H123730   2.388   3.869  -0.005  1.0429  2.6072  2.7525
 7922TIP3    H223731   2.259   3.792   0.014  1.8852 -0.1998 -1.4742
 7923TIP3   OH223732   6.494   3.888   3.029 -0.5525 -0.0505 -0.0311
 7923TIP3    H123733   6.425   3.951   3.047 -0.0148  0.9458 -1.2750
 7923TIP3    H223734   6.561   3.907   3.095 -0.4003  0.6956 -0.3861
 7924TIP3   OH223735   3.364   3.250   2.421 -0.5330 -0.6872  0.2399
 7924TIP3    H123736   3.365   3.343   2.447 -0.4277 -0.1807 -1.4401
 7924TIP3    H223737   3.456   3.228   2.406 -0.4127 -1.4991  1.9474
 7925TIP3   OH223738   6.032   1.662   0.892 -0.0903  0.0733 -0.1111
 7925TIP3    H123739   6.049   1.726   0.823  0.0386  0.7151  0.5042
 7925TIP3    H223740   6.104   1.600   0.886 -0.2193 -0.0264 -0.7159
 7926TIP3   OH223741   0.707   0.942   2.413 -0.3082  0.0668  0.2666
 7926TIP3    H123742   0.615   0.926   2.435 -0.3991  0.2821  0.0503
 7926TIP3    H223743   0.707   1.029   2.373 -0.1910 -0.4135 -0.8290
 7927TIP3   OH223744   1.262   1.343   4.217  0.6969 -0.0408 -0.4460
 7927TIP3    H123745   1.208   1.375   4.145 -0.6739 -1.4871 -0.1127
 7927TIP3    H223746   1.201   1.332   4.289  1.2837 -2.3038 -0.2322
 7928TIP3   OH223747   0.259   4.782   0.314  0.1859  0.5086  0.3320
 7928TIP3    H123748   0.184   4.827   0.354 -0.4397  0.3813 -0.6611
 7928TIP3    H223749   0.272   4.704   0.368 -1.2547 -0.1616 -0.2308
 7929TIP3   OH223750   5.637   4.306   5.863 -0.1866  0.2928  0.1408
 7929TIP3    H123751   5.726   4.318   5.898 -0.5973  2.2682  0.6400
 7929TIP3    H223752   5.649   4.304   5.768  0.2310  3.0640  0.0477
 7930TIP3   OH223753   1.757   0.124   0.961  0.1776 -0.0810  0.1235
 7930TIP3    H123754   1.738   0.089   1.048 -2.3578 -0.0909 -0.3577
 7930TIP3    H223755   1.729   0.215   0.964  1.7763  0.4641 -0.1998
 7931TIP3   OH223756   3.828   5.867   1.878  0.6787 -0.4510 -0.0353
 7931TIP3    H123757   3.776   5.789   1.898  2.5648 -1.6864  0.3410
 7931TIP3    H223758   3.789   5.902   1.798  0.0070 -2.0318 -0.4474
 7932TIP3   OH223759   5.785   6.501   0.229  0.5158 -0.3575 -0.2732
 7932TIP3    H123760   5.765   6.580   0.178 -0.7776  0.6374  1.6418
 7932TIP3    H223761   5.792   6.431   0.163  2.7950  1.4744 -2.1483
 7933TIP3   OH223762   0.352   3.331   5.552 -0.3766 -0.2289  0.0489
 7933TIP3    H123763   0.405   3.273   5.607 -0.6985  1.2599  2.0517
 7933TIP3    H223764   0.281   3.360   5.609 -0.5231  1.7229 -1.0185
 7934TIP3   OH223765   1.574   6.781   3.549  0.3057 -0.0611 -0.1743
 7934TIP3    H123766   1.660   6.774   3.590  0.7044  0.9694 -0.7750
 7934TIP3    H223767   1.582   6.731   3.468  0.4751  0.3314 -0.4076
 7935TIP3   OH223768   4.355   6.065   5.667 -0.3016 -0.0139 -0.0637
 7935TIP3    H123769   4.418   6.134   5.650 -1.8451  1.3900 -0.3459
 7935TIP3    H223770   4.363   6.047   5.760 -0.1840  0.8864  0.1061
 7936TIP3   OH223771   7.085   5.201   1.257 -0.2139  0.1318  0.0754
 7936TIP3    H123772   7.141   5.207   1.334 -2.0593 -0.0912  1.5281
 7936TIP3    H223773   7.053   5.291   1.244 -1.0389 -0.0829  0.5149
 7937TIP3   OH223774   3.188   0.151   0.857 -0.1768 -0.3623  0.4493
 7937TIP3    H123775   3.104   0.118   0.825  0.5142 -1.3115 -0.4641
 7937TIP3    H223776   3.179   0.247   0.854 -0.1464 -0.3265 -2.8950
 7938TIP3   OH223777   3.559   6.175   1.494 -0.4707 -0.4685 -0.2681
 7938TIP3    H123778   3.589   6.208   1.579 -0.1350  0.7658 -0.8429
 7938TIP3    H223779   3.617   6.102   1.474  0.7153  0.4581 -0.3141
 7939TIP3   OH223780   2.050   6.667   0.929  0.0365  0.6830  0.9928
 7939TIP3    H123781   2.044   6.675   1.024 -0.7321  1.0637  0.9196
 7939TIP3    H223782   2.077   6.754   0.899 -1.8218  1.2059  0.7128
 7940TIP3   OH223783   4.694   3.928   1.724 -0.6473 -0.0905  0.5994
 7940TIP3    H123784   4.699   3.996   1.657  0.2686  0.0660  0.8133
 7940TIP3    H223785   4.629   3.962   1.787  1.2438  1.5974  1.7723
 7941TIP3   OH223786   6.690   2.308   3.971 -0.5947  0.0474  0.4302
 7941TIP3    H123787   6.607   2.355   3.970  0.0373  1.2667  1.7592
 7941TIP3    H223788   6.743   2.350   3.903 -1.2689 -1.2073 -0.9258
 7942TIP3   OH223789   3.194   6.496   3.692 -0.3234  0.2487  0.4669
 7942TIP3    H123790   3.152   6.412   3.712  1.3451 -0.3912  1.4906
 7942TIP3    H223791   3.124   6.561   3.702 -1.9353 -1.0815 -1.4926
 7943TIP3   OH223792   3.467   4.830   0.645 -0.0090  0.1357  0.1499
 7943TIP3    H123793   3.539   4.868   0.693 -0.0818  1.8479 -0.9896
 7943TIP3    H223794   3.392   4.835   0.704 -0.0528  2.0148 -0.0129
 7944TIP3   OH223795   0.997   4.254   2.278  0.3228  0.1006 -0.5949
 7944TIP3    H123796   1.089   4.239   2.301  0.2049 -0.5349 -0.5241
 7944TIP3    H223797   0.983   4.201   2.200 -0.3670 -0.9850  0.2338
 7945TIP3   OH223798   6.945   4.137   1.976 -0.4677  0.1621  0.4466
 7945TIP3    H123799   6.933   4.065   2.038  1.9938  0.4248  1.3580
 7945TIP3    H223800   6.951   4.215   2.031 -1.9249  0.9490 -0.4438
 7946TIP3   OH223801   6.250   4.125   5.857 -0.4176 -0.6456 -0.4339
 7946TIP3    H123802   6.307   4.199   5.881 -0.2267 -1.3828  1.6384
 7946TIP3    H223803   6.280   4.098   5.771  1.4276 -0.0891 -0.0154
 7947TIP3   OH223804   6.593   1.695   3.181 -0.2473 -0.3128 -0.1594
 7947TIP3    H123805   6.500   1.677   3.195 -0.8168  1.1600 -1.6821
 7947TIP3    H223806   6.612   1.769   3.238 -0.8470  1.3666 -2.0499
 7948TIP3   OH223807   3.160   1.460   2.474 -0.1992 -0.1789 -0.0309
 7948TIP3    H123808   3.255   1.463   2.469 -0.1278 -0.1382  1.1322
 7948TIP3    H223809   3.132   1.551   2.462  0.0351  0.1316  1.6180
 7949TIP3   OH223810   1.850   6.327   0.660 -0.6124 -0.3133  0.1300
 7949TIP3    H123811   1.844   6.283   0.575 -0.3287  1.4446 -0.8318
 7949TIP3    H223812   1.913   6.274   0.709  1.4760  0.2067 -1.8072
 7950TIP3   OH223813   4.789   3.160   1.497 -0.7457 -0.3017  0.4008
 7950TIP3    H123814   4.745   3.076   1.483  0.0358 -0.7685  0.6819
 7950TIP3    H223815   4.869   3.137   1.544 -0.9411  0.6989  1.2428
 7951TIP3   OH223816   5.537   1.456   5.465  0.4631  0.1228  0.0244
 7951TIP3    H123817   5.621   1.479   5.426  0.1988  0.4353 -0.3806
 7951TIP3    H223818   5.486   1.537   5.461  0.1692 -0.0462  0.3265
 7952TIP3   OH223819   6.851   2.544   3.861  0.2513  0.3959 -0.0379
 7952TIP3    H123820   6.944   2.528   3.846  0.2820  0.6565 -0.1375
 7952TIP3    H223821   6.816   2.563   3.774  0.0224 -0.1047 -0.0582
 7953TIP3   OH223822   7.047   3.493   5.151 -0.5308 -0.1699 -0.2758
 7953TIP3    H123823   7.056   3.399   5.142  0.7985 -0.0540 -0.2356
 7953TIP3    H223824   7.082   3.529   5.069 -0.4486  0.3162 -0.0319
 7954TIP3   OH223825   2.026   4.562   2.790 -0.5016  0.7616  0.2926
 7954TIP3    H123826   2.024   4.505   2.713  0.8500  0.3046  0.5578
 7954TIP3    H223827   2.089   4.630   2.767  0.9642 -0.1290  1.4583
 7955TIP3   OH223828   4.288   5.052   4.826 -0.1899 -0.5330  0.3654
 7955TIP3    H123829   4.240   5.132   4.805 -0.6707 -0.7850  0.4936
 7955TIP3    H223830   4.374   5.066   4.788 -0.3327 -0.0373  0.2092
 7956TIP3   OH223831   6.900   1.463   4.033  0.3851 -0.3538 -0.1742
 7956TIP3    H123832   6.846   1.429   4.104 -0.9049 -2.8740 -2.1762
 7956TIP3    H223833   6.862   1.549   4.013 -1.7165 -1.2413 -0.2434
 7957TIP3   OH223834   1.995   3.271   0.977  0.9080 -0.5387 -0.1634
 7957TIP3    H123835   2.055   3.341   1.004  1.2481 -1.1834  0.8090
 7957TIP3    H223836   1.926   3.271   1.043 -0.4861  0.5097 -1.5298
 7958TIP3   OH223837   3.034   5.862   4.140 -0.1555 -0.0725 -0.2962
 7958TIP3    H123838   3.058   5.948   4.105  0.5287  0.4242  1.2904
 7958TIP3    H223839   3.056   5.867   4.233 -1.5709 -1.4382  0.1574
 7959TIP3   OH223840   5.130   0.062   5.138  0.6856 -1.2042 -0.2749
 7959TIP3    H123841   5.204   0.112   5.103 -1.4029  0.1664 -3.0761
 7959TIP3    H223842   5.136  -0.023   5.093  1.1150 -1.5095  0.3343
 7960TIP3   OH223843   3.404   1.958   4.572  0.2358  0.0046 -0.1210
 7960TIP3    H123844   3.348   1.887   4.542 -2.0581  2.5262 -2.4211
 7960TIP3    H223845   3.419   2.011   4.493  0.7824  2.6745  1.6366
 7961TIP3   OH223846   3.510   1.589   1.594 -0.0113 -0.0601 -0.1596
 7961TIP3    H123847   3.487   1.632   1.512 -0.2793  1.0398  0.4725
 7961TIP3    H223848   3.546   1.659   1.648 -1.7254 -0.3170  1.4089
 7962TIP3   OH223849   0.171   1.961   3.282  0.0700  0.3074 -0.1188
 7962TIP3    H123850   0.195   1.989   3.194 -1.1241  0.4392 -0.4248
 7962TIP3    H223851   0.252   1.927   3.320  0.2427 -1.4364 -1.8942
 7963TIP3   OH223852   0.549   1.371   3.040  0.5035  0.8408 -0.0581
 7963TIP3    H123853   0.512   1.364   3.128  1.4096 -0.2066  0.2493
 7963TIP3    H223854   0.591   1.457   3.039 -1.7781  2.0440 -0.3874
 7964TIP3   OH223855   0.621   4.839   2.601  0.0876 -0.0829 -0.3254
 7964TIP3    H123856   0.570   4.817   2.679 -2.5691  0.0810 -1.8877
 7964TIP3    H223857   0.629   4.934   2.604  1.6178 -0.2180  0.6442
 7965TIP3   OH223858   6.962   0.842   3.587  0.2308 -0.1637  0.0968
 7965TIP3    H123859   6.935   0.873   3.673 -1.0202  1.6959 -0.9124
 7965TIP3    H223860   6.896   0.777   3.563  0.9015 -1.1150  0.7362
 7966TIP3   OH223861   5.475   4.352   0.218  0.8598  0.5791 -0.4172
 7966TIP3    H123862   5.568   4.342   0.235  0.9068  0.4985 -0.7179
 7966TIP3    H223863   5.461   4.310   0.134  0.1181 -1.6406  0.7278
 7967TIP3   OH223864   1.513   6.733   4.456 -0.2046  0.0014  0.0687
 7967TIP3    H123865   1.513   6.646   4.496 -1.6740 -0.5309 -1.0027
 7967TIP3    H223866   1.422   6.749   4.431  0.4102  0.8298 -1.8878
 7968TIP3   OH223867   6.918   1.429   2.740  0.0646 -0.0497 -0.0717
 7968TIP3    H123868   6.989   1.432   2.804  0.8566 -1.7947 -0.7911
 7968TIP3    H223869   6.883   1.340   2.747  0.1719 -0.2886 -2.0264
 7969TIP3   OH223870   5.489   4.734   5.497 -0.7562 -0.1906 -0.1759
 7969TIP3    H123871   5.510   4.785   5.418 -1.1791  0.6711  0.2554
 7969TIP3    H223872   5.411   4.685   5.472  0.3560 -1.6150 -1.0047
 7970TIP3   OH223873   2.997   5.008   3.861 -0.3291 -0.4546  0.0793
 7970TIP3    H123874   3.034   4.983   3.946  1.6265 -0.3331 -0.6991
 7970TIP3    H223875   3.060   4.978   3.796 -0.7855  1.2255 -1.2295
 7971TIP3   OH223876   7.007   1.454   4.668  0.0284  0.1079 -0.2942
 7971TIP3    H123877   7.102   1.466   4.676  0.4720 -3.0251  0.4902
 7971TIP3    H223878   6.970   1.522   4.725  1.9928 -0.5825  1.9817
 7972TIP3   OH223879   4.665   2.089   2.087  0.0068  0.0920  0.4042
 7972TIP3    H123880   4.689   1.997   2.087  1.1219  0.3372 -1.0566
 7972TIP3    H223881   4.611   2.100   2.009  0.1503  0.7325  0.3846
 7973TIP3   OH223882   1.199   1.370   2.000 -0.0381  0.1450  0.4425
 7973TIP3    H123883   1.144   1.408   1.932 -1.8606 -0.4534  1.5242
 7973TIP3    H223884   1.170   1.279   2.007  2.4194 -0.7640 -0.2393
 7974TIP3   OH223885   6.949   1.057   3.421 -0.3994 -0.1732 -0.4566
 7974TIP3    H123886   7.043   1.074   3.430 -0.7236  0.6419  2.1747
 7974TIP3    H223887   6.936   0.972   3.464 -0.9030 -0.1066 -0.4774
 7975TIP3   OH223888   2.148   3.600   2.563  0.4434 -0.1956  0.6730
 7975TIP3    H123889   2.140   3.688   2.525 -0.9734 -0.1680  0.9732
 7975TIP3    H223890   2.239   3.594   2.591  1.2732  0.1706 -1.7666
 7976TIP3   OH223891   6.988   3.929   2.545 -0.1692  0.0109  0.2796
 7976TIP3    H123892   7.050   3.907   2.614  0.1953 -0.1762 -0.1042
 7976TIP3    H223893   6.931   3.852   2.538  0.6614 -0.5387 -0.5752
 7977TIP3   OH223894   3.659   2.878   2.182  0.1082 -0.1946  0.3951
 7977TIP3    H123895   3.575   2.875   2.227  0.1330 -0.5008  0.4179
 7977TIP3    H223896   3.661   2.799   2.129  0.4240 -0.2367  0.4685
 7978TIP3   OH223897   3.652   0.027   4.445 -0.4408  0.6995 -0.3130
 7978TIP3    H123898   3.652   0.106   4.499  0.4467  0.1082  0.5751
 7978TIP3    H223899   3.582   0.042   4.382 -1.4733  1.4274  0.9569
 7979TIP3   OH223900   1.017   4.010   2.605  0.4487  0.2289  0.0040
 7979TIP3    H123901   1.097   3.959   2.613  0.8642  0.9491  0.5962
 7979TIP3    H223902   0.961   3.959   2.547  1.2864 -0.3411 -0.3164
 7980TIP3   OH223903   5.992   1.307   4.117 -0.0931  0.0274 -0.8167
 7980TIP3    H123904   6.063   1.274   4.062 -0.9442 -0.8653 -1.4139
 7980TIP3    H223905   5.988   1.246   4.190 -0.8432 -0.4867 -1.2703
 7981TIP3   OH223906   4.602   6.663   3.993 -0.0481  0.5087 -0.5110
 7981TIP3    H123907   4.656   6.630   3.921  0.2800  0.1888 -0.1192
 7981TIP3    H223908   4.548   6.732   3.953  0.3338  0.5261 -0.9988
 7982TIP3   OH223909   5.800   4.663   2.263  0.3832  0.6122  0.8100
 7982TIP3    H123910   5.843   4.665   2.349  2.4221 -1.3683 -0.0666
 7982TIP3    H223911   5.806   4.571   2.236  1.2726  1.4530 -2.1582
 7983TIP3   OH223912   3.667   5.647   1.891  0.0503  0.3815 -0.0411
 7983TIP3    H123913   3.685   5.569   1.839  0.3968 -0.1880  0.9001
 7983TIP3    H223914   3.572   5.648   1.903 -0.0500  0.6113 -0.8097
 7984TIP3   OH223915   6.363   0.501   2.202  0.2415  0.0948  0.4073
 7984TIP3    H123916   6.314   0.426   2.168 -0.7353 -0.0905  2.1266
 7984TIP3    H223917   6.439   0.463   2.246 -0.5876  0.0320  1.8329
 7985TIP3   OH223918   1.382   1.961   4.110  0.7996 -0.0058 -0.3378
 7985TIP3    H123919   1.344   2.049   4.111  0.4671 -0.1514  0.7338
 7985TIP3    H223920   1.458   1.968   4.168  0.1170 -0.6992  0.6626
 7986TIP3   OH223921   0.283   1.213   4.811 -0.3647 -0.1194 -0.0592
 7986TIP3    H123922   0.192   1.187   4.798 -0.1256 -0.7785 -0.4910
 7986TIP3    H223923   0.334   1.149   4.760  0.2477  1.3017 -1.3331
 7987TIP3   OH223924   4.337   4.412   2.963  0.7939 -0.3707  0.0196
 7987TIP3    H123925   4.428   4.398   2.935  1.4513  2.4459  0.3471
 7987TIP3    H223926   4.306   4.484   2.908 -0.8536 -0.5001  0.7242
 7988TIP3   OH223927   3.365   4.865   4.080 -0.0748 -0.5272 -0.3918
 7988TIP3    H123928   3.434   4.920   4.117  0.2271 -0.9781 -0.2808
 7988TIP3    H223929   3.371   4.879   3.986  0.3086 -0.7323 -0.3968
 7989TIP3   OH223930   3.006   1.247   4.887 -0.5806  0.7340  0.0172
 7989TIP3    H123931   3.010   1.153   4.901  0.5123  0.7266 -0.2784
 7989TIP3    H223932   2.918   1.272   4.916 -0.7885 -0.3315  0.3335
 7990TIP3   OH223933   7.052   0.501   2.321 -0.4752 -0.2423 -0.2349
 7990TIP3    H123934   7.084   0.568   2.261 -1.2906  1.1866  0.8773
 7990TIP3    H223935   7.104   0.513   2.401 -1.7847  0.2408  0.5852
 7991TIP3   OH223936   7.001   6.617   1.816 -0.7500  0.4310 -0.6787
 7991TIP3    H123937   7.045   6.675   1.754  0.1989  0.9463  0.4391
 7991TIP3    H223938   6.986   6.536   1.767  4.0583 -0.8999 -0.4224
 7992TIP3   OH223939   2.597   0.516   3.188  0.2922  0.2137 -0.2891
 7992TIP3    H123940   2.610   0.438   3.133  2.1195  0.0841  0.2746
 7992TIP3    H223941   2.620   0.589   3.131  1.7509  0.1076  0.1329
 7993TIP3   OH223942   7.121   6.364   0.141 -0.1823 -0.5307  0.2862
 7993TIP3    H123943   7.108   6.400   0.053 -0.1183 -1.5018 -0.1290
 7993TIP3    H223944   7.074   6.281   0.140 -0.6782 -0.2705  1.3674
 7994TIP3   OH223945   3.551   2.167   2.126 -0.1902 -0.9126 -0.2313
 7994TIP3    H123946   3.617   2.106   2.093  1.9577  2.0551 -1.8728
 7994TIP3    H223947   3.596   2.214   2.197 -1.0529  0.1174 -0.3408
 7995TIP3   OH223948   3.327   1.974   2.300  0.5080 -0.1621 -0.3491
 7995TIP3    H123949   3.336   1.957   2.394 -0.1088 -0.5952 -0.3667
 7995TIP3    H223950   3.320   2.070   2.294 -2.4395 -0.2305  0.3439
 7996TIP3   OH223951   0.464   5.510   3.673 -0.6006  0.5728 -0.3390
 7996TIP3    H123952   0.438   5.518   3.765  0.9001 -1.6575  0.3504
 7996TIP3    H223953   0.557   5.532   3.673 -0.5404  0.3443 -1.3067
 7997TIP3   OH223954   0.095   5.369   2.457  0.3985 -0.7948 -0.3044
 7997TIP3    H123955   0.063   5.285   2.425 -0.5985 -0.1149 -1.1518
 7997TIP3    H223956   0.060   5.434   2.396 -3.3362  0.8371  3.1146
 7998TIP3   OH223957   5.065   0.486   4.516  0.2456  0.7976 -0.1917
 7998TIP3    H123958   5.083   0.408   4.463 -0.3580  0.2583  0.3685
 7998TIP3    H223959   5.129   0.481   4.587 -0.1591  0.4811  0.1636
 7999TIP3   OH223960   6.567   3.739   0.802  0.2948  0.2940  0.3047
 7999TIP3    H123961   6.532   3.819   0.764  0.6708  0.3156 -0.0019
 7999TIP3    H223962   6.646   3.767   0.848 -1.7723  0.8409  3.8659
 8000TIP3   OH223963   6.676   4.975   0.558 -0.1347  0.2888 -0.0046
 8000TIP3    H123964   6.606   4.915   0.531 -0.7284  1.5333 -1.3233
 8000TIP3    H223965   6.738   4.919   0.605 -0.2040 -1.5715 -1.9694
 8001TIP3   OH223966   0.725   1.084   4.279 -0.1873 -0.4344 -0.4555
 8001TIP3    H123967   0.760   1.135   4.206  2.2086  0.9200  1.4944
 8001TIP3    H223968   0.796   1.026   4.304 -1.7532 -2.4952 -0.5438
 8002TIP3   OH223969   0.354   2.477   1.585  0.2241 -0.6680 -0.2678
 8002TIP3    H123970   0.306   2.458   1.504  0.3385  0.3848 -0.6047
 8002TIP3    H223971   0.356   2.573   1.589  0.5142 -0.7063  0.8121
 8003TIP3   OH223972   3.196   0.952   2.762 -0.2120 -0.4319  0.0111
 8003TIP3    H123973   3.136   0.940   2.836  0.4476 -0.3654  0.5707
 8003TIP3    H223974   3.173   1.038   2.726  0.2168  0.0463  0.8560
 8004TIP3   OH223975   3.841   2.311   0.922 -0.5613  0.3753 -0.0964
 8004TIP3    H123976   3.833   2.239   0.859 -0.0679 -0.4510  0.7504
 8004TIP3    H223977   3.763   2.364   0.908 -1.1252 -0.5332 -0.4790
 8005TIP3   OH223978   6.990   0.590   3.912  0.1932 -0.0468  0.0072
 8005TIP3    H123979   6.899   0.563   3.899  0.5640 -1.4016  0.1458
 8005TIP3    H223980   7.041   0.510   3.901  1.6465  1.1306 -2.8861
 8006TIP3   OH223981   1.340   2.084   3.753  0.0448 -0.0886 -0.2499
 8006TIP3    H123982   1.359   2.081   3.659 -2.1002 -1.1757 -0.7035
 8006TIP3    H223983   1.373   2.001   3.786 -0.3047 -0.2416 -0.2830
 8007TIP3   OH223984   4.840   1.414   5.691  0.1237 -0.5003 -0.2579
 8007TIP3    H123985   4.807   1.504   5.687  2.6774  0.4791 -1.5455
 8007TIP3    H223986   4.828   1.380   5.602  1.7055 -0.4030 -0.5304
 8008TIP3   OH223987   2.289   2.886   1.341  0.2018  0.0417  0.0231
 8008TIP3    H123988   2.258   2.874   1.251 -1.4648 -0.8217  0.6688
 8008TIP3    H223989   2.316   2.799   1.369  0.0350  0.1682  0.5924
 8009TIP3   OH223990   6.874   3.119   1.198  0.2689 -0.0794  0.2828
 8009TIP3    H123991   6.801   3.180   1.189  0.3953  0.0663  0.2251
 8009TIP3    H223992   6.837   3.043   1.243  0.0776 -0.0161  0.2332
 8010TIP3   OH223993   1.999   5.985   0.356  0.3371  0.2007 -0.5546
 8010TIP3    H123994   1.945   5.990   0.277 -0.1540 -1.5158 -0.3541
 8010TIP3    H223995   2.063   5.916   0.337 -0.7334 -1.3189  1.0768
 8011TIP3   OH223996   0.178   2.625   3.719 -0.1026  0.3794 -0.0559
 8011TIP3    H123997   0.229   2.686   3.772  1.0917  0.9126 -1.7065
 8011TIP3    H223998   0.166   2.548   3.774  1.2276  0.8416  0.9108
 8012TIP3   OH223999   3.266   5.077   1.304  0.5001  0.7906 -0.2259
 8012TIP3    H124000   3.239   5.113   1.388  0.6237  0.2724  0.0378
 8012TIP3    H224001   3.251   5.149   1.241  0.9601  1.3709  0.3202
 8013TIP3   OH224002   5.079   0.503   0.937 -0.1239 -0.0582 -0.2306
 8013TIP3    H124003   5.010   0.559   0.902  0.4030  0.1017 -1.0623
 8013TIP3    H224004   5.121   0.467   0.859  0.7218 -0.1612  0.2629
 8014TIP3   OH224005   4.324   1.685   1.910  0.1337  0.1401  0.5885
 8014TIP3    H124006   4.306   1.648   1.997  1.0101 -1.5088  0.1081
 8014TIP3    H224007   4.416   1.712   1.915  0.3787 -0.5759 -0.0317
 8015TIP3   OH224008   0.986   0.711   5.143 -0.2143 -0.0679 -0.0854
 8015TIP3    H124009   0.900   0.688   5.110 -0.6275 -1.3652  1.7233
 8015TIP3    H224010   1.047   0.672   5.080 -0.9666 -1.4288 -0.0063
 8016TIP3   OH224011   1.925   6.580   3.288  0.7428 -0.2688  0.1153
 8016TIP3    H124012   1.989   6.599   3.357 -1.3887  1.4254  1.8141
 8016TIP3    H224013   1.926   6.657   3.232 -0.4587  0.2769  0.7842
 8017TIP3   OH224014   0.957   3.430   0.076 -0.4671  0.8878 -0.0281
 8017TIP3    H124015   0.938   3.480  -0.003 -2.3604  1.0473  0.4875
 8017TIP3    H224016   0.932   3.340   0.055 -1.7516  1.0716  0.6147
 8018TIP3   OH224017   3.559   4.430   2.365  0.2485  0.4929  0.2074
 8018TIP3    H124018   3.568   4.364   2.434  0.0475 -0.6532 -0.8251
 8018TIP3    H224019   3.486   4.399   2.311  0.4660  1.3025 -0.5799
 8019TIP3   OH224020   6.060   3.186   0.305 -0.2369  0.3370  0.3891
 8019TIP3    H124021   6.021   3.098   0.300 -0.2517  0.2804  1.3676
 8019TIP3    H224022   6.094   3.192   0.394  1.9345  0.4203 -0.3922
 8020TIP3   OH224023   5.613   3.432   4.685 -0.9083  0.5310 -0.3032
 8020TIP3    H124024   5.651   3.491   4.620 -1.1223  1.8027  0.6961
 8020TIP3    H224025   5.579   3.489   4.754  0.0766 -0.7943  1.3745
 8021TIP3   OH224026   2.199   1.053   0.611 -0.3910 -0.3117  0.1485
 8021TIP3    H124027   2.226   0.985   0.549  0.5542 -0.4038  0.6412
 8021TIP3    H224028   2.281   1.081   0.653 -0.5965  1.7931 -0.7086
 8022TIP3   OH224029   2.149   6.008   5.556 -0.1876 -0.1105 -0.3629
 8022TIP3    H124030   2.244   6.010   5.571  0.1293  0.6310 -2.1665
 8022TIP3    H224031   2.138   6.044   5.468 -1.9553 -2.3945 -1.1685
 8023TIP3   OH224032   4.028   2.657   1.909  0.1800  0.4189 -0.0284
 8023TIP3    H124033   4.123   2.667   1.902  0.2214 -0.8866 -2.5708
 8023TIP3    H224034   3.994   2.704   1.833 -0.8234 -2.4702 -1.5214
 8024TIP3   OH224035   7.098   2.766   5.060  0.0915  0.5119 -0.1014
 8024TIP3    H124036   7.173   2.722   5.020  1.1392  2.4239 -0.3625
 8024TIP3    H224037   7.063   2.821   4.991 -2.1140 -0.9102 -0.2234
 8025TIP3   OH224038   1.878   6.653   2.197  0.6908 -0.0788  0.1235
 8025TIP3    H124039   1.886   6.742   2.163 -1.5038  0.1312 -0.0314
 8025TIP3    H224040   1.951   6.643   2.258  0.4277  2.2173  0.9176
 8026TIP3   OH224041   0.835   1.972   2.756 -0.4106  0.1349  0.6992
 8026TIP3    H124042   0.856   1.942   2.845  1.2307 -0.2225  0.2183
 8026TIP3    H224043   0.753   1.926   2.734  0.9695 -2.5379  0.7496
 8027TIP3   OH224044   2.445   4.982   2.137 -0.6496  0.2642  0.2324
 8027TIP3    H124045   2.374   5.043   2.155  0.1107  0.6661  2.1028
 8027TIP3    H224046   2.520   5.018   2.184  0.2336 -1.2801  0.0858
 8028TIP3   OH224047   3.675   1.827   4.073  0.1937  0.3243  0.1979
 8028TIP3    H124048   3.734   1.883   4.022 -0.6117  0.9369 -0.0655
 8028TIP3    H224049   3.591   1.832   4.028 -0.5371  0.8665  1.5634
 8029TIP3   OH224050   5.974   1.313   0.324  0.0675 -0.2416  0.4597
 8029TIP3    H124051   6.044   1.300   0.387  0.8223 -2.5723 -0.7321
 8029TIP3    H224052   5.976   1.407   0.305  1.4978  0.0745  1.9515
 8030TIP3   OH224053   6.902   1.703   2.381 -0.2946 -0.4153 -0.5654
 8030TIP3    H124054   6.808   1.695   2.401 -0.6785  0.2141 -2.0074
 8030TIP3    H224055   6.945   1.690   2.466 -1.7206  0.0269  0.2718
 8031TIP3   OH224056   4.048   5.846   4.884  0.2957 -0.0767 -0.1719
 8031TIP3    H124057   3.997   5.927   4.876  2.9164  1.5955 -1.0737
 8031TIP3    H224058   4.022   5.794   4.809  0.4186  1.0757 -1.0424
 8032TIP3   OH224059   4.005   6.444   0.065  0.3429  0.0715  0.2960
 8032TIP3    H124060   4.016   6.535   0.093 -0.0433  0.1361  0.2435
 8032TIP3    H224061   3.990   6.396   0.147 -0.1044  0.1578  0.2704
 8033TIP3   OH224062   0.702   2.280   0.160  0.3852 -0.3122  0.2596
 8033TIP3    H124063   0.646   2.204   0.147 -0.6529  0.1350  1.8244
 8033TIP3    H224064   0.786   2.243   0.186  0.1161 -0.9377  0.2646
 8034TIP3   OH224065   3.573   2.711   4.995 -0.2818 -0.3493  0.4171
 8034TIP3    H124066   3.511   2.649   4.956 -0.8044 -0.7536  1.8164
 8034TIP3    H224067   3.519   2.764   5.055  0.5242  0.0702  0.7852
 8035TIP3   OH224068   3.426   6.784   1.706  0.1658 -0.3432  0.0355
 8035TIP3    H124069   3.388   6.871   1.695  0.7932  0.0404  0.8027
 8035TIP3    H224070   3.352   6.728   1.730  0.1469  0.5447  2.2477
 8036TIP3   OH224071   6.675   3.849   0.154  0.6009  0.0955  0.1760
 8036TIP3    H124072   6.647   3.935   0.122  1.4458  0.5408  0.5766
 8036TIP3    H224073   6.703   3.866   0.244  0.5442 -0.6532  0.3393
 8037TIP3   OH224074   4.414   1.300   3.043 -0.1241 -0.0872  0.7108
 8037TIP3    H124075   4.459   1.311   2.959 -1.4245  0.7909  0.1148
 8037TIP3    H224076   4.467   1.351   3.105  1.5132 -1.6844  0.7189
 8038TIP3   OH224077   0.215   2.918   2.279 -0.4052 -0.4983 -0.3922
 8038TIP3    H124078   0.306   2.946   2.266 -0.3620  1.6814  3.1927
 8038TIP3    H224079   0.216   2.824   2.264  3.1649 -1.0605  2.0741
 8039TIP3   OH224080   3.764   2.465   3.704 -0.5192  0.1293 -0.4516
 8039TIP3    H124081   3.752   2.557   3.682 -1.7538 -0.0481 -0.6093
 8039TIP3    H224082   3.740   2.418   3.624 -1.3252 -0.3674  0.0631
 8040TIP3   OH224083   2.732   3.714   1.582 -0.3876 -0.1275 -0.4166
 8040TIP3    H124084   2.727   3.681   1.672 -1.9796 -2.7887 -1.3488
 8040TIP3    H224085   2.789   3.791   1.587 -1.2906  0.4609  3.0094
 8041TIP3   OH224086   4.947   1.256   0.115  0.0042 -0.7150 -0.0489
 8041TIP3    H124087   5.002   1.333   0.127 -1.3756  0.5491 -1.3799
 8041TIP3    H224088   4.896   1.250   0.196  0.3893 -0.4772  0.2150
 8042TIP3   OH224089   1.569   5.096   3.694 -0.5747  0.3641  0.4383
 8042TIP3    H124090   1.506   5.054   3.636  0.0653  0.8839 -0.6691
 8042TIP3    H224091   1.597   5.026   3.754 -0.7295 -0.3750 -0.3322
 8043TIP3   OH224092   3.256   6.738   4.308  0.5575 -0.6216  0.5125
 8043TIP3    H124093   3.226   6.821   4.271  2.1599 -0.3798 -0.3519
 8043TIP3    H224094   3.302   6.763   4.388  0.5795 -0.7132  0.5283
 8044TIP3   OH224095   5.562   2.685   2.019  0.2964 -0.0026  0.1130
 8044TIP3    H124096   5.561   2.729   2.104 -0.6254  0.2406 -0.0121
 8044TIP3    H224097   5.595   2.752   1.959  0.1864  0.0824  0.1469
 8045TIP3   OH224098   2.503   1.076   1.572 -0.5662 -0.0403  0.3947
 8045TIP3    H124099   2.513   1.171   1.573  0.1116 -0.1023  0.0228
 8045TIP3    H224100   2.437   1.058   1.639  0.4960  0.5557  1.6451
 8046TIP3   OH224101   1.902   6.042   1.946 -0.2973  0.3536  0.1705
 8046TIP3    H124102   1.937   5.975   1.887  0.6543  0.2359  0.8445
 8046TIP3    H224103   1.903   6.123   1.893  1.5578  0.4723  0.3259
 8047TIP3   OH224104   1.478   6.068   0.232 -0.1411  0.1721 -0.1312
 8047TIP3    H124105   1.460   5.986   0.186 -2.1099  0.9275 -0.8043
 8047TIP3    H224106   1.445   6.053   0.321  1.1568 -0.3457  0.2894
 8048TIP3   OH224107   2.519   5.881   3.036  0.3845  0.5842 -0.0801
 8048TIP3    H124108   2.600   5.846   2.998 -0.4156 -0.0154 -1.3108
 8048TIP3    H224109   2.452   5.859   2.972 -0.5825  2.0818  0.3764
 8049TIP3   OH224110   7.166   2.135   2.255 -0.0271  0.0893 -0.3774
 8049TIP3    H124111   7.231   2.156   2.323  0.5191  0.7527 -1.0890
 8049TIP3    H224112   7.148   2.219   2.213 -0.3052 -0.3263 -1.1081
 8050TIP3   OH224113   4.261   6.482   0.372 -0.3619 -0.3785 -0.4337
 8050TIP3    H124114   4.264   6.510   0.464  0.5803 -2.9084  0.3884
 8050TIP3    H224115   4.173   6.446   0.362 -1.0494  1.3515 -1.0669
 8051TIP3   OH224116   0.699   1.356   3.365  0.0969 -0.1861  0.0763
 8051TIP3    H124117   0.697   1.264   3.391 -0.2619  0.4280  2.3896
 8051TIP3    H224118   0.743   1.355   3.280  0.1852 -2.4689  0.0764
 8052TIP3   OH224119   5.166   6.508   5.497 -0.0278  0.2514 -0.0901
 8052TIP3    H124120   5.184   6.415   5.488 -0.1528  0.2784 -0.6253
 8052TIP3    H224121   5.100   6.513   5.566 -0.2982 -0.0881 -0.3194
 8053TIP3   OH224122   6.499   5.199   3.978  0.4769 -0.5302  0.2588
 8053TIP3    H124123   6.508   5.201   4.074 -1.0430  1.8745  0.4467
 8053TIP3    H224124   6.440   5.126   3.961 -0.5851  0.0343  1.3578
 8054TIP3   OH224125   2.368   5.831   5.304 -0.1751 -0.3972  0.4123
 8054TIP3    H124126   2.334   5.791   5.384  0.6430 -2.6179 -0.3016
 8054TIP3    H224127   2.462   5.836   5.317  0.1211 -1.9394 -0.8645
 8055TIP3   OH224128   5.698   0.670   1.328  0.6344  0.2176  0.1299
 8055TIP3    H124129   5.605   0.684   1.345  1.1566  4.1706  0.8198
 8055TIP3    H224130   5.701   0.609   1.255 -2.6695  1.8983 -1.6227
 8056TIP3   OH224131   0.494   4.314   5.365 -0.2850  0.8034 -0.1563
 8056TIP3    H124132   0.510   4.257   5.440  2.4805  0.2741 -1.0159
 8056TIP3    H224133   0.462   4.255   5.296  0.2441  0.7007 -0.3200
 8057TIP3   OH224134   2.273   2.794   0.785  0.2759  0.4811 -0.6132
 8057TIP3    H124135   2.368   2.791   0.768  0.5237 -0.7527  0.8058
 8057TIP3    H224136   2.257   2.882   0.818  1.1695  0.2985  0.3475
 8058TIP3   OH224137   1.926   1.122   1.355  0.4749  0.0273 -0.7466
 8058TIP3    H124138   1.928   1.186   1.426  0.5555  1.4376 -1.9680
 8058TIP3    H224139   1.897   1.041   1.397  0.6090  0.7840  0.9017
 8059TIP3   OH224140   3.976   4.401   4.903  0.2644  0.1838  0.1294
 8059TIP3    H124141   4.069   4.414   4.889  0.3423 -0.1621  0.3024
 8059TIP3    H224142   3.951   4.332   4.842  0.1375  0.2248  0.1331
 8060TIP3   OH224143   4.834   0.829  -0.010  0.1525 -0.1937 -0.0580
 8060TIP3    H124144   4.749   0.794   0.016 -0.2397  0.9879  0.2890
 8060TIP3    H224145   4.873   0.860   0.071 -0.3045  1.8428 -0.5618
 8061TIP3   OH224146   4.631   5.230   1.973 -0.0002  0.0029 -0.5287
 8061TIP3    H124147   4.683   5.167   2.023 -0.9383 -0.5368 -0.2090
 8061TIP3    H224148   4.614   5.186   1.890 -0.4158 -0.0541 -0.4148
 8062TIP3   OH224149   1.569   1.813   0.174  0.2108  0.3516  0.4701
 8062TIP3    H124150   1.477   1.810   0.200  0.3855 -0.7306  0.9842
 8062TIP3    H224151   1.572   1.881   0.107 -0.5389  2.0501  2.0697
 8063TIP3   OH224152   1.548   4.088   3.530  0.0805 -0.0145 -0.5281
 8063TIP3    H124153   1.582   4.000   3.514 -1.3501 -0.7109  0.1391
 8063TIP3    H224154   1.455   4.083   3.509  0.4146  2.0254 -2.9030
 8064TIP3   OH224155   0.319   1.102   0.666  0.4870 -0.0460  0.8368
 8064TIP3    H124156   0.360   1.024   0.704 -0.8496 -1.1133  0.1902
 8064TIP3    H224157   0.275   1.144   0.739 -0.6768 -1.1746  0.8275
 8065TIP3   OH224158   6.200   4.533   5.847 -0.1745 -0.1845 -0.6448
 8065TIP3    H124159   6.194   4.492   5.761  0.4225 -0.6397 -0.4776
 8065TIP3    H224160   6.198   4.627   5.830  2.2822 -0.1925 -1.3830
 8066TIP3   OH224161   3.764   4.368   5.572  0.0259 -0.0546  0.1973
 8066TIP3    H124162   3.770   4.450   5.621 -0.2022  0.4048 -0.5336
 8066TIP3    H224163   3.679   4.372   5.528  0.6906  0.0504 -1.1267
 8067TIP3   OH224164   2.149   3.793   0.890  0.2916 -0.4108  0.0106
 8067TIP3    H124165   2.190   3.870   0.852 -0.1106  0.0560  0.5027
 8067TIP3    H224166   2.060   3.792   0.855 -0.0940  0.0426  0.9398
 8068TIP3   OH224167   6.337   3.377   3.993  0.0613  0.1357  0.1988
 8068TIP3    H124168   6.395   3.362   4.068  1.8157  0.1670 -1.0958
 8068TIP3    H224169   6.390   3.353   3.917 -1.4750  0.6563 -1.0764
 8069TIP3   OH224170   1.688   0.068   2.293 -0.3219 -0.0587 -0.3385
 8069TIP3    H124171   1.679  -0.025   2.312 -0.0666 -0.2832 -1.3120
 8069TIP3    H224172   1.629   0.111   2.356  0.6474 -0.7619  1.0858
 8070TIP3   OH224173   3.005   0.854   0.838  0.1317 -0.5743 -0.1302
 8070TIP3    H124174   2.972   0.943   0.822 -0.8645 -1.0576 -0.9088
 8070TIP3    H224175   3.032   0.855   0.929 -2.1997 -0.1570  0.6250
 8071TIP3   OH224176   2.711   1.516   4.245 -1.0206 -0.3228  0.2611
 8071TIP3    H124177   2.782   1.465   4.285 -0.0114  0.9894  0.2346
 8071TIP3    H224178   2.688   1.468   4.166 -0.6538 -1.1473  0.6449
 8072TIP3   OH224179   5.477   1.202   1.597  0.0388 -0.0492  0.2296
 8072TIP3    H124180   5.549   1.184   1.536  2.8116  0.1520  3.1433
 8072TIP3    H224181   5.491   1.293   1.624 -1.0921 -0.1351  1.1731
 8073TIP3   OH224182   5.939   1.843   2.796 -0.2830 -0.1799  0.3174
 8073TIP3    H124183   6.011   1.783   2.816  0.5889  0.3810 -1.0390
 8073TIP3    H224184   5.931   1.840   2.701  0.1725  2.2482  0.1382
 8074TIP3   OH224185   1.432   6.451   4.315  0.0139  0.1605 -0.3136
 8074TIP3    H124186   1.417   6.447   4.409 -0.8301  1.4707 -0.3599
 8074TIP3    H224187   1.527   6.445   4.305  0.2201  1.2815  0.7195
 8075TIP3   OH224188   2.598   6.266   0.915 -0.7779 -0.8852  0.3221
 8075TIP3    H124189   2.620   6.356   0.890  1.2232 -0.5898  2.7177
 8075TIP3    H224190   2.510   6.253   0.882 -0.9765  1.8293 -0.4724
 8076TIP3   OH224191   5.058   2.301   0.374 -0.4747 -0.2957 -0.5675
 8076TIP3    H124192   5.027   2.234   0.314 -1.6493  0.3248 -0.6829
 8076TIP3    H224193   4.981   2.355   0.393 -0.0216 -0.1646  1.0969
 8077TIP3   OH224194   4.916   0.169   2.414  0.3358 -0.5948 -0.0637
 8077TIP3    H124195   4.865   0.167   2.494 -1.0450 -0.7546 -0.9217
 8077TIP3    H224196   4.889   0.250   2.370  2.4302  0.4691  0.4479
 8078TIP3   OH224197   4.380   1.847   2.584 -0.0334  0.6274  0.1108
 8078TIP3    H124198   4.413   1.924   2.630  1.4602  1.1410 -1.6739
 8078TIP3    H224199   4.455   1.787   2.581 -0.8288 -0.4061  0.4457
 8079TIP3   OH224200   5.647   5.479   5.811  0.3864  0.3299 -0.0316
 8079TIP3    H124201   5.580   5.540   5.780  0.0067 -0.0956 -0.0659
 8079TIP3    H224202   5.705   5.532   5.866 -0.6859  0.4598  1.0155
 8080TIP3   OH224203   3.381   5.700   1.627  0.3312  0.3802  0.6966
 8080TIP3    H124204   3.394   5.772   1.566  1.8380  0.2799  0.8542
 8080TIP3    H224205   3.301   5.723   1.675  0.3380  1.5380  0.1888
 8081TIP3   OH224206   6.985   4.409   5.007  0.3407 -0.3468 -0.0846
 8081TIP3    H124207   6.922   4.406   5.080  0.2814 -1.2006 -0.1629
 8081TIP3    H224208   7.039   4.331   5.019  0.9092 -0.0163 -0.4504
 8082TIP3   OH224209   2.146   0.315   4.596 -0.1639 -0.0865  0.2198
 8082TIP3    H124210   2.165   0.238   4.650 -0.1572 -0.0663  0.2461
 8082TIP3    H224211   2.181   0.292   4.510 -0.7943 -0.3943  0.0445
 8083TIP3   OH224212   4.633   1.409   2.233  0.4030 -0.1650  0.1438
 8083TIP3    H124213   4.707   1.459   2.198  0.8618 -0.4531  0.6959
 8083TIP3    H224214   4.558   1.440   2.182  0.6064  1.3643  0.7214
 8084TIP3   OH224215   2.641   2.952   2.867 -0.5387 -0.6162  0.3324
 8084TIP3    H124216   2.668   3.005   2.942 -0.3229  0.4008 -0.4431
 8084TIP3    H224217   2.633   3.015   2.795  0.0120 -1.6884 -0.6890
 8085TIP3   OH224218   0.685   0.748   0.217 -0.3956  0.0674  0.0925
 8085TIP3    H124219   0.743   0.722   0.288  0.7278 -1.6504 -1.3693
 8085TIP3    H224220   0.673   0.842   0.230  1.2092  0.1304  1.5223
 8086TIP3   OH224221   5.839   1.308   3.199  0.3138  0.5810  0.1568
 8086TIP3    H124222   5.928   1.282   3.178  0.5740  0.3682  1.4810
 8086TIP3    H224223   5.797   1.229   3.231 -0.5555  0.5345 -1.0031
 8087TIP3   OH224224   6.379   4.203   2.322  0.3317 -0.0477  0.0410
 8087TIP3    H124225   6.473   4.210   2.309  0.1878  2.4904 -0.2389
 8087TIP3    H224226   6.357   4.276   2.380 -1.4571 -0.6094  0.1515
 8088TIP3   OH224227   5.869   2.478   2.475  0.1797 -0.1098 -0.1746
 8088TIP3    H124228   5.818   2.397   2.479  1.6709 -1.1061 -0.1567
 8088TIP3    H224229   5.814   2.544   2.515 -1.1408 -1.0870 -0.3173
 8089TIP3   OH224230   6.496   0.611   1.564 -0.0541  0.7706  0.4457
 8089TIP3    H124231   6.408   0.580   1.543  0.5776 -0.1963 -0.8926
 8089TIP3    H224232   6.488   0.647   1.652 -1.2027 -1.8418  1.5183
 8090TIP3   OH224233   1.061   2.155   3.807  0.4484 -0.7775  0.5162
 8090TIP3    H124234   1.050   2.243   3.843  0.9201 -0.3106 -0.4465
 8090TIP3    H224235   1.156   2.143   3.804  0.5044 -0.1266 -2.0942
 8091TIP3   OH224236   2.644   1.768   3.455  0.2575 -0.2516 -0.1380
 8091TIP3    H124237   2.577   1.701   3.457  0.7111 -0.7077  0.3863
 8091TIP3    H224238   2.694   1.751   3.376  0.0930 -0.2497 -0.2419
 8092TIP3   OH224239   1.963   4.072   2.518  0.2981 -0.2057 -0.3888
 8092TIP3    H124240   1.969   4.001   2.455 -1.6491 -0.0655 -0.8035
 8092TIP3    H224241   1.926   4.146   2.469  0.2628  0.4091  0.5255
 8093TIP3   OH224242   0.277   0.617   4.409  0.4150 -0.6330  0.2397
 8093TIP3    H124243   0.345   0.682   4.427  1.5130 -1.4904 -0.6628
 8093TIP3    H224244   0.320   0.533   4.425 -0.3136 -1.2110 -0.7244
 8094TIP3   OH224245   2.085   4.422   3.777 -0.5077 -0.1924  0.1827
 8094TIP3    H124246   2.136   4.353   3.733  2.3704  1.6475  0.3699
 8094TIP3    H224247   2.066   4.386   3.863  1.1833 -0.6928  0.3826
 8095TIP3   OH224248   1.203   5.652   3.430 -0.3039 -0.1716 -0.3424
 8095TIP3    H124249   1.173   5.568   3.466 -2.1160  0.1825 -0.9243
 8095TIP3    H224250   1.200   5.712   3.505  0.3281 -0.4452 -0.0849
 8096TIP3   OH224251   0.297   5.990   4.185 -0.0385  0.0415 -0.7644
 8096TIP3    H124252   0.392   5.996   4.191  0.0243 -0.6402 -0.9844
 8096TIP3    H224253   0.277   5.899   4.209 -0.6902  0.3526 -0.0814
 8097TIP3   OH224254   4.621   1.723   2.950  0.1694 -0.2285 -0.2641
 8097TIP3    H124255   4.688   1.669   2.907  1.7469  1.0991  0.4399
 8097TIP3    H224256   4.624   1.695   3.042 -1.3548 -1.2181 -0.4822
 8098TIP3   OH224257   6.057   1.714   5.883  0.2110 -0.6657  0.2709
 8098TIP3    H124258   6.067   1.682   5.794 -0.2611  0.1110 -0.0744
 8098TIP3    H224259   6.147   1.717   5.918  0.3106 -1.8811  0.1685
 8099TIP3   OH224260   2.303   5.924   3.359 -0.6609  0.1321  0.7781
 8099TIP3    H124261   2.394   5.950   3.373 -0.0327 -0.9613 -1.0094
 8099TIP3    H224262   2.290   5.927   3.265 -1.8466 -1.6891  0.8199
 8100TIP3   OH224263   1.138   0.154   0.652  0.2441 -0.0228 -0.1474
 8100TIP3    H124264   1.174   0.075   0.611  0.4858  0.1336 -0.2324
 8100TIP3    H224265   1.122   0.127   0.743 -1.5863 -0.7990 -0.6522
 8101TIP3   OH224266   1.167   4.890   0.348  0.1521  0.4655 -0.3275
 8101TIP3    H124267   1.249   4.939   0.338  0.4574  0.1454  0.4635
 8101TIP3    H224268   1.194   4.808   0.391 -0.4599 -0.0418 -0.9016
 8102TIP3   OH224269   3.435   1.485   2.541 -0.1830  0.4009  0.1066
 8102TIP3    H124270   3.509   1.482   2.480 -2.4650 -0.5542 -2.8656
 8102TIP3    H224271   3.447   1.407   2.595  1.1457  0.4492 -0.0615
 8103TIP3   OH224272   7.129   1.587   0.154 -0.5587 -0.6218 -0.2745
 8103TIP3    H124273   7.104   1.585   0.246  1.8716 -1.4380  0.4321
 8103TIP3    H224274   7.215   1.545   0.151  0.2668  1.0338 -2.6608
 8104TIP3   OH224275   2.517   6.229   4.572 -0.5088  0.7470 -0.0872
 8104TIP3    H124276   2.495   6.137   4.583  1.2322  0.0209 -1.9132
 8104TIP3    H224277   2.611   6.229   4.554 -0.7669  2.6867 -1.8857
 8105TIP3   OH224278   2.719   5.431   5.341  0.2657 -0.2353 -0.2468
 8105TIP3    H124279   2.702   5.373   5.266  1.0697  0.8760 -1.3284
 8105TIP3    H224280   2.804   5.403   5.373 -0.4793 -1.3114  0.8597
 8106TIP3   OH224281   7.210   0.344   4.249 -0.5281  0.1637 -0.3994
 8106TIP3    H124282   7.125   0.303   4.234  0.2002 -1.2752 -0.7597
 8106TIP3    H224283   7.199   0.434   4.218 -2.3471  0.4576  0.9652
 8107TIP3   OH224284   6.007   5.837   2.542  0.1946  0.1913 -0.0831
 8107TIP3    H124285   5.987   5.746   2.563  1.9126 -0.1735  0.1221
 8107TIP3    H224286   6.049   5.872   2.620  0.3772  0.8940 -0.4821
 8108TIP3   OH224287   2.904   6.747   5.371 -0.2707 -0.2076 -0.1950
 8108TIP3    H124288   2.989   6.702   5.373 -0.0323  0.2607  0.3699
 8108TIP3    H224289   2.848   6.688   5.320  0.5349 -0.2536 -1.0661
 8109TIP3   OH224290   6.113   4.794   1.905 -0.3982  0.3500 -0.4070
 8109TIP3    H124291   6.023   4.807   1.875  0.5143  0.1105 -3.6497
 8109TIP3    H224292   6.130   4.700   1.890  0.6748  0.5903 -0.8036
 8110TIP3   OH224293   0.310   3.136   0.259  0.3869  0.1141  0.5847
 8110TIP3    H124294   0.384   3.114   0.202 -0.5184 -0.3775 -0.4471
 8110TIP3    H224295   0.245   3.175   0.201 -1.2626 -1.9511  0.8990
 8111TIP3   OH224296   2.488   1.982   4.864  0.1023 -0.1893 -0.0575
 8111TIP3    H124297   2.412   2.019   4.818  0.9863  1.6789 -0.1114
 8111TIP3    H224298   2.495   1.893   4.830 -0.8180  0.2961 -1.6543
 8112TIP3   OH224299   0.623   1.320   5.488  0.1853  0.4413 -0.3177
 8112TIP3    H124300   0.718   1.314   5.496  0.1250 -0.7297 -0.3382
 8112TIP3    H224301   0.608   1.388   5.422  1.0072  0.5573 -0.3888
 8113TIP3   OH224302   3.858   0.432   0.936  0.1140  0.5023 -0.3913
 8113TIP3    H124303   3.903   0.508   0.974 -0.6176  0.9399 -0.3714
 8113TIP3    H224304   3.832   0.461   0.849  1.5732 -0.4200 -1.1695
 8114TIP3   OH224305   6.702   1.994   1.143  0.1693  0.2368 -0.2496
 8114TIP3    H124306   6.615   2.017   1.178  0.4097  0.6761  0.0771
 8114TIP3    H224307   6.692   1.999   1.048  0.2293  1.8713 -0.2015
 8115TIP3   OH224308   5.173   3.023   0.303  0.9327  0.8355 -1.1083
 8115TIP3    H124309   5.212   2.968   0.371 -0.7578  0.9697  0.0255
 8115TIP3    H224310   5.142   2.960   0.237 -1.3959  0.3007  0.3897
 8116TIP3   OH224311   2.989   0.656   4.128 -0.4729 -0.0471  0.3714
 8116TIP3    H124312   2.979   0.648   4.223  2.3641  0.7911  0.8587
 8116TIP3    H224313   3.004   0.566   4.099  0.8154 -0.1025  1.1041
 8117TIP3   OH224314   3.372   2.119   0.688  0.1402 -0.4275 -0.1349
 8117TIP3    H124315   3.329   2.184   0.744 -0.1482 -0.1145 -0.7086
 8117TIP3    H224316   3.440   2.081   0.743 -0.5988 -0.6362  0.6628
 8118TIP3   OH224317   2.493   0.607   4.247 -0.0977 -0.4479  0.7971
 8118TIP3    H124318   2.579   0.577   4.275 -0.0948 -2.6335 -1.2995
 8118TIP3    H224319   2.434   0.534   4.266 -1.3289  0.6168  1.2353
 8119TIP3   OH224320   4.384   1.750   4.422  0.1699  0.5303  0.2109
 8119TIP3    H124321   4.413   1.805   4.495 -1.6063  1.4369  0.2918
 8119TIP3    H224322   4.441   1.775   4.349  0.4572  1.3038  0.6791
 8120TIP3   OH224323   0.627   5.476   5.748  0.0345  0.1568 -0.1653
 8120TIP3    H124324   0.557   5.421   5.782  0.1156  0.5113  0.5946
 8120TIP3    H224325   0.636   5.547   5.812  1.1318  0.0800 -0.2094
 8121TIP3   OH224326   6.216   5.707   4.344  0.9333 -0.2051  0.1126
 8121TIP3    H124327   6.259   5.709   4.258 -2.5538 -0.3996 -1.8027
 8121TIP3    H224328   6.201   5.614   4.361  0.2212 -0.0763  0.1885
 8122TIP3   OH224329   1.406   0.934   4.671  0.2679 -0.0405  0.4095
 8122TIP3    H124330   1.361   0.866   4.621 -0.9723  1.1342 -0.1366
 8122TIP3    H224331   1.476   0.965   4.613  0.7565 -0.7524  0.6126
 8123TIP3   OH224332   4.400   2.865   4.390  0.2195  0.5596 -0.2858
 8123TIP3    H124333   4.323   2.854   4.445  0.7397  0.7868  0.4993
 8123TIP3    H224334   4.448   2.938   4.429  0.1193  1.3542 -1.5944
 8124TIP3   OH224335   3.179   3.510   2.979 -0.6096 -0.3171  0.0843
 8124TIP3    H124336   3.274   3.521   2.973 -0.2462 -2.0947  1.7004
 8124TIP3    H224337   3.163   3.423   2.944 -1.5238 -0.3878  0.6529
 8125TIP3   OH224338   5.045   6.175   5.319 -0.1451 -0.1195 -0.3970
 8125TIP3    H124339   5.003   6.189   5.234 -0.2166  0.0454 -0.3353
 8125TIP3    H224340   5.030   6.083   5.338 -1.7297  0.2370  0.2766
 8126TIP3   OH224341   3.171   6.756   0.914 -0.4585 -0.0544 -0.2067
 8126TIP3    H124342   3.207   6.840   0.940  2.0725 -0.6640 -1.4298
 8126TIP3    H224343   3.150   6.767   0.821 -2.6323 -0.0344  0.2315
 8127TIP3   OH224344   4.891  -0.009   3.440 -0.3503  0.0851 -0.5571
 8127TIP3    H124345   4.828   0.056   3.469  0.8486  1.1589 -0.2615
 8127TIP3    H224346   4.937   0.032   3.367  0.3893 -0.4375 -0.3979
 8128TIP3   OH224347   0.956   2.902   3.301  0.0672 -0.0962 -0.0221
 8128TIP3    H124348   0.870   2.912   3.341 -0.0662 -1.8768  0.2549
 8128TIP3    H224349   1.012   2.873   3.373  0.5450 -0.3626 -0.4905
 8129TIP3   OH224350   0.125   4.892   2.898 -0.4063 -0.1479 -0.2064
 8129TIP3    H124351   0.053   4.833   2.920  0.5249 -1.6604 -1.0022
 8129TIP3    H224352   0.172   4.904   2.980  0.9988 -2.8637 -0.4941
 8130TIP3   OH224353   5.689   6.549   0.499  0.3995  0.1888 -0.4593
 8130TIP3    H124354   5.731   6.518   0.419  2.4734 -2.1906  1.3692
 8130TIP3    H224355   5.761   6.556   0.563 -1.2110  1.5429  1.3408
 8131TIP3   OH224356   0.372   4.019   4.872  0.4790 -0.0519  0.2160
 8131TIP3    H124357   0.359   4.108   4.838  3.1812  0.7564  1.0164
 8131TIP3    H224358   0.409   4.033   4.960  3.0653 -1.8761 -0.4764
 8132TIP3   OH224359   1.473   6.288   0.060 -0.3607  0.3079 -0.5943
 8132TIP3    H124360   1.565   6.309   0.077 -0.8758  2.1650  0.1000
 8132TIP3    H224361   1.453   6.217   0.121  0.4872  0.1714 -0.4625
 8133TIP3   OH224362   1.627   0.437   0.408 -0.2479 -0.5676  0.1777
 8133TIP3    H124363   1.639   0.531   0.397 -3.2558  0.0218  1.0689
 8133TIP3    H224364   1.658   0.419   0.497  0.1556 -0.3831  0.0749
 8134TIP3   OH224365   3.191   5.944   5.152 -0.6815 -0.1846  0.1234
 8134TIP3    H124366   3.107   5.932   5.108 -0.2983 -0.3728 -0.5659
 8134TIP3    H224367   3.234   5.858   5.147  0.5380  0.4715 -1.6263
 8135TIP3   OH224368   1.186   6.624   4.602  0.2767 -0.2330  0.4555
 8135TIP3    H124369   1.098   6.613   4.566 -0.1626  0.5429  1.2480
 8135TIP3    H224370   1.231   6.678   4.537  0.0286 -0.2471  0.2676
 8136TIP3   OH224371   0.263   5.025   3.421 -0.0118  0.2165  0.6520
 8136TIP3    H124372   0.209   5.104   3.415 -2.4569 -1.1890  2.5756
 8136TIP3    H224373   0.258   4.999   3.513  2.6174 -0.9706  0.5505
 8137TIP3   OH224374   2.025   2.888   2.585  0.3375  0.2852 -0.3147
 8137TIP3    H124375   1.985   2.893   2.672 -1.2511 -2.0348 -0.8181
 8137TIP3    H224376   2.111   2.850   2.602  0.4556  0.7971  0.3171
 8138TIP3   OH224377   3.165   6.684   5.150  0.1335 -0.2908 -0.0660
 8138TIP3    H124378   3.136   6.774   5.167 -1.1887 -0.7343  0.1786
 8138TIP3    H224379   3.142   6.636   5.230 -0.8890 -1.2116 -0.8784
 8139TIP3   OH224380   4.624   6.204   0.009  0.4077  0.1592  0.0188
 8139TIP3    H124381   4.551   6.266   0.012 -1.8309 -2.3461  1.4884
 8139TIP3    H224382   4.627   6.167   0.097  1.8555 -1.5627 -0.7152
 8140TIP3   OH224383   4.418   0.989   0.330  0.0691 -0.0632  0.0011
 8140TIP3    H124384   4.366   1.067   0.348 -1.5319 -0.6743 -1.7079
 8140TIP3    H224385   4.444   0.997   0.238  0.9293 -0.9671  0.1372
 8141TIP3   OH224386   6.854   5.327   2.752 -0.1456  0.1076 -0.6566
 8141TIP3    H124387   6.948   5.313   2.736  0.0954  1.8441 -0.9838
 8141TIP3    H224388   6.837   5.415   2.718 -1.1778  1.1799  2.3268
 8142TIP3   OH224389   5.215   4.045   0.650  0.1532  0.1258 -0.4391
 8142TIP3    H124390   5.122   4.068   0.653  0.1650  0.2107 -0.7121
 8142TIP3    H224391   5.228   4.011   0.562 -0.1299 -2.0731  0.3139
 8143TIP3   OH224392   1.297   6.091   5.472 -0.1077  0.4433 -0.1935
 8143TIP3    H124393   1.256   6.178   5.464  0.4553  0.7371  0.0225
 8143TIP3    H224394   1.343   6.079   5.389  0.0984  0.4999 -0.0860
 8144TIP3   OH224395   6.697   6.591   4.710 -0.1116 -0.1156  0.3462
 8144TIP3    H124396   6.688   6.595   4.615  1.2528 -1.5467  0.1284
 8144TIP3    H224397   6.701   6.498   4.730 -3.5160 -0.0504  2.1848
 8145TIP3   OH224398   1.758   3.982   3.779  0.3581 -0.5589  0.1573
 8145TIP3    H124399   1.832   3.958   3.723  0.3056 -1.8159  0.5952
 8145TIP3    H224400   1.748   3.907   3.838  0.0150  0.4688  1.4443
 8146TIP3   OH224401   4.512   1.051   1.709  0.4390 -0.2899  0.2495
 8146TIP3    H124402   4.445   0.985   1.729 -1.1875  1.7201  1.8740
 8146TIP3    H224403   4.480   1.092   1.629 -1.4154  1.8652  1.9482
 8147TIP3   OH224404   4.067   3.350   4.737  0.1439 -0.4437 -0.0224
 8147TIP3    H124405   4.093   3.427   4.787 -0.3806 -0.9193  1.0210
 8147TIP3    H224406   4.008   3.383   4.670  0.5490  0.1587 -0.0851
 8148TIP3   OH224407   1.339   1.209   3.807  0.1090  0.0630  0.3717
 8148TIP3    H124408   1.336   1.298   3.773  0.3488  0.9216  2.4141
 8148TIP3    H224409   1.432   1.186   3.808  0.1820  0.3570  1.1398
 8149TIP3   OH224410   2.231   4.213   2.308  0.1566  0.1833 -0.4491
 8149TIP3    H124411   2.246   4.300   2.269 -0.5520  0.3574 -0.3386
 8149TIP3    H224412   2.150   4.182   2.268 -0.2832  0.1253  0.4606
 8150TIP3   OH224413   1.615   4.229   5.361  0.4457  0.2649  0.0040
 8150TIP3    H124414   1.650   4.230   5.450 -0.1357 -1.9498  0.3061
 8150TIP3    H224415   1.604   4.137   5.341 -1.6326  0.7871 -1.5146
 8151TIP3   OH224416   4.136   3.876   5.620  0.0236  0.1249  0.1657
 8151TIP3    H124417   4.143   3.972   5.623 -1.4481  0.2345  0.6965
 8151TIP3    H224418   4.084   3.853   5.697 -1.7222 -0.8612 -1.2267
 8152TIP3   OH224419   4.141   4.987   1.548  0.0201  0.5816  0.3770
 8152TIP3    H124420   4.190   5.052   1.498  0.9306  0.5550  1.2046
 8152TIP3    H224421   4.166   4.903   1.510  1.6731  0.4638  1.6160
 8153TIP3   OH224422   6.820   6.611   2.938  0.7160  0.6603  0.2735
 8153TIP3    H124423   6.906   6.582   2.968 -0.0692 -1.3885  0.7191
 8153TIP3    H224424   6.791   6.675   3.004  2.0423  1.7153 -0.1280
 8154TIP3   OH224425   2.997   1.016   1.705  0.6484  0.5242  0.5702
 8154TIP3    H124426   2.995   0.924   1.681  0.1812  0.4209  0.9858
 8154TIP3    H224427   2.912   1.050   1.677  1.1614  1.0533 -0.4110
 8155TIP3   OH224428   6.118   6.279   5.060  0.0920  0.3137 -0.6264
 8155TIP3    H124429   6.128   6.361   5.109  1.4884 -0.0142 -0.3193
 8155TIP3    H224430   6.091   6.307   4.973  1.6528  1.2161 -0.8628
 8156TIP3   OH224431   5.372   5.855   0.359  0.2024 -0.4326 -0.1353
 8156TIP3    H124432   5.414   5.940   0.348 -0.3254 -0.0313  0.8191
 8156TIP3    H224433   5.283   5.867   0.324  0.4447 -0.9029 -0.9518
 8157TIP3   OH224434   4.053   6.807   4.446  0.1470  0.8201 -0.4662
 8157TIP3    H124435   3.979   6.817   4.505  1.6890  1.7028  1.4443
 8157TIP3    H224436   4.092   6.723   4.470  0.8911  1.2679 -0.0624
 8158TIP3   OH224437   2.469   5.621   1.742 -0.1351 -0.2180  0.0144
 8158TIP3    H124438   2.549   5.605   1.791  0.1352 -2.6050 -1.0824
 8158TIP3    H224439   2.401   5.627   1.808  0.5146 -1.2979  0.8153
 8159TIP3   OH224440   6.852   5.817   3.517 -0.4199  0.0507  0.1193
 8159TIP3    H124441   6.852   5.907   3.550  0.1168  0.4223 -0.8678
 8159TIP3    H224442   6.777   5.814   3.458 -1.2226 -0.5405  1.1366
 8160TIP3   OH224443   4.417   1.885   0.838 -0.3081 -0.2888  0.3911
 8160TIP3    H124444   4.498   1.859   0.883  0.0016 -0.2216 -0.1222
 8160TIP3    H224445   4.347   1.865   0.901  0.0830 -0.6084  0.7294
 8161TIP3   OH224446   6.490   3.722   3.386 -0.0566  0.0619 -0.5195
 8161TIP3    H124447   6.521   3.812   3.376 -1.1957  0.7510  1.6313
 8161TIP3    H224448   6.406   3.731   3.431  0.9174 -2.1526  1.9702
 8162TIP3   OH224449   0.735   2.760   5.729 -0.0532  0.4120  0.4163
 8162TIP3    H124450   0.667   2.741   5.793 -0.3154 -0.5554 -0.1304
 8162TIP3    H224451   0.812   2.713   5.759  0.3043  1.2611  0.8703
 8163TIP3   OH224452   4.950   0.930   0.227 -0.7844 -0.4171  0.5635
 8163TIP3    H124453   5.030   0.959   0.272 -0.8012 -0.3473  0.5483
 8163TIP3    H224454   4.892   1.005   0.231 -0.4055 -0.0515 -0.4810
 8164TIP3   OH224455   6.078   6.718   3.259  0.2757 -0.0420  0.3771
 8164TIP3    H124456   6.144   6.664   3.301  0.6548 -0.9814 -1.3269
 8164TIP3    H224457   5.995   6.673   3.276  0.5561 -1.0479 -0.7871
 8165TIP3   OH224458   4.234   6.116   5.037 -0.2405  0.0570 -0.1202
 8165TIP3    H124459   4.153   6.152   4.999 -0.5405 -1.0287 -0.5651
 8165TIP3    H224460   4.232   6.144   5.128 -1.5824 -0.6638  0.1034
 8166TIP3   OH224461   3.460   1.779   2.115 -0.0648  0.6628  0.1214
 8166TIP3    H124462   3.374   1.791   2.075 -0.1028 -0.8355 -0.2984
 8166TIP3    H224463   3.468   1.852   2.176 -1.1044  1.5248 -0.7218
 8167TIP3   OH224464   5.279   1.343   3.906  0.6073  0.2657 -0.3739
 8167TIP3    H124465   5.256   1.418   3.851  0.9289 -0.3270 -1.3432
 8167TIP3    H224466   5.198   1.321   3.952  0.4103  0.9573 -0.3815
 8168TIP3   OH224467   4.472   5.162   2.990  0.6005  0.0177 -0.3159
 8168TIP3    H124468   4.388   5.119   2.974  0.8586 -0.0938 -1.4352
 8168TIP3    H224469   4.457   5.254   2.969  1.0422 -0.1951 -1.6944
 8169TIP3   OH224470   0.024   5.588   0.892  0.8846  0.4421 -0.2304
 8169TIP3    H124471   0.116   5.609   0.877  1.3958  0.4073  2.3789
 8169TIP3    H224472   0.025   5.527   0.966 -1.2212  0.1821 -0.3619
 8170TIP3   OH224473   6.080   4.254   5.198  0.1710 -0.1558 -0.5155
 8170TIP3    H124474   6.042   4.331   5.239 -1.0497  0.2977 -2.3918
 8170TIP3    H224475   6.063   4.266   5.104  1.9559 -1.6153 -1.0732
 8171TIP3   OH224476   5.307   5.931   4.100 -0.0078  0.1533 -0.3937
 8171TIP3    H124477   5.239   5.994   4.121 -2.0820 -2.5488  1.8247
 8171TIP3    H224478   5.379   5.952   4.160 -0.3638  0.8006 -0.1826
 8172TIP3   OH224479   0.079   1.226   2.509  0.2470 -0.1671  0.3351
 8172TIP3    H124480   0.000   1.187   2.548  0.9843 -0.9454  1.0837
 8172TIP3    H224481   0.116   1.157   2.454  0.4015  0.2093 -0.0422
 8173TIP3   OH224482   5.069   2.232   2.399 -0.1362 -0.3134 -0.1383
 8173TIP3    H124483   5.044   2.278   2.319  3.3961 -1.0587 -1.8571
 8173TIP3    H224484   5.136   2.288   2.439 -0.1570 -1.0903  1.0332
 8174TIP3   OH224485   5.185   3.494   5.126 -0.3504  0.1499 -0.0706
 8174TIP3    H124486   5.192   3.406   5.091  0.9030 -0.3446  1.3094
 8174TIP3    H224487   5.270   3.534   5.110 -1.0459  1.2902 -1.0775
 8175TIP3   OH224488   3.637   4.630   4.878 -0.5508 -0.2019  0.1863
 8175TIP3    H124489   3.567   4.691   4.856 -1.1361 -0.3043  1.6571
 8175TIP3    H224490   3.679   4.669   4.955 -1.7453 -2.2179  1.9501
 8176TIP3   OH224491   5.605   2.289   1.471  1.0020  0.8399  0.2780
 8176TIP3    H124492   5.556   2.273   1.552  1.1380  3.4202  0.9560
 8176TIP3    H224493   5.555   2.244   1.403  0.3416 -0.5703  1.6237
 8177TIP3   OH224494   3.972   2.716   5.588 -0.1426 -0.2016 -0.5553
 8177TIP3    H124495   3.967   2.621   5.596 -0.0193 -0.0819  1.3827
 8177TIP3    H224496   3.902   2.739   5.527  0.1074 -1.5539 -1.3874
 8178TIP3   OH224497   1.510   3.056   4.802  0.2795  0.2272  0.3720
 8178TIP3    H124498   1.432   3.066   4.856  0.7669  0.8997  0.9695
 8178TIP3    H224499   1.476   3.036   4.714 -0.5026 -1.1819  0.9712
 8179TIP3   OH224500   0.367   0.954   4.735 -0.4365  0.3116 -0.5262
 8179TIP3    H124501   0.289   0.899   4.727  0.5220 -0.9269 -1.8951
 8179TIP3    H224502   0.440   0.892   4.735  0.6214  1.5163 -0.5080
 8180TIP3   OH224503   6.808   5.915   0.584  0.1278 -0.1543 -0.0201
 8180TIP3    H124504   6.764   5.965   0.653 -1.5514  0.5465 -1.5318
 8180TIP3    H224505   6.815   5.826   0.620 -1.1190  0.0879  0.8870
 8181TIP3   OH224506   1.544   0.355   1.356  0.0736 -0.3660  0.6437
 8181TIP3    H124507   1.597   0.290   1.402 -0.4571 -0.1874  1.5180
 8181TIP3    H224508   1.546   0.326   1.265 -1.8114 -2.7932  1.2836
 8182TIP3   OH224509   2.088   6.078   4.470  0.6121 -0.4273  0.1159
 8182TIP3    H124510   1.995   6.090   4.490  0.4627 -2.6804  1.1678
 8182TIP3    H224511   2.133   6.136   4.531 -0.0736  2.0189 -1.5858
 8183TIP3   OH224512   4.978   2.817   4.039 -0.0794  0.5295 -0.2742
 8183TIP3    H124513   4.928   2.791   3.962 -0.2970  0.3568 -0.0739
 8183TIP3    H224514   4.977   2.740   4.096  0.5989  0.4506 -0.3639
 8184TIP3   OH224515   3.253   0.056   4.097 -0.0597 -0.2886  0.5534
 8184TIP3    H124516   3.263   0.061   4.002 -1.3850 -1.6645  0.2955
 8184TIP3    H224517   3.339   0.031   4.129  0.3464 -0.0396 -0.3154
 8185TIP3   OH224518   6.277   1.092   4.251  0.6006 -0.3709 -0.0220
 8185TIP3    H124519   6.305   1.034   4.181 -1.5381 -0.5968 -0.7709
 8185TIP3    H224520   6.181   1.094   4.244  0.4205  0.8562  1.8977
 8186TIP3   OH224521   1.440   5.930   4.300 -0.5902 -0.2736  0.1226
 8186TIP3    H124522   1.352   5.962   4.315  0.3270  1.6141  1.8349
 8186TIP3    H224523   1.431   5.834   4.299 -2.7431 -0.1146 -0.6528
 8187TIP3   OH224524   0.770   0.217   1.074 -0.3590 -0.1859 -0.6884
 8187TIP3    H124525   0.862   0.189   1.082 -0.3349 -0.0738 -0.5779
 8187TIP3    H224526   0.770   0.307   1.105 -0.5345 -0.2340 -0.5483
 8188TIP3   OH224527   0.660   5.055   0.560 -0.3043 -0.0221  0.1132
 8188TIP3    H124528   0.610   5.114   0.617  1.0668  1.6109 -0.2977
 8188TIP3    H224529   0.600   5.036   0.488 -0.9123  0.5892  0.4400
 8189TIP3   OH224530   1.319   0.874   2.868  0.1148  0.1199  0.5031
 8189TIP3    H124531   1.374   0.799   2.890  0.6347  0.3652  0.0761
 8189TIP3    H224532   1.314   0.925   2.949  0.9741  0.3735  0.4159
 8190TIP3   OH224533   3.771   6.211   4.522  0.1193  0.5095  0.3150
 8190TIP3    H124534   3.711   6.191   4.594  0.7862  2.4422  1.4896
 8190TIP3    H224535   3.858   6.206   4.562  0.7446 -1.2782 -1.1222
 8191TIP3   OH224536   6.113   0.119   0.577  0.3769 -0.1389  0.2614
 8191TIP3    H124537   6.137   0.027   0.575  0.1815 -0.1990  0.6539
 8191TIP3    H224538   6.191   0.163   0.612 -0.2990 -0.4134  2.2024
 8192TIP3   OH224539   3.108   4.979   0.143  0.0203 -0.1907 -0.2794
 8192TIP3    H124540   3.105   5.005   0.235  1.3843 -2.0075  0.3230
 8192TIP3    H224541   3.146   5.055   0.098 -0.7266  0.7399  0.6263
 8193TIP3   OH224542   5.496   2.867   1.241 -0.1180 -0.0521 -0.0142
 8193TIP3    H124543   5.537   2.953   1.254  0.3982 -0.3164  0.1591
 8193TIP3    H224544   5.516   2.819   1.322 -1.5615  0.1166  0.4566
 8194TIP3   OH224545   0.967   4.664   1.272  0.1229  0.0015 -0.1743
 8194TIP3    H124546   0.921   4.653   1.189 -1.7951 -1.6802  1.0463
 8194TIP3    H224547   1.033   4.595   1.272 -0.3086 -0.4095 -0.0136
 8195TIP3   OH224548   4.149   3.169   2.035 -0.1140 -0.3950 -0.3572
 8195TIP3    H124549   4.202   3.099   2.072  0.7423  0.1828 -0.4708
 8195TIP3    H224550   4.212   3.227   1.993 -0.6195  1.3233  1.1479
 8196TIP3   OH224551   4.152   3.259   0.534  0.4186  0.5337  0.3595
 8196TIP3    H124552   4.100   3.316   0.590 -1.0028  0.1591 -0.5248
 8196TIP3    H224553   4.108   3.174   0.538  1.3529  0.0125  0.0905
 8197TIP3   OH224554   3.586   5.602   4.465 -0.5107  0.0065 -0.2918
 8197TIP3    H124555   3.529   5.569   4.395  1.4657 -0.9633 -1.5406
 8197TIP3    H224556   3.534   5.669   4.509 -3.3189 -2.1545 -0.0818
 8198TIP3   OH224557   5.578   3.557   1.511 -0.3410 -0.1822 -0.1242
 8198TIP3    H124558   5.516   3.626   1.531 -0.3007 -0.0273 -0.5258
 8198TIP3    H224559   5.664   3.598   1.522 -0.3084  0.2326 -1.6573
 8199TIP3   OH224560   2.556   6.718   0.631  0.3417  0.8078 -0.0321
 8199TIP3    H124561   2.557   6.813   0.639 -2.1940  1.0446 -1.4024
 8199TIP3    H224562   2.482   6.690   0.684  2.2947 -0.7179  2.1029
 8200TIP3   OH224563   3.785   0.693   2.481 -0.8640  0.1349  0.3151
 8200TIP3    H124564   3.839   0.614   2.474 -2.1471 -0.9872  2.1815
 8200TIP3    H224565   3.847   0.765   2.471  0.5238 -1.0881 -0.3661
 8201TIP3   OH224566   4.339   3.054   5.775  0.0098  0.1746  0.4786
 8201TIP3    H124567   4.303   3.055   5.687 -0.8941 -2.5381  0.7388
 8201TIP3    H224568   4.434   3.043   5.762 -0.1143 -0.1622 -0.1611
 8202TIP3   OH224569   0.240   5.167   1.146 -0.1541 -0.2495  0.6411
 8202TIP3    H124570   0.279   5.192   1.230 -1.5008 -0.5834  1.3929
 8202TIP3    H224571   0.313   5.129   1.096  0.6949  0.0713  1.5992
 8203TIP3   OH224572   2.639   3.836   5.885 -0.5786  0.3399 -0.4045
 8203TIP3    H124573   2.714   3.842   5.825 -0.8591 -0.2836 -0.8329
 8203TIP3    H224574   2.582   3.771   5.844 -1.8837  1.6113 -0.6564
 8204TIP3   OH224575   6.973   3.018   1.677  0.4328  0.8674  0.0257
 8204TIP3    H124576   7.011   3.075   1.610 -1.9454  0.2232 -2.0305
 8204TIP3    H224577   7.004   2.931   1.654  0.0104  0.7075  0.0579
 8205TIP3   OH224578   1.911   2.450   0.383 -0.0243  0.5198 -0.1534
 8205TIP3    H124579   1.850   2.378   0.392  0.7794 -0.2677 -0.8364
 8205TIP3    H224580   1.860   2.521   0.343 -1.1496  0.8022  1.6942
 8206TIP3   OH224581   6.490   6.066   4.631 -0.2741 -0.3026  0.0339
 8206TIP3    H124582   6.555   6.011   4.674 -0.0228  0.8907  1.2513
 8206TIP3    H224583   6.447   6.008   4.568  0.7984 -1.5512  0.4067
 8207TIP3   OH224584   3.971   5.242   2.929  0.1632 -0.1057 -0.2547
 8207TIP3    H124585   3.904   5.195   2.979  0.6733 -1.8512 -1.1154
 8207TIP3    H224586   3.930   5.325   2.905 -1.8728 -1.2684 -1.0803
 8208TIP3   OH224587   6.739   2.728   4.075 -0.4571 -0.0659  0.2705
 8208TIP3    H124588   6.797   2.694   4.007 -0.2877  0.8445 -0.0587
 8208TIP3    H224589   6.790   2.724   4.156  0.5556  1.8166 -0.1989
 8209TIP3   OH224590   6.076   6.603   2.652  0.0028  0.0785  0.7597
 8209TIP3    H124591   6.039   6.686   2.683 -0.2633  0.1043  0.3859
 8209TIP3    H224592   6.161   6.627   2.616  0.4912 -0.0145  1.8198
 8210TIP3   OH224593   4.213   4.915   0.330  0.6917 -0.1703 -0.0717
 8210TIP3    H124594   4.136   4.928   0.384 -1.3433 -0.5862 -2.6610
 8210TIP3    H224595   4.188   4.845   0.269  2.8817  0.0833 -1.3808
 8211TIP3   OH224596   4.626   5.387   1.608  0.4328 -0.1675  0.3774
 8211TIP3    H124597   4.707   5.435   1.623 -0.0004  0.0209  2.3117
 8211TIP3    H224598   4.636   5.349   1.520  1.7328  1.5550 -0.2725
 8212TIP3   OH224599   2.311   6.573   0.124 -0.2869 -0.4438 -0.1578
 8212TIP3    H124600   2.276   6.489   0.153 -1.2912  0.6622  2.0473
 8212TIP3    H224601   2.243   6.609   0.067  1.0123 -1.9190 -2.8423
 8213TIP3   OH224602   4.038   0.933   0.340  0.3604 -0.1148 -0.4944
 8213TIP3    H124603   3.983   0.995   0.292  1.5077  0.7176 -0.7794
 8213TIP3    H224604   4.078   0.879   0.272 -0.2829 -0.8875 -0.2735
 8214TIP3   OH224605   7.133   3.868   2.313  0.7445 -0.0323  0.4193
 8214TIP3    H124606   7.088   3.793   2.351 -0.2597  0.3860  0.0706
 8214TIP3    H224607   7.111   3.941   2.369 -1.2113  0.7082 -1.2114
 8215TIP3   OH224608   6.132   1.866   4.407  0.2479 -0.9100 -0.5174
 8215TIP3    H124609   6.109   1.785   4.453  2.4445 -0.1795  2.0787
 8215TIP3    H224610   6.184   1.836   4.332  3.1156 -1.9532  1.7106
 8216TIP3   OH224611   0.452   4.536   0.620 -0.7873  0.0259  0.4494
 8216TIP3    H124612   0.476   4.619   0.577  0.8823 -0.6163  0.0899
 8216TIP3    H224613   0.534   4.502   0.655 -0.4261 -3.5994 -3.1131
 8217TIP3   OH224614   5.986   4.008   2.872  0.5765 -0.2102  0.3659
 8217TIP3    H124615   5.891   4.003   2.879  0.6040 -0.7748  0.3649
 8217TIP3    H224616   6.005   3.990   2.780  0.6329  0.8259  0.1559
 8218TIP3   OH224617   4.329   0.252   3.951  0.1630  0.1456 -0.4718
 8218TIP3    H124618   4.291   0.287   4.031  0.4023 -0.7320  0.0408
 8218TIP3    H224619   4.417   0.224   3.976  0.1570 -0.3486 -0.9787
 8219TIP3   OH224620   6.299   5.851   1.877  0.3810 -0.0670 -0.1882
 8219TIP3    H124621   6.392   5.857   1.857  0.1639 -0.4353 -1.4298
 8219TIP3    H224622   6.263   5.795   1.808 -0.8501  0.5584 -0.0988
 8220TIP3   OH224623   1.705   2.597   2.274  0.7519 -0.5444  0.0066
 8220TIP3    H124624   1.616   2.619   2.301  0.7560  0.1475 -0.5403
 8220TIP3    H224625   1.755   2.678   2.285  0.6367 -0.0440 -2.5706
 8221TIP3   OH224626   5.903   1.409   1.910  0.3789  0.2766  0.1978
 8221TIP3    H124627   5.947   1.391   1.827  1.1070 -1.4633  0.9135
 8221TIP3    H224628   5.810   1.408   1.889  0.4028 -2.9695 -0.1767
 8222TIP3   OH224629   1.654   4.433   1.481 -0.2526  0.5260 -0.2740
 8222TIP3    H124630   1.604   4.370   1.428 -0.1457 -0.2067  0.4705
 8222TIP3    H224631   1.729   4.455   1.426  0.1257 -0.6145 -0.2495
 8223TIP3   OH224632   3.319   3.238   1.336 -0.2825 -0.3208 -0.3012
 8223TIP3    H124633   3.302   3.323   1.377 -1.6608 -2.0514  3.1281
 8223TIP3    H224634   3.414   3.233   1.329 -0.1780  1.3944 -0.3624
 8224TIP3   OH224635   5.491   2.839   0.677  0.5380 -0.4287 -0.0804
 8224TIP3    H124636   5.448   2.889   0.607 -1.6230 -1.6040  0.3240
 8224TIP3    H224637   5.533   2.906   0.731 -1.8948  0.9941  0.1964
 8225TIP3   OH224638   1.349   3.733   1.189  0.2612 -0.3465 -0.5089
 8225TIP3    H124639   1.386   3.773   1.111  0.0250 -0.8258 -0.8747
 8225TIP3    H224640   1.301   3.803   1.232  0.3396 -0.0944 -0.8291
 8226TIP3   OH224641   4.808   1.682   3.801 -0.2212  0.2150 -0.7513
 8226TIP3    H124642   4.904   1.690   3.801  0.0215 -2.0997 -1.9828
 8226TIP3    H224643   4.780   1.736   3.727  0.1211  0.8456 -0.4305
 8227TIP3   OH224644   6.932   4.663   5.409 -0.2787 -0.7080 -0.1288
 8227TIP3    H124645   6.921   4.758   5.409  0.9564 -0.5508 -1.2041
 8227TIP3    H224646   6.897   4.635   5.324 -1.2822 -1.3108  0.4658
 8228TIP3   OH224647   4.197   1.575   4.678 -0.2757  0.7834 -0.0327
 8228TIP3    H124648   4.266   1.509   4.688  0.3481  1.6045  1.4487
 8228TIP3    H224649   4.119   1.534   4.715 -0.6648 -0.1922 -1.8177
 8229TIP3   OH224650   1.832   1.491   3.620 -0.1196  0.0121 -0.1853
 8229TIP3    H124651   1.925   1.509   3.634  0.0282  0.5485 -1.7417
 8229TIP3    H224652   1.823   1.397   3.636  0.6629 -0.0299  0.0391
 8230TIP3   OH224653   2.855   5.742   1.509 -0.0438  0.2523 -0.2220
 8230TIP3    H124654   2.887   5.658   1.542 -0.7038  0.3183  0.6128
 8230TIP3    H224655   2.781   5.764   1.566  0.1500  1.4266 -0.4015
 8231TIP3   OH224656   3.789   1.398   5.078 -0.3133  0.6751 -0.2291
 8231TIP3    H124657   3.700   1.423   5.100  0.0810  0.7735  1.4416
 8231TIP3    H224658   3.788   1.302   5.077 -0.0613  0.5905  1.8385
 8232TIP3   OH224659   4.573   2.502   0.616  0.4164 -0.1157 -0.4960
 8232TIP3    H124660   4.657   2.482   0.656  1.2656  0.2002 -2.0206
 8232TIP3    H224661   4.558   2.594   0.636  1.3534  0.3298 -1.7337
 8233TIP3   OH224662   0.627   0.816   2.863  0.4175 -0.6099  0.4259
 8233TIP3    H124663   0.631   0.767   2.945 -1.6616 -2.0574 -0.2590
 8233TIP3    H224664   0.716   0.850   2.851  0.8423 -0.5127  3.1425
 8234TIP3   OH224665   6.022   2.982   1.462 -0.0098  0.1661  0.6116
 8234TIP3    H124666   6.093   2.940   1.414 -0.4751  0.7671 -0.6353
 8234TIP3    H224667   6.035   2.955   1.553  3.1599  2.0385  0.8746
 8235TIP3   OH224668   5.627   3.844   3.650 -0.2240  0.5559 -0.3494
 8235TIP3    H124669   5.678   3.766   3.673  1.2392  1.3277 -0.8227
 8235TIP3    H224670   5.567   3.814   3.581 -0.6108 -0.4312  0.3880
 8236TIP3   OH224671   3.297   5.466   5.745 -0.0290  0.2093  0.1685
 8236TIP3    H124672   3.245   5.416   5.807  0.8480 -1.0579 -0.0839
 8236TIP3    H224673   3.244   5.543   5.726 -0.3144  0.6696  2.4971
 8237TIP3   OH224674   4.567   6.096   0.957 -0.4383 -0.3274  0.1556
 8237TIP3    H124675   4.648   6.114   0.909 -0.5751 -1.2985 -0.4512
 8237TIP3    H224676   4.576   6.005   0.986 -0.4377  0.1654  1.8320
 8238TIP3   OH224677   5.061   3.785   5.058 -0.2788 -0.5199 -0.2430
 8238TIP3    H124678   5.086   3.695   5.076 -0.0611 -0.4056  0.0466
 8238TIP3    H224679   5.116   3.837   5.117 -2.2967 -0.3125  1.5947
 8239TIP3   OH224680   0.373   0.701   0.287  0.1472  0.8518  0.8731
 8239TIP3    H124681   0.431   0.722   0.213 -0.5260 -0.4063 -0.0376
 8239TIP3    H224682   0.288   0.737   0.262 -0.3870 -0.6357  0.4451
 8240TIP3   OH224683   5.774   5.320   2.179 -0.7102  0.1897 -0.2712
 8240TIP3    H124684   5.822   5.259   2.123 -1.7686 -1.4009  0.4843
 8240TIP3    H224685   5.685   5.320   2.145 -0.8661  0.8405  0.1240
 8241TIP3   OH224686   0.886   3.820   2.439 -0.4149  0.2848  0.1639
 8241TIP3    H124687   0.794   3.845   2.435  0.0711  2.3142  0.8689
 8241TIP3    H224688   0.888   3.747   2.501 -1.6133 -0.3006 -0.4379
 8242TIP3   OH224689   1.023   1.804   2.611 -0.5111 -0.6362  0.1330
 8242TIP3    H124690   0.978   1.876   2.654  1.9888  0.7687  0.6007
 8242TIP3    H224691   1.087   1.773   2.676  1.4485 -0.2955 -1.5109
 8243TIP3   OH224692   0.794   4.070   3.603 -0.1630 -0.2146 -0.0598
 8243TIP3    H124693   0.828   4.159   3.601  1.4294 -0.8079 -1.8088
 8243TIP3    H224694   0.853   4.023   3.662  1.3178 -0.9056 -1.9798
 8244TIP3   OH224695   5.270   2.314   0.019 -0.3232 -0.1216 -0.0188
 8244TIP3    H124696   5.294   2.231   0.060  0.2677 -0.6343 -1.3461
 8244TIP3    H224697   5.320   2.380   0.067 -0.2592 -0.6107  0.5951
 8245TIP3   OH224698   6.087   4.406   1.300 -0.7323 -0.0515 -0.6227
 8245TIP3    H124699   6.142   4.483   1.316  0.8160 -1.4516  1.2908
 8245TIP3    H224700   6.013   4.417   1.359  0.2014 -0.6688  0.6981
 8246TIP3   OH224701   2.240   4.444   2.152 -0.3028 -0.0715  0.2315
 8246TIP3    H124702   2.301   4.517   2.153  1.1795 -1.2290 -1.2786
 8246TIP3    H224703   2.156   4.483   2.178  1.0897  1.4712  2.9413
 8247TIP3   OH224704   2.539   1.665   1.039 -0.3854  0.2929 -0.5237
 8247TIP3    H124705   2.449   1.696   1.040 -0.4661  0.0658 -0.6332
 8247TIP3    H224706   2.532   1.570   1.032 -0.1464  0.2034  0.3440
 8248TIP3   OH224707   4.955   1.646   4.445  0.2854 -0.4954 -0.4800
 8248TIP3    H124708   4.919   1.573   4.497  2.0681 -0.4150  0.9579
 8248TIP3    H224709   4.913   1.724   4.481  1.9606 -0.3723  1.4026
 8249TIP3   OH224710   4.735   0.776   2.735  0.6996 -0.7900  0.2312
 8249TIP3    H124711   4.772   0.862   2.716  1.2142 -1.0536  0.0199
 8249TIP3    H224712   4.795   0.715   2.693 -0.0201 -1.2259 -0.1749
 8250TIP3   OH224713   0.826   5.688   1.339 -0.1154  0.5639 -0.0469
 8250TIP3    H124714   0.853   5.608   1.294 -1.0865  1.5233 -2.5505
 8250TIP3    H224715   0.875   5.757   1.295 -0.1968  1.4780  1.2448
 8251TIP3   OH224716   5.211   0.439   3.526 -0.2463 -0.0361 -0.1334
 8251TIP3    H124717   5.250   0.460   3.441  0.3939  1.3556  0.4711
 8251TIP3    H224718   5.131   0.391   3.505  0.5314 -0.7902 -1.4708
 8252TIP3   OH224719   4.051   6.036   0.324  0.0773  0.7133 -0.6354
 8252TIP3    H124720   3.962   6.063   0.346 -0.2680 -1.4059  0.9114
 8252TIP3    H224721   4.100   6.047   0.406  0.6259 -0.4122 -0.7955
 8253TIP3   OH224722   0.747   3.583   4.972  0.3582  0.2813 -0.4325
 8253TIP3    H124723   0.759   3.674   4.946  1.1801 -0.0011 -1.0575
 8253TIP3    H224724   0.655   3.565   4.952  0.4550  0.6704 -1.2840
 8254TIP3   OH224725   2.434   1.316   3.970 -0.4128  0.1334 -0.4643
 8254TIP3    H124726   2.458   1.367   3.893 -0.8968  0.7226 -0.2387
 8254TIP3    H224727   2.412   1.382   4.036 -0.0362 -0.3645  0.1662
 8255TIP3   OH224728   4.839   1.517   0.955  0.0676 -0.4701 -0.3162
 8255TIP3    H124729   4.826   1.521   1.050 -1.0770  0.4346 -0.5029
 8255TIP3    H224730   4.930   1.546   0.943 -0.2084  0.7453  0.3948
 8256TIP3   OH224731   6.615   1.556   1.885  0.9070  0.1069 -0.1815
 8256TIP3    H124732   6.648   1.646   1.886  0.6415  0.2219 -0.9938
 8256TIP3    H224733   6.520   1.565   1.891  0.9278 -0.1686  0.7174
 8257TIP3   OH224734   6.264   4.111   4.745 -0.0569  0.1345 -0.0688
 8257TIP3    H124735   6.309   4.184   4.704 -0.3100 -0.4531 -1.4345
 8257TIP3    H224736   6.255   4.137   4.837  2.2594  0.6500  0.0748
 8258TIP3   OH224737   5.272   5.389   3.996  0.5010  0.2936  0.2285
 8258TIP3    H124738   5.340   5.376   3.930 -0.5016  0.2038 -0.8177
 8258TIP3    H224739   5.293   5.473   4.037  2.1471 -0.4788  1.0688
 8259TIP3   OH224740   6.035   5.042   1.261 -0.4709  0.2991 -0.1310
 8259TIP3    H124741   6.120   5.052   1.305  0.6808  2.2043 -2.4815
 8259TIP3    H224742   6.058   5.033   1.168 -2.7653  4.3840 -1.3611
 8260TIP3   OH224743   4.798   0.050   2.675  0.5503 -0.0062  0.1584
 8260TIP3    H124744   4.811  -0.006   2.752 -1.2889  1.6880  1.8569
 8260TIP3    H224745   4.703   0.057   2.666  0.7267  1.0806 -1.3255
 8261TIP3   OH224746   5.231   0.454   0.259  0.1332 -0.0902 -0.1978
 8261TIP3    H124747   5.236   0.499   0.344  1.0165  0.1820 -0.3782
 8261TIP3    H224748   5.271   0.368   0.275  0.4155  0.0079 -0.3580
 8262TIP3   OH224749   0.638   2.315   4.311 -0.3828 -0.0910 -0.1306
 8262TIP3    H124750   0.693   2.341   4.385  0.3330  2.6265 -1.4848
 8262TIP3    H224751   0.695   2.321   4.235 -2.0637  1.1179 -1.3695
 8263TIP3   OH224752   1.720   0.262   0.602 -0.2056 -0.6386 -0.3717
 8263TIP3    H124753   1.750   0.197   0.538 -0.2235  0.1558 -1.2109
 8263TIP3    H224754   1.777   0.250   0.677  1.5257  0.1140 -1.5218
 8264TIP3   OH224755   2.028  -0.024   0.591 -0.1142  0.1602 -0.1372
 8264TIP3    H124756   2.032   0.047   0.655  1.3657  1.8439 -1.9391
 8264TIP3    H224757   1.955  -0.001   0.533  1.8667  1.7078 -2.2040
 8265TIP3   OH224758   2.572   0.500   1.092 -0.2401 -0.5435 -0.0483
 8265TIP3    H124759   2.525   0.458   1.020 -0.4341  1.6127 -1.2328
 8265TIP3    H224760   2.657   0.525   1.055 -0.9795  2.1303 -0.1297
 8266TIP3   OH224761   1.526   0.511   1.740 -0.2561  0.3615 -0.2075
 8266TIP3    H124762   1.523   0.607   1.743  0.3143  0.3564  1.1344
 8266TIP3    H224763   1.598   0.487   1.799  1.0687 -0.8205 -2.1814
 8267TIP3   OH224764   7.076   0.965   1.967  0.2644  0.5662  0.3469
 8267TIP3    H124765   7.035   1.021   2.032  0.2594  0.3851  0.5032
 8267TIP3    H224766   7.170   0.970   1.987  0.2067 -0.0260  0.8091
 8268TIP3   OH224767   1.716   4.412   3.072  0.4641  0.5126 -0.3587
 8268TIP3    H124768   1.728   4.369   3.156  0.6136  2.0848  0.4682
 8268TIP3    H224769   1.746   4.348   3.007  1.9082 -0.1218  0.8749
 8269TIP3   OH224770   1.281   5.059   4.324 -0.5154 -0.4257  0.0112
 8269TIP3    H124771   1.198   5.015   4.306  0.5102 -2.6119  0.3155
 8269TIP3    H224772   1.282   5.134   4.264 -1.9241 -1.3467 -1.2413
 8270TIP3   OH224773   4.946   4.883   2.288 -0.1193  0.5066  0.1179
 8270TIP3    H124774   5.011   4.905   2.355 -1.7962  0.8432  1.6941
 8270TIP3    H224775   4.965   4.944   2.216  2.8031 -0.9958 -0.5204
 8271TIP3   OH224776   2.952   6.308   5.702  0.4712 -0.0094  0.4017
 8271TIP3    H124777   2.874   6.319   5.649  0.9883 -0.8824 -0.5701
 8271TIP3    H224778   2.935   6.361   5.780 -0.2790  1.3384 -0.6342
 8272TIP3   OH224779   3.183   1.435   3.728  0.1500 -0.4993 -0.2673
 8272TIP3    H124780   3.167   1.437   3.633 -2.2723 -0.7841  0.0527
 8272TIP3    H224781   3.151   1.349   3.755  1.5504 -0.7386  0.7343
 8273TIP3   OH224782   4.889   5.770   4.151 -0.1436  0.4327  0.0450
 8273TIP3    H124783   4.887   5.825   4.230 -1.0350  0.6822 -0.1399
 8273TIP3    H224784   4.907   5.682   4.184  0.0372  0.6234  0.4702
 8274TIP3   OH224785   4.329   1.829   1.626 -0.3140  0.4582 -0.2508
 8274TIP3    H124786   4.302   1.751   1.579 -2.2144  1.2664 -0.5942
 8274TIP3    H224787   4.424   1.822   1.633 -0.5234 -2.6270  1.1089
 8275TIP3   OH224788   3.177   2.818   2.182  0.1204 -0.1988  0.2356
 8275TIP3    H124789   3.150   2.835   2.272 -1.8532  1.0636 -0.5209
 8275TIP3    H224790   3.098   2.787   2.139  1.2378 -1.5969 -0.9074
 8276TIP3   OH224791   5.643   1.264   4.342  0.0497  1.1242  0.2560
 8276TIP3    H124792   5.615   1.187   4.391 -0.8350  1.0304 -0.3824
 8276TIP3    H224793   5.564   1.297   4.300  0.2797  2.8016  1.0710
 8277TIP3   OH224794   0.578   5.782   1.444 -0.2390  0.0530  0.1776
 8277TIP3    H124795   0.517   5.800   1.373 -0.4157  1.1099  0.5856
 8277TIP3    H224796   0.644   5.725   1.405 -1.6614 -1.4297 -0.1730
 8278TIP3   OH224797   1.735   1.167   0.825  0.2589  0.3975 -0.0327
 8278TIP3    H124798   1.680   1.181   0.903  0.8025  1.5910  0.1580
 8278TIP3    H224799   1.821   1.201   0.850  1.5748 -2.6930  0.1853
 8279TIP3   OH224800   6.696   0.936   2.500 -0.1528 -0.2255 -0.1399
 8279TIP3    H124801   6.791   0.940   2.487 -0.4099  0.9208 -1.9935
 8279TIP3    H224802   6.679   0.845   2.525  1.2046 -1.0609 -2.0349
 8280TIP3   OH224803   4.818   1.287   3.390  0.1496 -0.4483 -0.0511
 8280TIP3    H124804   4.743   1.327   3.345  1.0358 -0.1509 -1.3072
 8280TIP3    H224805   4.894   1.319   3.342  1.1573 -0.0279  1.7693
 8281TIP3   OH224806   1.792   1.899   0.983  0.2560 -0.0268  0.1464
 8281TIP3    H124807   1.752   1.979   0.951 -1.8167 -0.7273  0.7847
 8281TIP3    H224808   1.790   1.907   1.079 -0.6438 -1.0871  0.2461
 8282TIP3   OH224809   6.562   4.646   3.906 -0.2525  0.3055  0.2205
 8282TIP3    H124810   6.646   4.693   3.907 -0.1488  0.1994  2.3927
 8282TIP3    H224811   6.535   4.647   3.815  2.3872 -0.1543 -0.6510
 8283TIP3   OH224812   0.992   3.874   3.944  0.0214 -0.3848  0.4519
 8283TIP3    H124813   0.984   3.846   3.853 -0.3200 -1.1472  0.7027
 8283TIP3    H224814   0.909   3.848   3.984  0.4717 -0.7670  1.1553
 8284TIP3   OH224815   0.393   0.916   3.582  0.2827 -0.2179  0.0205
 8284TIP3    H124816   0.454   0.869   3.639  2.1737  1.4921 -0.4938
 8284TIP3    H224817   0.386   1.003   3.620  2.7678  1.4984 -2.9350
 8285TIP3   OH224818   0.996   1.915   3.906 -0.2583  0.1152  0.1436
 8285TIP3    H124819   0.935   1.863   3.854 -0.5369 -0.5625  1.1154
 8285TIP3    H224820   1.019   1.989   3.850  0.3734 -1.1887 -1.3932
 8286TIP3   OH224821   1.526   0.009   1.872  0.0598 -0.6160 -0.2203
 8286TIP3    H124822   1.586   0.077   1.904  0.8828 -0.7481 -1.3873
 8286TIP3    H224823   1.463  -0.004   1.943  0.2314  0.9489  0.2514
 8287TIP3   OH224824   4.834   1.724   2.360  0.0111 -0.1936  0.1909
 8287TIP3    H124825   4.910   1.667   2.361 -0.6077 -1.0327  0.7796
 8287TIP3    H224826   4.856   1.793   2.297  0.7972 -1.0316 -0.4689
 8288TIP3   OH224827   3.777   5.852   4.440  0.0713 -0.1825 -0.5325
 8288TIP3    H124828   3.750   5.853   4.531 -0.9170  2.1569 -0.7760
 8288TIP3    H224829   3.696   5.844   4.390  0.1525  2.2856 -1.2019
 8289TIP3   OH224830   0.488   5.745   0.133 -0.5566 -0.1105 -0.0244
 8289TIP3    H124831   0.500   5.684   0.060 -0.4458 -0.2964  0.1455
 8289TIP3    H224832   0.499   5.690   0.211  0.0070  0.2165  0.1302
 8290TIP3   OH224833   0.961   3.813   3.670 -0.3164  0.0131 -0.0098
 8290TIP3    H124834   0.888   3.753   3.688 -1.1077  0.5237 -1.3943
 8290TIP3    H224835   0.976   3.805   3.576  0.7729  0.6554  0.0980
 8291TIP3   OH224836   6.177   4.842   5.341 -0.0606 -0.0872  0.3132
 8291TIP3    H124837   6.143   4.764   5.297  1.9073 -0.3735 -0.8174
 8291TIP3    H224838   6.248   4.809   5.396  0.4735  0.8298  0.1991
 8292TIP3   OH224839   2.796   0.430   2.035  0.1760  0.0142  0.0673
 8292TIP3    H124840   2.736   0.419   2.109 -0.3526  0.5094 -0.2857
 8292TIP3    H224841   2.791   0.523   2.013  0.9906  0.0450 -0.0390
 8293TIP3   OH224842   2.783   0.697   1.942  0.6702  0.2377  0.5190
 8293TIP3    H124843   2.831   0.780   1.944  0.2397  0.5193 -0.4550
 8293TIP3    H224844   2.696   0.720   1.910  0.3029 -0.4764  0.9767
 8294TIP3   OH224845   0.446   4.805   3.816 -0.3096  0.3214 -0.0164
 8294TIP3    H124846   0.509   4.872   3.846  0.2503 -0.9991  2.0074
 8294TIP3    H224847   0.366   4.825   3.864 -0.5370  0.2921 -0.3828
 8295TIP3   OH224848   1.574   3.825   0.514 -0.0721 -0.1131  0.0762
 8295TIP3    H124849   1.557   3.847   0.422  1.4593 -0.4095 -0.3116
 8295TIP3    H224850   1.537   3.737   0.525 -0.4652  0.0172 -0.1792
 8296TIP3   OH224851   4.931   5.553   3.833 -0.4831  0.3355 -0.7621
 8296TIP3    H124852   4.960   5.517   3.749 -0.6764 -0.7497 -0.3826
 8296TIP3    H224853   4.867   5.620   3.809 -0.9917 -0.3883 -1.4694
 8297TIP3   OH224854   3.165   4.202   0.554 -0.1800 -0.1130  0.0773
 8297TIP3    H124855   3.195   4.287   0.523 -1.8693  0.7737  0.7459
 8297TIP3    H224856   3.242   4.164   0.596  0.6992  0.9187 -0.5353
 8298TIP3   OH224857   6.040   2.340   1.436  0.0727 -0.0629  0.0330
 8298TIP3    H124858   6.122   2.385   1.417 -0.4871  1.3618  0.7896
 8298TIP3    H224859   6.021   2.289   1.358  0.2608  1.8038 -1.2790
 8299TIP3   OH224860   5.220   1.104   4.280 -0.0117  0.5163 -0.0322
 8299TIP3    H124861   5.208   1.017   4.317 -0.6450  0.5361 -0.1857
 8299TIP3    H224862   5.205   1.093   4.186  0.9606  0.5904 -0.2067
 8300TIP3   OH224863   1.684   6.459   3.599  0.6152  0.3395 -0.2028
 8300TIP3    H124864   1.716   6.512   3.673 -1.4987  1.3184  0.0708
 8300TIP3    H224865   1.662   6.375   3.639 -0.2775  0.7783  0.2523
 8301TIP3   OH224866   1.807   3.664   4.704  0.0987  0.1708 -0.2267
 8301TIP3    H124867   1.751   3.586   4.701 -1.6753  1.4220 -1.0996
 8301TIP3    H224868   1.792   3.702   4.790 -0.7059  0.6989 -0.5897
 8302TIP3   OH224869   1.853   6.761   2.529  0.2865  0.8647 -0.5336
 8302TIP3    H124870   1.887   6.695   2.469  1.5463  0.1723  0.8752
 8302TIP3    H224871   1.930   6.809   2.558  0.0631 -0.2233  2.1511
 8303TIP3   OH224872   6.918   2.628   4.743  0.2373 -0.0001  0.0807
 8303TIP3    H124873   6.854   2.690   4.708  1.3074  2.2060  1.7942
 8303TIP3    H224874   6.866   2.550   4.765 -1.8526  1.5759  1.0932
 8304TIP3   OH224875   4.318   4.853   5.333  0.3761 -0.0310 -0.4593
 8304TIP3    H124876   4.328   4.777   5.276  2.2215  0.9126 -1.4781
 8304TIP3    H224877   4.303   4.927   5.274  0.2823  0.6565  0.4006
 8305TIP3   OH224878   5.929   0.136   3.826  0.2566  0.3724  0.2772
 8305TIP3    H124879   5.889   0.075   3.888 -0.5104  1.1531  0.5667
 8305TIP3    H224880   5.967   0.079   3.758  1.1695 -0.4964  1.4763
 8306TIP3   OH224881   6.717   0.379   5.134 -0.6036  0.1673  0.0925
 8306TIP3    H124882   6.779   0.434   5.182  0.4556 -0.6010 -0.3570
 8306TIP3    H224883   6.662   0.441   5.086 -0.2262  0.8637  0.5414
 8307TIP3   OH224884   1.571   2.525   3.702 -0.5302 -0.1143 -0.0171
 8307TIP3    H124885   1.547   2.471   3.627 -0.7923  1.8306 -1.4215
 8307TIP3    H224886   1.503   2.592   3.706  0.6175  1.0608  0.6275
 8308TIP3   OH224887   1.830   3.062   4.591  0.0396  0.0236  0.0427
 8308TIP3    H124888   1.919   3.088   4.568  0.3430 -0.5776  0.5230
 8308TIP3    H224889   1.775   3.114   4.533  0.7135  0.0591 -0.5794
 8309TIP3   OH224890   0.023   4.471   4.780 -0.9789 -0.0948  0.5458
 8309TIP3    H124891   0.045   4.379   4.769  0.5016  0.5265 -3.2736
 8309TIP3    H224892   0.073   4.500   4.856  0.3066 -1.9373  0.4391
 8310TIP3   OH224893   3.288   3.952   0.148 -0.4713 -0.5084 -0.1652
 8310TIP3    H124894   3.274   3.911   0.062  1.8909  0.7212 -1.2419
 8310TIP3    H224895   3.283   4.046   0.131 -0.4458 -0.2415  1.1755
 8311TIP3   OH224896   5.897   0.837   5.537  0.0400 -0.0645 -0.0819
 8311TIP3    H124897   5.956   0.869   5.605  1.6083 -2.0899 -0.4035
 8311TIP3    H224898   5.900   0.905   5.470 -1.3574  1.8608  1.6786
 8312TIP3   OH224899   1.929   0.819   5.042 -0.1927 -0.3054  0.3289
 8312TIP3    H124900   1.923   0.896   4.986 -2.3795 -0.5677  0.1076
 8312TIP3    H224901   1.984   0.758   4.993  2.1858  1.2874  0.8174
 8313TIP3   OH224902   1.697   4.706   0.330  0.6767  0.2220  0.1965
 8313TIP3    H124903   1.689   4.713   0.425  1.3414  0.3872  0.2456
 8313TIP3    H224904   1.787   4.676   0.316  0.4721 -0.1364 -0.3671
 8314TIP3   OH224905   1.878   6.564   1.571 -0.5326 -0.5858 -0.0005
 8314TIP3    H124906   1.851   6.518   1.491 -2.1056 -0.5233  0.4656
 8314TIP3    H224907   1.816   6.535   1.637 -0.1567  0.4958  0.8546
 8315TIP3   OH224908   3.948   5.959   3.767 -0.1297  0.2393 -0.8209
 8315TIP3    H124909   4.023   5.923   3.719  1.7685  0.0722  2.0121
 8315TIP3    H224910   3.918   5.887   3.822 -0.1628  1.2718  0.5535
 8316TIP3   OH224911   5.528   1.356   1.234 -0.0540  0.8236  0.3883
 8316TIP3    H124912   5.587   1.386   1.165 -1.1895  0.9495 -0.5359
 8316TIP3    H224913   5.587   1.320   1.301  1.0574  0.5268 -0.7112
 8317TIP3   OH224914   3.513   5.004   1.186  0.2297 -0.7004 -0.2701
 8317TIP3    H124915   3.439   5.006   1.247 -0.5805 -1.2600 -1.2148
 8317TIP3    H224916   3.539   5.096   1.178 -0.0421 -0.5529  0.4417
 8318TIP3   OH224917   1.310   4.311   3.336  0.0741 -0.4848 -0.4874
 8318TIP3    H124918   1.259   4.239   3.300 -0.1280 -0.0281 -1.1282
 8318TIP3    H224919   1.358   4.347   3.261  0.9855 -0.6104  0.0135
 8319TIP3   OH224920   4.698   4.469   1.514  0.0061  0.3045  0.7367
 8319TIP3    H124921   4.641   4.398   1.545  0.3780  0.3603  1.5791
 8319TIP3    H224922   4.642   4.524   1.460 -0.4915 -0.1781  0.7574
 8320TIP3   OH224923   6.942   0.734   0.502  0.1110  0.8753  0.3740
 8320TIP3    H124924   6.963   0.701   0.589  2.3491  3.3680  0.9441
 8320TIP3    H224925   7.003   0.688   0.444 -2.4710 -2.0119 -0.3060
 8321TIP3   OH224926   4.400   3.723   3.610  0.1250  0.1195 -0.0338
 8321TIP3    H124927   4.340   3.696   3.541 -0.5352 -0.1995  0.6439
 8321TIP3    H224928   4.487   3.701   3.577 -0.0887  0.9272 -1.1885
 8322TIP3   OH224929   6.583   6.446   0.335 -0.4594 -0.0221  0.0543
 8322TIP3    H124930   6.595   6.512   0.267 -0.9667  0.4239  0.3863
 8322TIP3    H224931   6.582   6.363   0.288 -2.6916  0.3785 -0.7580
 8323TIP3   OH224932   6.480   3.424   1.199  0.7208  0.4649 -0.1360
 8323TIP3    H124933   6.440   3.494   1.147  0.4067  0.8772  0.6389
 8323TIP3    H224934   6.438   3.344   1.168  1.0476  0.6133 -1.0014
 8324TIP3   OH224935   0.579   0.882   1.697 -0.0123 -0.1185  0.1959
 8324TIP3    H124936   0.625   0.952   1.651 -1.2658 -0.0824 -1.0453
 8324TIP3    H224937   0.508   0.926   1.743  0.8426 -0.2398  1.6978
 8325TIP3   OH224938   4.335   1.615   3.192  0.4421  0.2088 -0.1218
 8325TIP3    H124939   4.357   1.663   3.272 -1.2442 -2.1547  1.9173
 8325TIP3    H224940   4.379   1.531   3.202 -0.4829 -0.4387 -1.2789
 8326TIP3   OH224941   1.503   6.072   1.868 -0.0063 -0.6074 -0.3131
 8326TIP3    H124942   1.553   6.073   1.950 -0.1913 -0.1963 -0.2038
 8326TIP3    H224943   1.467   6.160   1.861  1.7134  0.0452 -1.8879
 8327TIP3   OH224944   3.308   4.595   5.046  0.3547  0.2350  0.3487
 8327TIP3    H124945   3.344   4.683   5.041  1.4707 -0.2247 -0.0978
 8327TIP3    H224946   3.296   4.579   5.140 -0.3085  1.0188  0.4100
 8328TIP3   OH224947   6.386   5.252   0.868  0.2301  0.2709  0.2512
 8328TIP3    H124948   6.316   5.190   0.849  0.5738 -0.2820  0.7613
 8328TIP3    H224949   6.462   5.218   0.820  0.2116  0.7640 -0.1450
 8329TIP3   OH224950   1.486   1.769   3.210 -0.4755  0.0029  0.5185
 8329TIP3    H124951   1.456   1.831   3.144 -1.2166  0.8004  1.5705
 8329TIP3    H224952   1.464   1.683   3.174 -0.4523  0.4014 -0.4630
 8330TIP3   OH224953   2.044   6.516   2.628  0.3746 -0.1840 -0.0413
 8330TIP3    H124954   2.105   6.503   2.700  1.1975 -1.1230 -0.8732
 8330TIP3    H224955   1.957   6.504   2.666  0.7192  0.6284  1.0493
 8331TIP3   OH224956   2.272   3.056   5.192 -0.5047 -0.6631 -0.2600
 8331TIP3    H124957   2.242   2.970   5.224  0.6685 -0.4861  1.4284
 8331TIP3    H224958   2.361   3.040   5.162 -0.6750 -0.2484 -0.9947
 8332TIP3   OH224959   1.963   4.747   5.700 -0.0009 -0.5861  0.0870
 8332TIP3    H124960   2.006   4.818   5.747 -2.2696  1.2086 -0.3512
 8332TIP3    H224961   2.018   4.731   5.624  0.7014  0.5603  0.3291
 8333TIP3   OH224962   2.272   0.455   5.503 -0.0670 -0.2409 -0.4188
 8333TIP3    H124963   2.215   0.473   5.578  0.2504 -0.8161 -0.0322
 8333TIP3    H224964   2.276   0.359   5.499  0.2926 -0.2078 -0.8878
 8334TIP3   OH224965   0.877   6.134   2.497  0.6192  0.0196  0.0348
 8334TIP3    H124966   0.932   6.136   2.419  0.0157 -1.0330 -0.4351
 8334TIP3    H224967   0.939   6.132   2.570  1.2278  2.8524 -0.2769
 8335TIP3   OH224968   2.364   3.920   5.796  0.1430 -0.7141 -0.2464
 8335TIP3    H124969   2.395   3.887   5.880  0.0530 -0.3124 -0.0517
 8335TIP3    H224970   2.430   3.983   5.769 -0.5608  0.2544  0.2427
 8336TIP3   OH224971   4.629   5.641   4.120 -0.1468 -0.1289 -0.6337
 8336TIP3    H124972   4.587   5.670   4.201 -1.2786 -2.9366 -0.1090
 8336TIP3    H224973   4.693   5.710   4.100  0.8487  0.2444  3.1291
 8337TIP3   OH224974   0.775   6.019   1.884  0.0768 -0.5579  0.5095
 8337TIP3    H124975   0.757   6.013   1.978  1.1805 -0.9239  0.7183
 8337TIP3    H224976   0.832   5.945   1.867 -0.7008 -0.9141 -0.6138
 8338TIP3   OH224977   2.878   6.747   3.456  0.1171  0.4431 -0.2423
 8338TIP3    H124978   2.818   6.722   3.386 -0.3420 -0.5912  0.5017
 8338TIP3    H224979   2.916   6.830   3.426 -0.1131  0.0647 -1.6796
 8339TIP3   OH224980   1.886   4.640   2.999  0.4953  0.6195 -0.1466
 8339TIP3    H124981   1.941   4.603   2.929 -1.7216  2.6600 -3.2411
 8339TIP3    H224982   1.824   4.570   3.020  0.5994  0.2685 -0.9463
 8340TIP3   OH224983   2.326   0.453   0.923  0.1096 -0.3926 -0.0091
 8340TIP3    H124984   2.267   0.498   0.862 -0.1083 -1.8467 -0.9239
 8340TIP3    H224985   2.268   0.412   0.987  0.3225  0.8570  1.0211
 8341TIP3   OH224986   3.198   1.203   1.637  0.3407  0.1290 -0.0575
 8341TIP3    H124987   3.109   1.167   1.630  0.6640 -0.3729 -2.5972
 8341TIP3    H224988   3.252   1.128   1.663  0.0012  0.6012  2.2786
 8342TIP3   OH224989   0.418   6.432   3.628  0.1292 -0.2050  0.4645
 8342TIP3    H124990   0.326   6.433   3.601  0.1810  0.2150  0.2980
 8342TIP3    H224991   0.467   6.409   3.549  0.1854 -0.1855  0.4931
 8343TIP3   OH224992   6.535   3.485   2.262 -0.0662  0.3093  0.1942
 8343TIP3    H124993   6.597   3.487   2.334  0.0809  1.8445  0.0652
 8343TIP3    H224994   6.454   3.451   2.300 -0.6975  3.2250  1.7260
 8344TIP3   OH224995   3.136   0.880   4.413  0.3413 -0.1588 -0.0247
 8344TIP3    H124996   3.197   0.952   4.399 -0.2520  0.1315 -1.2434
 8344TIP3    H224997   3.192   0.805   4.435  1.1713  0.0678 -1.2640
 8345TIP3   OH224998   1.650   5.741   5.424 -0.5978 -0.3296 -0.5140
 8345TIP3    H124999   1.657   5.751   5.329  1.1044 -0.2319 -0.4176
 8345TIP3    H225000   1.739   5.716   5.451 -1.2743 -1.2630  0.9486
 8346TIP3   OH225001   4.080   0.418   1.237 -0.2551  0.2503 -0.0099
 8346TIP3    H125002   4.157   0.466   1.207 -1.0389  0.7415 -1.2949
 8346TIP3    H225003   4.106   0.326   1.235 -0.1708  0.2910 -1.8938
 8347TIP3   OH225004   3.106   5.094   0.953 -0.4659 -0.2167  0.2147
 8347TIP3    H125005   3.077   5.167   1.007 -1.3138 -0.6595  0.3844
 8347TIP3    H225006   3.201   5.096   0.958 -0.5200  0.1423  1.1939
 8348TIP3   OH225007   3.057   1.656   4.922  0.1520 -0.0502  0.1042
 8348TIP3    H125008   2.987   1.680   4.862  0.4693 -0.2423 -0.3455
 8348TIP3    H225009   3.129   1.715   4.902  0.5134 -0.5842 -0.1994
 8349TIP3   OH225010   5.642   3.276   0.531  0.3621  0.1954 -0.0006
 8349TIP3    H125011   5.551   3.297   0.553  1.2708  2.2061  2.3359
 8349TIP3    H225012   5.649   3.294   0.437 -1.3638  1.1402  0.0204
 8350TIP3   OH225013   2.202   4.751   2.685 -0.0438  0.2293  0.0112
 8350TIP3    H125014   2.255   4.672   2.672  1.8880  1.6208 -1.1475
 8350TIP3    H225015   2.192   4.788   2.598 -3.1756 -0.0155  0.1612
 8351TIP3   OH225016   5.639   1.488   4.624  0.0467 -0.0678  0.7855
 8351TIP3    H125017   5.666   1.501   4.533 -1.3136 -0.1119  0.3580
 8351TIP3    H225018   5.708   1.432   4.661  0.8460  0.3127 -0.0766
 8352TIP3   OH225019   1.146   1.367   3.975 -0.1980 -0.3363 -0.2930
 8352TIP3    H125020   1.206   1.295   3.960  0.4932  0.2648 -0.4526
 8352TIP3    H225021   1.187   1.442   3.932 -1.0811  0.0713 -0.4416
 8353TIP3   OH225022   1.425   3.106   3.253  0.6942  0.1310 -0.3200
 8353TIP3    H125023   1.387   3.112   3.340  1.3440  3.0656 -0.1300
 8353TIP3    H225024   1.350   3.087   3.196 -0.2794  1.2423  0.5476
 8354TIP3   OH225025   6.012   0.975   0.940 -0.2818  0.6033  0.2334
 8354TIP3    H125026   6.069   0.900   0.955  0.3456  0.1823 -3.3624
 8354TIP3    H225027   6.019   1.027   1.020  2.2414 -1.2716  1.3621
 8355TIP3   OH225028   5.074   5.719   5.062 -0.8447 -0.0685 -0.7609
 8355TIP3    H125029   4.996   5.668   5.083 -1.5919  1.0277 -0.7510
 8355TIP3    H225030   5.112   5.677   4.985 -1.2616 -0.8043 -0.5696
 8356TIP3   OH225031   1.783   5.708   1.890 -0.0263  0.0241 -0.3325
 8356TIP3    H125032   1.750   5.642   1.829 -0.1570 -1.1992  1.0013
 8356TIP3    H225033   1.830   5.771   1.835  0.7793 -1.6006 -1.5936
 8357TIP3   OH225034   1.278   2.877   5.029 -0.0985 -0.0006 -0.3249
 8357TIP3    H125035   1.248   2.964   5.004  0.6819 -0.1289 -1.8137
 8357TIP3    H225036   1.364   2.892   5.070  0.1615 -0.0818 -0.8317
 8358TIP3   OH225037   0.790   3.069   0.455  0.5197 -0.6224 -0.5377
 8358TIP3    H125038   0.706   3.068   0.501  0.3484 -1.1369 -0.8508
 8358TIP3    H225039   0.771   3.114   0.372  0.6531 -0.3687 -0.4326
 8359TIP3   OH225040   2.344   6.222   0.820  0.5986 -0.1485  0.1493
 8359TIP3    H125041   2.267   6.275   0.840  0.5777 -0.5670  1.2288
 8359TIP3    H225042   2.349   6.223   0.724  0.9897  2.3385  0.1093
 8360TIP3   OH225043   0.861   5.782   3.365 -0.2166  0.5903  0.3515
 8360TIP3    H125044   0.890   5.691   3.358 -1.3327  0.2670 -0.4604
 8360TIP3    H225045   0.906   5.827   3.294  0.2515  0.6483  0.6842
 8361TIP3   OH225046   3.913   2.755   1.648  0.3255 -0.1249  0.1344
 8361TIP3    H125047   3.896   2.716   1.562  0.2102  0.7717 -0.2613
 8361TIP3    H225048   3.917   2.849   1.631 -1.3301  0.2080  1.3786
 8362TIP3   OH225049   5.322   1.567   1.375 -0.0666  0.1622  0.2258
 8362TIP3    H125050   5.290   1.480   1.397 -0.4306  0.4582  0.9239
 8362TIP3    H225051   5.406   1.553   1.333  0.2159 -0.4884  0.9986
 8363TIP3   OH225052   2.864   6.183   5.116 -0.3495  0.2366  0.0547
 8363TIP3    H125053   2.890   6.204   5.026  0.9623  0.2785  0.4183
 8363TIP3    H225054   2.939   6.212   5.169 -0.5767 -0.9335  1.0324
 8364TIP3   OH225055   6.561   4.781   1.175  0.1017 -0.2699  0.8515
 8364TIP3    H125056   6.555   4.846   1.104 -0.8282 -0.5473  0.6592
 8364TIP3    H225057   6.655   4.773   1.192  0.4168 -0.7633 -0.8802
 8365TIP3   OH225058   2.540   5.500   2.125 -0.7088  0.4585 -0.3124
 8365TIP3    H125059   2.446   5.512   2.136 -0.7844  0.0730 -0.5049
 8365TIP3    H225060   2.577   5.513   2.212 -0.9756  0.3208 -0.1781
 8366TIP3   OH225061   5.597   1.201   2.372  0.2902  0.1073  0.6392
 8366TIP3    H125062   5.647   1.229   2.448 -1.3982  0.0060  1.8535
 8366TIP3    H225063   5.632   1.114   2.350  0.5618 -0.0197  1.5449
 8367TIP3   OH225064   2.705   3.710   2.368 -0.0925 -0.0935  0.4773
 8367TIP3    H125065   2.740   3.639   2.314 -0.0659  1.1264 -1.1800
 8367TIP3    H225066   2.780   3.767   2.385 -0.9410  2.1700 -2.5156
 8368TIP3   OH225067   4.590   1.262   0.057 -0.1322  0.1501  0.6985
 8368TIP3    H125068   4.588   1.308   0.141 -0.3050  0.0296  0.7609
 8368TIP3    H225069   4.682   1.240   0.044 -0.2197 -0.5557  1.2522
 8369TIP3   OH225070   6.100   4.382   2.114  0.0805  0.2592  0.2155
 8369TIP3    H125071   6.087   4.376   2.208  0.1604 -0.8388  0.1709
 8369TIP3    H225072   6.046   4.312   2.078  0.4974  0.2989 -0.5111
 8370TIP3   OH225073   1.085   2.418   3.900 -0.2158 -0.0501 -0.7547
 8370TIP3    H125074   1.051   2.506   3.885  0.5515  0.1592 -1.3463
 8370TIP3    H225075   1.132   2.424   3.983 -0.7802 -0.0925 -0.4290
 8371TIP3   OH225076   3.157   5.464   4.016  0.3713  0.3448  0.5599
 8371TIP3    H125077   3.171   5.386   4.070  1.7945  0.8642  0.9925
 8371TIP3    H225078   3.245   5.490   3.987  0.2542  3.0276  2.2110
 8372TIP3   OH225079   4.836   4.810   4.276 -0.1366 -0.0761 -0.1787
 8372TIP3    H125080   4.758   4.851   4.315 -0.4320 -2.3044  1.8035
 8372TIP3    H225081   4.887   4.781   4.351  0.9607 -1.6089 -1.4626
 8373TIP3   OH225082   0.708   6.735   2.023 -0.0881  0.7002 -0.6056
 8373TIP3    H125083   0.677   6.724   2.113  0.6401  0.5568 -0.3641
 8373TIP3    H225084   0.720   6.645   1.990  0.6167  0.7438 -0.4926
 8374TIP3   OH225085   2.339   0.109   1.293  0.2743  0.3251  0.6334
 8374TIP3    H125086   2.311   0.193   1.328  2.0611  1.1250  0.2339
 8374TIP3    H225087   2.334   0.049   1.368 -0.1659  0.9852  1.1369
 8375TIP3   OH225088   2.690   5.493   2.766 -0.4450  0.5503 -0.1834
 8375TIP3    H125089   2.667   5.577   2.807 -2.4495  0.6076 -1.2998
 8375TIP3    H225090   2.675   5.428   2.835 -0.8552  0.9206  0.0857
 8376TIP3   OH225091   0.869   6.390   1.631 -0.0811  0.4064  0.4403
 8376TIP3    H125092   0.808   6.422   1.565 -0.4853 -0.5954  0.3122
 8376TIP3    H225093   0.953   6.427   1.606 -0.1075 -0.4299 -0.9947
 8377TIP3   OH225094   5.077   3.302   3.853  0.7983 -0.7745  0.3573
 8377TIP3    H125095   5.063   3.236   3.921  0.6520  0.8336  1.9590
 8377TIP3    H225096   5.010   3.368   3.870  1.4838  0.2136 -0.6493
 8378TIP3   OH225097   3.722   4.568   2.842 -0.1176  0.0352  0.4559
 8378TIP3    H125098   3.664   4.538   2.912 -1.0476  1.3031  0.2733
 8378TIP3    H225099   3.789   4.500   2.834 -1.1889 -1.1194  1.1455
 8379TIP3   OH225100   5.739   5.772   0.463  0.5692  0.0230 -0.5465
 8379TIP3    H125101   5.777   5.760   0.549  0.6162 -0.1165 -0.5873
 8379TIP3    H225102   5.747   5.687   0.420 -0.2830 -0.1667 -0.3576
 8380TIP3   OH225103   2.925   2.561   4.553  0.2326 -0.5191 -0.0910
 8380TIP3    H125104   2.915   2.465   4.551 -0.5054 -0.4457 -0.9705
 8380TIP3    H225105   3.014   2.577   4.521 -0.3987 -0.8573 -2.2084
 8381TIP3   OH225106   3.072   1.354   4.106 -0.0867  0.2773 -0.7926
 8381TIP3    H125107   3.006   1.330   4.041 -1.6401 -1.1308  1.1713
 8381TIP3    H225108   3.070   1.450   4.108 -0.1711  0.3392 -2.5962
 8382TIP3   OH225109   1.378   4.231   1.609 -0.3147  0.3457  0.3554
 8382TIP3    H125110   1.284   4.217   1.622 -0.1063  0.9890  3.2027
 8382TIP3    H225111   1.396   4.314   1.654  2.0597 -1.2334  2.5799
 8383TIP3   OH225112   5.485   5.201   2.992  0.0093 -0.0419  0.7452
 8383TIP3    H125113   5.443   5.196   3.078  0.5135  0.9293  1.0581
 8383TIP3    H225114   5.503   5.110   2.969 -0.5039 -0.3415  1.4799
 8384TIP3   OH225115   4.954   4.004   0.515  0.0039  0.2485  0.0683
 8384TIP3    H125116   4.929   4.078   0.571 -3.3243  2.6390 -4.0317
 8384TIP3    H225117   4.890   3.936   0.536 -0.9128  0.9386 -0.4157
 8385TIP3   OH225118   4.372   0.556   3.101  0.1920  0.5337  0.0126
 8385TIP3    H125119   4.430   0.593   3.167  1.3794 -3.7304  1.6997
 8385TIP3    H225120   4.284   0.576   3.133  0.7444  1.3905  1.0663
 8386TIP3   OH225121   0.539   2.485   3.516 -0.0808  0.3536  0.3876
 8386TIP3    H125122   0.471   2.418   3.511  0.0443  0.2345  0.2630
 8386TIP3    H225123   0.593   2.459   3.590  0.7451 -0.4230 -0.4709
 8387TIP3   OH225124   2.847   1.870   2.584 -0.0568 -0.8093  0.8085
 8387TIP3    H125125   2.856   1.778   2.607  0.8820 -0.3020  2.6326
 8387TIP3    H225126   2.861   1.873   2.489  1.4559 -2.3527  0.9446
 8388TIP3   OH225127   6.833   2.633   0.151 -0.3784  0.1078 -0.2454
 8388TIP3    H125128   6.886   2.626   0.071 -1.9975 -1.8574 -1.2225
 8388TIP3    H225129   6.864   2.561   0.206 -2.4016 -1.5529 -1.1397
 8389TIP3   OH225130   5.387   5.106   5.871 -1.0280 -0.2429  0.1956
 8389TIP3    H125131   5.399   5.015   5.844  1.6666  0.7074 -2.3215
 8389TIP3    H225132   5.431   5.112   5.956 -0.3332 -1.1036 -0.0852
 8390TIP3   OH225133   6.817   5.435   3.451 -0.2168  0.5733 -0.2170
 8390TIP3    H125134   6.805   5.340   3.454 -2.4062  0.8137 -0.3291
 8390TIP3    H225135   6.881   5.453   3.520  1.0313 -1.0503 -0.8648
 8391TIP3   OH225136   4.766   3.448   5.271  0.4713  0.0847 -0.2794
 8391TIP3    H125137   4.687   3.480   5.315  0.6967  0.7550 -0.3431
 8391TIP3    H225138   4.837   3.499   5.310  1.1697 -1.9766  1.2942
 8392TIP3   OH225139   3.292   0.654   2.755  0.2763  0.4437  0.2725
 8392TIP3    H125140   3.201   0.634   2.735  1.0504 -1.2131 -2.0268
 8392TIP3    H225141   3.292   0.748   2.776 -1.9726  0.3946  0.7321
 8393TIP3   OH225142   4.106   2.802   2.280  0.2367  0.1584  0.0649
 8393TIP3    H125143   4.028   2.764   2.239  1.8216 -0.0399 -3.0353
 8393TIP3    H225144   4.131   2.737   2.346 -2.2200  0.3125  1.2853
 8394TIP3   OH225145   0.907   5.064   4.536 -0.3573 -0.0263  0.0050
 8394TIP3    H125146   0.887   4.991   4.478 -0.2046  0.6013 -0.8557
 8394TIP3    H225147   0.836   5.127   4.520  0.2874  0.6233 -0.3237
 8395TIP3   OH225148   3.186   3.881   0.384  0.4427 -0.1882 -0.3090
 8395TIP3    H125149   3.209   3.896   0.292 -1.3007  1.0534 -0.5924
 8395TIP3    H225150   3.100   3.921   0.394 -0.4838 -2.3999  1.2948
 8396TIP3   OH225151   4.458   5.735   4.922 -0.2082  0.1113  0.0255
 8396TIP3    H125152   4.454   5.709   5.014  1.5762 -0.0437  0.1103
 8396TIP3    H225153   4.392   5.683   4.878 -1.4711  0.5876  1.2940
 8397TIP3   OH225154   4.652   2.821   2.889  0.1683 -0.0084 -0.5153
 8397TIP3    H125155   4.664   2.858   2.976  1.4038 -0.3382 -0.5300
 8397TIP3    H225156   4.622   2.731   2.905 -0.3459  0.1682 -0.4532
 8398TIP3   OH225157   6.190   1.966   5.457 -0.1808 -0.2207  0.1110
 8398TIP3    H125158   6.228   2.020   5.388  1.7656  1.6279  2.3997
 8398TIP3    H225159   6.220   1.877   5.439 -2.8954 -0.6501 -3.3861
 8399TIP3   OH225160   0.050   1.827   1.914  0.4741 -0.1081 -0.2176
 8399TIP3    H125161   0.037   1.758   1.978  0.4374  0.9069  0.9138
 8399TIP3    H225162   0.144   1.829   1.899  0.5257 -0.0933  0.1062
 8400TIP3   OH225163   6.390   2.324   2.449 -0.5050  0.1844 -0.4524
 8400TIP3    H125164   6.334   2.280   2.513 -0.6482  1.7582  0.5723
 8400TIP3    H225165   6.331   2.384   2.403  0.1035  1.0018 -0.1856
 8401TIP3   OH225166   1.711   5.868   0.863  0.5471 -0.2522 -0.1869
 8401TIP3    H125167   1.692   5.782   0.903  0.7654 -0.8774 -1.3892
 8401TIP3    H225168   1.799   5.889   0.893  0.3483 -0.2612  0.4223
 8402TIP3   OH225169   3.836   2.893   3.172 -0.0084  0.5144  0.2180
 8402TIP3    H125170   3.860   2.836   3.244 -1.9036  0.1838  0.6380
 8402TIP3    H225171   3.833   2.836   3.095 -1.4460  0.1147  0.5526
 8403TIP3   OH225172   3.693   3.058   1.996  0.3745  0.3830 -0.1332
 8403TIP3    H125173   3.678   3.002   2.072  0.1458  0.5444 -0.0579
 8403TIP3    H225174   3.605   3.080   1.965  0.4323  1.9353  0.7424
 8404TIP3   OH225175   3.252   5.288   5.347 -0.3874 -0.2639 -0.5639
 8404TIP3    H125176   3.241   5.341   5.268  0.6046  0.2185 -0.3787
 8404TIP3    H225177   3.257   5.351   5.418 -0.8265 -0.6845 -0.1486
 8405TIP3   OH225178   2.886   0.114   0.849 -0.3211 -0.2755  0.0608
 8405TIP3    H125179   2.795   0.140   0.834 -0.6630 -1.3457  0.2041
 8405TIP3    H225180   2.900   0.041   0.788  0.5476  0.0938 -0.1945
 8406TIP3   OH225181   4.398   3.748   2.458 -0.3244 -0.0787  0.4334
 8406TIP3    H125182   4.437   3.801   2.527 -2.3637  0.6981  1.0850
 8406TIP3    H225183   4.308   3.734   2.487 -1.7940  1.6363 -2.7333
 8407TIP3   OH225184   4.582   2.050   0.541 -0.4088  0.3081 -0.0817
 8407TIP3    H125185   4.673   2.025   0.524 -0.7791 -3.7958  2.4623
 8407TIP3    H225186   4.588   2.112   0.614  0.3609  0.9078 -0.6359
 8408TIP3   OH225187   6.935   4.294   5.458  0.3824  0.7963  0.1294
 8408TIP3    H125188   7.012   4.276   5.513  0.5983 -0.4547 -0.5575
 8408TIP3    H225189   6.971   4.338   5.381  0.3699  0.4287 -0.0831
 8409TIP3   OH225190   0.920   6.650   2.238 -0.4104 -0.1908 -0.5218
 8409TIP3    H125191   0.992   6.711   2.219  0.5743 -1.1632 -0.0681
 8409TIP3    H225192   0.879   6.685   2.317  2.1074 -1.6661  1.6174
 8410TIP3   OH225193   2.287   2.425   2.560  0.4924 -0.3835  0.6528
 8410TIP3    H125194   2.219   2.366   2.591 -0.3557  0.5434  0.6106
 8410TIP3    H225195   2.273   2.431   2.466  2.8251 -2.8954  0.0118
 8411TIP3   OH225196   1.687   1.363   0.562 -0.1182 -0.0925  0.4058
 8411TIP3    H125197   1.672   1.338   0.471 -3.4296 -2.3869  1.3784
 8411TIP3    H225198   1.741   1.292   0.598 -1.7309 -1.0948  0.9641
 8412TIP3   OH225199   7.077   2.907   1.261  0.1368  0.5341  0.3833
 8412TIP3    H125200   7.009   2.866   1.313 -0.4925  0.9978 -0.0541
 8412TIP3    H225201   7.035   2.985   1.224  1.3033  1.6225  1.2428
 8413TIP3   OH225202   2.459   4.045   2.686  0.2170 -0.0346  0.3988
 8413TIP3    H125203   2.513   4.058   2.609 -0.0461  1.2245  0.3990
 8413TIP3    H225204   2.521   4.046   2.759  0.7484 -3.3035  0.1564
 8414TIP3   OH225205   6.106   5.338   2.020 -0.0149 -0.7336  0.3401
 8414TIP3    H125206   6.090   5.256   2.066 -0.2878 -0.5006  0.6661
 8414TIP3    H225207   6.156   5.391   2.082  1.6431 -1.2549 -0.4692
 8415TIP3   OH225208   2.029   6.609   0.502 -0.1302  0.0314  0.3318
 8415TIP3    H125209   1.978   6.653   0.569 -1.5088 -0.5672 -0.2837
 8415TIP3    H225210   2.061   6.680   0.446 -0.3467  0.4146  0.6859
 8416TIP3   OH225211   1.677   4.037   2.209 -0.0347  0.0902  0.1729
 8416TIP3    H125212   1.601   4.029   2.266 -0.9455  2.5869 -0.5785
 8416TIP3    H225213   1.741   4.086   2.261  0.6633 -1.0145  0.3931
 8417TIP3   OH225214   1.247   5.351   4.549  0.0011  0.4377  0.2919
 8417TIP3    H125215   1.232   5.256   4.548  0.1721  0.4102  0.0030
 8417TIP3    H225216   1.324   5.362   4.605 -1.3015  0.6207  2.1333
 8418TIP3   OH225217   1.634   1.039   3.418 -0.1734 -0.0286 -0.6752
 8418TIP3    H125218   1.670   0.954   3.444 -0.3900 -0.0666 -0.4877
 8418TIP3    H225219   1.673   1.057   3.333 -0.9144 -0.8134 -1.2081
 8419TIP3   OH225220   0.809   5.827   5.633 -0.3521 -0.4975  0.1124
 8419TIP3    H125221   0.902   5.807   5.621 -0.1456 -0.1006  0.9400
 8419TIP3    H225222   0.782   5.772   5.706 -0.5727 -0.0653  0.3636
 8420TIP3   OH225223   7.184   1.145   0.809 -0.0775 -0.2665 -0.3221
 8420TIP3    H125224   7.233   1.222   0.781 -2.4065  0.8368 -1.5675
 8420TIP3    H225225   7.147   1.169   0.894  0.9665 -0.9033  0.3545
 8421TIP3   OH225226   5.614   3.962   0.896 -0.0607 -0.0814  0.4985
 8421TIP3    H125227   5.657   3.992   0.976 -0.5891 -0.1259  0.7985
 8421TIP3    H225228   5.542   3.907   0.926 -1.0097  0.8673  0.0248
 8422TIP3   OH225229   7.167   0.390   4.951  0.4811 -0.2361 -0.9662
 8422TIP3    H125230   7.073   0.374   4.958  0.3029  0.4723 -1.5942
 8422TIP3    H225231   7.184   0.395   4.857  1.0544  0.1544 -0.8500
 8423TIP3   OH225232   1.338   6.788   0.910  0.0503  0.1680  0.0813
 8423TIP3    H125233   1.285   6.868   0.918 -0.8250 -0.4795  1.0064
 8423TIP3    H225234   1.325   6.742   0.993  2.3756  0.1353  0.4885
 8424TIP3   OH225235   0.342   3.521   0.172 -0.3546 -0.4378  0.2217
 8424TIP3    H125236   0.374   3.454   0.112 -1.3297 -0.4249 -0.3296
 8424TIP3    H225237   0.256   3.546   0.137  0.8278  2.6223 -0.8815
 8425TIP3   OH225238   3.428   5.588   4.750 -0.0305 -0.4623 -0.2496
 8425TIP3    H125239   3.364   5.531   4.708 -1.3429  0.5848  0.2517
 8425TIP3    H225240   3.443   5.548   4.836 -1.9109  0.5468  0.6111
 8426TIP3   OH225241   3.722   6.258   4.831  0.0399 -0.2758 -0.5335
 8426TIP3    H125242   3.727   6.354   4.823 -0.9607 -0.2272 -0.7043
 8426TIP3    H225243   3.642   6.243   4.881  1.1159 -0.9662  1.0659
 8427TIP3   OH225244   1.189   3.111   4.952  0.0532 -0.1028  0.4815
 8427TIP3    H125245   1.164   3.152   4.869  0.9819 -1.3167 -0.4369
 8427TIP3    H225246   1.244   3.176   4.996 -1.4002  1.0147  0.7088
 8428TIP3   OH225247   5.997   4.443   0.354 -0.2682  0.5294 -0.0087
 8428TIP3    H125248   6.065   4.476   0.412  0.8601 -1.2811 -0.2085
 8428TIP3    H225249   6.001   4.499   0.276  0.6254  0.7757  0.2158
 8429TIP3   OH225250   6.722   2.865   0.250 -0.0091  0.1002 -0.5037
 8429TIP3    H125251   6.632   2.858   0.218 -0.3096 -0.8281  0.5109
 8429TIP3    H225252   6.769   2.795   0.206 -0.2125 -0.5899  0.3627
 8430TIP3   OH225253   6.198   6.682   5.160  0.0795  0.3059 -0.3006
 8430TIP3    H125254   6.209   6.775   5.180  0.7219  0.3765 -0.9264
 8430TIP3    H225255   6.113   6.676   5.117  0.0805  0.6256 -0.3491
 8431TIP3   OH225256   4.527   4.837   3.597 -0.2744 -0.2298 -0.2214
 8431TIP3    H125257   4.510   4.851   3.690  0.1246 -1.1410 -0.0053
 8431TIP3    H225258   4.601   4.895   3.577  2.5049 -3.0372  1.0726
 8432TIP3   OH225259   5.025   2.723   2.997 -0.0233  0.4346  0.0181
 8432TIP3    H125260   4.984   2.778   3.064 -0.0589 -0.3676  0.6740
 8432TIP3    H225261   4.962   2.723   2.925  0.7238  2.6065 -0.7080
 8433TIP3   OH225262   6.613   1.598   0.121 -0.2197  0.6913 -0.3330
 8433TIP3    H125263   6.583   1.519   0.077  1.5219  0.3930 -1.0440
 8433TIP3    H225264   6.688   1.570   0.173 -1.4503  1.2909  1.9207
 8434TIP3   OH225265   4.587   3.163   5.298 -0.2186  0.1906 -0.5054
 8434TIP3    H125266   4.580   3.068   5.304  0.2135  0.1445 -0.6838
 8434TIP3    H225267   4.570   3.183   5.206  0.3773  0.2175 -0.6133
 8435TIP3   OH225268   0.132   0.958   2.003  0.8312 -0.0394 -0.6313
 8435TIP3    H125269   0.177   1.042   2.004  0.3756  0.2027  0.9468
 8435TIP3    H225270   0.202   0.893   2.010  1.2579  0.1235 -2.7051
 8436TIP3   OH225271   2.936   2.574   5.201 -0.1623  0.4298 -0.1473
 8436TIP3    H125272   2.970   2.608   5.118 -0.7428  1.0093 -0.1566
 8436TIP3    H225273   2.897   2.490   5.178 -0.9498  0.9126 -0.5958
 8437TIP3   OH225274   2.785   3.619   5.062  0.5426 -0.1792  0.7781
 8437TIP3    H125275   2.874   3.623   5.097 -0.0058 -0.4721  2.3092
 8437TIP3    H225276   2.743   3.699   5.094 -0.2853 -0.9660  1.7471
 8438TIP3   OH225277   5.436   3.296   4.023  0.2249  0.2161  0.0396
 8438TIP3    H125278   5.462   3.388   4.014  0.7242  0.0926  0.1481
 8438TIP3    H225279   5.341   3.298   4.031  0.3686  0.8807  2.0724
 8439TIP3   OH225280   2.925   0.349   3.491 -0.0129  0.3683  0.2738
 8439TIP3    H125281   2.835   0.381   3.498 -0.2957 -0.6504  1.5431
 8439TIP3    H225282   2.921   0.282   3.422  0.0754  1.2681 -0.6315
 8440TIP3   OH225283   2.613   1.791   4.311  0.0311 -0.0260 -0.2408
 8440TIP3    H125284   2.596   1.698   4.295  2.5708 -0.8492  1.2461
 8440TIP3    H225285   2.682   1.813   4.248  1.9511 -0.2095  1.6623
 8441TIP3   OH225286   4.190   0.606   2.186 -0.1381 -0.2972  0.0045
 8441TIP3    H125287   4.245   0.545   2.236 -0.3596 -0.6032 -0.1272
 8441TIP3    H225288   4.113   0.555   2.162 -1.8150  0.8367  2.5148
 8442TIP3   OH225289   3.175   5.570   0.317  0.0163 -0.0844 -0.0729
 8442TIP3    H125290   3.208   5.522   0.242  1.2142  0.1874  0.2635
 8442TIP3    H225291   3.247   5.569   0.380 -0.9861 -0.3965  1.1270
 8443TIP3   OH225292   2.098   6.161   2.103 -0.1712  0.4278  0.3084
 8443TIP3    H125293   2.031   6.149   2.035 -0.3881  1.3005  0.3494
 8443TIP3    H225294   2.056   6.217   2.168  0.4628  0.6534  0.5333
 8444TIP3   OH225295   5.187   2.197   0.811 -0.3923 -0.4719 -0.6735
 8444TIP3    H125296   5.216   2.282   0.842 -1.4046 -0.7401  1.1973
 8444TIP3    H225297   5.115   2.216   0.751 -0.4617  0.0114 -0.4392
 8445TIP3   OH225298   1.486   4.855   2.009 -0.1489 -0.7600  0.6091
 8445TIP3    H125299   1.417   4.855   2.076  0.1948 -2.4268  1.0096
 8445TIP3    H225300   1.448   4.806   1.936 -0.0693 -0.0288  0.0783
 8446TIP3   OH225301   6.560   4.896   4.569  0.2831  0.8054  0.3744
 8446TIP3    H125302   6.564   4.991   4.578  0.0876  1.0863 -1.8339
 8446TIP3    H225303   6.626   4.863   4.629  0.6650  2.3550  0.8487
 8447TIP3   OH225304   7.090   5.322   2.981 -0.6282  0.0909  0.1992
 8447TIP3    H125305   7.177   5.284   2.977 -0.0324  1.2885  0.9193
 8447TIP3    H225306   7.062   5.330   2.890 -1.1466 -2.7576  0.0332
 8448TIP3   OH225307   3.489   1.641   3.555  0.0786  0.0708 -0.3294
 8448TIP3    H125308   3.546   1.575   3.596 -1.1744 -1.9287 -1.6356
 8448TIP3    H225309   3.469   1.606   3.468  0.0830  2.6610 -1.4668
 8449TIP3   OH225310   1.560   2.569   0.047  0.0270  0.3753  0.4117
 8449TIP3    H125311   1.593   2.489   0.007 -0.9969  0.2461 -0.2315
 8449TIP3    H225312   1.569   2.636  -0.022 -1.6460  0.1765 -0.0629
 8450TIP3   OH225313   4.227   5.103   1.294  0.4920  0.2343  0.3824
 8450TIP3    H125314   4.287   5.075   1.363  0.7315  0.3957  0.2406
 8450TIP3    H225315   4.255   5.192   1.272  1.0174 -0.1459 -0.5741
 8451TIP3   OH225316   5.334   2.712   0.253  0.0346 -0.0364 -0.2844
 8451TIP3    H125317   5.427   2.724   0.276  0.3421  1.1327 -1.9522
 8451TIP3    H225318   5.287   2.743   0.330  1.0099 -0.7293  0.6333
 8452TIP3   OH225319   1.630   3.951   5.373  0.2128 -0.1017  0.2184
 8452TIP3    H125320   1.611   3.870   5.420  0.5681 -0.7801 -0.7773
 8452TIP3    H225321   1.698   3.993   5.425 -0.6840  0.0749  1.2913
 8453TIP3   OH225322   2.065   4.955   0.550  0.9042 -0.1620  0.6221
 8453TIP3    H125323   2.136   4.928   0.492  0.3426  0.3904 -0.3432
 8453TIP3    H225324   1.991   4.970   0.492  0.1884 -0.0586  1.5401
 8454TIP3   OH225325   6.918   4.639   3.854  0.1884 -0.0732 -0.3223
 8454TIP3    H125326   6.902   4.605   3.942  1.1119  0.3557  0.0204
 8454TIP3    H225327   7.009   4.616   3.835  1.2113  2.9695  0.3218
 8455TIP3   OH225328   1.896   0.015   3.093 -0.0181  0.0650 -0.0204
 8455TIP3    H125329   1.886   0.110   3.086 -0.1352 -0.0220 -1.3815
 8455TIP3    H225330   1.806  -0.018   3.096  0.0149  0.0772  2.3225
 8456TIP3   OH225331   0.535   1.656   5.403 -0.2575  0.4089 -0.5902
 8456TIP3    H125332   0.606   1.713   5.373 -1.2094  2.0501  0.0744
 8456TIP3    H225333   0.541   1.659   5.499 -0.7811 -0.0134 -0.5372
 8457TIP3   OH225334   5.040   4.981   0.172 -0.7246  0.1537  1.1668
 8457TIP3    H125335   5.091   4.922   0.116 -2.4930  0.4934 -0.9366
 8457TIP3    H225336   4.948   4.963   0.149 -1.3672  3.1342  1.0117
 8458TIP3   OH225337   4.259   5.246   1.764  0.7558  0.3262 -0.4892
 8458TIP3    H125338   4.260   5.241   1.859  1.0772 -0.5576 -0.5204
 8458TIP3    H225339   4.251   5.339   1.744  0.7540  0.5245  0.3968
 8459TIP3   OH225340   5.466   4.040   1.773  0.2421 -0.1014  0.4565
 8459TIP3    H125341   5.409   4.086   1.835 -1.6312 -1.4638 -0.1337
 8459TIP3    H225342   5.441   4.074   1.687  0.9035 -0.1565  0.2374
 8460TIP3   OH225343   0.569   5.412   3.081 -0.1714 -0.1830 -0.0297
 8460TIP3    H125344   0.474   5.416   3.069  0.0431 -0.9442 -2.3922
 8460TIP3    H225345   0.581   5.362   3.162 -1.7592  0.2499  0.5142
 8461TIP3   OH225346   1.316   3.148   1.258  0.4339  0.1515  0.2005
 8461TIP3    H125347   1.273   3.226   1.224 -0.5675 -0.1992  0.6329
 8461TIP3    H225348   1.348   3.174   1.344 -1.1649 -0.2977  0.9687
 8462TIP3   OH225349   1.794   5.012   5.694  0.3080 -0.4199 -0.0006
 8462TIP3    H125350   1.742   4.932   5.688 -1.8301  0.9340 -1.0492
 8462TIP3    H225351   1.809   5.024   5.788 -0.2892 -1.4927  0.2451
 8463TIP3   OH225352   6.083   1.118   0.701 -0.0913 -0.1024  0.1560
 8463TIP3    H125353   6.077   1.047   0.637 -1.0479  0.6952 -0.6821
 8463TIP3    H225354   6.063   1.075   0.785 -2.2355 -0.5959 -0.5240
 8464TIP3   OH225355   1.205   3.378   4.384 -1.0195  0.5838 -0.2942
 8464TIP3    H125356   1.118   3.368   4.421 -1.1287  0.4937 -0.5762
 8464TIP3    H225357   1.247   3.293   4.397 -0.7186  0.8395  0.4905
 8465TIP3   OH225358   2.070   5.444   4.011  0.3650 -0.1026 -0.0620
 8465TIP3    H125359   2.130   5.395   4.068 -1.9355 -1.7522  1.1191
 8465TIP3    H225360   2.075   5.398   3.927  0.5534 -0.4030  0.1089
 8466TIP3   OH225361   2.087   2.215   2.612 -0.5735  0.5890  0.2410
 8466TIP3    H125362   2.001   2.216   2.655 -0.3763 -1.3076  0.7969
 8466TIP3    H225363   2.068   2.193   2.520 -0.7425  0.9497  0.1912
 8467TIP3   OH225364   3.870   2.360   1.456  0.4156 -0.1846 -0.7910
 8467TIP3    H125365   3.837   2.448   1.475  1.4249  0.1684 -0.5993
 8467TIP3    H225366   3.873   2.356   1.361 -3.2116 -1.4101 -1.0112
 8468TIP3   OH225367   1.807   0.066   4.318  0.2276 -0.4615 -0.0286
 8468TIP3    H125368   1.850   0.152   4.322  1.3069 -1.0034  0.5309
 8468TIP3    H225369   1.731   0.080   4.262 -1.0355  1.4727  1.9703
 8469TIP3   OH225370   1.421   3.482   5.251  0.4557 -0.1805 -0.1335
 8469TIP3    H125371   1.350   3.431   5.290  0.0584 -0.3796 -1.1020
 8469TIP3    H225372   1.489   3.482   5.318  0.3252 -1.6799  0.0440
 8470TIP3   OH225373   4.360   1.062   3.725  0.1013  0.2625  0.2197
 8470TIP3    H125374   4.308   1.125   3.776 -1.4761 -1.2016  0.5412
 8470TIP3    H225375   4.386   0.996   3.789 -0.3794 -0.6802 -0.5320
 8471TIP3   OH225376   2.856   3.058   3.076  0.1976  0.0927 -0.2030
 8471TIP3    H125377   2.876   3.150   3.094  1.7008  0.2048 -2.0898
 8471TIP3    H225378   2.942   3.014   3.077 -0.6024 -1.6724  2.2484
 8472TIP3   OH225379   7.089   0.031   5.368  0.1443 -0.1848  0.2911
 8472TIP3    H125380   7.020   0.029   5.435 -0.4740  1.7807 -0.2146
 8472TIP3    H225381   7.107   0.124   5.356  2.2857 -0.6324 -0.2450
 8473TIP3   OH225382   4.464   2.065   0.244  0.2516  0.0927 -0.0847
 8473TIP3    H125383   4.400   2.131   0.272  0.1587 -0.1914  0.3930
 8473TIP3    H225384   4.502   2.033   0.326  1.7074  0.9370 -0.3976
 8474TIP3   OH225385   3.130   1.583   1.396  0.0600  0.3738  0.2790
 8474TIP3    H125386   3.159   1.624   1.314  0.9975  0.3832  0.6025
 8474TIP3    H225387   3.203   1.597   1.457 -0.8012  0.7807  1.2612
 8475TIP3   OH225388   2.999   2.122   2.677  0.1190  0.2763 -1.1920
 8475TIP3    H125389   3.020   2.042   2.725 -0.1789  0.3283 -0.9765
 8475TIP3    H225390   3.043   2.111   2.593 -1.7686 -1.1259 -2.0588
 8476TIP3   OH225391   1.834   2.774   3.256 -0.2934 -0.0228  0.1669
 8476TIP3    H125392   1.865   2.743   3.171 -1.0335 -0.0847 -0.0901
 8476TIP3    H225393   1.778   2.849   3.235 -1.6534 -0.9094  0.4678
 8477TIP3   OH225394   0.351   1.851   5.293  0.0994 -0.0083 -0.6522
 8477TIP3    H125395   0.409   1.782   5.326  0.6994  0.4008 -0.8440
 8477TIP3    H225396   0.271   1.842   5.346  0.7394  0.1095  0.3578
 8478TIP3   OH225397   1.092   6.546   0.967  0.5287 -0.8742 -0.1432
 8478TIP3    H125398   1.143   6.599   1.029 -2.2639 -1.0000  2.4811
 8478TIP3    H225399   1.113   6.456   0.991  0.4264 -0.9296 -0.2665
 8479TIP3   OH225400   3.658   1.098   0.419  0.1119  0.3795 -1.1182
 8479TIP3    H125401   3.631   1.094   0.511 -0.1363 -1.2111 -1.2316
 8479TIP3    H225402   3.582   1.065   0.370 -0.6473  3.3564 -2.1368
 8480TIP3   OH225403   3.380   5.404   0.702 -0.0522  0.0111  0.1946
 8480TIP3    H125404   3.437   5.344   0.653 -0.8793 -2.5190  2.0854
 8480TIP3    H225405   3.437   5.441   0.770  0.2184  0.5750 -0.3313
 8481TIP3   OH225406   1.430   5.042   5.674 -0.4225  0.6600  0.2248
 8481TIP3    H125407   1.343   5.044   5.715  0.1718  1.9417  1.5021
 8481TIP3    H225408   1.467   4.958   5.702 -0.2922  1.2106  1.8073
 8482TIP3   OH225409   0.520   5.068   3.848 -0.2240  0.0080 -0.0358
 8482TIP3    H125410   0.466   5.092   3.922 -0.4676 -1.8679  0.4584
 8482TIP3    H225411   0.472   5.099   3.771 -0.7078  0.6416  0.5139
 8483TIP3   OH225412   1.082   1.096   2.374  0.1212  0.1908 -0.3087
 8483TIP3    H125413   0.989   1.092   2.395 -0.2003  0.8489 -1.4967
 8483TIP3    H225414   1.124   1.125   2.454 -0.5007 -1.4760  0.6874
 8484TIP3   OH225415   2.050   4.220   0.054 -0.3027  0.0869 -0.2867
 8484TIP3    H125416   2.024   4.181   0.138 -2.5094 -0.5978 -1.2111
 8484TIP3    H225417   2.037   4.150  -0.010  2.0262  0.3695 -1.1646
 8485TIP3   OH225418   4.473   3.081   3.233 -0.7518 -0.1564 -0.5605
 8485TIP3    H125419   4.432   2.995   3.233  0.0373 -0.5616  0.6654
 8485TIP3    H225420   4.500   3.095   3.324  0.4709  0.7219 -1.0267
 8486TIP3   OH225421   5.527   6.566   4.872  0.0478  0.5665 -0.0832
 8486TIP3    H125422   5.466   6.499   4.903  0.4701 -0.6537 -1.7574
 8486TIP3    H225423   5.587   6.579   4.946 -1.3818  0.8130  1.0952
 8487TIP3   OH225424   3.774   1.119   5.076  0.0772  0.6517  0.2250
 8487TIP3    H125425   3.815   1.055   5.135 -1.3990  0.4387  1.0730
 8487TIP3    H225426   3.799   1.090   4.989  0.7567 -0.1494  0.6710
 8488TIP3   OH225427   4.737   4.762   2.983  0.0707 -0.0173  0.4485
 8488TIP3    H125428   4.822   4.722   3.003 -0.7344 -2.2743 -0.2768
 8488TIP3    H225429   4.713   4.809   3.062  1.3548 -0.5428  1.1824
 8489TIP3   OH225430   2.749   5.114   2.193  0.1817  0.0395  0.0079
 8489TIP3    H125431   2.744   5.019   2.181 -1.0419 -0.2650  2.4756
 8489TIP3    H225432   2.783   5.126   2.281 -0.4503  1.8943  0.0434
 8490TIP3   OH225433   3.411   5.692   3.653  0.2093  0.0603 -0.2208
 8490TIP3    H125434   3.468   5.673   3.578 -0.0695 -0.5914 -0.2802
 8490TIP3    H225435   3.328   5.651   3.630 -0.5433  1.6852 -0.4941
 8491TIP3   OH225436   4.358   6.312   1.730  0.7554 -0.2319  0.0370
 8491TIP3    H125437   4.379   6.269   1.813 -1.0933 -4.0483 -1.2524
 8491TIP3    H225438   4.436   6.363   1.709  2.6677 -1.9477  2.3880
 8492TIP3   OH225439   0.681   6.167   1.623 -0.6486  0.3555  0.2131
 8492TIP3    H125440   0.696   6.117   1.542 -2.1168 -0.2229  0.2761
 8492TIP3    H225441   0.760   6.220   1.633  0.2375 -0.7281 -0.7572
 8493TIP3   OH225442   5.824   1.278   4.758  0.0641 -0.1626  0.3685
 8493TIP3    H125443   5.906   1.324   4.736  0.2391 -0.8614 -0.4905
 8493TIP3    H225444   5.848   1.186   4.759 -0.4009 -0.2806  1.5787
 8494TIP3   OH225445   0.282   5.546   4.973 -0.0461 -0.3426 -0.8026
 8494TIP3    H125446   0.334   5.529   5.052 -0.6067  1.5072  0.0373
 8494TIP3    H225447   0.191   5.539   5.004 -0.2729  0.0837 -1.3737
 8495TIP3   OH225448   2.211   3.773   2.286 -0.2184  0.9508  0.4430
 8495TIP3    H125449   2.233   3.709   2.218 -1.6347 -0.0569  0.8896
 8495TIP3    H225450   2.295   3.798   2.324  0.3106 -1.8054  1.2724
 8496TIP3   OH225451   6.088   0.765   2.616  0.2380 -0.0743  0.4793
 8496TIP3    H125452   6.099   0.846   2.567  1.1566 -0.2660  0.3504
 8496TIP3    H225453   6.157   0.708   2.583 -0.3069 -0.8629  0.6716
 8497TIP3   OH225454   6.808   2.469   5.471 -0.3428  0.1861  0.1541
 8497TIP3    H125455   6.861   2.452   5.549  1.5788  1.2682 -0.8385
 8497TIP3    H225456   6.858   2.429   5.399 -0.4543  1.8453 -0.9178
 8498TIP3   OH225457   3.449   1.156   2.088  0.1612  0.0376  0.1718
 8498TIP3    H125458   3.413   1.124   2.170  0.9117  2.0411  1.3334
 8498TIP3    H225459   3.524   1.099   2.071 -0.6975 -1.1415  0.2124
 8499TIP3   OH225460   0.652   4.282   0.392  0.1364 -0.1202  0.4906
 8499TIP3    H125461   0.577   4.275   0.451 -0.1748 -0.4025  0.0639
 8499TIP3    H225462   0.695   4.363   0.419 -1.3287  1.0089 -0.3942
 8500TIP3   OH225463   5.102   2.107   4.317 -0.0210 -0.3220  0.0864
 8500TIP3    H125464   5.184   2.127   4.362  0.9055 -0.8272 -1.3075
 8500TIP3    H225465   5.052   2.054   4.379  0.2804  0.7786  1.3127
 8501TIP3   OH225466   1.261   0.292   0.249 -0.6055  0.0515  0.3818
 8501TIP3    H125467   1.351   0.265   0.268  0.2798  1.8439 -0.9452
 8501TIP3    H225468   1.227   0.323   0.333 -0.0833 -0.8606  0.9468
 8502TIP3   OH225469   3.824   0.217   2.461  0.4510 -0.0024  0.2601
 8502TIP3    H125470   3.763   0.219   2.388  0.9630  0.0249 -0.1761
 8502TIP3    H225471   3.891   0.154   2.435  1.0943  0.6386  0.3244
 8503TIP3   OH225472   3.288   1.859   4.102  0.5863  0.5033 -0.0526
 8503TIP3    H125473   3.279   1.785   4.041  0.3857 -1.4072  2.1538
 8503TIP3    H225474   3.199   1.875   4.134  1.1435 -1.3375  2.7478
 8504TIP3   OH225475   1.478   1.849   0.649  0.1329 -0.1250 -0.0496
 8504TIP3    H125476   1.503   1.933   0.611 -0.3252 -0.4451 -1.1087
 8504TIP3    H225477   1.401   1.869   0.702 -1.4888 -0.2222 -2.2378
 8505TIP3   OH225478   5.223   3.779   2.911  0.1805 -0.3693 -0.9281
 8505TIP3    H125479   5.180   3.719   2.850 -1.6071 -0.0952  0.0013
 8505TIP3    H225480   5.151   3.825   2.954  1.4521  0.7550  0.0761
 8506TIP3   OH225481   2.243   0.709   2.338  0.1544  0.8123  0.1793
 8506TIP3    H125482   2.298   0.738   2.412 -1.0736  0.5821  1.2152
 8506TIP3    H225483   2.157   0.746   2.357 -0.6394 -0.8118 -0.1683
 8507TIP3   OH225484   1.769   4.556   1.066  0.2765  0.0096 -0.4603
 8507TIP3    H125485   1.854   4.591   1.038  1.0686 -1.5466 -0.1225
 8507TIP3    H225486   1.715   4.558   0.987  1.1705 -0.5303 -1.0985
 8508TIP3   OH225487   0.982   3.651   5.239 -0.1304  0.2486  0.2513
 8508TIP3    H125488   0.937   3.582   5.288 -1.0729 -0.1690 -1.1486
 8508TIP3    H225489   1.026   3.604   5.168  2.6378  0.6351  1.5825
 8509TIP3   OH225490   6.846   0.002   5.523 -0.2384  0.0182  0.3489
 8509TIP3    H125491   6.816   0.091   5.544  0.1456  1.0149 -2.8250
 8509TIP3    H225492   6.775  -0.036   5.471 -0.5045 -1.6960  1.8732
 8510TIP3   OH225493   1.307   0.084   1.452  0.2480  0.1472 -0.4654
 8510TIP3    H125494   1.370   0.065   1.382 -1.3000 -1.4722 -1.4958
 8510TIP3    H225495   1.308   0.007   1.508  0.2450  0.7326  0.3636
 8511TIP3   OH225496   0.854   5.663   4.139  0.0962 -0.3977 -0.2510
 8511TIP3    H125497   0.878   5.728   4.206  0.4293 -0.7887  0.0130
 8511TIP3    H225498   0.934   5.612   4.126 -0.0586 -0.5208 -0.7278
 8512TIP3   OH225499   4.348   3.692   0.670  0.4575  0.3205 -0.1336
 8512TIP3    H125500   4.415   3.707   0.737  0.5657  1.0534 -0.3991
 8512TIP3    H225501   4.396   3.692   0.587  0.2199  0.1479 -0.2743
 8513TIP3   OH225502   0.996   1.830   4.297  0.5170  0.5722  0.3262
 8513TIP3    H125503   1.047   1.811   4.218  0.5812 -1.9991  0.8984
 8513TIP3    H225504   1.057   1.876   4.354  0.7868  1.5168 -0.6758
 8514TIP3   OH225505   1.441   3.891   3.197 -0.0271 -0.8181  0.2150
 8514TIP3    H125506   1.467   3.975   3.158  0.3590 -1.2368 -0.4377
 8514TIP3    H225507   1.484   3.891   3.283 -1.1385  0.2482  0.8059
 8515TIP3   OH225508   3.627   3.898   0.737  0.3464  0.3253  0.4935
 8515TIP3    H125509   3.689   3.947   0.684  0.6055  0.4133  0.8783
 8515TIP3    H225510   3.581   3.964   0.789  0.8093  0.1520  1.1334
 8516TIP3   OH225511   2.155   6.564   1.588  0.1540  0.3534  0.1752
 8516TIP3    H125512   2.061   6.555   1.570  0.1895  0.5137 -0.0840
 8516TIP3    H225513   2.186   6.475   1.599 -0.1863  0.3233  1.0512
 8517TIP3   OH225514   7.185   1.203   0.456 -0.3539 -0.5884  0.2533
 8517TIP3    H125515   7.198   1.193   0.362 -0.4591 -2.1623  0.3816
 8517TIP3    H225516   7.153   1.118   0.485 -1.2423  0.1574  1.5686
 8518TIP3   OH225517   6.398   1.172   3.814 -0.4748 -0.5957  0.0981
 8518TIP3    H125518   6.446   1.253   3.794  1.5477 -1.2424  1.9325
 8518TIP3    H225519   6.399   1.123   3.732  1.1260 -0.1033 -0.2103
 8519TIP3   OH225520   1.562   6.707   3.177 -0.0850 -0.0431  0.6954
 8519TIP3    H125521   1.636   6.687   3.119  0.4745  1.0123  1.0099
 8519TIP3    H225522   1.496   6.641   3.156 -0.4633  1.0960 -2.1063
 8520TIP3   OH225523   1.655   2.302   5.117  0.9233  0.7075 -0.5275
 8520TIP3    H125524   1.749   2.314   5.125  1.0725  0.0608 -1.2120
 8520TIP3    H225525   1.630   2.255   5.197  0.6148  3.7078  1.2901
 8521TIP3   OH225526   6.625   4.190   3.059  0.0068  0.6236  0.0485
 8521TIP3    H125527   6.612   4.163   3.150 -0.0555  1.2882  0.2467
 8521TIP3    H225528   6.719   4.186   3.045  0.0260  0.6362  0.1788
 8522TIP3   OH225529   0.347   0.540   3.236  0.3011  0.5634  0.3319
 8522TIP3    H125530   0.406   0.597   3.285 -0.0533 -1.1384  2.9186
 8522TIP3    H225531   0.267   0.538   3.288  0.2448 -2.1123  0.2654
 8523TIP3   OH225532   3.336   5.725   4.506 -0.0179  0.0189 -0.3589
 8523TIP3    H125533   3.265   5.728   4.443  0.2488 -3.4619 -0.9747
 8523TIP3    H225534   3.395   5.797   4.480 -2.6223  2.2781 -0.4847
 8524TIP3   OH225535   4.894   3.988   2.630 -0.0597 -0.1614 -0.5143
 8524TIP3    H125536   4.959   3.995   2.561  1.0051 -0.9091  0.3614
 8524TIP3    H225537   4.810   4.001   2.587  0.6851  1.1508 -1.6185
 8525TIP3   OH225538   1.838   0.193   5.730  0.2638 -0.4077 -0.1949
 8525TIP3    H125539   1.794   0.257   5.786  0.9315 -0.7875  0.7957
 8525TIP3    H225540   1.926   0.230   5.717  0.0540 -0.2355 -1.1500
 8526TIP3   OH225541   5.790   3.126   2.349  0.2215 -0.3816  0.4237
 8526TIP3    H125542   5.809   3.041   2.389  0.6912 -0.8652 -0.7684
 8526TIP3    H225543   5.721   3.108   2.286 -0.5635  0.3787  1.0446
 8527TIP3   OH225544   5.432   6.462   3.144 -0.1595  0.1683 -0.6920
 8527TIP3    H125545   5.499   6.454   3.076 -1.1439  0.0796 -1.6895
 8527TIP3    H225546   5.440   6.552   3.176  0.2513  0.2453 -1.0080
 8528TIP3   OH225547   4.880   6.050   5.640 -0.6147 -0.4637 -0.4678
 8528TIP3    H125548   4.921   5.965   5.620  1.7018  0.6557 -0.7609
 8528TIP3    H225549   4.816   6.062   5.569  2.0867 -0.0685 -3.0289
 8529TIP3   OH225550   2.233   4.502   4.905 -0.1996 -0.4683  0.1078
 8529TIP3    H125551   2.152   4.540   4.939 -0.8126 -1.5419 -0.1057
 8529TIP3    H225552   2.302   4.556   4.944 -0.9916  0.2645  0.5585
 8530TIP3   OH225553   3.984   1.544   2.813 -0.4353 -0.1080 -0.1995
 8530TIP3    H125554   3.951   1.523   2.900 -2.3945  0.3290 -0.7812
 8530TIP3    H225555   4.029   1.464   2.784  0.1142 -0.3048  1.1228
 8531TIP3   OH225556   3.368   1.760   1.406 -0.8506  0.0453 -0.0236
 8531TIP3    H125557   3.383   1.803   1.490 -0.6653 -0.9601  0.4700
 8531TIP3    H225558   3.402   1.821   1.341  0.8353 -0.0147  0.7638
 8532TIP3   OH225559   1.868   1.486   4.257 -0.0931  0.2678 -0.4888
 8532TIP3    H125560   1.797   1.466   4.318  0.6075  0.2560  0.3312
 8532TIP3    H225561   1.931   1.536   4.308  0.3773  0.4976 -1.2768
 8533TIP3   OH225562   1.041   3.209   5.791 -0.2292  0.0717  0.1613
 8533TIP3    H125563   1.103   3.208   5.864 -0.1090  0.9247  0.0858
 8533TIP3    H225564   0.963   3.165   5.825  0.2401 -0.5724  0.4164
 8534TIP3   OH225565   0.133   6.033   0.012 -0.0674 -0.8891 -0.4092
 8534TIP3    H125566   0.098   6.013   0.099 -0.1636 -0.9854 -0.4700
 8534TIP3    H225567   0.110   5.957  -0.042 -1.9871  0.0959 -1.0917
 8535TIP3   OH225568   3.811   3.090   1.182  0.0636 -0.9506 -0.5163
 8535TIP3    H125569   3.757   3.059   1.254 -0.0845 -0.0997 -0.2522
 8535TIP3    H225570   3.891   3.123   1.224 -0.8921  1.5281 -0.4914
 8536TIP3   OH225571   6.025   1.522   4.927  0.4491  0.0753  1.0392
 8536TIP3    H125572   5.956   1.469   4.969  0.0851 -1.4890 -1.3591
 8536TIP3    H225573   5.978   1.595   4.888  0.4770  0.2353  1.2982
 8537TIP3   OH225574   0.062   2.694   1.793 -0.1340  0.2749  0.1641
 8537TIP3    H125575   0.011   2.759   1.842  1.7160  1.0972  1.0949
 8537TIP3    H225576   0.125   2.746   1.744  1.6482 -0.8123  1.2262
 8538TIP3   OH225577   4.065   1.760   1.605  0.6538 -0.5801  0.0395
 8538TIP3    H125578   4.072   1.751   1.700  1.2749 -1.7222 -0.0891
 8538TIP3    H225579   4.038   1.851   1.591  0.3470 -0.4552  1.3076
 8539TIP3   OH225580   3.713   5.083   2.405  0.0124  0.3178 -0.2569
 8539TIP3    H125581   3.738   5.061   2.495  0.0947  1.9321  0.1630
 8539TIP3    H225582   3.735   5.006   2.354 -0.5995 -0.8673  1.1950
 8540TIP3   OH225583   2.787   0.979   1.313  0.0304 -0.2556  0.6199
 8540TIP3    H125584   2.753   1.047   1.255 -0.7469 -1.1728 -0.0464
 8540TIP3    H225585   2.719   0.911   1.311  1.0833 -1.3408  0.7267
 8541TIP3   OH225586   3.526   5.850   3.222 -0.1677 -0.5061  0.0045
 8541TIP3    H125587   3.598   5.902   3.185 -0.2863  0.2688  0.8250
 8541TIP3    H225588   3.499   5.793   3.151  1.3284 -0.8881 -0.2981
 8542TIP3   OH225589   6.353   5.584   5.904  0.5083 -0.4226  0.0846
 8542TIP3    H125590   6.379   5.574   5.812  1.1280  0.7672  0.1012
 8542TIP3    H225591   6.430   5.622   5.946 -0.5043  1.1472  0.6142
 8543TIP3   OH225592   5.735   6.322   1.271  0.6987 -0.1420 -0.0414
 8543TIP3    H125593   5.667   6.385   1.248  0.0564 -0.2553  1.4134
 8543TIP3    H225594   5.729   6.254   1.205 -1.4057 -0.7230  0.6858
 8544TIP3   OH225595   3.142   5.029   2.693  0.5486 -0.0027  0.0672
 8544TIP3    H125596   3.227   5.042   2.652  0.9979 -1.1636  0.5567
 8544TIP3    H225597   3.088   5.102   2.663  1.4697  0.2963 -0.9126
 8545TIP3   OH225598   5.427   3.186   0.155  0.0690  0.1186  0.0304
 8545TIP3    H125599   5.507   3.232   0.179  0.1261  0.4477 -0.7835
 8545TIP3    H225600   5.357   3.243   0.186  0.1152 -0.5373  1.4660
 8546TIP3   OH225601   3.985   4.480   2.566  0.0284 -0.0074 -0.5874
 8546TIP3    H125602   3.914   4.527   2.522 -0.3103  0.5290  0.5105
 8546TIP3    H225603   4.039   4.447   2.494 -1.2925 -0.3846 -1.4536
 8547TIP3   OH225604   2.677   1.031   1.009  0.0604  0.0453 -0.6538
 8547TIP3    H125605   2.586   1.057   0.995  0.2800  2.1962  1.2504
 8547TIP3    H225606   2.673   0.938   1.030 -1.7762  0.2343 -0.0143
 8548TIP3   OH225607   3.755   5.966   1.473  0.8943  0.0488 -0.1922
 8548TIP3    H125608   3.702   5.927   1.542  0.8630  0.0340 -0.2246
 8548TIP3    H225609   3.844   5.935   1.490  1.0866  0.9251  0.4941
 8549TIP3   OH225610   0.887   0.062   3.906 -0.2499  0.3555  0.5365
 8549TIP3    H125611   0.902   0.086   3.998  0.5951  0.2539  0.4264
 8549TIP3    H225612   0.823  -0.009   3.910  1.9313 -1.6538  1.2337
 8550TIP3   OH225613   6.013   2.101   1.728 -0.2359 -0.4360 -0.1725
 8550TIP3    H125614   6.014   2.191   1.694 -1.4781 -0.4899 -0.4174
 8550TIP3    H225615   6.059   2.050   1.662  0.2553 -0.0237 -0.1555
 8551TIP3   OH225616   3.728   2.748   0.585  0.6326  0.0337 -0.0052
 8551TIP3    H125617   3.746   2.778   0.496  0.5143 -0.3790 -0.1701
 8551TIP3    H225618   3.795   2.791   0.638  1.7299 -0.9657 -0.5239
 8552TIP3   OH225619   5.606   2.076   3.603 -0.0138  0.2003  0.4819
 8552TIP3    H125620   5.586   2.079   3.510  2.7686 -0.8265 -0.2752
 8552TIP3    H225621   5.603   2.167   3.632  0.2130  0.6741 -0.9123
 8553TIP3   OH225622   5.422   5.670   5.729 -0.4554  0.0350  0.1243
 8553TIP3    H125623   5.388   5.650   5.642 -0.6281  0.5620  0.0664
 8553TIP3    H225624   5.344   5.674   5.785 -0.4784  0.9609  0.0487
 8554TIP3   OH225625   5.586   1.491   2.236 -0.0856  0.0323  0.0813
 8554TIP3    H125626   5.526   1.473   2.164  0.8392  0.4236 -0.8155
 8554TIP3    H225627   5.635   1.410   2.248 -1.1297 -0.4717  1.1854
 8555TIP3   OH225628   0.319   0.770   5.336 -0.4894 -0.4441 -0.3355
 8555TIP3    H125629   0.392   0.744   5.280  1.6457  0.0404  2.0424
 8555TIP3    H225630   0.348   0.851   5.378 -1.4155 -1.3911  2.3557
 8556TIP3   OH225631   4.225   3.345   1.581  0.4295 -0.1542 -0.5559
 8556TIP3    H125632   4.278   3.312   1.508  1.1573 -0.5400  0.1360
 8556TIP3    H225633   4.260   3.300   1.658 -2.7077 -2.6449 -0.3707
 8557TIP3   OH225634   2.189   4.926   4.979 -0.4146  0.4539 -0.5565
 8557TIP3    H125635   2.252   4.857   5.000  0.4756  1.3639 -0.2110
 8557TIP3    H225636   2.238   5.007   4.985 -1.6843  1.2105 -0.0247
 8558TIP3   OH225637   3.456   0.231   4.652  0.1200  0.1150  0.3160
 8558TIP3    H125638   3.517   0.285   4.603  0.4048  0.2810  0.8479
 8558TIP3    H225639   3.465   0.260   4.743 -0.2897 -0.2894  0.4921
 8559TIP3   OH225640   0.421   3.244   1.139  0.4091  1.2620  0.0859
 8559TIP3    H125641   0.400   3.275   1.051 -1.9903 -1.1049 -0.2801
 8559TIP3    H225642   0.451   3.154   1.127 -2.7283 -0.1620  1.7897
 8560TIP3   OH225643   0.713   6.238   4.420  0.2898  0.2055 -0.1985
 8560TIP3    H125644   0.722   6.197   4.506  0.1013  0.5368 -0.0178
 8560TIP3    H225645   0.618   6.248   4.407  0.3234  0.3435 -0.3519
 8561TIP3   OH225646   6.684   5.306   2.947  0.5248  0.2049  0.3144
 8561TIP3    H125647   6.598   5.297   2.905  0.8003 -1.2229  0.0015
 8561TIP3    H225648   6.744   5.326   2.876  0.5971  0.2860  0.3980
 8562TIP3   OH225649   4.114   0.563   1.732  0.5102 -0.0210 -0.0390
 8562TIP3    H125650   4.045   0.610   1.779  1.4710  1.0759  0.3141
 8562TIP3    H225651   4.122   0.610   1.649  1.0419  0.0483  0.0496
 8563TIP3   OH225652   5.623   3.126   5.022  0.1863 -0.3579 -0.8045
 8563TIP3    H125653   5.667   3.062   5.077  0.5327 -1.3606 -2.1963
 8563TIP3    H225654   5.679   3.204   5.028  0.9000 -0.8604 -0.7190
 8564TIP3   OH225655   5.686   4.009   4.346  0.8153 -0.1709 -0.4349
 8564TIP3    H125656   5.621   4.058   4.396  0.1546 -0.3336 -1.1153
 8564TIP3    H225657   5.692   4.056   4.263  3.0381  1.0165  0.3152
 8565TIP3   OH225658   1.026   5.542   2.980 -0.0198 -0.2654  0.1895
 8565TIP3    H125659   0.954   5.605   2.980 -1.3503 -1.7199  0.5954
 8565TIP3    H225660   1.017   5.495   2.896  1.1948  0.3155 -0.2899
 8566TIP3   OH225661   5.607   2.490   5.339 -0.2538  0.6296 -0.0188
 8566TIP3    H125662   5.696   2.495   5.306 -0.3430 -0.9162 -0.5759
 8566TIP3    H225663   5.607   2.543   5.418  1.8739 -1.4276  1.4961
 8567TIP3   OH225664   1.952   5.374   0.396  0.3220  0.6871  0.2050
 8567TIP3    H125665   1.998   5.355   0.478  1.7353  0.4140 -0.6170
 8567TIP3    H225666   1.999   5.324   0.330  1.7820  3.9032 -1.4459
 8568TIP3   OH225667   0.279   1.529   0.542  0.1743 -0.0954  0.1383
 8568TIP3    H125668   0.324   1.588   0.482 -0.7124  1.4681  0.9420
 8568TIP3    H225669   0.189   1.525   0.508 -0.2838  0.6478  1.2012
 8569TIP3   OH225670   4.958   2.337   4.281  0.0676 -0.7900 -0.8127
 8569TIP3    H125671   4.874   2.303   4.311  0.4356 -0.4411  0.7042
 8569TIP3    H225672   5.019   2.263   4.293  0.4076 -0.3514  0.2594
 8570TIP3   OH225673   6.850   1.110   0.053  0.4706 -0.2410 -0.6720
 8570TIP3    H125674   6.935   1.124   0.012  0.1283  0.4839 -1.1502
 8570TIP3    H225675   6.865   1.133   0.145  0.3512  1.8121 -1.1032
 8571TIP3   OH225676   3.885   2.984   3.637  0.1498  0.0233  0.7591
 8571TIP3    H125677   3.887   3.055   3.701  0.0336 -0.3644  1.1935
 8571TIP3    H225678   3.840   3.022   3.561 -2.0677 -0.2679  1.8381
 8572TIP3   OH225679   4.293   2.056   0.631  0.0812  0.4278  0.1026
 8572TIP3    H125680   4.309   1.984   0.693 -0.1854 -0.4357 -0.8042
 8572TIP3    H225681   4.381   2.085   0.607  0.2949 -1.3175 -1.4504
 8573TIP3   OH225682   4.187   0.018   4.025  0.3188 -0.0400  0.0441
 8573TIP3    H125683   4.235  -0.059   3.994 -0.0329  0.0248 -0.7033
 8573TIP3    H225684   4.243   0.092   4.002  0.2720 -0.0201 -0.0060
 8574TIP3   OH225685   4.668   4.330   5.734 -0.1448  0.0192  0.0294
 8574TIP3    H125686   4.638   4.271   5.803 -0.9111  0.0227 -0.2964
 8574TIP3    H225687   4.630   4.295   5.654 -0.6169  0.9615 -0.1699
 8575TIP3   OH225688   6.812   0.838   1.439  0.5828 -0.3890 -0.2382
 8575TIP3    H125689   6.805   0.898   1.513  0.4089 -0.7346  0.0264
 8575TIP3    H225690   6.859   0.888   1.372  1.8456 -0.4908  0.5419
 8576TIP3   OH225691   1.978   1.011   2.786  0.7890 -0.3581  0.0224
 8576TIP3    H125692   1.902   0.957   2.765  0.4428  0.2773 -0.4182
 8576TIP3    H225693   1.978   1.016   2.881  0.0461 -0.0617  0.0176
 8577TIP3   OH225694   0.071   1.503   2.566  0.1601  0.1287 -0.5247
 8577TIP3    H125695   0.051   1.409   2.563  1.5103 -0.1677 -0.9426
 8577TIP3    H225696   0.156   1.508   2.610  0.2393  1.1355 -0.7689
 8578TIP3   OH225697   0.243   0.515   4.982  0.0651 -0.4441 -0.1549
 8578TIP3    H125698   0.195   0.498   4.900  0.2790 -0.8080 -0.2073
 8578TIP3    H225699   0.181   0.563   5.036 -0.6210 -1.5335  0.0540
 8579TIP3   OH225700   5.338   4.186   1.953  0.3128  0.0506  0.2399
 8579TIP3    H125701   5.289   4.140   2.021 -1.1428  0.2647 -0.6223
 8579TIP3    H225702   5.274   4.243   1.911  1.4682  0.8733 -0.4820
 8580TIP3   OH225703   2.641   2.959   2.425  0.3184  0.1658 -0.1655
 8580TIP3    H125704   2.654   3.029   2.489 -0.4957  0.5031 -0.3531
 8580TIP3    H225705   2.711   2.896   2.443 -0.3298 -0.1115  1.5520
 8581TIP3   OH225706   4.433   4.754   2.111 -0.1733 -0.2389 -0.6047
 8581TIP3    H125707   4.477   4.701   2.045 -0.0899 -1.3213  0.2921
 8581TIP3    H225708   4.477   4.732   2.193 -1.0241  0.2208 -0.0101
 8582TIP3   OH225709   0.971   5.556   0.306 -0.1321  1.1607  0.0739
 8582TIP3    H125710   0.892   5.516   0.268 -0.3013  0.8179  0.7683
 8582TIP3    H225711   0.995   5.497   0.378  0.8746  1.1607 -0.2464
 8583TIP3   OH225712   2.878   5.561   0.853  0.2571 -0.1310  0.0655
 8583TIP3    H125713   2.949   5.540   0.791  1.2751  1.3783  0.6760
 8583TIP3    H225714   2.798   5.549   0.802  1.0865  2.8373 -2.2272
 8584TIP3   OH225715   4.611   2.476   0.216  0.6421 -0.0691  0.0203
 8584TIP3    H125716   4.644   2.553   0.170  1.1738 -0.7693 -0.8105
 8584TIP3    H225717   4.519   2.497   0.236  0.9671  1.0296  0.4137
 8585TIP3   OH225718   4.798   3.836   1.243  0.1778 -0.3525 -0.5672
 8585TIP3    H125719   4.822   3.861   1.332 -1.0575  0.1485 -0.3464
 8585TIP3    H225720   4.869   3.779   1.214  1.2931  0.5799  0.2234
 8586TIP3   OH225721   0.706   4.732   4.790 -0.2230 -0.0809  0.1052
 8586TIP3    H125722   0.642   4.802   4.782 -0.4346 -0.3721 -0.7701
 8586TIP3    H225723   0.740   4.719   4.702  1.6088  0.5794  0.6554
 8587TIP3   OH225724   3.671   1.574   4.836  0.0143 -0.8683  0.0054
 8587TIP3    H125725   3.757   1.540   4.860 -0.1443 -1.7067 -0.5762
 8587TIP3    H225726   3.684   1.619   4.752 -0.1117 -0.9956 -0.0840
 8588TIP3   OH225727   1.277   1.077   2.586  0.0808  0.9969  0.3011
 8588TIP3    H125728   1.330   1.069   2.666 -0.8776  0.0871  0.8595
 8588TIP3    H225729   1.273   1.171   2.570  2.7889  1.0903 -0.4045
 8589TIP3   OH225730   3.029   4.083   2.713 -0.0578 -0.0588  0.2477
 8589TIP3    H125731   3.049   3.990   2.720  1.8851  0.3651  1.0665
 8589TIP3    H225732   2.983   4.105   2.794 -0.4141 -0.2788  0.1048
 8590TIP3   OH225733   0.690   4.480   0.770  0.1898  0.0499  0.1088
 8590TIP3    H125734   0.726   4.394   0.792  1.3066  0.6572  0.7318
 8590TIP3    H225735   0.761   4.541   0.789 -0.0730  0.9803 -1.7254
 8591TIP3   OH225736   0.400   5.136   1.860 -0.0215 -0.0519  0.0461
 8591TIP3    H125737   0.445   5.169   1.781  1.4108 -0.1649  0.7817
 8591TIP3    H225738   0.459   5.070   1.895  0.4644  1.5278  2.4469
 8592TIP3   OH225739   1.085   1.223   3.463  0.2208 -0.5294 -0.1367
 8592TIP3    H125740   1.157   1.173   3.502  1.0918  0.7027 -0.1228
 8592TIP3    H225741   1.020   1.229   3.533 -0.0869 -1.9649 -0.2627
 8593TIP3   OH225742   6.406   1.528   3.578  0.2242  0.2069 -0.0320
 8593TIP3    H125743   6.345   1.585   3.530  0.1023 -1.1504 -1.5882
 8593TIP3    H225744   6.480   1.517   3.518  1.1145  0.2587  1.0408
 8594TIP3   OH225745   6.011   4.738   4.405 -0.5037 -0.2746  0.1016
 8594TIP3    H125746   5.969   4.702   4.483  0.3221 -2.1004 -0.2423
 8594TIP3    H225747   5.960   4.704   4.332  0.6812 -1.3248 -0.2626
 8595TIP3   OH225748   4.608   4.439   4.159 -0.0620  0.6442 -0.0370
 8595TIP3    H125749   4.516   4.422   4.175 -0.4111  1.0424 -1.4351
 8595TIP3    H225750   4.645   4.459   4.245 -1.2353  0.3065  0.5561
 8596TIP3   OH225751   5.541   0.174   4.184  0.3892  0.2429  0.4119
 8596TIP3    H125752   5.490   0.244   4.225 -0.9120 -0.4571  0.0301
 8596TIP3    H225753   5.497   0.158   4.100 -0.2406 -1.9989  1.0965
 8597TIP3   OH225754   4.021   5.310   5.438 -0.1594 -0.6806  0.2260
 8597TIP3    H125755   4.049   5.371   5.370 -0.8403 -1.5275 -0.8473
 8597TIP3    H225756   4.100   5.292   5.488  0.4682 -0.4345 -0.6556
 8598TIP3   OH225757   3.413   3.065   1.946  0.0596  0.1128  0.6342
 8598TIP3    H125758   3.379   3.141   1.899 -2.4358 -1.0232  0.4385
 8598TIP3    H225759   3.369   3.069   2.032 -0.2087 -1.1472  0.5672
 8599TIP3   OH225760   5.199   5.287   2.042 -0.4196  0.2680  0.4113
 8599TIP3    H125761   5.189   5.332   1.959  0.8668 -0.5123 -0.1923
 8599TIP3    H225762   5.251   5.347   2.096 -0.1973  0.2445  0.2221
 8600TIP3   OH225763   5.079   6.512   4.289 -0.2975  0.2413  0.6117
 8600TIP3    H125764   5.136   6.586   4.311  0.8399 -0.7879  1.3223
 8600TIP3    H225765   5.139   6.438   4.284 -1.2196 -0.4398 -1.3126
 8601TIP3   OH225766   3.213   1.865   5.459  0.0691 -0.1539  0.4081
 8601TIP3    H125767   3.216   1.887   5.552  1.1086 -1.0976  0.6194
 8601TIP3    H225768   3.290   1.909   5.422 -0.5050  0.4667 -0.0822
 8602TIP3   OH225769   6.214   4.511   5.291  0.2058  0.5144 -0.2592
 8602TIP3    H125770   6.152   4.540   5.224  0.9272  0.9483 -0.7493
 8602TIP3    H225771   6.265   4.441   5.249  0.7676  0.8953 -0.2268
 8603TIP3   OH225772   6.177   6.498   5.729 -0.1257  0.3014  0.0363
 8603TIP3    H125773   6.257   6.520   5.682 -0.9624  0.9267 -1.1236
 8603TIP3    H225774   6.189   6.407   5.755  0.6909  0.1902 -0.6934
 8604TIP3   OH225775   3.246   6.278   5.844 -0.1115 -0.3360  0.0435
 8604TIP3    H125776   3.215   6.339   5.911  0.6086 -0.3439  0.3923
 8604TIP3    H225777   3.313   6.326   5.796 -0.9100 -0.1889 -0.9524
 8605TIP3   OH225778   3.371   6.338   0.842 -0.3896 -0.1483  0.2776
 8605TIP3    H125779   3.310   6.269   0.871  1.0848 -0.4513  2.9967
 8605TIP3    H225780   3.457   6.296   0.845  0.4620  1.5523  1.2944
 8606TIP3   OH225781   6.634   6.025   3.285  0.0978  0.4676 -0.1330
 8606TIP3    H125782   6.545   5.989   3.284  0.3573 -0.2594  1.1255
 8606TIP3    H225783   6.689   5.950   3.263  0.5013  0.5658  0.5346
 8607TIP3   OH225784   3.085   2.708   3.504 -0.0428 -0.0377 -0.2323
 8607TIP3    H125785   3.169   2.746   3.530  0.1692 -1.3491  1.1076
 8607TIP3    H225786   3.022   2.742   3.567 -0.3852  0.3250 -0.7605
 8608TIP3   OH225787   6.728   3.828   3.528  0.3082 -0.4140 -0.8457
 8608TIP3    H125788   6.724   3.922   3.509  1.8510  0.1417  1.1179
 8608TIP3    H225789   6.815   3.802   3.498  0.0645 -1.1045 -0.9502
 8609TIP3   OH225790   4.217   4.501   4.829 -0.3438 -0.0800 -0.0103
 8609TIP3    H125791   4.303   4.474   4.861  0.0156 -0.0922 -0.9652
 8609TIP3    H225792   4.227   4.593   4.808 -0.4007 -0.2230 -0.6716
 8610TIP3   OH225793   4.058   6.571   2.252 -0.1963  0.1075 -0.3929
 8610TIP3    H125794   4.030   6.491   2.296  2.1552 -0.6151 -0.0736
 8610TIP3    H225795   4.095   6.541   2.169  0.0054  0.9432 -0.6102
 8611TIP3   OH225796   3.116   6.471   2.328 -0.5544 -0.3657  0.2019
 8611TIP3    H125797   3.155   6.443   2.411  1.4776  1.0678 -0.1919
 8611TIP3    H225798   3.061   6.545   2.351  0.6471  0.5596  0.2392
 8612TIP3   OH225799   1.310   1.108   0.801 -0.4782  0.4054  0.6278
 8612TIP3    H125800   1.328   1.151   0.717 -1.2988 -1.3664 -0.5197
 8612TIP3    H225801   1.375   1.037   0.806 -0.3092  0.6157  1.5931
 8613TIP3   OH225802   6.205   4.181   5.550 -0.2529  0.4000  0.3833
 8613TIP3    H125803   6.149   4.134   5.488  1.5549  0.3408 -1.2834
 8613TIP3    H225804   6.162   4.266   5.561 -2.2956 -0.7171  1.5993
 8614TIP3   OH225805   3.904   2.487   0.236 -0.3498 -0.5426  0.2401
 8614TIP3    H125806   3.983   2.508   0.185  0.3181 -0.1112  1.4014
 8614TIP3    H225807   3.844   2.559   0.218 -0.2223 -0.5394 -0.1635
 8615TIP3   OH225808   5.855   0.391   4.364 -0.3147  0.1317  0.1851
 8615TIP3    H125809   5.899   0.476   4.364 -0.0277 -0.0039 -1.1803
 8615TIP3    H225810   5.822   0.380   4.275 -1.0488 -0.8438  0.5505
 8616TIP3   OH225811   3.400   1.474   3.018 -0.0422  0.1636  0.0748
 8616TIP3    H125812   3.477   1.425   3.045 -0.1169 -0.6342 -1.0841
 8616TIP3    H225813   3.427   1.519   2.938 -1.0604 -0.9876 -0.9611
 8617TIP3   OH225814   2.594   0.900   1.810 -0.0207 -0.2039 -0.4088
 8617TIP3    H125815   2.590   0.973   1.749  0.5171  1.0692  1.0250
 8617TIP3    H225816   2.519   0.912   1.868 -0.3508 -1.2274 -0.5917
 8618TIP3   OH225817   4.771   5.930   3.000 -0.2789  0.1830  0.0118
 8618TIP3    H125818   4.828   5.998   2.962 -1.5241  2.5760  2.0943
 8618TIP3    H225819   4.825   5.889   3.067  0.6050 -1.2402 -1.5053
 8619TIP3   OH225820   4.855   4.352   4.781 -0.4006 -0.0840 -0.1088
 8619TIP3    H125821   4.837   4.278   4.839  1.7655 -0.2076  0.4706
 8619TIP3    H225822   4.789   4.344   4.711 -1.7151 -1.1524  1.1792
 8620TIP3   OH225823   1.272   0.779   3.512  0.9369 -0.0729 -0.4971
 8620TIP3    H125824   1.302   0.856   3.561 -0.2667 -0.3429  0.6982
 8620TIP3    H225825   1.268   0.809   3.421  3.9212  0.2314 -0.6349
 8621TIP3   OH225826   3.852   2.019   2.718 -0.5948 -0.5887 -0.0902
 8621TIP3    H125827   3.888   1.965   2.648  0.3776  0.7246 -0.6415
 8621TIP3    H225828   3.857   2.109   2.685  0.2725  0.1232  1.8048
 8622TIP3   OH225829   4.672   2.101   4.916 -0.5905  0.2800  0.4583
 8622TIP3    H125830   4.756   2.130   4.880 -0.0702 -0.2221  1.2489
 8622TIP3    H225831   4.628   2.182   4.941  0.1973  0.4945  1.2089
 8623TIP3   OH225832   6.600   5.151   2.639 -0.5270 -0.1726  0.1040
 8623TIP3    H125833   6.550   5.217   2.590 -0.9197  1.5329  2.6104
 8623TIP3    H225834   6.689   5.186   2.643 -0.5454 -0.1754  0.7248
 8624TIP3   OH225835   6.346   4.489   2.245 -0.1382  0.2773 -0.3266
 8624TIP3    H125836   6.305   4.477   2.159 -1.7580  1.3660  0.2525
 8624TIP3    H225837   6.440   4.492   2.227 -0.3509 -1.1141 -1.8545
 8625TIP3   OH225838   0.633   1.415   0.043  0.6403 -0.1970  0.4416
 8625TIP3    H125839   0.650   1.455   0.129  0.4835  1.0648 -0.0962
 8625TIP3    H225840   0.547   1.373   0.054 -0.7211  2.3015  0.1626
 8626TIP3   OH225841   1.308   6.771   3.492  0.0587  0.2866 -0.1274
 8626TIP3    H125842   1.401   6.775   3.513  0.1669 -1.1268 -0.2331
 8626TIP3    H225843   1.286   6.678   3.498 -1.3822  0.6118  0.0320
 8627TIP3   OH225844   2.597   2.128   1.496  0.0140 -0.0157 -0.0908
 8627TIP3    H125845   2.673   2.077   1.523 -0.4080 -1.1461 -0.9334
 8627TIP3    H225846   2.524   2.066   1.500 -0.4855  0.4488 -1.3094
 8628TIP3   OH225847   4.290   4.098   4.593  0.2658  0.6901 -0.0796
 8628TIP3    H125848   4.340   4.180   4.584 -0.5397  1.1367 -0.5932
 8628TIP3    H225849   4.257   4.080   4.505 -1.9906  1.4079  0.5420
 8629TIP3   OH225850   3.891   1.575   3.075 -0.5784 -0.3042 -0.2007
 8629TIP3    H125851   3.842   1.495   3.093 -2.8283  1.0085 -0.1433
 8629TIP3    H225852   3.955   1.580   3.146 -0.9452 -1.6051  0.2561
 8630TIP3   OH225853   6.903   4.836   3.157 -0.0908  0.0099 -0.0051
 8630TIP3    H125854   6.909   4.930   3.141 -1.4200  0.4818  1.9610
 8630TIP3    H225855   6.990   4.812   3.188  0.3482  0.5039 -0.8028
 8631TIP3   OH225856   4.768   3.225   1.013 -0.3246  0.4730  0.0570
 8631TIP3    H125857   4.809   3.144   0.983 -0.6705  1.1923 -2.5725
 8631TIP3    H225858   4.818   3.295   0.970 -1.0211  1.6013  1.0182
 8632TIP3   OH225859   4.198   3.647   4.372 -0.5058  0.1085 -0.0040
 8632TIP3    H125860   4.223   3.555   4.380 -1.1806 -0.2953 -2.0318
 8632TIP3    H225861   4.108   3.650   4.403 -0.9562 -0.2061 -1.2421
 8633TIP3   OH225862   3.029   2.114   2.037 -0.1662  0.0127  0.0033
 8633TIP3    H125863   2.999   2.064   1.962 -1.3186 -0.1160  0.5343
 8633TIP3    H225864   3.070   2.192   1.999 -2.4444  0.9149 -0.7657
 8634TIP3   OH225865   0.817   5.756   3.834  0.4382  0.1675 -0.1422
 8634TIP3    H125866   0.907   5.736   3.807  0.4427 -0.2137  0.1401
 8634TIP3    H225867   0.801   5.696   3.907 -0.3774 -0.4215 -0.7900
 8635TIP3   OH225868   0.119   0.476   4.728  0.4531  0.1221 -0.3142
 8635TIP3    H125869   0.086   0.537   4.662 -1.3317 -0.7810 -0.3046
 8635TIP3    H225870   0.174   0.415   4.680  0.7880  0.6613 -0.6228
 8636TIP3   OH225871   1.050   3.804   1.329  0.0405  0.2414  0.3460
 8636TIP3    H125872   0.983   3.777   1.392 -0.8298  1.0616 -0.2048
 8636TIP3    H225873   1.070   3.894   1.353 -0.6608  0.7293 -0.8256
 8637TIP3   OH225874   0.976   2.161   0.948  0.2129  0.3623  0.2839
 8637TIP3    H125875   0.991   2.250   0.916 -1.0749  0.1286 -1.0600
 8637TIP3    H225876   1.015   2.105   0.881 -0.5676 -0.1088  0.2135
 8638TIP3   OH225877   0.767   3.383   3.850  0.1208  0.2695  0.5884
 8638TIP3    H125878   0.781   3.297   3.891  0.4897 -1.1237 -2.1979
 8638TIP3    H225879   0.744   3.362   3.759 -0.0297  3.1451 -0.1140
 8639TIP3   OH225880   6.791   2.269   1.533  0.3145 -0.1191  0.6257
 8639TIP3    H125881   6.717   2.214   1.559  0.3742 -0.8024 -0.5841
 8639TIP3    H225882   6.867   2.211   1.538  0.5704  0.2096  0.5859
 8640TIP3   OH225883   0.508   3.932   0.545  0.4455 -0.2531  0.6855
 8640TIP3    H125884   0.599   3.959   0.549  0.6465 -0.9216  0.7227
 8640TIP3    H225885   0.510   3.838   0.563 -0.1805 -0.4048 -0.0145
 8641TIP3   OH225886   4.948   2.016   0.172 -0.2502 -0.4613  0.0617
 8641TIP3    H125887   4.956   1.949   0.104 -1.7915 -2.2581  1.5208
 8641TIP3    H225888   4.891   2.083   0.134 -0.0560 -0.8106 -0.8559
 8642TIP3   OH225889   2.514   5.928   1.595  0.0006  0.1987 -0.1622
 8642TIP3    H125890   2.577   5.885   1.652  0.4363 -0.6987 -1.2802
 8642TIP3    H225891   2.429   5.896   1.624  0.1127  0.6874  0.7432
 8643TIP3   OH225892   2.078   4.354   2.997  0.3231  0.1207 -0.2915
 8643TIP3    H125893   2.077   4.404   2.915  0.5005  1.7538  0.6773
 8643TIP3    H225894   2.121   4.272   2.973 -2.1987 -0.7054 -2.5172
 8644TIP3   OH225895   2.389   5.235   0.456 -0.2540 -0.1116  0.4705
 8644TIP3    H125896   2.439   5.317   0.457 -0.1894 -0.1065 -0.9276
 8644TIP3    H225897   2.454   5.167   0.471 -0.0519 -0.0012  0.1121
 8645TIP3   OH225898   0.177   5.626   0.333  0.2959 -0.0461 -0.3418
 8645TIP3    H125899   0.188   5.720   0.348  1.8322 -0.1769 -0.5066
 8645TIP3    H225900   0.266   5.590   0.340 -0.3805 -1.6215  0.5999
 8646TIP3   OH225901   2.599   2.636   2.088 -1.0308  0.5421 -0.0486
 8646TIP3    H125902   2.660   2.709   2.085 -0.6213  0.2450  0.7402
 8646TIP3    H225903   2.590   2.615   2.181  0.0531 -1.3747 -0.3172
 8647TIP3   OH225904   2.737   4.544   3.424 -0.5175 -0.1700 -0.0486
 8647TIP3    H125905   2.735   4.591   3.341 -1.9626 -0.7284 -0.3652
 8647TIP3    H225906   2.698   4.458   3.403  0.2104 -0.7593  0.9411
 8648TIP3   OH225907   2.070   2.266   0.272 -0.3847 -0.0899  0.0330
 8648TIP3    H125908   2.011   2.200   0.307 -0.5938 -1.1202 -2.0798
 8648TIP3    H225909   2.027   2.350   0.291 -0.7046 -0.6055  1.6989
 8649TIP3   OH225910   4.074   4.834   2.980 -0.2693 -0.7859 -0.1290
 8649TIP3    H125911   4.082   4.750   3.025 -0.3241 -0.7926 -0.1311
 8649TIP3    H225912   3.995   4.824   2.927 -0.1686 -0.8025 -0.2772
 8650TIP3   OH225913   5.710   0.599   4.078 -0.0289 -0.4005 -0.5088
 8650TIP3    H125914   5.615   0.590   4.068 -0.5614 -0.1287  3.0741
 8650TIP3    H225915   5.744   0.509   4.073 -0.8514 -0.8063  0.8076
 8651TIP3   OH225916   5.644   3.253   4.373 -0.2699  0.2431 -0.1133
 8651TIP3    H125917   5.673   3.209   4.293  0.6813  0.6122  0.0143
 8651TIP3    H225918   5.687   3.338   4.370 -1.1069  0.6879  0.2547
 8652TIP3   OH225919   5.914   0.783   3.334  0.2452  0.6911 -0.0453
 8652TIP3    H125920   5.972   0.708   3.343  1.1038  1.2883 -0.4986
 8652TIP3    H225921   5.946   0.846   3.399  1.2616  1.7301 -1.4880
 8653TIP3   OH225922   2.604   2.582   3.072 -0.4444 -0.0563  0.1025
 8653TIP3    H125923   2.548   2.601   3.147  0.6596 -1.8601  1.5027
 8653TIP3    H225924   2.685   2.630   3.090 -0.4116  0.0298 -0.2737
 8654TIP3   OH225925   6.776   5.714   4.913  0.4502  0.9458 -0.3107
 8654TIP3    H125926   6.712   5.707   4.842 -0.1009 -0.3630  0.2764
 8654TIP3    H225927   6.849   5.659   4.886 -0.1511 -0.2952  0.5092
 8655TIP3   OH225928   5.147   5.203   1.163  0.1361 -0.4994 -0.1658
 8655TIP3    H125929   5.194   5.247   1.234 -0.4656 -0.8815  0.4859
 8655TIP3    H225930   5.054   5.214   1.185 -0.1322  0.6641 -1.6829
 8656TIP3   OH225931   0.300   6.288   2.699  0.6989  0.5408 -0.0768
 8656TIP3    H125932   0.321   6.205   2.656  0.3096  0.9891 -1.1674
 8656TIP3    H225933   0.206   6.298   2.686  1.0766  2.2585 -2.0455
 8657TIP3   OH225934   3.388   3.478   1.093  0.1808 -0.0615  0.1205
 8657TIP3    H125935   3.353   3.546   1.035 -0.2060 -0.4274 -0.0855
 8657TIP3    H225936   3.415   3.408   1.033 -0.4121 -0.5285  0.3837
 8658TIP3   OH225937   3.912   3.164   0.218 -0.7927 -0.1765  0.0373
 8658TIP3    H125938   3.966   3.181   0.141 -0.3854 -1.2301  0.0815
 8658TIP3    H225939   3.946   3.224   0.285 -0.5261  0.0670 -0.3130
 8659TIP3   OH225940   4.559   3.643   1.944  0.1396  0.1813  0.7015
 8659TIP3    H125941   4.493   3.710   1.926  0.4637  0.4415  0.4788
 8659TIP3    H225942   4.554   3.629   2.039  0.3446  0.8094  0.8105
 8660TIP3   OH225943   3.030   5.773   4.987  0.2327 -0.5031 -0.3817
 8660TIP3    H125944   3.075   5.773   4.903  0.9127  2.8142 -0.1397
 8660TIP3    H225945   2.941   5.803   4.966  0.5974  1.0067  0.0824
 8661TIP3   OH225946   1.290   3.400   5.644  0.7526 -0.3501  0.3932
 8661TIP3    H125947   1.350   3.328   5.664  0.7725 -0.4548 -0.0307
 8661TIP3    H225948   1.275   3.393   5.550  0.3118 -0.1406  0.4446
 8662TIP3   OH225949   2.128   0.772   0.067 -0.5003 -0.7538  0.0946
 8662TIP3    H125950   2.059   0.811   0.122 -1.7641 -2.3427 -0.2827
 8662TIP3    H225951   2.171   0.708   0.124 -0.4990 -0.9989 -0.1802
 8663TIP3   OH225952   1.974   2.251   3.896  0.2045  0.1437  0.0258
 8663TIP3    H125953   1.928   2.169   3.878  0.7143  0.1669 -1.5380
 8663TIP3    H225954   1.918   2.319   3.859  0.8877  0.2736 -0.8071
 8664TIP3   OH225955   3.762   6.650   2.071  0.4079  0.0299  0.1370
 8664TIP3    H125956   3.768   6.593   2.148 -1.9466  1.1881  1.2675
 8664TIP3    H225957   3.722   6.595   2.004 -0.3335 -0.1336  0.7045
 8665TIP3   OH225958   6.681   3.640   1.913  0.1865  0.4345  0.7163
 8665TIP3    H125959   6.701   3.550   1.939 -1.9621 -1.2178 -2.6264
 8665TIP3    H225960   6.624   3.673   1.982  1.2417 -0.6110  2.1598
 8666TIP3   OH225961   3.923   4.159   3.519 -0.6353  0.0880 -0.6940
 8666TIP3    H125962   3.941   4.204   3.602 -1.4229 -1.2212  0.2153
 8666TIP3    H225963   4.009   4.126   3.491 -0.0308  2.1440 -1.4108
 8667TIP3   OH225964   0.711   4.059   4.795 -0.1761  0.0288 -0.0840
 8667TIP3    H125965   0.647   4.090   4.860 -0.1765  0.4136 -0.2666
 8667TIP3    H225966   0.658   4.018   4.727 -0.2912  1.0761 -0.6375
 8668TIP3   OH225967   0.100   0.952   4.517  0.8855  0.0261  0.1645
 8668TIP3    H125968   0.086   0.885   4.584  0.0691  0.4473  0.4336
 8668TIP3    H225969   0.052   0.920   4.441 -0.1942  0.6763  0.5523
 8669TIP3   OH225970   5.251   4.064   0.956  0.1048  0.3017  0.1985
 8669TIP3    H125971   5.246   4.141   1.013  1.0340  0.6545 -0.1758
 8669TIP3    H225972   5.258   4.100   0.868  1.3450 -0.1950  0.0815
 8670TIP3   OH225973   2.439   5.978   4.631 -0.0772 -0.4358 -0.2467
 8670TIP3    H125974   2.501   5.913   4.665 -1.0605 -1.4349 -0.3126
 8670TIP3    H225975   2.374   5.926   4.584 -1.0022  0.5903 -0.1301
 8671TIP3   OH225976   2.503   4.702   0.326  0.0849  0.2935 -0.1130
 8671TIP3    H125977   2.490   4.620   0.373 -1.0925  1.4222  1.6265
 8671TIP3    H225978   2.448   4.693   0.248  1.0474 -1.0775 -0.6826
 8672TIP3   OH225979   3.839   5.261   1.805 -0.1124 -0.1194 -0.1054
 8672TIP3    H125980   3.823   5.301   1.891  0.3064 -2.0978  0.9354
 8672TIP3    H225981   3.876   5.332   1.753 -2.8322  1.8950  0.4624
 8673TIP3   OH225982   4.680   4.907   1.320  0.1319  0.0529 -0.2759
 8673TIP3    H125983   4.612   4.965   1.285 -0.3969 -1.2418 -1.4962
 8673TIP3    H225984   4.753   4.917   1.258 -0.2074 -1.0405 -0.8811
 8674TIP3   OH225985   5.856   0.081   1.245  0.0656  0.1337 -0.3901
 8674TIP3    H125986   5.784   0.140   1.266  0.0866 -0.4019  1.3999
 8674TIP3    H225987   5.875   0.098   1.153  0.5437  3.3870  0.1934
 8675TIP3   OH225988   7.075   4.325   0.114  0.0224  0.0350 -0.5138
 8675TIP3    H125989   7.021   4.403   0.126  1.5508  1.1695 -0.7810
 8675TIP3    H225990   7.065   4.303   0.021 -0.1994  0.0665 -0.4988
 8676TIP3   OH225991   3.917   0.558   4.481  0.4323  0.1830 -0.0903
 8676TIP3    H125992   3.843   0.609   4.448  0.2324  0.3065  0.5182
 8676TIP3    H225993   3.959   0.522   4.403  0.3264  0.9365 -0.5064
 8677TIP3   OH225994   1.287   0.205   2.567  0.2172 -0.4373  0.0562
 8677TIP3    H125995   1.373   0.177   2.536  1.0093  1.4969  0.4036
 8677TIP3    H225996   1.236   0.220   2.487  1.0385  0.8888 -0.2356
 8678TIP3   OH225997   0.167   1.112   3.298 -0.0523  0.3289 -0.1839
 8678TIP3    H125998   0.242   1.128   3.241 -1.6225 -0.8273 -2.7534
 8678TIP3    H225999   0.092   1.145   3.249 -1.8426 -3.1435 -0.1229
 8679TIP3   OH226000   4.555   0.699   1.448  0.6816 -0.0193 -0.5463
 8679TIP3    H126001   4.551   0.630   1.515 -0.3497  0.4913 -0.0610
 8679TIP3    H226002   4.473   0.690   1.399  0.4561  0.9630 -0.3665
 8680TIP3   OH226003   6.880   5.253   5.819  0.3987 -0.3383  0.0289
 8680TIP3    H126004   6.962   5.292   5.851  0.8265 -0.3560 -1.0126
 8680TIP3    H226005   6.818   5.326   5.818  0.6402 -0.1305  0.0143
 8681TIP3   OH226006   2.384   5.389   2.607  0.7115  0.1164  0.0536
 8681TIP3    H126007   2.377   5.421   2.697 -1.4111  2.2816 -0.7690
 8681TIP3    H226008   2.334   5.306   2.607 -1.0744  1.1321  0.5038
 8682TIP3   OH226009   6.841   0.337   1.042  0.6151  0.2784  0.0348
 8682TIP3    H126010   6.754   0.344   1.079 -0.0186 -0.5773 -1.2083
 8682TIP3    H226011   6.849   0.245   1.018  1.1906  0.6771 -1.4165
 8683TIP3   OH226012   2.499   5.730   3.514  0.3124 -0.2165 -0.2354
 8683TIP3    H126013   2.521   5.732   3.607  0.3036 -2.1266 -0.1508
 8683TIP3    H226014   2.407   5.704   3.511 -0.1441  1.3674 -0.7599
 8684TIP3   OH226015   2.614   4.164   0.533 -0.5558 -0.4488  0.5987
 8684TIP3    H126016   2.704   4.137   0.514 -1.2721 -0.8804 -2.6273
 8684TIP3    H226017   2.625   4.238   0.594  2.1713  1.1842 -1.5942
 8685TIP3   OH226018   6.426   6.273   3.022  0.5641 -0.1655 -0.1435
 8685TIP3    H126019   6.472   6.351   2.989 -1.7007  1.2720 -0.1567
 8685TIP3    H226020   6.470   6.251   3.104  1.5651  0.8347 -0.3944
 8686TIP3   OH226021   4.931   5.884   1.167  0.0908  0.1019 -0.3763
 8686TIP3    H126022   4.984   5.944   1.114  1.2141 -1.9633 -1.7386
 8686TIP3    H226023   4.978   5.801   1.162 -1.2529 -0.8532  1.6800
 8687TIP3   OH226024   2.026   4.231   4.799 -0.7148 -0.5162  0.7619
 8687TIP3    H126025   1.954   4.261   4.744 -0.2186 -0.9053 -0.1173
 8687TIP3    H226026   2.016   4.136   4.802 -0.0355 -0.6104  0.3262
 8688TIP3   OH226027   1.418   6.082   0.972  0.0457  0.1442 -0.0643
 8688TIP3    H126028   1.508   6.113   0.983 -0.3299  1.2623  0.0233
 8688TIP3    H226029   1.365   6.151   1.011 -0.8605 -0.4033 -0.3162
 8689TIP3   OH226030   6.709   6.471   1.153  0.1000 -0.3669  0.3857
 8689TIP3    H126031   6.707   6.436   1.064  0.4242  0.3268  0.0998
 8689TIP3    H226032   6.617   6.473   1.180 -0.0934  0.3345 -0.2980
 8690TIP3   OH226033   5.823   4.891   5.846 -0.6068  0.0583 -0.1286
 8690TIP3    H126034   5.744   4.904   5.897  0.0098  2.5027  0.3194
 8690TIP3    H226035   5.809   4.941   5.766  0.9109  1.6026  0.4964
 8691TIP3   OH226036   2.564   5.726   4.708 -0.0264  0.3227  0.7951
 8691TIP3    H126037   2.598   5.716   4.619 -0.2134  2.1168  0.4821
 8691TIP3    H226038   2.562   5.637   4.744  2.1184 -0.1894 -0.2273
 8692TIP3   OH226039   4.270   2.928   0.801 -0.4802 -0.3077 -0.2923
 8692TIP3    H126040   4.299   2.870   0.730  0.5733 -0.2179  0.0436
 8692TIP3    H226041   4.174   2.930   0.793 -0.4545 -1.2018 -1.0014
 8693TIP3   OH226042   6.459   0.471   1.300  0.0163  0.3888 -0.3473
 8693TIP3    H126043   6.394   0.477   1.370  0.7598 -1.0097  0.5043
 8693TIP3    H226044   6.534   0.520   1.333  0.2725 -0.0476 -0.2850
 8694TIP3   OH226045   3.398   2.038   4.281  0.1549 -0.6719  0.0603
 8694TIP3    H126046   3.474   2.054   4.224  0.1854 -1.3404 -0.0865
 8694TIP3    H226047   3.348   1.970   4.237 -0.3615 -0.4729  0.3267
 8695TIP3   OH226048   2.362   2.248   2.243  0.3531  0.0884  0.8592
 8695TIP3    H126049   2.301   2.318   2.265 -0.8424 -0.2138 -1.2581
 8695TIP3    H226050   2.430   2.253   2.310  0.1374  3.0474  0.9494
 8696TIP3   OH226051   1.583   0.316   5.799  0.0869  0.7269  0.0413
 8696TIP3    H126052   1.522   0.298   5.871  0.4315  0.1025  0.1891
 8696TIP3    H226053   1.602   0.409   5.806 -2.0834  1.3085 -0.9882
 8697TIP3   OH226054   4.235   0.834   2.633  0.2011 -0.3909  0.1731
 8697TIP3    H126055   4.146   0.818   2.600  0.3918 -1.9725  0.3789
 8697TIP3    H226056   4.292   0.794   2.568  0.6672 -1.4263  1.1999
 8698TIP3   OH226057   3.512   4.862   4.705  0.1434 -0.4422 -0.0697
 8698TIP3    H126058   3.481   4.922   4.773 -1.4993 -1.8314  0.4893
 8698TIP3    H226059   3.515   4.915   4.625  0.1214  0.7259  0.6837
 8699TIP3   OH226060   2.781   4.843   1.760  0.5221 -0.2932  0.2558
 8699TIP3    H126061   2.691   4.846   1.791  0.7078  1.3329  0.6863
 8699TIP3    H226062   2.809   4.934   1.756  1.5607 -0.6369 -1.6236
 8700TIP3   OH226063   5.069   0.186   3.655  0.0578  0.3212 -0.1021
 8700TIP3    H126064   5.041   0.215   3.568  0.3994 -0.0763 -0.3483
 8700TIP3    H226065   5.163   0.172   3.646  0.1265  0.4800  0.3893
 8701TIP3   OH226066   4.302   4.956   1.804  0.3189 -0.4979  0.4821
 8701TIP3    H126067   4.358   5.009   1.861 -1.5330  0.9598  1.0592
 8701TIP3    H226068   4.267   5.018   1.741 -1.5351 -1.1003  0.8624
 8702TIP3   OH226069   6.726   2.076   4.989  0.2810  0.1639  0.1985
 8702TIP3    H126070   6.677   2.004   5.030  0.4894  0.2227  0.5499
 8702TIP3    H226071   6.734   2.142   5.058 -1.0889  1.1172 -0.5017
 8703TIP3   OH226072   4.511   6.682   3.690  0.0874 -0.0581 -0.2559
 8703TIP3    H126073   4.492   6.740   3.616  1.0618 -1.5929 -1.7745
 8703TIP3    H226074   4.605   6.666   3.686 -0.0427 -1.1827  0.5527
 8704TIP3   OH226075   0.796   3.197   3.155  0.0630 -0.0438 -0.5879
 8704TIP3    H126076   0.852   3.127   3.121  1.5233  0.8024 -0.0672
 8704TIP3    H226077   0.709   3.158   3.161  0.0714 -0.7902 -3.5010
 8705TIP3   OH226078   3.031   2.880   0.036  0.4568  0.0285  0.0409
 8705TIP3    H126079   3.099   2.939   0.004 -1.0931  1.2072 -1.2643
 8705TIP3    H226080   3.079   2.806   0.072  2.4155  0.5896 -1.2334
 8706TIP3   OH226081   2.952   1.890   1.834  0.1761 -0.2391  0.3388
 8706TIP3    H126082   3.033   1.845   1.810  0.7455  0.2949  1.2113
 8706TIP3    H226083   2.895   1.820   1.866  0.3575 -0.5982 -0.1261
 8707TIP3   OH226084   4.596   5.537   0.454  0.0879  0.5040 -0.3191
 8707TIP3    H126085   4.649   5.522   0.533 -0.0158  0.5937 -0.2333
 8707TIP3    H226086   4.649   5.500   0.383 -1.1490 -2.3850  0.1379
 8708TIP3   OH226087   6.752   0.345   5.531  1.0645 -0.1160  0.0058
 8708TIP3    H126088   6.679   0.289   5.557  1.1550  0.0698  0.6850
 8708TIP3    H226089   6.822   0.322   5.592  1.5121 -0.1584 -0.5209
 8709TIP3   OH226090   3.863   3.840   3.597  0.0497  0.1180  0.3115
 8709TIP3    H126091   3.899   3.926   3.575  0.2503  0.0852  0.5092
 8709TIP3    H226092   3.905   3.780   3.535  0.8432 -0.0197  0.9672
 8710TIP3   OH226093   5.079   1.521   0.123  0.7696  0.1803 -0.3137
 8710TIP3    H126094   5.170   1.526   0.152  0.9037  2.8917 -0.9742
 8710TIP3    H226095   5.081   1.547   0.031 -0.5147 -1.2706 -0.7968
 8711TIP3   OH226096   2.229   3.249   5.389  0.0868  0.2270  0.6113
 8711TIP3    H126097   2.259   3.195   5.316 -0.6353 -0.0121  0.4798
 8711TIP3    H226098   2.159   3.303   5.351 -0.0277  0.3749  1.0334
 8712TIP3   OH226099   5.774   4.657   0.519  0.3044 -0.1871  0.1799
 8712TIP3    H126100   5.769   4.563   0.500 -1.7712 -0.1813  0.4706
 8712TIP3    H226101   5.702   4.673   0.580  0.1004  1.7547 -0.5069
 8713TIP3   OH226102   4.089   1.901   1.311  0.5153  0.2599 -0.5990
 8713TIP3    H126103   4.090   1.932   1.221 -1.0011 -0.9149 -1.0835
 8713TIP3    H226104   4.011   1.942   1.349 -0.0108 -0.8065 -0.4741
 8714TIP3   OH226105   0.092   5.999   5.685  0.1617 -0.0339 -0.2426
 8714TIP3    H126106   0.055   6.002   5.597 -0.4511  0.8674  0.0361
 8714TIP3    H226107   0.183   6.026   5.673  0.1952 -0.3163 -0.6550
 8715TIP3   OH226108   5.031   1.478   1.219  0.1420  0.5294 -0.3862
 8715TIP3    H126109   5.110   1.429   1.198  0.8403  1.0288  1.0152
 8715TIP3    H226110   5.028   1.480   1.314 -2.5433 -1.0494 -0.3222
 8716TIP3   OH226111   5.545   3.444   1.902 -0.4194 -0.0851  0.3040
 8716TIP3    H126112   5.473   3.452   1.840 -0.1779 -1.8886 -0.2550
 8716TIP3    H226113   5.502   3.436   1.987 -0.9960 -2.3996 -0.1393
 8717TIP3   OH226114   7.101   3.242   3.653 -0.0847  0.4416 -0.0366
 8717TIP3    H126115   7.043   3.230   3.577  0.4529  1.3549 -0.6154
 8717TIP3    H226116   7.160   3.166   3.650 -0.9419 -0.2523  0.2900
 8718TIP3   OH226117   5.498   3.309   3.647 -0.4524  0.2435  0.3187
 8718TIP3    H126118   5.464   3.221   3.663 -1.1809  0.1329 -1.5682
 8718TIP3    H226119   5.432   3.367   3.685 -1.9311 -0.0102 -1.6919
 8719TIP3   OH226120   0.338   0.600   2.942 -0.4430 -0.4567  0.0704
 8719TIP3    H126121   0.334   0.520   2.889  1.4186  0.0633 -0.9262
 8719TIP3    H226122   0.377   0.572   3.025  0.0419 -0.6134 -0.2085
 8720TIP3   OH226123   4.869   3.427   3.249 -0.2015 -0.9755 -0.2021
 8720TIP3    H126124   4.789   3.431   3.196 -0.2370 -1.3714 -0.1825
 8720TIP3    H226125   4.936   3.468   3.194 -0.8620  1.3459  0.6274
 8721TIP3   OH226126   6.702   2.585   0.798  0.0368  0.0009 -0.1454
 8721TIP3    H126127   6.783   2.544   0.828 -0.0489  1.2876  2.0930
 8721TIP3    H226128   6.639   2.569   0.869 -0.7776  1.5467 -0.4641
 8722TIP3   OH226129   4.298   0.144   2.873 -0.2956  0.2793  0.0795
 8722TIP3    H126130   4.313   0.203   2.947 -0.0509  0.5791 -0.2031
 8722TIP3    H226131   4.204   0.149   2.856 -0.3450  0.2420  0.3402
 8723TIP3   OH226132   5.564   4.512   3.067 -0.6673  0.1633  0.0699
 8723TIP3    H126133   5.656   4.533   3.080 -0.6249 -1.0013  2.0731
 8723TIP3    H226134   5.536   4.571   2.998  1.8349 -0.1968 -1.3737
 8724TIP3   OH226135   3.409   1.286   2.728 -0.0105  0.1230 -0.1273
 8724TIP3    H126136   3.484   1.286   2.787  0.1127  1.3475 -0.2561
 8724TIP3    H226137   3.350   1.219   2.763  0.2466  0.5326  1.1510
 8725TIP3   OH226138   2.674   2.421   3.637 -0.2694 -0.3898  0.3295
 8725TIP3    H126139   2.717   2.392   3.718  0.0758  1.0215  0.6804
 8725TIP3    H226140   2.738   2.403   3.568 -0.3832 -1.1771  0.4175
 8726TIP3   OH226141   1.106   6.157   2.316 -0.8113  0.5227  0.0123
 8726TIP3    H126142   1.151   6.079   2.283 -2.6340  0.3467 -2.3296
 8726TIP3    H226143   1.078   6.203   2.237 -1.0972  2.8024  1.3560
 8727TIP3   OH226144   6.529   3.653   5.578 -0.4010 -0.6759  0.1796
 8727TIP3    H126145   6.543   3.663   5.483  0.5819  0.8612  0.4549
 8727TIP3    H226146   6.611   3.616   5.610 -0.0341  0.5482  0.6761
 8728TIP3   OH226147   4.434   0.102   4.289 -0.0214  0.6029 -0.6680
 8728TIP3    H126148   4.362   0.040   4.274  0.1227  0.3137 -0.1832
 8728TIP3    H226149   4.397   0.170   4.344  0.0583  0.4844 -0.4666
 8729TIP3   OH226150   0.383   4.716   2.382  0.0629  0.2488 -0.2135
 8729TIP3    H126151   0.444   4.713   2.456  0.6880  0.8319 -0.6954
 8729TIP3    H226152   0.314   4.776   2.410 -2.0890 -2.7996  1.6410
 8730TIP3   OH226153   0.590   3.754   2.716 -0.3196 -0.6122  0.0272
 8730TIP3    H126154   0.533   3.826   2.689  1.9769  1.8131  1.2172
 8730TIP3    H226155   0.576   3.687   2.649 -2.8365  0.7349 -0.9385
 8731TIP3   OH226156   6.254   6.185   4.069 -0.1183  0.0464  0.0202
 8731TIP3    H126157   6.267   6.097   4.106 -0.4681  0.0944  0.2616
 8731TIP3    H226158   6.333   6.201   4.018  0.9260  0.4382  1.6502
 8732TIP3   OH226159   5.512   1.582   4.216 -0.6359  0.0707 -0.5625
 8732TIP3    H126160   5.507   1.585   4.120 -1.9485 -1.4739 -0.5909
 8732TIP3    H226161   5.476   1.496   4.239  2.0652 -0.7032  1.1949
 8733TIP3   OH226162   3.978   4.354   0.820 -0.0879 -0.4170 -0.4566
 8733TIP3    H126163   4.006   4.341   0.730 -0.8758  0.2379 -0.8195
 8733TIP3    H226164   3.885   4.329   0.820  0.1621 -1.4021  0.4208
 8734TIP3   OH226165   5.898   2.067   0.613 -0.4047  0.3353 -0.3473
 8734TIP3    H126166   5.889   2.148   0.663  0.6916 -1.0915  2.3862
 8734TIP3    H226167   5.917   2.096   0.523 -0.8770  3.0509  0.3339
 8735TIP3   OH226168   2.783   1.791   5.806  0.1049 -0.0374 -0.0511
 8735TIP3    H126169   2.839   1.857   5.845 -1.5371  1.3122  0.1255
 8735TIP3    H226170   2.696   1.810   5.840 -0.3089 -2.8127  0.6565
 8736TIP3   OH226171   3.816   1.700   3.766 -0.3192  0.0153  0.5054
 8736TIP3    H126172   3.767   1.641   3.824 -2.6962 -1.6937 -2.8747
 8736TIP3    H226173   3.755   1.771   3.747 -0.3809 -0.4899 -1.3441
 8737TIP3   OH226174   6.010   4.892   0.143 -0.8692 -0.3416  0.8510
 8737TIP3    H126175   5.916   4.891   0.156 -0.9735 -1.3544  0.1284
 8737TIP3    H226176   6.046   4.859   0.226 -1.2623 -1.8836  0.4311
 8738TIP3   OH226177   1.445   4.293   3.924  0.2155 -0.0659 -0.1663
 8738TIP3    H126178   1.518   4.267   3.867  0.3180 -0.0601 -0.0385
 8738TIP3    H226179   1.370   4.243   3.892  0.4807 -0.7597  0.2657
 8739TIP3   OH226180   0.915   5.353   3.860  0.5568  0.1187  0.6231
 8739TIP3    H126181   0.878   5.274   3.900 -0.5415  1.5695  2.6493
 8739TIP3    H226182   0.956   5.400   3.932  2.0500  0.9870 -0.7076
 8740TIP3   OH226183   5.963   4.998   2.091 -0.3816 -0.3808 -0.6342
 8740TIP3    H126184   5.959   4.944   2.171 -2.3343  0.7999  0.1263
 8740TIP3    H226185   5.924   4.943   2.024 -0.9982 -0.4678 -0.2081
 8741TIP3   OH226186   2.103   5.263   3.327  0.1332  0.1085 -0.0039
 8741TIP3    H126187   2.103   5.240   3.419 -1.2594 -0.2347 -0.0597
 8741TIP3    H226188   2.028   5.323   3.317  0.5528  0.5181 -0.8153
 8742TIP3   OH226189   1.620   6.382   2.528 -0.0580 -0.0361 -0.0919
 8742TIP3    H126190   1.529   6.370   2.502 -0.5122 -0.9231  1.7863
 8742TIP3    H226191   1.665   6.306   2.491 -0.8338 -1.6876  2.1510
 8743TIP3   OH226192   6.590   2.856   3.233  0.0742 -0.3558 -0.4151
 8743TIP3    H126193   6.580   2.773   3.186  1.9636 -1.1848  0.5419
 8743TIP3    H226194   6.538   2.846   3.312  3.5587 -2.5238  1.9104
 8744TIP3   OH226195   5.242   5.759   3.252  0.3395 -0.1545 -0.4362
 8744TIP3    H126196   5.224   5.817   3.326  1.7041 -1.9911  1.4568
 8744TIP3    H226197   5.315   5.801   3.207  0.1177  0.5098 -0.1960
 8745TIP3   OH226198   6.878   1.022   1.246  0.3550 -0.3805  0.2997
 8745TIP3    H126199   6.924   1.094   1.291  1.9370 -1.2475  0.1588
 8745TIP3    H226200   6.785   1.040   1.261  0.6292  2.1559 -0.4353
 8746TIP3   OH226201   0.185   5.407   1.352 -0.7646 -0.2699  0.2737
 8746TIP3    H126202   0.256   5.431   1.412 -0.2467  0.2668 -0.5355
 8746TIP3    H226203   0.144   5.331   1.393  0.8537 -1.1645  0.3328
 8747TIP3   OH226204   0.166   1.888   2.698 -0.5203  0.4028  0.7590
 8747TIP3    H126205   0.261   1.890   2.710 -0.3631 -0.3147 -0.2881
 8747TIP3    H226206   0.138   1.977   2.718  0.3410  0.5695  1.2863
 8748TIP3   OH226207   5.738   5.965   2.516 -0.3391  0.1036 -0.5375
 8748TIP3    H126208   5.820   5.917   2.524 -1.1816 -1.1098  1.4149
 8748TIP3    H226209   5.695   5.926   2.440  0.5344  0.2190 -1.1011
 8749TIP3   OH226210   1.768   5.001   2.128 -0.8293 -0.1997 -0.2052
 8749TIP3    H126211   1.702   4.987   2.196  0.3929 -1.6196  0.7514
 8749TIP3    H226212   1.802   5.089   2.145 -1.4833 -0.0098  0.1634
 8750TIP3   OH226213   4.033   1.178   2.386 -0.0468  0.2414  0.4111
 8750TIP3    H126214   4.014   1.209   2.298 -1.2387 -1.7370 -0.0895
 8750TIP3    H226215   3.971   1.224   2.442 -1.5331 -0.8601 -0.2636
 8751TIP3   OH226216   5.517   0.311   2.794 -0.0547  0.1447 -0.0562
 8751TIP3    H126217   5.449   0.356   2.744 -0.8652  0.2440  1.0992
 8751TIP3    H226218   5.472   0.277   2.871  1.0527 -0.4845  0.3388
 8752TIP3   OH226219   4.206   1.139   4.672 -0.2945 -0.1419  0.0008
 8752TIP3    H126220   4.137   1.074   4.684  0.8945 -1.3657  0.4528
 8752TIP3    H226221   4.231   1.130   4.580  0.0739 -0.5563  0.1364
 8753TIP3   OH226222   1.457   2.801   5.855  0.2491  0.0649 -0.4500
 8753TIP3    H126223   1.383   2.829   5.800 -1.4817  0.8083  2.0986
 8753TIP3    H226224   1.515   2.877   5.856  0.0639  0.2171 -0.8688
 8754TIP3   OH226225   1.761   5.827   3.756 -0.4928  0.0207  0.0314
 8754TIP3    H126226   1.806   5.743   3.766 -1.5099 -0.4434  0.8661
 8754TIP3    H226227   1.795   5.882   3.826  0.1271  0.2963 -0.4768
 8755TIP3   OH226228   5.234   0.687   0.090 -0.3494  0.0380 -0.4350
 8755TIP3    H126229   5.273   0.764   0.131 -0.7074  0.2520 -0.4933
 8755TIP3    H226230   5.237   0.619   0.157  0.0281  0.0854 -0.4057
 8756TIP3   OH226231   3.955   6.332   2.332  0.4977  0.1645  0.1004
 8756TIP3    H126232   3.897   6.327   2.256  0.1807  0.1920  0.3425
 8756TIP3    H226233   3.974   6.241   2.354  0.3532  0.1527  0.1728
 8757TIP3   OH226234   5.332   6.402   5.015  0.4329 -0.0731 -0.0448
 8757TIP3    H126235   5.307   6.375   5.103 -0.0243 -0.1385 -0.1882
 8757TIP3    H226236   5.253   6.442   4.979  0.0470 -1.6145 -1.0392
 8758TIP3   OH226237   5.558   1.682   1.970  0.2959 -0.3963  0.3283
 8758TIP3    H126238   5.484   1.723   1.926  0.0361 -1.7709 -0.5842
 8758TIP3    H226239   5.596   1.752   2.023 -0.3284  0.9145 -0.8769
 8759TIP3   OH226240   2.086   4.334   0.753 -1.2283  0.3746 -0.0717
 8759TIP3    H126241   2.179   4.355   0.740 -1.2414  0.2318 -0.3905
 8759TIP3    H226242   2.044   4.419   0.765 -0.9622  0.4112  0.7078
 8760TIP3   OH226243   4.684   0.100   5.406  0.2770 -0.0595 -0.0573
 8760TIP3    H126244   4.678   0.073   5.314 -2.5195  0.2261 -0.0497
 8760TIP3    H226245   4.672   0.019   5.455  1.8685 -0.2273  0.1087
 8761TIP3   OH226246   3.106   5.762   3.878 -0.0457 -0.1127 -0.4107
 8761TIP3    H126247   3.070   5.749   3.966 -0.4758 -0.4635 -0.6420
 8761TIP3    H226248   3.145   5.850   3.882  1.1129 -0.6219  0.5373
 8762TIP3   OH226249   1.426   5.569   5.046  0.0641 -0.3228 -0.3340
 8762TIP3    H126250   1.409   5.500   5.110  2.3817 -0.6030  0.0685
 8762TIP3    H226251   1.339   5.600   5.020 -1.0113  0.7271  3.9014
 8763TIP3   OH226252   6.307   1.582   0.292  0.5964  0.2935 -0.3584
 8763TIP3    H126253   6.300   1.572   0.387 -0.2571 -0.8607 -0.5168
 8763TIP3    H226254   6.307   1.492   0.259  1.4842  0.6548 -1.4264
 8764TIP3   OH226255   4.530   4.982   4.625  0.1929 -0.0699 -0.4551
 8764TIP3    H126256   4.625   4.992   4.626  0.1119  0.7519 -0.0076
 8764TIP3    H226257   4.498   5.068   4.599 -0.4273 -0.3766 -0.7157
 8765TIP3   OH226258   4.960   3.635   3.806 -0.1225 -0.2014 -0.5482
 8765TIP3    H126259   5.005   3.688   3.871 -0.2208  1.4475 -1.7599
 8765TIP3    H226260   4.873   3.673   3.799 -0.5578 -1.1918 -0.7015
 8766TIP3   OH226261   3.490   0.634   2.447 -0.1220  0.3381  0.1192
 8766TIP3    H126262   3.454   0.706   2.499  0.4379  1.1855 -0.6333
 8766TIP3    H226263   3.580   0.625   2.478  0.8587  2.1771 -1.9934
 8767TIP3   OH226264   1.547   3.846   1.438 -0.5665 -0.9986  0.0406
 8767TIP3    H126265   1.599   3.804   1.507 -1.1235  0.0000  1.1058
 8767TIP3    H226266   1.607   3.856   1.364 -0.2852 -3.2281 -0.1015
 8768TIP3   OH226267   1.645   2.234   1.904 -0.7262  0.3681  0.8195
 8768TIP3    H126268   1.726   2.274   1.874 -0.8993  0.1209 -0.0006
 8768TIP3    H226269   1.587   2.237   1.828 -1.1116 -0.4482  1.0711
 8769TIP3   OH226270   6.722   4.168   0.878  1.1114  0.1760  0.0213
 8769TIP3    H126271   6.641   4.117   0.885  0.0176  1.9970  1.7119
 8769TIP3    H226272   6.757   4.145   0.792 -1.3627 -0.4582 -0.9125
 8770TIP3   OH226273   3.582   5.408   0.249  0.3217  0.0618 -0.2744
 8770TIP3    H126274   3.562   5.442   0.336  1.2721  0.0451 -0.0424
 8770TIP3    H226275   3.501   5.422   0.199 -0.2736 -0.0313  0.6323
 8771TIP3   OH226276   3.451   6.728   2.866 -0.1869 -0.1787  0.7664
 8771TIP3    H126277   3.461   6.821   2.844  0.9576 -0.6350 -0.8595
 8771TIP3    H226278   3.356   6.714   2.867 -0.4129  0.3623 -2.2808
 8772TIP3   OH226279   1.366   2.952   2.418  0.1516 -0.2684 -0.4524
 8772TIP3    H126280   1.288   2.897   2.425 -0.9102  1.2573  0.4498
 8772TIP3    H226281   1.422   2.922   2.489 -0.2319 -0.4474 -0.2187
 8773TIP3   OH226282   1.198   6.478   4.835  0.2495  0.2122 -0.6247
 8773TIP3    H126283   1.264   6.518   4.890 -2.4305  2.6616  1.0935
 8773TIP3    H226284   1.210   6.519   4.749  0.0817  1.7571  0.0578
 8774TIP3   OH226285   2.136   1.544   0.937 -0.2778  0.0356 -0.3608
 8774TIP3    H126286   2.077   1.469   0.926  1.5269 -1.1522 -2.9741
 8774TIP3    H226287   2.090   1.616   0.895 -1.0798 -0.1344  0.2021
 8775TIP3   OH226288   4.099   5.712   3.097  0.3367 -0.1429 -0.3405
 8775TIP3    H126289   4.049   5.749   3.171 -0.7979  0.0483 -1.1652
 8775TIP3    H226290   4.158   5.783   3.071 -0.5084  0.4507 -0.7152
 8776TIP3   OH226291   2.137   0.863   5.247 -0.1093 -0.4526 -0.1912
 8776TIP3    H126292   2.091   0.846   5.165 -0.8896  0.9875 -0.0863
 8776TIP3    H226293   2.189   0.784   5.263 -0.5027 -1.0360 -1.6879
 8777TIP3   OH226294   5.325   1.382   0.655  0.5414 -0.0402  0.6028
 8777TIP3    H126295   5.341   1.289   0.639  1.5302  0.2517 -0.1219
 8777TIP3    H226296   5.259   1.406   0.591  0.0496 -0.3041  0.9980
 8778TIP3   OH226297   1.135   0.357   2.740 -0.7175 -0.0973  0.4484
 8778TIP3    H126298   1.204   0.326   2.681  0.5660  0.1581  1.7538
 8778TIP3    H226299   1.165   0.444   2.767  0.5258 -1.4632  4.0408
 8779TIP3   OH226300   1.258   2.489   4.844 -0.2669 -0.2238  0.1227
 8779TIP3    H126301   1.238   2.396   4.838  1.0552 -0.4874 -0.4381
 8779TIP3    H226302   1.347   2.493   4.878 -0.0720  0.8068 -0.4574
 8780TIP3   OH226303   1.504   1.343   2.599 -0.2979  0.1839 -0.0667
 8780TIP3    H126304   1.548   1.382   2.674 -0.3380  0.1071 -0.0028
 8780TIP3    H226305   1.439   1.409   2.573  0.5052  0.7247 -0.7734
 8781TIP3   OH226306   5.316   2.845   3.805  0.5470  0.4099  0.4662
 8781TIP3    H126307   5.244   2.787   3.781  0.1735  0.5398  1.2291
 8781TIP3    H226308   5.319   2.841   3.901  1.4643  0.5173  0.4473
 8782TIP3   OH226309   1.348   4.302   5.146 -0.0135  0.2660  0.2654
 8782TIP3    H126310   1.430   4.318   5.099  0.2045 -1.4184  0.0222
 8782TIP3    H226311   1.285   4.360   5.104  0.6178  0.1592 -0.8644
 8783TIP3   OH226312   5.125   2.768   0.043  0.1990  0.1392 -0.2301
 8783TIP3    H126313   5.206   2.767   0.095 -0.6224 -1.9405  1.1868
 8783TIP3    H226314   5.062   2.720   0.097 -1.3426 -0.2535 -2.2460
 8784TIP3   OH226315   0.218   1.575   1.732  0.0930 -0.1316  0.7672
 8784TIP3    H126316   0.274   1.499   1.744  0.2546  0.0920  1.5240
 8784TIP3    H226317   0.270   1.648   1.766 -0.1308  0.2829  0.2212
 8785TIP3   OH226318   5.372   2.747   4.052  0.9715  0.0608 -0.5137
 8785TIP3    H126319   5.354   2.757   4.145 -1.1743  0.5729 -0.9377
 8785TIP3    H226320   5.457   2.703   4.049  0.5810 -0.9774  1.6749
 8786TIP3   OH226321   5.375   0.901   0.205 -0.1247 -0.3242 -0.0579
 8786TIP3    H126322   5.456   0.922   0.250 -0.0091 -0.2910 -0.2792
 8786TIP3    H226323   5.317   0.976   0.222  0.2391  0.1217 -0.7308
 8787TIP3   OH226324   2.490   0.634   1.413 -0.1713 -0.3985  0.8471
 8787TIP3    H126325   2.420   0.696   1.391  0.3326  0.0094  0.3445
 8787TIP3    H226326   2.445   0.550   1.423 -0.5541 -0.4895 -1.1459
 8788TIP3   OH226327   6.329   4.811   0.214 -0.6390  0.4164  0.3069
 8788TIP3    H126328   6.406   4.863   0.192 -0.2042  0.4251  1.7093
 8788TIP3    H226329   6.305   4.766   0.133  2.3704 -1.5779  0.3506
 8789TIP3   OH226330   5.604   1.251   5.085 -0.1125 -0.4209  0.0407
 8789TIP3    H126331   5.638   1.162   5.087  0.3293 -0.3780 -2.5349
 8789TIP3    H226332   5.549   1.257   5.163  0.2013 -2.7827  0.5241
 8790TIP3   OH226333   2.471   1.537   1.975  0.2349 -0.2489 -0.1454
 8790TIP3    H126334   2.465   1.442   1.962  0.4854 -0.7446  2.6240
 8790TIP3    H226335   2.421   1.553   2.055  0.2099  1.9897 -0.5444
 8791TIP3   OH226336   0.110   6.628   5.519  0.0425  0.5783  0.2729
 8791TIP3    H126337   0.176   6.561   5.501 -0.5146  0.2078 -0.4537
 8791TIP3    H226338   0.122   6.649   5.611  0.1598 -0.6131  0.5478
 8792TIP3   OH226339   5.409   4.580   3.577 -0.2231 -0.4120 -0.2651
 8792TIP3    H126340   5.329   4.623   3.607  0.5167  1.0042 -0.2272
 8792TIP3    H226341   5.399   4.575   3.482 -0.3800 -0.3143 -0.2540
 8793TIP3   OH226342   3.089   3.265   5.662  0.0284 -0.5292 -0.0330
 8793TIP3    H126343   3.016   3.257   5.600  0.6265 -1.9517 -0.6077
 8793TIP3    H226344   3.080   3.353   5.699 -0.5622  0.2430 -1.8856
 8794TIP3   OH226345   5.321   5.428   0.116  0.0706 -0.0172 -0.6766
 8794TIP3    H126346   5.256   5.400   0.181 -0.1365 -0.1630 -0.9423
 8794TIP3    H226347   5.405   5.408   0.156 -0.0721 -1.3031 -0.9727
 8795TIP3   OH226348   1.520   1.262   4.257  0.2604  0.2488  0.1418
 8795TIP3    H126349   1.435   1.298   4.230  0.4270  1.0496  0.6350
 8795TIP3    H226350   1.583   1.328   4.228  0.5061  0.7963  1.8324
 8796TIP3   OH226351   3.685   4.905   1.856  0.5923  0.2632  0.4239
 8796TIP3    H126352   3.766   4.906   1.805  0.6292 -0.0355  0.4724
 8796TIP3    H226353   3.644   4.990   1.839 -0.1101 -0.3714 -1.2623
 8797TIP3   OH226354   2.003   3.489   2.220 -0.4942  0.3784  0.2303
 8797TIP3    H126355   1.939   3.464   2.286 -1.7469 -0.5259 -1.2550
 8797TIP3    H226356   1.954   3.547   2.161 -0.7043 -2.0468 -2.1699
 8798TIP3   OH226357   5.243   0.077   5.647  0.8662 -0.3707  0.1575
 8798TIP3    H126358   5.312   0.121   5.597  0.8300  0.1894  0.5945
 8798TIP3    H226359   5.179   0.050   5.580  0.7064  0.5712 -0.0823
 8799TIP3   OH226360   5.863   6.187   3.943  0.2284 -0.1002  0.1799
 8799TIP3    H126361   5.815   6.120   3.991 -0.8717 -0.7753 -1.7774
 8799TIP3    H226362   5.951   6.152   3.934 -0.3669 -1.3951 -0.9360
 8800TIP3   OH226363   6.493   1.413   5.190 -0.0241  0.2078  0.6512
 8800TIP3    H126364   6.539   1.473   5.248  1.4821 -2.6370  2.6358
 8800TIP3    H226365   6.503   1.451   5.102  3.2923  1.4026  1.4152
 8801TIP3   OH226366   6.275   1.360   5.384  0.4131  0.6080 -0.2834
 8801TIP3    H126367   6.271   1.405   5.469 -0.4040  1.3011 -0.6755
 8801TIP3    H226368   6.192   1.382   5.342 -0.5434 -2.2323 -0.0388
 8802TIP3   OH226369   0.608   6.445   3.861  0.2239 -0.3728 -0.7250
 8802TIP3    H126370   0.681   6.430   3.801  0.4812 -0.5991 -0.3568
 8802TIP3    H226371   0.530   6.439   3.806  0.5233  0.8339 -1.3136
 8803TIP3   OH226372   3.362   1.166   0.719 -0.3316 -0.2408  0.0085
 8803TIP3    H126373   3.314   1.179   0.801  0.5072 -2.0150  0.8253
 8803TIP3    H226374   3.325   1.231   0.660 -0.9773  1.0788  1.7764
 8804TIP3   OH226375   1.842   2.885   5.397  0.3611 -0.0863  0.1417
 8804TIP3    H126376   1.843   2.884   5.492 -0.5989 -1.0065  0.1575
 8804TIP3    H226377   1.807   2.971   5.374  0.2184 -0.0157  0.6181
 8805TIP3   OH226378   3.159   2.729   3.249  0.0759  0.1708 -0.0192
 8805TIP3    H126379   3.139   2.656   3.192 -0.1172 -0.0732  0.3537
 8805TIP3    H226380   3.112   2.709   3.331 -0.2389  0.8629 -0.0225
 8806TIP3   OH226381   3.598   0.790   2.234  0.0257 -0.1390 -0.0747
 8806TIP3    H126382   3.553   0.743   2.304 -1.6766  1.3118 -0.1404
 8806TIP3    H226383   3.629   0.871   2.275  0.9396 -0.2632 -0.4925
 8807TIP3   OH226384   1.142   4.060   5.791 -1.2839  0.3055 -0.3986
 8807TIP3    H126385   1.209   4.020   5.736 -0.8921 -0.5738  0.6820
 8807TIP3    H226386   1.068   4.000   5.786 -0.8886 -0.3276  0.7952
 8808TIP3   OH226387   2.574   2.008   4.475  0.1956  0.3757 -0.3072
 8808TIP3    H126388   2.605   1.938   4.419 -0.8282  0.4934 -1.0574
 8808TIP3    H226389   2.569   2.085   4.417  1.1336  1.0366  0.4560
 8809TIP3   OH226390   6.230   3.676   1.113  0.4848  0.3930  0.7856
 8809TIP3    H126391   6.142   3.641   1.099  0.0410  2.0812 -1.2074
 8809TIP3    H226392   6.236   3.691   1.207 -1.5829  0.7469  0.8967
 8810TIP3   OH226393   5.817   3.337   2.900  0.2125  0.4099  0.2386
 8810TIP3    H126394   5.868   3.406   2.943 -1.1597  0.3680  2.0521
 8810TIP3    H226395   5.747   3.384   2.854  0.0798  0.2948  0.3241
 8811TIP3   OH226396   0.657   2.797   3.159  0.6075 -1.1900  0.6589
 8811TIP3    H126397   0.670   2.744   3.238 -1.2464 -0.3405  1.5815
 8811TIP3    H226398   0.673   2.887   3.187 -3.4366 -0.4155  1.1137
 8812TIP3   OH226399   6.611   2.107   1.673 -0.0896  0.1467 -0.1222
 8812TIP3    H126400   6.606   2.195   1.711  0.8375 -0.0158  0.4227
 8812TIP3    H226401   6.700   2.078   1.694 -0.0052 -0.4827 -1.2763
 8813TIP3   OH226402   4.432   2.469   1.254 -0.1345  0.1638 -0.2525
 8813TIP3    H126403   4.365   2.484   1.322 -1.3396 -0.3265 -1.2796
 8813TIP3    H226404   4.411   2.382   1.220 -0.1212  0.7435 -1.8414
 8814TIP3   OH226405   1.288   1.039   3.559 -0.1941  0.2370 -0.1059
 8814TIP3    H126406   1.314   1.102   3.625 -1.1804  1.2878 -0.6887
 8814TIP3    H226407   1.339   1.064   3.481  1.0318 -1.0472  0.2384
 8815TIP3   OH226408   4.321   4.106   3.050  0.1249 -0.4780 -0.7402
 8815TIP3    H126409   4.250   4.139   3.105 -0.1105 -1.0096 -0.7248
 8815TIP3    H226410   4.309   4.149   2.966  1.0382  1.0847 -0.1292
 8816TIP3   OH226411   3.291   0.888   3.915  0.5096 -0.4507  0.0170
 8816TIP3    H126412   3.197   0.889   3.900  0.1350  0.1534  2.1108
 8816TIP3    H226413   3.314   0.795   3.918  0.0554 -0.5977 -0.7476
 8817TIP3   OH226414   6.263   1.724   2.199 -0.0635  0.2321  0.0205
 8817TIP3    H126415   6.281   1.680   2.282 -1.8746 -1.0142 -0.2004
 8817TIP3    H226416   6.346   1.718   2.150  0.3914 -0.9015  0.8919
 8818TIP3   OH226417   4.241   2.129   2.490 -0.2538  0.3280  0.0794
 8818TIP3    H126418   4.297   2.119   2.413  2.3016 -1.3613  2.0096
 8818TIP3    H226419   4.296   2.173   2.555 -1.6025 -0.1882  1.6587
 8819TIP3   OH226420   0.283   5.906   1.788  0.0249  0.3926 -0.1415
 8819TIP3    H126421   0.241   5.988   1.762 -1.2484 -0.0126  0.5804
 8819TIP3    H226422   0.227   5.871   1.858  0.8120 -0.8578 -0.1099
 8820TIP3   OH226423   2.265   2.539   3.104 -0.0235 -0.4532 -0.3028
 8820TIP3    H126424   2.301   2.519   3.018  0.6939 -1.4733  0.2178
 8820TIP3    H226425   2.237   2.454   3.139  1.4646 -0.3760  1.2390
 8821TIP3   OH226426   4.708   4.880   1.650  0.1470 -0.1604 -0.2629
 8821TIP3    H126427   4.775   4.835   1.598 -0.2050  0.0420 -0.8979
 8821TIP3    H226428   4.626   4.834   1.629  0.0695 -0.3739  0.4678
 8822TIP3   OH226429   0.800   0.278   0.797  0.1925 -0.4841  0.3680
 8822TIP3    H126430   0.834   0.247   0.881  3.2630  0.4908 -0.4049
 8822TIP3    H226431   0.753   0.203   0.761  2.0212 -2.1659  1.3177
 8823TIP3   OH226432   6.562   2.641   2.235 -0.1615  0.1162  0.3871
 8823TIP3    H126433   6.472   2.610   2.241 -0.2874  0.4969  0.4993
 8823TIP3    H226434   6.557   2.734   2.256 -0.4006  1.2633 -3.9174
 8824TIP3   OH226435   4.083   1.119   5.432  0.3599  0.2187 -0.4467
 8824TIP3    H126436   4.132   1.167   5.365 -1.6086  1.3655 -1.1541
 8824TIP3    H226437   3.996   1.158   5.430 -1.0258 -2.6298 -0.2106
 8825TIP3   OH226438   3.825   5.296   0.596 -0.7668 -0.4313 -0.2276
 8825TIP3    H126439   3.844   5.386   0.623 -4.1432  1.3204 -2.9047
 8825TIP3    H226440   3.853   5.292   0.504 -1.1547 -1.9507 -0.3116
 8826TIP3   OH226441   2.563   4.705   1.126  0.6824 -0.5623  0.1894
 8826TIP3    H126442   2.628   4.753   1.178  0.6285 -1.2165  0.8737
 8826TIP3    H226443   2.485   4.761   1.129  0.9864 -0.1232 -0.0236
 8827TIP3   OH226444   0.312   4.461   4.118 -0.7666  0.1052 -0.2838
 8827TIP3    H126445   0.315   4.380   4.170 -2.1513 -0.7366 -1.4361
 8827TIP3    H226446   0.222   4.464   4.084 -0.4911  1.6984 -0.9590
 8828TIP3   OH226447   4.822   5.777   3.624 -0.9071  0.1726  0.6734
 8828TIP3    H126448   4.756   5.846   3.614 -1.5036 -0.6453 -1.7837
 8828TIP3    H226449   4.771   5.696   3.633 -0.2857 -0.4038 -0.7347
 8829TIP3   OH226450   5.382   6.648   5.597  0.0160  0.0752  0.4568
 8829TIP3    H126451   5.414   6.733   5.567  0.4078  0.4031  1.7449
 8829TIP3    H226452   5.302   6.633   5.545  1.0713  0.2051 -1.3028
 8830TIP3   OH226453   2.675   5.270   3.269  0.2525  0.3328 -0.6751
 8830TIP3    H126454   2.702   5.186   3.308  3.4950  0.4381 -2.4098
 8830TIP3    H226455   2.665   5.329   3.344 -0.9931 -1.2651  0.4830
 8831TIP3   OH226456   6.558   1.293   4.867 -0.4498  0.4499  0.4252
 8831TIP3    H126457   6.602   1.213   4.895 -2.1203 -0.5873  0.2674
 8831TIP3    H226458   6.615   1.330   4.799  0.0191 -0.9977  0.0031
 8832TIP3   OH226459   6.165   5.868   0.627 -0.1414  0.1422  0.3018
 8832TIP3    H126460   6.146   5.883   0.534  1.8737 -2.2969 -0.6117
 8832TIP3    H226461   6.079   5.857   0.667 -1.0267  0.1167 -1.4814
 8833TIP3   OH226462   6.748   0.268   3.645  0.1758  0.5428  0.2616
 8833TIP3    H126463   6.775   0.309   3.562  1.7896  0.9223  0.9299
 8833TIP3    H226464   6.769   0.334   3.711  1.1146 -0.6509  1.1847
 8834TIP3   OH226465   2.853   2.721   3.082  0.1878  0.4863  0.1005
 8834TIP3    H126466   2.870   2.792   3.020  0.3920 -0.5844 -1.0797
 8834TIP3    H226467   2.906   2.648   3.052 -2.2923 -1.1874 -0.5152
 8835TIP3   OH226468   3.131   3.831   5.010 -0.0000  0.1829  0.4908
 8835TIP3    H126469   3.101   3.750   4.970 -0.6338 -0.2077  1.6961
 8835TIP3    H226470   3.226   3.825   5.010 -0.0073 -0.0141 -0.5026
 8836TIP3   OH226471   3.271   0.637   4.059 -0.0334  0.1555 -0.1454
 8836TIP3    H126472   3.176   0.629   4.049 -0.0935 -1.4894  1.2875
 8836TIP3    H226473   3.283   0.716   4.113 -0.6990 -0.4278  0.8825
 8837TIP3   OH226474   2.646   4.556   5.158  0.0953  0.1192  0.3185
 8837TIP3    H126475   2.702   4.542   5.081 -0.5443 -1.4902  0.0903
 8837TIP3    H226476   2.586   4.625   5.131 -0.1107 -0.4154 -0.6517
 8838TIP3   OH226477   5.375   2.939   3.375  0.6912  0.1034  0.0018
 8838TIP3    H126478   5.411   2.852   3.356 -0.1688 -0.3183  0.2514
 8838TIP3    H226479   5.289   2.939   3.334  0.3746  0.5588  0.6459
 8839TIP3   OH226480   2.615   0.785   1.219  0.0272 -0.1231 -0.7631
 8839TIP3    H126481   2.603   0.706   1.272 -4.1030  0.1419 -1.0233
 8839TIP3    H226482   2.605   0.754   1.129  0.2105  0.4381 -0.9756
 8840TIP3   OH226483   2.059   0.052   5.415 -0.3222  0.2248  0.4993
 8840TIP3    H126484   1.980   0.104   5.407  0.7621  1.8843 -0.0500
 8840TIP3    H226485   2.129   0.116   5.431  0.8126 -1.2382  1.7611
 8841TIP3   OH226486   1.015   5.452   1.485  0.5475 -0.2447  0.2654
 8841TIP3    H126487   1.108   5.430   1.485  1.6998  3.2970 -3.6094
 8841TIP3    H226488   0.982   5.418   1.403  0.1199  3.3785 -1.2858
 8842TIP3   OH226489   5.124   5.924   0.252  0.0595 -0.1998 -0.3788
 8842TIP3    H126490   5.084   5.911   0.338  0.8531 -0.4259 -0.0370
 8842TIP3    H226491   5.053   5.958   0.197 -0.7793 -1.2817  0.0204
 8843TIP3   OH226492   1.001   0.855   3.580 -0.4674 -0.2295  0.5359
 8843TIP3    H126493   1.090   0.832   3.554 -0.3478  0.4122  0.3691
 8843TIP3    H226494   0.992   0.819   3.668 -0.5239 -1.5153  0.0298
 8844TIP3   OH226495   5.209   1.304   1.456  0.0357 -0.1700  0.5716
 8844TIP3    H126496   5.202   1.263   1.542  0.1399 -2.0505 -0.2595
 8844TIP3    H226497   5.261   1.242   1.404  2.5997  2.2843 -0.0401
 8845TIP3   OH226498   4.830   3.772   4.144  0.1168 -0.3711 -0.0952
 8845TIP3    H126499   4.886   3.735   4.213  0.9300  2.5509  0.9569
 8845TIP3    H226500   4.768   3.827   4.192 -0.8858 -0.1665 -1.5837
 8846TIP3   OH226501   1.307   3.878   2.607 -0.4238 -0.0531  0.0177
 8846TIP3    H126502   1.317   3.826   2.687 -1.6543 -1.4028 -0.6496
 8846TIP3    H226503   1.289   3.813   2.539 -3.3333  1.2626 -0.6488
 8847TIP3   OH226504   4.652   6.560   1.193 -0.4375  0.3404 -0.4260
 8847TIP3    H126505   4.671   6.577   1.285  1.3019 -1.8963 -0.2872
 8847TIP3    H226506   4.640   6.465   1.188  1.5164  0.1285 -2.7906
 8848TIP3   OH226507   0.119   6.450   3.576  0.7650  0.1587 -0.0413
 8848TIP3    H126508   0.097   6.379   3.635 -1.6243 -0.6451 -1.7635
 8848TIP3    H226509   0.056   6.519   3.595  0.5919  0.2759 -0.9559
 8849TIP3   OH226510   3.890   2.461   5.528 -0.2240  0.3557 -0.6523
 8849TIP3    H126511   3.822   2.491   5.468 -0.3556  0.9680 -0.2117
 8849TIP3    H226512   3.846   2.398   5.585 -0.5819  1.1862  0.0071
 8850TIP3   OH226513   5.820   6.622   3.251 -0.2900 -0.3244  0.0280
 8850TIP3    H126514   5.847   6.581   3.169 -0.5710 -1.9770  0.7159
 8850TIP3    H226515   5.725   6.623   3.247 -0.2855  0.6027 -0.1135
 8851TIP3   OH226516   6.243   1.717   5.387 -0.0172  0.1925  0.5885
 8851TIP3    H126517   6.253   1.680   5.299  0.6450 -0.0070  0.7361
 8851TIP3    H226518   6.327   1.698   5.430 -0.9170 -1.1948  1.8119
 8852TIP3   OH226519   2.822   5.912   5.169 -0.6412  0.6572  0.3949
 8852TIP3    H126520   2.843   6.005   5.159  2.4945 -0.0147 -0.5160
 8852TIP3    H226521   2.802   5.883   5.080 -0.0422  0.1672  0.4133
 8853TIP3   OH226522   2.884   0.908   4.037 -0.1752 -0.4713 -0.3155
 8853TIP3    H126523   2.927   0.822   4.045 -0.4690 -0.5724  0.2245
 8853TIP3    H226524   2.956   0.970   4.030  0.0561 -0.6910  0.0806
 8854TIP3   OH226525   6.872   5.130   3.476 -0.5418 -0.2149 -0.0533
 8854TIP3    H126526   6.792   5.115   3.527 -1.3567 -1.3980 -1.5968
 8854TIP3    H226527   6.842   5.135   3.385  1.1131 -0.4771 -0.6472
 8855TIP3   OH226528   1.054   6.481   1.299  0.5162 -0.3047 -0.3234
 8855TIP3    H126529   0.975   6.514   1.256 -0.6546 -1.8455  0.5548
 8855TIP3    H226530   1.057   6.527   1.383  1.5944  1.0870 -1.0852
 8856TIP3   OH226531   6.136   0.328   2.094  0.2879  0.1332 -0.4213
 8856TIP3    H126532   6.147   0.323   1.999 -0.4771 -0.9813 -0.4613
 8856TIP3    H226533   6.190   0.257   2.128  0.2858  0.3122 -0.0451
 8857TIP3   OH226534   4.965   2.935   2.554 -0.2278 -0.4483  0.5082
 8857TIP3    H126535   4.912   2.953   2.477 -0.7301 -1.4807  0.5980
 8857TIP3    H226536   4.960   3.015   2.606  0.2711  0.3341 -0.5973
 8858TIP3   OH226537   4.020   5.655   3.814 -0.2109 -0.4586 -0.1673
 8858TIP3    H126538   4.115   5.642   3.817 -0.0643  0.6163  0.2620
 8858TIP3    H226539   4.002   5.677   3.722 -0.1128 -1.0386 -0.3343
 8859TIP3   OH226540   4.597   3.269   5.048  0.0400 -0.5853 -0.6157
 8859TIP3    H126541   4.678   3.318   5.036 -0.2192 -0.1260 -0.5043
 8859TIP3    H226542   4.528   3.336   5.049 -0.5272 -1.0823 -2.4833
 8860TIP3   OH226543   4.245   3.849   2.782  0.2107  0.1478 -0.1291
 8860TIP3    H126544   4.240   3.763   2.825  0.7644  0.0553 -0.2363
 8860TIP3    H226545   4.161   3.890   2.799 -0.0752 -0.4414 -0.1135
 8861TIP3   OH226546   1.736   2.103   1.585  0.5881  0.0865  0.2365
 8861TIP3    H126547   1.784   2.034   1.539 -0.4125 -0.8596  0.5695
 8861TIP3    H226548   1.685   2.057   1.652 -0.9286  1.0110 -0.2210
 8862TIP3   OH226549   5.860   2.702   3.064  0.1780  0.4280  0.0023
 8862TIP3    H126550   5.787   2.656   3.104 -0.6773  0.7483 -1.1326
 8862TIP3    H226551   5.930   2.697   3.129 -0.0097 -2.0822  0.1026
 8863TIP3   OH226552   3.949   3.297   1.463  0.1012  0.5357  0.6318
 8863TIP3    H126553   4.035   3.331   1.490 -1.1044  4.3646  0.2054
 8863TIP3    H226554   3.923   3.353   1.391 -2.1894 -1.4775 -0.2123
 8864TIP3   OH226555   1.694   6.707   4.689 -0.5686  0.0945 -0.2130
 8864TIP3    H126556   1.713   6.635   4.629  0.1426  0.7434 -0.7760
 8864TIP3    H226557   1.600   6.699   4.706 -0.2909 -1.7427  0.7611
 8865TIP3   OH226558   3.333   4.157   2.873  0.5146 -0.0224  0.5672
 8865TIP3    H126559   3.310   4.067   2.851  1.0247 -0.2054  0.7650
 8865TIP3    H226560   3.249   4.202   2.879  0.3260  0.4022 -3.1026
 8866TIP3   OH226561   4.439   3.304   0.516 -0.6805 -0.0790  0.0842
 8866TIP3    H126562   4.502   3.304   0.587 -0.4375 -0.8810 -0.1187
 8866TIP3    H226563   4.354   3.298   0.559 -0.5975  0.5455  0.3405
 8867TIP3   OH226564   3.099   3.600   0.643  0.2920 -0.3697 -0.9178
 8867TIP3    H126565   3.010   3.629   0.625 -0.0558 -1.5123 -1.1034
 8867TIP3    H226566   3.101   3.509   0.614  0.6115 -1.3530  1.9569
 8868TIP3   OH226567   0.141   4.524   5.028  0.3645  0.0994 -0.2449
 8868TIP3    H126568   0.114   4.474   5.106 -0.2109  3.2257  1.7554
 8868TIP3    H226569   0.231   4.550   5.046 -0.8410  4.0012  1.4724
 8869TIP3   OH226570   5.767   4.865   3.064  0.0327  0.2606  0.0586
 8869TIP3    H126571   5.698   4.902   3.009 -1.0555 -0.0271  1.1781
 8869TIP3    H226572   5.738   4.882   3.153  0.4214 -1.6092  0.5863
 8870TIP3   OH226573   0.378   2.205   3.884  0.3102 -0.0015  0.2085
 8870TIP3    H126574   0.340   2.279   3.837  2.0858  0.3793 -0.6797
 8870TIP3    H226575   0.326   2.130   3.856 -0.8825  0.7364  0.3706
 8871TIP3   OH226576   5.575   0.785   2.847  0.4102  0.3385 -0.1864
 8871TIP3    H126577   5.661   0.746   2.832  0.0425  0.0984 -1.8099
 8871TIP3    H226578   5.555   0.764   2.939  1.8015 -0.1152  0.0329
 8872TIP3   OH226579   0.392   1.884   4.462  1.2077 -0.3505 -0.3671
 8872TIP3    H126580   0.317   1.901   4.518  0.5443 -1.4602 -0.8733
 8872TIP3    H226581   0.467   1.921   4.509  0.6724 -1.2205  1.2501
 8873TIP3   OH226582   5.573   0.530   4.995 -0.0023  0.2814  0.2813
 8873TIP3    H126583   5.525   0.611   4.978  0.0388  0.1537 -0.4570
 8873TIP3    H226584   5.538   0.499   5.079  1.0361  1.8373  1.3489
 8874TIP3   OH226585   5.769   5.725   2.011 -0.0117  0.3750  0.0348
 8874TIP3    H126586   5.832   5.685   2.070  0.4910 -1.2335 -1.5108
 8874TIP3    H226587   5.685   5.687   2.036  0.4300 -1.6726 -1.2832
 8875TIP3   OH226588   4.620   2.128   1.619  0.5337  0.3004  0.8571
 8875TIP3    H126589   4.659   2.211   1.593  0.2429 -0.0273 -0.7005
 8875TIP3    H226590   4.692   2.065   1.615  0.2916  0.0653 -0.1624
 8876TIP3   OH226591   1.733   1.659   2.845 -0.2363  0.2748  0.0188
 8876TIP3    H126592   1.744   1.715   2.922 -0.8720 -1.3789  1.3777
 8876TIP3    H226593   1.809   1.678   2.791  0.3902  1.2665  1.1869
 8877TIP3   OH226594   5.480   2.622   1.624 -0.0661 -0.3333  0.4491
 8877TIP3    H126595   5.541   2.617   1.550 -0.1698  2.4619  0.0683
 8877TIP3    H226596   5.456   2.531   1.642  1.9760 -1.2824 -1.2515
 8878TIP3   OH226597   2.476   2.776   4.477 -0.2589 -0.6674  1.1339
 8878TIP3    H126598   2.568   2.779   4.500 -0.2669 -0.6177  1.1593
 8878TIP3    H226599   2.453   2.867   4.459  0.5638 -0.9907 -2.2505
 8879TIP3   OH226600   1.410   2.640   0.931 -0.3238  0.0239 -0.1126
 8879TIP3    H126601   1.416   2.658   0.837 -2.4937  0.3256 -0.2513
 8879TIP3    H226602   1.346   2.704   0.963 -0.5535 -0.9021  1.3357
 8880TIP3   OH226603   0.876   5.078   2.909  0.1588 -0.0345  0.4680
 8880TIP3    H126604   0.814   5.077   2.836  1.3317 -0.6059 -0.5462
 8880TIP3    H226605   0.864   5.165   2.949 -2.0202 -0.4990  0.9725
 8881TIP3   OH226606   3.227   0.056   4.990 -0.0324 -0.3653  0.4569
 8881TIP3    H126607   3.286   0.093   5.055  0.4316 -1.0368  0.4277
 8881TIP3    H226608   3.285   0.023   4.921 -0.4863 -0.2766  0.0244
 8882TIP3   OH226609   4.145   2.290   2.151 -0.0078 -0.2307  0.0873
 8882TIP3    H126610   4.213   2.226   2.172 -0.5119 -0.0588  2.4974
 8882TIP3    H226611   4.190   2.355   2.096  0.6663 -2.2304 -1.8798
 8883TIP3   OH226612   6.777   4.760   5.829  0.0973 -0.3318 -0.1978
 8883TIP3    H126613   6.857   4.706   5.825 -2.2493 -4.0928 -1.1706
 8883TIP3    H226614   6.727   4.723   5.901 -2.9551 -1.6385 -2.7820
 8884TIP3   OH226615   4.468   5.304   5.427 -0.1853 -0.2131 -0.4981
 8884TIP3    H126616   4.392   5.299   5.484  0.1286 -0.2059 -0.0796
 8884TIP3    H226617   4.504   5.215   5.427  0.2369 -0.0465 -0.1020
 8885TIP3   OH226618   4.592   2.246   3.228 -0.3797 -0.2528  0.6915
 8885TIP3    H126619   4.676   2.219   3.266  0.8217  0.3128 -1.3599
 8885TIP3    H226620   4.609   2.335   3.196 -1.8399 -0.0631  0.3985
 8886TIP3   OH226621   3.147   6.718   1.935  0.4731  0.0738  0.0073
 8886TIP3    H126622   3.115   6.709   1.846  3.6115 -2.3315 -1.0714
 8886TIP3    H226623   3.122   6.807   1.961 -3.2330 -0.1970 -1.9868
 8887TIP3   OH226624   4.362   0.153   2.186 -0.2747  0.2738 -0.4120
 8887TIP3    H126625   4.362   0.235   2.235 -2.0194  1.1743 -1.8095
 8887TIP3    H226626   4.416   0.171   2.109 -0.8663  0.2149 -0.8495
 8888TIP3   OH226627   4.994   0.415   5.192  0.5433 -0.4032  0.5431
 8888TIP3    H126628   5.061   0.398   5.126 -0.3116 -0.7704 -0.2521
 8888TIP3    H226629   5.041   0.411   5.276  1.2580 -2.1148  0.1029
 8889TIP3   OH226630   3.077   3.239   3.728  0.5366  0.2739 -0.3353
 8889TIP3    H126631   2.984   3.234   3.752  0.7676  1.5461  0.9451
 8889TIP3    H226632   3.110   3.150   3.743 -0.3947 -0.1185 -0.5282
 8890TIP3   OH226633   0.699   5.803   0.725  0.3450 -0.4110  0.0094
 8890TIP3    H126634   0.624   5.806   0.784  0.0278  0.1398 -0.4168
 8890TIP3    H226635   0.707   5.892   0.690  2.2674  0.0316  1.3657
 8891TIP3   OH226636   6.168   1.174   3.566 -0.1910  0.0056 -0.1853
 8891TIP3    H126637   6.105   1.243   3.588  1.0080  0.7158  1.1896
 8891TIP3    H226638   6.229   1.216   3.505  0.6746  0.2703  0.8295
 8892TIP3   OH226639   6.842   1.964   1.765 -0.4453  0.4796 -0.3882
 8892TIP3    H126640   6.798   1.890   1.805 -1.4946  1.1548 -0.2790
 8892TIP3    H226641   6.899   1.999   1.834  2.8646 -2.3211 -1.4033
 8893TIP3   OH226642   4.517   4.303   1.639 -0.5427  0.1493 -0.1598
 8893TIP3    H126643   4.445   4.242   1.660  0.3204 -1.2072 -0.9551
 8893TIP3    H226644   4.547   4.335   1.724 -1.6629  0.2343  0.2220
 8894TIP3   OH226645   5.911   1.957   5.404 -0.3123  0.0408  0.2472
 8894TIP3    H126646   5.991   1.950   5.457  1.0230 -2.3605 -1.8349
 8894TIP3    H226647   5.870   1.871   5.411 -0.0344 -0.4260 -2.5248
 8895TIP3   OH226648  -0.005   4.602   5.771  0.1940 -0.7489 -0.3205
 8895TIP3    H126649   0.059   4.601   5.842 -1.0987 -0.1459  0.8977
 8895TIP3    H226650   0.006   4.688   5.731 -1.1172  0.1645  1.1463
 8896TIP3   OH226651   7.220   1.661   4.775 -0.4370  0.1312 -0.5118
 8896TIP3    H126652   7.163   1.714   4.831 -1.1457  0.9946 -2.0123
 8896TIP3    H226653   7.222   1.707   4.691  1.7823 -0.3388 -0.7863
 8897TIP3   OH226654   6.744   4.107   5.391  0.2563 -0.7015 -0.1172
 8897TIP3    H126655   6.794   4.026   5.389  1.5752  0.0851 -0.8129
 8897TIP3    H226656   6.807   4.173   5.421 -0.3991  0.3021 -0.8799
 8898TIP3   OH226657   1.700   0.941   0.688 -0.6802  0.1195 -0.5262
 8898TIP3    H126658   1.685   1.029   0.721  0.5069  0.1038  0.1015
 8898TIP3    H226659   1.783   0.914   0.727 -1.3602 -1.5560 -0.1538
 8899TIP3   OH226660   4.471   4.485   4.928 -0.6404  0.2607  0.3410
 8899TIP3    H126661   4.495   4.462   5.018 -1.2064  1.2360  0.7576
 8899TIP3    H226662   4.526   4.428   4.874 -0.3729 -0.4294  1.2948
 8900TIP3   OH226663   1.786   3.808   2.391  0.1071  0.1116 -0.1857
 8900TIP3    H126664   1.866   3.833   2.346 -0.9825  1.8019 -1.3114
 8900TIP3    H226665   1.760   3.886   2.439  0.5815 -1.2802  2.4894
 8901TIP3   OH226666   4.822   2.086   5.683 -0.3509  0.5670 -0.2237
 8901TIP3    H126667   4.793   2.091   5.774  0.3980 -1.4581  0.1848
 8901TIP3    H226668   4.761   2.025   5.641  0.7571 -0.4281 -0.4319
 8902TIP3   OH226669   2.484   0.205   4.875 -0.0107  0.0742  0.1735
 8902TIP3    H126670   2.395   0.205   4.839  0.1114  0.1234 -0.1332
 8902TIP3    H226671   2.535   0.253   4.811  0.1731  0.3404  0.5180
 8903TIP3   OH226672   0.304   2.345   3.449 -0.1273 -0.1061 -0.4648
 8903TIP3    H126673   0.326   2.383   3.364  3.1732 -0.6203  0.0315
 8903TIP3    H226674   0.246   2.271   3.428 -0.2900  0.4362 -2.1200
 8904TIP3   OH226675   3.637   2.083   3.228  0.4747  0.6095 -0.4318
 8904TIP3    H126676   3.674   2.070   3.140 -0.2498 -2.3206 -0.4040
 8904TIP3    H226677   3.695   2.034   3.286 -0.3540  0.5901  0.3978
 8905TIP3   OH226678   6.598   6.244   3.818  0.0336 -0.2131 -0.2249
 8905TIP3    H126679   6.614   6.322   3.871 -1.1005  0.8170 -1.3213
 8905TIP3    H226680   6.671   6.241   3.756 -0.6529  0.8578 -1.1300
 8906TIP3   OH226681   3.636   3.405   0.209 -0.2542 -0.4118  0.5777
 8906TIP3    H126682   3.725   3.400   0.244  0.4310  0.6440 -0.9086
 8906TIP3    H226683   3.606   3.493   0.231 -0.0228  0.0688 -0.9012
 8907TIP3   OH226684   5.227   0.747   3.116  0.4277  0.4718  0.1953
 8907TIP3    H126685   5.153   0.692   3.093  0.1673  1.1377 -0.6165
 8907TIP3    H226686   5.237   0.737   3.211 -0.6777  0.3506  0.3073
 8908TIP3   OH226687   5.028   6.382   2.626  0.0777 -0.0349  0.1993
 8908TIP3    H126688   5.061   6.298   2.595 -0.2998 -0.1490  0.1046
 8908TIP3    H226689   5.009   6.369   2.719  0.8272  0.1919  0.3879
 8909TIP3   OH226690   1.748   1.201   2.932 -0.0420 -0.1377  0.0977
 8909TIP3    H126691   1.732   1.292   2.908  1.0462  0.3595  1.1484
 8909TIP3    H226692   1.781   1.205   3.022  0.7188 -1.5018 -0.0891
 8910TIP3   OH226693   4.997   0.729   1.458 -0.6242 -0.2135 -0.7291
 8910TIP3    H126694   5.065   0.785   1.419 -0.3400 -1.8130 -2.7211
 8910TIP3    H226695   4.929   0.790   1.487  0.6575  1.2845 -0.7674
 8911TIP3   OH226696   6.525   3.618   1.507  0.3315  0.0228 -0.7669
 8911TIP3    H126697   6.603   3.673   1.505 -0.8808  1.8191 -2.4951
 8911TIP3    H226698   6.557   3.530   1.530  2.4891  1.1583  0.8749
 8912TIP3   OH226699   3.264   2.339   2.506 -0.2955  0.2193 -0.1885
 8912TIP3    H126700   3.214   2.420   2.512 -0.6525 -0.0769  1.0324
 8912TIP3    H226701   3.263   2.318   2.413 -1.2751  0.9509 -0.3624
 8913TIP3   OH226702   4.579   3.356   0.292 -0.0915 -0.1925  0.6390
 8913TIP3    H126703   4.594   3.449   0.277 -0.1498  0.0593  1.9776
 8913TIP3    H226704   4.498   3.353   0.343 -0.8126 -1.0816 -0.5104
 8914TIP3   OH226705   7.050   3.453   2.935 -0.0540  0.1102  0.3878
 8914TIP3    H126706   7.090   3.374   2.900 -0.2589 -0.1845  0.8094
 8914TIP3    H226707   7.014   3.426   3.020 -0.5843  0.5248  0.3000
 8915TIP3   OH226708   1.718   4.704   5.005 -0.3244  0.0288  0.4641
 8915TIP3    H126709   1.642   4.729   5.058 -1.4895 -1.8361 -0.2143
 8915TIP3    H226710   1.682   4.645   4.938  1.8310 -1.4293  0.4943
 8916TIP3   OH226711   2.183   2.493   4.773 -0.1302  0.2475  0.2896
 8916TIP3    H126712   2.222   2.516   4.689 -1.2307  0.4906 -0.1780
 8916TIP3    H226713   2.175   2.577   4.819 -0.0581  0.1976  0.3916
 8917TIP3   OH226714   3.904   4.172   4.788  0.4974  0.1866 -0.1044
 8917TIP3    H126715   3.884   4.087   4.827  1.8373 -0.1031 -0.0097
 8917TIP3    H226716   3.920   4.153   4.696  3.9923 -0.2780  0.4443
 8918TIP3   OH226717   5.264   5.944   1.847 -0.2212 -0.4029  0.4704
 8918TIP3    H126718   5.287   5.879   1.913 -0.1293 -0.0564  0.7805
 8918TIP3    H226719   5.182   5.912   1.810 -1.8364  0.8308  2.7313
 8919TIP3   OH226720   4.104   0.581   3.112  0.4478 -0.1300  0.4137
 8919TIP3    H126721   4.024   0.541   3.078  0.5494  0.5596 -0.6657
 8919TIP3    H226722   4.128   0.647   3.047  0.6633  1.2292  1.8041
 8920TIP3   OH226723   6.399   3.881   5.669  0.2036  0.3611 -0.4175
 8920TIP3    H126724   6.431   3.798   5.635 -1.6015  0.4268 -2.5014
 8920TIP3    H226725   6.390   3.937   5.591 -0.6127  1.8086  0.6573
 8921TIP3   OH226726   7.115   4.621   3.157 -0.1352  0.5072 -0.2384
 8921TIP3    H126727   7.123   4.527   3.174 -1.3375  0.4386  0.0344
 8921TIP3    H226728   7.055   4.627   3.083 -1.3138  1.0988  0.7289
 8922TIP3   OH226729   6.766   0.640   3.601 -0.6003  0.4844  0.1542
 8922TIP3    H126730   6.703   0.604   3.539 -0.8557  0.6631  0.3075
 8922TIP3    H226731   6.754   0.586   3.680 -0.3476  0.3222  0.0819
 8923TIP3   OH226732   5.218   0.109   2.042  0.0267  0.5127 -0.1449
 8923TIP3    H126733   5.220   0.020   2.007 -0.0403  0.7876 -0.8788
 8923TIP3    H226734   5.128   0.124   2.068  0.3013 -0.0803  1.1976
 8924TIP3   OH226735   4.356   4.524   5.283  0.4384 -0.2079 -0.1636
 8924TIP3    H126736   4.269   4.549   5.252  0.2634 -0.7000 -0.0877
 8924TIP3    H226737   4.342   4.490   5.371  0.7346 -0.1208 -0.0807
 8925TIP3   OH226738   1.347   1.189   1.822  0.4410  0.3546  0.1168
 8925TIP3    H126739   1.373   1.177   1.913  1.1682  0.5931 -0.0461
 8925TIP3    H226740   1.408   1.134   1.772 -1.7480 -2.0685 -0.0784
 8926TIP3   OH226741   3.233   2.790   5.438  0.0485 -0.3520  0.0496
 8926TIP3    H126742   3.300   2.731   5.471  1.0495  0.9960  0.5397
 8926TIP3    H226743   3.269   2.878   5.452 -2.0154  0.4467  0.7482
 8927TIP3   OH226744   0.285   3.738   1.960 -0.0684  0.0413 -0.0273
 8927TIP3    H126745   0.336   3.819   1.959 -0.8725  0.5566  0.1367
 8927TIP3    H226746   0.319   3.687   1.886  1.3032 -0.0233  0.6308
 8928TIP3   OH226747   3.351   0.156   0.269 -0.7058 -0.0249  0.2115
 8928TIP3    H126748   3.321   0.106   0.346 -0.3830  2.4607  2.0630
 8928TIP3    H226749   3.445   0.167   0.283 -0.2086 -1.2997 -1.6972
 8929TIP3   OH226750   5.635   2.068   0.914  0.3160 -0.3406 -0.3871
 8929TIP3    H126751   5.558   2.036   0.866 -0.7612 -0.0626  1.0793
 8929TIP3    H226752   5.670   2.137   0.858 -1.3801  0.5226 -0.4730
 8930TIP3   OH226753   3.205   1.291   2.954  0.2378  0.7662  0.1362
 8930TIP3    H126754   3.176   1.232   3.023 -0.6172 -0.2752 -1.0583
 8930TIP3    H226755   3.280   1.337   2.991 -0.9010  1.1083  2.1441
 8931TIP3   OH226756   5.128   3.743   5.586 -0.2119  0.0268  0.0905
 8931TIP3    H126757   5.152   3.702   5.670  0.0845  0.5299  0.2518
 8931TIP3    H226758   5.123   3.669   5.525 -2.2079 -0.5910  0.9320
 8932TIP3   OH226759   3.346   0.735   4.508  0.3343  0.2312 -0.0025
 8932TIP3    H126760   3.408   0.700   4.445 -0.1510 -0.4471 -0.1095
 8932TIP3    H226761   3.314   0.659   4.557  1.0668  0.7917  1.4070
 8933TIP3   OH226762   2.574   1.317   5.350 -0.2537 -0.0327  0.0842
 8933TIP3    H126763   2.566   1.238   5.403  0.0831 -0.5881 -0.6756
 8933TIP3    H226764   2.484   1.344   5.333 -0.3815 -0.5748 -0.1213
 8934TIP3   OH226765   4.597   2.677   4.481 -0.4739  0.3818  0.8662
 8934TIP3    H126766   4.530   2.745   4.478  0.9879  1.8475 -0.5167
 8934TIP3    H226767   4.614   2.655   4.389  1.0886  0.2404  1.1523
 8935TIP3   OH226768   2.737   1.012   3.446 -0.4355  0.5272  0.8741
 8935TIP3    H126769   2.694   0.984   3.527 -3.0983  1.3080 -0.1803
 8935TIP3    H226770   2.689   0.969   3.376  0.2776  1.7141 -0.4145
 8936TIP3   OH226771   6.583   4.593   0.338  0.0424  0.0010 -0.4815
 8936TIP3    H126772   6.534   4.569   0.259  0.1473  0.3024 -0.6375
 8936TIP3    H226773   6.534   4.666   0.375  0.6690  0.6586 -0.9318
 8937TIP3   OH226774   6.100   2.311   4.504 -0.8348 -0.2470  0.2414
 8937TIP3    H126775   6.167   2.343   4.565  1.1883  0.8189 -2.3251
 8937TIP3    H226776   6.037   2.383   4.497 -1.5210 -0.6844  1.5837
 8938TIP3   OH226777   2.911   3.272   1.345  0.0733 -0.4080 -0.5400
 8938TIP3    H126778   2.960   3.330   1.286  0.4393 -1.9264 -1.8052
 8938TIP3    H226779   2.819   3.291   1.327  0.1910 -0.1356 -0.8623
 8939TIP3   OH226780   0.089   3.869   0.897 -0.5501 -0.3615 -0.0252
 8939TIP3    H126781   0.113   3.787   0.940  0.0716  0.3276  0.9904
 8939TIP3    H226782   0.169   3.921   0.897 -0.4613 -0.4380 -2.3374
 8940TIP3   OH226783   3.817   3.987   4.560  0.3370  0.2043  0.0334
 8940TIP3    H126784   3.851   3.980   4.471  1.7572  0.8926  0.4925
 8940TIP3    H226785   3.735   4.036   4.551  0.8050  0.8429 -0.8329
 8941TIP3   OH226786   2.670   5.113   1.739 -0.4311 -0.0987  0.5390
 8941TIP3    H126787   2.675   5.125   1.834 -0.7802  1.3633  0.3914
 8941TIP3    H226788   2.587   5.154   1.714 -0.1666 -0.1451 -0.4389
 8942TIP3   OH226789   2.287   0.449   1.608  0.1864 -0.0039  0.0990
 8942TIP3    H126790   2.290   0.450   1.703 -0.8533 -1.3609  0.1874
 8942TIP3    H226791   2.216   0.508   1.585 -1.0459 -1.3597  0.3085
 8943TIP3   OH226792   6.280   5.888   4.101 -0.3720  0.6945 -0.7531
 8943TIP3    H126793   6.243   5.826   4.038  0.3802 -2.2994  1.4746
 8943TIP3    H226794   6.374   5.872   4.098 -0.3219  0.3320  1.1425
 8944TIP3   OH226795   4.787   1.030   3.398  0.4313  0.2346 -0.1066
 8944TIP3    H126796   4.856   1.035   3.331  1.7288  0.9211  1.2321
 8944TIP3    H226797   4.740   1.112   3.390  0.5088  0.2644 -0.2623
 8945TIP3   OH226798   0.307   5.683   3.267  0.5066 -0.2676 -0.7028
 8945TIP3    H126799   0.271   5.611   3.319  0.6894 -0.0037 -0.2032
 8945TIP3    H226800   0.397   5.693   3.298 -0.2886  1.9404  1.2206
 8946TIP3   OH226801   3.411   1.991   3.428 -0.7558  0.5550 -0.1118
 8946TIP3    H126802   3.444   2.077   3.402  1.7688 -0.0188  0.9007
 8946TIP3    H226803   3.413   1.939   3.347 -0.6888  0.9801 -0.3874
 8947TIP3   OH226804   6.526   3.342   1.721  1.1493  0.6485 -0.0704
 8947TIP3    H126805   6.482   3.306   1.645 -1.2715  1.0167  1.0780
 8947TIP3    H226806   6.522   3.273   1.787 -1.3878  2.0294  1.3527
 8948TIP3   OH226807   5.389   6.237   3.479 -0.4548 -0.7201 -0.5604
 8948TIP3    H126808   5.345   6.251   3.563 -0.8461 -2.4405 -0.4340
 8948TIP3    H226809   5.373   6.145   3.460 -0.4858 -0.3316 -2.6028
 8949TIP3   OH226810   0.485   0.638   3.837  0.0966  0.0818  0.1735
 8949TIP3    H126811   0.396   0.603   3.834  0.2060 -0.1815 -0.0378
 8949TIP3    H226812   0.510   0.630   3.930 -0.1198  0.2122  0.2438
 8950TIP3   OH226813   3.816   2.882   5.421  0.5778 -0.6085  0.1714
 8950TIP3    H126814   3.810   2.862   5.328 -0.4204 -0.1535  0.1247
 8950TIP3    H226815   3.812   2.977   5.426 -1.9047 -0.6726  0.7923
 8951TIP3   OH226816   1.681   2.570   3.437 -0.2440 -0.0598 -0.0904
 8951TIP3    H126817   1.611   2.521   3.393  0.6134 -1.0346 -0.4217
 8951TIP3    H226818   1.694   2.647   3.382 -1.0273  0.1161 -0.0451
 8952TIP3   OH226819   5.131   3.219   2.291  0.2546 -0.0186  0.4320
 8952TIP3    H126820   5.094   3.233   2.204 -0.2927  0.7127  0.7653
 8952TIP3    H226821   5.125   3.124   2.305 -1.3065  0.0401  0.3726
 8953TIP3   OH226822   5.184   0.446   3.249 -0.0122  0.3036 -0.1740
 8953TIP3    H126823   5.099   0.489   3.249  0.7652  1.9438 -1.0611
 8953TIP3    H226824   5.181   0.387   3.173 -0.7964 -0.6821  0.5862
 8954TIP3   OH226825   1.984   1.228   0.392  0.4197 -0.4014  0.2162
 8954TIP3    H126826   1.998   1.270   0.307  1.5866 -2.5784 -0.7548
 8954TIP3    H226827   2.067   1.240   0.438  0.2748 -0.4559  0.4924
 8955TIP3   OH226828   1.059   6.095   5.632  0.2456  1.0023 -0.2367
 8955TIP3    H126829   0.975   6.124   5.597 -1.0011 -1.1942  0.7252
 8955TIP3    H226830   1.114   6.081   5.556 -1.0724  0.1694 -1.0666
 8956TIP3   OH226831   7.143   5.495   1.637  0.3812 -0.2584  0.0866
 8956TIP3    H126832   7.062   5.542   1.657 -0.4713 -2.1559  1.4039
 8956TIP3    H226833   7.212   5.560   1.647 -1.0014  1.9296 -2.9032
 8957TIP3   OH226834   5.847   3.452   0.572  0.0687 -0.5481 -0.0983
 8957TIP3    H126835   5.803   3.530   0.539 -0.5186 -0.3007  1.2193
 8957TIP3    H226836   5.783   3.382   0.561  0.5410 -0.8423 -1.1398
 8958TIP3   OH226837   4.264   6.410   0.870  0.3776  0.0002 -0.5245
 8958TIP3    H126838   4.310   6.340   0.824 -0.0617  0.9153 -2.4803
 8958TIP3    H226839   4.174   6.378   0.879 -0.1815  0.7997 -2.6950
 8959TIP3   OH226840   3.010   0.624   2.195  0.1761  0.3444 -0.3219
 8959TIP3    H126841   3.098   0.641   2.228  0.8470  0.0277 -1.8573
 8959TIP3    H226842   3.014   0.648   2.102 -1.3169  0.1706 -0.4611
 8960TIP3   OH226843   5.364   6.601   4.314 -0.3747 -0.1211 -0.4698
 8960TIP3    H126844   5.401   6.513   4.301 -1.5690 -0.7010 -0.0723
 8960TIP3    H226845   5.384   6.623   4.405 -0.5039 -0.1873 -0.4254
 8961TIP3   OH226846   1.943   2.045   1.863  0.7104 -0.2258 -0.3504
 8961TIP3    H126847   1.949   2.141   1.857  0.3139 -0.0568  1.4786
 8961TIP3    H226848   2.024   2.019   1.906  0.0326 -0.5101  0.7895
 8962TIP3   OH226849   0.730   1.414   1.943  0.6206 -0.1599  0.7686
 8962TIP3    H126850   0.747   1.506   1.924 -0.9476 -0.3360 -2.2151
 8962TIP3    H226851   0.777   1.396   2.024 -0.0908  3.5826  2.1875
 8963TIP3   OH226852   5.164   0.584   2.222 -0.0075 -0.1588 -0.2357
 8963TIP3    H126853   5.154   0.566   2.129  1.8752  1.4115 -0.8138
 8963TIP3    H226854   5.086   0.632   2.247 -1.3398 -2.0596 -0.5331
 8964TIP3   OH226855   7.001   2.203   3.096 -0.3061 -0.2645 -0.4393
 8964TIP3    H126856   6.960   2.283   3.131 -0.1562 -1.1692  2.0109
 8964TIP3    H226857   7.088   2.202   3.136 -0.5108 -1.9006  0.0393
 8965TIP3   OH226858   4.885   1.172   4.146  0.3133 -0.6117  0.3561
 8965TIP3    H126859   4.908   1.095   4.197  2.3931  0.6492  1.5003
 8965TIP3    H226860   4.818   1.217   4.199  0.1062 -0.9280  0.3649
 8966TIP3   OH226861   6.660   6.703   4.069 -0.3056  0.0425  0.2019
 8966TIP3    H126862   6.679   6.722   4.161  0.2908 -0.8134  0.2627
 8966TIP3    H226863   6.715   6.765   4.020  1.4685 -1.2868  0.4032
 8967TIP3   OH226864   3.717   5.370   3.301  0.2136  0.2029  0.3358
 8967TIP3    H126865   3.805   5.395   3.329  0.5371 -0.5233  0.0052
 8967TIP3    H226866   3.689   5.305   3.365  0.4573 -0.5381 -0.2873
 8968TIP3   OH226867   4.207   5.448   5.787  0.3354  0.2267  0.4409
 8968TIP3    H126868   4.256   5.433   5.867  1.6443  0.7975 -0.2191
 8968TIP3    H226869   4.273   5.474   5.722 -0.3049 -2.5813 -1.5176
 8969TIP3   OH226870   5.403   0.814   2.458  0.5964 -0.7383 -0.2842
 8969TIP3    H126871   5.414   0.885   2.521 -2.3779  0.8159 -1.3219
 8969TIP3    H226872   5.471   0.750   2.481  2.0224  1.4446  2.0435
 8970TIP3   OH226873   4.345   5.618   1.000  0.6723  0.1968  0.4151
 8970TIP3    H126874   4.272   5.677   1.020 -0.2199 -0.6504 -0.2643
 8970TIP3    H226875   4.312   5.562   0.930  1.2495 -1.5603  1.4885
 8971TIP3   OH226876   1.590   3.216   2.756  0.2264  0.0281  0.2881
 8971TIP3    H126877   1.549   3.274   2.692 -0.3157  0.6495  1.1739
 8971TIP3    H226878   1.663   3.175   2.708  0.7860  1.6182 -0.2977
 8972TIP3   OH226879   2.796   1.798   3.216 -0.3562  0.0852  0.6548
 8972TIP3    H126880   2.808   1.893   3.218  1.2840 -0.0588 -0.2340
 8972TIP3    H226881   2.742   1.783   3.138  1.0830  0.1790 -0.3984
 8973TIP3   OH226882   3.795   4.770   5.060  0.0292  0.4955  0.2776
 8973TIP3    H126883   3.829   4.763   5.149  0.7754 -0.1371 -0.0456
 8973TIP3    H226884   3.786   4.864   5.044 -0.8832  0.5969  1.3033
 8974TIP3   OH226885   0.735   5.498   3.693  0.1919  0.0021  0.1079
 8974TIP3    H126886   0.762   5.583   3.727  0.9802  0.6945 -2.0549
 8974TIP3    H226887   0.790   5.435   3.739 -1.2234  0.4885  2.6042
 8975TIP3   OH226888   0.120   1.406   0.816  0.3062  0.8595  0.4986
 8975TIP3    H126889   0.205   1.450   0.820  0.4804  0.8197 -1.6700
 8975TIP3    H226890   0.081   1.438   0.735 -0.6134 -1.1167  0.1196
 8976TIP3   OH226891   2.442   3.791   4.820 -0.1685 -0.6846 -0.3726
 8976TIP3    H126892   2.433   3.724   4.752 -0.5542  0.2889 -1.3018
 8976TIP3    H226893   2.374   3.770   4.883 -0.1212 -1.3121 -0.5146
 8977TIP3   OH226894   0.080   0.817   0.767 -0.2227 -0.0749 -0.1317
 8977TIP3    H126895   0.073   0.769   0.849  1.0660 -0.6552 -0.3246
 8977TIP3    H226896   0.028   0.896   0.780 -1.1783 -0.8247  0.7268
 8978TIP3   OH226897   0.441   5.919   3.497 -0.2495  0.2340 -0.5868
 8978TIP3    H126898   0.440   6.011   3.473  0.5869  0.3224 -0.2953
 8978TIP3    H226899   0.349   5.898   3.515 -0.3243  1.2816  0.3824
 8979TIP3   OH226900   2.304   4.444   2.599 -0.3825 -0.1317  0.2729
 8979TIP3    H126901   2.358   4.366   2.586 -0.7589 -0.3126 -0.2576
 8979TIP3    H226902   2.215   4.409   2.607 -0.5866  0.2616 -0.2437
 8980TIP3   OH226903   2.649   4.620   4.814 -0.2055  0.1363 -0.2015
 8980TIP3    H126904   2.682   4.710   4.815 -1.1620  0.6854 -3.4518
 8980TIP3    H226905   2.561   4.626   4.852  0.5101  0.1093  1.5372
 8981TIP3   OH226906   4.043   5.426   4.344  0.0879 -0.7260  0.5025
 8981TIP3    H126907   4.085   5.455   4.263  2.9240 -1.0711  1.7333
 8981TIP3    H226908   4.004   5.341   4.322  1.0640 -0.9446 -0.4457
 8982TIP3   OH226909   3.743   1.745   0.332 -0.3343  0.0446  0.2732
 8982TIP3    H126910   3.791   1.693   0.396 -1.8008 -1.8703 -0.0969
 8982TIP3    H226911   3.795   1.825   0.322  2.6789 -1.7909  0.0201
 8983TIP3   OH226912   0.522   0.723   3.338 -0.0807  0.1410  0.2521
 8983TIP3    H126913   0.599   0.777   3.356  1.0573 -1.2135 -0.3024
 8983TIP3    H226914   0.480   0.711   3.423  1.1659 -0.2908  0.8398
 8984TIP3   OH226915   5.251   1.434   2.429  0.1207 -0.0696 -0.4556
 8984TIP3    H126916   5.342   1.456   2.412  0.4137 -0.0977  0.9752
 8984TIP3    H226917   5.242   1.438   2.524 -1.1445 -0.9540 -0.5050
 8985TIP3   OH226918   6.110   6.599   4.673 -0.6582 -0.2846 -0.6586
 8985TIP3    H126919   6.043   6.664   4.695  0.3229  0.1540  1.2620
 8985TIP3    H226920   6.081   6.561   4.591 -3.0794  0.1298 -0.0551
 8986TIP3   OH226921   6.144   4.598   0.067 -0.3403 -0.4730  0.7315
 8986TIP3    H126922   6.054   4.566   0.070 -0.2933 -0.7184 -0.1763
 8986TIP3    H226923   6.146   4.656  -0.009 -0.1876  0.9887  1.8016
 8987TIP3   OH226924   0.658   3.333   5.286  0.6897  0.4621  0.0757
 8987TIP3    H126925   0.609   3.404   5.327 -1.0694 -2.1454  2.9725
 8987TIP3    H226926   0.603   3.306   5.212 -0.8294 -0.4809  1.4840
 8988TIP3   OH226927   3.650   6.746   3.622 -0.4291  0.0362 -0.2650
 8988TIP3    H126928   3.658   6.705   3.536 -0.8466 -0.6252  0.0033
 8988TIP3    H226929   3.673   6.677   3.684  0.6082  0.7228  0.1383
 8989TIP3   OH226930   5.117   4.537   2.064  0.1398 -0.0887  0.4581
 8989TIP3    H126931   5.189   4.496   2.111  0.4508  1.1343  1.0923
 8989TIP3    H226932   5.041   4.526   2.122  0.0177 -0.5505  0.2154
 8990TIP3   OH226933   1.363   5.010   4.843 -0.2898  0.3324 -0.6572
 8990TIP3    H126934   1.351   4.916   4.839 -0.1857  0.2935 -0.1416
 8990TIP3    H226935   1.382   5.036   4.753 -0.4528 -0.1168 -0.8246
 8991TIP3   OH226936   6.686   0.446   4.108 -0.1116  0.2205 -0.5510
 8991TIP3    H126937   6.686   0.365   4.158 -0.3903 -0.7300 -2.0267
 8991TIP3    H226938   6.618   0.499   4.149  0.0971 -0.2567  0.4525
 8992TIP3   OH226939   3.892   2.722   2.958 -0.0760  0.5151 -0.3966
 8992TIP3    H126940   3.848   2.638   2.942  1.0705 -0.2023  0.0763
 8992TIP3    H226941   3.936   2.742   2.875 -1.2008  1.2133 -0.8568
 8993TIP3   OH226942   6.337   3.312   4.629 -0.6665  0.1840  0.1582
 8993TIP3    H126943   6.246   3.335   4.610 -0.6399 -0.8652 -1.4125
 8993TIP3    H226944   6.377   3.394   4.660 -1.9753  0.7911  0.2886
 8994TIP3   OH226945   5.296   6.570   5.871 -0.0417  0.1647 -0.2438
 8994TIP3    H126946   5.328   6.599   5.786 -3.3012 -0.3764 -1.7958
 8994TIP3    H226947   5.372   6.529   5.913  1.5857  0.1652 -2.9914
 8995TIP3   OH226948   4.154   1.517   4.038  0.3684 -0.6484  0.0757
 8995TIP3    H126949   4.215   1.459   4.083  1.3486 -0.6947 -1.2403
 8995TIP3    H226950   4.078   1.522   4.096  0.5155 -2.7354  0.5305
 8996TIP3   OH226951   2.407   5.191   0.032 -0.1981 -0.7358 -0.3130
 8996TIP3    H126952   2.331   5.204  -0.024 -1.7592  0.6983  1.9597
 8996TIP3    H226953   2.384   5.113   0.084 -0.7116  0.3769  1.1883
 8997TIP3   OH226954  -0.001   1.077   5.848  0.3071 -0.0566 -0.3047
 8997TIP3    H126955   0.092   1.094   5.832  0.6291 -0.0003  1.4147
 8997TIP3    H226956  -0.041   1.080   5.761  1.2662  3.8877 -0.8415
 8998TIP3   OH226957   1.314   0.983   2.274 -1.0141  0.0131 -0.1961
 8998TIP3    H126958   1.372   1.001   2.349 -0.3644 -0.7480 -0.5040
 8998TIP3    H226959   1.238   1.040   2.289 -1.2368 -0.6422  1.4307
 8999TIP3   OH226960   4.580   3.554   1.439 -0.7809  0.2312 -0.3852
 8999TIP3    H126961   4.654   3.581   1.494  0.3611 -0.1078 -1.7034
 8999TIP3    H226962   4.534   3.488   1.491  0.0732  0.1537  0.2920
 9000TIP3   OH226963   6.116   1.691   1.614  0.0897 -0.9568 -0.1039
 9000TIP3    H126964   6.183   1.746   1.573 -0.7933  1.3735  1.3976
 9000TIP3    H226965   6.033   1.723   1.578 -0.4401 -1.5591  0.5375
 9001TIP3   OH226966   0.322   4.441   0.311  0.2044  0.4347 -0.2072
 9001TIP3    H126967   0.284   4.493   0.382  0.9259  0.0607  0.4763
 9001TIP3    H226968   0.348   4.359   0.354  1.2798  0.4778 -0.7588
 9002TIP3   OH226969   1.862   2.473   3.756  0.3066 -0.2185  0.5422
 9002TIP3    H126970   1.903   2.552   3.720  0.6493 -0.8342 -0.4931
 9002TIP3    H226971   1.793   2.505   3.813 -0.5714  0.8364 -1.0409
 9003TIP3   OH226972   5.206   0.476   1.952 -0.1590 -0.2892  0.2192
 9003TIP3    H126973   5.130   0.434   1.911 -1.8116  1.0335  1.7968
 9003TIP3    H226974   5.241   0.534   1.884  0.7521 -2.4012 -1.2041
 9004TIP3   OH226975   0.318   6.583   1.879  0.4542 -0.1609  0.3092
 9004TIP3    H126976   0.281   6.541   1.957  0.8377 -0.2864  0.4230
 9004TIP3    H226977   0.282   6.672   1.881  0.6730 -0.0792  0.7748
 9005TIP3   OH226978   3.720   0.488   1.862 -0.1158 -0.0717  0.2613
 9005TIP3    H126979   3.670   0.546   1.920  0.3724  0.0156  0.6024
 9005TIP3    H226980   3.803   0.534   1.849  0.5168 -0.9563  1.0224
 9006TIP3   OH226981   1.420   6.449   5.048 -0.0671 -0.6606 -0.1543
 9006TIP3    H126982   1.501   6.401   5.065  0.6207 -0.8008 -3.2062
 9006TIP3    H226983   1.371   6.443   5.130  3.1796 -0.0947  2.0139
 9007TIP3   OH226984   4.826   4.633   1.097 -0.0948 -0.0950 -0.0079
 9007TIP3    H126985   4.774   4.553   1.108  0.1424 -0.3319 -0.5675
 9007TIP3    H226986   4.762   4.701   1.078 -0.1784 -0.4947 -1.2574
 9008TIP3   OH226987   5.060   1.090   2.172 -0.0761  0.3619 -0.4126
 9008TIP3    H126988   4.976   1.053   2.201 -0.3583  0.0158 -1.5798
 9008TIP3    H226989   5.109   1.105   2.252 -0.7292 -0.7077  0.2166
 9009TIP3   OH226990   6.231   6.337   4.576  0.4167  0.3555 -0.4347
 9009TIP3    H126991   6.204   6.392   4.502  0.9319 -0.7262 -1.4569
 9009TIP3    H226992   6.327   6.338   4.573  0.4346 -0.7621 -0.6124
 9010TIP3   OH226993   3.408   0.533   5.812 -0.0260 -0.3676  0.5742
 9010TIP3    H126994   3.331   0.498   5.857 -0.9498  1.5069  0.5263
 9010TIP3    H226995   3.465   0.564   5.883  0.9928 -2.1921  0.6404
 9011TIP3   OH226996   0.238   4.295   0.800 -0.2378 -0.1926  0.1506
 9011TIP3    H126997   0.195   4.221   0.757  1.6880 -0.3313 -1.7205
 9011TIP3    H226998   0.331   4.284   0.778  0.4792  1.3211  2.1001
 9012TIP3   OH226999   4.615   0.052   2.372 -0.0048  0.2879  0.6281
 9012TIP3    H127000   4.539  -0.005   2.362  1.2520 -1.3495 -0.0067
 9012TIP3    H227001   4.690  -0.007   2.365  1.3349  1.9029  0.9069
 9013TIP3   OH227002   2.227   3.612   3.005 -0.0228  0.1369 -0.0180
 9013TIP3    H127003   2.254   3.564   3.083 -0.5910  0.1778  0.2096
 9013TIP3    H227004   2.191   3.544   2.947 -0.4818  0.2336  0.1508
 9014TIP3   OH227005   5.391   3.718   5.428 -0.2704 -0.3604 -0.5612
 9014TIP3    H127006   5.305   3.678   5.432 -0.1944 -0.6561 -1.6592
 9014TIP3    H227007   5.444   3.666   5.490 -1.3618  1.1706  1.8105
 9015TIP3   OH227008   3.474   2.985   3.583  0.6743 -0.1689  0.0394
 9015TIP3    H127009   3.529   3.004   3.507  0.5980  0.3320  0.1064
 9015TIP3    H227010   3.440   2.897   3.567  0.3620  0.0794 -0.6895
 9016TIP3   OH227011   3.656   6.330   3.872  0.1585 -0.5251  0.0939
 9016TIP3    H127012   3.657   6.268   3.945  1.2584 -0.6973 -0.0566
 9016TIP3    H227013   3.563   6.341   3.852 -0.2731  0.3313  2.2047
 9017TIP3   OH227014   3.620   3.964   2.338  0.6208 -0.5210 -0.2204
 9017TIP3    H127015   3.665   3.951   2.255  0.6628  1.1800 -0.4811
 9017TIP3    H227016   3.636   4.055   2.361 -1.8908 -0.1106  0.1563
 9018TIP3   OH227017   0.665   1.982   3.475  0.4382 -0.2219  0.9020
 9018TIP3    H127018   0.735   2.043   3.499  1.1508 -0.9449  0.7323
 9018TIP3    H227019   0.707   1.896   3.476 -0.1624 -0.5641 -0.3082
 9019TIP3   OH227020   4.242   3.093   5.516 -0.4223  0.7342  0.0395
 9019TIP3    H127021   4.198   3.041   5.449 -1.9131  0.3733  1.2375
 9019TIP3    H227022   4.272   3.172   5.470 -1.6763  0.6352 -0.9888
 9020TIP3   OH227023   4.760   6.179   4.230  0.5990 -0.4762  0.6892
 9020TIP3    H127024   4.668   6.176   4.256  0.8344 -0.5604  1.5294
 9020TIP3    H227025   4.758   6.165   4.135 -0.3508  0.7545  0.4888
 9021TIP3   OH227026   1.777   4.621   3.389 -0.1604  0.1502  0.0530
 9021TIP3    H127027   1.840   4.550   3.375 -0.6287 -0.5547  1.3301
 9021TIP3    H227028   1.779   4.635   3.484 -3.2070 -1.1487  0.4075
 9022TIP3   OH227029   4.038   6.169   1.097 -0.2190  0.3780  0.1126
 9022TIP3    H127030   4.008   6.215   1.019  1.0030  1.9434  0.5257
 9022TIP3    H227031   4.114   6.119   1.069  0.0998  0.7809  0.2648
 9023TIP3   OH227032   6.136   2.704   4.938 -0.0470 -0.3057  0.1470
 9023TIP3    H127033   6.146   2.791   4.899  0.3643 -0.4424 -0.0525
 9023TIP3    H227034   6.058   2.712   4.993  0.0836  0.2353  0.2593
 9024TIP3   OH227035   2.375   0.365   3.328  0.1872  0.1397 -0.0572
 9024TIP3    H127036   2.444   0.394   3.270  0.0026  0.3977 -0.1482
 9024TIP3    H227037   2.320   0.309   3.273 -0.5350  1.1600 -0.4019
 9025TIP3   OH227038   1.412   2.205   2.594 -0.2082  0.5997  0.6641
 9025TIP3    H127039   1.365   2.264   2.653  0.4410 -0.0278  1.8431
 9025TIP3    H227040   1.487   2.255   2.564 -1.4580  1.5312 -1.0505
 9026TIP3   OH227041   3.633   5.617   5.199 -0.0524 -0.0514 -0.0021
 9026TIP3    H127042   3.719   5.574   5.198 -0.9771 -1.9977 -0.6633
 9026TIP3    H227043   3.646   5.695   5.253  1.6554 -1.3017  1.5295
 9027TIP3   OH227044   0.695   1.870   5.837  0.1125 -0.1940  0.3263
 9027TIP3    H127045   0.764   1.922   5.878  1.6074 -1.3066 -0.6813
 9027TIP3    H227046   0.613   1.907   5.872  1.2293  0.0637  2.8827
 9028TIP3   OH227047   5.844   1.062   0.353 -0.5516 -0.2164 -0.2806
 9028TIP3    H127048   5.896   1.011   0.416 -1.2791 -0.4098  0.1724
 9028TIP3    H227049   5.896   1.141   0.338 -1.2157  0.7418  2.0347
 9029TIP3   OH227050   6.320   3.109   3.483  0.1832  0.2433  0.4516
 9029TIP3    H127051   6.364   3.194   3.492  0.2408  0.3751 -0.9229
 9029TIP3    H227052   6.255   3.123   3.414 -1.1350 -0.3177  1.5363
 9030TIP3   OH227053   0.043   1.166   4.176  0.0081  0.5018 -0.5294
 9030TIP3    H127054   0.087   1.226   4.236  0.3836  0.4357 -0.7362
 9030TIP3    H227055   0.113   1.110   4.142 -0.6420 -1.8778  1.7272
 9031TIP3   OH227056   6.028   2.235   3.939 -0.0976  0.1136  0.7080
 9031TIP3    H127057   6.119   2.204   3.933  0.1183  0.6395  1.1771
 9031TIP3    H227058   5.980   2.159   3.974  0.0676 -0.3186  0.0156
 9032TIP3   OH227059   2.170   3.095   1.794  0.5970  0.3309 -0.0965
 9032TIP3    H127060   2.156   3.015   1.743  0.6897 -0.2981  0.8453
 9032TIP3    H227061   2.231   3.147   1.741  1.5769 -0.7992 -0.1158
 9033TIP3   OH227062   1.899   4.265   3.973  0.5344 -0.0775  0.4316
 9033TIP3    H127063   1.876   4.234   4.060  1.7775  0.5184  1.0021
 9033TIP3    H227064   1.832   4.229   3.915 -1.3377  0.9639  1.8650
 9034TIP3   OH227065   1.933   2.189   2.109 -0.2994  0.1178 -0.3479
 9034TIP3    H127066   1.909   2.137   2.033  1.1175 -1.0169 -0.0693
 9034TIP3    H227067   1.882   2.153   2.181  1.1100 -1.3636 -0.0322
 9035TIP3   OH227068   2.638   6.083   3.469  0.0628  0.1931  0.4892
 9035TIP3    H127069   2.630   6.058   3.377  1.2159  0.9078  0.1594
 9035TIP3    H227070   2.720   6.133   3.472 -0.2644  0.6864  1.7932
 9036TIP3   OH227071   6.063   6.511   4.415 -0.1962  0.0272  0.2332
 9036TIP3    H127072   6.075   6.464   4.333 -1.3214 -0.1487  0.1635
 9036TIP3    H227073   6.053   6.603   4.389 -2.7794 -0.2667 -0.0622
 9037TIP3   OH227074   0.948   5.701   2.179  0.3182 -0.2635 -0.3106
 9037TIP3    H127075   0.872   5.737   2.133 -0.5830 -1.0972  0.4890
 9037TIP3    H227076   1.007   5.776   2.190 -0.7624  0.5937 -0.2002
 9038TIP3   OH227077   5.300   4.587   5.359  0.3100  0.1452  0.1018
 9038TIP3    H127078   5.313   4.560   5.268 -1.1682  2.5752 -0.9257
 9038TIP3    H227079   5.215   4.629   5.360  0.5181  0.6656  2.5349
 9039TIP3   OH227080   5.663   3.175   3.034  0.1230 -0.0272  0.0455
 9039TIP3    H127081   5.727   3.235   2.995  2.9434 -1.1623  2.5791
 9039TIP3    H227082   5.689   3.088   3.004 -0.4120 -0.5033  0.9148
 9040TIP3   OH227083   2.497   1.711   4.021 -0.4826  0.4792 -0.0874
 9040TIP3    H127084   2.440   1.730   3.946  1.9702  0.2029 -2.1406
 9040TIP3    H227085   2.511   1.797   4.062 -2.1885  0.5716  0.3909
 9041TIP3   OH227086   2.349   6.649   0.818 -0.3609  0.5619  0.4796
 9041TIP3    H127087   2.255   6.641   0.809 -0.4180  0.3238  1.1873
 9041TIP3    H227088   2.365   6.637   0.912  0.6705 -2.9496 -0.0054
 9042TIP3   OH227089   5.710   3.633   1.809  0.0555 -0.2732  0.4662
 9042TIP3    H127090   5.651   3.565   1.841 -2.0861  1.0473 -0.4347
 9042TIP3    H227091   5.689   3.710   1.862  0.1630  0.5308 -0.6303
 9043TIP3   OH227092   4.614   1.691   2.591  0.1225  0.4897 -0.1459
 9043TIP3    H127093   4.678   1.678   2.661 -0.2278  1.2885  0.3279
 9043TIP3    H227094   4.667   1.697   2.511  0.5050 -0.7939 -0.0250
 9044TIP3   OH227095   3.447   3.336   1.819 -0.4265  0.4706 -0.1074
 9044TIP3    H127096   3.522   3.350   1.760 -1.0686  0.0337 -1.0487
 9044TIP3    H227097   3.384   3.288   1.766 -0.6980 -0.6725  1.2001
 9045TIP3   OH227098   1.526   3.202   5.724 -0.3997  0.1436 -0.4515
 9045TIP3    H127099   1.498   3.154   5.646  1.6162 -1.5783 -0.1731
 9045TIP3    H227100   1.536   3.135   5.792  2.8140  0.8025 -0.1316
 9046TIP3   OH227101   1.906   2.359   3.412 -0.7800 -0.4605  0.7721
 9046TIP3    H127102   1.861   2.377   3.329 -1.0132 -1.4763  0.6760
 9046TIP3    H227103   1.838   2.326   3.470 -0.3979 -0.8445  1.0075
 9047TIP3   OH227104   6.260   4.874   4.439  0.0474  0.4871 -0.2513
 9047TIP3    H127105   6.176   4.829   4.439  0.0217  0.4932  1.2590
 9047TIP3    H227106   6.297   4.858   4.525  2.2485 -0.6434 -1.3241
 9048TIP3   OH227107   2.636   3.208   0.074  0.1880 -0.0293  0.4012
 9048TIP3    H127108   2.654   3.225   0.166  0.7994  0.1095  0.2549
 9048TIP3    H227109   2.722   3.205   0.032 -0.1391  2.7923 -0.6957
 9049TIP3   OH227110   5.604   6.426   2.947  0.4865  0.5695  0.4766
 9049TIP3    H127111   5.654   6.356   2.905  1.2673  1.5262 -0.2189
 9049TIP3    H227112   5.629   6.506   2.901 -1.3834  1.1532  0.3606
 9050TIP3   OH227113   5.442   2.062   2.050  0.2132  0.1960 -0.4589
 9050TIP3    H127114   5.383   2.082   1.977  1.1549 -1.4532 -1.7538
 9050TIP3    H227115   5.410   1.978   2.084 -0.3867  1.0846  1.2462
 9051TIP3   OH227116   0.865   2.161   3.557 -0.3602 -0.1367 -0.2541
 9051TIP3    H127117   0.928   2.156   3.629 -0.6631  1.0485  0.1245
 9051TIP3    H227118   0.843   2.254   3.551 -2.0867 -0.5150 -0.3722
 9052TIP3   OH227119   6.231   2.459   0.533  0.1435 -0.0440 -0.0490
 9052TIP3    H127120   6.316   2.497   0.509  0.8352 -1.3195  0.2998
 9052TIP3    H227121   6.167   2.526   0.507  1.2781  1.1679  0.1624
 9053TIP3   OH227122   0.967   6.523   3.326  0.7210  0.4948  0.7907
 9053TIP3    H127123   1.009   6.461   3.385 -0.0582 -0.5985  0.2378
 9053TIP3    H227124   0.924   6.586   3.384  0.2251 -0.3797  1.3912
 9054TIP3   OH227125   0.765   6.146   4.675  0.1744  0.5664  0.0957
 9054TIP3    H127126   0.677   6.138   4.711 -0.5000  2.1890 -1.0677
 9054TIP3    H227127   0.809   6.210   4.732  1.4609 -1.9200  2.0848
 9055TIP3   OH227128   2.685   3.193   0.855  0.2439 -0.1172 -0.1718
 9055TIP3    H127129   2.632   3.247   0.796  1.3432  2.3091  0.8836
 9055TIP3    H227130   2.636   3.192   0.937 -0.8775 -2.7845 -0.7726
 9056TIP3   OH227131   5.918   4.517   4.232 -0.1399  0.0808  0.0322
 9056TIP3    H127132   5.918   4.425   4.205 -2.2948 -0.7152  2.4157
 9056TIP3    H227133   5.874   4.563   4.160 -1.8278 -1.2590  0.1633
 9057TIP3   OH227134   3.533   2.759   2.931  0.4811 -0.0101 -0.1438
 9057TIP3    H127135   3.563   2.809   2.854  0.5009  1.0090  0.5112
 9057TIP3    H227136   3.607   2.701   2.951 -0.1122 -1.4703 -1.8314
 9058TIP3   OH227137   0.090   5.785   1.494  0.0093 -0.1017 -0.2268
 9058TIP3    H127138   0.012   5.752   1.450  0.1823 -1.9944  0.7592
 9058TIP3    H227139   0.161   5.731   1.459  0.4303 -0.3255  0.9358
 9059TIP3   OH227140   4.406   3.937   0.923  0.3200  0.2711 -0.4483
 9059TIP3    H127141   4.488   3.943   0.972  1.0671 -0.6791 -1.5472
 9059TIP3    H227142   4.417   3.997   0.850 -0.3991  0.9307 -0.0300
 9060TIP3   OH227143   6.021   3.657   2.319 -0.3054 -0.2834 -0.3762
 9060TIP3    H127144   5.965   3.734   2.310  1.3396  1.0915  0.5049
 9060TIP3    H227145   6.029   3.623   2.230 -0.0863  1.3137 -1.0008
 9061TIP3   OH227146   0.229   5.897   2.571  0.8931 -0.5715  0.0341
 9061TIP3    H127147   0.286   5.960   2.615  0.0978 -1.1166  1.9425
 9061TIP3    H227148   0.288   5.848   2.513  2.1516 -0.3343  1.0715
 9062TIP3   OH227149   2.653   2.564   5.452  0.1237 -0.5266 -0.2966
 9062TIP3    H127150   2.715   2.492   5.468  1.2008 -0.1587 -2.4362
 9062TIP3    H227151   2.576   2.521   5.415 -0.4468 -0.8640  1.2442
 9063TIP3   OH227152   5.265   6.437   4.608  0.2581 -0.2116 -0.0110
 9063TIP3    H127153   5.228   6.380   4.540  0.0056  0.3065 -0.3128
 9063TIP3    H227154   5.359   6.421   4.604  0.4109  0.8089 -1.4284
 9064TIP3   OH227155   0.752   3.754   3.972 -0.1358 -0.5325  0.2854
 9064TIP3    H127156   0.708   3.685   4.021 -0.3055 -0.4587  0.2374
 9064TIP3    H227157   0.738   3.731   3.880 -3.4032  1.4890  0.1159
 9065TIP3   OH227158   5.538   3.679   0.786 -0.3149 -0.1737 -0.3151
 9065TIP3    H127159   5.537   3.691   0.881 -1.0155  1.2461 -0.4849
 9065TIP3    H227160   5.536   3.768   0.750  0.3031 -0.6786 -1.6698
 9066TIP3   OH227161   2.486   4.502   4.569  0.0517  0.0637  0.1998
 9066TIP3    H127162   2.514   4.441   4.500 -0.6677  1.4007 -1.3430
 9066TIP3    H227163   2.564   4.514   4.623  1.4166  0.8042 -1.8021
 9067TIP3   OH227164   7.143   0.884   5.091 -0.1088 -0.5705  0.5192
 9067TIP3    H127165   7.224   0.934   5.097 -1.0571  1.0069  0.5801
 9067TIP3    H227166   7.172   0.793   5.081  1.6656  0.0256 -0.1869
 9068TIP3   OH227167   5.758   2.442   1.303  0.7478  0.2236  0.2153
 9068TIP3    H127168   5.732   2.387   1.376 -0.0392  0.1215 -0.1379
 9068TIP3    H227169   5.720   2.400   1.226  2.7338 -0.4864 -0.4663
 9069TIP3   OH227170   5.561   5.987   3.941  0.6183 -0.2552  0.5055
 9069TIP3    H127171   5.531   6.031   4.021  0.9576 -1.2269  1.1788
 9069TIP3    H227172   5.480   5.957   3.899  0.4880 -0.6901  1.0493
 9070TIP3   OH227173   1.501   4.919   5.381 -0.4692  0.4235  0.1489
 9070TIP3    H127174   1.569   4.868   5.426 -0.2356  0.2149 -0.4316
 9070TIP3    H227175   1.439   4.943   5.450 -0.2556 -0.1211  0.5323
 9071TIP3   OH227176   4.694   5.754   1.895  0.4745  0.2181 -0.1953
 9071TIP3    H127177   4.627   5.685   1.891 -0.0060  0.7093 -0.7558
 9071TIP3    H227178   4.705   5.770   1.988  0.4796 -0.5110 -0.0616
 9072TIP3   OH227179   7.136   2.497   1.675 -0.1470  0.3191  0.0860
 9072TIP3    H127180   7.198   2.567   1.692 -1.7546  2.1013 -1.0122
 9072TIP3    H227181   7.150   2.474   1.583 -0.0539 -0.3896  0.2700
 9073TIP3   OH227182   4.239   6.743   1.986 -0.0640 -0.1357  0.0969
 9073TIP3    H127183   4.275   6.656   2.005  0.1929  0.2445  1.4884
 9073TIP3    H227184   4.155   6.725   1.945  0.1318 -1.0478  0.0526
 9074TIP3   OH227185   6.398   1.799   2.966 -0.0432 -0.1124 -0.0516
 9074TIP3    H127186   6.443   1.878   2.936  0.7411 -0.9947 -1.2530
 9074TIP3    H227187   6.463   1.752   3.018  0.2224 -0.9966 -1.1305
 9075TIP3   OH227188   3.496   4.136   0.562  0.2952 -0.3996 -0.3625
 9075TIP3    H127189   3.510   4.213   0.507 -2.0174  1.0220  0.8603
 9075TIP3    H227190   3.493   4.063   0.501 -0.8420  0.9406 -1.9908
 9076TIP3   OH227191   4.045   2.597   2.460  0.4544  0.0441 -0.5982
 9076TIP3    H127192   4.106   2.525   2.445 -0.1115 -1.1435  2.2827
 9076TIP3    H227193   4.083   2.647   2.532 -0.0022  1.7010 -1.4539
 9077TIP3   OH227194   2.902   2.894   4.705  0.2495  1.1050  0.3101
 9077TIP3    H127195   2.861   2.961   4.650 -1.1202  0.4457  0.4712
 9077TIP3    H227196   2.837   2.876   4.773  0.0346 -1.2170 -0.3980
 9078TIP3   OH227197   3.096   3.580   2.411 -0.0555  0.0765  0.0296
 9078TIP3    H127198   3.075   3.578   2.504 -1.4564 -0.0118 -0.2668
 9078TIP3    H227199   3.094   3.488   2.384  0.5265  0.0856 -0.0643
 9079TIP3   OH227200   2.098   5.585   3.726  0.1555  0.3132  0.0322
 9079TIP3    H127201   2.169   5.537   3.770  1.4349  0.1276 -2.1046
 9079TIP3    H227202   2.018   5.550   3.766  1.1957 -0.3754  1.6417
 9080TIP3   OH227203   6.495   4.013   5.343 -0.4043 -0.0072  0.2223
 9080TIP3    H127204   6.536   3.988   5.261 -1.6166  0.9910 -0.7350
 9080TIP3    H227205   6.567   4.041   5.399  0.3504  0.2937 -0.8705
 9081TIP3   OH227206   6.699   4.053   4.226 -0.4198  0.5293  0.4765
 9081TIP3    H127207   6.609   4.024   4.217 -0.2122  0.2218 -0.7434
 9081TIP3    H227208   6.747   3.974   4.253 -0.3161  0.3811 -0.1227
 9082TIP3   OH227209   6.106   6.507   1.041 -0.5471 -0.0154 -0.0099
 9082TIP3    H127210   6.080   6.415   1.032  0.6454 -0.2518 -1.5216
 9082TIP3    H227211   6.023   6.555   1.046 -1.2366 -1.0077 -1.2935
 9083TIP3   OH227212   3.535   6.661   5.764 -0.2791 -0.1059 -1.1679
 9083TIP3    H127213   3.594   6.587   5.749  0.6823  0.1623  0.9061
 9083TIP3    H227214   3.593   6.737   5.767 -0.9986  0.4426 -1.1584
 9084TIP3   OH227215   0.283   0.153   0.907 -0.2525  0.1661 -0.4417
 9084TIP3    H127216   0.368   0.136   0.948 -0.5361  0.0644  0.1092
 9084TIP3    H227217   0.303   0.160   0.814  0.3065 -0.2158 -0.3557
 9085TIP3   OH227218   2.662   4.523   1.284  0.2529 -0.2264  0.2825
 9085TIP3    H127219   2.579   4.564   1.310  2.2467  3.9534  0.8274
 9085TIP3    H227220   2.643   4.484   1.198 -2.1038  1.4174 -0.0501
 9086TIP3   OH227221   1.049   5.785   0.192  0.4324 -0.2699 -0.2378
 9086TIP3    H127222   0.991   5.801   0.117 -1.0989  0.3095  1.0303
 9086TIP3    H227223   1.012   5.708   0.235 -0.1925  0.8546  1.3117
 9087TIP3   OH227224   5.325   3.723   4.280 -0.1960  0.0384 -0.2326
 9087TIP3    H127225   5.386   3.706   4.208  0.9106  0.1274  0.6568
 9087TIP3    H227226   5.307   3.817   4.274  0.9218  0.3130  0.3612
 9088TIP3   OH227227   6.069   3.391   3.908  0.4014  0.3028  0.1499
 9088TIP3    H127228   6.155   3.388   3.948  1.8897 -0.4797 -2.7876
 9088TIP3    H227229   6.064   3.478   3.868  0.1693  0.0929 -0.2986
 9089TIP3   OH227230   6.165   6.802   1.050  0.0778 -0.5099 -0.8506
 9089TIP3    H127231   6.205   6.797   0.963 -1.0970  2.2795 -1.6590
 9089TIP3    H227232   6.125   6.716   1.062  1.4956 -1.4586 -2.4163
 9090TIP3   OH227233   2.890   4.177   3.785 -0.3469 -0.3628  0.3372
 9090TIP3    H127234   2.844   4.244   3.835 -1.8273 -1.1009  0.0326
 9090TIP3    H227235   2.956   4.226   3.735 -0.1052  0.6060  1.5616
 9091TIP3   OH227236   5.607   5.647   3.013 -0.9926 -0.0192 -0.1053
 9091TIP3    H127237   5.565   5.720   3.059 -0.5284  0.4894 -0.4614
 9091TIP3    H227238   5.650   5.688   2.937  1.7034 -0.1741  1.2036
 9092TIP3   OH227239   3.399   5.656   3.068 -0.1036 -0.5691  0.2650
 9092TIP3    H127240   3.450   5.575   3.071 -0.7674 -0.9822  0.5549
 9092TIP3    H227241   3.318   5.632   3.025  0.0482  0.1510 -0.4436
 9093TIP3   OH227242   0.260   6.727   1.088 -0.1754  0.0954  0.2756
 9093TIP3    H127243   0.296   6.660   1.030  0.3122  1.0910 -0.6113
 9093TIP3    H227244   0.244   6.682   1.170  1.1168 -0.8747  0.0230
 9094TIP3   OH227245   0.521   1.475   4.050  0.3055  0.0415 -0.0488
 9094TIP3    H127246   0.451   1.520   4.097  0.6615 -0.0265  0.5506
 9094TIP3    H227247   0.588   1.542   4.035 -0.9983  0.8707 -3.0862
 9095TIP3   OH227248   5.210   0.200   4.155  0.2793  0.3001  0.1126
 9095TIP3    H127249   5.168   0.194   4.241  1.0281 -1.1210  0.4175
 9095TIP3    H227250   5.138   0.200   4.093 -0.2403 -0.6302  0.6881
 9096TIP3   OH227251   1.853   6.427   1.310  0.2769 -0.5371 -0.1704
 9096TIP3    H127252   1.812   6.468   1.234  2.9338  1.2528 -0.7637
 9096TIP3    H227253   1.818   6.338   1.310 -2.6102  0.4596 -1.2527
 9097TIP3   OH227254   4.286   1.120   2.636 -0.1540  0.5900 -0.4204
 9097TIP3    H127255   4.308   1.116   2.543  4.6343 -1.6878  0.4919
 9097TIP3    H227256   4.250   1.033   2.656  1.0472  0.2294  0.2318
 9098TIP3   OH227257   5.048   2.172   1.082  0.4076 -0.0247 -0.0925
 9098TIP3    H127258   5.038   2.158   0.988  0.6083 -0.4207 -0.0601
 9098TIP3    H227259   5.062   2.266   1.091 -1.8439  0.3792 -0.2527
 9099TIP3   OH227260   6.632   1.357   2.329 -0.0747  0.1685  0.0093
 9099TIP3    H127261   6.647   1.439   2.375  0.6851 -0.1058  0.2672
 9099TIP3    H227262   6.681   1.366   2.247 -2.7814  1.3449 -1.6180
 9100TIP3   OH227263   6.482   4.492   2.923  0.8630 -0.3015 -0.2024
 9100TIP3    H127264   6.543   4.483   2.849  0.2955  1.9675 -1.0186
 9100TIP3    H227265   6.537   4.524   2.994  0.8435  0.7914 -0.6550
 9101TIP3   OH227266   2.280   1.048   3.972  0.4147 -0.1048  0.3806
 9101TIP3    H127267   2.321   1.038   3.886  3.1449 -1.4179  1.7064
 9101TIP3    H227268   2.293   1.141   3.993  0.6141  0.0063 -0.1923
 9102TIP3   OH227269   3.945   3.591   5.594 -0.2959  0.2925 -0.2675
 9102TIP3    H127270   3.987   3.661   5.544 -1.2609 -0.6435 -2.5049
 9102TIP3    H227271   3.853   3.595   5.568 -0.9170 -0.1208  1.6608
 9103TIP3   OH227272   4.612   1.254   4.682  0.2457  0.3760 -0.2627
 9103TIP3    H127273   4.636   1.243   4.774  1.5877  1.7409 -0.4060
 9103TIP3    H227274   4.657   1.183   4.637 -0.2691 -0.1885  0.0915
 9104TIP3   OH227275   4.915   2.017   2.315  0.0150 -0.5425  0.3233
 9104TIP3    H127276   4.874   2.012   2.401  0.7667 -0.1032  0.7228
 9104TIP3    H227277   4.994   2.069   2.329 -0.1765  0.0810 -0.7580
 9105TIP3   OH227278   0.702   6.595   4.115 -0.0135 -0.3955 -0.8323
 9105TIP3    H127279   0.759   6.672   4.102  1.8190 -1.6749 -0.8390
 9105TIP3    H227280   0.707   6.578   4.209  1.5056 -1.8404 -1.1322
 9106TIP3   OH227281   4.701   5.318   1.146 -0.2034 -0.0211  0.4662
 9106TIP3    H127282   4.778   5.373   1.161  1.4430 -2.3112  0.9087
 9106TIP3    H227283   4.717   5.278   1.061 -0.2535 -1.5002  1.1293
 9107TIP3   OH227284   4.504   5.600   2.241  0.0149  0.6941  0.1280
 9107TIP3    H127285   4.543   5.521   2.205 -2.8174 -0.6949 -0.1469
 9107TIP3    H227286   4.578   5.657   2.261  2.0421 -1.3136 -1.2945
 9108TIP3   OH227287   1.921   1.257   2.648  0.1155  0.5371  0.7673
 9108TIP3    H127288   1.899   1.245   2.556  1.8871 -0.0989  0.3878
 9108TIP3    H227289   1.950   1.171   2.677  0.2630  0.8969  1.7271
 9109TIP3   OH227290   0.247   2.944   4.370  0.1970  0.6628  0.2442
 9109TIP3    H127291   0.269   2.900   4.452  2.4811  1.9025  0.3737
 9109TIP3    H227292   0.205   3.025   4.396 -2.0831 -0.3943  0.0515
 9110TIP3   OH227293   6.382   5.764   1.139  0.2037  0.1914 -0.5055
 9110TIP3    H127294   6.328   5.690   1.165 -0.5831  0.3530 -1.6038
 9110TIP3    H227295   6.446   5.728   1.078  0.9715  0.1139  0.3211
 9111TIP3   OH227296   1.741   1.684   3.430  0.3739  0.1947  0.1131
 9111TIP3    H127297   1.809   1.658   3.492  1.4933 -0.0407 -1.1749
 9111TIP3    H227298   1.747   1.779   3.427  0.3993  0.1985  0.2729
 9112TIP3   OH227299   3.140   4.332   2.980  0.7367  0.3305 -0.9800
 9112TIP3    H127300   3.096   4.390   2.918  1.0333  0.3563 -1.1736
 9112TIP3    H227301   3.107   4.358   3.066  0.7092  0.6455 -1.0830
 9113TIP3   OH227302   5.114   5.940   4.482 -0.6014  0.2793 -0.5130
 9113TIP3    H127303   5.110   5.849   4.509  1.3006  0.4241  0.4001
 9113TIP3    H227304   5.043   5.950   4.419 -0.3423 -2.0301 -1.2289
 9114TIP3   OH227305   6.853   1.196   0.728  0.0041  0.2255  0.0235
 9114TIP3    H127306   6.833   1.153   0.811  0.2689  1.9108  1.0077
 9114TIP3    H227307   6.932   1.152   0.696  1.0443  0.8210  1.6657
 9115TIP3   OH227308   0.421   3.214   4.454 -0.0381  0.2290 -0.1356
 9115TIP3    H127309   0.458   3.283   4.509 -0.4668 -0.8208  1.5448
 9115TIP3    H227310   0.344   3.254   4.414  0.8267  1.3096 -0.7674
 9116TIP3   OH227311   1.492   4.481   2.737 -0.7436  0.3068  0.9285
 9116TIP3    H127312   1.508   4.575   2.745  1.1014 -0.0179  1.3521
 9116TIP3    H227313   1.577   4.443   2.714 -1.6069 -1.1889 -0.0145
 9117TIP3   OH227314   6.350   4.264   3.046 -0.0186  0.2561  0.5371
 9117TIP3    H127315   6.442   4.238   3.054  0.2751  1.6100  2.1815
 9117TIP3    H227316   6.351   4.359   3.055 -1.4180  0.5225 -1.4546
 9118TIP3   OH227317   3.135   3.853   2.852  0.0200 -0.2618 -0.1171
 9118TIP3    H127318   3.103   3.770   2.888 -0.5647  0.4736  1.1265
 9118TIP3    H227319   3.203   3.881   2.914 -0.2194  0.4773 -0.1807
 9119TIP3   OH227320   1.306   0.269   0.998 -0.1601  0.0841  0.3136
 9119TIP3    H127321   1.338   0.185   1.032  0.7816  0.2252 -0.1956
 9119TIP3    H227322   1.298   0.325   1.075 -2.1592 -0.8730  0.8635
 9120TIP3   OH227323   0.633   0.302   5.296 -0.0735 -0.1125 -0.3492
 9120TIP3    H127324   0.686   0.369   5.254 -0.7432  0.4655 -0.2793
 9120TIP3    H227325   0.603   0.246   5.224  2.3298 -1.7247 -0.2139
 9121TIP3   OH227326   4.708   2.034   3.736 -0.0169 -0.4725  0.2356
 9121TIP3    H127327   4.772   2.036   3.806  0.0136  1.0205  0.1939
 9121TIP3    H227328   4.760   2.024   3.656  0.1616  0.6486  0.2083
 9122TIP3   OH227329   6.553   3.603   5.229 -0.2925  0.0337  0.4002
 9122TIP3    H127330   6.466   3.579   5.262  0.2344 -0.6390  1.3694
 9122TIP3    H227331   6.579   3.529   5.175 -1.2644  1.2500 -1.8608
 9123TIP3   OH227332   5.145   2.163   3.221  0.3525  0.0774 -0.0367
 9123TIP3    H127333   5.205   2.214   3.167  0.8055  0.2875  0.6588
 9123TIP3    H227334   5.130   2.218   3.298  0.2568 -0.5234  0.3751
 9124TIP3   OH227335   4.841   5.417   0.388  0.5362 -0.7199 -0.1844
 9124TIP3    H127336   4.876   5.504   0.408  0.7254 -0.5115 -1.3543
 9124TIP3    H227337   4.893   5.387   0.314 -0.6594 -1.1119 -0.8925
 9125TIP3   OH227338   1.254   6.747   1.898 -0.0077  0.4797  0.0616
 9125TIP3    H127339   1.189   6.801   1.943  1.0485  1.0862  0.9259
 9125TIP3    H227340   1.254   6.780   1.808 -0.4393  0.9150  0.2133
 9126TIP3   OH227341   3.772   0.262   5.616 -0.4645  0.0409 -0.8050
 9126TIP3    H127342   3.745   0.249   5.707 -0.9751 -1.1203 -1.1123
 9126TIP3    H227343   3.852   0.315   5.623 -1.0622  0.8431  0.2634
 9127TIP3   OH227344   1.678   2.689   4.937 -0.0414  0.0756 -0.6841
 9127TIP3    H127345   1.763   2.646   4.942  0.2177  0.6636  0.6074
 9127TIP3    H227346   1.698   2.776   4.902  0.5730  1.6224  3.0020
 9128TIP3   OH227347   2.433   3.660   1.154  0.5590  0.3147  0.0770
 9128TIP3    H127348   2.468   3.645   1.242  2.9775  0.4020 -0.7958
 9128TIP3    H227349   2.363   3.595   1.145  1.0668 -0.5011  1.6461
 9129TIP3   OH227350   2.278   4.671   0.116 -0.0824 -0.4376 -0.5146
 9129TIP3    H127351   2.187   4.668   0.086  0.6408  0.4276 -2.9809
 9129TIP3    H227352   2.319   4.595   0.074  0.0478 -1.8186  1.9098
 9130TIP3   OH227353   4.477   6.603   2.947 -0.1224  0.4206  0.5063
 9130TIP3    H127354   4.501   6.511   2.933 -0.2221  0.5887 -1.0096
 9130TIP3    H227355   4.394   6.599   2.995  0.3908 -0.2572  1.3530
 9131TIP3   OH227356   5.967   0.659   1.097  0.3221 -0.1878 -0.0271
 9131TIP3    H127357   6.054   0.659   1.138  1.2640  0.4273 -1.8734
 9131TIP3    H227358   5.985   0.639   1.005 -1.1686  2.5902 -1.0369
 9132TIP3   OH227359   5.269   2.392   2.593  0.7128 -0.1170 -0.0019
 9132TIP3    H127360   5.207   2.455   2.556 -1.9093 -1.5712  1.6074
 9132TIP3    H227361   5.345   2.397   2.536  0.2794  3.7509 -0.5189
 9133TIP3   OH227362   4.658   5.994   3.690 -0.1101 -0.4531  0.1214
 9133TIP3    H127363   4.748   6.020   3.670 -0.4849  0.0399 -0.9940
 9133TIP3    H227364   4.616   6.074   3.721 -0.5000 -0.3718 -0.5963
 9134TIP3   OH227365   4.739   5.286   3.270  0.7159 -0.2977 -0.1194
 9134TIP3    H127366   4.654   5.268   3.231  0.0658 -0.0261  1.1212
 9134TIP3    H227367   4.790   5.327   3.200 -0.3161 -0.0534 -0.7430
 9135TIP3   OH227368   6.713   0.604   4.465  0.3641  0.5501  0.0080
 9135TIP3    H127369   6.676   0.691   4.451 -1.9401 -0.4192 -0.3271
 9135TIP3    H227370   6.799   0.608   4.424  0.6179  2.8434  0.5796
 9136TIP3   OH227371   3.719   0.989   4.344 -0.6289 -0.2425 -0.1724
 9136TIP3    H127372   3.785   1.047   4.381 -1.0428 -0.1292  0.4063
 9136TIP3    H227373   3.637   1.017   4.385 -1.0159 -0.4528 -0.8012
 9137TIP3   OH227374   5.589   5.962   0.831  0.1458 -0.0689  0.1098
 9137TIP3    H127375   5.627   6.042   0.794  1.1495 -0.5095  0.1537
 9137TIP3    H227376   5.501   5.958   0.795  0.2796  0.7624 -0.3341
 9138TIP3   OH227377   1.988   0.655   5.636 -0.2142  0.6861 -0.0159
 9138TIP3    H127378   1.935   0.622   5.564 -0.6348  1.2290  0.0356
 9138TIP3    H227379   1.925   0.700   5.693 -0.2120 -1.3183  1.6742
 9139TIP3   OH227380   4.598   1.255   3.721 -0.3936 -0.2501 -0.7094
 9139TIP3    H127381   4.566   1.333   3.676 -3.1076 -0.0484  1.3195
 9139TIP3    H227382   4.519   1.212   3.754  1.2036 -2.3539  0.6707
 9140TIP3   OH227383   4.062   5.279   2.125  0.0120 -0.0518 -0.1817
 9140TIP3    H127384   3.981   5.317   2.158 -0.2336 -0.2000 -0.6012
 9140TIP3    H227385   4.039   5.189   2.102  0.2769 -0.0771 -0.3560
 9141TIP3   OH227386   3.736   4.639   1.727  0.2107  0.1920 -0.5515
 9141TIP3    H127387   3.813   4.630   1.784 -0.1570  0.9233  0.0759
 9141TIP3    H227388   3.684   4.709   1.767 -1.5873 -1.3433 -0.0337
 9142TIP3   OH227389   4.922   6.703   4.017 -0.4149  0.1366 -0.1846
 9142TIP3    H127390   4.892   6.701   4.108 -0.4892  1.4183 -0.1662
 9142TIP3    H227391   4.980   6.627   4.009 -1.5793 -0.8547  0.5063
 9143TIP3   OH227392   5.545   4.197   5.470  0.4764 -0.0514  0.4531
 9143TIP3    H127393   5.475   4.186   5.405  1.9253  1.3436 -1.4436
 9143TIP3    H227394   5.530   4.284   5.507  1.6974  0.6486 -0.6390
 9144TIP3   OH227395   6.303   5.069   1.335 -0.1514  0.1477  0.1303
 9144TIP3    H127396   6.298   4.996   1.396  1.4564 -2.1253 -2.2441
 9144TIP3    H227397   6.384   5.114   1.358 -0.5868  0.5665  0.8976
 9145TIP3   OH227398   2.010   5.794   2.646 -0.4840 -0.0281 -0.8162
 9145TIP3    H127399   1.958   5.797   2.726  1.7696  0.7253  0.7347
 9145TIP3    H227400   2.053   5.708   2.649  1.0449  0.7033 -0.1394
 9146TIP3   OH227401   3.034   6.086   0.700  0.0891  0.3995 -0.4306
 9146TIP3    H127402   2.996   6.120   0.781  0.8488  0.9288 -0.2788
 9146TIP3    H227403   3.036   5.991   0.713 -0.2555  0.4415 -0.0360
 9147TIP3   OH227404   4.290   4.421   1.781  0.0111  0.5658  0.4133
 9147TIP3    H127405   4.247   4.337   1.765  2.2905 -0.4690 -0.7617
 9147TIP3    H227406   4.278   4.470   1.700  0.7513  0.3880  0.1893
 9148TIP3   OH227407   2.204   3.743   4.126 -0.7984  0.3222  0.3184
 9148TIP3    H127408   2.223   3.779   4.213 -1.5820 -0.2364  0.7339
 9148TIP3    H227409   2.213   3.648   4.137  2.4710  0.3338 -1.0485
 9149TIP3   OH227410   4.777   1.850   4.832  0.2066  0.4045 -0.3246
 9149TIP3    H127411   4.855   1.904   4.844  0.2973  0.4438 -1.0889
 9149TIP3    H227412   4.704   1.910   4.845  0.2812  0.2889  0.7838
 9150TIP3   OH227413   1.842   5.692   1.416  0.1361 -0.3287 -0.5844
 9150TIP3    H127414   1.843   5.623   1.349 -1.5387  0.6572 -1.7257
 9150TIP3    H227415   1.772   5.751   1.388  2.1354  2.4147 -0.2203
 9151TIP3   OH227416   6.817   4.099   1.325  0.7235  0.6790  0.2096
 9151TIP3    H127417   6.885   4.132   1.384  0.4266  1.8282 -0.0626
 9151TIP3    H227418   6.739   4.091   1.380  1.1142 -0.8544  0.5732
 9152TIP3   OH227419   1.648   3.573   2.490 -0.2903 -0.0377  0.1917
 9152TIP3    H127420   1.673   3.637   2.424  2.9671 -0.1498  1.1246
 9152TIP3    H227421   1.721   3.510   2.491 -1.3991 -1.4006  2.1729
 9153TIP3   OH227422   3.565   3.124   4.021  0.1893 -0.5913 -0.0006
 9153TIP3    H127423   3.654   3.094   4.038  0.0987 -1.3617 -0.7890
 9153TIP3    H227424   3.571   3.172   3.938  0.1393  0.7079  0.7313
 9154TIP3   OH227425   0.938   5.451   2.728  0.5024 -0.2994 -0.1669
 9154TIP3    H127426   0.848   5.420   2.716  0.1993  0.8285 -0.9494
 9154TIP3    H227427   0.943   5.531   2.676  1.9591 -0.3300 -0.1154
 9155TIP3   OH227428   4.573   3.785   5.331 -0.5219  0.0396 -0.2386
 9155TIP3    H127429   4.664   3.787   5.301 -0.2033 -0.9375  0.6212
 9155TIP3    H227430   4.574   3.831   5.415 -1.0241  0.8992 -0.6852
 9156TIP3   OH227431   5.936   2.695   5.170  0.2704 -0.0014  0.2674
 9156TIP3    H127432   5.851   2.715   5.132  0.4055 -1.0164 -0.5890
 9156TIP3    H227433   5.973   2.781   5.191 -0.9663  0.4515  0.6895
 9157TIP3   OH227434   4.626   3.249   0.743 -1.0832  0.4425  0.3494
 9157TIP3    H127435   4.706   3.208   0.710 -1.7915 -0.5322 -0.1743
 9157TIP3    H227436   4.639   3.253   0.838 -0.0368  1.1259  0.1968
 9158TIP3   OH227437   2.183   4.936   1.825  0.8856 -0.3489  0.0992
 9158TIP3    H127438   2.106   4.939   1.768  0.4727 -1.3572  0.5660
 9158TIP3    H227439   2.147   4.937   1.914  1.3977 -0.8433  0.3210
 9159TIP3   OH227440   5.551   6.011   1.315  0.2229  0.2110 -0.6140
 9159TIP3    H127441   5.584   6.045   1.231  1.6720  2.2495  0.6532
 9159TIP3    H227442   5.510   6.087   1.357  0.5517 -0.4356  0.9707
 9160TIP3   OH227443   5.186   3.470   0.807 -0.1983 -0.4509 -0.1837
 9160TIP3    H127444   5.265   3.418   0.823 -0.1185 -0.8188 -1.6736
 9160TIP3    H227445   5.183   3.532   0.880  0.9885 -1.0017  0.3585
 9161TIP3   OH227446   4.571   0.570   4.458 -0.2458 -0.1273  0.4635
 9161TIP3    H127447   4.629   0.583   4.532 -0.6977 -0.8191  0.9505
 9161TIP3    H227448   4.493   0.622   4.479  0.5945  1.6818 -0.6887
 9162TIP3   OH227449   5.374   1.981   0.825  0.0396  0.3822  0.6166
 9162TIP3    H127450   5.356   1.964   0.917  0.0836 -0.1274  0.5331
 9162TIP3    H227451   5.319   2.057   0.803  0.6893  1.0534  1.2846
 9163TIP3   OH227452   1.666   3.874   1.184 -0.3385  0.2031 -0.3256
 9163TIP3    H127453   1.744   3.860   1.131  2.1533  2.4773  2.3503
 9163TIP3    H227454   1.602   3.911   1.124  1.9567  1.6842 -2.0018
 9164TIP3   OH227455   2.719   4.345   0.198  0.2764 -0.2318  0.4054
 9164TIP3    H127456   2.698   4.364   0.289 -0.0664  0.8703  0.1098
 9164TIP3    H227457   2.640   4.305   0.162  0.2509 -0.2394  0.4713
 9165TIP3   OH227458   4.033   1.870   5.749  0.2098 -0.2372  0.1656
 9165TIP3    H127459   4.102   1.851   5.811 -0.2095 -1.5885  0.2485
 9165TIP3    H227460   4.071   1.850   5.663 -0.5256 -2.6049  0.3114
 9166TIP3   OH227461   7.115   0.811   4.023  0.4406 -0.7554 -0.0997
 9166TIP3    H127462   7.055   0.748   3.983 -1.3172  0.7165  0.0459
 9166TIP3    H227463   7.131   0.875   3.954  1.4286 -0.8271  0.0493
 9167TIP3   OH227464   2.742   1.292   3.206 -0.6239  0.0384  0.6199
 9167TIP3    H127465   2.744   1.334   3.292  1.0608  0.3506  0.4588
 9167TIP3    H227466   2.660   1.243   3.205 -0.8816  0.3930  2.2288
 9168TIP3   OH227467   1.074   4.105   4.119 -0.2850  0.1704  0.0531
 9168TIP3    H127468   1.077   4.054   4.038  1.0348 -0.3594  0.4056
 9168TIP3    H227469   0.987   4.088   4.155 -0.9736  0.5776 -1.3329
 9169TIP3   OH227470   6.940   0.545   3.318  0.2321 -0.8295 -0.5736
 9169TIP3    H127471   6.903   0.633   3.322  0.8241 -0.6084  0.4275
 9169TIP3    H227472   7.010   0.552   3.253  1.4539 -0.0779  0.7760
 9170TIP3   OH227473   7.092   5.294   3.290 -0.2125  0.0766  0.3462
 9170TIP3    H127474   7.091   5.365   3.354  1.3650  1.4669 -1.0721
 9170TIP3    H227475   7.146   5.327   3.218 -1.8527 -1.3958 -1.7128
 9171TIP3   OH227476   5.476   3.370   2.598 -0.6078 -0.0273  0.2283
 9171TIP3    H127477   5.497   3.460   2.570  0.2512 -0.5839 -1.0380
 9171TIP3    H227478   5.439   3.380   2.685 -1.9277  1.6984 -0.4647
 9172TIP3   OH227479   5.394   1.553   2.890  0.5217  0.6697 -0.1009
 9172TIP3    H127480   5.460   1.565   2.959  0.1974  2.0149  0.0171
 9172TIP3    H227481   5.322   1.611   2.916 -0.6211 -0.6062 -0.3457
 9173TIP3   OH227482   3.489   6.062   2.049 -0.3397  0.4241 -0.4409
 9173TIP3    H127483   3.576   6.078   2.012  0.2367 -1.9396 -0.3119
 9173TIP3    H227484   3.432   6.055   1.973 -0.2077  0.8816 -0.5851
 9174TIP3   OH227485   5.195   6.757   4.667  0.1926 -0.0160  0.1342
 9174TIP3    H127486   5.206   6.663   4.653  1.1130  0.0310  0.4770
 9174TIP3    H227487   5.233   6.798   4.589  1.1257  0.1025  0.6304
 9175TIP3   OH227488   7.185   3.825   4.973  0.4060  0.0088 -0.7795
 9175TIP3    H127489   7.193   3.835   5.068 -0.2196  0.8435 -0.8023
 9175TIP3    H227490   7.090   3.818   4.959  0.5304 -0.6706 -1.2934
 9176TIP3   OH227491   5.805   1.517   0.838  0.4881 -0.1874  0.1401
 9176TIP3    H127492   5.899   1.534   0.845  0.6653 -0.9474 -0.1978
 9176TIP3    H227493   5.764   1.603   0.845  1.2743  0.2913 -0.8929
 9177TIP3   OH227494   0.995   5.147   1.046 -0.3476  0.4066  0.3190
 9177TIP3    H127495   1.026   5.057   1.037 -1.3757  0.0077  0.5558
 9177TIP3    H227496   1.011   5.187   0.960 -3.2026 -1.1046 -1.0572
 9178TIP3   OH227497   0.587   6.291   5.831 -0.7726 -0.2924  0.3053
 9178TIP3    H127498   0.573   6.374   5.877  0.5928 -0.8265  1.7838
 9178TIP3    H227499   0.582   6.314   5.738 -1.2089  1.2885  0.6856
 9179TIP3   OH227500   1.967   3.901   4.056  0.3165  0.4854  0.5020
 9179TIP3    H127501   2.010   3.834   4.108 -1.4401  0.0570  1.4931
 9179TIP3    H227502   1.911   3.852   3.995 -0.4680  1.0185  0.7770
 9180TIP3   OH227503   0.625   3.848   2.170  0.2192  0.3232  0.2602
 9180TIP3    H127504   0.556   3.805   2.221 -0.4766  0.5105 -0.5104
 9180TIP3    H227505   0.679   3.776   2.138 -1.0038 -0.0238 -1.1153
 9181TIP3   OH227506   5.053   2.810   1.724  0.6216 -0.4018  0.3694
 9181TIP3    H127507   5.038   2.791   1.632 -2.0254  1.2328  0.3529
 9181TIP3    H227508   4.966   2.828   1.759  1.8317  1.9730  2.4880
 9182TIP3   OH227509   1.540   2.298   1.659  0.3452 -1.2616 -0.1743
 9182TIP3    H127510   1.562   2.388   1.632  0.3464 -1.9067 -2.5522
 9182TIP3    H227511   1.620   2.248   1.642 -0.3074 -2.0873 -0.8706
 9183TIP3   OH227512   3.152   3.261   3.196 -0.4118  0.1485  0.4075
 9183TIP3    H127513   3.246   3.272   3.181 -0.0327 -1.2282  1.5346
 9183TIP3    H227514   3.141   3.167   3.210 -2.2374  0.0391 -1.3658
 9184TIP3   OH227515   1.538   1.649   2.532 -0.2019 -0.5802  0.0739
 9184TIP3    H127516   1.607   1.588   2.558  0.8588  0.0211 -1.2176
 9184TIP3    H227517   1.517   1.624   2.441  0.0985  0.8202 -0.4064
 9185TIP3   OH227518   2.080   4.873   2.368  0.6738  0.2677 -0.3108
 9185TIP3    H127519   2.013   4.868   2.436  0.1218  2.6344 -0.5902
 9185TIP3    H227520   2.105   4.782   2.352  0.3278 -0.4107  2.5337
 9186TIP3   OH227521   3.714   3.661   1.553 -0.2805 -0.2312  0.1601
 9186TIP3    H127522   3.796   3.699   1.522  0.1613  0.4459  2.0125
 9186TIP3    H227523   3.646   3.718   1.517  0.0016 -1.0475 -1.7379
 9187TIP3   OH227524   6.241   5.137   4.653 -0.1521  0.4639 -0.2534
 9187TIP3    H127525   6.292   5.077   4.708  0.2543 -0.8210 -1.9647
 9187TIP3    H227526   6.152   5.103   4.657  0.0390 -0.1507 -1.0559
 9188TIP3   OH227527   4.374   6.316   0.053 -0.3923  0.0261 -0.4464
 9188TIP3    H127528   4.336   6.230   0.070  0.8292 -1.0334 -2.5499
 9188TIP3    H227529   4.383   6.356   0.139 -0.2035 -2.3189  0.7050
 9189TIP3   OH227530   3.067   2.866   2.429 -0.0159 -0.1879  0.2478
 9189TIP3    H127531   3.070   2.961   2.424  1.7432 -0.2145  0.2936
 9189TIP3    H227532   2.976   2.846   2.451 -0.1396  1.5369  1.4494
 9190TIP3   OH227533   1.460   6.546   2.811  0.4451 -0.0498 -0.0696
 9190TIP3    H127534   1.534   6.492   2.783  0.1348 -1.0016  0.8850
 9190TIP3    H227535   1.495   6.635   2.815  1.9239 -0.6554  1.5985
 9191TIP3   OH227536   0.316   3.420   3.662  0.3879  0.0659  0.4522
 9191TIP3    H127537   0.350   3.508   3.679  0.9754  0.1958 -1.1322
 9191TIP3    H227538   0.224   3.433   3.642  1.2035  0.9755 -3.6083
 9192TIP3   OH227539   6.444   5.580   2.601  1.0052  0.8023  0.6594
 9192TIP3    H127540   6.367   5.560   2.654  0.7264  0.0795  0.0088
 9192TIP3    H227541   6.483   5.657   2.642  1.1437 -0.0869  2.2717
 9193TIP3   OH227542   3.187   1.415   5.034 -0.3995 -0.2593 -0.2227
 9193TIP3    H127543   3.131   1.358   4.981  0.2203 -1.2652  0.1756
 9193TIP3    H227544   3.172   1.503   4.998 -1.1582 -0.6996 -1.0411
 9194TIP3   OH227545   6.046   3.829   0.735 -0.4143 -0.6943 -0.2620
 9194TIP3    H127546   6.054   3.733   0.730 -0.5499 -0.7676  0.6441
 9194TIP3    H227547   6.028   3.846   0.828  0.6221  0.2857 -0.2128
 9195TIP3   OH227548   6.324   1.665   3.346 -0.2925  0.0105  0.8130
 9195TIP3    H127549   6.254   1.600   3.345 -1.2549  0.9897  1.9591
 9195TIP3    H227550   6.280   1.748   3.364  1.0498  0.8154  0.5388
 9196TIP3   OH227551   0.546   1.706   5.677 -0.1587  0.2069  0.5674
 9196TIP3    H127552   0.460   1.683   5.713  0.5583 -0.7473  1.8041
 9196TIP3    H227553   0.575   1.781   5.729 -1.0018  1.7658 -1.1146
 9197TIP3   OH227554   1.045   2.709   3.842 -0.4967 -0.6645 -0.0483
 9197TIP3    H127555   1.072   2.801   3.839  0.0633 -0.8513 -1.1436
 9197TIP3    H227556   1.079   2.671   3.761 -2.1380 -1.4558 -0.4090
 9198TIP3   OH227557   1.944   6.722   4.830  0.3479  0.0698  0.3224
 9198TIP3    H127558   1.961   6.810   4.798 -1.0386 -0.0637 -0.8773
 9198TIP3    H227559   1.856   6.701   4.799  1.5322 -2.6714 -1.6378
 9199TIP3   OH227560   1.776   4.744   5.895 -0.3263 -0.6981 -0.3793
 9199TIP3    H127561   1.844   4.746   5.827 -1.0711 -0.0703 -1.1322
 9199TIP3    H227562   1.793   4.664   5.944 -0.3391 -1.6705 -1.9044
 9200TIP3   OH227563   0.861   3.482   3.319  0.0965  0.4400  0.5621
 9200TIP3    H127564   0.945   3.472   3.274 -0.5929  1.3692 -1.0019
 9200TIP3    H227565   0.799   3.434   3.264 -0.8252  1.8490  0.3247
 9201TIP3   OH227566   6.439   1.359   4.546  0.3047 -0.3890 -0.1774
 9201TIP3    H127567   6.475   1.421   4.609  0.9757 -0.6594 -0.2835
 9201TIP3    H227568   6.447   1.402   4.461  0.7005 -0.5869 -0.2420
 9202TIP3   OH227569   6.258   5.828   4.660  0.5152  0.0793 -0.8042
 9202TIP3    H127570   6.289   5.870   4.581  2.3725  0.0742 -0.1219
 9202TIP3    H227571   6.233   5.740   4.632 -0.2494  0.5270 -1.6134
 9203TIP3   OH227572   2.403   2.402   5.718 -0.4183 -0.4346 -0.0272
 9203TIP3    H127573   2.381   2.419   5.809 -0.5930 -0.4896 -0.0594
 9203TIP3    H227574   2.444   2.316   5.718  3.9827  1.3407  0.7291
 9204TIP3   OH227575   6.496   2.448   4.826  0.5044  0.0190  0.1544
 9204TIP3    H127576   6.479   2.539   4.854  1.7055  0.5818 -0.8522
 9204TIP3    H227577   6.586   2.450   4.793  0.3889 -1.4526 -0.2940
 9205TIP3   OH227578   7.012   5.398   2.118  0.0833  0.2788  0.1050
 9205TIP3    H127579   6.960   5.478   2.107  0.6761  0.5183 -1.1701
 9205TIP3    H227580   7.014   5.383   2.212 -0.4299  1.5175  0.3259
 9206TIP3   OH227581   3.530   5.095   0.303  0.0699  0.5253  0.3033
 9206TIP3    H127582   3.534   4.999   0.308 -2.2831  0.2611 -1.2043
 9206TIP3    H227583   3.586   5.117   0.228  0.2692  0.2691  0.3765
 9207TIP3   OH227584   1.789   6.646   2.959  0.2957 -0.5598  0.7728
 9207TIP3    H127585   1.814   6.734   2.934  1.1107 -0.5726  1.5044
 9207TIP3    H227586   1.778   6.599   2.876  1.6444 -0.2618  0.4069
 9208TIP3   OH227587   3.518   4.089   3.700  0.6313  0.2956 -0.2302
 9208TIP3    H127588   3.443   4.045   3.659 -1.2231  2.5786  0.4715
 9208TIP3    H227589   3.576   4.018   3.727 -0.7052 -1.5199 -1.8483
 9209TIP3   OH227590   6.665   5.218   0.692  0.1624 -0.0703  0.2149
 9209TIP3    H127591   6.693   5.155   0.625  0.9726  1.1723 -0.6597
 9209TIP3    H227592   6.741   5.227   0.750  0.4268  0.8531 -0.2596
 9210TIP3   OH227593   0.379   2.519   2.866 -0.1613 -0.9441 -0.4551
 9210TIP3    H127594   0.465   2.487   2.893  0.4530 -0.6369 -1.9552
 9210TIP3    H227595   0.328   2.440   2.849  0.0156 -1.1264 -0.1394
 9211TIP3   OH227596   2.812   3.272   2.434  0.9760  0.1352  0.6927
 9211TIP3    H127597   2.782   3.257   2.345  0.1598 -0.4194  1.0515
 9211TIP3    H227598   2.750   3.337   2.469  0.5745 -0.5338  1.2335
 9212TIP3   OH227599   6.277   6.022   1.228  0.3848 -0.4324  0.2265
 9212TIP3    H127600   6.310   5.946   1.180 -0.6587  0.0987 -1.4480
 9212TIP3    H227601   6.208   5.987   1.284 -0.3701 -0.7060 -0.8362
 9213TIP3   OH227602   6.297   0.717   2.035 -0.0499 -0.1326 -0.0114
 9213TIP3    H127603   6.337   0.640   2.076  0.4888  0.4852  0.6602
 9213TIP3    H227604   6.366   0.784   2.039  0.2426 -0.1918 -2.4510
 9214TIP3   OH227605   0.384   6.560   0.911  0.2696  0.7636 -0.2336
 9214TIP3    H127606   0.353   6.595   0.828  0.3519  0.2285 -0.4902
 9214TIP3    H227607   0.438   6.485   0.887 -1.2568 -0.5881  0.3820
 9215TIP3   OH227608   2.244   1.682   5.008  0.3937 -0.0166  0.2740
 9215TIP3    H127609   2.273   1.599   4.970 -0.1681  0.3373 -0.9733
 9215TIP3    H227610   2.240   1.665   5.102 -0.7966 -1.7493 -0.0519
 9216TIP3   OH227611   3.414   6.298   1.294  0.4145 -0.2705  0.0668
 9216TIP3    H127612   3.329   6.339   1.308 -0.0960 -1.3091  0.1118
 9216TIP3    H227613   3.454   6.297   1.381  0.7452  0.7665 -0.0575
 9217TIP3   OH227614   0.111   4.707   2.536  0.4591  0.6308  0.7638
 9217TIP3    H127615   0.028   4.698   2.581 -1.0650  2.1785 -1.5084
 9217TIP3    H227616   0.173   4.654   2.587 -2.6874 -3.9707  0.3687
 9218TIP3   OH227617   7.012   4.982   0.707 -0.2672 -0.0699  0.1817
 9218TIP3    H127618   6.953   4.909   0.688 -0.4565  0.6537 -2.3621
 9218TIP3    H227619   7.094   4.940   0.734 -0.8315 -1.1633  0.2496
 9219TIP3   OH227620   0.439   0.954   2.447 -0.2482 -0.5902  0.3858
 9219TIP3    H127621   0.398   1.034   2.479  0.3141 -0.4160  0.6825
 9219TIP3    H227622   0.393   0.884   2.492 -0.3318 -0.4050  0.5909
 9220TIP3   OH227623   4.144   3.344   5.016  0.0760  0.6691 -0.2862
 9220TIP3    H127624   4.080   3.299   5.071 -0.0624  1.3203  0.0902
 9220TIP3    H227625   4.128   3.309   4.928  1.3663 -1.5906  0.2944
 9221TIP3   OH227626   4.789   5.172   0.898 -0.2274  0.1131  0.4235
 9221TIP3    H127627   4.735   5.133   0.829  0.6871 -0.1444 -0.1510
 9221TIP3    H227628   4.877   5.174   0.862  0.4061 -0.6664  1.8399
 9222TIP3   OH227629   5.069   1.223   5.022 -0.4016 -0.6408  0.8791
 9222TIP3    H127630   5.047   1.208   5.114  0.9951 -0.1032  1.3322
 9222TIP3    H227631   5.149   1.172   5.008 -0.9477 -1.2226 -0.2235
 9223TIP3   OH227632   6.876   3.180   2.478 -0.0659 -0.5131  0.3298
 9223TIP3    H127633   6.919   3.204   2.396  0.0541  0.4429  0.6612
 9223TIP3    H227634   6.853   3.088   2.467 -0.5709 -0.2442 -0.9983
 9224TIP3   OH227635   4.797   2.485   2.463  0.1322 -0.0190 -0.3182
 9224TIP3    H127636   4.732   2.420   2.490  0.2930  0.2780  0.8742
 9224TIP3    H227637   4.746   2.553   2.419 -0.6822  1.0364  2.0741
 9225TIP3   OH227638   5.004   3.090   4.010 -0.1582 -0.0588 -0.3570
 9225TIP3    H127639   4.913   3.105   4.036 -0.0780 -0.9914  0.5185
 9225TIP3    H227640   5.014   2.995   4.013  1.0607  0.0729  0.3576
 9226TIP3   OH227641   5.704   2.478   0.354 -0.3060 -0.6991  0.2622
 9226TIP3    H127642   5.712   2.491   0.449 -2.3488 -0.6172  0.4655
 9226TIP3    H227643   5.669   2.390   0.344  0.1143 -0.7979 -0.4413
 9227TIP3   OH227644   7.226   0.340   3.278 -0.2878 -0.0357 -0.6099
 9227TIP3    H127645   7.255   0.389   3.355 -0.0793 -0.4240 -0.4354
 9227TIP3    H227646   7.157   0.282   3.312 -1.3348  0.9154 -1.0277
 9228TIP3   OH227647   5.842   0.984   4.798 -0.2468 -0.4341  0.0051
 9228TIP3    H127648   5.839   0.892   4.772 -0.0236  0.0149 -1.7225
 9228TIP3    H227649   5.926   1.015   4.765 -0.6004  0.5377 -0.0049
 9229TIP3   OH227650   0.126   3.263   0.008  0.0731  0.0308  0.2329
 9229TIP3    H127651   0.060   3.203   0.043 -0.9781  2.3699  2.7432
 9229TIP3    H227652   0.074   3.333  -0.032  1.2548 -0.7627 -2.9098
 9230TIP3   OH227653   3.668   2.064   5.574 -0.3010  0.1921 -0.9105
 9230TIP3    H127654   3.712   1.982   5.597  0.9171  0.5568 -1.8030
 9230TIP3    H227655   3.710   2.130   5.630 -1.3045  0.2167 -0.1681
 9231TIP3   OH227656   0.151   5.337   4.002  0.0872  0.2503 -0.1532
 9231TIP3    H127657   0.236   5.381   3.998  0.4140 -0.4350 -1.1765
 9231TIP3    H227658   0.159   5.263   3.942 -0.8994 -0.4279  0.5169
 9232TIP3   OH227659   6.666   2.969   2.643 -0.1788 -0.0005  0.1007
 9232TIP3    H127660   6.760   2.964   2.626 -0.2297  1.1077 -0.6142
 9232TIP3    H227661   6.635   2.879   2.636  0.8196 -0.3612  0.2557
 9233TIP3   OH227662   2.594   1.520   3.862  0.1033  0.4093  0.7871
 9233TIP3    H127663   2.546   1.585   3.912 -0.5553 -0.3410  1.1636
 9233TIP3    H227664   2.686   1.544   3.871 -0.0035  0.3059  2.3411
 9234TIP3   OH227665   3.845   4.393   0.161 -0.5892 -0.5333 -0.4487
 9234TIP3    H127666   3.841   4.481   0.125 -0.5190  0.4073  1.7122
 9234TIP3    H227667   3.818   4.402   0.252 -0.1754 -2.6737 -0.0468
 9235TIP3   OH227668   5.401   3.830   0.985  0.8125 -0.4406  0.3686
 9235TIP3    H127669   5.340   3.902   1.000  0.9911 -0.2580  0.2245
 9235TIP3    H227670   5.438   3.812   1.071  0.4124 -0.6823  0.4929
 9236TIP3   OH227671   6.000   0.886   0.491  0.2400  0.3850  0.0400
 9236TIP3    H127672   6.017   0.808   0.439 -1.0614  0.1903 -0.1236
 9236TIP3    H227673   5.944   0.856   0.563 -1.7042  1.4218 -0.9539
 9237TIP3   OH227674   3.404   4.250   3.111 -0.4869 -0.1222  0.1771
 9237TIP3    H127675   3.341   4.239   3.040 -0.2565 -0.1325 -0.0231
 9237TIP3    H227676   3.363   4.205   3.185  0.0212 -1.5487 -0.3871
 9238TIP3   OH227677   2.198  -0.001   3.833  0.1105 -0.0216 -0.3032
 9238TIP3    H127678   2.110   0.008   3.869 -0.0172 -1.3485 -0.2111
 9238TIP3    H227679   2.218   0.084   3.794 -1.2842  0.2446 -0.4814
 9239TIP3   OH227680   4.134   1.581   1.025 -0.2122  0.6286 -0.4147
 9239TIP3    H127681   4.085   1.577   1.107  0.2177  0.9760 -0.1363
 9239TIP3    H227682   4.099   1.509   0.972 -0.5832  0.4892  0.0204
 9240TIP3   OH227683   2.802   0.497   5.465  0.0576 -0.1328 -0.0226
 9240TIP3    H127684   2.735   0.511   5.532  1.2397  1.7793  0.8387
 9240TIP3    H227685   2.873   0.557   5.488  0.8362  0.0700 -2.5604
 9241TIP3   OH227686   2.696   0.261  -0.024 -0.3064 -0.1520 -0.3082
 9241TIP3    H127687   2.763   0.317   0.015 -1.5108  0.9502  0.2248
 9241TIP3    H227688   2.628   0.254   0.042 -0.0132 -2.6772 -0.1525
 9242TIP3   OH227689   2.542   0.399   3.924  0.9012  0.2123  0.3119
 9242TIP3    H127690   2.619   0.431   3.877  1.7171 -1.3705  0.5041
 9242TIP3    H227691   2.571   0.392   4.015  0.1110  0.8476  0.6270
 9243TIP3   OH227692   3.242   4.748   5.734  0.0628  0.0301 -0.4636
 9243TIP3    H127693   3.312   4.812   5.722 -0.3648  0.4184 -0.9318
 9243TIP3    H227694   3.193   4.779   5.810  0.3311 -0.1797 -0.2046
 9244TIP3   OH227695   4.953   4.743   1.510  0.0341  0.1447  0.2522
 9244TIP3    H127696   4.964   4.719   1.418  0.3230  0.3223  0.2382
 9244TIP3    H227697   5.043   4.755   1.542  0.1163 -2.6131  1.2788
 9245TIP3   OH227698   5.410   1.211   2.184  0.0196 -0.3308  0.5560
 9245TIP3    H127699   5.425   1.116   2.192 -1.1912 -0.6697 -0.7284
 9245TIP3    H227700   5.469   1.250   2.248  2.4195 -1.8275 -0.5954
 9246TIP3   OH227701   0.205   3.112   0.753  0.0356 -0.1338  0.8559
 9246TIP3    H127702   0.198   3.088   0.661 -2.0342  0.3790  0.8362
 9246TIP3    H227703   0.247   3.037   0.794 -0.6755 -1.1551 -0.2167
 9247TIP3   OH227704   4.923   3.871   1.540  0.9527  0.2391  0.3651
 9247TIP3    H127705   4.973   3.796   1.569  1.0432 -0.0313 -0.4465
 9247TIP3    H227706   4.835   3.856   1.574  1.2590  0.3940  1.2493
 9248TIP3   OH227707   0.508   2.835   4.835 -0.1930  0.8786  0.1861
 9248TIP3    H127708   0.479   2.915   4.877  1.8570  2.0424 -0.4987
 9248TIP3    H227709   0.555   2.787   4.902  1.5511  1.9048 -0.2637
 9249TIP3   OH227710   2.459   6.193   1.480 -0.3972  0.1018  0.0008
 9249TIP3    H127711   2.486   6.110   1.520 -0.2269  0.6101  0.9600
 9249TIP3    H227712   2.480   6.182   1.387  2.1431  0.0620  0.5113
 9250TIP3   OH227713   5.188   0.627   0.475 -0.1123  0.3536 -0.0127
 9250TIP3    H127714   5.147   0.693   0.531 -0.5844  0.9260 -1.0068
 9250TIP3    H227715   5.274   0.663   0.454 -0.7022  1.0832 -1.2626
 9251TIP3   OH227716   0.379   2.732   2.664 -0.2359 -0.0455 -0.0819
 9251TIP3    H127717   0.283   2.731   2.655 -0.1781 -1.1976 -0.7867
 9251TIP3    H227718   0.399   2.656   2.718  0.2606  0.5154  0.5404
 9252TIP3   OH227719   0.325   5.044   5.217  0.2664  0.0766  0.5163
 9252TIP3    H127720   0.380   5.097   5.275  1.1859 -0.5534  0.2376
 9252TIP3    H227721   0.241   5.090   5.216  0.5379  0.6317  1.5656
 9253TIP3   OH227722   2.460   4.246   0.134  0.0285  0.0585 -0.1779
 9253TIP3    H127723   2.387   4.189   0.160  0.8967 -0.4913  1.1805
 9253TIP3    H227724   2.424   4.302   0.065 -1.7641 -0.0120  0.6503
 9254TIP3   OH227725   1.566   4.458   2.259 -0.3063  0.2578  0.4196
 9254TIP3    H127726   1.651   4.417   2.272  0.0690  1.2298  1.0765
 9254TIP3    H227727   1.519   4.398   2.201  0.8144 -0.2869  0.0645
 9255TIP3   OH227728   3.423   5.757   0.168  0.0582 -0.1045 -0.1688
 9255TIP3    H127729   3.410   5.663   0.176 -0.8352  0.0418  0.2520
 9255TIP3    H227730   3.368   5.782   0.093 -0.2797  0.1885  0.1763
 9256TIP3   OH227731   1.890   2.899   4.264 -0.3862  0.2454 -0.3829
 9256TIP3    H127732   1.937   2.983   4.267  1.6613 -0.7807 -1.6093
 9256TIP3    H227733   1.956   2.836   4.234 -2.4446 -1.4092 -1.6858
 9257TIP3   OH227734   1.669   4.556   4.754  0.0284 -0.0114  0.5477
 9257TIP3    H127735   1.582   4.559   4.712  0.3715 -1.2452 -0.3255
 9257TIP3    H227736   1.716   4.489   4.704  1.0066 -0.3670  1.9107
 9258TIP3   OH227737   4.846   6.464   0.877  0.8782  0.1055 -0.3112
 9258TIP3    H127738   4.919   6.505   0.831  0.5792 -0.3884 -1.2424
 9258TIP3    H227739   4.882   6.441   0.962  1.5888  0.5575 -0.4785
 9259TIP3   OH227740   3.042   1.617   4.115 -0.4946 -0.2791  0.5603
 9259TIP3    H127741   3.102   1.649   4.048 -0.5623  0.0620  0.6565
 9259TIP3    H227742   2.991   1.695   4.141 -2.7724 -1.0092 -1.3548
 9260TIP3   OH227743   3.188   6.320   5.554  0.4093 -0.0038 -0.1155
 9260TIP3    H127744   3.220   6.230   5.555  0.7612  0.0909  1.8739
 9260TIP3    H227745   3.103   6.316   5.599  1.6142  0.9693  2.4628
 9261TIP3   OH227746   0.377   6.579   2.253  0.1439 -0.1245 -0.0267
 9261TIP3    H127747   0.339   6.626   2.327 -0.9130 -0.0860 -0.5667
 9261TIP3    H227748   0.386   6.646   2.185 -0.2237 -0.4471 -0.3971
 9262TIP3   OH227749   2.265   4.644   2.402 -0.0875  0.0857  0.0947
 9262TIP3    H127750   2.305   4.560   2.425 -1.7264 -1.8851 -3.4035
 9262TIP3    H227751   2.318   4.676   2.329 -1.1692  0.6013 -0.4860
 9263TIP3   OH227752   2.293   2.980   3.357  0.1167 -0.5348 -0.4455
 9263TIP3    H127753   2.298   2.908   3.419 -0.0324  1.6554  2.2827
 9263TIP3    H227754   2.201   2.985   3.333 -0.8580  1.4310  2.9987
 9264TIP3   OH227755   2.333   2.236   0.190  0.2022  0.0884  0.4827
 9264TIP3    H127756   2.252   2.285   0.176  0.8137  1.7440  2.2239
 9264TIP3    H227757   2.304   2.147   0.211 -1.2580  0.8072  1.7811
 9265TIP3   OH227758   1.347   3.794   2.958 -0.1558 -0.4459  0.2152
 9265TIP3    H127759   1.327   3.724   2.897 -1.3812  0.1289 -0.0830
 9265TIP3    H227760   1.415   3.758   3.015  0.8238 -1.0860 -1.2869
 9266TIP3   OH227761   1.010   6.558   1.828  0.0258 -0.0481  0.0387
 9266TIP3    H127762   0.999   6.589   1.738  2.4250 -1.2290 -0.7475
 9266TIP3    H227763   1.089   6.602   1.859 -0.1861 -0.4624  1.2009
 9267TIP3   OH227764   1.737   1.879   0.407  0.3532  0.1552 -0.0919
 9267TIP3    H127765   1.706   1.885   0.316  0.0155  2.7527  0.1174
 9267TIP3    H227766   1.696   1.800   0.442 -2.7309  1.1944 -1.0637
 9268TIP3   OH227767   3.590   5.789   2.392 -0.9894  0.2454  0.0904
 9268TIP3    H127768   3.565   5.718   2.334  0.7240  0.1507 -0.5849
 9268TIP3    H227769   3.537   5.864   2.363 -0.0832  0.2372 -1.7163
 9269TIP3   OH227770   3.285   0.082   3.038  0.2522  0.5361  0.3172
 9269TIP3    H127771   3.300   0.126   3.122 -1.8624  1.1570  0.4317
 9269TIP3    H227772   3.195   0.048   3.045  0.0036  0.6926 -1.7216
 9270TIP3   OH227773   6.319   4.620   5.002 -0.3000 -0.0224 -0.0445
 9270TIP3    H127774   6.355   4.694   5.052 -1.5071  0.7585 -0.2891
 9270TIP3    H227775   6.380   4.548   5.019  1.8005  1.4048 -0.9931
 9271TIP3   OH227776   4.459   1.643   2.175  0.2585  0.4252 -0.1264
 9271TIP3    H127777   4.494   1.718   2.222  1.3716  0.0361 -0.3006
 9271TIP3    H227778   4.434   1.581   2.244  0.8090  0.3200 -0.0194
 9272TIP3   OH227779   4.638   5.200   1.381  0.4357  0.2022 -0.4359
 9272TIP3    H127780   4.712   5.148   1.415 -0.1116 -0.2618  0.0596
 9272TIP3    H227781   4.669   5.232   1.296  1.2753  0.1588 -0.1581
 9273TIP3   OH227782   2.356   2.884   4.937  0.5200  0.0088 -0.0888
 9273TIP3    H127783   2.436   2.911   4.983  0.1977 -0.0848  0.5366
 9273TIP3    H227784   2.327   2.806   4.984 -0.9100  1.0455  0.8165
 9274TIP3   OH227785   6.482   1.649   4.442 -0.1070 -0.2782  0.3472
 9274TIP3    H127786   6.511   1.703   4.368  0.9441 -1.3040 -0.0271
 9274TIP3    H227787   6.459   1.565   4.402  0.7909 -0.9575  1.2194
 9275TIP3   OH227788   3.335   4.364   2.160  0.0568 -0.2966  0.2141
 9275TIP3    H127789   3.395   4.393   2.090 -0.7542 -0.3577 -0.5221
 9275TIP3    H227790   3.259   4.330   2.113 -0.4176 -0.5245  1.1384
 9276TIP3   OH227791   4.314   4.116   5.371  0.4340 -0.1704  0.8386
 9276TIP3    H127792   4.258   4.093   5.297  0.3909  1.7665  0.1965
 9276TIP3    H227793   4.254   4.152   5.436  0.8384  1.5792  0.2926
 9277TIP3   OH227794   2.192   4.342   1.561  0.0470  0.2440 -0.5239
 9277TIP3    H127795   2.213   4.265   1.613 -0.5161 -0.2347 -0.9866
 9277TIP3    H227796   2.225   4.416   1.612  2.0496 -0.3851 -0.8162
 9278TIP3   OH227797   4.747   5.066   3.056 -0.1811 -0.2315 -0.1763
 9278TIP3    H127798   4.790   5.123   2.993 -1.2950 -1.5719 -2.2972
 9278TIP3    H227799   4.654   5.086   3.046 -0.5616 -2.0527 -0.6683
 9279TIP3   OH227800   0.989   0.378   3.395 -0.7003  0.5707 -0.1493
 9279TIP3    H127801   0.969   0.427   3.316 -2.9569  2.2972  1.3813
 9279TIP3    H227802   0.910   0.328   3.414 -0.9499  1.6958  2.0313
 9280TIP3   OH227803   1.361   2.387   5.668 -0.0590 -0.1375  0.2279
 9280TIP3    H127804   1.338   2.295   5.668 -0.9165  0.0361 -1.6582
 9280TIP3    H227805   1.314   2.424   5.743  0.7922 -1.3063  1.3798
 9281TIP3   OH227806   1.889   5.070   3.770  1.0826 -0.0210  0.2437
 9281TIP3    H127807   1.956   5.111   3.715 -0.0589  1.4651 -0.1245
 9281TIP3    H227808   1.842   5.011   3.712  0.2238  1.1462 -0.2931
 9282TIP3   OH227809   1.344   0.744   4.877 -0.2804 -0.5697 -0.3647
 9282TIP3    H127810   1.386   0.774   4.797 -1.7802 -0.2378 -1.0628
 9282TIP3    H227811   1.394   0.666   4.903  2.4978  1.3462  0.4471
 9283TIP3   OH227812   1.827   4.581   4.271  0.1753 -0.3982  0.0589
 9283TIP3    H127813   1.791   4.643   4.334  0.4977 -0.3306  0.1782
 9283TIP3    H227814   1.862   4.509   4.324  0.4387 -0.3464 -0.0394
 9284TIP3   OH227815   0.867   2.569   5.471 -0.4536  0.7102  0.0013
 9284TIP3    H127816   0.797   2.634   5.478  0.0280  1.2675 -0.3021
 9284TIP3    H227817   0.853   2.527   5.386 -1.0511  0.0730  0.4051
 9285TIP3   OH227818   1.262   6.229   1.503 -0.6363  0.6377 -0.1654
 9285TIP3    H127819   1.308   6.145   1.502  0.0248  0.9960 -1.5289
 9285TIP3    H227820   1.198   6.219   1.573  0.0187 -0.6843  0.2894
 9286TIP3   OH227821   0.109   3.379   3.929 -0.1897  0.3030  0.0547
 9286TIP3    H127822   0.202   3.402   3.929  0.3735 -1.8134 -0.2268
 9286TIP3    H227823   0.107   3.286   3.910 -2.1980 -0.4223  3.0344
 9287TIP3   OH227824   6.481   4.582   5.665  0.2649  0.1747  0.0385
 9287TIP3    H127825   6.523   4.661   5.700 -0.3305  0.6168 -0.2163
 9287TIP3    H227826   6.554   4.524   5.641  0.7002  0.4410  0.6936
 9288TIP3   OH227827   2.337   2.199   5.283  0.1297  0.6035  0.0582
 9288TIP3    H127828   2.396   2.232   5.351  0.7728 -1.3540  0.5269
 9288TIP3    H227829   2.385   2.212   5.201  0.2840  0.9907  0.2080
 9289TIP3   OH227830   0.122   6.479   1.719 -0.6835 -0.0265  0.3299
 9289TIP3    H127831   0.198   6.496   1.776  0.1005  0.0747 -0.7055
 9289TIP3    H227832   0.138   6.391   1.685 -1.2450 -0.1593  0.4091
 9290TIP3   OH227833   0.245   1.426   5.393  0.0838 -0.0400  0.5133
 9290TIP3    H127834   0.216   1.338   5.372 -0.4978 -0.0137  1.1749
 9290TIP3    H227835   0.295   1.416   5.474 -0.7325  0.3515  1.0774
 9291TIP3   OH227836   2.452   3.429   0.236  0.0002 -0.4254  0.4932
 9291TIP3    H127837   2.494   3.476   0.165  0.6418 -0.4503  0.8423
 9291TIP3    H227838   2.377   3.483   0.260 -2.2584 -2.0378 -2.3905
 9292TIP3   OH227839   2.748   0.476   1.496  0.1361 -0.4025  0.1853
 9292TIP3    H127840   2.755   0.548   1.559  1.1075 -1.9357  1.8904
 9292TIP3    H227841   2.803   0.503   1.423  1.3380  0.1370  1.2549
 9293TIP3   OH227842   1.036   0.680   3.794  0.3068  0.2820  0.1786
 9293TIP3    H127843   1.094   0.700   3.868  0.7695  1.9392 -0.5746
 9293TIP3    H227844   1.064   0.594   3.764  1.1396  0.2609  0.9698
 9294TIP3   OH227845   4.071   5.258   0.703 -0.4705 -0.3355 -0.3829
 9294TIP3    H127846   3.980   5.276   0.727  0.2449  0.7264  1.8145
 9294TIP3    H227847   4.109   5.220   0.782  1.2679  0.3015 -0.8716
 9295TIP3   OH227848   5.005   5.093   2.713  0.5337 -0.7636  0.0799
 9295TIP3    H127849   4.949   5.017   2.727  0.2528 -0.3442  1.3342
 9295TIP3    H227850   5.092   5.065   2.742  0.3735 -0.5376  0.8047
 9296TIP3   OH227851   3.257   6.581   5.854 -0.6096  0.8818  0.0882
 9296TIP3    H127852   3.180   6.557   5.803 -0.1453 -2.5149  0.7337
 9296TIP3    H227853   3.329   6.582   5.791 -0.2698 -1.9358  0.3149
 9297TIP3   OH227854   4.132   2.281   4.074  0.7181  0.1168  0.0131
 9297TIP3    H127855   4.151   2.196   4.113  1.0080  0.1238 -0.1084
 9297TIP3    H227856   4.042   2.300   4.099  1.2551  0.6601  1.6610
 9298TIP3   OH227857   6.713   1.678   1.255 -0.4417  0.1830 -0.3353
 9298TIP3    H127858   6.746   1.692   1.166 -2.4961 -1.0856 -1.3802
 9298TIP3    H227859   6.738   1.588   1.275 -1.4287 -0.0924 -0.3161
 9299TIP3   OH227860   5.146   1.646   3.501 -0.0051  0.1443  0.0426
 9299TIP3    H127861   5.202   1.616   3.430 -0.2022 -1.1104  0.4018
 9299TIP3    H227862   5.057   1.636   3.467 -0.2878 -3.1682  1.3631
 9300TIP3   OH227863   1.368   6.571  -0.012  0.0815 -0.3253  0.2543
 9300TIP3    H127864   1.274   6.578   0.005  0.1207 -0.7954  0.6654
 9300TIP3    H227865   1.392   6.484   0.018  0.1447 -1.2423 -2.2450
 9301TIP3   OH227866   1.612   4.948   3.388 -0.2081 -0.0087 -0.0433
 9301TIP3    H127867   1.529   4.990   3.412 -0.2211 -0.0060 -0.0931
 9301TIP3    H227868   1.635   4.895   3.465 -0.1390  0.1689  0.0582
 9302TIP3   OH227869   4.578   6.584   0.937  0.3023 -0.3914  0.4303
 9302TIP3    H127870   4.607   6.580   1.028 -1.1196 -0.1334  0.9142
 9302TIP3    H227871   4.503   6.642   0.938 -0.9317 -1.8771 -0.5695
 9303TIP3   OH227872   2.028   1.763   3.550  0.4334 -0.7458 -0.3508
 9303TIP3    H127873   2.058   1.707   3.479 -1.2419 -0.5149 -1.2986
 9303TIP3    H227874   2.043   1.711   3.629  0.1073 -2.0166 -1.0855
 9304TIP3   OH227875   2.548   3.774   0.659  0.6487  0.3632  0.0385
 9304TIP3    H127876   2.635   3.813   0.662  0.2606  1.2241  0.7909
 9304TIP3    H227877   2.489   3.848   0.647  0.0315 -0.2354 -0.7109
 9305TIP3   OH227878   4.824   3.063   5.153  0.6370  0.1635 -0.5760
 9305TIP3    H127879   4.735   3.041   5.126  1.1157 -1.9182 -0.5757
 9305TIP3    H227880   4.813   3.135   5.216 -1.0001  0.1225 -0.7825
 9306TIP3   OH227881   4.097   2.339   1.625  0.2517  0.1327 -0.2817
 9306TIP3    H127882   4.102   2.250   1.661 -0.7760  1.1467  2.6978
 9306TIP3    H227883   4.010   2.344   1.585 -1.0955  0.6110  2.4183
 9307TIP3   OH227884   3.186   2.611   1.153 -0.3258  0.4007  0.0473
 9307TIP3    H127885   3.137   2.686   1.119 -1.7673  0.0209  1.1464
 9307TIP3    H227886   3.166   2.611   1.247  4.5163  2.1994  1.3555
 9308TIP3   OH227887   1.343   2.763   3.740  0.0916 -0.0091  0.1763
 9308TIP3    H127888   1.285   2.691   3.716 -0.9308  0.5315  0.9073
 9308TIP3    H227889   1.388   2.786   3.659  0.2150 -1.2585 -0.1267
 9309TIP3   OH227890   2.023   0.939   3.420  0.0540 -0.6680  0.1531
 9309TIP3    H127891   2.031   1.029   3.389  0.0951  0.0985  2.2431
 9309TIP3    H227892   2.101   0.895   3.387 -0.5727 -0.3134 -1.9435
 9310TIP3   OH227893   5.319   1.837   2.169  0.0826  0.2257 -0.2594
 9310TIP3    H127894   5.231   1.809   2.144 -0.1627  0.8249 -0.1080
 9310TIP3    H227895   5.342   1.781   2.244 -0.4793  0.5532  0.1680
 9311TIP3   OH227896   1.428   6.674   4.778  0.0729 -0.2352 -0.2329
 9311TIP3    H127897   1.461   6.682   4.867 -0.9243 -1.3177  0.2668
 9311TIP3    H227898   1.343   6.719   4.779  0.9455  1.5249 -1.1932
 9312TIP3   OH227899   0.443   3.702   3.677  0.5881  0.3458  0.6452
 9312TIP3    H127900   0.474   3.730   3.592 -1.3521  0.2013 -0.1695
 9312TIP3    H227901   0.498   3.749   3.740  2.3803  0.0737 -0.6486
 9313TIP3   OH227902   7.047   0.087  -0.013 -0.5078 -0.1796 -0.0542
 9313TIP3    H127903   7.137   0.058  -0.003 -0.4732  0.1007  0.4815
 9313TIP3    H227904   6.997   0.029   0.046 -0.4199  0.9027  1.1288
 9314TIP3   OH227905   3.857   0.481   3.013  0.0657  0.4512 -0.2846
 9314TIP3    H127906   3.871   0.511   2.924  1.9497 -2.2466 -1.0329
 9314TIP3    H227907   3.778   0.429   3.009  0.5048 -0.2072 -0.5659
 9315TIP3   OH227908   6.627   6.745   1.559 -0.0311 -0.6266  0.3965
 9315TIP3    H127909   6.706   6.768   1.511 -0.1117  0.4967  0.7802
 9315TIP3    H227910   6.622   6.650   1.552 -0.9032 -0.4736 -3.2241
 9316TIP3   OH227911   5.175   5.815   1.512 -0.2569  0.2267  0.4397
 9316TIP3    H127912   5.162   5.751   1.582  2.1663  0.3515  1.0725
 9316TIP3    H227913   5.264   5.799   1.480 -0.7367  1.2140 -1.5556
 9317TIP3   OH227914   6.829   6.295   3.675 -0.3370  0.1226  0.2515
 9317TIP3    H127915   6.867   6.370   3.629  0.8532 -0.3815  0.3764
 9317TIP3    H227916   6.893   6.274   3.743  0.2874 -2.1515 -0.9436
 9318TIP3   OH227917   4.103   5.167   4.640 -0.2147 -0.3591  0.1886
 9318TIP3    H127918   4.063   5.098   4.693  0.4477 -0.8537  0.0595
 9318TIP3    H227919   4.143   5.121   4.566 -0.8461  0.2902 -0.5789
 9319TIP3   OH227920   2.955   3.691   1.075  0.0540 -0.2062  0.0591
 9319TIP3    H127921   3.005   3.614   1.101  1.9605  1.1066  0.5811
 9319TIP3    H227922   2.864   3.665   1.082  0.6270 -2.2199  0.7430
 9320TIP3   OH227923   0.818   3.554   0.517 -0.2874  0.3252 -0.1924
 9320TIP3    H127924   0.823   3.474   0.466  2.5499  0.2223  0.1237
 9320TIP3    H227925   0.818   3.624   0.452  1.8904  0.1441 -0.4703
 9321TIP3   OH227926   0.559   3.946   3.517  0.0029 -0.3568  0.2197
 9321TIP3    H127927   0.606   3.895   3.451 -0.7676 -0.3701 -0.3280
 9321TIP3    H227928   0.628   3.994   3.563  0.5924 -0.6893 -0.2937
 9322TIP3   OH227929   6.835   6.518   0.138  0.4692  0.3433  0.0610
 9322TIP3    H127930   6.777   6.517   0.061  1.7823  2.6212 -1.0733
 9322TIP3    H227931   6.868   6.429   0.144 -1.3655 -0.4449 -0.6387
 9323TIP3   OH227932   5.811   1.712   5.540 -0.0133  0.4198  0.3193
 9323TIP3    H127933   5.767   1.661   5.608  1.5106 -0.3055  0.8203
 9323TIP3    H227934   5.896   1.733   5.578  0.6105  0.5748 -1.1154
 9324TIP3   OH227935   5.637   5.843   5.663 -0.0089  0.0908 -0.3340
 9324TIP3    H127936   5.616   5.899   5.588 -1.2949  2.4558  1.6637
 9324TIP3    H227937   5.573   5.772   5.658 -0.5099  0.5754 -1.1186
 9325TIP3   OH227938   2.448   4.893   4.243 -0.5722 -0.9614 -0.0266
 9325TIP3    H127939   2.359   4.895   4.277 -0.2130  0.4956  0.9346
 9325TIP3    H227940   2.500   4.855   4.314 -0.1688 -0.0799  0.1628
 9326TIP3   OH227941   5.241   3.253   1.445  0.5964  0.0553 -0.2632
 9326TIP3    H127942   5.233   3.344   1.474  0.2206 -0.3073  0.8007
 9326TIP3    H227943   5.321   3.221   1.487  0.2492 -0.3621  0.0926
 9327TIP3   OH227944   4.656   4.912   0.374  0.0782  0.1907  0.0792
 9327TIP3    H127945   4.737   4.951   0.406  0.2134 -0.1524  0.1490
 9327TIP3    H227946   4.650   4.827   0.418 -0.3184  0.2125  0.0777
 9328TIP3   OH227947   1.137   6.298   2.891 -0.4736 -0.1968 -0.2356
 9328TIP3    H127948   1.222   6.262   2.866 -0.3697  1.2234 -2.1335
 9328TIP3    H227949   1.139   6.388   2.858 -2.9123 -0.2952 -0.8191
 9329TIP3   OH227950   4.766   2.529   1.480 -0.2547  0.1195 -0.0472
 9329TIP3    H127951   4.778   2.449   1.429 -0.7439  0.0973 -0.1327
 9329TIP3    H227952   4.680   2.519   1.521 -1.4618  1.6552 -2.0129
 9330TIP3   OH227953   0.083   4.190   3.339  0.3937  0.8119  0.5670
 9330TIP3    H127954   0.137   4.206   3.417  2.8886 -1.1259 -0.5956
 9330TIP3    H227955   0.143   4.204   3.266 -0.9803 -0.4672 -0.8748
 9331TIP3   OH227956   2.770   2.888   1.977  0.0486 -0.0062  0.3351
 9331TIP3    H127957   2.827   2.965   1.981  1.2363 -0.7785 -1.0486
 9331TIP3    H227958   2.692   2.919   1.931  0.9876  0.1425 -1.2408
 9332TIP3   OH227959   0.684   3.695   1.488 -0.3504  0.2914 -0.1783
 9332TIP3    H127960   0.712   3.635   1.419 -1.3215  2.1006 -2.2799
 9332TIP3    H227961   0.765   3.720   1.533  0.5020  0.1365 -1.5833
 9333TIP3   OH227962   5.822   5.006   4.888 -0.1196  0.0801  0.3920
 9333TIP3    H127963   5.761   4.944   4.847  1.8885 -2.0490  0.3709
 9333TIP3    H227964   5.771   5.049   4.956 -2.2478  0.1836 -1.1529
 9334TIP3   OH227965   3.281   1.775   4.816 -0.3750  0.4296 -0.0047
 9334TIP3    H127966   3.291   1.868   4.836 -0.2180 -0.0921  2.6836
 9334TIP3    H227967   3.366   1.737   4.839 -1.1114 -0.6610  0.9948
 9335TIP3   OH227968   3.538   5.597   2.204  0.6925 -0.6318  0.2812
 9335TIP3    H127969   3.489   5.629   2.129 -0.0943  0.9568  1.4200
 9335TIP3    H227970   3.525   5.502   2.202  0.7839 -0.6512 -1.6142
 9336TIP3   OH227971   4.164   5.137   0.930 -0.0265  0.3504  0.0379
 9336TIP3    H127972   4.148   5.192   1.007 -0.9373  2.1281 -1.3258
 9336TIP3    H227973   4.151   5.048   0.960  0.1218  0.9694  2.0459
 9337TIP3   OH227974   0.694   3.385   4.317 -0.0094  0.1331 -0.3969
 9337TIP3    H127975   0.778   3.359   4.355  0.2013 -1.7441 -1.9784
 9337TIP3    H227976   0.633   3.315   4.342 -0.6625  0.5721 -0.7201
 9338TIP3   OH227977   6.188   2.093   0.776 -0.0856 -0.4905  0.2768
 9338TIP3    H127978   6.257   2.149   0.813 -0.3350 -1.0732  1.6634
 9338TIP3    H227979   6.185   2.118   0.683  2.1070 -0.5689  0.1344
 9339TIP3   OH227980   3.801   6.661   0.670  0.7215 -0.0359  0.4184
 9339TIP3    H127981   3.874   6.601   0.652 -0.0616 -1.6834  2.3561
 9339TIP3    H227982   3.835   6.722   0.735  1.0281  0.6695 -0.3789
 9340TIP3   OH227983   2.492   6.596   4.492 -0.2780 -0.0030  0.2177
 9340TIP3    H127984   2.491   6.558   4.404 -0.6690 -0.1938  0.3069
 9340TIP3    H227985   2.503   6.690   4.476 -2.2417  0.2152 -0.1299
 9341TIP3   OH227986   6.122   5.689   0.980  0.5228 -0.0888  0.1687
 9341TIP3    H127987   6.162   5.650   1.058  1.7669 -0.3785 -0.5746
 9341TIP3    H227988   6.197   5.709   0.923 -0.2757  1.0697 -0.5253
 9342TIP3   OH227989   0.388   1.519   0.811 -0.5213 -1.0586 -0.2100
 9342TIP3    H127990   0.478   1.496   0.786 -1.3007 -3.6843 -0.8437
 9342TIP3    H227991   0.349   1.553   0.731 -0.1533  0.0907  0.0672
 9343TIP3   OH227992   5.914   3.249   0.874  0.0737 -0.2173 -0.2096
 9343TIP3    H127993   5.879   3.186   0.937  1.1879  0.0566  0.7137
 9343TIP3    H227994   5.869   3.331   0.895  1.4469  0.2132  1.1934
 9344TIP3   OH227995   0.072   6.321   0.627  0.5200  0.0542 -0.6233
 9344TIP3    H127996  -0.017   6.293   0.647  0.8278 -0.6676 -0.2322
 9344TIP3    H227997   0.073   6.330   0.532 -0.6220  2.3797 -0.4913
 9345TIP3   OH227998   6.314   3.052   0.264 -0.1258 -0.5944 -0.5916
 9345TIP3    H127999   6.333   2.980   0.325 -2.4552 -2.2422 -1.6584
 9345TIP3    H228000   6.238   3.096   0.302  0.1126  0.1190 -0.9240
 9346TIP3   OH228001   4.933   5.365   3.064  0.7512 -0.1620  0.2323
 9346TIP3    H128002   4.974   5.413   3.136  0.1145  0.1087  0.4147
 9346TIP3    H228003   4.947   5.421   2.987 -0.8555  0.8346  0.6122
 9347TIP3   OH228004   5.279   6.369   1.397  0.0115 -0.3378 -0.2434
 9347TIP3    H128005   5.374   6.372   1.403 -0.0716  0.4070  1.6547
 9347TIP3    H228006   5.254   6.457   1.368 -0.1223 -0.2604  0.1014
 9348TIP3   OH228007   1.697   0.808   3.898 -0.1372  0.0530 -0.2916
 9348TIP3    H128008   1.689   0.750   3.822 -1.4248 -1.5017  0.9564
 9348TIP3    H228009   1.781   0.785   3.938 -0.8541 -1.3643  0.4697
 9349TIP3   OH228010   4.123   2.893   4.240  0.0361 -0.0766 -0.5585
 9349TIP3    H128011   4.046   2.845   4.210 -0.3736 -2.0104  2.9859
 9349TIP3    H228012   4.182   2.824   4.273  2.3380  1.5029 -1.1457
 9350TIP3   OH228013   5.229   3.875   1.459  0.0779  0.5020 -0.1941
 9350TIP3    H128014   5.146   3.850   1.498 -0.6590 -1.1333 -2.5666
 9350TIP3    H228015   5.213   3.963   1.425 -1.7747 -0.7928 -3.0874
 9351TIP3   OH228016   6.598   2.917   0.933  0.2227  0.0264  0.1714
 9351TIP3    H128017   6.691   2.899   0.923  0.4563  1.2497 -0.0585
 9351TIP3    H228018   6.558   2.880   0.855  0.7857  1.1129 -0.6701
 9352TIP3   OH228019   5.450   3.313   2.297 -0.1124 -0.3442 -0.1530
 9352TIP3    H128020   5.451   3.351   2.384  0.8655 -1.2320  0.2460
 9352TIP3    H228021   5.429   3.386   2.238 -0.0231  0.4158  0.7449
 9353TIP3   OH228022   3.409   6.013   0.705 -0.1499 -0.0735 -0.1370
 9353TIP3    H128023   3.436   5.927   0.673 -2.2273 -1.0019  0.3879
 9353TIP3    H228024   3.491   6.060   0.722  1.0363 -1.9250 -0.4838
 9354TIP3   OH228025   2.349   4.007   5.084 -0.3133 -0.6517 -1.1915
 9354TIP3    H128026   2.270   4.041   5.126  1.1123 -0.3615  1.4273
 9354TIP3    H228027   2.335   3.913   5.079 -0.0459 -0.8563  1.1226
 9355TIP3   OH228028   4.844   3.182   5.442  0.3772  0.3214 -0.0906
 9355TIP3    H128029   4.813   3.092   5.434  0.1314  0.2954  0.9974
 9355TIP3    H228030   4.765   3.235   5.436  0.0732  0.2666  2.4739
 9356TIP3   OH228031   0.502   5.114   1.054 -0.0613 -0.7545 -0.1991
 9356TIP3    H128032   0.592   5.146   1.051 -0.5045  0.7308  1.0783
 9356TIP3    H228033   0.491   5.063   0.974  1.6604 -0.2836 -0.7596
 9357TIP3   OH228034   1.366   3.350   4.646 -0.5046  0.0725  0.0885
 9357TIP3    H128035   1.458   3.348   4.620 -0.2697 -0.3631  0.9243
 9357TIP3    H228036   1.330   3.427   4.601  0.4350  0.6434  0.2907
 9358TIP3   OH228037   4.790   3.471   3.553 -0.6881 -0.8471 -0.0933
 9358TIP3    H128038   4.750   3.415   3.619  2.3716 -0.9093  1.9296
 9358TIP3    H228039   4.755   3.558   3.570  0.8662 -0.6292  2.5192
 9359TIP3   OH228040   6.681   0.260   2.802 -0.2770 -0.6436 -0.4494
 9359TIP3    H128041   6.671   0.220   2.888  2.1840  0.3062  0.3707
 9359TIP3    H228042   6.697   0.186   2.742 -0.2514 -1.1850  0.2196
 9360TIP3   OH228043   4.762   1.028   4.591  0.2771 -0.0407 -0.1934
 9360TIP3    H128044   4.838   1.078   4.620 -1.4160  1.5582  1.8100
 9360TIP3    H228045   4.785   0.937   4.606  2.2210  0.3021 -0.8193
 9361TIP3   OH228046   0.644   4.219   0.956 -0.1077  0.2010  0.5697
 9361TIP3    H128047   0.658   4.127   0.931 -0.3539  0.3488 -0.1309
 9361TIP3    H228048   0.684   4.226   1.042  1.8642 -0.0236 -0.2856
 9362TIP3   OH228049   7.077   0.039   4.333 -0.0071  0.5604  0.6296
 9362TIP3    H128050   7.052  -0.021   4.404 -0.7404  1.0350  0.7786
 9362TIP3    H228051   7.005   0.102   4.329  0.5199  1.1302  0.1314
 9363TIP3   OH228052   3.678   5.833   3.711 -0.6750 -0.1447 -1.0571
 9363TIP3    H128053   3.595   5.803   3.672 -0.1721 -3.8047  0.2168
 9363TIP3    H228054   3.658   5.841   3.805  0.4452 -1.7092 -0.6305
 9364TIP3   OH228055   5.680   5.255   1.035 -0.2084  0.0483 -0.0796
 9364TIP3    H128056   5.719   5.343   1.034 -0.7776  0.3084 -0.8409
 9364TIP3    H228057   5.659   5.238   1.127  0.2011  0.5765  0.1147
 9365TIP3   OH228058   5.223   0.936   1.746 -0.1911 -0.0114  0.5792
 9365TIP3    H128059   5.175   0.997   1.691 -1.9185 -1.4059  0.4200
 9365TIP3    H228060   5.177   0.939   1.831  0.7381  0.1133  1.0934
 9366TIP3   OH228061   4.622   5.063   0.715  0.4342 -0.9880  0.1842
 9366TIP3    H128062   4.531   5.033   0.707 -0.8884  2.2758  1.2951
 9366TIP3    H228063   4.652   5.074   0.624 -0.3574 -1.8129 -0.1908
 9367TIP3   OH228064   1.408   3.615   5.781  0.1172  0.7041  0.8645
 9367TIP3    H128065   1.383   3.538   5.731  0.2447  0.5371  1.0541
 9367TIP3    H228066   1.389   3.689   5.724 -0.4800  0.5609  0.8744
 9368TIP3   OH228067   6.814   4.329   4.749  0.0153 -0.1018 -0.0376
 9368TIP3    H128068   6.879   4.370   4.806 -0.3984 -1.7559  1.7775
 9368TIP3    H228069   6.807   4.387   4.674  0.3885  2.4244  1.7304
 9369TIP3   OH228070   3.426   3.194   5.384  0.3295 -0.2232 -0.0336
 9369TIP3    H128071   3.371   3.130   5.429  0.9813  0.1778  1.3959
 9369TIP3    H228072   3.446   3.259   5.451 -0.1002  1.3569 -1.3864
 9370TIP3   OH228073   2.514   3.609   5.800 -0.3050 -0.4364 -0.3874
 9370TIP3    H128074   2.567   3.597   5.721  1.0659  1.4336  0.2002
 9370TIP3    H228075   2.528   3.529   5.851 -0.1446 -1.0834 -1.4187
 9371TIP3   OH228076   0.359   1.887   4.182  0.4361  0.1525  0.3846
 9371TIP3    H128077   0.391   1.977   4.180 -1.3214  0.8161  0.3297
 9371TIP3    H228078   0.389   1.853   4.266 -0.6522  1.5129  1.3703
 9372TIP3   OH228079   3.796   2.828   5.172 -0.3849  0.3928 -0.1663
 9372TIP3    H128080   3.746   2.838   5.091 -0.3476  0.5422 -0.1705
 9372TIP3    H228081   3.887   2.842   5.146 -0.4022  0.7500 -0.0429
 9373TIP3   OH228082   2.070   1.706   1.607  0.0283  0.4636 -0.6455
 9373TIP3    H128083   2.110   1.788   1.638 -0.1908  0.4616 -0.3595
 9373TIP3    H228084   2.106   1.639   1.664 -0.0015  0.3952 -0.7072
 9374TIP3   OH228085   0.676   6.222   3.631  0.0888  0.1115  0.1120
 9374TIP3    H128086   0.754   6.255   3.675 -1.0947  2.4566  0.6164
 9374TIP3    H228087   0.678   6.127   3.646  2.0647  0.2932  1.3371
 9375TIP3   OH228088   6.242   2.648   5.319 -0.1287 -0.6113 -0.3855
 9375TIP3    H128089   6.335   2.663   5.338 -0.0836 -2.1309  0.7342
 9375TIP3    H228090   6.205   2.736   5.314  1.2818  0.0156 -0.3954
 9376TIP3   OH228091   4.561   4.177   2.179 -0.3477 -0.2374  0.1934
 9376TIP3    H128092   4.592   4.095   2.218 -0.1373 -0.5425 -0.6036
 9376TIP3    H228093   4.638   4.213   2.135 -0.1315  0.9838  1.4970
 9377TIP3   OH228094   1.715   1.944   3.329 -0.0964 -0.0073 -0.0104
 9377TIP3    H128095   1.667   2.027   3.327  1.5929  1.0003 -0.3604
 9377TIP3    H228096   1.660   1.884   3.279 -0.9062  1.1408 -0.5534
 9378TIP3   OH228097   6.662   1.559   2.733  0.4817  0.1291 -0.0133
 9378TIP3    H128098   6.736   1.501   2.715 -0.8455 -1.1653 -1.6369
 9378TIP3    H228099   6.604   1.507   2.788  0.3696  0.8045  0.5097
 9379TIP3   OH228100   3.033   3.484   1.966 -0.1090  0.3048  0.2483
 9379TIP3    H128101   3.046   3.450   1.878 -0.6209  0.0993  0.2539
 9379TIP3    H228102   3.103   3.548   1.977 -0.2779  0.6081 -0.4419
 9380TIP3   OH228103   0.090   2.042   3.592  0.1685  0.1029  0.4927
 9380TIP3    H128104   0.132   2.034   3.678  0.5809  0.7572  0.3600
 9380TIP3    H228105   0.159   2.019   3.529 -0.2556 -0.8053  0.3422
 9381TIP3   OH228106   6.930   4.353   2.139 -0.0035  0.2887 -0.3173
 9381TIP3    H128107   6.955   4.322   2.226  0.7352  1.6861 -0.0183
 9381TIP3    H228108   6.997   4.416   2.114 -0.1754 -0.1011 -1.9356
 9382TIP3   OH228109   0.335   3.547   4.303  0.2600  0.3015  0.1765
 9382TIP3    H128110   0.340   3.570   4.210  1.4351 -0.7385 -0.0356
 9382TIP3    H228111   0.426   3.545   4.332  0.2040 -2.8171  0.4641
 9383TIP3   OH228112   0.448   2.995   1.068 -0.1447 -0.1660 -0.2031
 9383TIP3    H128113   0.533   2.961   1.040 -0.2137 -0.1756 -0.4026
 9383TIP3    H228114   0.387   2.968   1.000 -0.7166 -1.9957  0.9563
 9384TIP3   OH228115   4.531   2.750   3.205 -0.3105 -0.6106  0.3023
 9384TIP3    H128116   4.492   2.672   3.244  1.7338 -2.1572 -0.5084
 9384TIP3    H228117   4.479   2.766   3.126 -1.5522 -0.3123  1.1514
 9385TIP3   OH228118   2.792   5.409   5.655 -0.3776  0.3332 -0.5559
 9385TIP3    H128119   2.800   5.319   5.686  0.9052 -0.1801 -2.1895
 9385TIP3    H228120   2.881   5.444   5.659 -0.4771  0.8036 -1.9061
 9386TIP3   OH228121   4.385   2.792   2.960  0.1827 -0.0886  0.0481
 9386TIP3    H128122   4.292   2.808   2.977 -0.4068 -2.7307 -0.2465
 9386TIP3    H228123   4.412   2.864   2.904 -1.3031  1.5222  1.3163
 9387TIP3   OH228124   6.079   4.447   1.042 -0.3146  0.3360  0.6117
 9387TIP3    H128125   6.056   4.421   1.132 -0.6086 -0.8850  0.2015
 9387TIP3    H228126   6.159   4.398   1.023  0.2541  1.2827  0.5122
 9388TIP3   OH228127   4.518   5.555   1.336  0.5805 -0.9097  0.3204
 9388TIP3    H128128   4.467   5.477   1.311 -1.9612  1.4444 -2.7118
 9388TIP3    H228129   4.481   5.581   1.420  0.0544 -1.8223  0.3913
 9389TIP3   OH228130   0.024   6.625   5.917  0.2367  0.5197 -0.3300
 9389TIP3    H128131   0.048   6.541   5.876  1.6826  0.8629 -0.2126
 9389TIP3    H228132   0.057   6.691   5.856  0.5038  1.0206  0.3564
 9390TIP3   OH228133   5.761  -0.006   0.284  0.0194 -0.0633  0.1772
 9390TIP3    H128134   5.735  -0.038   0.371  0.9406  1.1112  0.9243
 9390TIP3    H228135   5.700   0.066   0.266 -1.8555 -1.9041 -1.3645
 9391TIP3   OH228136   1.980   5.045   1.053  0.0874 -0.0012 -0.1744
 9391TIP3    H128137   2.073   5.064   1.039 -0.0484  0.2201 -0.7825
 9391TIP3    H228138   1.942   5.043   0.965 -0.7945  1.4926  0.1370
 9392TIP3   OH228139   2.663   3.489   4.868  0.2137 -0.6347 -0.0445
 9392TIP3    H128140   2.594   3.456   4.924  0.0864  0.4465  0.4563
 9392TIP3    H228141   2.718   3.543   4.925  0.1319  0.4141 -0.9202
 9393TIP3   OH228142   5.244   4.656   3.245 -0.0103 -0.2247  0.3222
 9393TIP3    H128143   5.236   4.562   3.263 -2.9120 -0.1320 -0.0754
 9393TIP3    H228144   5.203   4.668   3.160 -1.3282  1.6135  1.1313
 9394TIP3   OH228145   0.223   2.518   5.477 -0.6652  0.1817 -0.7410
 9394TIP3    H128146   0.256   2.497   5.564 -1.0708  1.1483 -0.3493
 9394TIP3    H228147   0.301   2.542   5.427  0.0161 -3.0861 -1.5286
 9395TIP3   OH228148   1.490   0.383   3.552  0.4416 -0.7380  0.1280
 9395TIP3    H128149   1.403   0.418   3.570  0.4633 -0.8083  0.3873
 9395TIP3    H228150   1.476   0.289   3.538  0.4468 -0.7109 -0.0603
 9396TIP3   OH228151   6.134   6.755   3.937  0.1040  0.3751 -0.7134
 9396TIP3    H128152   6.183   6.785   4.013 -0.5679 -0.0226 -0.1200
 9396TIP3    H228153   6.159   6.662   3.928  0.3437  0.4746 -1.1098
 9397TIP3   OH228154   7.088   0.536   3.558  0.0605  0.5496  0.0605
 9397TIP3    H128155   7.051   0.538   3.469 -0.6907 -0.0808  0.3434
 9397TIP3    H228156   7.028   0.588   3.610 -0.7647 -0.9032  0.6294
 9398TIP3   OH228157   2.983   3.826   1.377  0.0335 -0.1839  0.3823
 9398TIP3    H128158   3.001   3.908   1.422 -1.5493  1.3869 -1.6034
 9398TIP3    H228159   3.039   3.828   1.299 -1.2602 -0.0722 -0.5956
 9399TIP3   OH228160   6.310   0.504   5.559 -0.1213 -0.0508  0.6928
 9399TIP3    H128161   6.365   0.478   5.485  0.6622 -0.5833  1.4386
 9399TIP3    H228162   6.310   0.600   5.557 -1.1393 -0.0475 -0.7179
 9400TIP3   OH228163   0.115   1.002   2.357 -0.1185  0.3434 -0.0902
 9400TIP3    H128164   0.073   0.916   2.364  1.8885 -0.6053  1.5133
 9400TIP3    H228165   0.169   0.996   2.278 -3.2000  1.7722 -2.4962
 9401TIP3   OH228166   6.556   2.380   3.025 -0.2363  0.1110 -0.5162
 9401TIP3    H128167   6.605   2.298   3.017 -1.1315 -0.6314  1.1542
 9401TIP3    H228168   6.464   2.353   3.028 -0.4985  1.0454  1.0501
 9402TIP3   OH228169   0.872   6.055   0.130  0.4178 -0.6142 -0.3135
 9402TIP3    H128170   0.803   6.011   0.179 -0.3558 -1.1527 -1.8361
 9402TIP3    H228171   0.912   5.986   0.077  0.4987  0.1463 -1.2620
 9403TIP3   OH228172   1.464   1.611   1.534 -0.0274  0.1115  0.4317
 9403TIP3    H128173   1.418   1.536   1.574 -0.1332  0.6128  1.2666
 9403TIP3    H228174   1.529   1.636   1.599 -1.0782  1.7833  0.8993
 9404TIP3   OH228175   3.145   2.500   2.272  0.2315  0.1897 -0.1169
 9404TIP3    H128176   3.152   2.550   2.354  1.7435 -1.6386  0.9432
 9404TIP3    H228177   3.198   2.550   2.209  0.3322  0.7915  0.4342
 9405TIP3   OH228178   6.997   4.427   2.890  0.0732 -0.2097  0.2562
 9405TIP3    H128179   7.038   4.423   2.804  0.4040 -0.6199  0.4290
 9405TIP3    H228180   6.913   4.470   2.875 -0.8537 -2.2119 -0.6693
 9406TIP3   OH228181   0.927   2.234   1.528 -0.3428  0.1301 -0.0129
 9406TIP3    H128182   0.947   2.314   1.479  1.0595  0.3419  0.8561
 9406TIP3    H228183   0.978   2.165   1.485 -0.0616  0.0826  0.3836
 9407TIP3   OH228184   1.931   4.246   1.582  0.1179 -0.2687  0.6549
 9407TIP3    H128185   2.009   4.300   1.571 -1.1979  1.5630 -0.1560
 9407TIP3    H228186   1.864   4.306   1.614 -1.0275 -1.7547  1.1747
 9408TIP3   OH228187   7.031   6.224   0.651  0.2490 -0.1360 -0.1549
 9408TIP3    H128188   6.963   6.233   0.585 -0.1499 -1.6521  0.0039
 9408TIP3    H228189   6.984   6.212   0.734  0.7323  0.8035  0.2748
 9409TIP3   OH228190   0.390   5.211   0.625 -0.1055  0.0921  0.2818
 9409TIP3    H128191   0.325   5.276   0.597  0.4068  0.6459  0.3544
 9409TIP3    H228192   0.446   5.258   0.687  0.4553 -0.3348  0.1072
 9410TIP3   OH228193   3.835   4.191   5.757 -0.2689  0.4318 -0.1991
 9410TIP3    H128194   3.806   4.234   5.677  0.3183 -0.3525 -0.8482
 9410TIP3    H228195   3.880   4.259   5.806  0.8332  0.5418 -1.3048
 9411TIP3   OH228196   6.731   0.838   0.329  0.2092  0.2300 -0.0744
 9411TIP3    H128197   6.816   0.823   0.371 -0.4420  1.1383  1.6915
 9411TIP3    H228198   6.716   0.760   0.276  1.0344 -1.0870  1.5356
 9412TIP3   OH228199   5.453   0.582   3.969 -0.6320  0.1896  0.8992
 9412TIP3    H128200   5.401   0.625   4.037 -1.3497 -1.4516  1.4377
 9412TIP3    H228201   5.389   0.559   3.901 -0.2992 -0.1726  0.7061
 9413TIP3   OH228202   2.145   1.329   5.061  0.3599 -0.3808 -0.3816
 9413TIP3    H128203   2.190   1.245   5.063  1.0429 -0.0074  1.0496
 9413TIP3    H228204   2.213   1.393   5.079 -0.2567  0.4334 -0.9074
 9414TIP3   OH228205   4.426   3.026   0.465  0.2274  0.5667  0.0338
 9414TIP3    H128206   4.485   3.044   0.393 -1.6132  1.8125 -1.2648
 9414TIP3    H228207   4.405   3.112   0.501 -1.6472  0.3058 -0.3269
 9415TIP3   OH228208   0.201   5.538   3.488 -0.4528 -0.0373  0.3704
 9415TIP3    H128209   0.287   5.549   3.529 -1.0779  1.4302  1.3879
 9415TIP3    H228210   0.154   5.618   3.510 -2.2720 -1.0344  0.2850
 9416TIP3   OH228211   0.648   2.118   5.062 -0.2523 -0.0998 -0.4092
 9416TIP3    H128212   0.673   2.110   5.154 -0.4794 -0.8259 -0.4029
 9416TIP3    H228213   0.650   2.212   5.044  0.7859 -0.0292  0.0577
 9417TIP3   OH228214   4.051   1.642   1.344  0.0845  0.4456 -0.4183
 9417TIP3    H128215   4.071   1.728   1.307 -1.2719  1.4208  0.9986
 9417TIP3    H228216   4.064   1.653   1.439  0.8736 -1.2128 -0.2948
 9418TIP3   OH228217   5.943   3.925   0.980  0.2150 -0.0120 -1.0721
 9418TIP3    H128218   5.896   4.002   0.947 -1.1698 -0.7603 -0.9339
 9418TIP3    H228219   5.878   3.879   1.034  1.1088 -1.1095 -0.8992
 9419TIP3   OH228220   3.778   6.314   2.126  0.1623 -0.4658  0.5851
 9419TIP3    H128221   3.763   6.353   2.039  0.3287 -0.8875  0.3675
 9419TIP3    H228222   3.806   6.225   2.108  1.0639 -0.2864  1.0521
 9420TIP3   OH228223   6.876   5.171   0.095 -0.1330 -1.1162 -0.4979
 9420TIP3    H128224   6.891   5.116   0.172  2.0501 -0.6049 -0.4833
 9420TIP3    H228225   6.804   5.229   0.120  2.3196  1.0165  2.3913
 9421TIP3   OH228226   0.457   1.221   1.032 -0.7552  0.5469 -0.4498
 9421TIP3    H128227   0.545   1.203   1.065 -1.3040 -0.9765  0.3011
 9421TIP3    H228228   0.447   1.316   1.040  1.2720  0.9300 -1.8088
 9422TIP3   OH228229   2.836   3.880   3.015 -0.2330 -0.0767 -0.2663
 9422TIP3    H128230   2.748   3.858   2.985 -0.9970  0.1861  1.5846
 9422TIP3    H228231   2.876   3.796   3.037 -1.4918 -0.0587  2.5168
 9423TIP3   OH228232   6.245   6.347   3.717  0.1439  0.0893 -0.4447
 9423TIP3    H128233   6.321   6.289   3.714  0.0366 -0.1276  0.6937
 9423TIP3    H228234   6.178   6.301   3.666  0.9582  0.5949 -2.0415
 9424TIP3   OH228235   2.059   3.855   3.036 -0.0192 -0.3731 -0.4410
 9424TIP3    H128236   2.027   3.880   2.949 -1.6257 -0.8800 -0.0442
 9424TIP3    H228237   2.119   3.783   3.020  1.8619  1.3027 -1.3164
 9425TIP3   OH228238   1.872   5.617   4.696 -0.5060  0.1986 -0.3855
 9425TIP3    H128239   1.801   5.612   4.760 -0.7264 -0.3919 -0.6648
 9425TIP3    H228240   1.894   5.710   4.691 -1.1140  0.3573 -0.1352
 9426TIP3   OH228241   1.820   4.633   3.780  0.4880 -0.7005  0.1488
 9426TIP3    H128242   1.842   4.603   3.868  2.0224 -1.2619 -0.3857
 9426TIP3    H228243   1.818   4.553   3.727  0.4923 -0.2794 -0.5017
 9427TIP3   OH228244   2.468   1.031   1.306 -0.0038 -0.5327 -0.0646
 9427TIP3    H128245   2.482   1.023   1.400  0.1073  1.2797  0.1123
 9427TIP3    H228246   2.425   0.949   1.281  1.2631 -1.6715  1.2795
 9428TIP3   OH228247   0.633   5.383   2.604  0.1413  0.1289 -0.3377
 9428TIP3    H128248   0.538   5.376   2.599  0.2843 -2.0476 -1.1250
 9428TIP3    H228249   0.650   5.474   2.628 -2.2046 -0.0125  2.2464
 9429TIP3   OH228250   2.198   4.652   3.053 -0.0016 -0.3919 -0.6363
 9429TIP3    H128251   2.130   4.589   3.030 -1.2981  1.2590 -1.5072
 9429TIP3    H228252   2.183   4.670   3.146 -0.7542 -0.0538 -0.8163
 9430TIP3   OH228253   5.880  -0.004   4.471  0.3903  0.0242  0.5409
 9430TIP3    H128254   5.860   0.076   4.519  2.2865  0.3196  0.8923
 9430TIP3    H228255   5.945   0.022   4.406  1.1545 -1.2549  0.7639
 9431TIP3   OH228256   5.099   3.101   1.171  0.6571 -0.3521 -0.4745
 9431TIP3    H128257   5.036   3.161   1.211 -0.7170 -0.5432 -2.2644
 9431TIP3    H228258   5.182   3.149   1.174  0.3240  0.1707  1.3144
 9432TIP3   OH228259   2.067   6.626   1.234  0.0340  0.4493  0.6821
 9432TIP3    H128260   2.017   6.546   1.249  1.1002 -0.0630  1.6623
 9432TIP3    H228261   2.019   6.694   1.281 -2.0045  0.8854 -1.7897
 9433TIP3   OH228262   5.017   6.435   5.740 -0.0271 -0.2991 -0.6598
 9433TIP3    H128263   5.009   6.525   5.771  2.5710  0.2519 -1.3627
 9433TIP3    H228264   5.019   6.382   5.820 -0.7019  0.3422 -0.2081
 9434TIP3   OH228265   0.125   0.767   0.202  0.3526 -0.2833 -0.5740
 9434TIP3    H128266   0.118   0.676   0.174 -0.9153 -0.8723  1.4517
 9434TIP3    H228267   0.043   0.808   0.174 -0.7678 -0.7890  1.7187
 9435TIP3   OH228268   3.931   4.258   2.007  0.6469 -0.5302 -0.7718
 9435TIP3    H128269   3.955   4.350   1.997 -1.1496  0.0044 -0.6447
 9435TIP3    H228270   3.905   4.250   2.099  0.9859 -1.2159 -0.7322
 9436TIP3   OH228271   0.490   4.621   1.600  0.6847 -0.1747  0.2379
 9436TIP3    H128272   0.531   4.627   1.687  2.0605 -0.7651 -0.3553
 9436TIP3    H228273   0.553   4.573   1.547 -0.5405 -0.6004 -0.8667
 9437TIP3   OH228274   1.251   3.841   2.235  0.1837 -0.1441 -0.0369
 9437TIP3    H128275   1.282   3.779   2.169 -1.3240 -0.9114 -0.0560
 9437TIP3    H228276   1.239   3.788   2.314 -0.9550  0.1474 -0.0045
 9438TIP3   OH228277   4.184   6.527   1.705  0.6470 -0.3034 -0.2723
 9438TIP3    H128278   4.114   6.509   1.768 -0.7932  0.0767 -1.6913
 9438TIP3    H228279   4.226   6.442   1.691  1.3732 -0.2909  1.5771
 9439TIP3   OH228280   3.937   4.839   4.200  0.3584 -0.5714 -0.5336
 9439TIP3    H128281   3.921   4.795   4.283  2.3204 -0.8796 -0.2894
 9439TIP3    H228282   3.985   4.918   4.223 -1.7857  1.0038 -1.1270
 9440TIP3   OH228283   2.712   3.800   1.313  0.2314 -0.1658  0.4015
 9440TIP3    H128284   2.693   3.784   1.406  0.0522 -1.3731  0.1686
 9440TIP3    H228285   2.806   3.816   1.310 -0.1142  2.6040  1.1278
 9441TIP3   OH228286   2.626   4.449   2.908  0.3053  0.4425 -0.7395
 9441TIP3    H128287   2.553   4.389   2.890  0.5110 -0.2600  0.6310
 9441TIP3    H228288   2.692   4.427   2.843  0.0510 -0.2570 -0.7669
 9442TIP3   OH228289   3.179   3.513   5.485  0.4307  0.3878  0.0248
 9442TIP3    H128290   3.226   3.592   5.457 -0.6236  1.1555  0.3551
 9442TIP3    H228291   3.230   3.481   5.560  0.9280  0.6914 -0.1753
 9443TIP3   OH228292   2.829   3.183   3.627 -0.3141  0.4339  0.3789
 9443TIP3    H128293   2.893   3.211   3.561  0.2532 -0.3150  0.6070
 9443TIP3    H228294   2.750   3.234   3.607 -0.1058  0.3181 -0.7894
 9444TIP3   OH228295   6.986   1.513   2.171  0.1906 -0.1119 -0.1320
 9444TIP3    H128296   6.991   1.565   2.252  1.3451 -1.2779  0.5915
 9444TIP3    H228297   7.034   1.433   2.191 -0.4241 -0.9064 -1.6437
 9445TIP3   OH228298   1.377   5.666   3.213 -0.6806 -0.1121  0.2525
 9445TIP3    H128299   1.419   5.581   3.200 -1.2880 -0.4649  0.5658
 9445TIP3    H228300   1.324   5.655   3.292 -2.5123 -0.1564 -0.9142
 9446TIP3   OH228301   3.305   1.876   2.940  0.1388 -0.0764 -0.1317
 9446TIP3    H128302   3.308   1.785   2.910 -1.2061 -0.8943  2.0050
 9446TIP3    H228303   3.352   1.876   3.023 -0.3655  1.0663  0.1776
 9447TIP3   OH228304   2.995   4.504   2.811  0.1387  0.2065 -0.6841
 9447TIP3    H128305   3.052   4.575   2.780  1.7526 -2.1051 -3.5291
 9447TIP3    H228306   2.918   4.509   2.754 -0.4836  0.5757  0.1651
 9448TIP3   OH228307   4.664   5.477   5.533  0.1577 -0.0342 -0.2305
 9448TIP3    H128308   4.601   5.409   5.510  0.1542 -0.3856  0.7900
 9448TIP3    H228309   4.611   5.548   5.568  0.2941 -0.1811  0.2804
 9449TIP3   OH228310   5.246   1.664   0.586  0.4067  0.3303 -0.3159
 9449TIP3    H128311   5.206   1.678   0.500  1.9272 -1.1151 -1.3096
 9449TIP3    H228312   5.326   1.616   0.568  1.9684  1.9843  1.7224
 9450TIP3   OH228313   6.539   1.412   3.764 -0.3644  0.1683 -0.2934
 9450TIP3    H128314   6.470   1.456   3.714  0.6068  1.6143 -0.4207
 9450TIP3    H228315   6.616   1.416   3.707 -0.4634 -2.6589 -0.7470
 9451TIP3   OH228316   2.119   5.124   3.063 -0.6923 -0.4393 -0.1217
 9451TIP3    H128317   2.055   5.104   3.132  1.2524 -1.4230  1.5030
 9451TIP3    H228318   2.143   5.039   3.027  0.8219 -0.2697  0.4071
 9452TIP3   OH228319   4.861   2.775   1.532  0.1373 -0.5984 -0.3066
 9452TIP3    H128320   4.780   2.822   1.553 -0.4355 -0.8821 -1.7443
 9452TIP3    H228321   4.833   2.685   1.514  0.8595 -0.8455 -0.2478
 9453TIP3   OH228322   3.599   4.125   5.344 -0.2801  0.0683 -0.6949
 9453TIP3    H128323   3.538   4.164   5.281  0.6905  0.6870 -1.2884
 9453TIP3    H228324   3.662   4.077   5.290  1.2845  1.6073 -0.3387
 9454TIP3   OH228325   6.620   4.423   2.668 -0.0808  0.1453  0.4837
 9454TIP3    H128326   6.540   4.412   2.616  2.0992 -0.9505 -3.0005
 9454TIP3    H228327   6.633   4.338   2.709 -0.6113  0.2956  0.9813
 9455TIP3   OH228328   3.926   6.504   4.329  0.0429 -0.2949  0.1120
 9455TIP3    H128329   3.938   6.595   4.359  0.2431 -0.1128 -0.4991
 9455TIP3    H228330   4.015   6.471   4.316 -0.0282 -0.0406 -1.2067
 9456TIP3   OH228331   3.328   2.981   2.488 -0.4368 -0.1530 -0.1276
 9456TIP3    H128332   3.237   2.955   2.471 -1.0634  0.9744  1.2597
 9456TIP3    H228333   3.325   3.076   2.494  0.3188 -0.2166  2.4801
 9457TIP3   OH228334   4.109   1.010   0.591  0.6596 -0.0456  0.9719
 9457TIP3    H128335   4.089   0.969   0.507 -0.9978 -2.6193  2.4773
 9457TIP3    H228336   4.023   1.022   0.633  1.5330 -1.8356  3.5350
 9458TIP3   OH228337   3.974   0.277   4.737 -0.1769 -0.1348 -0.0894
 9458TIP3    H128338   4.030   0.212   4.781 -0.9292 -0.3270  0.6078
 9458TIP3    H228339   3.886   0.260   4.771 -0.5443  0.6404 -0.6210
 9459TIP3   OH228340   0.613   4.616   4.405  0.5583 -0.5680 -0.2488
 9459TIP3    H128341   0.614   4.543   4.467  0.9018 -0.5310 -0.2117
 9459TIP3    H228342   0.705   4.631   4.384  0.4694 -0.3179 -0.4610
 9460TIP3   OH228343   0.599   1.207   4.035  0.1869 -0.4214 -0.2375
 9460TIP3    H128344   0.589   1.295   3.998 -0.2188 -0.1361  0.5147
 9460TIP3    H228345   0.568   1.216   4.125 -1.5043 -1.7343 -0.6387
 9461TIP3   OH228346   2.112   0.615   1.512  0.3615  0.1996 -0.1624
 9461TIP3    H128347   2.114   0.708   1.534  0.1697 -0.2100  1.8030
 9461TIP3    H228348   2.019   0.591   1.518  0.6099 -0.4953  1.2427
 9462TIP3   OH228349   6.420   1.968   4.852  0.0360  0.3237 -0.5322
 9462TIP3    H128350   6.420   2.054   4.894  0.0164  0.1515 -0.1714
 9462TIP3    H228351   6.399   1.986   4.760  0.7868  0.7810 -0.6267
 9463TIP3   OH228352   6.730   4.477   5.573  0.1154  1.1268 -0.6674
 9463TIP3    H128353   6.720   4.528   5.493 -1.8095  0.7825 -0.7117
 9463TIP3    H228354   6.800   4.415   5.554  0.4630  1.8003 -1.6576
 9464TIP3   OH228355   4.595   4.568   5.452  0.3460  0.2539 -0.0137
 9464TIP3    H128356   4.561   4.488   5.493 -0.9066  0.0855 -1.3073
 9464TIP3    H228357   4.523   4.630   5.457  0.5150  0.5463 -1.0730
 9465TIP3   OH228358   5.551   1.209   1.924  0.2693 -0.3700 -0.1146
 9465TIP3    H128359   5.566   1.300   1.902 -2.6070  0.1576 -0.2089
 9465TIP3    H228360   5.497   1.211   2.003 -0.9320 -1.9206 -0.8291
 9466TIP3   OH228361   3.291   5.045   5.480 -0.0367 -0.2026  0.7094
 9466TIP3    H128362   3.267   5.133   5.449 -0.7703  0.0090  1.7849
 9466TIP3    H228363   3.349   5.062   5.555 -1.1569 -0.5778  1.6967
 9467TIP3   OH228364   4.952   3.364   1.631  0.2318  0.4569  0.2774
 9467TIP3    H128365   4.911   3.387   1.714 -0.4655 -0.4152  0.1853
 9467TIP3    H228366   4.932   3.271   1.619  0.3150  0.5756 -0.8728
 9468TIP3   OH228367   2.422   5.723   0.638  0.4543 -0.5214  0.3883
 9468TIP3    H128368   2.327   5.718   0.650  0.0586  2.9100 -0.2890
 9468TIP3    H228369   2.435   5.715   0.543  0.8295 -0.7362  0.4544
 9469TIP3   OH228370   5.230   2.853   0.512 -0.6153 -0.3569 -0.0594
 9469TIP3    H128371   5.182   2.785   0.559  0.3686 -0.2410  1.1637
 9469TIP3    H228372   5.209   2.934   0.558 -0.1376 -0.1431 -0.2115
 9470TIP3   OH228373   1.122   6.289   1.779  0.1458 -0.2783  0.1699
 9470TIP3    H128374   1.085   6.377   1.782  2.5392  0.8426 -0.6801
 9470TIP3    H228375   1.096   6.249   1.862  0.8936  2.0580  1.6275
 9471TIP3   OH228376   4.945   3.935   2.166  0.2599 -0.3281  0.1626
 9471TIP3    H128377   4.896   3.905   2.089 -1.0593  1.6266  0.1559
 9471TIP3    H228378   4.908   3.885   2.239  0.1137 -0.7610 -0.2030
 9472TIP3   OH228379   5.317   1.948   3.477  0.3434  0.4510 -0.7988
 9472TIP3    H128380   5.385   1.882   3.465 -0.4148 -0.3996 -0.5264
 9472TIP3    H228381   5.355   2.028   3.442  1.4805 -0.0102 -0.6553
 9473TIP3   OH228382   0.925   2.823   5.240 -0.3332  0.0259  0.0809
 9473TIP3    H128383   0.981   2.762   5.191  0.4654  0.0302  0.9625
 9473TIP3    H228384   0.985   2.890   5.272 -1.1374  1.0516 -0.4911
 9474TIP3   OH228385   4.120   6.555   4.539 -0.3095 -0.4697  0.0185
 9474TIP3    H128386   4.049   6.557   4.603 -0.4286  1.4861 -0.1140
 9474TIP3    H228387   4.175   6.482   4.566  1.0091  1.6882  3.8813
 9475TIP3   OH228388   6.128   3.624   0.006 -0.3897 -0.2365 -0.9128
 9475TIP3    H128389   6.172   3.576   0.076  1.1510  0.5766 -1.2651
 9475TIP3    H228390   6.098   3.705   0.047  0.2999  0.1314 -1.1113
 9476TIP3   OH228391   1.083   1.783   1.047  0.2599 -0.8105  0.0193
 9476TIP3    H128392   0.998   1.755   1.015 -1.3269  1.1350  2.1621
 9476TIP3    H228393   1.124   1.703   1.079 -1.6535 -1.5526  0.7695
 9477TIP3   OH228394   4.027  -0.017   2.712 -0.2413 -0.0194  0.2372
 9477TIP3    H128395   4.076  -0.038   2.633  0.0878  0.6402  0.2654
 9477TIP3    H228396   4.042   0.076   2.726 -2.1213  0.3952 -0.1925
 9478TIP3   OH228397   4.297   0.878   4.249  0.0616 -0.1620 -0.0807
 9478TIP3    H128398   4.381   0.847   4.215 -0.0587 -2.4922  1.5144
 9478TIP3    H228399   4.234   0.853   4.182  0.3249 -0.9833 -0.0396
 9479TIP3   OH228400   6.751   1.017   4.720  0.1325  0.4743 -0.2712
 9479TIP3    H128401   6.792   0.936   4.689 -0.9200  0.4042 -1.6000
 9479TIP3    H228402   6.712   1.056   4.641 -1.1383  1.2364  0.6838
 9480TIP3   OH228403   2.071   6.365   5.577  0.5019  0.1938 -0.1139
 9480TIP3    H128404   2.126   6.334   5.649  2.2888  3.1108 -0.0521
 9480TIP3    H228405   2.075   6.295   5.512  2.4676 -0.6785  0.8656
 9481TIP3   OH228406   5.634   0.351   2.369 -0.4367  0.1382  0.3032
 9481TIP3    H128407   5.570   0.284   2.389 -2.3882  0.2311 -4.3204
 9481TIP3    H228408   5.694   0.310   2.307  0.4028  1.7010  0.0019
 9482TIP3   OH228409   5.104   1.405   5.586  0.0068  0.0273  0.4304
 9482TIP3    H128410   5.015   1.403   5.622 -0.6762 -3.0425 -1.0407
 9482TIP3    H228411   5.152   1.340   5.637 -0.4214 -2.8902 -2.5616
 9483TIP3   OH228412   2.944   4.258   1.713  0.0198  0.6972 -0.3704
 9483TIP3    H128413   2.997   4.178   1.716 -0.4181  0.4002 -0.4985
 9483TIP3    H228414   2.973   4.309   1.789 -0.4418 -0.0569  0.3249
 9484TIP3   OH228415   4.369   0.767   4.493  0.2370  0.0037  0.5531
 9484TIP3    H128416   4.310   0.779   4.418  0.5198 -0.8614  0.1789
 9484TIP3    H228417   4.419   0.848   4.497 -0.4632  0.4509  0.4137
 9485TIP3   OH228418   2.364   2.409   1.477 -0.6833  0.0319 -0.4543
 9485TIP3    H128419   2.319   2.330   1.445 -2.1600  0.1446  1.2267
 9485TIP3    H228420   2.405   2.382   1.559 -0.1647  0.7051 -0.4867
 9486TIP3   OH228421   6.873   2.325   2.390  0.0263  0.1799  0.5602
 9486TIP3    H128422   6.812   2.252   2.394 -0.1322  0.3204  0.7149
 9486TIP3    H228423   6.864   2.360   2.301  0.1432 -0.0223  0.4689
 9487TIP3   OH228424   3.915   5.927   1.153 -0.7200  1.1435 -0.8235
 9487TIP3    H128425   3.940   6.020   1.161 -1.3168  1.2033  0.5234
 9487TIP3    H228426   3.919   5.893   1.242 -2.3640  0.3534 -1.0262
 9488TIP3   OH228427   4.833   0.290   4.865 -0.1475 -0.0757  0.0061
 9488TIP3    H128428   4.895   0.282   4.792  1.1772  0.0453  1.0844
 9488TIP3    H228429   4.858   0.221   4.926 -0.2743  0.7387  1.0142
 9489TIP3   OH228430   6.494   0.194   0.012 -0.5430 -0.3409 -0.7978
 9489TIP3    H128431   6.400   0.182  -0.002 -1.1196  1.3784  1.1100
 9489TIP3    H228432   6.500   0.273   0.065  2.0738  0.1715 -1.7315
 9490TIP3   OH228433   3.654   6.533   2.791  0.0936 -0.4553  0.1401
 9490TIP3    H128434   3.645   6.627   2.802  0.6150 -0.3504 -0.2765
 9490TIP3    H228435   3.661   6.499   2.881 -0.1065 -0.1026  0.2912
 9491TIP3   OH228436   5.925   6.592   5.057  0.0157 -0.3880  0.5491
 9491TIP3    H128437   5.937   6.533   4.982 -0.2752 -0.4322  0.5318
 9491TIP3    H228438   5.831   6.584   5.077 -0.4481  1.5356 -0.6612
 9492TIP3   OH228439   6.728   5.571   0.964 -0.2913 -0.1542 -0.5524
 9492TIP3    H128440   6.731   5.636   1.034 -0.2707  0.6503 -1.2865
 9492TIP3    H228441   6.634   5.560   0.945 -0.4093 -1.5355  0.6364
 9493TIP3   OH228442   3.472   5.857   0.453 -0.3191 -0.3327 -0.2968
 9493TIP3    H128443   3.435   5.945   0.444  0.8836  0.1906 -0.2045
 9493TIP3    H228444   3.456   5.816   0.368 -1.6190 -0.3397 -0.0798
 9494TIP3   OH228445   3.163   3.485   3.579 -0.1106  0.2864 -0.2126
 9494TIP3    H128446   3.256   3.487   3.602  0.7991 -1.5037 -3.0866
 9494TIP3    H228447   3.127   3.411   3.628  0.3337  0.0985 -0.1688
 9495TIP3   OH228448   4.243   2.477   1.452  0.2591 -0.2565  0.1234
 9495TIP3    H128449   4.192   2.416   1.505 -0.9907 -0.3346 -1.1157
 9495TIP3    H228450   4.201   2.562   1.467 -0.0547 -0.2677 -0.6644
 9496TIP3   OH228451   5.375   3.095   2.529  0.3902 -0.4279 -0.4587
 9496TIP3    H128452   5.419   3.094   2.444  1.7343 -1.7661  0.2017
 9496TIP3    H228453   5.396   3.181   2.566  0.4306 -0.1330 -1.1632
 9497TIP3   OH228454   3.841   0.947   0.766 -0.5114  0.2951  0.3311
 9497TIP3    H128455   3.771   0.898   0.810 -0.1056  0.8147  1.5802
 9497TIP3    H228456   3.805   0.966   0.679 -1.0633 -1.3348  0.1584
 9498TIP3   OH228457   0.544   3.271   1.990 -0.5283  0.5086  0.2293
 9498TIP3    H128458   0.513   3.337   2.052 -0.9880  0.7162 -0.2084
 9498TIP3    H228459   0.640   3.280   1.991 -0.4258 -0.4841  1.9648
 9499TIP3   OH228460   2.915   4.542   0.470  0.1446 -0.5331  0.3236
 9499TIP3    H128461   2.836   4.552   0.417 -0.7449 -1.6884  1.3622
 9499TIP3    H228462   2.974   4.490   0.415  0.5773  1.1058 -0.8197
 9500TIP3   OH228463   4.427   1.498   1.064  0.0254  0.2804  0.4685
 9500TIP3    H128464   4.341   1.538   1.052 -1.0207 -1.3459  2.0224
 9500TIP3    H228465   4.462   1.490   0.975 -2.2256 -0.6638 -0.4030
 9501TIP3   OH228466   5.690   3.650   1.136 -0.1643 -0.0163 -0.4172
 9501TIP3    H128467   5.620   3.600   1.179 -0.6418  0.8162 -0.2020
 9501TIP3    H228468   5.674   3.740   1.162 -0.4019  0.5000 -2.2728
 9502TIP3   OH228469   1.888   1.315   5.604 -0.1928 -0.7232 -0.2507
 9502TIP3    H128470   1.812   1.257   5.611 -1.0831  0.4734  0.3335
 9502TIP3    H228471   1.881   1.352   5.516 -0.6346 -0.1726  0.0083
 9503TIP3   OH228472   0.434   3.040   2.155  0.7109 -0.4123 -0.6989
 9503TIP3    H128473   0.478   2.984   2.092 -0.3280  0.6034 -2.4136
 9503TIP3    H228474   0.464   3.128   2.134 -1.3536  0.1999 -1.2945
 9504TIP3   OH228475   0.654   6.803   0.441 -0.1815 -0.1557 -0.6908
 9504TIP3    H128476   0.599   6.736   0.400 -2.0097  0.6132  0.3774
 9504TIP3    H228477   0.744   6.770   0.432 -0.9027 -2.0017 -1.5123
 9505TIP3   OH228478   3.068   1.805   0.805 -0.5075 -0.2267  0.8049
 9505TIP3    H128479   3.161   1.791   0.824 -0.2109 -2.2228 -1.5674
 9505TIP3    H228480   3.026   1.811   0.891  1.2739 -3.4392  2.0607
 9506TIP3   OH228481   4.387   3.423   5.855  0.0797 -0.1095  0.5858
 9506TIP3    H128482   4.458   3.371   5.893 -1.2538 -1.3771  1.4593
 9506TIP3    H228483   4.353   3.368   5.784  2.1181  1.9517 -2.1898
 9507TIP3   OH228484   7.077   2.691  -0.001 -0.1727  0.5049 -0.2973
 9507TIP3    H128485   7.080   2.769   0.053  0.7080 -0.2744  0.8266
 9507TIP3    H228486   7.139   2.631   0.039 -0.0274 -0.3837 -1.7585
 9508TIP3   OH228487   0.562   1.312   4.837 -0.1804  0.5626 -0.0349
 9508TIP3    H128488   0.472   1.285   4.824  0.4224 -0.7545 -2.0255
 9508TIP3    H228489   0.567   1.340   4.928 -2.2269 -0.7185  0.5212
 9509TIP3   OH228490   5.225   3.769   0.749  0.2840 -0.2521 -0.4477
 9509TIP3    H128491   5.271   3.789   0.831  1.3531 -0.3599 -1.0020
 9509TIP3    H228492   5.183   3.851   0.724  0.6564  0.0107 -0.2256
 9510TIP3   OH228493   2.142   2.833   5.568  0.2447  0.2462  0.2052
 9510TIP3    H128494   2.065   2.888   5.554  1.8169  1.9676 -2.8105
 9510TIP3    H228495   2.197   2.884   5.628 -0.1496 -0.1479  0.9187
 9511TIP3   OH228496   7.003   0.123   1.266  0.6688 -0.5946 -0.1153
 9511TIP3    H128497   6.979   0.107   1.357  0.4805 -1.5821 -0.3256
 9511TIP3    H228498   7.064   0.196   1.270  2.9487 -2.4422  1.1180
 9512TIP3   OH228499   4.961   3.845   4.598 -0.9819  0.5553 -0.3092
 9512TIP3    H128500   4.889   3.815   4.653 -0.6740 -2.4380 -1.3377
 9512TIP3    H228501   5.014   3.900   4.655 -2.1011 -0.2464  1.5944
 9513TIP3   OH228502   2.109   5.103   3.582 -0.0901  0.4600  0.6406
 9513TIP3    H128503   2.070   5.016   3.577 -0.9252  0.8559  0.0521
 9513TIP3    H228504   2.199   5.091   3.551 -1.2461  0.4202 -3.1957
 9514TIP3   OH228505   2.776   1.387   4.916 -0.1597 -0.0836 -0.6675
 9514TIP3    H128506   2.682   1.384   4.933 -0.4964 -0.7271 -2.5000
 9514TIP3    H228507   2.784   1.417   4.826  1.4545  1.0414 -0.2060
 9515TIP3   OH228508   3.984   5.612   4.073  0.4732 -0.0274 -0.7014
 9515TIP3    H128509   3.979   5.620   3.978 -0.2423  0.9301 -0.5987
 9515TIP3    H228510   3.893   5.622   4.102  0.8745  1.2432  0.1841
 9516TIP3   OH228511   1.313   0.744   5.753 -0.0760 -0.6350  0.2709
 9516TIP3    H128512   1.228   0.765   5.790  0.3857 -0.3033  1.1887
 9516TIP3    H228513   1.300   0.745   5.658 -0.7023  1.1404  0.3394
 9517TIP3   OH228514   3.460   0.392   0.754 -0.3704  1.0871 -0.2699
 9517TIP3    H128515   3.458   0.307   0.712  0.0107  1.4412 -1.0231
 9517TIP3    H228516   3.534   0.438   0.713  1.1062  0.8518  1.9534
 9518TIP3   OH228517   6.157   2.722   2.945 -0.1907 -1.0149  0.4126
 9518TIP3    H128518   6.234   2.776   2.928 -1.3295  0.5904  0.1199
 9518TIP3    H228519   6.167   2.647   2.885 -1.0528  1.4470 -3.1589
 9519TIP3   OH228520   3.690   0.357   4.556 -0.3762  0.3169  0.2656
 9519TIP3    H128521   3.696   0.359   4.651  1.5401 -2.3233  0.3194
 9519TIP3    H228522   3.768   0.404   4.526 -0.2492 -0.0262  0.0488
 9520TIP3   OH228523   4.168   0.022   0.181 -0.0980  0.1054  0.1417
 9520TIP3    H128524   4.144   0.050   0.269 -1.7094  1.3271 -0.6077
 9520TIP3    H228525   4.232   0.087   0.151  0.7924 -0.5664  0.5413
 9521TIP3   OH228526   6.476   5.979   5.862  0.1014 -0.0303  0.5178
 9521TIP3    H128527   6.440   6.026   5.786 -0.7364  0.6953  1.3452
 9521TIP3    H228528   6.559   6.023   5.880  0.1017  0.0676  0.2856
 9522TIP3   OH228529   3.457   5.782   1.010 -0.3157  0.3181  0.2783
 9522TIP3    H128530   3.455   5.813   1.101  1.4246 -0.4493  0.6357
 9522TIP3    H228531   3.368   5.753   0.992 -0.7689  0.7815  1.6318
 9523TIP3   OH228532   6.889   1.918   5.590  0.0699 -0.4560  0.1086
 9523TIP3    H128533   6.963   1.867   5.621  0.2264 -1.0728 -1.2009
 9523TIP3    H228534   6.889   1.905   5.495 -2.3045 -1.3041  0.1534
 9524TIP3   OH228535   7.038   4.569   1.839 -0.3534  0.1925  0.0758
 9524TIP3    H128536   6.945   4.593   1.829 -0.6553 -1.0084 -0.1348
 9524TIP3    H228537   7.082   4.614   1.768 -0.8959  0.1215 -0.3122
 9525TIP3   OH228538   3.250   4.009   5.475 -0.0943  0.5968  0.5381
 9525TIP3    H128539   3.290   4.000   5.561  0.5467  0.8289  0.2713
 9525TIP3    H228540   3.247   3.919   5.440  0.7762  0.6451  0.3108
 9526TIP3   OH228541   1.847   0.432   4.573  0.0213 -0.3715 -0.1946
 9526TIP3    H128542   1.851   0.518   4.615 -1.4607 -0.8095  0.9466
 9526TIP3    H228543   1.933   0.393   4.592  0.1921  0.3113  0.5128
 9527TIP3   OH228544   1.229   3.721   0.015 -0.0209 -0.0404 -0.3792
 9527TIP3    H128545   1.181   3.797   0.049  0.9377 -0.0188  0.9836
 9527TIP3    H228546   1.183   3.646   0.052 -0.4112 -0.1098 -0.9874
 9528TIP3   OH228547   2.589   4.921   4.850 -0.0224 -0.1957 -0.3395
 9528TIP3    H128548   2.522   4.964   4.796  0.1399  1.1623  0.4854
 9528TIP3    H228549   2.540   4.863   4.907 -0.7786  2.0546  1.4744
 9529TIP3   OH228550   0.431   5.002   2.123  0.0948  0.3660 -0.2811
 9529TIP3    H128551   0.344   5.038   2.104 -0.5211 -0.6882  0.4671
 9529TIP3    H228552   0.450   5.030   2.212 -0.0268 -0.4281  0.0041
 9530TIP3   OH228553   4.614   3.887   2.657 -0.3250 -0.5875  0.5193
 9530TIP3    H128554   4.591   3.974   2.624  0.3019 -0.6387 -0.0692
 9530TIP3    H228555   4.584   3.888   2.748  0.5541  0.5884  0.8218
 9531TIP3   OH228556   7.103   2.626   3.036  0.4531 -1.4462 -0.1597
 9531TIP3    H128557   7.071   2.625   2.946  1.9643 -2.1027 -0.7336
 9531TIP3    H228558   7.188   2.669   3.031  0.4573 -1.2834  1.0008
 9532TIP3   OH228559   3.444   6.160   4.237  0.3549  0.1083  0.1533
 9532TIP3    H128560   3.525   6.179   4.189  0.0411 -1.5849 -1.1678
 9532TIP3    H228561   3.375   6.199   4.184  0.2732  1.4780  1.2348
 9533TIP3   OH228562   7.105   6.560   4.453 -0.0761 -0.5763  0.0223
 9533TIP3    H128563   7.041   6.557   4.382 -0.2478 -0.9205  0.1905
 9533TIP3    H228564   7.101   6.473   4.493  1.9258 -1.2839 -1.2064
 9534TIP3   OH228565   6.455   0.069   0.572 -0.0329 -0.2849 -0.6340
 9534TIP3    H128566   6.399   0.050   0.497  0.3951 -1.3334 -0.7013
 9534TIP3    H228567   6.507   0.145   0.544 -0.8270  0.1863 -0.8710
 9535TIP3   OH228568   0.675   0.655   4.574 -0.4214 -0.1433 -0.0991
 9535TIP3    H128569   0.623   0.673   4.496 -0.5481 -0.3406 -0.0599
 9535TIP3    H228570   0.635   0.577   4.612 -0.3591 -0.0481  0.1616
 9536TIP3   OH228571   3.385   6.436   2.742  0.4623 -0.4072 -0.2199
 9536TIP3    H128572   3.316   6.490   2.704  0.4513  0.6216  1.1700
 9536TIP3    H228573   3.463   6.491   2.739  0.5691 -0.4857  0.7482
 9537TIP3   OH228574   3.067   6.344   1.659  0.3635 -0.4467  1.0225
 9537TIP3    H128575   3.006   6.292   1.711 -0.6657 -1.2279 -0.8561
 9537TIP3    H228576   3.061   6.432   1.696 -0.6777 -0.8578  1.8993
 9538TIP3   OH228577   3.502   1.229   3.117  1.0149 -0.4855 -0.3102
 9538TIP3    H128578   3.450   1.151   3.136 -0.0814 -0.0311 -1.2645
 9538TIP3    H228579   3.547   1.208   3.035  1.7852 -0.6076  0.1391
 9539TIP3   OH228580   5.517   4.452   5.562 -0.1484  0.3922  0.3602
 9539TIP3    H128581   5.565   4.534   5.549 -0.3872  0.5298  0.3346
 9539TIP3    H228582   5.465   4.467   5.642  0.3417  0.0135  0.7563
 9540TIP3   OH228583   5.002   4.616   4.734  0.2502 -0.0871  0.0415
 9540TIP3    H128584   5.097   4.625   4.746  0.3549  0.2822 -0.9690
 9540TIP3    H228585   4.979   4.537   4.783  1.0388 -0.0459  0.4983
 9541TIP3   OH228586   6.870   0.766   3.029  0.5531  0.0865  0.7279
 9541TIP3    H128587   6.942   0.803   2.979  1.1921  0.0471  1.5987
 9541TIP3    H228588   6.866   0.674   3.001 -0.4425  0.5567 -0.7563
 9542TIP3   OH228589   5.300   0.153   0.328  0.2564  0.3467 -0.4366
 9542TIP3    H128590   5.327   0.110   0.409 -0.0597 -0.3390 -0.6778
 9542TIP3    H228591   5.207   0.131   0.320  0.4827 -0.3282 -1.4140
 9543TIP3   OH228592   3.966   0.136   5.448  0.1662 -0.2505 -0.2979
 9543TIP3    H128593   3.887   0.189   5.442 -0.1094 -0.7126 -1.0458
 9543TIP3    H228594   4.034   0.188   5.405 -0.1544 -0.5771 -1.2262
 9544TIP3   OH228595   4.481   2.892   5.368 -0.1992  0.1252 -0.3739
 9544TIP3    H128596   4.505   2.801   5.356  2.0753  0.5356  0.5828
 9544TIP3    H228597   4.406   2.890   5.428 -0.4378 -1.0979 -0.6938
 9545TIP3   OH228598   2.754   1.133   2.433 -0.2750  0.0152 -0.0451
 9545TIP3    H128599   2.785   1.201   2.374  1.8269 -1.5355 -0.8550
 9545TIP3    H228600   2.743   1.177   2.518 -1.3708  1.8277 -1.0805
 9546TIP3   OH228601   5.249   0.365   2.671 -0.1617 -0.1949  0.7739
 9546TIP3    H128602   5.256   0.283   2.622  1.1919 -0.5355  1.4922
 9546TIP3    H228603   5.246   0.433   2.603  1.4939 -0.6670  0.1767
 9547TIP3   OH228604   6.234   3.527   3.152  0.6915  0.3348  0.7265
 9547TIP3    H128605   6.311   3.485   3.115  1.8122  1.9590  1.0877
 9547TIP3    H228606   6.233   3.614   3.112  0.8068  1.4295  2.9503
 9548TIP3   OH228607   6.155   5.556   0.359 -0.3607  0.2991 -0.4750
 9548TIP3    H128608   6.097   5.594   0.293 -1.7120 -0.4558  0.2223
 9548TIP3    H228609   6.098   5.497   0.409  0.7957  0.2813  0.8744
 9549TIP3   OH228610   3.386   4.826   2.289 -0.0823  0.6669 -0.2483
 9549TIP3    H128611   3.467   4.810   2.241 -0.1608 -0.0277 -0.1550
 9549TIP3    H228612   3.362   4.916   2.267  0.8598  0.9770 -0.0630
 9550TIP3   OH228613   1.536   4.234   2.058 -0.5167 -0.2496  0.0328
 9550TIP3    H128614   1.458   4.179   2.047 -1.1678  0.6705 -0.0695
 9550TIP3    H228615   1.599   4.177   2.103 -1.4854 -0.7908  0.7548
 9551TIP3   OH228616   6.939   6.170   5.733  0.1729 -0.5295  0.1229
 9551TIP3    H128617   6.926   6.191   5.641 -0.6402 -1.5647 -0.0067
 9551TIP3    H228618   6.929   6.254   5.778  0.0281 -0.1133 -0.6748
 9552TIP3   OH228619   0.887   1.867   0.148  0.4213 -0.9657  0.0565
 9552TIP3    H128620   0.902   1.954   0.187  2.6933 -0.8315 -0.9381
 9552TIP3    H228621   0.866   1.811   0.223 -1.5736  0.4915  0.6700
 9553TIP3   OH228622   6.371   1.681   1.863 -0.0222  0.2527 -0.0227
 9553TIP3    H128623   6.409   1.657   1.778 -2.1097  2.4164 -1.6974
 9553TIP3    H228624   6.369   1.777   1.863 -2.4586  0.2898  1.3099
 9554TIP3   OH228625   6.098   5.771   3.921  0.3787 -0.1487  0.1742
 9554TIP3    H128626   6.107   5.676   3.925  0.8122 -0.1039  0.2793
 9554TIP3    H228627   6.003   5.786   3.914  0.3223 -0.5914 -0.0177
 9555TIP3   OH228628   3.265   1.779   3.614  0.0114  0.6002  0.2696
 9555TIP3    H128629   3.344   1.728   3.597  0.1479  0.4077  1.4044
 9555TIP3    H228630   3.273   1.855   3.557 -0.3672 -0.7720 -1.7353
 9556TIP3   OH228631   1.737   5.272   3.854  0.6538 -0.0077  0.1641
 9556TIP3    H128632   1.646   5.250   3.833  0.4387  1.5043 -0.6303
 9556TIP3    H228633   1.786   5.193   3.832 -0.3496 -0.5448 -0.2457
 9557TIP3   OH228634   3.520   0.558   4.273 -0.0594  0.4797 -0.4647
 9557TIP3    H128635   3.576   0.482   4.260 -1.0838 -0.7105  1.5251
 9557TIP3    H228636   3.431   0.525   4.258 -0.4963  1.3925  0.0178
 9558TIP3   OH228637   1.752   2.625   4.005  0.8156 -0.6959 -0.2784
 9558TIP3    H128638   1.840   2.603   4.036  0.4151 -1.5508  0.2861
 9558TIP3    H228639   1.699   2.549   4.028 -0.6341  0.8054  1.6584
 9559TIP3   OH228640   2.500   6.554   1.339 -0.2052  0.1333 -0.2213
 9559TIP3    H128641   2.498   6.467   1.300  0.3697  0.6229 -1.3866
 9559TIP3    H228642   2.589   6.563   1.373  0.2237  0.8232 -1.4661
 9560TIP3   OH228643   4.753   6.052   2.685 -0.3635 -0.4922  0.0787
 9560TIP3    H128644   4.739   6.130   2.739  0.0728  0.6252 -1.3662
 9560TIP3    H228645   4.737   6.082   2.596 -1.7118 -2.4589 -0.3942
 9561TIP3   OH228646   5.750   4.491   1.234 -0.1963 -0.0565  0.1213
 9561TIP3    H128647   5.707   4.468   1.151  1.2511 -0.0335 -0.6571
 9561TIP3    H228648   5.750   4.587   1.235 -0.4070 -0.0557  0.2699
 9562TIP3   OH228649   6.110   5.854   2.823 -0.1572  0.1307  0.0931
 9562TIP3    H128650   6.205   5.847   2.816 -0.1805 -1.2617  0.7926
 9562TIP3    H228651   6.085   5.782   2.882 -1.7230 -0.0951 -0.7903
 9563TIP3   OH228652   3.336   4.946   2.529 -0.4186 -0.1755  1.0664
 9563TIP3    H128653   3.294   4.992   2.456  0.0119 -0.8300  0.4015
 9563TIP3    H228654   3.292   4.861   2.533  0.5136 -0.6954  0.6483
 9564TIP3   OH228655   1.089   2.705   0.001  0.2467 -0.4891  0.1345
 9564TIP3    H128656   1.047   2.773  -0.053  0.0972 -1.3462 -0.8509
 9564TIP3    H228657   1.093   2.744   0.089  0.5231  0.9452 -0.4890
 9565TIP3   OH228658   3.869   6.540   1.281  0.3876  0.0548  0.3554
 9565TIP3    H128659   3.851   6.447   1.276 -0.3442  0.2153 -0.1535
 9565TIP3    H228660   3.928   6.550   1.356  1.9187 -1.0210 -0.6560
 9566TIP3   OH228661   6.125   0.116   4.934  0.2324  0.4032  0.3589
 9566TIP3    H128662   6.113   0.098   5.027  1.2626 -0.0059  0.4229
 9566TIP3    H228663   6.201   0.063   4.908  0.4289  1.0821 -0.5340
 9567TIP3   OH228664   1.632   3.525   3.989 -0.1517  0.2877 -0.1516
 9567TIP3    H128665   1.657   3.433   3.987 -1.1818 -0.1291  2.3523
 9567TIP3    H228666   1.542   3.525   4.021 -0.1710  2.1651 -0.0506
 9568TIP3   OH228667   1.378   0.922   1.317  0.1788  0.0950  0.1980
 9568TIP3    H128668   1.325   0.993   1.353  1.6656  0.6540  1.3746
 9568TIP3    H228669   1.340   0.842   1.355 -0.4708  0.3818  0.1697
 9569TIP3   OH228670   0.231   4.761   1.543  0.0555  0.2705  0.1031
 9569TIP3    H128671   0.310   4.707   1.552  0.4667  0.4933 -1.7321
 9569TIP3    H228672   0.163   4.712   1.590  1.0734 -0.3683  0.9653
 9570TIP3   OH228673   4.891   1.146   3.680  0.2221 -0.5718 -0.2584
 9570TIP3    H128674   4.872   1.125   3.589 -0.1476 -2.6200  0.2560
 9570TIP3    H228675   4.807   1.176   3.715  0.3849  0.3047 -0.5847
 9571TIP3   OH228676   0.402   3.145   5.336 -0.2380 -0.4295 -0.3111
 9571TIP3    H128677   0.382   3.209   5.404  0.4074  1.4996 -1.8686
 9571TIP3    H228678   0.335   3.157   5.270  0.8388 -0.1769 -1.3889
 9572TIP3   OH228679   5.571   0.628   1.638 -0.0465  0.3376  0.3358
 9572TIP3    H128680   5.631   0.650   1.709  0.8389 -1.1543  0.0972
 9572TIP3    H228681   5.580   0.533   1.627 -1.7049  0.2248 -0.3953
 9573TIP3   OH228682   4.656   4.842   1.011 -0.4900 -0.2229  0.0268
 9573TIP3    H128683   4.648   4.854   0.916  1.1170 -0.4379 -0.1666
 9573TIP3    H228684   4.588   4.898   1.048 -0.0639  1.1965 -1.2034
 9574TIP3   OH228685   1.785   0.356   4.302  0.2323  0.2664 -0.8241
 9574TIP3    H128686   1.840   0.374   4.226 -0.7137  0.3470 -1.5016
 9574TIP3    H228687   1.836   0.388   4.376  0.3730  1.9161 -1.5902
 9575TIP3   OH228688   0.531   3.292   5.063  0.3405  0.0414 -0.1447
 9575TIP3    H128689   0.572   3.326   4.984 -1.1567  1.1370 -0.5009
 9575TIP3    H228690   0.461   3.354   5.082 -0.0848 -0.8557  1.3660
 9576TIP3   OH228691   2.736   2.939   0.170  0.6565 -0.3997 -0.8525
 9576TIP3    H128692   2.708   2.869   0.111  1.1984 -0.2787 -1.2549
 9576TIP3    H228693   2.785   2.999   0.114 -0.1684  0.5285 -0.6095
 9577TIP3   OH228694   1.035   4.318   0.232  0.2867 -0.2211 -0.3007
 9577TIP3    H128695   0.964   4.350   0.287  0.3535 -1.0554  0.2817
 9577TIP3    H228696   1.067   4.240   0.277  0.1090 -1.1351 -1.7093
 9578TIP3   OH228697   0.657   2.225   3.907  0.3421 -0.1245 -0.1160
 9578TIP3    H128698   0.563   2.213   3.894 -0.0650  1.8438  0.7322
 9578TIP3    H228699   0.690   2.136   3.919 -1.5759 -0.8010  0.6348
 9579TIP3   OH228700   5.692   0.070   4.870  0.1663 -0.4429 -0.0791
 9579TIP3    H128701   5.776   0.084   4.826 -0.1447  1.1179 -0.2153
 9579TIP3    H228702   5.697  -0.021   4.901  1.3302 -0.8364 -1.2992
 9580TIP3   OH228703   0.467   6.066   2.612  0.2728 -0.2171  0.7131
 9580TIP3    H128704   0.548   6.074   2.662  0.7887  0.2971 -0.1992
 9580TIP3    H228705   0.485   6.109   2.529 -1.2084  0.6994  0.8226
 9581TIP3   OH228706   6.694   2.392   2.794 -0.5640  0.5144  0.0320
 9581TIP3    H128707   6.691   2.360   2.885  0.0866 -2.0722 -0.7766
 9581TIP3    H228708   6.763   2.458   2.795  2.0813 -2.0383  0.7996
 9582TIP3   OH228709   4.279   1.031   3.356  0.0979 -0.0145  0.1073
 9582TIP3    H128710   4.363   1.059   3.392 -1.2646  1.6734  2.1961
 9582TIP3    H228711   4.245   0.969   3.421 -1.4560  1.4421  0.7509
 9583TIP3   OH228712   3.985   6.140   3.313 -0.1372  0.2769 -0.1891
 9583TIP3    H128713   3.989   6.206   3.383 -0.1366 -1.5713  1.6260
 9583TIP3    H228714   3.898   6.101   3.322  0.0289 -0.2741 -0.9480
 9584TIP3   OH228715   4.184   2.415   2.595 -0.5235  0.2219  0.6790
 9584TIP3    H128716   4.230   2.458   2.668  0.0566 -0.4593  0.7250
 9584TIP3    H228717   4.164   2.327   2.628  3.5737 -1.7158 -1.3715
 9585TIP3   OH228718   0.894   0.557   2.003  0.3526  0.2272  0.0184
 9585TIP3    H128719   0.948   0.496   1.952 -0.0836 -1.3544  1.3887
 9585TIP3    H228720   0.929   0.643   1.981  0.5430 -0.4186 -2.5124
 9586TIP3   OH228721   3.356   1.610   2.767 -0.1979  0.3363  0.0128
 9586TIP3    H128722   3.381   1.572   2.683  1.5084 -3.6118  2.0060
 9586TIP3    H228723   3.262   1.596   2.773 -0.2449  0.1628 -1.0282
 9587TIP3   OH228724   4.653   5.373   2.207  0.2652 -0.0325  0.2859
 9587TIP3    H128725   4.658   5.329   2.121  0.6011 -0.6186  0.5997
 9587TIP3    H228726   4.592   5.319   2.257  0.9445 -0.3352  0.7893
 9588TIP3   OH228727   2.865   1.334   3.910 -0.2338  0.3044 -0.4067
 9588TIP3    H128728   2.890   1.422   3.884  3.6709 -0.7787 -1.0916
 9588TIP3    H228729   2.849   1.287   3.828  0.1036 -0.1771 -0.2080
 9589TIP3   OH228730   2.932   1.544   5.142 -0.3322 -0.3333 -0.0652
 9589TIP3    H128731   2.980   1.580   5.068  0.6108 -1.5568 -0.0791
 9589TIP3    H228732   2.886   1.468   5.106 -1.9461  0.5598  0.0504
 9590TIP3   OH228733   0.812   3.135   4.016  0.2542  0.1346 -0.6230
 9590TIP3    H128734   0.850   3.132   4.103 -0.8039 -4.2471 -0.0505
 9590TIP3    H228735   0.875   3.087   3.961 -0.6442 -0.1097 -1.4641
 9591TIP3   OH228736   3.731   4.700   5.525  0.1201 -0.0305 -0.2300
 9591TIP3    H128737   3.682   4.668   5.450 -0.3444  1.1055 -0.4307
 9591TIP3    H228738   3.666   4.749   5.577  1.1041  2.0012 -0.8007
 9592TIP3   OH228739   0.537   0.456   4.696  0.4334  0.2760  0.6049
 9592TIP3    H128740   0.449   0.421   4.681  0.0444  1.3077  0.4652
 9592TIP3    H228741   0.553   0.442   4.790 -0.0501  0.4779  0.7169
 9593TIP3   OH228742   5.004   1.635   5.856 -0.5138  0.7436  0.3466
 9593TIP3    H128743   4.926   1.646   5.803 -0.6362  1.8078  0.7171
 9593TIP3    H228744   5.066   1.699   5.821 -0.8284  1.9367  1.8664
 9594TIP3   OH228745   1.393   6.529   3.082  0.6274 -0.1286 -0.9685
 9594TIP3    H128746   1.307   6.563   3.108  0.8192 -0.2191 -0.2069
 9594TIP3    H228747   1.385   6.516   2.987 -0.1588 -0.0238 -0.9266
 9595TIP3   OH228748   6.818   5.340   1.064 -0.4703  0.0158  0.0623
 9595TIP3    H128749   6.793   5.421   1.019  0.5242 -0.3112 -1.1147
 9595TIP3    H228750   6.869   5.291   1.000  1.2539 -0.3476  1.6081
 9596TIP3   OH228751   3.460   1.843   3.206 -0.2028  0.0637 -0.1377
 9596TIP3    H128752   3.490   1.754   3.189  1.1926  0.4924 -0.0614
 9596TIP3    H228753   3.528   1.899   3.167 -1.5734  1.1138 -1.1437
 9597TIP3   OH228754   5.530   6.719   3.240 -0.3254 -0.3883  0.0185
 9597TIP3    H128755   5.578   6.793   3.202  0.2195 -0.4727  0.5256
 9597TIP3    H228756   5.439   6.735   3.217  0.0316 -0.6997 -1.7748
 9598TIP3   OH228757   1.495   6.467   4.588 -0.1394 -0.5292 -0.5867
 9598TIP3    H128758   1.523   6.379   4.616  1.0752  0.1742  0.5229
 9598TIP3    H228759   1.454   6.505   4.666  0.6620  0.3961 -0.5884
 9599TIP3   OH228760   5.617   2.566   3.401 -0.2931  0.0408 -0.3259
 9599TIP3    H128761   5.631   2.598   3.490  0.3730  2.2062 -1.1528
 9599TIP3    H228762   5.667   2.485   3.396 -1.0882 -0.5949  1.5243
 9600TIP3   OH228763   1.435   1.428   4.662 -0.0588 -0.2486  0.0806
 9600TIP3    H128764   1.447   1.339   4.630  0.3927 -0.2024  0.1146
 9600TIP3    H228765   1.517   1.448   4.708  0.1844  0.4866 -0.6507
 9601TIP3   OH228766   4.293   1.526   1.654  0.1825  0.3601 -0.8598
 9601TIP3    H128767   4.212   1.478   1.640 -1.4489  2.9750 -1.1704
 9601TIP3    H228768   4.312   1.514   1.748  0.7764 -2.0895 -1.2287
 9602TIP3   OH228769   1.233   1.871   5.272 -0.0155 -0.1514 -0.0544
 9602TIP3    H128770   1.139   1.865   5.254  0.3443  0.2817 -2.5371
 9602TIP3    H228771   1.261   1.949   5.223  1.7872 -0.8468 -0.2137
 9603TIP3   OH228772   0.363   4.325   2.275 -0.0871 -0.3997 -0.0896
 9603TIP3    H128773   0.356   4.247   2.221 -0.0003  0.4037 -1.3090
 9603TIP3    H228774   0.456   4.350   2.270 -0.1465 -0.1160  0.1409
 9604TIP3   OH228775   5.861   6.082   0.158  1.0910  0.0191 -0.0942
 9604TIP3    H128776   5.866   6.175   0.139 -1.0433  0.2557  0.2548
 9604TIP3    H228777   5.952   6.052   0.157  1.6316  1.1792 -4.5827
 9605TIP3   OH228778   6.408   0.898   5.015  0.0545 -0.2239  0.3087
 9605TIP3    H128779   6.360   0.947   4.949  1.3442 -1.2815 -1.4993
 9605TIP3    H228780   6.373   0.809   5.010  2.7302 -1.2845 -1.7800
 9606TIP3   OH228781   6.460   3.660   2.930 -0.2178 -0.8913  0.4166
 9606TIP3    H128782   6.498   3.635   3.015 -0.4571 -0.7379  0.5713
 9606TIP3    H228783   6.457   3.755   2.933 -0.3697 -0.8926  0.2975
 9607TIP3   OH228784   6.855   0.164   5.095 -0.4258  0.5119  0.1188
 9607TIP3    H128785   6.800   0.241   5.105 -1.1037  0.4432 -2.4266
 9607TIP3    H228786   6.935   0.185   5.145 -0.5353  2.9291 -0.6051
 9608TIP3   OH228787   3.638   4.016   5.096 -0.4950 -0.2420 -0.7301
 9608TIP3    H128788   3.554   4.061   5.099 -0.7191 -0.6981  0.0011
 9608TIP3    H228789   3.645   3.985   5.006 -1.7569 -1.4048 -0.4542
 9609TIP3   OH228790   4.427   5.928   4.158  0.0479  0.0977 -0.3315
 9609TIP3    H128791   4.440   5.991   4.229  1.1953 -0.2117 -0.2452
 9609TIP3    H228792   4.355   5.964   4.107 -0.1428  0.8332  0.4278
 9610TIP3   OH228793   6.496   6.755   5.212 -0.8067 -0.4322  0.4127
 9610TIP3    H128794   6.547   6.682   5.177 -1.1705 -0.1600 -0.7061
 9610TIP3    H228795   6.409   6.744   5.174 -1.2938 -0.2697  1.4505
 9611TIP3   OH228796   3.553   4.842   5.661 -0.3202  0.6866 -0.0402
 9611TIP3    H128797   3.564   4.933   5.635 -1.3553  1.7024  2.7089
 9611TIP3    H228798   3.591   4.836   5.749  0.5122 -1.7833 -0.4755
 9612TIP3   OH228799   6.965   6.131   0.073 -0.1365 -0.7596  0.0999
 9612TIP3    H128800   6.885   6.089   0.044  0.1005 -1.0621 -0.1197
 9612TIP3    H228801   7.014   6.149  -0.007  0.0625 -0.6709  0.2388
 9613TIP3   OH228802   3.526   3.996   1.966 -0.3137  0.1440  0.4417
 9613TIP3    H128803   3.569   3.943   2.033  0.0379 -1.2457 -0.8018
 9613TIP3    H228804   3.569   4.081   1.970  1.8112 -0.8345  0.0315
 9614TIP3   OH228805   1.971   4.370   4.366 -0.2894 -0.3035  0.2703
 9614TIP3    H128806   1.938   4.289   4.327 -0.4451 -0.2854  0.3614
 9614TIP3    H228807   2.065   4.358   4.372 -0.4205 -0.9024  1.2701
 9615TIP3   OH228808   5.118   1.753   3.917  0.8988 -0.1017 -0.1833
 9615TIP3    H128809   5.168   1.683   3.875  0.3433 -0.2924 -0.5333
 9615TIP3    H228810   5.123   1.826   3.855  0.5950 -0.1821 -0.3064
 9616TIP3   OH228811   0.222   5.321   3.350  0.3193 -0.0371 -0.3674
 9616TIP3    H128812   0.191   5.394   3.403  1.7261  1.1491 -1.0883
 9616TIP3    H228813   0.204   5.347   3.259 -2.0966 -2.0505 -0.5732
 9617TIP3   OH228814   5.675   5.523   3.731  0.0860  0.5767  0.4275
 9617TIP3    H128815   5.582   5.523   3.709 -0.0082  1.4190  0.7922
 9617TIP3    H228816   5.678   5.488   3.820  0.1874 -0.0366  0.1909
 9618TIP3   OH228817   1.735   4.933   4.332  0.1138 -0.4441  0.0780
 9618TIP3    H128818   1.802   5.001   4.343  1.4939 -2.0133  2.2706
 9618TIP3    H228819   1.735   4.914   4.238  0.5052  1.7268 -0.4177
 9619TIP3   OH228820   1.202   5.175   3.254 -0.6664  0.0636 -0.4758
 9619TIP3    H128821   1.252   5.172   3.336  3.1564  2.3285 -2.4276
 9619TIP3    H228822   1.195   5.083   3.228  1.3820 -0.4958  0.6287
 9620TIP3   OH228823   5.708   1.063   3.540  0.3157 -0.2317  0.2492
 9620TIP3    H128824   5.676   0.985   3.495  0.1227 -0.4044  0.6785
 9620TIP3    H228825   5.794   1.079   3.501 -0.3959  0.4108 -1.1228
 9621TIP3   OH228826   5.038   6.538   2.396  0.3230  0.3212  0.1213
 9621TIP3    H128827   5.129   6.513   2.388  0.6438  0.7759  1.9954
 9621TIP3    H228828   5.007   6.495   2.475 -0.4602  1.8844  0.7215
 9622TIP3   OH228829   0.719   5.374   4.818  0.3087 -0.3571 -0.1717
 9622TIP3    H128830   0.807   5.370   4.856  0.4182  0.7023 -0.2986
 9622TIP3    H228831   0.689   5.463   4.836 -0.7879 -0.7367 -0.0296
 9623TIP3   OH228832   1.513   1.899   5.180 -0.1237 -0.8184 -0.2754
 9623TIP3    H128833   1.467   1.983   5.181  0.4514 -0.4792  1.0199
 9623TIP3    H228834   1.455   1.840   5.230  0.3525 -0.6522  0.4988
 9624TIP3   OH228835   0.027   4.241   2.973 -0.3657 -0.3726  0.2094
 9624TIP3    H128836   0.094   4.233   3.041 -1.7504  1.4648  1.9562
 9624TIP3    H228837   0.023   4.335   2.956 -2.6054 -0.3916  0.3558
 9625TIP3   OH228838   5.636   0.380   5.612 -0.1181  0.0592  0.5589
 9625TIP3    H128839   5.552   0.411   5.577 -0.1679  1.0510  1.4911
 9625TIP3    H228840   5.686   0.460   5.628  1.3734 -0.5460 -0.7872
 9626TIP3   OH228841   1.645   2.392   3.933  0.0777 -0.1361 -0.6540
 9626TIP3    H128842   1.565   2.341   3.949  0.4605 -1.1626 -1.8926
 9626TIP3    H228843   1.636   2.423   3.843  1.4767 -1.0427 -1.1361
 9627TIP3   OH228844   5.665   6.675   5.125  0.1446  0.2006  0.5152
 9627TIP3    H128845   5.645   6.769   5.121  0.8704  0.4125  1.6300
 9627TIP3    H228846   5.605   6.641   5.191 -1.5262 -0.5448 -1.2480
 9628TIP3   OH228847   3.587   1.404   3.661 -0.3492  0.3127 -0.2295
 9628TIP3    H128848   3.567   1.372   3.749  2.5326 -2.9383 -0.5296
 9628TIP3    H228849   3.545   1.341   3.602  0.3844  0.5831 -1.0793
 9629TIP3   OH228850   2.176   5.922   3.093 -0.4708 -0.1349 -0.2017
 9629TIP3    H128851   2.172   5.842   3.040 -2.7103  0.4000 -0.9702
 9629TIP3    H228852   2.086   5.933   3.126 -0.3484  2.3067 -0.5128
 9630TIP3   OH228853   4.835   0.734   3.429 -0.6908 -0.1034 -0.1973
 9630TIP3    H128854   4.843   0.723   3.524  0.6395 -1.3920 -0.4292
 9630TIP3    H228855   4.809   0.826   3.418  1.6093  0.8234  1.3298
 9631TIP3   OH228856   2.286   2.016   1.145 -0.0445 -0.4049  0.1175
 9631TIP3    H128857   2.230   2.079   1.100  2.6068  1.3419 -1.0118
 9631TIP3    H228858   2.292   1.942   1.084 -0.3373 -0.1716 -0.1983
 9632TIP3   OH228859   3.308   0.859   1.999  0.6409 -0.1815 -0.8463
 9632TIP3    H128860   3.288   0.941   1.955  1.2956  0.8471  0.6967
 9632TIP3    H228861   3.239   0.799   1.972 -1.5733  1.7266  0.2828
 9633TIP3   OH228862   7.022   4.424   1.089  0.2338  0.3550  0.4264
 9633TIP3    H128863   6.935   4.385   1.091  0.4034 -0.0312  0.3446
 9633TIP3    H228864   7.074   4.370   1.148  0.5202  0.3308  0.1577
 9634TIP3   OH228865   6.207   6.179   2.435 -0.2514 -0.1554  0.3814
 9634TIP3    H128866   6.297   6.194   2.406 -0.4886 -0.6805 -0.6953
 9634TIP3    H228867   6.166   6.133   2.361 -0.9704 -1.3327  1.4701
 9635TIP3   OH228868   2.070   1.583   3.356  0.0412 -0.1761 -0.2105
 9635TIP3    H128869   2.111   1.505   3.395 -2.5851 -1.0613  1.0099
 9635TIP3    H228870   2.082   1.572   3.262  0.0987 -1.8750 -0.0386
 9636TIP3   OH228871   6.731   5.775   3.257  0.2793  0.0995  0.2791
 9636TIP3    H128872   6.797   5.731   3.202 -1.4095 -1.4337 -0.6171
 9636TIP3    H228873   6.697   5.706   3.314 -1.4566  0.5453 -0.1700
 9637TIP3   OH228874   0.316   0.857   1.747 -0.1537 -0.2740  0.4982
 9637TIP3    H128875   0.277   0.786   1.697 -2.2452 -0.6431  2.4985
 9637TIP3    H228876   0.286   0.936   1.704 -0.8769 -0.5928  0.3989
 9638TIP3   OH228877   0.733   6.476   1.891  0.1727 -0.1130 -0.1898
 9638TIP3    H128878   0.728   6.392   1.936  0.9292 -0.3233 -0.4780
 9638TIP3    H228879   0.810   6.468   1.834  1.4414  1.4593  1.2160
 9639TIP3   OH228880   2.992   5.741   3.009  0.1673  0.2205  0.4590
 9639TIP3    H128881   2.924   5.757   3.073 -1.0119  0.6111 -0.8390
 9639TIP3    H228882   3.029   5.827   2.990  0.9635  0.0239  1.0770
 9640TIP3   OH228883   1.304   2.103   5.704  0.3475  0.1794 -0.1986
 9640TIP3    H128884   1.312   2.049   5.783 -2.2976 -0.0995 -0.0309
 9640TIP3    H228885   1.349   2.053   5.636 -0.2853 -1.2751  0.4074
 9641TIP3   OH228886   5.527   6.124   2.885  0.1170 -0.3224 -0.3532
 9641TIP3    H128887   5.616   6.140   2.914 -0.0926 -1.5968  1.0914
 9641TIP3    H228888   5.534   6.118   2.790  1.4028  0.4722 -0.3356
 9642TIP3   OH228889   0.167   4.432   0.097 -0.2645  0.0665 -0.4426
 9642TIP3    H128890   0.241   4.453   0.154 -0.3554 -0.5779 -0.0804
 9642TIP3    H228891   0.091   4.430   0.155 -0.3402 -0.7015 -0.5503
 9643TIP3   OH228892   4.258   0.327   4.265  0.0502  0.3713  0.7459
 9643TIP3    H128893   4.193   0.387   4.227  0.7458 -1.1194 -3.3319
 9643TIP3    H228894   4.206   0.263   4.313 -1.3078  0.6388 -0.2885
 9644TIP3   OH228895   0.106   4.328   1.984  0.4400  0.5240 -0.1257
 9644TIP3    H128896   0.125   4.235   1.970  0.3143  0.7829 -2.3763
 9644TIP3    H228897   0.187   4.373   1.960 -0.1393  1.0907 -1.0944
 9645TIP3   OH228898   2.854   3.916   0.949  0.3798 -0.4221 -0.5289
 9645TIP3    H128899   2.912   3.840   0.960  0.0778 -0.7774 -1.3557
 9645TIP3    H228900   2.772   3.890   0.990  0.3095 -0.5054 -0.7215
 9646TIP3   OH228901   1.866   0.743   5.303 -0.2984 -0.7178 -0.1795
 9646TIP3    H128902   1.925   0.805   5.345 -2.2449  0.2961  1.1808
 9646TIP3    H228903   1.878   0.759   5.209  0.0516  0.9123  0.1157
 9647TIP3   OH228904   1.137   4.992   5.737 -0.0737  0.1359  0.4888
 9647TIP3    H128905   1.100   5.027   5.656  0.5961  1.6060  0.7731
 9647TIP3    H228906   1.118   4.898   5.734 -2.1452  0.5246 -0.2231
 9648TIP3   OH228907   2.906   5.744   4.622  0.5601 -0.1413 -0.1163
 9648TIP3    H128908   2.879   5.667   4.673 -1.2966  1.1967  1.0093
 9648TIP3    H228909   2.987   5.773   4.663  0.7787 -0.9458  0.0386
 9649TIP3   OH228910   1.500   3.898   0.243  0.5878  0.0400 -0.0245
 9649TIP3    H128911   1.513   3.826   0.182 -0.8304 -0.3831  0.1298
 9649TIP3    H228912   1.406   3.899   0.259  0.8372  0.6347  1.5636
 9650TIP3   OH228913   0.876   3.655   2.819 -0.1490  0.2545 -0.5609
 9650TIP3    H128914   0.793   3.651   2.866 -0.5151 -1.4161 -1.2894
 9650TIP3    H228915   0.916   3.737   2.848 -2.1230  1.1888 -0.3417
 9651TIP3   OH228916   3.471   5.157   5.207  0.4019  0.0749 -0.4186
 9651TIP3    H128917   3.468   5.191   5.117 -0.8425 -0.0212 -0.4313
 9651TIP3    H228918   3.415   5.216   5.257  1.4531  0.4092  0.4177
 9652TIP3   OH228919   5.902   0.411   0.130 -0.0557  0.2508  0.0313
 9652TIP3    H128920   5.931   0.475   0.195  1.3038 -1.8261  1.6135
 9652TIP3    H228921   5.968   0.342   0.133 -1.4954 -1.3019 -1.5021
 9653TIP3   OH228922   2.576   3.224   3.856 -0.6329  0.1038  0.5752
 9653TIP3    H128923   2.575   3.213   3.761  0.8484  0.7448  0.4669
 9653TIP3    H228924   2.669   3.231   3.879 -0.9383 -0.4518  2.1292
 9654TIP3   OH228925   4.117   4.303   1.506 -0.1818  0.0064  0.4003
 9654TIP3    H128926   4.118   4.399   1.507 -0.4841  0.0517 -0.8823
 9654TIP3    H228927   4.161   4.280   1.424 -1.7761 -0.8772 -0.2644
 9655TIP3   OH228928   1.789   3.368   4.823 -0.2601 -0.1600  0.1916
 9655TIP3    H128929   1.847   3.292   4.823 -2.9117 -2.4061 -0.8690
 9655TIP3    H228930   1.751   3.369   4.735 -2.5324  0.5031  1.1016
 9656TIP3   OH228931   4.195   6.462   3.387  0.1696 -0.2373 -0.0947
 9656TIP3    H128932   4.258   6.428   3.451 -0.9617 -1.3039  0.4809
 9656TIP3    H228933   4.156   6.538   3.430  2.9915  2.2906 -1.5373
 9657TIP3   OH228934   6.487   2.889   2.333  0.0031  0.5638  0.0838
 9657TIP3    H128935   6.442   2.918   2.253  0.1327 -0.3074 -0.3159
 9657TIP3    H228936   6.501   2.970   2.383 -3.2218  0.7751  0.8863
 9658TIP3   OH228937   2.837   3.669   4.475  0.0402  0.4580  0.3076
 9658TIP3    H128938   2.828   3.733   4.405  3.3865  2.6580  1.6386
 9658TIP3    H228939   2.850   3.722   4.554  1.1781 -1.8786  1.7925
 9659TIP3   OH228940   6.880   3.258   4.832 -0.1161 -0.1667  0.5326
 9659TIP3    H128941   6.895   3.345   4.796 -1.4334  0.0836  0.5287
 9659TIP3    H228942   6.857   3.204   4.756 -1.0441 -0.0875  0.7509
 9660TIP3   OH228943   2.257   0.250   0.481  0.0092  0.4975  0.1061
 9660TIP3    H128944   2.209   0.247   0.398  0.5474  2.9501 -0.3690
 9660TIP3    H228945   2.199   0.300   0.539  0.7075  0.9287  0.4351
 9661TIP3   OH228946   3.426   3.677   3.853 -0.3729  0.4249  0.4267
 9661TIP3    H128947   3.372   3.756   3.848  0.2296  0.7889 -0.5336
 9661TIP3    H228948   3.503   3.697   3.800 -0.0271 -0.6654  0.4916
 9662TIP3   OH228949   5.391   1.328   4.213  0.0326 -0.1565 -0.5609
 9662TIP3    H128950   5.420   1.298   4.127  2.1702 -0.8350  0.3408
 9662TIP3    H228951   5.346   1.252   4.251  0.5700 -0.4202 -0.4403
 9663TIP3   OH228952   0.570   3.475   2.965 -0.3768  0.3927  0.2763
 9663TIP3    H128953   0.609   3.562   2.971  0.2304  0.0655  1.3595
 9663TIP3    H228954   0.638   3.421   2.925 -0.4275  0.2301  0.4098
 9664TIP3   OH228955   2.306   4.148   1.035  0.8311 -0.4733 -0.4364
 9664TIP3    H128956   2.219   4.115   1.010 -0.7460  0.4872  3.1056
 9664TIP3    H228957   2.301   4.242   1.021 -0.5746  0.3236  3.8059
 9665TIP3   OH228958   4.775   4.970   0.103 -0.5152 -0.0432  0.0162
 9665TIP3    H128959   4.741   4.934   0.185  0.0857  0.6778  0.5927
 9665TIP3    H228960   4.703   4.958   0.041 -0.2521 -2.4650  0.0938
 9666TIP3   OH228961   3.694   3.599   5.486 -0.0984  0.4264  0.6623
 9666TIP3    H128962   3.646   3.682   5.487 -1.5770 -0.3402 -0.7703
 9666TIP3    H228963   3.691   3.572   5.394  0.6319 -1.0501  1.0511
 9667TIP3   OH228964   5.703   0.492   1.110  0.1950  0.9913  0.3253
 9667TIP3    H128965   5.766   0.449   1.053  0.8488  0.4207  1.4531
 9667TIP3    H228966   5.628   0.510   1.054 -0.4982 -2.3977 -0.0549
 9668TIP3   OH228967   1.175   3.577   1.589  0.2085 -0.2312  0.3031
 9668TIP3    H128968   1.250   3.556   1.534  0.8970 -2.1110  1.8833
 9668TIP3    H228969   1.116   3.502   1.580 -0.3452  0.1088  0.9967
 9669TIP3   OH228970   1.823   5.531   4.148  0.4824 -0.4359  0.9211
 9669TIP3    H128971   1.812   5.454   4.204 -0.7516 -1.9509 -1.2653
 9669TIP3    H228972   1.894   5.507   4.088 -0.9098 -0.5154 -0.7494
 9670TIP3   OH228973   6.429   1.071   2.939 -0.3176 -0.1545 -0.4770
 9670TIP3    H128974   6.440   1.070   2.844  0.9359  0.2705 -0.3544
 9670TIP3    H228975   6.456   0.983   2.967 -2.1716 -0.8059 -0.6401
 9671TIP3   OH228976   5.435   3.777   1.612 -0.2087  1.0722 -0.7197
 9671TIP3    H128977   5.391   3.735   1.685 -1.9225  2.1069 -1.1183
 9671TIP3    H228978   5.365   3.812   1.557  1.0660  1.6551 -2.0714
 9672TIP3   OH228979   4.503   6.184   3.863 -0.4385 -0.2080 -0.3268
 9672TIP3    H128980   4.474   6.234   3.939 -0.5338  1.2944 -1.3037
 9672TIP3    H228981   4.426   6.178   3.807 -0.1873 -0.6912 -0.6318
 9673TIP3   OH228982   2.934   4.766   0.188  0.5627 -0.3322 -0.5023
 9673TIP3    H128983   2.974   4.841   0.143 -0.1541  0.1117 -0.4232
 9673TIP3    H228984   2.841   4.789   0.193  0.6839 -0.1628  1.6065
 9674TIP3   OH228985   3.357   1.648   0.381 -0.2216 -0.2685 -0.0628
 9674TIP3    H128986   3.410   1.569   0.388 -0.7321 -0.5293  1.0617
 9674TIP3    H228987   3.408   1.716   0.425 -1.0546 -0.6644  1.5930
 9675TIP3   OH228988   6.416   2.621   4.414  0.0473 -0.3865 -0.5988
 9675TIP3    H128989   6.495   2.579   4.449  0.1439 -1.5350 -2.0865
 9675TIP3    H228990   6.423   2.712   4.442  0.8726 -0.9093  1.0128
 9676TIP3   OH228991   4.901   3.608   5.508 -0.0395 -0.2166 -0.1294
 9676TIP3    H128992   4.878   3.541   5.572  0.9903 -0.4224  0.0544
 9676TIP3    H228993   4.876   3.690   5.549 -1.3465 -0.4733 -0.3707
 9677TIP3   OH228994   2.309   1.070   1.765 -0.4812 -0.0365 -0.9441
 9677TIP3    H128995   2.281   1.046   1.853  1.6780 -0.5931 -0.3448
 9677TIP3    H228996   2.323   1.165   1.769 -1.2078  0.0707 -0.9402
 9678TIP3   OH228997   2.932   5.146   1.489  0.0837  0.5620 -0.3623
 9678TIP3    H128998   2.890   5.231   1.476  2.1394  1.8247  0.6903
 9678TIP3    H228999   3.020   5.167   1.521  0.5763 -1.9744  0.2014
 9679TIP3   OH229000   0.604   2.459   3.022 -0.7352  0.6666  0.2516
 9679TIP3    H129001   0.654   2.393   2.975 -1.0384  0.6331 -0.0313
 9679TIP3    H229002   0.665   2.495   3.087 -1.2975 -1.8240  2.3345
 9680TIP3   OH229003   4.592   1.311   5.056  0.0908 -0.6818 -0.1759
 9680TIP3    H129004   4.557   1.231   5.016 -0.8036 -0.3814 -0.0156
 9680TIP3    H229005   4.670   1.331   5.005  1.2873 -2.5701  0.7918
 9681TIP3   OH229006   6.543   6.464   1.565 -0.1184 -0.4605 -0.1710
 9681TIP3    H129007   6.600   6.425   1.632  0.0893 -0.4102 -0.3156
 9681TIP3    H229008   6.470   6.502   1.614  0.3410  0.1148  0.0821
 9682TIP3   OH229009   3.016   0.641   2.714 -0.3287  0.5252  0.2322
 9682TIP3    H129010   2.960   0.565   2.732  0.2359  0.8587  4.3920
 9682TIP3    H229011   2.955   0.708   2.681 -1.3329 -0.8374 -0.7599
 9683TIP3   OH229012   0.827   4.194   0.672  0.3279 -0.2261 -0.3483
 9683TIP3    H129013   0.815   4.138   0.595 -0.6796  1.6591 -1.6514
 9683TIP3    H229014   0.773   4.154   0.740  1.9838 -2.4686 -0.2493
 9684TIP3   OH229015   7.021   1.712   5.754  0.4121  0.3329  0.8105
 9684TIP3    H129016   6.931   1.715   5.786  0.2488  0.6992  0.3322
 9684TIP3    H229017   7.038   1.619   5.740 -0.6719  0.3675 -1.1903
 9685TIP3   OH229018   2.058   4.064   0.904  0.0887 -0.2938  0.1165
 9685TIP3    H129019   2.062   4.052   0.809 -1.0530 -1.1864  0.1576
 9685TIP3    H229020   2.042   4.158   0.916  2.0675  0.1600 -0.4851
 9686TIP3   OH229021   4.631   6.797   3.212  0.1881 -0.4246  0.7334
 9686TIP3    H129022   4.590   6.713   3.236 -0.3257 -0.3578  0.1353
 9686TIP3    H229023   4.723   6.787   3.236  0.1426 -1.1840  0.6215
 9687TIP3   OH229024   2.273   2.752   0.335  0.7291  0.6714  0.5147
 9687TIP3    H129025   2.284   2.835   0.288 -2.0244  1.9341  1.8580
 9687TIP3    H229026   2.181   2.751   0.361  0.0669 -3.7673 -1.0826
 9688TIP3   OH229027   3.983   1.494   4.861 -0.1460 -0.3332 -0.1601
 9688TIP3    H129028   3.978   1.589   4.851  0.7959 -0.2173  0.4020
 9688TIP3    H229029   4.014   1.481   4.950 -1.9115 -1.2158  0.3770
 9689TIP3   OH229030   5.265   0.803   1.059  0.8167 -0.0733  0.0393
 9689TIP3    H129031   5.172   0.796   1.082  0.4855 -0.2190 -1.2683
 9689TIP3    H229032   5.311   0.760   1.131 -0.3262 -3.1983 -0.9417
 9690TIP3   OH229033   0.667   1.144   1.767 -0.4489  0.8163  0.8869
 9690TIP3    H129034   0.668   1.217   1.829  0.3158  0.5584  1.1867
 9690TIP3    H229035   0.625   1.179   1.689 -2.2514  0.9123  1.8402
 9691TIP3   OH229036   5.948   4.202   1.974 -0.0536 -0.4174  0.0810
 9691TIP3    H129037   5.871   4.178   1.921 -0.1242 -1.1707  0.5099
 9691TIP3    H229038   6.013   4.136   1.951  0.5879  0.3941 -0.5083
 9692TIP3   OH229039   6.074   5.672   5.031 -0.5503  0.2118  0.3268
 9692TIP3    H129040   6.039   5.710   4.951 -0.7739 -0.4135  0.1249
 9692TIP3    H229041   6.023   5.712   5.101 -0.8471  0.2126  0.1109
 9693TIP3   OH229042   0.364   5.392   2.585 -0.0493  0.1830  0.3679
 9693TIP3    H129043   0.279   5.408   2.544 -0.4831 -0.6745  0.9212
 9693TIP3    H229044   0.368   5.455   2.657 -0.2151  0.2241  0.3414
 9694TIP3   OH229045   2.399   0.785   2.866  0.1105  0.2339  0.1310
 9694TIP3    H129046   2.326   0.750   2.917  0.1815 -0.0711  0.0297
 9694TIP3    H229047   2.477   0.758   2.915  0.2482 -1.3737 -0.8970
 9695TIP3   OH229048   5.548   2.571   3.046 -0.6772 -0.0248 -0.4789
 9695TIP3    H129049   5.605   2.497   3.064 -0.4925 -0.2714 -1.9800
 9695TIP3    H229050   5.487   2.539   2.979 -1.3433  0.8260 -0.3033
 9696TIP3   OH229051   4.922   0.609   0.325 -0.6705  0.3880 -0.1536
 9696TIP3    H129052   4.918   0.702   0.300  0.5130  0.2096 -1.0759
 9696TIP3    H229053   4.987   0.606   0.396 -0.8471  0.2867  0.0051
 9697TIP3   OH229054   5.756   3.251   3.648  0.1737  0.1949  0.3074
 9697TIP3    H129055   5.757   3.159   3.621  1.8147  0.3963 -0.4674
 9697TIP3    H229056   5.670   3.283   3.621 -0.2814 -0.9974  0.2467
 9698TIP3   OH229057   1.298   5.124   1.398  0.1753 -0.4440  0.2265
 9698TIP3    H129058   1.274   5.174   1.476 -0.1898 -1.3902  0.7297
 9698TIP3    H229059   1.384   5.159   1.372 -0.2471  0.7098  0.3247
 9699TIP3   OH229060   1.369   3.931   5.576 -0.0376 -0.5681  0.5526
 9699TIP3    H129061   1.309   3.874   5.528 -1.3195  0.6021  0.7145
 9699TIP3    H229062   1.395   3.997   5.512 -0.8015  0.3010  1.1208
 9700TIP3   OH229063   1.328   0.322   1.723 -0.3614 -0.5415  0.5862
 9700TIP3    H129064   1.354   0.276   1.644  1.4203 -0.6808  1.2101
 9700TIP3    H229065   1.393   0.392   1.734 -1.8861  0.9446  0.7086
 9701TIP3   OH229066   7.146   0.625   0.338 -0.1860  0.5049 -0.4750
 9701TIP3    H129067   7.224   0.675   0.359 -0.6820  1.4835 -0.9124
 9701TIP3    H229068   7.179   0.541   0.306  0.6396  0.0428  1.4118
 9702TIP3   OH229069   5.679   5.728   0.883  0.0467 -0.2006 -0.6510
 9702TIP3    H129070   5.657   5.818   0.858 -0.0554 -0.1764 -0.4746
 9702TIP3    H229071   5.594   5.683   0.887 -0.0046 -0.0261  0.3554
 9703TIP3   OH229072   2.245   4.822   4.701 -0.1979  0.1222 -0.9803
 9703TIP3    H129073   2.167   4.773   4.679  0.7411 -1.7221 -0.4033
 9703TIP3    H229074   2.273   4.787   4.786  0.5859  1.5839 -0.5958
 9704TIP3   OH229075   2.920   3.411   4.547 -0.1263 -0.1108  0.3791
 9704TIP3    H129076   2.887   3.500   4.541 -0.4295 -0.1909  0.8824
 9704TIP3    H229077   3.016   3.421   4.550 -0.2012  0.3211  2.4812
 9705TIP3   OH229078   2.265   5.200   5.283  0.2738  0.4237 -0.3837
 9705TIP3    H129079   2.312   5.117   5.286 -0.5644 -0.1863 -2.4816
 9705TIP3    H229080   2.325   5.259   5.237  0.7487  0.9347  0.8482
 9706TIP3   OH229081   5.630   0.613   4.343  0.3021  0.4503  0.1678
 9706TIP3    H129082   5.664   0.601   4.254  1.8142 -2.9694  1.0688
 9706TIP3    H229083   5.690   0.676   4.383  0.8523  0.4455 -0.6232
 9707TIP3   OH229084   6.717   3.443   2.459 -0.4187  0.4662  0.3763
 9707TIP3    H129085   6.758   3.511   2.512 -2.0715  0.7562  1.3716
 9707TIP3    H229086   6.776   3.368   2.464 -0.2068  0.7093  2.0992
 9708TIP3   OH229087   0.900   3.225   2.672  0.2307 -0.6631  0.5469
 9708TIP3    H129088   0.971   3.271   2.627 -0.3919  0.5379  0.7466
 9708TIP3    H229089   0.887   3.275   2.753 -0.1400 -1.4931  1.0113
 9709TIP3   OH229090   2.637   4.000   3.705  0.3599  0.4024  0.4118
 9709TIP3    H129091   2.719   4.048   3.716  2.4211 -2.5935 -0.5252
 9709TIP3    H229092   2.656   3.935   3.638 -2.6564 -0.7626  0.5317
 9710TIP3   OH229093   5.237   2.106   4.854  0.4594 -0.1571 -0.0132
 9710TIP3    H129094   5.312   2.145   4.898 -1.5435  2.5126  1.3464
 9710TIP3    H229095   5.217   2.165   4.782 -0.8036 -0.3487  0.1524
 9711TIP3   OH229096   3.287   5.540   2.447 -0.1491 -0.1996  0.8807
 9711TIP3    H129097   3.294   5.634   2.431  0.3318 -0.1247  1.5111
 9711TIP3    H229098   3.257   5.533   2.538 -0.1833 -0.6569  0.8375
 9712TIP3   OH229099   0.882   4.625   4.998  0.0782  0.8519  0.0716
 9712TIP3    H129100   0.967   4.665   4.979  0.3640 -0.5569 -1.9161
 9712TIP3    H229101   0.827   4.649   4.924 -0.1497 -1.2226 -0.4951
 9713TIP3   OH229102   4.141   0.762   1.541  0.1955 -0.2592 -0.1282
 9713TIP3    H129103   4.087   0.707   1.484 -0.9565  0.5374  0.1371
 9713TIP3    H229104   4.217   0.786   1.488 -1.1711  1.0192 -1.6241
 9714TIP3   OH229105   2.219   0.752   1.828 -0.4454  0.3541  0.3344
 9714TIP3    H129106   2.267   0.671   1.846 -0.4990  0.4486  0.8982
 9714TIP3    H229107   2.181   0.778   1.912  1.0118  1.8987  0.5802
 9715TIP3   OH229108   0.236   4.578   3.086  0.0414 -0.0201 -0.2204
 9715TIP3    H129109   0.174   4.552   3.018 -0.3138  1.6222 -0.5649
 9715TIP3    H229110   0.192   4.650   3.132  1.5431  0.9564 -0.2486
 9716TIP3   OH229111   0.033   3.313   4.616 -0.3301 -0.5312  0.4807
 9716TIP3    H129112   0.042   3.222   4.587 -0.1138 -0.3572 -0.0100
 9716TIP3    H229113   0.039   3.364   4.535 -0.8508 -0.1043  0.7070
 9717TIP3   OH229114   7.145   0.888   1.151  0.3764  0.1833 -0.1863
 9717TIP3    H129115   7.053   0.911   1.167  0.0105 -0.0180 -1.8019
 9717TIP3    H229116   7.145   0.853   1.061  1.8960 -0.6175  0.1068
 9718TIP3   OH229117   7.177   0.379   5.585  0.2889  0.4321  0.4053
 9718TIP3    H129118   7.237   0.421   5.647 -0.3542  0.6892  0.8671
 9718TIP3    H229119   7.101   0.356   5.638 -0.7757  1.6986 -0.5016
 9719TIP3   OH229120   4.677   0.169   0.252  0.4146 -0.1250 -0.3048
 9719TIP3    H129121   4.703   0.250   0.296 -0.2445 -0.1753  0.1998
 9719TIP3    H229122   4.730   0.101   0.293 -0.8578 -0.3127  1.1269
 9720TIP3   OH229123   2.871   3.428   3.803  0.3627  0.1987 -0.0456
 9720TIP3    H129124   2.859   3.519   3.830  0.8934  0.1877  0.2365
 9720TIP3    H229125   2.844   3.376   3.879  0.3364  0.1300 -0.1014
 9721TIP3   OH229126   2.138   6.454   3.578 -0.6743  0.1445  0.3213
 9721TIP3    H129127   2.199   6.461   3.651 -1.5899  1.8878  0.9842
 9721TIP3    H229128   2.126   6.544   3.548  1.8354 -0.6013 -3.9238
 9722TIP3   OH229129   3.655   6.102   3.643  0.2529 -0.1436 -0.3034
 9722TIP3    H129130   3.565   6.086   3.669  0.3097  0.0761  0.0312
 9722TIP3    H229131   3.707   6.086   3.722  0.5876 -0.9610 -0.6675
 9723TIP3   OH229132   0.576   2.532   1.762 -0.1928 -0.1170  0.0006
 9723TIP3    H129133   0.647   2.483   1.720 -0.2438  0.8631 -1.3227
 9723TIP3    H229134   0.502   2.522   1.702  0.0330  2.1886 -0.7766
 9724TIP3   OH229135   5.823   5.864   4.420  0.4327 -0.4882 -0.4967
 9724TIP3    H129136   5.861   5.829   4.339 -1.1021 -1.2289 -0.9506
 9724TIP3    H229137   5.743   5.812   4.432  0.6685 -0.4252  1.5446
 9725TIP3   OH229138   1.346   6.356   1.279 -0.3248 -0.1374 -0.1750
 9725TIP3    H129139   1.437   6.364   1.308 -0.7081 -0.8027  1.3026
 9725TIP3    H229140   1.295   6.347   1.360 -1.4459 -2.4661 -1.0342
 9726TIP3   OH229141   6.736   0.977   0.981  0.1089 -0.7780 -0.6012
 9726TIP3    H129142   6.750   1.063   1.022  0.9332 -0.8638 -0.6884
 9726TIP3    H229143   6.641   0.971   0.971  0.0317  0.0686 -0.4783
 9727TIP3   OH229144   6.934   3.223   2.740 -0.6157 -0.1307 -0.4087
 9727TIP3    H129145   6.857   3.279   2.733 -0.5937 -0.1757 -1.1950
 9727TIP3    H229146   6.930   3.168   2.661 -0.3472 -0.8564  0.0778
 9728TIP3   OH229147   5.032   4.139   1.619  0.3691  0.1975  0.2657
 9728TIP3    H129148   4.974   4.065   1.602 -1.4803  1.4713  0.7938
 9728TIP3    H229149   5.003   4.207   1.559  1.0667  0.9983  0.8046
 9729TIP3   OH229150   3.354   2.757   2.687 -0.3715 -0.0979 -0.4187
 9729TIP3    H129151   3.356   2.816   2.611 -0.5805 -1.6243 -1.6622
 9729TIP3    H229152   3.307   2.806   2.754 -0.2770  1.2592 -1.2923
 9730TIP3   OH229153   4.538   4.371   3.387  0.0639  0.1015  0.4018
 9730TIP3    H129154   4.524   4.449   3.441 -0.8692  0.6590 -0.5922
 9730TIP3    H229155   4.622   4.387   3.343  0.3678  0.0783  0.9756
 9731TIP3   OH229156   4.925   6.688   5.429  1.1199  0.0629  0.0415
 9731TIP3    H129157   4.860   6.712   5.364 -1.2648 -0.4100  2.1170
 9731TIP3    H229158   4.969   6.611   5.391 -1.5701 -1.4507 -0.2574
 9732TIP3   OH229159   4.584   5.194   3.823 -0.4359  0.2579  0.5823
 9732TIP3    H129160   4.499   5.215   3.784  0.5276  0.4977 -1.5195
 9732TIP3    H229161   4.622   5.279   3.844 -0.2135  0.2072  0.3842
 9733TIP3   OH229162   6.035   2.433   1.724  0.1661  0.9758 -0.1926
 9733TIP3    H129163   6.057   2.421   1.632 -0.0193  0.6137 -0.1901
 9733TIP3    H229164   5.946   2.400   1.732  0.5620  0.0052  0.3389
 9734TIP3   OH229165   0.637   0.025   0.712 -0.5938  0.1959  0.1967
 9734TIP3    H129166   0.670  -0.009   0.628 -2.8207 -0.5749 -0.4438
 9734TIP3    H229167   0.547   0.053   0.692 -1.2734 -0.2737  2.4129
 9735TIP3   OH229168   6.613   2.633   1.972  0.0249 -0.0213  0.0800
 9735TIP3    H129169   6.653   2.715   1.944  0.8379 -0.3574  0.2349
 9735TIP3    H229170   6.591   2.647   2.064 -1.6456  0.6983 -0.3895
 9736TIP3   OH229171   1.614   3.620   0.327  0.1629 -0.1217  0.0578
 9736TIP3    H129172   1.682   3.565   0.368  0.5508  0.6924  0.5214
 9736TIP3    H229173   1.536   3.565   0.327  0.3838 -0.4563  1.0978
 9737TIP3   OH229174   5.524   4.708   0.968 -0.6782  0.3230 -0.7209
 9737TIP3    H129175   5.561   4.796   0.965  0.4500 -0.0292  1.2317
 9737TIP3    H229176   5.447   4.716   1.025  0.0920 -0.1162  0.4384
 9738TIP3   OH229177   4.963   6.335   5.089  0.0324  0.1986 -0.3055
 9738TIP3    H129178   4.970   6.354   4.995 -0.7738 -0.6783 -0.5669
 9738TIP3    H229179   4.987   6.416   5.132 -0.6225  0.9510 -1.3045
 9739TIP3   OH229180   4.931   0.814   0.536 -0.3781 -0.1969 -0.5625
 9739TIP3    H129181   4.889   0.899   0.527  1.9435  0.8692 -2.3343
 9739TIP3    H229182   4.988   0.822   0.612  0.1957  0.0252 -1.0068
 9740TIP3   OH229183   5.013   4.505   5.297 -0.1422  0.0372 -1.2122
 9740TIP3    H129184   5.018   4.458   5.213  1.7814 -0.7345 -0.7270
 9740TIP3    H229185   5.071   4.455   5.355 -0.6397  1.1510  0.2939
 9741TIP3   OH229186   0.390   1.949   3.638  0.1041 -0.2507  0.1535
 9741TIP3    H129187   0.460   1.986   3.583 -0.4626 -0.3139 -0.6310
 9741TIP3    H229188   0.395   1.855   3.621  0.3572 -0.3513  0.7434
 9742TIP3   OH229189   2.643   5.420   3.953  0.4135  0.3245 -0.1428
 9742TIP3    H129190   2.722   5.394   4.002  0.8689 -0.3300 -1.1764
 9742TIP3    H229191   2.606   5.337   3.923 -1.0025  0.5854  0.7929
 9743TIP3   OH229192   5.189   6.377   3.055  0.5176 -0.1528  0.4703
 9743TIP3    H129193   5.268   6.417   3.091 -0.2074  0.5958  1.2771
 9743TIP3    H229194   5.143   6.342   3.131 -1.6755  2.5701  0.5514
 9744TIP3   OH229195   4.906   4.910   1.143  0.0786  0.0443  0.6856
 9744TIP3    H129196   4.987   4.945   1.106  1.0035 -1.1504  1.5169
 9744TIP3    H229197   4.860   4.871   1.069  0.0999  1.0100  0.1545
 9745TIP3   OH229198   2.144   2.018   2.382 -0.4389 -0.1654 -0.1869
 9745TIP3    H129199   2.231   2.034   2.346  0.3878 -1.9834  0.8516
 9745TIP3    H229200   2.156   1.945   2.443 -2.6270 -0.2190  0.2804
 9746TIP3   OH229201   5.861   4.724   2.538  0.1343 -0.2043 -0.1364
 9746TIP3    H129202   5.937   4.677   2.574  0.8939  0.6236 -0.6142
 9746TIP3    H229203   5.785   4.678   2.574  0.8616 -0.9378  0.5072
 9747TIP3   OH229204   3.330   0.926   5.755 -0.0746 -0.0288  0.1118
 9747TIP3    H129205   3.326   1.021   5.744  1.9874  0.2363  1.2373
 9747TIP3    H229206   3.390   0.896   5.687  0.2388 -0.3704  0.5344
 9748TIP3   OH229207   0.905   4.460   1.935 -0.0772  0.1357 -0.7678
 9748TIP3    H129208   0.938   4.526   1.874  1.0060 -0.6464 -1.0558
 9748TIP3    H229209   0.978   4.399   1.946 -1.3093 -1.4878 -1.1812
 9749TIP3   OH229210   3.901   1.135   0.226 -0.0490 -0.2300  0.7338
 9749TIP3    H129211   3.880   1.145   0.133  2.3137 -2.2416 -0.1231
 9749TIP3    H229212   3.820   1.102   0.266 -0.3326 -2.0437 -1.1852
   7.21462   6.80201   5.89070   0.00000   0.00000  -2.40488   0.00000  -2.40488  -3.40100
