Title t= 416.00000 step= 208000
19927
    1ASP      N    1   1.320   0.562   1.673
    1ASP    HT1    2   1.385   0.485   1.646
    1ASP    HT2    3   1.224   0.544   1.638
    1ASP    HT3    4   1.314   0.573   1.777
    1ASP     CA    5   1.377   0.692   1.622
    1ASP     HA    6   1.391   0.682   1.515
    1ASP     CB    7   1.267   0.796   1.666
    1ASP    HB1    8   1.286   0.807   1.775
    1ASP    HB2    9   1.160   0.765   1.657
    1ASP     CG   10   1.296   0.925   1.595
    1ASP    OD1   11   1.389   0.926   1.506
    1ASP    OD2   12   1.227   1.031   1.615
    1ASP      C   13   1.511   0.709   1.694
    1ASP      O   14   1.570   0.625   1.762
    2ALA      N   15   1.567   0.830   1.679
    2ALA     HN   16   1.527   0.890   1.610
    2ALA     CA   17   1.679   0.879   1.754
    2ALA     HA   18   1.724   0.806   1.821
    2ALA     CB   19   1.795   0.919   1.650
    2ALA    HB1   20   1.883   0.955   1.708
    2ALA    HB2   21   1.761   0.995   1.577
    2ALA    HB3   22   1.838   0.832   1.596
    2ALA      C   23   1.648   1.009   1.827
    2ALA      O   24   1.609   1.103   1.767
    3ASP      N   25   1.674   1.013   1.961
    3ASP     HN   26   1.706   0.932   2.009
    3ASP     CA   27   1.650   1.121   2.045
    3ASP     HA   28   1.549   1.151   2.020
    3ASP     CB   29   1.663   1.076   2.190
    3ASP    HB1   30   1.676   1.161   2.261
    3ASP    HB2   31   1.757   1.017   2.200
    3ASP     CG   32   1.549   0.991   2.231
    3ASP    OD1   33   1.444   0.973   2.165
    3ASP    OD2   34   1.562   0.934   2.344
    3ASP      C   35   1.732   1.245   2.013
    3ASP      O   36   1.849   1.239   1.977
    4GLY      N   37   1.675   1.364   2.040
    4GLY     HN   38   1.575   1.361   2.037
    4GLY     CA   39   1.753   1.484   2.060
    4GLY    HA1   40   1.684   1.568   2.059
    4GLY    HA2   41   1.830   1.482   1.984
    4GLY      C   42   1.824   1.503   2.194
    4GLY      O   43   1.827   1.403   2.267
    5PRO      N   44   1.878   1.617   2.224
    5PRO     CD   45   1.865   1.737   2.133
    5PRO    HD1   46   1.758   1.749   2.107
    5PRO    HD2   47   1.917   1.717   2.037
    5PRO     CA   48   1.931   1.653   2.351
    5PRO     HA   49   2.003   1.578   2.382
    5PRO     CB   50   2.011   1.784   2.317
    5PRO    HB1   51   2.113   1.763   2.280
    5PRO    HB2   52   2.018   1.844   2.410
    5PRO     CG   53   1.924   1.852   2.214
    5PRO    HG1   54   1.848   1.907   2.273
    5PRO    HG2   55   1.972   1.929   2.150
    5PRO      C   56   1.807   1.681   2.452
    5PRO      O   57   1.816   1.778   2.532
    6GLY      N   58   1.699   1.605   2.452
    6GLY     HN   59   1.709   1.523   2.397
    6GLY     CA   60   1.572   1.642   2.511
    6GLY    HA1   61   1.589   1.681   2.610
    6GLY    HA2   62   1.523   1.546   2.499
    6GLY      C   63   1.497   1.754   2.436
    6GLY      O   64   1.551   1.824   2.349
    7ASP      N   65   1.372   1.764   2.477
    7ASP     HN   66   1.341   1.706   2.552
    7ASP     CA   67   1.286   1.883   2.437
    7ASP     HA   68   1.275   1.890   2.330
    7ASP     CB   69   1.138   1.864   2.489
    7ASP    HB1   70   1.071   1.943   2.451
    7ASP    HB2   71   1.131   1.855   2.599
    7ASP     CG   72   1.073   1.738   2.431
    7ASP    OD1   73   1.137   1.657   2.356
    7ASP    OD2   74   0.950   1.717   2.465
    7ASP      C   75   1.348   2.018   2.488
    7ASP      O   76   1.392   2.018   2.600
    8PRO      N   77   1.350   2.125   2.410
    8PRO     CD   78   1.276   2.144   2.285
    8PRO    HD1   79   1.174   2.101   2.285
    8PRO    HD2   80   1.338   2.112   2.198
    8PRO     CA   81   1.396   2.252   2.461
    8PRO     HA   82   1.499   2.243   2.492
    8PRO     CB   83   1.401   2.343   2.341
    8PRO    HB1   84   1.483   2.317   2.270
    8PRO    HB2   85   1.399   2.452   2.362
    8PRO     CG   86   1.273   2.299   2.268
    8PRO    HG1   87   1.186   2.346   2.319
    8PRO    HG2   88   1.259   2.324   2.161
    8PRO      C   89   1.309   2.302   2.576
    8PRO      O   90   1.182   2.299   2.566
    9ASP      N   91   1.360   2.338   2.696
    9ASP     HN   92   1.458   2.331   2.713
    9ASP     CA   93   1.288   2.405   2.798
    9ASP     HA   94   1.199   2.347   2.820
    9ASP     CB   95   1.358   2.412   2.940
    9ASP    HB1   96   1.300   2.473   3.013
    9ASP    HB2   97   1.459   2.458   2.935
    9ASP     CG   98   1.374   2.278   3.001
    9ASP    OD1   99   1.287   2.186   2.989
    9ASP    OD2  100   1.473   2.253   3.073
    9ASP      C  101   1.230   2.541   2.760
    9ASP      O  102   1.293   2.628   2.692
   10ALA      N  103   1.105   2.568   2.802
   10ALA     HN  104   1.059   2.495   2.852
   10ALA     CA  105   1.027   2.689   2.781
   10ALA     HA  106   1.022   2.697   2.674
   10ALA     CB  107   0.886   2.679   2.851
   10ALA    HB1  108   0.886   2.679   2.962
   10ALA    HB2  109   0.833   2.588   2.817
   10ALA    HB3  110   0.823   2.762   2.811
   10ALA      C  111   1.096   2.817   2.830
   10ALA      O  112   1.139   2.829   2.945
   11GLY      N  113   1.104   2.912   2.744
   11GLY     HN  114   1.062   2.909   2.654
   11GLY     CA  115   1.177   3.032   2.764
   11GLY    HA1  116   1.167   3.089   2.673
   11GLY    HA2  117   1.280   3.019   2.793
   11GLY      C  118   1.112   3.126   2.873
   11GLY    OT1  119   1.176   3.156   2.974
   11GLY    OT2  120   1.000   3.177   2.845
   12SOD    SOD  121   6.200   2.856   3.045
   13SOD    SOD  122   5.464   3.452   4.701
   14SOD    SOD  123   3.268   4.769   2.451
   15SOD    SOD  124   5.965   1.326   0.225
   16SOD    SOD  125   0.682   3.928   3.368
   17SOD    SOD  126   1.706   2.099   4.196
   18SOD    SOD  127   6.246   3.612   1.086
   19SOD    SOD  128   3.025   1.932   0.655
   20SOD    SOD  129   2.567   4.144   3.567
   21SOD    SOD  130   3.921   3.259   1.978
   22SOD    SOD  131   6.166   4.200   2.446
   23SOD    SOD  132   0.990   3.245   3.672
   24SOD    SOD  133   3.084   0.704   2.188
   25SOD    SOD  134   4.700   5.680   2.029
   26SOD    SOD  135   1.972   3.948   2.095
   27SOD    SOD  136   5.756   3.359   1.996
   28SOD    SOD  137   4.104   3.790   0.649
   29SOD    SOD  138   4.668   1.667   3.898
   30SOD    SOD  139   3.790   4.305   5.134
   31SOD    SOD  140   1.842   4.692   1.270
   32SOD    SOD  141   0.324   4.917   4.178
   33SOD    SOD  142   0.703   1.351   4.078
   34CLA    CLA  143   5.148   2.850   1.133
   35CLA    CLA  144   0.259   3.326   3.525
   36CLA    CLA  145   1.453   0.287   1.573
   37CLA    CLA  146   2.299   4.537   3.749
   38CLA    CLA  147   4.610   2.959   3.835
   39CLA    CLA  148   1.753   5.542   1.830
   40CLA    CLA  149   2.030   4.311   1.111
   41CLA    CLA  150   5.593   5.428   1.688
   42CLA    CLA  151   2.285   1.510   4.516
   43CLA    CLA  152   4.411   3.418   2.077
   44CLA    CLA  153   0.744   4.657   3.099
   45CLA    CLA  154   6.208   3.452   2.191
   46CLA    CLA  155   5.293   4.042   4.177
   47CLA    CLA  156   3.805   0.690   1.014
   48CLA    CLA  157   2.802   1.185   3.718
   49CLA    CLA  158   1.558   2.281   1.274
   50CLA    CLA  159   6.171   0.282   4.910
   51CLA    CLA  160   0.426   0.163   0.836
   52TIP3   OH2  161   0.958   4.364   2.578
   52TIP3    H1  162   0.922   4.387   2.663
   52TIP3    H2  163   0.890   4.388   2.515
   53TIP3   OH2  164   1.048   1.709   3.686
   53TIP3    H1  165   0.960   1.710   3.724
   53TIP3    H2  166   1.039   1.655   3.608
   54TIP3   OH2  167   6.246   4.290   1.506
   54TIP3    H1  168   6.206   4.329   1.429
   54TIP3    H2  169   6.216   4.199   1.505
   55TIP3   OH2  170   2.492   1.392   3.793
   55TIP3    H1  171   2.575   1.351   3.767
   55TIP3    H2  172   2.430   1.320   3.800
   56TIP3   OH2  173   2.490   4.741   1.346
   56TIP3    H1  174   2.453   4.793   1.418
   56TIP3    H2  175   2.481   4.798   1.269
   57TIP3   OH2  176   3.443   2.290   1.100
   57TIP3    H1  177   3.515   2.300   1.038
   57TIP3    H2  178   3.472   2.340   1.177
   58TIP3   OH2  179   4.850   5.869   2.406
   58TIP3    H1  180   4.793   5.917   2.467
   58TIP3    H2  181   4.925   5.843   2.460
   59TIP3   OH2  182   1.001   5.260   1.678
   59TIP3    H1  183   1.079   5.217   1.711
   59TIP3    H2  184   0.982   5.215   1.595
   60TIP3   OH2  185   0.833   1.793   2.231
   60TIP3    H1  186   0.873   1.754   2.309
   60TIP3    H2  187   0.863   1.738   2.159
   61TIP3   OH2  188   4.751   0.090   1.042
   61TIP3    H1  189   4.756   0.037   0.963
   61TIP3    H2  190   4.814   0.161   1.027
   62TIP3   OH2  191   1.752   4.473   2.478
   62TIP3    H1  192   1.714   4.546   2.526
   62TIP3    H2  193   1.841   4.502   2.457
   63TIP3   OH2  194   3.577   4.766   3.039
   63TIP3    H1  195   3.548   4.685   3.080
   63TIP3    H2  196   3.640   4.804   3.101
   64TIP3   OH2  197   1.826   2.871   0.839
   64TIP3    H1  198   1.858   2.843   0.925
   64TIP3    H2  199   1.906   2.890   0.789
   65TIP3   OH2  200   3.015   5.044   3.559
   65TIP3    H1  201   2.997   4.952   3.579
   65TIP3    H2  202   3.048   5.043   3.469
   66TIP3   OH2  203   5.701   2.576   3.432
   66TIP3    H1  204   5.736   2.666   3.428
   66TIP3    H2  205   5.729   2.544   3.518
   67TIP3   OH2  206   4.344   2.643   2.573
   67TIP3    H1  207   4.384   2.587   2.640
   67TIP3    H2  208   4.254   2.610   2.565
   68TIP3   OH2  209   1.151   4.091   4.024
   68TIP3    H1  210   1.243   4.110   4.006
   68TIP3    H2  211   1.153   4.036   4.103
   69TIP3   OH2  212   2.884   1.703   0.440
   69TIP3    H1  213   2.869   1.797   0.452
   69TIP3    H2  214   2.796   1.666   0.434
   70TIP3   OH2  215   1.426   3.388   3.811
   70TIP3    H1  216   1.504   3.444   3.817
   70TIP3    H2  217   1.455   3.313   3.759
   71TIP3   OH2  218   2.562   3.999   4.219
   71TIP3    H1  219   2.651   4.018   4.249
   71TIP3    H2  220   2.529   4.082   4.187
   72TIP3   OH2  221   4.544   1.477   3.808
   72TIP3    H1  222   4.494   1.433   3.739
   72TIP3    H2  223   4.500   1.452   3.889
   73TIP3   OH2  224   4.987   2.488   0.503
   73TIP3    H1  225   5.068   2.522   0.465
   73TIP3    H2  226   4.997   2.393   0.501
   74TIP3   OH2  227   1.998   4.410   3.728
   74TIP3    H1  228   1.952   4.492   3.712
   74TIP3    H2  229   2.088   4.436   3.750
   75TIP3   OH2  230   2.716   2.585   4.057
   75TIP3    H1  231   2.643   2.612   4.002
   75TIP3    H2  232   2.755   2.666   4.088
   76TIP3   OH2  233   5.035   2.863   1.908
   76TIP3    H1  234   5.114   2.892   1.863
   76TIP3    H2  235   5.036   2.767   1.899
   77TIP3   OH2  236   4.862   3.753   0.183
   77TIP3    H1  237   4.789   3.790   0.134
   77TIP3    H2  238   4.863   3.803   0.265
   78TIP3   OH2  239   5.520   4.386   1.476
   78TIP3    H1  240   5.521   4.313   1.414
   78TIP3    H2  241   5.434   4.380   1.518
   79TIP3   OH2  242   1.910   0.756   2.738
   79TIP3    H1  243   1.846   0.737   2.807
   79TIP3    H2  244   1.921   0.672   2.692
   80TIP3   OH2  245   1.293   2.246   1.539
   80TIP3    H1  246   1.242   2.252   1.458
   80TIP3    H2  247   1.354   2.320   1.533
   81TIP3   OH2  248   0.219   0.235   2.062
   81TIP3    H1  249   0.171   0.171   2.115
   81TIP3    H2  250   0.309   0.229   2.093
   82TIP3   OH2  251   1.276   4.915   1.388
   82TIP3    H1  252   1.315   4.973   1.323
   82TIP3    H2  253   1.320   4.940   1.470
   83TIP3   OH2  254   0.949   3.575   2.582
   83TIP3    H1  255   0.928   3.499   2.636
   83TIP3    H2  256   1.033   3.606   2.615
   84TIP3   OH2  257   5.052   1.316   2.878
   84TIP3    H1  258   4.960   1.333   2.897
   84TIP3    H2  259   5.085   1.269   2.956
   85TIP3   OH2  260   2.630   0.578   4.700
   85TIP3    H1  261   2.615   0.648   4.764
   85TIP3    H2  262   2.705   0.530   4.734
   86TIP3   OH2  263   5.984   2.787   4.141
   86TIP3    H1  264   5.987   2.782   4.045
   86TIP3    H2  265   5.933   2.711   4.168
   87TIP3   OH2  266   0.012   1.092   3.547
   87TIP3    H1  267   0.020   1.169   3.603
   87TIP3    H2  268  -0.022   1.126   3.464
   88TIP3   OH2  269   2.651   5.403   4.727
   88TIP3    H1  270   2.659   5.498   4.729
   88TIP3    H2  271   2.557   5.387   4.714
   89TIP3   OH2  272   2.670   3.729   4.829
   89TIP3    H1  273   2.766   3.728   4.825
   89TIP3    H2  274   2.650   3.757   4.918
   90TIP3   OH2  275   0.774   1.450   4.604
   90TIP3    H1  276   0.785   1.463   4.698
   90TIP3    H2  277   0.714   1.520   4.577
   91TIP3   OH2  278   3.256   2.046   4.496
   91TIP3    H1  279   3.257   1.995   4.415
   91TIP3    H2  280   3.181   2.011   4.545
   92TIP3   OH2  281   4.426   0.850   3.446
   92TIP3    H1  282   4.513   0.810   3.452
   92TIP3    H2  283   4.432   0.929   3.499
   93TIP3   OH2  284   0.246   5.892   1.129
   93TIP3    H1  285   0.188   5.878   1.204
   93TIP3    H2  286   0.187   5.910   1.056
   94TIP3   OH2  287   1.315   0.484   4.126
   94TIP3    H1  288   1.247   0.419   4.106
   94TIP3    H2  289   1.269   0.554   4.173
   95TIP3   OH2  290   5.997   1.283   5.173
   95TIP3    H1  291   6.054   1.345   5.126
   95TIP3    H2  292   5.920   1.335   5.196
   96TIP3   OH2  293   0.353   1.549   5.139
   96TIP3    H1  294   0.397   1.473   5.176
   96TIP3    H2  295   0.360   1.616   5.207
   97TIP3   OH2  296   0.472   2.592   3.983
   97TIP3    H1  297   0.457   2.499   3.998
   97TIP3    H2  298   0.399   2.636   4.026
   98TIP3   OH2  299   0.003   4.003   0.635
   98TIP3    H1  300  -0.020   4.029   0.545
   98TIP3    H2  301   0.097   4.022   0.642
   99TIP3   OH2  302   0.306   3.844   1.291
   99TIP3    H1  303   0.299   3.936   1.267
   99TIP3    H2  304   0.305   3.797   1.208
  100TIP3   OH2  305   1.809   4.040   1.947
  100TIP3    H1  306   1.763   4.123   1.944
  100TIP3    H2  307   1.745   3.975   1.917
  101TIP3   OH2  308   4.460   1.810   2.368
  101TIP3    H1  309   4.549   1.799   2.335
  101TIP3    H2  310   4.417   1.727   2.348
  102TIP3   OH2  311   5.404   5.753   3.149
  102TIP3    H1  312   5.486   5.799   3.133
  102TIP3    H2  313   5.337   5.821   3.140
  103TIP3   OH2  314   3.080   0.046   4.883
  103TIP3    H1  315   3.015  -0.022   4.900
  103TIP3    H2  316   3.083   0.098   4.963
  104TIP3   OH2  317   2.815   4.506   1.160
  104TIP3    H1  318   2.900   4.511   1.116
  104TIP3    H2  319   2.832   4.537   1.249
  105TIP3   OH2  320   5.447   5.438   3.002
  105TIP3    H1  321   5.410   5.525   3.020
  105TIP3    H2  322   5.477   5.443   2.911
  106TIP3   OH2  323   3.370  -0.028   3.134
  106TIP3    H1  324   3.281  -0.008   3.106
  106TIP3    H2  325   3.418   0.053   3.123
  107TIP3   OH2  326   1.265   4.725   4.446
  107TIP3    H1  327   1.178   4.749   4.415
  107TIP3    H2  328   1.307   4.686   4.369
  108TIP3   OH2  329   3.913   4.055   3.827
  108TIP3    H1  330   4.001   4.019   3.825
  108TIP3    H2  331   3.863   3.994   3.882
  109TIP3   OH2  332   2.996   1.724   1.609
  109TIP3    H1  333   2.969   1.750   1.521
  109TIP3    H2  334   3.063   1.657   1.594
  110TIP3   OH2  335   0.743   1.993   3.504
  110TIP3    H1  336   0.758   1.991   3.409
  110TIP3    H2  337   0.829   1.976   3.542
  111TIP3   OH2  338   3.494   0.658   1.085
  111TIP3    H1  339   3.509   0.568   1.115
  111TIP3    H2  340   3.566   0.675   1.025
  112TIP3   OH2  341   5.389   3.351   2.512
  112TIP3    H1  342   5.388   3.327   2.604
  112TIP3    H2  343   5.448   3.426   2.507
  113TIP3   OH2  344   4.283   3.130   4.051
  113TIP3    H1  345   4.335   3.068   4.103
  113TIP3    H2  346   4.326   3.214   4.066
  114TIP3   OH2  347   0.203   1.289   1.822
  114TIP3    H1  348   0.253   1.217   1.784
  114TIP3    H2  349   0.192   1.352   1.751
  115TIP3   OH2  350   5.534   1.869   4.191
  115TIP3    H1  351   5.520   1.787   4.144
  115TIP3    H2  352   5.446   1.899   4.214
  116TIP3   OH2  353   4.466   0.291   4.639
  116TIP3    H1  354   4.421   0.305   4.722
  116TIP3    H2  355   4.416   0.342   4.576
  117TIP3   OH2  356   1.831   3.675   4.955
  117TIP3    H1  357   1.834   3.678   4.859
  117TIP3    H2  358   1.822   3.582   4.975
  118TIP3   OH2  359   3.239   0.720   4.814
  118TIP3    H1  360   3.208   0.722   4.723
  118TIP3    H2  361   3.164   0.752   4.865
  119TIP3   OH2  362   4.606   3.748   3.899
  119TIP3    H1  363   4.616   3.702   3.815
  119TIP3    H2  364   4.652   3.831   3.887
  120TIP3   OH2  365   3.916   0.227   3.624
  120TIP3    H1  366   3.892   0.196   3.537
  120TIP3    H2  367   4.012   0.229   3.623
  121TIP3   OH2  368   3.802   1.266   4.571
  121TIP3    H1  369   3.735   1.287   4.506
  121TIP3    H2  370   3.846   1.349   4.588
  122TIP3   OH2  371   0.462   0.906   2.387
  122TIP3    H1  372   0.371   0.922   2.362
  122TIP3    H2  373   0.509   0.896   2.304
  123TIP3   OH2  374   0.014   2.858   0.134
  123TIP3    H1  375   0.016   2.765   0.111
  123TIP3    H2  376   0.101   2.876   0.169
  124TIP3   OH2  377   6.111   0.568   1.592
  124TIP3    H1  378   6.157   0.493   1.554
  124TIP3    H2  379   6.167   0.596   1.664
  125TIP3   OH2  380   4.968   2.485   3.322
  125TIP3    H1  381   4.886   2.457   3.363
  125TIP3    H2  382   5.009   2.541   3.387
  126TIP3   OH2  383   0.988   4.537   1.717
  126TIP3    H1  384   0.922   4.575   1.659
  126TIP3    H2  385   0.955   4.550   1.805
  127TIP3   OH2  386   3.106   3.718   3.192
  127TIP3    H1  387   3.119   3.636   3.239
  127TIP3    H2  388   3.146   3.703   3.106
  128TIP3   OH2  389   0.505   2.265   0.467
  128TIP3    H1  390   0.423   2.310   0.444
  128TIP3    H2  391   0.572   2.332   0.459
  129TIP3   OH2  392   4.054   4.540   3.979
  129TIP3    H1  393   3.960   4.536   3.997
  129TIP3    H2  394   4.089   4.461   4.019
  130TIP3   OH2  395   2.179   3.832   3.911
  130TIP3    H1  396   2.208   3.860   3.998
  130TIP3    H2  397   2.177   3.736   3.916
  131TIP3   OH2  398   0.219   2.665   4.631
  131TIP3    H1  399   0.153   2.692   4.694
  131TIP3    H2  400   0.295   2.719   4.650
  132TIP3   OH2  401   3.465   4.637   5.007
  132TIP3    H1  402   3.423   4.678   4.932
  132TIP3    H2  403   3.540   4.591   4.969
  133TIP3   OH2  404   0.965   4.881   4.361
  133TIP3    H1  405   1.026   4.914   4.296
  133TIP3    H2  406   0.939   4.795   4.329
  134TIP3   OH2  407   1.722   2.872   3.182
  134TIP3    H1  408   1.645   2.822   3.209
  134TIP3    H2  409   1.794   2.832   3.230
  135TIP3   OH2  410   4.958   3.783   2.983
  135TIP3    H1  411   4.960   3.704   3.038
  135TIP3    H2  412   4.961   3.749   2.893
  136TIP3   OH2  413   2.855   1.053   0.727
  136TIP3    H1  414   2.928   1.023   0.782
  136TIP3    H2  415   2.893   1.123   0.674
  137TIP3   OH2  416   5.162   2.147   1.972
  137TIP3    H1  417   5.164   2.103   2.057
  137TIP3    H2  418   5.108   2.224   1.987
  138TIP3   OH2  419   3.792   3.691   1.208
  138TIP3    H1  420   3.825   3.687   1.298
  138TIP3    H2  421   3.704   3.656   1.213
  139TIP3   OH2  422   2.660   4.592   2.561
  139TIP3    H1  423   2.573   4.609   2.525
  139TIP3    H2  424   2.644   4.561   2.650
  140TIP3   OH2  425   2.439   0.083   5.001
  140TIP3    H1  426   2.499   0.075   4.927
  140TIP3    H2  427   2.489   0.129   5.068
  141TIP3   OH2  428   2.678   0.189   0.433
  141TIP3    H1  429   2.753   0.130   0.424
  141TIP3    H2  430   2.687   0.226   0.521
  142TIP3   OH2  431   2.364   3.846   0.158
  142TIP3    H1  432   2.275   3.882   0.163
  142TIP3    H2  433   2.391   3.837   0.250
  143TIP3   OH2  434   3.674   3.607   0.559
  143TIP3    H1  435   3.760   3.642   0.539
  143TIP3    H2  436   3.622   3.624   0.480
  144TIP3   OH2  437   0.215   2.653   4.046
  144TIP3    H1  438   0.152   2.722   4.025
  144TIP3    H2  439   0.162   2.574   4.058
  145TIP3   OH2  440   2.626   0.531   1.610
  145TIP3    H1  441   2.556   0.515   1.673
  145TIP3    H2  442   2.689   0.461   1.625
  146TIP3   OH2  443   2.352   1.843   0.114
  146TIP3    H1  444   2.363   1.749   0.102
  146TIP3    H2  445   2.379   1.859   0.204
  147TIP3   OH2  446   3.163   2.692   3.341
  147TIP3    H1  447   3.229   2.636   3.301
  147TIP3    H2  448   3.130   2.641   3.415
  148TIP3   OH2  449   3.192   0.964   3.331
  148TIP3    H1  450   3.255   0.930   3.268
  148TIP3    H2  451   3.219   0.926   3.415
  149TIP3   OH2  452   5.262   5.647   0.146
  149TIP3    H1  453   5.199   5.710   0.181
  149TIP3    H2  454   5.325   5.701   0.098
  150TIP3   OH2  455   5.299   5.252   3.544
  150TIP3    H1  456   5.368   5.193   3.574
  150TIP3    H2  457   5.218   5.211   3.575
  151TIP3   OH2  458   5.523   2.128   4.847
  151TIP3    H1  459   5.525   2.044   4.893
  151TIP3    H2  460   5.436   2.164   4.867
  152TIP3   OH2  461   3.328   1.368   1.745
  152TIP3    H1  462   3.384   1.400   1.816
  152TIP3    H2  463   3.382   1.305   1.698
  153TIP3   OH2  464   4.189   0.684   4.306
  153TIP3    H1  465   4.155   0.765   4.346
  153TIP3    H2  466   4.142   0.678   4.223
  154TIP3   OH2  467   4.310   4.516   4.698
  154TIP3    H1  468   4.317   4.595   4.753
  154TIP3    H2  469   4.363   4.450   4.744
  155TIP3   OH2  470   4.123   3.071   0.868
  155TIP3    H1  471   4.062   3.107   0.932
  155TIP3    H2  472   4.069   3.046   0.794
  156TIP3   OH2  473   3.399   3.671   2.374
  156TIP3    H1  474   3.335   3.730   2.415
  156TIP3    H2  475   3.375   3.585   2.407
  157TIP3   OH2  476   5.198   3.242   0.865
  157TIP3    H1  477   5.216   3.335   0.848
  157TIP3    H2  478   5.199   3.236   0.960
  158TIP3   OH2  479   4.704   2.028   1.438
  158TIP3    H1  480   4.725   1.940   1.406
  158TIP3    H2  481   4.789   2.069   1.454
  159TIP3   OH2  482   4.180   1.138   0.300
  159TIP3    H1  483   4.247   1.203   0.320
  159TIP3    H2  484   4.218   1.055   0.328
  160TIP3   OH2  485   0.486   1.063   1.959
  160TIP3    H1  486   0.522   1.100   2.039
  160TIP3    H2  487   0.550   0.999   1.931
  161TIP3   OH2  488   1.697   5.335   2.562
  161TIP3    H1  489   1.746   5.253   2.574
  161TIP3    H2  490   1.611   5.317   2.599
  162TIP3   OH2  491   3.418   4.772   2.060
  162TIP3    H1  492   3.443   4.679   2.062
  162TIP3    H2  493   3.481   4.813   2.001
  163TIP3   OH2  494   4.588   1.099   2.542
  163TIP3    H1  495   4.509   1.070   2.588
  163TIP3    H2  496   4.635   1.151   2.606
  164TIP3   OH2  497   3.095   5.653   3.354
  164TIP3    H1  498   3.166   5.678   3.414
  164TIP3    H2  499   3.047   5.735   3.338
  165TIP3   OH2  500   4.035   4.642   1.286
  165TIP3    H1  501   4.075   4.660   1.371
  165TIP3    H2  502   4.034   4.726   1.242
  166TIP3   OH2  503   0.926   5.762   2.950
  166TIP3    H1  504   0.843   5.766   2.903
  166TIP3    H2  505   0.975   5.693   2.906
  167TIP3   OH2  506   3.599   3.308   3.196
  167TIP3    H1  507   3.658   3.313   3.271
  167TIP3    H2  508   3.646   3.254   3.132
  168TIP3   OH2  509   4.032   2.231   0.061
  168TIP3    H1  510   4.049   2.147   0.103
  168TIP3    H2  511   3.990   2.207  -0.022
  169TIP3   OH2  512   3.984   5.113   0.295
  169TIP3    H1  513   4.021   5.199   0.279
  169TIP3    H2  514   3.891   5.121   0.273
  170TIP3   OH2  515   1.322   1.911   1.760
  170TIP3    H1  516   1.415   1.890   1.768
  170TIP3    H2  517   1.306   1.976   1.829
  171TIP3   OH2  518   1.837   5.557   0.596
  171TIP3    H1  519   1.747   5.553   0.565
  171TIP3    H2  520   1.890   5.551   0.517
  172TIP3   OH2  521   6.041   5.124   1.091
  172TIP3    H1  522   6.065   5.052   1.033
  172TIP3    H2  523   6.124   5.170   1.106
  173TIP3   OH2  524   0.196   0.172   0.316
  173TIP3    H1  525   0.186   0.091   0.365
  173TIP3    H2  526   0.285   0.202   0.337
  174TIP3   OH2  527   6.101   2.255   4.091
  174TIP3    H1  528   6.141   2.322   4.036
  174TIP3    H2  529   6.116   2.285   4.181
  175TIP3   OH2  530   1.020   4.824   2.150
  175TIP3    H1  531   1.044   4.827   2.243
  175TIP3    H2  532   0.934   4.866   2.146
  176TIP3   OH2  533   2.058   0.100   1.632
  176TIP3    H1  534   2.025   0.052   1.708
  176TIP3    H2  535   2.071   0.189   1.664
  177TIP3   OH2  536   6.133   4.450   4.982
  177TIP3    H1  537   6.072   4.376   4.982
  177TIP3    H2  538   6.179   4.443   4.898
  178TIP3   OH2  539   5.322   1.350   2.133
  178TIP3    H1  540   5.312   1.423   2.194
  178TIP3    H2  541   5.240   1.348   2.084
  179TIP3   OH2  542   0.459   5.762   3.512
  179TIP3    H1  543   0.488   5.777   3.602
  179TIP3    H2  544   0.379   5.814   3.504
  180TIP3   OH2  545   0.827   3.647   1.236
  180TIP3    H1  546   0.876   3.730   1.235
  180TIP3    H2  547   0.740   3.671   1.267
  181TIP3   OH2  548   4.954   2.598   0.100
  181TIP3    H1  549   4.977   2.560   0.185
  181TIP3    H2  550   4.998   2.542   0.036
  182TIP3   OH2  551   0.772   3.183   4.477
  182TIP3    H1  552   0.809   3.180   4.565
  182TIP3    H2  553   0.706   3.114   4.477
  183TIP3   OH2  554   4.845   4.096   1.512
  183TIP3    H1  555   4.872   4.086   1.603
  183TIP3    H2  556   4.755   4.127   1.517
  184TIP3   OH2  557   4.278   3.741   0.466
  184TIP3    H1  558   4.338   3.739   0.540
  184TIP3    H2  559   4.333   3.723   0.389
  185TIP3   OH2  560   0.783   4.359   0.568
  185TIP3    H1  561   0.709   4.419   0.562
  185TIP3    H2  562   0.744   4.275   0.595
  186TIP3   OH2  563   3.553   4.680   3.741
  186TIP3    H1  564   3.561   4.731   3.660
  186TIP3    H2  565   3.643   4.663   3.767
  187TIP3   OH2  566   3.598   2.688   2.802
  187TIP3    H1  567   3.619   2.628   2.730
  187TIP3    H2  568   3.512   2.723   2.779
  188TIP3   OH2  569   4.117   5.295   2.783
  188TIP3    H1  570   4.029   5.306   2.821
  188TIP3    H2  571   4.168   5.368   2.819
  189TIP3   OH2  572   0.925   4.939   1.888
  189TIP3    H1  573   0.884   4.865   1.842
  189TIP3    H2  574   1.010   4.906   1.916
  190TIP3   OH2  575   1.079   4.372   4.493
  190TIP3    H1  576   1.023   4.341   4.565
  190TIP3    H2  577   1.017   4.400   4.425
  191TIP3   OH2  578   4.538   2.538   3.790
  191TIP3    H1  579   4.475   2.606   3.814
  191TIP3    H2  580   4.616   2.586   3.763
  192TIP3   OH2  581   3.589   3.308   0.864
  192TIP3    H1  582   3.623   3.221   0.886
  192TIP3    H2  583   3.667   3.364   0.861
  193TIP3   OH2  584   1.093   3.034   0.638
  193TIP3    H1  585   1.144   2.999   0.566
  193TIP3    H2  586   1.158   3.070   0.699
  194TIP3   OH2  587   6.136   5.409   1.513
  194TIP3    H1  588   6.062   5.463   1.485
  194TIP3    H2  589   6.106   5.319   1.497
  195TIP3   OH2  590   3.676   2.820   1.298
  195TIP3    H1  591   3.737   2.893   1.299
  195TIP3    H2  592   3.729   2.745   1.326
  196TIP3   OH2  593   3.677   0.142   0.267
  196TIP3    H1  594   3.765   0.152   0.304
  196TIP3    H2  595   3.683   0.179   0.179
  197TIP3   OH2  596   1.699   3.577   3.329
  197TIP3    H1  597   1.772   3.600   3.272
  197TIP3    H2  598   1.637   3.531   3.272
  198TIP3   OH2  599   4.643   1.670   2.583
  198TIP3    H1  600   4.636   1.759   2.549
  198TIP3    H2  601   4.653   1.615   2.505
  199TIP3   OH2  602   0.276   4.390   4.869
  199TIP3    H1  603   0.204   4.351   4.918
  199TIP3    H2  604   0.347   4.400   4.932
  200TIP3   OH2  605   6.061   0.653   0.289
  200TIP3    H1  606   5.966   0.654   0.279
  200TIP3    H2  607   6.092   0.594   0.220
  201TIP3   OH2  608   2.654   0.672   3.999
  201TIP3    H1  609   2.596   0.732   3.952
  201TIP3    H2  610   2.596   0.605   4.035
  202TIP3   OH2  611   2.021   2.470   0.105
  202TIP3    H1  612   2.041   2.509   0.020
  202TIP3    H2  613   1.971   2.391   0.084
  203TIP3   OH2  614   3.254   5.890   1.246
  203TIP3    H1  615   3.267   5.928   1.159
  203TIP3    H2  616   3.234   5.965   1.302
  204TIP3   OH2  617   4.324   3.094   3.768
  204TIP3    H1  618   4.409   3.057   3.742
  204TIP3    H2  619   4.333   3.113   3.861
  205TIP3   OH2  620   0.575   3.739   1.343
  205TIP3    H1  621   0.549   3.658   1.388
  205TIP3    H2  622   0.494   3.787   1.331
  206TIP3   OH2  623   3.694   5.339   3.497
  206TIP3    H1  624   3.611   5.296   3.480
  206TIP3    H2  625   3.672   5.432   3.506
  207TIP3   OH2  626   3.830   3.343   2.202
  207TIP3    H1  627   3.882   3.362   2.280
  207TIP3    H2  628   3.768   3.416   2.195
  208TIP3   OH2  629   2.791   4.908   5.018
  208TIP3    H1  630   2.784   4.917   4.923
  208TIP3    H2  631   2.783   4.997   5.052
  209TIP3   OH2  632   2.596   2.949   0.115
  209TIP3    H1  633   2.672   3.008   0.112
  209TIP3    H2  634   2.549   2.968   0.033
  210TIP3   OH2  635   0.354   3.106   2.840
  210TIP3    H1  636   0.434   3.061   2.869
  210TIP3    H2  637   0.326   3.057   2.763
  211TIP3   OH2  638   0.602   3.469   2.553
  211TIP3    H1  639   0.673   3.420   2.594
  211TIP3    H2  640   0.532   3.471   2.619
  212TIP3   OH2  641   3.420   3.384   2.463
  212TIP3    H1  642   3.465   3.391   2.378
  212TIP3    H2  643   3.329   3.363   2.440
  213TIP3   OH2  644   0.375   5.012   4.903
  213TIP3    H1  645   0.333   5.070   4.967
  213TIP3    H2  646   0.469   5.025   4.917
  214TIP3   OH2  647   4.474   5.339   3.116
  214TIP3    H1  648   4.382   5.344   3.091
  214TIP3    H2  649   4.521   5.376   3.042
  215TIP3   OH2  650   2.166   4.315   0.561
  215TIP3    H1  651   2.164   4.283   0.651
  215TIP3    H2  652   2.258   4.314   0.537
  216TIP3   OH2  653   3.316   0.824   4.173
  216TIP3    H1  654   3.328   0.912   4.136
  216TIP3    H2  655   3.310   0.766   4.097
  217TIP3   OH2  656   4.530   4.944   0.564
  217TIP3    H1  657   4.513   4.914   0.654
  217TIP3    H2  658   4.587   4.876   0.527
  218TIP3   OH2  659   0.870   0.945   3.718
  218TIP3    H1  660   0.882   0.879   3.786
  218TIP3    H2  661   0.953   0.945   3.670
  219TIP3   OH2  662   1.064   2.382   0.794
  219TIP3    H1  663   1.130   2.376   0.863
  219TIP3    H2  664   0.981   2.368   0.838
  220TIP3   OH2  665   1.687   3.288   1.561
  220TIP3    H1  666   1.610   3.265   1.509
  220TIP3    H2  667   1.760   3.285   1.498
  221TIP3   OH2  668   5.790   0.739   3.865
  221TIP3    H1  669   5.717   0.796   3.890
  221TIP3    H2  670   5.759   0.695   3.786
  222TIP3   OH2  671   4.299   3.917   2.108
  222TIP3    H1  672   4.213   3.948   2.081
  222TIP3    H2  673   4.283   3.874   2.192
  223TIP3   OH2  674   2.893   3.714   2.645
  223TIP3    H1  675   2.884   3.698   2.551
  223TIP3    H2  676   2.915   3.629   2.682
  224TIP3   OH2  677   1.342   5.607   4.463
  224TIP3    H1  678   1.433   5.623   4.438
  224TIP3    H2  679   1.303   5.694   4.471
  225TIP3   OH2  680   6.012   3.702   1.757
  225TIP3    H1  681   6.002   3.776   1.697
  225TIP3    H2  682   6.105   3.700   1.777
  226TIP3   OH2  683   4.656   0.200   5.153
  226TIP3    H1  684   4.640   0.158   5.068
  226TIP3    H2  685   4.577   0.250   5.170
  227TIP3   OH2  686   2.684   2.992   4.493
  227TIP3    H1  687   2.769   3.017   4.531
  227TIP3    H2  688   2.682   3.035   4.408
  228TIP3   OH2  689   6.115   5.919   4.680
  228TIP3    H1  690   6.027   5.884   4.664
  228TIP3    H2  691   6.114   5.946   4.771
  229TIP3   OH2  692   1.763   4.669   3.801
  229TIP3    H1  693   1.739   4.645   3.711
  229TIP3    H2  694   1.851   4.706   3.793
  230TIP3   OH2  695   4.637   5.289   2.617
  230TIP3    H1  696   4.588   5.209   2.600
  230TIP3    H2  697   4.596   5.356   2.562
  231TIP3   OH2  698   0.666   2.961   1.321
  231TIP3    H1  699   0.603   2.996   1.259
  231TIP3    H2  700   0.614   2.931   1.395
  232TIP3   OH2  701   3.913   3.350   2.836
  232TIP3    H1  702   3.871   3.286   2.894
  232TIP3    H2  703   3.860   3.348   2.757
  233TIP3   OH2  704   5.999   5.193   2.598
  233TIP3    H1  705   5.999   5.237   2.513
  233TIP3    H2  706   5.907   5.192   2.625
  234TIP3   OH2  707   0.848   3.918   5.003
  234TIP3    H1  708   0.876   3.938   5.092
  234TIP3    H2  709   0.904   3.845   4.976
  235TIP3   OH2  710   1.855   5.675   1.111
  235TIP3    H1  711   1.793   5.744   1.133
  235TIP3    H2  712   1.803   5.595   1.107
  236TIP3   OH2  713   4.672   2.641   3.156
  236TIP3    H1  714   4.728   2.670   3.085
  236TIP3    H2  715   4.585   2.635   3.118
  237TIP3   OH2  716   3.693   1.680   2.400
  237TIP3    H1  717   3.685   1.612   2.467
  237TIP3    H2  718   3.719   1.633   2.321
  238TIP3   OH2  719   0.233   3.920   4.710
  238TIP3    H1  720   0.205   3.890   4.623
  238TIP3    H2  721   0.208   3.849   4.769
  239TIP3   OH2  722   2.447   0.304   3.059
  239TIP3    H1  723   2.483   0.257   3.135
  239TIP3    H2  724   2.379   0.246   3.024
  240TIP3   OH2  725   5.858   1.629   2.576
  240TIP3    H1  726   5.765   1.626   2.601
  240TIP3    H2  727   5.885   1.537   2.578
  241TIP3   OH2  728   0.713   1.318   5.108
  241TIP3    H1  729   0.785   1.282   5.160
  241TIP3    H2  730   0.649   1.247   5.104
  242TIP3   OH2  731   4.309   5.813   4.557
  242TIP3    H1  732   4.218   5.784   4.564
  242TIP3    H2  733   4.328   5.854   4.642
  243TIP3   OH2  734   2.158   5.494   4.338
  243TIP3    H1  735   2.200   5.576   4.314
  243TIP3    H2  736   2.228   5.429   4.336
  244TIP3   OH2  737   5.413   2.573   0.645
  244TIP3    H1  738   5.340   2.588   0.586
  244TIP3    H2  739   5.468   2.509   0.600
  245TIP3   OH2  740   1.637   5.491   1.127
  245TIP3    H1  741   1.587   5.491   1.045
  245TIP3    H2  742   1.632   5.401   1.159
  246TIP3   OH2  743   1.664   5.897   4.935
  246TIP3    H1  744   1.603   5.845   4.988
  246TIP3    H2  745   1.746   5.848   4.938
  247TIP3   OH2  746   3.783   4.891   2.076
  247TIP3    H1  747   3.689   4.900   2.094
  247TIP3    H2  748   3.800   4.949   2.002
  248TIP3   OH2  749   2.570   0.259   2.798
  248TIP3    H1  750   2.512   0.334   2.811
  248TIP3    H2  751   2.593   0.230   2.886
  249TIP3   OH2  752   2.206   2.656   0.988
  249TIP3    H1  753   2.242   2.685   1.072
  249TIP3    H2  754   2.227   2.728   0.927
  250TIP3   OH2  755   0.426   4.492   2.159
  250TIP3    H1  756   0.475   4.422   2.202
  250TIP3    H2  757   0.493   4.555   2.133
  251TIP3   OH2  758   3.593   1.707   4.161
  251TIP3    H1  759   3.556   1.647   4.226
  251TIP3    H2  760   3.589   1.793   4.203
  252TIP3   OH2  761   5.544   4.996   3.652
  252TIP3    H1  762   5.552   4.957   3.566
  252TIP3    H2  763   5.633   4.995   3.687
  253TIP3   OH2  764   0.944   5.537   4.334
  253TIP3    H1  765   0.906   5.625   4.334
  253TIP3    H2  766   0.957   5.517   4.426
  254TIP3   OH2  767   2.323   3.070   1.279
  254TIP3    H1  768   2.341   3.164   1.287
  254TIP3    H2  769   2.307   3.041   1.369
  255TIP3   OH2  770   0.213   1.229   5.095
  255TIP3    H1  771   0.282   1.215   5.161
  255TIP3    H2  772   0.139   1.264   5.145
  256TIP3   OH2  773   0.276   0.977   0.382
  256TIP3    H1  774   0.363   1.013   0.399
  256TIP3    H2  775   0.262   0.992   0.289
  257TIP3   OH2  776   0.040   4.306   5.044
  257TIP3    H1  777   0.044   4.231   5.102
  257TIP3    H2  778  -0.053   4.324   5.033
  258TIP3   OH2  779   0.175   3.943   0.925
  258TIP3    H1  780   0.150   3.996   0.850
  258TIP3    H2  781   0.221   4.005   0.983
  259TIP3   OH2  782   5.992   4.895   4.225
  259TIP3    H1  783   6.063   4.947   4.263
  259TIP3    H2  784   6.004   4.904   4.131
  260TIP3   OH2  785   2.505   4.470   2.056
  260TIP3    H1  786   2.499   4.388   2.007
  260TIP3    H2  787   2.423   4.515   2.036
  261TIP3   OH2  788   1.535   3.466   3.148
  261TIP3    H1  789   1.586   3.506   3.078
  261TIP3    H2  790   1.467   3.416   3.102
  262TIP3   OH2  791   3.374   4.617   0.788
  262TIP3    H1  792   3.424   4.558   0.844
  262TIP3    H2  793   3.314   4.560   0.740
  263TIP3   OH2  794   5.917   1.362   1.360
  263TIP3    H1  795   5.955   1.450   1.357
  263TIP3    H2  796   5.953   1.318   1.282
  264TIP3   OH2  797   4.149   1.752   0.596
  264TIP3    H1  798   4.167   1.791   0.510
  264TIP3    H2  799   4.078   1.806   0.631
  265TIP3   OH2  800   3.757   1.033   0.673
  265TIP3    H1  801   3.668   1.040   0.638
  265TIP3    H2  802   3.813   1.062   0.602
  266TIP3   OH2  803   5.053   1.088   4.947
  266TIP3    H1  804   5.034   1.172   4.990
  266TIP3    H2  805   5.128   1.053   4.995
  267TIP3   OH2  806   3.420   2.632   4.445
  267TIP3    H1  807   3.503   2.627   4.399
  267TIP3    H2  808   3.354   2.628   4.376
  268TIP3   OH2  809   3.547   0.105   1.426
  268TIP3    H1  810   3.537   0.122   1.333
  268TIP3    H2  811   3.642   0.099   1.440
  269TIP3   OH2  812   5.227   1.282   1.224
  269TIP3    H1  813   5.222   1.333   1.304
  269TIP3    H2  814   5.208   1.192   1.251
  270TIP3   OH2  815   2.023   4.595   2.463
  270TIP3    H1  816   2.050   4.680   2.427
  270TIP3    H2  817   2.089   4.534   2.432
  271TIP3   OH2  818   1.561   2.623   2.640
  271TIP3    H1  819   1.574   2.691   2.574
  271TIP3    H2  820   1.473   2.639   2.674
  272TIP3   OH2  821   5.476   5.518   2.119
  272TIP3    H1  822   5.545   5.523   2.053
  272TIP3    H2  823   5.473   5.426   2.145
  273TIP3   OH2  824   4.563   4.422   1.559
  273TIP3    H1  825   4.587   4.410   1.651
  273TIP3    H2  826   4.647   4.438   1.515
  274TIP3   OH2  827   2.287   4.127   1.586
  274TIP3    H1  828   2.231   4.125   1.509
  274TIP3    H2  829   2.235   4.172   1.653
  275TIP3   OH2  830   1.917   2.367   3.174
  275TIP3    H1  831   1.845   2.347   3.113
  275TIP3    H2  832   1.915   2.296   3.237
  276TIP3   OH2  833   2.754   0.772   1.588
  276TIP3    H1  834   2.675   0.816   1.619
  276TIP3    H2  835   2.729   0.681   1.579
  277TIP3   OH2  836   0.390   5.968   2.021
  277TIP3    H1  837   0.323   5.902   2.039
  277TIP3    H2  838   0.388   5.979   1.926
  278TIP3   OH2  839   5.887   4.129   3.613
  278TIP3    H1  840   5.820   4.187   3.648
  278TIP3    H2  841   5.862   4.042   3.644
  279TIP3   OH2  842   2.326   1.430   1.112
  279TIP3    H1  843   2.330   1.406   1.204
  279TIP3    H2  844   2.295   1.521   1.112
  280TIP3   OH2  845   3.717   1.024   3.481
  280TIP3    H1  846   3.692   1.018   3.574
  280TIP3    H2  847   3.759   0.940   3.463
  281TIP3   OH2  848   0.072   0.631   3.775
  281TIP3    H1  849   0.001   0.650   3.714
  281TIP3    H2  850   0.102   0.717   3.805
  282TIP3   OH2  851   5.694   5.446   2.498
  282TIP3    H1  852   5.658   5.524   2.456
  282TIP3    H2  853   5.745   5.403   2.429
  283TIP3   OH2  854   1.246   1.610   0.249
  283TIP3    H1  855   1.269   1.547   0.181
  283TIP3    H2  856   1.325   1.620   0.302
  284TIP3   OH2  857   3.232   3.355   1.155
  284TIP3    H1  858   3.268   3.312   1.232
  284TIP3    H2  859   3.164   3.413   1.190
  285TIP3   OH2  860   4.255   0.217   3.746
  285TIP3    H1  861   4.209   0.237   3.827
  285TIP3    H2  862   4.283   0.303   3.713
  286TIP3   OH2  863   3.938   1.909   3.830
  286TIP3    H1  864   3.910   1.882   3.918
  286TIP3    H2  865   3.972   1.829   3.790
  287TIP3   OH2  866   6.102   2.301   1.068
  287TIP3    H1  867   6.017   2.335   1.096
  287TIP3    H2  868   6.120   2.229   1.129
  288TIP3   OH2  869   3.244   5.184   5.105
  288TIP3    H1  870   3.300   5.144   5.172
  288TIP3    H2  871   3.277   5.274   5.098
  289TIP3   OH2  872   5.897   3.090   2.907
  289TIP3    H1  873   5.957   3.152   2.950
  289TIP3    H2  874   5.827   3.076   2.971
  290TIP3   OH2  875   1.591   5.798   3.226
  290TIP3    H1  876   1.583   5.776   3.133
  290TIP3    H2  877   1.598   5.894   3.227
  291TIP3   OH2  878   2.110   1.861   2.687
  291TIP3    H1  879   2.199   1.898   2.687
  291TIP3    H2  880   2.095   1.835   2.778
  292TIP3   OH2  881   4.747   5.564   3.044
  292TIP3    H1  882   4.839   5.539   3.044
  292TIP3    H2  883   4.704   5.500   2.987
  293TIP3   OH2  884   0.645   3.841   2.144
  293TIP3    H1  885   0.688   3.777   2.200
  293TIP3    H2  886   0.692   3.923   2.159
  294TIP3   OH2  887   3.772   4.954   0.841
  294TIP3    H1  888   3.736   4.912   0.763
  294TIP3    H2  889   3.862   4.921   0.846
  295TIP3   OH2  890   3.396   1.243   4.810
  295TIP3    H1  891   3.329   1.181   4.839
  295TIP3    H2  892   3.445   1.195   4.743
  296TIP3   OH2  893   6.176   0.951   0.081
  296TIP3    H1  894   6.091   0.909   0.090
  296TIP3    H2  895   6.231   0.910   0.147
  297TIP3   OH2  896   1.419   3.616   4.485
  297TIP3    H1  897   1.410   3.521   4.479
  297TIP3    H2  898   1.422   3.633   4.580
  298TIP3   OH2  899   3.660   4.108   2.050
  298TIP3    H1  900   3.663   4.136   1.959
  298TIP3    H2  901   3.745   4.133   2.086
  299TIP3   OH2  902   4.763   0.552   0.439
  299TIP3    H1  903   4.753   0.496   0.362
  299TIP3    H2  904   4.777   0.640   0.402
  300TIP3   OH2  905   5.627   3.607   1.633
  300TIP3    H1  906   5.579   3.525   1.619
  300TIP3    H2  907   5.563   3.676   1.614
  301TIP3   OH2  908   3.008   5.047   4.655
  301TIP3    H1  909   3.019   5.016   4.744
  301TIP3    H2  910   3.003   4.967   4.602
  302TIP3   OH2  911   1.309   2.737   4.365
  302TIP3    H1  912   1.318   2.816   4.418
  302TIP3    H2  913   1.301   2.769   4.275
  303TIP3   OH2  914   1.200   5.082   4.970
  303TIP3    H1  915   1.172   5.001   4.926
  303TIP3    H2  916   1.281   5.106   4.926
  304TIP3   OH2  917   3.365   0.598   1.768
  304TIP3    H1  918   3.274   0.568   1.773
  304TIP3    H2  919   3.404   0.541   1.702
  305TIP3   OH2  920   4.362   5.789   3.655
  305TIP3    H1  921   4.327   5.878   3.658
  305TIP3    H2  922   4.375   5.772   3.562
  306TIP3   OH2  923   0.938   0.883   1.808
  306TIP3    H1  924   0.949   0.967   1.852
  306TIP3    H2  925   0.931   0.906   1.715
  307TIP3   OH2  926   5.501   4.632   0.551
  307TIP3    H1  927   5.533   4.577   0.480
  307TIP3    H2  928   5.462   4.571   0.613
  308TIP3   OH2  929   1.257   0.445   2.187
  308TIP3    H1  930   1.310   0.407   2.257
  308TIP3    H2  931   1.241   0.535   2.215
  309TIP3   OH2  932   0.919   3.138   4.140
  309TIP3    H1  933   0.883   3.225   4.153
  309TIP3    H2  934   0.843   3.080   4.137
  310TIP3   OH2  935   0.940   4.472   3.279
  310TIP3    H1  936   0.960   4.538   3.345
  310TIP3    H2  937   0.889   4.519   3.213
  311TIP3   OH2  938   2.926   1.412   1.632
  311TIP3    H1  939   3.021   1.409   1.626
  311TIP3    H2  940   2.896   1.378   1.547
  312TIP3   OH2  941   3.443   0.864   4.675
  312TIP3    H1  942   3.452   0.776   4.639
  312TIP3    H2  943   3.368   0.859   4.735
  313TIP3   OH2  944   3.798   4.545   5.178
  313TIP3    H1  945   3.885   4.585   5.181
  313TIP3    H2  946   3.750   4.597   5.114
  314TIP3   OH2  947   4.647   5.751   3.397
  314TIP3    H1  948   4.593   5.674   3.384
  314TIP3    H2  949   4.610   5.817   3.339
  315TIP3   OH2  950   5.722   1.085   0.748
  315TIP3    H1  951   5.627   1.078   0.734
  315TIP3    H2  952   5.753   0.995   0.739
  316TIP3   OH2  953   1.273   4.211   3.196
  316TIP3    H1  954   1.346   4.148   3.194
  316TIP3    H2  955   1.279   4.253   3.282
  317TIP3   OH2  956   1.984   5.033   3.612
  317TIP3    H1  957   2.064   5.081   3.633
  317TIP3    H2  958   1.925   5.053   3.684
  318TIP3   OH2  959   0.076   2.036   2.594
  318TIP3    H1  960   0.153   2.046   2.650
  318TIP3    H2  961   0.059   1.942   2.593
  319TIP3   OH2  962   2.993   2.192   5.128
  319TIP3    H1  963   2.909   2.150   5.142
  319TIP3    H2  964   3.006   2.248   5.205
  320TIP3   OH2  965   4.230   5.482   4.635
  320TIP3    H1  966   4.190   5.545   4.576
  320TIP3    H2  967   4.162   5.465   4.700
  321TIP3   OH2  968   5.082   1.148   3.469
  321TIP3    H1  969   5.035   1.223   3.506
  321TIP3    H2  970   5.168   1.152   3.512
  322TIP3   OH2  971   5.868   0.513   3.440
  322TIP3    H1  972   5.804   0.555   3.382
  322TIP3    H2  973   5.948   0.508   3.388
  323TIP3   OH2  974   1.845   4.041   0.840
  323TIP3    H1  975   1.761   3.997   0.846
  323TIP3    H2  976   1.827   4.132   0.864
  324TIP3   OH2  977   1.955   3.716   4.418
  324TIP3    H1  978   1.895   3.643   4.408
  324TIP3    H2  979   2.036   3.686   4.377
  325TIP3   OH2  980   3.021   2.006   3.775
  325TIP3    H1  981   2.952   2.052   3.823
  325TIP3    H2  982   3.078   1.971   3.843
  326TIP3   OH2  983   5.249   1.964   4.038
  326TIP3    H1  984   5.171   1.908   4.036
  326TIP3    H2  985   5.262   1.984   4.130
  327TIP3   OH2  986   1.344   0.940   2.827
  327TIP3    H1  987   1.406   1.013   2.823
  327TIP3    H2  988   1.395   0.868   2.863
  328TIP3   OH2  989   0.853   5.467   1.369
  328TIP3    H1  990   0.812   5.400   1.313
  328TIP3    H2  991   0.945   5.468   1.342
  329TIP3   OH2  992   0.523   1.213   3.540
  329TIP3    H1  993   0.488   1.172   3.619
  329TIP3    H2  994   0.499   1.305   3.547
  330TIP3   OH2  995   5.553   2.140   0.662
  330TIP3    H1  996   5.586   2.067   0.714
  330TIP3    H2  997   5.534   2.208   0.727
  331TIP3   OH2  998   2.805   4.025   0.634
  331TIP3    H1  999   2.817   3.952   0.695
  331TIP3    H2 1000   2.774   4.097   0.689
  332TIP3   OH2 1001   4.288   1.810   4.553
  332TIP3    H1 1002   4.262   1.847   4.469
  332TIP3    H2 1003   4.208   1.810   4.605
  333TIP3   OH2 1004   2.212   4.488   5.148
  333TIP3    H1 1005   2.252   4.536   5.221
  333TIP3    H2 1006   2.248   4.529   5.070
  334TIP3   OH2 1007   0.683   1.063   2.631
  334TIP3    H1 1008   0.740   0.988   2.617
  334TIP3    H2 1009   0.742   1.135   2.651
  335TIP3   OH2 1010   3.596   1.790   0.069
  335TIP3    H1 1011   3.599   1.738  -0.012
  335TIP3    H2 1012   3.635   1.734   0.135
  336TIP3   OH2 1013   4.835   2.453   2.654
  336TIP3    H1 1014   4.818   2.453   2.560
  336TIP3    H2 1015   4.765   2.506   2.691
  337TIP3   OH2 1016   3.117   4.208   4.252
  337TIP3    H1 1017   3.100   4.164   4.336
  337TIP3    H2 1018   3.050   4.175   4.193
  338TIP3   OH2 1019   5.138   0.626   3.454
  338TIP3    H1 1020   5.054   0.659   3.484
  338TIP3    H2 1021   5.116   0.564   3.384
  339TIP3   OH2 1022   5.220   4.555   3.787
  339TIP3    H1 1023   5.185   4.476   3.828
  339TIP3    H2 1024   5.164   4.625   3.819
  340TIP3   OH2 1025   2.720   4.543   2.294
  340TIP3    H1 1026   2.631   4.558   2.326
  340TIP3    H2 1027   2.715   4.462   2.243
  341TIP3   OH2 1028   3.694   2.625   4.318
  341TIP3    H1 1029   3.628   2.567   4.280
  341TIP3    H2 1030   3.766   2.624   4.255
  342TIP3   OH2 1031   1.727   5.000   4.037
  342TIP3    H1 1032   1.764   4.914   4.013
  342TIP3    H2 1033   1.715   4.994   4.132
  343TIP3   OH2 1034   1.092   0.055   3.952
  343TIP3    H1 1035   1.175   0.061   3.904
  343TIP3    H2 1036   1.039  -0.006   3.901
  344TIP3   OH2 1037   2.124   3.004   4.496
  344TIP3    H1 1038   2.217   3.010   4.473
  344TIP3    H2 1039   2.083   2.963   4.420
  345TIP3   OH2 1040   6.009   1.055   1.220
  345TIP3    H1 1041   5.980   0.964   1.213
  345TIP3    H2 1042   6.045   1.062   1.309
  346TIP3   OH2 1043   0.675   5.306   4.821
  346TIP3    H1 1044   0.613   5.379   4.824
  346TIP3    H2 1045   0.738   5.331   4.753
  347TIP3   OH2 1046   1.008   5.782   4.728
  347TIP3    H1 1047   1.049   5.867   4.712
  347TIP3    H2 1048   1.030   5.761   4.818
  348TIP3   OH2 1049   4.720   3.687   1.377
  348TIP3    H1 1050   4.660   3.698   1.303
  348TIP3    H2 1051   4.760   3.601   1.362
  349TIP3   OH2 1052   3.489   5.542   3.318
  349TIP3    H1 1053   3.422   5.503   3.375
  349TIP3    H2 1054   3.478   5.636   3.330
  350TIP3   OH2 1055   4.027   2.417   4.416
  350TIP3    H1 1056   4.079   2.472   4.358
  350TIP3    H2 1057   3.939   2.417   4.379
  351TIP3   OH2 1058   1.093   3.488   0.889
  351TIP3    H1 1059   1.187   3.471   0.880
  351TIP3    H2 1060   1.056   3.404   0.916
  352TIP3   OH2 1061   4.043   0.837   1.473
  352TIP3    H1 1062   3.999   0.761   1.510
  352TIP3    H2 1063   4.047   0.820   1.379
  353TIP3   OH2 1064   4.746   3.091   4.686
  353TIP3    H1 1065   4.740   3.168   4.629
  353TIP3    H2 1066   4.734   3.125   4.774
  354TIP3   OH2 1067   3.029   3.638   2.049
  354TIP3    H1 1068   3.070   3.722   2.072
  354TIP3    H2 1069   2.989   3.654   1.964
  355TIP3   OH2 1070   2.900   3.160   3.754
  355TIP3    H1 1071   2.909   3.250   3.783
  355TIP3    H2 1072   2.987   3.136   3.721
  356TIP3   OH2 1073   1.291   3.531   4.872
  356TIP3    H1 1074   1.372   3.521   4.821
  356TIP3    H2 1075   1.321   3.545   4.962
  357TIP3   OH2 1076   1.090   5.499   1.224
  357TIP3    H1 1077   1.064   5.576   1.173
  357TIP3    H2 1078   1.136   5.443   1.162
  358TIP3   OH2 1079   6.109   0.694   2.461
  358TIP3    H1 1080   6.112   0.692   2.366
  358TIP3    H2 1081   6.198   0.674   2.489
  359TIP3   OH2 1082   4.492   1.139   4.351
  359TIP3    H1 1083   4.431   1.199   4.394
  359TIP3    H2 1084   4.547   1.195   4.296
  360TIP3   OH2 1085   3.062   4.063   4.495
  360TIP3    H1 1086   2.978   4.041   4.535
  360TIP3    H2 1087   3.118   3.987   4.514
  361TIP3   OH2 1088   1.408   3.806   3.039
  361TIP3    H1 1089   1.391   3.890   3.081
  361TIP3    H2 1090   1.322   3.762   3.036
  362TIP3   OH2 1091   4.286   0.757   2.382
  362TIP3    H1 1092   4.207   0.746   2.434
  362TIP3    H2 1093   4.256   0.796   2.300
  363TIP3   OH2 1094   0.811   2.229   0.871
  363TIP3    H1 1095   0.736   2.287   0.882
  363TIP3    H2 1096   0.785   2.169   0.801
  364TIP3   OH2 1097   5.172   5.309   2.421
  364TIP3    H1 1098   5.100   5.267   2.469
  364TIP3    H2 1099   5.141   5.398   2.404
  365TIP3   OH2 1100   0.105   3.755   2.776
  365TIP3    H1 1101   0.115   3.693   2.848
  365TIP3    H2 1102   0.169   3.727   2.711
  366TIP3   OH2 1103   0.702   5.905   5.004
  366TIP3    H1 1104   0.708   5.818   4.965
  366TIP3    H2 1105   0.630   5.948   4.957
  367TIP3   OH2 1106   5.538   4.932   2.518
  367TIP3    H1 1107   5.483   4.869   2.473
  367TIP3    H2 1108   5.492   5.015   2.510
  368TIP3   OH2 1109   4.361   4.506   1.913
  368TIP3    H1 1110   4.413   4.558   1.853
  368TIP3    H2 1111   4.312   4.445   1.857
  369TIP3   OH2 1112   5.508   3.106   3.308
  369TIP3    H1 1113   5.512   3.200   3.327
  369TIP3    H2 1114   5.416   3.090   3.288
  370TIP3   OH2 1115   5.764   5.414   3.874
  370TIP3    H1 1116   5.742   5.458   3.956
  370TIP3    H2 1117   5.781   5.485   3.813
  371TIP3   OH2 1118   0.633   0.735   0.156
  371TIP3    H1 1119   0.557   0.722   0.212
  371TIP3    H2 1120   0.695   0.783   0.209
  372TIP3   OH2 1121   5.695   3.522   2.137
  372TIP3    H1 1122   5.606   3.559   2.134
  372TIP3    H2 1123   5.739   3.573   2.204
  373TIP3   OH2 1124   5.520   5.648   2.351
  373TIP3    H1 1125   5.520   5.581   2.283
  373TIP3    H2 1126   5.455   5.712   2.322
  374TIP3   OH2 1127   4.002   1.861   2.151
  374TIP3    H1 1128   4.087   1.903   2.136
  374TIP3    H2 1129   3.999   1.789   2.089
  375TIP3   OH2 1130   4.941   1.027   4.704
  375TIP3    H1 1131   4.951   1.012   4.798
  375TIP3    H2 1132   4.891   1.109   4.698
  376TIP3   OH2 1133   3.444   0.402   3.766
  376TIP3    H1 1134   3.363   0.386   3.716
  376TIP3    H2 1135   3.513   0.366   3.711
  377TIP3   OH2 1136   3.091   1.854   3.055
  377TIP3    H1 1137   3.025   1.922   3.044
  377TIP3    H2 1138   3.056   1.778   3.007
  378TIP3   OH2 1139   4.571   1.917   4.525
  378TIP3    H1 1140   4.542   2.005   4.499
  378TIP3    H2 1141   4.493   1.862   4.514
  379TIP3   OH2 1142   4.105   4.024   1.207
  379TIP3    H1 1143   4.058   4.102   1.178
  379TIP3    H2 1144   4.116   4.037   1.302
  380TIP3   OH2 1145   1.398   0.713   2.236
  380TIP3    H1 1146   1.438   0.800   2.233
  380TIP3    H2 1147   1.431   0.668   2.159
  381TIP3   OH2 1148   0.235   0.081   2.763
  381TIP3    H1 1149   0.268   0.092   2.852
  381TIP3    H2 1150   0.180   0.158   2.748
  382TIP3   OH2 1151   0.558   3.328   1.060
  382TIP3    H1 1152   0.615   3.390   1.014
  382TIP3    H2 1153   0.479   3.325   1.006
  383TIP3   OH2 1154   3.853   1.926   0.063
  383TIP3    H1 1155   3.798   1.991   0.107
  383TIP3    H2 1156   3.807   1.907  -0.018
  384TIP3   OH2 1157   2.651   0.448   0.069
  384TIP3    H1 1158   2.651   0.507  -0.006
  384TIP3    H2 1159   2.593   0.489   0.133
  385TIP3   OH2 1160   3.138   1.385   4.307
  385TIP3    H1 1161   3.054   1.343   4.327
  385TIP3    H2 1162   3.141   1.461   4.364
  386TIP3   OH2 1163   0.586   0.530   1.453
  386TIP3    H1 1164   0.495   0.509   1.476
  386TIP3    H2 1165   0.606   0.472   1.380
  387TIP3   OH2 1166   5.538   1.508   4.767
  387TIP3    H1 1167   5.591   1.563   4.825
  387TIP3    H2 1168   5.498   1.443   4.825
  388TIP3   OH2 1169   4.736   1.094   3.256
  388TIP3    H1 1170   4.654   1.050   3.232
  388TIP3    H2 1171   4.800   1.059   3.193
  389TIP3   OH2 1172   4.235   2.793   1.605
  389TIP3    H1 1173   4.150   2.837   1.600
  389TIP3    H2 1174   4.290   2.841   1.543
  390TIP3   OH2 1175   4.405   3.341   5.115
  390TIP3    H1 1176   4.365   3.254   5.116
  390TIP3    H2 1177   4.487   3.329   5.068
  391TIP3   OH2 1178   6.174   2.161   1.625
  391TIP3    H1 1179   6.160   2.180   1.718
  391TIP3    H2 1180   6.086   2.155   1.588
  392TIP3   OH2 1181   2.760   3.103   1.911
  392TIP3    H1 1182   2.759   3.186   1.959
  392TIP3    H2 1183   2.694   3.114   1.843
  393TIP3   OH2 1184  -0.011   2.023   3.734
  393TIP3    H1 1185   0.040   1.943   3.747
  393TIP3    H2 1186   0.005   2.046   3.643
  394TIP3   OH2 1187   2.837   1.836   0.736
  394TIP3    H1 1188   2.851   1.767   0.800
  394TIP3    H2 1189   2.785   1.902   0.782
  395TIP3   OH2 1190   2.417   4.315   3.219
  395TIP3    H1 1191   2.410   4.286   3.128
  395TIP3    H2 1192   2.451   4.239   3.267
  396TIP3   OH2 1193   1.040   3.565   1.877
  396TIP3    H1 1194   0.962   3.603   1.836
  396TIP3    H2 1195   1.091   3.641   1.905
  397TIP3   OH2 1196   1.800   2.255   1.493
  397TIP3    H1 1197   1.840   2.334   1.458
  397TIP3    H2 1198   1.717   2.246   1.446
  398TIP3   OH2 1199   4.161   4.895   0.250
  398TIP3    H1 1200   4.185   4.865   0.162
  398TIP3    H2 1201   4.111   4.975   0.235
  399TIP3   OH2 1202   4.539   1.967   0.532
  399TIP3    H1 1203   4.592   2.026   0.478
  399TIP3    H2 1204   4.595   1.945   0.606
  400TIP3   OH2 1205   6.194   2.170   3.306
  400TIP3    H1 1206   6.120   2.112   3.325
  400TIP3    H2 1207   6.165   2.221   3.230
  401TIP3   OH2 1208   4.421   5.609   0.814
  401TIP3    H1 1209   4.412   5.699   0.847
  401TIP3    H2 1210   4.391   5.614   0.724
  402TIP3   OH2 1211   3.309   0.552   4.020
  402TIP3    H1 1212   3.343   0.599   3.945
  402TIP3    H2 1213   3.299   0.462   3.989
  403TIP3   OH2 1214   4.442   2.130   0.158
  403TIP3    H1 1215   4.371   2.076   0.192
  403TIP3    H2 1216   4.507   2.067   0.126
  404TIP3   OH2 1217   5.156   1.039   1.299
  404TIP3    H1 1218   5.230   0.989   1.334
  404TIP3    H2 1219   5.123   0.985   1.227
  405TIP3   OH2 1220   3.238   0.423   4.733
  405TIP3    H1 1221   3.305   0.489   4.715
  405TIP3    H2 1222   3.222   0.430   4.827
  406TIP3   OH2 1223   1.209   3.565   3.062
  406TIP3    H1 1224   1.125   3.531   3.032
  406TIP3    H2 1225   1.273   3.500   3.031
  407TIP3   OH2 1226   2.105   1.528   1.478
  407TIP3    H1 1227   2.082   1.571   1.395
  407TIP3    H2 1228   2.028   1.542   1.534
  408TIP3   OH2 1229   0.722   1.340   2.202
  408TIP3    H1 1230   0.651   1.403   2.215
  408TIP3    H2 1231   0.798   1.380   2.244
  409TIP3   OH2 1232   2.688   0.616   2.535
  409TIP3    H1 1233   2.765   0.597   2.590
  409TIP3    H2 1234   2.615   0.576   2.582
  410TIP3   OH2 1235   2.918   3.564   1.482
  410TIP3    H1 1236   2.916   3.469   1.488
  410TIP3    H2 1237   2.829   3.588   1.453
  411TIP3   OH2 1238   2.219   3.250   4.801
  411TIP3    H1 1239   2.269   3.169   4.806
  411TIP3    H2 1240   2.258   3.298   4.729
  412TIP3   OH2 1241   5.422   3.770   1.153
  412TIP3    H1 1242   5.425   3.723   1.237
  412TIP3    H2 1243   5.502   3.823   1.152
  413TIP3   OH2 1244   5.816   5.005   1.793
  413TIP3    H1 1245   5.824   4.929   1.850
  413TIP3    H2 1246   5.776   4.971   1.713
  414TIP3   OH2 1247   5.177   5.235   2.152
  414TIP3    H1 1248   5.270   5.218   2.139
  414TIP3    H2 1249   5.168   5.248   2.246
  415TIP3   OH2 1250   0.116   0.872   1.556
  415TIP3    H1 1251   0.137   0.805   1.622
  415TIP3    H2 1252   0.169   0.948   1.581
  416TIP3   OH2 1253   0.189   5.798   2.043
  416TIP3    H1 1254   0.127   5.802   2.116
  416TIP3    H2 1255   0.187   5.706   2.015
  417TIP3   OH2 1256   3.795   5.401   1.451
  417TIP3    H1 1257   3.726   5.447   1.499
  417TIP3    H2 1258   3.817   5.460   1.379
  418TIP3   OH2 1259   4.050   2.964   0.010
  418TIP3    H1 1260   4.091   2.887   0.050
  418TIP3    H2 1261   3.993   2.999   0.079
  419TIP3   OH2 1262   0.044   4.300   3.425
  419TIP3    H1 1263   0.124   4.349   3.408
  419TIP3    H2 1264   0.011   4.336   3.508
  420TIP3   OH2 1265   0.316   0.675   3.954
  420TIP3    H1 1266   0.316   0.598   3.897
  420TIP3    H2 1267   0.278   0.745   3.900
  421TIP3   OH2 1268   5.012   4.376   0.016
  421TIP3    H1 1269   4.982   4.296  -0.026
  421TIP3    H2 1270   4.937   4.435   0.013
  422TIP3   OH2 1271   5.843   4.041   3.985
  422TIP3    H1 1272   5.829   4.101   4.059
  422TIP3    H2 1273   5.755   4.022   3.953
  423TIP3   OH2 1274   0.403   5.351   0.346
  423TIP3    H1 1275   0.375   5.427   0.397
  423TIP3    H2 1276   0.414   5.281   0.410
  424TIP3   OH2 1277   1.399   1.186   3.940
  424TIP3    H1 1278   1.421   1.279   3.934
  424TIP3    H2 1279   1.314   1.178   3.897
  425TIP3   OH2 1280   5.240   1.940   1.552
  425TIP3    H1 1281   5.289   1.858   1.563
  425TIP3    H2 1282   5.169   1.934   1.615
  426TIP3   OH2 1283   1.178   1.229   4.897
  426TIP3    H1 1284   1.210   1.306   4.944
  426TIP3    H2 1285   1.230   1.226   4.817
  427TIP3   OH2 1286   6.227   4.394   4.364
  427TIP3    H1 1287   6.215   4.383   4.270
  427TIP3    H2 1288   6.145   4.431   4.395
  428TIP3   OH2 1289   5.155   5.576   2.411
  428TIP3    H1 1290   5.095   5.638   2.452
  428TIP3    H2 1291   5.241   5.619   2.415
  429TIP3   OH2 1292   4.639   1.585   3.455
  429TIP3    H1 1293   4.571   1.558   3.393
  429TIP3    H2 1294   4.626   1.527   3.530
  430TIP3   OH2 1295   1.753   5.169   2.973
  430TIP3    H1 1296   1.836   5.186   2.928
  430TIP3    H2 1297   1.726   5.254   3.007
  431TIP3   OH2 1298   0.728   5.952   0.466
  431TIP3    H1 1299   0.656   5.890   0.481
  431TIP3    H2 1300   0.773   5.919   0.389
  432TIP3   OH2 1301   2.354   4.434   0.330
  432TIP3    H1 1302   2.273   4.441   0.279
  432TIP3    H2 1303   2.391   4.350   0.303
  433TIP3   OH2 1304   5.858   3.909   1.599
  433TIP3    H1 1305   5.784   3.896   1.541
  433TIP3    H2 1306   5.883   4.001   1.587
  434TIP3   OH2 1307   3.739   5.129   0.202
  434TIP3    H1 1308   3.645   5.127   0.218
  434TIP3    H2 1309   3.749   5.187   0.127
  435TIP3   OH2 1310   3.323   0.869   1.505
  435TIP3    H1 1311   3.366   0.799   1.455
  435TIP3    H2 1312   3.230   0.850   1.498
  436TIP3   OH2 1313   5.815   0.663   0.947
  436TIP3    H1 1314   5.737   0.626   0.905
  436TIP3    H2 1315   5.837   0.738   0.891
  437TIP3   OH2 1316   3.442   4.865   0.926
  437TIP3    H1 1317   3.484   4.939   0.882
  437TIP3    H2 1318   3.408   4.811   0.855
  438TIP3   OH2 1319   4.473   3.501   0.541
  438TIP3    H1 1320   4.540   3.441   0.574
  438TIP3    H2 1321   4.471   3.572   0.605
  439TIP3   OH2 1322   5.194   0.968   1.653
  439TIP3    H1 1323   5.254   1.040   1.672
  439TIP3    H2 1324   5.226   0.931   1.571
  440TIP3   OH2 1325   1.629   0.859   4.316
  440TIP3    H1 1326   1.587   0.776   4.339
  440TIP3    H2 1327   1.619   0.865   4.221
  441TIP3   OH2 1328   6.138   2.930   0.372
  441TIP3    H1 1329   6.216   2.874   0.373
  441TIP3    H2 1330   6.172   3.019   0.375
  442TIP3   OH2 1331   2.268   0.230   0.907
  442TIP3    H1 1332   2.279   0.310   0.855
  442TIP3    H2 1333   2.357   0.209   0.937
  443TIP3   OH2 1334   5.301   5.213   1.208
  443TIP3    H1 1335   5.339   5.292   1.247
  443TIP3    H2 1336   5.358   5.142   1.238
  444TIP3   OH2 1337   3.311   1.250   2.847
  444TIP3    H1 1338   3.277   1.162   2.835
  444TIP3    H2 1339   3.361   1.246   2.929
  445TIP3   OH2 1340   5.900   2.715   5.048
  445TIP3    H1 1341   5.847   2.661   4.989
  445TIP3    H2 1342   5.955   2.653   5.095
  446TIP3   OH2 1343   6.272   2.929   1.935
  446TIP3    H1 1344   6.186   2.936   1.975
  446TIP3    H2 1345   6.329   2.899   2.006
  447TIP3   OH2 1346   2.880   3.790   3.765
  447TIP3    H1 1347   2.882   3.883   3.745
  447TIP3    H2 1348   2.968   3.758   3.746
  448TIP3   OH2 1349   1.161   0.786   1.237
  448TIP3    H1 1350   1.212   0.737   1.302
  448TIP3    H2 1351   1.152   0.726   1.163
  449TIP3   OH2 1352   2.172   5.205   3.715
  449TIP3    H1 1353   2.148   5.272   3.651
  449TIP3    H2 1354   2.244   5.157   3.674
  450TIP3   OH2 1355   3.288   1.679   3.420
  450TIP3    H1 1356   3.318   1.763   3.384
  450TIP3    H2 1357   3.246   1.635   3.347
  451TIP3   OH2 1358   3.682   5.403   0.803
  451TIP3    H1 1359   3.733   5.354   0.739
  451TIP3    H2 1360   3.712   5.370   0.888
  452TIP3   OH2 1361   3.516   2.145   3.022
  452TIP3    H1 1362   3.512   2.100   2.938
  452TIP3    H2 1363   3.425   2.161   3.046
  453TIP3   OH2 1364   2.213   3.579   0.209
  453TIP3    H1 1365   2.292   3.616   0.248
  453TIP3    H2 1366   2.241   3.548   0.123
  454TIP3   OH2 1367   2.602   3.369   3.029
  454TIP3    H1 1368   2.686   3.328   3.009
  454TIP3    H2 1369   2.593   3.438   2.963
  455TIP3   OH2 1370   4.761   3.495   2.973
  455TIP3    H1 1371   4.806   3.501   3.057
  455TIP3    H2 1372   4.745   3.401   2.961
  456TIP3   OH2 1373   3.051   1.052   1.356
  456TIP3    H1 1374   2.960   1.040   1.330
  456TIP3    H2 1375   3.054   1.023   1.448
  457TIP3   OH2 1376   6.134   2.574   1.892
  457TIP3    H1 1377   6.214   2.557   1.942
  457TIP3    H2 1378   6.093   2.648   1.937
  458TIP3   OH2 1379   5.534   3.468   1.011
  458TIP3    H1 1380   5.495   3.478   0.924
  458TIP3    H2 1381   5.611   3.526   1.010
  459TIP3   OH2 1382   2.706   4.058   0.109
  459TIP3    H1 1383   2.694   3.969   0.142
  459TIP3    H2 1384   2.795   4.082   0.134
  460TIP3   OH2 1385   4.267   4.748   4.010
  460TIP3    H1 1386   4.206   4.821   4.003
  460TIP3    H2 1387   4.211   4.671   4.020
  461TIP3   OH2 1388   1.172   5.038   2.637
  461TIP3    H1 1389   1.132   5.017   2.722
  461TIP3    H2 1390   1.100   5.032   2.574
  462TIP3   OH2 1391   3.438   1.747   4.703
  462TIP3    H1 1392   3.425   1.740   4.609
  462TIP3    H2 1393   3.413   1.661   4.738
  463TIP3   OH2 1394   4.154   4.922   4.497
  463TIP3    H1 1395   4.154   5.004   4.448
  463TIP3    H2 1396   4.208   4.940   4.575
  464TIP3   OH2 1397   2.529   5.249   2.171
  464TIP3    H1 1398   2.476   5.171   2.153
  464TIP3    H2 1399   2.481   5.320   2.129
  465TIP3   OH2 1400   4.951   4.873   3.690
  465TIP3    H1 1401   4.896   4.944   3.655
  465TIP3    H2 1402   5.031   4.877   3.638
  466TIP3   OH2 1403   6.131   3.962   2.401
  466TIP3    H1 1404   6.148   3.894   2.466
  466TIP3    H2 1405   6.152   3.920   2.317
  467TIP3   OH2 1406   2.414   2.373   4.171
  467TIP3    H1 1407   2.414   2.344   4.080
  467TIP3    H2 1408   2.369   2.458   4.169
  468TIP3   OH2 1409   5.452   3.702   0.217
  468TIP3    H1 1410   5.398   3.682   0.293
  468TIP3    H2 1411   5.428   3.792   0.194
  469TIP3   OH2 1412   5.128   1.324   4.039
  469TIP3    H1 1413   5.170   1.254   4.088
  469TIP3    H2 1414   5.083   1.376   4.105
  470TIP3   OH2 1415   3.506   3.818   1.796
  470TIP3    H1 1416   3.499   3.775   1.881
  470TIP3    H2 1417   3.428   3.873   1.790
  471TIP3   OH2 1418   2.192   4.962   3.936
  471TIP3    H1 1419   2.200   5.057   3.942
  471TIP3    H2 1420   2.103   4.946   3.907
  472TIP3   OH2 1421   4.899   4.326   4.155
  472TIP3    H1 1422   4.957   4.360   4.223
  472TIP3    H2 1423   4.812   4.354   4.182
  473TIP3   OH2 1424   3.050   2.115   3.191
  473TIP3    H1 1425   3.027   2.037   3.241
  473TIP3    H2 1426   3.035   2.188   3.251
  474TIP3   OH2 1427   3.043   1.295   0.259
  474TIP3    H1 1428   3.065   1.387   0.250
  474TIP3    H2 1429   3.021   1.267   0.171
  475TIP3   OH2 1430   2.007   0.989   1.969
  475TIP3    H1 1431   1.960   1.070   1.990
  475TIP3    H2 1432   2.057   0.970   2.049
  476TIP3   OH2 1433   3.330   2.881   0.948
  476TIP3    H1 1434   3.410   2.833   0.968
  476TIP3    H2 1435   3.333   2.957   1.006
  477TIP3   OH2 1436   0.695   4.094   0.637
  477TIP3    H1 1437   0.625   4.034   0.661
  477TIP3    H2 1438   0.758   4.040   0.589
  478TIP3   OH2 1439   2.089   4.136   1.378
  478TIP3    H1 1440   2.078   4.143   1.283
  478TIP3    H2 1441   2.070   4.044   1.398
  479TIP3   OH2 1442   1.287   5.405   2.869
  479TIP3    H1 1443   1.205   5.455   2.868
  479TIP3    H2 1444   1.278   5.345   2.943
  480TIP3   OH2 1445   5.787   2.908   5.187
  480TIP3    H1 1446   5.852   2.978   5.187
  480TIP3    H2 1447   5.822   2.843   5.126
  481TIP3   OH2 1448   2.944   3.434   3.756
  481TIP3    H1 1449   2.897   3.495   3.700
  481TIP3    H2 1450   3.034   3.469   3.760
  482TIP3   OH2 1451   3.934   4.817   3.015
  482TIP3    H1 1452   3.973   4.890   2.967
  482TIP3    H2 1453   3.941   4.743   2.955
  483TIP3   OH2 1454   3.672   3.951   4.006
  483TIP3    H1 1455   3.583   3.918   3.995
  483TIP3    H2 1456   3.719   3.879   4.049
  484TIP3   OH2 1457   5.904   1.029   3.660
  484TIP3    H1 1458   5.867   0.981   3.586
  484TIP3    H2 1459   5.856   1.112   3.661
  485TIP3   OH2 1460   2.748   3.809   3.992
  485TIP3    H1 1461   2.781   3.897   4.008
  485TIP3    H2 1462   2.782   3.785   3.907
  486TIP3   OH2 1463   0.827   5.204   1.919
  486TIP3    H1 1464   0.831   5.247   1.834
  486TIP3    H2 1465   0.850   5.112   1.901
  487TIP3   OH2 1466   1.036   1.911   4.504
  487TIP3    H1 1467   1.021   1.974   4.574
  487TIP3    H2 1468   1.095   1.846   4.543
  488TIP3   OH2 1469   2.768   5.380   3.225
  488TIP3    H1 1470   2.692   5.435   3.208
  488TIP3    H2 1471   2.841   5.428   3.185
  489TIP3   OH2 1472   6.041   2.062   5.075
  489TIP3    H1 1473   5.956   2.107   5.083
  489TIP3    H2 1474   6.023   1.987   5.018
  490TIP3   OH2 1475   3.803   2.989   3.252
  490TIP3    H1 1476   3.847   2.954   3.329
  490TIP3    H2 1477   3.714   2.956   3.257
  491TIP3   OH2 1478   2.582   5.440   0.201
  491TIP3    H1 1479   2.659   5.444   0.145
  491TIP3    H2 1480   2.549   5.351   0.191
  492TIP3   OH2 1481   5.128   1.411   3.375
  492TIP3    H1 1482   5.212   1.455   3.362
  492TIP3    H2 1483   5.071   1.479   3.412
  493TIP3   OH2 1484   4.469   3.840   3.035
  493TIP3    H1 1485   4.404   3.772   3.019
  493TIP3    H2 1486   4.433   3.919   2.994
  494TIP3   OH2 1487   1.682   2.748   3.880
  494TIP3    H1 1488   1.652   2.663   3.849
  494TIP3    H2 1489   1.757   2.769   3.824
  495TIP3   OH2 1490   6.113   4.177   2.214
  495TIP3    H1 1491   6.148   4.246   2.159
  495TIP3    H2 1492   6.128   4.096   2.164
  496TIP3   OH2 1493   0.955   2.061   0.185
  496TIP3    H1 1494   0.936   1.971   0.162
  496TIP3    H2 1495   1.051   2.066   0.190
  497TIP3   OH2 1496   0.123   0.171   3.316
  497TIP3    H1 1497   0.135   0.088   3.269
  497TIP3    H2 1498   0.164   0.156   3.401
  498TIP3   OH2 1499   5.268   3.942   3.191
  498TIP3    H1 1500   5.300   4.031   3.175
  498TIP3    H2 1501   5.177   3.954   3.218
  499TIP3   OH2 1502   1.452   5.087   3.296
  499TIP3    H1 1503   1.405   5.061   3.374
  499TIP3    H2 1504   1.400   5.052   3.223
  500TIP3   OH2 1505   5.440   3.388   3.376
  500TIP3    H1 1506   5.456   3.451   3.306
  500TIP3    H2 1507   5.484   3.425   3.453
  501TIP3   OH2 1508   0.551   3.207   3.608
  501TIP3    H1 1509   0.605   3.156   3.549
  501TIP3    H2 1510   0.479   3.240   3.553
  502TIP3   OH2 1511   5.206   5.506   2.795
  502TIP3    H1 1512   5.250   5.585   2.765
  502TIP3    H2 1513   5.268   5.435   2.777
  503TIP3   OH2 1514   2.046   1.387   4.666
  503TIP3    H1 1515   1.965   1.411   4.621
  503TIP3    H2 1516   2.115   1.425   4.612
  504TIP3   OH2 1517   4.629   1.701   1.048
  504TIP3    H1 1518   4.642   1.653   0.966
  504TIP3    H2 1519   4.715   1.739   1.067
  505TIP3   OH2 1520   3.746   5.983   4.460
  505TIP3    H1 1521   3.662   6.027   4.449
  505TIP3    H2 1522   3.733   5.896   4.424
  506TIP3   OH2 1523   2.018   4.008   1.029
  506TIP3    H1 1524   2.012   4.096   1.065
  506TIP3    H2 1525   1.959   4.009   0.953
  507TIP3   OH2 1526   1.675   2.300   0.438
  507TIP3    H1 1527   1.698   2.383   0.397
  507TIP3    H2 1528   1.649   2.322   0.527
  508TIP3   OH2 1529   0.241   5.041   0.764
  508TIP3    H1 1530   0.232   5.123   0.813
  508TIP3    H2 1531   0.329   5.010   0.785
  509TIP3   OH2 1532   1.573   5.010   0.763
  509TIP3    H1 1533   1.619   4.941   0.811
  509TIP3    H2 1534   1.591   4.990   0.671
  510TIP3   OH2 1535   6.082   0.601   2.192
  510TIP3    H1 1536   6.058   0.511   2.214
  510TIP3    H2 1537   6.080   0.604   2.096
  511TIP3   OH2 1538   0.728   0.594   2.931
  511TIP3    H1 1539   0.762   0.571   3.018
  511TIP3    H2 1540   0.786   0.551   2.869
  512TIP3   OH2 1541   0.440   3.043   2.197
  512TIP3    H1 1542   0.519   2.997   2.170
  512TIP3    H2 1543   0.427   3.111   2.131
  513TIP3   OH2 1544   0.084   1.008   4.331
  513TIP3    H1 1545   0.077   1.079   4.267
  513TIP3    H2 1546   0.111   0.932   4.279
  514TIP3   OH2 1547   2.734   1.560   2.724
  514TIP3    H1 1548   2.718   1.615   2.648
  514TIP3    H2 1549   2.657   1.575   2.780
  515TIP3   OH2 1550   0.028   2.416   1.177
  515TIP3    H1 1551   0.011   2.341   1.119
  515TIP3    H2 1552  -0.033   2.405   1.249
  516TIP3   OH2 1553   3.898   3.695   0.955
  516TIP3    H1 1554   3.847   3.658   1.027
  516TIP3    H2 1555   3.966   3.747   0.998
  517TIP3   OH2 1556   3.523   3.161   1.277
  517TIP3    H1 1557   3.596   3.147   1.337
  517TIP3    H2 1558   3.516   3.257   1.270
  518TIP3   OH2 1559   1.869   2.764   1.979
  518TIP3    H1 1560   1.858   2.774   1.884
  518TIP3    H2 1561   1.962   2.782   1.994
  519TIP3   OH2 1562   3.371   3.859   0.484
  519TIP3    H1 1563   3.437   3.922   0.454
  519TIP3    H2 1564   3.288   3.903   0.467
  520TIP3   OH2 1565   5.397   2.740   0.188
  520TIP3    H1 1566   5.363   2.827   0.166
  520TIP3    H2 1567   5.323   2.682   0.177
  521TIP3   OH2 1568   2.310   0.802   4.566
  521TIP3    H1 1569   2.331   0.889   4.601
  521TIP3    H2 1570   2.389   0.750   4.584
  522TIP3   OH2 1571   2.401   1.077   1.735
  522TIP3    H1 1572   2.386   1.167   1.706
  522TIP3    H2 1573   2.313   1.041   1.744
  523TIP3   OH2 1574   1.170   5.681   0.908
  523TIP3    H1 1575   1.096   5.694   0.968
  523TIP3    H2 1576   1.203   5.594   0.930
  524TIP3   OH2 1577   0.871   4.319   0.326
  524TIP3    H1 1578   0.795   4.363   0.289
  524TIP3    H2 1579   0.863   4.332   0.420
  525TIP3   OH2 1580   5.746   3.869   1.865
  525TIP3    H1 1581   5.726   3.944   1.808
  525TIP3    H2 1582   5.822   3.828   1.824
  526TIP3   OH2 1583   3.111   0.054   3.036
  526TIP3    H1 1584   3.036   0.112   3.049
  526TIP3    H2 1585   3.074  -0.034   3.034
  527TIP3   OH2 1586   4.448   4.632   1.435
  527TIP3    H1 1587   4.477   4.555   1.483
  527TIP3    H2 1588   4.354   4.638   1.454
  528TIP3   OH2 1589   4.979   4.792   4.193
  528TIP3    H1 1590   5.010   4.785   4.103
  528TIP3    H2 1591   4.884   4.788   4.186
  529TIP3   OH2 1592   5.014   3.082   3.545
  529TIP3    H1 1593   5.032   3.103   3.454
  529TIP3    H2 1594   4.932   3.127   3.565
  530TIP3   OH2 1595   4.945   4.101   1.774
  530TIP3    H1 1596   4.913   4.161   1.841
  530TIP3    H2 1597   4.894   4.021   1.788
  531TIP3   OH2 1598   2.747   5.194   1.917
  531TIP3    H1 1599   2.707   5.277   1.889
  531TIP3    H2 1600   2.784   5.214   2.003
  532TIP3   OH2 1601   4.637   1.396   1.540
  532TIP3    H1 1602   4.547   1.392   1.507
  532TIP3    H2 1603   4.655   1.308   1.572
  533TIP3   OH2 1604   4.865   2.596   4.566
  533TIP3    H1 1605   4.849   2.686   4.540
  533TIP3    H2 1606   4.888   2.600   4.659
  534TIP3   OH2 1607   4.339   1.737   2.846
  534TIP3    H1 1608   4.266   1.755   2.787
  534TIP3    H2 1609   4.299   1.709   2.928
  535TIP3   OH2 1610   4.066   1.419   4.611
  535TIP3    H1 1611   4.152   1.435   4.571
  535TIP3    H2 1612   4.083   1.421   4.705
  536TIP3   OH2 1613   5.341   0.292   3.525
  536TIP3    H1 1614   5.408   0.235   3.562
  536TIP3    H2 1615   5.389   0.354   3.471
  537TIP3   OH2 1616   2.866   5.381   4.212
  537TIP3    H1 1617   2.788   5.334   4.183
  537TIP3    H2 1618   2.880   5.351   4.302
  538TIP3   OH2 1619   1.089   1.925   3.196
  538TIP3    H1 1620   1.012   1.975   3.172
  538TIP3    H2 1621   1.094   1.855   3.131
  539TIP3   OH2 1622   3.961   1.194   2.638
  539TIP3    H1 1623   3.972   1.157   2.725
  539TIP3    H2 1624   3.961   1.118   2.579
  540TIP3   OH2 1625   4.514   5.057   2.618
  540TIP3    H1 1626   4.504   4.982   2.560
  540TIP3    H2 1627   4.546   5.020   2.700
  541TIP3   OH2 1628   6.165   5.788   4.367
  541TIP3    H1 1629   6.179   5.754   4.278
  541TIP3    H2 1630   6.213   5.870   4.369
  542TIP3   OH2 1631   0.418   4.835   1.306
  542TIP3    H1 1632   0.424   4.903   1.240
  542TIP3    H2 1633   0.372   4.877   1.379
  543TIP3   OH2 1634   5.150   3.548   2.808
  543TIP3    H1 1635   5.074   3.596   2.777
  543TIP3    H2 1636   5.114   3.466   2.842
  544TIP3   OH2 1637   0.572   2.446   1.473
  544TIP3    H1 1638   0.611   2.532   1.458
  544TIP3    H2 1639   0.577   2.403   1.387
  545TIP3   OH2 1640   0.394   3.144   1.918
  545TIP3    H1 1641   0.441   3.215   1.963
  545TIP3    H2 1642   0.402   3.165   1.825
  546TIP3   OH2 1643   5.447   4.253   5.026
  546TIP3    H1 1644   5.431   4.195   4.952
  546TIP3    H2 1645   5.471   4.195   5.098
  547TIP3   OH2 1646   5.110   1.766   4.356
  547TIP3    H1 1647   5.059   1.745   4.277
  547TIP3    H2 1648   5.177   1.827   4.326
  548TIP3   OH2 1649   4.731   2.271   3.586
  548TIP3    H1 1650   4.709   2.308   3.501
  548TIP3    H2 1651   4.759   2.346   3.639
  549TIP3   OH2 1652   0.832   1.184   1.753
  549TIP3    H1 1653   0.875   1.159   1.671
  549TIP3    H2 1654   0.740   1.192   1.730
  550TIP3   OH2 1655   4.317   3.014   1.433
  550TIP3    H1 1656   4.407   3.035   1.457
  550TIP3    H2 1657   4.325   2.947   1.365
  551TIP3   OH2 1658   2.714   0.963   4.114
  551TIP3    H1 1659   2.792   0.907   4.116
  551TIP3    H2 1660   2.656   0.926   4.179
  552TIP3   OH2 1661   2.986   0.861   1.673
  552TIP3    H1 1662   2.911   0.845   1.616
  552TIP3    H2 1663   2.964   0.941   1.719
  553TIP3   OH2 1664   3.490   3.908   2.722
  553TIP3    H1 1665   3.436   3.962   2.663
  553TIP3    H2 1666   3.577   3.947   2.717
  554TIP3   OH2 1667   3.667   5.846   1.641
  554TIP3    H1 1668   3.592   5.857   1.700
  554TIP3    H2 1669   3.628   5.819   1.558
  555TIP3   OH2 1670   2.360   5.546   2.990
  555TIP3    H1 1671   2.298   5.476   2.968
  555TIP3    H2 1672   2.308   5.626   2.985
  556TIP3   OH2 1673   4.516   4.321   1.113
  556TIP3    H1 1674   4.483   4.357   1.030
  556TIP3    H2 1675   4.531   4.398   1.167
  557TIP3   OH2 1676   4.711   1.765   2.277
  557TIP3    H1 1677   4.767   1.688   2.265
  557TIP3    H2 1678   4.771   1.834   2.305
  558TIP3   OH2 1679   0.723   5.217   3.983
  558TIP3    H1 1680   0.667   5.260   3.917
  558TIP3    H2 1681   0.770   5.150   3.934
  559TIP3   OH2 1682   5.675   4.894   1.568
  559TIP3    H1 1683   5.742   4.898   1.499
  559TIP3    H2 1684   5.624   4.815   1.547
  560TIP3   OH2 1685   5.081   1.690   2.114
  560TIP3    H1 1686   5.021   1.617   2.134
  560TIP3    H2 1687   5.070   1.704   2.020
  561TIP3   OH2 1688   6.193   1.498   4.493
  561TIP3    H1 1689   6.152   1.584   4.499
  561TIP3    H2 1690   6.274   1.514   4.444
  562TIP3   OH2 1691   4.198   1.774   4.029
  562TIP3    H1 1692   4.164   1.687   4.047
  562TIP3    H2 1693   4.141   1.833   4.079
  563TIP3   OH2 1694   2.567   3.697   3.101
  563TIP3    H1 1695   2.569   3.633   3.172
  563TIP3    H2 1696   2.625   3.660   3.034
  564TIP3   OH2 1697   3.715   4.699   1.753
  564TIP3    H1 1698   3.630   4.657   1.742
  564TIP3    H2 1699   3.744   4.718   1.664
  565TIP3   OH2 1700   3.745   4.410   1.702
  565TIP3    H1 1701   3.680   4.382   1.767
  565TIP3    H2 1702   3.751   4.505   1.713
  566TIP3   OH2 1703   0.933   3.993   0.537
  566TIP3    H1 1704   1.001   3.985   0.603
  566TIP3    H2 1705   0.970   4.052   0.471
  567TIP3   OH2 1706   3.076   1.989   1.273
  567TIP3    H1 1707   3.056   1.896   1.261
  567TIP3    H2 1708   3.167   1.990   1.304
  568TIP3   OH2 1709   3.322   1.523   4.798
  568TIP3    H1 1710   3.274   1.548   4.877
  568TIP3    H2 1711   3.353   1.434   4.816
  569TIP3   OH2 1712   4.600   3.676   2.106
  569TIP3    H1 1713   4.558   3.593   2.085
  569TIP3    H2 1714   4.552   3.710   2.181
  570TIP3   OH2 1715   2.226   5.555   1.830
  570TIP3    H1 1716   2.175   5.634   1.844
  570TIP3    H2 1717   2.209   5.531   1.739
  571TIP3   OH2 1718   0.499   0.405   0.268
  571TIP3    H1 1719   0.442   0.468   0.224
  571TIP3    H2 1720   0.515   0.443   0.355
  572TIP3   OH2 1721   5.251   5.941   4.260
  572TIP3    H1 1722   5.189   5.959   4.190
  572TIP3    H2 1723   5.208   5.971   4.340
  573TIP3   OH2 1724   1.586   3.379   2.467
  573TIP3    H1 1725   1.576   3.406   2.375
  573TIP3    H2 1726   1.586   3.284   2.464
  574TIP3   OH2 1727   0.131   4.417   1.076
  574TIP3    H1 1728   0.134   4.418   1.171
  574TIP3    H2 1729   0.105   4.327   1.053
  575TIP3   OH2 1730   2.935   4.490   4.221
  575TIP3    H1 1731   2.903   4.399   4.218
  575TIP3    H2 1732   3.027   4.482   4.245
  576TIP3   OH2 1733   5.778   3.279   5.174
  576TIP3    H1 1734   5.699   3.334   5.173
  576TIP3    H2 1735   5.801   3.268   5.082
  577TIP3   OH2 1736   2.225   0.326   2.651
  577TIP3    H1 1737   2.232   0.360   2.562
  577TIP3    H2 1738   2.139   0.354   2.682
  578TIP3   OH2 1739   0.468   1.045   3.295
  578TIP3    H1 1740   0.478   1.097   3.374
  578TIP3    H2 1741   0.505   0.960   3.317
  579TIP3   OH2 1742   4.396   5.226   1.251
  579TIP3    H1 1743   4.409   5.284   1.176
  579TIP3    H2 1744   4.485   5.208   1.283
  580TIP3   OH2 1745   3.785   5.205   3.968
  580TIP3    H1 1746   3.725   5.138   3.937
  580TIP3    H2 1747   3.815   5.250   3.889
  581TIP3   OH2 1748   0.718   2.657   1.336
  581TIP3    H1 1749   0.726   2.752   1.329
  581TIP3    H2 1750   0.755   2.624   1.254
  582TIP3   OH2 1751   1.177   4.371   1.569
  582TIP3    H1 1752   1.102   4.412   1.613
  582TIP3    H2 1753   1.144   4.284   1.543
  583TIP3   OH2 1754   0.387   3.555   4.344
  583TIP3    H1 1755   0.353   3.622   4.285
  583TIP3    H2 1756   0.480   3.549   4.322
  584TIP3   OH2 1757   1.547   2.058   1.512
  584TIP3    H1 1758   1.452   2.057   1.521
  584TIP3    H2 1759   1.563   2.100   1.428
  585TIP3   OH2 1760   2.673   1.825   2.566
  585TIP3    H1 1761   2.751   1.872   2.595
  585TIP3    H2 1762   2.671   1.837   2.471
  586TIP3   OH2 1763   5.680   3.909   3.628
  586TIP3    H1 1764   5.648   3.967   3.697
  586TIP3    H2 1765   5.622   3.925   3.554
  587TIP3   OH2 1766   1.038   3.628   4.077
  587TIP3    H1 1767   0.992   3.545   4.092
  587TIP3    H2 1768   1.119   3.603   4.033
  588TIP3   OH2 1769   2.135   4.603   0.483
  588TIP3    H1 1770   2.173   4.542   0.546
  588TIP3    H2 1771   2.101   4.547   0.413
  589TIP3   OH2 1772   6.075   5.940   2.985
  589TIP3    H1 1773   6.116   5.996   3.050
  589TIP3    H2 1774   6.016   5.884   3.036
  590TIP3   OH2 1775   2.161   2.598   0.283
  590TIP3    H1 1776   2.239   2.542   0.280
  590TIP3    H2 1777   2.111   2.575   0.205
  591TIP3   OH2 1778   2.440   0.872   4.202
  591TIP3    H1 1779   2.450   0.782   4.231
  591TIP3    H2 1780   2.358   0.873   4.152
  592TIP3   OH2 1781   6.279   3.789   4.802
  592TIP3    H1 1782   6.350   3.778   4.866
  592TIP3    H2 1783   6.200   3.760   4.848
  593TIP3   OH2 1784   2.835   3.755   0.696
  593TIP3    H1 1785   2.870   3.769   0.608
  593TIP3    H2 1786   2.910   3.722   0.746
  594TIP3   OH2 1787   3.190   0.870   3.589
  594TIP3    H1 1788   3.095   0.872   3.583
  594TIP3    H2 1789   3.208   0.843   3.679
  595TIP3   OH2 1790   6.268   4.401   4.051
  595TIP3    H1 1791   6.178   4.383   4.022
  595TIP3    H2 1792   6.289   4.485   4.012
  596TIP3   OH2 1793   5.514   5.821   1.467
  596TIP3    H1 1794   5.488   5.913   1.460
  596TIP3    H2 1795   5.553   5.814   1.554
  597TIP3   OH2 1796   0.815   1.153   0.586
  597TIP3    H1 1797   0.895   1.103   0.604
  597TIP3    H2 1798   0.755   1.127   0.656
  598TIP3   OH2 1799   2.063   3.273   4.431
  598TIP3    H1 1800   2.082   3.189   4.472
  598TIP3    H2 1801   2.118   3.336   4.478
  599TIP3   OH2 1802   1.894   5.906   0.044
  599TIP3    H1 1803   1.849   5.968  -0.013
  599TIP3    H2 1804   1.925   5.837  -0.014
  600TIP3   OH2 1805   5.432   4.059   2.542
  600TIP3    H1 1806   5.357   4.069   2.601
  600TIP3    H2 1807   5.458   3.967   2.551
  601TIP3   OH2 1808   6.061   1.438   0.988
  601TIP3    H1 1809   6.011   1.448   0.907
  601TIP3    H2 1810   6.013   1.373   1.039
  602TIP3   OH2 1811   5.800   2.063   0.329
  602TIP3    H1 1812   5.894   2.059   0.343
  602TIP3    H2 1813   5.789   2.065   0.234
  603TIP3   OH2 1814   5.063   0.656   0.991
  603TIP3    H1 1815   5.045   0.575   1.038
  603TIP3    H2 1816   4.977   0.694   0.973
  604TIP3   OH2 1817   3.236   0.338   1.393
  604TIP3    H1 1818   3.322   0.367   1.425
  604TIP3    H2 1819   3.256   0.260   1.341
  605TIP3   OH2 1820   0.785   1.588   5.162
  605TIP3    H1 1821   0.755   1.631   5.082
  605TIP3    H2 1822   0.745   1.501   5.158
  606TIP3   OH2 1823   2.934   5.789   2.745
  606TIP3    H1 1824   2.864   5.741   2.700
  606TIP3    H2 1825   2.968   5.849   2.679
  607TIP3   OH2 1826   2.214   5.942   1.101
  607TIP3    H1 1827   2.224   5.953   1.007
  607TIP3    H2 1828   2.135   5.992   1.123
  608TIP3   OH2 1829   1.836   5.752   4.644
  608TIP3    H1 1830   1.877   5.700   4.712
  608TIP3    H2 1831   1.908   5.782   4.589
  609TIP3   OH2 1832   5.955   4.254   5.130
  609TIP3    H1 1833   6.008   4.206   5.067
  609TIP3    H2 1834   5.971   4.211   5.214
  610TIP3   OH2 1835   0.866   0.912   3.152
  610TIP3    H1 1836   0.809   0.849   3.196
  610TIP3    H2 1837   0.833   0.916   3.062
  611TIP3   OH2 1838   3.798   0.528   3.525
  611TIP3    H1 1839   3.839   0.465   3.464
  611TIP3    H2 1840   3.732   0.476   3.572
  612TIP3   OH2 1841   3.161   3.422   2.158
  612TIP3    H1 1842   3.136   3.511   2.134
  612TIP3    H2 1843   3.255   3.419   2.144
  613TIP3   OH2 1844   5.752   0.225   1.881
  613TIP3    H1 1845   5.697   0.184   1.814
  613TIP3    H2 1846   5.769   0.155   1.944
  614TIP3   OH2 1847   5.039   5.105   4.862
  614TIP3    H1 1848   5.046   5.019   4.905
  614TIP3    H2 1849   5.030   5.167   4.934
  615TIP3   OH2 1850   4.568   4.160   2.951
  615TIP3    H1 1851   4.476   4.157   2.977
  615TIP3    H2 1852   4.615   4.126   3.028
  616TIP3   OH2 1853   0.351   0.248   1.134
  616TIP3    H1 1854   0.314   0.335   1.141
  616TIP3    H2 1855   0.367   0.236   1.040
  617TIP3   OH2 1856   2.498   1.286   3.370
  617TIP3    H1 1857   2.499   1.235   3.451
  617TIP3    H2 1858   2.426   1.248   3.319
  618TIP3   OH2 1859   1.207   5.494   2.379
  618TIP3    H1 1860   1.171   5.468   2.294
  618TIP3    H2 1861   1.219   5.412   2.426
  619TIP3   OH2 1862   4.086   5.224   3.120
  619TIP3    H1 1863   3.992   5.238   3.132
  619TIP3    H2 1864   4.123   5.313   3.120
  620TIP3   OH2 1865   5.737   0.557   2.401
  620TIP3    H1 1866   5.800   0.538   2.331
  620TIP3    H2 1867   5.669   0.491   2.391
  621TIP3   OH2 1868   0.931   1.367   4.859
  621TIP3    H1 1869   0.856   1.313   4.883
  621TIP3    H2 1870   1.007   1.310   4.871
  622TIP3   OH2 1871   0.771   5.241   2.554
  622TIP3    H1 1872   0.775   5.320   2.500
  622TIP3    H2 1873   0.827   5.178   2.508
  623TIP3   OH2 1874   4.928   5.779   1.133
  623TIP3    H1 1875   4.975   5.713   1.184
  623TIP3    H2 1876   4.875   5.826   1.198
  624TIP3   OH2 1877   1.793   0.699   1.002
  624TIP3    H1 1878   1.698   0.689   0.993
  624TIP3    H2 1879   1.814   0.775   0.948
  625TIP3   OH2 1880   3.773   3.151   3.022
  625TIP3    H1 1881   3.734   3.119   2.940
  625TIP3    H2 1882   3.788   3.071   3.074
  626TIP3   OH2 1883   1.240   2.947   3.179
  626TIP3    H1 1884   1.252   2.853   3.170
  626TIP3    H2 1885   1.216   2.977   3.091
  627TIP3   OH2 1886   4.353   2.213   2.759
  627TIP3    H1 1887   4.308   2.181   2.681
  627TIP3    H2 1888   4.341   2.143   2.823
  628TIP3   OH2 1889   5.265   4.798   1.256
  628TIP3    H1 1890   5.333   4.859   1.287
  628TIP3    H2 1891   5.187   4.823   1.305
  629TIP3   OH2 1892   0.530   0.296   2.592
  629TIP3    H1 1893   0.496   0.344   2.668
  629TIP3    H2 1894   0.625   0.312   2.595
  630TIP3   OH2 1895   0.256   5.140   0.230
  630TIP3    H1 1896   0.281   5.231   0.242
  630TIP3    H2 1897   0.267   5.100   0.317
  631TIP3   OH2 1898   0.449   3.358   2.784
  631TIP3    H1 1899   0.540   3.376   2.808
  631TIP3    H2 1900   0.433   3.270   2.818
  632TIP3   OH2 1901   6.369   0.594   4.760
  632TIP3    H1 1902   6.292   0.613   4.814
  632TIP3    H2 1903   6.336   0.595   4.670
  633TIP3   OH2 1904   3.832   2.260   1.329
  633TIP3    H1 1905   3.841   2.307   1.412
  633TIP3    H2 1906   3.921   2.257   1.293
  634TIP3   OH2 1907   2.222   3.036   0.273
  634TIP3    H1 1908   2.295   3.085   0.236
  634TIP3    H2 1909   2.180   2.995   0.197
  635TIP3   OH2 1910   3.360   1.298   1.089
  635TIP3    H1 1911   3.445   1.269   1.057
  635TIP3    H2 1912   3.352   1.259   1.176
  636TIP3   OH2 1913   2.560   5.363   5.130
  636TIP3    H1 1914   2.539   5.423   5.059
  636TIP3    H2 1915   2.625   5.410   5.183
  637TIP3   OH2 1916   0.135   4.027   3.397
  637TIP3    H1 1917   0.110   4.116   3.376
  637TIP3    H2 1918   0.183   4.035   3.480
  638TIP3   OH2 1919   3.593   2.764   1.022
  638TIP3    H1 1920   3.675   2.746   0.976
  638TIP3    H2 1921   3.615   2.756   1.115
  639TIP3   OH2 1922   2.139   3.663   1.752
  639TIP3    H1 1923   2.081   3.729   1.714
  639TIP3    H2 1924   2.138   3.591   1.689
  640TIP3   OH2 1925   0.049   1.830   0.208
  640TIP3    H1 1926   0.035   1.889   0.282
  640TIP3    H2 1927  -0.012   1.860   0.141
  641TIP3   OH2 1928   4.019   5.875   2.559
  641TIP3    H1 1929   4.063   5.879   2.644
  641TIP3    H2 1930   4.076   5.924   2.500
  642TIP3   OH2 1931   1.138   0.540   0.122
  642TIP3    H1 1932   1.063   0.597   0.101
  642TIP3    H2 1933   1.106   0.452   0.104
  643TIP3   OH2 1934   3.114   1.377   1.272
  643TIP3    H1 1935   3.156   1.423   1.345
  643TIP3    H2 1936   3.130   1.285   1.290
  644TIP3   OH2 1937   4.323   2.622   4.706
  644TIP3    H1 1938   4.333   2.640   4.799
  644TIP3    H2 1939   4.412   2.602   4.676
  645TIP3   OH2 1940   4.632   2.044   4.833
  645TIP3    H1 1941   4.641   2.137   4.814
  645TIP3    H2 1942   4.575   2.010   4.764
  646TIP3   OH2 1943   6.231   1.562   3.238
  646TIP3    H1 1944   6.283   1.632   3.276
  646TIP3    H2 1945   6.161   1.607   3.191
  647TIP3   OH2 1946   3.042   3.549   1.202
  647TIP3    H1 1947   2.995   3.571   1.283
  647TIP3    H2 1948   3.004   3.608   1.136
  648TIP3   OH2 1949   2.636   1.130   0.602
  648TIP3    H1 1950   2.662   1.139   0.511
  648TIP3    H2 1951   2.709   1.086   0.645
  649TIP3   OH2 1952   4.104   2.450   4.671
  649TIP3    H1 1953   4.176   2.505   4.641
  649TIP3    H2 1954   4.057   2.426   4.591
  650TIP3   OH2 1955   5.321   3.606   0.453
  650TIP3    H1 1956   5.288   3.529   0.408
  650TIP3    H2 1957   5.248   3.637   0.506
  651TIP3   OH2 1958   6.188   4.824   3.114
  651TIP3    H1 1959   6.260   4.886   3.106
  651TIP3    H2 1960   6.111   4.878   3.132
  652TIP3   OH2 1961   5.504   2.702   3.185
  652TIP3    H1 1962   5.457   2.712   3.268
  652TIP3    H2 1963   5.480   2.614   3.154
  653TIP3   OH2 1964   0.081   5.803   0.520
  653TIP3    H1 1965   0.100   5.836   0.433
  653TIP3    H2 1966   0.097   5.877   0.578
  654TIP3   OH2 1967   5.160   0.657   3.063
  654TIP3    H1 1968   5.237   0.709   3.087
  654TIP3    H2 1969   5.118   0.707   2.993
  655TIP3   OH2 1970   4.986   5.001   4.370
  655TIP3    H1 1971   5.071   4.988   4.413
  655TIP3    H2 1972   4.974   4.922   4.317
  656TIP3   OH2 1973   4.138   1.098   0.020
  656TIP3    H1 1974   4.133   1.003   0.031
  656TIP3    H2 1975   4.140   1.132   0.110
  657TIP3   OH2 1976   3.539   5.852   2.350
  657TIP3    H1 1977   3.580   5.771   2.318
  657TIP3    H2 1978   3.596   5.881   2.421
  658TIP3   OH2 1979   0.060   2.168   4.439
  658TIP3    H1 1980   0.107   2.124   4.368
  658TIP3    H2 1981   0.127   2.218   4.486
  659TIP3   OH2 1982   5.038   3.311   1.440
  659TIP3    H1 1983   5.102   3.252   1.402
  659TIP3    H2 1984   5.019   3.275   1.527
  660TIP3   OH2 1985   3.722   3.005   2.178
  660TIP3    H1 1986   3.812   2.986   2.204
  660TIP3    H2 1987   3.717   2.974   2.087
  661TIP3   OH2 1988   1.573   5.487   0.509
  661TIP3    H1 1989   1.513   5.426   0.553
  661TIP3    H2 1990   1.540   5.493   0.420
  662TIP3   OH2 1991   2.360   0.418   0.741
  662TIP3    H1 1992   2.406   0.487   0.694
  662TIP3    H2 1993   2.346   0.350   0.675
  663TIP3   OH2 1994   1.284   3.978   2.745
  663TIP3    H1 1995   1.234   3.896   2.746
  663TIP3    H2 1996   1.225   4.042   2.785
  664TIP3   OH2 1997   4.190   3.231   1.526
  664TIP3    H1 1998   4.233   3.152   1.492
  664TIP3    H2 1999   4.252   3.301   1.511
  665TIP3   OH2 2000   0.764   3.331   2.112
  665TIP3    H1 2001   0.857   3.353   2.106
  665TIP3    H2 2002   0.749   3.314   2.205
  666TIP3   OH2 2003   0.172   2.965   4.160
  666TIP3    H1 2004   0.093   2.915   4.140
  666TIP3    H2 2005   0.193   3.011   4.078
  667TIP3   OH2 2006   1.036   0.356   3.004
  667TIP3    H1 2007   0.964   0.386   2.950
  667TIP3    H2 2008   1.055   0.430   3.062
  668TIP3   OH2 2009   1.657   0.982   4.056
  668TIP3    H1 2010   1.684   1.031   3.978
  668TIP3    H2 2011   1.615   1.047   4.112
  669TIP3   OH2 2012   5.028   0.120   0.825
  669TIP3    H1 2013   5.016   0.154   0.736
  669TIP3    H2 2014   5.040   0.026   0.813
  670TIP3   OH2 2015   0.407   2.049   4.423
  670TIP3    H1 2016   0.348   1.994   4.371
  670TIP3    H2 2017   0.434   2.119   4.363
  671TIP3   OH2 2018   4.369   2.412   0.183
  671TIP3    H1 2019   4.285   2.420   0.139
  671TIP3    H2 2020   4.413   2.338   0.140
  672TIP3   OH2 2021   0.725   0.180   3.809
  672TIP3    H1 2022   0.785   0.236   3.857
  672TIP3    H2 2023   0.743   0.197   3.717
  673TIP3   OH2 2024   4.755   4.543   3.376
  673TIP3    H1 2025   4.782   4.621   3.327
  673TIP3    H2 2026   4.819   4.536   3.447
  674TIP3   OH2 2027   3.553   1.252   2.333
  674TIP3    H1 2028   3.580   1.238   2.243
  674TIP3    H2 2029   3.582   1.342   2.353
  675TIP3   OH2 2030   5.225   2.925   0.017
  675TIP3    H1 2031   5.149   2.933   0.074
  675TIP3    H2 2032   5.259   3.015   0.010
  676TIP3   OH2 2033   5.972   1.123   1.836
  676TIP3    H1 2034   5.894   1.068   1.826
  676TIP3    H2 2035   6.016   1.118   1.752
  677TIP3   OH2 2036   1.667   4.273   4.844
  677TIP3    H1 2037   1.688   4.244   4.756
  677TIP3    H2 2038   1.596   4.337   4.832
  678TIP3   OH2 2039   2.507   0.178   4.226
  678TIP3    H1 2040   2.515   0.216   4.314
  678TIP3    H2 2041   2.597   0.175   4.193
  679TIP3   OH2 2042  -0.010   0.851   0.684
  679TIP3    H1 2043   0.029   0.800   0.614
  679TIP3    H2 2044   0.019   0.940   0.668
  680TIP3   OH2 2045   4.403   3.616   2.618
  680TIP3    H1 2046   4.361   3.542   2.662
  680TIP3    H2 2047   4.465   3.650   2.682
  681TIP3   OH2 2048   0.780   2.396   1.949
  681TIP3    H1 2049   0.795   2.454   2.024
  681TIP3    H2 2050   0.805   2.449   1.873
  682TIP3   OH2 2051   2.863   5.907   1.461
  682TIP3    H1 2052   2.944   5.872   1.498
  682TIP3    H2 2053   2.882   5.999   1.446
  683TIP3   OH2 2054   0.325   1.458   4.694
  683TIP3    H1 2055   0.262   1.442   4.764
  683TIP3    H2 2056   0.411   1.449   4.736
  684TIP3   OH2 2057   0.775   4.727   1.293
  684TIP3    H1 2058   0.817   4.800   1.339
  684TIP3    H2 2059   0.717   4.769   1.230
  685TIP3   OH2 2060   0.578   5.926   0.142
  685TIP3    H1 2061   0.496   5.926   0.190
  685TIP3    H2 2062   0.590   6.017   0.114
  686TIP3   OH2 2063   4.496   1.982   1.181
  686TIP3    H1 2064   4.588   1.971   1.158
  686TIP3    H2 2065   4.448   1.934   1.113
  687TIP3   OH2 2066   6.049   2.866   2.873
  687TIP3    H1 2067   5.979   2.801   2.872
  687TIP3    H2 2068   6.004   2.950   2.880
  688TIP3   OH2 2069   4.825   0.738   0.261
  688TIP3    H1 2070   4.834   0.672   0.192
  688TIP3    H2 2071   4.788   0.814   0.217
  689TIP3   OH2 2072   4.113   5.593   4.150
  689TIP3    H1 2073   4.143   5.527   4.213
  689TIP3    H2 2074   4.192   5.642   4.128
  690TIP3   OH2 2075   4.860   5.092   1.518
  690TIP3    H1 2076   4.947   5.095   1.477
  690TIP3    H2 2077   4.836   5.000   1.516
  691TIP3   OH2 2078   1.241   5.122   1.733
  691TIP3    H1 2079   1.279   5.034   1.736
  691TIP3    H2 2080   1.282   5.164   1.657
  692TIP3   OH2 2081   3.464   3.284   5.002
  692TIP3    H1 2082   3.371   3.289   4.981
  692TIP3    H2 2083   3.508   3.326   4.928
  693TIP3   OH2 2084   1.734   3.351   0.591
  693TIP3    H1 2085   1.677   3.275   0.580
  693TIP3    H2 2086   1.750   3.382   0.502
  694TIP3   OH2 2087   0.247   2.991   3.517
  694TIP3    H1 2088   0.302   2.975   3.594
  694TIP3    H2 2089   0.245   3.087   3.510
  695TIP3   OH2 2090   3.786   2.159   3.340
  695TIP3    H1 2091   3.776   2.195   3.251
  695TIP3    H2 2092   3.828   2.230   3.389
  696TIP3   OH2 2093   3.070   2.525   0.162
  696TIP3    H1 2094   3.003   2.501   0.225
  696TIP3    H2 2095   3.147   2.546   0.215
  697TIP3   OH2 2096   6.292   3.740   3.578
  697TIP3    H1 2097   6.202   3.713   3.600
  697TIP3    H2 2098   6.346   3.701   3.647
  698TIP3   OH2 2099   3.830   3.127   2.563
  698TIP3    H1 2100   3.777   3.206   2.567
  698TIP3    H2 2101   3.783   3.068   2.504
  699TIP3   OH2 2102   2.461   4.807   2.845
  699TIP3    H1 2103   2.498   4.843   2.926
  699TIP3    H2 2104   2.507   4.724   2.833
  700TIP3   OH2 2105   5.938   3.809   2.899
  700TIP3    H1 2106   5.933   3.849   2.812
  700TIP3    H2 2107   5.856   3.760   2.908
  701TIP3   OH2 2108   3.267   0.206   1.803
  701TIP3    H1 2109   3.339   0.226   1.743
  701TIP3    H2 2110   3.283   0.115   1.831
  702TIP3   OH2 2111   0.075   2.000   0.886
  702TIP3    H1 2112   0.037   2.085   0.908
  702TIP3    H2 2113   0.104   2.009   0.796
  703TIP3   OH2 2114   3.917   1.498   4.361
  703TIP3    H1 2115   3.973   1.485   4.437
  703TIP3    H2 2116   3.926   1.417   4.311
  704TIP3   OH2 2117   2.752   3.513   4.269
  704TIP3    H1 2118   2.658   3.496   4.268
  704TIP3    H2 2119   2.787   3.464   4.194
  705TIP3   OH2 2120   0.264   3.461   5.113
  705TIP3    H1 2121   0.300   3.549   5.105
  705TIP3    H2 2122   0.188   3.472   5.171
  706TIP3   OH2 2123   0.637   0.540   3.829
  706TIP3    H1 2124   0.699   0.486   3.879
  706TIP3    H2 2125   0.666   0.630   3.845
  707TIP3   OH2 2126   5.714   0.984   1.840
  707TIP3    H1 2127   5.700   0.960   1.932
  707TIP3    H2 2128   5.724   0.900   1.795
  708TIP3   OH2 2129   1.100   5.931   0.674
  708TIP3    H1 2130   1.078   6.024   0.684
  708TIP3    H2 2131   1.186   5.922   0.715
  709TIP3   OH2 2132   5.026   2.593   1.839
  709TIP3    H1 2133   5.005   2.557   1.753
  709TIP3    H2 2134   5.111   2.555   1.861
  710TIP3   OH2 2135   2.943   5.022   4.189
  710TIP3    H1 2136   2.959   5.070   4.108
  710TIP3    H2 2137   2.968   4.932   4.169
  711TIP3   OH2 2138   5.536   0.102   0.746
  711TIP3    H1 2139   5.479   0.154   0.690
  711TIP3    H2 2140   5.618   0.150   0.749
  712TIP3   OH2 2141   3.498   2.795   2.511
  712TIP3    H1 2142   3.518   2.702   2.508
  712TIP3    H2 2143   3.417   2.805   2.461
  713TIP3   OH2 2144   2.359   0.540   4.172
  713TIP3    H1 2145   2.264   0.531   4.162
  713TIP3    H2 2146   2.377   0.501   4.258
  714TIP3   OH2 2147   2.370   5.395   1.987
  714TIP3    H1 2148   2.457   5.412   1.952
  714TIP3    H2 2149   2.311   5.447   1.933
  715TIP3   OH2 2150   0.741   4.447   1.394
  715TIP3    H1 2151   0.748   4.543   1.391
  715TIP3    H2 2152   0.720   4.422   1.304
  716TIP3   OH2 2153   1.638   4.035   0.049
  716TIP3    H1 2154   1.707   4.097   0.025
  716TIP3    H2 2155   1.682   3.972   0.106
  717TIP3   OH2 2156   4.353   3.121   0.334
  717TIP3    H1 2157   4.343   3.100   0.241
  717TIP3    H2 2158   4.447   3.136   0.344
  718TIP3   OH2 2159   3.610   3.392   4.066
  718TIP3    H1 2160   3.657   3.444   4.001
  718TIP3    H2 2161   3.677   3.335   4.105
  719TIP3   OH2 2162   0.205   3.528   2.920
  719TIP3    H1 2163   0.245   3.454   2.875
  719TIP3    H2 2164   0.278   3.572   2.963
  720TIP3   OH2 2165   2.191   0.350   3.754
  720TIP3    H1 2166   2.213   0.442   3.771
  720TIP3    H2 2167   2.228   0.302   3.828
  721TIP3   OH2 2168   1.774   0.247   1.325
  721TIP3    H1 2169   1.778   0.311   1.396
  721TIP3    H2 2170   1.865   0.240   1.295
  722TIP3   OH2 2171   4.882   3.306   3.723
  722TIP3    H1 2172   4.828   3.338   3.795
  722TIP3    H2 2173   4.950   3.253   3.766
  723TIP3   OH2 2174   0.002   5.026   3.111
  723TIP3    H1 2175   0.032   5.115   3.092
  723TIP3    H2 2176   0.083   4.973   3.109
  724TIP3   OH2 2177   3.226   1.497   0.780
  724TIP3    H1 2178   3.193   1.436   0.845
  724TIP3    H2 2179   3.243   1.443   0.703
  725TIP3   OH2 2180   0.548   0.599   4.435
  725TIP3    H1 2181   0.497   0.551   4.370
  725TIP3    H2 2182   0.571   0.534   4.501
  726TIP3   OH2 2183   2.486   5.084   4.755
  726TIP3    H1 2184   2.442   5.161   4.790
  726TIP3    H2 2185   2.482   5.097   4.660
  727TIP3   OH2 2186   0.367   5.304   5.030
  727TIP3    H1 2187   0.405   5.327   5.115
  727TIP3    H2 2188   0.281   5.345   5.031
  728TIP3   OH2 2189   4.084   5.844   1.846
  728TIP3    H1 2190   4.044   5.858   1.760
  728TIP3    H2 2191   4.178   5.852   1.830
  729TIP3   OH2 2192   3.001   5.207   3.981
  729TIP3    H1 2193   2.966   5.209   3.892
  729TIP3    H2 2194   2.960   5.281   4.026
  730TIP3   OH2 2195   5.419   4.867   0.045
  730TIP3    H1 2196   5.460   4.818   0.116
  730TIP3    H2 2197   5.455   4.827  -0.035
  731TIP3   OH2 2198   0.863   2.290   0.056
  731TIP3    H1 2199   0.951   2.321   0.032
  731TIP3    H2 2200   0.879   2.206   0.100
  732TIP3   OH2 2201   5.464   1.784   3.039
  732TIP3    H1 2202   5.408   1.707   3.030
  732TIP3    H2 2203   5.541   1.752   3.087
  733TIP3   OH2 2204   4.100   4.118   1.473
  733TIP3    H1 2205   4.025   4.172   1.449
  733TIP3    H2 2206   4.174   4.178   1.472
  734TIP3   OH2 2207   2.739   1.362   4.581
  734TIP3    H1 2208   2.779   1.340   4.497
  734TIP3    H2 2209   2.647   1.335   4.571
  735TIP3   OH2 2210   1.631   0.033   0.094
  735TIP3    H1 2211   1.703   0.055   0.034
  735TIP3    H2 2212   1.554   0.075   0.055
  736TIP3   OH2 2213   4.901   5.799   2.032
  736TIP3    H1 2214   4.930   5.862   1.967
  736TIP3    H2 2215   4.976   5.787   2.089
  737TIP3   OH2 2216   1.269   0.996   4.099
  737TIP3    H1 2217   1.307   1.084   4.104
  737TIP3    H2 2218   1.202   1.003   4.031
  738TIP3   OH2 2219   4.384   2.905   0.109
  738TIP3    H1 2220   4.295   2.872   0.120
  738TIP3    H2 2221   4.439   2.837   0.148
  739TIP3   OH2 2222   5.354   0.153   4.728
  739TIP3    H1 2223   5.299   0.226   4.697
  739TIP3    H2 2224   5.314   0.075   4.689
  740TIP3   OH2 2225   3.120   3.606   4.057
  740TIP3    H1 2226   3.136   3.696   4.085
  740TIP3    H2 2227   3.202   3.560   4.075
  741TIP3   OH2 2228   3.476   3.546   3.845
  741TIP3    H1 2229   3.468   3.624   3.791
  741TIP3    H2 2230   3.390   3.504   3.839
  742TIP3   OH2 2231   1.343   5.116   0.938
  742TIP3    H1 2232   1.262   5.067   0.927
  742TIP3    H2 2233   1.399   5.088   0.865
  743TIP3   OH2 2234   5.791   1.710   2.844
  743TIP3    H1 2235   5.716   1.742   2.793
  743TIP3    H2 2236   5.787   1.615   2.834
  744TIP3   OH2 2237   3.156   4.711   1.855
  744TIP3    H1 2238   3.203   4.766   1.918
  744TIP3    H2 2239   3.106   4.773   1.802
  745TIP3   OH2 2240   2.070   0.702   1.504
  745TIP3    H1 2241   2.106   0.681   1.590
  745TIP3    H2 2242   2.000   0.638   1.491
  746TIP3   OH2 2243   3.116   5.133   0.628
  746TIP3    H1 2244   3.042   5.079   0.600
  746TIP3    H2 2245   3.089   5.169   0.712
  747TIP3   OH2 2246   2.487   0.934   3.322
  747TIP3    H1 2247   2.501   0.974   3.408
  747TIP3    H2 2248   2.543   0.984   3.263
  748TIP3   OH2 2249   5.228   2.948   3.642
  748TIP3    H1 2250   5.143   2.968   3.604
  748TIP3    H2 2251   5.273   3.032   3.648
  749TIP3   OH2 2252   3.857   2.114   4.648
  749TIP3    H1 2253   3.787   2.065   4.692
  749TIP3    H2 2254   3.890   2.173   4.715
  750TIP3   OH2 2255   4.459   3.693   2.340
  750TIP3    H1 2256   4.459   3.657   2.429
  750TIP3    H2 2257   4.370   3.681   2.308
  751TIP3   OH2 2258   3.550   0.057   1.808
  751TIP3    H1 2259   3.632   0.090   1.772
  751TIP3    H2 2260   3.511   0.006   1.737
  752TIP3   OH2 2261   3.812   4.210   3.616
  752TIP3    H1 2262   3.895   4.242   3.580
  752TIP3    H2 2263   3.836   4.164   3.696
  753TIP3   OH2 2264   1.493   2.813   2.911
  753TIP3    H1 2265   1.405   2.849   2.906
  753TIP3    H2 2266   1.489   2.749   2.982
  754TIP3   OH2 2267   5.865   1.055   0.426
  754TIP3    H1 2268   5.874   1.119   0.497
  754TIP3    H2 2269   5.934   0.991   0.441
  755TIP3   OH2 2270   1.593   1.888   0.977
  755TIP3    H1 2271   1.552   1.811   0.939
  755TIP3    H2 2272   1.521   1.935   1.020
  756TIP3   OH2 2273   3.262   4.372   2.997
  756TIP3    H1 2274   3.167   4.372   3.011
  756TIP3    H2 2275   3.272   4.347   2.906
  757TIP3   OH2 2276   1.349   2.786   1.502
  757TIP3    H1 2277   1.293   2.812   1.576
  757TIP3    H2 2278   1.372   2.869   1.460
  758TIP3   OH2 2279   3.608   0.635   0.768
  758TIP3    H1 2280   3.593   0.541   0.778
  758TIP3    H2 2281   3.678   0.655   0.830
  759TIP3   OH2 2282   2.033   5.583   2.495
  759TIP3    H1 2283   2.085   5.602   2.417
  759TIP3    H2 2284   1.983   5.663   2.510
  760TIP3   OH2 2285   2.904   3.433   4.963
  760TIP3    H1 2286   2.881   3.483   5.041
  760TIP3    H2 2287   2.820   3.407   4.926
  761TIP3   OH2 2288   4.804   2.358   3.939
  761TIP3    H1 2289   4.804   2.395   3.851
  761TIP3    H2 2290   4.804   2.435   3.997
  762TIP3   OH2 2291   6.329   1.723   4.305
  762TIP3    H1 2292   6.256   1.770   4.266
  762TIP3    H2 2293   6.356   1.777   4.379
  763TIP3   OH2 2294   6.287   4.933   5.117
  763TIP3    H1 2295   6.274   4.845   5.153
  763TIP3    H2 2296   6.253   4.992   5.184
  764TIP3   OH2 2297   3.448   5.918   3.828
  764TIP3    H1 2298   3.424   5.899   3.919
  764TIP3    H2 2299   3.540   5.943   3.832
  765TIP3   OH2 2300   4.261   1.458   4.964
  765TIP3    H1 2301   4.246   1.370   4.931
  765TIP3    H2 2302   4.347   1.454   5.006
  766TIP3   OH2 2303   0.034   4.084   2.465
  766TIP3    H1 2304   0.096   4.101   2.395
  766TIP3    H2 2305   0.045   3.991   2.485
  767TIP3   OH2 2306   5.276   3.508   4.611
  767TIP3    H1 2307   5.321   3.549   4.537
  767TIP3    H2 2308   5.193   3.555   4.618
  768TIP3   OH2 2309   1.284   1.831   0.053
  768TIP3    H1 2310   1.287   1.783  -0.029
  768TIP3    H2 2311   1.241   1.772   0.114
  769TIP3   OH2 2312   2.550   2.091   3.356
  769TIP3    H1 2313   2.598   2.045   3.425
  769TIP3    H2 2314   2.528   2.022   3.293
  770TIP3   OH2 2315   5.779   3.683   0.997
  770TIP3    H1 2316   5.769   3.768   0.954
  770TIP3    H2 2317   5.767   3.619   0.927
  771TIP3   OH2 2318   0.206   5.874   3.492
  771TIP3    H1 2319   0.148   5.862   3.567
  771TIP3    H2 2320   0.196   5.965   3.468
  772TIP3   OH2 2321   4.432   3.776   4.095
  772TIP3    H1 2322   4.486   3.746   4.022
  772TIP3    H2 2323   4.350   3.727   4.087
  773TIP3   OH2 2324   1.699   4.899   0.554
  773TIP3    H1 2325   1.732   4.820   0.512
  773TIP3    H2 2326   1.768   4.964   0.542
  774TIP3   OH2 2327   4.011   0.974   5.028
  774TIP3    H1 2328   3.962   1.022   4.960
  774TIP3    H2 2329   4.103   0.999   5.012
  775TIP3   OH2 2330   3.035   1.931   4.588
  775TIP3    H1 2331   2.970   1.953   4.521
  775TIP3    H2 2332   2.991   1.949   4.671
  776TIP3   OH2 2333   4.218   2.855   4.528
  776TIP3    H1 2334   4.252   2.880   4.614
  776TIP3    H2 2335   4.142   2.800   4.547
  777TIP3   OH2 2336   4.080   0.540   3.617
  777TIP3    H1 2337   4.016   0.470   3.601
  777TIP3    H2 2338   4.039   0.618   3.579
  778TIP3   OH2 2339   4.721   5.034   2.310
  778TIP3    H1 2340   4.798   5.087   2.328
  778TIP3    H2 2341   4.663   5.092   2.261
  779TIP3   OH2 2342   6.183   3.367   4.808
  779TIP3    H1 2343   6.168   3.274   4.790
  779TIP3    H2 2344   6.133   3.413   4.741
  780TIP3   OH2 2345   5.983   2.502   1.515
  780TIP3    H1 2346   6.075   2.493   1.542
  780TIP3    H2 2347   5.941   2.423   1.546
  781TIP3   OH2 2348   1.065   3.739   4.557
  781TIP3    H1 2349   1.038   3.786   4.636
  781TIP3    H2 2350   1.115   3.804   4.506
  782TIP3   OH2 2351   2.988   1.340   2.145
  782TIP3    H1 2352   2.997   1.376   2.233
  782TIP3    H2 2353   3.061   1.377   2.096
  783TIP3   OH2 2354   3.050   3.832   4.747
  783TIP3    H1 2355   3.079   3.761   4.804
  783TIP3    H2 2356   2.981   3.876   4.798
  784TIP3   OH2 2357   2.733   3.932   2.428
  784TIP3    H1 2358   2.761   3.841   2.413
  784TIP3    H2 2359   2.814   3.980   2.440
  785TIP3   OH2 2360   4.464   5.160   3.356
  785TIP3    H1 2361   4.500   5.198   3.276
  785TIP3    H2 2362   4.398   5.098   3.325
  786TIP3   OH2 2363   6.019   5.365   2.378
  786TIP3    H1 2364   6.014   5.285   2.325
  786TIP3    H2 2365   5.978   5.433   2.325
  787TIP3   OH2 2366   4.244   5.579   2.832
  787TIP3    H1 2367   4.184   5.652   2.844
  787TIP3    H2 2368   4.326   5.620   2.804
  788TIP3   OH2 2369   5.347   1.290   0.901
  788TIP3    H1 2370   5.305   1.236   0.833
  788TIP3    H2 2371   5.311   1.257   0.983
  789TIP3   OH2 2372   3.161   1.410   1.949
  789TIP3    H1 2373   3.221   1.350   1.994
  789TIP3    H2 2374   3.195   1.416   1.860
  790TIP3   OH2 2375   6.250   3.837   2.189
  790TIP3    H1 2376   6.314   3.776   2.227
  790TIP3    H2 2377   6.182   3.781   2.152
  791TIP3   OH2 2378   3.087   1.709   0.619
  791TIP3    H1 2379   3.097   1.644   0.689
  791TIP3    H2 2380   3.025   1.670   0.558
  792TIP3   OH2 2381   2.634   2.324   2.281
  792TIP3    H1 2382   2.597   2.238   2.259
  792TIP3    H2 2383   2.623   2.376   2.202
  793TIP3   OH2 2384   2.210   0.823   4.863
  793TIP3    H1 2385   2.201   0.874   4.943
  793TIP3    H2 2386   2.127   0.776   4.855
  794TIP3   OH2 2387  -0.012   1.448   3.476
  794TIP3    H1 2388  -0.060   1.485   3.401
  794TIP3    H2 2389   0.080   1.451   3.449
  795TIP3   OH2 2390   2.005   0.766   0.061
  795TIP3    H1 2391   2.041   0.678   0.067
  795TIP3    H2 2392   1.962   0.780   0.146
  796TIP3   OH2 2393   0.879   0.463   0.495
  796TIP3    H1 2394   0.943   0.534   0.505
  796TIP3    H2 2395   0.891   0.432   0.405
  797TIP3   OH2 2396   6.293   4.085   3.656
  797TIP3    H1 2397   6.259   4.105   3.568
  797TIP3    H2 2398   6.216   4.058   3.706
  798TIP3   OH2 2399   2.345   0.088   4.569
  798TIP3    H1 2400   2.397   0.129   4.638
  798TIP3    H2 2401   2.277   0.039   4.615
  799TIP3   OH2 2402   5.291   3.615   2.332
  799TIP3    H1 2403   5.270   3.521   2.337
  799TIP3    H2 2404   5.357   3.621   2.264
  800TIP3   OH2 2405   1.005   3.504   4.433
  800TIP3    H1 2406   1.026   3.591   4.466
  800TIP3    H2 2407   1.080   3.480   4.379
  801TIP3   OH2 2408   5.582   4.701   0.235
  801TIP3    H1 2409   5.533   4.634   0.282
  801TIP3    H2 2410   5.652   4.653   0.190
  802TIP3   OH2 2411   2.790   1.029   4.749
  802TIP3    H1 2412   2.751   0.944   4.729
  802TIP3    H2 2413   2.776   1.081   4.670
  803TIP3   OH2 2414   0.445   5.909   3.989
  803TIP3    H1 2415   0.526   5.885   4.036
  803TIP3    H2 2416   0.375   5.896   4.053
  804TIP3   OH2 2417   5.679   0.846   2.338
  804TIP3    H1 2418   5.673   0.752   2.357
  804TIP3    H2 2419   5.770   0.868   2.354
  805TIP3   OH2 2420   2.314   0.706   0.370
  805TIP3    H1 2421   2.220   0.698   0.361
  805TIP3    H2 2422   2.332   0.800   0.356
  806TIP3   OH2 2423   4.377   0.212   1.369
  806TIP3    H1 2424   4.438   0.145   1.338
  806TIP3    H2 2425   4.293   0.167   1.373
  807TIP3   OH2 2426   5.209   5.287   0.391
  807TIP3    H1 2427   5.233   5.372   0.429
  807TIP3    H2 2428   5.165   5.240   0.462
  808TIP3   OH2 2429   0.987   3.525   1.485
  808TIP3    H1 2430   0.931   3.536   1.408
  808TIP3    H2 2431   0.928   3.488   1.552
  809TIP3   OH2 2432   0.620   1.231   0.974
  809TIP3    H1 2433   0.606   1.212   0.882
  809TIP3    H2 2434   0.555   1.298   0.995
  810TIP3   OH2 2435   3.730   5.964   3.679
  810TIP3    H1 2436   3.807   5.909   3.672
  810TIP3    H2 2437   3.738   6.008   3.763
  811TIP3   OH2 2438   4.925   5.484   2.761
  811TIP3    H1 2439   4.890   5.416   2.818
  811TIP3    H2 2440   5.016   5.460   2.747
  812TIP3   OH2 2441   1.974   5.630   2.018
  812TIP3    H1 2442   1.909   5.621   1.948
  812TIP3    H2 2443   1.974   5.546   2.062
  813TIP3   OH2 2444   3.981   1.360   5.168
  813TIP3    H1 2445   3.987   1.332   5.076
  813TIP3    H2 2446   4.015   1.286   5.218
  814TIP3   OH2 2447   4.379   5.877   1.363
  814TIP3    H1 2448   4.340   5.825   1.433
  814TIP3    H2 2449   4.455   5.826   1.335
  815TIP3   OH2 2450   1.628   4.959   2.825
  815TIP3    H1 2451   1.536   4.974   2.803
  815TIP3    H2 2452   1.650   5.029   2.886
  816TIP3   OH2 2453   4.888   5.630   3.498
  816TIP3    H1 2454   4.802   5.647   3.460
  816TIP3    H2 2455   4.869   5.591   3.583
  817TIP3   OH2 2456   1.053   3.736   4.946
  817TIP3    H1 2457   1.058   3.654   4.897
  817TIP3    H2 2458   1.127   3.788   4.913
  818TIP3   OH2 2459   2.367   4.951   1.503
  818TIP3    H1 2460   2.316   4.924   1.580
  818TIP3    H2 2461   2.422   5.023   1.535
  819TIP3   OH2 2462   3.408   4.951   3.575
  819TIP3    H1 2463   3.356   4.907   3.508
  819TIP3    H2 2464   3.346   4.969   3.646
  820TIP3   OH2 2465   1.911   1.902   0.071
  820TIP3    H1 2466   1.941   1.812   0.069
  820TIP3    H2 2467   1.830   1.901   0.020
  821TIP3   OH2 2468   4.831   5.797   0.265
  821TIP3    H1 2469   4.887   5.775   0.339
  821TIP3    H2 2470   4.828   5.718   0.212
  822TIP3   OH2 2471   2.706   3.059   1.122
  822TIP3    H1 2472   2.775   3.061   1.055
  822TIP3    H2 2473   2.699   2.967   1.146
  823TIP3   OH2 2474   4.882   3.754   4.144
  823TIP3    H1 2475   4.808   3.713   4.188
  823TIP3    H2 2476   4.884   3.843   4.179
  824TIP3   OH2 2477   3.248   2.849   0.011
  824TIP3    H1 2478   3.285   2.850   0.100
  824TIP3    H2 2479   3.153   2.848   0.026
  825TIP3   OH2 2480   4.488   2.834   4.890
  825TIP3    H1 2481   4.542   2.758   4.912
  825TIP3    H2 2482   4.545   2.909   4.906
  826TIP3   OH2 2483   5.460   1.117   4.373
  826TIP3    H1 2484   5.429   1.062   4.446
  826TIP3    H2 2485   5.555   1.120   4.385
  827TIP3   OH2 2486   1.624   0.744   2.664
  827TIP3    H1 2487   1.665   0.810   2.607
  827TIP3    H2 2488   1.630   0.781   2.752
  828TIP3   OH2 2489   3.904   2.849   2.702
  828TIP3    H1 2490   3.906   2.945   2.695
  828TIP3    H2 2491   3.912   2.832   2.795
  829TIP3   OH2 2492   6.030   4.549   2.669
  829TIP3    H1 2493   6.044   4.506   2.754
  829TIP3    H2 2494   5.956   4.608   2.684
  830TIP3   OH2 2495   4.687   4.648   1.167
  830TIP3    H1 2496   4.703   4.737   1.137
  830TIP3    H2 2497   4.774   4.611   1.183
  831TIP3   OH2 2498   2.210   4.241   1.868
  831TIP3    H1 2499   2.275   4.214   1.932
  831TIP3    H2 2500   2.151   4.298   1.916
  832TIP3   OH2 2501   0.519   5.765   0.804
  832TIP3    H1 2502   0.588   5.737   0.744
  832TIP3    H2 2503   0.552   5.743   0.891
  833TIP3   OH2 2504   0.138   0.767   5.064
  833TIP3    H1 2505   0.187   0.756   5.146
  833TIP3    H2 2506   0.167   0.693   5.009
  834TIP3   OH2 2507   2.883   0.754   0.689
  834TIP3    H1 2508   2.951   0.745   0.622
  834TIP3    H2 2509   2.930   0.787   0.766
  835TIP3   OH2 2510   5.767   3.147   4.176
  835TIP3    H1 2511   5.706   3.073   4.171
  835TIP3    H2 2512   5.845   3.111   4.217
  836TIP3   OH2 2513   2.133   0.666   2.381
  836TIP3    H1 2514   2.089   0.741   2.340
  836TIP3    H2 2515   2.207   0.705   2.429
  837TIP3   OH2 2516   5.390   0.606   3.568
  837TIP3    H1 2517   5.295   0.612   3.557
  837TIP3    H2 2518   5.421   0.559   3.490
  838TIP3   OH2 2519   2.456   0.890   2.819
  838TIP3    H1 2520   2.448   0.799   2.788
  838TIP3    H2 2521   2.504   0.934   2.749
  839TIP3   OH2 2522   2.976   4.331   4.576
  839TIP3    H1 2523   3.029   4.265   4.532
  839TIP3    H2 2524   2.934   4.284   4.648
  840TIP3   OH2 2525   0.754   4.878   3.305
  840TIP3    H1 2526   0.760   4.799   3.252
  840TIP3    H2 2527   0.747   4.949   3.241
  841TIP3   OH2 2528   1.939   4.705   4.777
  841TIP3    H1 2529   1.953   4.724   4.870
  841TIP3    H2 2530   1.879   4.773   4.747
  842TIP3   OH2 2531   5.688   5.959   2.426
  842TIP3    H1 2532   5.717   5.937   2.338
  842TIP3    H2 2533   5.602   6.000   2.413
  843TIP3   OH2 2534   0.026   0.844   4.538
  843TIP3    H1 2535  -0.069   0.858   4.528
  843TIP3    H2 2536   0.065   0.893   4.466
  844TIP3   OH2 2537   3.083   0.455   0.828
  844TIP3    H1 2538   3.146   0.469   0.898
  844TIP3    H2 2539   3.000   0.437   0.873
  845TIP3   OH2 2540   1.713   5.014   4.989
  845TIP3    H1 2541   1.704   4.920   4.978
  845TIP3    H2 2542   1.802   5.026   5.021
  846TIP3   OH2 2543   0.548   1.829   4.692
  846TIP3    H1 2544   0.561   1.923   4.710
  846TIP3    H2 2545   0.454   1.820   4.679
  847TIP3   OH2 2546   3.911   2.902   3.991
  847TIP3    H1 2547   3.976   2.875   3.927
  847TIP3    H2 2548   3.905   2.828   4.052
  848TIP3   OH2 2549   0.791   1.902   1.533
  848TIP3    H1 2550   0.776   1.824   1.588
  848TIP3    H2 2551   0.838   1.962   1.590
  849TIP3   OH2 2552   0.109   3.380   4.813
  849TIP3    H1 2553   0.015   3.372   4.798
  849TIP3    H2 2554   0.148   3.314   4.756
  850TIP3   OH2 2555   3.493   0.432   0.548
  850TIP3    H1 2556   3.525   0.444   0.458
  850TIP3    H2 2557   3.421   0.494   0.555
  851TIP3   OH2 2558   2.491   4.328   1.780
  851TIP3    H1 2559   2.452   4.411   1.754
  851TIP3    H2 2560   2.426   4.262   1.753
  852TIP3   OH2 2561   3.261   5.252   0.438
  852TIP3    H1 2562   3.201   5.307   0.387
  852TIP3    H2 2563   3.205   5.210   0.503
  853TIP3   OH2 2564   4.668   0.032   3.807
  853TIP3    H1 2565   4.612   0.081   3.748
  853TIP3    H2 2566   4.742   0.091   3.825
  854TIP3   OH2 2567   2.204   3.902   2.536
  854TIP3    H1 2568   2.279   3.944   2.579
  854TIP3    H2 2569   2.160   3.852   2.605
  855TIP3   OH2 2570   5.829   0.490   1.615
  855TIP3    H1 2571   5.924   0.506   1.609
  855TIP3    H2 2572   5.811   0.492   1.709
  856TIP3   OH2 2573   1.671   4.807   1.161
  856TIP3    H1 2574   1.654   4.776   1.072
  856TIP3    H2 2575   1.594   4.779   1.211
  857TIP3   OH2 2576   4.338   4.779   4.819
  857TIP3    H1 2577   4.301   4.865   4.800
  857TIP3    H2 2578   4.385   4.791   4.902
  858TIP3   OH2 2579   3.059   4.844   3.954
  858TIP3    H1 2580   3.079   4.833   4.047
  858TIP3    H2 2581   2.965   4.864   3.952
  859TIP3   OH2 2582   2.362   2.203   2.409
  859TIP3    H1 2583   2.445   2.248   2.420
  859TIP3    H2 2584   2.314   2.222   2.490
  860TIP3   OH2 2585   6.227   5.696   0.099
  860TIP3    H1 2586   6.255   5.697   0.008
  860TIP3    H2 2587   6.135   5.722   0.097
  861TIP3   OH2 2588   2.724   5.052   1.447
  861TIP3    H1 2589   2.673   5.131   1.428
  861TIP3    H2 2590   2.721   5.044   1.542
  862TIP3   OH2 2591   1.328   0.159   5.192
  862TIP3    H1 2592   1.270   0.134   5.120
  862TIP3    H2 2593   1.403   0.200   5.150
  863TIP3   OH2 2594   4.136   0.162   4.893
  863TIP3    H1 2595   4.108   0.097   4.958
  863TIP3    H2 2596   4.054   0.197   4.857
  864TIP3   OH2 2597   2.542   3.319   0.516
  864TIP3    H1 2598   2.532   3.375   0.439
  864TIP3    H2 2599   2.635   3.297   0.517
  865TIP3   OH2 2600   4.550   1.371   2.031
  865TIP3    H1 2601   4.477   1.391   2.089
  865TIP3    H2 2602   4.623   1.349   2.090
  866TIP3   OH2 2603   0.496   3.901   0.597
  866TIP3    H1 2604   0.514   3.807   0.593
  866TIP3    H2 2605   0.414   3.911   0.548
  867TIP3   OH2 2606   0.060   3.484   3.336
  867TIP3    H1 2607   0.107   3.435   3.404
  867TIP3    H2 2608   0.114   3.561   3.320
  868TIP3   OH2 2609   1.718   0.680   0.571
  868TIP3    H1 2610   1.683   0.723   0.649
  868TIP3    H2 2611   1.791   0.627   0.603
  869TIP3   OH2 2612   6.050   2.844   0.761
  869TIP3    H1 2613   6.064   2.778   0.829
  869TIP3    H2 2614   6.099   2.921   0.791
  870TIP3   OH2 2615   1.991   3.153   2.813
  870TIP3    H1 2616   2.063   3.177   2.755
  870TIP3    H2 2617   1.921   3.125   2.754
  871TIP3   OH2 2618   5.510   5.917   3.505
  871TIP3    H1 2619   5.595   5.943   3.540
  871TIP3    H2 2620   5.526   5.834   3.460
  872TIP3   OH2 2621  -0.008   4.571   3.287
  872TIP3    H1 2622  -0.051   4.643   3.241
  872TIP3    H2 2623   0.062   4.544   3.227
  873TIP3   OH2 2624   5.335   2.482   3.084
  873TIP3    H1 2625   5.392   2.433   3.025
  873TIP3    H2 2626   5.312   2.419   3.152
  874TIP3   OH2 2627   2.364   0.101   1.394
  874TIP3    H1 2628   2.446   0.133   1.358
  874TIP3    H2 2629   2.297   0.155   1.353
  875TIP3   OH2 2630   4.272   2.704   5.064
  875TIP3    H1 2631   4.319   2.782   5.035
  875TIP3    H2 2632   4.321   2.630   5.028
  876TIP3   OH2 2633   0.303   3.029   1.614
  876TIP3    H1 2634   0.243   3.100   1.592
  876TIP3    H2 2635   0.255   2.975   1.676
  877TIP3   OH2 2636   0.074   5.565   2.665
  877TIP3    H1 2637   0.060   5.652   2.628
  877TIP3    H2 2638   0.026   5.506   2.606
  878TIP3   OH2 2639   1.598   1.260   4.720
  878TIP3    H1 2640   1.678   1.220   4.687
  878TIP3    H2 2641   1.623   1.301   4.802
  879TIP3   OH2 2642   2.811   5.647   4.402
  879TIP3    H1 2643   2.851   5.668   4.487
  879TIP3    H2 2644   2.872   5.587   4.360
  880TIP3   OH2 2645   1.006   1.620   4.946
  880TIP3    H1 2646   0.919   1.658   4.960
  880TIP3    H2 2647   0.989   1.529   4.922
  881TIP3   OH2 2648   5.925   1.013   1.529
  881TIP3    H1 2649   5.989   1.054   1.588
  881TIP3    H2 2650   5.960   0.926   1.513
  882TIP3   OH2 2651   1.619   0.478   2.736
  882TIP3    H1 2652   1.657   0.441   2.656
  882TIP3    H2 2653   1.641   0.571   2.732
  883TIP3   OH2 2654   3.616   5.721   2.734
  883TIP3    H1 2655   3.524   5.696   2.731
  883TIP3    H2 2656   3.635   5.730   2.827
  884TIP3   OH2 2657   4.641   2.051   3.209
  884TIP3    H1 2658   4.580   2.070   3.138
  884TIP3    H2 2659   4.651   2.134   3.256
  885TIP3   OH2 2660   5.566   5.816   4.690
  885TIP3    H1 2661   5.493   5.804   4.628
  885TIP3    H2 2662   5.524   5.832   4.774
  886TIP3   OH2 2663   3.771   0.450   0.438
  886TIP3    H1 2664   3.705   0.438   0.369
  886TIP3    H2 2665   3.818   0.530   0.412
  887TIP3   OH2 2666   0.124   0.803   2.701
  887TIP3    H1 2667   0.171   0.764   2.775
  887TIP3    H2 2668   0.041   0.832   2.739
  888TIP3   OH2 2669   1.325   4.535   4.216
  888TIP3    H1 2670   1.340   4.454   4.265
  888TIP3    H2 2671   1.301   4.505   4.128
  889TIP3   OH2 2672   1.581   0.905   1.321
  889TIP3    H1 2673   1.533   0.903   1.238
  889TIP3    H2 2674   1.513   0.908   1.388
  890TIP3   OH2 2675   0.505   3.833   2.430
  890TIP3    H1 2676   0.499   3.896   2.501
  890TIP3    H2 2677   0.599   3.827   2.411
  891TIP3   OH2 2678   3.636   0.629   2.654
  891TIP3    H1 2679   3.658   0.678   2.733
  891TIP3    H2 2680   3.546   0.600   2.668
  892TIP3   OH2 2681   1.617   5.591   3.921
  892TIP3    H1 2682   1.637   5.648   3.995
  892TIP3    H2 2683   1.651   5.638   3.844
  893TIP3   OH2 2684   1.860   1.672   2.815
  893TIP3    H1 2685   1.847   1.579   2.797
  893TIP3    H2 2686   1.827   1.716   2.737
  894TIP3   OH2 2687   3.590   0.121   1.140
  894TIP3    H1 2688   3.597   0.086   1.051
  894TIP3    H2 2689   3.680   0.125   1.172
  895TIP3   OH2 2690   0.703   4.586   3.677
  895TIP3    H1 2691   0.725   4.501   3.638
  895TIP3    H2 2692   0.628   4.568   3.734
  896TIP3   OH2 2693   2.436   3.769   1.721
  896TIP3    H1 2694   2.394   3.700   1.669
  896TIP3    H2 2695   2.428   3.848   1.667
  897TIP3   OH2 2696   2.533   2.676   3.238
  897TIP3    H1 2697   2.613   2.637   3.204
  897TIP3    H2 2698   2.562   2.730   3.312
  898TIP3   OH2 2699   5.061   5.719   4.220
  898TIP3    H1 2700   5.071   5.714   4.315
  898TIP3    H2 2701   5.075   5.629   4.190
  899TIP3   OH2 2702   4.222   1.287   1.651
  899TIP3    H1 2703   4.248   1.351   1.585
  899TIP3    H2 2704   4.270   1.208   1.627
  900TIP3   OH2 2705   3.387   4.027   3.759
  900TIP3    H1 2706   3.462   4.051   3.704
  900TIP3    H2 2707   3.336   4.108   3.766
  901TIP3   OH2 2708   3.294   5.837   0.154
  901TIP3    H1 2709   3.341   5.809   0.233
  901TIP3    H2 2710   3.227   5.769   0.141
  902TIP3   OH2 2711   2.129   1.993   1.567
  902TIP3    H1 2712   2.033   1.990   1.560
  902TIP3    H2 2713   2.159   1.995   1.476
  903TIP3   OH2 2714   3.415   2.586   5.028
  903TIP3    H1 2715   3.491   2.530   5.012
  903TIP3    H2 2716   3.397   2.576   5.122
  904TIP3   OH2 2717   2.018   4.073   4.215
  904TIP3    H1 2718   1.963   4.124   4.275
  904TIP3    H2 2719   1.956   4.023   4.162
  905TIP3   OH2 2720   4.996   1.641   2.958
  905TIP3    H1 2721   4.963   1.729   2.939
  905TIP3    H2 2722   4.918   1.585   2.952
  906TIP3   OH2 2723   5.627   3.108   2.788
  906TIP3    H1 2724   5.723   3.114   2.796
  906TIP3    H2 2725   5.612   3.030   2.735
  907TIP3   OH2 2726   5.481   3.689   4.731
  907TIP3    H1 2727   5.475   3.758   4.664
  907TIP3    H2 2728   5.483   3.737   4.814
  908TIP3   OH2 2729   4.220   5.458   4.361
  908TIP3    H1 2730   4.279   5.405   4.414
  908TIP3    H2 2731   4.132   5.425   4.381
  909TIP3   OH2 2732   0.031   4.306   0.767
  909TIP3    H1 2733   0.021   4.259   0.849
  909TIP3    H2 2734  -0.049   4.287   0.718
  910TIP3   OH2 2735   0.968   4.604   1.146
  910TIP3    H1 2736   0.893   4.610   1.205
  910TIP3    H2 2737   1.023   4.678   1.169
  911TIP3   OH2 2738   4.043   5.131   3.792
  911TIP3    H1 2739   4.128   5.169   3.770
  911TIP3    H2 2740   3.979   5.192   3.755
  912TIP3   OH2 2741   6.002   4.784   4.473
  912TIP3    H1 2742   5.979   4.812   4.384
  912TIP3    H2 2743   6.081   4.833   4.494
  913TIP3   OH2 2744   0.737   5.250   1.235
  913TIP3    H1 2745   0.754   5.180   1.298
  913TIP3    H2 2746   0.644   5.267   1.243
  914TIP3   OH2 2747   4.360   4.183   2.036
  914TIP3    H1 2748   4.386   4.093   2.052
  914TIP3    H2 2749   4.287   4.177   1.974
  915TIP3   OH2 2750   5.263   2.913   4.965
  915TIP3    H1 2751   5.293   2.880   5.050
  915TIP3    H2 2752   5.299   3.001   4.959
  916TIP3   OH2 2753   1.686   4.522   2.839
  916TIP3    H1 2754   1.649   4.446   2.793
  916TIP3    H2 2755   1.753   4.556   2.779
  917TIP3   OH2 2756   2.686   4.584   0.720
  917TIP3    H1 2757   2.613   4.522   0.726
  917TIP3    H2 2758   2.671   4.630   0.637
  918TIP3   OH2 2759   0.900   2.675   4.200
  918TIP3    H1 2760   0.845   2.720   4.265
  918TIP3    H2 2761   0.964   2.627   4.253
  919TIP3   OH2 2762   6.179   5.102   3.608
  919TIP3    H1 2763   6.259   5.133   3.651
  919TIP3    H2 2764   6.199   5.108   3.514
  920TIP3   OH2 2765   2.169   2.405   3.867
  920TIP3    H1 2766   2.094   2.466   3.861
  920TIP3    H2 2767   2.230   2.448   3.927
  921TIP3   OH2 2768   0.839   2.659   4.644
  921TIP3    H1 2769   0.858   2.596   4.713
  921TIP3    H2 2770   0.837   2.744   4.688
  922TIP3   OH2 2771   4.315   2.511   2.239
  922TIP3    H1 2772   4.243   2.567   2.270
  922TIP3    H2 2773   4.353   2.559   2.166
  923TIP3   OH2 2774   5.666   3.237   2.173
  923TIP3    H1 2775   5.575   3.208   2.184
  923TIP3    H2 2776   5.707   3.221   2.258
  924TIP3   OH2 2777   6.285   4.393   2.424
  924TIP3    H1 2778   6.242   4.454   2.364
  924TIP3    H2 2779   6.369   4.434   2.443
  925TIP3   OH2 2780   4.772   0.093   0.385
  925TIP3    H1 2781   4.767   0.124   0.294
  925TIP3    H2 2782   4.703   0.027   0.391
  926TIP3   OH2 2783   6.134   3.610   0.146
  926TIP3    H1 2784   6.058   3.614   0.087
  926TIP3    H2 2785   6.204   3.652   0.096
  927TIP3   OH2 2786   3.418   4.068   1.650
  927TIP3    H1 2787   3.363   4.098   1.578
  927TIP3    H2 2788   3.395   4.126   1.723
  928TIP3   OH2 2789   4.248   0.600   0.850
  928TIP3    H1 2790   4.180   0.611   0.783
  928TIP3    H2 2791   4.224   0.518   0.894
  929TIP3   OH2 2792   0.279   5.316   3.718
  929TIP3    H1 2793   0.254   5.408   3.708
  929TIP3    H2 2794   0.355   5.318   3.776
  930TIP3   OH2 2795   1.549   4.472   3.327
  930TIP3    H1 2796   1.471   4.519   3.300
  930TIP3    H2 2797   1.587   4.439   3.246
  931TIP3   OH2 2798   2.478   2.148   2.721
  931TIP3    H1 2799   2.388   2.178   2.725
  931TIP3    H2 2800   2.524   2.216   2.672
  932TIP3   OH2 2801   2.657   3.141   2.805
  932TIP3    H1 2802   2.594   3.175   2.742
  932TIP3    H2 2803   2.725   3.100   2.751
  933TIP3   OH2 2804   3.672   1.926   5.070
  933TIP3    H1 2805   3.747   1.977   5.101
  933TIP3    H2 2806   3.608   1.992   5.042
  934TIP3   OH2 2807   2.457   5.887   4.078
  934TIP3    H1 2808   2.483   5.975   4.052
  934TIP3    H2 2809   2.379   5.868   4.026
  935TIP3   OH2 2810   1.734   4.666   0.375
  935TIP3    H1 2811   1.725   4.585   0.425
  935TIP3    H2 2812   1.804   4.649   0.312
  936TIP3   OH2 2813   4.568   3.363   1.117
  936TIP3    H1 2814   4.582   3.280   1.162
  936TIP3    H2 2815   4.486   3.352   1.069
  937TIP3   OH2 2816   0.478   5.298   4.147
  937TIP3    H1 2817   0.525   5.234   4.094
  937TIP3    H2 2818   0.537   5.318   4.219
  938TIP3   OH2 2819   2.005   0.195   0.978
  938TIP3    H1 2820   1.977   0.283   1.004
  938TIP3    H2 2821   2.098   0.204   0.958
  939TIP3   OH2 2822   4.118   0.435   0.278
  939TIP3    H1 2823   4.035   0.466   0.242
  939TIP3    H2 2824   4.117   0.340   0.261
  940TIP3   OH2 2825   4.832   4.847   0.724
  940TIP3    H1 2826   4.793   4.793   0.793
  940TIP3    H2 2827   4.787   4.819   0.644
  941TIP3   OH2 2828   6.298   2.371   3.477
  941TIP3    H1 2829   6.223   2.313   3.467
  941TIP3    H2 2830   6.307   2.413   3.391
  942TIP3   OH2 2831   4.122   5.527   3.851
  942TIP3    H1 2832   4.132   5.622   3.850
  942TIP3    H2 2833   4.129   5.502   3.943
  943TIP3   OH2 2834   4.126   4.327   0.217
  943TIP3    H1 2835   4.043   4.311   0.173
  943TIP3    H2 2836   4.106   4.394   0.282
  944TIP3   OH2 2837   1.999   3.202   4.959
  944TIP3    H1 2838   2.067   3.207   4.892
  944TIP3    H2 2839   1.960   3.290   4.959
  945TIP3   OH2 2840   2.666   2.748   0.352
  945TIP3    H1 2841   2.696   2.804   0.281
  945TIP3    H2 2842   2.578   2.780   0.373
  946TIP3   OH2 2843   5.932   0.015   2.793
  946TIP3    H1 2844   5.932   0.004   2.888
  946TIP3    H2 2845   6.021   0.042   2.772
  947TIP3   OH2 2846   1.094   0.268   0.086
  947TIP3    H1 2847   1.052   0.189   0.054
  947TIP3    H2 2848   1.141   0.241   0.165
  948TIP3   OH2 2849   6.052   3.331   0.757
  948TIP3    H1 2850   5.987   3.268   0.790
  948TIP3    H2 2851   6.092   3.287   0.682
  949TIP3   OH2 2852   1.952   2.446   1.776
  949TIP3    H1 2853   2.022   2.433   1.712
  949TIP3    H2 2854   1.992   2.496   1.847
  950TIP3   OH2 2855   4.648   0.144   4.870
  950TIP3    H1 2856   4.663   0.235   4.846
  950TIP3    H2 2857   4.726   0.097   4.839
  951TIP3   OH2 2858   2.297   5.625   3.759
  951TIP3    H1 2859   2.227   5.617   3.694
  951TIP3    H2 2860   2.292   5.543   3.809
  952TIP3   OH2 2861   1.936   0.287   4.306
  952TIP3    H1 2862   1.903   0.210   4.352
  952TIP3    H2 2863   2.015   0.311   4.354
  953TIP3   OH2 2864   1.192   4.295   0.599
  953TIP3    H1 2865   1.274   4.345   0.601
  953TIP3    H2 2866   1.134   4.341   0.660
  954TIP3   OH2 2867   0.019   1.567   0.388
  954TIP3    H1 2868   0.030   1.558   0.483
  954TIP3    H2 2869   0.051   1.655   0.369
  955TIP3   OH2 2870   3.154   2.960   3.341
  955TIP3    H1 2871   3.156   2.866   3.322
  955TIP3    H2 2872   3.246   2.982   3.359
  956TIP3   OH2 2873   5.705   5.327   3.471
  956TIP3    H1 2874   5.673   5.350   3.558
  956TIP3    H2 2875   5.713   5.411   3.426
  957TIP3   OH2 2876   4.343   5.610   2.227
  957TIP3    H1 2877   4.339   5.658   2.310
  957TIP3    H2 2878   4.339   5.518   2.254
  958TIP3   OH2 2879   6.299   4.707   3.702
  958TIP3    H1 2880   6.314   4.790   3.748
  958TIP3    H2 2881   6.221   4.722   3.649
  959TIP3   OH2 2882   4.886   1.533   5.029
  959TIP3    H1 2883   4.934   1.467   5.080
  959TIP3    H2 2884   4.882   1.496   4.941
  960TIP3   OH2 2885   5.801   4.630   1.276
  960TIP3    H1 2886   5.777   4.555   1.222
  960TIP3    H2 2887   5.869   4.674   1.226
  961TIP3   OH2 2888   2.711   3.269   3.581
  961TIP3    H1 2889   2.775   3.230   3.640
  961TIP3    H2 2890   2.628   3.229   3.607
  962TIP3   OH2 2891   2.370   4.054   2.722
  962TIP3    H1 2892   2.453   4.095   2.696
  962TIP3    H2 2893   2.332   4.115   2.785
  963TIP3   OH2 2894   0.527   0.761   2.855
  963TIP3    H1 2895   0.498   0.717   2.775
  963TIP3    H2 2896   0.613   0.724   2.873
  964TIP3   OH2 2897   1.516   3.285   0.280
  964TIP3    H1 2898   1.441   3.235   0.248
  964TIP3    H2 2899   1.538   3.243   0.363
  965TIP3   OH2 2900   2.986   2.767   0.017
  965TIP3    H1 2901   2.938   2.722  -0.053
  965TIP3    H2 2902   2.992   2.702   0.087
  966TIP3   OH2 2903   5.980   1.700   4.493
  966TIP3    H1 2904   5.902   1.655   4.526
  966TIP3    H2 2905   5.946   1.765   4.432
  967TIP3   OH2 2906   3.944   4.138   3.023
  967TIP3    H1 2907   3.985   4.079   2.960
  967TIP3    H2 2908   4.004   4.212   3.030
  968TIP3   OH2 2909   4.130   2.562   4.220
  968TIP3    H1 2910   4.214   2.608   4.231
  968TIP3    H2 2911   4.144   2.507   4.143
  969TIP3   OH2 2912   3.760   2.004   1.361
  969TIP3    H1 2913   3.786   2.096   1.348
  969TIP3    H2 2914   3.690   1.990   1.296
  970TIP3   OH2 2915   0.530   0.545   4.100
  970TIP3    H1 2916   0.439   0.568   4.081
  970TIP3    H2 2917   0.579   0.625   4.080
  971TIP3   OH2 2918   3.444   3.202   3.694
  971TIP3    H1 2919   3.521   3.257   3.712
  971TIP3    H2 2920   3.441   3.196   3.599
  972TIP3   OH2 2921   6.251   4.194   1.766
  972TIP3    H1 2922   6.252   4.238   1.681
  972TIP3    H2 2923   6.158   4.179   1.784
  973TIP3   OH2 2924   0.789   5.767   0.149
  973TIP3    H1 2925   0.847   5.808   0.213
  973TIP3    H2 2926   0.710   5.822   0.150
  974TIP3   OH2 2927   1.386   5.919   2.049
  974TIP3    H1 2928   1.471   5.878   2.038
  974TIP3    H2 2929   1.381   5.984   1.978
  975TIP3   OH2 2930   4.011   0.511   2.899
  975TIP3    H1 2931   3.921   0.483   2.913
  975TIP3    H2 2932   4.036   0.471   2.816
  976TIP3   OH2 2933   4.763   0.880   4.117
  976TIP3    H1 2934   4.756   0.918   4.205
  976TIP3    H2 2935   4.739   0.788   4.129
  977TIP3   OH2 2936   0.700   4.189   0.918
  977TIP3    H1 2937   0.765   4.168   0.852
  977TIP3    H2 2938   0.663   4.104   0.943
  978TIP3   OH2 2939   5.477   2.660   3.661
  978TIP3    H1 2940   5.555   2.704   3.698
  978TIP3    H2 2941   5.501   2.568   3.657
  979TIP3   OH2 2942   0.754   4.246   1.783
  979TIP3    H1 2943   0.696   4.322   1.773
  979TIP3    H2 2944   0.697   4.176   1.814
  980TIP3   OH2 2945   5.710   4.647   0.720
  980TIP3    H1 2946   5.759   4.647   0.638
  980TIP3    H2 2947   5.629   4.695   0.700
  981TIP3   OH2 2948   0.181   1.958   4.264
  981TIP3    H1 2949   0.194   1.865   4.283
  981TIP3    H2 2950   0.124   1.959   4.188
  982TIP3   OH2 2951   1.284   3.589   3.991
  982TIP3    H1 2952   1.376   3.612   4.006
  982TIP3    H2 2953   1.286   3.517   3.929
  983TIP3   OH2 2954   1.697   3.945   0.504
  983TIP3    H1 2955   1.777   3.942   0.451
  983TIP3    H2 2956   1.715   3.888   0.579
  984TIP3   OH2 2957   0.474   2.464   4.415
  984TIP3    H1 2958   0.426   2.520   4.476
  984TIP3    H2 2959   0.561   2.504   4.409
  985TIP3   OH2 2960   0.451   2.962   3.756
  985TIP3    H1 2961   0.489   3.037   3.710
  985TIP3    H2 2962   0.523   2.926   3.807
  986TIP3   OH2 2963   6.006   1.979   3.344
  986TIP3    H1 2964   5.964   1.910   3.292
  986TIP3    H2 2965   5.956   1.980   3.426
  987TIP3   OH2 2966   5.797   1.453   5.172
  987TIP3    H1 2967   5.709   1.486   5.192
  987TIP3    H2 2968   5.818   1.490   5.086
  988TIP3   OH2 2969   5.728   3.848   2.537
  988TIP3    H1 2970   5.666   3.890   2.596
  988TIP3    H2 2971   5.790   3.917   2.514
  989TIP3   OH2 2972   6.333   0.292   4.293
  989TIP3    H1 2973   6.319   0.384   4.317
  989TIP3    H2 2974   6.280   0.280   4.215
  990TIP3   OH2 2975   5.532   2.968   3.880
  990TIP3    H1 2976   5.565   2.879   3.873
  990TIP3    H2 2977   5.489   2.985   3.796
  991TIP3   OH2 2978   1.301   1.655   3.163
  991TIP3    H1 2979   1.386   1.699   3.157
  991TIP3    H2 2980   1.299   1.621   3.253
  992TIP3   OH2 2981   5.622   4.578   4.583
  992TIP3    H1 2982   5.713   4.549   4.584
  992TIP3    H2 2983   5.571   4.497   4.571
  993TIP3   OH2 2984   5.530   0.652   1.263
  993TIP3    H1 2985   5.564   0.563   1.253
  993TIP3    H2 2986   5.529   0.687   1.174
  994TIP3   OH2 2987   4.839   3.428   1.685
  994TIP3    H1 2988   4.822   3.350   1.738
  994TIP3    H2 2989   4.863   3.496   1.749
  995TIP3   OH2 2990   5.694   3.971   2.880
  995TIP3    H1 2991   5.636   4.047   2.883
  995TIP3    H2 2992   5.636   3.896   2.894
  996TIP3   OH2 2993   3.266   5.534   1.163
  996TIP3    H1 2994   3.209   5.459   1.147
  996TIP3    H2 2995   3.325   5.505   1.232
  997TIP3   OH2 2996   2.085   4.562   0.949
  997TIP3    H1 2997   2.008   4.551   0.892
  997TIP3    H2 2998   2.090   4.481   0.999
  998TIP3   OH2 2999   1.841   0.636   4.136
  998TIP3    H1 3000   1.865   0.657   4.046
  998TIP3    H2 3001   1.748   0.658   4.142
  999TIP3   OH2 3002   1.599   3.589   0.994
  999TIP3    H1 3003   1.673   3.648   1.008
  999TIP3    H2 3004   1.628   3.529   0.926
 1000TIP3   OH2 3005   4.723   3.181   0.446
 1000TIP3    H1 3006   4.717   3.111   0.381
 1000TIP3    H2 3007   4.769   3.252   0.400
 1001TIP3   OH2 3008   2.760   1.595   1.807
 1001TIP3    H1 3009   2.695   1.574   1.740
 1001TIP3    H2 3010   2.842   1.604   1.758
 1002TIP3   OH2 3011   1.858   1.230   4.127
 1002TIP3    H1 3012   1.914   1.292   4.080
 1002TIP3    H2 3013   1.794   1.285   4.172
 1003TIP3   OH2 3014   1.446   0.874   1.112
 1003TIP3    H1 3015   1.491   0.802   1.067
 1003TIP3    H2 3016   1.360   0.878   1.070
 1004TIP3   OH2 3017   0.209   0.086   4.114
 1004TIP3    H1 3018   0.178   0.172   4.087
 1004TIP3    H2 3019   0.164   0.069   4.197
 1005TIP3   OH2 3020   1.460   4.236   4.544
 1005TIP3    H1 3021   1.386   4.257   4.600
 1005TIP3    H2 3022   1.432   4.259   4.456
 1006TIP3   OH2 3023   0.863   3.179   4.750
 1006TIP3    H1 3024   0.802   3.247   4.780
 1006TIP3    H2 3025   0.939   3.187   4.808
 1007TIP3   OH2 3026   1.614   5.789   0.832
 1007TIP3    H1 3027   1.679   5.788   0.903
 1007TIP3    H2 3028   1.532   5.810   0.876
 1008TIP3   OH2 3029   5.585   4.544   2.518
 1008TIP3    H1 3030   5.656   4.512   2.574
 1008TIP3    H2 3031   5.625   4.614   2.466
 1009TIP3   OH2 3032   5.579   0.191   2.488
 1009TIP3    H1 3033   5.662   0.144   2.494
 1009TIP3    H2 3034   5.512   0.122   2.488
 1010TIP3   OH2 3035   4.778   4.681   2.601
 1010TIP3    H1 3036   4.793   4.688   2.507
 1010TIP3    H2 3037   4.709   4.615   2.609
 1011TIP3   OH2 3038   3.728   4.949   5.062
 1011TIP3    H1 3039   3.665   4.953   4.990
 1011TIP3    H2 3040   3.808   4.918   5.022
 1012TIP3   OH2 3041   1.663   4.158   2.762
 1012TIP3    H1 3042   1.620   4.073   2.756
 1012TIP3    H2 3043   1.591   4.220   2.774
 1013TIP3   OH2 3044   2.437   4.177   4.632
 1013TIP3    H1 3045   2.372   4.171   4.703
 1013TIP3    H2 3046   2.394   4.136   4.557
 1014TIP3   OH2 3047   4.944   0.394   3.401
 1014TIP3    H1 3048   4.999   0.327   3.359
 1014TIP3    H2 3049   4.915   0.450   3.330
 1015TIP3   OH2 3050   4.087   3.281   0.101
 1015TIP3    H1 3051   4.120   3.223   0.033
 1015TIP3    H2 3052   4.000   3.247   0.121
 1016TIP3   OH2 3053   6.009   0.467   3.673
 1016TIP3    H1 3054   5.963   0.465   3.758
 1016TIP3    H2 3055   5.939   0.467   3.608
 1017TIP3   OH2 3056   2.871   4.111   2.061
 1017TIP3    H1 3057   2.863   4.025   2.021
 1017TIP3    H2 3058   2.797   4.161   2.027
 1018TIP3   OH2 3059   0.552   4.926   4.113
 1018TIP3    H1 3060   0.611   4.953   4.183
 1018TIP3    H2 3061   0.602   4.940   4.032
 1019TIP3   OH2 3062   3.769   2.661   0.167
 1019TIP3    H1 3063   3.791   2.571   0.193
 1019TIP3    H2 3064   3.684   2.654   0.124
 1020TIP3   OH2 3065   2.825   4.787   2.434
 1020TIP3    H1 3066   2.781   4.703   2.449
 1020TIP3    H2 3067   2.766   4.834   2.376
 1021TIP3   OH2 3068   3.797   2.536   4.568
 1021TIP3    H1 3069   3.770   2.554   4.478
 1021TIP3    H2 3070   3.717   2.507   4.612
 1022TIP3   OH2 3071   6.265   3.029   0.789
 1022TIP3    H1 3072   6.315   3.073   0.858
 1022TIP3    H2 3073   6.244   3.098   0.727
 1023TIP3   OH2 3074   1.658   1.406   4.232
 1023TIP3    H1 3075   1.637   1.499   4.242
 1023TIP3    H2 3076   1.611   1.378   4.154
 1024TIP3   OH2 3077   0.308   4.999   3.768
 1024TIP3    H1 3078   0.225   5.002   3.816
 1024TIP3    H2 3079   0.348   5.084   3.783
 1025TIP3   OH2 3080   3.384   1.818   1.057
 1025TIP3    H1 3081   3.321   1.832   0.987
 1025TIP3    H2 3082   3.337   1.767   1.122
 1026TIP3   OH2 3083   2.659   5.936   1.868
 1026TIP3    H1 3084   2.571   5.972   1.877
 1026TIP3    H2 3085   2.658   5.856   1.920
 1027TIP3   OH2 3086   6.231   3.281   3.827
 1027TIP3    H1 3087   6.184   3.239   3.755
 1027TIP3    H2 3088   6.227   3.219   3.899
 1028TIP3   OH2 3089   2.807   3.008   0.340
 1028TIP3    H1 3090   2.800   3.050   0.255
 1028TIP3    H2 3091   2.779   3.075   0.402
 1029TIP3   OH2 3092   0.780   5.910   2.237
 1029TIP3    H1 3093   0.716   5.858   2.188
 1029TIP3    H2 3094   0.800   5.984   2.180
 1030TIP3   OH2 3095   6.083   2.349   0.011
 1030TIP3    H1 3096   6.021   2.407   0.056
 1030TIP3    H2 3097   6.142   2.319   0.081
 1031TIP3   OH2 3098   4.838   3.025   1.373
 1031TIP3    H1 3099   4.864   3.011   1.282
 1031TIP3    H2 3100   4.901   3.089   1.406
 1032TIP3   OH2 3101   5.574   2.132   2.472
 1032TIP3    H1 3102   5.629   2.187   2.416
 1032TIP3    H2 3103   5.498   2.110   2.418
 1033TIP3   OH2 3104   2.845   4.928   2.831
 1033TIP3    H1 3105   2.915   4.974   2.877
 1033TIP3    H2 3106   2.796   4.997   2.787
 1034TIP3   OH2 3107   4.009   5.521   2.181
 1034TIP3    H1 3108   3.962   5.455   2.232
 1034TIP3    H2 3109   4.099   5.490   2.177
 1035TIP3   OH2 3110   1.578   4.885   1.894
 1035TIP3    H1 3111   1.583   4.795   1.926
 1035TIP3    H2 3112   1.573   4.939   1.972
 1036TIP3   OH2 3113   1.531   3.625   4.799
 1036TIP3    H1 3114   1.616   3.627   4.753
 1036TIP3    H2 3115   1.524   3.711   4.840
 1037TIP3   OH2 3116   1.571   5.478   0.823
 1037TIP3    H1 3117   1.595   5.567   0.797
 1037TIP3    H2 3118   1.496   5.456   0.768
 1038TIP3   OH2 3119   2.916   4.951   0.570
 1038TIP3    H1 3120   2.938   4.859   0.556
 1038TIP3    H2 3121   2.865   4.952   0.651
 1039TIP3   OH2 3122   2.217   4.852   3.389
 1039TIP3    H1 3123   2.219   4.924   3.452
 1039TIP3    H2 3124   2.238   4.892   3.305
 1040TIP3   OH2 3125   3.645   2.727   2.185
 1040TIP3    H1 3126   3.567   2.762   2.142
 1040TIP3    H2 3127   3.692   2.804   2.217
 1041TIP3   OH2 3128   5.319   1.713   2.738
 1041TIP3    H1 3129   5.272   1.630   2.727
 1041TIP3    H2 3130   5.250   1.778   2.749
 1042TIP3   OH2 3131   0.953   1.972   0.973
 1042TIP3    H1 3132   0.931   1.902   1.034
 1042TIP3    H2 3133   0.911   1.947   0.891
 1043TIP3   OH2 3134   6.333   2.456   2.462
 1043TIP3    H1 3135   6.296   2.435   2.548
 1043TIP3    H2 3136   6.264   2.506   2.418
 1044TIP3   OH2 3137   1.245   2.972   0.390
 1044TIP3    H1 3138   1.229   3.055   0.345
 1044TIP3    H2 3139   1.337   2.952   0.371
 1045TIP3   OH2 3140   3.135   0.933   2.294
 1045TIP3    H1 3141   3.104   0.985   2.219
 1045TIP3    H2 3142   3.217   0.974   2.320
 1046TIP3   OH2 3143   2.600   2.349   2.584
 1046TIP3    H1 3144   2.595   2.379   2.493
 1046TIP3    H2 3145   2.561   2.420   2.635
 1047TIP3   OH2 3146   4.221   2.277   2.095
 1047TIP3    H1 3147   4.234   2.359   2.142
 1047TIP3    H2 3148   4.162   2.299   2.023
 1048TIP3   OH2 3149   3.903   4.448   2.734
 1048TIP3    H1 3150   3.913   4.394   2.655
 1048TIP3    H2 3151   3.926   4.536   2.706
 1049TIP3   OH2 3152   2.131   4.935   2.149
 1049TIP3    H1 3153   2.086   5.011   2.112
 1049TIP3    H2 3154   2.100   4.861   2.098
 1050TIP3   OH2 3155   4.102   3.434   3.189
 1050TIP3    H1 3156   4.051   3.507   3.225
 1050TIP3    H2 3157   4.075   3.358   3.240
 1051TIP3   OH2 3158   0.247   2.315   2.778
 1051TIP3    H1 3159   0.297   2.287   2.855
 1051TIP3    H2 3160   0.295   2.279   2.704
 1052TIP3   OH2 3161   4.050   0.406   4.325
 1052TIP3    H1 3162   4.108   0.482   4.328
 1052TIP3    H2 3163   4.081   0.356   4.249
 1053TIP3   OH2 3164   2.077   0.935   2.231
 1053TIP3    H1 3165   2.164   0.976   2.237
 1053TIP3    H2 3166   2.039   0.946   2.318
 1054TIP3   OH2 3167   3.194   2.390   2.844
 1054TIP3    H1 3168   3.146   2.328   2.790
 1054TIP3    H2 3169   3.132   2.416   2.912
 1055TIP3   OH2 3170   5.488   4.482   2.883
 1055TIP3    H1 3171   5.577   4.446   2.878
 1055TIP3    H2 3172   5.439   4.434   2.816
 1056TIP3   OH2 3173   1.812   3.726   1.175
 1056TIP3    H1 3174   1.782   3.639   1.200
 1056TIP3    H2 3175   1.907   3.715   1.161
 1057TIP3   OH2 3176   4.557   1.532   2.808
 1057TIP3    H1 3177   4.513   1.603   2.855
 1057TIP3    H2 3178   4.593   1.574   2.730
 1058TIP3   OH2 3179   3.279   3.128   1.476
 1058TIP3    H1 3180   3.353   3.098   1.423
 1058TIP3    H2 3181   3.242   3.047   1.512
 1059TIP3   OH2 3182   5.919   3.865   5.085
 1059TIP3    H1 3183   5.916   3.830   5.174
 1059TIP3    H2 3184   5.944   3.956   5.097
 1060TIP3   OH2 3185   2.102   1.374   0.061
 1060TIP3    H1 3186   2.143   1.290   0.082
 1060TIP3    H2 3187   2.008   1.358   0.072
 1061TIP3   OH2 3188   0.234   4.179   4.163
 1061TIP3    H1 3189   0.186   4.180   4.245
 1061TIP3    H2 3190   0.172   4.214   4.099
 1062TIP3   OH2 3191   5.332   4.617   4.054
 1062TIP3    H1 3192   5.267   4.625   4.124
 1062TIP3    H2 3193   5.307   4.538   4.007
 1063TIP3   OH2 3194   2.714   1.348   1.998
 1063TIP3    H1 3195   2.726   1.428   1.947
 1063TIP3    H2 3196   2.799   1.331   2.037
 1064TIP3   OH2 3197   0.343   3.180   2.444
 1064TIP3    H1 3198   0.303   3.264   2.423
 1064TIP3    H2 3199   0.398   3.160   2.369
 1065TIP3   OH2 3200   5.164   1.969   2.766
 1065TIP3    H1 3201   5.113   2.045   2.740
 1065TIP3    H2 3202   5.214   1.998   2.842
 1066TIP3   OH2 3203   1.809   2.440   4.403
 1066TIP3    H1 3204   1.853   2.490   4.334
 1066TIP3    H2 3205   1.875   2.376   4.430
 1067TIP3   OH2 3206   5.462   5.938   4.951
 1067TIP3    H1 3207   5.434   5.902   5.035
 1067TIP3    H2 3208   5.381   5.958   4.905
 1068TIP3   OH2 3209   4.169   5.571   5.002
 1068TIP3    H1 3210   4.225   5.625   5.057
 1068TIP3    H2 3211   4.148   5.628   4.927
 1069TIP3   OH2 3212   6.302   2.601   2.739
 1069TIP3    H1 3213   6.269   2.674   2.686
 1069TIP3    H2 3214   6.396   2.597   2.718
 1070TIP3   OH2 3215   2.769   4.346   1.468
 1070TIP3    H1 3216   2.744   4.430   1.506
 1070TIP3    H2 3217   2.689   4.294   1.470
 1071TIP3   OH2 3218   4.003   0.064   1.080
 1071TIP3    H1 3219   3.938  -0.006   1.093
 1071TIP3    H2 3220   4.012   0.070   0.985
 1072TIP3   OH2 3221   0.367   1.586   0.426
 1072TIP3    H1 3222   0.326   1.517   0.479
 1072TIP3    H2 3223   0.320   1.665   0.451
 1073TIP3   OH2 3224   2.349   2.130   3.541
 1073TIP3    H1 3225   2.321   2.041   3.561
 1073TIP3    H2 3226   2.422   2.118   3.480
 1074TIP3   OH2 3227   1.084   0.986   4.828
 1074TIP3    H1 3228   1.132   0.973   4.746
 1074TIP3    H2 3229   1.108   1.074   4.856
 1075TIP3   OH2 3230   5.857   1.272   4.462
 1075TIP3    H1 3231   5.891   1.212   4.396
 1075TIP3    H2 3232   5.923   1.273   4.531
 1076TIP3   OH2 3233   1.443   0.030   0.775
 1076TIP3    H1 3234   1.481   0.044   0.688
 1076TIP3    H2 3235   1.349   0.042   0.761
 1077TIP3   OH2 3236   5.024   2.776   2.562
 1077TIP3    H1 3237   5.072   2.854   2.534
 1077TIP3    H2 3238   4.957   2.809   2.622
 1078TIP3   OH2 3239   3.351   1.949   4.256
 1078TIP3    H1 3240   3.303   2.031   4.244
 1078TIP3    H2 3241   3.443   1.975   4.251
 1079TIP3   OH2 3242   1.187   0.120   3.150
 1079TIP3    H1 3243   1.128   0.189   3.120
 1079TIP3    H2 3244   1.273   0.148   3.120
 1080TIP3   OH2 3245   4.902   4.499   4.371
 1080TIP3    H1 3246   4.827   4.555   4.350
 1080TIP3    H2 3247   4.879   4.461   4.455
 1081TIP3   OH2 3248   4.000   4.601   4.853
 1081TIP3    H1 3249   4.074   4.556   4.894
 1081TIP3    H2 3250   4.020   4.601   4.760
 1082TIP3   OH2 3251   3.468   0.275   1.623
 1082TIP3    H1 3252   3.557   0.309   1.634
 1082TIP3    H2 3253   3.476   0.210   1.553
 1083TIP3   OH2 3254   0.942   3.739   0.410
 1083TIP3    H1 3255   0.915   3.809   0.469
 1083TIP3    H2 3256   0.983   3.674   0.468
 1084TIP3   OH2 3257   5.804   4.392   1.112
 1084TIP3    H1 3258   5.758   4.406   1.030
 1084TIP3    H2 3259   5.888   4.354   1.087
 1085TIP3   OH2 3260   5.987   4.158   4.700
 1085TIP3    H1 3261   5.954   4.071   4.721
 1085TIP3    H2 3262   6.076   4.144   4.669
 1086TIP3   OH2 3263   1.147   2.529   0.573
 1086TIP3    H1 3264   1.149   2.523   0.668
 1086TIP3    H2 3265   1.240   2.529   0.547
 1087TIP3   OH2 3266   2.281   1.545   3.070
 1087TIP3    H1 3267   2.300   1.452   3.084
 1087TIP3    H2 3268   2.341   1.571   2.999
 1088TIP3   OH2 3269   1.234   4.680   1.726
 1088TIP3    H1 3270   1.271   4.640   1.805
 1088TIP3    H2 3271   1.154   4.630   1.709
 1089TIP3   OH2 3272   4.062   2.234   1.181
 1089TIP3    H1 3273   4.130   2.301   1.179
 1089TIP3    H2 3274   4.110   2.151   1.183
 1090TIP3   OH2 3275   6.027   5.560   1.106
 1090TIP3    H1 3276   6.098   5.610   1.065
 1090TIP3    H2 3277   5.950   5.582   1.053
 1091TIP3   OH2 3278   0.809   1.413   0.845
 1091TIP3    H1 3279   0.858   1.340   0.882
 1091TIP3    H2 3280   0.718   1.383   0.844
 1092TIP3   OH2 3281   5.974   2.391   0.417
 1092TIP3    H1 3282   6.027   2.456   0.463
 1092TIP3    H2 3283   5.899   2.376   0.474
 1093TIP3   OH2 3284   3.263   2.108   0.583
 1093TIP3    H1 3285   3.300   2.042   0.641
 1093TIP3    H2 3286   3.306   2.093   0.499
 1094TIP3   OH2 3287   0.408   4.557   2.937
 1094TIP3    H1 3288   0.488   4.560   2.989
 1094TIP3    H2 3289   0.437   4.574   2.847
 1095TIP3   OH2 3290   2.550   3.746   0.621
 1095TIP3    H1 3291   2.638   3.723   0.652
 1095TIP3    H2 3292   2.539   3.837   0.648
 1096TIP3   OH2 3293   6.056   3.033   0.131
 1096TIP3    H1 3294   5.980   2.975   0.125
 1096TIP3    H2 3295   6.088   3.022   0.220
 1097TIP3   OH2 3296   0.912   0.026   2.363
 1097TIP3    H1 3297   0.947   0.032   2.452
 1097TIP3    H2 3298   0.889   0.116   2.340
 1098TIP3   OH2 3299   4.018   0.341   1.102
 1098TIP3    H1 3300   4.012   0.247   1.084
 1098TIP3    H2 3301   4.092   0.371   1.049
 1099TIP3   OH2 3302   2.207   0.692   2.103
 1099TIP3    H1 3303   2.199   0.670   2.196
 1099TIP3    H2 3304   2.121   0.729   2.079
 1100TIP3   OH2 3305   2.625   5.526   2.958
 1100TIP3    H1 3306   2.531   5.533   2.970
 1100TIP3    H2 3307   2.661   5.605   2.999
 1101TIP3   OH2 3308   0.735   1.216   4.458
 1101TIP3    H1 3309   0.741   1.303   4.498
 1101TIP3    H2 3310   0.641   1.201   4.446
 1102TIP3   OH2 3311   3.846   3.560   4.715
 1102TIP3    H1 3312   3.764   3.518   4.692
 1102TIP3    H2 3313   3.896   3.492   4.761
 1103TIP3   OH2 3314   4.412   5.925   3.176
 1103TIP3    H1 3315   4.460   5.926   3.094
 1103TIP3    H2 3316   4.406   5.833   3.200
 1104TIP3   OH2 3317   4.189   0.218   2.454
 1104TIP3    H1 3318   4.093   0.225   2.454
 1104TIP3    H2 3319   4.215   0.250   2.540
 1105TIP3   OH2 3320   3.005   4.277   1.635
 1105TIP3    H1 3321   2.934   4.262   1.573
 1105TIP3    H2 3322   3.001   4.370   1.655
 1106TIP3   OH2 3323   3.270   3.520   4.507
 1106TIP3    H1 3324   3.276   3.501   4.601
 1106TIP3    H2 3325   3.330   3.459   4.466
 1107TIP3   OH2 3326   5.690   3.774   0.322
 1107TIP3    H1 3327   5.699   3.718   0.398
 1107TIP3    H2 3328   5.610   3.745   0.279
 1108TIP3   OH2 3329   4.784   3.277   0.901
 1108TIP3    H1 3330   4.850   3.279   0.970
 1108TIP3    H2 3331   4.708   3.236   0.941
 1109TIP3   OH2 3332   3.674   2.230   4.436
 1109TIP3    H1 3333   3.602   2.237   4.499
 1109TIP3    H2 3334   3.752   2.215   4.490
 1110TIP3   OH2 3335   4.428   2.172   4.516
 1110TIP3    H1 3336   4.448   2.242   4.454
 1110TIP3    H2 3337   4.332   2.171   4.522
 1111TIP3   OH2 3338   3.621   0.830   0.540
 1111TIP3    H1 3339   3.588   0.805   0.626
 1111TIP3    H2 3340   3.716   0.826   0.549
 1112TIP3   OH2 3341   3.029   0.644   2.404
 1112TIP3    H1 3342   2.951   0.610   2.448
 1112TIP3    H2 3343   3.101   0.591   2.440
 1113TIP3   OH2 3344   5.087   4.476   2.386
 1113TIP3    H1 3345   5.011   4.465   2.443
 1113TIP3    H2 3346   5.158   4.502   2.444
 1114TIP3   OH2 3347   5.325   3.934   0.761
 1114TIP3    H1 3348   5.316   3.962   0.670
 1114TIP3    H2 3349   5.375   4.005   0.803
 1115TIP3   OH2 3350   5.649   1.468   1.356
 1115TIP3    H1 3351   5.588   1.400   1.385
 1115TIP3    H2 3352   5.735   1.428   1.367
 1116TIP3   OH2 3353   2.046   2.193   2.340
 1116TIP3    H1 3354   2.034   2.157   2.427
 1116TIP3    H2 3355   1.967   2.169   2.292
 1117TIP3   OH2 3356   4.160   4.111   1.864
 1117TIP3    H1 3357   4.165   4.066   1.780
 1117TIP3    H2 3358   4.071   4.092   1.895
 1118TIP3   OH2 3359   2.453   5.041   4.216
 1118TIP3    H1 3360   2.444   5.085   4.131
 1118TIP3    H2 3361   2.545   5.015   4.220
 1119TIP3   OH2 3362   3.348   4.954   0.541
 1119TIP3    H1 3363   3.294   5.015   0.590
 1119TIP3    H2 3364   3.313   4.957   0.452
 1120TIP3   OH2 3365   3.847   4.205   0.713
 1120TIP3    H1 3366   3.937   4.231   0.735
 1120TIP3    H2 3367   3.842   4.214   0.618
 1121TIP3   OH2 3368   3.346   1.245   3.623
 1121TIP3    H1 3369   3.350   1.340   3.632
 1121TIP3    H2 3370   3.261   1.228   3.582
 1122TIP3   OH2 3371   2.176   0.893   3.409
 1122TIP3    H1 3372   2.228   0.815   3.431
 1122TIP3    H2 3373   2.085   0.863   3.414
 1123TIP3   OH2 3374   1.033   0.284   4.945
 1123TIP3    H1 3375   0.985   0.366   4.935
 1123TIP3    H2 3376   1.117   0.310   4.983
 1124TIP3   OH2 3377   3.526   5.602   3.860
 1124TIP3    H1 3378   3.489   5.690   3.864
 1124TIP3    H2 3379   3.463   5.547   3.907
 1125TIP3   OH2 3380   5.788   0.571   4.873
 1125TIP3    H1 3381   5.746   0.527   4.799
 1125TIP3    H2 3382   5.824   0.652   4.836
 1126TIP3   OH2 3383   4.362   0.444   2.922
 1126TIP3    H1 3384   4.454   0.469   2.924
 1126TIP3    H2 3385   4.329   0.469   3.008
 1127TIP3   OH2 3386   0.022   5.574   3.488
 1127TIP3    H1 3387   0.101   5.578   3.541
 1127TIP3    H2 3388   0.052   5.596   3.399
 1128TIP3   OH2 3389   0.520   4.473   4.987
 1128TIP3    H1 3390   0.579   4.449   5.058
 1128TIP3    H2 3391   0.566   4.541   4.939
 1129TIP3   OH2 3392   5.540   4.715   3.305
 1129TIP3    H1 3393   5.500   4.653   3.366
 1129TIP3    H2 3394   5.594   4.772   3.360
 1130TIP3   OH2 3395   6.009   5.528   4.693
 1130TIP3    H1 3396   6.098   5.547   4.661
 1130TIP3    H2 3397   5.954   5.533   4.614
 1131TIP3   OH2 3398   5.998   0.777   3.504
 1131TIP3    H1 3399   5.984   0.694   3.550
 1131TIP3    H2 3400   5.912   0.800   3.469
 1132TIP3   OH2 3401   1.198   4.170   4.651
 1132TIP3    H1 3402   1.190   4.091   4.704
 1132TIP3    H2 3403   1.120   4.171   4.597
 1133TIP3   OH2 3404   5.802   1.092   2.944
 1133TIP3    H1 3405   5.721   1.113   2.898
 1133TIP3    H2 3406   5.772   1.060   3.030
 1134TIP3   OH2 3407   0.497   2.870   1.508
 1134TIP3    H1 3408   0.437   2.797   1.490
 1134TIP3    H2 3409   0.444   2.933   1.556
 1135TIP3   OH2 3410   4.231   3.546   1.840
 1135TIP3    H1 3411   4.279   3.485   1.896
 1135TIP3    H2 3412   4.294   3.616   1.821
 1136TIP3   OH2 3413   5.537   4.378   2.281
 1136TIP3    H1 3414   5.625   4.340   2.277
 1136TIP3    H2 3415   5.529   4.409   2.371
 1137TIP3   OH2 3416   4.970   4.766   1.185
 1137TIP3    H1 3417   5.057   4.728   1.172
 1137TIP3    H2 3418   4.960   4.828   1.113
 1138TIP3   OH2 3419   1.293   4.534   3.207
 1138TIP3    H1 3420   1.243   4.615   3.213
 1138TIP3    H2 3421   1.280   4.504   3.117
 1139TIP3   OH2 3422   1.479   1.061   0.846
 1139TIP3    H1 3423   1.390   1.067   0.882
 1139TIP3    H2 3424   1.518   1.146   0.864
 1140TIP3   OH2 3425   0.276   5.134   4.051
 1140TIP3    H1 3426   0.209   5.203   4.043
 1140TIP3    H2 3427   0.350   5.179   4.093
 1141TIP3   OH2 3428   2.289   2.696   1.249
 1141TIP3    H1 3429   2.333   2.775   1.281
 1141TIP3    H2 3430   2.230   2.672   1.320
 1142TIP3   OH2 3431   0.508   5.279   0.962
 1142TIP3    H1 3432   0.419   5.248   0.944
 1142TIP3    H2 3433   0.496   5.347   1.028
 1143TIP3   OH2 3434   1.477   5.670   1.821
 1143TIP3    H1 3435   1.568   5.659   1.795
 1143TIP3    H2 3436   1.475   5.649   1.914
 1144TIP3   OH2 3437   1.535   2.987   3.811
 1144TIP3    H1 3438   1.447   2.948   3.805
 1144TIP3    H2 3439   1.587   2.920   3.854
 1145TIP3   OH2 3440   0.442   1.163   4.414
 1145TIP3    H1 3441   0.375   1.154   4.481
 1145TIP3    H2 3442   0.436   1.083   4.362
 1146TIP3   OH2 3443   3.263   0.120   2.808
 1146TIP3    H1 3444   3.208   0.119   2.729
 1146TIP3    H2 3445   3.203   0.097   2.879
 1147TIP3   OH2 3446   0.989   3.366   3.067
 1147TIP3    H1 3447   1.029   3.320   3.142
 1147TIP3    H2 3448   1.010   3.311   2.992
 1148TIP3   OH2 3449   3.086   1.349   0.969
 1148TIP3    H1 3450   3.135   1.362   1.050
 1148TIP3    H2 3451   2.996   1.372   0.990
 1149TIP3   OH2 3452   4.189   3.655   4.105
 1149TIP3    H1 3453   4.131   3.698   4.167
 1149TIP3    H2 3454   4.141   3.576   4.079
 1150TIP3   OH2 3455   5.608   2.576   4.639
 1150TIP3    H1 3456   5.574   2.613   4.558
 1150TIP3    H2 3457   5.532   2.533   4.679
 1151TIP3   OH2 3458   0.239   3.353   0.485
 1151TIP3    H1 3459   0.224   3.331   0.577
 1151TIP3    H2 3460   0.160   3.398   0.458
 1152TIP3   OH2 3461   1.425   2.551   4.542
 1152TIP3    H1 3462   1.403   2.596   4.461
 1152TIP3    H2 3463   1.352   2.571   4.601
 1153TIP3   OH2 3464   4.743   4.330   0.210
 1153TIP3    H1 3465   4.815   4.277   0.176
 1153TIP3    H2 3466   4.750   4.413   0.164
 1154TIP3   OH2 3467   4.117   3.851   3.871
 1154TIP3    H1 3468   4.104   3.788   3.800
 1154TIP3    H2 3469   4.162   3.803   3.940
 1155TIP3   OH2 3470   1.034   3.175   3.456
 1155TIP3    H1 3471   1.041   3.205   3.366
 1155TIP3    H2 3472   0.988   3.091   3.449
 1156TIP3   OH2 3473   3.905   1.393   2.033
 1156TIP3    H1 3474   3.976   1.447   2.066
 1156TIP3    H2 3475   3.921   1.386   1.939
 1157TIP3   OH2 3476   0.359   1.927   4.020
 1157TIP3    H1 3477   0.452   1.947   4.006
 1157TIP3    H2 3478   0.358   1.873   4.099
 1158TIP3   OH2 3479   5.944   3.847   0.192
 1158TIP3    H1 3480   5.905   3.848   0.279
 1158TIP3    H2 3481   5.898   3.777   0.146
 1159TIP3   OH2 3482   1.275   4.773   0.130
 1159TIP3    H1 3483   1.328   4.805   0.203
 1159TIP3    H2 3484   1.187   4.805   0.148
 1160TIP3   OH2 3485   3.906   0.071   2.175
 1160TIP3    H1 3486   3.885  -0.018   2.149
 1160TIP3    H2 3487   3.852   0.126   2.117
 1161TIP3   OH2 3488   3.331   0.062   0.932
 1161TIP3    H1 3489   3.339  -0.026   0.969
 1161TIP3    H2 3490   3.405   0.070   0.872
 1162TIP3   OH2 3491   4.174   4.719   2.520
 1162TIP3    H1 3492   4.256   4.684   2.555
 1162TIP3    H2 3493   4.137   4.647   2.469
 1163TIP3   OH2 3494   1.335   2.978   4.519
 1163TIP3    H1 3495   1.262   3.038   4.533
 1163TIP3    H2 3496   1.361   2.951   4.607
 1164TIP3   OH2 3497   2.794   4.802   0.181
 1164TIP3    H1 3498   2.822   4.754   0.103
 1164TIP3    H2 3499   2.770   4.734   0.244
 1165TIP3   OH2 3500   4.440   1.762   3.895
 1165TIP3    H1 3501   4.409   1.740   3.807
 1165TIP3    H2 3502   4.360   1.762   3.949
 1166TIP3   OH2 3503   3.111   1.603   2.539
 1166TIP3    H1 3504   3.153   1.633   2.459
 1166TIP3    H2 3505   3.050   1.535   2.510
 1167TIP3   OH2 3506   4.163   2.678   1.270
 1167TIP3    H1 3507   4.182   2.585   1.277
 1167TIP3    H2 3508   4.248   2.721   1.284
 1168TIP3   OH2 3509   4.426   1.743   0.696
 1168TIP3    H1 3510   4.470   1.793   0.627
 1168TIP3    H2 3511   4.334   1.741   0.668
 1169TIP3   OH2 3512   6.104   5.244   2.060
 1169TIP3    H1 3513   6.024   5.292   2.078
 1169TIP3    H2 3514   6.107   5.239   1.964
 1170TIP3   OH2 3515   1.297   5.806   1.669
 1170TIP3    H1 3516   1.356   5.749   1.718
 1170TIP3    H2 3517   1.254   5.747   1.606
 1171TIP3   OH2 3518   3.640   3.939   0.877
 1171TIP3    H1 3519   3.601   3.882   0.811
 1171TIP3    H2 3520   3.639   3.887   0.957
 1172TIP3   OH2 3521   5.555   5.144   1.531
 1172TIP3    H1 3522   5.565   5.211   1.599
 1172TIP3    H2 3523   5.570   5.061   1.577
 1173TIP3   OH2 3524   3.023   3.660   0.853
 1173TIP3    H1 3525   3.070   3.698   0.927
 1173TIP3    H2 3526   3.086   3.599   0.814
 1174TIP3   OH2 3527   2.674   4.480   4.688
 1174TIP3    H1 3528   2.733   4.475   4.763
 1174TIP3    H2 3529   2.600   4.424   4.711
 1175TIP3   OH2 3530   0.693   0.639   4.704
 1175TIP3    H1 3531   0.608   0.678   4.721
 1175TIP3    H2 3532   0.732   0.696   4.637
 1176TIP3   OH2 3533   3.041   1.214   3.909
 1176TIP3    H1 3534   2.960   1.191   3.863
 1176TIP3    H2 3535   3.046   1.309   3.901
 1177TIP3   OH2 3536   1.290   4.335   3.429
 1177TIP3    H1 3537   1.245   4.405   3.382
 1177TIP3    H2 3538   1.352   4.381   3.487
 1178TIP3   OH2 3539   3.498   0.789   3.491
 1178TIP3    H1 3540   3.415   0.831   3.516
 1178TIP3    H2 3541   3.525   0.743   3.570
 1179TIP3   OH2 3542   3.258   3.381   0.147
 1179TIP3    H1 3543   3.261   3.373   0.051
 1179TIP3    H2 3544   3.276   3.293   0.179
 1180TIP3   OH2 3545   5.941   2.725   1.277
 1180TIP3    H1 3546   5.941   2.690   1.367
 1180TIP3    H2 3547   5.850   2.720   1.250
 1181TIP3   OH2 3548   0.162   3.906   3.133
 1181TIP3    H1 3549   0.143   3.953   3.215
 1181TIP3    H2 3550   0.175   3.976   3.068
 1182TIP3   OH2 3551   2.624   2.431   1.326
 1182TIP3    H1 3552   2.538   2.399   1.352
 1182TIP3    H2 3553   2.609   2.477   1.243
 1183TIP3   OH2 3554   5.864   4.094   2.703
 1183TIP3    H1 3555   5.803   4.138   2.645
 1183TIP3    H2 3556   5.810   4.059   2.774
 1184TIP3   OH2 3557   4.424   2.409   0.700
 1184TIP3    H1 3558   4.475   2.436   0.624
 1184TIP3    H2 3559   4.488   2.366   0.758
 1185TIP3   OH2 3560   4.052   4.346   3.591
 1185TIP3    H1 3561   4.088   4.294   3.663
 1185TIP3    H2 3562   4.062   4.436   3.619
 1186TIP3   OH2 3563   1.679   2.177   2.750
 1186TIP3    H1 3564   1.645   2.117   2.684
 1186TIP3    H2 3565   1.701   2.256   2.702
 1187TIP3   OH2 3566   1.334   4.436   2.531
 1187TIP3    H1 3567   1.309   4.344   2.541
 1187TIP3    H2 3568   1.420   4.433   2.490
 1188TIP3   OH2 3569   2.828   3.365   3.344
 1188TIP3    H1 3570   2.790   3.323   3.422
 1188TIP3    H2 3571   2.879   3.295   3.303
 1189TIP3   OH2 3572   0.132   2.051   0.630
 1189TIP3    H1 3573   0.178   1.974   0.595
 1189TIP3    H2 3574   0.162   2.123   0.575
 1190TIP3   OH2 3575   6.047   2.283   3.105
 1190TIP3    H1 3576   6.088   2.318   3.026
 1190TIP3    H2 3577   6.049   2.188   3.094
 1191TIP3   OH2 3578   0.310   3.559   4.821
 1191TIP3    H1 3579   0.252   3.483   4.821
 1191TIP3    H2 3580   0.326   3.576   4.728
 1192TIP3   OH2 3581   3.355   1.766   0.495
 1192TIP3    H1 3582   3.308   1.771   0.578
 1192TIP3    H2 3583   3.288   1.786   0.429
 1193TIP3   OH2 3584   6.149   5.689   1.724
 1193TIP3    H1 3585   6.154   5.739   1.643
 1193TIP3    H2 3586   6.058   5.658   1.727
 1194TIP3   OH2 3587   6.046   5.155   4.989
 1194TIP3    H1 3588   6.014   5.073   4.951
 1194TIP3    H2 3589   5.989   5.223   4.951
 1195TIP3   OH2 3590   0.197   0.857   1.221
 1195TIP3    H1 3591   0.103   0.871   1.214
 1195TIP3    H2 3592   0.223   0.828   1.133
 1196TIP3   OH2 3593   0.395   5.553   2.422
 1196TIP3    H1 3594   0.462   5.576   2.357
 1196TIP3    H2 3595   0.445   5.525   2.499
 1197TIP3   OH2 3596   2.588   1.075   3.910
 1197TIP3    H1 3597   2.634   1.049   3.990
 1197TIP3    H2 3598   2.658   1.092   3.847
 1198TIP3   OH2 3599   4.288   4.307   2.636
 1198TIP3    H1 3600   4.227   4.240   2.668
 1198TIP3    H2 3601   4.315   4.276   2.550
 1199TIP3   OH2 3602   2.735   2.769   2.686
 1199TIP3    H1 3603   2.787   2.717   2.746
 1199TIP3    H2 3604   2.645   2.736   2.698
 1200TIP3   OH2 3605   0.145   5.499   1.904
 1200TIP3    H1 3606   0.109   5.572   1.854
 1200TIP3    H2 3607   0.072   5.437   1.911
 1201TIP3   OH2 3608   4.541   4.311   5.113
 1201TIP3    H1 3609   4.513   4.219   5.112
 1201TIP3    H2 3610   4.477   4.355   5.168
 1202TIP3   OH2 3611   3.358   0.653   0.662
 1202TIP3    H1 3612   3.342   0.742   0.692
 1202TIP3    H2 3613   3.435   0.625   0.711
 1203TIP3   OH2 3614   5.670   3.392   4.802
 1203TIP3    H1 3615   5.737   3.458   4.786
 1203TIP3    H2 3616   5.718   3.313   4.826
 1204TIP3   OH2 3617   2.332   1.244   4.803
 1204TIP3    H1 3618   2.365   1.287   4.881
 1204TIP3    H2 3619   2.287   1.313   4.754
 1205TIP3   OH2 3620   4.687   2.442   3.360
 1205TIP3    H1 3621   4.592   2.433   3.361
 1205TIP3    H2 3622   4.706   2.494   3.282
 1206TIP3   OH2 3623   6.044   4.934   3.944
 1206TIP3    H1 3624   5.987   5.011   3.954
 1206TIP3    H2 3625   6.125   4.970   3.907
 1207TIP3   OH2 3626   5.807   5.120   3.286
 1207TIP3    H1 3627   5.768   5.192   3.336
 1207TIP3    H2 3628   5.756   5.043   3.312
 1208TIP3   OH2 3629   2.492   2.572   1.121
 1208TIP3    H1 3630   2.440   2.518   1.060
 1208TIP3    H2 3631   2.426   2.623   1.169
 1209TIP3   OH2 3632   4.214   5.459   3.089
 1209TIP3    H1 3633   4.222   5.496   3.001
 1209TIP3    H2 3634   4.238   5.530   3.148
 1210TIP3   OH2 3635   0.068   1.977   2.881
 1210TIP3    H1 3636   0.037   1.936   2.961
 1210TIP3    H2 3637   0.032   1.923   2.811
 1211TIP3   OH2 3638   5.244   5.595   3.792
 1211TIP3    H1 3639   5.311   5.544   3.839
 1211TIP3    H2 3640   5.260   5.575   3.700
 1212TIP3   OH2 3641   6.090   4.851   3.569
 1212TIP3    H1 3642   6.096   4.946   3.561
 1212TIP3    H2 3643   6.010   4.836   3.621
 1213TIP3   OH2 3644   3.499   0.921   1.222
 1213TIP3    H1 3645   3.500   0.827   1.237
 1213TIP3    H2 3646   3.406   0.943   1.216
 1214TIP3   OH2 3647   1.224   3.745   4.281
 1214TIP3    H1 3648   1.271   3.684   4.338
 1214TIP3    H2 3649   1.200   3.693   4.204
 1215TIP3   OH2 3650   1.839   3.757   3.880
 1215TIP3    H1 3651   1.764   3.712   3.843
 1215TIP3    H2 3652   1.869   3.700   3.951
 1216TIP3   OH2 3653   1.175   2.298   4.206
 1216TIP3    H1 3654   1.216   2.384   4.209
 1216TIP3    H2 3655   1.082   2.316   4.196
 1217TIP3   OH2 3656   0.554   5.444   0.076
 1217TIP3    H1 3657   0.517   5.524   0.040
 1217TIP3    H2 3658   0.512   5.434   0.161
 1218TIP3   OH2 3659   3.458   5.523   2.501
 1218TIP3    H1 3660   3.396   5.518   2.428
 1218TIP3    H2 3661   3.421   5.589   2.559
 1219TIP3   OH2 3662   5.094   2.468   0.880
 1219TIP3    H1 3663   5.148   2.424   0.814
 1219TIP3    H2 3664   5.049   2.397   0.925
 1220TIP3   OH2 3665   3.044   5.829   3.864
 1220TIP3    H1 3666   2.960   5.809   3.822
 1220TIP3    H2 3667   3.027   5.815   3.958
 1221TIP3   OH2 3668   0.289   3.640   1.486
 1221TIP3    H1 3669   0.335   3.567   1.445
 1221TIP3    H2 3670   0.292   3.710   1.421
 1222TIP3   OH2 3671   1.186   5.786   1.258
 1222TIP3    H1 3672   1.176   5.728   1.334
 1222TIP3    H2 3673   1.146   5.869   1.286
 1223TIP3   OH2 3674   5.249   4.193   2.041
 1223TIP3    H1 3675   5.166   4.224   2.077
 1223TIP3    H2 3676   5.262   4.107   2.080
 1224TIP3   OH2 3677   1.748   1.836   0.334
 1224TIP3    H1 3678   1.691   1.884   0.394
 1224TIP3    H2 3679   1.705   1.842   0.249
 1225TIP3   OH2 3680   0.641   3.354   1.516
 1225TIP3    H1 3681   0.644   3.368   1.422
 1225TIP3    H2 3682   0.711   3.291   1.533
 1226TIP3   OH2 3683   3.152   1.681   2.275
 1226TIP3    H1 3684   3.233   1.720   2.243
 1226TIP3    H2 3685   3.096   1.672   2.198
 1227TIP3   OH2 3686   4.874   0.792   2.539
 1227TIP3    H1 3687   4.850   0.706   2.574
 1227TIP3    H2 3688   4.799   0.818   2.486
 1228TIP3   OH2 3689   5.983   4.029   0.698
 1228TIP3    H1 3690   6.074   4.045   0.670
 1228TIP3    H2 3691   5.932   4.033   0.618
 1229TIP3   OH2 3692   0.861   2.735   3.431
 1229TIP3    H1 3693   0.884   2.646   3.456
 1229TIP3    H2 3694   0.933   2.764   3.375
 1230TIP3   OH2 3695   0.752   0.988   1.124
 1230TIP3    H1 3696   0.686   0.924   1.097
 1230TIP3    H2 3697   0.720   1.072   1.091
 1231TIP3   OH2 3698   2.209   4.842   0.987
 1231TIP3    H1 3699   2.177   4.892   1.063
 1231TIP3    H2 3700   2.165   4.758   0.993
 1232TIP3   OH2 3701   0.499   5.173   2.597
 1232TIP3    H1 3702   0.592   5.185   2.581
 1232TIP3    H2 3703   0.493   5.156   2.691
 1233TIP3   OH2 3704   1.671   2.057   3.232
 1233TIP3    H1 3705   1.717   1.990   3.181
 1233TIP3    H2 3706   1.611   2.097   3.169
 1234TIP3   OH2 3707   4.329   4.908   1.167
 1234TIP3    H1 3708   4.295   4.920   1.256
 1234TIP3    H2 3709   4.276   4.966   1.113
 1235TIP3   OH2 3710   4.765   5.001   3.544
 1235TIP3    H1 3711   4.709   4.923   3.539
 1235TIP3    H2 3712   4.721   5.058   3.607
 1236TIP3   OH2 3713   5.243   0.166   1.635
 1236TIP3    H1 3714   5.197   0.129   1.711
 1236TIP3    H2 3715   5.178   0.222   1.593
 1237TIP3   OH2 3716   1.066   0.314   0.898
 1237TIP3    H1 3717   1.110   0.228   0.899
 1237TIP3    H2 3718   1.036   0.326   0.988
 1238TIP3   OH2 3719   4.184   3.224   2.371
 1238TIP3    H1 3720   4.156   3.134   2.388
 1238TIP3    H2 3721   4.230   3.219   2.287
 1239TIP3   OH2 3722   3.402   1.513   2.500
 1239TIP3    H1 3723   3.492   1.482   2.511
 1239TIP3    H2 3724   3.403   1.602   2.534
 1240TIP3   OH2 3725   4.766   0.468   1.610
 1240TIP3    H1 3726   4.805   0.437   1.691
 1240TIP3    H2 3727   4.754   0.562   1.623
 1241TIP3   OH2 3728   1.554   0.165   2.743
 1241TIP3    H1 3729   1.532   0.253   2.773
 1241TIP3    H2 3730   1.649   0.160   2.751
 1242TIP3   OH2 3731   0.733   3.470   0.185
 1242TIP3    H1 3732   0.809   3.456   0.129
 1242TIP3    H2 3733   0.711   3.383   0.218
 1243TIP3   OH2 3734   1.964   1.390   3.803
 1243TIP3    H1 3735   1.992   1.305   3.836
 1243TIP3    H2 3736   1.872   1.377   3.778
 1244TIP3   OH2 3737   1.412   3.362   2.019
 1244TIP3    H1 3738   1.438   3.275   2.048
 1244TIP3    H2 3739   1.322   3.372   2.050
 1245TIP3   OH2 3740   1.812   1.168   0.959
 1245TIP3    H1 3741   1.738   1.229   0.956
 1245TIP3    H2 3742   1.875   1.211   1.017
 1246TIP3   OH2 3743   3.600   5.079   3.781
 1246TIP3    H1 3744   3.582   5.171   3.761
 1246TIP3    H2 3745   3.542   5.031   3.722
 1247TIP3   OH2 3746   3.778   5.297   2.052
 1247TIP3    H1 3747   3.839   5.322   2.121
 1247TIP3    H2 3748   3.700   5.266   2.098
 1248TIP3   OH2 3749   1.306   5.467   1.725
 1248TIP3    H1 3750   1.369   5.400   1.699
 1248TIP3    H2 3751   1.358   5.540   1.756
 1249TIP3   OH2 3752   5.432   3.168   4.055
 1249TIP3    H1 3753   5.478   3.104   4.000
 1249TIP3    H2 3754   5.360   3.199   4.000
 1250TIP3   OH2 3755   2.069   2.041   0.265
 1250TIP3    H1 3756   2.101   1.963   0.310
 1250TIP3    H2 3757   2.007   2.007   0.200
 1251TIP3   OH2 3758   2.177   1.321   1.640
 1251TIP3    H1 3759   2.165   1.386   1.571
 1251TIP3    H2 3760   2.125   1.246   1.612
 1252TIP3   OH2 3761   4.212   0.223   4.165
 1252TIP3    H1 3762   4.200   0.142   4.116
 1252TIP3    H2 3763   4.307   0.232   4.175
 1253TIP3   OH2 3764   3.449   1.670   0.796
 1253TIP3    H1 3765   3.379   1.609   0.773
 1253TIP3    H2 3766   3.482   1.638   0.880
 1254TIP3   OH2 3767   0.624   1.827   1.321
 1254TIP3    H1 3768   0.552   1.811   1.381
 1254TIP3    H2 3769   0.698   1.852   1.377
 1255TIP3   OH2 3770   1.339   4.498   3.940
 1255TIP3    H1 3771   1.347   4.504   3.845
 1255TIP3    H2 3772   1.429   4.496   3.973
 1256TIP3   OH2 3773   0.513   4.055   1.557
 1256TIP3    H1 3774   0.526   4.052   1.652
 1256TIP3    H2 3775   0.517   4.148   1.536
 1257TIP3   OH2 3776   0.086   4.230   3.847
 1257TIP3    H1 3777   0.064   4.172   3.774
 1257TIP3    H2 3778   0.018   4.297   3.846
 1258TIP3   OH2 3779   4.297   0.644   0.465
 1258TIP3    H1 3780   4.295   0.560   0.420
 1258TIP3    H2 3781   4.324   0.624   0.554
 1259TIP3   OH2 3782   1.752   1.273   2.576
 1259TIP3    H1 3783   1.845   1.293   2.583
 1259TIP3    H2 3784   1.743   1.186   2.616
 1260TIP3   OH2 3785   1.771   3.448   0.352
 1260TIP3    H1 3786   1.710   3.513   0.318
 1260TIP3    H2 3787   1.759   3.372   0.295
 1261TIP3   OH2 3788   2.349   0.088   2.563
 1261TIP3    H1 3789   2.306   0.150   2.622
 1261TIP3    H2 3790   2.361   0.009   2.615
 1262TIP3   OH2 3791   3.658   5.154   2.420
 1262TIP3    H1 3792   3.581   5.100   2.400
 1262TIP3    H2 3793   3.715   5.097   2.472
 1263TIP3   OH2 3794   0.098  -0.018   4.780
 1263TIP3    H1 3795   0.032  -0.023   4.849
 1263TIP3    H2 3796   0.109   0.075   4.764
 1264TIP3   OH2 3797   0.131   2.331   2.282
 1264TIP3    H1 3798   0.067   2.380   2.334
 1264TIP3    H2 3799   0.215   2.355   2.320
 1265TIP3   OH2 3800   5.678   2.483   4.290
 1265TIP3    H1 3801   5.654   2.419   4.357
 1265TIP3    H2 3802   5.728   2.431   4.226
 1266TIP3   OH2 3803   4.583   0.805   1.277
 1266TIP3    H1 3804   4.599   0.848   1.361
 1266TIP3    H2 3805   4.502   0.757   1.290
 1267TIP3   OH2 3806   0.493   2.941   0.100
 1267TIP3    H1 3807   0.585   2.927   0.121
 1267TIP3    H2 3808   0.490   3.031   0.067
 1268TIP3   OH2 3809   4.712   5.969   3.198
 1268TIP3    H1 3810   4.786   5.912   3.220
 1268TIP3    H2 3811   4.724   6.046   3.252
 1269TIP3   OH2 3812   5.583   2.536   2.033
 1269TIP3    H1 3813   5.614   2.498   2.115
 1269TIP3    H2 3814   5.637   2.496   1.965
 1270TIP3   OH2 3815   0.856   3.440   4.930
 1270TIP3    H1 3816   0.778   3.482   4.896
 1270TIP3    H2 3817   0.922   3.451   4.862
 1271TIP3   OH2 3818   0.485   5.491   4.873
 1271TIP3    H1 3819   0.433   5.439   4.933
 1271TIP3    H2 3820   0.496   5.575   4.917
 1272TIP3   OH2 3821   3.056   0.734   4.547
 1272TIP3    H1 3822   2.993   0.804   4.562
 1272TIP3    H2 3823   3.128   0.776   4.499
 1273TIP3   OH2 3824   3.741   4.052   5.006
 1273TIP3    H1 3825   3.767   3.965   4.975
 1273TIP3    H2 3826   3.652   4.040   5.037
 1274TIP3   OH2 3827   0.237   2.570   2.912
 1274TIP3    H1 3828   0.288   2.504   2.958
 1274TIP3    H2 3829   0.207   2.526   2.833
 1275TIP3   OH2 3830   2.246   0.848   3.900
 1275TIP3    H1 3831   2.207   0.904   3.834
 1275TIP3    H2 3832   2.207   0.877   3.983
 1276TIP3   OH2 3833   0.482   5.807   0.442
 1276TIP3    H1 3834   0.489   5.721   0.482
 1276TIP3    H2 3835   0.445   5.790   0.355
 1277TIP3   OH2 3836   2.392   2.245   4.409
 1277TIP3    H1 3837   2.403   2.269   4.317
 1277TIP3    H2 3838   2.425   2.156   4.415
 1278TIP3   OH2 3839   4.456   3.227   2.853
 1278TIP3    H1 3840   4.417   3.262   2.773
 1278TIP3    H2 3841   4.453   3.300   2.915
 1279TIP3   OH2 3842   4.978   2.719   0.891
 1279TIP3    H1 3843   5.050   2.755   0.942
 1279TIP3    H2 3844   5.007   2.631   0.866
 1280TIP3   OH2 3845   1.211   4.476   1.145
 1280TIP3    H1 3846   1.211   4.384   1.172
 1280TIP3    H2 3847   1.119   4.502   1.152
 1281TIP3   OH2 3848   5.503   5.912   1.852
 1281TIP3    H1 3849   5.550   5.844   1.802
 1281TIP3    H2 3850   5.442   5.863   1.907
 1282TIP3   OH2 3851   3.008   1.661   4.810
 1282TIP3    H1 3852   3.057   1.718   4.751
 1282TIP3    H2 3853   3.056   1.665   4.893
 1283TIP3   OH2 3854   0.812   0.392   1.600
 1283TIP3    H1 3855   0.761   0.356   1.672
 1283TIP3    H2 3856   0.756   0.458   1.560
 1284TIP3   OH2 3857   6.055   3.164   1.292
 1284TIP3    H1 3858   6.044   3.134   1.382
 1284TIP3    H2 3859   6.078   3.085   1.242
 1285TIP3   OH2 3860   3.792   2.273   2.869
 1285TIP3    H1 3861   3.793   2.267   2.773
 1285TIP3    H2 3862   3.728   2.206   2.896
 1286TIP3   OH2 3863   5.762   5.188   2.354
 1286TIP3    H1 3864   5.670   5.189   2.382
 1286TIP3    H2 3865   5.759   5.216   2.262
 1287TIP3   OH2 3866   4.029   1.962   3.249
 1287TIP3    H1 3867   3.939   1.948   3.280
 1287TIP3    H2 3868   4.018   2.011   3.167
 1288TIP3   OH2 3869   0.858   0.397   3.941
 1288TIP3    H1 3870   0.907   0.363   4.016
 1288TIP3    H2 3871   0.924   0.430   3.881
 1289TIP3   OH2 3872   3.092   5.670   0.119
 1289TIP3    H1 3873   3.038   5.636   0.190
 1289TIP3    H2 3874   3.154   5.600   0.100
 1290TIP3   OH2 3875   4.044   0.168   4.493
 1290TIP3    H1 3876   4.043   0.246   4.438
 1290TIP3    H2 3877   4.137   0.151   4.509
 1291TIP3   OH2 3878   3.097   4.738   4.947
 1291TIP3    H1 3879   3.038   4.670   4.913
 1291TIP3    H2 3880   3.172   4.735   4.888
 1292TIP3   OH2 3881   5.927   5.011   3.058
 1292TIP3    H1 3882   5.878   5.063   3.122
 1292TIP3    H2 3883   5.893   4.922   3.069
 1293TIP3   OH2 3884   0.994   1.142   0.208
 1293TIP3    H1 3885   1.042   1.074   0.256
 1293TIP3    H2 3886   1.028   1.224   0.243
 1294TIP3   OH2 3887   3.441   5.148   2.974
 1294TIP3    H1 3888   3.464   5.061   2.941
 1294TIP3    H2 3889   3.519   5.201   2.959
 1295TIP3   OH2 3890   0.973   4.511   0.671
 1295TIP3    H1 3891   0.921   4.463   0.607
 1295TIP3    H2 3892   0.918   4.512   0.750
 1296TIP3   OH2 3893   1.520   1.242   0.109
 1296TIP3    H1 3894   1.432   1.207   0.123
 1296TIP3    H2 3895   1.552   1.260   0.197
 1297TIP3   OH2 3896   0.426   3.422   1.330
 1297TIP3    H1 3897   0.467   3.402   1.246
 1297TIP3    H2 3898   0.348   3.367   1.333
 1298TIP3   OH2 3899   2.521   3.649   4.049
 1298TIP3    H1 3900   2.497   3.663   4.141
 1298TIP3    H2 3901   2.605   3.694   4.039
 1299TIP3   OH2 3902   6.315   4.006   2.868
 1299TIP3    H1 3903   6.268   3.983   2.947
 1299TIP3    H2 3904   6.370   3.930   2.849
 1300TIP3   OH2 3905   3.761   4.837   0.474
 1300TIP3    H1 3906   3.691   4.788   0.518
 1300TIP3    H2 3907   3.743   4.928   0.495
 1301TIP3   OH2 3908   6.252   4.762   2.162
 1301TIP3    H1 3909   6.229   4.727   2.248
 1301TIP3    H2 3910   6.348   4.756   2.159
 1302TIP3   OH2 3911   0.142   4.946   3.418
 1302TIP3    H1 3912   0.227   4.926   3.458
 1302TIP3    H2 3913   0.150   4.915   3.328
 1303TIP3   OH2 3914   1.056   2.733   4.001
 1303TIP3    H1 3915   1.125   2.774   4.053
 1303TIP3    H2 3916   0.993   2.701   4.066
 1304TIP3   OH2 3917   0.351   4.925   1.615
 1304TIP3    H1 3918   0.277   4.934   1.556
 1304TIP3    H2 3919   0.331   4.982   1.689
 1305TIP3   OH2 3920   3.492   5.993   2.779
 1305TIP3    H1 3921   3.429   5.967   2.712
 1305TIP3    H2 3922   3.572   5.945   2.756
 1306TIP3   OH2 3923   0.237   5.454   4.448
 1306TIP3    H1 3924   0.207   5.534   4.491
 1306TIP3    H2 3925   0.305   5.419   4.506
 1307TIP3   OH2 3926   1.218   5.339   3.582
 1307TIP3    H1 3927   1.302   5.296   3.565
 1307TIP3    H2 3928   1.177   5.283   3.649
 1308TIP3   OH2 3929   2.091   3.803   2.777
 1308TIP3    H1 3930   2.064   3.882   2.824
 1308TIP3    H2 3931   2.164   3.768   2.829
 1309TIP3   OH2 3932   0.159   2.746   2.378
 1309TIP3    H1 3933   0.152   2.841   2.387
 1309TIP3    H2 3934   0.070   2.714   2.391
 1310TIP3   OH2 3935   5.095   2.422   3.826
 1310TIP3    H1 3936   5.131   2.334   3.830
 1310TIP3    H2 3937   5.051   2.434   3.910
 1311TIP3   OH2 3938   2.169   0.575   4.554
 1311TIP3    H1 3939   2.204   0.664   4.558
 1311TIP3    H2 3940   2.105   0.579   4.483
 1312TIP3   OH2 3941   0.722   2.824   0.487
 1312TIP3    H1 3942   0.770   2.906   0.494
 1312TIP3    H2 3943   0.722   2.804   0.393
 1313TIP3   OH2 3944   5.617   2.932   0.405
 1313TIP3    H1 3945   5.584   2.898   0.488
 1313TIP3    H2 3946   5.671   2.860   0.370
 1314TIP3   OH2 3947   0.607   2.128   3.050
 1314TIP3    H1 3948   0.623   2.034   3.042
 1314TIP3    H2 3949   0.595   2.142   3.144
 1315TIP3   OH2 3950   0.921   0.450   2.771
 1315TIP3    H1 3951   0.888   0.401   2.696
 1315TIP3    H2 3952   1.004   0.486   2.742
 1316TIP3   OH2 3953   2.061   4.210   0.032
 1316TIP3    H1 3954   1.967   4.222   0.016
 1316TIP3    H2 3955   2.074   4.115   0.025
 1317TIP3   OH2 3956   6.189   5.920   4.060
 1317TIP3    H1 3957   6.195   5.824   4.057
 1317TIP3    H2 3958   6.119   5.938   4.123
 1318TIP3   OH2 3959   6.125  -0.027   4.503
 1318TIP3    H1 3960   6.035   0.006   4.511
 1318TIP3    H2 3961   6.177   0.033   4.557
 1319TIP3   OH2 3962   6.370   4.331   2.883
 1319TIP3    H1 3963   6.284   4.356   2.851
 1319TIP3    H2 3964   6.360   4.323   2.978
 1320TIP3   OH2 3965   1.885   1.100   3.589
 1320TIP3    H1 3966   1.887   1.042   3.513
 1320TIP3    H2 3967   1.903   1.187   3.554
 1321TIP3   OH2 3968   3.235   4.147   1.490
 1321TIP3    H1 3969   3.175   4.196   1.546
 1321TIP3    H2 3970   3.220   4.182   1.402
 1322TIP3   OH2 3971   0.948   5.934   1.725
 1322TIP3    H1 3972   0.888   6.000   1.691
 1322TIP3    H2 3973   1.029   5.947   1.675
 1323TIP3   OH2 3974   2.349   4.576   1.708
 1323TIP3    H1 3975   2.343   4.671   1.714
 1323TIP3    H2 3976   2.357   4.558   1.614
 1324TIP3   OH2 3977   2.653   3.364   4.934
 1324TIP3    H1 3978   2.594   3.413   4.877
 1324TIP3    H2 3979   2.602   3.349   5.013
 1325TIP3   OH2 3980   5.479   3.604   0.723
 1325TIP3    H1 3981   5.445   3.633   0.639
 1325TIP3    H2 3982   5.421   3.644   0.788
 1326TIP3   OH2 3983   2.442   1.144   4.158
 1326TIP3    H1 3984   2.459   1.059   4.197
 1326TIP3    H2 3985   2.499   1.148   4.081
 1327TIP3   OH2 3986   3.827   4.966  -0.003
 1327TIP3    H1 3987   3.769   5.004  -0.069
 1327TIP3    H2 3988   3.792   4.999   0.080
 1328TIP3   OH2 3989   5.446   0.618   4.636
 1328TIP3    H1 3990   5.490   0.581   4.560
 1328TIP3    H2 3991   5.507   0.684   4.670
 1329TIP3   OH2 3992   0.797   5.943   0.777
 1329TIP3    H1 3993   0.786   5.849   0.791
 1329TIP3    H2 3994   0.803   5.953   0.682
 1330TIP3   OH2 3995   5.816   3.179   4.855
 1330TIP3    H1 3996   5.784   3.090   4.871
 1330TIP3    H2 3997   5.857   3.174   4.769
 1331TIP3   OH2 3998   3.742   2.212   0.445
 1331TIP3    H1 3999   3.800   2.235   0.518
 1331TIP3    H2 4000   3.696   2.133   0.474
 1332TIP3   OH2 4001   2.328   4.389   1.209
 1332TIP3    H1 4002   2.246   4.359   1.169
 1332TIP3    H2 4003   2.392   4.323   1.183
 1333TIP3   OH2 4004   2.400   5.392   1.540
 1333TIP3    H1 4005   2.308   5.405   1.562
 1333TIP3    H2 4006   2.422   5.467   1.484
 1334TIP3   OH2 4007   2.751   0.276   4.961
 1334TIP3    H1 4008   2.804   0.222   5.021
 1334TIP3    H2 4009   2.791   0.363   4.966
 1335TIP3   OH2 4010   1.171   1.278   1.165
 1335TIP3    H1 4011   1.191   1.200   1.217
 1335TIP3    H2 4012   1.256   1.316   1.145
 1336TIP3   OH2 4013   5.010   0.790   3.997
 1336TIP3    H1 4014   4.925   0.834   3.989
 1336TIP3    H2 4015   5.021   0.775   4.090
 1337TIP3   OH2 4016   3.529   2.521   1.731
 1337TIP3    H1 4017   3.477   2.458   1.682
 1337TIP3    H2 4018   3.481   2.534   1.813
 1338TIP3   OH2 4019   0.275   1.170   2.583
 1338TIP3    H1 4020   0.219   1.095   2.562
 1338TIP3    H2 4021   0.243   1.201   2.668
 1339TIP3   OH2 4022   2.285   2.027   2.034
 1339TIP3    H1 4023   2.355   1.990   1.982
 1339TIP3    H2 4024   2.215   2.047   1.971
 1340TIP3   OH2 4025   3.220   6.001   3.723
 1340TIP3    H1 4026   3.307   5.968   3.748
 1340TIP3    H2 4027   3.159   5.944   3.769
 1341TIP3   OH2 4028   6.152   2.907   1.210
 1341TIP3    H1 4029   6.077   2.866   1.254
 1341TIP3    H2 4030   6.199   2.835   1.169
 1342TIP3   OH2 4031   4.031   5.907   1.365
 1342TIP3    H1 4032   3.984   5.970   1.310
 1342TIP3    H2 4033   4.120   5.908   1.331
 1343TIP3   OH2 4034   4.060   3.438   0.313
 1343TIP3    H1 4035   4.129   3.392   0.361
 1343TIP3    H2 4036   4.058   3.394   0.227
 1344TIP3   OH2 4037   1.443   0.862   3.868
 1344TIP3    H1 4038   1.478   0.950   3.878
 1344TIP3    H2 4039   1.375   0.855   3.935
 1345TIP3   OH2 4040   4.118   1.568   3.489
 1345TIP3    H1 4041   4.095   1.495   3.547
 1345TIP3    H2 4042   4.102   1.646   3.542
 1346TIP3   OH2 4043   2.666   3.120   4.266
 1346TIP3    H1 4044   2.602   3.188   4.246
 1346TIP3    H2 4045   2.751   3.163   4.259
 1347TIP3   OH2 4046   1.242   2.380   0.197
 1347TIP3    H1 4047   1.230   2.380   0.292
 1347TIP3    H2 4048   1.246   2.287   0.173
 1348TIP3   OH2 4049   5.869   3.356   1.191
 1348TIP3    H1 4050   5.790   3.305   1.175
 1348TIP3    H2 4051   5.932   3.292   1.225
 1349TIP3   OH2 4052   1.342   3.050   1.390
 1349TIP3    H1 4053   1.337   3.113   1.318
 1349TIP3    H2 4054   1.347   3.104   1.469
 1350TIP3   OH2 4055   0.926   0.077   5.138
 1350TIP3    H1 4056   0.991   0.109   5.076
 1350TIP3    H2 4057   0.866   0.025   5.084
 1351TIP3   OH2 4058   5.175   3.868   4.581
 1351TIP3    H1 4059   5.092   3.901   4.616
 1351TIP3    H2 4060   5.157   3.851   4.488
 1352TIP3   OH2 4061   3.730   5.319   0.033
 1352TIP3    H1 4062   3.802   5.381   0.023
 1352TIP3    H2 4063   3.652   5.369   0.006
 1353TIP3   OH2 4064   4.492   0.895   2.839
 1353TIP3    H1 4065   4.540   0.824   2.881
 1353TIP3    H2 4066   4.452   0.855   2.762
 1354TIP3   OH2 4067   1.839   4.872   0.090
 1354TIP3    H1 4068   1.866   4.921   0.168
 1354TIP3    H2 4069   1.865   4.927   0.016
 1355TIP3   OH2 4070   5.774   4.759   3.139
 1355TIP3    H1 4071   5.686   4.768   3.175
 1355TIP3    H2 4072   5.827   4.725   3.211
 1356TIP3   OH2 4073   6.297   5.051   4.112
 1356TIP3    H1 4074   6.235   5.005   4.168
 1356TIP3    H2 4075   6.289   5.143   4.138
 1357TIP3   OH2 4076   5.128   3.822   4.311
 1357TIP3    H1 4077   5.155   3.909   4.279
 1357TIP3    H2 4078   5.083   3.782   4.237
 1358TIP3   OH2 4079   0.975   3.085   2.330
 1358TIP3    H1 4080   1.002   3.109   2.241
 1358TIP3    H2 4081   0.904   3.145   2.351
 1359TIP3   OH2 4082   3.707   5.915   0.438
 1359TIP3    H1 4083   3.779   5.946   0.384
 1359TIP3    H2 4084   3.682   5.831   0.400
 1360TIP3   OH2 4085   5.791   3.471   0.813
 1360TIP3    H1 4086   5.869   3.450   0.763
 1360TIP3    H2 4087   5.726   3.407   0.785
 1361TIP3   OH2 4088   4.001   4.488   0.402
 1361TIP3    H1 4089   3.912   4.498   0.369
 1361TIP3    H2 4090   4.000   4.532   0.487
 1362TIP3   OH2 4091   0.895   5.302   4.619
 1362TIP3    H1 4092   0.955   5.261   4.556
 1362TIP3    H2 4093   0.922   5.394   4.620
 1363TIP3   OH2 4094   1.489   3.963   1.104
 1363TIP3    H1 4095   1.498   4.032   1.039
 1363TIP3    H2 4096   1.420   3.993   1.163
 1364TIP3   OH2 4097   2.144   3.327   1.891
 1364TIP3    H1 4098   2.069   3.353   1.837
 1364TIP3    H2 4099   2.180   3.250   1.848
 1365TIP3   OH2 4100   2.796   3.952   1.335
 1365TIP3    H1 4101   2.863   3.904   1.385
 1365TIP3    H2 4102   2.845   4.011   1.279
 1366TIP3   OH2 4103   2.954   2.410   0.855
 1366TIP3    H1 4104   2.875   2.405   0.802
 1366TIP3    H2 4105   3.012   2.469   0.806
 1367TIP3   OH2 4106   5.568   1.049   2.598
 1367TIP3    H1 4107   5.659   1.022   2.584
 1367TIP3    H2 4108   5.566   1.081   2.688
 1368TIP3   OH2 4109   6.041   5.487   2.743
 1368TIP3    H1 4110   6.059   5.405   2.699
 1368TIP3    H2 4111   5.972   5.466   2.806
 1369TIP3   OH2 4112   1.650   5.235   1.253
 1369TIP3    H1 4113   1.697   5.256   1.334
 1369TIP3    H2 4114   1.709   5.178   1.205
 1370TIP3   OH2 4115   1.734   3.890   3.427
 1370TIP3    H1 4116   1.724   3.796   3.413
 1370TIP3    H2 4117   1.787   3.897   3.507
 1371TIP3   OH2 4118   2.987   2.352   1.135
 1371TIP3    H1 4119   2.980   2.320   1.046
 1371TIP3    H2 4120   2.978   2.447   1.128
 1372TIP3   OH2 4121   2.336   1.856   2.947
 1372TIP3    H1 4122   2.246   1.825   2.960
 1372TIP3    H2 4123   2.348   1.854   2.852
 1373TIP3   OH2 4124   3.003   5.088   2.977
 1373TIP3    H1 4125   3.038   5.177   2.973
 1373TIP3    H2 4126   2.939   5.090   3.048
 1374TIP3   OH2 4127   3.521   4.829   2.410
 1374TIP3    H1 4128   3.580   4.771   2.361
 1374TIP3    H2 4129   3.551   4.822   2.500
 1375TIP3   OH2 4130   1.411   0.280   0.322
 1375TIP3    H1 4131   1.468   0.227   0.377
 1375TIP3    H2 4132   1.435   0.255   0.232
 1376TIP3   OH2 4133   5.021   3.570   4.951
 1376TIP3    H1 4134   4.930   3.597   4.961
 1376TIP3    H2 4135   5.022   3.478   4.975
 1377TIP3   OH2 4136   2.521   1.937   3.123
 1377TIP3    H1 4137   2.474   1.883   3.060
 1377TIP3    H2 4138   2.567   2.001   3.069
 1378TIP3   OH2 4139   4.329   5.089   0.399
 1378TIP3    H1 4140   4.254   5.037   0.370
 1378TIP3    H2 4141   4.384   5.027   0.446
 1379TIP3   OH2 4142   3.045   3.063   3.008
 1379TIP3    H1 4143   3.074   3.035   2.921
 1379TIP3    H2 4144   2.950   3.051   3.007
 1380TIP3   OH2 4145   3.892   1.160   0.216
 1380TIP3    H1 4146   3.984   1.155   0.240
 1380TIP3    H2 4147   3.850   1.205   0.289
 1381TIP3   OH2 4148   4.870   3.336   4.793
 1381TIP3    H1 4149   4.951   3.286   4.788
 1381TIP3    H2 4150   4.840   3.343   4.703
 1382TIP3   OH2 4151   4.478   3.639   0.320
 1382TIP3    H1 4152   4.475   3.579   0.395
 1382TIP3    H2 4153   4.506   3.584   0.247
 1383TIP3   OH2 4154   4.765   1.073   1.937
 1383TIP3    H1 4155   4.755   1.111   2.024
 1383TIP3    H2 4156   4.853   1.034   1.938
 1384TIP3   OH2 4157   0.438   2.303   4.914
 1384TIP3    H1 4158   0.422   2.317   4.821
 1384TIP3    H2 4159   0.502   2.232   4.917
 1385TIP3   OH2 4160   3.269   2.235   3.063
 1385TIP3    H1 4161   3.194   2.187   3.101
 1385TIP3    H2 4162   3.238   2.262   2.977
 1386TIP3   OH2 4163   3.247   5.012   2.449
 1386TIP3    H1 4164   3.158   5.047   2.443
 1386TIP3    H2 4165   3.282   5.052   2.529
 1387TIP3   OH2 4166   4.113   0.099   3.484
 1387TIP3    H1 4167   4.112   0.053   3.401
 1387TIP3    H2 4168   4.102   0.030   3.550
 1388TIP3   OH2 4169   5.858   2.338   5.084
 1388TIP3    H1 4170   5.878   2.297   5.168
 1388TIP3    H2 4171   5.808   2.272   5.036
 1389TIP3   OH2 4172   2.714   4.647   1.483
 1389TIP3    H1 4173   2.642   4.698   1.448
 1389TIP3    H2 4174   2.787   4.665   1.423
 1390TIP3   OH2 4175   2.185   4.040   3.447
 1390TIP3    H1 4176   2.146   3.954   3.429
 1390TIP3    H2 4177   2.113   4.092   3.481
 1391TIP3   OH2 4178   5.475   1.025   3.993
 1391TIP3    H1 4179   5.447   0.934   3.984
 1391TIP3    H2 4180   5.570   1.020   4.007
 1392TIP3   OH2 4181   4.169   1.249   2.040
 1392TIP3    H1 4182   4.128   1.293   2.115
 1392TIP3    H2 4183   4.166   1.314   1.970
 1393TIP3   OH2 4184   2.045   3.772   5.078
 1393TIP3    H1 4185   1.970   3.728   5.038
 1393TIP3    H2 4186   2.012   3.857   5.106
 1394TIP3   OH2 4187   5.006   4.460   1.714
 1394TIP3    H1 4188   5.068   4.527   1.685
 1394TIP3    H2 4189   5.059   4.385   1.738
 1395TIP3   OH2 4190   5.288   2.502   1.891
 1395TIP3    H1 4191   5.356   2.569   1.879
 1395TIP3    H2 4192   5.325   2.441   1.955
 1396TIP3   OH2 4193   1.488   4.784   4.608
 1396TIP3    H1 4194   1.406   4.768   4.562
 1396TIP3    H2 4195   1.513   4.699   4.643
 1397TIP3   OH2 4196   3.676   3.057   3.938
 1397TIP3    H1 4197   3.750   3.008   3.976
 1397TIP3    H2 4198   3.602   3.035   3.995
 1398TIP3   OH2 4199   5.962   2.086   4.594
 1398TIP3    H1 4200   5.934   2.121   4.678
 1398TIP3    H2 4201   5.963   2.161   4.535
 1399TIP3   OH2 4202   4.072   3.431   2.030
 1399TIP3    H1 4203   4.155   3.385   2.042
 1399TIP3    H2 4204   4.093   3.501   1.967
 1400TIP3   OH2 4205   5.432   5.446   4.734
 1400TIP3    H1 4206   5.452   5.360   4.773
 1400TIP3    H2 4207   5.511   5.469   4.685
 1401TIP3   OH2 4208   2.443   2.867   1.625
 1401TIP3    H1 4209   2.449   2.816   1.706
 1401TIP3    H2 4210   2.483   2.811   1.558
 1402TIP3   OH2 4211   3.131   2.393   3.700
 1402TIP3    H1 4212   3.063   2.434   3.646
 1402TIP3    H2 4213   3.205   2.382   3.641
 1403TIP3   OH2 4214   3.748   5.677   0.291
 1403TIP3    H1 4215   3.839   5.686   0.320
 1403TIP3    H2 4216   3.715   5.602   0.341
 1404TIP3   OH2 4217   5.500   1.249   1.398
 1404TIP3    H1 4218   5.413   1.272   1.430
 1404TIP3    H2 4219   5.487   1.227   1.306
 1405TIP3   OH2 4220   1.270   0.750   4.218
 1405TIP3    H1 4221   1.325   0.762   4.295
 1405TIP3    H2 4222   1.247   0.839   4.190
 1406TIP3   OH2 4223   1.469   4.268   2.004
 1406TIP3    H1 4224   1.390   4.316   2.028
 1406TIP3    H2 4225   1.456   4.245   1.912
 1407TIP3   OH2 4226   2.286   3.912   4.150
 1407TIP3    H1 4227   2.380   3.924   4.164
 1407TIP3    H2 4228   2.245   3.970   4.214
 1408TIP3   OH2 4229   0.084   5.529   1.173
 1408TIP3    H1 4230   0.099   5.538   1.079
 1408TIP3    H2 4231   0.055   5.615   1.201
 1409TIP3   OH2 4232   2.760   3.541   4.543
 1409TIP3    H1 4233   2.785   3.549   4.451
 1409TIP3    H2 4234   2.843   3.530   4.590
 1410TIP3   OH2 4235   0.330   2.495   0.365
 1410TIP3    H1 4236   0.398   2.528   0.306
 1410TIP3    H2 4237   0.274   2.570   0.381
 1411TIP3   OH2 4238   4.314   0.359   4.846
 1411TIP3    H1 4239   4.265   0.278   4.857
 1411TIP3    H2 4240   4.249   0.424   4.820
 1412TIP3   OH2 4241   0.817   2.917   4.740
 1412TIP3    H1 4242   0.844   2.916   4.832
 1412TIP3    H2 4243   0.828   3.008   4.712
 1413TIP3   OH2 4244   0.400   1.505   3.548
 1413TIP3    H1 4245   0.480   1.549   3.519
 1413TIP3    H2 4246   0.371   1.556   3.624
 1414TIP3   OH2 4247   3.234   5.212   1.580
 1414TIP3    H1 4248   3.187   5.238   1.501
 1414TIP3    H2 4249   3.323   5.192   1.550
 1415TIP3   OH2 4250   3.609   1.283   4.372
 1415TIP3    H1 4251   3.548   1.221   4.413
 1415TIP3    H2 4252   3.655   1.230   4.306
 1416TIP3   OH2 4253   3.215   2.059   3.533
 1416TIP3    H1 4254   3.139   2.065   3.590
 1416TIP3    H2 4255   3.290   2.077   3.590
 1417TIP3   OH2 4256   5.773   0.978   4.030
 1417TIP3    H1 4257   5.850   0.926   4.009
 1417TIP3    H2 4258   5.791   1.065   3.993
 1418TIP3   OH2 4259   2.706   1.466   3.305
 1418TIP3    H1 4260   2.644   1.393   3.310
 1418TIP3    H2 4261   2.708   1.502   3.394
 1419TIP3   OH2 4262   3.395   4.880   1.197
 1419TIP3    H1 4263   3.460   4.813   1.216
 1419TIP3    H2 4264   3.398   4.890   1.102
 1420TIP3   OH2 4265   2.917   0.793   1.334
 1420TIP3    H1 4266   2.870   0.871   1.305
 1420TIP3    H2 4267   2.867   0.762   1.410
 1421TIP3   OH2 4268   5.463   3.114   0.901
 1421TIP3    H1 4269   5.368   3.108   0.892
 1421TIP3    H2 4270   5.485   3.051   0.969
 1422TIP3   OH2 4271   1.318   1.587   2.706
 1422TIP3    H1 4272   1.411   1.569   2.715
 1422TIP3    H2 4273   1.284   1.584   2.796
 1423TIP3   OH2 4274   1.685   4.098   4.597
 1423TIP3    H1 4275   1.608   4.148   4.570
 1423TIP3    H2 4276   1.679   4.017   4.546
 1424TIP3   OH2 4277   0.377   5.757   4.673
 1424TIP3    H1 4278   0.378   5.723   4.762
 1424TIP3    H2 4279   0.466   5.743   4.641
 1425TIP3   OH2 4280   1.148   4.018   1.766
 1425TIP3    H1 4281   1.070   3.992   1.814
 1425TIP3    H2 4282   1.209   4.047   1.834
 1426TIP3   OH2 4283   4.076   1.292   3.582
 1426TIP3    H1 4284   3.995   1.311   3.628
 1426TIP3    H2 4285   4.048   1.265   3.494
 1427TIP3   OH2 4286   0.069   0.010   5.192
 1427TIP3    H1 4287   0.004  -0.035   5.138
 1427TIP3    H2 4288   0.122   0.059   5.129
 1428TIP3   OH2 4289   5.244   3.746   2.570
 1428TIP3    H1 4290   5.257   3.704   2.485
 1428TIP3    H2 4291   5.333   3.765   2.600
 1429TIP3   OH2 4292  -0.031   1.489   1.621
 1429TIP3    H1 4293   0.042   1.431   1.597
 1429TIP3    H2 4294  -0.005   1.527   1.705
 1430TIP3   OH2 4295   1.900   3.770   1.972
 1430TIP3    H1 4296   1.981   3.721   1.953
 1430TIP3    H2 4297   1.833   3.725   1.921
 1431TIP3   OH2 4298   0.137   0.432   1.185
 1431TIP3    H1 4299   0.116   0.462   1.097
 1431TIP3    H2 4300   0.053   0.400   1.220
 1432TIP3   OH2 4301   4.794   3.315   4.518
 1432TIP3    H1 4302   4.725   3.326   4.453
 1432TIP3    H2 4303   4.875   3.339   4.472
 1433TIP3   OH2 4304   5.871   2.506   3.845
 1433TIP3    H1 4305   5.959   2.538   3.828
 1433TIP3    H2 4306   5.884   2.435   3.909
 1434TIP3   OH2 4307   4.072   3.986   0.512
 1434TIP3    H1 4308   4.118   4.005   0.430
 1434TIP3    H2 4309   4.067   4.070   0.557
 1435TIP3   OH2 4310   6.002   3.572   1.086
 1435TIP3    H1 4311   5.959   3.504   1.137
 1435TIP3    H2 4312   5.933   3.609   1.030
 1436TIP3   OH2 4313   6.071   3.676   2.054
 1436TIP3    H1 4314   6.140   3.677   1.988
 1436TIP3    H2 4315   6.090   3.598   2.107
 1437TIP3   OH2 4316   2.056   1.374   4.353
 1437TIP3    H1 4317   2.133   1.415   4.392
 1437TIP3    H2 4318   2.086   1.346   4.266
 1438TIP3   OH2 4319   1.642   2.116   3.544
 1438TIP3    H1 4320   1.654   2.085   3.455
 1438TIP3    H2 4321   1.672   2.044   3.599
 1439TIP3   OH2 4322   4.865   0.598   3.582
 1439TIP3    H1 4323   4.885   0.513   3.542
 1439TIP3    H2 4324   4.881   0.585   3.676
 1440TIP3   OH2 4325   5.230   2.066   5.141
 1440TIP3    H1 4326   5.135   2.068   5.131
 1440TIP3    H2 4327   5.263   2.065   5.051
 1441TIP3   OH2 4328   0.100   1.088   1.978
 1441TIP3    H1 4329   0.118   1.166   1.925
 1441TIP3    H2 4330   0.138   1.109   2.064
 1442TIP3   OH2 4331   6.281   0.890   2.271
 1442TIP3    H1 4332   6.193   0.896   2.233
 1442TIP3    H2 4333   6.326   0.824   2.216
 1443TIP3   OH2 4334   0.660   2.118   4.966
 1443TIP3    H1 4335   0.695   2.048   4.911
 1443TIP3    H2 4336   0.729   2.134   5.030
 1444TIP3   OH2 4337   4.116   4.966   0.783
 1444TIP3    H1 4338   4.074   4.948   0.699
 1444TIP3    H2 4339   4.180   4.895   0.793
 1445TIP3   OH2 4340   3.751   3.344   1.838
 1445TIP3    H1 4341   3.689   3.393   1.893
 1445TIP3    H2 4342   3.770   3.403   1.765
 1446TIP3   OH2 4343   5.438   3.153   1.895
 1446TIP3    H1 4344   5.526   3.172   1.861
 1446TIP3    H2 4345   5.453   3.134   1.988
 1447TIP3   OH2 4346   5.578   1.991   1.611
 1447TIP3    H1 4347   5.637   1.959   1.543
 1447TIP3    H2 4348   5.533   1.913   1.643
 1448TIP3   OH2 4349   1.698   5.016   4.333
 1448TIP3    H1 4350   1.626   4.959   4.358
 1448TIP3    H2 4351   1.657   5.101   4.316
 1449TIP3   OH2 4352   3.672   5.491   1.871
 1449TIP3    H1 4353   3.659   5.545   1.948
 1449TIP3    H2 4354   3.697   5.405   1.906
 1450TIP3   OH2 4355   1.966   1.462   0.601
 1450TIP3    H1 4356   1.899   1.466   0.670
 1450TIP3    H2 4357   2.010   1.547   0.607
 1451TIP3   OH2 4358   4.831   0.423   0.755
 1451TIP3    H1 4359   4.814   0.333   0.729
 1451TIP3    H2 4360   4.848   0.469   0.672
 1452TIP3   OH2 4361   2.946   1.811   2.648
 1452TIP3    H1 4362   2.927   1.783   2.738
 1452TIP3    H2 4363   3.000   1.741   2.612
 1453TIP3   OH2 4364   3.132   1.128   5.121
 1453TIP3    H1 4365   3.161   1.101   5.033
 1453TIP3    H2 4366   3.043   1.161   5.108
 1454TIP3   OH2 4367   0.392   0.440   3.788
 1454TIP3    H1 4368   0.477   0.481   3.802
 1454TIP3    H2 4369   0.409   0.370   3.725
 1455TIP3   OH2 4370   0.064   1.689   1.424
 1455TIP3    H1 4371   0.068   1.753   1.495
 1455TIP3    H2 4372   0.024   1.612   1.464
 1456TIP3   OH2 4373   6.224   5.739   0.710
 1456TIP3    H1 4374   6.173   5.812   0.676
 1456TIP3    H2 4375   6.290   5.722   0.643
 1457TIP3   OH2 4376   2.711   1.897   2.314
 1457TIP3    H1 4377   2.650   1.947   2.260
 1457TIP3    H2 4378   2.798   1.928   2.286
 1458TIP3   OH2 4379   0.382   5.647   1.270
 1458TIP3    H1 4380   0.420   5.719   1.320
 1458TIP3    H2 4381   0.291   5.674   1.256
 1459TIP3   OH2 4382   3.479   1.065   1.628
 1459TIP3    H1 4383   3.428   1.001   1.579
 1459TIP3    H2 4384   3.569   1.036   1.620
 1460TIP3   OH2 4385   3.956   1.646   2.777
 1460TIP3    H1 4386   3.911   1.690   2.849
 1460TIP3    H2 4387   4.016   1.712   2.742
 1461TIP3   OH2 4388   4.725   0.910   0.066
 1461TIP3    H1 4389   4.644   0.887   0.021
 1461TIP3    H2 4390   4.729   1.006   0.061
 1462TIP3   OH2 4391   4.339   2.201   3.362
 1462TIP3    H1 4392   4.345   2.205   3.457
 1462TIP3    H2 4393   4.386   2.278   3.331
 1463TIP3   OH2 4394   3.198   2.220   4.274
 1463TIP3    H1 4395   3.234   2.225   4.363
 1463TIP3    H2 4396   3.111   2.180   4.285
 1464TIP3   OH2 4397   5.571   3.294   3.735
 1464TIP3    H1 4398   5.635   3.226   3.754
 1464TIP3    H2 4399   5.614   3.351   3.671
 1465TIP3   OH2 4400   1.081   5.945   3.883
 1465TIP3    H1 4401   0.996   5.900   3.877
 1465TIP3    H2 4402   1.063   6.023   3.935
 1466TIP3   OH2 4403   6.079   5.344   3.041
 1466TIP3    H1 4404   6.026   5.363   2.964
 1466TIP3    H2 4405   6.112   5.256   3.026
 1467TIP3   OH2 4406   2.868   1.720   4.410
 1467TIP3    H1 4407   2.777   1.697   4.428
 1467TIP3    H2 4408   2.872   1.815   4.424
 1468TIP3   OH2 4409   4.090   2.045   0.237
 1468TIP3    H1 4410   4.008   1.995   0.243
 1468TIP3    H2 4411   4.154   1.990   0.281
 1469TIP3   OH2 4412   4.922   4.131   0.399
 1469TIP3    H1 4413   4.899   4.038   0.408
 1469TIP3    H2 4414   4.840   4.178   0.414
 1470TIP3   OH2 4415   5.031   4.416   4.670
 1470TIP3    H1 4416   4.969   4.349   4.700
 1470TIP3    H2 4417   5.027   4.484   4.736
 1471TIP3   OH2 4418   5.490   2.847   0.632
 1471TIP3    H1 4419   5.486   2.752   0.638
 1471TIP3    H2 4420   5.425   2.878   0.694
 1472TIP3   OH2 4421   1.379   0.384   1.060
 1472TIP3    H1 4422   1.429   0.351   0.985
 1472TIP3    H2 4423   1.366   0.307   1.116
 1473TIP3   OH2 4424   6.301   2.779   4.125
 1473TIP3    H1 4425   6.310   2.761   4.219
 1473TIP3    H2 4426   6.207   2.790   4.111
 1474TIP3   OH2 4427   3.850   3.407   5.091
 1474TIP3    H1 4428   3.891   3.407   5.005
 1474TIP3    H2 4429   3.825   3.498   5.106
 1475TIP3   OH2 4430   4.921   0.094   4.325
 1475TIP3    H1 4431   4.855   0.146   4.371
 1475TIP3    H2 4432   4.872   0.047   4.258
 1476TIP3   OH2 4433   4.104   0.460   3.160
 1476TIP3    H1 4434   4.065   0.493   3.079
 1476TIP3    H2 4435   4.164   0.529   3.188
 1477TIP3   OH2 4436   2.436   2.852   1.895
 1477TIP3    H1 4437   2.532   2.843   1.900
 1477TIP3    H2 4438   2.406   2.840   1.985
 1478TIP3   OH2 4439   3.392   5.866   4.724
 1478TIP3    H1 4440   3.472   5.860   4.672
 1478TIP3    H2 4441   3.341   5.789   4.699
 1479TIP3   OH2 4442   5.449   0.528   1.553
 1479TIP3    H1 4443   5.446   0.456   1.490
 1479TIP3    H2 4444   5.508   0.592   1.515
 1480TIP3   OH2 4445   4.691   5.030   3.832
 1480TIP3    H1 4446   4.612   5.067   3.792
 1480TIP3    H2 4447   4.670   4.937   3.843
 1481TIP3   OH2 4448   4.539   3.000   3.526
 1481TIP3    H1 4449   4.563   3.023   3.615
 1481TIP3    H2 4450   4.585   2.918   3.508
 1482TIP3   OH2 4451   1.462   0.572   0.777
 1482TIP3    H1 4452   1.371   0.587   0.752
 1482TIP3    H2 4453   1.473   0.477   0.771
 1483TIP3   OH2 4454   2.358   0.427   4.722
 1483TIP3    H1 4455   2.446   0.410   4.686
 1483TIP3    H2 4456   2.316   0.483   4.657
 1484TIP3   OH2 4457   3.027   0.303   1.197
 1484TIP3    H1 4458   3.107   0.334   1.239
 1484TIP3    H2 4459   3.057   0.253   1.120
 1485TIP3   OH2 4460   1.989   0.338   3.030
 1485TIP3    H1 4461   1.958   0.386   2.953
 1485TIP3    H2 4462   2.048   0.399   3.074
 1486TIP3   OH2 4463   3.729   0.835   3.783
 1486TIP3    H1 4464   3.649   0.790   3.753
 1486TIP3    H2 4465   3.712   0.927   3.766
 1487TIP3   OH2 4466   3.317   2.373   4.090
 1487TIP3    H1 4467   3.256   2.345   4.159
 1487TIP3    H2 4468   3.374   2.297   4.077
 1488TIP3   OH2 4469   0.211   5.468   1.563
 1488TIP3    H1 4470   0.275   5.536   1.585
 1488TIP3    H2 4471   0.130   5.517   1.546
 1489TIP3   OH2 4472   0.243   3.801   0.671
 1489TIP3    H1 4473   0.202   3.804   0.585
 1489TIP3    H2 4474   0.324   3.752   0.657
 1490TIP3   OH2 4475   0.017   0.613   2.550
 1490TIP3    H1 4476   0.091   0.602   2.491
 1490TIP3    H2 4477   0.041   0.687   2.605
 1491TIP3   OH2 4478   0.902   5.337   0.138
 1491TIP3    H1 4479   0.882   5.415   0.085
 1491TIP3    H2 4480   0.850   5.268   0.099
 1492TIP3   OH2 4481   2.847   4.194   4.760
 1492TIP3    H1 4482   2.893   4.128   4.813
 1492TIP3    H2 4483   2.785   4.234   4.821
 1493TIP3   OH2 4484   2.207   0.404   1.477
 1493TIP3    H1 4485   2.124   0.404   1.429
 1493TIP3    H2 4486   2.185   0.367   1.562
 1494TIP3   OH2 4487   5.829   1.490   0.118
 1494TIP3    H1 4488   5.745   1.487   0.072
 1494TIP3    H2 4489   5.850   1.583   0.122
 1495TIP3   OH2 4490   3.629   0.645   2.379
 1495TIP3    H1 4491   3.646   0.590   2.455
 1495TIP3    H2 4492   3.546   0.689   2.399
 1496TIP3   OH2 4493   4.852   2.880   0.719
 1496TIP3    H1 4494   4.912   2.827   0.771
 1496TIP3    H2 4495   4.879   2.970   0.736
 1497TIP3   OH2 4496   4.798   0.528   0.082
 1497TIP3    H1 4497   4.730   0.584   0.044
 1497TIP3    H2 4498   4.880   0.562   0.046
 1498TIP3   OH2 4499   1.947   1.125   4.621
 1498TIP3    H1 4500   2.030   1.079   4.634
 1498TIP3    H2 4501   1.965   1.215   4.650
 1499TIP3   OH2 4502   2.952   2.340   2.011
 1499TIP3    H1 4503   2.894   2.293   1.951
 1499TIP3    H2 4504   3.036   2.295   2.003
 1500TIP3   OH2 4505   5.604   3.850   4.268
 1500TIP3    H1 4506   5.602   3.804   4.184
 1500TIP3    H2 4507   5.519   3.832   4.308
 1501TIP3   OH2 4508   4.326   1.961   1.398
 1501TIP3    H1 4509   4.381   1.977   1.322
 1501TIP3    H2 4510   4.337   1.868   1.417
 1502TIP3   OH2 4511   0.293   4.446   3.776
 1502TIP3    H1 4512   0.240   4.377   3.816
 1502TIP3    H2 4513   0.233   4.488   3.714
 1503TIP3   OH2 4514   0.552   1.389   0.743
 1503TIP3    H1 4515   0.565   1.377   0.648
 1503TIP3    H2 4516   0.458   1.385   0.755
 1504TIP3   OH2 4517   2.441   0.592   2.655
 1504TIP3    H1 4518   2.483   0.564   2.737
 1504TIP3    H2 4519   2.379   0.522   2.636
 1505TIP3   OH2 4520   5.392   1.694   1.117
 1505TIP3    H1 4521   5.324   1.664   1.057
 1505TIP3    H2 4522   5.457   1.624   1.116
 1506TIP3   OH2 4523   4.609   0.084   2.392
 1506TIP3    H1 4524   4.574   0.032   2.464
 1506TIP3    H2 4525   4.691   0.041   2.370
 1507TIP3   OH2 4526   4.586   4.958   0.173
 1507TIP3    H1 4527   4.647   5.030   0.156
 1507TIP3    H2 4528   4.500   5.000   0.173
 1508TIP3   OH2 4529   5.835   1.019   2.603
 1508TIP3    H1 4530   5.930   1.030   2.609
 1508TIP3    H2 4531   5.823   0.929   2.573
 1509TIP3   OH2 4532   0.814   0.661   4.418
 1509TIP3    H1 4533   0.799   0.751   4.447
 1509TIP3    H2 4534   0.727   0.629   4.394
 1510TIP3   OH2 4535   2.832   3.846   2.865
 1510TIP3    H1 4536   2.745   3.812   2.844
 1510TIP3    H2 4537   2.885   3.824   2.789
 1511TIP3   OH2 4538   0.212   5.279   0.897
 1511TIP3    H1 4539   0.160   5.279   0.978
 1511TIP3    H2 4540   0.195   5.363   0.856
 1512TIP3   OH2 4541   5.875   5.638   2.345
 1512TIP3    H1 4542   5.807   5.659   2.409
 1512TIP3    H2 4543   5.951   5.689   2.373
 1513TIP3   OH2 4544   6.038   1.609   1.370
 1513TIP3    H1 4545   6.112   1.621   1.311
 1513TIP3    H2 4546   6.068   1.643   1.454
 1514TIP3   OH2 4547   1.505   0.404   5.180
 1514TIP3    H1 4548   1.502   0.495   5.148
 1514TIP3    H2 4549   1.508   0.351   5.100
 1515TIP3   OH2 4550   2.539   5.682   3.852
 1515TIP3    H1 4551   2.525   5.776   3.870
 1515TIP3    H2 4552   2.456   5.653   3.813
 1516TIP3   OH2 4553   3.571   1.939   0.450
 1516TIP3    H1 4554   3.507   1.874   0.480
 1516TIP3    H2 4555   3.585   1.995   0.526
 1517TIP3   OH2 4556   5.285   0.846   4.233
 1517TIP3    H1 4557   5.266   0.926   4.183
 1517TIP3    H2 4558   5.202   0.798   4.235
 1518TIP3   OH2 4559   2.657   1.030   2.652
 1518TIP3    H1 4560   2.703   1.112   2.668
 1518TIP3    H2 4561   2.717   0.979   2.598
 1519TIP3   OH2 4562   5.172   1.192   3.085
 1519TIP3    H1 4563   5.145   1.110   3.126
 1519TIP3    H2 4564   5.159   1.258   3.154
 1520TIP3   OH2 4565   0.030   2.797   0.698
 1520TIP3    H1 4566  -0.019   2.871   0.733
 1520TIP3    H2 4567   0.119   2.830   0.685
 1521TIP3   OH2 4568   0.938   2.959   4.999
 1521TIP3    H1 4569   0.907   3.047   5.018
 1521TIP3    H2 4570   0.983   2.931   5.078
 1522TIP3   OH2 4571   5.822   0.041   0.709
 1522TIP3    H1 4572   5.878  -0.011   0.768
 1522TIP3    H2 4573   5.834   0.001   0.623
 1523TIP3   OH2 4574   0.868   1.173   3.857
 1523TIP3    H1 4575   0.872   1.243   3.791
 1523TIP3    H2 4576   0.844   1.095   3.807
 1524TIP3   OH2 4577   0.969   2.613   0.089
 1524TIP3    H1 4578   1.058   2.583   0.067
 1524TIP3    H2 4579   0.979   2.706   0.107
 1525TIP3   OH2 4580   4.848   3.142   4.145
 1525TIP3    H1 4581   4.841   3.144   4.240
 1525TIP3    H2 4582   4.939   3.117   4.128
 1526TIP3   OH2 4583   2.106   2.616   2.013
 1526TIP3    H1 4584   2.065   2.570   2.087
 1526TIP3    H2 4585   2.198   2.622   2.037
 1527TIP3   OH2 4586   5.106   5.983   1.610
 1527TIP3    H1 4587   5.153   6.029   1.541
 1527TIP3    H2 4588   5.168   5.919   1.644
 1528TIP3   OH2 4589   4.314   5.382   3.706
 1528TIP3    H1 4590   4.231   5.422   3.733
 1528TIP3    H2 4591   4.309   5.292   3.739
 1529TIP3   OH2 4592   6.137   0.991   2.552
 1529TIP3    H1 4593   6.170   0.936   2.623
 1529TIP3    H2 4594   6.113   0.930   2.483
 1530TIP3   OH2 4595   4.415   5.892   0.859
 1530TIP3    H1 4596   4.356   5.891   0.934
 1530TIP3    H2 4597   4.479   5.960   0.880
 1531TIP3   OH2 4598   4.634   2.714   2.869
 1531TIP3    H1 4599   4.723   2.737   2.896
 1531TIP3    H2 4600   4.589   2.797   2.858
 1532TIP3   OH2 4601   3.987   1.052   2.262
 1532TIP3    H1 4602   3.975   1.008   2.346
 1532TIP3    H2 4603   4.065   1.012   2.225
 1533TIP3   OH2 4604   4.662   5.222   4.160
 1533TIP3    H1 4605   4.678   5.270   4.078
 1533TIP3    H2 4606   4.654   5.290   4.227
 1534TIP3   OH2 4607   2.128   0.334   1.746
 1534TIP3    H1 4608   2.178   0.338   1.827
 1534TIP3    H2 4609   2.058   0.398   1.758
 1535TIP3   OH2 4610   4.500   4.694   4.119
 1535TIP3    H1 4611   4.544   4.633   4.059
 1535TIP3    H2 4612   4.411   4.701   4.085
 1536TIP3   OH2 4613   6.095   0.716   0.725
 1536TIP3    H1 4614   6.184   0.749   0.728
 1536TIP3    H2 4615   6.100   0.629   0.765
 1537TIP3   OH2 4616   5.797   4.727   0.463
 1537TIP3    H1 4617   5.884   4.767   0.461
 1537TIP3    H2 4618   5.742   4.788   0.413
 1538TIP3   OH2 4619   0.852   0.110   0.175
 1538TIP3    H1 4620   0.944   0.122   0.197
 1538TIP3    H2 4621   0.817   0.057   0.247
 1539TIP3   OH2 4622   3.992   1.363   1.766
 1539TIP3    H1 4623   3.944   1.284   1.741
 1539TIP3    H2 4624   4.082   1.333   1.779
 1540TIP3   OH2 4625   4.192   5.013   4.815
 1540TIP3    H1 4626   4.225   5.043   4.900
 1540TIP3    H2 4627   4.198   5.090   4.758
 1541TIP3   OH2 4628   3.357   1.205   1.364
 1541TIP3    H1 4629   3.344   1.110   1.357
 1541TIP3    H2 4630   3.432   1.215   1.423
 1542TIP3   OH2 4631   4.948   5.491   0.920
 1542TIP3    H1 4632   4.995   5.470   1.001
 1542TIP3    H2 4633   4.984   5.431   0.855
 1543TIP3   OH2 4634   2.740   5.836   3.726
 1543TIP3    H1 4635   2.662   5.885   3.751
 1543TIP3    H2 4636   2.714   5.744   3.730
 1544TIP3   OH2 4637   0.161   5.927   1.586
 1544TIP3    H1 4638   0.083   5.977   1.610
 1544TIP3    H2 4639   0.187   5.963   1.501
 1545TIP3   OH2 4640   4.002   0.665   2.371
 1545TIP3    H1 4641   3.999   0.600   2.441
 1545TIP3    H2 4642   3.970   0.618   2.294
 1546TIP3   OH2 4643   3.123   4.305   0.905
 1546TIP3    H1 4644   3.194   4.250   0.939
 1546TIP3    H2 4645   3.154   4.332   0.818
 1547TIP3   OH2 4646   2.670   0.059   3.009
 1547TIP3    H1 4647   2.738   0.078   3.073
 1547TIP3    H2 4648   2.702  -0.017   2.961
 1548TIP3   OH2 4649   2.191   4.998   0.304
 1548TIP3    H1 4650   2.251   5.042   0.364
 1548TIP3    H2 4651   2.248   4.962   0.235
 1549TIP3   OH2 4652   6.282   1.711   3.978
 1549TIP3    H1 4653   6.193   1.710   4.012
 1549TIP3    H2 4654   6.315   1.799   3.999
 1550TIP3   OH2 4655   5.217   0.105   4.055
 1550TIP3    H1 4656   5.209   0.013   4.082
 1550TIP3    H2 4657   5.153   0.115   3.985
 1551TIP3   OH2 4658   2.777   5.580   1.690
 1551TIP3    H1 4659   2.713   5.629   1.637
 1551TIP3    H2 4660   2.845   5.556   1.627
 1552TIP3   OH2 4661   2.812   5.151   2.668
 1552TIP3    H1 4662   2.889   5.138   2.613
 1552TIP3    H2 4663   2.830   5.233   2.715
 1553TIP3   OH2 4664   5.083   4.562   3.438
 1553TIP3    H1 4665   5.116   4.651   3.453
 1553TIP3    H2 4666   5.059   4.561   3.345
 1554TIP3   OH2 4667   2.142   0.988   3.663
 1554TIP3    H1 4668   2.157   0.968   3.570
 1554TIP3    H2 4669   2.048   1.004   3.669
 1555TIP3   OH2 4670   1.234   0.423   5.041
 1555TIP3    H1 4671   1.220   0.515   5.065
 1555TIP3    H2 4672   1.299   0.426   4.970
 1556TIP3   OH2 4673   6.170   1.011   3.775
 1556TIP3    H1 4674   6.243   1.014   3.713
 1556TIP3    H2 4675   6.092   1.023   3.722
 1557TIP3   OH2 4676   6.050   0.267   2.559
 1557TIP3    H1 4677   6.106   0.264   2.481
 1557TIP3    H2 4678   6.067   0.183   2.603
 1558TIP3   OH2 4679   1.127   3.860   0.233
 1558TIP3    H1 4680   1.046   3.809   0.241
 1558TIP3    H2 4681   1.110   3.939   0.284
 1559TIP3   OH2 4682   3.817   2.616   5.152
 1559TIP3    H1 4683   3.817   2.530   5.195
 1559TIP3    H2 4684   3.877   2.606   5.078
 1560TIP3   OH2 4685   3.826   0.091   1.760
 1560TIP3    H1 4686   3.901   0.138   1.723
 1560TIP3    H2 4687   3.851  -0.001   1.755
 1561TIP3   OH2 4688   6.216   4.701   2.509
 1561TIP3    H1 4689   6.168   4.775   2.547
 1561TIP3    H2 4690   6.182   4.624   2.555
 1562TIP3   OH2 4691   2.301   5.477   3.298
 1562TIP3    H1 4692   2.375   5.515   3.251
 1562TIP3    H2 4693   2.269   5.408   3.239
 1563TIP3   OH2 4694   3.873   0.454   2.547
 1563TIP3    H1 4695   3.797   0.490   2.591
 1563TIP3    H2 4696   3.837   0.397   2.479
 1564TIP3   OH2 4697   5.307   1.859   3.616
 1564TIP3    H1 4698   5.349   1.940   3.589
 1564TIP3    H2 4699   5.376   1.808   3.658
 1565TIP3   OH2 4700   5.985   2.778   2.022
 1565TIP3    H1 4701   5.977   2.738   2.108
 1565TIP3    H2 4702   5.903   2.826   2.009
 1566TIP3   OH2 4703   2.417   3.653   3.487
 1566TIP3    H1 4704   2.406   3.606   3.404
 1566TIP3    H2 4705   2.415   3.584   3.553
 1567TIP3   OH2 4706   3.996   1.639   3.252
 1567TIP3    H1 4707   3.923   1.669   3.307
 1567TIP3    H2 4708   4.065   1.616   3.314
 1568TIP3   OH2 4709   1.177   0.617   1.002
 1568TIP3    H1 4710   1.243   0.551   1.021
 1568TIP3    H2 4711   1.131   0.584   0.925
 1569TIP3   OH2 4712   4.455   1.742   0.194
 1569TIP3    H1 4713   4.451   1.750   0.099
 1569TIP3    H2 4714   4.369   1.706   0.219
 1570TIP3   OH2 4715   5.641   2.606   0.203
 1570TIP3    H1 4716   5.643   2.677   0.139
 1570TIP3    H2 4717   5.555   2.613   0.244
 1571TIP3   OH2 4718   3.473   0.561   2.024
 1571TIP3    H1 4719   3.420   0.566   1.944
 1571TIP3    H2 4720   3.562   0.544   1.992
 1572TIP3   OH2 4721   2.168   4.387   4.221
 1572TIP3    H1 4722   2.181   4.408   4.313
 1572TIP3    H2 4723   2.177   4.292   4.216
 1573TIP3   OH2 4724   6.320   4.758   2.823
 1573TIP3    H1 4725   6.315   4.849   2.794
 1573TIP3    H2 4726   6.235   4.742   2.865
 1574TIP3   OH2 4727   5.465   3.057   0.177
 1574TIP3    H1 4728   5.491   3.032   0.088
 1574TIP3    H2 4729   5.525   3.009   0.234
 1575TIP3   OH2 4730   3.317   1.261   0.612
 1575TIP3    H1 4731   3.378   1.293   0.546
 1575TIP3    H2 4732   3.271   1.188   0.570
 1576TIP3   OH2 4733   2.531   4.447   2.771
 1576TIP3    H1 4734   2.436   4.443   2.780
 1576TIP3    H2 4735   2.563   4.442   2.861
 1577TIP3   OH2 4736   2.974   4.034   3.839
 1577TIP3    H1 4737   3.049   3.984   3.872
 1577TIP3    H2 4738   2.924   4.057   3.917
 1578TIP3   OH2 4739   4.733   1.504   1.877
 1578TIP3    H1 4740   4.693   1.533   1.795
 1578TIP3    H2 4741   4.658   1.478   1.931
 1579TIP3   OH2 4742   5.979   1.893   2.075
 1579TIP3    H1 4743   5.885   1.883   2.091
 1579TIP3    H2 4744   6.019   1.822   2.124
 1580TIP3   OH2 4745   3.199   5.871   0.540
 1580TIP3    H1 4746   3.269   5.875   0.475
 1580TIP3    H2 4747   3.240   5.900   0.622
 1581TIP3   OH2 4748   2.232   3.590   4.957
 1581TIP3    H1 4749   2.195   3.669   4.997
 1581TIP3    H2 4750   2.230   3.525   5.026
 1582TIP3   OH2 4751   1.942   3.672   0.037
 1582TIP3    H1 4752   1.949   3.664  -0.058
 1582TIP3    H2 4753   1.989   3.596   0.071
 1583TIP3   OH2 4754   5.470   0.535   0.653
 1583TIP3    H1 4755   5.394   0.551   0.709
 1583TIP3    H2 4756   5.437   0.541   0.564
 1584TIP3   OH2 4757   2.956   1.780   3.622
 1584TIP3    H1 4758   3.031   1.726   3.649
 1584TIP3    H2 4759   2.978   1.868   3.651
 1585TIP3   OH2 4760   4.463   0.786   0.746
 1585TIP3    H1 4761   4.542   0.810   0.795
 1585TIP3    H2 4762   4.391   0.805   0.807
 1586TIP3   OH2 4763   5.662   4.447   0.899
 1586TIP3    H1 4764   5.571   4.459   0.927
 1586TIP3    H2 4765   5.680   4.524   0.845
 1587TIP3   OH2 4766   4.644   5.146   1.288
 1587TIP3    H1 4767   4.658   5.137   1.382
 1587TIP3    H2 4768   4.731   5.162   1.252
 1588TIP3   OH2 4769   5.766   2.080   2.921
 1588TIP3    H1 4770   5.848   2.060   2.965
 1588TIP3    H2 4771   5.785   2.069   2.828
 1589TIP3   OH2 4772   3.946   3.723   1.469
 1589TIP3    H1 4773   4.037   3.694   1.466
 1589TIP3    H2 4774   3.905   3.666   1.534
 1590TIP3   OH2 4775   6.115   0.816   1.473
 1590TIP3    H1 4776   6.210   0.800   1.471
 1590TIP3    H2 4777   6.079   0.737   1.514
 1591TIP3   OH2 4778   0.101   3.218   1.967
 1591TIP3    H1 4779   0.190   3.201   1.936
 1591TIP3    H2 4780   0.068   3.132   1.993
 1592TIP3   OH2 4781   2.505   2.677   4.305
 1592TIP3    H1 4782   2.576   2.616   4.326
 1592TIP3    H2 4783   2.533   2.718   4.223
 1593TIP3   OH2 4784   0.336   3.723   0.982
 1593TIP3    H1 4785   0.416   3.744   0.934
 1593TIP3    H2 4786   0.274   3.792   0.959
 1594TIP3   OH2 4787   1.789   3.871   2.619
 1594TIP3    H1 4788   1.764   3.830   2.537
 1594TIP3    H2 4789   1.710   3.868   2.673
 1595TIP3   OH2 4790   0.590   1.635   4.512
 1595TIP3    H1 4791   0.580   1.709   4.572
 1595TIP3    H2 4792   0.513   1.581   4.527
 1596TIP3   OH2 4793   0.152   4.539   3.051
 1596TIP3    H1 4794   0.103   4.515   2.973
 1596TIP3    H2 4795   0.242   4.554   3.020
 1597TIP3   OH2 4796   2.476   4.257   2.457
 1597TIP3    H1 4797   2.505   4.203   2.384
 1597TIP3    H2 4798   2.523   4.223   2.533
 1598TIP3   OH2 4799   0.156   1.470   0.596
 1598TIP3    H1 4800   0.062   1.456   0.611
 1598TIP3    H2 4801   0.199   1.432   0.672
 1599TIP3   OH2 4802   3.310   5.645   4.043
 1599TIP3    H1 4803   3.318   5.551   4.027
 1599TIP3    H2 4804   3.225   5.654   4.087
 1600TIP3   OH2 4805   0.358   4.042   2.265
 1600TIP3    H1 4806   0.298   3.991   2.210
 1600TIP3    H2 4807   0.422   3.978   2.296
 1601TIP3   OH2 4808   4.626   3.663   2.802
 1601TIP3    H1 4809   4.683   3.606   2.854
 1601TIP3    H2 4810   4.588   3.723   2.866
 1602TIP3   OH2 4811   6.091   4.947   0.909
 1602TIP3    H1 4812   6.185   4.937   0.894
 1602TIP3    H2 4813   6.054   4.963   0.822
 1603TIP3   OH2 4814   0.279   1.642   1.682
 1603TIP3    H1 4815   0.194   1.648   1.725
 1603TIP3    H2 4816   0.342   1.644   1.753
 1604TIP3   OH2 4817   2.106   2.666   4.997
 1604TIP3    H1 4818   2.190   2.668   4.950
 1604TIP3    H2 4819   2.121   2.722   5.073
 1605TIP3   OH2 4820   5.577   0.592   2.068
 1605TIP3    H1 4821   5.564   0.530   2.140
 1605TIP3    H2 4822   5.531   0.553   1.994
 1606TIP3   OH2 4823   3.092   0.452   4.967
 1606TIP3    H1 4824   3.024   0.498   4.917
 1606TIP3    H2 4825   3.111   0.511   5.041
 1607TIP3   OH2 4826   0.094   4.846   1.148
 1607TIP3    H1 4827   0.017   4.790   1.155
 1607TIP3    H2 4828   0.061   4.927   1.109
 1608TIP3   OH2 4829   2.238   0.352   1.995
 1608TIP3    H1 4830   2.169   0.328   2.057
 1608TIP3    H2 4831   2.285   0.423   2.038
 1609TIP3   OH2 4832   5.212   0.475   5.173
 1609TIP3    H1 4833   5.247   0.407   5.115
 1609TIP3    H2 4834   5.273   0.548   5.163
 1610TIP3   OH2 4835   6.260   5.067   3.364
 1610TIP3    H1 4836   6.281   5.069   3.271
 1610TIP3    H2 4837   6.323   5.005   3.401
 1611TIP3   OH2 4838   1.904   2.182   4.130
 1611TIP3    H1 4839   1.967   2.206   4.198
 1611TIP3    H2 4840   1.957   2.177   4.050
 1612TIP3   OH2 4841   3.387   2.559   1.356
 1612TIP3    H1 4842   3.338   2.554   1.274
 1612TIP3    H2 4843   3.458   2.496   1.345
 1613TIP3   OH2 4844   0.728   0.587   2.533
 1613TIP3    H1 4845   0.782   0.509   2.541
 1613TIP3    H2 4846   0.777   0.645   2.476
 1614TIP3   OH2 4847   4.875   0.200   1.650
 1614TIP3    H1 4848   4.781   0.194   1.629
 1614TIP3    H2 4849   4.890   0.129   1.712
 1615TIP3   OH2 4850   0.909   2.105   3.940
 1615TIP3    H1 4851   1.001   2.083   3.952
 1615TIP3    H2 4852   0.909   2.184   3.886
 1616TIP3   OH2 4853   5.383   2.364   2.142
 1616TIP3    H1 4854   5.468   2.406   2.126
 1616TIP3    H2 4855   5.331   2.432   2.185
 1617TIP3   OH2 4856   1.426   2.256   3.619
 1617TIP3    H1 4857   1.507   2.232   3.573
 1617TIP3    H2 4858   1.365   2.185   3.598
 1618TIP3   OH2 4859   2.352   3.509   2.667
 1618TIP3    H1 4860   2.421   3.442   2.661
 1618TIP3    H2 4861   2.279   3.473   2.616
 1619TIP3   OH2 4862   0.691   5.471   1.800
 1619TIP3    H1 4863   0.639   5.427   1.733
 1619TIP3    H2 4864   0.721   5.551   1.759
 1620TIP3   OH2 4865   1.174   4.021   0.707
 1620TIP3    H1 4866   1.147   4.032   0.798
 1620TIP3    H2 4867   1.179   4.110   0.672
 1621TIP3   OH2 4868   5.556   5.673   3.895
 1621TIP3    H1 4869   5.504   5.664   3.976
 1621TIP3    H2 4870   5.490   5.676   3.825
 1622TIP3   OH2 4871   1.855   4.004   4.009
 1622TIP3    H1 4872   1.785   4.046   3.959
 1622TIP3    H2 4873   1.848   3.912   3.986
 1623TIP3   OH2 4874   6.210   3.316   2.837
 1623TIP3    H1 4875   6.163   3.244   2.797
 1623TIP3    H2 4876   6.292   3.322   2.788
 1624TIP3   OH2 4877   5.596   4.489   4.836
 1624TIP3    H1 4878   5.615   4.396   4.823
 1624TIP3    H2 4879   5.621   4.530   4.754
 1625TIP3   OH2 4880   6.108   0.079   3.432
 1625TIP3    H1 4881   6.132   0.142   3.500
 1625TIP3    H2 4882   6.122   0.127   3.350
 1626TIP3   OH2 4883   2.215   4.919   1.256
 1626TIP3    H1 4884   2.205   4.825   1.270
 1626TIP3    H2 4885   2.271   4.949   1.328
 1627TIP3   OH2 4886   6.051   3.044   3.314
 1627TIP3    H1 4887   6.043   2.960   3.268
 1627TIP3    H2 4888   6.120   3.029   3.379
 1628TIP3   OH2 4889   3.756   4.512   1.256
 1628TIP3    H1 4890   3.836   4.465   1.282
 1628TIP3    H2 4891   3.691   4.486   1.320
 1629TIP3   OH2 4892   5.476   0.472   1.822
 1629TIP3    H1 4893   5.463   0.377   1.831
 1629TIP3    H2 4894   5.480   0.487   1.728
 1630TIP3   OH2 4895   5.152   1.477   1.062
 1630TIP3    H1 4896   5.181   1.401   1.113
 1630TIP3    H2 4897   5.061   1.458   1.040
 1631TIP3   OH2 4898   5.961   2.379   2.238
 1631TIP3    H1 4899   6.003   2.312   2.183
 1631TIP3    H2 4900   5.925   2.330   2.312
 1632TIP3   OH2 4901   3.494   5.152   1.197
 1632TIP3    H1 4902   3.568   5.135   1.139
 1632TIP3    H2 4903   3.456   5.065   1.212
 1633TIP3   OH2 4904   3.868   5.426   2.796
 1633TIP3    H1 4905   3.867   5.488   2.723
 1633TIP3    H2 4906   3.798   5.364   2.777
 1634TIP3   OH2 4907   4.685   2.272   0.895
 1634TIP3    H1 4908   4.633   2.293   0.973
 1634TIP3    H2 4909   4.776   2.274   0.925
 1635TIP3   OH2 4910   0.172   2.846   1.764
 1635TIP3    H1 4911   0.087   2.850   1.806
 1635TIP3    H2 4912   0.180   2.754   1.736
 1636TIP3   OH2 4913   0.243   5.736   0.864
 1636TIP3    H1 4914   0.192   5.807   0.824
 1636TIP3    H2 4915   0.333   5.766   0.860
 1637TIP3   OH2 4916   2.781   0.699   0.167
 1637TIP3    H1 4917   2.739   0.688   0.082
 1637TIP3    H2 4918   2.753   0.623   0.218
 1638TIP3   OH2 4919   3.972   4.298   4.982
 1638TIP3    H1 4920   3.979   4.279   4.889
 1638TIP3    H2 4921   4.051   4.348   5.002
 1639TIP3   OH2 4922   0.353   3.663   4.584
 1639TIP3    H1 4923   0.361   3.755   4.560
 1639TIP3    H2 4924   0.388   3.615   4.509
 1640TIP3   OH2 4925   4.565   0.296   3.725
 1640TIP3    H1 4926   4.497   0.347   3.682
 1640TIP3    H2 4927   4.560   0.322   3.817
 1641TIP3   OH2 4928   0.304   3.333   0.211
 1641TIP3    H1 4929   0.229   3.303   0.160
 1641TIP3    H2 4930   0.270   3.350   0.298
 1642TIP3   OH2 4931   3.808   4.710   4.067
 1642TIP3    H1 4932   3.823   4.804   4.052
 1642TIP3    H2 4933   3.829   4.698   4.160
 1643TIP3   OH2 4934   1.589   1.323   1.046
 1643TIP3    H1 4935   1.530   1.276   1.106
 1643TIP3    H2 4936   1.618   1.399   1.097
 1644TIP3   OH2 4937   3.561   4.524   2.104
 1644TIP3    H1 4938   3.629   4.556   2.163
 1644TIP3    H2 4939   3.531   4.442   2.145
 1645TIP3   OH2 4940   0.206   3.970   3.927
 1645TIP3    H1 4941   0.146   4.035   3.890
 1645TIP3    H2 4942   0.174   3.955   4.016
 1646TIP3   OH2 4943   0.852   3.416   4.163
 1646TIP3    H1 4944   0.874   3.430   4.255
 1646TIP3    H2 4945   0.774   3.470   4.149
 1647TIP3   OH2 4946   1.666   5.454   1.521
 1647TIP3    H1 4947   1.729   5.382   1.514
 1647TIP3    H2 4948   1.662   5.473   1.615
 1648TIP3   OH2 4949   4.020   3.754   3.605
 1648TIP3    H1 4950   3.938   3.802   3.608
 1648TIP3    H2 4951   3.998   3.666   3.634
 1649TIP3   OH2 4952   3.214   3.527   1.841
 1649TIP3    H1 4953   3.236   3.579   1.919
 1649TIP3    H2 4954   3.130   3.563   1.812
 1650TIP3   OH2 4955   0.869   3.076   3.091
 1650TIP3    H1 4956   0.844   3.143   3.028
 1650TIP3    H2 4957   0.842   2.994   3.050
 1651TIP3   OH2 4958   2.212   3.259   3.918
 1651TIP3    H1 4959   2.134   3.309   3.938
 1651TIP3    H2 4960   2.244   3.228   4.003
 1652TIP3   OH2 4961   3.331   1.181   2.041
 1652TIP3    H1 4962   3.325   1.227   2.125
 1652TIP3    H2 4963   3.423   1.153   2.036
 1653TIP3   OH2 4964   3.187   0.784   0.372
 1653TIP3    H1 4965   3.095   0.760   0.388
 1653TIP3    H2 4966   3.185   0.835   0.291
 1654TIP3   OH2 4967   6.219   2.350   4.343
 1654TIP3    H1 4968   6.278   2.294   4.393
 1654TIP3    H2 4969   6.157   2.384   4.408
 1655TIP3   OH2 4970   5.391   0.956   4.567
 1655TIP3    H1 4971   5.329   1.016   4.608
 1655TIP3    H2 4972   5.342   0.875   4.553
 1656TIP3   OH2 4973   5.224   3.519   3.760
 1656TIP3    H1 4974   5.242   3.506   3.667
 1656TIP3    H2 4975   5.244   3.611   3.776
 1657TIP3   OH2 4976   1.224   1.615   1.779
 1657TIP3    H1 4977   1.240   1.535   1.830
 1657TIP3    H2 4978   1.303   1.667   1.792
 1658TIP3   OH2 4979   1.602   3.704   4.304
 1658TIP3    H1 4980   1.552   3.676   4.381
 1658TIP3    H2 4981   1.602   3.629   4.246
 1659TIP3   OH2 4982   1.303   3.219   1.164
 1659TIP3    H1 4983   1.264   3.192   1.081
 1659TIP3    H2 4984   1.229   3.243   1.220
 1660TIP3   OH2 4985   2.795   1.401   0.988
 1660TIP3    H1 4986   2.804   1.307   1.006
 1660TIP3    H2 4987   2.729   1.405   0.918
 1661TIP3   OH2 4988   5.720   3.590   0.536
 1661TIP3    H1 4989   5.727   3.626   0.625
 1661TIP3    H2 4990   5.645   3.531   0.540
 1662TIP3   OH2 4991   4.462   0.500   5.042
 1662TIP3    H1 4992   4.423   0.415   5.021
 1662TIP3    H2 4993   4.399   0.564   5.009
 1663TIP3   OH2 4994   2.283   0.257   4.057
 1663TIP3    H1 4995   2.231   0.329   4.093
 1663TIP3    H2 4996   2.358   0.249   4.116
 1664TIP3   OH2 4997   5.663   1.191   2.214
 1664TIP3    H1 4998   5.644   1.277   2.176
 1664TIP3    H2 4999   5.578   1.156   2.241
 1665TIP3   OH2 5000   0.742   0.678   0.957
 1665TIP3    H1 5001   0.651   0.700   0.936
 1665TIP3    H2 5002   0.736   0.596   1.005
 1666TIP3   OH2 5003   2.021   5.415   3.955
 1666TIP3    H1 5004   1.940   5.449   3.918
 1666TIP3    H2 5005   1.993   5.362   4.030
 1667TIP3   OH2 5006   3.591   3.333   1.566
 1667TIP3    H1 5007   3.595   3.253   1.618
 1667TIP3    H2 5008   3.678   3.338   1.524
 1668TIP3   OH2 5009   0.831   0.537   3.172
 1668TIP3    H1 5010   0.883   0.601   3.221
 1668TIP3    H2 5011   0.804   0.473   3.238
 1669TIP3   OH2 5012   4.448   0.820   2.038
 1669TIP3    H1 5013   4.512   0.750   2.048
 1669TIP3    H2 5014   4.475   0.867   1.959
 1670TIP3   OH2 5015   0.775   4.094   4.816
 1670TIP3    H1 5016   0.809   4.035   4.884
 1670TIP3    H2 5017   0.692   4.126   4.850
 1671TIP3   OH2 5018   4.864   5.344   0.476
 1671TIP3    H1 5019   4.900   5.378   0.558
 1671TIP3    H2 5020   4.792   5.287   0.503
 1672TIP3   OH2 5021   1.027   5.617   2.557
 1672TIP3    H1 5022   0.972   5.558   2.507
 1672TIP3    H2 5023   1.108   5.623   2.508
 1673TIP3   OH2 5024   4.459   4.054   1.114
 1673TIP3    H1 5025   4.460   4.149   1.100
 1673TIP3    H2 5026   4.446   4.043   1.208
 1674TIP3   OH2 5027   3.748   5.857   0.097
 1674TIP3    H1 5028   3.733   5.785   0.158
 1674TIP3    H2 5029   3.832   5.894   0.125
 1675TIP3   OH2 5030   5.926   4.689   3.356
 1675TIP3    H1 5031   5.937   4.616   3.417
 1675TIP3    H2 5032   6.009   4.737   3.361
 1676TIP3   OH2 5033   0.114   0.695   2.170
 1676TIP3    H1 5034   0.173   0.668   2.241
 1676TIP3    H2 5035   0.053   0.621   2.161
 1677TIP3   OH2 5036   3.793   2.472   1.806
 1677TIP3    H1 5037   3.801   2.378   1.821
 1677TIP3    H2 5038   3.699   2.488   1.807
 1678TIP3   OH2 5039   3.253   1.223   3.242
 1678TIP3    H1 5040   3.219   1.143   3.282
 1678TIP3    H2 5041   3.315   1.192   3.177
 1679TIP3   OH2 5042   3.486   1.127   4.567
 1679TIP3    H1 5043   3.476   1.034   4.591
 1679TIP3    H2 5044   3.411   1.144   4.510
 1680TIP3   OH2 5045   2.303   1.915   2.285
 1680TIP3    H1 5046   2.297   1.950   2.196
 1680TIP3    H2 5047   2.252   1.976   2.338
 1681TIP3   OH2 5048   0.049   5.830   3.766
 1681TIP3    H1 5049   0.091   5.780   3.836
 1681TIP3    H2 5050   0.030   5.916   3.805
 1682TIP3   OH2 5051   2.808   3.150   0.077
 1682TIP3    H1 5052   2.897   3.120   0.057
 1682TIP3    H2 5053   2.819   3.242   0.100
 1683TIP3   OH2 5054   4.401   3.361   1.435
 1683TIP3    H1 5055   4.492   3.356   1.464
 1683TIP3    H2 5056   4.405   3.338   1.342
 1684TIP3   OH2 5057   0.724   3.841   1.517
 1684TIP3    H1 5058   0.692   3.791   1.442
 1684TIP3    H2 5059   0.652   3.900   1.539
 1685TIP3   OH2 5060   4.865   4.444   0.656
 1685TIP3    H1 5061   4.853   4.513   0.721
 1685TIP3    H2 5062   4.777   4.413   0.637
 1686TIP3   OH2 5063   3.531   1.293   5.187
 1686TIP3    H1 5064   3.589   1.232   5.142
 1686TIP3    H2 5065   3.450   1.292   5.136
 1687TIP3   OH2 5066   2.616   4.145   3.331
 1687TIP3    H1 5067   2.709   4.151   3.310
 1687TIP3    H2 5068   2.588   4.061   3.294
 1688TIP3   OH2 5069   2.580   4.564   1.078
 1688TIP3    H1 5070   2.533   4.551   1.160
 1688TIP3    H2 5071   2.671   4.541   1.099
 1689TIP3   OH2 5072   5.396   2.706   3.411
 1689TIP3    H1 5073   5.438   2.679   3.493
 1689TIP3    H2 5074   5.319   2.755   3.438
 1690TIP3   OH2 5075   3.071   5.483   2.920
 1690TIP3    H1 5076   3.075   5.454   3.011
 1690TIP3    H2 5077   3.067   5.579   2.926
 1691TIP3   OH2 5078   3.482   1.698   5.064
 1691TIP3    H1 5079   3.530   1.637   5.121
 1691TIP3    H2 5080   3.535   1.778   5.064
 1692TIP3   OH2 5081   5.714   3.013   4.506
 1692TIP3    H1 5082   5.669   3.017   4.591
 1692TIP3    H2 5083   5.787   3.073   4.515
 1693TIP3   OH2 5084   4.484   5.585   1.997
 1693TIP3    H1 5085   4.458   5.499   1.963
 1693TIP3    H2 5086   4.416   5.609   2.059
 1694TIP3   OH2 5087   2.060   5.069   4.728
 1694TIP3    H1 5088   2.077   5.034   4.641
 1694TIP3    H2 5089   1.969   5.098   4.726
 1695TIP3   OH2 5090   5.248   0.211   1.150
 1695TIP3    H1 5091   5.305   0.169   1.085
 1695TIP3    H2 5092   5.181   0.146   1.169
 1696TIP3   OH2 5093   3.411   3.002   4.565
 1696TIP3    H1 5094   3.482   2.947   4.598
 1696TIP3    H2 5095   3.339   2.941   4.550
 1697TIP3   OH2 5096   6.278   1.903   1.116
 1697TIP3    H1 5097   6.337   1.917   1.042
 1697TIP3    H2 5098   6.264   1.991   1.152
 1698TIP3   OH2 5099   5.031   4.630   3.173
 1698TIP3    H1 5100   5.104   4.685   3.145
 1698TIP3    H2 5101   4.952   4.677   3.147
 1699TIP3   OH2 5102   0.219   4.519   5.144
 1699TIP3    H1 5103   0.229   4.552   5.054
 1699TIP3    H2 5104   0.125   4.516   5.158
 1700TIP3   OH2 5105   2.455   3.113   0.703
 1700TIP3    H1 5106   2.481   3.181   0.640
 1700TIP3    H2 5107   2.367   3.087   0.674
 1701TIP3   OH2 5108   0.662   2.489   0.486
 1701TIP3    H1 5109   0.711   2.519   0.409
 1701TIP3    H2 5110   0.726   2.489   0.557
 1702TIP3   OH2 5111   4.989   5.064   0.632
 1702TIP3    H1 5112   5.019   5.043   0.543
 1702TIP3    H2 5113   4.913   5.007   0.645
 1703TIP3   OH2 5114   3.627   5.605   3.585
 1703TIP3    H1 5115   3.569   5.654   3.528
 1703TIP3    H2 5116   3.588   5.613   3.672
 1704TIP3   OH2 5117   4.051   5.780   2.839
 1704TIP3    H1 5118   4.084   5.818   2.920
 1704TIP3    H2 5119   3.966   5.743   2.862
 1705TIP3   OH2 5120   0.243   3.212   3.059
 1705TIP3    H1 5121   0.268   3.186   2.970
 1705TIP3    H2 5122   0.157   3.254   3.048
 1706TIP3   OH2 5123   0.196   1.163   2.216
 1706TIP3    H1 5124   0.203   1.255   2.241
 1706TIP3    H2 5125   0.173   1.118   2.297
 1707TIP3   OH2 5126   4.352   0.031   0.824
 1707TIP3    H1 5127   4.303   0.008   0.745
 1707TIP3    H2 5128   4.369   0.125   0.816
 1708TIP3   OH2 5129   0.009   2.022   1.882
 1708TIP3    H1 5130  -0.007   1.950   1.944
 1708TIP3    H2 5131   0.067   2.081   1.930
 1709TIP3   OH2 5132   2.513   0.022   0.639
 1709TIP3    H1 5133   2.524  -0.042   0.568
 1709TIP3    H2 5134   2.584   0.085   0.626
 1710TIP3   OH2 5135   4.753   0.995   0.682
 1710TIP3    H1 5136   4.737   0.901   0.669
 1710TIP3    H2 5137   4.714   1.036   0.604
 1711TIP3   OH2 5138   4.243   1.332   0.663
 1711TIP3    H1 5139   4.294   1.353   0.740
 1711TIP3    H2 5140   4.170   1.394   0.664
 1712TIP3   OH2 5141   5.091   5.239   4.639
 1712TIP3    H1 5142   5.152   5.179   4.597
 1712TIP3    H2 5143   5.073   5.200   4.725
 1713TIP3   OH2 5144   0.377   5.195   1.283
 1713TIP3    H1 5145   0.283   5.186   1.300
 1713TIP3    H2 5146   0.418   5.192   1.369
 1714TIP3   OH2 5147   0.483   4.828   3.075
 1714TIP3    H1 5148   0.457   4.823   2.983
 1714TIP3    H2 5149   0.551   4.761   3.084
 1715TIP3   OH2 5150   1.775   3.411   0.875
 1715TIP3    H1 5151   1.856   3.373   0.907
 1715TIP3    H2 5152   1.774   3.391   0.781
 1716TIP3   OH2 5153   3.942   3.120   0.398
 1716TIP3    H1 5154   3.934   3.193   0.459
 1716TIP3    H2 5155   4.027   3.081   0.417
 1717TIP3   OH2 5156   3.982   4.921   1.167
 1717TIP3    H1 5157   4.061   4.974   1.155
 1717TIP3    H2 5158   3.926   4.974   1.224
 1718TIP3   OH2 5159   1.010   4.820   1.451
 1718TIP3    H1 5160   1.099   4.830   1.485
 1718TIP3    H2 5161   0.958   4.791   1.526
 1719TIP3   OH2 5162   3.456   5.866   4.100
 1719TIP3    H1 5163   3.480   5.854   4.192
 1719TIP3    H2 5164   3.399   5.792   4.080
 1720TIP3   OH2 5165   3.574   4.032   0.468
 1720TIP3    H1 5166   3.651   3.997   0.511
 1720TIP3    H2 5167   3.603   4.053   0.379
 1721TIP3   OH2 5168   2.530   0.261   3.554
 1721TIP3    H1 5169   2.483   0.209   3.620
 1721TIP3    H2 5170   2.526   0.351   3.586
 1722TIP3   OH2 5171   1.692   2.073   2.478
 1722TIP3    H1 5172   1.726   2.092   2.391
 1722TIP3    H2 5173   1.634   1.997   2.465
 1723TIP3   OH2 5174   1.196   2.566   1.430
 1723TIP3    H1 5175   1.238   2.653   1.433
 1723TIP3    H2 5176   1.267   2.505   1.449
 1724TIP3   OH2 5177   1.953   2.504   1.415
 1724TIP3    H1 5178   2.038   2.548   1.411
 1724TIP3    H2 5179   1.890   2.570   1.387
 1725TIP3   OH2 5180   1.131   1.726   4.186
 1725TIP3    H1 5181   1.079   1.646   4.193
 1725TIP3    H2 5182   1.066   1.797   4.191
 1726TIP3   OH2 5183   3.886   4.389   0.945
 1726TIP3    H1 5184   3.884   4.340   1.027
 1726TIP3    H2 5185   3.814   4.354   0.894
 1727TIP3   OH2 5186   5.410   3.270   2.763
 1727TIP3    H1 5187   5.476   3.201   2.761
 1727TIP3    H2 5188   5.327   3.223   2.776
 1728TIP3   OH2 5189   2.738   4.722   1.760
 1728TIP3    H1 5190   2.753   4.816   1.755
 1728TIP3    H2 5191   2.707   4.698   1.673
 1729TIP3   OH2 5192   2.849   1.992   4.384
 1729TIP3    H1 5193   2.881   2.081   4.394
 1729TIP3    H2 5194   2.772   1.999   4.328
 1730TIP3   OH2 5195   3.012   1.072   2.073
 1730TIP3    H1 5196   3.058   1.057   1.990
 1730TIP3    H2 5197   3.033   1.162   2.096
 1731TIP3   OH2 5198   0.350   2.163   2.573
 1731TIP3    H1 5199   0.424   2.109   2.602
 1731TIP3    H2 5200   0.323   2.123   2.490
 1732TIP3   OH2 5201   4.982   5.580   1.638
 1732TIP3    H1 5202   4.893   5.590   1.671
 1732TIP3    H2 5203   5.033   5.548   1.713
 1733TIP3   OH2 5204   2.204   2.838   2.637
 1733TIP3    H1 5205   2.204   2.843   2.732
 1733TIP3    H2 5206   2.163   2.754   2.617
 1734TIP3   OH2 5207   1.715   4.197   2.464
 1734TIP3    H1 5208   1.733   4.291   2.461
 1734TIP3    H2 5209   1.743   4.170   2.552
 1735TIP3   OH2 5210   1.966   0.645   4.372
 1735TIP3    H1 5211   1.912   0.646   4.293
 1735TIP3    H2 5212   2.013   0.728   4.370
 1736TIP3   OH2 5213   2.344   3.120   1.847
 1736TIP3    H1 5214   2.417   3.149   1.792
 1736TIP3    H2 5215   2.367   3.030   1.872
 1737TIP3   OH2 5216   2.698   0.549   0.367
 1737TIP3    H1 5217   2.760   0.494   0.415
 1737TIP3    H2 5218   2.669   0.614   0.431
 1738TIP3   OH2 5219   3.566   1.319   0.305
 1738TIP3    H1 5220   3.546   1.226   0.319
 1738TIP3    H2 5221   3.481   1.362   0.309
 1739TIP3   OH2 5222   1.705   1.919   3.764
 1739TIP3    H1 5223   1.799   1.914   3.746
 1739TIP3    H2 5224   1.696   1.987   3.831
 1740TIP3   OH2 5225   1.404   2.992   2.476
 1740TIP3    H1 5226   1.459   3.056   2.523
 1740TIP3    H2 5227   1.466   2.929   2.440
 1741TIP3   OH2 5228   4.238   0.982   4.704
 1741TIP3    H1 5229   4.320   0.944   4.737
 1741TIP3    H2 5230   4.183   0.906   4.684
 1742TIP3   OH2 5231   2.350   3.821   1.023
 1742TIP3    H1 5232   2.423   3.760   1.012
 1742TIP3    H2 5233   2.391   3.904   1.044
 1743TIP3   OH2 5234   1.136   3.420   2.764
 1743TIP3    H1 5235   1.220   3.439   2.806
 1743TIP3    H2 5236   1.102   3.343   2.809
 1744TIP3   OH2 5237   5.266   2.373   2.499
 1744TIP3    H1 5238   5.207   2.409   2.434
 1744TIP3    H2 5239   5.269   2.279   2.480
 1745TIP3   OH2 5240   2.516   4.514   4.996
 1745TIP3    H1 5241   2.583   4.574   5.027
 1745TIP3    H2 5242   2.438   4.568   4.985
 1746TIP3   OH2 5243   3.647   3.800   2.098
 1746TIP3    H1 5244   3.726   3.793   2.151
 1746TIP3    H2 5245   3.625   3.893   2.099
 1747TIP3   OH2 5246  -0.034   5.274   0.693
 1747TIP3    H1 5247   0.038   5.308   0.747
 1747TIP3    H2 5248   0.004   5.266   0.606
 1748TIP3   OH2 5249   2.704   4.992   1.721
 1748TIP3    H1 5250   2.715   5.026   1.810
 1748TIP3    H2 5251   2.628   5.039   1.686
 1749TIP3   OH2 5252   1.034   0.273   2.065
 1749TIP3    H1 5253   1.041   0.251   1.972
 1749TIP3    H2 5254   1.108   0.331   2.082
 1750TIP3   OH2 5255   2.496   2.643   4.849
 1750TIP3    H1 5256   2.553   2.718   4.831
 1750TIP3    H2 5257   2.506   2.628   4.943
 1751TIP3   OH2 5258   4.472   3.157   2.409
 1751TIP3    H1 5259   4.411   3.170   2.336
 1751TIP3    H2 5260   4.438   3.082   2.457
 1752TIP3   OH2 5261   3.134   1.733   4.374
 1752TIP3    H1 5262   3.040   1.729   4.393
 1752TIP3    H2 5263   3.175   1.688   4.448
 1753TIP3   OH2 5264   0.692   4.123   3.949
 1753TIP3    H1 5265   0.714   4.214   3.967
 1753TIP3    H2 5266   0.776   4.082   3.928
 1754TIP3   OH2 5267   0.932   1.040   2.053
 1754TIP3    H1 5268   0.907   1.106   1.989
 1754TIP3    H2 5269   1.013   1.074   2.092
 1755TIP3   OH2 5270   3.515   0.348   0.978
 1755TIP3    H1 5271   3.469   0.273   0.940
 1755TIP3    H2 5272   3.607   0.320   0.981
 1756TIP3   OH2 5273   2.466   4.193   0.144
 1756TIP3    H1 5274   2.550   4.155   0.169
 1756TIP3    H2 5275   2.405   4.165   0.213
 1757TIP3   OH2 5276   1.505   1.976   4.277
 1757TIP3    H1 5277   1.461   1.932   4.204
 1757TIP3    H2 5278   1.440   2.038   4.310
 1758TIP3   OH2 5279   4.773   4.197   0.969
 1758TIP3    H1 5280   4.727   4.197   0.885
 1758TIP3    H2 5281   4.705   4.222   1.033
 1759TIP3   OH2 5282   5.656   2.418   2.249
 1759TIP3    H1 5283   5.621   2.447   2.333
 1759TIP3    H2 5284   5.750   2.408   2.264
 1760TIP3   OH2 5285   6.218   0.384   3.006
 1760TIP3    H1 5286   6.172   0.343   2.932
 1760TIP3    H2 5287   6.298   0.332   3.016
 1761TIP3   OH2 5288   3.449   1.502   4.330
 1761TIP3    H1 5289   3.522   1.440   4.338
 1761TIP3    H2 5290   3.373   1.447   4.313
 1762TIP3   OH2 5291   1.500   1.186   1.539
 1762TIP3    H1 5292   1.546   1.187   1.622
 1762TIP3    H2 5293   1.442   1.110   1.545
 1763TIP3   OH2 5294   2.428   1.603   0.568
 1763TIP3    H1 5295   2.381   1.558   0.637
 1763TIP3    H2 5296   2.379   1.584   0.488
 1764TIP3   OH2 5297   5.080   4.809   3.933
 1764TIP3    H1 5298   5.147   4.871   3.904
 1764TIP3    H2 5299   5.004   4.829   3.878
 1765TIP3   OH2 5300   2.491   3.740   4.302
 1765TIP3    H1 5301   2.514   3.832   4.290
 1765TIP3    H2 5302   2.503   3.724   4.395
 1766TIP3   OH2 5303   3.249   0.429   1.046
 1766TIP3    H1 5304   3.327   0.385   1.011
 1766TIP3    H2 5305   3.279   0.469   1.128
 1767TIP3   OH2 5306   0.428   0.031   2.543
 1767TIP3    H1 5307   0.345  -0.004   2.575
 1767TIP3    H2 5308   0.443   0.110   2.596
 1768TIP3   OH2 5309   4.820   2.281   1.565
 1768TIP3    H1 5310   4.747   2.301   1.623
 1768TIP3    H2 5311   4.882   2.351   1.579
 1769TIP3   OH2 5312   1.909   5.113   3.380
 1769TIP3    H1 5313   1.852   5.054   3.330
 1769TIP3    H2 5314   1.925   5.068   3.462
 1770TIP3   OH2 5315   0.949   0.578   3.642
 1770TIP3    H1 5316   0.960   0.620   3.728
 1770TIP3    H2 5317   0.932   0.486   3.662
 1771TIP3   OH2 5318   4.066   3.237   1.772
 1771TIP3    H1 5319   4.079   3.215   1.680
 1771TIP3    H2 5320   4.154   3.244   1.808
 1772TIP3   OH2 5321   3.068   2.147   2.809
 1772TIP3    H1 5322   3.071   2.097   2.728
 1772TIP3    H2 5323   3.002   2.104   2.862
 1773TIP3   OH2 5324   5.435   1.083   4.875
 1773TIP3    H1 5325   5.484   1.010   4.913
 1773TIP3    H2 5326   5.489   1.111   4.801
 1774TIP3   OH2 5327   2.873   3.849   1.953
 1774TIP3    H1 5328   2.780   3.837   1.972
 1774TIP3    H2 5329   2.885   3.810   1.867
 1775TIP3   OH2 5330   6.138   2.654   3.765
 1775TIP3    H1 5331   6.143   2.658   3.669
 1775TIP3    H2 5332   6.078   2.725   3.789
 1776TIP3   OH2 5333   3.297   2.525   1.087
 1776TIP3    H1 5334   3.312   2.434   1.115
 1776TIP3    H2 5335   3.333   2.530   0.999
 1777TIP3   OH2 5336   2.240   4.818   3.090
 1777TIP3    H1 5337   2.221   4.907   3.120
 1777TIP3    H2 5338   2.309   4.787   3.149
 1778TIP3   OH2 5339   0.860   4.629   4.403
 1778TIP3    H1 5340   0.890   4.566   4.338
 1778TIP3    H2 5341   0.765   4.618   4.405
 1779TIP3   OH2 5342   2.771   1.288   2.750
 1779TIP3    H1 5343   2.850   1.254   2.710
 1779TIP3    H2 5344   2.778   1.383   2.741
 1780TIP3   OH2 5345   6.227   2.308   0.235
 1780TIP3    H1 5346   6.193   2.372   0.296
 1780TIP3    H2 5347   6.313   2.342   0.209
 1781TIP3   OH2 5348   1.221   0.106   2.289
 1781TIP3    H1 5349   1.162   0.143   2.355
 1781TIP3    H2 5350   1.209   0.160   2.212
 1782TIP3   OH2 5351   4.339   4.604   3.345
 1782TIP3    H1 5352   4.252   4.616   3.306
 1782TIP3    H2 5353   4.395   4.664   3.296
 1783TIP3   OH2 5354   0.151   0.431   3.621
 1783TIP3    H1 5355   0.138   0.488   3.697
 1783TIP3    H2 5356   0.245   0.435   3.603
 1784TIP3   OH2 5357   2.345   1.725   1.546
 1784TIP3    H1 5358   2.375   1.751   1.633
 1784TIP3    H2 5359   2.267   1.672   1.562
 1785TIP3   OH2 5360   4.221   0.944   2.146
 1785TIP3    H1 5361   4.268   0.875   2.099
 1785TIP3    H2 5362   4.242   1.024   2.097
 1786TIP3   OH2 5363   0.429   5.567   4.270
 1786TIP3    H1 5364   0.341   5.607   4.269
 1786TIP3    H2 5365   0.413   5.474   4.284
 1787TIP3   OH2 5366   0.919   2.865   0.831
 1787TIP3    H1 5367   0.922   2.902   0.743
 1787TIP3    H2 5368   0.890   2.775   0.818
 1788TIP3   OH2 5369   4.600   3.042   0.959
 1788TIP3    H1 5370   4.632   2.966   1.008
 1788TIP3    H2 5371   4.597   3.012   0.868
 1789TIP3   OH2 5372   1.894   3.030   4.689
 1789TIP3    H1 5373   1.970   3.022   4.631
 1789TIP3    H2 5374   1.930   3.017   4.777
 1790TIP3   OH2 5375   0.656   5.481   2.901
 1790TIP3    H1 5376   0.717   5.430   2.954
 1790TIP3    H2 5377   0.612   5.538   2.964
 1791TIP3   OH2 5378   1.543   4.744   2.164
 1791TIP3    H1 5379   1.483   4.818   2.169
 1791TIP3    H2 5380   1.613   4.765   2.225
 1792TIP3   OH2 5381   2.689   5.697   2.020
 1792TIP3    H1 5382   2.594   5.689   2.026
 1792TIP3    H2 5383   2.723   5.618   2.063
 1793TIP3   OH2 5384   3.743   3.499   3.857
 1793TIP3    H1 5385   3.793   3.552   3.796
 1793TIP3    H2 5386   3.651   3.520   3.839
 1794TIP3   OH2 5387   1.942   5.125   2.025
 1794TIP3    H1 5388   1.990   5.157   1.948
 1794TIP3    H2 5389   1.899   5.203   2.060
 1795TIP3   OH2 5390   3.737   5.986   3.362
 1795TIP3    H1 5391   3.822   5.979   3.407
 1795TIP3    H2 5392   3.728   5.904   3.314
 1796TIP3   OH2 5393   5.026   0.220   1.435
 1796TIP3    H1 5394   4.980   0.199   1.516
 1796TIP3    H2 5395   5.050   0.313   1.444
 1797TIP3   OH2 5396   5.097   2.657   4.182
 1797TIP3    H1 5397   5.136   2.574   4.156
 1797TIP3    H2 5398   5.167   2.721   4.170
 1798TIP3   OH2 5399   6.195   2.222   4.799
 1798TIP3    H1 5400   6.159   2.255   4.716
 1798TIP3    H2 5401   6.186   2.127   4.793
 1799TIP3   OH2 5402   0.838   0.832   2.624
 1799TIP3    H1 5403   0.808   0.742   2.631
 1799TIP3    H2 5404   0.850   0.846   2.530
 1800TIP3   OH2 5405   4.458   0.715   2.627
 1800TIP3    H1 5406   4.508   0.639   2.657
 1800TIP3    H2 5407   4.448   0.702   2.533
 1801TIP3   OH2 5408   3.575   3.574   1.411
 1801TIP3    H1 5409   3.520   3.502   1.381
 1801TIP3    H2 5410   3.513   3.645   1.431
 1802TIP3   OH2 5411   5.363   2.577   3.924
 1802TIP3    H1 5412   5.385   2.485   3.910
 1802TIP3    H2 5413   5.411   2.624   3.855
 1803TIP3   OH2 5414   6.173   1.247   4.407
 1803TIP3    H1 5415   6.166   1.342   4.420
 1803TIP3    H2 5416   6.225   1.216   4.482
 1804TIP3   OH2 5417   0.586   4.034   1.820
 1804TIP3    H1 5418   0.507   4.066   1.862
 1804TIP3    H2 5419   0.600   3.947   1.858
 1805TIP3   OH2 5420   2.241   4.960   4.906
 1805TIP3    H1 5421   2.168   4.991   4.852
 1805TIP3    H2 5422   2.318   4.975   4.852
 1806TIP3   OH2 5423   5.264   5.016   3.319
 1806TIP3    H1 5424   5.325   5.089   3.307
 1806TIP3    H2 5425   5.251   4.981   3.231
 1807TIP3   OH2 5426   5.783   5.627   0.989
 1807TIP3    H1 5427   5.688   5.625   1.004
 1807TIP3    H2 5428   5.808   5.717   1.008
 1808TIP3   OH2 5429   6.342   4.956   3.868
 1808TIP3    H1 5430   6.319   5.042   3.833
 1808TIP3    H2 5431   6.349   4.969   3.963
 1809TIP3   OH2 5432   3.587   5.725   4.593
 1809TIP3    H1 5433   3.524   5.657   4.615
 1809TIP3    H2 5434   3.667   5.699   4.640
 1810TIP3   OH2 5435   0.950   0.725   4.186
 1810TIP3    H1 5436   0.916   0.713   4.274
 1810TIP3    H2 5437   1.041   0.696   4.191
 1811TIP3   OH2 5438   4.233   5.373   2.320
 1811TIP3    H1 5439   4.282   5.318   2.381
 1811TIP3    H2 5440   4.158   5.403   2.371
 1812TIP3   OH2 5441   1.981   5.995   4.018
 1812TIP3    H1 5442   1.971   5.902   4.038
 1812TIP3    H2 5443   1.899   6.020   3.976
 1813TIP3   OH2 5444   3.821   5.845   0.871
 1813TIP3    H1 5445   3.915   5.853   0.887
 1813TIP3    H2 5446   3.807   5.751   0.855
 1814TIP3   OH2 5447   2.472   2.939   3.879
 1814TIP3    H1 5448   2.486   3.032   3.900
 1814TIP3    H2 5449   2.385   2.936   3.839
 1815TIP3   OH2 5450   0.284   0.226   4.516
 1815TIP3    H1 5451   0.316   0.145   4.476
 1815TIP3    H2 5452   0.262   0.201   4.606
 1816TIP3   OH2 5453   6.021   1.162   4.198
 1816TIP3    H1 5454   6.035   1.230   4.263
 1816TIP3    H2 5455   6.030   1.080   4.246
 1817TIP3   OH2 5456   1.350   1.521   1.073
 1817TIP3    H1 5457   1.302   1.602   1.090
 1817TIP3    H2 5458   1.432   1.531   1.120
 1818TIP3   OH2 5459   0.149   3.338   1.258
 1818TIP3    H1 5460   0.114   3.248   1.261
 1818TIP3    H2 5461   0.084   3.390   1.305
 1819TIP3   OH2 5462   0.551   0.279   4.025
 1819TIP3    H1 5463   0.569   0.370   4.052
 1819TIP3    H2 5464   0.623   0.258   3.965
 1820TIP3   OH2 5465   1.518   3.518   0.045
 1820TIP3    H1 5466   1.589   3.462   0.014
 1820TIP3    H2 5467   1.558   3.574   0.111
 1821TIP3   OH2 5468   2.839   5.471   5.073
 1821TIP3    H1 5469   2.831   5.385   5.031
 1821TIP3    H2 5470   2.910   5.460   5.137
 1822TIP3   OH2 5471   0.520   5.199   0.551
 1822TIP3    H1 5472   0.602   5.152   0.537
 1822TIP3    H2 5473   0.466   5.138   0.602
 1823TIP3   OH2 5474   0.463   3.058   1.169
 1823TIP3    H1 5475   0.466   3.010   1.087
 1823TIP3    H2 5476   0.484   3.149   1.145
 1824TIP3   OH2 5477   3.462   1.534   1.382
 1824TIP3    H1 5478   3.515   1.600   1.428
 1824TIP3    H2 5479   3.500   1.451   1.408
 1825TIP3   OH2 5480   1.514   3.974   4.168
 1825TIP3    H1 5481   1.544   3.885   4.190
 1825TIP3    H2 5482   1.576   4.031   4.213
 1826TIP3   OH2 5483   0.507   1.209   4.072
 1826TIP3    H1 5484   0.434   1.262   4.104
 1826TIP3    H2 5485   0.481   1.118   4.088
 1827TIP3   OH2 5486   0.448   2.828   1.949
 1827TIP3    H1 5487   0.449   2.915   1.909
 1827TIP3    H2 5488   0.453   2.845   2.043
 1828TIP3   OH2 5489   4.552   3.866   0.147
 1828TIP3    H1 5490   4.540   3.822   0.231
 1828TIP3    H2 5491   4.477   3.837   0.095
 1829TIP3   OH2 5492   5.050   4.875   2.818
 1829TIP3    H1 5493   4.962   4.888   2.782
 1829TIP3    H2 5494   5.063   4.781   2.816
 1830TIP3   OH2 5495   2.530   0.646   5.149
 1830TIP3    H1 5496   2.470   0.693   5.206
 1830TIP3    H2 5497   2.479   0.626   5.071
 1831TIP3   OH2 5498   0.672   3.647   4.811
 1831TIP3    H1 5499   0.635   3.709   4.874
 1831TIP3    H2 5500   0.724   3.702   4.752
 1832TIP3   OH2 5501   2.962   6.006   1.122
 1832TIP3    H1 5502   3.015   5.963   1.055
 1832TIP3    H2 5503   2.890   5.945   1.139
 1833TIP3   OH2 5504   2.757   4.640   4.028
 1833TIP3    H1 5505   2.708   4.580   3.972
 1833TIP3    H2 5506   2.814   4.583   4.081
 1834TIP3   OH2 5507   1.539   2.826   4.991
 1834TIP3    H1 5508   1.598   2.829   5.065
 1834TIP3    H2 5509   1.570   2.752   4.938
 1835TIP3   OH2 5510   1.934   5.088   0.282
 1835TIP3    H1 5511   1.898   5.125   0.363
 1835TIP3    H2 5512   2.029   5.091   0.294
 1836TIP3   OH2 5513   0.358   4.533   0.167
 1836TIP3    H1 5514   0.406   4.602   0.214
 1836TIP3    H2 5515   0.277   4.523   0.217
 1837TIP3   OH2 5516   5.394   0.279   3.044
 1837TIP3    H1 5517   5.474   0.239   3.077
 1837TIP3    H2 5518   5.387   0.247   2.954
 1838TIP3   OH2 5519   3.565   5.475   1.607
 1838TIP3    H1 5520   3.516   5.395   1.586
 1838TIP3    H2 5521   3.606   5.457   1.692
 1839TIP3   OH2 5522   3.687   5.073   3.245
 1839TIP3    H1 5523   3.708   5.104   3.333
 1839TIP3    H2 5524   3.718   5.142   3.186
 1840TIP3   OH2 5525   0.199   0.144   3.606
 1840TIP3    H1 5526   0.202   0.240   3.613
 1840TIP3    H2 5527   0.232   0.113   3.691
 1841TIP3   OH2 5528   2.074   5.818   4.245
 1841TIP3    H1 5529   2.022   5.813   4.325
 1841TIP3    H2 5530   2.153   5.865   4.269
 1842TIP3   OH2 5531   3.911   2.890   0.240
 1842TIP3    H1 5532   3.874   2.931   0.317
 1842TIP3    H2 5533   3.841   2.834   0.206
 1843TIP3   OH2 5534   0.367   3.714   3.033
 1843TIP3    H1 5535   0.449   3.764   3.036
 1843TIP3    H2 5536   0.301   3.775   3.066
 1844TIP3   OH2 5537   3.000   1.668   2.897
 1844TIP3    H1 5538   2.933   1.610   2.860
 1844TIP3    H2 5539   3.079   1.615   2.899
 1845TIP3   OH2 5540   1.658   1.396   1.411
 1845TIP3    H1 5541   1.740   1.354   1.436
 1845TIP3    H2 5542   1.590   1.336   1.440
 1846TIP3   OH2 5543   3.863   0.100   3.896
 1846TIP3    H1 5544   3.808   0.047   3.838
 1846TIP3    H2 5545   3.883   0.178   3.846
 1847TIP3   OH2 5546   0.284   3.729   2.564
 1847TIP3    H1 5547   0.245   3.691   2.485
 1847TIP3    H2 5548   0.372   3.756   2.538
 1848TIP3   OH2 5549   0.746   1.634   0.488
 1848TIP3    H1 5550   0.715   1.724   0.476
 1848TIP3    H2 5551   0.747   1.621   0.583
 1849TIP3   OH2 5552   3.030   1.643   2.022
 1849TIP3    H1 5553   3.090   1.575   1.992
 1849TIP3    H2 5554   2.948   1.626   1.975
 1850TIP3   OH2 5555   5.966   4.481   0.201
 1850TIP3    H1 5556   6.009   4.428   0.134
 1850TIP3    H2 5557   6.036   4.535   0.238
 1851TIP3   OH2 5558   2.538   0.702   3.126
 1851TIP3    H1 5559   2.629   0.719   3.150
 1851TIP3    H2 5560   2.487   0.758   3.184
 1852TIP3   OH2 5561   4.684   0.903   2.372
 1852TIP3    H1 5562   4.605   0.917   2.321
 1852TIP3    H2 5563   4.673   0.959   2.449
 1853TIP3   OH2 5564   4.408   0.317   0.750
 1853TIP3    H1 5565   4.441   0.396   0.707
 1853TIP3    H2 5566   4.384   0.259   0.678
 1854TIP3   OH2 5567   5.582   1.413   0.549
 1854TIP3    H1 5568   5.603   1.437   0.639
 1854TIP3    H2 5569   5.541   1.491   0.512
 1855TIP3   OH2 5570   0.891   2.643   2.455
 1855TIP3    H1 5571   0.890   2.709   2.386
 1855TIP3    H2 5572   0.983   2.615   2.460
 1856TIP3   OH2 5573   3.455   2.128   5.016
 1856TIP3    H1 5574   3.406   2.053   4.981
 1856TIP3    H2 5575   3.404   2.157   5.091
 1857TIP3   OH2 5576   5.686   2.143   3.177
 1857TIP3    H1 5577   5.698   2.105   3.089
 1857TIP3    H2 5578   5.624   2.214   3.164
 1858TIP3   OH2 5579   0.288   0.499   0.546
 1858TIP3    H1 5580   0.382   0.494   0.530
 1858TIP3    H2 5581   0.262   0.586   0.514
 1859TIP3   OH2 5582   3.413   4.172   0.656
 1859TIP3    H1 5583   3.456   4.251   0.624
 1859TIP3    H2 5584   3.448   4.102   0.601
 1860TIP3   OH2 5585   4.519   3.566   3.222
 1860TIP3    H1 5586   4.478   3.587   3.138
 1860TIP3    H2 5587   4.602   3.613   3.221
 1861TIP3   OH2 5588   1.307   5.265   3.098
 1861TIP3    H1 5589   1.283   5.176   3.123
 1861TIP3    H2 5590   1.265   5.321   3.163
 1862TIP3   OH2 5591   4.448   4.874   3.838
 1862TIP3    H1 5592   4.383   4.848   3.904
 1862TIP3    H2 5593   4.474   4.791   3.797
 1863TIP3   OH2 5594   2.625   1.090   1.890
 1863TIP3    H1 5595   2.638   1.170   1.940
 1863TIP3    H2 5596   2.535   1.095   1.859
 1864TIP3   OH2 5597   4.719   0.227   4.502
 1864TIP3    H1 5598   4.735   0.302   4.444
 1864TIP3    H2 5599   4.639   0.249   4.549
 1865TIP3   OH2 5600   4.603   4.164   1.803
 1865TIP3    H1 5601   4.553   4.120   1.734
 1865TIP3    H2 5602   4.578   4.119   1.883
 1866TIP3   OH2 5603   3.989   3.674   0.477
 1866TIP3    H1 5604   4.042   3.599   0.450
 1866TIP3    H2 5605   3.935   3.694   0.400
 1867TIP3   OH2 5606   3.337   0.259   3.507
 1867TIP3    H1 5607   3.316   0.179   3.556
 1867TIP3    H2 5608   3.415   0.236   3.456
 1868TIP3   OH2 5609   2.635   5.716   0.998
 1868TIP3    H1 5610   2.658   5.774   1.071
 1868TIP3    H2 5611   2.630   5.774   0.922
 1869TIP3   OH2 5612   5.095   0.940   4.484
 1869TIP3    H1 5613   5.094   0.850   4.451
 1869TIP3    H2 5614   5.058   0.933   4.572
 1870TIP3   OH2 5615   5.285   4.295   3.899
 1870TIP3    H1 5616   5.203   4.249   3.881
 1870TIP3    H2 5617   5.320   4.317   3.812
 1871TIP3   OH2 5618   2.346   3.486   3.286
 1871TIP3    H1 5619   2.285   3.442   3.226
 1871TIP3    H2 5620   2.416   3.423   3.300
 1872TIP3   OH2 5621   0.616   4.813   2.809
 1872TIP3    H1 5622   0.604   4.891   2.862
 1872TIP3    H2 5623   0.696   4.773   2.844
 1873TIP3   OH2 5624   2.535   5.633   3.242
 1873TIP3    H1 5625   2.490   5.700   3.294
 1873TIP3    H2 5626   2.567   5.680   3.165
 1874TIP3   OH2 5627   1.500   4.021   2.440
 1874TIP3    H1 5628   1.568   4.087   2.448
 1874TIP3    H2 5629   1.532   3.947   2.492
 1875TIP3   OH2 5630   4.516   0.906   1.044
 1875TIP3    H1 5631   4.516   0.858   1.127
 1875TIP3    H2 5632   4.431   0.886   1.005
 1876TIP3   OH2 5633   0.833   0.208   1.362
 1876TIP3    H1 5634   0.830   0.260   1.442
 1876TIP3    H2 5635   0.750   0.159   1.362
 1877TIP3   OH2 5636   2.509   1.604   0.958
 1877TIP3    H1 5637   2.493   1.530   1.017
 1877TIP3    H2 5638   2.533   1.562   0.875
 1878TIP3   OH2 5639   0.569   0.086   0.177
 1878TIP3    H1 5640   0.654   0.126   0.163
 1878TIP3    H2 5641   0.587  -0.007   0.191
 1879TIP3   OH2 5642   4.573   0.752   3.712
 1879TIP3    H1 5643   4.591   0.659   3.698
 1879TIP3    H2 5644   4.649   0.785   3.760
 1880TIP3   OH2 5645   5.031   2.657   2.301
 1880TIP3    H1 5646   5.028   2.682   2.394
 1880TIP3    H2 5647   4.950   2.693   2.264
 1881TIP3   OH2 5648   5.097   0.429   3.667
 1881TIP3    H1 5649   5.122   0.340   3.642
 1881TIP3    H2 5650   5.119   0.482   3.590
 1882TIP3   OH2 5651   3.424   0.612   4.980
 1882TIP3    H1 5652   3.368   0.650   4.912
 1882TIP3    H2 5653   3.452   0.687   5.033
 1883TIP3   OH2 5654   2.511   2.648   0.125
 1883TIP3    H1 5655   2.521   2.743   0.131
 1883TIP3    H2 5656   2.481   2.621   0.211
 1884TIP3   OH2 5657   4.767   2.900   2.678
 1884TIP3    H1 5658   4.682   2.895   2.722
 1884TIP3    H2 5659   4.765   2.985   2.633
 1885TIP3   OH2 5660   2.230   2.249   0.768
 1885TIP3    H1 5661   2.282   2.205   0.701
 1885TIP3    H2 5662   2.158   2.290   0.720
 1886TIP3   OH2 5663   4.562   2.314   1.137
 1886TIP3    H1 5664   4.541   2.274   1.221
 1886TIP3    H2 5665   4.651   2.348   1.148
 1887TIP3   OH2 5666   2.429   0.925   0.253
 1887TIP3    H1 5667   2.468   0.903   0.168
 1887TIP3    H2 5668   2.405   1.017   0.245
 1888TIP3   OH2 5669   1.531   0.300   0.841
 1888TIP3    H1 5670   1.624   0.288   0.858
 1888TIP3    H2 5671   1.500   0.212   0.816
 1889TIP3   OH2 5672   1.203   5.966   2.542
 1889TIP3    H1 5673   1.111   5.986   2.525
 1889TIP3    H2 5674   1.240   5.947   2.455
 1890TIP3   OH2 5675   2.453   3.821   3.812
 1890TIP3    H1 5676   2.358   3.824   3.823
 1890TIP3    H2 5677   2.485   3.778   3.892
 1891TIP3   OH2 5678   5.454   4.375   2.032
 1891TIP3    H1 5679   5.376   4.321   2.044
 1891TIP3    H2 5680   5.485   4.392   2.121
 1892TIP3   OH2 5681   0.026   4.449   1.860
 1892TIP3    H1 5682  -0.005   4.359   1.849
 1892TIP3    H2 5683   0.114   4.440   1.897
 1893TIP3   OH2 5684   0.121   5.294   1.366
 1893TIP3    H1 5685   0.098   5.359   1.299
 1893TIP3    H2 5686   0.169   5.343   1.432
 1894TIP3   OH2 5687   3.383   4.753   3.394
 1894TIP3    H1 5688   3.475   4.749   3.418
 1894TIP3    H2 5689   3.380   4.720   3.304
 1895TIP3   OH2 5690   5.941   5.630   3.573
 1895TIP3    H1 5691   5.895   5.675   3.644
 1895TIP3    H2 5692   6.032   5.658   3.582
 1896TIP3   OH2 5693   1.741   3.458   1.285
 1896TIP3    H1 5694   1.658   3.410   1.274
 1896TIP3    H2 5695   1.726   3.515   1.361
 1897TIP3   OH2 5696   5.559   2.264   4.587
 1897TIP3    H1 5697   5.565   2.223   4.673
 1897TIP3    H2 5698   5.481   2.320   4.592
 1898TIP3   OH2 5699   3.140   0.767   2.625
 1898TIP3    H1 5700   3.101   0.775   2.538
 1898TIP3    H2 5701   3.079   0.710   2.673
 1899TIP3   OH2 5702   2.497   1.294   2.781
 1899TIP3    H1 5703   2.591   1.278   2.769
 1899TIP3    H2 5704   2.459   1.280   2.694
 1900TIP3   OH2 5705   4.436   1.545   3.113
 1900TIP3    H1 5706   4.487   1.465   3.126
 1900TIP3    H2 5707   4.345   1.515   3.105
 1901TIP3   OH2 5708   0.879   0.667   1.408
 1901TIP3    H1 5709   0.794   0.633   1.381
 1901TIP3    H2 5710   0.866   0.762   1.411
 1902TIP3   OH2 5711   4.394   1.823   0.977
 1902TIP3    H1 5712   4.468   1.772   1.009
 1902TIP3    H2 5713   4.393   1.807   0.883
 1903TIP3   OH2 5714   5.530   4.766   4.414
 1903TIP3    H1 5715   5.513   4.705   4.342
 1903TIP3    H2 5716   5.571   4.713   4.482
 1904TIP3   OH2 5717   0.550   3.875   2.894
 1904TIP3    H1 5718   0.574   3.953   2.944
 1904TIP3    H2 5719   0.467   3.898   2.852
 1905TIP3   OH2 5720   5.856   5.128   0.170
 1905TIP3    H1 5721   5.938   5.144   0.123
 1905TIP3    H2 5722   5.813   5.213   0.173
 1906TIP3   OH2 5723   6.196   2.126   1.257
 1906TIP3    H1 5724   6.129   2.095   1.318
 1906TIP3    H2 5725   6.267   2.157   1.313
 1907TIP3   OH2 5726   0.912   1.708   2.739
 1907TIP3    H1 5727   0.919   1.706   2.644
 1907TIP3    H2 5728   0.827   1.669   2.759
 1908TIP3   OH2 5729   6.287   4.804   0.036
 1908TIP3    H1 5730   6.206   4.843   0.002
 1908TIP3    H2 5731   6.328   4.874   0.087
 1909TIP3   OH2 5732   1.920   1.384   1.161
 1909TIP3    H1 5733   1.929   1.302   1.208
 1909TIP3    H2 5734   1.848   1.430   1.206
 1910TIP3   OH2 5735   2.077   3.889   1.447
 1910TIP3    H1 5736   2.083   3.874   1.542
 1910TIP3    H2 5737   2.154   3.845   1.412
 1911TIP3   OH2 5738   0.884   2.543   0.641
 1911TIP3    H1 5739   0.964   2.508   0.680
 1911TIP3    H2 5740   0.912   2.581   0.558
 1912TIP3   OH2 5741   3.279   2.727   2.219
 1912TIP3    H1 5742   3.274   2.678   2.302
 1912TIP3    H2 5743   3.188   2.732   2.189
 1913TIP3   OH2 5744   0.674   1.710   4.039
 1913TIP3    H1 5745   0.648   1.746   4.124
 1913TIP3    H2 5746   0.721   1.630   4.061
 1914TIP3   OH2 5747   0.034   3.452   2.559
 1914TIP3    H1 5748   0.075   3.397   2.625
 1914TIP3    H2 5749   0.080   3.431   2.478
 1915TIP3   OH2 5750   1.237   5.841   2.278
 1915TIP3    H1 5751   1.154   5.801   2.254
 1915TIP3    H2 5752   1.283   5.854   2.195
 1916TIP3   OH2 5753   4.404   2.193   1.677
 1916TIP3    H1 5754   4.470   2.262   1.668
 1916TIP3    H2 5755   4.452   2.117   1.708
 1917TIP3   OH2 5756   0.575   4.025   1.259
 1917TIP3    H1 5757   0.573   4.001   1.352
 1917TIP3    H2 5758   0.544   4.115   1.257
 1918TIP3   OH2 5759   4.400   4.330   0.654
 1918TIP3    H1 5760   4.378   4.391   0.725
 1918TIP3    H2 5761   4.422   4.386   0.580
 1919TIP3   OH2 5762   4.871   3.475   0.623
 1919TIP3    H1 5763   4.789   3.432   0.645
 1919TIP3    H2 5764   4.929   3.404   0.594
 1920TIP3   OH2 5765   2.633   2.674   2.126
 1920TIP3    H1 5766   2.665   2.586   2.108
 1920TIP3    H2 5767   2.660   2.726   2.050
 1921TIP3   OH2 5768   1.927   2.133   0.501
 1921TIP3    H1 5769   1.843   2.158   0.464
 1921TIP3    H2 5770   1.979   2.107   0.425
 1922TIP3   OH2 5771   6.108   0.427   0.859
 1922TIP3    H1 5772   6.056   0.373   0.799
 1922TIP3    H2 5773   6.062   0.420   0.942
 1923TIP3   OH2 5774   2.401   2.974   1.031
 1923TIP3    H1 5775   2.354   3.006   1.108
 1923TIP3    H2 5776   2.492   3.000   1.045
 1924TIP3   OH2 5777   4.516   2.693   4.100
 1924TIP3    H1 5778   4.474   2.702   4.015
 1924TIP3    H2 5779   4.550   2.604   4.101
 1925TIP3   OH2 5780   2.976   3.410   0.147
 1925TIP3    H1 5781   2.930   3.421   0.230
 1925TIP3    H2 5782   3.065   3.438   0.165
 1926TIP3   OH2 5783   0.653   4.749   4.872
 1926TIP3    H1 5784   0.628   4.780   4.785
 1926TIP3    H2 5785   0.748   4.738   4.868
 1927TIP3   OH2 5786   4.188   1.211   4.892
 1927TIP3    H1 5787   4.094   1.197   4.882
 1927TIP3    H2 5788   4.229   1.136   4.849
 1928TIP3   OH2 5789   3.152   3.254   1.936
 1928TIP3    H1 5790   3.158   3.271   2.030
 1928TIP3    H2 5791   3.182   3.336   1.895
 1929TIP3   OH2 5792   5.570   0.970   0.416
 1929TIP3    H1 5793   5.661   0.990   0.440
 1929TIP3    H2 5794   5.522   0.973   0.499
 1930TIP3   OH2 5795   5.975   4.787   1.120
 1930TIP3    H1 5796   5.905   4.809   1.058
 1930TIP3    H2 5797   6.054   4.827   1.082
 1931TIP3   OH2 5798   1.696   5.838   2.013
 1931TIP3    H1 5799   1.772   5.847   1.955
 1931TIP3    H2 5800   1.678   5.744   2.014
 1932TIP3   OH2 5801   4.757   1.266   4.310
 1932TIP3    H1 5802   4.728   1.349   4.348
 1932TIP3    H2 5803   4.718   1.265   4.222
 1933TIP3   OH2 5804   4.626   3.322   0.676
 1933TIP3    H1 5805   4.587   3.282   0.754
 1933TIP3    H2 5806   4.633   3.251   0.613
 1934TIP3   OH2 5807   1.306   0.035   3.791
 1934TIP3    H1 5808   1.402   0.033   3.796
 1934TIP3    H2 5809   1.285  -0.021   3.716
 1935TIP3   OH2 5810   6.118   2.710   3.495
 1935TIP3    H1 5811   6.118   2.680   3.404
 1935TIP3    H2 5812   6.161   2.795   3.492
 1936TIP3   OH2 5813   3.901   2.931   0.742
 1936TIP3    H1 5814   3.817   2.971   0.718
 1936TIP3    H2 5815   3.923   2.874   0.668
 1937TIP3   OH2 5816   4.092   5.329   1.532
 1937TIP3    H1 5817   4.121   5.402   1.586
 1937TIP3    H2 5818   4.006   5.354   1.500
 1938TIP3   OH2 5819   6.144   3.922   3.070
 1938TIP3    H1 5820   6.169   3.874   3.150
 1938TIP3    H2 5821   6.087   3.861   3.023
 1939TIP3   OH2 5822   5.811   2.720   4.445
 1939TIP3    H1 5823   5.769   2.736   4.529
 1939TIP3    H2 5824   5.745   2.672   4.394
 1940TIP3   OH2 5825   3.217   0.750   1.017
 1940TIP3    H1 5826   3.304   0.710   1.019
 1940TIP3    H2 5827   3.232   0.841   1.041
 1941TIP3   OH2 5828   0.635   0.748   3.197
 1941TIP3    H1 5829   0.652   0.656   3.218
 1941TIP3    H2 5830   0.582   0.745   3.117
 1942TIP3   OH2 5831   5.805   3.603   4.624
 1942TIP3    H1 5832   5.766   3.686   4.651
 1942TIP3    H2 5833   5.761   3.581   4.541
 1943TIP3   OH2 5834   4.270   2.686   2.833
 1943TIP3    H1 5835   4.249   2.682   2.740
 1943TIP3    H2 5836   4.235   2.605   2.869
 1944TIP3   OH2 5837   5.352   2.145   0.039
 1944TIP3    H1 5838   5.379   2.232   0.067
 1944TIP3    H2 5839   5.392   2.133  -0.047
 1945TIP3   OH2 5840   3.659   4.327   2.830
 1945TIP3    H1 5841   3.675   4.324   2.924
 1945TIP3    H2 5842   3.741   4.362   2.793
 1946TIP3   OH2 5843   3.872   4.506   1.942
 1946TIP3    H1 5844   3.948   4.563   1.928
 1946TIP3    H2 5845   3.797   4.565   1.931
 1947TIP3   OH2 5846   4.309   1.201   2.317
 1947TIP3    H1 5847   4.393   1.245   2.308
 1947TIP3    H2 5848   4.244   1.268   2.296
 1948TIP3   OH2 5849   0.079   1.460   4.300
 1948TIP3    H1 5850   0.026   1.407   4.241
 1948TIP3    H2 5851   0.057   1.551   4.276
 1949TIP3   OH2 5852   5.476   0.857   3.450
 1949TIP3    H1 5853   5.569   0.874   3.436
 1949TIP3    H2 5854   5.474   0.784   3.512
 1950TIP3   OH2 5855   3.912   5.602   0.773
 1950TIP3    H1 5856   3.952   5.515   0.781
 1950TIP3    H2 5857   3.981   5.657   0.738
 1951TIP3   OH2 5858   4.333   0.749   1.372
 1951TIP3    H1 5859   4.291   0.748   1.285
 1951TIP3    H2 5860   4.354   0.657   1.389
 1952TIP3   OH2 5861   1.587   0.099   3.892
 1952TIP3    H1 5862   1.610   0.024   3.947
 1952TIP3    H2 5863   1.658   0.105   3.828
 1953TIP3   OH2 5864   4.543   1.074   2.195
 1953TIP3    H1 5865   4.521   0.992   2.153
 1953TIP3    H2 5866   4.463   1.101   2.239
 1954TIP3   OH2 5867   2.475   5.664   2.415
 1954TIP3    H1 5868   2.485   5.749   2.460
 1954TIP3    H2 5869   2.380   5.651   2.410
 1955TIP3   OH2 5870   1.486   5.570   2.081
 1955TIP3    H1 5871   1.465   5.477   2.076
 1955TIP3    H2 5872   1.475   5.593   2.173
 1956TIP3   OH2 5873   5.713   5.540   4.898
 1956TIP3    H1 5874   5.625   5.542   4.935
 1956TIP3    H2 5875   5.761   5.608   4.947
 1957TIP3   OH2 5876   5.236   2.240   4.634
 1957TIP3    H1 5877   5.216   2.146   4.635
 1957TIP3    H2 5878   5.190   2.273   4.557
 1958TIP3   OH2 5879   2.321   3.621   1.529
 1958TIP3    H1 5880   2.229   3.598   1.516
 1958TIP3    H2 5881   2.341   3.678   1.455
 1959TIP3   OH2 5882   2.108   2.946   1.982
 1959TIP3    H1 5883   2.183   2.938   2.042
 1959TIP3    H2 5884   2.139   3.004   1.913
 1960TIP3   OH2 5885   1.571   5.668   2.976
 1960TIP3    H1 5886   1.482   5.632   2.976
 1960TIP3    H2 5887   1.576   5.719   2.896
 1961TIP3   OH2 5888   1.531   4.076   3.187
 1961TIP3    H1 5889   1.575   4.001   3.147
 1961TIP3    H2 5890   1.598   4.144   3.192
 1962TIP3   OH2 5891   0.642   0.198   2.856
 1962TIP3    H1 5892   0.698   0.156   2.921
 1962TIP3    H2 5893   0.625   0.129   2.791
 1963TIP3   OH2 5894   1.750   2.040   1.127
 1963TIP3    H1 5895   1.692   1.985   1.075
 1963TIP3    H2 5896   1.694   2.109   1.162
 1964TIP3   OH2 5897   1.982   3.073   0.457
 1964TIP3    H1 5898   2.045   3.043   0.391
 1964TIP3    H2 5899   1.905   3.099   0.406
 1965TIP3   OH2 5900   3.427   2.941   0.545
 1965TIP3    H1 5901   3.337   2.915   0.564
 1965TIP3    H2 5902   3.479   2.899   0.612
 1966TIP3   OH2 5903   3.024   5.104   1.934
 1966TIP3    H1 5904   2.948   5.150   1.897
 1966TIP3    H2 5905   3.032   5.139   2.022
 1967TIP3   OH2 5906   1.296   1.748   1.369
 1967TIP3    H1 5907   1.243   1.776   1.443
 1967TIP3    H2 5908   1.355   1.682   1.405
 1968TIP3   OH2 5909   3.653   4.751   3.488
 1968TIP3    H1 5910   3.717   4.770   3.557
 1968TIP3    H2 5911   3.703   4.757   3.407
 1969TIP3   OH2 5912   1.785   3.305   4.661
 1969TIP3    H1 5913   1.820   3.218   4.681
 1969TIP3    H2 5914   1.856   3.365   4.683
 1970TIP3   OH2 5915   0.345   2.666   1.019
 1970TIP3    H1 5916   0.334   2.592   0.959
 1970TIP3    H2 5917   0.339   2.627   1.107
 1971TIP3   OH2 5918   5.703   0.766   1.648
 1971TIP3    H1 5919   5.772   0.714   1.607
 1971TIP3    H2 5920   5.683   0.834   1.583
 1972TIP3   OH2 5921   6.063   2.423   4.927
 1972TIP3    H1 5922   6.111   2.351   4.885
 1972TIP3    H2 5923   5.995   2.379   4.977
 1973TIP3   OH2 5924   1.497   1.035   0.507
 1973TIP3    H1 5925   1.578   1.069   0.545
 1973TIP3    H2 5926   1.434   1.106   0.518
 1974TIP3   OH2 5927   1.866   2.177   1.745
 1974TIP3    H1 5928   1.872   2.263   1.787
 1974TIP3    H2 5929   1.825   2.195   1.660
 1975TIP3   OH2 5930   0.028   5.025   2.752
 1975TIP3    H1 5931   0.028   5.088   2.824
 1975TIP3    H2 5932   0.058   5.075   2.676
 1976TIP3   OH2 5933   0.042   3.180   0.983
 1976TIP3    H1 5934   0.035   3.223   1.068
 1976TIP3    H2 5935   0.100   3.105   0.999
 1977TIP3   OH2 5936   5.239   3.071   2.846
 1977TIP3    H1 5937   5.181   3.001   2.875
 1977TIP3    H2 5938   5.318   3.027   2.815
 1978TIP3   OH2 5939   0.525   2.669   2.903
 1978TIP3    H1 5940   0.437   2.631   2.901
 1978TIP3    H2 5941   0.562   2.646   2.818
 1979TIP3   OH2 5942   2.273   2.093   3.092
 1979TIP3    H1 5943   2.308   2.166   3.142
 1979TIP3    H2 5944   2.337   2.023   3.103
 1980TIP3   OH2 5945   3.586   1.454   3.277
 1980TIP3    H1 5946   3.644   1.380   3.292
 1980TIP3    H2 5947   3.515   1.419   3.224
 1981TIP3   OH2 5948   2.200   4.198   0.873
 1981TIP3    H1 5949   2.166   4.231   0.956
 1981TIP3    H2 5950   2.183   4.104   0.876
 1982TIP3   OH2 5951   3.131   0.658   1.256
 1982TIP3    H1 5952   3.045   0.697   1.269
 1982TIP3    H2 5953   3.153   0.677   1.164
 1983TIP3   OH2 5954   5.184   4.887   3.056
 1983TIP3    H1 5955   5.152   4.907   2.968
 1983TIP3    H2 5956   5.263   4.836   3.041
 1984TIP3   OH2 5957   5.149   5.767   3.534
 1984TIP3    H1 5958   5.199   5.693   3.501
 1984TIP3    H2 5959   5.059   5.735   3.541
 1985TIP3   OH2 5960   2.149   0.522   0.106
 1985TIP3    H1 5961   2.079   0.464   0.136
 1985TIP3    H2 5962   2.193   0.473   0.036
 1986TIP3   OH2 5963   4.988   2.929   4.714
 1986TIP3    H1 5964   4.919   2.975   4.761
 1986TIP3    H2 5965   5.038   2.997   4.670
 1987TIP3   OH2 5966   1.497   0.916   0.261
 1987TIP3    H1 5967   1.565   0.852   0.244
 1987TIP3    H2 5968   1.512   0.945   0.351
 1988TIP3   OH2 5969   3.497   1.861   3.866
 1988TIP3    H1 5970   3.402   1.849   3.864
 1988TIP3    H2 5971   3.530   1.780   3.904
 1989TIP3   OH2 5972   1.351   2.552   0.033
 1989TIP3    H1 5973   1.301   2.632   0.054
 1989TIP3    H2 5974   1.318   2.487   0.094
 1990TIP3   OH2 5975   1.909   1.048   2.781
 1990TIP3    H1 5976   1.825   1.090   2.802
 1990TIP3    H2 5977   1.888   0.954   2.779
 1991TIP3   OH2 5978   1.279   2.577   3.356
 1991TIP3    H1 5979   1.225   2.620   3.290
 1991TIP3    H2 5980   1.267   2.631   3.435
 1992TIP3   OH2 5981   5.454   4.339   3.663
 1992TIP3    H1 5982   5.505   4.414   3.633
 1992TIP3    H2 5983   5.409   4.308   3.585
 1993TIP3   OH2 5984   1.441   3.622   2.819
 1993TIP3    H1 5985   1.430   3.658   2.907
 1993TIP3    H2 5986   1.529   3.586   2.818
 1994TIP3   OH2 5987   2.444   4.457   0.580
 1994TIP3    H1 5988   2.414   4.475   0.491
 1994TIP3    H2 5989   2.392   4.516   0.635
 1995TIP3   OH2 5990   3.482   3.826   4.774
 1995TIP3    H1 5991   3.556   3.838   4.833
 1995TIP3    H2 5992   3.520   3.786   4.695
 1996TIP3   OH2 5993   0.958   5.715   1.067
 1996TIP3    H1 5994   0.875   5.671   1.047
 1996TIP3    H2 5995   0.933   5.804   1.092
 1997TIP3   OH2 5996   4.301   0.949   5.026
 1997TIP3    H1 5997   4.355   0.940   4.948
 1997TIP3    H2 5998   4.348   1.013   5.080
 1998TIP3   OH2 5999   5.155   1.202   4.578
 1998TIP3    H1 6000   5.090   1.216   4.648
 1998TIP3    H2 6001   5.132   1.117   4.541
 1999TIP3   OH2 6002   2.367   1.171   0.667
 1999TIP3    H1 6003   2.312   1.145   0.741
 1999TIP3    H2 6004   2.446   1.118   0.676
 2000TIP3   OH2 6005   3.959   1.095   1.948
 2000TIP3    H1 6006   3.949   1.000   1.953
 2000TIP3    H2 6007   4.038   1.114   1.999
 2001TIP3   OH2 6008   3.181   3.156   3.706
 2001TIP3    H1 6009   3.190   3.083   3.768
 2001TIP3    H2 6010   3.271   3.184   3.689
 2002TIP3   OH2 6011   3.674   0.577   2.973
 2002TIP3    H1 6012   3.694   0.668   2.952
 2002TIP3    H2 6013   3.674   0.573   3.068
 2003TIP3   OH2 6014   5.527   2.778   1.327
 2003TIP3    H1 6015   5.587   2.836   1.374
 2003TIP3    H2 6016   5.506   2.709   1.390
 2004TIP3   OH2 6017   0.726   2.513   4.060
 2004TIP3    H1 6018   0.782   2.573   4.109
 2004TIP3    H2 6019   0.645   2.562   4.046
 2005TIP3   OH2 6020   1.950   5.709   4.017
 2005TIP3    H1 6021   2.017   5.681   4.081
 2005TIP3    H2 6022   1.951   5.639   3.951
 2006TIP3   OH2 6023   2.653   3.539   1.428
 2006TIP3    H1 6024   2.662   3.593   1.350
 2006TIP3    H2 6025   2.575   3.486   1.412
 2007TIP3   OH2 6026   4.096   0.523   4.683
 2007TIP3    H1 6027   4.028   0.526   4.750
 2007TIP3    H2 6028   4.049   0.538   4.600
 2008TIP3   OH2 6029   0.771   5.269   4.243
 2008TIP3    H1 6030   0.843   5.330   4.231
 2008TIP3    H2 6031   0.759   5.228   4.158
 2009TIP3   OH2 6032   2.003   3.889   1.691
 2009TIP3    H1 6033   1.970   3.970   1.652
 2009TIP3    H2 6034   1.977   3.895   1.783
 2010TIP3   OH2 6035   2.529   0.208   1.038
 2010TIP3    H1 6036   2.599   0.190   0.974
 2010TIP3    H2 6037   2.562   0.170   1.119
 2011TIP3   OH2 6038   0.653   4.974   1.462
 2011TIP3    H1 6039   0.590   4.905   1.442
 2011TIP3    H2 6040   0.601   5.041   1.506
 2012TIP3   OH2 6041   3.117   0.460   4.491
 2012TIP3    H1 6042   3.131   0.439   4.583
 2012TIP3    H2 6043   3.111   0.555   4.488
 2013TIP3   OH2 6044   5.651   0.857   2.071
 2013TIP3    H1 6045   5.625   0.876   2.162
 2013TIP3    H2 6046   5.627   0.765   2.058
 2014TIP3   OH2 6047   4.438   4.638   2.836
 2014TIP3    H1 6048   4.452   4.653   2.743
 2014TIP3    H2 6049   4.349   4.603   2.842
 2015TIP3   OH2 6050   2.607   1.620   4.443
 2015TIP3    H1 6051   2.613   1.583   4.355
 2015TIP3    H2 6052   2.536   1.572   4.484
 2016TIP3   OH2 6053   1.351   2.537   4.148
 2016TIP3    H1 6054   1.347   2.559   4.055
 2016TIP3    H2 6055   1.422   2.591   4.183
 2017TIP3   OH2 6056   3.132   3.821   1.066
 2017TIP3    H1 6057   3.187   3.839   0.990
 2017TIP3    H2 6058   3.189   3.837   1.141
 2018TIP3   OH2 6059   3.557   4.820   0.225
 2018TIP3    H1 6060   3.623   4.875   0.266
 2018TIP3    H2 6061   3.590   4.804   0.137
 2019TIP3   OH2 6062   3.475   2.979   4.132
 2019TIP3    H1 6063   3.441   2.890   4.140
 2019TIP3    H2 6064   3.397   3.035   4.136
 2020TIP3   OH2 6065   4.815   1.828   2.843
 2020TIP3    H1 6066   4.772   1.906   2.807
 2020TIP3    H2 6067   4.777   1.818   2.930
 2021TIP3   OH2 6068   5.090   1.701   1.815
 2021TIP3    H1 6069   5.057   1.612   1.803
 2021TIP3    H2 6070   5.181   1.696   1.785
 2022TIP3   OH2 6071   4.613   3.084   3.216
 2022TIP3    H1 6072   4.593   3.132   3.296
 2022TIP3    H2 6073   4.540   3.103   3.157
 2023TIP3   OH2 6074   4.733   0.171   0.654
 2023TIP3    H1 6075   4.746   0.132   0.568
 2023TIP3    H2 6076   4.644   0.145   0.679
 2024TIP3   OH2 6077   5.323   0.437   0.950
 2024TIP3    H1 6078   5.239   0.403   0.979
 2024TIP3    H2 6079   5.304   0.524   0.914
 2025TIP3   OH2 6080   1.449   5.502   1.370
 2025TIP3    H1 6081   1.482   5.528   1.284
 2025TIP3    H2 6082   1.527   5.489   1.423
 2026TIP3   OH2 6083   2.120   2.031   1.820
 2026TIP3    H1 6084   2.052   2.098   1.828
 2026TIP3    H2 6085   2.124   2.013   1.726
 2027TIP3   OH2 6086   0.876   2.316   4.469
 2027TIP3    H1 6087   0.970   2.316   4.488
 2027TIP3    H2 6088   0.871   2.313   4.373
 2028TIP3   OH2 6089   3.764   2.426  -0.017
 2028TIP3    H1 6090   3.714   2.345  -0.003
 2028TIP3    H2 6091   3.847   2.411   0.027
 2029TIP3   OH2 6092   0.310   3.971   2.808
 2029TIP3    H1 6093   0.255   4.046   2.787
 2029TIP3    H2 6094   0.268   3.897   2.764
 2030TIP3   OH2 6095   0.190   0.038   0.084
 2030TIP3    H1 6096   0.188   0.109   0.148
 2030TIP3    H2 6097   0.110  -0.012   0.101
 2031TIP3   OH2 6098   3.072   4.261   1.904
 2031TIP3    H1 6099   3.001   4.221   1.955
 2031TIP3    H2 6100   3.038   4.266   1.815
 2032TIP3   OH2 6101   4.265   3.525   3.814
 2032TIP3    H1 6102   4.197   3.500   3.876
 2032TIP3    H2 6103   4.346   3.520   3.864
 2033TIP3   OH2 6104   0.870   0.387   4.478
 2033TIP3    H1 6105   0.890   0.480   4.466
 2033TIP3    H2 6106   0.777   0.385   4.500
 2034TIP3   OH2 6107   3.347   3.092   1.094
 2034TIP3    H1 6108   3.420   3.102   1.155
 2034TIP3    H2 6109   3.325   3.182   1.068
 2035TIP3   OH2 6110   6.256   0.712   3.550
 2035TIP3    H1 6111   6.260   0.699   3.456
 2035TIP3    H2 6112   6.175   0.762   3.564
 2036TIP3   OH2 6113   4.000   5.599   1.055
 2036TIP3    H1 6114   4.084   5.637   1.081
 2036TIP3    H2 6115   3.969   5.656   0.985
 2037TIP3   OH2 6116   2.961   0.850   4.218
 2037TIP3    H1 6117   3.020   0.888   4.153
 2037TIP3    H2 6118   2.983   0.757   4.220
 2038TIP3   OH2 6119   3.893   2.689   1.400
 2038TIP3    H1 6120   3.928   2.615   1.450
 2038TIP3    H2 6121   3.968   2.720   1.349
 2039TIP3   OH2 6122   4.682   5.736   0.645
 2039TIP3    H1 6123   4.692   5.705   0.735
 2039TIP3    H2 6124   4.614   5.804   0.650
 2040TIP3   OH2 6125   0.598   2.088   4.683
 2040TIP3    H1 6126   0.536   2.114   4.615
 2040TIP3    H2 6127   0.633   2.171   4.715
 2041TIP3   OH2 6128   5.421   1.638   1.934
 2041TIP3    H1 6129   5.364   1.625   2.010
 2041TIP3    H2 6130   5.510   1.632   1.970
 2042TIP3   OH2 6131   3.649   5.072   0.556
 2042TIP3    H1 6132   3.635   5.084   0.651
 2042TIP3    H2 6133   3.564   5.093   0.518
 2043TIP3   OH2 6134   5.804   1.173   3.345
 2043TIP3    H1 6135   5.797   1.225   3.265
 2043TIP3    H2 6136   5.846   1.232   3.408
 2044TIP3   OH2 6137   3.812   3.076   1.667
 2044TIP3    H1 6138   3.789   3.147   1.728
 2044TIP3    H2 6139   3.816   2.998   1.722
 2045TIP3   OH2 6140   3.981   2.198   3.066
 2045TIP3    H1 6141   3.922   2.243   3.006
 2045TIP3    H2 6142   4.018   2.126   3.015
 2046TIP3   OH2 6143   1.780   1.940   1.599
 2046TIP3    H1 6144   1.743   1.880   1.663
 2046TIP3    H2 6145   1.740   2.024   1.618
 2047TIP3   OH2 6146   5.531   2.372   0.839
 2047TIP3    H1 6147   5.508   2.363   0.932
 2047TIP3    H2 6148   5.468   2.435   0.804
 2048TIP3   OH2 6149   4.379   3.169   0.765
 2048TIP3    H1 6150   4.446   3.118   0.719
 2048TIP3    H2 6151   4.297   3.123   0.746
 2049TIP3   OH2 6152   2.057   2.465   0.852
 2049TIP3    H1 6153   2.149   2.471   0.828
 2049TIP3    H2 6154   2.047   2.529   0.923
 2050TIP3   OH2 6155   4.111   2.104   1.458
 2050TIP3    H1 6156   4.186   2.062   1.417
 2050TIP3    H2 6157   4.122   2.087   1.551
 2051TIP3   OH2 6158   2.057   5.157   1.307
 2051TIP3    H1 6159   2.123   5.091   1.283
 2051TIP3    H2 6160   2.041   5.206   1.226
 2052TIP3   OH2 6161   1.832   0.926   0.828
 2052TIP3    H1 6162   1.750   0.879   0.816
 2052TIP3    H2 6163   1.808   1.006   0.874
 2053TIP3   OH2 6164   3.826   2.794   3.679
 2053TIP3    H1 6165   3.871   2.839   3.608
 2053TIP3    H2 6166   3.746   2.844   3.692
 2054TIP3   OH2 6167   2.225   3.319   1.380
 2054TIP3    H1 6168   2.153   3.288   1.435
 2054TIP3    H2 6169   2.182   3.370   1.311
 2055TIP3   OH2 6170   1.425   5.861   5.114
 2055TIP3    H1 6171   1.381   5.935   5.072
 2055TIP3    H2 6172   1.478   5.901   5.183
 2056TIP3   OH2 6173   0.327   1.761   2.660
 2056TIP3    H1 6174   0.330   1.669   2.635
 2056TIP3    H2 6175   0.233   1.780   2.670
 2057TIP3   OH2 6176   5.024   0.765   5.036
 2057TIP3    H1 6177   5.101   0.782   4.982
 2057TIP3    H2 6178   4.995   0.678   5.010
 2058TIP3   OH2 6179   4.505   2.308   3.008
 2058TIP3    H1 6180   4.598   2.322   2.991
 2058TIP3    H2 6181   4.469   2.275   2.926
 2059TIP3   OH2 6182   1.745   5.073   1.745
 2059TIP3    H1 6183   1.687   5.018   1.797
 2059TIP3    H2 6184   1.694   5.094   1.666
 2060TIP3   OH2 6185   1.067   4.955   1.173
 2060TIP3    H1 6186   1.138   5.018   1.183
 2060TIP3    H2 6187   1.071   4.901   1.252
 2061TIP3   OH2 6188   3.240   3.857   5.136
 2061TIP3    H1 6189   3.302   3.895   5.199
 2061TIP3    H2 6190   3.290   3.791   5.089
 2062TIP3   OH2 6191   6.111   1.656   2.184
 2062TIP3    H1 6192   6.175   1.642   2.253
 2062TIP3    H2 6193   6.044   1.590   2.198
 2063TIP3   OH2 6194   2.403   3.387   0.993
 2063TIP3    H1 6195   2.347   3.316   0.961
 2063TIP3    H2 6196   2.459   3.408   0.918
 2064TIP3   OH2 6197   4.793   2.497   1.255
 2064TIP3    H1 6198   4.842   2.415   1.251
 2064TIP3    H2 6199   4.844   2.552   1.315
 2065TIP3   OH2 6200   3.097   0.563   0.184
 2065TIP3    H1 6201   3.177   0.603   0.150
 2065TIP3    H2 6202   3.032   0.633   0.180
 2066TIP3   OH2 6203   5.982   1.819   4.916
 2066TIP3    H1 6204   6.016   1.756   4.853
 2066TIP3    H2 6205   5.947   1.765   4.987
 2067TIP3   OH2 6206   4.551   5.921   4.506
 2067TIP3    H1 6207   4.605   5.842   4.500
 2067TIP3    H2 6208   4.461   5.888   4.515
 2068TIP3   OH2 6209   1.907   3.357   2.995
 2068TIP3    H1 6210   1.955   3.317   2.922
 2068TIP3    H2 6211   1.856   3.285   3.032
 2069TIP3   OH2 6212   2.262  -0.007   0.746
 2069TIP3    H1 6213   2.354  -0.030   0.730
 2069TIP3    H2 6214   2.266   0.066   0.807
 2070TIP3   OH2 6215   4.597   2.397   1.691
 2070TIP3    H1 6216   4.571   2.390   1.783
 2070TIP3    H2 6217   4.600   2.491   1.674
 2071TIP3   OH2 6218   5.811   5.693   3.808
 2071TIP3    H1 6219   5.857   5.758   3.861
 2071TIP3    H2 6220   5.719   5.705   3.830
 2072TIP3   OH2 6221   0.243   2.951   0.936
 2072TIP3    H1 6222   0.220   2.927   0.846
 2072TIP3    H2 6223   0.301   2.881   0.966
 2073TIP3   OH2 6224   5.221   5.013   2.451
 2073TIP3    H1 6225   5.228   5.004   2.546
 2073TIP3    H2 6226   5.218   5.108   2.436
 2074TIP3   OH2 6227   2.343   0.778   2.498
 2074TIP3    H1 6228   2.377   0.713   2.560
 2074TIP3    H2 6229   2.422   0.819   2.462
 2075TIP3   OH2 6230   2.685   5.481   0.465
 2075TIP3    H1 6231   2.698   5.398   0.510
 2075TIP3    H2 6232   2.649   5.457   0.380
 2076TIP3   OH2 6233   0.277   5.064   4.635
 2076TIP3    H1 6234   0.313   5.026   4.715
 2076TIP3    H2 6235   0.302   5.157   4.639
 2077TIP3   OH2 6236   4.498   0.318   2.429
 2077TIP3    H1 6237   4.433   0.316   2.500
 2077TIP3    H2 6238   4.514   0.226   2.409
 2078TIP3   OH2 6239   3.953   2.626   2.063
 2078TIP3    H1 6240   3.960   2.669   2.148
 2078TIP3    H2 6241   3.867   2.650   2.030
 2079TIP3   OH2 6242   5.555   2.365   1.670
 2079TIP3    H1 6243   5.545   2.339   1.762
 2079TIP3    H2 6244   5.514   2.293   1.621
 2080TIP3   OH2 6245   4.310   3.591   1.539
 2080TIP3    H1 6246   4.331   3.586   1.632
 2080TIP3    H2 6247   4.330   3.504   1.505
 2081TIP3   OH2 6248   5.376   5.272   4.177
 2081TIP3    H1 6249   5.351   5.180   4.189
 2081TIP3    H2 6250   5.442   5.287   4.244
 2082TIP3   OH2 6251   2.580   0.624   2.273
 2082TIP3    H1 6252   2.615   0.604   2.359
 2082TIP3    H2 6253   2.544   0.712   2.281
 2083TIP3   OH2 6254   4.832   3.885   0.428
 2083TIP3    H1 6255   4.832   3.846   0.515
 2083TIP3    H2 6256   4.743   3.919   0.417
 2084TIP3   OH2 6257   0.709   2.784   0.217
 2084TIP3    H1 6258   0.781   2.835   0.180
 2084TIP3    H2 6259   0.739   2.693   0.214
 2085TIP3   OH2 6260   5.793   1.670   0.581
 2085TIP3    H1 6261   5.800   1.765   0.582
 2085TIP3    H2 6262   5.731   1.649   0.651
 2086TIP3   OH2 6263   2.232   3.359   4.219
 2086TIP3    H1 6264   2.243   3.439   4.270
 2086TIP3    H2 6265   2.189   3.298   4.279
 2087TIP3   OH2 6266   2.637   1.554   5.191
 2087TIP3    H1 6267   2.543   1.571   5.190
 2087TIP3    H2 6268   2.664   1.564   5.099
 2088TIP3   OH2 6269   3.567   1.733   2.815
 2088TIP3    H1 6270   3.612   1.691   2.888
 2088TIP3    H2 6271   3.477   1.699   2.820
 2089TIP3   OH2 6272   4.013   4.708   1.720
 2089TIP3    H1 6273   4.107   4.695   1.719
 2089TIP3    H2 6274   3.985   4.697   1.629
 2090TIP3   OH2 6275   1.861   3.989   4.823
 2090TIP3    H1 6276   1.892   4.037   4.900
 2090TIP3    H2 6277   1.795   4.046   4.784
 2091TIP3   OH2 6278   3.602   5.884   1.028
 2091TIP3    H1 6279   3.588   5.970   1.067
 2091TIP3    H2 6280   3.685   5.891   0.982
 2092TIP3   OH2 6281   1.527   4.618   0.758
 2092TIP3    H1 6282   1.481   4.620   0.842
 2092TIP3    H2 6283   1.486   4.546   0.710
 2093TIP3   OH2 6284   3.380   4.300   1.298
 2093TIP3    H1 6285   3.451   4.351   1.338
 2093TIP3    H2 6286   3.422   4.218   1.272
 2094TIP3   OH2 6287   1.246   5.949   4.718
 2094TIP3    H1 6288   1.230   5.976   4.809
 2094TIP3    H2 6289   1.341   5.959   4.706
 2095TIP3   OH2 6290   5.350   3.180   3.629
 2095TIP3    H1 6291   5.412   3.238   3.674
 2095TIP3    H2 6292   5.344   3.215   3.540
 2096TIP3   OH2 6293   0.415   4.730   4.324
 2096TIP3    H1 6294   0.342   4.668   4.319
 2096TIP3    H2 6295   0.493   4.675   4.324
 2097TIP3   OH2 6296   3.206   5.019   3.768
 2097TIP3    H1 6297   3.151   4.975   3.833
 2097TIP3    H2 6298   3.144   5.050   3.702
 2098TIP3   OH2 6299   3.322   2.795   2.773
 2098TIP3    H1 6300   3.265   2.825   2.703
 2098TIP3    H2 6301   3.262   2.758   2.838
 2099TIP3   OH2 6302   3.217   1.894   0.283
 2099TIP3    H1 6303   3.138   1.923   0.237
 2099TIP3    H2 6304   3.284   1.959   0.258
 2100TIP3   OH2 6305   2.516   3.462   3.794
 2100TIP3    H1 6306   2.462   3.531   3.832
 2100TIP3    H2 6307   2.581   3.508   3.741
 2101TIP3   OH2 6308   2.668   2.434   2.003
 2101TIP3    H1 6309   2.595   2.400   1.950
 2101TIP3    H2 6310   2.747   2.401   1.959
 2102TIP3   OH2 6311   1.948   5.259   4.152
 2102TIP3    H1 6312   2.033   5.218   4.169
 2102TIP3    H2 6313   1.935   5.318   4.227
 2103TIP3   OH2 6314   0.936   3.850   4.184
 2103TIP3    H1 6315   0.917   3.818   4.272
 2103TIP3    H2 6316   0.982   3.778   4.141
 2104TIP3   OH2 6317   1.098   2.386   4.590
 2104TIP3    H1 6318   1.168   2.327   4.620
 2104TIP3    H2 6319   1.033   2.383   4.659
 2105TIP3   OH2 6320   4.129   1.398   2.363
 2105TIP3    H1 6321   4.040   1.376   2.394
 2105TIP3    H2 6322   4.120   1.486   2.328
 2106TIP3   OH2 6323   5.175   1.412   0.033
 2106TIP3    H1 6324   5.200   1.453   0.115
 2106TIP3    H2 6325   5.097   1.360   0.055
 2107TIP3   OH2 6326   2.987   5.112   2.457
 2107TIP3    H1 6327   2.961   5.199   2.429
 2107TIP3    H2 6328   2.934   5.052   2.404
 2108TIP3   OH2 6329   0.204   4.053   0.144
 2108TIP3    H1 6330   0.261   4.103   0.087
 2108TIP3    H2 6331   0.250   3.969   0.156
 2109TIP3   OH2 6332   5.816   2.931   0.684
 2109TIP3    H1 6333   5.744   2.886   0.728
 2109TIP3    H2 6334   5.893   2.879   0.704
 2110TIP3   OH2 6335   4.659   5.395   3.947
 2110TIP3    H1 6336   4.591   5.435   3.891
 2110TIP3    H2 6337   4.741   5.434   3.916
 2111TIP3   OH2 6338   4.335   0.219   3.397
 2111TIP3    H1 6339   4.327   0.157   3.325
 2111TIP3    H2 6340   4.258   0.204   3.451
 2112TIP3   OH2 6341   4.773   4.118   4.558
 2112TIP3    H1 6342   4.781   4.209   4.587
 2112TIP3    H2 6343   4.697   4.118   4.499
 2113TIP3   OH2 6344   3.114   4.310   3.367
 2113TIP3    H1 6345   3.095   4.255   3.443
 2113TIP3    H2 6346   3.207   4.297   3.350
 2114TIP3   OH2 6347   3.379   5.353   0.885
 2114TIP3    H1 6348   3.461   5.400   0.895
 2114TIP3    H2 6349   3.323   5.412   0.835
 2115TIP3   OH2 6350   2.876   4.121   3.296
 2115TIP3    H1 6351   2.921   4.089   3.218
 2115TIP3    H2 6352   2.936   4.186   3.333
 2116TIP3   OH2 6353   5.445   4.492   4.334
 2116TIP3    H1 6354   5.458   4.441   4.254
 2116TIP3    H2 6355   5.361   4.536   4.321
 2117TIP3   OH2 6356   2.256   4.471   2.788
 2117TIP3    H1 6357   2.205   4.401   2.827
 2117TIP3    H2 6358   2.203   4.550   2.801
 2118TIP3   OH2 6359   1.050   1.531   0.882
 2118TIP3    H1 6360   0.968   1.504   0.840
 2118TIP3    H2 6361   1.032   1.521   0.976
 2119TIP3   OH2 6362   0.778   0.866   0.341
 2119TIP3    H1 6363   0.864   0.824   0.352
 2119TIP3    H2 6364   0.799   0.958   0.320
 2120TIP3   OH2 6365   5.649   2.561   5.027
 2120TIP3    H1 6366   5.727   2.506   5.015
 2120TIP3    H2 6367   5.604   2.523   5.102
 2121TIP3   OH2 6368   5.788   2.172   4.778
 2121TIP3    H1 6369   5.695   2.158   4.798
 2121TIP3    H2 6370   5.797   2.268   4.777
 2122TIP3   OH2 6371   1.743   3.687   0.700
 2122TIP3    H1 6372   1.812   3.683   0.633
 2122TIP3    H2 6373   1.729   3.595   0.724
 2123TIP3   OH2 6374   0.134   2.228   4.090
 2123TIP3    H1 6375   0.148   2.249   3.998
 2123TIP3    H2 6376   0.214   2.183   4.117
 2124TIP3   OH2 6377   6.092   5.565   4.972
 2124TIP3    H1 6378   6.018   5.540   5.028
 2124TIP3    H2 6379   6.052   5.583   4.886
 2125TIP3   OH2 6380   3.044   3.899   2.193
 2125TIP3    H1 6381   2.965   3.893   2.140
 2125TIP3    H2 6382   3.017   3.947   2.271
 2126TIP3   OH2 6383   1.351   3.628   5.136
 2126TIP3    H1 6384   1.369   3.722   5.136
 2126TIP3    H2 6385   1.284   3.617   5.203
 2127TIP3   OH2 6386   3.787   1.517   1.570
 2127TIP3    H1 6387   3.727   1.552   1.636
 2127TIP3    H2 6388   3.873   1.522   1.610
 2128TIP3   OH2 6389   5.722   0.263   2.867
 2128TIP3    H1 6390   5.690   0.179   2.836
 2128TIP3    H2 6391   5.813   0.267   2.837
 2129TIP3   OH2 6392   3.242   6.007   4.999
 2129TIP3    H1 6393   3.290   5.967   5.071
 2129TIP3    H2 6394   3.281   5.971   4.920
 2130TIP3   OH2 6395   5.142   0.883   0.095
 2130TIP3    H1 6396   5.222   0.914   0.137
 2130TIP3    H2 6397   5.115   0.808   0.149
 2131TIP3   OH2 6398   0.868   5.611   3.207
 2131TIP3    H1 6399   0.893   5.663   3.130
 2131TIP3    H2 6400   0.824   5.673   3.264
 2132TIP3   OH2 6401   2.278   1.240   0.935
 2132TIP3    H1 6402   2.273   1.309   1.000
 2132TIP3    H2 6403   2.192   1.199   0.937
 2133TIP3   OH2 6404   5.455   3.635   2.099
 2133TIP3    H1 6405   5.406   3.634   2.017
 2133TIP3    H2 6406   5.490   3.724   2.105
 2134TIP3   OH2 6407   4.189   1.444   2.719
 2134TIP3    H1 6408   4.161   1.361   2.681
 2134TIP3    H2 6409   4.112   1.476   2.766
 2135TIP3   OH2 6410   3.003   1.940   2.223
 2135TIP3    H1 6411   3.066   1.870   2.240
 2135TIP3    H2 6412   3.022   2.005   2.291
 2136TIP3   OH2 6413   3.318   0.200   0.252
 2136TIP3    H1 6414   3.349   0.112   0.273
 2136TIP3    H2 6415   3.234   0.207   0.297
 2137TIP3   OH2 6416   5.220   2.523   0.178
 2137TIP3    H1 6417   5.295   2.495   0.125
 2137TIP3    H2 6418   5.173   2.442   0.197
 2138TIP3   OH2 6419   4.384   5.522   1.289
 2138TIP3    H1 6420   4.342   5.553   1.369
 2138TIP3    H2 6421   4.363   5.428   1.286
 2139TIP3   OH2 6422   1.766   1.675   4.932
 2139TIP3    H1 6423   1.736   1.766   4.940
 2139TIP3    H2 6424   1.854   1.676   4.969
 2140TIP3   OH2 6425   6.273   4.612   1.074
 2140TIP3    H1 6426   6.334   4.539   1.073
 2140TIP3    H2 6427   6.194   4.579   1.033
 2141TIP3   OH2 6428   5.760   5.398   0.118
 2141TIP3    H1 6429   5.796   5.423   0.203
 2141TIP3    H2 6430   5.667   5.420   0.123
 2142TIP3   OH2 6431   5.429   2.770   2.030
 2142TIP3    H1 6432   5.364   2.731   2.088
 2142TIP3    H2 6433   5.490   2.699   2.010
 2143TIP3   OH2 6434   1.147   0.585   2.662
 2143TIP3    H1 6435   1.229   0.560   2.620
 2143TIP3    H2 6436   1.117   0.660   2.611
 2144TIP3   OH2 6437   3.573   2.218   0.026
 2144TIP3    H1 6438   3.505   2.274  -0.012
 2144TIP3    H2 6439   3.526   2.139   0.055
 2145TIP3   OH2 6440   2.858   3.451   4.012
 2145TIP3    H1 6441   2.932   3.510   4.026
 2145TIP3    H2 6442   2.853   3.440   3.917
 2146TIP3   OH2 6443   5.154   0.088   1.892
 2146TIP3    H1 6444   5.111   0.021   1.946
 2146TIP3    H2 6445   5.123   0.171   1.928
 2147TIP3   OH2 6446   5.919   4.284   0.809
 2147TIP3    H1 6447   5.988   4.229   0.771
 2147TIP3    H2 6448   5.847   4.277   0.746
 2148TIP3   OH2 6449   5.239   2.810   4.450
 2148TIP3    H1 6450   5.183   2.875   4.409
 2148TIP3    H2 6451   5.179   2.744   4.485
 2149TIP3   OH2 6452   6.226   0.169   1.733
 2149TIP3    H1 6453   6.163   0.101   1.710
 2149TIP3    H2 6454   6.222   0.232   1.661
 2150TIP3   OH2 6455   3.919   0.574   4.881
 2150TIP3    H1 6456   3.834   0.537   4.857
 2150TIP3    H2 6457   3.900   0.632   4.955
 2151TIP3   OH2 6458   1.355   4.770   3.351
 2151TIP3    H1 6459   1.314   4.841   3.399
 2151TIP3    H2 6460   1.315   4.691   3.386
 2152TIP3   OH2 6461   3.839   5.608   4.102
 2152TIP3    H1 6462   3.812   5.601   4.194
 2152TIP3    H2 6463   3.931   5.631   4.106
 2153TIP3   OH2 6464   2.526   5.151   2.699
 2153TIP3    H1 6465   2.547   5.058   2.689
 2153TIP3    H2 6466   2.602   5.196   2.661
 2154TIP3   OH2 6467   0.665   4.838   5.164
 2154TIP3    H1 6468   0.754   4.841   5.200
 2154TIP3    H2 6469   0.677   4.816   5.072
 2155TIP3   OH2 6470   2.932   0.255   2.997
 2155TIP3    H1 6471   2.889   0.340   3.012
 2155TIP3    H2 6472   2.926   0.242   2.902
 2156TIP3   OH2 6473   5.373   0.842   1.896
 2156TIP3    H1 6474   5.385   0.907   1.827
 2156TIP3    H2 6475   5.452   0.852   1.951
 2157TIP3   OH2 6476   4.846   3.450   1.288
 2157TIP3    H1 6477   4.910   3.459   1.359
 2157TIP3    H2 6478   4.886   3.389   1.227
 2158TIP3   OH2 6479   2.212   0.155   3.566
 2158TIP3    H1 6480   2.226   0.223   3.632
 2158TIP3    H2 6481   2.237   0.195   3.483
 2159TIP3   OH2 6482   1.027   1.937   3.502
 2159TIP3    H1 6483   1.104   1.966   3.453
 2159TIP3    H2 6484   1.052   1.851   3.536
 2160TIP3   OH2 6485   4.784   0.208   4.004
 2160TIP3    H1 6486   4.811   0.296   4.030
 2160TIP3    H2 6487   4.866   0.159   3.997
 2161TIP3   OH2 6488   0.015   5.136   4.664
 2161TIP3    H1 6489   0.107   5.118   4.647
 2161TIP3    H2 6490   0.008   5.140   4.759
 2162TIP3   OH2 6491   5.884   4.917   2.279
 2162TIP3    H1 6492   5.829   4.994   2.290
 2162TIP3    H2 6493   5.973   4.948   2.298
 2163TIP3   OH2 6494   0.895   5.394   3.006
 2163TIP3    H1 6495   0.922   5.413   3.096
 2163TIP3    H2 6496   0.947   5.453   2.953
 2164TIP3   OH2 6497   2.092   4.693   2.904
 2164TIP3    H1 6498   2.012   4.732   2.940
 2164TIP3    H2 6499   2.163   4.737   2.951
 2165TIP3   OH2 6500   2.030   4.669   3.208
 2165TIP3    H1 6501   2.061   4.581   3.227
 2165TIP3    H2 6502   2.109   4.719   3.187
 2166TIP3   OH2 6503   5.334   1.185  -0.022
 2166TIP3    H1 6504   5.352   1.148   0.064
 2166TIP3    H2 6505   5.278   1.261  -0.004
 2167TIP3   OH2 6506   4.382   4.749   1.721
 2167TIP3    H1 6507   4.476   4.758   1.704
 2167TIP3    H2 6508   4.358   4.829   1.768
 2168TIP3   OH2 6509   0.043   2.557   3.277
 2168TIP3    H1 6510   0.068   2.619   3.346
 2168TIP3    H2 6511   0.033   2.612   3.199
 2169TIP3   OH2 6512   5.358   0.499   4.869
 2169TIP3    H1 6513   5.388   0.525   4.782
 2169TIP3    H2 6514   5.424   0.534   4.929
 2170TIP3   OH2 6515   2.154   1.774   4.432
 2170TIP3    H1 6516   2.208   1.697   4.453
 2170TIP3    H2 6517   2.070   1.737   4.404
 2171TIP3   OH2 6518   3.981   5.948   0.266
 2171TIP3    H1 6519   4.046   5.992   0.321
 2171TIP3    H2 6520   4.015   5.958   0.177
 2172TIP3   OH2 6521   2.362   2.575   2.069
 2172TIP3    H1 6522   2.374   2.485   2.099
 2172TIP3    H2 6523   2.444   2.619   2.091
 2173TIP3   OH2 6524   4.201   0.096   1.905
 2173TIP3    H1 6525   4.185   0.096   1.999
 2173TIP3    H2 6526   4.272   0.159   1.893
 2174TIP3   OH2 6527   0.385   3.358   4.541
 2174TIP3    H1 6528   0.293   3.356   4.567
 2174TIP3    H2 6529   0.388   3.424   4.471
 2175TIP3   OH2 6530   4.758   5.702   1.790
 2175TIP3    H1 6531   4.666   5.724   1.775
 2175TIP3    H2 6532   4.803   5.786   1.789
 2176TIP3   OH2 6533   3.528   2.338   0.696
 2176TIP3    H1 6534   3.578   2.402   0.747
 2176TIP3    H2 6535   3.445   2.331   0.744
 2177TIP3   OH2 6536   5.631   1.039   1.503
 2177TIP3    H1 6537   5.589   1.115   1.462
 2177TIP3    H2 6538   5.722   1.067   1.516
 2178TIP3   OH2 6539   3.508   0.823   3.023
 2178TIP3    H1 6540   3.598   0.857   3.025
 2178TIP3    H2 6541   3.510   0.747   3.080
 2179TIP3   OH2 6542   4.520   5.551   3.742
 2179TIP3    H1 6543   4.435   5.509   3.752
 2179TIP3    H2 6544   4.501   5.637   3.706
 2180TIP3   OH2 6545   0.667   2.689   1.866
 2180TIP3    H1 6546   0.699   2.663   1.952
 2180TIP3    H2 6547   0.581   2.726   1.883
 2181TIP3   OH2 6548   1.314   3.264   0.671
 2181TIP3    H1 6549   1.374   3.332   0.701
 2181TIP3    H2 6550   1.262   3.306   0.602
 2182TIP3   OH2 6551   4.779   0.727   1.076
 2182TIP3    H1 6552   4.740   0.722   1.163
 2182TIP3    H2 6553   4.709   0.698   1.017
 2183TIP3   OH2 6554   3.188   0.398   2.541
 2183TIP3    H1 6555   3.111   0.350   2.510
 2183TIP3    H2 6556   3.260   0.366   2.489
 2184TIP3   OH2 6557   1.163   0.348   0.428
 2184TIP3    H1 6558   1.167   0.287   0.502
 2184TIP3    H2 6559   1.243   0.329   0.378
 2185TIP3   OH2 6560   0.561   2.023   2.671
 2185TIP3    H1 6561   0.518   1.951   2.716
 2185TIP3    H2 6562   0.632   1.982   2.622
 2186TIP3   OH2 6563   4.340   5.670   3.269
 2186TIP3    H1 6564   4.337   5.596   3.330
 2186TIP3    H2 6565   4.289   5.739   3.312
 2187TIP3   OH2 6566   6.334   5.616   1.512
 2187TIP3    H1 6567   6.267   5.555   1.482
 2187TIP3    H2 6568   6.316   5.628   1.605
 2188TIP3   OH2 6569   0.803   3.734   2.851
 2188TIP3    H1 6570   0.713   3.760   2.831
 2188TIP3    H2 6571   0.796   3.643   2.880
 2189TIP3   OH2 6572   0.253   5.179   1.680
 2189TIP3    H1 6573   0.245   5.234   1.602
 2189TIP3    H2 6574   0.163   5.168   1.710
 2190TIP3   OH2 6575   0.859   2.371   2.512
 2190TIP3    H1 6576   0.920   2.361   2.585
 2190TIP3    H2 6577   0.873   2.460   2.481
 2191TIP3   OH2 6578   0.174   3.578   1.722
 2191TIP3    H1 6579   0.185   3.629   1.641
 2191TIP3    H2 6580   0.255   3.591   1.770
 2192TIP3   OH2 6581   0.837   0.379   0.744
 2192TIP3    H1 6582   0.868   0.421   0.664
 2192TIP3    H2 6583   0.915   0.340   0.784
 2193TIP3   OH2 6584   0.004   5.717   2.228
 2193TIP3    H1 6585  -0.063   5.696   2.292
 2193TIP3    H2 6586   0.085   5.720   2.278
 2194TIP3   OH2 6587   4.551   4.353   3.480
 2194TIP3    H1 6588   4.554   4.320   3.569
 2194TIP3    H2 6589   4.632   4.403   3.470
 2195TIP3   OH2 6590   1.941   1.645   0.091
 2195TIP3    H1 6591   1.898   1.634   0.176
 2195TIP3    H2 6592   2.011   1.579   0.091
 2196TIP3   OH2 6593   3.842   0.162   4.865
 2196TIP3    H1 6594   3.840   0.215   4.944
 2196TIP3    H2 6595   3.845   0.072   4.896
 2197TIP3   OH2 6596   1.447   0.664   4.415
 2197TIP3    H1 6597   1.485   0.578   4.402
 2197TIP3    H2 6598   1.362   0.647   4.455
 2198TIP3   OH2 6599   6.127   4.043   1.465
 2198TIP3    H1 6600   6.129   3.951   1.492
 2198TIP3    H2 6601   6.042   4.075   1.496
 2199TIP3   OH2 6602   5.567   3.878   2.086
 2199TIP3    H1 6603   5.500   3.947   2.087
 2199TIP3    H2 6604   5.624   3.900   2.012
 2200TIP3   OH2 6605   2.644   2.141   2.957
 2200TIP3    H1 6606   2.638   2.232   2.983
 2200TIP3    H2 6607   2.600   2.138   2.872
 2201TIP3   OH2 6608   0.913   4.355   4.276
 2201TIP3    H1 6609   0.970   4.363   4.200
 2201TIP3    H2 6610   0.873   4.268   4.267
 2202TIP3   OH2 6611   0.506   4.349   1.541
 2202TIP3    H1 6612   0.447   4.412   1.582
 2202TIP3    H2 6613   0.587   4.398   1.525
 2203TIP3   OH2 6614   3.722   4.652   0.831
 2203TIP3    H1 6615   3.785   4.675   0.900
 2203TIP3    H2 6616   3.652   4.606   0.878
 2204TIP3   OH2 6617   2.283   2.860   0.801
 2204TIP3    H1 6618   2.334   2.798   0.748
 2204TIP3    H2 6619   2.345   2.892   0.866
 2205TIP3   OH2 6620   1.836   2.539   0.345
 2205TIP3    H1 6621   1.860   2.570   0.432
 2205TIP3    H2 6622   1.920   2.530   0.299
 2206TIP3   OH2 6623   2.911   5.745   4.637
 2206TIP3    H1 6624   2.988   5.688   4.636
 2206TIP3    H2 6625   2.941   5.825   4.594
 2207TIP3   OH2 6626   1.946   4.076   2.710
 2207TIP3    H1 6627   1.880   4.142   2.732
 2207TIP3    H2 6628   1.896   4.002   2.676
 2208TIP3   OH2 6629   3.784   0.097   4.167
 2208TIP3    H1 6630   3.801   0.116   4.075
 2208TIP3    H2 6631   3.805   0.179   4.212
 2209TIP3   OH2 6632   1.888   3.522   4.010
 2209TIP3    H1 6633   1.907   3.455   3.944
 2209TIP3    H2 6634   1.901   3.477   4.094
 2210TIP3   OH2 6635   2.210   5.835   3.940
 2210TIP3    H1 6636   2.162   5.754   3.923
 2210TIP3    H2 6637   2.141   5.901   3.952
 2211TIP3   OH2 6638   0.995   5.683   1.936
 2211TIP3    H1 6639   1.032   5.771   1.931
 2211TIP3    H2 6640   1.024   5.640   1.856
 2212TIP3   OH2 6641   3.070   5.687   1.298
 2212TIP3    H1 6642   3.134   5.624   1.266
 2212TIP3    H2 6643   3.117   5.770   1.302
 2213TIP3   OH2 6644   3.567   0.327   4.594
 2213TIP3    H1 6645   3.641   0.267   4.588
 2213TIP3    H2 6646   3.503   0.292   4.532
 2214TIP3   OH2 6647   5.189   3.358   2.335
 2214TIP3    H1 6648   5.267   3.342   2.387
 2214TIP3    H2 6649   5.123   3.298   2.370
 2215TIP3   OH2 6650   0.254   2.368   1.495
 2215TIP3    H1 6651   0.339   2.408   1.513
 2215TIP3    H2 6652   0.273   2.302   1.428
 2216TIP3   OH2 6653   2.985   3.135   1.757
 2216TIP3    H1 6654   2.916   3.113   1.820
 2216TIP3    H2 6655   3.049   3.185   1.808
 2217TIP3   OH2 6656   0.342   1.781   2.084
 2217TIP3    H1 6657   0.365   1.873   2.070
 2217TIP3    H2 6658   0.247   1.782   2.100
 2218TIP3   OH2 6659   5.690   2.624   1.181
 2218TIP3    H1 6660   5.647   2.647   1.099
 2218TIP3    H2 6661   5.630   2.654   1.249
 2219TIP3   OH2 6662   0.612   4.843   1.790
 2219TIP3    H1 6663   0.587   4.916   1.847
 2219TIP3    H2 6664   0.535   4.787   1.787
 2220TIP3   OH2 6665   2.537   4.179   1.466
 2220TIP3    H1 6666   2.578   4.126   1.535
 2220TIP3    H2 6667   2.443   4.163   1.477
 2221TIP3   OH2 6668   4.315   3.349   0.984
 2221TIP3    H1 6669   4.227   3.326   1.012
 2221TIP3    H2 6670   4.334   3.289   0.912
 2222TIP3   OH2 6671   0.614   3.113   2.562
 2222TIP3    H1 6672   0.522   3.139   2.559
 2222TIP3    H2 6673   0.614   3.021   2.538
 2223TIP3   OH2 6674   2.869   5.910   3.174
 2223TIP3    H1 6675   2.913   5.994   3.163
 2223TIP3    H2 6676   2.821   5.917   3.256
 2224TIP3   OH2 6677   5.399   0.663   0.340
 2224TIP3    H1 6678   5.413   0.568   0.345
 2224TIP3    H2 6679   5.349   0.676   0.260
 2225TIP3   OH2 6680   2.759   5.730   0.563
 2225TIP3    H1 6681   2.732   5.648   0.521
 2225TIP3    H2 6682   2.698   5.742   0.636
 2226TIP3   OH2 6683   6.214   3.796   1.225
 2226TIP3    H1 6684   6.253   3.881   1.207
 2226TIP3    H2 6685   6.228   3.782   1.319
 2227TIP3   OH2 6686   3.242   5.632   4.706
 2227TIP3    H1 6687   3.169   5.587   4.749
 2227TIP3    H2 6688   3.280   5.566   4.648
 2228TIP3   OH2 6689   5.693   5.272   0.716
 2228TIP3    H1 6690   5.784   5.303   0.718
 2228TIP3    H2 6691   5.699   5.181   0.747
 2229TIP3   OH2 6692   4.914   0.853   2.194
 2229TIP3    H1 6693   4.844   0.873   2.256
 2229TIP3    H2 6694   4.969   0.932   2.194
 2230TIP3   OH2 6695   1.905   2.068   3.360
 2230TIP3    H1 6696   1.819   2.069   3.319
 2230TIP3    H2 6697   1.913   1.981   3.398
 2231TIP3   OH2 6698   1.161   3.719   2.078
 2231TIP3    H1 6699   1.214   3.799   2.070
 2231TIP3    H2 6700   1.161   3.699   2.172
 2232TIP3   OH2 6701   2.478   5.277   0.886
 2232TIP3    H1 6702   2.554   5.283   0.828
 2232TIP3    H2 6703   2.491   5.195   0.934
 2233TIP3   OH2 6704   4.099   5.702   0.596
 2233TIP3    H1 6705   4.066   5.732   0.511
 2233TIP3    H2 6706   4.185   5.665   0.577
 2234TIP3   OH2 6707   0.595   5.470   1.532
 2234TIP3    H1 6708   0.672   5.474   1.475
 2234TIP3    H2 6709   0.529   5.522   1.485
 2235TIP3   OH2 6710   2.912   4.032   4.097
 2235TIP3    H1 6711   2.848   4.099   4.121
 2235TIP3    H2 6712   2.920   3.977   4.175
 2236TIP3   OH2 6713   3.784   3.407   1.369
 2236TIP3    H1 6714   3.760   3.378   1.281
 2236TIP3    H2 6715   3.717   3.472   1.392
 2237TIP3   OH2 6716   5.126   1.949   0.119
 2237TIP3    H1 6717   5.193   2.014   0.098
 2237TIP3    H2 6718   5.099   1.970   0.209
 2238TIP3   OH2 6719   2.055   1.826   2.952
 2238TIP3    H1 6720   1.985   1.771   2.917
 2238TIP3    H2 6721   2.011   1.886   3.012
 2239TIP3   OH2 6722   0.847   1.410   3.650
 2239TIP3    H1 6723   0.825   1.344   3.585
 2239TIP3    H2 6724   0.936   1.437   3.629
 2240TIP3   OH2 6725   1.172   1.279   2.286
 2240TIP3    H1 6726   1.087   1.317   2.267
 2240TIP3    H2 6727   1.202   1.325   2.365
 2241TIP3   OH2 6728   4.654   1.158   1.707
 2241TIP3    H1 6729   4.564   1.148   1.737
 2241TIP3    H2 6730   4.706   1.160   1.787
 2242TIP3   OH2 6731   3.362   0.606   2.696
 2242TIP3    H1 6732   3.289   0.661   2.666
 2242TIP3    H2 6733   3.320   0.527   2.730
 2243TIP3   OH2 6734   2.021   5.295   1.067
 2243TIP3    H1 6735   2.106   5.275   1.028
 2243TIP3    H2 6736   1.985   5.365   1.012
 2244TIP3   OH2 6737   0.050   0.009   4.338
 2244TIP3    H1 6738   0.036   0.099   4.367
 2244TIP3    H2 6739   0.059  -0.042   4.418
 2245TIP3   OH2 6740   3.051   2.762   4.059
 2245TIP3    H1 6741   3.067   2.671   4.032
 2245TIP3    H2 6742   2.969   2.786   4.015
 2246TIP3   OH2 6743   1.097   1.511   5.181
 2246TIP3    H1 6744   1.046   1.553   5.111
 2246TIP3    H2 6745   1.163   1.576   5.204
 2247TIP3   OH2 6746   3.886   2.343   4.846
 2247TIP3    H1 6747   3.843   2.380   4.769
 2247TIP3    H2 6748   3.930   2.418   4.886
 2248TIP3   OH2 6749   3.008   1.879   5.029
 2248TIP3    H1 6750   3.098   1.904   5.050
 2248TIP3    H2 6751   2.980   1.824   5.102
 2249TIP3   OH2 6752   2.484   0.471   2.079
 2249TIP3    H1 6753   2.497   0.524   2.158
 2249TIP3    H2 6754   2.481   0.381   2.111
 2250TIP3   OH2 6755   5.409   5.885   1.179
 2250TIP3    H1 6756   5.382   5.967   1.219
 2250TIP3    H2 6757   5.416   5.823   1.252
 2251TIP3   OH2 6758   3.101   1.571   0.298
 2251TIP3    H1 6759   3.102   1.652   0.247
 2251TIP3    H2 6760   3.027   1.582   0.358
 2252TIP3   OH2 6761   2.627   1.981   4.234
 2252TIP3    H1 6762   2.567   1.978   4.308
 2252TIP3    H2 6763   2.589   1.922   4.169
 2253TIP3   OH2 6764   1.409   1.381   2.185
 2253TIP3    H1 6765   1.475   1.352   2.248
 2253TIP3    H2 6766   1.326   1.349   2.221
 2254TIP3   OH2 6767   2.113   2.660   3.056
 2254TIP3    H1 6768   2.143   2.614   3.134
 2254TIP3    H2 6769   2.021   2.681   3.074
 2255TIP3   OH2 6770   5.652   5.268   1.292
 2255TIP3    H1 6771   5.696   5.216   1.225
 2255TIP3    H2 6772   5.618   5.202   1.354
 2256TIP3   OH2 6773   1.116   5.923   1.985
 2256TIP3    H1 6774   1.100   5.996   2.044
 2256TIP3    H2 6775   1.204   5.892   2.009
 2257TIP3   OH2 6776   2.788   2.895   1.461
 2257TIP3    H1 6777   2.782   2.987   1.435
 2257TIP3    H2 6778   2.745   2.847   1.390
 2258TIP3   OH2 6779   2.609   0.839   4.848
 2258TIP3    H1 6780   2.557   0.902   4.797
 2258TIP3    H2 6781   2.544   0.793   4.902
 2259TIP3   OH2 6782   3.846   3.082   1.372
 2259TIP3    H1 6783   3.934   3.093   1.334
 2259TIP3    H2 6784   3.854   3.115   1.461
 2260TIP3   OH2 6785   4.439   2.694   1.048
 2260TIP3    H1 6786   4.376   2.682   0.977
 2260TIP3    H2 6787   4.524   2.681   1.007
 2261TIP3   OH2 6788   6.254   3.198   5.097
 2261TIP3    H1 6789   6.257   3.264   5.028
 2261TIP3    H2 6790   6.333   3.146   5.084
 2262TIP3   OH2 6791   0.225   1.632   0.156
 2262TIP3    H1 6792   0.308   1.680   0.157
 2262TIP3    H2 6793   0.159   1.700   0.148
 2263TIP3   OH2 6794   2.263   1.618   1.960
 2263TIP3    H1 6795   2.242   1.637   2.051
 2263TIP3    H2 6796   2.237   1.527   1.947
 2264TIP3   OH2 6797   1.936   1.060   0.269
 2264TIP3    H1 6798   1.891   1.094   0.346
 2264TIP3    H2 6799   1.922   0.966   0.273
 2265TIP3   OH2 6800   2.777   1.116   3.348
 2265TIP3    H1 6801   2.774   1.177   3.421
 2265TIP3    H2 6802   2.834   1.158   3.283
 2266TIP3   OH2 6803   2.038   0.350   1.265
 2266TIP3    H1 6804   1.980   0.410   1.217
 2266TIP3    H2 6805   2.123   0.360   1.223
 2267TIP3   OH2 6806   5.296   1.737   0.062
 2267TIP3    H1 6807   5.263   1.702  -0.021
 2267TIP3    H2 6808   5.250   1.820   0.073
 2268TIP3   OH2 6809   3.627   0.854   4.242
 2268TIP3    H1 6810   3.561   0.806   4.292
 2268TIP3    H2 6811   3.584   0.871   4.158
 2269TIP3   OH2 6812   5.212   2.627   0.453
 2269TIP3    H1 6813   5.227   2.622   0.358
 2269TIP3    H2 6814   5.200   2.721   0.470
 2270TIP3   OH2 6815   2.506  -0.012   2.359
 2270TIP3    H1 6816   2.492   0.044   2.282
 2270TIP3    H2 6817   2.447   0.023   2.426
 2271TIP3   OH2 6818   3.735   0.914   2.255
 2271TIP3    H1 6819   3.782   0.850   2.308
 2271TIP3    H2 6820   3.801   0.980   2.233
 2272TIP3   OH2 6821   4.837   2.184   2.448
 2272TIP3    H1 6822   4.901   2.255   2.439
 2272TIP3    H2 6823   4.757   2.227   2.476
 2273TIP3   OH2 6824   1.163   3.979   2.054
 2273TIP3    H1 6825   1.200   4.021   2.131
 2273TIP3    H2 6826   1.084   4.029   2.034
 2274TIP3   OH2 6827   3.413   0.105   5.083
 2274TIP3    H1 6828   3.442   0.166   5.016
 2274TIP3    H2 6829   3.324   0.134   5.106
 2275TIP3   OH2 6830   3.396   5.070   2.199
 2275TIP3    H1 6831   3.334   5.034   2.263
 2275TIP3    H2 6832   3.432   4.992   2.155
 2276TIP3   OH2 6833   5.352   4.073   0.521
 2276TIP3    H1 6834   5.338   4.166   0.539
 2276TIP3    H2 6835   5.434   4.070   0.473
 2277TIP3   OH2 6836   0.304   2.181   1.299
 2277TIP3    H1 6837   0.247   2.105   1.287
 2277TIP3    H2 6838   0.330   2.205   1.210
 2278TIP3   OH2 6839   4.611   1.529   4.399
 2278TIP3    H1 6840   4.538   1.475   4.429
 2278TIP3    H2 6841   4.655   1.556   4.479
 2279TIP3   OH2 6842   5.471   5.174   4.839
 2279TIP3    H1 6843   5.490   5.094   4.888
 2279TIP3    H2 6844   5.427   5.143   4.760
 2280TIP3   OH2 6845   5.175   2.223   1.686
 2280TIP3    H1 6846   5.176   2.217   1.782
 2280TIP3    H2 6847   5.106   2.163   1.659
 2281TIP3   OH2 6848   0.741   5.878   1.159
 2281TIP3    H1 6849   0.653   5.870   1.122
 2281TIP3    H2 6850   0.742   5.814   1.230
 2282TIP3   OH2 6851   2.011   3.277   0.726
 2282TIP3    H1 6852   2.046   3.300   0.639
 2282TIP3    H2 6853   1.920   3.253   0.709
 2283TIP3   OH2 6854   3.428   5.766   0.395
 2283TIP3    H1 6855   3.437   5.671   0.390
 2283TIP3    H2 6856   3.459   5.788   0.482
 2284TIP3   OH2 6857   1.811   1.026   4.851
 2284TIP3    H1 6858   1.856   1.064   4.776
 2284TIP3    H2 6859   1.763   0.951   4.816
 2285TIP3   OH2 6860   4.937   0.176   2.396
 2285TIP3    H1 6861   4.860   0.220   2.433
 2285TIP3    H2 6862   4.919   0.172   2.302
 2286TIP3   OH2 6863   4.973   3.359   4.327
 2286TIP3    H1 6864   5.057   3.313   4.329
 2286TIP3    H2 6865   4.969   3.398   4.240
 2287TIP3   OH2 6866   0.342   5.235   3.441
 2287TIP3    H1 6867   0.306   5.166   3.385
 2287TIP3    H2 6868   0.319   5.209   3.530
 2288TIP3   OH2 6869   5.853   0.821   0.713
 2288TIP3    H1 6870   5.945   0.795   0.718
 2288TIP3    H2 6871   5.815   0.763   0.647
 2289TIP3   OH2 6872   4.057   0.817   3.632
 2289TIP3    H1 6873   4.119   0.858   3.692
 2289TIP3    H2 6874   4.105   0.809   3.550
 2290TIP3   OH2 6875   0.187   4.218   2.706
 2290TIP3    H1 6876   0.112   4.174   2.667
 2290TIP3    H2 6877   0.150   4.278   2.771
 2291TIP3   OH2 6878   1.818   5.320   3.694
 2291TIP3    H1 6879   1.873   5.257   3.741
 2291TIP3    H2 6880   1.765   5.266   3.635
 2292TIP3   OH2 6881   0.027   5.080   0.104
 2292TIP3    H1 6882   0.041   5.119   0.018
 2292TIP3    H2 6883   0.111   5.089   0.149
 2293TIP3   OH2 6884   3.144   4.373   3.988
 2293TIP3    H1 6885   3.206   4.440   4.017
 2293TIP3    H2 6886   3.137   4.314   4.063
 2294TIP3   OH2 6887   4.193   5.107   1.017
 2294TIP3    H1 6888   4.164   5.051   0.945
 2294TIP3    H2 6889   4.234   5.182   0.974
 2295TIP3   OH2 6890   6.257   3.437   0.925
 2295TIP3    H1 6891   6.298   3.352   0.939
 2295TIP3    H2 6892   6.169   3.417   0.892
 2296TIP3   OH2 6893   0.932   1.666   2.002
 2296TIP3    H1 6894   0.909   1.578   1.974
 2296TIP3    H2 6895   0.948   1.714   1.920
 2297TIP3   OH2 6896   0.555   4.929   2.351
 2297TIP3    H1 6897   0.595   4.935   2.438
 2297TIP3    H2 6898   0.514   5.015   2.338
 2298TIP3   OH2 6899   1.560   0.308   4.082
 2298TIP3    H1 6900   1.468   0.282   4.089
 2298TIP3    H2 6901   1.593   0.258   4.007
 2299TIP3   OH2 6902   3.293   3.832   1.296
 2299TIP3    H1 6903   3.326   3.909   1.251
 2299TIP3    H2 6904   3.354   3.819   1.369
 2300TIP3   OH2 6905   4.580   4.655   4.696
 2300TIP3    H1 6906   4.606   4.593   4.765
 2300TIP3    H2 6907   4.487   4.637   4.682
 2301TIP3   OH2 6908   2.138   2.738   4.297
 2301TIP3    H1 6909   2.219   2.787   4.310
 2301TIP3    H2 6910   2.140   2.669   4.364
 2302TIP3   OH2 6911   3.741   4.590   4.886
 2302TIP3    H1 6912   3.733   4.511   4.832
 2302TIP3    H2 6913   3.835   4.603   4.897
 2303TIP3   OH2 6914   0.824   4.683   2.576
 2303TIP3    H1 6915   0.846   4.748   2.642
 2303TIP3    H2 6916   0.791   4.608   2.626
 2304TIP3   OH2 6917   4.083   3.985   2.792
 2304TIP3    H1 6918   4.033   4.026   2.721
 2304TIP3    H2 6919   4.171   3.975   2.756
 2305TIP3   OH2 6920   2.473   0.776   1.431
 2305TIP3    H1 6921   2.493   0.865   1.402
 2305TIP3    H2 6922   2.495   0.775   1.524
 2306TIP3   OH2 6923   6.140   0.948   4.397
 2306TIP3    H1 6924   6.223   0.990   4.375
 2306TIP3    H2 6925   6.139   0.868   4.344
 2307TIP3   OH2 6926   6.292   1.784   2.045
 2307TIP3    H1 6927   6.203   1.753   2.059
 2307TIP3    H2 6928   6.325   1.802   2.133
 2308TIP3   OH2 6929   4.330   0.150   0.528
 2308TIP3    H1 6930   4.369   0.139   0.441
 2308TIP3    H2 6931   4.303   0.061   0.553
 2309TIP3   OH2 6932   3.260   3.385   2.823
 2309TIP3    H1 6933   3.269   3.293   2.801
 2309TIP3    H2 6934   3.173   3.409   2.793
 2310TIP3   OH2 6935   1.022   5.535   4.591
 2310TIP3    H1 6936   1.012   5.615   4.642
 2310TIP3    H2 6937   1.115   5.513   4.599
 2311TIP3   OH2 6938   5.642   0.203   3.616
 2311TIP3    H1 6939   5.659   0.238   3.528
 2311TIP3    H2 6940   5.683   0.117   3.616
 2312TIP3   OH2 6941   2.530   0.500   3.719
 2312TIP3    H1 6942   2.584   0.567   3.678
 2312TIP3    H2 6943   2.445   0.543   3.735
 2313TIP3   OH2 6944   3.539   4.497   0.982
 2313TIP3    H1 6945   3.607   4.453   1.032
 2313TIP3    H2 6946   3.482   4.537   1.048
 2314TIP3   OH2 6947   4.750   5.676   0.905
 2314TIP3    H1 6948   4.811   5.603   0.892
 2314TIP3    H2 6949   4.799   5.739   0.957
 2315TIP3   OH2 6950   0.768   5.193   3.240
 2315TIP3    H1 6951   0.716   5.166   3.316
 2315TIP3    H2 6952   0.703   5.219   3.175
 2316TIP3   OH2 6953   0.545   1.351   2.853
 2316TIP3    H1 6954   0.503   1.327   2.936
 2316TIP3    H2 6955   0.529   1.275   2.796
 2317TIP3   OH2 6956   3.478   0.187   4.382
 2317TIP3    H1 6957   3.511   0.102   4.353
 2317TIP3    H2 6958   3.501   0.248   4.311
 2318TIP3   OH2 6959   6.071   4.001   4.259
 2318TIP3    H1 6960   6.138   3.959   4.315
 2318TIP3    H2 6961   6.110   4.001   4.172
 2319TIP3   OH2 6962   2.851   5.963   5.101
 2319TIP3    H1 6963   2.916   6.033   5.098
 2319TIP3    H2 6964   2.883   5.898   5.038
 2320TIP3   OH2 6965   6.324   1.202   2.677
 2320TIP3    H1 6966   6.361   1.166   2.757
 2320TIP3    H2 6967   6.264   1.135   2.645
 2321TIP3   OH2 6968   5.113   1.951   0.397
 2321TIP3    H1 6969   5.039   1.937   0.456
 2321TIP3    H2 6970   5.187   1.970   0.455
 2322TIP3   OH2 6971   3.308   5.506   0.098
 2322TIP3    H1 6972   3.364   5.511   0.020
 2322TIP3    H2 6973   3.369   5.515   0.171
 2323TIP3   OH2 6974   2.788   0.851   3.455
 2323TIP3    H1 6975   2.847   0.849   3.530
 2323TIP3    H2 6976   2.773   0.945   3.439
 2324TIP3   OH2 6977   6.261   4.284   3.132
 2324TIP3    H1 6978   6.167   4.296   3.124
 2324TIP3    H2 6979   6.273   4.241   3.217
 2325TIP3   OH2 6980   1.496   0.283   0.045
 2325TIP3    H1 6981   1.450   0.287  -0.039
 2325TIP3    H2 6982   1.581   0.322   0.028
 2326TIP3   OH2 6983   1.431   2.065   1.105
 2326TIP3    H1 6984   1.451   2.139   1.162
 2326TIP3    H2 6985   1.335   2.063   1.101
 2327TIP3   OH2 6986   0.975   3.228   0.888
 2327TIP3    H1 6987   0.935   3.222   0.802
 2327TIP3    H2 6988   0.909   3.193   0.948
 2328TIP3   OH2 6989   2.911   2.008   0.446
 2328TIP3    H1 6990   2.822   2.016   0.411
 2328TIP3    H2 6991   2.957   2.085   0.413
 2329TIP3   OH2 6992   2.213   0.459   3.147
 2329TIP3    H1 6993   2.287   0.411   3.110
 2329TIP3    H2 6994   2.232   0.551   3.126
 2330TIP3   OH2 6995   5.376   0.584   2.291
 2330TIP3    H1 6996   5.428   0.504   2.303
 2330TIP3    H2 6997   5.289   0.560   2.321
 2331TIP3   OH2 6998   5.279   2.352   3.307
 2331TIP3    H1 6999   5.206   2.292   3.292
 2331TIP3    H2 7000   5.249   2.409   3.378
 2332TIP3   OH2 7001   0.629   2.010   3.933
 2332TIP3    H1 7002   0.723   2.028   3.942
 2332TIP3    H2 7003   0.623   1.952   3.857
 2333TIP3   OH2 7004   1.179   0.823   3.133
 2333TIP3    H1 7005   1.102   0.862   3.092
 2333TIP3    H2 7006   1.233   0.898   3.159
 2334TIP3   OH2 7007   5.218   5.595   3.288
 2334TIP3    H1 7008   5.270   5.570   3.365
 2334TIP3    H2 7009   5.272   5.660   3.242
 2335TIP3   OH2 7010   4.075   0.338   3.929
 2335TIP3    H1 7011   3.981   0.347   3.944
 2335TIP3    H2 7012   4.110   0.306   4.012
 2336TIP3   OH2 7013   5.560   4.150   0.825
 2336TIP3    H1 7014   5.564   4.169   0.731
 2336TIP3    H2 7015   5.601   4.226   0.866
 2337TIP3   OH2 7016   2.982   5.561   1.514
 2337TIP3    H1 7017   2.932   5.508   1.452
 2337TIP3    H2 7018   3.014   5.634   1.463
 2338TIP3   OH2 7019   1.898   5.124   3.865
 2338TIP3    H1 7020   1.849   5.082   3.936
 2338TIP3    H2 7021   1.963   5.179   3.909
 2339TIP3   OH2 7022   2.205   5.165   4.185
 2339TIP3    H1 7023   2.253   5.222   4.245
 2339TIP3    H2 7024   2.218   5.077   4.219
 2340TIP3   OH2 7025   2.873   0.815   2.170
 2340TIP3    H1 7026   2.785   0.787   2.145
 2340TIP3    H2 7027   2.880   0.905   2.138
 2341TIP3   OH2 7028   4.390   2.138   3.622
 2341TIP3    H1 7029   4.389   2.046   3.597
 2341TIP3    H2 7030   4.462   2.146   3.684
 2342TIP3   OH2 7031   0.988   0.276   3.670
 2342TIP3    H1 7032   1.058   0.265   3.734
 2342TIP3    H2 7033   0.989   0.194   3.620
 2343TIP3   OH2 7034   2.372   5.834   5.065
 2343TIP3    H1 7035   2.367   5.917   5.018
 2343TIP3    H2 7036   2.466   5.822   5.083
 2344TIP3   OH2 7037   4.604   4.130   4.324
 2344TIP3    H1 7038   4.615   4.222   4.298
 2344TIP3    H2 7039   4.514   4.109   4.297
 2345TIP3   OH2 7040   0.793   2.300   1.577
 2345TIP3    H1 7041   0.707   2.296   1.534
 2345TIP3    H2 7042   0.808   2.394   1.591
 2346TIP3   OH2 7043   5.926   0.773   4.766
 2346TIP3    H1 7044   5.907   0.840   4.832
 2346TIP3    H2 7045   5.915   0.817   4.682
 2347TIP3   OH2 7046   3.810   0.613   2.158
 2347TIP3    H1 7047   3.745   0.574   2.100
 2347TIP3    H2 7048   3.765   0.620   2.243
 2348TIP3   OH2 7049   5.413   3.867   3.944
 2348TIP3    H1 7050   5.365   3.918   4.009
 2348TIP3    H2 7051   5.441   3.789   3.990
 2349TIP3   OH2 7052   0.518   1.215   2.415
 2349TIP3    H1 7053   0.466   1.153   2.467
 2349TIP3    H2 7054   0.604   1.214   2.456
 2350TIP3   OH2 7055   5.125   4.634   0.075
 2350TIP3    H1 7056   5.104   4.548   0.112
 2350TIP3    H2 7057   5.072   4.695   0.126
 2351TIP3   OH2 7058   3.800   0.793   2.839
 2351TIP3    H1 7059   3.894   0.809   2.850
 2351TIP3    H2 7060   3.777   0.838   2.758
 2352TIP3   OH2 7061   6.340   0.925   4.846
 2352TIP3    H1 7062   6.256   0.926   4.892
 2352TIP3    H2 7063   6.388   0.852   4.885
 2353TIP3   OH2 7064   2.834   5.384   3.523
 2353TIP3    H1 7065   2.765   5.450   3.519
 2353TIP3    H2 7066   2.824   5.333   3.443
 2354TIP3   OH2 7067   4.727   0.359   2.269
 2354TIP3    H1 7068   4.654   0.414   2.294
 2354TIP3    H2 7069   4.689   0.273   2.254
 2355TIP3   OH2 7070   2.293   5.591   0.057
 2355TIP3    H1 7071   2.313   5.539  -0.021
 2355TIP3    H2 7072   2.217   5.548   0.096
 2356TIP3   OH2 7073   5.199   4.598   4.594
 2356TIP3    H1 7074   5.209   4.621   4.502
 2356TIP3    H2 7075   5.142   4.521   4.594
 2357TIP3   OH2 7076   4.948   5.816   3.226
 2357TIP3    H1 7077   4.943   5.751   3.296
 2357TIP3    H2 7078   5.002   5.775   3.158
 2358TIP3   OH2 7079   3.920   4.907   2.432
 2358TIP3    H1 7080   4.011   4.909   2.460
 2358TIP3    H2 7081   3.917   4.842   2.362
 2359TIP3   OH2 7082   1.410   4.290   1.758
 2359TIP3    H1 7083   1.331   4.327   1.718
 2359TIP3    H2 7084   1.473   4.284   1.685
 2360TIP3   OH2 7085   5.484   4.762   5.027
 2360TIP3    H1 7086   5.516   4.747   4.938
 2360TIP3    H2 7087   5.504   4.681   5.074
 2361TIP3   OH2 7088   2.380   4.519   4.073
 2361TIP3    H1 7089   2.328   4.446   4.107
 2361TIP3    H2 7090   2.366   4.516   3.979
 2362TIP3   OH2 7091   1.699   2.568   3.482
 2362TIP3    H1 7092   1.680   2.660   3.496
 2362TIP3    H2 7093   1.635   2.540   3.417
 2363TIP3   OH2 7094   1.260   1.727   0.841
 2363TIP3    H1 7095   1.267   1.788   0.915
 2363TIP3    H2 7096   1.201   1.658   0.872
 2364TIP3   OH2 7097   0.909   4.275   4.668
 2364TIP3    H1 7098   0.878   4.219   4.739
 2364TIP3    H2 7099   0.832   4.287   4.611
 2365TIP3   OH2 7100   2.514   3.204   3.908
 2365TIP3    H1 7101   2.497   3.283   3.857
 2365TIP3    H2 7102   2.532   3.235   3.997
 2366TIP3   OH2 7103   4.386   5.272   4.479
 2366TIP3    H1 7104   4.430   5.236   4.557
 2366TIP3    H2 7105   4.457   5.290   4.418
 2367TIP3   OH2 7106   0.528   3.610   3.745
 2367TIP3    H1 7107   0.536   3.699   3.779
 2367TIP3    H2 7108   0.434   3.596   3.737
 2368TIP3   OH2 7109   4.706   0.431   4.327
 2368TIP3    H1 7110   4.687   0.523   4.346
 2368TIP3    H2 7111   4.732   0.430   4.235
 2369TIP3   OH2 7112   1.456   4.874   3.641
 2369TIP3    H1 7113   1.386   4.896   3.580
 2369TIP3    H2 7114   1.453   4.778   3.647
 2370TIP3   OH2 7115   0.897   4.714   4.683
 2370TIP3    H1 7116   0.901   4.690   4.590
 2370TIP3    H2 7117   0.919   4.807   4.684
 2371TIP3   OH2 7118   1.910   1.748   4.348
 2371TIP3    H1 7119   1.868   1.677   4.396
 2371TIP3    H2 7120   1.837   1.800   4.314
 2372TIP3   OH2 7121   0.412   2.269   0.764
 2372TIP3    H1 7122   0.466   2.282   0.686
 2372TIP3    H2 7123   0.406   2.174   0.774
 2373TIP3   OH2 7124   0.910   5.129   4.945
 2373TIP3    H1 7125   0.900   5.191   4.873
 2373TIP3    H2 7126   0.986   5.160   4.994
 2374TIP3   OH2 7127   4.414   3.269   4.785
 2374TIP3    H1 7128   4.491   3.237   4.833
 2374TIP3    H2 7129   4.445   3.347   4.739
 2375TIP3   OH2 7130   1.915   1.685   1.313
 2375TIP3    H1 7131   1.821   1.676   1.328
 2375TIP3    H2 7132   1.931   1.779   1.317
 2376TIP3   OH2 7133   3.025   4.654   2.843
 2376TIP3    H1 7134   3.052   4.744   2.824
 2376TIP3    H2 7135   2.957   4.635   2.778
 2377TIP3   OH2 7136   0.152   4.172   1.439
 2377TIP3    H1 7137   0.090   4.226   1.489
 2377TIP3    H2 7138   0.214   4.236   1.402
 2378TIP3   OH2 7139   1.876   3.379   4.247
 2378TIP3    H1 7140   1.941   3.331   4.299
 2378TIP3    H2 7141   1.831   3.434   4.310
 2379TIP3   OH2 7142   2.453   5.585   2.688
 2379TIP3    H1 7143   2.448   5.517   2.756
 2379TIP3    H2 7144   2.366   5.584   2.647
 2380TIP3   OH2 7145   2.259   1.795   0.880
 2380TIP3    H1 7146   2.324   1.819   0.946
 2380TIP3    H2 7147   2.202   1.732   0.925
 2381TIP3   OH2 7148   2.189   1.142   0.176
 2381TIP3    H1 7149   2.105   1.119   0.215
 2381TIP3    H2 7150   2.206   1.073   0.112
 2382TIP3   OH2 7151   3.701   3.153   0.643
 2382TIP3    H1 7152   3.776   3.211   0.654
 2382TIP3    H2 7153   3.627   3.212   0.626
 2383TIP3   OH2 7154   3.839   0.081   1.370
 2383TIP3    H1 7155   3.888   0.008   1.407
 2383TIP3    H2 7156   3.882   0.159   1.407
 2384TIP3   OH2 7157   2.648   3.164   1.393
 2384TIP3    H1 7158   2.570   3.217   1.379
 2384TIP3    H2 7159   2.682   3.146   1.305
 2385TIP3   OH2 7160   0.036   3.086   1.251
 2385TIP3    H1 7161  -0.048   3.044   1.236
 2385TIP3    H2 7162   0.097   3.013   1.264
 2386TIP3   OH2 7163   4.492   5.550   4.910
 2386TIP3    H1 7164   4.463   5.463   4.884
 2386TIP3    H2 7165   4.429   5.578   4.976
 2387TIP3   OH2 7166   0.407   3.584   0.047
 2387TIP3    H1 7167   0.396   3.523   0.120
 2387TIP3    H2 7168   0.342   3.556  -0.018
 2388TIP3   OH2 7169   6.213  -0.009   4.128
 2388TIP3    H1 7170   6.274  -0.007   4.203
 2388TIP3    H2 7171   6.131   0.026   4.163
 2389TIP3   OH2 7172   3.358   3.599   1.152
 2389TIP3    H1 7173   3.327   3.676   1.201
 2389TIP3    H2 7174   3.281   3.542   1.148
 2390TIP3   OH2 7175   2.824   1.956   1.681
 2390TIP3    H1 7176   2.839   1.871   1.638
 2390TIP3    H2 7177   2.844   1.939   1.773
 2391TIP3   OH2 7178   5.314   1.966   4.321
 2391TIP3    H1 7179   5.373   1.936   4.389
 2391TIP3    H2 7180   5.276   2.047   4.355
 2392TIP3   OH2 7181   0.354   3.377   3.243
 2392TIP3    H1 7182   0.321   3.304   3.190
 2392TIP3    H2 7183   0.319   3.361   3.331
 2393TIP3   OH2 7184   3.620   1.376   2.083
 2393TIP3    H1 7185   3.696   1.325   2.055
 2393TIP3    H2 7186   3.589   1.418   2.003
 2394TIP3   OH2 7187   2.230   3.251   2.235
 2394TIP3    H1 7188   2.222   3.346   2.234
 2394TIP3    H2 7189   2.156   3.221   2.288
 2395TIP3   OH2 7190   3.573   5.618   1.162
 2395TIP3    H1 7191   3.647   5.641   1.219
 2395TIP3    H2 7192   3.512   5.691   1.172
 2396TIP3   OH2 7193   5.220   3.943   2.130
 2396TIP3    H1 7194   5.271   3.867   2.103
 2396TIP3    H2 7195   5.158   3.909   2.195
 2397TIP3   OH2 7196   0.422   2.319   1.053
 2397TIP3    H1 7197   0.415   2.301   0.960
 2397TIP3    H2 7198   0.364   2.394   1.067
 2398TIP3   OH2 7199   3.205   5.702   3.649
 2398TIP3    H1 7200   3.139   5.635   3.666
 2398TIP3    H2 7201   3.192   5.767   3.718
 2399TIP3   OH2 7202   1.226   1.754   2.101
 2399TIP3    H1 7203   1.146   1.803   2.079
 2399TIP3    H2 7204   1.206   1.713   2.185
 2400TIP3   OH2 7205   0.961   1.100   3.319
 2400TIP3    H1 7206   0.925   1.035   3.259
 2400TIP3    H2 7207   1.012   1.159   3.263
 2401TIP3   OH2 7208   5.294   2.618   2.249
 2401TIP3    H1 7209   5.341   2.677   2.309
 2401TIP3    H2 7210   5.203   2.647   2.254
 2402TIP3   OH2 7211   0.238   2.927   1.275
 2402TIP3    H1 7212   0.319   2.971   1.249
 2402TIP3    H2 7213   0.266   2.838   1.298
 2403TIP3   OH2 7214   0.768   3.840   3.170
 2403TIP3    H1 7215   0.746   3.807   3.083
 2403TIP3    H2 7216   0.862   3.823   3.180
 2404TIP3   OH2 7217   1.986   3.573   2.655
 2404TIP3    H1 7218   1.891   3.566   2.665
 2404TIP3    H2 7219   2.008   3.656   2.697
 2405TIP3   OH2 7220   5.152   3.227   3.344
 2405TIP3    H1 7221   5.176   3.146   3.300
 2405TIP3    H2 7222   5.176   3.296   3.282
 2406TIP3   OH2 7223   5.166   0.451   3.212
 2406TIP3    H1 7224   5.162   0.541   3.179
 2406TIP3    H2 7225   5.151   0.396   3.135
 2407TIP3   OH2 7226   5.535   5.393   3.702
 2407TIP3    H1 7227   5.594   5.401   3.777
 2407TIP3    H2 7228   5.459   5.347   3.736
 2408TIP3   OH2 7229   0.529   2.730   0.676
 2408TIP3    H1 7230   0.581   2.746   0.597
 2408TIP3    H2 7231   0.577   2.663   0.723
 2409TIP3   OH2 7232   1.586   5.721   4.587
 2409TIP3    H1 7233   1.681   5.708   4.594
 2409TIP3    H2 7234   1.575   5.786   4.518
 2410TIP3   OH2 7235   4.164   1.449   3.139
 2410TIP3    H1 7236   4.132   1.396   3.066
 2410TIP3    H2 7237   4.091   1.507   3.161
 2411TIP3   OH2 7238   1.141   5.761   4.145
 2411TIP3    H1 7239   1.202   5.726   4.209
 2411TIP3    H2 7240   1.196   5.804   4.079
 2412TIP3   OH2 7241   5.016   3.049   0.257
 2412TIP3    H1 7242   5.009   3.072   0.350
 2412TIP3    H2 7243   4.971   2.965   0.250
 2413TIP3   OH2 7244   3.809   3.783   2.787
 2413TIP3    H1 7245   3.729   3.733   2.803
 2413TIP3    H2 7246   3.784   3.874   2.803
 2414TIP3   OH2 7247   1.467   1.181   1.244
 2414TIP3    H1 7248   1.487   1.171   1.337
 2414TIP3    H2 7249   1.405   1.110   1.225
 2415TIP3   OH2 7250   5.520   1.570   0.119
 2415TIP3    H1 7251   5.462   1.633   0.076
 2415TIP3    H2 7252   5.558   1.520   0.046
 2416TIP3   OH2 7253   5.080   2.724   3.416
 2416TIP3    H1 7254   5.010   2.787   3.399
 2416TIP3    H2 7255   5.088   2.721   3.511
 2417TIP3   OH2 7256   5.802   4.281   2.196
 2417TIP3    H1 7257   5.789   4.208   2.135
 2417TIP3    H2 7258   5.877   4.255   2.249
 2418TIP3   OH2 7259   3.306   0.025   3.641
 2418TIP3    H1 7260   3.251  -0.024   3.580
 2418TIP3    H2 7261   3.260   0.020   3.725
 2419TIP3   OH2 7262   3.455   1.752   4.437
 2419TIP3    H1 7263   3.385   1.794   4.387
 2419TIP3    H2 7264   3.455   1.661   4.408
 2420TIP3   OH2 7265   5.805   2.564   2.525
 2420TIP3    H1 7266   5.712   2.541   2.516
 2420TIP3    H2 7267   5.845   2.487   2.566
 2421TIP3   OH2 7268   1.447   4.922   4.182
 2421TIP3    H1 7269   1.434   4.995   4.121
 2421TIP3    H2 7270   1.461   4.847   4.125
 2422TIP3   OH2 7271   3.144   2.525   3.934
 2422TIP3    H1 7272   3.145   2.461   3.863
 2422TIP3    H2 7273   3.188   2.480   4.006
 2423TIP3   OH2 7274   4.792   2.101   0.238
 2423TIP3    H1 7275   4.714   2.136   0.280
 2423TIP3    H2 7276   4.775   2.007   0.232
 2424TIP3   OH2 7277   4.715   3.549   0.972
 2424TIP3    H1 7278   4.745   3.489   0.903
 2424TIP3    H2 7279   4.666   3.493   1.033
 2425TIP3   OH2 7280   5.014   1.039   2.516
 2425TIP3    H1 7281   5.079   1.027   2.586
 2425TIP3    H2 7282   4.955   0.965   2.526
 2426TIP3   OH2 7283   2.409   5.089   3.654
 2426TIP3    H1 7284   2.499   5.115   3.672
 2426TIP3    H2 7285   2.405   4.996   3.677
 2427TIP3   OH2 7286   3.162   0.587   3.176
 2427TIP3    H1 7287   3.212   0.524   3.124
 2427TIP3    H2 7288   3.146   0.542   3.259
 2428TIP3   OH2 7289   3.198   5.717   2.451
 2428TIP3    H1 7290   3.112   5.759   2.453
 2428TIP3    H2 7291   3.226   5.724   2.360
 2429TIP3   OH2 7292   2.143   1.370   1.921
 2429TIP3    H1 7293   2.069   1.351   1.979
 2429TIP3    H2 7294   2.111   1.351   1.833
 2430TIP3   OH2 7295   4.201   4.933   1.398
 2430TIP3    H1 7296   4.243   4.999   1.454
 2430TIP3    H2 7297   4.109   4.938   1.420
 2431TIP3   OH2 7298   4.212   3.861   4.440
 2431TIP3    H1 7299   4.262   3.939   4.465
 2431TIP3    H2 7300   4.279   3.797   4.415
 2432TIP3   OH2 7301   5.211   3.892   1.442
 2432TIP3    H1 7302   5.160   3.972   1.435
 2432TIP3    H2 7303   5.147   3.821   1.434
 2433TIP3   OH2 7304   3.528   1.853   3.292
 2433TIP3    H1 7305   3.538   1.920   3.360
 2433TIP3    H2 7306   3.438   1.862   3.262
 2434TIP3   OH2 7307   1.389   3.789   0.341
 2434TIP3    H1 7308   1.321   3.841   0.298
 2434TIP3    H2 7309   1.401   3.832   0.426
 2435TIP3   OH2 7310   2.688   0.260   0.692
 2435TIP3    H1 7311   2.720   0.224   0.774
 2435TIP3    H2 7312   2.677   0.354   0.710
 2436TIP3   OH2 7313   0.590   3.999   0.309
 2436TIP3    H1 7314   0.673   4.003   0.357
 2436TIP3    H2 7315   0.573   3.906   0.298
 2437TIP3   OH2 7316   3.845   0.748   5.064
 2437TIP3    H1 7317   3.778   0.720   5.126
 2437TIP3    H2 7318   3.903   0.804   5.115
 2438TIP3   OH2 7319   3.477   5.780   0.686
 2438TIP3    H1 7320   3.504   5.734   0.765
 2438TIP3    H2 7321   3.491   5.872   0.705
 2439TIP3   OH2 7322   2.237   4.125   4.414
 2439TIP3    H1 7323   2.154   4.084   4.386
 2439TIP3    H2 7324   2.210   4.202   4.463
 2440TIP3   OH2 7325   4.769   3.752   0.661
 2440TIP3    H1 7326   4.793   3.659   0.663
 2440TIP3    H2 7327   4.781   3.781   0.751
 2441TIP3   OH2 7328   4.578   5.535   4.631
 2441TIP3    H1 7329   4.573   5.466   4.697
 2441TIP3    H2 7330   4.491   5.536   4.591
 2442TIP3   OH2 7331   3.145   5.457   1.721
 2442TIP3    H1 7332   3.089   5.498   1.656
 2442TIP3    H2 7333   3.189   5.386   1.674
 2443TIP3   OH2 7334   1.783   1.302   4.950
 2443TIP3    H1 7335   1.873   1.332   4.942
 2443TIP3    H2 7336   1.788   1.207   4.947
 2444TIP3   OH2 7337   1.598   2.824   2.372
 2444TIP3    H1 7338   1.597   2.812   2.277
 2444TIP3    H2 7339   1.687   2.797   2.398
 2445TIP3   OH2 7340   2.722   4.701   2.834
 2445TIP3    H1 7341   2.747   4.790   2.808
 2445TIP3    H2 7342   2.742   4.697   2.928
 2446TIP3   OH2 7343   3.538   4.962   1.891
 2446TIP3    H1 7344   3.580   5.047   1.895
 2446TIP3    H2 7345   3.449   4.980   1.858
 2447TIP3   OH2 7346   2.861   1.097   1.726
 2447TIP3    H1 7347   2.805   1.108   1.803
 2447TIP3    H2 7348   2.810   1.136   1.654
 2448TIP3   OH2 7349   4.786   4.815   4.830
 2448TIP3    H1 7350   4.742   4.896   4.855
 2448TIP3    H2 7351   4.726   4.773   4.768
 2449TIP3   OH2 7352   4.052   0.712   4.079
 2449TIP3    H1 7353   3.982   0.716   4.013
 2449TIP3    H2 7354   4.130   0.689   4.028
 2450TIP3   OH2 7355   5.940   0.398   0.469
 2450TIP3    H1 7356   5.986   0.481   0.484
 2450TIP3    H2 7357   5.942   0.354   0.554
 2451TIP3   OH2 7358   2.407   5.394   0.594
 2451TIP3    H1 7359   2.497   5.361   0.598
 2451TIP3    H2 7360   2.384   5.414   0.685
 2452TIP3   OH2 7361   3.495   4.560   4.402
 2452TIP3    H1 7362   3.471   4.473   4.369
 2452TIP3    H2 7363   3.528   4.607   4.326
 2453TIP3   OH2 7364   4.271   3.087   5.160
 2453TIP3    H1 7365   4.228   3.105   5.244
 2453TIP3    H2 7366   4.199   3.060   5.102
 2454TIP3   OH2 7367   1.395   0.521   2.991
 2454TIP3    H1 7368   1.309   0.563   2.984
 2454TIP3    H2 7369   1.453   0.575   2.936
 2455TIP3   OH2 7370   2.247   1.331   4.128
 2455TIP3    H1 7371   2.310   1.261   4.146
 2455TIP3    H2 7372   2.284   1.408   4.173
 2456TIP3   OH2 7373   2.694   3.123   4.799
 2456TIP3    H1 7374   2.695   3.202   4.853
 2456TIP3    H2 7375   2.753   3.142   4.726
 2457TIP3   OH2 7376   5.716   1.690   2.119
 2457TIP3    H1 7377   5.765   1.633   2.179
 2457TIP3    H2 7378   5.645   1.726   2.173
 2458TIP3   OH2 7379   3.310   4.579   4.112
 2458TIP3    H1 7380   3.380   4.554   4.052
 2458TIP3    H2 7381   3.287   4.668   4.087
 2459TIP3   OH2 7382   1.738   3.363   1.972
 2459TIP3    H1 7383   1.674   3.293   1.964
 2459TIP3    H2 7384   1.686   3.441   1.993
 2460TIP3   OH2 7385   5.879   1.523   4.919
 2460TIP3    H1 7386   5.926   1.542   4.838
 2460TIP3    H2 7387   5.798   1.574   4.913
 2461TIP3   OH2 7388   2.818   1.743   3.173
 2461TIP3    H1 7389   2.806   1.648   3.168
 2461TIP3    H2 7390   2.773   1.777   3.095
 2462TIP3   OH2 7391   5.740   4.908   4.033
 2462TIP3    H1 7392   5.758   4.953   4.115
 2462TIP3    H2 7393   5.663   4.952   3.997
 2463TIP3   OH2 7394   3.476   4.260   2.187
 2463TIP3    H1 7395   3.532   4.283   2.261
 2463TIP3    H2 7396   3.524   4.192   2.141
 2464TIP3   OH2 7397   3.860   3.373   0.519
 2464TIP3    H1 7398   3.896   3.459   0.496
 2464TIP3    H2 7399   3.785   3.361   0.460
 2465TIP3   OH2 7400   0.532   5.046   1.113
 2465TIP3    H1 7401   0.476   5.110   1.157
 2465TIP3    H2 7402   0.577   5.096   1.045
 2466TIP3   OH2 7403   1.048   0.820   0.278
 2466TIP3    H1 7404   1.098   0.881   0.333
 2466TIP3    H2 7405   1.075   0.733   0.307
 2467TIP3   OH2 7406   0.821   0.065   3.119
 2467TIP3    H1 7407   0.839   0.009   3.194
 2467TIP3    H2 7408   0.819   0.154   3.154
 2468TIP3   OH2 7409   2.735   5.981   0.090
 2468TIP3    H1 7410   2.788   5.960   0.166
 2468TIP3    H2 7411   2.775   5.930   0.019
 2469TIP3   OH2 7412   6.195   3.809   2.601
 2469TIP3    H1 7413   6.244   3.838   2.678
 2469TIP3    H2 7414   6.152   3.728   2.629
 2470TIP3   OH2 7415   5.187   1.255   0.347
 2470TIP3    H1 7416   5.174   1.286   0.437
 2470TIP3    H2 7417   5.277   1.279   0.326
 2471TIP3   OH2 7418   4.276   1.107   1.077
 2471TIP3    H1 7419   4.264   1.097   1.172
 2471TIP3    H2 7420   4.353   1.163   1.069
 2472TIP3   OH2 7421   2.430   5.980   1.278
 2472TIP3    H1 7422   2.476   6.029   1.210
 2472TIP3    H2 7423   2.360   5.934   1.231
 2473TIP3   OH2 7424   3.546   4.415   0.594
 2473TIP3    H1 7425   3.590   4.465   0.663
 2473TIP3    H2 7426   3.562   4.466   0.514
 2474TIP3   OH2 7427   5.127   1.389   4.821
 2474TIP3    H1 7428   5.175   1.370   4.740
 2474TIP3    H2 7429   5.190   1.373   4.891
 2475TIP3   OH2 7430   5.309   5.814   2.260
 2475TIP3    H1 7431   5.357   5.884   2.216
 2475TIP3    H2 7432   5.221   5.850   2.275
 2476TIP3   OH2 7433   1.254   0.293   3.823
 2476TIP3    H1 7434   1.336   0.340   3.837
 2476TIP3    H2 7435   1.281   0.205   3.796
 2477TIP3   OH2 7436   4.159   3.178   4.746
 2477TIP3    H1 7437   4.169   3.102   4.803
 2477TIP3    H2 7438   4.240   3.227   4.756
 2478TIP3   OH2 7439   0.622   1.081   2.200
 2478TIP3    H1 7440   0.567   1.093   2.278
 2478TIP3    H2 7441   0.682   1.156   2.202
 2479TIP3   OH2 7442   5.284   1.700   0.546
 2479TIP3    H1 7443   5.358   1.664   0.497
 2479TIP3    H2 7444   5.302   1.793   0.553
 2480TIP3   OH2 7445   1.268   2.168   1.842
 2480TIP3    H1 7446   1.185   2.193   1.882
 2480TIP3    H2 7447   1.275   2.223   1.764
 2481TIP3   OH2 7448   3.186   1.055   1.846
 2481TIP3    H1 7449   3.180   1.097   1.760
 2481TIP3    H2 7450   3.253   1.105   1.893
 2482TIP3   OH2 7451   6.253   3.148   2.266
 2482TIP3    H1 7452   6.243   3.237   2.233
 2482TIP3    H2 7453   6.241   3.092   2.189
 2483TIP3   OH2 7454   3.931   1.231   3.983
 2483TIP3    H1 7455   4.026   1.221   3.977
 2483TIP3    H2 7456   3.907   1.186   4.063
 2484TIP3   OH2 7457   0.460   4.169   0.115
 2484TIP3    H1 7458   0.483   4.175   0.023
 2484TIP3    H2 7459   0.519   4.102   0.151
 2485TIP3   OH2 7460   1.035   2.309   0.433
 2485TIP3    H1 7461   1.091   2.239   0.468
 2485TIP3    H2 7462   1.080   2.390   0.456
 2486TIP3   OH2 7463   1.389   1.164   2.604
 2486TIP3    H1 7464   1.360   1.112   2.528
 2486TIP3    H2 7465   1.310   1.173   2.658
 2487TIP3   OH2 7466   4.962   5.296   5.054
 2487TIP3    H1 7467   4.947   5.295   5.149
 2487TIP3    H2 7468   4.884   5.254   5.018
 2488TIP3   OH2 7469   3.926   4.957   1.502
 2488TIP3    H1 7470   3.884   5.016   1.439
 2488TIP3    H2 7471   3.899   4.990   1.588
 2489TIP3   OH2 7472   0.844   5.306   0.583
 2489TIP3    H1 7473   0.817   5.217   0.556
 2489TIP3    H2 7474   0.785   5.328   0.655
 2490TIP3   OH2 7475   0.486   0.145   1.798
 2490TIP3    H1 7476   0.438   0.138   1.715
 2490TIP3    H2 7477   0.508   0.238   1.806
 2491TIP3   OH2 7478   3.164   3.181   2.511
 2491TIP3    H1 7479   3.079   3.180   2.556
 2491TIP3    H2 7480   3.228   3.178   2.582
 2492TIP3   OH2 7481   0.362   2.239   3.686
 2492TIP3    H1 7482   0.290   2.186   3.721
 2492TIP3    H2 7483   0.325   2.279   3.607
 2493TIP3   OH2 7484   6.267   4.987   1.549
 2493TIP3    H1 7485   6.285   5.048   1.621
 2493TIP3    H2 7486   6.176   5.004   1.525
 2494TIP3   OH2 7487   3.726   2.266   3.631
 2494TIP3    H1 7488   3.656   2.306   3.683
 2494TIP3    H2 7489   3.727   2.174   3.658
 2495TIP3   OH2 7490   1.303   4.603   1.973
 2495TIP3    H1 7491   1.384   4.572   2.014
 2495TIP3    H2 7492   1.233   4.568   2.029
 2496TIP3   OH2 7493   1.110   3.163   1.528
 2496TIP3    H1 7494   1.134   3.071   1.540
 2496TIP3    H2 7495   1.019   3.168   1.555
 2497TIP3   OH2 7496   5.702   0.417   4.657
 2497TIP3    H1 7497   5.790   0.381   4.646
 2497TIP3    H2 7498   5.644   0.340   4.656
 2498TIP3   OH2 7499   4.288   3.607   1.122
 2498TIP3    H1 7500   4.241   3.588   1.203
 2498TIP3    H2 7501   4.302   3.522   1.082
 2499TIP3   OH2 7502   4.937   0.254   2.782
 2499TIP3    H1 7503   5.011   0.210   2.822
 2499TIP3    H2 7504   4.897   0.188   2.726
 2500TIP3   OH2 7505   3.143   4.390   2.166
 2500TIP3    H1 7506   3.134   4.371   2.072
 2500TIP3    H2 7507   3.097   4.473   2.178
 2501TIP3   OH2 7508   5.435   5.168   0.096
 2501TIP3    H1 7509   5.451   5.224   0.173
 2501TIP3    H2 7510   5.483   5.088   0.115
 2502TIP3   OH2 7511   0.753   3.265   2.381
 2502TIP3    H1 7512   0.779   3.335   2.441
 2502TIP3    H2 7513   0.698   3.207   2.434
 2503TIP3   OH2 7514   0.430   4.928   3.512
 2503TIP3    H1 7515   0.455   4.836   3.512
 2503TIP3    H2 7516   0.416   4.950   3.604
 2504TIP3   OH2 7517   0.518   2.634   3.723
 2504TIP3    H1 7518   0.547   2.630   3.814
 2504TIP3    H2 7519   0.511   2.728   3.704
 2505TIP3   OH2 7520   4.494   3.484   3.971
 2505TIP3    H1 7521   4.539   3.399   3.978
 2505TIP3    H2 7522   4.564   3.548   3.967
 2506TIP3   OH2 7523   5.862   3.191   3.436
 2506TIP3    H1 7524   5.876   3.120   3.373
 2506TIP3    H2 7525   5.858   3.270   3.383
 2507TIP3   OH2 7526   5.096   1.703   4.891
 2507TIP3    H1 7527   5.033   1.635   4.915
 2507TIP3    H2 7528   5.099   1.699   4.795
 2508TIP3   OH2 7529   4.172   1.986   1.098
 2508TIP3    H1 7530   4.231   1.911   1.093
 2508TIP3    H2 7531   4.097   1.962   1.044
 2509TIP3   OH2 7532   0.443   4.268   1.283
 2509TIP3    H1 7533   0.481   4.304   1.363
 2509TIP3    H2 7534   0.444   4.341   1.221
 2510TIP3   OH2 7535   5.729   5.534   1.421
 2510TIP3    H1 7536   5.674   5.511   1.496
 2510TIP3    H2 7537   5.718   5.461   1.360
 2511TIP3   OH2 7538   4.182   4.383   4.424
 2511TIP3    H1 7539   4.216   4.440   4.493
 2511TIP3    H2 7540   4.156   4.443   4.354
 2512TIP3   OH2 7541   1.282   3.390   0.114
 2512TIP3    H1 7542   1.267   3.361   0.024
 2512TIP3    H2 7543   1.368   3.431   0.112
 2513TIP3   OH2 7544   4.596   4.502   2.409
 2513TIP3    H1 7545   4.644   4.423   2.431
 2513TIP3    H2 7546   4.564   4.487   2.320
 2514TIP3   OH2 7547   0.123   2.785   4.865
 2514TIP3    H1 7548   0.126   2.867   4.915
 2514TIP3    H2 7549   0.055   2.733   4.909
 2515TIP3   OH2 7550   4.714   3.143   2.581
 2515TIP3    H1 7551   4.642   3.139   2.519
 2515TIP3    H2 7552   4.710   3.231   2.618
 2516TIP3   OH2 7553   5.795   1.193   0.174
 2516TIP3    H1 7554   5.787   1.122   0.237
 2516TIP3    H2 7555   5.841   1.155   0.099
 2517TIP3   OH2 7556   3.108   5.314   0.195
 2517TIP3    H1 7557   3.184   5.355   0.152
 2517TIP3    H2 7558   3.099   5.229   0.153
 2518TIP3   OH2 7559   6.016   1.995   3.004
 2518TIP3    H1 7560   6.011   1.911   3.050
 2518TIP3    H2 7561   6.052   1.973   2.919
 2519TIP3   OH2 7562   6.097   0.528   3.234
 2519TIP3    H1 7563   6.160   0.502   3.167
 2519TIP3    H2 7564   6.133   0.609   3.271
 2520TIP3   OH2 7565   2.561   0.195   2.181
 2520TIP3    H1 7566   2.652   0.203   2.154
 2520TIP3    H2 7567   2.523   0.133   2.119
 2521TIP3   OH2 7568   1.097   2.575   4.368
 2521TIP3    H1 7569   1.162   2.644   4.354
 2521TIP3    H2 7570   1.144   2.507   4.416
 2522TIP3   OH2 7571   1.655   0.078   1.532
 2522TIP3    H1 7572   1.589   0.138   1.566
 2522TIP3    H2 7573   1.697   0.127   1.461
 2523TIP3   OH2 7574   2.878   3.763   0.377
 2523TIP3    H1 7575   2.884   3.668   0.378
 2523TIP3    H2 7576   2.793   3.781   0.338
 2524TIP3   OH2 7577   6.164   5.054   4.354
 2524TIP3    H1 7578   6.192   5.003   4.430
 2524TIP3    H2 7579   6.163   5.144   4.385
 2525TIP3   OH2 7580   5.171   0.600   1.354
 2525TIP3    H1 7581   5.159   0.556   1.437
 2525TIP3    H2 7582   5.129   0.543   1.290
 2526TIP3   OH2 7583   2.213   0.332   4.423
 2526TIP3    H1 7584   2.281   0.285   4.471
 2526TIP3    H2 7585   2.217   0.422   4.457
 2527TIP3   OH2 7586   1.262   4.007   4.284
 2527TIP3    H1 7587   1.237   3.915   4.290
 2527TIP3    H2 7588   1.351   4.006   4.251
 2528TIP3   OH2 7589   1.074   5.609   0.393
 2528TIP3    H1 7590   1.101   5.598   0.484
 2528TIP3    H2 7591   0.979   5.604   0.395
 2529TIP3   OH2 7592   2.750   3.047   2.326
 2529TIP3    H1 7593   2.707   3.072   2.244
 2529TIP3    H2 7594   2.830   3.003   2.298
 2530TIP3   OH2 7595   5.859   0.748   2.561
 2530TIP3    H1 7596   5.954   0.753   2.552
 2530TIP3    H2 7597   5.834   0.672   2.508
 2531TIP3   OH2 7598   4.386   4.929   3.002
 2531TIP3    H1 7599   4.453   4.986   2.965
 2531TIP3    H2 7600   4.400   4.845   2.960
 2532TIP3   OH2 7601   5.996   1.192   4.692
 2532TIP3    H1 7602   5.961   1.117   4.644
 2532TIP3    H2 7603   6.091   1.186   4.680
 2533TIP3   OH2 7604   5.852   2.283   1.602
 2533TIP3    H1 7605   5.769   2.281   1.555
 2533TIP3    H2 7606   5.846   2.211   1.665
 2534TIP3   OH2 7607   1.055   5.547   2.818
 2534TIP3    H1 7608   1.041   5.522   2.726
 2534TIP3    H2 7609   1.090   5.636   2.813
 2535TIP3   OH2 7610   1.688   1.056   4.530
 2535TIP3    H1 7611   1.775   1.090   4.549
 2535TIP3    H2 7612   1.702   0.988   4.464
 2536TIP3   OH2 7613   3.637   1.421   0.024
 2536TIP3    H1 7614   3.608   1.405   0.113
 2536TIP3    H2 7615   3.703   1.353   0.008
 2537TIP3   OH2 7616   3.579   2.364   1.340
 2537TIP3    H1 7617   3.556   2.326   1.424
 2537TIP3    H2 7618   3.659   2.318   1.313
 2538TIP3   OH2 7619   3.044   4.347   4.989
 2538TIP3    H1 7620   3.041   4.281   5.059
 2538TIP3    H2 7621   3.130   4.336   4.950
 2539TIP3   OH2 7622   2.965   4.616   4.637
 2539TIP3    H1 7623   2.981   4.527   4.605
 2539TIP3    H2 7624   2.898   4.605   4.704
 2540TIP3   OH2 7625   2.228   5.436   2.621
 2540TIP3    H1 7626   2.167   5.491   2.572
 2540TIP3    H2 7627   2.183   5.418   2.703
 2541TIP3   OH2 7628   2.105   3.406   0.405
 2541TIP3    H1 7629   2.143   3.446   0.327
 2541TIP3    H2 7630   2.051   3.335   0.372
 2542TIP3   OH2 7631   5.009   2.924   4.382
 2542TIP3    H1 7632   4.952   2.897   4.454
 2542TIP3    H2 7633   4.979   2.872   4.308
 2543TIP3   OH2 7634   4.893   2.148   4.937
 2543TIP3    H1 7635   4.896   2.159   5.032
 2543TIP3    H2 7636   4.807   2.109   4.921
 2544TIP3   OH2 7637   5.596   5.892   4.182
 2544TIP3    H1 7638   5.565   5.982   4.172
 2544TIP3    H2 7639   5.520   5.838   4.164
 2545TIP3   OH2 7640   3.650   0.304   3.625
 2545TIP3    H1 7641   3.633   0.229   3.567
 2545TIP3    H2 7642   3.741   0.294   3.651
 2546TIP3   OH2 7643   5.784   2.728   3.146
 2546TIP3    H1 7644   5.691   2.744   3.163
 2546TIP3    H2 7645   5.792   2.632   3.150
 2547TIP3   OH2 7646   3.248   1.102   0.300
 2547TIP3    H1 7647   3.165   1.148   0.302
 2547TIP3    H2 7648   3.246   1.046   0.378
 2548TIP3   OH2 7649   5.637   5.252   4.442
 2548TIP3    H1 7650   5.687   5.271   4.521
 2548TIP3    H2 7651   5.581   5.329   4.430
 2549TIP3   OH2 7652   5.177   2.390   4.100
 2549TIP3    H1 7653   5.122   2.312   4.110
 2549TIP3    H2 7654   5.257   2.357   4.060
 2550TIP3   OH2 7655   5.103   0.584   2.344
 2550TIP3    H1 7656   5.059   0.574   2.260
 2550TIP3    H2 7657   5.051   0.649   2.391
 2551TIP3   OH2 7658   4.309   5.348   0.917
 2551TIP3    H1 7659   4.304   5.441   0.896
 2551TIP3    H2 7660   4.343   5.307   0.838
 2552TIP3   OH2 7661   1.452   2.473   1.500
 2552TIP3    H1 7662   1.523   2.477   1.564
 2552TIP3    H2 7663   1.493   2.436   1.421
 2553TIP3   OH2 7664   4.117   0.888   4.465
 2553TIP3    H1 7665   4.167   0.969   4.464
 2553TIP3    H2 7666   4.025   0.916   4.468
 2554TIP3   OH2 7667   3.897   0.616   1.582
 2554TIP3    H1 7668   3.851   0.672   1.645
 2554TIP3    H2 7669   3.828   0.560   1.546
 2555TIP3   OH2 7670   1.929   4.802   0.723
 2555TIP3    H1 7671   1.918   4.884   0.770
 2555TIP3    H2 7672   1.995   4.821   0.657
 2556TIP3   OH2 7673   2.232   4.838   4.217
 2556TIP3    H1 7674   2.326   4.857   4.217
 2556TIP3    H2 7675   2.201   4.869   4.132
 2557TIP3   OH2 7676   6.034   5.325   0.055
 2557TIP3    H1 7677   6.129   5.316   0.055
 2557TIP3    H2 7678   6.004   5.256  -0.004
 2558TIP3   OH2 7679   4.112   1.973   2.942
 2558TIP3    H1 7680   4.037   1.938   2.893
 2558TIP3    H2 7681   4.162   1.896   2.967
 2559TIP3   OH2 7682   4.746   4.043   3.113
 2559TIP3    H1 7683   4.833   4.026   3.078
 2559TIP3    H2 7684   4.720   3.961   3.154
 2560TIP3   OH2 7685   2.075   4.603   1.263
 2560TIP3    H1 7686   2.075   4.537   1.193
 2560TIP3    H2 7687   2.080   4.552   1.344
 2561TIP3   OH2 7688   4.987   4.325   3.893
 2561TIP3    H1 7689   4.943   4.335   3.977
 2561TIP3    H2 7690   5.015   4.233   3.891
 2562TIP3   OH2 7691   5.001   0.769   4.278
 2562TIP3    H1 7692   4.909   0.792   4.296
 2562TIP3    H2 7693   5.006   0.675   4.295
 2563TIP3   OH2 7694   2.270   0.613   3.752
 2563TIP3    H1 7695   2.271   0.689   3.810
 2563TIP3    H2 7696   2.288   0.650   3.665
 2564TIP3   OH2 7697   4.791   0.945   3.722
 2564TIP3    H1 7698   4.749   0.988   3.647
 2564TIP3    H2 7699   4.880   0.927   3.692
 2565TIP3   OH2 7700   2.042   4.251   4.870
 2565TIP3    H1 7701   2.033   4.303   4.949
 2565TIP3    H2 7702   1.986   4.295   4.806
 2566TIP3   OH2 7703   3.902   1.389   0.415
 2566TIP3    H1 7704   3.817   1.379   0.456
 2566TIP3    H2 7705   3.943   1.462   0.462
 2567TIP3   OH2 7706   4.965   0.799   1.282
 2567TIP3    H1 7707   5.017   0.721   1.299
 2567TIP3    H2 7708   4.927   0.785   1.195
 2568TIP3   OH2 7709   1.979   4.734   3.621
 2568TIP3    H1 7710   1.981   4.706   3.530
 2568TIP3    H2 7711   1.997   4.828   3.618
 2569TIP3   OH2 7712   1.437   0.112   4.867
 2569TIP3    H1 7713   1.371   0.054   4.904
 2569TIP3    H2 7714   1.513   0.100   4.923
 2570TIP3   OH2 7715   0.954   5.139   2.168
 2570TIP3    H1 7716   0.964   5.125   2.074
 2570TIP3    H2 7717   0.961   5.233   2.180
 2571TIP3   OH2 7718   1.890   0.757   2.114
 2571TIP3    H1 7719   1.824   0.725   2.175
 2571TIP3    H2 7720   1.942   0.819   2.165
 2572TIP3   OH2 7721   5.472   3.111   4.349
 2572TIP3    H1 7722   5.450   3.063   4.269
 2572TIP3    H2 7723   5.556   3.075   4.375
 2573TIP3   OH2 7724   2.415   2.337   0.984
 2573TIP3    H1 7725   2.428   2.268   1.049
 2573TIP3    H2 7726   2.337   2.309   0.935
 2574TIP3   OH2 7727   3.616   1.308   0.592
 2574TIP3    H1 7728   3.554   1.340   0.657
 2574TIP3    H2 7729   3.632   1.384   0.535
 2575TIP3   OH2 7730   2.331   2.445   1.711
 2575TIP3    H1 7731   2.258   2.445   1.649
 2575TIP3    H2 7732   2.312   2.517   1.771
 2576TIP3   OH2 7733   4.283   3.830   4.907
 2576TIP3    H1 7734   4.307   3.748   4.949
 2576TIP3    H2 7735   4.205   3.810   4.856
 2577TIP3   OH2 7736   2.698   4.093   1.679
 2577TIP3    H1 7737   2.762   4.025   1.654
 2577TIP3    H2 7738   2.752   4.167   1.705
 2578TIP3   OH2 7739   5.312   0.380   0.058
 2578TIP3    H1 7740   5.305   0.374  -0.037
 2578TIP3    H2 7741   5.274   0.298   0.090
 2579TIP3   OH2 7742   1.310   0.978   0.095
 2579TIP3    H1 7743   1.393   0.938   0.119
 2579TIP3    H2 7744   1.264   0.989   0.178
 2580TIP3   OH2 7745   3.049   2.047   0.101
 2580TIP3    H1 7746   2.958   2.018   0.089
 2580TIP3    H2 7747   3.091   2.030   0.017
 2581TIP3   OH2 7748   1.970   2.016   0.750
 2581TIP3    H1 7749   1.944   2.093   0.801
 2581TIP3    H2 7750   1.972   2.046   0.659
 2582TIP3   OH2 7751   1.049   4.895   3.660
 2582TIP3    H1 7752   1.055   4.962   3.728
 2582TIP3    H2 7753   0.955   4.876   3.654
 2583TIP3   OH2 7754   0.955   3.740   3.830
 2583TIP3    H1 7755   0.939   3.703   3.917
 2583TIP3    H2 7756   0.900   3.688   3.771
 2584TIP3   OH2 7757   5.888   5.272   1.624
 2584TIP3    H1 7758   5.897   5.229   1.539
 2584TIP3    H2 7759   5.796   5.300   1.627
 2585TIP3   OH2 7760   4.124   1.924   3.498
 2585TIP3    H1 7761   4.085   2.005   3.528
 2585TIP3    H2 7762   4.089   1.912   3.409
 2586TIP3   OH2 7763   3.633   4.212   0.918
 2586TIP3    H1 7764   3.678   4.212   0.833
 2586TIP3    H2 7765   3.617   4.120   0.936
 2587TIP3   OH2 7766   0.867   3.154   0.177
 2587TIP3    H1 7767   0.840   3.190   0.092
 2587TIP3    H2 7768   0.810   3.197   0.240
 2588TIP3   OH2 7769   0.745   2.574   4.403
 2588TIP3    H1 7770   0.756   2.596   4.495
 2588TIP3    H2 7771   0.805   2.502   4.387
 2589TIP3   OH2 7772   0.436   1.955   1.767
 2589TIP3    H1 7773   0.486   1.981   1.844
 2589TIP3    H2 7774   0.375   2.027   1.753
 2590TIP3   OH2 7775   4.757   4.693   3.745
 2590TIP3    H1 7776   4.691   4.718   3.680
 2590TIP3    H2 7777   4.828   4.756   3.733
 2591TIP3   OH2 7778   6.212   0.781   3.933
 2591TIP3    H1 7779   6.175   0.832   3.861
 2591TIP3    H2 7780   6.136   0.743   3.976
 2592TIP3   OH2 7781   5.311   1.305   5.004
 2592TIP3    H1 7782   5.345   1.313   5.093
 2592TIP3    H2 7783   5.344   1.221   4.973
 2593TIP3   OH2 7784   5.838   2.391   1.074
 2593TIP3    H1 7785   5.803   2.472   1.112
 2593TIP3    H2 7786   5.767   2.328   1.082
 2594TIP3   OH2 7787   1.277   2.089   4.369
 2594TIP3    H1 7788   1.216   2.020   4.394
 2594TIP3    H2 7789   1.222   2.154   4.325
 2595TIP3   OH2 7790   5.789   1.608   1.855
 2595TIP3    H1 7791   5.800   1.631   1.948
 2595TIP3    H2 7792   5.879   1.601   1.822
 2596TIP3   OH2 7793   4.217   3.016   3.240
 2596TIP3    H1 7794   4.278   3.071   3.289
 2596TIP3    H2 7795   4.180   3.074   3.174
 2597TIP3   OH2 7796   4.874   3.847   3.897
 2597TIP3    H1 7797   4.873   3.816   3.987
 2597TIP3    H2 7798   4.902   3.772   3.845
 2598TIP3   OH2 7799   2.246   4.859   1.741
 2598TIP3    H1 7800   2.157   4.854   1.709
 2598TIP3    H2 7801   2.246   4.933   1.802
 2599TIP3   OH2 7802   5.973   4.370   2.442
 2599TIP3    H1 7803   5.883   4.397   2.421
 2599TIP3    H2 7804   5.998   4.427   2.515
 2600TIP3   OH2 7805   3.550   4.957   2.823
 2600TIP3    H1 7806   3.535   4.882   2.881
 2600TIP3    H2 7807   3.574   4.918   2.739
 2601TIP3   OH2 7808   2.887   4.211   0.988
 2601TIP3    H1 7809   2.965   4.241   0.942
 2601TIP3    H2 7810   2.898   4.241   1.079
 2602TIP3   OH2 7811   1.494   4.278   4.168
 2602TIP3    H1 7812   1.424   4.247   4.226
 2602TIP3    H2 7813   1.456   4.276   4.080
 2603TIP3   OH2 7814   5.002   1.224   1.581
 2603TIP3    H1 7815   4.947   1.224   1.503
 2603TIP3    H2 7816   4.985   1.139   1.623
 2604TIP3   OH2 7817   6.071   2.025   3.753
 2604TIP3    H1 7818   6.084   1.936   3.722
 2604TIP3    H2 7819   6.159   2.063   3.757
 2605TIP3   OH2 7820   1.273   5.650   5.001
 2605TIP3    H1 7821   1.332   5.712   5.042
 2605TIP3    H2 7822   1.317   5.625   4.920
 2606TIP3   OH2 7823   3.734   0.200   1.999
 2606TIP3    H1 7824   3.688   0.269   1.951
 2606TIP3    H2 7825   3.735   0.125   1.940
 2607TIP3   OH2 7826   5.419   1.341   3.008
 2607TIP3    H1 7827   5.325   1.349   2.988
 2607TIP3    H2 7828   5.444   1.428   3.039
 2608TIP3   OH2 7829   2.236   5.064   3.223
 2608TIP3    H1 7830   2.189   5.140   3.188
 2608TIP3    H2 7831   2.305   5.102   3.279
 2609TIP3   OH2 7832   4.393   4.307   4.838
 2609TIP3    H1 7833   4.318   4.266   4.796
 2609TIP3    H2 7834   4.447   4.235   4.868
 2610TIP3   OH2 7835   4.926   4.399   2.587
 2610TIP3    H1 7836   4.849   4.366   2.540
 2610TIP3    H2 7837   4.965   4.320   2.625
 2611TIP3   OH2 7838   5.937   2.072   3.983
 2611TIP3    H1 7839   5.971   2.049   3.897
 2611TIP3    H2 7840   6.010   2.117   4.026
 2612TIP3   OH2 7841   4.966   3.273   1.096
 2612TIP3    H1 7842   5.024   3.348   1.113
 2612TIP3    H2 7843   5.023   3.197   1.106
 2613TIP3   OH2 7844   1.450   0.721   4.809
 2613TIP3    H1 7845   1.436   0.789   4.743
 2613TIP3    H2 7846   1.362   0.700   4.841
 2614TIP3   OH2 7847   2.493   0.578   0.958
 2614TIP3    H1 7848   2.556   0.581   0.886
 2614TIP3    H2 7849   2.436   0.504   0.938
 2615TIP3   OH2 7850   4.531   4.881   0.831
 2615TIP3    H1 7851   4.545   4.891   0.926
 2615TIP3    H2 7852   4.449   4.832   0.824
 2616TIP3   OH2 7853   5.748   5.120   2.032
 2616TIP3    H1 7854   5.814   5.069   1.984
 2616TIP3    H2 7855   5.677   5.058   2.047
 2617TIP3   OH2 7856   2.551   5.566   4.416
 2617TIP3    H1 7857   2.535   5.613   4.498
 2617TIP3    H2 7858   2.635   5.601   4.385
 2618TIP3   OH2 7859   3.865   5.932   2.335
 2618TIP3    H1 7860   3.887   5.898   2.248
 2618TIP3    H2 7861   3.916   5.879   2.395
 2619TIP3   OH2 7862   4.308   5.228   0.664
 2619TIP3    H1 7863   4.356   5.210   0.584
 2619TIP3    H2 7864   4.257   5.149   0.680
 2620TIP3   OH2 7865   6.221   2.043   0.010
 2620TIP3    H1 7866   6.170   2.036   0.091
 2620TIP3    H2 7867   6.274   2.122   0.022
 2621TIP3   OH2 7868   0.590   2.650   5.020
 2621TIP3    H1 7869   0.559   2.740   5.025
 2621TIP3    H2 7870   0.577   2.624   4.929
 2622TIP3   OH2 7871   2.395   2.347   1.464
 2622TIP3    H1 7872   2.382   2.390   1.548
 2622TIP3    H2 7873   2.306   2.331   1.432
 2623TIP3   OH2 7874   3.640   2.080   0.705
 2623TIP3    H1 7875   3.605   2.169   0.711
 2623TIP3    H2 7876   3.698   2.072   0.781
 2624TIP3   OH2 7877   3.744   5.526   3.153
 2624TIP3    H1 7878   3.779   5.582   3.222
 2624TIP3    H2 7879   3.651   5.518   3.172
 2625TIP3   OH2 7880   4.119   5.841   0.831
 2625TIP3    H1 7881   4.121   5.829   0.736
 2625TIP3    H2 7882   4.203   5.807   0.861
 2626TIP3   OH2 7883   2.276   1.989   3.951
 2626TIP3    H1 7884   2.247   1.924   4.015
 2626TIP3    H2 7885   2.349   2.033   3.994
 2627TIP3   OH2 7886   2.944   0.519   2.120
 2627TIP3    H1 7887   2.912   0.430   2.131
 2627TIP3    H2 7888   2.883   0.559   2.058
 2628TIP3   OH2 7889   6.334   4.042   1.251
 2628TIP3    H1 7890   6.415   4.061   1.299
 2628TIP3    H2 7891   6.265   4.051   1.317
 2629TIP3   OH2 7892   5.737   4.530   0.060
 2629TIP3    H1 7893   5.714   4.441   0.034
 2629TIP3    H2 7894   5.811   4.518   0.120
 2630TIP3   OH2 7895   1.903   4.806   5.051
 2630TIP3    H1 7896   1.880   4.753   5.127
 2630TIP3    H2 7897   1.968   4.869   5.083
 2631TIP3   OH2 7898   4.251   5.018   3.206
 2631TIP3    H1 7899   4.196   5.089   3.171
 2631TIP3    H2 7900   4.296   4.983   3.128
 2632TIP3   OH2 7901   2.606   2.500   0.359
 2632TIP3    H1 7902   2.646   2.440   0.421
 2632TIP3    H2 7903   2.652   2.583   0.372
 2633TIP3   OH2 7904   2.555   0.395   3.991
 2633TIP3    H1 7905   2.474   0.391   4.041
 2633TIP3    H2 7906   2.530   0.370   3.902
 2634TIP3   OH2 7907   2.315   5.461   1.252
 2634TIP3    H1 7908   2.232   5.509   1.253
 2634TIP3    H2 7909   2.369   5.508   1.189
 2635TIP3   OH2 7910   1.280   2.609   1.741
 2635TIP3    H1 7911   1.330   2.579   1.665
 2635TIP3    H2 7912   1.237   2.690   1.711
 2636TIP3   OH2 7913   4.728   0.252   0.167
 2636TIP3    H1 7914   4.739   0.345   0.148
 2636TIP3    H2 7915   4.743   0.208   0.083
 2637TIP3   OH2 7916   2.624   2.141   4.729
 2637TIP3    H1 7917   2.569   2.211   4.693
 2637TIP3    H2 7918   2.713   2.171   4.714
 2638TIP3   OH2 7919   0.247   0.612   2.391
 2638TIP3    H1 7920   0.312   0.662   2.441
 2638TIP3    H2 7921   0.289   0.528   2.375
 2639TIP3   OH2 7922   2.466   3.189   2.107
 2639TIP3    H1 7923   2.387   3.194   2.161
 2639TIP3    H2 7924   2.435   3.196   2.017
 2640TIP3   OH2 7925   5.279   4.972   2.713
 2640TIP3    H1 7926   5.187   4.950   2.729
 2640TIP3    H2 7927   5.326   4.890   2.728
 2641TIP3   OH2 7928   2.525   0.850   1.684
 2641TIP3    H1 7929   2.517   0.944   1.700
 2641TIP3    H2 7930   2.465   0.810   1.748
 2642TIP3   OH2 7931   4.457   1.106   1.312
 2642TIP3    H1 7932   4.383   1.079   1.366
 2642TIP3    H2 7933   4.516   1.030   1.312
 2643TIP3   OH2 7934   2.747   1.735   4.901
 2643TIP3    H1 7935   2.742   1.830   4.907
 2643TIP3    H2 7936   2.839   1.717   4.882
 2644TIP3   OH2 7937   6.148   3.377   0.288
 2644TIP3    H1 7938   6.152   3.440   0.216
 2644TIP3    H2 7939   6.062   3.392   0.328
 2645TIP3   OH2 7940   5.263   1.991   3.045
 2645TIP3    H1 7941   5.321   2.065   3.058
 2645TIP3    H2 7942   5.321   1.915   3.044
 2646TIP3   OH2 7943   4.674   2.605   4.923
 2646TIP3    H1 7944   4.750   2.549   4.903
 2646TIP3    H2 7945   4.692   2.638   5.011
 2647TIP3   OH2 7946   4.179   0.121   2.164
 2647TIP3    H1 7947   4.085   0.102   2.175
 2647TIP3    H2 7948   4.204   0.161   2.247
 2648TIP3   OH2 7949   6.312   3.155   0.308
 2648TIP3    H1 7950   6.341   3.135   0.219
 2648TIP3    H2 7951   6.248   3.226   0.296
 2649TIP3   OH2 7952   3.146   3.663   0.492
 2649TIP3    H1 7953   3.088   3.698   0.424
 2649TIP3    H2 7954   3.223   3.720   0.490
 2650TIP3   OH2 7955   0.470   5.166   2.260
 2650TIP3    H1 7956   0.514   5.211   2.188
 2650TIP3    H2 7957   0.429   5.236   2.311
 2651TIP3   OH2 7958   3.766   1.974   1.001
 2651TIP3    H1 7959   3.699   1.984   1.068
 2651TIP3    H2 7960   3.768   1.880   0.983
 2652TIP3   OH2 7961   5.863   3.155   0.813
 2652TIP3    H1 7962   5.853   3.090   0.744
 2652TIP3    H2 7963   5.780   3.203   0.814
 2653TIP3   OH2 7964   6.239   1.308   2.962
 2653TIP3    H1 7965   6.318   1.360   2.977
 2653TIP3    H2 7966   6.202   1.342   2.881
 2654TIP3   OH2 7967   3.481   5.392   1.297
 2654TIP3    H1 7968   3.496   5.303   1.264
 2654TIP3    H2 7969   3.540   5.447   1.244
 2655TIP3   OH2 7970   0.061   5.473   4.073
 2655TIP3    H1 7971   0.049   5.391   4.120
 2655TIP3    H2 7972   0.008   5.464   3.994
 2656TIP3   OH2 7973   0.182   2.225   2.032
 2656TIP3    H1 7974   0.277   2.229   2.031
 2656TIP3    H2 7975   0.157   2.260   2.118
 2657TIP3   OH2 7976   4.863   3.658   2.171
 2657TIP3    H1 7977   4.847   3.641   2.263
 2657TIP3    H2 7978   4.777   3.683   2.135
 2658TIP3   OH2 7979   1.617   1.376   3.762
 2658TIP3    H1 7980   1.646   1.444   3.701
 2658TIP3    H2 7981   1.563   1.422   3.826
 2659TIP3   OH2 7982   0.176   1.135   4.034
 2659TIP3    H1 7983   0.083   1.157   4.027
 2659TIP3    H2 7984   0.220   1.219   4.045
 2660TIP3   OH2 7985   1.226   2.635   2.174
 2660TIP3    H1 7986   1.232   2.617   2.268
 2660TIP3    H2 7987   1.244   2.729   2.167
 2661TIP3   OH2 7988   5.402   3.171   4.983
 2661TIP3    H1 7989   5.369   3.197   4.898
 2661TIP3    H2 7990   5.430   3.252   5.025
 2662TIP3   OH2 7991   1.040   3.774   3.186
 2662TIP3    H1 7992   1.089   3.700   3.222
 2662TIP3    H2 7993   1.068   3.849   3.238
 2663TIP3   OH2 7994   0.615   2.813   3.505
 2663TIP3    H1 7995   0.705   2.780   3.503
 2663TIP3    H2 7996   0.622   2.903   3.474
 2664TIP3   OH2 7997   4.656   2.671   1.642
 2664TIP3    H1 7998   4.621   2.632   1.562
 2664TIP3    H2 7999   4.739   2.709   1.616
 2665TIP3   OH2 8000   5.492   5.489   0.213
 2665TIP3    H1 8001   5.406   5.532   0.218
 2665TIP3    H2 8002   5.500   5.443   0.297
 2666TIP3   OH2 8003   2.814   2.355   1.520
 2666TIP3    H1 8004   2.872   2.280   1.503
 2666TIP3    H2 8005   2.754   2.357   1.444
 2667TIP3   OH2 8006   5.602   0.923   3.080
 2667TIP3    H1 8007   5.514   0.895   3.104
 2667TIP3    H2 8008   5.620   0.877   2.998
 2668TIP3   OH2 8009   1.673   2.355   0.995
 2668TIP3    H1 8010   1.625   2.321   1.071
 2668TIP3    H2 8011   1.609   2.406   0.947
 2669TIP3   OH2 8012   0.595   0.338   4.446
 2669TIP3    H1 8013   0.525   0.273   4.448
 2669TIP3    H2 8014   0.643   0.319   4.365
 2670TIP3   OH2 8015   0.300   0.845   2.049
 2670TIP3    H1 8016   0.282   0.931   2.010
 2670TIP3    H2 8017   0.214   0.812   2.076
 2671TIP3   OH2 8018   1.322   2.421   4.825
 2671TIP3    H1 8019   1.348   2.357   4.760
 2671TIP3    H2 8020   1.288   2.495   4.774
 2672TIP3   OH2 8021   6.142   4.158   4.962
 2672TIP3    H1 8022   6.185   4.151   4.877
 2672TIP3    H2 8023   6.198   4.111   5.022
 2673TIP3   OH2 8024   3.898   0.450   0.125
 2673TIP3    H1 8025   3.857   0.366   0.104
 2673TIP3    H2 8026   3.893   0.501   0.044
 2674TIP3   OH2 8027   3.034   1.724   1.305
 2674TIP3    H1 8028   3.123   1.704   1.278
 2674TIP3    H2 8029   2.980   1.659   1.260
 2675TIP3   OH2 8030   5.939   3.150   3.942
 2675TIP3    H1 8031   5.871   3.171   4.007
 2675TIP3    H2 8032   5.892   3.150   3.858
 2676TIP3   OH2 8033   0.388   0.865   4.922
 2676TIP3    H1 8034   0.319   0.866   4.989
 2676TIP3    H2 8035   0.344   0.835   4.842
 2677TIP3   OH2 8036   3.203   1.053   4.863
 2677TIP3    H1 8037   3.263   0.980   4.877
 2677TIP3    H2 8038   3.123   1.012   4.830
 2678TIP3   OH2 8039   1.204   0.844   3.680
 2678TIP3    H1 8040   1.224   0.816   3.590
 2678TIP3    H2 8041   1.276   0.809   3.732
 2679TIP3   OH2 8042   2.806   4.909   3.955
 2679TIP3    H1 8043   2.727   4.953   3.986
 2679TIP3    H2 8044   2.785   4.815   3.960
 2680TIP3   OH2 8045   0.129   2.989   5.098
 2680TIP3    H1 8046   0.131   2.947   5.185
 2680TIP3    H2 8047   0.199   3.054   5.102
 2681TIP3   OH2 8048   4.928   4.280   3.392
 2681TIP3    H1 8049   4.957   4.320   3.310
 2681TIP3    H2 8050   4.966   4.335   3.460
 2682TIP3   OH2 8051   6.134   1.716   3.755
 2682TIP3    H1 8052   6.069   1.667   3.805
 2682TIP3    H2 8053   6.216   1.700   3.801
 2683TIP3   OH2 8054   1.332   1.669   5.153
 2683TIP3    H1 8055   1.426   1.688   5.160
 2683TIP3    H2 8056   1.301   1.729   5.085
 2684TIP3   OH2 8057   3.820   5.847   4.965
 2684TIP3    H1 8058   3.780   5.794   5.034
 2684TIP3    H2 8059   3.745   5.881   4.916
 2685TIP3   OH2 8060   4.904   5.682   4.993
 2685TIP3    H1 8061   4.842   5.632   5.046
 2685TIP3    H2 8062   4.856   5.704   4.914
 2686TIP3   OH2 8063   2.073   1.038   0.971
 2686TIP3    H1 8064   2.043   1.050   1.061
 2686TIP3    H2 8065   1.994   1.014   0.922
 2687TIP3   OH2 8066   0.678   4.664   2.078
 2687TIP3    H1 8067   0.678   4.760   2.078
 2687TIP3    H2 8068   0.698   4.640   2.169
 2688TIP3   OH2 8069   2.404   5.879   1.724
 2688TIP3    H1 8070   2.398   5.974   1.731
 2688TIP3    H2 8071   2.486   5.864   1.677
 2689TIP3   OH2 8072   6.253   3.725   0.572
 2689TIP3    H1 8073   6.295   3.807   0.597
 2689TIP3    H2 8074   6.208   3.746   0.490
 2690TIP3   OH2 8075   3.193   3.370   5.022
 2690TIP3    H1 8076   3.182   3.339   5.112
 2690TIP3    H2 8077   3.112   3.345   4.978
 2691TIP3   OH2 8078   0.928   4.600   1.999
 2691TIP3    H1 8079   0.839   4.628   2.019
 2691TIP3    H2 8080   0.983   4.653   2.057
 2692TIP3   OH2 8081   5.770   0.648   0.521
 2692TIP3    H1 8082   5.790   0.554   0.517
 2692TIP3    H2 8083   5.683   0.656   0.483
 2693TIP3   OH2 8084   2.252   0.955   2.978
 2693TIP3    H1 8085   2.187   0.998   2.922
 2693TIP3    H2 8086   2.332   0.954   2.925
 2694TIP3   OH2 8087   4.931   5.743   0.528
 2694TIP3    H1 8088   4.845   5.737   0.569
 2694TIP3    H2 8089   4.992   5.706   0.592
 2695TIP3   OH2 8090   3.589   3.426   4.674
 2695TIP3    H1 8091   3.588   3.331   4.670
 2695TIP3    H2 8092   3.570   3.455   4.585
 2696TIP3   OH2 8093   5.405   2.284   5.189
 2696TIP3    H1 8094   5.341   2.245   5.249
 2696TIP3    H2 8095   5.371   2.266   5.102
 2697TIP3   OH2 8096   5.388   5.706   2.831
 2697TIP3    H1 8097   5.350   5.790   2.859
 2697TIP3    H2 8098   5.450   5.730   2.762
 2698TIP3   OH2 8099   6.230   4.459   4.708
 2698TIP3    H1 8100   6.155   4.504   4.669
 2698TIP3    H2 8101   6.289   4.443   4.634
 2699TIP3   OH2 8102   1.959   5.563   3.703
 2699TIP3    H1 8103   1.903   5.486   3.715
 2699TIP3    H2 8104   2.030   5.532   3.647
 2700TIP3   OH2 8105   2.558   3.316   2.612
 2700TIP3    H1 8106   2.649   3.346   2.622
 2700TIP3    H2 8107   2.544   3.315   2.517
 2701TIP3   OH2 8108   0.606   1.519   3.252
 2701TIP3    H1 8109   0.621   1.438   3.300
 2701TIP3    H2 8110   0.551   1.493   3.178
 2702TIP3   OH2 8111   1.666   3.950   1.502
 2702TIP3    H1 8112   1.583   3.902   1.496
 2702TIP3    H2 8113   1.691   3.966   1.412
 2703TIP3   OH2 8114   5.051   1.091   2.227
 2703TIP3    H1 8115   5.097   1.162   2.182
 2703TIP3    H2 8116   5.114   1.058   2.291
 2704TIP3   OH2 8117   4.095   0.503   1.342
 2704TIP3    H1 8118   4.080   0.590   1.308
 2704TIP3    H2 8119   4.103   0.447   1.265
 2705TIP3   OH2 8120   1.837   4.762   3.388
 2705TIP3    H1 8121   1.789   4.816   3.325
 2705TIP3    H2 8122   1.885   4.699   3.334
 2706TIP3   OH2 8123   5.045   4.811   4.920
 2706TIP3    H1 8124   4.952   4.798   4.905
 2706TIP3    H2 8125   5.063   4.764   5.001
 2707TIP3   OH2 8126   1.366   4.807   0.576
 2707TIP3    H1 8127   1.387   4.764   0.659
 2707TIP3    H2 8128   1.278   4.775   0.554
 2708TIP3   OH2 8129   2.762   4.084   2.963
 2708TIP3    H1 8130   2.799   4.014   2.908
 2708TIP3    H2 8131   2.685   4.043   3.004
 2709TIP3   OH2 8132   3.764   1.294   3.465
 2709TIP3    H1 8133   3.716   1.212   3.455
 2709TIP3    H2 8134   3.793   1.294   3.556
 2710TIP3   OH2 8135   6.119   3.542   3.158
 2710TIP3    H1 8136   6.116   3.554   3.253
 2710TIP3    H2 8137   6.180   3.608   3.128
 2711TIP3   OH2 8138   2.450   5.112   4.493
 2711TIP3    H1 8139   2.378   5.124   4.431
 2711TIP3    H2 8140   2.506   5.047   4.451
 2712TIP3   OH2 8141   0.670   0.785   0.570
 2712TIP3    H1 8142   0.705   0.814   0.485
 2712TIP3    H2 8143   0.665   0.865   0.622
 2713TIP3   OH2 8144   1.602   0.142   5.091
 2713TIP3    H1 8145   1.628   0.189   5.170
 2713TIP3    H2 8146   1.566   0.059   5.123
 2714TIP3   OH2 8147   1.065   4.263   2.360
 2714TIP3    H1 8148   1.018   4.307   2.290
 2714TIP3    H2 8149   1.009   4.272   2.437
 2715TIP3   OH2 8150   5.822   2.943   2.219
 2715TIP3    H1 8151   5.833   2.873   2.284
 2715TIP3    H2 8152   5.743   2.989   2.247
 2716TIP3   OH2 8153   4.323   4.155   3.074
 2716TIP3    H1 8154   4.358   4.204   3.149
 2716TIP3    H2 8155   4.268   4.087   3.113
 2717TIP3   OH2 8156   0.014   2.565   0.016
 2717TIP3    H1 8157   0.018   2.538  -0.075
 2717TIP3    H2 8158   0.073   2.505   0.062
 2718TIP3   OH2 8159   6.139   2.642   0.948
 2718TIP3    H1 8160   6.098   2.580   1.008
 2718TIP3    H2 8161   6.216   2.673   0.996
 2719TIP3   OH2 8162   5.549   1.389   2.587
 2719TIP3    H1 8163   5.466   1.342   2.592
 2719TIP3    H2 8164   5.559   1.410   2.494
 2720TIP3   OH2 8165   5.473   1.937   5.021
 2720TIP3    H1 8166   5.426   1.854   5.024
 2720TIP3    H2 8167   5.502   1.952   5.111
 2721TIP3   OH2 8168   3.553   1.014   2.066
 2721TIP3    H1 8169   3.638   0.987   2.101
 2721TIP3    H2 8170   3.539   0.957   1.990
 2722TIP3   OH2 8171   4.254   1.948   4.310
 2722TIP3    H1 8172   4.217   2.024   4.355
 2722TIP3    H2 8173   4.314   1.985   4.245
 2723TIP3   OH2 8174   0.942   3.493   0.625
 2723TIP3    H1 8175   1.023   3.471   0.580
 2723TIP3    H2 8176   0.965   3.494   0.718
 2724TIP3   OH2 8177   5.519   2.736   4.426
 2724TIP3    H1 8178   5.545   2.785   4.348
 2724TIP3    H2 8179   5.425   2.752   4.434
 2725TIP3   OH2 8180   5.819   4.583   2.931
 2725TIP3    H1 8181   5.867   4.661   2.901
 2725TIP3    H2 8182   5.769   4.613   3.007
 2726TIP3   OH2 8183   2.989   2.029   2.492
 2726TIP3    H1 8184   2.933   2.098   2.528
 2726TIP3    H2 8185   2.969   1.952   2.545
 2727TIP3   OH2 8186   4.329   1.709   1.483
 2727TIP3    H1 8187   4.320   1.650   1.407
 2727TIP3    H2 8188   4.421   1.699   1.510
 2728TIP3   OH2 8189   3.823   5.132   1.316
 2728TIP3    H1 8190   3.752   5.144   1.253
 2728TIP3    H2 8191   3.820   5.210   1.372
 2729TIP3   OH2 8192   4.291   4.092   3.894
 2729TIP3    H1 8193   4.282   4.073   3.800
 2729TIP3    H2 8194   4.212   4.056   3.933
 2730TIP3   OH2 8195   5.414   0.754   3.829
 2730TIP3    H1 8196   5.422   0.708   3.745
 2730TIP3    H2 8197   5.425   0.685   3.895
 2731TIP3   OH2 8198   5.928   3.825   1.194
 2731TIP3    H1 8199   5.876   3.776   1.131
 2731TIP3    H2 8200   6.007   3.772   1.207
 2732TIP3   OH2 8201   3.099   2.276   4.920
 2732TIP3    H1 8202   3.031   2.238   4.864
 2732TIP3    H2 8203   3.077   2.246   5.008
 2733TIP3   OH2 8204   5.320   1.226   2.577
 2733TIP3    H1 8205   5.368   1.160   2.528
 2733TIP3    H2 8206   5.233   1.188   2.591
 2734TIP3   OH2 8207   5.722   1.924   4.694
 2734TIP3    H1 8208   5.767   2.001   4.726
 2734TIP3    H2 8209   5.762   1.907   4.608
 2735TIP3   OH2 8210   5.312   2.100   2.388
 2735TIP3    H1 8211   5.253   2.056   2.326
 2735TIP3    H2 8212   5.320   2.039   2.461
 2736TIP3   OH2 8213   3.817   2.935   4.532
 2736TIP3    H1 8214   3.790   2.932   4.440
 2736TIP3    H2 8215   3.884   2.867   4.539
 2737TIP3   OH2 8216   3.514   4.724   0.554
 2737TIP3    H1 8217   3.470   4.690   0.631
 2737TIP3    H2 8218   3.447   4.773   0.507
 2738TIP3   OH2 8219   6.248   2.514   1.621
 2738TIP3    H1 8220   6.309   2.464   1.565
 2738TIP3    H2 8221   6.262   2.480   1.709
 2739TIP3   OH2 8222   3.110   3.932   0.362
 2739TIP3    H1 8223   3.090   4.020   0.330
 2739TIP3    H2 8224   3.025   3.888   0.364
 2740TIP3   OH2 8225   0.347   0.189   3.032
 2740TIP3    H1 8226   0.391   0.270   3.007
 2740TIP3    H2 8227   0.409   0.143   3.087
 2741TIP3   OH2 8228   0.381   0.429   4.763
 2741TIP3    H1 8229   0.336   0.471   4.690
 2741TIP3    H2 8230   0.410   0.345   4.728
 2742TIP3   OH2 8231   4.440  -0.003   4.773
 2742TIP3    H1 8232   4.506   0.048   4.820
 2742TIP3    H2 8233   4.358   0.044   4.789
 2743TIP3   OH2 8234   1.970   0.653   4.803
 2743TIP3    H1 8235   1.889   0.703   4.814
 2743TIP3    H2 8236   1.964   0.618   4.713
 2744TIP3   OH2 8237   5.434   3.340   0.233
 2744TIP3    H1 8238   5.440   3.244   0.229
 2744TIP3    H2 8239   5.340   3.357   0.229
 2745TIP3   OH2 8240   0.117   3.684   4.972
 2745TIP3    H1 8241   0.087   3.593   4.966
 2745TIP3    H2 8242   0.208   3.681   4.943
 2746TIP3   OH2 8243   1.814   4.743   4.090
 2746TIP3    H1 8244   1.868   4.672   4.057
 2746TIP3    H2 8245   1.850   4.764   4.177
 2747TIP3   OH2 8246   3.990   2.892   1.578
 2747TIP3    H1 8247   3.923   2.833   1.543
 2747TIP3    H2 8248   3.953   2.979   1.570
 2748TIP3   OH2 8249   3.137   4.634   3.493
 2748TIP3    H1 8250   3.131   4.550   3.447
 2748TIP3    H2 8251   3.212   4.679   3.452
 2749TIP3   OH2 8252   4.838   5.528   4.313
 2749TIP3    H1 8253   4.796   5.513   4.228
 2749TIP3    H2 8254   4.878   5.444   4.335
 2750TIP3   OH2 8255   5.106   4.372   0.356
 2750TIP3    H1 8256   5.166   4.368   0.282
 2750TIP3    H2 8257   5.070   4.284   0.362
 2751TIP3   OH2 8258   6.063   4.681   0.816
 2751TIP3    H1 8259   6.019   4.763   0.833
 2751TIP3    H2 8260   6.122   4.699   0.743
 2752TIP3   OH2 8261   1.563   0.116   0.517
 2752TIP3    H1 8262   1.568   0.027   0.481
 2752TIP3    H2 8263   1.653   0.148   0.514
 2753TIP3   OH2 8264   1.566   3.122   2.881
 2753TIP3    H1 8265   1.556   3.030   2.903
 2753TIP3    H2 8266   1.638   3.152   2.938
 2754TIP3   OH2 8267   0.843   3.214   5.072
 2754TIP3    H1 8268   0.873   3.303   5.055
 2754TIP3    H2 8269   0.839   3.208   5.168
 2755TIP3   OH2 8270   1.276   1.356   0.851
 2755TIP3    H1 8271   1.193   1.387   0.886
 2755TIP3    H2 8272   1.342   1.396   0.908
 2756TIP3   OH2 8273   4.877   1.930   0.522
 2756TIP3    H1 8274   4.812   1.929   0.592
 2756TIP3    H2 8275   4.829   1.902   0.444
 2757TIP3   OH2 8276   0.385   5.358   1.865
 2757TIP3    H1 8277   0.337   5.292   1.817
 2757TIP3    H2 8278   0.321   5.428   1.881
 2758TIP3   OH2 8279   4.442   1.738   1.863
 2758TIP3    H1 8280   4.476   1.780   1.942
 2758TIP3    H2 8281   4.458   1.801   1.793
 2759TIP3   OH2 8282   0.237   2.475   0.855
 2759TIP3    H1 8283   0.172   2.514   0.796
 2759TIP3    H2 8284   0.288   2.416   0.798
 2760TIP3   OH2 8285   4.719   1.631   0.561
 2760TIP3    H1 8286   4.650   1.586   0.611
 2760TIP3    H2 8287   4.801   1.598   0.599
 2761TIP3   OH2 8288   5.712   4.298   3.722
 2761TIP3    H1 8289   5.698   4.342   3.806
 2761TIP3    H2 8290   5.625   4.274   3.693
 2762TIP3   OH2 8291   5.938   2.654   2.287
 2762TIP3    H1 8292   5.896   2.630   2.369
 2762TIP3    H2 8293   5.957   2.571   2.244
 2763TIP3   OH2 8294   1.675   1.085   3.785
 2763TIP3    H1 8295   1.638   1.173   3.784
 2763TIP3    H2 8296   1.735   1.083   3.710
 2764TIP3   OH2 8297   2.223   5.589   2.268
 2764TIP3    H1 8298   2.254   5.539   2.192
 2764TIP3    H2 8299   2.177   5.664   2.230
 2765TIP3   OH2 8300   4.534   0.529   0.608
 2765TIP3    H1 8301   4.612   0.538   0.553
 2765TIP3    H2 8302   4.523   0.614   0.650
 2766TIP3   OH2 8303   1.099   2.268   1.342
 2766TIP3    H1 8304   1.021   2.287   1.394
 2766TIP3    H2 8305   1.095   2.174   1.327
 2767TIP3   OH2 8306   2.617   5.901   0.802
 2767TIP3    H1 8307   2.551   5.863   0.744
 2767TIP3    H2 8308   2.663   5.965   0.747
 2768TIP3   OH2 8309   1.235   3.161   0.914
 2768TIP3    H1 8310   1.142   3.178   0.899
 2768TIP3    H2 8311   1.279   3.204   0.841
 2769TIP3   OH2 8312   0.053   1.770   2.722
 2769TIP3    H1 8313   0.071   1.731   2.807
 2769TIP3    H2 8314  -0.003   1.706   2.678
 2770TIP3   OH2 8315   1.083   4.508   4.981
 2770TIP3    H1 8316   1.001   4.512   4.932
 2770TIP3    H2 8317   1.062   4.457   5.060
 2771TIP3   OH2 8318   3.365   2.408   2.256
 2771TIP3    H1 8319   3.453   2.445   2.259
 2771TIP3    H2 8320   3.313   2.467   2.311
 2772TIP3   OH2 8321   5.540   0.366   1.126
 2772TIP3    H1 8322   5.491   0.345   1.206
 2772TIP3    H2 8323   5.473   0.377   1.059
 2773TIP3   OH2 8324   3.707   0.727   4.675
 2773TIP3    H1 8325   3.624   0.770   4.696
 2773TIP3    H2 8326   3.694   0.637   4.704
 2774TIP3   OH2 8327   5.223   2.359   0.644
 2774TIP3    H1 8328   5.261   2.287   0.593
 2774TIP3    H2 8329   5.252   2.438   0.599
 2775TIP3   OH2 8330   0.208   3.337   1.615
 2775TIP3    H1 8331   0.167   3.418   1.644
 2775TIP3    H2 8332   0.137   3.287   1.575
 2776TIP3   OH2 8333   2.950   0.518   4.726
 2776TIP3    H1 8334   2.980   0.440   4.681
 2776TIP3    H2 8335   2.941   0.584   4.657
 2777TIP3   OH2 8336   4.758   2.250   0.638
 2777TIP3    H1 8337   4.731   2.230   0.727
 2777TIP3    H2 8338   4.739   2.344   0.628
 2778TIP3   OH2 8339   0.014   1.419   4.866
 2778TIP3    H1 8340   0.061   1.340   4.840
 2778TIP3    H2 8341   0.083   1.481   4.890
 2779TIP3   OH2 8342   0.722   4.984   0.197
 2779TIP3    H1 8343   0.748   4.918   0.133
 2779TIP3    H2 8344   0.702   5.062   0.145
 2780TIP3   OH2 8345   6.128   4.439   3.406
 2780TIP3    H1 8346   6.151   4.348   3.420
 2780TIP3    H2 8347   6.212   4.484   3.400
 2781TIP3   OH2 8348   3.945   1.800   1.228
 2781TIP3    H1 8349   3.947   1.817   1.322
 2781TIP3    H2 8350   3.981   1.879   1.188
 2782TIP3   OH2 8351   1.784   3.126   3.838
 2782TIP3    H1 8352   1.765   3.087   3.753
 2782TIP3    H2 8353   1.701   3.120   3.886
 2783TIP3   OH2 8354   4.232   1.570   3.750
 2783TIP3    H1 8355   4.244   1.504   3.682
 2783TIP3    H2 8356   4.290   1.642   3.724
 2784TIP3   OH2 8357   3.120   3.713   0.163
 2784TIP3    H1 8358   3.051   3.698   0.099
 2784TIP3    H2 8359   3.119   3.808   0.178
 2785TIP3   OH2 8360   2.041   5.851   3.631
 2785TIP3    H1 8361   2.131   5.855   3.598
 2785TIP3    H2 8362   2.024   5.758   3.645
 2786TIP3   OH2 8363   4.753   4.268   2.398
 2786TIP3    H1 8364   4.682   4.268   2.333
 2786TIP3    H2 8365   4.803   4.189   2.378
 2787TIP3   OH2 8366   6.326   5.149   1.178
 2787TIP3    H1 8367   6.288   5.232   1.207
 2787TIP3    H2 8368   6.403   5.137   1.233
 2788TIP3   OH2 8369   5.888   4.570   4.583
 2788TIP3    H1 8370   5.944   4.634   4.539
 2788TIP3    H2 8371   5.911   4.576   4.675
 2789TIP3   OH2 8372   6.339   2.741   1.485
 2789TIP3    H1 8373   6.298   2.673   1.539
 2789TIP3    H2 8374   6.329   2.710   1.395
 2790TIP3   OH2 8375   2.975   1.141   2.653
 2790TIP3    H1 8376   3.053   1.121   2.601
 2790TIP3    H2 8377   2.979   1.080   2.727
 2791TIP3   OH2 8378   4.382   4.473   0.898
 2791TIP3    H1 8379   4.426   4.526   0.965
 2791TIP3    H2 8380   4.289   4.493   0.909
 2792TIP3   OH2 8381   3.736   1.054   3.156
 2792TIP3    H1 8382   3.757   1.146   3.138
 2792TIP3    H2 8383   3.704   1.053   3.246
 2793TIP3   OH2 8384   3.008   4.178   3.061
 2793TIP3    H1 8385   3.004   4.272   3.039
 2793TIP3    H2 8386   2.921   4.145   3.038
 2794TIP3   OH2 8387   4.283   5.177   5.040
 2794TIP3    H1 8388   4.197   5.216   5.054
 2794TIP3    H2 8389   4.329   5.240   4.983
 2795TIP3   OH2 8390   0.666   1.416   3.868
 2795TIP3    H1 8391   0.596   1.475   3.841
 2795TIP3    H2 8392   0.736   1.432   3.805
 2796TIP3   OH2 8393   0.871   4.688   3.861
 2796TIP3    H1 8394   0.818   4.652   3.791
 2796TIP3    H2 8395   0.961   4.670   3.836
 2797TIP3   OH2 8396   3.659   0.966   1.005
 2797TIP3    H1 8397   3.711   0.886   1.003
 2797TIP3    H2 8398   3.588   0.948   1.066
 2798TIP3   OH2 8399   1.222   5.595   3.810
 2798TIP3    H1 8400   1.303   5.601   3.758
 2798TIP3    H2 8401   1.243   5.640   3.892
 2799TIP3   OH2 8402   2.707   2.828   1.914
 2799TIP3    H1 8403   2.732   2.920   1.909
 2799TIP3    H2 8404   2.772   2.782   1.860
 2800TIP3   OH2 8405   5.541   0.395   4.408
 2800TIP3    H1 8406   5.612   0.375   4.468
 2800TIP3    H2 8407   5.461   0.391   4.461
 2801TIP3   OH2 8408   3.979   1.835   2.453
 2801TIP3    H1 8409   3.928   1.914   2.471
 2801TIP3    H2 8410   3.963   1.818   2.360
 2802TIP3   OH2 8411   3.452   3.574   4.894
 2802TIP3    H1 8412   3.438   3.659   4.852
 2802TIP3    H2 8413   3.482   3.517   4.824
 2803TIP3   OH2 8414   5.075   0.975   3.236
 2803TIP3    H1 8415   4.992   0.975   3.189
 2803TIP3    H2 8416   5.067   1.044   3.301
 2804TIP3   OH2 8417   4.010   3.158   4.091
 2804TIP3    H1 8418   3.967   3.074   4.077
 2804TIP3    H2 8419   4.103   3.140   4.077
 2805TIP3   OH2 8420   3.798   3.909   0.462
 2805TIP3    H1 8421   3.847   3.846   0.516
 2805TIP3    H2 8422   3.858   3.981   0.449
 2806TIP3   OH2 8423   1.326   1.159   4.693
 2806TIP3    H1 8424   1.343   1.066   4.678
 2806TIP3    H2 8425   1.412   1.196   4.712
 2807TIP3   OH2 8426   0.455   4.071   2.555
 2807TIP3    H1 8427   0.385   4.113   2.505
 2807TIP3    H2 8428   0.430   4.085   2.647
 2808TIP3   OH2 8429   1.605   1.881   4.789
 2808TIP3    H1 8430   1.612   1.800   4.738
 2808TIP3    H2 8431   1.648   1.947   4.735
 2809TIP3   OH2 8432   0.643   4.189   2.744
 2809TIP3    H1 8433   0.726   4.150   2.718
 2809TIP3    H2 8434   0.583   4.171   2.672
 2810TIP3   OH2 8435   0.829   2.302   3.361
 2810TIP3    H1 8436   0.734   2.294   3.350
 2810TIP3    H2 8437   0.840   2.371   3.426
 2811TIP3   OH2 8438   5.996   5.926   3.763
 2811TIP3    H1 8439   6.074   5.941   3.711
 2811TIP3    H2 8440   6.029   5.907   3.851
 2812TIP3   OH2 8441   5.246   0.865   2.340
 2812TIP3    H1 8442   5.251   0.794   2.276
 2812TIP3    H2 8443   5.302   0.838   2.412
 2813TIP3   OH2 8444   1.335   1.993   4.806
 2813TIP3    H1 8445   1.428   1.983   4.822
 2813TIP3    H2 8446   1.295   1.913   4.840
 2814TIP3   OH2 8447   0.170   5.255   2.620
 2814TIP3    H1 8448   0.105   5.303   2.569
 2814TIP3    H2 8449   0.182   5.308   2.699
 2815TIP3   OH2 8450   5.140   1.731   0.962
 2815TIP3    H1 8451   5.068   1.735   0.899
 2815TIP3    H2 8452   5.131   1.644   1.003
 2816TIP3   OH2 8453   3.488   3.977   2.994
 2816TIP3    H1 8454   3.400   4.010   3.015
 2816TIP3    H2 8455   3.483   3.952   2.902
 2817TIP3   OH2 8456   4.622   3.844   3.266
 2817TIP3    H1 8457   4.585   3.827   3.353
 2817TIP3    H2 8458   4.551   3.822   3.205
 2818TIP3   OH2 8459   1.018   4.844   0.151
 2818TIP3    H1 8460   1.012   4.920   0.094
 2818TIP3    H2 8461   0.935   4.797   0.138
 2819TIP3   OH2 8462   2.019   0.253   0.647
 2819TIP3    H1 8463   2.058   0.223   0.729
 2819TIP3    H2 8464   2.094   0.281   0.594
 2820TIP3   OH2 8465   3.278   5.040   1.812
 2820TIP3    H1 8466   3.271   5.111   1.747
 2820TIP3    H2 8467   3.198   5.048   1.864
 2821TIP3   OH2 8468   4.672   1.699   5.098
 2821TIP3    H1 8469   4.670   1.674   5.191
 2821TIP3    H2 8470   4.760   1.673   5.069
 2822TIP3   OH2 8471   0.601   5.083   2.832
 2822TIP3    H1 8472   0.590   5.159   2.889
 2822TIP3    H2 8473   0.695   5.070   2.826
 2823TIP3   OH2 8474   2.767   0.122   0.933
 2823TIP3    H1 8475   2.813   0.109   1.016
 2823TIP3    H2 8476   2.820   0.075   0.868
 2824TIP3   OH2 8477   5.554   2.415   2.843
 2824TIP3    H1 8478   5.622   2.470   2.803
 2824TIP3    H2 8479   5.486   2.409   2.775
 2825TIP3   OH2 8480   0.114   0.259   4.783
 2825TIP3    H1 8481   0.020   0.266   4.799
 2825TIP3    H2 8482   0.143   0.350   4.779
 2826TIP3   OH2 8483   2.003   2.478   3.539
 2826TIP3    H1 8484   2.015   2.384   3.551
 2826TIP3    H2 8485   1.909   2.491   3.554
 2827TIP3   OH2 8486   3.496   0.740   0.280
 2827TIP3    H1 8487   3.501   0.747   0.375
 2827TIP3    H2 8488   3.544   0.816   0.247
 2828TIP3   OH2 8489   4.397   2.438   3.212
 2828TIP3    H1 8490   4.419   2.405   3.125
 2828TIP3    H2 8491   4.302   2.435   3.216
 2829TIP3   OH2 8492   4.914   5.205   1.234
 2829TIP3    H1 8493   4.910   5.300   1.243
 2829TIP3    H2 8494   4.997   5.179   1.273
 2830TIP3   OH2 8495   4.961   4.832   2.118
 2830TIP3    H1 8496   4.974   4.902   2.055
 2830TIP3    H2 8497   4.974   4.752   2.068
 2831TIP3   OH2 8498   5.902   3.698   1.450
 2831TIP3    H1 8499   5.875   3.745   1.370
 2831TIP3    H2 8500   5.886   3.761   1.521
 2832TIP3   OH2 8501   2.669   2.790   1.137
 2832TIP3    H1 8502   2.604   2.723   1.115
 2832TIP3    H2 8503   2.747   2.766   1.086
 2833TIP3   OH2 8504   1.764   1.413   0.792
 2833TIP3    H1 8505   1.760   1.458   0.877
 2833TIP3    H2 8506   1.675   1.421   0.757
 2834TIP3   OH2 8507   3.529   2.722   0.716
 2834TIP3    H1 8508   3.623   2.704   0.705
 2834TIP3    H2 8509   3.512   2.702   0.808
 2835TIP3   OH2 8510   0.157   3.490   2.048
 2835TIP3    H1 8511   0.070   3.526   2.065
 2835TIP3    H2 8512   0.140   3.408   2.002
 2836TIP3   OH2 8513   1.227   0.146   4.223
 2836TIP3    H1 8514   1.266   0.169   4.308
 2836TIP3    H2 8515   1.138   0.118   4.245
 2837TIP3   OH2 8516   4.886   3.286   3.216
 2837TIP3    H1 8517   4.963   3.305   3.270
 2837TIP3    H2 8518   4.815   3.277   3.280
 2838TIP3   OH2 8519   5.165   5.862   3.811
 2838TIP3    H1 8520   5.160   5.889   3.720
 2838TIP3    H2 8521   5.168   5.767   3.809
 2839TIP3   OH2 8522   3.944   5.767   2.085
 2839TIP3    H1 8523   4.005   5.799   2.018
 2839TIP3    H2 8524   3.971   5.677   2.101
 2840TIP3   OH2 8525   5.090   3.065   4.044
 2840TIP3    H1 8526   5.141   3.130   3.996
 2840TIP3    H2 8527   5.047   3.013   3.977
 2841TIP3   OH2 8528   0.965   2.878   0.159
 2841TIP3    H1 8529   0.954   2.973   0.170
 2841TIP3    H2 8530   1.059   2.867   0.144
 2842TIP3   OH2 8531   3.791   4.499   3.028
 2842TIP3    H1 8532   3.848   4.488   3.104
 2842TIP3    H2 8533   3.843   4.469   2.954
 2843TIP3   OH2 8534   4.880   4.196   4.904
 2843TIP3    H1 8535   4.867   4.102   4.912
 2843TIP3    H2 8536   4.832   4.234   4.978
 2844TIP3   OH2 8537   1.666   0.349   2.976
 2844TIP3    H1 8538   1.653   0.398   2.895
 2844TIP3    H2 8539   1.668   0.416   3.044
 2845TIP3   OH2 8540   4.679   0.951   1.486
 2845TIP3    H1 8541   4.673   1.021   1.551
 2845TIP3    H2 8542   4.764   0.910   1.503
 2846TIP3   OH2 8543   5.705   0.372   3.108
 2846TIP3    H1 8544   5.779   0.427   3.081
 2846TIP3    H2 8545   5.684   0.321   3.030
 2847TIP3   OH2 8546   2.713   2.967   3.715
 2847TIP3    H1 8547   2.637   3.008   3.755
 2847TIP3    H2 8548   2.781   3.035   3.715
 2848TIP3   OH2 8549   4.105   1.251   2.948
 2848TIP3    H1 8550   4.172   1.185   2.969
 2848TIP3    H2 8551   4.037   1.202   2.901
 2849TIP3   OH2 8552   0.614   0.401   1.803
 2849TIP3    H1 8553   0.670   0.410   1.880
 2849TIP3    H2 8554   0.554   0.475   1.808
 2850TIP3   OH2 8555   4.004   2.577   3.081
 2850TIP3    H1 8556   3.989   2.551   2.990
 2850TIP3    H2 8557   4.009   2.494   3.129
 2851TIP3   OH2 8558   6.153   0.699   4.264
 2851TIP3    H1 8559   6.226   0.681   4.205
 2851TIP3    H2 8560   6.080   0.723   4.207
 2852TIP3   OH2 8561   0.624   2.293   2.666
 2852TIP3    H1 8562   0.672   2.304   2.584
 2852TIP3    H2 8563   0.601   2.200   2.668
 2853TIP3   OH2 8564   1.744   0.429   0.329
 2853TIP3    H1 8565   1.711   0.502   0.276
 2853TIP3    H2 8566   1.735   0.459   0.419
 2854TIP3   OH2 8567   1.895   5.362   4.917
 2854TIP3    H1 8568   1.970   5.417   4.897
 2854TIP3    H2 8569   1.896   5.352   5.012
 2855TIP3   OH2 8570   5.657   1.546   3.073
 2855TIP3    H1 8571   5.707   1.624   3.047
 2855TIP3    H2 8572   5.696   1.520   3.157
 2856TIP3   OH2 8573   1.605   3.669   0.260
 2856TIP3    H1 8574   1.678   3.729   0.243
 2856TIP3    H2 8575   1.534   3.726   0.288
 2857TIP3   OH2 8576   4.389   0.516   1.785
 2857TIP3    H1 8577   4.355   0.447   1.728
 2857TIP3    H2 8578   4.357   0.597   1.746
 2858TIP3   OH2 8579   4.022   5.673   0.326
 2858TIP3    H1 8580   4.080   5.605   0.292
 2858TIP3    H2 8581   4.042   5.751   0.274
 2859TIP3   OH2 8582   0.809   5.230   3.597
 2859TIP3    H1 8583   0.827   5.323   3.586
 2859TIP3    H2 8584   0.728   5.215   3.547
 2860TIP3   OH2 8585   0.044   2.869   2.912
 2860TIP3    H1 8586   0.082   2.892   2.827
 2860TIP3    H2 8587   0.103   2.802   2.946
 2861TIP3   OH2 8588   3.703   3.971   1.219
 2861TIP3    H1 8589   3.727   3.974   1.311
 2861TIP3    H2 8590   3.744   3.891   1.186
 2862TIP3   OH2 8591   0.752   5.067   0.477
 2862TIP3    H1 8592   0.813   5.002   0.512
 2862TIP3    H2 8593   0.733   5.036   0.388
 2863TIP3   OH2 8594   3.085   2.882   0.408
 2863TIP3    H1 8595   3.010   2.922   0.363
 2863TIP3    H2 8596   3.046   2.837   0.483
 2864TIP3   OH2 8597   4.876   4.356   5.116
 2864TIP3    H1 8598   4.954   4.411   5.109
 2864TIP3    H2 8599   4.805   4.418   5.134
 2865TIP3   OH2 8600   3.525   3.782   3.699
 2865TIP3    H1 8601   3.528   3.797   3.604
 2865TIP3    H2 8602   3.470   3.853   3.733
 2866TIP3   OH2 8603   4.543   4.707   0.262
 2866TIP3    H1 8604   4.565   4.797   0.238
 2866TIP3    H2 8605   4.491   4.675   0.189
 2867TIP3   OH2 8606   2.157   4.861   0.548
 2867TIP3    H1 8607   2.151   4.906   0.464
 2867TIP3    H2 8608   2.132   4.770   0.528
 2868TIP3   OH2 8609   4.241   5.928   2.389
 2868TIP3    H1 8610   4.225   5.928   2.294
 2868TIP3    H2 8611   4.299   6.003   2.403
 2869TIP3   OH2 8612   1.562   1.842   0.127
 2869TIP3    H1 8613   1.472   1.810   0.141
 2869TIP3    H2 8614   1.559   1.884   0.042
 2870TIP3   OH2 8615   5.275   5.109   1.804
 2870TIP3    H1 8616   5.256   5.199   1.781
 2870TIP3    H2 8617   5.368   5.108   1.826
 2871TIP3   OH2 8618   0.223   3.886   5.157
 2871TIP3    H1 8619   0.220   3.814   5.094
 2871TIP3    H2 8620   0.175   3.853   5.233
 2872TIP3   OH2 8621   5.706   3.640   2.864
 2872TIP3    H1 8622   5.674   3.550   2.859
 2872TIP3    H2 8623   5.652   3.680   2.932
 2873TIP3   OH2 8624   1.610   4.531   3.975
 2873TIP3    H1 8625   1.674   4.575   3.918
 2873TIP3    H2 8626   1.662   4.468   4.024
 2874TIP3   OH2 8627   3.536   1.050   0.401
 2874TIP3    H1 8628   3.580   0.970   0.430
 2874TIP3    H2 8629   3.446   1.023   0.383
 2875TIP3   OH2 8630   1.180   3.255   3.211
 2875TIP3    H1 8631   1.263   3.254   3.259
 2875TIP3    H2 8632   1.195   3.199   3.135
 2876TIP3   OH2 8633   2.843   0.300   1.396
 2876TIP3    H1 8634   2.887   0.301   1.311
 2876TIP3    H2 8635   2.881   0.374   1.443
 2877TIP3   OH2 8636   2.458   5.950   0.106
 2877TIP3    H1 8637   2.447   5.865   0.148
 2877TIP3    H2 8638   2.552   5.968   0.111
 2878TIP3   OH2 8639   0.359   1.705   2.927
 2878TIP3    H1 8640   0.343   1.742   2.840
 2878TIP3    H2 8641   0.436   1.649   2.915
 2879TIP3   OH2 8642   0.761   2.020   0.693
 2879TIP3    H1 8643   0.769   2.056   0.605
 2879TIP3    H2 8644   0.819   1.944   0.694
 2880TIP3   OH2 8645   4.675   2.698   0.916
 2880TIP3    H1 8646   4.763   2.713   0.952
 2880TIP3    H2 8647   4.691   2.665   0.828
 2881TIP3   OH2 8648   1.693   1.648   3.709
 2881TIP3    H1 8649   1.638   1.723   3.732
 2881TIP3    H2 8650   1.768   1.685   3.664
 2882TIP3   OH2 8651   1.614   4.202   3.782
 2882TIP3    H1 8652   1.687   4.227   3.838
 2882TIP3    H2 8653   1.653   4.189   3.696
 2883TIP3   OH2 8654   3.854   3.575   3.067
 2883TIP3    H1 8655   3.890   3.489   3.048
 2883TIP3    H2 8656   3.793   3.592   2.995
 2884TIP3   OH2 8657   1.709   3.123   3.130
 2884TIP3    H1 8658   1.731   3.031   3.124
 2884TIP3    H2 8659   1.727   3.147   3.221
 2885TIP3   OH2 8660   3.514   2.395   0.411
 2885TIP3    H1 8661   3.571   2.333   0.458
 2885TIP3    H2 8662   3.569   2.472   0.396
 2886TIP3   OH2 8663   6.105   2.260   1.868
 2886TIP3    H1 8664   6.130   2.352   1.876
 2886TIP3    H2 8665   6.118   2.224   1.955
 2887TIP3   OH2 8666   1.217   2.858   1.221
 2887TIP3    H1 8667   1.132   2.900   1.206
 2887TIP3    H2 8668   1.251   2.898   1.300
 2888TIP3   OH2 8669   3.533   0.159   2.292
 2888TIP3    H1 8670   3.464   0.221   2.267
 2888TIP3    H2 8671   3.520   0.084   2.234
 2889TIP3   OH2 8672   5.627   2.956   4.966
 2889TIP3    H1 8673   5.639   2.944   5.060
 2889TIP3    H2 8674   5.541   2.998   4.958
 2890TIP3   OH2 8675   2.288   5.065   0.695
 2890TIP3    H1 8676   2.233   4.989   0.674
 2890TIP3    H2 8677   2.331   5.088   0.613
 2891TIP3   OH2 8678   4.893   1.353   3.214
 2891TIP3    H1 8679   4.966   1.319   3.266
 2891TIP3    H2 8680   4.899   1.448   3.224
 2892TIP3   OH2 8681   2.938   4.469   2.557
 2892TIP3    H1 8682   2.849   4.486   2.527
 2892TIP3    H2 8683   2.986   4.549   2.533
 2893TIP3   OH2 8684   3.476   4.599   1.640
 2893TIP3    H1 8685   3.461   4.688   1.610
 2893TIP3    H2 8686   3.389   4.560   1.645
 2894TIP3   OH2 8687   5.676   4.500   1.919
 2894TIP3    H1 8688   5.729   4.502   1.999
 2894TIP3    H2 8689   5.596   4.455   1.944
 2895TIP3   OH2 8690   4.587   5.419   2.870
 2895TIP3    H1 8691   4.621   5.361   2.801
 2895TIP3    H2 8692   4.536   5.485   2.823
 2896TIP3   OH2 8693   4.904   2.109   1.824
 2896TIP3    H1 8694   4.820   2.102   1.869
 2896TIP3    H2 8695   4.966   2.131   1.893
 2897TIP3   OH2 8696   3.376   0.511   3.031
 2897TIP3    H1 8697   3.468   0.524   3.009
 2897TIP3    H2 8698   3.329   0.527   2.950
 2898TIP3   OH2 8699   3.833   5.631   1.295
 2898TIP3    H1 8700   3.892   5.676   1.355
 2898TIP3    H2 8701   3.883   5.624   1.213
 2899TIP3   OH2 8702   5.887   2.814   0.434
 2899TIP3    H1 8703   5.858   2.857   0.514
 2899TIP3    H2 8704   5.972   2.854   0.415
 2900TIP3   OH2 8705   1.196   5.458   5.190
 2900TIP3    H1 8706   1.275   5.405   5.181
 2900TIP3    H2 8707   1.215   5.539   5.143
 2901TIP3   OH2 8708   2.891   4.753   1.259
 2901TIP3    H1 8709   2.869   4.740   1.167
 2901TIP3    H2 8710   2.916   4.845   1.266
 2902TIP3   OH2 8711   5.746   2.998   1.365
 2902TIP3    H1 8712   5.767   3.031   1.278
 2902TIP3    H2 8713   5.819   3.026   1.420
 2903TIP3   OH2 8714   5.252   6.018   3.506
 2903TIP3    H1 8715   5.340   5.982   3.498
 2903TIP3    H2 8716   5.194   5.942   3.495
 2904TIP3   OH2 8717   5.240   2.966   1.578
 2904TIP3    H1 8718   5.266   2.946   1.668
 2904TIP3    H2 8719   5.190   2.890   1.549
 2905TIP3   OH2 8720   1.687   3.819   3.010
 2905TIP3    H1 8721   1.591   3.819   3.005
 2905TIP3    H2 8722   1.713   3.731   2.983
 2906TIP3   OH2 8723   0.127   1.167   3.233
 2906TIP3    H1 8724   0.210   1.143   3.194
 2906TIP3    H2 8725   0.133   1.262   3.245
 2907TIP3   OH2 8726   4.984   3.162   2.471
 2907TIP3    H1 8727   4.948   3.150   2.383
 2907TIP3    H2 8728   4.907   3.166   2.528
 2908TIP3   OH2 8729   1.017   1.813   1.769
 2908TIP3    H1 8730   1.023   1.846   1.680
 2908TIP3    H2 8731   1.099   1.764   1.782
 2909TIP3   OH2 8732   3.074   0.617   1.735
 2909TIP3    H1 8733   3.047   0.573   1.654
 2909TIP3    H2 8734   3.036   0.704   1.728
 2910TIP3   OH2 8735   3.235   5.241   1.077
 2910TIP3    H1 8736   3.250   5.294   0.998
 2910TIP3    H2 8737   3.323   5.217   1.106
 2911TIP3   OH2 8738   5.190   3.658   1.026
 2911TIP3    H1 8739   5.123   3.716   1.063
 2911TIP3    H2 8740   5.271   3.708   1.034
 2912TIP3   OH2 8741   0.783   4.919   3.963
 2912TIP3    H1 8742   0.850   4.975   3.924
 2912TIP3    H2 8743   0.806   4.831   3.935
 2913TIP3   OH2 8744   5.300   2.221   0.381
 2913TIP3    H1 8745   5.318   2.133   0.350
 2913TIP3    H2 8746   5.225   2.250   0.330
 2914TIP3   OH2 8747   2.652   5.754   5.067
 2914TIP3    H1 8748   2.692   5.841   5.067
 2914TIP3    H2 8749   2.718   5.697   5.106
 2915TIP3   OH2 8750   5.840   5.678   2.624
 2915TIP3    H1 8751   5.897   5.601   2.625
 2915TIP3    H2 8752   5.900   5.752   2.637
 2916TIP3   OH2 8753   0.812   0.280   2.250
 2916TIP3    H1 8754   0.822   0.374   2.238
 2916TIP3    H2 8755   0.863   0.242   2.178
 2917TIP3   OH2 8756   2.071   4.179   2.449
 2917TIP3    H1 8757   2.138   4.235   2.490
 2917TIP3    H2 8758   2.057   4.108   2.512
 2918TIP3   OH2 8759   6.230   4.528   0.474
 2918TIP3    H1 8760   6.307   4.549   0.528
 2918TIP3    H2 8761   6.259   4.539   0.384
 2919TIP3   OH2 8762   4.482   2.954   4.125
 2919TIP3    H1 8763   4.471   2.859   4.128
 2919TIP3    H2 8764   4.545   2.969   4.055
 2920TIP3   OH2 8765   4.039   5.417   4.811
 2920TIP3    H1 8766   3.957   5.373   4.832
 2920TIP3    H2 8767   4.068   5.456   4.893
 2921TIP3   OH2 8768   5.113   0.002   4.532
 2921TIP3    H1 8769   5.068   0.003   4.447
 2921TIP3    H2 8770   5.087   0.083   4.574
 2922TIP3   OH2 8771   0.411   4.404   4.136
 2922TIP3    H1 8772   0.349   4.474   4.158
 2922TIP3    H2 8773   0.366   4.323   4.160
 2923TIP3   OH2 8774   1.917   3.985   2.974
 2923TIP3    H1 8775   1.841   3.929   2.986
 2923TIP3    H2 8776   1.906   4.022   2.886
 2924TIP3   OH2 8777   5.719   3.471   3.919
 2924TIP3    H1 8778   5.728   3.564   3.896
 2924TIP3    H2 8779   5.647   3.440   3.865
 2925TIP3   OH2 8780   2.978   3.478   4.699
 2925TIP3    H1 8781   3.067   3.512   4.704
 2925TIP3    H2 8782   2.952   3.466   4.791
 2926TIP3   OH2 8783   4.161  -0.011   2.858
 2926TIP3    H1 8784   4.164   0.079   2.890
 2926TIP3    H2 8785   4.087  -0.013   2.798
 2927TIP3   OH2 8786   0.800   2.143   1.142
 2927TIP3    H1 8787   0.858   2.087   1.193
 2927TIP3    H2 8788   0.838   2.142   1.054
 2928TIP3   OH2 8789   0.500   4.741   0.521
 2928TIP3    H1 8790   0.493   4.646   0.528
 2928TIP3    H2 8791   0.558   4.766   0.593
 2929TIP3   OH2 8792   4.099   5.946   5.004
 2929TIP3    H1 8793   4.075   6.037   4.992
 2929TIP3    H2 8794   4.018   5.897   4.991
 2930TIP3   OH2 8795   4.887   5.274   2.545
 2930TIP3    H1 8796   4.882   5.216   2.622
 2930TIP3    H2 8797   4.802   5.317   2.542
 2931TIP3   OH2 8798   6.135   1.482   5.047
 2931TIP3    H1 8799   6.073   1.530   4.992
 2931TIP3    H2 8800   6.211   1.469   4.991
 2932TIP3   OH2 8801   4.134   5.586   1.662
 2932TIP3    H1 8802   4.047   5.621   1.681
 2932TIP3    H2 8803   4.170   5.561   1.747
 2933TIP3   OH2 8804   1.843   1.911   4.135
 2933TIP3    H1 8805   1.847   1.826   4.091
 2933TIP3    H2 8806   1.930   1.949   4.120
 2934TIP3   OH2 8807   1.278   2.110   0.171
 2934TIP3    H1 8808   1.306   2.030   0.127
 2934TIP3    H2 8809   1.311   2.101   0.260
 2935TIP3   OH2 8810   5.737   3.922   0.884
 2935TIP3    H1 8811   5.660   3.973   0.857
 2935TIP3    H2 8812   5.802   3.939   0.816
 2936TIP3   OH2 8813   5.351   4.317   2.719
 2936TIP3    H1 8814   5.285   4.251   2.698
 2936TIP3    H2 8815   5.355   4.373   2.642
 2937TIP3   OH2 8816   0.011   3.991   4.358
 2937TIP3    H1 8817   0.009   3.924   4.427
 2937TIP3    H2 8818   0.072   4.057   4.391
 2938TIP3   OH2 8819   1.264   5.351   4.423
 2938TIP3    H1 8820   1.300   5.438   4.439
 2938TIP3    H2 8821   1.324   5.291   4.466
 2939TIP3   OH2 8822   3.886   1.770   3.007
 2939TIP3    H1 8823   3.821   1.833   3.038
 2939TIP3    H2 8824   3.868   1.691   3.058
 2940TIP3   OH2 8825  -0.020   1.049   1.398
 2940TIP3    H1 8826   0.046   1.114   1.371
 2940TIP3    H2 8827   0.031   0.975   1.429
 2941TIP3   OH2 8828   4.464   2.790   1.810
 2941TIP3    H1 8829   4.545   2.770   1.764
 2941TIP3    H2 8830   4.396   2.743   1.762
 2942TIP3   OH2 8831   1.953   0.947   2.494
 2942TIP3    H1 8832   1.863   0.981   2.489
 2942TIP3    H2 8833   1.954   0.894   2.574
 2943TIP3   OH2 8834   0.954   2.483   3.525
 2943TIP3    H1 8835   0.979   2.421   3.594
 2943TIP3    H2 8836   1.031   2.490   3.470
 2944TIP3   OH2 8837   5.294   3.650   1.858
 2944TIP3    H1 8838   5.354   3.712   1.815
 2944TIP3    H2 8839   5.210   3.665   1.815
 2945TIP3   OH2 8840   5.107   0.513   3.938
 2945TIP3    H1 8841   5.074   0.602   3.932
 2945TIP3    H2 8842   5.122   0.486   3.847
 2946TIP3   OH2 8843   0.035   5.894   4.672
 2946TIP3    H1 8844  -0.053   5.923   4.650
 2946TIP3    H2 8845   0.025   5.843   4.752
 2947TIP3   OH2 8846   3.886   2.733   1.802
 2947TIP3    H1 8847   3.835   2.653   1.799
 2947TIP3    H2 8848   3.975   2.706   1.780
 2948TIP3   OH2 8849   2.601   2.557   2.825
 2948TIP3    H1 8850   2.648   2.630   2.865
 2948TIP3    H2 8851   2.509   2.573   2.845
 2949TIP3   OH2 8852   2.634   2.874   3.462
 2949TIP3    H1 8853   2.559   2.833   3.506
 2949TIP3    H2 8854   2.691   2.903   3.534
 2950TIP3   OH2 8855   1.717   0.060   2.500
 2950TIP3    H1 8856   1.634   0.023   2.471
 2950TIP3    H2 8857   1.774   0.055   2.423
 2951TIP3   OH2 8858   3.151   5.014   4.914
 2951TIP3    H1 8859   3.126   4.931   4.955
 2951TIP3    H2 8860   3.159   5.075   4.987
 2952TIP3   OH2 8861   0.416   2.852   4.697
 2952TIP3    H1 8862   0.429   2.801   4.777
 2952TIP3    H2 8863   0.411   2.943   4.727
 2953TIP3   OH2 8864   2.270   4.098   4.823
 2953TIP3    H1 8865   2.197   4.153   4.852
 2953TIP3    H2 8866   2.228   4.023   4.781
 2954TIP3   OH2 8867   1.673   4.178   3.493
 2954TIP3    H1 8868   1.761   4.147   3.516
 2954TIP3    H2 8869   1.675   4.186   3.398
 2955TIP3   OH2 8870   3.604   3.796   3.188
 2955TIP3    H1 8871   3.593   3.703   3.170
 2955TIP3    H2 8872   3.549   3.840   3.123
 2956TIP3   OH2 8873   6.076   0.328   4.451
 2956TIP3    H1 8874   6.140   0.271   4.409
 2956TIP3    H2 8875   6.053   0.283   4.533
 2957TIP3   OH2 8876   3.557   3.406   1.141
 2957TIP3    H1 8877   3.479   3.460   1.151
 2957TIP3    H2 8878   3.553   3.374   1.051
 2958TIP3   OH2 8879   3.803   2.416   3.964
 2958TIP3    H1 8880   3.808   2.457   3.878
 2958TIP3    H2 8881   3.762   2.331   3.948
 2959TIP3   OH2 8882   3.690   5.598   2.382
 2959TIP3    H1 8883   3.607   5.573   2.423
 2959TIP3    H2 8884   3.755   5.582   2.450
 2960TIP3   OH2 8885   3.567   2.194   2.154
 2960TIP3    H1 8886   3.568   2.143   2.234
 2960TIP3    H2 8887   3.503   2.263   2.170
 2961TIP3   OH2 8888   2.542   3.443   0.273
 2961TIP3    H1 8889   2.470   3.382   0.259
 2961TIP3    H2 8890   2.529   3.511   0.207
 2962TIP3   OH2 8891   5.749   0.427   1.328
 2962TIP3    H1 8892   5.704   0.346   1.352
 2962TIP3    H2 8893   5.792   0.455   1.409
 2963TIP3   OH2 8894   3.051   3.978   0.066
 2963TIP3    H1 8895   3.122   3.943   0.013
 2963TIP3    H2 8896   3.065   4.073   0.066
 2964TIP3   OH2 8897   1.055   3.510   4.759
 2964TIP3    H1 8898   1.138   3.492   4.802
 2964TIP3    H2 8899   1.077   3.514   4.666
 2965TIP3   OH2 8900   2.669   5.866   2.305
 2965TIP3    H1 8901   2.617   5.822   2.237
 2965TIP3    H2 8902   2.728   5.923   2.256
 2966TIP3   OH2 8903   6.225   4.873   4.557
 2966TIP3    H1 8904   6.316   4.848   4.538
 2966TIP3    H2 8905   6.232   4.932   4.631
 2967TIP3   OH2 8906   3.899   1.707   1.950
 2967TIP3    H1 8907   3.810   1.693   1.917
 2967TIP3    H2 8908   3.955   1.667   1.883
 2968TIP3   OH2 8909   4.814   2.070   3.939
 2968TIP3    H1 8910   4.785   2.157   3.968
 2968TIP3    H2 8911   4.899   2.086   3.898
 2969TIP3   OH2 8912   6.180   3.473   1.547
 2969TIP3    H1 8913   6.094   3.444   1.516
 2969TIP3    H2 8914   6.180   3.452   1.641
 2970TIP3   OH2 8915   2.649   2.555   1.601
 2970TIP3    H1 8916   2.559   2.531   1.622
 2970TIP3    H2 8917   2.680   2.482   1.546
 2971TIP3   OH2 8918   3.635   3.590   2.904
 2971TIP3    H1 8919   3.590   3.557   2.981
 2971TIP3    H2 8920   3.587   3.553   2.830
 2972TIP3   OH2 8921   0.523   4.560   3.879
 2972TIP3    H1 8922   0.451   4.513   3.838
 2972TIP3    H2 8923   0.568   4.494   3.931
 2973TIP3   OH2 8924   2.390   5.312   4.835
 2973TIP3    H1 8925   2.412   5.393   4.882
 2973TIP3    H2 8926   2.304   5.328   4.796
 2974TIP3   OH2 8927   1.387   5.800   1.010
 2974TIP3    H1 8928   1.335   5.775   0.934
 2974TIP3    H2 8929   1.325   5.799   1.083
 2975TIP3   OH2 8930   2.188   5.632   1.553
 2975TIP3    H1 8931   2.249   5.692   1.596
 2975TIP3    H2 8932   2.182   5.664   1.463
 2976TIP3   OH2 8933   3.637   3.205   2.335
 2976TIP3    H1 8934   3.694   3.265   2.287
 2976TIP3    H2 8935   3.659   3.119   2.300
 2977TIP3   OH2 8936   2.992   3.444   2.747
 2977TIP3    H1 8937   2.975   3.398   2.829
 2977TIP3    H2 8938   2.937   3.400   2.683
 2978TIP3   OH2 8939   5.986   0.667   4.033
 2978TIP3    H1 8940   5.952   0.597   4.089
 2978TIP3    H2 8941   5.922   0.675   3.963
 2979TIP3   OH2 8942   0.000   0.320   0.219
 2979TIP3    H1 8943  -0.056   0.330   0.296
 2979TIP3    H2 8944   0.063   0.253   0.244
 2980TIP3   OH2 8945   4.642   1.887   3.430
 2980TIP3    H1 8946   4.642   1.936   3.349
 2980TIP3    H2 8947   4.596   1.806   3.409
 2981TIP3   OH2 8948   2.186   1.030   4.684
 2981TIP3    H1 8949   2.187   0.956   4.744
 2981TIP3    H2 8950   2.233   1.099   4.731
 2982TIP3   OH2 8951   5.650   2.228   1.391
 2982TIP3    H1 8952   5.560   2.217   1.422
 2982TIP3    H2 8953   5.644   2.218   1.296
 2983TIP3   OH2 8954   3.874   2.071   1.623
 2983TIP3    H1 8955   3.904   2.150   1.669
 2983TIP3    H2 8956   3.928   2.067   1.544
 2984TIP3   OH2 8957   1.016   2.595   1.996
 2984TIP3    H1 8958   1.078   2.606   2.068
 2984TIP3    H2 8959   1.064   2.543   1.931
 2985TIP3   OH2 8960   1.834   5.243   0.532
 2985TIP3    H1 8961   1.862   5.320   0.482
 2985TIP3    H2 8962   1.792   5.278   0.610
 2986TIP3   OH2 8963   3.135   2.915   1.217
 2986TIP3    H1 8964   3.159   2.954   1.301
 2986TIP3    H2 8965   3.207   2.938   1.158
 2987TIP3   OH2 8966   1.176   5.558   0.145
 2987TIP3    H1 8967   1.135   5.574   0.230
 2987TIP3    H2 8968   1.128   5.483   0.109
 2988TIP3   OH2 8969   1.914   0.532   0.697
 2988TIP3    H1 8970   1.934   0.542   0.790
 2988TIP3    H2 8971   1.912   0.437   0.683
 2989TIP3   OH2 8972   2.575   2.881   4.120
 2989TIP3    H1 8973   2.578   2.964   4.168
 2989TIP3    H2 8974   2.533   2.903   4.037
 2990TIP3   OH2 8975   3.457   0.605   4.612
 2990TIP3    H1 8976   3.431   0.597   4.520
 2990TIP3    H2 8977   3.535   0.549   4.619
 2991TIP3   OH2 8978   2.978   0.156   0.014
 2991TIP3    H1 8979   2.909   0.202   0.062
 2991TIP3    H2 8980   3.024   0.106   0.081
 2992TIP3   OH2 8981   2.397   2.487   0.631
 2992TIP3    H1 8982   2.326   2.466   0.571
 2992TIP3    H2 8983   2.429   2.572   0.601
 2993TIP3   OH2 8984   3.198   3.557   3.795
 2993TIP3    H1 8985   3.197   3.638   3.743
 2993TIP3    H2 8986   3.160   3.582   3.880
 2994TIP3   OH2 8987   5.833   2.169   2.345
 2994TIP3    H1 8988   5.804   2.118   2.269
 2994TIP3    H2 8989   5.917   2.130   2.369
 2995TIP3   OH2 8990   1.076   0.893   2.837
 2995TIP3    H1 8991   1.074   0.862   2.746
 2995TIP3    H2 8992   1.166   0.923   2.850
 2996TIP3   OH2 8993   5.922   0.833   0.072
 2996TIP3    H1 8994   5.839   0.841   0.120
 2996TIP3    H2 8995   5.899   0.856  -0.018
 2997TIP3   OH2 8996   3.695   1.515   3.025
 2997TIP3    H1 8997   3.749   1.440   3.048
 2997TIP3    H2 8998   3.650   1.538   3.106
 2998TIP3   OH2 8999   3.256   4.533   2.411
 2998TIP3    H1 9000   3.226   4.460   2.357
 2998TIP3    H2 9001   3.322   4.494   2.469
 2999TIP3   OH2 9002   1.212   1.339   3.211
 2999TIP3    H1 9003   1.120   1.366   3.212
 2999TIP3    H2 9004   1.261   1.421   3.208
 3000TIP3   OH2 9005   1.048   1.356   4.505
 3000TIP3    H1 9006   0.986   1.350   4.578
 3000TIP3    H2 9007   1.085   1.268   4.498
 3001TIP3   OH2 9008   6.147   1.752   1.580
 3001TIP3    H1 9009   6.100   1.798   1.649
 3001TIP3    H2 9010   6.218   1.812   1.555
 3002TIP3   OH2 9011   1.041   1.470   1.629
 3002TIP3    H1 9012   1.096   1.515   1.694
 3002TIP3    H2 9013   1.096   1.398   1.598
 3003TIP3   OH2 9014   1.185   5.030   4.227
 3003TIP3    H1 9015   1.278   5.013   4.236
 3003TIP3    H2 9016   1.172   5.049   4.134
 3004TIP3   OH2 9017   5.907   5.155   4.584
 3004TIP3    H1 9018   5.966   5.087   4.617
 3004TIP3    H2 9019   5.877   5.201   4.663
 3005TIP3   OH2 9020   2.609   3.768   1.985
 3005TIP3    H1 9021   2.553   3.735   1.915
 3005TIP3    H2 9022   2.575   3.727   2.065
 3006TIP3   OH2 9023   1.573   0.173   3.461
 3006TIP3    H1 9024   1.509   0.240   3.435
 3006TIP3    H2 9025   1.578   0.115   3.386
 3007TIP3   OH2 9026   3.730   2.631   0.513
 3007TIP3    H1 9027   3.820   2.655   0.531
 3007TIP3    H2 9028   3.692   2.709   0.472
 3008TIP3   OH2 9029   2.680   2.838   4.801
 3008TIP3    H1 9030   2.713   2.927   4.813
 3008TIP3    H2 9031   2.675   2.826   4.706
 3009TIP3   OH2 9032   4.603   4.838   1.986
 3009TIP3    H1 9033   4.694   4.832   2.018
 3009TIP3    H2 9034   4.611   4.826   1.891
 3010TIP3   OH2 9035   4.302   1.062   2.950
 3010TIP3    H1 9036   4.355   1.006   2.893
 3010TIP3    H2 9037   4.330   1.151   2.927
 3011TIP3   OH2 9038   0.379   3.577   1.923
 3011TIP3    H1 9039   0.426   3.494   1.912
 3011TIP3    H2 9040   0.300   3.554   1.972
 3012TIP3   OH2 9041   2.662   1.442   0.284
 3012TIP3    H1 9042   2.579   1.398   0.302
 3012TIP3    H2 9043   2.728   1.390   0.330
 3013TIP3   OH2 9044   2.564   2.080   2.156
 3013TIP3    H1 9045   2.574   2.065   2.062
 3013TIP3    H2 9046   2.469   2.083   2.170
 3014TIP3   OH2 9047   3.352   0.655   0.073
 3014TIP3    H1 9048   3.402   0.689   0.147
 3014TIP3    H2 9049   3.343   0.729   0.014
 3015TIP3   OH2 9050   6.313   2.536   0.777
 3015TIP3    H1 9051   6.330   2.621   0.735
 3015TIP3    H2 9052   6.228   2.547   0.818
 3016TIP3   OH2 9053   5.797   1.483   3.318
 3016TIP3    H1 9054   5.855   1.468   3.393
 3016TIP3    H2 9055   5.710   1.461   3.351
 3017TIP3   OH2 9056   1.857   0.308   4.017
 3017TIP3    H1 9057   1.897   0.315   4.104
 3017TIP3    H2 9058   1.763   0.309   4.034
 3018TIP3   OH2 9059   0.484   0.696   2.592
 3018TIP3    H1 9060   0.473   0.777   2.542
 3018TIP3    H2 9061   0.570   0.664   2.566
 3019TIP3   OH2 9062   0.527   5.345   3.829
 3019TIP3    H1 9063   0.545   5.388   3.746
 3019TIP3    H2 9064   0.522   5.417   3.892
 3020TIP3   OH2 9065   5.202   0.685   1.641
 3020TIP3    H1 9066   5.230   0.760   1.694
 3020TIP3    H2 9067   5.283   0.634   1.630
 3021TIP3   OH2 9068   0.604   1.347   1.702
 3021TIP3    H1 9069   0.646   1.398   1.633
 3021TIP3    H2 9070   0.613   1.400   1.781
 3022TIP3   OH2 9071   3.133   1.190   4.634
 3022TIP3    H1 9072   3.044   1.227   4.637
 3022TIP3    H2 9073   3.167   1.203   4.723
 3023TIP3   OH2 9074   4.352   2.198   1.013
 3023TIP3    H1 9075   4.446   2.216   1.023
 3023TIP3    H2 9076   4.334   2.129   1.077
 3024TIP3   OH2 9077   2.628   3.571   2.816
 3024TIP3    H1 9078   2.676   3.517   2.753
 3024TIP3    H2 9079   2.587   3.639   2.763
 3025TIP3   OH2 9080   5.471   1.835   2.253
 3025TIP3    H1 9081   5.425   1.860   2.333
 3025TIP3    H2 9082   5.458   1.909   2.194
 3026TIP3   OH2 9083   3.634   4.340   2.415
 3026TIP3    H1 9084   3.718   4.372   2.449
 3026TIP3    H2 9085   3.569   4.378   2.474
 3027TIP3   OH2 9086   5.620   3.540   3.542
 3027TIP3    H1 9087   5.663   3.595   3.477
 3027TIP3    H2 9088   5.660   3.565   3.626
 3028TIP3   OH2 9089   1.758   0.791   3.571
 3028TIP3    H1 9090   1.734   0.781   3.663
 3028TIP3    H2 9091   1.674   0.798   3.524
 3029TIP3   OH2 9092   3.586   3.753   4.508
 3029TIP3    H1 9093   3.544   3.816   4.449
 3029TIP3    H2 9094   3.559   3.668   4.474
 3030TIP3   OH2 9095   0.214   3.023   3.897
 3030TIP3    H1 9096   0.289   3.000   3.842
 3030TIP3    H2 9097   0.140   3.028   3.836
 3031TIP3   OH2 9098   1.521   0.799   3.424
 3031TIP3    H1 9099   1.459   0.871   3.435
 3031TIP3    H2 9100   1.466   0.722   3.408
 3032TIP3   OH2 9101   4.188   3.612   0.774
 3032TIP3    H1 9102   4.181   3.517   0.781
 3032TIP3    H2 9103   4.257   3.635   0.836
 3033TIP3   OH2 9104   3.975   1.527   1.253
 3033TIP3    H1 9105   3.884   1.506   1.275
 3033TIP3    H2 9106   3.975   1.622   1.240
 3034TIP3   OH2 9107   5.606   0.145   4.597
 3034TIP3    H1 9108   5.576   0.144   4.506
 3034TIP3    H2 9109   5.526   0.130   4.648
 3035TIP3   OH2 9110   1.847   1.463   0.298
 3035TIP3    H1 9111   1.762   1.505   0.312
 3035TIP3    H2 9112   1.885   1.457   0.386
 3036TIP3   OH2 9113   5.726   0.246   3.352
 3036TIP3    H1 9114   5.773   0.163   3.358
 3036TIP3    H2 9115   5.730   0.269   3.259
 3037TIP3   OH2 9116   3.865   2.394   0.283
 3037TIP3    H1 9117   3.812   2.348   0.349
 3037TIP3    H2 9118   3.918   2.325   0.243
 3038TIP3   OH2 9119   5.128   0.205   0.569
 3038TIP3    H1 9120   5.223   0.194   0.581
 3038TIP3    H2 9121   5.101   0.126   0.521
 3039TIP3   OH2 9122   5.041   4.243   2.226
 3039TIP3    H1 9123   5.022   4.184   2.299
 3039TIP3    H2 9124   5.023   4.330   2.259
 3040TIP3   OH2 9125   0.888   5.104   1.450
 3040TIP3    H1 9126   0.826   5.033   1.465
 3040TIP3    H2 9127   0.966   5.061   1.416
 3041TIP3   OH2 9128   2.207   3.746   3.177
 3041TIP3    H1 9129   2.223   3.834   3.142
 3041TIP3    H2 9130   2.262   3.689   3.125
 3042TIP3   OH2 9131   0.175   3.665   0.278
 3042TIP3    H1 9132   0.201   3.732   0.341
 3042TIP3    H2 9133   0.132   3.598   0.330
 3043TIP3   OH2 9134   6.341   1.324   2.430
 3043TIP3    H1 9135   6.347   1.272   2.510
 3043TIP3    H2 9136   6.284   1.273   2.373
 3044TIP3   OH2 9137   6.198   3.776   1.517
 3044TIP3    H1 9138   6.249   3.803   1.593
 3044TIP3    H2 9139   6.168   3.687   1.539
 3045TIP3   OH2 9140   0.431   2.765   2.279
 3045TIP3    H1 9141   0.432   2.861   2.283
 3045TIP3    H2 9142   0.340   2.741   2.294
 3046TIP3   OH2 9143   1.064   4.011   0.976
 3046TIP3    H1 9144   0.990   4.014   1.036
 3046TIP3    H2 9145   1.109   3.929   0.999
 3047TIP3   OH2 9146   4.565   2.180   2.530
 3047TIP3    H1 9147   4.524   2.266   2.541
 3047TIP3    H2 9148   4.522   2.142   2.454
 3048TIP3   OH2 9149   6.270   3.767   0.913
 3048TIP3    H1 9150   6.235   3.775   0.824
 3048TIP3    H2 9151   6.342   3.830   0.916
 3049TIP3   OH2 9152   2.437   1.745   1.804
 3049TIP3    H1 9153   2.379   1.715   1.875
 3049TIP3    H2 9154   2.508   1.682   1.802
 3050TIP3   OH2 9155   2.254   1.595   0.332
 3050TIP3    H1 9156   2.180   1.653   0.349
 3050TIP3    H2 9157   2.219   1.507   0.347
 3051TIP3   OH2 9158   0.524   5.419   1.228
 3051TIP3    H1 9159   0.455   5.358   1.255
 3051TIP3    H2 9160   0.491   5.505   1.255
 3052TIP3   OH2 9161   5.631   0.805   4.723
 3052TIP3    H1 9162   5.679   0.866   4.778
 3052TIP3    H2 9163   5.602   0.858   4.648
 3053TIP3   OH2 9164   2.708   5.810   4.182
 3053TIP3    H1 9165   2.716   5.749   4.255
 3053TIP3    H2 9166   2.617   5.803   4.154
 3054TIP3   OH2 9167   1.330   2.543   3.862
 3054TIP3    H1 9168   1.249   2.493   3.870
 3054TIP3    H2 9169   1.391   2.483   3.819
 3055TIP3   OH2 9170   0.362   1.463   2.611
 3055TIP3    H1 9171   0.350   1.381   2.564
 3055TIP3    H2 9172   0.456   1.478   2.610
 3056TIP3   OH2 9173   2.129   0.082   3.908
 3056TIP3    H1 9174   2.047   0.092   3.955
 3056TIP3    H2 9175   2.191   0.138   3.955
 3057TIP3   OH2 9176   1.410   1.265   5.205
 3057TIP3    H1 9177   1.373   1.295   5.122
 3057TIP3    H2 9178   1.471   1.195   5.180
 3058TIP3   OH2 9179   5.060   5.149   3.588
 3058TIP3    H1 9180   5.046   5.191   3.503
 3058TIP3    H2 9181   5.026   5.212   3.651
 3059TIP3   OH2 9182   0.659   2.521   0.838
 3059TIP3    H1 9183   0.718   2.499   0.765
 3059TIP3    H2 9184   0.715   2.564   0.902
 3060TIP3   OH2 9185   4.839   4.947   2.666
 3060TIP3    H1 9186   4.802   4.859   2.670
 3060TIP3    H2 9187   4.867   4.958   2.575
 3061TIP3   OH2 9188   1.901   4.399   1.653
 3061TIP3    H1 9189   1.980   4.441   1.620
 3061TIP3    H2 9190   1.921   4.305   1.652
 3062TIP3   OH2 9191   3.998   2.942   2.292
 3062TIP3    H1 9192   3.924   2.912   2.346
 3062TIP3    H2 9193   4.076   2.912   2.340
 3063TIP3   OH2 9194   3.110   2.868   3.603
 3063TIP3    H1 9195   3.084   2.921   3.528
 3063TIP3    H2 9196   3.183   2.816   3.571
 3064TIP3   OH2 9197   1.571   5.090   3.784
 3064TIP3    H1 9198   1.532   5.011   3.747
 3064TIP3    H2 9199   1.610   5.061   3.866
 3065TIP3   OH2 9200   5.631   4.314   3.330
 3065TIP3    H1 9201   5.644   4.373   3.405
 3065TIP3    H2 9202   5.562   4.254   3.359
 3066TIP3   OH2 9203   0.776   3.044   1.003
 3066TIP3    H1 9204   0.818   2.973   0.953
 3066TIP3    H2 9205   0.682   3.027   0.993
 3067TIP3   OH2 9206   1.412   3.901   0.586
 3067TIP3    H1 9207   1.499   3.942   0.591
 3067TIP3    H2 9208   1.354   3.961   0.634
 3068TIP3   OH2 9209   5.000   2.020   4.714
 3068TIP3    H1 9210   4.962   2.050   4.632
 3068TIP3    H2 9211   4.968   2.081   4.780
 3069TIP3   OH2 9212   5.426   1.020   0.685
 3069TIP3    H1 9213   5.372   0.950   0.648
 3069TIP3    H2 9214   5.388   1.036   0.772
 3070TIP3   OH2 9215   0.097   1.270   3.728
 3070TIP3    H1 9216   0.176   1.215   3.731
 3070TIP3    H2 9217   0.131   1.359   3.720
 3071TIP3   OH2 9218   0.514   2.862   0.946
 3071TIP3    H1 9219   0.530   2.828   0.858
 3071TIP3    H2 9220   0.475   2.789   0.993
 3072TIP3   OH2 9221   5.149   3.136   4.418
 3072TIP3    H1 9222   5.231   3.134   4.368
 3072TIP3    H2 9223   5.107   3.052   4.399
 3073TIP3   OH2 9224   1.738   0.442   1.504
 3073TIP3    H1 9225   1.730   0.522   1.451
 3073TIP3    H2 9226   1.648   0.412   1.515
 3074TIP3   OH2 9227   1.544   5.321   1.787
 3074TIP3    H1 9228   1.564   5.412   1.807
 3074TIP3    H2 9229   1.628   5.275   1.795
 3075TIP3   OH2 9230   1.249   4.278   0.185
 3075TIP3    H1 9231   1.307   4.235   0.123
 3075TIP3    H2 9232   1.308   4.313   0.252
 3076TIP3   OH2 9233   3.281   4.443   0.387
 3076TIP3    H1 9234   3.216   4.458   0.318
 3076TIP3    H2 9235   3.364   4.470   0.348
 3077TIP3   OH2 9236   4.119   0.439   1.595
 3077TIP3    H1 9237   4.156   0.446   1.507
 3077TIP3    H2 9238   4.055   0.509   1.599
 3078TIP3   OH2 9239   4.730   4.014   2.214
 3078TIP3    H1 9240   4.671   4.023   2.139
 3078TIP3    H2 9241   4.798   3.954   2.184
 3079TIP3   OH2 9242   2.793   5.050   2.187
 3079TIP3    H1 9243   2.721   5.109   2.211
 3079TIP3    H2 9244   2.777   5.029   2.095
 3080TIP3   OH2 9245   4.071   3.380   0.709
 3080TIP3    H1 9246   3.991   3.398   0.661
 3080TIP3    H2 9247   4.137   3.363   0.641
 3081TIP3   OH2 9248   1.186   1.687   4.641
 3081TIP3    H1 9249   1.142   1.604   4.661
 3081TIP3    H2 9250   1.278   1.663   4.630
 3082TIP3   OH2 9251   0.536   5.534   0.524
 3082TIP3    H1 9252   0.527   5.441   0.544
 3082TIP3    H2 9253   0.615   5.539   0.470
 3083TIP3   OH2 9254   1.897   0.709   3.857
 3083TIP3    H1 9255   1.942   0.668   3.783
 3083TIP3    H2 9256   1.804   0.707   3.832
 3084TIP3   OH2 9257   5.053   2.297   0.249
 3084TIP3    H1 9258   5.007   2.268   0.327
 3084TIP3    H2 9259   5.026   2.235   0.181
 3085TIP3   OH2 9260   5.660   4.163   1.896
 3085TIP3    H1 9261   5.583   4.195   1.944
 3085TIP3    H2 9262   5.674   4.228   1.828
 3086TIP3   OH2 9263   1.585   2.647   4.789
 3086TIP3    H1 9264   1.508   2.607   4.749
 3086TIP3    H2 9265   1.649   2.654   4.718
 3087TIP3   OH2 9266   5.386   5.664   4.132
 3087TIP3    H1 9267   5.343   5.580   4.147
 3087TIP3    H2 9268   5.321   5.729   4.159
 3088TIP3   OH2 9269   3.305   2.600   0.278
 3088TIP3    H1 9270   3.311   2.695   0.274
 3088TIP3    H2 9271   3.304   2.580   0.371
 3089TIP3   OH2 9272   3.235   1.829   1.768
 3089TIP3    H1 9273   3.167   1.800   1.707
 3089TIP3    H2 9274   3.218   1.922   1.781
 3090TIP3   OH2 9275   0.829   5.689   1.686
 3090TIP3    H1 9276   0.907   5.634   1.676
 3090TIP3    H2 9277   0.863   5.773   1.718
 3091TIP3   OH2 9278   4.692   4.339   3.763
 3091TIP3    H1 9279   4.775   4.365   3.722
 3091TIP3    H2 9280   4.695   4.243   3.765
 3092TIP3   OH2 9281   1.225   3.561   0.322
 3092TIP3    H1 9282   1.271   3.509   0.256
 3092TIP3    H2 9283   1.257   3.650   0.308
 3093TIP3   OH2 9284   3.445   3.557   3.091
 3093TIP3    H1 9285   3.478   3.479   3.136
 3093TIP3    H2 9286   3.363   3.577   3.136
 3094TIP3   OH2 9287   4.757   3.401   2.665
 3094TIP3    H1 9288   4.770   3.490   2.697
 3094TIP3    H2 9289   4.764   3.346   2.743
 3095TIP3   OH2 9290   2.967   0.951   3.104
 3095TIP3    H1 9291   2.954   1.042   3.131
 3095TIP3    H2 9292   3.053   0.927   3.138
 3096TIP3   OH2 9293   3.953   4.423   3.270
 3096TIP3    H1 9294   3.969   4.349   3.328
 3096TIP3    H2 9295   3.969   4.501   3.323
 3097TIP3   OH2 9296   4.702   0.362   1.368
 3097TIP3    H1 9297   4.788   0.328   1.393
 3097TIP3    H2 9298   4.664   0.395   1.450
 3098TIP3   OH2 9299   1.157   0.833   5.053
 3098TIP3    H1 9300   1.135   0.745   5.023
 3098TIP3    H2 9301   1.157   0.887   4.974
 3099TIP3   OH2 9302   5.626   3.888   5.091
 3099TIP3    H1 9303   5.703   3.831   5.103
 3099TIP3    H2 9304   5.661   3.967   5.051
 3100TIP3   OH2 9305   2.701   1.999   5.062
 3100TIP3    H1 9306   2.731   1.944   5.134
 3100TIP3    H2 9307   2.655   2.071   5.105
 3101TIP3   OH2 9308   1.768   2.689   1.380
 3101TIP3    H1 9309   1.728   2.681   1.293
 3101TIP3    H2 9310   1.753   2.780   1.405
 3102TIP3   OH2 9311   3.211   4.016   2.944
 3102TIP3    H1 9312   3.184   3.932   2.981
 3102TIP3    H2 9313   3.161   4.081   2.993
 3103TIP3   OH2 9314   1.335   1.954   2.859
 3103TIP3    H1 9315   1.360   2.024   2.920
 3103TIP3    H2 9316   1.358   1.988   2.772
 3104TIP3   OH2 9317   4.346   5.704   2.520
 3104TIP3    H1 9318   4.290   5.778   2.494
 3104TIP3    H2 9319   4.367   5.721   2.612
 3105TIP3   OH2 9320   4.147   2.543   1.667
 3105TIP3    H1 9321   4.179   2.488   1.595
 3105TIP3    H2 9322   4.179   2.630   1.647
 3106TIP3   OH2 9323   2.262   1.525   2.249
 3106TIP3    H1 9324   2.310   1.592   2.299
 3106TIP3    H2 9325   2.330   1.479   2.201
 3107TIP3   OH2 9326   0.384   0.868   3.750
 3107TIP3    H1 9327   0.454   0.871   3.685
 3107TIP3    H2 9328   0.304   0.879   3.699
 3108TIP3   OH2 9329   2.933   5.438   0.698
 3108TIP3    H1 9330   2.950   5.519   0.649
 3108TIP3    H2 9331   3.001   5.377   0.668
 3109TIP3   OH2 9332   0.202   4.486   1.589
 3109TIP3    H1 9333   0.184   4.477   1.683
 3109TIP3    H2 9334   0.231   4.577   1.579
 3110TIP3   OH2 9335   2.239   4.623   4.391
 3110TIP3    H1 9336   2.202   4.670   4.316
 3110TIP3    H2 9337   2.325   4.594   4.361
 3111TIP3   OH2 9338   5.183   5.264   3.035
 3111TIP3    H1 9339   5.241   5.233   3.104
 3111TIP3    H2 9340   5.208   5.356   3.022
 3112TIP3   OH2 9341   1.384   3.470   0.852
 3112TIP3    H1 9342   1.437   3.506   0.923
 3112TIP3    H2 9343   1.418   3.513   0.773
 3113TIP3   OH2 9344   0.950   2.109   1.694
 3113TIP3    H1 9345   0.960   2.143   1.783
 3113TIP3    H2 9346   0.904   2.179   1.648
 3114TIP3   OH2 9347   5.992   4.968   0.659
 3114TIP3    H1 9348   6.000   4.971   0.564
 3114TIP3    H2 9349   5.901   4.991   0.676
 3115TIP3   OH2 9350   2.474   0.023   1.760
 3115TIP3    H1 9351   2.404   0.011   1.696
 3115TIP3    H2 9352   2.552  -0.013   1.717
 3116TIP3   OH2 9353   5.287   2.115   1.225
 3116TIP3    H1 9354   5.321   2.163   1.300
 3116TIP3    H2 9355   5.355   2.050   1.206
 3117TIP3   OH2 9356   4.609   5.359   0.835
 3117TIP3    H1 9357   4.624   5.350   0.929
 3117TIP3    H2 9358   4.571   5.447   0.825
 3118TIP3   OH2 9359   6.184   1.455   2.698
 3118TIP3    H1 9360   6.234   1.376   2.680
 3118TIP3    H2 9361   6.095   1.425   2.717
 3119TIP3   OH2 9362   5.938   5.518   1.739
 3119TIP3    H1 9363   5.887   5.546   1.815
 3119TIP3    H2 9364   5.884   5.450   1.697
 3120TIP3   OH2 9365   5.060   5.346   0.701
 3120TIP3    H1 9366   5.035   5.258   0.673
 3120TIP3    H2 9367   5.154   5.351   0.682
 3121TIP3   OH2 9368   1.836   1.259   0.107
 3121TIP3    H1 9369   1.863   1.170   0.129
 3121TIP3    H2 9370   1.835   1.305   0.191
 3122TIP3   OH2 9371   3.106   0.591   0.601
 3122TIP3    H1 9372   3.110   0.545   0.685
 3122TIP3    H2 9373   3.198   0.609   0.579
 3123TIP3   OH2 9374   1.262   5.093   3.736
 3123TIP3    H1 9375   1.272   5.176   3.783
 3123TIP3    H2 9376   1.260   5.027   3.806
 3124TIP3   OH2 9377   3.019   2.388   1.720
 3124TIP3    H1 9378   3.112   2.389   1.699
 3124TIP3    H2 9379   2.975   2.413   1.639
 3125TIP3   OH2 9380   4.261   1.052   1.487
 3125TIP3    H1 9381   4.249   0.957   1.488
 3125TIP3    H2 9382   4.172   1.087   1.496
 3126TIP3   OH2 9383   4.078   3.518   1.262
 3126TIP3    H1 9384   4.054   3.504   1.170
 3126TIP3    H2 9385   4.008   3.476   1.312
 3127TIP3   OH2 9386   2.613   4.678   3.120
 3127TIP3    H1 9387   2.528   4.659   3.160
 3127TIP3    H2 9388   2.669   4.606   3.149
 3128TIP3   OH2 9389   4.591   3.721   4.496
 3128TIP3    H1 9390   4.539   3.677   4.429
 3128TIP3    H2 9391   4.682   3.701   4.473
 3129TIP3   OH2 9392   1.324   1.617   4.363
 3129TIP3    H1 9393   1.254   1.645   4.304
 3129TIP3    H2 9394   1.354   1.534   4.327
 3130TIP3   OH2 9395   5.173   2.886   0.550
 3130TIP3    H1 9396   5.216   2.903   0.634
 3130TIP3    H2 9397   5.199   2.959   0.494
 3131TIP3   OH2 9398   3.226   1.864   3.911
 3131TIP3    H1 9399   3.219   1.825   3.998
 3131TIP3    H2 9400   3.216   1.791   3.851
 3132TIP3   OH2 9401   4.176   4.528   2.793
 3132TIP3    H1 9402   4.159   4.475   2.871
 3132TIP3    H2 9403   4.233   4.474   2.739
 3133TIP3   OH2 9404   3.193   3.469   3.247
 3133TIP3    H1 9405   3.190   3.424   3.332
 3133TIP3    H2 9406   3.204   3.398   3.183
 3134TIP3   OH2 9407   6.055   4.307   3.779
 3134TIP3    H1 9408   6.024   4.225   3.741
 3134TIP3    H2 9409   6.017   4.308   3.867
 3135TIP3   OH2 9410   2.293   3.684   4.556
 3135TIP3    H1 9411   2.238   3.744   4.607
 3135TIP3    H2 9412   2.382   3.713   4.573
 3136TIP3   OH2 9413   2.082   5.413   2.885
 3136TIP3    H1 9414   2.084   5.320   2.866
 3136TIP3    H2 9415   1.997   5.442   2.850
 3137TIP3   OH2 9416   5.314   4.499   4.888
 3137TIP3    H1 9417   5.408   4.518   4.888
 3137TIP3    H2 9418   5.284   4.527   4.801
 3138TIP3   OH2 9419   3.029   2.563   1.423
 3138TIP3    H1 9420   2.934   2.556   1.439
 3138TIP3    H2 9421   3.035   2.603   1.337
 3139TIP3   OH2 9422   4.397   5.586   4.057
 3139TIP3    H1 9423   4.490   5.606   4.051
 3139TIP3    H2 9424   4.353   5.666   4.027
 3140TIP3   OH2 9425   4.285   0.031   3.180
 3140TIP3    H1 9426   4.207  -0.019   3.156
 3140TIP3    H2 9427   4.275   0.114   3.133
 3141TIP3   OH2 9428   5.012   1.396   4.316
 3141TIP3    H1 9429   5.018   1.359   4.404
 3141TIP3    H2 9430   4.923   1.378   4.288
 3142TIP3   OH2 9431   6.129   4.438   1.289
 3142TIP3    H1 9432   6.112   4.452   1.195
 3142TIP3    H2 9433   6.188   4.509   1.313
 3143TIP3   OH2 9434   0.081   5.313   0.460
 3143TIP3    H1 9435   0.160   5.353   0.423
 3143TIP3    H2 9436   0.009   5.366   0.426
 3144TIP3   OH2 9437   3.969   5.218   4.169
 3144TIP3    H1 9438   3.919   5.207   4.088
 3144TIP3    H2 9439   4.053   5.256   4.141
 3145TIP3   OH2 9440   5.330   0.535   4.241
 3145TIP3    H1 9441   5.407   0.484   4.265
 3145TIP3    H2 9442   5.354   0.577   4.158
 3146TIP3   OH2 9443   1.828   1.433   4.480
 3146TIP3    H1 9444   1.898   1.393   4.429
 3146TIP3    H2 9445   1.753   1.435   4.421
 3147TIP3   OH2 9446   6.138   0.453   0.096
 3147TIP3    H1 9447   6.128   0.434   0.003
 3147TIP3    H2 9448   6.220   0.409   0.121
 3148TIP3   OH2 9449   1.545   2.385   3.301
 3148TIP3    H1 9450   1.614   2.321   3.317
 3148TIP3    H2 9451   1.514   2.366   3.212
 3149TIP3   OH2 9452   1.470   4.874   0.319
 3149TIP3    H1 9453   1.435   4.831   0.396
 3149TIP3    H2 9454   1.565   4.872   0.330
 3150TIP3   OH2 9455   0.759   0.010   0.419
 3150TIP3    H1 9456   0.753  -0.072   0.468
 3150TIP3    H2 9457   0.706   0.072   0.470
 3151TIP3   OH2 9458   0.617   3.309   3.136
 3151TIP3    H1 9459   0.540   3.340   3.184
 3151TIP3    H2 9460   0.614   3.213   3.145
 3152TIP3   OH2 9461   2.513   1.591   0.086
 3152TIP3    H1 9462   2.565   1.640   0.023
 3152TIP3    H2 9463   2.572   1.578   0.161
 3153TIP3   OH2 9464   6.280   3.663   1.899
 3153TIP3    H1 9465   6.353   3.611   1.866
 3153TIP3    H2 9466   6.292   3.749   1.860
 3154TIP3   OH2 9467   5.570   2.633   4.096
 3154TIP3    H1 9468   5.599   2.569   4.161
 3154TIP3    H2 9469   5.474   2.627   4.098
 3155TIP3   OH2 9470   0.277   1.976   4.832
 3155TIP3    H1 9471   0.258   1.887   4.800
 3155TIP3    H2 9472   0.285   2.029   4.753
 3156TIP3   OH2 9473   0.886   1.754   1.146
 3156TIP3    H1 9474   0.873   1.686   1.080
 3156TIP3    H2 9475   0.894   1.706   1.229
 3157TIP3   OH2 9476   4.065   0.280   0.801
 3157TIP3    H1 9477   4.110   0.302   0.719
 3157TIP3    H2 9478   4.056   0.184   0.798
 3158TIP3   OH2 9479   1.568   4.785  -0.009
 3158TIP3    H1 9480   1.634   4.825   0.048
 3158TIP3    H2 9481   1.487   4.789   0.043
 3159TIP3   OH2 9482   3.717   5.884   4.070
 3159TIP3    H1 9483   3.723   5.789   4.083
 3159TIP3    H2 9484   3.624   5.899   4.052
 3160TIP3   OH2 9485   0.143   4.333   0.384
 3160TIP3    H1 9486   0.145   4.384   0.464
 3160TIP3    H2 9487   0.223   4.280   0.388
 3161TIP3   OH2 9488   2.558   3.429   0.774
 3161TIP3    H1 9489   2.539   3.399   0.686
 3161TIP3    H2 9490   2.626   3.370   0.807
 3162TIP3   OH2 9491   1.911   0.878   3.273
 3162TIP3    H1 9492   1.869   0.825   3.341
 3162TIP3    H2 9493   1.852   0.953   3.262
 3163TIP3   OH2 9494   1.599   5.835   2.765
 3163TIP3    H1 9495   1.547   5.909   2.733
 3163TIP3    H2 9496   1.604   5.775   2.691
 3164TIP3   OH2 9497   1.708   4.973   3.212
 3164TIP3    H1 9498   1.635   5.017   3.254
 3164TIP3    H2 9499   1.721   5.021   3.130
 3165TIP3   OH2 9500   3.859   5.348   2.325
 3165TIP3    H1 9501   3.765   5.335   2.333
 3165TIP3    H2 9502   3.893   5.333   2.413
 3166TIP3   OH2 9503   5.222   2.536   1.128
 3166TIP3    H1 9504   5.201   2.629   1.136
 3166TIP3    H2 9505   5.162   2.503   1.061
 3167TIP3   OH2 9506   2.967   1.882   3.340
 3167TIP3    H1 9507   2.970   1.823   3.416
 3167TIP3    H2 9508   2.921   1.833   3.273
 3168TIP3   OH2 9509   1.608   0.193   4.629
 3168TIP3    H1 9510   1.636   0.255   4.696
 3168TIP3    H2 9511   1.568   0.121   4.678
 3169TIP3   OH2 9512   0.664   3.446   0.718
 3169TIP3    H1 9513   0.729   3.487   0.661
 3169TIP3    H2 9514   0.699   3.458   0.807
 3170TIP3   OH2 9515   2.381   2.410   3.672
 3170TIP3    H1 9516   2.384   2.341   3.606
 3170TIP3    H2 9517   2.316   2.379   3.736
 3171TIP3   OH2 9518   2.855   3.673   2.365
 3171TIP3    H1 9519   2.902   3.612   2.308
 3171TIP3    H2 9520   2.766   3.638   2.369
 3172TIP3   OH2 9521   4.888   5.962   4.481
 3172TIP3    H1 9522   4.812   5.906   4.497
 3172TIP3    H2 9523   4.854   6.033   4.426
 3173TIP3   OH2 9524   1.580   2.000   0.467
 3173TIP3    H1 9525   1.580   2.071   0.403
 3173TIP3    H2 9526   1.595   2.043   0.551
 3174TIP3   OH2 9527   4.496   4.921   4.612
 3174TIP3    H1 9528   4.525   4.838   4.650
 3174TIP3    H2 9529   4.486   4.901   4.519
 3175TIP3   OH2 9530   4.189   5.441   0.294
 3175TIP3    H1 9531   4.190   5.357   0.249
 3175TIP3    H2 9532   4.270   5.484   0.268
 3176TIP3   OH2 9533   5.012   0.903   3.588
 3176TIP3    H1 9534   5.104   0.882   3.606
 3176TIP3    H2 9535   5.016   0.984   3.537
 3177TIP3   OH2 9536   0.910   2.834   4.429
 3177TIP3    H1 9537   0.907   2.773   4.503
 3177TIP3    H2 9538   0.831   2.887   4.439
 3178TIP3   OH2 9539   5.869   1.840   2.402
 3178TIP3    H1 9540   5.876   1.760   2.454
 3178TIP3    H2 9541   5.776   1.846   2.379
 3179TIP3   OH2 9542   2.149   2.349   2.964
 3179TIP3    H1 9543   2.172   2.258   2.981
 3179TIP3    H2 9544   2.092   2.374   3.036
 3180TIP3   OH2 9545   5.524   5.494   4.384
 3180TIP3    H1 9546   5.590   5.563   4.397
 3180TIP3    H2 9547   5.448   5.525   4.433
 3181TIP3   OH2 9548   4.369   2.661   0.349
 3181TIP3    H1 9549   4.274   2.650   0.340
 3181TIP3    H2 9550   4.407   2.603   0.284
 3182TIP3   OH2 9551   4.611   4.397   2.742
 3182TIP3    H1 9552   4.617   4.302   2.739
 3182TIP3    H2 9553   4.518   4.416   2.726
 3183TIP3   OH2 9554   3.096   1.184   3.549
 3183TIP3    H1 9555   3.007   1.158   3.573
 3183TIP3    H2 9556   3.139   1.102   3.524
 3184TIP3   OH2 9557   3.779   0.618   4.285
 3184TIP3    H1 9558   3.765   0.713   4.279
 3184TIP3    H2 9559   3.691   0.581   4.286
 3185TIP3   OH2 9560   2.839   2.411   2.837
 3185TIP3    H1 9561   2.750   2.445   2.851
 3185TIP3    H2 9562   2.884   2.427   2.920
 3186TIP3   OH2 9563   5.297   3.573   0.014
 3186TIP3    H1 9564   5.251   3.619   0.084
 3186TIP3    H2 9565   5.387   3.566   0.045
 3187TIP3   OH2 9566   0.652   3.828   0.066
 3187TIP3    H1 9567   0.703   3.812  -0.013
 3187TIP3    H2 9568   0.646   3.743   0.109
 3188TIP3   OH2 9569   4.202   4.668   0.432
 3188TIP3    H1 9570   4.187   4.751   0.386
 3188TIP3    H2 9571   4.141   4.607   0.390
 3189TIP3   OH2 9572   3.513   5.823   1.865
 3189TIP3    H1 9573   3.435   5.862   1.905
 3189TIP3    H2 9574   3.495   5.729   1.864
 3190TIP3   OH2 9575   5.219   5.891   2.934
 3190TIP3    H1 9576   5.199   5.798   2.942
 3190TIP3    H2 9577   5.159   5.933   2.996
 3191TIP3   OH2 9578   0.383   2.667   3.428
 3191TIP3    H1 9579   0.468   2.707   3.446
 3191TIP3    H2 9580   0.321   2.721   3.476
 3192TIP3   OH2 9581   0.869   1.429   1.851
 3192TIP3    H1 9582   0.909   1.464   1.771
 3192TIP3    H2 9583   0.869   1.334   1.838
 3193TIP3   OH2 9584   4.197   4.377   1.757
 3193TIP3    H1 9585   4.113   4.400   1.718
 3193TIP3    H2 9586   4.185   4.287   1.788
 3194TIP3   OH2 9587   1.084   4.120   0.340
 3194TIP3    H1 9588   1.152   4.162   0.288
 3194TIP3    H2 9589   1.004   4.167   0.318
 3195TIP3   OH2 9590   1.146   5.453   3.231
 3195TIP3    H1 9591   1.070   5.440   3.288
 3195TIP3    H2 9592   1.192   5.527   3.270
 3196TIP3   OH2 9593   3.602   1.420   3.756
 3196TIP3    H1 9594   3.580   1.476   3.681
 3196TIP3    H2 9595   3.546   1.451   3.827
 3197TIP3   OH2 9596   1.357   3.673   3.335
 3197TIP3    H1 9597   1.285   3.611   3.325
 3197TIP3    H2 9598   1.402   3.673   3.250
 3198TIP3   OH2 9599   1.026   2.567   5.035
 3198TIP3    H1 9600   1.105   2.606   4.996
 3198TIP3    H2 9601   0.997   2.632   5.099
 3199TIP3   OH2 9602   5.844   2.438   0.193
 3199TIP3    H1 9603   5.878   2.416   0.280
 3199TIP3    H2 9604   5.778   2.506   0.209
 3200TIP3   OH2 9605   1.222   4.644   0.818
 3200TIP3    H1 9606   1.153   4.577   0.823
 3200TIP3    H2 9607   1.277   4.628   0.894
 3201TIP3   OH2 9608   6.216   5.132   0.331
 3201TIP3    H1 9609   6.274   5.138   0.255
 3201TIP3    H2 9610   6.236   5.046   0.369
 3202TIP3   OH2 9611   1.999   2.129   1.091
 3202TIP3    H1 9612   1.920   2.084   1.121
 3202TIP3    H2 9613   1.974   2.170   1.008
 3203TIP3   OH2 9614   1.938   0.280   3.760
 3203TIP3    H1 9615   2.012   0.337   3.742
 3203TIP3    H2 9616   1.925   0.286   3.855
 3204TIP3   OH2 9617   0.087   5.511   0.877
 3204TIP3    H1 9618   0.003   5.540   0.912
 3204TIP3    H2 9619   0.131   5.593   0.853
 3205TIP3   OH2 9620   3.495   5.169   3.406
 3205TIP3    H1 9621   3.525   5.111   3.336
 3205TIP3    H2 9622   3.471   5.111   3.478
 3206TIP3   OH2 9623   4.577   4.783   3.533
 3206TIP3    H1 9624   4.545   4.794   3.444
 3206TIP3    H2 9625   4.513   4.725   3.575
 3207TIP3   OH2 9626   5.807   3.481   1.802
 3207TIP3    H1 9627   5.758   3.524   1.731
 3207TIP3    H2 9628   5.878   3.543   1.821
 3208TIP3   OH2 9629   4.583   3.370   4.372
 3208TIP3    H1 9630   4.507   3.426   4.358
 3208TIP3    H2 9631   4.552   3.281   4.355
 3209TIP3   OH2 9632   3.150   0.376   3.680
 3209TIP3    H1 9633   3.076   0.427   3.649
 3209TIP3    H2 9634   3.184   0.333   3.601
 3210TIP3   OH2 9635   2.159   3.447   1.146
 3210TIP3    H1 9636   2.161   3.542   1.149
 3210TIP3    H2 9637   2.216   3.423   1.072
 3211TIP3   OH2 9638   5.727   4.464   0.405
 3211TIP3    H1 9639   5.780   4.543   0.417
 3211TIP3    H2 9640   5.778   4.411   0.345
 3212TIP3   OH2 9641   6.001   5.440   4.288
 3212TIP3    H1 9642   6.072   5.400   4.339
 3212TIP3    H2 9643   5.960   5.502   4.348
 3213TIP3   OH2 9644   1.974   4.177   3.558
 3213TIP3    H1 9645   1.986   4.217   3.644
 3213TIP3    H2 9646   1.962   4.084   3.576
 3214TIP3   OH2 9647   4.805   5.931   3.809
 3214TIP3    H1 9648   4.872   6.000   3.808
 3214TIP3    H2 9649   4.828   5.877   3.885
 3215TIP3   OH2 9650   0.433   0.847   4.374
 3215TIP3    H1 9651   0.346   0.848   4.334
 3215TIP3    H2 9652   0.453   0.754   4.385
 3216TIP3   OH2 9653   5.178   5.703   4.857
 3216TIP3    H1 9654   5.142   5.638   4.918
 3216TIP3    H2 9655   5.186   5.656   4.774
 3217TIP3   OH2 9656   3.519   0.228   4.873
 3217TIP3    H1 9657   3.504   0.242   4.779
 3217TIP3    H2 9658   3.610   0.201   4.879
 3218TIP3   OH2 9659   2.736   5.128   5.147
 3218TIP3    H1 9660   2.816   5.179   5.134
 3218TIP3    H2 9661   2.665   5.192   5.139
 3219TIP3   OH2 9662   3.946   5.937   1.639
 3219TIP3    H1 9663   3.851   5.942   1.642
 3219TIP3    H2 9664   3.966   5.913   1.549
 3220TIP3   OH2 9665   2.815   0.860   2.857
 3220TIP3    H1 9666   2.748   0.921   2.827
 3220TIP3    H2 9667   2.831   0.884   2.948
 3221TIP3   OH2 9668   2.828   5.408   2.787
 3221TIP3    H1 9669   2.762   5.448   2.844
 3221TIP3    H2 9670   2.911   5.442   2.819
 3222TIP3   OH2 9671   0.155   1.155   4.844
 3222TIP3    H1 9672   0.106   1.075   4.864
 3222TIP3    H2 9673   0.183   1.187   4.930
 3223TIP3   OH2 9674   4.682   2.865   2.373
 3223TIP3    H1 9675   4.710   2.842   2.461
 3223TIP3    H2 9676   4.594   2.901   2.384
 3224TIP3   OH2 9677   0.590   5.305   2.042
 3224TIP3    H1 9678   0.530   5.315   1.968
 3224TIP3    H2 9679   0.674   5.283   2.002
 3225TIP3   OH2 9680   3.928   2.110   4.249
 3225TIP3    H1 9681   3.917   2.205   4.245
 3225TIP3    H2 9682   3.996   2.092   4.184
 3226TIP3   OH2 9683   3.781   1.694   0.861
 3226TIP3    H1 9684   3.786   1.608   0.903
 3226TIP3    H2 9685   3.690   1.702   0.833
 3227TIP3   OH2 9686   1.386   5.592   2.706
 3227TIP3    H1 9687   1.338   5.528   2.758
 3227TIP3    H2 9688   1.351   5.677   2.733
 3228TIP3   OH2 9689   0.607   0.829   3.515
 3228TIP3    H1 9690   0.657   0.753   3.485
 3228TIP3    H2 9691   0.659   0.865   3.587
 3229TIP3   OH2 9692   1.210   3.580   1.248
 3229TIP3    H1 9693   1.299   3.582   1.214
 3229TIP3    H2 9694   1.219   3.553   1.339
 3230TIP3   OH2 9695   2.438   1.302   1.567
 3230TIP3    H1 9696   2.343   1.305   1.568
 3230TIP3    H2 9697   2.464   1.395   1.565
 3231TIP3   OH2 9698   0.471   2.365   1.734
 3231TIP3    H1 9699   0.497   2.273   1.734
 3231TIP3    H2 9700   0.510   2.401   1.654
 3232TIP3   OH2 9701   1.218   5.815   2.766
 3232TIP3    H1 9702   1.219   5.880   2.696
 3232TIP3    H2 9703   1.188   5.863   2.843
 3233TIP3   OH2 9704   0.100   1.299   0.332
 3233TIP3    H1 9705   0.082   1.392   0.346
 3233TIP3    H2 9706   0.195   1.291   0.338
 3234TIP3   OH2 9707   0.625   2.322   1.238
 3234TIP3    H1 9708   0.680   2.249   1.208
 3234TIP3    H2 9709   0.551   2.323   1.178
 3235TIP3   OH2 9710   4.199   5.214   2.067
 3235TIP3    H1 9711   4.127   5.151   2.060
 3235TIP3    H2 9712   4.190   5.251   2.155
 3236TIP3   OH2 9713   2.060   5.193   2.462
 3236TIP3    H1 9714   2.148   5.165   2.435
 3236TIP3    H2 9715   2.069   5.285   2.485
 3237TIP3   OH2 9716   6.091   5.764   2.717
 3237TIP3    H1 9717   6.102   5.670   2.732
 3237TIP3    H2 9718   6.076   5.800   2.804
 3238TIP3   OH2 9719   0.412   0.367   3.499
 3238TIP3    H1 9720   0.414   0.302   3.429
 3238TIP3    H2 9721   0.391   0.450   3.456
 3239TIP3   OH2 9722   2.820   1.276   4.344
 3239TIP3    H1 9723   2.849   1.190   4.375
 3239TIP3    H2 9724   2.764   1.256   4.268
 3240TIP3   OH2 9725   3.220   2.719   1.862
 3240TIP3    H1 9726   3.128   2.697   1.878
 3240TIP3    H2 9727   3.239   2.680   1.777
 3241TIP3   OH2 9728   5.177   3.494   3.495
 3241TIP3    H1 9729   5.204   3.418   3.443
 3241TIP3    H2 9730   5.223   3.567   3.454
 3242TIP3   OH2 9731   2.512   0.525   2.915
 3242TIP3    H1 9732   2.508   0.598   2.977
 3242TIP3    H2 9733   2.491   0.448   2.968
 3243TIP3   OH2 9734   0.055   2.750   3.737
 3243TIP3    H1 9735   0.121   2.682   3.727
 3243TIP3    H2 9736  -0.022   2.703   3.770
 3244TIP3   OH2 9737   2.052   2.902   1.339
 3244TIP3    H1 9738   2.071   2.972   1.276
 3244TIP3    H2 9739   1.956   2.900   1.345
 3245TIP3   OH2 9740   0.896   3.735   0.880
 3245TIP3    H1 9741   0.929   3.777   0.959
 3245TIP3    H2 9742   0.974   3.724   0.825
 3246TIP3   OH2 9743   6.044   2.754   3.192
 3246TIP3    H1 9744   5.949   2.758   3.193
 3246TIP3    H2 9745   6.065   2.662   3.175
 3247TIP3   OH2 9746   1.702   5.018   2.107
 3247TIP3    H1 9747   1.790   5.031   2.073
 3247TIP3    H2 9748   1.706   5.044   2.199
 3248TIP3   OH2 9749   2.437   0.482   1.361
 3248TIP3    H1 9750   2.357   0.459   1.409
 3248TIP3    H2 9751   2.483   0.542   1.419
 3249TIP3   OH2 9752   2.011   3.053   1.650
 3249TIP3    H1 9753   2.033   2.979   1.706
 3249TIP3    H2 9754   1.937   3.021   1.597
 3250TIP3   OH2 9755   5.475   5.364   5.113
 3250TIP3    H1 9756   5.414   5.333   5.046
 3250TIP3    H2 9757   5.486   5.457   5.095
 3251TIP3   OH2 9758   3.936   3.594   3.378
 3251TIP3    H1 9759   3.986   3.671   3.350
 3251TIP3    H2 9760   3.866   3.586   3.313
 3252TIP3   OH2 9761   0.072   0.519   0.937
 3252TIP3    H1 9762   0.060   0.440   0.885
 3252TIP3    H2 9763  -0.009   0.568   0.925
 3253TIP3   OH2 9764   2.754   4.324   1.844
 3253TIP3    H1 9765   2.761   4.414   1.876
 3253TIP3    H2 9766   2.673   4.323   1.793
 3254TIP3   OH2 9767   0.303   1.727   4.326
 3254TIP3    H1 9768   0.312   1.723   4.422
 3254TIP3    H2 9769   0.258   1.646   4.303
 3255TIP3   OH2 9770   4.873   2.237   1.284
 3255TIP3    H1 9771   4.830   2.259   1.366
 3255TIP3    H2 9772   4.922   2.157   1.302
 3256TIP3   OH2 9773   2.287   5.399   3.872
 3256TIP3    H1 9774   2.194   5.388   3.892
 3256TIP3    H2 9775   2.309   5.323   3.818
 3257TIP3   OH2 9776   4.727   4.058   3.761
 3257TIP3    H1 9777   4.716   4.063   3.666
 3257TIP3    H2 9778   4.786   3.984   3.775
 3258TIP3   OH2 9779   2.443   2.122   0.529
 3258TIP3    H1 9780   2.397   2.100   0.449
 3258TIP3    H2 9781   2.424   2.050   0.589
 3259TIP3   OH2 9782   1.057   4.335   4.006
 3259TIP3    H1 9783   1.063   4.332   3.911
 3259TIP3    H2 9784   1.102   4.255   4.035
 3260TIP3   OH2 9785   4.006   0.438   1.867
 3260TIP3    H1 9786   4.064   0.458   1.793
 3260TIP3    H2 9787   4.035   0.353   1.899
 3261TIP3   OH2 9788   1.846   3.089   4.170
 3261TIP3    H1 9789   1.827   3.182   4.181
 3261TIP3    H2 9790   1.793   3.045   4.236
 3262TIP3   OH2 9791   2.232   3.199   0.889
 3262TIP3    H1 9792   2.277   3.117   0.867
 3262TIP3    H2 9793   2.199   3.232   0.805
 3263TIP3   OH2 9794   0.241   0.634   1.380
 3263TIP3    H1 9795   0.180   0.594   1.318
 3263TIP3    H2 9796   0.259   0.721   1.343
 3264TIP3   OH2 9797   3.645   1.229   2.858
 3264TIP3    H1 9798   3.707   1.296   2.833
 3264TIP3    H2 9799   3.605   1.200   2.775
 3265TIP3   OH2 9800   0.975   1.964   4.210
 3265TIP3    H1 9801   0.938   2.039   4.164
 3265TIP3    H2 9802   0.946   1.975   4.300
 3266TIP3   OH2 9803   1.236   3.452   4.259
 3266TIP3    H1 9804   1.331   3.444   4.250
 3266TIP3    H2 9805   1.201   3.373   4.218
 3267TIP3   OH2 9806   1.356   4.539   0.312
 3267TIP3    H1 9807   1.346   4.590   0.232
 3267TIP3    H2 9808   1.282   4.566   0.367
 3268TIP3   OH2 9809   4.321   1.989   2.546
 3268TIP3    H1 9810   4.360   1.922   2.490
 3268TIP3    H2 9811   4.272   2.045   2.485
 3269TIP3   OH2 9812   1.959   2.054   2.575
 3269TIP3    H1 9813   1.996   1.969   2.599
 3269TIP3    H2 9814   1.869   2.034   2.550
 3270TIP3   OH2 9815   1.429   1.761   0.418
 3270TIP3    H1 9816   1.396   1.739   0.506
 3270TIP3    H2 9817   1.451   1.854   0.424
 3271TIP3   OH2 9818   5.968   3.247   1.701
 3271TIP3    H1 9819   6.021   3.312   1.747
 3271TIP3    H2 9820   5.911   3.298   1.643
 3272TIP3   OH2 9821   1.830   3.588   3.557
 3272TIP3    H1 9822   1.797   3.570   3.469
 3272TIP3    H2 9823   1.924   3.574   3.551
 3273TIP3   OH2 9824   1.138   3.767   1.052
 3273TIP3    H1 9825   1.150   3.702   0.983
 3273TIP3    H2 9826   1.141   3.716   1.133
 3274TIP3   OH2 9827   0.810   0.888   2.350
 3274TIP3    H1 9828   0.879   0.915   2.289
 3274TIP3    H2 9829   0.735   0.942   2.325
 3275TIP3   OH2 9830   1.527   3.900   2.741
 3275TIP3    H1 9831   1.458   3.963   2.759
 3275TIP3    H2 9832   1.487   3.814   2.756
 3276TIP3   OH2 9833   1.867   0.003   0.667
 3276TIP3    H1 9834   1.918   0.076   0.631
 3276TIP3    H2 9835   1.838   0.035   0.753
 3277TIP3   OH2 9836   3.974   1.114   1.456
 3277TIP3    H1 9837   3.973   1.018   1.455
 3277TIP3    H2 9838   3.933   1.140   1.374
 3278TIP3   OH2 9839   4.619   5.547   0.453
 3278TIP3    H1 9840   4.682   5.476   0.441
 3278TIP3    H2 9841   4.666   5.611   0.506
 3279TIP3   OH2 9842   4.324   3.315   3.085
 3279TIP3    H1 9843   4.294   3.231   3.049
 3279TIP3    H2 9844   4.245   3.353   3.125
 3280TIP3   OH2 9845   3.995   4.190   4.350
 3280TIP3    H1 9846   3.926   4.257   4.349
 3280TIP3    H2 9847   4.066   4.230   4.401
 3281TIP3   OH2 9848   2.657   5.682   4.689
 3281TIP3    H1 9849   2.605   5.756   4.658
 3281TIP3    H2 9850   2.748   5.709   4.676
 3282TIP3   OH2 9851   6.024   5.891   3.429
 3282TIP3    H1 9852   5.990   5.833   3.497
 3282TIP3    H2 9853   6.094   5.940   3.472
 3283TIP3   OH2 9854   3.812   5.574   3.837
 3283TIP3    H1 9855   3.850   5.608   3.918
 3283TIP3    H2 9856   3.720   5.600   3.841
 3284TIP3   OH2 9857   0.507   5.830   1.433
 3284TIP3    H1 9858   0.602   5.820   1.427
 3284TIP3    H2 9859   0.492   5.924   1.425
 3285TIP3   OH2 9860   5.635   2.913   3.484
 3285TIP3    H1 9861   5.620   2.992   3.433
 3285TIP3    H2 9862   5.566   2.852   3.454
 3286TIP3   OH2 9863   0.294   5.420   3.062
 3286TIP3    H1 9864   0.208   5.419   3.104
 3286TIP3    H2 9865   0.275   5.428   2.969
 3287TIP3   OH2 9866   2.564   1.361   0.773
 3287TIP3    H1 9867   2.468   1.361   0.776
 3287TIP3    H2 9868   2.587   1.272   0.747
 3288TIP3   OH2 9869   2.048   1.384   2.641
 3288TIP3    H1 9870   2.130   1.429   2.663
 3288TIP3    H2 9871   2.059   1.356   2.550
 3289TIP3   OH2 9872   1.270   4.074   2.284
 3289TIP3    H1 9873   1.217   4.120   2.349
 3289TIP3    H2 9874   1.358   4.072   2.321
 3290TIP3   OH2 9875   2.740   3.384   1.056
 3290TIP3    H1 9876   2.757   3.444   1.129
 3290TIP3    H2 9877   2.684   3.316   1.093
 3291TIP3   OH2 9878   0.639   2.923   4.457
 3291TIP3    H1 9879   0.611   2.878   4.537
 3291TIP3    H2 9880   0.559   2.935   4.406
 3292TIP3   OH2 9881   2.200   0.009   4.330
 3292TIP3    H1 9882   2.264   0.019   4.400
 3292TIP3    H2 9883   2.162   0.096   4.321
 3293TIP3   OH2 9884   5.163   4.163   3.683
 3293TIP3    H1 9885   5.113   4.107   3.743
 3293TIP3    H2 9886   5.190   4.104   3.613
 3294TIP3   OH2 9887   5.685   0.545   3.673
 3294TIP3    H1 9888   5.591   0.547   3.659
 3294TIP3    H2 9889   5.719   0.489   3.603
 3295TIP3   OH2 9890   4.332   0.326   2.670
 3295TIP3    H1 9891   4.392   0.400   2.680
 3295TIP3    H2 9892   4.259   0.345   2.729
 3296TIP3   OH2 9893   1.012   5.725   4.989
 3296TIP3    H1 9894   1.104   5.699   4.995
 3296TIP3    H2 9895   1.002   5.797   5.051
 3297TIP3   OH2 9896   0.750   5.332   0.844
 3297TIP3    H1 9897   0.812   5.315   0.914
 3297TIP3    H2 9898   0.667   5.297   0.877
 3298TIP3   OH2 9899   3.990   1.864   4.557
 3298TIP3    H1 9900   3.915   1.806   4.571
 3298TIP3    H2 9901   3.952   1.952   4.561
 3299TIP3   OH2 9902   0.631   5.076   4.952
 3299TIP3    H1 9903   0.724   5.062   4.969
 3299TIP3    H2 9904   0.626   5.164   4.915
 3300TIP3   OH2 9905   2.158   0.945   4.168
 3300TIP3    H1 9906   2.070   0.937   4.131
 3300TIP3    H2 9907   2.143   0.960   4.262
 3301TIP3   OH2 9908   4.223   5.321   4.066
 3301TIP3    H1 9909   4.277   5.288   3.994
 3301TIP3    H2 9910   4.273   5.394   4.101
 3302TIP3   OH2 9911   0.693   0.214   4.959
 3302TIP3    H1 9912   0.700   0.219   5.054
 3302TIP3    H2 9913   0.714   0.123   4.938
 3303TIP3   OH2 9914   5.405   2.159   3.583
 3303TIP3    H1 9915   5.369   2.241   3.548
 3303TIP3    H2 9916   5.489   2.184   3.621
 3304TIP3   OH2 9917   2.849   5.321   4.543
 3304TIP3    H1 9918   2.826   5.234   4.511
 3304TIP3    H2 9919   2.770   5.354   4.586
 3305TIP3   OH2 9920   5.769   4.598   5.031
 3305TIP3    H1 9921   5.706   4.558   4.972
 3305TIP3    H2 9922   5.766   4.544   5.110
 3306TIP3   OH2 9923   0.568   0.901   4.623
 3306TIP3    H1 9924   0.536   0.964   4.687
 3306TIP3    H2 9925   0.501   0.899   4.554
 3307TIP3   OH2 9926   1.656   2.934   1.478
 3307TIP3    H1 9927   1.561   2.942   1.470
 3307TIP3    H2 9928   1.691   2.994   1.411
 3308TIP3   OH2 9929   2.927   3.397   2.297
 3308TIP3    H1 9930   2.879   3.387   2.215
 3308TIP3    H2 9931   3.016   3.423   2.270
 3309TIP3   OH2 9932   5.057   2.468   1.587
 3309TIP3    H1 9933   5.102   2.389   1.619
 3309TIP3    H2 9934   5.117   2.504   1.522
 3310TIP3   OH2 9935   5.231   1.421   0.682
 3310TIP3    H1 9936   5.273   1.498   0.644
 3310TIP3    H2 9937   5.281   1.404   0.762
 3311TIP3   OH2 9938   2.497   3.999   0.714
 3311TIP3    H1 9939   2.560   4.068   0.694
 3311TIP3    H2 9940   2.436   4.040   0.775
 3312TIP3   OH2 9941   4.409   0.484   1.354
 3312TIP3    H1 9942   4.368   0.409   1.312
 3312TIP3    H2 9943   4.503   0.472   1.339
 3313TIP3   OH2 9944   3.917   5.364   0.305
 3313TIP3    H1 9945   3.896   5.373   0.212
 3313TIP3    H2 9946   4.004   5.402   0.313
 3314TIP3   OH2 9947   3.069   5.925   2.159
 3314TIP3    H1 9948   3.157   5.890   2.173
 3314TIP3    H2 9949   3.011   5.854   2.184
 3315TIP3   OH2 9950   0.047   0.553   4.069
 3315TIP3    H1 9951   0.043   0.589   3.980
 3315TIP3    H2 9952   0.139   0.532   4.083
 3316TIP3   OH2 9953   4.418   4.355   3.792
 3316TIP3    H1 9954   4.502   4.339   3.835
 3316TIP3    H2 9955   4.361   4.286   3.825
 3317TIP3   OH2 9956   0.850   3.681   1.728
 3317TIP3    H1 9957   0.805   3.731   1.796
 3317TIP3    H2 9958   0.829   3.726   1.646
 3318TIP3   OH2 9959   1.954   1.991   3.700
 3318TIP3    H1 9960   2.034   1.938   3.688
 3318TIP3    H2 9961   1.986   2.072   3.741
 3319TIP3   OH2 9962   3.727   1.682   4.876
 3319TIP3    H1 9963   3.708   1.750   4.941
 3319TIP3    H2 9964   3.647   1.678   4.822
 3320TIP3   OH2 9965   2.487   5.137   1.653
 3320TIP3    H1 9966   2.437   5.153   1.733
 3320TIP3    H2 9967   2.493   5.223   1.611
 3321TIP3   OH2 9968   2.952   4.447   2.999
 3321TIP3    H1 9969   2.858   4.435   2.987
 3321TIP3    H2 9970   2.973   4.525   2.948
 3322TIP3   OH2 9971   0.218   0.697   0.377
 3322TIP3    H1 9972   0.232   0.791   0.381
 3322TIP3    H2 9973   0.241   0.673   0.287
 3323TIP3   OH2 9974   2.450   2.894   3.052
 3323TIP3    H1 9975   2.474   2.806   3.081
 3323TIP3    H2 9976   2.516   2.951   3.090
 3324TIP3   OH2 9977   2.092   0.450   4.116
 3324TIP3    H1 9978   2.044   0.428   4.197
 3324TIP3    H2 9979   2.031   0.503   4.066
 3325TIP3   OH2 9980   4.285   3.579   4.603
 3325TIP3    H1 9981   4.308   3.542   4.518
 3325TIP3    H2 9982   4.355   3.643   4.621
 3326TIP3   OH2 9983   3.603   2.031   3.478
 3326TIP3    H1 9984   3.687   2.064   3.445
 3326TIP3    H2 9985   3.625   1.995   3.565
 3327TIP3   OH2 9986   0.289   1.382   4.144
 3327TIP3    H1 9987   0.235   1.453   4.109
 3327TIP3    H2 9988   0.279   1.389   4.239
 3328TIP3   OH2 9989   0.333   3.370   0.905
 3328TIP3    H1 9990   0.315   3.444   0.846
 3328TIP3    H2 9991   0.251   3.319   0.905
 3329TIP3   OH2 9992   2.595   3.038   3.219
 3329TIP3    H1 9993   2.577   3.130   3.237
 3329TIP3    H2 9994   2.610   3.000   3.306
 3330TIP3   OH2 9995   4.742   2.450   2.389
 3330TIP3    H1 9996   4.653   2.429   2.418
 3330TIP3    H2 9997   4.735   2.458   2.294
 3331TIP3   OH2 9998   1.755   3.904   4.425
 3331TIP3    H1 9999   1.699   3.836   4.386
 3331TIP3    H210000   1.843   3.866   4.422
 3332TIP3   OH210001   1.618   0.146   1.132
 3332TIP3    H110002   1.535   0.129   1.177
 3332TIP3    H210003   1.670   0.196   1.195
 3333TIP3   OH210004   2.063   3.835   2.266
 3333TIP3    H110005   2.110   3.864   2.344
 3333TIP3    H210006   2.085   3.742   2.258
 3334TIP3   OH210007   2.881   3.653   3.056
 3334TIP3    H110008   2.946   3.674   3.122
 3334TIP3    H210009   2.899   3.714   2.984
 3335TIP3   OH210010   4.285   2.425   1.149
 3335TIP3    H110011   4.359   2.479   1.121
 3335TIP3    H210012   4.277   2.357   1.082
 3336TIP3   OH210013   4.506   3.727   0.688
 3336TIP3    H110014   4.512   3.805   0.743
 3336TIP3    H210015   4.589   3.725   0.641
 3337TIP3   OH210016   5.063   3.338   2.087
 3337TIP3    H110017   5.098   3.249   2.099
 3337TIP3    H210018   5.094   3.386   2.163
 3338TIP3   OH210019   2.472   2.824   2.712
 3338TIP3    H110020   2.394   2.839   2.658
 3338TIP3    H210021   2.437   2.807   2.800
 3339TIP3   OH210022   0.302   0.481   1.587
 3339TIP3    H110023   0.262   0.542   1.526
 3339TIP3    H210024   0.282   0.517   1.674
 3340TIP3   OH210025   4.689   5.880   1.422
 3340TIP3    H110026   4.640   5.849   1.346
 3340TIP3    H210027   4.774   5.837   1.415
 3341TIP3   OH210028   5.516   5.061   0.532
 3341TIP3    H110029   5.445   4.996   0.530
 3341TIP3    H210030   5.554   5.057   0.444
 3342TIP3   OH210031   1.799   0.278   1.815
 3342TIP3    H110032   1.790   0.356   1.869
 3342TIP3    H210033   1.715   0.271   1.769
 3343TIP3   OH210034   0.246   0.802   4.695
 3343TIP3    H110035   0.154   0.809   4.670
 3343TIP3    H210036   0.268   0.710   4.678
 3344TIP3   OH210037   3.798   4.261   1.464
 3344TIP3    H110038   3.798   4.172   1.497
 3344TIP3    H210039   3.798   4.316   1.543
 3345TIP3   OH210040   2.957   1.238   3.193
 3345TIP3    H110041   3.029   1.282   3.148
 3345TIP3    H210042   2.881   1.254   3.138
 3346TIP3   OH210043   0.190   5.038   0.479
 3346TIP3    H110044   0.123   5.106   0.478
 3346TIP3    H210045   0.214   5.030   0.571
 3347TIP3   OH210046   1.749   5.679   1.385
 3347TIP3    H110047   1.772   5.595   1.426
 3347TIP3    H210048   1.655   5.688   1.399
 3348TIP3   OH210049   4.132   3.815   1.021
 3348TIP3    H110050   4.123   3.886   1.085
 3348TIP3    H210051   4.190   3.752   1.064
 3349TIP3   OH210052   3.000   4.892   1.710
 3349TIP3    H110053   2.926   4.868   1.655
 3349TIP3    H210054   2.966   4.959   1.769
 3350TIP3   OH210055   2.778   5.823   1.210
 3350TIP3    H110056   2.827   5.741   1.214
 3350TIP3    H210057   2.791   5.863   1.296
 3351TIP3   OH210058   0.303   0.437   4.334
 3351TIP3    H110059   0.301   0.364   4.396
 3351TIP3    H210060   0.286   0.397   4.249
 3352TIP3   OH210061   1.160   0.058   0.944
 3352TIP3    H110062   1.066   0.048   0.956
 3352TIP3    H210063   1.199   0.006   1.015
 3353TIP3   OH210064   1.485   0.419   3.684
 3353TIP3    H110065   1.421   0.415   3.613
 3353TIP3    H210066   1.569   0.402   3.641
 3354TIP3   OH210067   2.224   1.787   4.115
 3354TIP3    H110068   2.171   1.798   4.194
 3354TIP3    H210069   2.195   1.703   4.078
 3355TIP3   OH210070   1.825   4.285   3.906
 3355TIP3    H110071   1.814   4.336   3.987
 3355TIP3    H210072   1.892   4.332   3.857
 3356TIP3   OH210073   4.563   2.487   2.732
 3356TIP3    H110074   4.610   2.415   2.773
 3356TIP3    H210075   4.599   2.566   2.774
 3357TIP3   OH210076   0.578   4.192   4.945
 3357TIP3    H110077   0.526   4.267   4.916
 3357TIP3    H210078   0.551   4.177   5.035
 3358TIP3   OH210079   4.429   0.605   4.053
 3358TIP3    H110080   4.458   0.515   4.061
 3358TIP3    H210081   4.367   0.604   3.980
 3359TIP3   OH210082   3.340   4.202   0.224
 3359TIP3    H110083   3.359   4.243   0.308
 3359TIP3    H210084   3.401   4.244   0.163
 3360TIP3   OH210085   0.780   3.026   2.789
 3360TIP3    H110086   0.771   3.059   2.700
 3360TIP3    H210087   0.868   3.055   2.816
 3361TIP3   OH210088   0.671   0.927   4.231
 3361TIP3    H110089   0.588   0.931   4.278
 3361TIP3    H210090   0.724   0.865   4.281
 3362TIP3   OH210091   5.407   0.283   1.356
 3362TIP3    H110092   5.459   0.215   1.399
 3362TIP3    H210093   5.329   0.237   1.324
 3363TIP3   OH210094   3.533   1.090   3.738
 3363TIP3    H110095   3.471   1.137   3.683
 3363TIP3    H210096   3.580   1.159   3.785
 3364TIP3   OH210097   0.464   2.132   1.543
 3364TIP3    H110098   0.522   2.055   1.545
 3364TIP3    H210099   0.437   2.138   1.451
 3365TIP3   OH210100   6.072   4.962   2.039
 3365TIP3    H110101   6.107   5.044   2.076
 3365TIP3    H210102   6.076   4.900   2.112
 3366TIP3   OH210103   0.174   3.385   2.330
 3366TIP3    H110104   0.196   3.467   2.285
 3366TIP3    H210105   0.113   3.341   2.271
 3367TIP3   OH210106   4.591   2.197   0.394
 3367TIP3    H110107   4.542   2.221   0.315
 3367TIP3    H210108   4.596   2.278   0.444
 3368TIP3   OH210109   1.098   0.301   2.462
 3368TIP3    H110110   1.163   0.282   2.530
 3368TIP3    H210111   1.113   0.393   2.440
 3369TIP3   OH210112   2.652   4.284   0.448
 3369TIP3    H110113   2.586   4.321   0.506
 3369TIP3    H210114   2.638   4.189   0.452
 3370TIP3   OH210115   1.943   0.534   2.537
 3370TIP3    H110116   1.969   0.597   2.469
 3370TIP3    H210117   1.887   0.472   2.491
 3371TIP3   OH210118   5.992   0.470   2.728
 3371TIP3    H110119   6.022   0.386   2.692
 3371TIP3    H210120   5.978   0.525   2.651
 3372TIP3   OH210121   4.204   4.699   1.513
 3372TIP3    H110122   4.210   4.775   1.456
 3372TIP3    H210123   4.270   4.715   1.580
 3373TIP3   OH210124   0.254   2.316   3.467
 3373TIP3    H110125   0.277   2.383   3.403
 3373TIP3    H210126   0.161   2.332   3.486
 3374TIP3   OH210127   0.693   0.763   3.984
 3374TIP3    H110128   0.679   0.822   4.058
 3374TIP3    H210129   0.775   0.719   4.004
 3375TIP3   OH210130   6.018   4.066   1.848
 3375TIP3    H110131   5.997   4.022   1.930
 3375TIP3    H210132   5.933   4.087   1.809
 3376TIP3   OH210133   1.763   2.549   2.839
 3376TIP3    H110134   1.785   2.478   2.779
 3376TIP3    H210135   1.710   2.609   2.786
 3377TIP3   OH210136   3.330   2.877   0.286
 3377TIP3    H110137   3.409   2.900   0.335
 3377TIP3    H210138   3.259   2.881   0.351
 3378TIP3   OH210139   1.206   5.008   3.134
 3378TIP3    H110140   1.186   4.924   3.093
 3378TIP3    H210141   1.133   5.022   3.195
 3379TIP3   OH210142   5.086   2.041   3.454
 3379TIP3    H110143   5.088   2.111   3.388
 3379TIP3    H210144   5.001   2.052   3.497
 3380TIP3   OH210145   6.047   0.870   3.204
 3380TIP3    H110146   6.131   0.915   3.190
 3380TIP3    H210147   6.057   0.828   3.290
 3381TIP3   OH210148   5.024   4.513   0.982
 3381TIP3    H110149   5.112   4.522   1.020
 3381TIP3    H210150   5.038   4.467   0.900
 3382TIP3   OH210151   0.115   5.778   1.339
 3382TIP3    H110152   0.079   5.719   1.405
 3382TIP3    H210153   0.055   5.852   1.337
 3383TIP3   OH210154   3.026   3.029   4.312
 3383TIP3    H110155   2.950   3.086   4.305
 3383TIP3    H210156   3.081   3.052   4.236
 3384TIP3   OH210157   0.380   4.559   1.299
 3384TIP3    H110158   0.372   4.654   1.303
 3384TIP3    H210159   0.291   4.526   1.310
 3385TIP3   OH210160   5.656   3.952   1.169
 3385TIP3    H110161   5.711   3.946   1.091
 3385TIP3    H210162   5.603   4.031   1.155
 3386TIP3   OH210163   5.641   0.374   0.784
 3386TIP3    H110164   5.573   0.413   0.730
 3386TIP3    H210165   5.596   0.350   0.866
 3387TIP3   OH210166   0.058   0.143   1.443
 3387TIP3    H110167   0.137   0.195   1.457
 3387TIP3    H210168   0.090   0.062   1.401
 3388TIP3   OH210169   2.076   2.539   4.500
 3388TIP3    H110170   2.164   2.521   4.532
 3388TIP3    H210171   2.027   2.569   4.577
 3389TIP3   OH210172   4.326   0.269   5.196
 3389TIP3    H110173   4.260   0.338   5.202
 3389TIP3    H210174   4.293   0.210   5.128
 3390TIP3   OH210175   4.996   4.146   0.767
 3390TIP3    H110176   4.938   4.180   0.699
 3390TIP3    H210177   4.948   4.159   0.849
 3391TIP3   OH210178   2.738   2.704   5.015
 3391TIP3    H110179   2.749   2.785   5.066
 3391TIP3    H210180   2.732   2.733   4.924
 3392TIP3   OH210181   2.068   1.179   3.949
 3392TIP3    H110182   2.112   1.191   4.033
 3392TIP3    H210183   2.014   1.101   3.963
 3393TIP3   OH210184   0.083   4.517   1.335
 3393TIP3    H110185   0.099   4.491   1.426
 3393TIP3    H210186   0.014   4.583   1.341
 3394TIP3   OH210187   4.622   0.844   1.824
 3394TIP3    H110188   4.669   0.922   1.851
 3394TIP3    H210189   4.689   0.788   1.785
 3395TIP3   OH210190   3.428   2.237   4.576
 3395TIP3    H110191   3.379   2.265   4.654
 3395TIP3    H210192   3.372   2.171   4.536
 3396TIP3   OH210193   5.745   1.417   2.818
 3396TIP3    H110194   5.684   1.414   2.744
 3396TIP3    H210195   5.690   1.427   2.895
 3397TIP3   OH210196   3.793   3.983   1.480
 3397TIP3    H110197   3.854   3.911   1.466
 3397TIP3    H210198   3.779   3.984   1.575
 3398TIP3   OH210199   2.010   0.121   0.212
 3398TIP3    H110200   1.937   0.063   0.234
 3398TIP3    H210201   1.971   0.189   0.157
 3399TIP3   OH210202   2.408   0.648   4.917
 3399TIP3    H110203   2.380   0.566   4.875
 3399TIP3    H210204   2.340   0.711   4.894
 3400TIP3   OH210205   0.690   5.718   4.640
 3400TIP3    H110206   0.733   5.677   4.715
 3400TIP3    H210207   0.701   5.655   4.569
 3401TIP3   OH210208   5.921   0.578   3.005
 3401TIP3    H110209   5.962   0.543   2.926
 3401TIP3    H210210   5.988   0.567   3.073
 3402TIP3   OH210211   3.156   4.804   2.227
 3402TIP3    H110212   3.202   4.831   2.148
 3402TIP3    H210213   3.077   4.760   2.195
 3403TIP3   OH210214   1.460   2.705   3.654
 3403TIP3    H110215   1.421   2.786   3.623
 3403TIP3    H210216   1.390   2.661   3.701
 3404TIP3   OH210217   0.599   3.199   0.652
 3404TIP3    H110218   0.616   3.289   0.681
 3404TIP3    H210219   0.634   3.196   0.563
 3405TIP3   OH210220   5.123   5.950   1.021
 3405TIP3    H110221   5.061   5.897   1.072
 3405TIP3    H210222   5.070   6.024   0.989
 3406TIP3   OH210223   5.119   4.844   0.720
 3406TIP3    H110224   5.099   4.932   0.690
 3406TIP3    H210225   5.039   4.815   0.764
 3407TIP3   OH210226   5.097   0.134   3.628
 3407TIP3    H110227   5.188   0.116   3.650
 3407TIP3    H210228   5.085   0.094   3.542
 3408TIP3   OH210229   1.855   2.813   1.691
 3408TIP3    H110230   1.836   2.721   1.673
 3408TIP3    H210231   1.769   2.855   1.698
 3409TIP3   OH210232   4.516   0.126   2.728
 3409TIP3    H110233   4.525   0.122   2.823
 3409TIP3    H210234   4.427   0.159   2.714
 3410TIP3   OH210235   4.197   1.183   4.482
 3410TIP3    H110236   4.216   1.131   4.560
 3410TIP3    H210237   4.149   1.259   4.514
 3411TIP3   OH210238   1.106   0.299   3.373
 3411TIP3    H110239   1.131   0.215   3.336
 3411TIP3    H210240   1.094   0.282   3.466
 3412TIP3   OH210241   5.982   3.028   1.535
 3412TIP3    H110242   6.051   2.968   1.565
 3412TIP3    H210243   5.982   3.099   1.599
 3413TIP3   OH210244   5.138   0.547   2.755
 3413TIP3    H110245   5.217   0.591   2.786
 3413TIP3    H210246   5.170   0.473   2.703
 3414TIP3   OH210247   2.248   3.139   0.537
 3414TIP3    H110248   2.235   3.226   0.500
 3414TIP3    H210249   2.228   3.079   0.465
 3415TIP3   OH210250   3.695   4.801   1.192
 3415TIP3    H110251   3.735   4.845   1.117
 3415TIP3    H210252   3.715   4.709   1.181
 3416TIP3   OH210253   0.623   1.446   1.949
 3416TIP3    H110254   0.622   1.373   2.011
 3416TIP3    H210255   0.715   1.455   1.924
 3417TIP3   OH210256   6.061   3.500   5.045
 3417TIP3    H110257   6.118   3.433   5.009
 3417TIP3    H210258   6.049   3.562   4.973
 3418TIP3   OH210259   4.428   3.628   5.013
 3418TIP3    H110260   4.437   3.674   5.096
 3418TIP3    H210261   4.464   3.541   5.029
 3419TIP3   OH210262   3.314   3.582   0.865
 3419TIP3    H110263   3.349   3.577   0.954
 3419TIP3    H210264   3.382   3.628   0.816
 3420TIP3   OH210265   5.535   3.168   1.307
 3420TIP3    H110266   5.526   3.145   1.214
 3420TIP3    H210267   5.607   3.112   1.338
 3421TIP3   OH210268   0.108   3.283   4.082
 3421TIP3    H110269   0.129   3.276   3.989
 3421TIP3    H210270   0.024   3.238   4.091
 3422TIP3   OH210271   4.070   2.719   3.857
 3422TIP3    H110272   4.039   2.631   3.876
 3422TIP3    H210273   4.008   2.753   3.793
 3423TIP3   OH210274   2.258   1.465   0.750
 3423TIP3    H110275   2.258   1.371   0.769
 3423TIP3    H210276   2.202   1.503   0.817
 3424TIP3   OH210277   0.254   4.166   0.667
 3424TIP3    H110278   0.186   4.223   0.704
 3424TIP3    H210279   0.336   4.201   0.703
 3425TIP3   OH210280   0.515   3.549   2.307
 3425TIP3    H110281   0.516   3.644   2.303
 3425TIP3    H210282   0.550   3.528   2.394
 3426TIP3   OH210283   3.350   4.976   4.359
 3426TIP3    H110284   3.277   5.035   4.342
 3426TIP3    H210285   3.312   4.907   4.414
 3427TIP3   OH210286   5.515   3.492   3.129
 3427TIP3    H110287   5.570   3.432   3.079
 3427TIP3    H210288   5.447   3.520   3.067
 3428TIP3   OH210289   4.931   0.874   2.809
 3428TIP3    H110290   5.009   0.926   2.791
 3428TIP3    H210291   4.893   0.858   2.723
 3429TIP3   OH210292   5.770   5.459   4.134
 3429TIP3    H110293   5.694   5.430   4.185
 3429TIP3    H210294   5.844   5.451   4.194
 3430TIP3   OH210295   2.257   1.955   0.670
 3430TIP3    H110296   2.299   1.899   0.735
 3430TIP3    H210297   2.170   1.972   0.705
 3431TIP3   OH210298   4.745   1.145   3.536
 3431TIP3    H110299   4.785   1.218   3.583
 3431TIP3    H210300   4.775   1.155   3.446
 3432TIP3   OH210301   5.663   1.820   1.416
 3432TIP3    H110302   5.722   1.792   1.346
 3432TIP3    H210303   5.599   1.749   1.423
 3433TIP3   OH210304   2.652   3.818   5.086
 3433TIP3    H110305   2.701   3.770   5.151
 3433TIP3    H210306   2.611   3.890   5.134
 3434TIP3   OH210307   4.408   1.367   1.389
 3434TIP3    H110308   4.355   1.409   1.320
 3434TIP3    H210309   4.455   1.298   1.344
 3435TIP3   OH210310   1.274   3.465   2.509
 3435TIP3    H110311   1.361   3.430   2.493
 3435TIP3    H210312   1.248   3.429   2.594
 3436TIP3   OH210313   0.849   0.481   1.958
 3436TIP3    H110314   0.902   0.549   1.917
 3436TIP3    H210315   0.905   0.404   1.958
 3437TIP3   OH210316   0.227   0.562   4.936
 3437TIP3    H110317   0.299   0.516   4.893
 3437TIP3    H210318   0.155   0.557   4.874
 3438TIP3   OH210319   2.060   0.061   3.285
 3438TIP3    H110320   1.995   0.102   3.228
 3438TIP3    H210321   2.030   0.081   3.374
 3439TIP3   OH210322   6.072   5.866   1.471
 3439TIP3    H110323   6.002   5.929   1.488
 3439TIP3    H210324   6.027   5.785   1.449
 3440TIP3   OH210325   4.191   0.666   4.990
 3440TIP3    H110326   4.110   0.652   4.941
 3440TIP3    H210327   4.189   0.758   5.015
 3441TIP3   OH210328   6.153   2.818   2.599
 3441TIP3    H110329   6.105   2.888   2.554
 3441TIP3    H210330   6.139   2.836   2.692
 3442TIP3   OH210331   2.965   4.680   0.502
 3442TIP3    H110332   2.933   4.625   0.573
 3442TIP3    H210333   3.006   4.619   0.441
 3443TIP3   OH210334   2.501   1.941   1.437
 3443TIP3    H110335   2.431   2.001   1.410
 3443TIP3    H210336   2.456   1.857   1.451
 3444TIP3   OH210337   5.800   4.895   4.631
 3444TIP3    H110338   5.832   4.981   4.602
 3444TIP3    H210339   5.866   4.833   4.601
 3445TIP3   OH210340   5.709   3.414   4.183
 3445TIP3    H110341   5.691   3.320   4.188
 3445TIP3    H210342   5.717   3.431   4.089
 3446TIP3   OH210343   0.752   5.643   4.925
 3446TIP3    H110344   0.744   5.560   4.973
 3446TIP3    H210345   0.846   5.663   4.929
 3447TIP3   OH210346   2.247   3.190   2.664
 3447TIP3    H110347   2.239   3.136   2.585
 3447TIP3    H210348   2.331   3.164   2.702
 3448TIP3   OH210349   1.503   0.331   1.876
 3448TIP3    H110350   1.485   0.316   1.783
 3448TIP3    H210351   1.458   0.260   1.921
 3449TIP3   OH210352   1.603   4.773   4.946
 3449TIP3    H110353   1.664   4.720   4.894
 3449TIP3    H210354   1.521   4.724   4.942
 3450TIP3   OH210355   1.083   5.371   4.949
 3450TIP3    H110356   1.149   5.334   4.890
 3450TIP3    H210357   1.132   5.399   5.026
 3451TIP3   OH210358   6.188   3.421   1.818
 3451TIP3    H110359   6.237   3.477   1.879
 3451TIP3    H210360   6.182   3.336   1.863
 3452TIP3   OH210361   1.219   1.448   2.491
 3452TIP3    H110362   1.255   1.491   2.569
 3452TIP3    H210363   1.188   1.521   2.437
 3453TIP3   OH210364   2.581   0.227   1.304
 3453TIP3    H110365   2.553   0.316   1.281
 3453TIP3    H210366   2.656   0.239   1.361
 3454TIP3   OH210367   0.534   5.471   2.639
 3454TIP3    H110368   0.594   5.461   2.713
 3454TIP3    H210369   0.548   5.394   2.585
 3455TIP3   OH210370   3.177   0.232   4.371
 3455TIP3    H110371   3.249   0.196   4.423
 3455TIP3    H210372   3.154   0.314   4.416
 3456TIP3   OH210373   5.089   4.695   5.174
 3456TIP3    H110374   5.116   4.604   5.160
 3456TIP3    H210375   5.171   4.743   5.184
 3457TIP3   OH210376   4.914   5.937   1.806
 3457TIP3    H110377   4.847   6.006   1.806
 3457TIP3    H210378   4.978   5.966   1.742
 3458TIP3   OH210379   5.381   3.842   4.978
 3458TIP3    H110380   5.380   3.918   4.919
 3458TIP3    H210381   5.465   3.848   5.023
 3459TIP3   OH210382   3.797   4.335   4.122
 3459TIP3    H110383   3.831   4.296   4.041
 3459TIP3    H210384   3.729   4.274   4.150
 3460TIP3   OH210385   5.167   0.292   4.258
 3460TIP3    H110386   5.183   0.215   4.205
 3460TIP3    H210387   5.193   0.366   4.203
 3461TIP3   OH210388   2.159   1.142   2.805
 3461TIP3    H110389   2.222   1.158   2.734
 3461TIP3    H210390   2.073   1.154   2.764
 3462TIP3   OH210391   4.708   5.000   4.362
 3462TIP3    H110392   4.798   5.008   4.393
 3462TIP3    H210393   4.697   5.075   4.303
 3463TIP3   OH210394   3.549   0.455   0.287
 3463TIP3    H110395   3.466   0.503   0.288
 3463TIP3    H210396   3.572   0.449   0.194
 3464TIP3   OH210397   2.124   4.114   3.875
 3464TIP3    H110398   2.030   4.126   3.893
 3464TIP3    H210399   2.137   4.020   3.876
 3465TIP3   OH210400   2.492   1.067   0.991
 3465TIP3    H110401   2.420   1.118   0.954
 3465TIP3    H210402   2.457   0.979   1.004
 3466TIP3   OH210403   4.655   5.379   3.570
 3466TIP3    H110404   4.625   5.383   3.479
 3466TIP3    H210405   4.610   5.452   3.613
 3467TIP3   OH210406   2.113   3.034   4.166
 3467TIP3    H110407   2.021   3.061   4.167
 3467TIP3    H210408   2.115   2.960   4.105
 3468TIP3   OH210409   5.045   0.470   1.554
 3468TIP3    H110410   4.950   0.480   1.562
 3468TIP3    H210411   5.080   0.548   1.596
 3469TIP3   OH210412   4.593   5.189   4.639
 3469TIP3    H110413   4.590   5.094   4.626
 3469TIP3    H210414   4.665   5.218   4.582
 3470TIP3   OH210415   5.315   1.729   5.043
 3470TIP3    H110416   5.259   1.768   5.110
 3470TIP3    H210417   5.258   1.714   4.968
 3471TIP3   OH210418   5.195   3.001   3.197
 3471TIP3    H110419   5.236   3.002   3.110
 3471TIP3    H210420   5.185   2.908   3.217
 3472TIP3   OH210421   4.793   4.370   2.955
 3472TIP3    H110422   4.754   4.339   3.037
 3472TIP3    H210423   4.721   4.371   2.893
 3473TIP3   OH210424   5.855   4.899   3.726
 3473TIP3    H110425   5.900   4.980   3.703
 3473TIP3    H210426   5.889   4.877   3.813
 3474TIP3   OH210427   3.596   2.793   1.754
 3474TIP3    H110428   3.528   2.850   1.717
 3474TIP3    H210429   3.578   2.707   1.716
 3475TIP3   OH210430   5.907   3.928   2.074
 3475TIP3    H110431   5.838   3.897   2.015
 3475TIP3    H210432   5.967   3.853   2.083
 3476TIP3   OH210433   5.403   1.188   3.248
 3476TIP3    H110434   5.456   1.108   3.250
 3476TIP3    H210435   5.404   1.215   3.156
 3477TIP3   OH210436   2.315   2.164   0.206
 3477TIP3    H110437   2.233   2.202   0.172
 3477TIP3    H210438   2.292   2.072   0.225
 3478TIP3   OH210439   1.560   1.565   0.280
 3478TIP3    H110440   1.536   1.637   0.338
 3478TIP3    H210441   1.564   1.603   0.193
 3479TIP3   OH210442   1.957   5.345   0.101
 3479TIP3    H110443   2.045   5.326   0.070
 3479TIP3    H210444   1.900   5.284   0.054
 3480TIP3   OH210445   4.635   3.283   4.945
 3480TIP3    H110446   4.718   3.320   4.915
 3480TIP3    H210447   4.658   3.198   4.981
 3481TIP3   OH210448   5.799   0.032   2.519
 3481TIP3    H110449   5.841   0.008   2.602
 3481TIP3    H210450   5.870   0.025   2.454
 3482TIP3   OH210451   5.654   4.975   1.166
 3482TIP3    H110452   5.666   5.030   1.089
 3482TIP3    H210453   5.626   4.890   1.131
 3483TIP3   OH210454   0.536   5.585   3.994
 3483TIP3    H110455   0.463   5.574   4.056
 3483TIP3    H210456   0.612   5.599   4.050
 3484TIP3   OH210457   0.141   1.568   3.678
 3484TIP3    H110458   0.181   1.645   3.639
 3484TIP3    H210459   0.078   1.537   3.613
 3485TIP3   OH210460   0.961   1.591   3.462
 3485TIP3    H110461   1.007   1.533   3.401
 3485TIP3    H210462   0.904   1.645   3.406
 3486TIP3   OH210463   6.079   1.813   0.134
 3486TIP3    H110464   6.084   1.793   0.228
 3486TIP3    H210465   5.989   1.790   0.110
 3487TIP3   OH210466   2.597   5.406   1.805
 3487TIP3    H110467   2.667   5.457   1.765
 3487TIP3    H210468   2.530   5.398   1.737
 3488TIP3   OH210469   2.732   0.580   1.966
 3488TIP3    H110470   2.652   0.550   2.010
 3488TIP3    H210471   2.714   0.671   1.943
 3489TIP3   OH210472   1.645   3.574   3.761
 3489TIP3    H110473   1.566   3.591   3.710
 3489TIP3    H210474   1.716   3.607   3.706
 3490TIP3   OH210475   1.795   4.300   0.895
 3490TIP3    H110476   1.872   4.305   0.952
 3490TIP3    H210477   1.804   4.374   0.835
 3491TIP3   OH210478   6.047   4.983   4.762
 3491TIP3    H110479   6.009   4.896   4.744
 3491TIP3    H210480   6.135   4.964   4.795
 3492TIP3   OH210481   3.292   0.986   0.548
 3492TIP3    H110482   3.342   0.971   0.629
 3492TIP3    H210483   3.276   0.898   0.513
 3493TIP3   OH210484   1.874   5.470   4.349
 3493TIP3    H110485   1.841   5.446   4.436
 3493TIP3    H210486   1.969   5.478   4.362
 3494TIP3   OH210487   3.600   1.315   1.503
 3494TIP3    H110488   3.629   1.235   1.546
 3494TIP3    H210489   3.672   1.377   1.516
 3495TIP3   OH210490   2.874   3.386   2.995
 3495TIP3    H110491   2.862   3.478   3.017
 3495TIP3    H210492   2.925   3.350   3.067
 3496TIP3   OH210493   4.672   4.723   1.725
 3496TIP3    H110494   4.726   4.715   1.646
 3496TIP3    H210495   4.682   4.638   1.769
 3497TIP3   OH210496   5.033   1.412   1.784
 3497TIP3    H110497   5.013   1.351   1.713
 3497TIP3    H210498   4.948   1.446   1.812
 3498TIP3   OH210499   2.973   1.379   2.454
 3498TIP3    H110500   3.043   1.333   2.500
 3498TIP3    H210501   2.903   1.315   2.446
 3499TIP3   OH210502   2.491   4.030   2.304
 3499TIP3    H110503   2.434   3.955   2.284
 3499TIP3    H210504   2.575   3.990   2.327
 3500TIP3   OH210505   1.740   0.382   4.802
 3500TIP3    H110506   1.760   0.452   4.739
 3500TIP3    H210507   1.807   0.391   4.869
 3501TIP3   OH210508   0.535   5.486   3.593
 3501TIP3    H110509   0.567   5.570   3.624
 3501TIP3    H210510   0.488   5.506   3.512
 3502TIP3   OH210511   0.274   5.441   2.792
 3502TIP3    H110512   0.204   5.492   2.750
 3502TIP3    H210513   0.349   5.450   2.733
 3503TIP3   OH210514   3.312   5.816   2.219
 3503TIP3    H110515   3.396   5.831   2.261
 3503TIP3    H210516   3.328   5.744   2.158
 3504TIP3   OH210517   2.076   4.145   2.171
 3504TIP3    H110518   2.157   4.196   2.183
 3504TIP3    H210519   2.032   4.150   2.256
 3505TIP3   OH210520   1.666   1.834   4.443
 3505TIP3    H110521   1.626   1.901   4.387
 3505TIP3    H210522   1.621   1.843   4.527
 3506TIP3   OH210523   0.531   4.837   4.569
 3506TIP3    H110524   0.485   4.863   4.489
 3506TIP3    H210525   0.591   4.909   4.587
 3507TIP3   OH210526   4.666   2.949   0.282
 3507TIP3    H110527   4.714   2.894   0.220
 3507TIP3    H210528   4.685   2.910   0.368
 3508TIP3   OH210529   0.562   3.029   3.147
 3508TIP3    H110530   0.599   2.941   3.156
 3508TIP3    H210531   0.528   3.031   3.058
 3509TIP3   OH210532   4.035   3.592   4.502
 3509TIP3    H110533   4.116   3.590   4.554
 3509TIP3    H210534   3.965   3.595   4.567
 3510TIP3   OH210535   1.227   3.707   2.596
 3510TIP3    H110536   1.244   3.634   2.537
 3510TIP3    H210537   1.284   3.691   2.671
 3511TIP3   OH210538   5.183   5.380   0.119
 3511TIP3    H110539   5.203   5.470   0.092
 3511TIP3    H210540   5.229   5.369   0.201
 3512TIP3   OH210541   4.150   2.470   0.004
 3512TIP3    H110542   4.083   2.530  -0.027
 3512TIP3    H210543   4.101   2.392   0.031
 3513TIP3   OH210544   4.958   1.613   3.445
 3513TIP3    H110545   4.970   1.675   3.517
 3513TIP3    H210546   4.863   1.601   3.438
 3514TIP3   OH210547   5.591   1.628   2.686
 3514TIP3    H110548   5.505   1.666   2.707
 3514TIP3    H210549   5.570   1.551   2.633
 3515TIP3   OH210550   6.174   3.107   3.071
 3515TIP3    H110551   6.247   3.167   3.083
 3515TIP3    H210552   6.123   3.115   3.152
 3516TIP3   OH210553   4.099   4.070   4.120
 3516TIP3    H110554   4.080   4.117   4.201
 3516TIP3    H210555   4.076   3.979   4.139
 3517TIP3   OH210556   0.348   0.586   0.105
 3517TIP3    H110557   0.333   0.680   0.099
 3517TIP3    H210558   0.285   0.547   0.045
 3518TIP3   OH210559   5.968   5.399   0.314
 3518TIP3    H110560   6.057   5.415   0.346
 3518TIP3    H210561   5.980   5.375   0.222
 3519TIP3   OH210562   1.909   4.073   3.278
 3519TIP3    H110563   1.929   4.020   3.201
 3519TIP3    H210564   1.884   4.009   3.345
 3520TIP3   OH210565   0.137   3.560   1.095
 3520TIP3    H110566   0.209   3.615   1.064
 3520TIP3    H210567   0.179   3.491   1.146
 3521TIP3   OH210568   5.479   4.852   0.820
 3521TIP3    H110569   5.456   4.759   0.830
 3521TIP3    H210570   5.402   4.899   0.851
 3522TIP3   OH210571   1.412   5.217   4.607
 3522TIP3    H110572   1.381   5.249   4.692
 3522TIP3    H210573   1.429   5.124   4.622
 3523TIP3   OH210574   3.387   0.652   1.387
 3523TIP3    H110575   3.435   0.575   1.356
 3523TIP3    H210576   3.303   0.648   1.340
 3524TIP3   OH210577   1.671   5.339   4.518
 3524TIP3    H110578   1.594   5.324   4.572
 3524TIP3    H210579   1.644   5.313   4.430
 3525TIP3   OH210580   1.735   4.306   2.050
 3525TIP3    H110581   1.766   4.366   2.118
 3525TIP3    H210582   1.640   4.302   2.063
 3526TIP3   OH210583   1.870   1.261   1.678
 3526TIP3    H110584   1.830   1.256   1.765
 3526TIP3    H210585   1.883   1.355   1.663
 3527TIP3   OH210586   2.064   4.372   3.274
 3527TIP3    H110587   2.096   4.413   3.354
 3527TIP3    H210588   2.021   4.292   3.304
 3528TIP3   OH210589   4.356   0.307   1.617
 3528TIP3    H110590   4.378   0.262   1.535
 3528TIP3    H210591   4.271   0.348   1.600
 3529TIP3   OH210592   5.319   3.695   3.392
 3529TIP3    H110593   5.268   3.774   3.381
 3529TIP3    H210594   5.397   3.708   3.338
 3530TIP3   OH210595   3.857   3.874   3.317
 3530TIP3    H110596   3.797   3.848   3.247
 3530TIP3    H210597   3.878   3.966   3.298
 3531TIP3   OH210598   4.809   5.170   3.305
 3531TIP3    H110599   4.820   5.111   3.379
 3531TIP3    H210600   4.765   5.247   3.341
 3532TIP3   OH210601   5.910   4.041   0.447
 3532TIP3    H110602   5.849   4.105   0.411
 3532TIP3    H210603   5.994   4.064   0.407
 3533TIP3   OH210604   2.507   2.838   1.352
 3533TIP3    H110605   2.550   2.823   1.267
 3533TIP3    H210606   2.535   2.926   1.377
 3534TIP3   OH210607   4.682   2.052   1.972
 3534TIP3    H110608   4.592   2.038   2.002
 3534TIP3    H210609   4.730   1.976   2.006
 3535TIP3   OH210610   5.369   1.024   0.214
 3535TIP3    H110611   5.411   1.100   0.253
 3535TIP3    H210612   5.408   0.949   0.258
 3536TIP3   OH210613   5.316   4.555   2.543
 3536TIP3    H110614   5.410   4.549   2.523
 3536TIP3    H210615   5.296   4.648   2.536
 3537TIP3   OH210616   3.039   0.083   3.422
 3537TIP3    H110617   3.092   0.003   3.426
 3537TIP3    H210618   3.003   0.092   3.510
 3538TIP3   OH210619   5.971   0.411   4.208
 3538TIP3    H110620   6.048   0.383   4.158
 3538TIP3    H210621   5.997   0.402   4.299
 3539TIP3   OH210622   1.934   2.619   0.615
 3539TIP3    H110623   1.998   2.564   0.660
 3539TIP3    H210624   1.976   2.704   0.608
 3540TIP3   OH210625   1.831   3.743   2.361
 3540TIP3    H110626   1.919   3.707   2.353
 3540TIP3    H210627   1.836   3.829   2.320
 3541TIP3   OH210628   3.002   1.217   0.544
 3541TIP3    H110629   3.004   1.311   0.566
 3541TIP3    H210630   2.980   1.215   0.451
 3542TIP3   OH210631   3.436   2.227   3.385
 3542TIP3    H110632   3.351   2.194   3.356
 3542TIP3    H210633   3.476   2.154   3.432
 3543TIP3   OH210634   1.040   0.296   1.793
 3543TIP3    H110635   1.017   0.378   1.749
 3543TIP3    H210636   1.063   0.237   1.721
 3544TIP3   OH210637   4.368   3.189   3.404
 3544TIP3    H110638   4.420   3.269   3.409
 3544TIP3    H210639   4.419   3.124   3.451
 3545TIP3   OH210640   3.925   0.103   2.443
 3545TIP3    H110641   3.848   0.155   2.467
 3545TIP3    H210642   3.925   0.105   2.348
 3546TIP3   OH210643   1.212   5.841   4.485
 3546TIP3    H110644   1.225   5.868   4.575
 3546TIP3    H210645   1.232   5.919   4.433
 3547TIP3   OH210646   0.353   0.230   0.534
 3547TIP3    H110647   0.348   0.228   0.629
 3547TIP3    H210648   0.329   0.319   0.510
 3548TIP3   OH210649   1.958   4.284   0.408
 3548TIP3    H110650   1.990   4.343   0.340
 3548TIP3    H210651   2.033   4.271   0.466
 3549TIP3   OH210652   2.551   5.078   1.113
 3549TIP3    H110653   2.529   4.986   1.124
 3549TIP3    H210654   2.475   5.125   1.148
 3550TIP3   OH210655   6.083   4.461   0.971
 3550TIP3    H110656   6.051   4.542   0.931
 3550TIP3    H210657   6.030   4.392   0.929
 3551TIP3   OH210658   4.271   2.214   4.831
 3551TIP3    H110659   4.311   2.127   4.827
 3551TIP3    H210660   4.237   2.229   4.743
 3552TIP3   OH210661   0.530   1.091   5.033
 3552TIP3    H110662   0.537   1.049   5.118
 3552TIP3    H210663   0.484   1.027   4.978
 3553TIP3   OH210664   1.703   2.444   2.240
 3553TIP3    H110665   1.781   2.496   2.220
 3553TIP3    H210666   1.629   2.502   2.221
 3554TIP3   OH210667   0.013   4.603   0.241
 3554TIP3    H110668   0.105   4.611   0.268
 3554TIP3    H210669   0.003   4.666   0.170
 3555TIP3   OH210670   0.791   1.924   1.889
 3555TIP3    H110671   0.732   1.854   1.860
 3555TIP3    H210672   0.874   1.904   1.846
 3556TIP3   OH210673   0.688   2.359   4.676
 3556TIP3    H110674   0.714   2.338   4.586
 3556TIP3    H210675   0.770   2.384   4.719
 3557TIP3   OH210676   4.519   5.246   0.310
 3557TIP3    H110677   4.442   5.202   0.345
 3557TIP3    H210678   4.572   5.265   0.387
 3558TIP3   OH210679   4.584   0.628   2.966
 3558TIP3    H110680   4.617   0.705   3.012
 3558TIP3    H210681   4.662   0.577   2.946
 3559TIP3   OH210682   1.187   0.208   4.672
 3559TIP3    H110683   1.225   0.132   4.718
 3559TIP3    H210684   1.093   0.198   4.683
 3560TIP3   OH210685   0.441   3.637   0.560
 3560TIP3    H110686   0.517   3.608   0.510
 3560TIP3    H210687   0.411   3.558   0.606
 3561TIP3   OH210688   3.184   3.796   4.482
 3561TIP3    H110689   3.109   3.773   4.536
 3561TIP3    H210690   3.240   3.719   4.484
 3562TIP3   OH210691   6.003   3.031   4.258
 3562TIP3    H110692   5.995   2.950   4.207
 3562TIP3    H210693   6.033   3.003   4.344
 3563TIP3   OH210694   5.943   0.196   1.437
 3563TIP3    H110695   6.007   0.163   1.373
 3563TIP3    H210696   5.991   0.263   1.486
 3564TIP3   OH210697   2.760   2.235   1.834
 3564TIP3    H110698   2.694   2.189   1.782
 3564TIP3    H210699   2.819   2.273   1.769
 3565TIP3   OH210700   0.473   4.010   3.265
 3565TIP3    H110701   0.483   4.049   3.178
 3565TIP3    H210702   0.458   4.084   3.323
 3566TIP3   OH210703   1.312   1.222   0.551
 3566TIP3    H110704   1.368   1.273   0.492
 3566TIP3    H210705   1.238   1.280   0.569
 3567TIP3   OH210706   0.314   4.762   4.745
 3567TIP3    H110707   0.330   4.836   4.804
 3567TIP3    H210708   0.371   4.780   4.669
 3568TIP3   OH210709   4.892   5.448   4.787
 3568TIP3    H110710   4.871   5.436   4.879
 3568TIP3    H210711   4.983   5.475   4.786
 3569TIP3   OH210712   1.990   1.166   3.075
 3569TIP3    H110713   2.020   1.093   3.021
 3569TIP3    H210714   1.908   1.135   3.114
 3570TIP3   OH210715   6.208   5.412   1.803
 3570TIP3    H110716   6.226   5.380   1.715
 3570TIP3    H210717   6.128   5.464   1.794
 3571TIP3   OH210718   5.200   5.012   4.542
 3571TIP3    H110719   5.224   4.948   4.609
 3571TIP3    H210720   5.281   5.026   4.492
 3572TIP3   OH210721   3.830   5.632   4.687
 3572TIP3    H110722   3.869   5.611   4.772
 3572TIP3    H210723   3.905   5.657   4.632
 3573TIP3   OH210724   5.865   1.325   1.625
 3573TIP3    H110725   5.890   1.315   1.533
 3573TIP3    H210726   5.932   1.382   1.662
 3574TIP3   OH210727   3.468   4.490   0.188
 3574TIP3    H110728   3.468   4.432   0.112
 3574TIP3    H210729   3.478   4.578   0.151
 3575TIP3   OH210730   5.102   5.288   3.960
 3575TIP3    H110731   5.021   5.296   3.909
 3575TIP3    H210732   5.082   5.221   4.025
 3576TIP3   OH210733   2.534   1.176   2.329
 3576TIP3    H110734   2.539   1.269   2.305
 3576TIP3    H210735   2.497   1.176   2.417
 3577TIP3   OH210736   4.798   5.433   1.341
 3577TIP3    H110737   4.850   5.477   1.408
 3577TIP3    H210738   4.740   5.375   1.389
 3578TIP3   OH210739   5.987   1.297   2.851
 3578TIP3    H110740   5.955   1.212   2.882
 3578TIP3    H210741   5.907   1.347   2.832
 3579TIP3   OH210742   6.144   5.758   2.447
 3579TIP3    H110743   6.151   5.799   2.534
 3579TIP3    H210744   6.141   5.831   2.386
 3580TIP3   OH210745   5.273   4.312   0.123
 3580TIP3    H110746   5.274   4.223   0.087
 3580TIP3    H210747   5.190   4.348   0.093
 3581TIP3   OH210748   2.223   4.535   1.952
 3581TIP3    H110749   2.184   4.447   1.955
 3581TIP3    H210750   2.235   4.551   1.858
 3582TIP3   OH210751   0.490   5.701  -0.001
 3582TIP3    H110752   0.539   5.783  -0.002
 3582TIP3    H210753   0.423   5.714   0.066
 3583TIP3   OH210754   2.430   0.622   0.104
 3583TIP3    H110755   2.414   0.697   0.161
 3583TIP3    H210756   2.355   0.564   0.120
 3584TIP3   OH210757   4.304   5.748   0.109
 3584TIP3    H110758   4.365   5.805   0.155
 3584TIP3    H210759   4.349   5.663   0.103
 3585TIP3   OH210760   5.127   5.098   1.415
 3585TIP3    H110761   5.180   5.018   1.422
 3585TIP3    H210762   5.180   5.157   1.362
 3586TIP3   OH210763   4.345   2.714   3.883
 3586TIP3    H110764   4.369   2.805   3.872
 3586TIP3    H210765   4.250   2.713   3.872
 3587TIP3   OH210766   1.599   3.143   1.884
 3587TIP3    H110767   1.528   3.092   1.924
 3587TIP3    H210768   1.566   3.164   1.797
 3588TIP3   OH210769   5.395   2.339   1.070
 3588TIP3    H110770   5.345   2.269   1.112
 3588TIP3    H210771   5.352   2.419   1.097
 3589TIP3   OH210772   2.368   1.153   3.755
 3589TIP3    H110773   2.284   1.107   3.746
 3589TIP3    H210774   2.409   1.111   3.830
 3590TIP3   OH210775   3.532   0.147   2.847
 3590TIP3    H110776   3.511   0.219   2.905
 3590TIP3    H210777   3.448   0.106   2.828
 3591TIP3   OH210778   0.713   2.953   4.172
 3591TIP3    H110779   0.663   3.028   4.139
 3591TIP3    H210780   0.665   2.925   4.250
 3592TIP3   OH210781   0.381   0.695   3.441
 3592TIP3    H110782   0.319   0.756   3.481
 3592TIP3    H210783   0.466   0.739   3.449
 3593TIP3   OH210784   4.363   0.492   3.647
 3593TIP3    H110785   4.281   0.499   3.598
 3593TIP3    H210786   4.357   0.560   3.714
 3594TIP3   OH210787   2.093   5.618   1.260
 3594TIP3    H110788   2.033   5.569   1.204
 3594TIP3    H210789   2.055   5.706   1.265
 3595TIP3   OH210790   5.434   5.002   1.327
 3595TIP3    H110791   5.465   5.026   1.414
 3595TIP3    H210792   5.514   4.977   1.279
 3596TIP3   OH210793   4.624   4.487   4.912
 3596TIP3    H110794   4.654   4.478   5.002
 3596TIP3    H210795   4.548   4.430   4.905
 3597TIP3   OH210796   4.756   5.978   3.544
 3597TIP3    H110797   4.731   5.899   3.495
 3597TIP3    H210798   4.755   5.950   3.635
 3598TIP3   OH210799   2.742   5.186   0.950
 3598TIP3    H110800   2.690   5.158   1.025
 3598TIP3    H210801   2.755   5.280   0.964
 3599TIP3   OH210802   4.351   0.574   3.186
 3599TIP3    H110803   4.402   0.534   3.257
 3599TIP3    H210804   4.413   0.634   3.143
 3600TIP3   OH210805   0.406   5.351   4.630
 3600TIP3    H110806   0.445   5.412   4.693
 3600TIP3    H210807   0.474   5.340   4.563
 3601TIP3   OH210808   1.172   2.628   2.443
 3601TIP3    H110809   1.225   2.635   2.522
 3601TIP3    H210810   1.146   2.718   2.423
 3602TIP3   OH210811   0.454   2.268   3.960
 3602TIP3    H110812   0.508   2.189   3.959
 3602TIP3    H210813   0.439   2.288   3.868
 3603TIP3   OH210814   4.297   5.025   1.769
 3603TIP3    H110815   4.386   5.046   1.741
 3603TIP3    H210816   4.241   5.086   1.721
 3604TIP3   OH210817   0.831   2.108   2.440
 3604TIP3    H110818   0.834   2.201   2.463
 3604TIP3    H210819   0.871   2.102   2.354
 3605TIP3   OH210820   2.560   3.836   2.686
 3605TIP3    H110821   2.497   3.903   2.713
 3605TIP3    H210822   2.577   3.856   2.594
 3606TIP3   OH210823   5.323   4.832   0.525
 3606TIP3    H110824   5.379   4.755   0.535
 3606TIP3    H210825   5.263   4.828   0.600
 3607TIP3   OH210826   3.122   4.399   1.271
 3607TIP3    H110827   3.213   4.377   1.252
 3607TIP3    H210828   3.128   4.479   1.323
 3608TIP3   OH210829   4.642   5.722   4.171
 3608TIP3    H110830   4.602   5.676   4.245
 3608TIP3    H210831   4.592   5.802   4.162
 3609TIP3   OH210832   3.464   5.312   3.703
 3609TIP3    H110833   3.457   5.347   3.792
 3609TIP3    H210834   3.406   5.367   3.651
 3610TIP3   OH210835   3.388   3.177   3.418
 3610TIP3    H110836   3.468   3.200   3.371
 3610TIP3    H210837   3.319   3.225   3.372
 3611TIP3   OH210838   1.789   4.490   1.158
 3611TIP3    H110839   1.848   4.430   1.113
 3611TIP3    H210840   1.714   4.437   1.184
 3612TIP3   OH210841   3.077   5.143   4.405
 3612TIP3    H110842   3.035   5.107   4.483
 3612TIP3    H210843   3.018   5.120   4.333
 3613TIP3   OH210844   4.980   2.257   1.004
 3613TIP3    H110845   4.940   2.247   1.090
 3613TIP3    H210846   5.025   2.174   0.988
 3614TIP3   OH210847   1.786   3.055   2.056
 3614TIP3    H110848   1.778   2.963   2.029
 3614TIP3    H210849   1.747   3.104   1.984
 3615TIP3   OH210850   5.834   3.937   3.388
 3615TIP3    H110851   5.836   3.967   3.297
 3615TIP3    H210852   5.754   3.976   3.425
 3616TIP3   OH210853   5.258   0.331   4.530
 3616TIP3    H110854   5.210   0.413   4.546
 3616TIP3    H210855   5.241   0.310   4.439
 3617TIP3   OH210856   6.346   5.262   2.904
 3617TIP3    H110857   6.362   5.351   2.934
 3617TIP3    H210858   6.251   5.257   2.893
 3618TIP3   OH210859   1.473   4.770   3.948
 3618TIP3    H110860   1.532   4.790   3.876
 3618TIP3    H210861   1.492   4.678   3.970
 3619TIP3   OH210862   4.610   5.396   2.265
 3619TIP3    H110863   4.690   5.422   2.218
 3619TIP3    H210864   4.582   5.316   2.220
 3620TIP3   OH210865   2.160   5.294   3.110
 3620TIP3    H110866   2.110   5.361   3.063
 3620TIP3    H210867   2.209   5.248   3.042
 3621TIP3   OH210868   6.067   3.173   3.632
 3621TIP3    H110869   6.070   3.088   3.588
 3621TIP3    H210870   5.999   3.222   3.585
 3622TIP3   OH210871   6.174   5.297   4.114
 3622TIP3    H110872   6.108   5.260   4.056
 3622TIP3    H210873   6.126   5.364   4.164
 3623TIP3   OH210874   3.771   0.304   2.344
 3623TIP3    H110875   3.795   0.283   2.254
 3623TIP3    H210876   3.685   0.265   2.356
 3624TIP3   OH210877   1.882   4.538   0.775
 3624TIP3    H110878   1.855   4.503   0.690
 3624TIP3    H210879   1.897   4.631   0.758
 3625TIP3   OH210880   4.255   3.484   3.553
 3625TIP3    H110881   4.237   3.487   3.647
 3625TIP3    H210882   4.321   3.415   3.543
 3626TIP3   OH210883   3.466   2.068   2.759
 3626TIP3    H110884   3.382   2.028   2.784
 3626TIP3    H210885   3.517   1.997   2.722
 3627TIP3   OH210886   1.938   2.796   1.061
 3627TIP3    H110887   1.947   2.889   1.082
 3627TIP3    H210888   2.029   2.765   1.053
 3628TIP3   OH210889   1.245   1.799   1.102
 3628TIP3    H110890   1.274   1.789   1.192
 3628TIP3    H210891   1.162   1.847   1.108
 3629TIP3   OH210892   5.398  -0.016   1.951
 3629TIP3    H110893   5.312   0.006   1.916
 3629TIP3    H210894   5.407   0.038   2.029
 3630TIP3   OH210895   3.196   3.710   2.915
 3630TIP3    H110896   3.173   3.671   2.831
 3630TIP3    H210897   3.291   3.709   2.918
 3631TIP3   OH210898   4.566   1.332   4.614
 3631TIP3    H110899   4.587   1.383   4.692
 3631TIP3    H210900   4.610   1.248   4.627
 3632TIP3   OH210901   3.579   2.507   2.549
 3632TIP3    H110902   3.527   2.438   2.590
 3632TIP3    H210903   3.610   2.468   2.467
 3633TIP3   OH210904   5.863   5.713   1.956
 3633TIP3    H110905   5.949   5.699   1.997
 3633TIP3    H210906   5.864   5.805   1.930
 3634TIP3   OH210907   5.862   0.034   3.081
 3634TIP3    H110908   5.768   0.050   3.083
 3634TIP3    H210909   5.894   0.066   3.165
 3635TIP3   OH210910   4.456   2.427   3.509
 3635TIP3    H110911   4.481   2.398   3.597
 3635TIP3    H210912   4.394   2.499   3.524
 3636TIP3   OH210913   4.091   1.977   1.862
 3636TIP3    H110914   4.083   1.900   1.806
 3636TIP3    H210915   4.092   2.051   1.801
 3637TIP3   OH210916   5.201   3.806   3.783
 3637TIP3    H110917   5.123   3.851   3.814
 3637TIP3    H210918   5.269   3.830   3.847
 3638TIP3   OH210919   0.224   1.457   3.321
 3638TIP3    H110920   0.282   1.466   3.396
 3638TIP3    H210921   0.227   1.543   3.279
 3639TIP3   OH210922   1.330   4.908   2.222
 3639TIP3    H110923   1.270   4.844   2.184
 3639TIP3    H210924   1.324   4.895   2.316
 3640TIP3   OH210925   2.448   3.362   1.583
 3640TIP3    H110926   2.383   3.297   1.556
 3640TIP3    H210927   2.400   3.445   1.581
 3641TIP3   OH210928   3.068   2.940   2.744
 3641TIP3    H110929   3.058   2.847   2.765
 3641TIP3    H210930   3.004   2.956   2.675
 3642TIP3   OH210931   5.127   2.697   3.735
 3642TIP3    H110932   5.194   2.763   3.750
 3642TIP3    H210933   5.155   2.621   3.786
 3643TIP3   OH210934   5.819   2.282   3.382
 3643TIP3    H110935   5.792   2.374   3.371
 3643TIP3    H210936   5.759   2.233   3.326
 3644TIP3   OH210937   4.445   5.133   2.211
 3644TIP3    H110938   4.385   5.148   2.285
 3644TIP3    H210939   4.391   5.090   2.145
 3645TIP3   OH210940   5.198   0.910   3.816
 3645TIP3    H110941   5.156   0.886   3.899
 3645TIP3    H210942   5.275   0.854   3.811
 3646TIP3   OH210943   0.654   2.626   2.617
 3646TIP3    H110944   0.609   2.557   2.568
 3646TIP3    H210945   0.745   2.620   2.590
 3647TIP3   OH210946   2.672   4.336   2.986
 3647TIP3    H110947   2.691   4.250   2.949
 3647TIP3    H210948   2.686   4.325   3.080
 3648TIP3   OH210949   1.902   4.622   2.694
 3648TIP3    H110950   1.971   4.606   2.758
 3648TIP3    H210951   1.941   4.600   2.610
 3649TIP3   OH210952   6.000   0.907   2.927
 3649TIP3    H110953   6.000   0.885   3.021
 3649TIP3    H210954   5.925   0.964   2.916
 3650TIP3   OH210955   3.370   3.620   0.116
 3650TIP3    H110956   3.282   3.659   0.116
 3650TIP3    H210957   3.355   3.527   0.131
 3651TIP3   OH210958   4.307   4.867   2.072
 3651TIP3    H110959   4.397   4.865   2.040
 3651TIP3    H210960   4.259   4.918   2.007
 3652TIP3   OH210961   4.590   0.160   2.086
 3652TIP3    H110962   4.543   0.080   2.111
 3652TIP3    H210963   4.521   0.224   2.067
 3653TIP3   OH210964   0.699   1.169   0.178
 3653TIP3    H110965   0.687   1.234   0.247
 3653TIP3    H210966   0.788   1.185   0.145
 3654TIP3   OH210967   0.708   5.764   2.746
 3654TIP3    H110968   0.642   5.694   2.751
 3654TIP3    H210969   0.705   5.793   2.656
 3655TIP3   OH210970   1.485   3.723   2.126
 3655TIP3    H110971   1.501   3.817   2.117
 3655TIP3    H210972   1.415   3.717   2.192
 3656TIP3   OH210973   1.910   2.203   4.787
 3656TIP3    H110974   1.863   2.266   4.841
 3656TIP3    H210975   1.999   2.203   4.823
 3657TIP3   OH210976   2.292   5.920   2.182
 3657TIP3    H110977   2.308   5.939   2.274
 3657TIP3    H210978   2.198   5.936   2.170
 3658TIP3   OH210979   0.123   0.293   0.809
 3658TIP3    H110980   0.211   0.256   0.821
 3658TIP3    H210981   0.106   0.283   0.715
 3659TIP3   OH210982   2.667   1.494   4.793
 3659TIP3    H110983   2.705   1.476   4.707
 3659TIP3    H210984   2.708   1.575   4.821
 3660TIP3   OH210985   1.733   2.257   3.005
 3660TIP3    H110986   1.725   2.228   2.915
 3660TIP3    H210987   1.643   2.267   3.036
 3661TIP3   OH210988   1.584   3.202   3.634
 3661TIP3    H110989   1.661   3.183   3.580
 3661TIP3    H210990   1.563   3.119   3.677
 3662TIP3   OH210991   2.977   4.547   3.275
 3662TIP3    H110992   2.963   4.542   3.180
 3662TIP3    H210993   3.045   4.482   3.292
 3663TIP3   OH210994   3.582   3.496   4.367
 3663TIP3    H110995   3.542   3.423   4.319
 3663TIP3    H210996   3.667   3.509   4.324
 3664TIP3   OH210997   4.974   2.217   4.169
 3664TIP3    H110998   4.916   2.281   4.211
 3664TIP3    H210999   4.919   2.139   4.160
 3665TIP3   OH211000   4.990   5.275   4.295
 3665TIP3    H111001   5.006   5.296   4.387
 3665TIP3    H211002   5.000   5.180   4.289
 3666TIP3   OH211003   2.071   0.001   1.364
 3666TIP3    H111004   1.999  -0.049   1.401
 3666TIP3    H211005   2.101   0.057   1.435
 3667TIP3   OH211006   2.955   2.989   1.013
 3667TIP3    H111007   3.008   2.970   1.091
 3667TIP3    H211008   2.963   3.084   1.001
 3668TIP3   OH211009   3.858   0.787   3.443
 3668TIP3    H111010   3.907   0.812   3.521
 3668TIP3    H211011   3.819   0.702   3.465
 3669TIP3   OH211012   2.871   4.267   0.267
 3669TIP3    H111013   2.922   4.227   0.337
 3669TIP3    H211014   2.784   4.281   0.305
 3670TIP3   OH211015   0.164   5.667   3.261
 3670TIP3    H111016   0.186   5.760   3.262
 3670TIP3    H211017   0.230   5.626   3.316
 3671TIP3   OH211018   5.131   4.419   0.755
 3671TIP3    H111019   5.049   4.410   0.708
 3671TIP3    H211020   5.151   4.330   0.785
 3672TIP3   OH211021   3.340   1.449   0.385
 3672TIP3    H111022   3.366   1.525   0.437
 3672TIP3    H211023   3.262   1.478   0.337
 3673TIP3   OH211024   6.299   4.435   3.702
 3673TIP3    H111025   6.209   4.405   3.707
 3673TIP3    H211026   6.295   4.529   3.720
 3674TIP3   OH211027   4.453   3.840   3.469
 3674TIP3    H111028   4.389   3.771   3.451
 3674TIP3    H211029   4.400   3.915   3.497
 3675TIP3   OH211030   2.755   3.529   0.023
 3675TIP3    H111031   2.841   3.500   0.054
 3675TIP3    H211032   2.774   3.600  -0.038
 3676TIP3   OH211033   0.947   0.339   1.156
 3676TIP3    H111034   0.902   0.302   1.232
 3676TIP3    H211035   0.877   0.369   1.099
 3677TIP3   OH211036   2.137   2.291   1.274
 3677TIP3    H111037   2.122   2.375   1.232
 3677TIP3    H211038   2.092   2.228   1.218
 3678TIP3   OH211039   0.453   4.981   1.965
 3678TIP3    H111040   0.476   5.064   2.008
 3678TIP3    H211041   0.370   4.956   2.006
 3679TIP3   OH211042   5.361   5.804   4.499
 3679TIP3    H111043   5.336   5.868   4.432
 3679TIP3    H211044   5.285   5.747   4.507
 3680TIP3   OH211045   5.261   0.798   0.561
 3680TIP3    H111046   5.188   0.841   0.517
 3680TIP3    H211047   5.318   0.769   0.490
 3681TIP3   OH211048   0.446   4.176   4.487
 3681TIP3    H111049   0.535   4.201   4.463
 3681TIP3    H211050   0.412   4.251   4.535
 3682TIP3   OH211051   3.728   0.344   0.722
 3682TIP3    H111052   3.697   0.368   0.634
 3682TIP3    H211053   3.801   0.403   0.739
 3683TIP3   OH211054   3.191   4.432   0.659
 3683TIP3    H111055   3.100   4.421   0.631
 3683TIP3    H211056   3.239   4.449   0.578
 3684TIP3   OH211057   0.172   3.524   0.733
 3684TIP3    H111058   0.194   3.617   0.731
 3684TIP3    H211059   0.091   3.520   0.783
 3685TIP3   OH211060   2.456   3.519   4.816
 3685TIP3    H111061   2.514   3.594   4.833
 3685TIP3    H211062   2.375   3.541   4.861
 3686TIP3   OH211063   2.269   0.700   1.262
 3686TIP3    H111064   2.350   0.703   1.313
 3686TIP3    H211065   2.200   0.690   1.328
 3687TIP3   OH211066   5.743   1.273   3.691
 3687TIP3    H111067   5.650   1.258   3.706
 3687TIP3    H211068   5.775   1.316   3.771
 3688TIP3   OH211069   4.324   1.452   4.677
 3688TIP3    H111070   4.308   1.477   4.768
 3688TIP3    H211071   4.394   1.387   4.683
 3689TIP3   OH211072   0.242   0.536   4.571
 3689TIP3    H111073   0.279   0.529   4.483
 3689TIP3    H211074   0.151   0.509   4.561
 3690TIP3   OH211075   2.392   3.010   4.760
 3690TIP3    H111076   2.407   2.932   4.705
 3690TIP3    H211077   2.479   3.048   4.771
 3691TIP3   OH211078   0.751   3.035   2.126
 3691TIP3    H111079   0.786   2.998   2.045
 3691TIP3    H211080   0.748   3.129   2.110
 3692TIP3   OH211081   0.914   1.443   2.935
 3692TIP3    H111082   0.916   1.419   2.842
 3692TIP3    H211083   1.000   1.483   2.951
 3693TIP3   OH211084   4.338   4.202   2.396
 3693TIP3    H111085   4.399   4.248   2.338
 3693TIP3    H211086   4.380   4.118   2.413
 3694TIP3   OH211087   3.977   5.073   2.913
 3694TIP3    H111088   3.904   5.134   2.905
 3694TIP3    H211089   4.033   5.110   2.982
 3695TIP3   OH211090   6.060   4.588   2.026
 3695TIP3    H111091   6.052   4.571   1.933
 3695TIP3    H211092   6.131   4.651   2.033
 3696TIP3   OH211093   0.855   5.428   3.404
 3696TIP3    H111094   0.861   5.488   3.330
 3696TIP3    H211095   0.786   5.366   3.379
 3697TIP3   OH211096   0.037   3.135   1.538
 3697TIP3    H111097  -0.037   3.084   1.571
 3697TIP3    H211098   0.041   3.115   1.445
 3698TIP3   OH211099   4.407   3.850   1.414
 3698TIP3    H111100   4.470   3.814   1.351
 3698TIP3    H211101   4.352   3.776   1.439
 3699TIP3   OH211102   0.917   4.249   1.561
 3699TIP3    H111103   0.878   4.321   1.510
 3699TIP3    H211104   0.875   4.255   1.647
 3700TIP3   OH211105   5.602   1.414   2.050
 3700TIP3    H111106   5.509   1.405   2.030
 3700TIP3    H211107   5.645   1.355   1.987
 3701TIP3   OH211108   0.003   2.675   1.119
 3701TIP3    H111109   0.085   2.713   1.087
 3701TIP3    H211110   0.019   2.581   1.120
 3702TIP3   OH211111   3.945   5.477   0.061
 3702TIP3    H111112   3.956   5.571   0.047
 3702TIP3    H211113   4.027   5.438   0.030
 3703TIP3   OH211114   4.064   3.770   1.923
 3703TIP3    H111115   4.123   3.821   1.867
 3703TIP3    H211116   4.113   3.690   1.942
 3704TIP3   OH211117   5.319   0.967   2.924
 3704TIP3    H111118   5.361   0.882   2.910
 3704TIP3    H211119   5.295   0.967   3.016
 3705TIP3   OH211120   0.940   0.941   1.305
 3705TIP3    H111121   0.865   0.935   1.245
 3705TIP3    H211122   1.003   0.877   1.271
 3706TIP3   OH211123   3.424   1.918   0.718
 3706TIP3    H111124   3.502   1.964   0.749
 3706TIP3    H211125   3.427   1.833   0.763
 3707TIP3   OH211126   1.079   2.430   1.790
 3707TIP3    H111127   1.168   2.464   1.779
 3707TIP3    H211128   1.028   2.474   1.722
 3708TIP3   OH211129   5.918   4.524   4.284
 3708TIP3    H111130   5.908   4.531   4.379
 3708TIP3    H211131   5.895   4.610   4.251
 3709TIP3   OH211132   3.180   2.887   0.705
 3709TIP3    H111133   3.126   2.966   0.712
 3709TIP3    H211134   3.227   2.882   0.788
 3710TIP3   OH211135   3.553   1.999   1.185
 3710TIP3    H111136   3.499   2.072   1.214
 3710TIP3    H211137   3.495   1.946   1.131
 3711TIP3   OH211138   5.924   0.373   2.256
 3711TIP3    H111139   5.855   0.323   2.213
 3711TIP3    H211140   5.986   0.306   2.287
 3712TIP3   OH211141   0.159   1.846   3.826
 3712TIP3    H111142   0.210   1.902   3.885
 3712TIP3    H211143   0.224   1.788   3.786
 3713TIP3   OH211144   2.416  -0.018   0.068
 3713TIP3    H111145   2.338   0.006   0.018
 3713TIP3    H211146   2.406   0.029   0.151
 3714TIP3   OH211147   3.681   4.020   1.744
 3714TIP3    H111148   3.606   4.065   1.707
 3714TIP3    H211149   3.650   3.931   1.760
 3715TIP3   OH211150   5.737   5.903   1.005
 3715TIP3    H111151   5.763   5.982   1.053
 3715TIP3    H211152   5.705   5.936   0.921
 3716TIP3   OH211153   5.229   4.534   1.174
 3716TIP3    H111154   5.222   4.495   1.261
 3716TIP3    H211155   5.255   4.625   1.190
 3717TIP3   OH211156   1.811   4.491   3.076
 3717TIP3    H111157   1.779   4.522   2.991
 3717TIP3    H211158   1.856   4.567   3.113
 3718TIP3   OH211159   1.663   5.881   1.117
 3718TIP3    H111160   1.579   5.846   1.087
 3718TIP3    H211161   1.647   5.911   1.206
 3719TIP3   OH211162   1.417   4.510   1.461
 3719TIP3    H111163   1.450   4.420   1.468
 3719TIP3    H211164   1.329   4.507   1.498
 3720TIP3   OH211165   1.306   4.229   0.912
 3720TIP3    H111166   1.392   4.210   0.950
 3720TIP3    H211167   1.247   4.164   0.951
 3721TIP3   OH211168   0.463   2.605   0.150
 3721TIP3    H111169   0.395   2.651   0.100
 3721TIP3    H211170   0.524   2.673   0.177
 3722TIP3   OH211171   2.190   4.155   2.889
 3722TIP3    H111172   2.122   4.209   2.929
 3722TIP3    H211173   2.145   4.109   2.818
 3723TIP3   OH211174   5.929   1.374   1.971
 3723TIP3    H111175   5.898   1.421   1.893
 3723TIP3    H211176   5.944   1.284   1.939
 3724TIP3   OH211177   1.560   1.448   2.772
 3724TIP3    H111178   1.514   1.364   2.772
 3724TIP3    H211179   1.555   1.479   2.862
 3725TIP3   OH211180   0.820   3.622   5.170
 3725TIP3    H111181   0.849   3.713   5.160
 3725TIP3    H211182   0.810   3.591   5.080
 3726TIP3   OH211183   5.434   2.945   3.047
 3726TIP3    H111184   5.422   2.921   2.955
 3726TIP3    H211185   5.442   2.861   3.093
 3727TIP3   OH211186   1.248   1.738   4.906
 3727TIP3    H111187   1.159   1.706   4.919
 3727TIP3    H211188   1.275   1.698   4.823
 3728TIP3   OH211189   4.517   4.873   2.396
 3728TIP3    H111190   4.605   4.908   2.380
 3728TIP3    H211191   4.465   4.903   2.322
 3729TIP3   OH211192   5.739   3.161   0.468
 3729TIP3    H111193   5.701   3.095   0.409
 3729TIP3    H211194   5.700   3.141   0.553
 3730TIP3   OH211195   5.321   5.524   3.533
 3730TIP3    H111196   5.414   5.542   3.517
 3730TIP3    H211197   5.315   5.429   3.536
 3731TIP3   OH211198   5.536   4.119   4.389
 3731TIP3    H111199   5.465   4.083   4.335
 3731TIP3    H211200   5.509   4.209   4.406
 3732TIP3   OH211201   3.965   2.932   3.479
 3732TIP3    H111202   3.987   3.023   3.501
 3732TIP3    H211203   4.039   2.901   3.428
 3733TIP3   OH211204   5.198   1.466   4.554
 3733TIP3    H111205   5.219   1.375   4.534
 3733TIP3    H211206   5.127   1.488   4.492
 3734TIP3   OH211207   3.833   1.289   2.344
 3734TIP3    H111208   3.862   1.292   2.253
 3734TIP3    H211209   3.866   1.205   2.377
 3735TIP3   OH211210   0.626   1.462   4.271
 3735TIP3    H111211   0.544   1.462   4.320
 3735TIP3    H211212   0.676   1.536   4.308
 3736TIP3   OH211213   0.461   4.010   4.148
 3736TIP3    H111214   0.545   4.050   4.125
 3736TIP3    H211215   0.398   4.081   4.143
 3737TIP3   OH211216   0.500   5.895   1.049
 3737TIP3    H111217   0.410   5.902   1.080
 3737TIP3    H211218   0.500   5.938   0.964
 3738TIP3   OH211219   2.244   4.420   2.507
 3738TIP3    H111220   2.309   4.349   2.501
 3738TIP3    H211221   2.251   4.451   2.597
 3739TIP3   OH211222   1.634   1.772   1.376
 3739TIP3    H111223   1.677   1.784   1.461
 3739TIP3    H211224   1.587   1.855   1.362
 3740TIP3   OH211225   2.902   1.202   4.962
 3740TIP3    H111226   2.898   1.126   4.904
 3740TIP3    H211227   2.924   1.275   4.903
 3741TIP3   OH211228   5.528   5.657   3.378
 3741TIP3    H111229   5.490   5.672   3.292
 3741TIP3    H211230   5.623   5.664   3.364
 3742TIP3   OH211231   5.978   4.254   3.157
 3742TIP3    H111232   5.981   4.162   3.180
 3742TIP3    H211233   5.984   4.300   3.241
 3743TIP3   OH211234   0.692   5.996   4.642
 3743TIP3    H111235   0.696   5.902   4.623
 3743TIP3    H211236   0.743   6.037   4.572
 3744TIP3   OH211237   5.531   1.142   2.860
 3744TIP3    H111238   5.483   1.222   2.885
 3744TIP3    H211239   5.468   1.071   2.874
 3745TIP3   OH211240   2.428   2.286   5.063
 3745TIP3    H111241   2.487   2.280   5.139
 3745TIP3    H211242   2.449   2.370   5.023
 3746TIP3   OH211243   0.388   3.408   3.959
 3746TIP3    H111244   0.326   3.353   3.912
 3746TIP3    H211245   0.349   3.495   3.957
 3747TIP3   OH211246   3.727   4.705   0.020
 3747TIP3    H111247   3.797   4.770   0.026
 3747TIP3    H211248   3.760   4.641  -0.043
 3748TIP3   OH211249   0.322   3.191   5.100
 3748TIP3    H111250   0.411   3.223   5.087
 3748TIP3    H211251   0.272   3.268   5.126
 3749TIP3   OH211252   5.824   3.597   0.093
 3749TIP3    H111253   5.786   3.527   0.040
 3749TIP3    H211254   5.837   3.558   0.179
 3750TIP3   OH211255   5.849   5.857   4.704
 3750TIP3    H111256   5.868   5.826   4.792
 3750TIP3    H211257   5.757   5.835   4.690
 3751TIP3   OH211258   4.218   2.897   2.453
 3751TIP3    H111259   4.199   2.936   2.539
 3751TIP3    H211260   4.308   2.866   2.460
 3752TIP3   OH211261   0.862   3.857   3.505
 3752TIP3    H111262   0.955   3.876   3.490
 3752TIP3    H211263   0.862   3.776   3.556
 3753TIP3   OH211264   2.805   2.864   3.977
 3753TIP3    H111265   2.813   2.914   3.896
 3753TIP3    H211266   2.730   2.902   4.022
 3754TIP3   OH211267   6.147   5.724   2.018
 3754TIP3    H111268   6.211   5.675   2.069
 3754TIP3    H211269   6.169   5.705   1.927
 3755TIP3   OH211270   1.383   5.082   0.516
 3755TIP3    H111271   1.427   5.000   0.541
 3755TIP3    H211272   1.299   5.054   0.479
 3756TIP3   OH211273   5.982   4.624   4.825
 3756TIP3    H111274   5.900   4.653   4.864
 3756TIP3    H211275   6.027   4.576   4.894
 3757TIP3   OH211276   2.655   4.438   0.147
 3757TIP3    H111277   2.673   4.481   0.230
 3757TIP3    H211278   2.729   4.379   0.134
 3758TIP3   OH211279   4.497   1.897   1.659
 3758TIP3    H111280   4.423   1.898   1.599
 3758TIP3    H211281   4.564   1.844   1.616
 3759TIP3   OH211282   6.239   5.695   0.973
 3759TIP3    H111283   6.230   5.707   0.878
 3759TIP3    H211284   6.260   5.782   1.006
 3760TIP3   OH211285   3.879   0.344   3.337
 3760TIP3    H111286   3.866   0.264   3.286
 3760TIP3    H211287   3.964   0.378   3.307
 3761TIP3   OH211288   3.238   1.920   2.795
 3761TIP3    H111289   3.163   1.923   2.855
 3761TIP3    H211290   3.263   1.828   2.793
 3762TIP3   OH211291   3.786   0.177   4.578
 3762TIP3    H111292   3.788   0.162   4.673
 3762TIP3    H211293   3.876   0.164   4.550
 3763TIP3   OH211294   0.618   1.771   1.705
 3763TIP3    H111295   0.557   1.845   1.711
 3763TIP3    H211296   0.575   1.701   1.754
 3764TIP3   OH211297   0.460   0.820   1.314
 3764TIP3    H111298   0.468   0.731   1.279
 3764TIP3    H211299   0.381   0.855   1.272
 3765TIP3   OH211300   3.407   2.893   3.118
 3765TIP3    H111301   3.451   2.917   3.037
 3765TIP3    H211302   3.471   2.838   3.165
 3766TIP3   OH211303   4.129   2.772   3.293
 3766TIP3    H111304   4.094   2.725   3.218
 3766TIP3    H211305   4.160   2.856   3.257
 3767TIP3   OH211306   5.450   5.909   0.600
 3767TIP3    H111307   5.493   5.858   0.532
 3767TIP3    H211308   5.431   5.846   0.669
 3768TIP3   OH211309   6.122   1.845   4.211
 3768TIP3    H111310   6.148   1.909   4.145
 3768TIP3    H211311   6.030   1.827   4.193
 3769TIP3   OH211312   5.704   1.022   1.054
 3769TIP3    H111313   5.636   0.955   1.046
 3769TIP3    H211314   5.781   0.983   1.012
 3770TIP3   OH211315   3.819   3.697   0.241
 3770TIP3    H111316   3.829   3.721   0.149
 3770TIP3    H211317   3.726   3.708   0.259
 3771TIP3   OH211318   0.164   0.197   1.793
 3771TIP3    H111319   0.080   0.157   1.772
 3771TIP3    H211320   0.149   0.244   1.875
 3772TIP3   OH211321   5.276   3.176   1.416
 3772TIP3    H111322   5.283   3.104   1.479
 3772TIP3    H211323   5.366   3.200   1.395
 3773TIP3   OH211324   3.852   2.683   0.888
 3773TIP3    H111325   3.844   2.730   0.805
 3773TIP3    H211326   3.927   2.723   0.931
 3774TIP3   OH211327   3.876   2.805   2.962
 3774TIP3    H111328   3.945   2.809   3.028
 3774TIP3    H211329   3.801   2.768   3.008
 3775TIP3   OH211330   0.575   1.973   1.083
 3775TIP3    H111331   0.570   1.903   1.148
 3775TIP3    H211332   0.625   2.042   1.126
 3776TIP3   OH211333   3.454   5.447   4.340
 3776TIP3    H111334   3.514   5.447   4.265
 3776TIP3    H211335   3.388   5.381   4.317
 3777TIP3   OH211336   2.427   4.656   2.421
 3777TIP3    H111337   2.370   4.732   2.429
 3777TIP3    H211338   2.372   4.581   2.444
 3778TIP3   OH211339   1.158   2.046   3.812
 3778TIP3    H111340   1.245   2.006   3.813
 3778TIP3    H211341   1.144   2.071   3.721
 3779TIP3   OH211342   0.618   0.155   4.250
 3779TIP3    H111343   0.673   0.086   4.213
 3779TIP3    H211344   0.583   0.202   4.174
 3780TIP3   OH211345   4.073   0.385   5.140
 3780TIP3    H111346   4.073   0.441   5.062
 3780TIP3    H211347   3.982   0.358   5.150
 3781TIP3   OH211348   4.702   5.636   2.687
 3781TIP3    H111349   4.780   5.583   2.697
 3781TIP3    H211350   4.657   5.599   2.611
 3782TIP3   OH211351   4.983   5.285   1.732
 3782TIP3    H111352   5.078   5.287   1.741
 3782TIP3    H211353   4.967   5.223   1.660
 3783TIP3   OH211354   1.241   4.983   3.467
 3783TIP3    H111355   1.264   5.053   3.528
 3783TIP3    H211356   1.146   4.979   3.468
 3784TIP3   OH211357   4.874   5.740   4.030
 3784TIP3    H111358   4.943   5.734   4.096
 3784TIP3    H211359   4.792   5.737   4.080
 3785TIP3   OH211360   0.724   5.567   1.064
 3785TIP3    H111361   0.723   5.520   1.147
 3785TIP3    H211362   0.633   5.561   1.032
 3786TIP3   OH211363   0.259   0.476   2.875
 3786TIP3    H111364   0.249   0.541   2.945
 3786TIP3    H211365   0.352   0.480   2.852
 3787TIP3   OH211366   5.879   5.798   4.975
 3787TIP3    H111367   5.952   5.856   4.996
 3787TIP3    H211368   5.812   5.818   5.041
 3788TIP3   OH211369   3.945   1.610   3.776
 3788TIP3    H111370   4.039   1.606   3.790
 3788TIP3    H211371   3.907   1.586   3.861
 3789TIP3   OH211372   0.585   3.213   5.034
 3789TIP3    H111373   0.556   3.238   4.947
 3789TIP3    H211374   0.679   3.231   5.034
 3790TIP3   OH211375   1.256   5.268   2.508
 3790TIP3    H111376   1.215   5.191   2.548
 3790TIP3    H211377   1.335   5.283   2.560
 3791TIP3   OH211378   2.886   2.052   2.972
 3791TIP3    H111379   2.793   2.075   2.973
 3791TIP3    H211380   2.917   2.075   3.059
 3792TIP3   OH211381   4.137   0.174   0.203
 3792TIP3    H111382   4.087   0.092   0.191
 3792TIP3    H211383   4.155   0.204   0.114
 3793TIP3   OH211384   4.828   5.316   4.552
 3793TIP3    H111385   4.817   5.370   4.630
 3793TIP3    H211386   4.915   5.277   4.562
 3794TIP3   OH211387   0.310   1.061   4.643
 3794TIP3    H111388   0.265   1.108   4.712
 3794TIP3    H211389   0.275   0.972   4.647
 3795TIP3   OH211390   3.322   1.114   2.381
 3795TIP3    H111391   3.406   1.145   2.349
 3795TIP3    H211392   3.290   1.185   2.436
 3796TIP3   OH211393   6.302   4.089   4.077
 3796TIP3    H111394   6.295   4.134   4.161
 3796TIP3    H211395   6.325   4.158   4.014
 3797TIP3   OH211396   3.149   0.197   0.708
 3797TIP3    H111397   3.105   0.257   0.768
 3797TIP3    H211398   3.226   0.245   0.677
 3798TIP3   OH211399   6.116   3.771   4.397
 3798TIP3    H111400   6.104   3.753   4.304
 3798TIP3    H211401   6.179   3.706   4.427
 3799TIP3   OH211402   4.451   5.497   0.206
 3799TIP3    H111403   4.466   5.402   0.211
 3799TIP3    H211404   4.489   5.531   0.287
 3800TIP3   OH211405   0.239   1.922   3.297
 3800TIP3    H111406   0.314   1.924   3.356
 3800TIP3    H211407   0.252   1.995   3.237
 3801TIP3   OH211408   2.959   4.602   2.165
 3801TIP3    H111409   2.882   4.618   2.219
 3801TIP3    H211410   2.926   4.600   2.076
 3802TIP3   OH211411   3.294   2.463   3.489
 3802TIP3    H111412   3.335   2.528   3.546
 3802TIP3    H211413   3.367   2.409   3.458
 3803TIP3   OH211414   5.080   1.268   2.014
 3803TIP3    H111415   5.091   1.178   1.982
 3803TIP3    H211416   5.061   1.319   1.935
 3804TIP3   OH211417   2.187   4.660  -0.037
 3804TIP3    H111418   2.167   4.587   0.022
 3804TIP3    H211419   2.218   4.730   0.021
 3805TIP3   OH211420   5.375   2.434   4.384
 3805TIP3    H111421   5.434   2.509   4.375
 3805TIP3    H211422   5.340   2.441   4.473
 3806TIP3   OH211423   4.815   0.558   5.025
 3806TIP3    H111424   4.852   0.479   5.066
 3806TIP3    H211425   4.751   0.589   5.088
 3807TIP3   OH211426   4.198   1.581   0.265
 3807TIP3    H111427   4.154   1.546   0.187
 3807TIP3    H211428   4.131   1.635   0.307
 3808TIP3   OH211429   1.607   4.634   4.344
 3808TIP3    H111430   1.518   4.654   4.316
 3808TIP3    H211431   1.656   4.621   4.263
 3809TIP3   OH211432   2.211   3.532   0.612
 3809TIP3    H111433   2.176   3.490   0.533
 3809TIP3    H211434   2.306   3.516   0.607
 3810TIP3   OH211435   2.272   3.345   3.011
 3810TIP3    H111436   2.272   3.257   2.974
 3810TIP3    H211437   2.362   3.359   3.040
 3811TIP3   OH211438   2.464   3.353   1.268
 3811TIP3    H111439   2.379   3.370   1.309
 3811TIP3    H211440   2.449   3.366   1.174
 3812TIP3   OH211441   6.266   0.908   1.859
 3812TIP3    H111442   6.340   0.952   1.901
 3812TIP3    H211443   6.193   0.920   1.920
 3813TIP3   OH211444   3.341   4.749   4.780
 3813TIP3    H111445   3.417   4.741   4.723
 3813TIP3    H211446   3.272   4.785   4.724
 3814TIP3   OH211447   1.719   1.595   4.671
 3814TIP3    H111448   1.771   1.609   4.751
 3814TIP3    H211449   1.771   1.535   4.619
 3815TIP3   OH211450   3.702   3.329   3.462
 3815TIP3    H111451   3.636   3.399   3.466
 3815TIP3    H211452   3.715   3.304   3.553
 3816TIP3   OH211453   5.137   3.730   0.606
 3816TIP3    H111454   5.056   3.727   0.657
 3816TIP3    H211455   5.202   3.768   0.666
 3817TIP3   OH211456   5.311   0.936   5.147
 3817TIP3    H111457   5.387   0.915   5.093
 3817TIP3    H211458   5.336   0.911   5.235
 3818TIP3   OH211459   3.110   4.261   0.051
 3818TIP3    H111460   3.139   4.350   0.029
 3818TIP3    H211461   3.172   4.232   0.118
 3819TIP3   OH211462   2.879   3.993   4.930
 3819TIP3    H111463   2.792   3.986   4.968
 3819TIP3    H211464   2.931   4.037   4.997
 3820TIP3   OH211465   1.182   5.793   0.007
 3820TIP3    H111466   1.230   5.850   0.069
 3820TIP3    H211467   1.187   5.706   0.046
 3821TIP3   OH211468   3.707   2.442   0.871
 3821TIP3    H111469   3.768   2.514   0.863
 3821TIP3    H211470   3.760   2.368   0.901
 3822TIP3   OH211471   5.697   1.723   4.884
 3822TIP3    H111472   5.710   1.781   4.809
 3822TIP3    H211473   5.653   1.778   4.949
 3823TIP3   OH211474  -0.021   4.138   0.025
 3823TIP3    H111475   0.048   4.088   0.069
 3823TIP3    H211476   0.018   4.224   0.010
 3824TIP3   OH211477   4.524   3.419   1.743
 3824TIP3    H111478   4.475   3.410   1.824
 3824TIP3    H211479   4.604   3.367   1.756
 3825TIP3   OH211480   4.543   4.182   3.983
 3825TIP3    H111481   4.460   4.142   3.958
 3825TIP3    H211482   4.610   4.131   3.936
 3826TIP3   OH211483  -0.003   3.674   3.037
 3826TIP3    H111484   0.049   3.750   3.061
 3826TIP3    H211485   0.062   3.608   3.013
 3827TIP3   OH211486   0.727   2.356   2.936
 3827TIP3    H111487   0.685   2.344   2.851
 3827TIP3    H211488   0.691   2.286   2.990
 3828TIP3   OH211489   1.811   3.746   4.677
 3828TIP3    H111490   1.835   3.833   4.707
 3828TIP3    H211491   1.868   3.729   4.602
 3829TIP3   OH211492   3.243   2.787   4.617
 3829TIP3    H111493   3.238   2.734   4.697
 3829TIP3    H211494   3.293   2.733   4.556
 3830TIP3   OH211495   2.932   4.360   3.811
 3830TIP3    H111496   3.013   4.357   3.861
 3830TIP3    H211497   2.903   4.452   3.817
 3831TIP3   OH211498   4.660   2.032   2.743
 3831TIP3    H111499   4.620   2.062   2.661
 3831TIP3    H211500   4.613   2.080   2.811
 3832TIP3   OH211501   2.659   1.981   0.416
 3832TIP3    H111502   2.644   1.891   0.389
 3832TIP3    H211503   2.582   2.029   0.386
 3833TIP3   OH211504   0.790   0.397   0.181
 3833TIP3    H111505   0.793   0.302   0.174
 3833TIP3    H211506   0.707   0.416   0.224
 3834TIP3   OH211507   4.652   2.605   0.226
 3834TIP3    H111508   4.727   2.650   0.187
 3834TIP3    H211509   4.595   2.585   0.152
 3835TIP3   OH211510   2.684   1.071   0.306
 3835TIP3    H111511   2.610   1.123   0.275
 3835TIP3    H211512   2.719   1.029   0.227
 3836TIP3   OH211513   1.841   0.078   4.461
 3836TIP3    H111514   1.785   0.126   4.522
 3836TIP3    H211515   1.871   0.002   4.512
 3837TIP3   OH211516   2.516   1.869   1.033
 3837TIP3    H111517   2.574   1.904   0.965
 3837TIP3    H211518   2.527   1.774   1.026
 3838TIP3   OH211519   3.938   1.515   4.866
 3838TIP3    H111520   3.990   1.535   4.943
 3838TIP3    H211521   3.869   1.580   4.865
 3839TIP3   OH211522   3.821   0.930   4.826
 3839TIP3    H111523   3.833   0.886   4.911
 3839TIP3    H211524   3.792   0.860   4.767
 3840TIP3   OH211525   1.704   2.073   1.941
 3840TIP3    H111526   1.777   2.088   1.881
 3840TIP3    H211527   1.662   2.158   1.950
 3841TIP3   OH211528   1.041   2.226   3.605
 3841TIP3    H111529   1.070   2.236   3.515
 3841TIP3    H211530   0.956   2.183   3.599
 3842TIP3   OH211531   5.854   4.864   4.993
 3842TIP3    H111532   5.796   4.927   4.950
 3842TIP3    H211533   5.799   4.787   5.007
 3843TIP3   OH211534   5.265   3.396   4.179
 3843TIP3    H111535   5.335   3.334   4.200
 3843TIP3    H211536   5.203   3.345   4.127
 3844TIP3   OH211537   1.238   0.555   1.931
 3844TIP3    H111538   1.152   0.597   1.925
 3844TIP3    H211539   1.231   0.497   2.007
 3845TIP3   OH211540   5.363   4.058   4.821
 3845TIP3    H111541   5.404   4.073   4.736
 3845TIP3    H211542   5.270   4.048   4.801
 3846TIP3   OH211543   4.818   5.009   0.324
 3846TIP3    H111544   4.777   4.927   0.351
 3846TIP3    H211545   4.906   5.005   0.359
 3847TIP3   OH211546   1.668   1.713   3.353
 3847TIP3    H111547   1.748   1.716   3.405
 3847TIP3    H211548   1.685   1.769   3.278
 3848TIP3   OH211549   1.345   1.434   4.988
 3848TIP3    H111550   1.440   1.446   4.987
 3848TIP3    H211551   1.310   1.522   5.004
 3849TIP3   OH211552   1.822   1.142   1.299
 3849TIP3    H111553   1.894   1.078   1.302
 3849TIP3    H211554   1.746   1.094   1.331
 3850TIP3   OH211555   4.944   3.581   3.172
 3850TIP3    H111556   4.929   3.643   3.243
 3850TIP3    H211557   5.021   3.531   3.199
 3851TIP3   OH211558   1.915   0.353   0.120
 3851TIP3    H111559   1.861   0.407   0.062
 3851TIP3    H211560   1.869   0.354   0.204
 3852TIP3   OH211561   4.415   0.345   2.003
 3852TIP3    H111562   4.336   0.376   2.047
 3852TIP3    H211563   4.442   0.418   1.948
 3853TIP3   OH211564   0.331   1.920   2.440
 3853TIP3    H111565   0.346   1.864   2.516
 3853TIP3    H211566   0.413   1.916   2.391
 3854TIP3   OH211567   4.172   0.728   3.410
 3854TIP3    H111568   4.110   0.764   3.347
 3854TIP3    H211569   4.258   0.756   3.378
 3855TIP3   OH211570   3.311   2.275   0.829
 3855TIP3    H111571   3.286   2.215   0.899
 3855TIP3    H211572   3.269   2.240   0.750
 3856TIP3   OH211573   0.396   2.458   3.248
 3856TIP3    H111574   0.484   2.474   3.215
 3856TIP3    H211575   0.367   2.543   3.281
 3857TIP3   OH211576   2.385   3.731   2.154
 3857TIP3    H111577   2.354   3.673   2.084
 3857TIP3    H211578   2.351   3.692   2.234
 3858TIP3   OH211579   5.824   1.227   4.920
 3858TIP3    H111580   5.844   1.319   4.938
 3858TIP3    H211581   5.888   1.202   4.854
 3859TIP3   OH211582   6.182   1.134   0.750
 3859TIP3    H111583   6.180   1.138   0.846
 3859TIP3    H211584   6.275   1.140   0.728
 3860TIP3   OH211585   0.105   3.837   4.159
 3860TIP3    H111586   0.068   3.903   4.218
 3860TIP3    H211587   0.094   3.754   4.206
 3861TIP3   OH211588   2.175   4.583   3.465
 3861TIP3    H111589   2.183   4.678   3.455
 3861TIP3    H211590   2.208   4.566   3.553
 3862TIP3   OH211591   4.989   2.201   0.487
 3862TIP3    H111592   4.956   2.120   0.447
 3862TIP3    H211593   4.929   2.217   0.560
 3863TIP3   OH211594   5.856   3.753   4.210
 3863TIP3    H111595   5.771   3.791   4.228
 3863TIP3    H211596   5.916   3.827   4.209
 3864TIP3   OH211597   1.268   1.530   3.528
 3864TIP3    H111598   1.265   1.624   3.548
 3864TIP3    H211599   1.350   1.518   3.480
 3865TIP3   OH211600   4.414   0.954   0.404
 3865TIP3    H111601   4.376   1.001   0.478
 3865TIP3    H211602   4.460   0.880   0.445
 3866TIP3   OH211603   5.515   5.767   2.595
 3866TIP3    H111604   5.581   5.821   2.552
 3866TIP3    H211605   5.475   5.717   2.524
 3867TIP3   OH211606   5.148   2.763   1.450
 3867TIP3    H111607   5.194   2.680   1.454
 3867TIP3    H211608   5.154   2.790   1.358
 3868TIP3   OH211609   4.854   3.613   4.456
 3868TIP3    H111610   4.908   3.622   4.534
 3868TIP3    H211611   4.876   3.526   4.422
 3869TIP3   OH211612   5.740   5.847   2.834
 3869TIP3    H111613   5.753   5.937   2.805
 3869TIP3    H211614   5.720   5.798   2.754
 3870TIP3   OH211615   3.401   4.329   4.255
 3870TIP3    H111616   3.419   4.375   4.173
 3870TIP3    H211617   3.330   4.269   4.233
 3871TIP3   OH211618   2.933   1.941   1.967
 3871TIP3    H111619   2.975   1.855   1.962
 3871TIP3    H211620   2.930   1.961   2.061
 3872TIP3   OH211621   1.605   3.131   2.599
 3872TIP3    H111622   1.695   3.100   2.604
 3872TIP3    H211623   1.575   3.134   2.690
 3873TIP3   OH211624   4.391   2.375   4.314
 3873TIP3    H111625   4.453   2.403   4.247
 3873TIP3    H211626   4.325   2.444   4.316
 3874TIP3   OH211627   5.463   1.248   3.748
 3874TIP3    H111628   5.440   1.250   3.654
 3874TIP3    H211629   5.438   1.160   3.776
 3875TIP3   OH211630   4.064   4.672   4.602
 3875TIP3    H111631   4.068   4.761   4.635
 3875TIP3    H211632   4.149   4.659   4.558
 3876TIP3   OH211633   4.196   1.737   4.935
 3876TIP3    H111634   4.196   1.773   5.023
 3876TIP3    H211635   4.201   1.642   4.947
 3877TIP3   OH211636   4.559   4.899   1.502
 3877TIP3    H111637   4.509   4.820   1.481
 3877TIP3    H211638   4.651   4.871   1.497
 3878TIP3   OH211639   3.864   0.339   1.441
 3878TIP3    H111640   3.838   0.358   1.350
 3878TIP3    H211641   3.948   0.384   1.451
 3879TIP3   OH211642   6.010   0.194   4.666
 3879TIP3    H111643   5.954   0.130   4.710
 3879TIP3    H211644   6.052   0.242   4.737
 3880TIP3   OH211645   3.704   4.061   2.408
 3880TIP3    H111646   3.687   4.155   2.396
 3880TIP3    H211647   3.619   4.020   2.399
 3881TIP3   OH211648   0.351   3.210   4.281
 3881TIP3    H111649   0.274   3.230   4.229
 3881TIP3    H211650   0.336   3.253   4.365
 3882TIP3   OH211651   5.912   4.806   2.789
 3882TIP3    H111652   5.837   4.863   2.803
 3882TIP3    H211653   5.972   4.858   2.734
 3883TIP3   OH211654   0.959   4.925   0.615
 3883TIP3    H111655   0.991   4.926   0.705
 3883TIP3    H211656   1.027   4.970   0.565
 3884TIP3   OH211657   3.532   5.598   0.894
 3884TIP3    H111658   3.565   5.606   0.983
 3884TIP3    H211659   3.593   5.538   0.851
 3885TIP3   OH211660   2.362   1.675   3.738
 3885TIP3    H111661   2.453   1.703   3.730
 3885TIP3    H211662   2.367   1.588   3.778
 3886TIP3   OH211663   1.434   4.966   4.790
 3886TIP3    H111664   1.467   4.912   4.718
 3886TIP3    H211665   1.502   4.961   4.857
 3887TIP3   OH211666   3.607   1.242   1.001
 3887TIP3    H111667   3.641   1.159   1.033
 3887TIP3    H211668   3.679   1.279   0.949
 3888TIP3   OH211669   5.511   2.475   2.472
 3888TIP3    H111670   5.477   2.561   2.496
 3888TIP3    H211671   5.434   2.419   2.462
 3889TIP3   OH211672   6.101   0.912   0.479
 3889TIP3    H111673   6.141   0.881   0.561
 3889TIP3    H211674   6.080   0.832   0.431
 3890TIP3   OH211675   3.794   5.372   4.930
 3890TIP3    H111676   3.737   5.325   4.869
 3890TIP3    H211677   3.774   5.333   5.016
 3891TIP3   OH211678   3.334   2.735   4.152
 3891TIP3    H111679   3.349   2.663   4.090
 3891TIP3    H211680   3.242   2.757   4.142
 3892TIP3   OH211681   2.030   2.882   0.654
 3892TIP3    H111682   2.004   2.970   0.626
 3892TIP3    H211683   2.112   2.896   0.702
 3893TIP3   OH211684   1.455   0.921   4.596
 3893TIP3    H111685   1.532   0.975   4.579
 3893TIP3    H211686   1.439   0.876   4.513
 3894TIP3   OH211687   4.909   5.579   3.800
 3894TIP3    H111688   4.994   5.544   3.827
 3894TIP3    H211689   4.885   5.640   3.869
 3895TIP3   OH211690   3.107   0.041   1.270
 3895TIP3    H111691   3.037   0.023   1.207
 3895TIP3    H211692   3.062   0.074   1.347
 3896TIP3   OH211693   0.527   1.830   2.266
 3896TIP3    H111694   0.497   1.773   2.195
 3896TIP3    H211695   0.620   1.809   2.275
 3897TIP3   OH211696   5.087   2.500   2.808
 3897TIP3    H111697   5.000   2.521   2.774
 3897TIP3    H211698   5.080   2.514   2.902
 3898TIP3   OH211699   3.627   2.481   2.266
 3898TIP3    H111700   3.661   2.568   2.247
 3898TIP3    H211701   3.685   2.422   2.219
 3899TIP3   OH211702   5.677   4.313   3.046
 3899TIP3    H111703   5.771   4.321   3.061
 3899TIP3    H211704   5.639   4.301   3.133
 3900TIP3   OH211705   2.842   1.027   4.422
 3900TIP3    H111706   2.886   0.992   4.345
 3900TIP3    H211707   2.805   0.950   4.465
 3901TIP3   OH211708   5.276   4.821   2.141
 3901TIP3    H111709   5.235   4.873   2.072
 3901TIP3    H211710   5.366   4.807   2.110
 3902TIP3   OH211711   5.191   3.260   1.830
 3902TIP3    H111712   5.277   3.230   1.859
 3902TIP3    H211713   5.169   3.331   1.890
 3903TIP3   OH211714   2.537   3.301   3.288
 3903TIP3    H111715   2.561   3.342   3.204
 3903TIP3    H211716   2.612   3.318   3.345
 3904TIP3   OH211717   3.112   2.216   2.291
 3904TIP3    H111718   3.160   2.238   2.211
 3904TIP3    H211719   3.048   2.286   2.300
 3905TIP3   OH211720   3.038   5.183   0.876
 3905TIP3    H111721   3.104   5.204   0.942
 3905TIP3    H211722   2.959   5.162   0.926
 3906TIP3   OH211723   2.200   3.860   0.796
 3906TIP3    H111724   2.229   3.840   0.885
 3906TIP3    H211725   2.195   3.775   0.753
 3907TIP3   OH211726   5.245   1.568   3.925
 3907TIP3    H111727   5.203   1.493   3.967
 3907TIP3    H211728   5.253   1.543   3.833
 3908TIP3   OH211729   6.021   5.551   3.990
 3908TIP3    H111730   5.978   5.555   3.905
 3908TIP3    H211731   5.957   5.507   4.047
 3909TIP3   OH211732   5.507   0.816   1.011
 3909TIP3    H111733   5.477   0.786   0.926
 3909TIP3    H211734   5.428   0.852   1.053
 3910TIP3   OH211735   5.524   1.639   0.387
 3910TIP3    H111736   5.596   1.702   0.383
 3910TIP3    H211737   5.507   1.617   0.295
 3911TIP3   OH211738   6.231   3.491   4.326
 3911TIP3    H111739   6.272   3.531   4.249
 3911TIP3    H211740   6.142   3.471   4.298
 3912TIP3   OH211741   3.534   5.752   4.942
 3912TIP3    H111742   3.526   5.670   4.894
 3912TIP3    H211743   3.487   5.816   4.889
 3913TIP3   OH211744   6.014   4.314   4.084
 3913TIP3    H111745   5.937   4.340   4.136
 3913TIP3    H211746   6.043   4.232   4.123
 3914TIP3   OH211747   4.852   4.036   4.168
 3914TIP3    H111748   4.884   4.124   4.149
 3914TIP3    H211749   4.757   4.045   4.165
 3915TIP3   OH211750   2.870   0.032   1.945
 3915TIP3    H111751   2.938   0.029   1.877
 3915TIP3    H211752   2.845  -0.060   1.958
 3916TIP3   OH211753   3.061   2.187   0.326
 3916TIP3    H111754   3.062   2.159   0.234
 3916TIP3    H211755   3.147   2.228   0.340
 3917TIP3   OH211756   2.860   0.412   1.018
 3917TIP3    H111757   2.799   0.433   1.089
 3917TIP3    H211758   2.936   0.374   1.064
 3918TIP3   OH211759   4.734   2.370   0.101
 3918TIP3    H111760   4.726   2.394   0.194
 3918TIP3    H211761   4.828   2.379   0.083
 3919TIP3   OH211762   3.258   4.276   3.749
 3919TIP3    H111763   3.316   4.344   3.714
 3919TIP3    H211764   3.218   4.316   3.826
 3920TIP3   OH211765   4.160   4.124   4.704
 3920TIP3    H111766   4.207   4.124   4.620
 3920TIP3    H211767   4.084   4.179   4.689
 3921TIP3   OH211768   2.928   5.012   1.312
 3921TIP3    H111769   2.841   5.024   1.351
 3921TIP3    H211770   2.978   5.087   1.343
 3922TIP3   OH211771   4.954   3.590   3.802
 3922TIP3    H111772   5.046   3.580   3.776
 3922TIP3    H211773   4.905   3.574   3.722
 3923TIP3   OH211774   4.678   2.186   4.201
 3923TIP3    H111775   4.710   2.168   4.289
 3923TIP3    H211776   4.638   2.104   4.172
 3924TIP3   OH211777   0.393   1.653   3.779
 3924TIP3    H111778   0.483   1.683   3.782
 3924TIP3    H211779   0.365   1.648   3.870
 3925TIP3   OH211780   1.468   0.581   3.245
 3925TIP3    H111781   1.561   0.561   3.242
 3925TIP3    H211782   1.438   0.574   3.154
 3926TIP3   OH211783   2.090   2.395   0.540
 3926TIP3    H111784   2.151   2.409   0.467
 3926TIP3    H211785   2.014   2.354   0.499
 3927TIP3   OH211786   6.279   1.920   3.154
 3927TIP3    H111787   6.219   1.994   3.155
 3927TIP3    H211788   6.272   1.881   3.241
 3928TIP3   OH211789   5.168   4.564   4.306
 3928TIP3    H111790   5.154   4.474   4.277
 3928TIP3    H211791   5.080   4.600   4.317
 3929TIP3   OH211792   0.663   5.199   0.037
 3929TIP3    H111793   0.584   5.148   0.055
 3929TIP3    H211794   0.635   5.290   0.047
 3930TIP3   OH211795   3.622   1.728   1.877
 3930TIP3    H111796   3.548   1.682   1.837
 3930TIP3    H211797   3.608   1.820   1.854
 3931TIP3   OH211798   0.924   5.226   1.039
 3931TIP3    H111799   1.001   5.231   1.095
 3931TIP3    H211800   0.851   5.243   1.098
 3932TIP3   OH211801   6.055   1.768   2.833
 3932TIP3    H111802   5.960   1.766   2.829
 3932TIP3    H211803   6.082   1.821   2.758
 3933TIP3   OH211804   3.899   2.375   1.557
 3933TIP3    H111805   3.994   2.363   1.569
 3933TIP3    H211806   3.878   2.449   1.614
 3934TIP3   OH211807   4.446   1.948   5.078
 3934TIP3    H111808   4.452   1.855   5.102
 3934TIP3    H211809   4.456   1.949   4.983
 3935TIP3   OH211810   0.839   2.105   0.434
 3935TIP3    H111811   0.866   2.070   0.350
 3935TIP3    H211812   0.879   2.192   0.439
 3936TIP3   OH211813   2.566   3.278   2.335
 3936TIP3    H111814   2.624   3.205   2.357
 3936TIP3    H211815   2.527   3.254   2.251
 3937TIP3   OH211816   1.317   4.107   1.290
 3937TIP3    H111817   1.228   4.135   1.269
 3937TIP3    H211818   1.357   4.182   1.333
 3938TIP3   OH211819   4.469   2.877   2.541
 3938TIP3    H111820   4.494   2.926   2.619
 3938TIP3    H211821   4.433   2.795   2.576
 3939TIP3   OH211822   2.954   0.540   3.550
 3939TIP3    H111823   2.913   0.622   3.522
 3939TIP3    H211824   2.971   0.492   3.469
 3940TIP3   OH211825   2.438   5.897   3.186
 3940TIP3    H111826   2.343   5.905   3.179
 3940TIP3    H211827   2.464   5.973   3.237
 3941TIP3   OH211828   1.582   0.823   0.798
 3941TIP3    H111829   1.530   0.900   0.822
 3941TIP3    H211830   1.517   0.756   0.777
 3942TIP3   OH211831   5.750   0.169   1.099
 3942TIP3    H111832   5.800   0.251   1.090
 3942TIP3    H211833   5.658   0.197   1.100
 3943TIP3   OH211834   5.443   0.777   2.785
 3943TIP3    H111835   5.537   0.765   2.794
 3943TIP3    H211836   5.430   0.797   2.693
 3944TIP3   OH211837   0.942   1.809   0.041
 3944TIP3    H111838   0.923   1.722   0.078
 3944TIP3    H211839   0.951   1.793  -0.053
 3945TIP3   OH211840   4.379   4.029   4.214
 3945TIP3    H111841   4.418   3.946   4.186
 3945TIP3    H211842   4.323   4.056   4.140
 3946TIP3   OH211843   5.497   2.869   2.750
 3946TIP3    H111844   5.592   2.862   2.742
 3946TIP3    H211845   5.464   2.785   2.717
 3947TIP3   OH211846   2.542   0.883   2.343
 3947TIP3    H111847   2.517   0.974   2.330
 3947TIP3    H211848   2.628   0.887   2.385
 3948TIP3   OH211849   3.713   2.865   4.878
 3948TIP3    H111850   3.777   2.924   4.837
 3948TIP3    H211851   3.678   2.814   4.804
 3949TIP3   OH211852   4.277   2.607   0.840
 3949TIP3    H111853   4.317   2.546   0.778
 3949TIP3    H211854   4.212   2.555   0.888
 3950TIP3   OH211855   5.013   4.355   3.131
 3950TIP3    H111856   5.046   4.445   3.133
 3950TIP3    H211857   4.945   4.356   3.063
 3951TIP3   OH211858   3.291   3.132   2.753
 3951TIP3    H111859   3.381   3.118   2.724
 3951TIP3    H211860   3.260   3.045   2.779
 3952TIP3   OH211861   2.860   2.101   1.136
 3952TIP3    H111862   2.873   2.194   1.156
 3952TIP3    H211863   2.944   2.060   1.159
 3953TIP3   OH211864   0.878   4.083   0.071
 3953TIP3    H111865   0.956   4.045   0.032
 3953TIP3    H211866   0.822   4.008   0.090
 3954TIP3   OH211867   0.818   1.162   4.156
 3954TIP3    H111868   0.822   1.070   4.129
 3954TIP3    H211869   0.781   1.159   4.245
 3955TIP3   OH211870   2.736   5.538   2.537
 3955TIP3    H111871   2.738   5.457   2.586
 3955TIP3    H211872   2.656   5.582   2.566
 3956TIP3   OH211873   1.600   5.658   2.563
 3956TIP3    H111874   1.557   5.658   2.477
 3956TIP3    H211875   1.540   5.608   2.619
 3957TIP3   OH211876   5.498   0.570   3.114
 3957TIP3    H111877   5.578   0.518   3.108
 3957TIP3    H211878   5.440   0.533   3.047
 3958TIP3   OH211879   5.100   3.304   2.909
 3958TIP3    H111880   5.169   3.238   2.910
 3958TIP3    H211881   5.023   3.257   2.875
 3959TIP3   OH211882   3.921   2.469   3.717
 3959TIP3    H111883   3.896   2.379   3.695
 3959TIP3    H211884   3.926   2.514   3.633
 3960TIP3   OH211885   4.737   5.195   0.074
 3960TIP3    H111886   4.679   5.220   0.145
 3960TIP3    H211887   4.822   5.231   0.098
 3961TIP3   OH211888   1.143   2.137   0.635
 3961TIP3    H111889   1.075   2.185   0.682
 3961TIP3    H211890   1.120   2.045   0.646
 3962TIP3   OH211891   3.788   2.865   2.447
 3962TIP3    H111892   3.833   2.839   2.527
 3962TIP3    H211893   3.695   2.866   2.470
 3963TIP3   OH211894   5.805   2.088   2.661
 3963TIP3    H111895   5.722   2.070   2.617
 3963TIP3    H211896   5.872   2.072   2.594
 3964TIP3   OH211897   6.092   2.458   4.604
 3964TIP3    H111898   6.011   2.429   4.645
 3964TIP3    H211899   6.087   2.554   4.607
 3965TIP3   OH211900   6.155   1.338   3.655
 3965TIP3    H111901   6.237   1.376   3.624
 3965TIP3    H211902   6.175   1.307   3.743
 3966TIP3   OH211903   2.020   5.222   4.459
 3966TIP3    H111904   2.032   5.129   4.437
 3966TIP3    H211905   1.928   5.239   4.439
 3967TIP3   OH211906   6.322   4.646   5.164
 3967TIP3    H111907   6.251   4.591   5.132
 3967TIP3    H211908   6.373   4.669   5.086
 3968TIP3   OH211909   0.972   1.019   1.569
 3968TIP3    H111910   1.064   1.033   1.592
 3968TIP3    H211911   0.974   0.988   1.478
 3969TIP3   OH211912   0.633   2.163   1.912
 3969TIP3    H111913   0.699   2.106   1.872
 3969TIP3    H211914   0.682   2.242   1.935
 3970TIP3   OH211915   4.253   3.327   0.504
 3970TIP3    H111916   4.323   3.384   0.538
 3970TIP3    H211917   4.299   3.261   0.452
 3971TIP3   OH211918   2.541   1.044   3.034
 3971TIP3    H111919   2.449   1.069   3.029
 3971TIP3    H211920   2.547   0.963   2.982
 3972TIP3   OH211921   4.170   3.925   3.185
 3972TIP3    H111922   4.205   3.853   3.237
 3972TIP3    H211923   4.114   3.883   3.119
 3973TIP3   OH211924   3.733   4.095   4.230
 3973TIP3    H111925   3.708   4.038   4.157
 3973TIP3    H211926   3.806   4.049   4.272
 3974TIP3   OH211927   5.958   0.156   3.893
 3974TIP3    H111928   5.927   0.245   3.880
 3974TIP3    H211929   5.945   0.139   3.987
 3975TIP3   OH211930   3.193   3.403   3.519
 3975TIP3    H111931   3.162   3.321   3.558
 3975TIP3    H211932   3.124   3.467   3.538
 3976TIP3   OH211933   0.794   0.926   4.498
 3976TIP3    H111934   0.724   0.920   4.563
 3976TIP3    H211935   0.807   1.020   4.486
 3977TIP3   OH211936   3.985   4.723   2.703
 3977TIP3    H111937   4.043   4.664   2.751
 3977TIP3    H211938   4.042   4.767   2.641
 3978TIP3   OH211939   5.892   1.063   2.168
 3978TIP3    H111940   5.900   1.114   2.088
 3978TIP3    H211941   5.799   1.071   2.192
 3979TIP3   OH211942   3.166   4.522   4.357
 3979TIP3    H111943   3.209   4.460   4.417
 3979TIP3    H211944   3.220   4.520   4.278
 3980TIP3   OH211945   3.193   3.948   3.416
 3980TIP3    H111946   3.129   3.934   3.346
 3980TIP3    H211947   3.160   4.024   3.464
 3981TIP3   OH211948   3.648   0.498   4.817
 3981TIP3    H111949   3.570   0.509   4.871
 3981TIP3    H211950   3.621   0.442   4.745
 3982TIP3   OH211951   1.502   2.648   3.157
 3982TIP3    H111952   1.573   2.585   3.146
 3982TIP3    H211953   1.445   2.608   3.223
 3983TIP3   OH211954   3.585   1.599   0.544
 3983TIP3    H111955   3.536   1.677   0.521
 3983TIP3    H211956   3.587   1.600   0.640
 3984TIP3   OH211957   5.756   4.245   4.186
 3984TIP3    H111958   5.668   4.265   4.218
 3984TIP3    H211959   5.807   4.231   4.266
 3985TIP3   OH211960  -0.020   2.281   2.680
 3985TIP3    H111961   0.010   2.225   2.609
 3985TIP3    H211962   0.056   2.288   2.739
 3986TIP3   OH211963   4.441   4.891   4.335
 3986TIP3    H111964   4.439   4.847   4.250
 3986TIP3    H211965   4.514   4.953   4.327
 3987TIP3   OH211966   1.949   5.064   0.844
 3987TIP3    H111967   1.882   5.120   0.805
 3987TIP3    H211968   2.023   5.123   0.859
 3988TIP3   OH211969   4.133   4.376   3.048
 3988TIP3    H111970   4.073   4.395   3.121
 3988TIP3    H211971   4.173   4.292   3.071
 3989TIP3   OH211972   4.108   3.510   2.700
 3989TIP3    H111973   4.078   3.431   2.745
 3989TIP3    H211974   4.086   3.582   2.760
 3990TIP3   OH211975   2.957   5.818   0.791
 3990TIP3    H111976   2.925   5.766   0.717
 3990TIP3    H211977   3.039   5.776   0.816
 3991TIP3   OH211978   0.765   1.336   1.167
 3991TIP3    H111979   0.733   1.282   1.095
 3991TIP3    H211980   0.723   1.421   1.155
 3992TIP3   OH211981   0.582   3.260   0.256
 3992TIP3    H111982   0.532   3.334   0.221
 3992TIP3    H211983   0.517   3.190   0.267
 3993TIP3   OH211984   3.902   4.876   3.661
 3993TIP3    H111985   3.954   4.834   3.592
 3993TIP3    H211986   3.945   4.960   3.676
 3994TIP3   OH211987   6.216   2.977   3.514
 3994TIP3    H111988   6.260   2.948   3.594
 3994TIP3    H211989   6.243   3.068   3.503
 3995TIP3   OH211990   2.068   3.933   0.018
 3995TIP3    H111991   2.142   3.905  -0.036
 3995TIP3    H211992   2.036   3.852   0.059
 3996TIP3   OH211993   0.581   3.367   4.771
 3996TIP3    H111994   0.583   3.462   4.781
 3996TIP3    H211995   0.550   3.353   4.681
 3997TIP3   OH211996   0.852   2.816   2.261
 3997TIP3    H111997   0.866   2.827   2.167
 3997TIP3    H211998   0.851   2.905   2.296
 3998TIP3   OH211999   1.172   4.821   4.818
 3998TIP3    H112000   1.116   4.772   4.758
 3998TIP3    H212001   1.256   4.774   4.817
 3999TIP3   OH212002   5.540   0.360   2.277
 3999TIP3    H112003   5.575   0.299   2.211
 3999TIP3    H212004   5.558   0.317   2.361
 4000TIP3   OH212005   2.290   3.577   3.936
 4000TIP3    H112006   2.370   3.592   3.987
 4000TIP3    H212007   2.237   3.520   3.992
 4001TIP3   OH212008   0.554   1.102   0.464
 4001TIP3    H112009   0.619   1.170   0.450
 4001TIP3    H212010   0.602   1.020   0.457
 4002TIP3   OH212011   5.325   5.248   2.777
 4002TIP3    H112012   5.285   5.167   2.744
 4002TIP3    H212013   5.310   5.245   2.871
 4003TIP3   OH212014   2.676   0.682   4.289
 4003TIP3    H112015   2.699   0.685   4.197
 4003TIP3    H212016   2.733   0.616   4.327
 4004TIP3   OH212017   5.049   4.923   0.402
 4004TIP3    H112018   5.078   4.851   0.457
 4004TIP3    H212019   5.121   4.938   0.341
 4005TIP3   OH212020   3.089   4.585   0.916
 4005TIP3    H112021   3.094   4.529   0.838
 4005TIP3    H212022   3.162   4.556   0.971
 4006TIP3   OH212023   1.820   0.794   5.160
 4006TIP3    H112024   1.860   0.753   5.236
 4006TIP3    H212025   1.781   0.721   5.111
 4007TIP3   OH212026   5.829   4.136   1.301
 4007TIP3    H112027   5.822   4.217   1.250
 4007TIP3    H212028   5.861   4.071   1.239
 4008TIP3   OH212029   0.106   0.883   3.892
 4008TIP3    H112030   0.028   0.844   3.931
 4008TIP3    H212031   0.121   0.963   3.943
 4009TIP3   OH212032   1.697   3.559   2.670
 4009TIP3    H112033   1.657   3.627   2.616
 4009TIP3    H212034   1.655   3.478   2.642
 4010TIP3   OH212035   1.119   2.678   3.181
 4010TIP3    H112036   1.058   2.604   3.178
 4010TIP3    H212037   1.091   2.735   3.110
 4011TIP3   OH212038   2.025   1.252   2.169
 4011TIP3    H112039   1.973   1.224   2.093
 4011TIP3    H212040   1.963   1.300   2.223
 4012TIP3   OH212041   2.012   5.977   5.116
 4012TIP3    H112042   1.935   5.996   5.171
 4012TIP3    H212043   2.079   5.948   5.178
 4013TIP3   OH212044   1.413   1.920   3.754
 4013TIP3    H112045   1.502   1.945   3.782
 4013TIP3    H212046   1.423   1.898   3.661
 4014TIP3   OH212047   6.203   3.831   0.316
 4014TIP3    H112048   6.116   3.799   0.295
 4014TIP3    H212049   6.255   3.814   0.238
 4015TIP3   OH212050   1.790   3.848   0.159
 4015TIP3    H112051   1.846   3.790   0.107
 4015TIP3    H212052   1.852   3.901   0.210
 4016TIP3   OH212053   5.705   4.189   2.490
 4016TIP3    H112054   5.615   4.166   2.510
 4016TIP3    H212055   5.742   4.111   2.449
 4017TIP3   OH212056   0.091   0.240   3.049
 4017TIP3    H112057   0.081   0.230   3.144
 4017TIP3    H212058   0.185   0.256   3.036
 4018TIP3   OH212059   5.372   4.171   3.332
 4018TIP3    H112060   5.330   4.209   3.409
 4018TIP3    H212061   5.367   4.238   3.265
 4019TIP3   OH212062   2.150   5.318   4.694
 4019TIP3    H112063   2.112   5.239   4.732
 4019TIP3    H212064   2.136   5.309   4.600
 4020TIP3   OH212065   2.247   2.361   3.251
 4020TIP3    H112066   2.229   2.446   3.291
 4020TIP3    H212067   2.221   2.297   3.318
 4021TIP3   OH212068   0.405   5.029   3.260
 4021TIP3    H112069   0.417   4.975   3.338
 4021TIP3    H212070   0.434   4.974   3.188
 4022TIP3   OH212071   4.900   1.286   2.473
 4022TIP3    H112072   4.963   1.216   2.491
 4022TIP3    H212073   4.951   1.366   2.482
 4023TIP3   OH212074   5.678   0.154   4.207
 4023TIP3    H112075   5.634   0.083   4.161
 4023TIP3    H212076   5.623   0.231   4.191
 4024TIP3   OH212077   0.747   1.739   3.300
 4024TIP3    H112078   0.740   1.818   3.246
 4024TIP3    H212079   0.685   1.677   3.260
 4025TIP3   OH212080   5.374   1.098   2.266
 4025TIP3    H112081   5.310   1.029   2.279
 4025TIP3    H212082   5.329   1.161   2.209
 4026TIP3   OH212083   0.971   0.755   3.887
 4026TIP3    H112084   1.056   0.756   3.842
 4026TIP3    H212085   0.993   0.765   3.980
 4027TIP3   OH212086   3.788   0.442   1.198
 4027TIP3    H112087   3.858   0.416   1.139
 4027TIP3    H212088   3.763   0.530   1.169
 4028TIP3   OH212089   5.977   3.492   4.218
 4028TIP3    H112090   5.907   3.427   4.212
 4028TIP3    H212091   5.936   3.574   4.193
 4029TIP3   OH212092   0.292   4.398   1.913
 4029TIP3    H112093   0.352   4.430   1.981
 4029TIP3    H212094   0.310   4.304   1.908
 4030TIP3   OH212095   5.844   3.398   3.260
 4030TIP3    H112096   5.844   3.493   3.251
 4030TIP3    H212097   5.863   3.366   3.172
 4031TIP3   OH212098   6.331   2.013   0.395
 4031TIP3    H112099   6.357   2.009   0.487
 4031TIP3    H212100   6.339   2.106   0.372
 4032TIP3   OH212101   0.219   4.179   3.054
 4032TIP3    H112102   0.240   4.250   3.114
 4032TIP3    H212103   0.143   4.210   3.005
 4033TIP3   OH212104   2.402   1.893   2.681
 4033TIP3    H112105   2.477   1.859   2.632
 4033TIP3    H212106   2.423   1.985   2.696
 4034TIP3   OH212107   2.896   5.364   2.098
 4034TIP3    H112108   2.831   5.424   2.135
 4034TIP3    H212109   2.979   5.394   2.134
 4035TIP3   OH212110   5.721   4.724   2.358
 4035TIP3    H112111   5.782   4.797   2.350
 4035TIP3    H212112   5.769   4.648   2.326
 4036TIP3   OH212113   0.110   1.098   0.562
 4036TIP3    H112114   0.095   1.177   0.511
 4036TIP3    H212115   0.163   1.042   0.506
 4037TIP3   OH212116   5.837   3.999   3.126
 4037TIP3    H112117   5.855   3.910   3.094
 4037TIP3    H212118   5.780   4.037   3.059
 4038TIP3   OH212119   3.129   5.050   0.148
 4038TIP3    H112120   3.183   4.975   0.175
 4038TIP3    H212121   3.060   5.054   0.214
 4039TIP3   OH212122   6.238   2.629   4.940
 4039TIP3    H112123   6.180   2.561   4.908
 4039TIP3    H212124   6.243   2.613   5.035
 4040TIP3   OH212125   2.038   0.713   0.549
 4040TIP3    H112126   2.067   0.771   0.618
 4040TIP3    H212127   2.006   0.635   0.595
 4041TIP3   OH212128   1.366   4.632   4.943
 4041TIP3    H112129   1.289   4.588   4.979
 4041TIP3    H212130   1.402   4.570   4.880
 4042TIP3   OH212131   4.724   1.807   3.089
 4042TIP3    H112132   4.758   1.890   3.124
 4042TIP3    H212133   4.642   1.793   3.136
 4043TIP3   OH212134   1.063   4.766   2.422
 4043TIP3    H112135   1.124   4.720   2.480
 4043TIP3    H212136   0.977   4.739   2.453
 4044TIP3   OH212137   4.722   3.827   0.979
 4044TIP3    H112138   4.736   3.733   0.990
 4044TIP3    H212139   4.793   3.868   1.029
 4045TIP3   OH212140   4.444   1.510   0.418
 4045TIP3    H112141   4.479   1.583   0.366
 4045TIP3    H212142   4.349   1.518   0.409
 4046TIP3   OH212143   1.289   2.875   4.110
 4046TIP3    H112144   1.347   2.929   4.163
 4046TIP3    H212145   1.201   2.906   4.131
 4047TIP3   OH212146   4.703   4.420   1.782
 4047TIP3    H112147   4.677   4.341   1.829
 4047TIP3    H212148   4.794   4.403   1.755
 4048TIP3   OH212149   0.125   0.420   0.001
 4048TIP3    H112150   0.073   0.417   0.082
 4048TIP3    H212151   0.177   0.339   0.003
 4049TIP3   OH212152   1.321   1.363   4.228
 4049TIP3    H112153   1.238   1.323   4.202
 4049TIP3    H212154   1.370   1.293   4.271
 4050TIP3   OH212155   4.742   1.017   1.158
 4050TIP3    H112156   4.750   0.932   1.201
 4050TIP3    H212157   4.655   1.016   1.118
 4051TIP3   OH212158   1.904   1.391   2.906
 4051TIP3    H112159   1.947   1.323   2.959
 4051TIP3    H212160   1.951   1.390   2.823
 4052TIP3   OH212161   4.476   2.442   2.440
 4052TIP3    H112162   4.491   2.523   2.488
 4052TIP3    H212163   4.411   2.465   2.373
 4053TIP3   OH212164   5.986   3.847   4.615
 4053TIP3    H112165   5.905   3.876   4.573
 4053TIP3    H212166   6.034   3.803   4.545
 4054TIP3   OH212167   3.334   5.642   2.764
 4054TIP3    H112168   3.335   5.668   2.856
 4054TIP3    H212169   3.283   5.561   2.763
 4055TIP3   OH212170   0.422   2.913   4.261
 4055TIP3    H112171   0.379   2.847   4.206
 4055TIP3    H212172   0.409   2.996   4.215
 4056TIP3   OH212173   4.583   0.193   1.746
 4056TIP3    H112174   4.594   0.255   1.818
 4056TIP3    H212175   4.512   0.229   1.693
 4057TIP3   OH212176   3.690   4.376   3.786
 4057TIP3    H112177   3.714   4.324   3.710
 4057TIP3    H212178   3.731   4.461   3.771
 4058TIP3   OH212179   1.147   0.621   2.959
 4058TIP3    H112180   1.137   0.650   2.869
 4058TIP3    H212181   1.141   0.702   3.011
 4059TIP3   OH212182   2.304   2.928   2.156
 4059TIP3    H112183   2.295   3.016   2.192
 4059TIP3    H212184   2.316   2.872   2.232
 4060TIP3   OH212185   0.145   3.231   4.602
 4060TIP3    H112186   0.089   3.244   4.525
 4060TIP3    H212187   0.195   3.152   4.582
 4061TIP3   OH212188   0.612   1.855   3.035
 4061TIP3    H112189   0.660   1.819   2.961
 4061TIP3    H212190   0.523   1.820   3.026
 4062TIP3   OH212191   6.148   1.195   2.295
 4062TIP3    H112192   6.176   1.171   2.206
 4062TIP3    H212193   6.061   1.157   2.303
 4063TIP3   OH212194   6.204   2.942   1.668
 4063TIP3    H112195   6.209   2.938   1.764
 4063TIP3    H212196   6.292   2.916   1.639
 4064TIP3   OH212197   0.917   5.123   3.815
 4064TIP3    H112198   0.977   5.196   3.800
 4064TIP3    H212199   0.858   5.125   3.739
 4065TIP3   OH212200   5.110   0.009   2.584
 4065TIP3    H112201   5.034  -0.025   2.537
 4065TIP3    H212202   5.112   0.102   2.561
 4066TIP3   OH212203   0.508   0.259   3.272
 4066TIP3    H112204   0.601   0.274   3.253
 4066TIP3    H212205   0.465   0.339   3.242
 4067TIP3   OH212206   6.133   1.496   0.256
 4067TIP3    H112207   6.216   1.509   0.302
 4067TIP3    H212208   6.083   1.576   0.274
 4068TIP3   OH212209   4.150   4.531   3.731
 4068TIP3    H112210   4.100   4.555   3.809
 4068TIP3    H212211   4.240   4.525   3.762
 4069TIP3   OH212212   0.442   4.871   0.812
 4069TIP3    H112213   0.524   4.826   0.831
 4069TIP3    H212214   0.377   4.823   0.864
 4070TIP3   OH212215   2.302   2.602   4.014
 4070TIP3    H112216   2.387   2.619   3.974
 4070TIP3    H212217   2.244   2.669   3.978
 4071TIP3   OH212218   1.638   4.422   0.287
 4071TIP3    H112219   1.669   4.427   0.196
 4071TIP3    H212220   1.560   4.478   0.289
 4072TIP3   OH212221   2.790   2.148   3.981
 4072TIP3    H112222   2.818   2.176   4.068
 4072TIP3    H212223   2.760   2.228   3.938
 4073TIP3   OH212224   4.086   3.114   1.258
 4073TIP3    H112225   4.142   3.165   1.316
 4073TIP3    H212226   4.141   3.040   1.231
 4074TIP3   OH212227   2.162   3.805   0.464
 4074TIP3    H112228   2.074   3.768   0.475
 4074TIP3    H212229   2.162   3.882   0.520
 4075TIP3   OH212230   2.712   2.379   3.796
 4075TIP3    H112231   2.746   2.362   3.708
 4075TIP3    H212232   2.723   2.473   3.808
 4076TIP3   OH212233   6.289   1.095   4.625
 4076TIP3    H112234   6.307   1.030   4.692
 4076TIP3    H212235   6.372   1.104   4.578
 4077TIP3   OH212236   2.293   0.266   0.517
 4077TIP3    H112237   2.331   0.338   0.467
 4077TIP3    H212238   2.321   0.187   0.471
 4078TIP3   OH212239   3.580   4.442   1.439
 4078TIP3    H112240   3.544   4.473   1.522
 4078TIP3    H212241   3.647   4.379   1.464
 4079TIP3   OH212242   6.358   1.446   0.950
 4079TIP3    H112243   6.265   1.432   0.972
 4079TIP3    H212244   6.378   1.531   0.990
 4080TIP3   OH212245   0.825   4.103   4.254
 4080TIP3    H112246   0.756   4.043   4.282
 4080TIP3    H212247   0.893   4.045   4.218
 4081TIP3   OH212248   2.036   3.127   3.139
 4081TIP3    H112249   2.076   3.143   3.053
 4081TIP3    H212250   2.093   3.062   3.180
 4082TIP3   OH212251   3.007   2.520   3.047
 4082TIP3    H112252   2.989   2.508   3.140
 4082TIP3    H212253   3.060   2.599   3.043
 4083TIP3   OH212254   0.155   4.282   4.405
 4083TIP3    H112255   0.181   4.247   4.490
 4083TIP3    H212256   0.065   4.312   4.417
 4084TIP3   OH212257   4.854   1.252   0.717
 4084TIP3    H112258   4.816   1.167   0.696
 4084TIP3    H212259   4.873   1.246   0.811
 4085TIP3   OH212260   1.495   5.281   2.726
 4085TIP3    H112261   1.418   5.328   2.756
 4085TIP3    H212262   1.503   5.207   2.786
 4086TIP3   OH212263   0.395   3.734   4.124
 4086TIP3    H112264   0.365   3.714   4.035
 4086TIP3    H212265   0.410   3.829   4.122
 4087TIP3   OH212266   2.009   3.997   0.625
 4087TIP3    H112267   1.935   4.034   0.673
 4087TIP3    H212268   2.075   3.978   0.693
 4088TIP3   OH212269   2.925   2.454   0.424
 4088TIP3    H112270   2.926   2.543   0.461
 4088TIP3    H212271   3.005   2.413   0.458
 4089TIP3   OH212272   3.780   4.818   3.242
 4089TIP3    H112273   3.760   4.912   3.242
 4089TIP3    H212274   3.848   4.808   3.176
 4090TIP3   OH212275   4.516   3.952   0.881
 4090TIP3    H112276   4.607   3.937   0.909
 4090TIP3    H212277   4.472   3.983   0.960
 4091TIP3   OH212278   6.194   4.697   4.030
 4091TIP3    H112279   6.144   4.761   3.979
 4091TIP3    H212280   6.140   4.680   4.107
 4092TIP3   OH212281   2.018   0.956   4.997
 4092TIP3    H112282   1.966   0.897   5.053
 4092TIP3    H212283   1.952   1.011   4.954
 4093TIP3   OH212284   6.208   0.362   1.204
 4093TIP3    H112285   6.227   0.290   1.144
 4093TIP3    H212286   6.120   0.392   1.179
 4094TIP3   OH212287   5.934   4.545   3.593
 4094TIP3    H112288   5.926   4.500   3.677
 4094TIP3    H212289   6.018   4.517   3.558
 4095TIP3   OH212290   3.752   4.579   0.322
 4095TIP3    H112291   3.765   4.669   0.352
 4095TIP3    H212292   3.712   4.588   0.236
 4096TIP3   OH212293   5.912   0.977   4.531
 4096TIP3    H112294   5.848   0.979   4.461
 4096TIP3    H212295   5.996   0.962   4.487
 4097TIP3   OH212296   0.528   0.842   0.993
 4097TIP3    H112297   0.492   0.765   1.038
 4097TIP3    H212298   0.466   0.912   1.013
 4098TIP3   OH212299   2.518   1.808   4.030
 4098TIP3    H112300   2.548   1.735   3.976
 4098TIP3    H212301   2.443   1.844   3.981
 4099TIP3   OH212302   1.133   5.379   0.667
 4099TIP3    H112303   1.101   5.469   0.665
 4099TIP3    H212304   1.080   5.332   0.603
 4100TIP3   OH212305   5.641   2.204   1.126
 4100TIP3    H112306   5.568   2.256   1.091
 4100TIP3    H212307   5.617   2.114   1.106
 4101TIP3   OH212308   3.691   4.310   4.887
 4101TIP3    H112309   3.719   4.219   4.896
 4101TIP3    H212310   3.687   4.324   4.793
 4102TIP3   OH212311   2.684   5.479   2.226
 4102TIP3    H112312   2.629   5.402   2.240
 4102TIP3    H212313   2.645   5.546   2.281
 4103TIP3   OH212314   3.068   5.429   3.188
 4103TIP3    H112315   3.116   5.386   3.258
 4103TIP3    H212316   3.051   5.517   3.221
 4104TIP3   OH212317   3.040   0.352   3.331
 4104TIP3    H112318   3.004   0.329   3.245
 4104TIP3    H212319   3.074   0.270   3.366
 4105TIP3   OH212320   0.363   1.253   0.313
 4105TIP3    H112321   0.387   1.322   0.251
 4105TIP3    H212322   0.446   1.212   0.337
 4106TIP3   OH212323   3.022   4.516   0.236
 4106TIP3    H112324   2.972   4.435   0.245
 4106TIP3    H212325   3.008   4.543   0.145
 4107TIP3   OH212326   5.670   0.867   0.171
 4107TIP3    H112327   5.594   0.898   0.121
 4107TIP3    H212328   5.640   0.868   0.262
 4108TIP3   OH212329   1.369   2.040   3.206
 4108TIP3    H112330   1.280   2.032   3.173
 4108TIP3    H212331   1.404   2.118   3.163
 4109TIP3   OH212332   3.366   3.377   1.415
 4109TIP3    H112333   3.304   3.310   1.444
 4109TIP3    H212334   3.447   3.357   1.463
 4110TIP3   OH212335   4.038   0.181   1.589
 4110TIP3    H112336   4.094   0.160   1.515
 4110TIP3    H212337   4.058   0.272   1.610
 4111TIP3   OH212338   1.605   5.319   3.955
 4111TIP3    H112339   1.624   5.294   3.864
 4111TIP3    H212340   1.594   5.414   3.952
 4112TIP3   OH212341   2.820   5.967   3.449
 4112TIP3    H112342   2.810   5.923   3.533
 4112TIP3    H212343   2.750   6.032   3.447
 4113TIP3   OH212344   5.639   1.893   3.325
 4113TIP3    H112345   5.550   1.870   3.298
 4113TIP3    H212346   5.660   1.970   3.273
 4114TIP3   OH212347   2.991   4.174   0.493
 4114TIP3    H112348   3.073   4.132   0.517
 4114TIP3    H212349   2.924   4.121   0.536
 4115TIP3   OH212350   4.890   1.513   1.001
 4115TIP3    H112351   4.819   1.479   0.948
 4115TIP3    H212352   4.906   1.601   0.967
 4116TIP3   OH212353   5.179   4.160   5.176
 4116TIP3    H112354   5.271   4.157   5.151
 4116TIP3    H212355   5.156   4.070   5.195
 4117TIP3   OH212356   4.593   2.113   3.777
 4117TIP3    H112357   4.668   2.083   3.829
 4117TIP3    H212358   4.623   2.192   3.734
 4118TIP3   OH212359   6.350   3.342   3.113
 4118TIP3    H112360   6.357   3.401   3.188
 4118TIP3    H212361   6.307   3.395   3.046
 4119TIP3   OH212362   4.257   1.075   0.595
 4119TIP3    H112363   4.274   1.016   0.668
 4119TIP3    H212364   4.245   1.161   0.635
 4120TIP3   OH212365   3.810   4.716   1.499
 4120TIP3    H112366   3.806   4.668   1.416
 4120TIP3    H212367   3.829   4.807   1.474
 4121TIP3   OH212368   4.125   1.550   2.089
 4121TIP3    H112369   4.157   1.590   2.170
 4121TIP3    H212370   4.197   1.561   2.027
 4122TIP3   OH212371   0.537   3.854   3.538
 4122TIP3    H112372   0.448   3.887   3.527
 4122TIP3    H212373   0.560   3.878   3.628
 4123TIP3   OH212374   4.866   1.159   1.349
 4123TIP3    H112375   4.815   1.104   1.290
 4123TIP3    H212376   4.945   1.107   1.368
 4124TIP3   OH212377   6.338   5.146   4.944
 4124TIP3    H112378   6.264   5.093   4.914
 4124TIP3    H212379   6.357   5.112   5.032
 4125TIP3   OH212380   0.050   1.614   1.859
 4125TIP3    H112381   0.006   1.543   1.907
 4125TIP3    H212382   0.025   1.693   1.906
 4126TIP3   OH212383   3.695   2.136   3.974
 4126TIP3    H112384   3.709   2.073   3.903
 4126TIP3    H212385   3.704   2.083   4.054
 4127TIP3   OH212386   3.125   5.222   1.319
 4127TIP3    H112387   3.050   5.279   1.302
 4127TIP3    H212388   3.174   5.222   1.237
 4128TIP3   OH212389   1.427   5.144   4.044
 4128TIP3    H112390   1.498   5.176   3.988
 4128TIP3    H212391   1.431   5.199   4.122
 4129TIP3   OH212392   4.564   4.059   1.535
 4129TIP3    H112393   4.496   4.118   1.503
 4129TIP3    H212394   4.526   3.972   1.527
 4130TIP3   OH212395   5.412   0.222   2.778
 4130TIP3    H112396   5.471   0.150   2.755
 4130TIP3    H212397   5.433   0.291   2.715
 4131TIP3   OH212398   1.559   3.556   4.053
 4131TIP3    H112399   1.516   3.470   4.049
 4131TIP3    H212400   1.631   3.549   3.990
 4132TIP3   OH212401   1.142   4.920   0.861
 4132TIP3    H112402   1.094   4.908   0.943
 4132TIP3    H212403   1.187   4.837   0.846
 4133TIP3   OH212404   3.405   0.391   0.056
 4133TIP3    H112405   3.380   0.324   0.119
 4133TIP3    H212406   3.349   0.465   0.076
 4134TIP3   OH212407   0.204   2.625   2.607
 4134TIP3    H112408   0.275   2.567   2.579
 4134TIP3    H212409   0.146   2.630   2.531
 4135TIP3   OH212410   1.218   3.183   3.786
 4135TIP3    H112411   1.252   3.272   3.776
 4135TIP3    H212412   1.284   3.137   3.837
 4136TIP3   OH212413   3.204   1.493   1.543
 4136TIP3    H112414   3.281   1.518   1.492
 4136TIP3    H212415   3.240   1.454   1.623
 4137TIP3   OH212416   2.875   4.205   2.692
 4137TIP3    H112417   2.915   4.279   2.646
 4137TIP3    H212418   2.948   4.147   2.712
 4138TIP3   OH212419   3.530   1.163   2.592
 4138TIP3    H112420   3.444   1.197   2.616
 4138TIP3    H212421   3.539   1.185   2.499
 4139TIP3   OH212422   0.409   0.305   0.000
 4139TIP3    H112423   0.387   0.217   0.029
 4139TIP3    H212424   0.422   0.355   0.081
 4140TIP3   OH212425   4.742   2.435   2.103
 4140TIP3    H112426   4.708   2.381   2.031
 4140TIP3    H212427   4.706   2.523   2.085
 4141TIP3   OH212428   2.583  -0.033   4.427
 4141TIP3    H112429   2.577   0.030   4.354
 4141TIP3    H212430   2.535   0.009   4.499
 4142TIP3   OH212431   1.948   4.014   0.359
 4142TIP3    H112432   1.943   4.107   0.379
 4142TIP3    H212433   2.015   3.980   0.418
 4143TIP3   OH212434   0.392   0.393   2.336
 4143TIP3    H112435   0.436   0.381   2.252
 4143TIP3    H212436   0.442   0.338   2.397
 4144TIP3   OH212437   5.378   3.447   4.939
 4144TIP3    H112438   5.448   3.484   4.993
 4144TIP3    H212439   5.300   3.452   4.994
 4145TIP3   OH212440   4.492   4.813   3.262
 4145TIP3    H112441   4.466   4.893   3.216
 4145TIP3    H212442   4.586   4.806   3.247
 4146TIP3   OH212443   6.162   3.053   4.500
 4146TIP3    H112444   6.203   3.108   4.433
 4146TIP3    H212445   6.236   3.010   4.544
 4147TIP3   OH212446   3.965   4.870   4.939
 4147TIP3    H112447   3.975   4.780   4.906
 4147TIP3    H212448   4.031   4.920   4.892
 4148TIP3   OH212449   5.287   1.619   2.269
 4148TIP3    H112450   5.208   1.641   2.220
 4148TIP3    H212451   5.285   1.677   2.346
 4149TIP3   OH212452   2.221   4.954   2.814
 4149TIP3    H112453   2.313   4.929   2.819
 4149TIP3    H212454   2.178   4.878   2.775
 4150TIP3   OH212455   0.277   0.128   5.044
 4150TIP3    H112456   0.349   0.072   5.015
 4150TIP3    H212457   0.280   0.203   4.985
 4151TIP3   OH212458   5.945   5.662   4.456
 4151TIP3    H112459   6.007   5.705   4.397
 4151TIP3    H212460   5.865   5.715   4.450
 4152TIP3   OH212461   1.295   0.884   0.671
 4152TIP3    H112462   1.362   0.939   0.629
 4152TIP3    H212463   1.288   0.807   0.615
 4153TIP3   OH212464   4.141   1.827   2.674
 4153TIP3    H112465   4.203   1.886   2.630
 4153TIP3    H212466   4.076   1.806   2.607
 4154TIP3   OH212467   4.853   3.092   2.255
 4154TIP3    H112468   4.819   3.010   2.290
 4154TIP3    H212469   4.777   3.149   2.249
 4155TIP3   OH212470   4.187   2.329   3.733
 4155TIP3    H112471   4.274   2.299   3.704
 4155TIP3    H212472   4.175   2.412   3.687
 4156TIP3   OH212473   1.937   0.946   4.005
 4156TIP3    H112474   1.851   0.981   4.031
 4156TIP3    H212475   1.919   0.857   3.975
 4157TIP3   OH212476   2.209   5.221   0.900
 4157TIP3    H112477   2.243   5.157   0.838
 4157TIP3    H212478   2.278   5.287   0.908
 4158TIP3   OH212479   1.277   2.910   2.203
 4158TIP3    H112480   1.252   2.897   2.294
 4158TIP3    H212481   1.220   2.981   2.172
 4159TIP3   OH212482   1.053   2.382   1.097
 4159TIP3    H112483   1.064   2.367   1.191
 4159TIP3    H212484   1.142   2.393   1.064
 4160TIP3   OH212485   0.404   2.299   3.020
 4160TIP3    H112486   0.405   2.349   3.102
 4160TIP3    H212487   0.481   2.242   3.027
 4161TIP3   OH212488   1.550   4.520   4.733
 4161TIP3    H112489   1.615   4.515   4.663
 4161TIP3    H212490   1.468   4.492   4.692
 4162TIP3   OH212491   6.030   1.167   0.030
 4162TIP3    H112492   6.091   1.240   0.012
 4162TIP3    H212493   6.086   1.094   0.053
 4163TIP3   OH212494   5.240   2.956   0.806
 4163TIP3    H112495   5.241   2.925   0.896
 4163TIP3    H212496   5.177   3.028   0.806
 4164TIP3   OH212497   6.323   0.642   0.494
 4164TIP3    H112498   6.256   0.663   0.429
 4164TIP3    H212499   6.406   0.651   0.447
 4165TIP3   OH212500   0.196   3.941   1.581
 4165TIP3    H112501   0.276   3.907   1.541
 4165TIP3    H212502   0.170   4.014   1.525
 4166TIP3   OH212503   4.509   3.975   4.946
 4166TIP3    H112504   4.424   3.937   4.924
 4166TIP3    H212505   4.556   3.979   4.862
 4167TIP3   OH212506   6.168   0.600   4.927
 4167TIP3    H112507   6.075   0.603   4.902
 4167TIP3    H212508   6.188   0.506   4.931
 4168TIP3   OH212509   2.121   2.353   1.578
 4168TIP3    H112510   2.138   2.268   1.537
 4168TIP3    H212511   2.055   2.394   1.522
 4169TIP3   OH212512   0.760   1.289   3.384
 4169TIP3    H112513   0.681   1.246   3.416
 4169TIP3    H212514   0.808   1.220   3.338
 4170TIP3   OH212515   3.459   0.958   0.783
 4170TIP3    H112516   3.542   0.940   0.826
 4170TIP3    H212517   3.421   1.030   0.835
 4171TIP3   OH212518   0.408   1.639   0.983
 4171TIP3    H112519   0.419   1.668   0.892
 4171TIP3    H212520   0.360   1.711   1.025
 4172TIP3   OH212521   4.848   2.149   4.482
 4172TIP3    H112522   4.773   2.170   4.538
 4172TIP3    H212523   4.873   2.233   4.443
 4173TIP3   OH212524   2.835   3.828   4.273
 4173TIP3    H112525   2.849   3.754   4.332
 4173TIP3    H212526   2.828   3.788   4.187
 4174TIP3   OH212527   5.024   0.743   4.708
 4174TIP3    H112528   5.004   0.835   4.723
 4174TIP3    H212529   5.107   0.729   4.753
 4175TIP3   OH212530   0.162   2.364   0.123
 4175TIP3    H112531   0.211   2.299   0.074
 4175TIP3    H212532   0.227   2.405   0.181
 4176TIP3   OH212533   2.325   3.798   1.309
 4176TIP3    H112534   2.359   3.780   1.222
 4176TIP3    H212535   2.402   3.822   1.361
 4177TIP3   OH212536   4.734   4.739   0.464
 4177TIP3    H112537   4.813   4.686   0.452
 4177TIP3    H212538   4.682   4.724   0.386
 4178TIP3   OH212539   0.188   0.884   3.531
 4178TIP3    H112540   0.125   0.956   3.535
 4178TIP3    H212541   0.135   0.806   3.511
 4179TIP3   OH212542   1.807   4.600   1.812
 4179TIP3    H112543   1.762   4.572   1.891
 4179TIP3    H212544   1.832   4.518   1.768
 4180TIP3   OH212545   1.782   0.549   4.556
 4180TIP3    H112546   1.823   0.605   4.490
 4180TIP3    H212547   1.728   0.488   4.506
 4181TIP3   OH212548   2.538   3.973   3.096
 4181TIP3    H112549   2.442   3.973   3.106
 4181TIP3    H212550   2.563   3.881   3.106
 4182TIP3   OH212551   2.492   0.457   4.448
 4182TIP3    H112552   2.556   0.386   4.457
 4182TIP3    H212553   2.532   0.517   4.385
 4183TIP3   OH212554   3.258   2.625   1.605
 4183TIP3    H112555   3.305   2.619   1.522
 4183TIP3    H212556   3.165   2.620   1.581
 4184TIP3   OH212557   3.535   3.677   0.317
 4184TIP3    H112558   3.474   3.644   0.250
 4184TIP3    H212559   3.480   3.732   0.373
 4185TIP3   OH212560   1.919   1.045   0.578
 4185TIP3    H112561   1.896   0.977   0.641
 4185TIP3    H212562   1.967   0.998   0.509
 4186TIP3   OH212563   2.898   5.968   0.487
 4186TIP3    H112564   2.821   6.003   0.442
 4186TIP3    H212565   2.880   5.874   0.495
 4187TIP3   OH212566   4.003   3.446   2.425
 4187TIP3    H112567   4.078   3.391   2.401
 4187TIP3    H212568   4.022   3.475   2.514
 4188TIP3   OH212569   4.609   4.373   4.179
 4188TIP3    H112570   4.643   4.425   4.106
 4188TIP3    H212571   4.585   4.289   4.139
 4189TIP3   OH212572   2.983   3.262   1.035
 4189TIP3    H112573   2.911   3.325   1.036
 4189TIP3    H212574   3.060   3.315   1.016
 4190TIP3   OH212575   2.901   2.007   4.820
 4190TIP3    H112576   2.829   2.049   4.867
 4190TIP3    H212577   2.945   1.953   4.886
 4191TIP3   OH212578   1.646   1.628   1.649
 4191TIP3    H112579   1.591   1.689   1.698
 4191TIP3    H212580   1.584   1.567   1.608
 4192TIP3   OH212581   0.211   4.551   4.356
 4192TIP3    H112582   0.182   4.471   4.400
 4192TIP3    H212583   0.174   4.545   4.268
 4193TIP3   OH212584   6.010   3.722   4.869
 4193TIP3    H112585   5.980   3.783   4.937
 4193TIP3    H212586   6.008   3.774   4.789
 4194TIP3   OH212587   2.000   4.732   2.004
 4194TIP3    H112588   2.070   4.669   1.986
 4194TIP3    H212589   1.933   4.712   1.939
 4195TIP3   OH212590   1.115   1.818   2.932
 4195TIP3    H112591   1.187   1.869   2.895
 4195TIP3    H212592   1.041   1.834   2.873
 4196TIP3   OH212593   5.961   1.749   3.170
 4196TIP3    H112594   5.987   1.676   3.114
 4196TIP3    H212595   5.966   1.714   3.259
 4197TIP3   OH212596   3.105   3.664   4.968
 4197TIP3    H112597   3.093   3.572   4.991
 4197TIP3    H212598   3.078   3.712   5.046
 4198TIP3   OH212599   0.797   3.137   1.627
 4198TIP3    H112600   0.754   3.190   1.694
 4198TIP3    H212601   0.757   3.051   1.636
 4199TIP3   OH212602   0.477   3.999   0.897
 4199TIP3    H112603   0.414   4.000   0.826
 4199TIP3    H212604   0.525   3.917   0.886
 4200TIP3   OH212605   5.341   1.589   3.280
 4200TIP3    H112606   5.316   1.674   3.316
 4200TIP3    H212607   5.291   1.583   3.199
 4201TIP3   OH212608   2.053   4.344   3.006
 4201TIP3    H112609   1.974   4.398   3.009
 4201TIP3    H212610   2.093   4.357   3.092
 4202TIP3   OH212611   2.587   0.127   4.767
 4202TIP3    H112612   2.642   0.196   4.805
 4202TIP3    H212613   2.649   0.067   4.725
 4203TIP3   OH212614   3.055   0.924   0.856
 4203TIP3    H112615   3.128   0.986   0.846
 4203TIP3    H212616   3.094   0.848   0.898
 4204TIP3   OH212617   2.472   4.820   1.066
 4204TIP3    H112618   2.392   4.834   1.015
 4204TIP3    H212619   2.510   4.740   1.029
 4205TIP3   OH212620   2.729   3.351   2.050
 4205TIP3    H112621   2.711   3.409   1.977
 4205TIP3    H212622   2.659   3.369   2.113
 4206TIP3   OH212623   5.707   4.984   0.738
 4206TIP3    H112624   5.673   4.938   0.815
 4206TIP3    H212625   5.630   4.996   0.682
 4207TIP3   OH212626   1.875   0.131   2.030
 4207TIP3    H112627   1.841   0.196   1.969
 4207TIP3    H212628   1.968   0.123   2.008
 4208TIP3   OH212629   3.228   4.911   1.529
 4208TIP3    H112630   3.247   4.914   1.623
 4208TIP3    H212631   3.151   4.967   1.519
 4209TIP3   OH212632   3.539   0.064   3.501
 4209TIP3    H112633   3.466   0.027   3.550
 4209TIP3    H212634   3.592  -0.011   3.475
 4210TIP3   OH212635   1.932   1.775   3.443
 4210TIP3    H112636   1.989   1.768   3.520
 4210TIP3    H212637   1.983   1.736   3.372
 4211TIP3   OH212638   3.610   1.519   0.997
 4211TIP3    H112639   3.576   1.431   1.010
 4211TIP3    H212640   3.624   1.553   1.086
 4212TIP3   OH212641   0.448   4.463   4.622
 4212TIP3    H112642   0.465   4.554   4.598
 4212TIP3    H212643   0.388   4.468   4.696
 4213TIP3   OH212644   1.379   3.594   1.899
 4213TIP3    H112645   1.388   3.513   1.949
 4213TIP3    H212646   1.389   3.664   1.964
 4214TIP3   OH212647   3.872   5.652   2.630
 4214TIP3    H112648   3.934   5.724   2.620
 4214TIP3    H212649   3.797   5.691   2.674
 4215TIP3   OH212650   0.199   1.686   3.152
 4215TIP3    H112651   0.163   1.771   3.176
 4215TIP3    H212652   0.254   1.703   3.076
 4216TIP3   OH212653   2.937   2.635   1.867
 4216TIP3    H112654   2.910   2.543   1.859
 4216TIP3    H212655   2.922   2.672   1.780
 4217TIP3   OH212656   5.225   2.444   3.572
 4217TIP3    H112657   5.176   2.408   3.646
 4217TIP3    H212658   5.264   2.525   3.606
 4218TIP3   OH212659   0.923   0.114   4.461
 4218TIP3    H112660   0.893   0.200   4.430
 4218TIP3    H212661   0.845   0.058   4.453
 4219TIP3   OH212662   2.419   5.717   2.034
 4219TIP3    H112663   2.350   5.685   1.975
 4219TIP3    H212664   2.371   5.752   2.109
 4220TIP3   OH212665   5.930   5.181   3.645
 4220TIP3    H112666   6.016   5.167   3.604
 4220TIP3    H212667   5.891   5.251   3.592
 4221TIP3   OH212668   2.205   0.172   3.062
 4221TIP3    H112669   2.127   0.223   3.039
 4221TIP3    H212670   2.174   0.107   3.125
 4222TIP3   OH212671   2.905   3.627   1.760
 4222TIP3    H112672   2.810   3.634   1.770
 4222TIP3    H212673   2.916   3.597   1.670
 4223TIP3   OH212674   3.829   3.208   0.156
 4223TIP3    H112675   3.851   3.131   0.208
 4223TIP3    H212676   3.827   3.280   0.220
 4224TIP3   OH212677   1.101   2.103   2.759
 4224TIP3    H112678   1.106   2.156   2.679
 4224TIP3    H212679   1.180   2.128   2.808
 4225TIP3   OH212680   6.334   0.314   5.166
 4225TIP3    H112681   6.328   0.338   5.074
 4225TIP3    H212682   6.266   0.248   5.179
 4226TIP3   OH212683   5.230   4.326   3.487
 4226TIP3    H112684   5.162   4.279   3.536
 4226TIP3    H212685   5.213   4.418   3.505
 4227TIP3   OH212686   1.548   4.400   1.228
 4227TIP3    H112687   1.590   4.410   1.313
 4227TIP3    H212688   1.473   4.459   1.231
 4228TIP3   OH212689   3.486   3.126   2.049
 4228TIP3    H112690   3.558   3.136   2.110
 4228TIP3    H212691   3.484   3.032   2.030
 4229TIP3   OH212692   3.519   3.983   4.374
 4229TIP3    H112693   3.591   4.028   4.331
 4229TIP3    H212694   3.498   4.037   4.449
 4230TIP3   OH212695   0.028   0.375   0.546
 4230TIP3    H112696   0.119   0.374   0.517
 4230TIP3    H212697  -0.001   0.465   0.532
 4231TIP3   OH212698   5.435   3.914   4.565
 4231TIP3    H112699   5.341   3.904   4.553
 4231TIP3    H212700   5.460   3.984   4.504
 4232TIP3   OH212701   1.838   0.023   4.944
 4232TIP3    H112702   1.878   0.028   5.031
 4232TIP3    H212703   1.758   0.074   4.952
 4233TIP3   OH212704   4.456   1.270   0.224
 4233TIP3    H112705   4.537   1.273   0.173
 4233TIP3    H212706   4.455   1.353   0.272
 4234TIP3   OH212707   6.310   4.876   1.918
 4234TIP3    H112708   6.362   4.954   1.938
 4234TIP3    H212709   6.238   4.879   1.980
 4235TIP3   OH212710   2.079   1.719   1.740
 4235TIP3    H112711   2.127   1.755   1.815
 4235TIP3    H212712   2.092   1.783   1.670
 4236TIP3   OH212713   1.088   5.149   4.471
 4236TIP3    H112714   1.103   5.089   4.399
 4236TIP3    H212715   1.137   5.228   4.448
 4237TIP3   OH212716   3.053   2.933   4.903
 4237TIP3    H112717   3.120   2.915   4.969
 4237TIP3    H212718   3.052   2.855   4.848
 4238TIP3   OH212719   4.328   5.182   2.492
 4238TIP3    H112720   4.271   5.118   2.533
 4238TIP3    H212721   4.408   5.181   2.545
 4239TIP3   OH212722   5.024   3.252   0.491
 4239TIP3    H112723   5.114   3.234   0.463
 4239TIP3    H212724   5.019   3.215   0.580
 4240TIP3   OH212725   3.619   1.118   4.991
 4240TIP3    H112726   3.568   1.150   4.916
 4240TIP3    H212727   3.709   1.143   4.971
 4241TIP3   OH212728   1.560   0.550   2.055
 4241TIP3    H112729   1.576   0.585   1.967
 4241TIP3    H212730   1.497   0.479   2.041
 4242TIP3   OH212731   5.317   5.545   0.446
 4242TIP3    H112732   5.265   5.622   0.423
 4242TIP3    H212733   5.406   5.578   0.457
 4243TIP3   OH212734   4.056   3.767   2.965
 4243TIP3    H112735   4.032   3.838   2.905
 4243TIP3    H212736   3.977   3.712   2.969
 4244TIP3   OH212737   4.850   1.621   0.166
 4244TIP3    H112738   4.860   1.710   0.133
 4244TIP3    H212739   4.939   1.593   0.188
 4245TIP3   OH212740   4.798   4.603   0.858
 4245TIP3    H112741   4.711   4.594   0.897
 4245TIP3    H212742   4.858   4.602   0.932
 4246TIP3   OH212743   0.040   2.319   1.771
 4246TIP3    H112744   0.061   2.295   1.861
 4246TIP3    H212745  -0.006   2.243   1.735
 4247TIP3   OH212746   5.138   0.437   0.364
 4247TIP3    H112747   5.091   0.385   0.300
 4247TIP3    H212748   5.127   0.390   0.447
 4248TIP3   OH212749   2.699   4.673   5.107
 4248TIP3    H112750   2.725   4.752   5.059
 4248TIP3    H212751   2.656   4.706   5.187
 4249TIP3   OH212752   1.161   2.687   0.820
 4249TIP3    H112753   1.208   2.671   0.902
 4249TIP3    H212754   1.089   2.745   0.845
 4250TIP3   OH212755   2.286   4.598   0.757
 4250TIP3    H112756   2.269   4.692   0.746
 4250TIP3    H212757   2.237   4.574   0.835
 4251TIP3   OH212758   0.657   0.118   1.030
 4251TIP3    H112759   0.613   0.104   1.114
 4251TIP3    H212760   0.586   0.117   0.966
 4252TIP3   OH212761   2.176   2.241   4.917
 4252TIP3    H112762   2.224   2.208   4.993
 4252TIP3    H212763   2.238   2.301   4.874
 4253TIP3   OH212764   3.434   0.899   5.033
 4253TIP3    H112765   3.415   0.905   5.126
 4253TIP3    H212766   3.520   0.941   5.023
 4254TIP3   OH212767   3.722   3.699   4.090
 4254TIP3    H112768   3.765   3.665   4.168
 4254TIP3    H212769   3.748   3.639   4.020
 4255TIP3   OH212770   0.091   1.088   2.909
 4255TIP3    H112771   0.039   1.120   2.983
 4255TIP3    H212772   0.173   1.057   2.948
 4256TIP3   OH212773   2.472   4.470   4.334
 4256TIP3    H112774   2.452   4.487   4.242
 4256TIP3    H212775   2.566   4.489   4.342
 4257TIP3   OH212776   1.131   4.565   3.794
 4257TIP3    H112777   1.101   4.482   3.758
 4257TIP3    H212778   1.173   4.542   3.877
 4258TIP3   OH212779   5.847   5.854   4.030
 4258TIP3    H112780   5.755   5.843   4.056
 4258TIP3    H212781   5.891   5.884   4.110
 4259TIP3   OH212782   1.103   3.748   0.717
 4259TIP3    H112783   1.177   3.688   0.708
 4259TIP3    H212784   1.143   3.835   0.721
 4260TIP3   OH212785   3.344   3.671   2.049
 4260TIP3    H112786   3.335   3.759   2.087
 4260TIP3    H212787   3.371   3.616   2.122
 4261TIP3   OH212788   3.341   5.840   3.311
 4261TIP3    H112789   3.284   5.913   3.335
 4261TIP3    H212790   3.410   5.840   3.378
 4262TIP3   OH212791   2.432   3.184   4.480
 4262TIP3    H112792   2.465   3.273   4.498
 4262TIP3    H212793   2.502   3.126   4.509
 4263TIP3   OH212794   3.745   2.901   4.247
 4263TIP3    H112795   3.664   2.861   4.217
 4263TIP3    H212796   3.814   2.841   4.219
 4264TIP3   OH212797   0.254   2.497   5.005
 4264TIP3    H112798   0.340   2.457   5.016
 4264TIP3    H212799   0.269   2.567   4.941
 4265TIP3   OH212800   3.435   0.616   4.329
 4265TIP3    H112801   3.394   0.662   4.256
 4265TIP3    H212802   3.480   0.542   4.288
 4266TIP3   OH212803   3.276   1.900   3.257
 4266TIP3    H112804   3.227   1.929   3.334
 4266TIP3    H212805   3.215   1.907   3.184
 4267TIP3   OH212806   6.009   3.092   5.051
 4267TIP3    H112807   5.974   3.137   4.974
 4267TIP3    H212808   6.092   3.136   5.069
 4268TIP3   OH212809   0.587   2.112   2.287
 4268TIP3    H112810   0.640   2.064   2.351
 4268TIP3    H212811   0.635   2.103   2.204
 4269TIP3   OH212812   0.148   4.597   3.522
 4269TIP3    H112813   0.091   4.589   3.446
 4269TIP3    H212814   0.096   4.647   3.586
 4270TIP3   OH212815   1.510   5.948   4.715
 4270TIP3    H112816   1.537   5.876   4.659
 4270TIP3    H212817   1.566   5.939   4.793
 4271TIP3   OH212818   4.964   2.181   2.692
 4271TIP3    H112819   4.956   2.275   2.679
 4271TIP3    H212820   4.903   2.142   2.629
 4272TIP3   OH212821   4.156   3.118   2.701
 4272TIP3    H112822   4.081   3.148   2.650
 4272TIP3    H212823   4.223   3.185   2.686
 4273TIP3   OH212824   0.775   3.850   4.664
 4273TIP3    H112825   0.761   3.802   4.582
 4273TIP3    H212826   0.695   3.900   4.677
 4274TIP3   OH212827   3.748   2.948   1.907
 4274TIP3    H112828   3.659   2.927   1.878
 4274TIP3    H212829   3.799   2.870   1.886
 4275TIP3   OH212830   4.933   1.726   0.785
 4275TIP3    H112831   4.913   1.647   0.736
 4275TIP3    H212832   4.875   1.793   0.747
 4276TIP3   OH212833   3.500   3.755   0.729
 4276TIP3    H112834   3.462   3.820   0.669
 4276TIP3    H212835   3.563   3.707   0.675
 4277TIP3   OH212836   1.736   5.918   0.620
 4277TIP3    H112837   1.693   5.903   0.535
 4277TIP3    H212838   1.685   5.864   0.681
 4278TIP3   OH212839   1.707   1.190   2.885
 4278TIP3    H112840   1.618   1.200   2.920
 4278TIP3    H212841   1.738   1.279   2.872
 4279TIP3   OH212842   5.528   5.179   1.850
 4279TIP3    H112843   5.619   5.151   1.844
 4279TIP3    H212844   5.526   5.265   1.807
 4280TIP3   OH212845   2.310   1.114   2.186
 4280TIP3    H112846   2.277   1.187   2.133
 4280TIP3    H212847   2.403   1.132   2.196
 4281TIP3   OH212848   2.788   2.282   0.159
 4281TIP3    H112849   2.851   2.212   0.178
 4281TIP3    H212850   2.770   2.322   0.244
 4282TIP3   OH212851   3.491   0.838   1.803
 4282TIP3    H112852   3.455   0.885   1.728
 4282TIP3    H212853   3.445   0.754   1.802
 4283TIP3   OH212854   0.802   0.903   2.886
 4283TIP3    H112855   0.889   0.865   2.881
 4283TIP3    H212856   0.770   0.903   2.796
 4284TIP3   OH212857   3.731   0.344   1.681
 4284TIP3    H112858   3.771   0.351   1.595
 4284TIP3    H212859   3.772   0.267   1.720
 4285TIP3   OH212860   1.797   3.068   1.295
 4285TIP3    H112861   1.850   3.134   1.250
 4285TIP3    H212862   1.744   3.029   1.226
 4286TIP3   OH212863   4.771   1.908   4.331
 4286TIP3    H112864   4.696   1.890   4.388
 4286TIP3    H212865   4.827   1.965   4.382
 4287TIP3   OH212866   5.836   3.683   3.188
 4287TIP3    H112867   5.891   3.716   3.259
 4287TIP3    H212868   5.896   3.636   3.130
 4288TIP3   OH212869   0.102   1.011   0.915
 4288TIP3    H112870   0.007   1.024   0.921
 4288TIP3    H212871   0.112   0.921   0.885
 4289TIP3   OH212872   6.165   1.071   1.656
 4289TIP3    H112873   6.203   1.098   1.572
 4289TIP3    H212874   6.225   1.005   1.689
 4290TIP3   OH212875   4.525   4.496   4.410
 4290TIP3    H112876   4.560   4.583   4.391
 4290TIP3    H212877   4.528   4.451   4.325
 4291TIP3   OH212878   1.671   3.546   2.221
 4291TIP3    H112879   1.613   3.610   2.180
 4291TIP3    H212880   1.743   3.598   2.256
 4292TIP3   OH212881   4.815   3.475   2.379
 4292TIP3    H112882   4.816   3.424   2.460
 4292TIP3    H212883   4.798   3.410   2.311
 4293TIP3   OH212884   3.377   4.269   3.437
 4293TIP3    H112885   3.459   4.292   3.394
 4293TIP3    H212886   3.401   4.249   3.527
 4294TIP3   OH212887   5.337   3.622   4.326
 4294TIP3    H112888   5.300   3.544   4.285
 4294TIP3    H212889   5.267   3.687   4.322
 4295TIP3   OH212890   6.032   2.459   3.296
 4295TIP3    H112891   6.033   2.420   3.384
 4295TIP3    H212892   6.024   2.384   3.237
 4296TIP3   OH212893   5.669   4.227   4.740
 4296TIP3    H112894   5.742   4.184   4.695
 4296TIP3    H212895   5.598   4.227   4.676
 4297TIP3   OH212896   2.826   2.595   3.242
 4297TIP3    H112897   2.881   2.632   3.311
 4297TIP3    H212898   2.802   2.508   3.276
 4298TIP3   OH212899   3.471   3.508   1.744
 4298TIP3    H112900   3.476   3.442   1.675
 4298TIP3    H212901   3.382   3.500   1.779
 4299TIP3   OH212902   1.544   3.692   2.487
 4299TIP3    H112903   1.479   3.745   2.442
 4299TIP3    H212904   1.570   3.626   2.422
 4300TIP3   OH212905   5.581   1.487   2.308
 4300TIP3    H112906   5.532   1.569   2.309
 4300TIP3    H212907   5.590   1.464   2.216
 4301TIP3   OH212908   0.915   4.041   1.983
 4301TIP3    H112909   0.883   4.083   1.903
 4301TIP3    H212910   0.840   4.042   2.042
 4302TIP3   OH212911   2.448   4.670   0.204
 4302TIP3    H112912   2.400   4.601   0.250
 4302TIP3    H212913   2.540   4.650   0.221
 4303TIP3   OH212914   1.910   1.966   1.332
 4303TIP3    H112915   1.868   1.985   1.416
 4303TIP3    H212916   1.841   1.980   1.267
 4304TIP3   OH212917   4.677   5.104   0.976
 4304TIP3    H112918   4.680   5.183   1.030
 4304TIP3    H212919   4.638   5.133   0.893
 4305TIP3   OH212920   1.856   5.248   1.486
 4305TIP3    H112921   1.917   5.319   1.507
 4305TIP3    H212922   1.904   5.193   1.425
 4306TIP3   OH212923   2.387   0.820   1.055
 4306TIP3    H112924   2.422   0.736   1.026
 4306TIP3    H212925   2.351   0.803   1.142
 4307TIP3   OH212926   5.120   0.371   4.839
 4307TIP3    H112927   5.097   0.399   4.750
 4307TIP3    H212928   5.196   0.425   4.862
 4308TIP3   OH212929   0.220   3.072   0.422
 4308TIP3    H112930   0.264   3.120   0.492
 4308TIP3    H212931   0.151   3.131   0.392
 4309TIP3   OH212932   2.763   2.712   2.984
 4309TIP3    H112933   2.819   2.685   3.056
 4309TIP3    H212934   2.779   2.806   2.976
 4310TIP3   OH212935   5.057   5.066   1.976
 4310TIP3    H112936   5.084   5.122   2.049
 4310TIP3    H212937   5.126   5.076   1.911
 4311TIP3   OH212938   2.852   5.293   0.297
 4311TIP3    H112939   2.924   5.312   0.236
 4311TIP3    H212940   2.850   5.197   0.302
 4312TIP3   OH212941   5.242   4.598   1.622
 4312TIP3    H112942   5.265   4.514   1.583
 4312TIP3    H212943   5.280   4.595   1.710
 4313TIP3   OH212944   5.136   0.189   5.027
 4313TIP3    H112945   5.219   0.149   5.001
 4313TIP3    H212946   5.119   0.256   4.961
 4314TIP3   OH212947   3.181   4.214   2.365
 4314TIP3    H112948   3.239   4.225   2.290
 4314TIP3    H212949   3.103   4.266   2.344
 4315TIP3   OH212950   5.007   4.622   2.758
 4315TIP3    H112951   5.017   4.534   2.720
 4315TIP3    H212952   4.927   4.656   2.720
 4316TIP3   OH212953   4.939   4.411   3.629
 4316TIP3    H112954   4.996   4.385   3.701
 4316TIP3    H212955   4.971   4.497   3.603
 4317TIP3   OH212956   0.548   1.845   4.231
 4317TIP3    H112957   0.477   1.798   4.275
 4317TIP3    H212958   0.555   1.928   4.279
 4318TIP3   OH212959   5.635   2.170   3.695
 4318TIP3    H112960   5.688   2.134   3.623
 4318TIP3    H212961   5.636   2.102   3.762
 4319TIP3   OH212962   6.257   4.119   0.365
 4319TIP3    H112963   6.220   4.042   0.322
 4319TIP3    H212964   6.278   4.179   0.293
 4320TIP3   OH212965   1.496   2.955   0.270
 4320TIP3    H112966   1.530   2.871   0.239
 4320TIP3    H212967   1.563   2.989   0.329
 4321TIP3   OH212968   4.344   1.335   3.655
 4321TIP3    H112969   4.381   1.260   3.702
 4321TIP3    H212970   4.256   1.306   3.629
 4322TIP3   OH212971   2.501   1.894   4.691
 4322TIP3    H112972   2.543   1.823   4.739
 4322TIP3    H212973   2.551   1.972   4.715
 4323TIP3   OH212974   3.496   2.601   0.076
 4323TIP3    H112975   3.486   2.519   0.028
 4323TIP3    H212976   3.429   2.597   0.144
 4324TIP3   OH212977   2.148   5.718   2.987
 4324TIP3    H112978   2.062   5.680   2.966
 4324TIP3    H212979   2.142   5.809   2.956
 4325TIP3   OH212980   1.535   0.624   1.049
 4325TIP3    H112981   1.493   0.559   1.105
 4325TIP3    H212982   1.494   0.612   0.963
 4326TIP3   OH212983   2.358   2.750   2.359
 4326TIP3    H112984   2.446   2.743   2.397
 4326TIP3    H212985   2.328   2.659   2.352
 4327TIP3   OH212986   4.312   3.326   2.640
 4327TIP3    H112987   4.335   3.322   2.547
 4327TIP3    H212988   4.230   3.376   2.642
 4328TIP3   OH212989   1.148   3.277   4.056
 4328TIP3    H112990   1.073   3.233   4.096
 4328TIP3    H212991   1.118   3.297   3.967
 4329TIP3   OH212992   1.305   2.828   3.827
 4329TIP3    H112993   1.295   2.733   3.833
 4329TIP3    H212994   1.291   2.859   3.916
 4330TIP3   OH212995   1.192   5.245   1.148
 4330TIP3    H112996   1.263   5.218   1.205
 4330TIP3    H212997   1.224   5.228   1.059
 4331TIP3   OH212998   3.119   5.006   3.288
 4331TIP3    H112999   3.190   5.064   3.259
 4331TIP3    H213000   3.044   5.031   3.233
 4332TIP3   OH213001   0.267   4.922   2.163
 4332TIP3    H113002   0.235   4.832   2.172
 4332TIP3    H213003   0.288   4.948   2.252
 4333TIP3   OH213004   2.096   5.792   4.556
 4333TIP3    H113005   2.155   5.866   4.542
 4333TIP3    H213006   2.148   5.730   4.609
 4334TIP3   OH213007   5.474   5.391   0.845
 4334TIP3    H113008   5.545   5.364   0.788
 4334TIP3    H213009   5.400   5.337   0.818
 4335TIP3   OH213010   3.299   5.531   0.712
 4335TIP3    H113011   3.362   5.592   0.675
 4335TIP3    H213012   3.214   5.564   0.684
 4336TIP3   OH213013   4.323   0.373   1.024
 4336TIP3    H113014   4.369   0.349   0.944
 4336TIP3    H213015   4.377   0.338   1.095
 4337TIP3   OH213016   1.513   1.425   0.670
 4337TIP3    H113017   1.445   1.485   0.640
 4337TIP3    H213018   1.474   1.379   0.745
 4338TIP3   OH213019   0.429   1.326   1.147
 4338TIP3    H113020   0.503   1.276   1.183
 4338TIP3    H213021   0.397   1.378   1.220
 4339TIP3   OH213022   2.241   2.999   3.769
 4339TIP3    H113023   2.224   3.088   3.797
 4339TIP3    H213024   2.179   2.945   3.819
 4340TIP3   OH213025   1.211   1.051   2.090
 4340TIP3    H113026   1.235   1.105   2.014
 4340TIP3    H213027   1.292   1.008   2.114
 4341TIP3   OH213028   3.866   3.876   2.296
 4341TIP3    H113029   3.831   3.956   2.334
 4341TIP3    H213030   3.855   3.810   2.365
 4342TIP3   OH213031   3.171   0.201   2.068
 4342TIP3    H113032   3.206   0.264   2.132
 4342TIP3    H213033   3.231   0.207   1.993
 4343TIP3   OH213034   1.875   5.387   2.075
 4343TIP3    H113035   1.833   5.426   1.998
 4343TIP3    H213036   1.811   5.398   2.145
 4344TIP3   OH213037   5.271   2.653   2.701
 4344TIP3    H113038   5.221   2.663   2.620
 4344TIP3    H213039   5.237   2.574   2.742
 4345TIP3   OH213040   0.589   3.754   1.893
 4345TIP3    H113041   0.602   3.760   1.988
 4345TIP3    H213042   0.529   3.680   1.881
 4346TIP3   OH213043   2.934   0.898   3.676
 4346TIP3    H113044   2.930   0.871   3.767
 4346TIP3    H213045   2.896   0.986   3.676
 4347TIP3   OH213046   2.059   0.898   4.444
 4347TIP3    H113047   1.991   0.943   4.494
 4347TIP3    H213048   2.128   0.880   4.508
 4348TIP3   OH213049   3.652   0.029   3.078
 4348TIP3    H113050   3.592   0.001   3.009
 4348TIP3    H213051   3.626   0.118   3.099
 4349TIP3   OH213052   2.062   3.700   1.111
 4349TIP3    H113053   2.085   3.791   1.094
 4349TIP3    H213054   2.083   3.654   1.029
 4350TIP3   OH213055   0.851   3.072   3.738
 4350TIP3    H113056   0.911   2.999   3.735
 4350TIP3    H213057   0.781   3.044   3.797
 4351TIP3   OH213058   2.064   1.104   1.525
 4351TIP3    H113059   1.988   1.147   1.564
 4351TIP3    H213060   2.111   1.066   1.600
 4352TIP3   OH213061   3.828   2.177   1.947
 4352TIP3    H113062   3.794   2.128   2.022
 4352TIP3    H213063   3.880   2.113   1.898
 4353TIP3   OH213064   0.742   4.928   2.167
 4353TIP3    H113065   0.782   5.014   2.152
 4353TIP3    H213066   0.677   4.944   2.237
 4354TIP3   OH213067   4.079   4.498   0.782
 4354TIP3    H113068   4.034   4.561   0.725
 4354TIP3    H213069   4.011   4.466   0.841
 4355TIP3   OH213070   3.907   4.379   2.456
 4355TIP3    H113071   3.972   4.440   2.421
 4355TIP3    H213072   3.908   4.306   2.395
 4356TIP3   OH213073   4.079   3.420   3.992
 4356TIP3    H113074   4.030   3.366   4.053
 4356TIP3    H213075   4.063   3.380   3.906
 4357TIP3   OH213076   5.599   1.563   0.780
 4357TIP3    H113077   5.608   1.529   0.869
 4357TIP3    H213078   5.515   1.609   0.780
 4358TIP3   OH213079   0.316   1.070   1.709
 4358TIP3    H113080   0.367   1.068   1.790
 4358TIP3    H213081   0.381   1.066   1.639
 4359TIP3   OH213082   3.927   0.829   2.010
 4359TIP3    H113083   3.885   0.762   2.063
 4359TIP3    H213084   4.015   0.794   1.993
 4360TIP3   OH213085   3.654   1.418   2.523
 4360TIP3    H113086   3.716   1.362   2.478
 4360TIP3    H213087   3.691   1.430   2.611
 4361TIP3   OH213088   2.737   0.304   2.596
 4361TIP3    H113089   2.670   0.321   2.529
 4361TIP3    H213090   2.689   0.263   2.668
 4362TIP3   OH213091   4.313   2.845   3.619
 4362TIP3    H113092   4.362   2.927   3.623
 4362TIP3    H213093   4.348   2.800   3.542
 4363TIP3   OH213094   5.792   3.655   3.707
 4363TIP3    H113095   5.876   3.654   3.754
 4363TIP3    H213096   5.779   3.747   3.684
 4364TIP3   OH213097   2.036   2.030   4.492
 4364TIP3    H113098   2.055   1.940   4.466
 4364TIP3    H213099   2.092   2.046   4.568
 4365TIP3   OH213100   3.248   1.953   2.525
 4365TIP3    H113101   3.240   1.962   2.620
 4365TIP3    H213102   3.170   1.998   2.490
 4366TIP3   OH213103   5.351   1.131   3.520
 4366TIP3    H113104   5.362   1.151   3.427
 4366TIP3    H213105   5.371   1.037   3.527
 4367TIP3   OH213106   3.610   2.738   3.335
 4367TIP3    H113107   3.653   2.685   3.268
 4367TIP3    H213108   3.624   2.690   3.416
 4368TIP3   OH213109   4.978   4.933   0.104
 4368TIP3    H113110   5.050   4.984   0.141
 4368TIP3    H213111   4.907   4.944   0.167
 4369TIP3   OH213112   1.462   3.003   4.290
 4369TIP3    H113113   1.427   3.003   4.380
 4369TIP3    H213114   1.556   2.995   4.302
 4370TIP3   OH213115   4.970   4.628   1.946
 4370TIP3    H113116   4.938   4.598   1.861
 4370TIP3    H213117   5.036   4.564   1.971
 4371TIP3   OH213118   3.058   0.165   4.127
 4371TIP3    H113119   3.097   0.199   4.208
 4371TIP3    H213120   3.020   0.081   4.151
 4372TIP3   OH213121   5.001   2.103   2.992
 4372TIP3    H113122   4.971   2.052   2.917
 4372TIP3    H213123   5.092   2.076   3.004
 4373TIP3   OH213124   0.981   2.452   3.160
 4373TIP3    H113125   0.924   2.407   3.223
 4373TIP3    H213126   1.007   2.384   3.099
 4374TIP3   OH213127   0.133   2.938   2.117
 4374TIP3    H113128   0.188   2.976   2.185
 4374TIP3    H213129   0.177   2.857   2.092
 4375TIP3   OH213130   1.439   5.505   0.262
 4375TIP3    H113131   1.356   5.519   0.216
 4375TIP3    H213132   1.486   5.587   0.253
 4376TIP3   OH213133   3.821   1.815   3.422
 4376TIP3    H113134   3.795   1.787   3.510
 4376TIP3    H213135   3.742   1.802   3.368
 4377TIP3   OH213136   4.367   5.046   0.032
 4377TIP3    H113137   4.297   5.016  -0.025
 4377TIP3    H213138   4.446   5.000   0.001
 4378TIP3   OH213139   0.733   1.686   4.900
 4378TIP3    H113140   0.690   1.745   4.837
 4378TIP3    H213141   0.681   1.606   4.896
 4379TIP3   OH213142   6.212   1.127   1.043
 4379TIP3    H113143   6.271   1.189   1.086
 4379TIP3    H213144   6.142   1.112   1.107
 4380TIP3   OH213145   2.483   2.824   0.532
 4380TIP3    H113146   2.421   2.896   0.544
 4380TIP3    H213147   2.532   2.822   0.614
 4381TIP3   OH213148   0.652   1.628   2.848
 4381TIP3    H113149   0.623   1.544   2.811
 4381TIP3    H213150   0.692   1.606   2.932
 4382TIP3   OH213151   4.712   5.453   5.049
 4382TIP3    H113152   4.636   5.490   5.004
 4382TIP3    H213153   4.676   5.393   5.114
 4383TIP3   OH213154   0.359   4.192   0.398
 4383TIP3    H113155   0.412   4.134   0.454
 4383TIP3    H213156   0.411   4.202   0.319
 4384TIP3   OH213157   1.709   5.763   4.108
 4384TIP3    H113158   1.701   5.859   4.114
 4384TIP3    H213159   1.791   5.750   4.060
 4385TIP3   OH213160   4.867   2.484   3.677
 4385TIP3    H113161   4.957   2.466   3.700
 4385TIP3    H213162   4.858   2.579   3.685
 4386TIP3   OH213163   5.113   3.224   4.681
 4386TIP3    H113164   5.118   3.203   4.587
 4386TIP3    H213165   5.205   3.234   4.707
 4387TIP3   OH213166   2.102   5.900   0.562
 4387TIP3    H113167   2.067   5.825   0.609
 4387TIP3    H213168   2.040   5.915   0.490
 4388TIP3   OH213169   1.676   5.254   3.442
 4388TIP3    H113170   1.649   5.287   3.356
 4388TIP3    H213171   1.756   5.205   3.426
 4389TIP3   OH213172   4.481   0.287   4.236
 4389TIP3    H113173   4.419   0.342   4.284
 4389TIP3    H213174   4.563   0.298   4.283
 4390TIP3   OH213175   4.627   4.044   0.436
 4390TIP3    H113176   4.647   4.137   0.438
 4390TIP3    H213177   4.541   4.037   0.478
 4391TIP3   OH213178   0.089   4.374   0.118
 4391TIP3    H113179   0.124   4.346   0.203
 4391TIP3    H213180   0.045   4.457   0.137
 4392TIP3   OH213181   5.051   2.228   3.237
 4392TIP3    H113182   5.019   2.316   3.219
 4392TIP3    H213183   5.017   2.175   3.164
 4393TIP3   OH213184   0.883   2.033   2.136
 4393TIP3    H113185   0.860   2.026   2.044
 4393TIP3    H213186   0.862   1.948   2.173
 4394TIP3   OH213187   2.429   1.698   2.393
 4394TIP3    H113188   2.523   1.714   2.384
 4394TIP3    H213189   2.388   1.779   2.361
 4395TIP3   OH213190   5.595   4.803   4.805
 4395TIP3    H113191   5.536   4.871   4.774
 4395TIP3    H213192   5.679   4.823   4.764
 4396TIP3   OH213193   4.039   5.450   2.524
 4396TIP3    H113194   4.045   5.421   2.615
 4396TIP3    H213195   4.002   5.538   2.528
 4397TIP3   OH213196   6.212   3.111   4.788
 4397TIP3    H113197   6.283   3.067   4.742
 4397TIP3    H213198   6.180   3.048   4.852
 4398TIP3   OH213199   0.505   4.201   3.005
 4398TIP3    H113200   0.550   4.184   2.922
 4398TIP3    H213201   0.413   4.204   2.983
 4399TIP3   OH213202   4.406   2.500   4.936
 4399TIP3    H113203   4.499   2.489   4.921
 4399TIP3    H213204   4.366   2.418   4.907
 4400TIP3   OH213205   6.100   1.625   4.731
 4400TIP3    H113206   6.059   1.663   4.654
 4400TIP3    H213207   6.165   1.564   4.697
 4401TIP3   OH213208   4.963   0.454   2.962
 4401TIP3    H113209   5.032   0.486   2.903
 4401TIP3    H213210   4.918   0.387   2.912
 4402TIP3   OH213211   2.205   1.935   1.271
 4402TIP3    H113212   2.248   2.006   1.224
 4402TIP3    H213213   2.112   1.949   1.255
 4403TIP3   OH213214   4.574   5.549   2.477
 4403TIP3    H113215   4.495   5.602   2.475
 4403TIP3    H213216   4.576   5.505   2.391
 4404TIP3   OH213217   0.225   5.744   2.384
 4404TIP3    H113218   0.291   5.813   2.381
 4404TIP3    H213219   0.274   5.664   2.405
 4405TIP3   OH213220   0.414   2.477   2.544
 4405TIP3    H113221   0.452   2.455   2.459
 4405TIP3    H213222   0.393   2.393   2.585
 4406TIP3   OH213223   5.832   2.311   4.106
 4406TIP3    H113224   5.806   2.219   4.105
 4406TIP3    H213225   5.923   2.310   4.077
 4407TIP3   OH213226   5.490   4.510   5.140
 4407TIP3    H113227   5.437   4.438   5.107
 4407TIP3    H213228   5.575   4.471   5.158
 4408TIP3   OH213229   2.117   1.548   4.008
 4408TIP3    H113230   2.061   1.516   3.937
 4408TIP3    H213231   2.148   1.468   4.051
 4409TIP3   OH213232   4.488   4.591   2.160
 4409TIP3    H113233   4.493   4.684   2.182
 4409TIP3    H213234   4.441   4.588   2.077
 4410TIP3   OH213235   6.052   3.955   3.843
 4410TIP3    H113236   5.977   3.979   3.897
 4410TIP3    H213237   6.104   3.896   3.897
 4411TIP3   OH213238   0.833   5.879   4.141
 4411TIP3    H113239   0.770   5.821   4.184
 4411TIP3    H213240   0.908   5.823   4.121
 4412TIP3   OH213241   4.509   3.977   2.421
 4412TIP3    H113242   4.585   4.008   2.371
 4412TIP3    H213243   4.518   3.881   2.421
 4413TIP3   OH213244   0.439   5.571   1.005
 4413TIP3    H113245   0.440   5.627   1.082
 4413TIP3    H213246   0.367   5.605   0.951
 4414TIP3   OH213247   3.520   2.354   3.812
 4414TIP3    H113248   3.473   2.288   3.863
 4414TIP3    H213249   3.456   2.424   3.799
 4415TIP3   OH213250   2.660   2.349   3.362
 4415TIP3    H113251   2.649   2.345   3.267
 4415TIP3    H213252   2.611   2.274   3.395
 4416TIP3   OH213253   6.042   5.918   2.230
 4416TIP3    H113254   6.063   5.994   2.175
 4416TIP3    H213255   6.065   5.843   2.175
 4417TIP3   OH213256   5.252   0.798   4.849
 4417TIP3    H113257   5.326   0.742   4.872
 4417TIP3    H213258   5.289   0.886   4.849
 4418TIP3   OH213259   3.559   4.732   4.201
 4418TIP3    H113260   3.604   4.695   4.125
 4418TIP3    H213261   3.519   4.812   4.168
 4419TIP3   OH213262   5.615   4.972   0.281
 4419TIP3    H113263   5.694   5.007   0.240
 4419TIP3    H213264   5.621   4.878   0.266
 4420TIP3   OH213265   0.826   0.282   3.312
 4420TIP3    H113266   0.808   0.272   3.405
 4420TIP3    H213267   0.918   0.309   3.308
 4421TIP3   OH213268   1.617   4.080   5.022
 4421TIP3    H113269   1.667   4.117   5.095
 4421TIP3    H213270   1.623   4.147   4.954
 4422TIP3   OH213271   1.635   0.993   5.197
 4422TIP3    H113272   1.549   0.955   5.178
 4422TIP3    H213273   1.698   0.928   5.164
 4423TIP3   OH213274   1.833   3.109   0.240
 4423TIP3    H113275   1.884   3.080   0.164
 4423TIP3    H213276   1.748   3.134   0.204
 4424TIP3   OH213277   4.566   3.944   1.963
 4424TIP3    H113278   4.476   3.922   1.984
 4424TIP3    H213279   4.612   3.860   1.957
 4425TIP3   OH213280   4.779   3.900   1.763
 4425TIP3    H113281   4.710   3.962   1.790
 4425TIP3    H213282   4.732   3.833   1.714
 4426TIP3   OH213283   1.993   4.348   1.945
 4426TIP3    H113284   1.922   4.349   2.010
 4426TIP3    H213285   1.948   4.361   1.862
 4427TIP3   OH213286   6.346   3.769   4.544
 4427TIP3    H113287   6.305   3.773   4.630
 4427TIP3    H213288   6.355   3.676   4.526
 4428TIP3   OH213289   3.695   1.589   0.280
 4428TIP3    H113290   3.707   1.498   0.306
 4428TIP3    H213291   3.668   1.634   0.360
 4429TIP3   OH213292   4.229   4.685   4.368
 4429TIP3    H113293   4.224   4.772   4.406
 4429TIP3    H213294   4.313   4.683   4.322
 4430TIP3   OH213295   6.055   2.040   2.446
 4430TIP3    H113296   6.131   2.034   2.389
 4430TIP3    H213297   5.998   1.968   2.417
 4431TIP3   OH213298   2.898   0.749   5.098
 4431TIP3    H113299   2.817   0.796   5.116
 4431TIP3    H213300   2.934   0.729   5.184
 4432TIP3   OH213301   1.252   3.243   4.649
 4432TIP3    H113302   1.211   3.232   4.563
 4432TIP3    H213303   1.192   3.200   4.710
 4433TIP3   OH213304   2.302   1.787   3.439
 4433TIP3    H113305   2.269   1.786   3.349
 4433TIP3    H213306   2.298   1.695   3.466
 4434TIP3   OH213307   4.639   5.196   0.568
 4434TIP3    H113308   4.612   5.104   0.570
 4434TIP3    H213309   4.626   5.226   0.658
 4435TIP3   OH213310   5.997   2.722   1.692
 4435TIP3    H113311   5.976   2.669   1.615
 4435TIP3    H213312   6.066   2.672   1.736
 4436TIP3   OH213313   5.452   1.649   1.388
 4436TIP3    H113314   5.530   1.599   1.363
 4436TIP3    H213315   5.396   1.647   1.311
 4437TIP3   OH213316   5.567   0.591   5.020
 4437TIP3    H113317   5.601   0.583   5.109
 4437TIP3    H213318   5.646   0.591   4.965
 4438TIP3   OH213319   4.225   2.569   3.619
 4438TIP3    H113320   4.251   2.660   3.636
 4438TIP3    H213321   4.132   2.573   3.600
 4439TIP3   OH213322   4.021   4.584   2.308
 4439TIP3    H113323   4.028   4.660   2.249
 4439TIP3    H213324   4.048   4.510   2.254
 4440TIP3   OH213325   5.825   1.703   1.193
 4440TIP3    H113326   5.868   1.770   1.140
 4440TIP3    H213327   5.895   1.668   1.248
 4441TIP3   OH213328   4.627   0.549   0.941
 4441TIP3    H113329   4.672   0.507   0.867
 4441TIP3    H213330   4.586   0.476   0.988
 4442TIP3   OH213331   3.849   1.303   3.151
 4442TIP3    H113332   3.919   1.261   3.100
 4442TIP3    H213333   3.886   1.315   3.238
 4443TIP3   OH213334   1.965   0.053   3.616
 4443TIP3    H113335   1.953   0.122   3.681
 4443TIP3    H213336   2.060   0.048   3.603
 4444TIP3   OH213337   0.426   1.440   4.447
 4444TIP3    H113338   0.386   1.445   4.534
 4444TIP3    H213339   0.456   1.349   4.440
 4445TIP3   OH213340   3.644   4.315   3.332
 4445TIP3    H113341   3.698   4.275   3.400
 4445TIP3    H213342   3.667   4.269   3.252
 4446TIP3   OH213343   3.548   3.063   2.607
 4446TIP3    H113344   3.501   2.990   2.567
 4446TIP3    H213345   3.547   3.132   2.541
 4447TIP3   OH213346   0.331   1.068   0.749
 4447TIP3    H113347   0.278   1.065   0.829
 4447TIP3    H213348   0.274   1.111   0.685
 4448TIP3   OH213349   2.288   3.344   3.663
 4448TIP3    H113350   2.244   3.298   3.735
 4448TIP3    H213351   2.370   3.375   3.701
 4449TIP3   OH213352   5.611   2.139   4.335
 4449TIP3    H113353   5.579   2.050   4.351
 4449TIP3    H213354   5.581   2.189   4.411
 4450TIP3   OH213355   4.128   4.140   3.365
 4450TIP3    H113356   4.187   4.210   3.339
 4450TIP3    H213357   4.147   4.069   3.303
 4451TIP3   OH213358   5.155   5.461   4.192
 4451TIP3    H113359   5.179   5.411   4.114
 4451TIP3    H213360   5.105   5.400   4.246
 4452TIP3   OH213361   1.442   4.924   2.578
 4452TIP3    H113362   1.389   5.003   2.588
 4452TIP3    H213363   1.380   4.852   2.587
 4453TIP3   OH213364   6.237   4.419   2.106
 4453TIP3    H113365   6.305   4.442   2.043
 4453TIP3    H213366   6.160   4.469   2.078
 4454TIP3   OH213367   3.381   5.591   1.823
 4454TIP3    H113368   3.419   5.548   1.747
 4454TIP3    H213369   3.288   5.565   1.822
 4455TIP3   OH213370   4.406   0.050   3.602
 4455TIP3    H113371   4.339   0.075   3.665
 4455TIP3    H213372   4.398   0.115   3.531
 4456TIP3   OH213373   6.281   1.765   3.409
 4456TIP3    H113374   6.210   1.759   3.473
 4456TIP3    H213375   6.334   1.839   3.439
 4457TIP3   OH213376   4.787   2.978   1.662
 4457TIP3    H113377   4.874   3.015   1.671
 4457TIP3    H213378   4.794   2.919   1.586
 4458TIP3   OH213379   4.950   0.472   2.150
 4458TIP3    H113380   4.883   0.426   2.200
 4458TIP3    H213381   4.958   0.422   2.069
 4459TIP3   OH213382   5.272   5.381   1.739
 4459TIP3    H113383   5.292   5.393   1.646
 4459TIP3    H213384   5.338   5.433   1.785
 4460TIP3   OH213385   2.796   1.015   1.260
 4460TIP3    H113386   2.801   1.066   1.179
 4460TIP3    H213387   2.703   1.015   1.282
 4461TIP3   OH213388   3.864   2.446   2.607
 4461TIP3    H113389   3.773   2.479   2.607
 4461TIP3    H213390   3.869   2.389   2.531
 4462TIP3   OH213391   2.595   1.282   5.025
 4462TIP3    H113392   2.672   1.227   5.010
 4462TIP3    H213393   2.598   1.346   4.953
 4463TIP3   OH213394   3.249   3.419   4.759
 4463TIP3    H113395   3.246   3.323   4.749
 4463TIP3    H213396   3.247   3.433   4.853
 4464TIP3   OH213397   5.080   0.411   1.171
 4464TIP3    H113398   5.013   0.356   1.130
 4464TIP3    H213399   5.154   0.351   1.184
 4465TIP3   OH213400   3.209   1.630   5.022
 4465TIP3    H113401   3.175   1.638   5.111
 4465TIP3    H213402   3.304   1.642   5.032
 4466TIP3   OH213403   0.507   5.195   1.541
 4466TIP3    H113404   0.452   5.205   1.619
 4466TIP3    H213405   0.554   5.277   1.534
 4467TIP3   OH213406   0.152   2.402   4.551
 4467TIP3    H113407   0.131   2.491   4.525
 4467TIP3    H213408   0.145   2.402   4.647
 4468TIP3   OH213409   4.346   0.049   4.405
 4468TIP3    H113410   4.408   0.122   4.396
 4468TIP3    H213411   4.400  -0.026   4.428
 4469TIP3   OH213412   0.863   2.857   1.940
 4469TIP3    H113413   0.792   2.819   1.888
 4469TIP3    H213414   0.920   2.783   1.960
 4470TIP3   OH213415   3.414   5.377   3.984
 4470TIP3    H113416   3.487   5.387   4.045
 4470TIP3    H213417   3.363   5.304   4.021
 4471TIP3   OH213418   5.463   0.310   3.817
 4471TIP3    H113419   5.375   0.308   3.779
 4471TIP3    H213420   5.515   0.252   3.761
 4472TIP3   OH213421   1.614   2.324   4.197
 4472TIP3    H113422   1.539   2.352   4.145
 4472TIP3    H213423   1.628   2.396   4.258
 4473TIP3   OH213424   1.654   3.174   4.853
 4473TIP3    H113425   1.669   3.096   4.800
 4473TIP3    H213426   1.662   3.247   4.792
 4474TIP3   OH213427   3.821   3.882   4.442
 4474TIP3    H113428   3.741   3.835   4.463
 4474TIP3    H213429   3.849   3.921   4.525
 4475TIP3   OH213430   2.928   5.386   2.404
 4475TIP3    H113431   2.851   5.443   2.404
 4475TIP3    H213432   2.983   5.420   2.334
 4476TIP3   OH213433   5.460   4.342   4.541
 4476TIP3    H113434   5.381   4.289   4.551
 4476TIP3    H213435   5.439   4.403   4.471
 4477TIP3   OH213436   3.170   3.769   2.480
 4477TIP3    H113437   3.105   3.701   2.496
 4477TIP3    H213438   3.119   3.850   2.473
 4478TIP3   OH213439   0.218   5.343   2.119
 4478TIP3    H113440   0.212   5.411   2.052
 4478TIP3    H213441   0.285   5.373   2.180
 4479TIP3   OH213442   0.482   4.448   0.539
 4479TIP3    H113443   0.464   4.369   0.488
 4479TIP3    H213444   0.435   4.434   0.621
 4480TIP3   OH213445   3.934   4.097   2.584
 4480TIP3    H113446   4.014   4.120   2.537
 4480TIP3    H213447   3.865   4.099   2.517
 4481TIP3   OH213448   4.527   1.410   5.094
 4481TIP3    H113449   4.473   1.365   5.159
 4481TIP3    H213450   4.570   1.480   5.143
 4482TIP3   OH213451   2.144   2.680   1.497
 4482TIP3    H113452   2.166   2.697   1.589
 4482TIP3    H213453   2.099   2.759   1.468
 4483TIP3   OH213454   0.340   4.735   1.054
 4483TIP3    H113455   0.404   4.765   1.119
 4483TIP3    H213456   0.255   4.746   1.098
 4484TIP3   OH213457   6.121   2.156   2.127
 4484TIP3    H113458   6.072   2.075   2.112
 4484TIP3    H213459   6.199   2.128   2.174
 4485TIP3   OH213460   6.055   0.873   2.084
 4485TIP3    H113461   5.972   0.915   2.108
 4485TIP3    H213462   6.052   0.788   2.128
 4486TIP3   OH213463   4.338   3.195   1.800
 4486TIP3    H113464   4.389   3.207   1.720
 4486TIP3    H213465   4.385   3.125   1.847
 4487TIP3   OH213466   4.803   4.021   2.643
 4487TIP3    H113467   4.718   3.984   2.667
 4487TIP3    H213468   4.835   4.063   2.723
 4488TIP3   OH213469   1.129   3.488   3.669
 4488TIP3    H113470   1.200   3.517   3.726
 4488TIP3    H213471   1.161   3.505   3.580
 4489TIP3   OH213472   5.903   2.389   2.696
 4489TIP3    H113473   5.970   2.376   2.763
 4489TIP3    H213474   5.855   2.307   2.693
 4490TIP3   OH213475   1.098   4.162   2.823
 4490TIP3    H113476   1.037   4.123   2.886
 4490TIP3    H213477   1.045   4.178   2.745
 4491TIP3   OH213478   4.202   4.459   4.993
 4491TIP3    H113479   4.206   4.437   5.086
 4491TIP3    H213480   4.282   4.422   4.956
 4492TIP3   OH213481   4.052   2.823   1.044
 4492TIP3    H113482   4.136   2.864   1.023
 4492TIP3    H213483   4.075   2.749   1.101
 4493TIP3   OH213484   4.844   1.764   1.492
 4493TIP3    H113485   4.909   1.793   1.556
 4493TIP3    H213486   4.895   1.732   1.419
 4494TIP3   OH213487   5.482   3.810   2.673
 4494TIP3    H113488   5.522   3.734   2.632
 4494TIP3    H213489   5.476   3.786   2.766
 4495TIP3   OH213490   0.221   1.660   4.902
 4495TIP3    H113491   0.145   1.664   4.961
 4495TIP3    H213492   0.296   1.657   4.961
 4496TIP3   OH213493   4.007   0.684   0.546
 4496TIP3    H113494   3.993   0.635   0.628
 4496TIP3    H213495   4.100   0.707   0.548
 4497TIP3   OH213496   2.341   4.138   0.384
 4497TIP3    H113497   2.292   4.159   0.464
 4497TIP3    H213498   2.424   4.103   0.416
 4498TIP3   OH213499   4.481   1.915   2.079
 4498TIP3    H113500   4.481   1.871   2.163
 4498TIP3    H213501   4.392   1.949   2.070
 4499TIP3   OH213502   2.581   5.575   1.443
 4499TIP3    H113503   2.624   5.574   1.357
 4499TIP3    H213504   2.579   5.668   1.468
 4500TIP3   OH213505   2.533   4.016   1.091
 4500TIP3    H113506   2.622   3.982   1.075
 4500TIP3    H213507   2.547   4.097   1.140
 4501TIP3   OH213508   3.066   0.072   0.990
 4501TIP3    H113509   3.013   0.045   0.915
 4501TIP3    H213510   3.156   0.064   0.959
 4502TIP3   OH213511   4.135   5.211   4.580
 4502TIP3    H113512   4.223   5.235   4.550
 4502TIP3    H213513   4.079   5.280   4.545
 4503TIP3   OH213514   3.963   2.737   4.629
 4503TIP3    H113515   3.917   2.656   4.608
 4503TIP3    H213516   3.947   2.751   4.722
 4504TIP3   OH213517   0.123   4.746   4.565
 4504TIP3    H113518   0.169   4.742   4.649
 4504TIP3    H213519   0.163   4.678   4.512
 4505TIP3   OH213520   1.731   1.225   0.585
 4505TIP3    H113521   1.724   1.278   0.664
 4505TIP3    H213522   1.818   1.185   0.591
 4506TIP3   OH213523   2.402   1.017   5.068
 4506TIP3    H113524   2.360   1.020   5.154
 4506TIP3    H213525   2.415   1.108   5.044
 4507TIP3   OH213526   0.077   2.471   4.197
 4507TIP3    H113527   0.096   2.383   4.164
 4507TIP3    H213528   0.013   2.458   4.266
 4508TIP3   OH213529   0.607   5.791   2.081
 4508TIP3    H113530   0.582   5.704   2.051
 4508TIP3    H213531   0.544   5.850   2.040
 4509TIP3   OH213532   4.121   5.067   2.635
 4509TIP3    H113533   4.051   5.021   2.681
 4509TIP3    H213534   4.142   5.141   2.692
 4510TIP3   OH213535   3.094   0.212   4.643
 4510TIP3    H113536   3.091   0.136   4.702
 4510TIP3    H213537   3.147   0.276   4.690
 4511TIP3   OH213538   1.229   5.755   3.310
 4511TIP3    H113539   1.256   5.806   3.233
 4511TIP3    H213540   1.308   5.749   3.363
 4512TIP3   OH213541   3.593   2.729   4.665
 4512TIP3    H113542   3.548   2.648   4.691
 4512TIP3    H213543   3.588   2.729   4.570
 4513TIP3   OH213544   4.006   1.791   4.251
 4513TIP3    H113545   3.954   1.775   4.330
 4513TIP3    H213546   4.086   1.833   4.283
 4514TIP3   OH213547   4.089   2.103   4.017
 4514TIP3    H113548   4.051   2.054   3.944
 4514TIP3    H213549   4.180   2.073   4.020
 4515TIP3   OH213550   3.859   5.280   0.558
 4515TIP3    H113551   3.798   5.209   0.537
 4515TIP3    H213552   3.892   5.309   0.472
 4516TIP3   OH213553   0.132   0.082   1.099
 4516TIP3    H113554   0.199   0.147   1.121
 4516TIP3    H213555   0.141   0.015   1.167
 4517TIP3   OH213556   1.757   0.679   1.328
 4517TIP3    H113557   1.764   0.674   1.233
 4517TIP3    H213558   1.705   0.758   1.345
 4518TIP3   OH213559   4.778   1.477   2.949
 4518TIP3    H113560   4.700   1.501   2.899
 4518TIP3    H213561   4.745   1.450   3.035
 4519TIP3   OH213562   4.974   3.116   0.784
 4519TIP3    H113563   5.049   3.169   0.810
 4519TIP3    H213564   4.898   3.161   0.820
 4520TIP3   OH213565   3.231   5.324   4.602
 4520TIP3    H113566   3.268   5.265   4.667
 4520TIP3    H213567   3.256   5.286   4.518
 4521TIP3   OH213568   6.227   0.146   1.016
 4521TIP3    H113569   6.316   0.126   1.044
 4521TIP3    H213570   6.230   0.147   0.921
 4522TIP3   OH213571   2.389   5.881   2.561
 4522TIP3    H113572   2.396   5.919   2.649
 4522TIP3    H213573   2.295   5.872   2.546
 4523TIP3   OH213574   1.913   4.211   4.439
 4523TIP3    H113575   1.847   4.150   4.474
 4523TIP3    H213576   1.950   4.253   4.517
 4524TIP3   OH213577   1.480   3.006   3.346
 4524TIP3    H113578   1.404   2.984   3.292
 4524TIP3    H213579   1.485   3.101   3.342
 4525TIP3   OH213580   0.780   3.763   2.409
 4525TIP3    H113581   0.841   3.788   2.340
 4525TIP3    H213582   0.818   3.686   2.450
 4526TIP3   OH213583   2.526   2.264   0.048
 4526TIP3    H113584   2.451   2.234   0.099
 4526TIP3    H213585   2.590   2.292   0.112
 4527TIP3   OH213586   4.373   5.886   1.845
 4527TIP3    H113587   4.450   5.874   1.900
 4527TIP3    H213588   4.407   5.926   1.765
 4528TIP3   OH213589   1.839   0.409   1.080
 4528TIP3    H113590   1.770   0.422   1.145
 4528TIP3    H213591   1.832   0.484   1.022
 4529TIP3   OH213592   0.696   1.215   4.835
 4529TIP3    H113593   0.667   1.169   4.914
 4529TIP3    H213594   0.680   1.153   4.764
 4530TIP3   OH213595   1.132   3.183   0.228
 4530TIP3    H113596   1.162   3.268   0.196
 4530TIP3    H213597   1.056   3.163   0.174
 4531TIP3   OH213598   1.964   5.467   0.354
 4531TIP3    H113599   1.968   5.434   0.264
 4531TIP3    H213600   2.056   5.481   0.378
 4532TIP3   OH213601   4.954   5.015   1.031
 4532TIP3    H113602   4.907   5.022   0.948
 4532TIP3    H213603   4.909   5.077   1.089
 4533TIP3   OH213604   2.645   5.795   3.041
 4533TIP3    H113605   2.729   5.829   3.070
 4533TIP3    H213606   2.580   5.846   3.090
 4534TIP3   OH213607   1.875   5.494   2.728
 4534TIP3    H113608   1.793   5.468   2.685
 4534TIP3    H213609   1.941   5.486   2.660
 4535TIP3   OH213610   0.252   2.559   3.747
 4535TIP3    H113611   0.345   2.552   3.724
 4535TIP3    H213612   0.250   2.545   3.842
 4536TIP3   OH213613   2.070   2.259   4.327
 4536TIP3    H113614   2.143   2.311   4.360
 4536TIP3    H213615   2.048   2.199   4.399
 4537TIP3   OH213616   1.365   1.780   3.415
 4537TIP3    H113617   1.343   1.842   3.346
 4537TIP3    H213618   1.459   1.763   3.403
 4538TIP3   OH213619   1.459   0.394   4.860
 4538TIP3    H113620   1.555   0.397   4.863
 4538TIP3    H213621   1.439   0.302   4.841
 4539TIP3   OH213622   6.246   1.110   4.029
 4539TIP3    H113623   6.201   1.090   3.946
 4539TIP3    H213624   6.176   1.133   4.090
 4540TIP3   OH213625   0.851   3.083   0.534
 4540TIP3    H113626   0.912   3.056   0.603
 4540TIP3    H213627   0.900   3.146   0.481
 4541TIP3   OH213628   1.129   5.320   3.881
 4541TIP3    H113629   1.113   5.323   3.975
 4541TIP3    H213630   1.158   5.408   3.859
 4542TIP3   OH213631   6.122   4.937   2.638
 4542TIP3    H113632   6.208   4.958   2.672
 4542TIP3    H213633   6.084   5.021   2.614
 4543TIP3   OH213634   2.892   0.171   3.653
 4543TIP3    H113635   2.820   0.208   3.602
 4543TIP3    H213636   2.917   0.241   3.714
 4544TIP3   OH213637   1.980   5.385   3.324
 4544TIP3    H113638   2.039   5.343   3.262
 4544TIP3    H213639   1.913   5.320   3.342
 4545TIP3   OH213640   3.506   5.857   3.520
 4545TIP3    H113641   3.461   5.894   3.596
 4545TIP3    H213642   3.598   5.880   3.533
 4546TIP3   OH213643   1.040   1.016   0.672
 4546TIP3    H113644   1.129   0.983   0.680
 4546TIP3    H213645   0.992   0.973   0.742
 4547TIP3   OH213646   5.246   5.949   4.738
 4547TIP3    H113647   5.213   5.965   4.650
 4547TIP3    H213648   5.230   5.856   4.753
 4548TIP3   OH213649   3.140   1.476   3.234
 4548TIP3    H113650   3.210   1.412   3.247
 4548TIP3    H213651   3.077   1.457   3.304
 4549TIP3   OH213652   5.649   1.122   4.713
 4549TIP3    H113653   5.706   1.177   4.766
 4549TIP3    H213654   5.677   1.137   4.623
 4550TIP3   OH213655   0.388   1.765   1.461
 4550TIP3    H113656   0.318   1.823   1.430
 4550TIP3    H213657   0.352   1.724   1.540
 4551TIP3   OH213658   5.612   1.819   0.887
 4551TIP3    H113659   5.541   1.770   0.844
 4551TIP3    H213660   5.665   1.751   0.930
 4552TIP3   OH213661   0.202   3.981   3.640
 4552TIP3    H113662   0.107   3.979   3.647
 4552TIP3    H213663   0.233   3.961   3.729
 4553TIP3   OH213664   3.043   2.551   4.414
 4553TIP3    H113665   2.981   2.620   4.437
 4553TIP3    H213666   3.071   2.514   4.498
 4554TIP3   OH213667   1.593   5.292   4.964
 4554TIP3    H113668   1.604   5.204   4.929
 4554TIP3    H213669   1.682   5.322   4.981
 4555TIP3   OH213670   3.429   2.868   4.930
 4555TIP3    H113671   3.416   2.774   4.940
 4555TIP3    H213672   3.517   2.876   4.893
 4556TIP3   OH213673   4.344   1.418   3.984
 4556TIP3    H113674   4.282   1.439   4.054
 4556TIP3    H213675   4.307   1.461   3.907
 4557TIP3   OH213676   0.581   5.797   4.254
 4557TIP3    H113677   0.524   5.853   4.306
 4557TIP3    H213678   0.546   5.709   4.267
 4558TIP3   OH213679   3.103   3.146   0.735
 4558TIP3    H113680   3.185   3.183   0.768
 4558TIP3    H213681   3.039   3.217   0.746
 4559TIP3   OH213682   2.869   0.493   4.364
 4559TIP3    H113683   2.927   0.540   4.304
 4559TIP3    H213684   2.927   0.460   4.432
 4560TIP3   OH213685   1.478   5.755   3.507
 4560TIP3    H113686   1.533   5.718   3.438
 4560TIP3    H213687   1.435   5.679   3.547
 4561TIP3   OH213688   1.381   1.018   3.553
 4561TIP3    H113689   1.436   1.086   3.514
 4561TIP3    H213690   1.418   1.004   3.640
 4562TIP3   OH213691   2.400   1.558   4.234
 4562TIP3    H113692   2.385   1.558   4.329
 4562TIP3    H213693   2.374   1.645   4.205
 4563TIP3   OH213694   2.304   1.562   2.594
 4563TIP3    H113695   2.342   1.586   2.510
 4563TIP3    H213696   2.226   1.617   2.602
 4564TIP3   OH213697   3.217   5.304   2.318
 4564TIP3    H113698   3.291   5.255   2.284
 4564TIP3    H213699   3.164   5.240   2.366
 4565TIP3   OH213700   6.015   5.201   1.380
 4565TIP3    H113701   6.000   5.108   1.367
 4565TIP3    H213702   6.018   5.237   1.291
 4566TIP3   OH213703   1.453   4.707   1.281
 4566TIP3    H113704   1.395   4.763   1.332
 4566TIP3    H213705   1.470   4.632   1.338
 4567TIP3   OH213706   3.371   2.523   1.964
 4567TIP3    H113707   3.388   2.539   2.057
 4567TIP3    H213708   3.300   2.584   1.942
 4568TIP3   OH213709   2.516   1.988   1.899
 4568TIP3    H113710   2.531   1.898   1.868
 4568TIP3    H213711   2.552   2.043   1.829
 4569TIP3   OH213712   1.510   3.138   2.153
 4569TIP3    H113713   1.484   3.050   2.180
 4569TIP3    H213714   1.605   3.139   2.163
 4570TIP3   OH213715   5.725   4.373   1.698
 4570TIP3    H113716   5.721   4.441   1.766
 4570TIP3    H213717   5.681   4.412   1.623
 4571TIP3   OH213718   5.616   2.203   1.896
 4571TIP3    H113719   5.652   2.140   1.833
 4571TIP3    H213720   5.693   2.249   1.931
 4572TIP3   OH213721   1.151   3.361   0.479
 4572TIP3    H113722   1.162   3.442   0.429
 4572TIP3    H213723   1.134   3.294   0.413
 4573TIP3   OH213724   0.692   3.626   0.420
 4573TIP3    H113725   0.777   3.670   0.430
 4573TIP3    H213726   0.704   3.567   0.346
 4574TIP3   OH213727   3.364   2.763   3.551
 4574TIP3    H113728   3.405   2.751   3.465
 4574TIP3    H213729   3.436   2.793   3.607
 4575TIP3   OH213730   2.877   1.603   3.960
 4575TIP3    H113731   2.791   1.577   3.994
 4575TIP3    H213732   2.901   1.679   4.013
 4576TIP3   OH213733   1.001   0.637   4.938
 4576TIP3    H113734   1.029   0.661   4.850
 4576TIP3    H213735   0.919   0.590   4.925
 4577TIP3   OH213736   4.136   4.238   0.673
 4577TIP3    H113737   4.223   4.243   0.633
 4577TIP3    H213738   4.131   4.315   0.730
 4578TIP3   OH213739   0.848   4.547   0.914
 4578TIP3    H113740   0.804   4.470   0.951
 4578TIP3    H213741   0.891   4.588   0.989
 4579TIP3   OH213742   0.731   2.212   3.665
 4579TIP3    H113743   0.667   2.268   3.620
 4579TIP3    H213744   0.719   2.126   3.627
 4580TIP3   OH213745   2.118   3.890   4.763
 4580TIP3    H113746   2.121   3.801   4.796
 4580TIP3    H213747   2.026   3.917   4.775
 4581TIP3   OH213748   3.906   0.662   3.856
 4581TIP3    H113749   3.923   0.629   3.767
 4581TIP3    H213750   3.853   0.741   3.842
 4582TIP3   OH213751   5.472   1.295   0.296
 4582TIP3    H113752   5.479   1.385   0.263
 4582TIP3    H213753   5.528   1.295   0.374
 4583TIP3   OH213754   5.766   3.110   3.680
 4583TIP3    H113755   5.808   3.143   3.601
 4583TIP3    H213756   5.721   3.031   3.651
 4584TIP3   OH213757   4.652   2.780   3.427
 4584TIP3    H113758   4.561   2.750   3.422
 4584TIP3    H213759   4.689   2.759   3.341
 4585TIP3   OH213760   2.473   5.038   3.363
 4585TIP3    H113761   2.545   4.980   3.341
 4585TIP3    H213762   2.490   5.066   3.453
 4586TIP3   OH213763   2.354   5.148   2.408
 4586TIP3    H113764   2.398   5.225   2.443
 4586TIP3    H213765   2.379   5.146   2.315
 4587TIP3   OH213766   6.034   4.776   1.491
 4587TIP3    H113767   6.014   4.801   1.581
 4587TIP3    H213768   5.976   4.829   1.437
 4588TIP3   OH213769   3.049   5.476   4.475
 4588TIP3    H113770   3.106   5.427   4.535
 4588TIP3    H213771   2.966   5.429   4.479
 4589TIP3   OH213772   5.122   2.550   4.439
 4589TIP3    H113773   5.150   2.573   4.350
 4589TIP3    H213774   5.028   2.572   4.441
 4590TIP3   OH213775   3.304   5.475   3.521
 4590TIP3    H113776   3.229   5.421   3.497
 4590TIP3    H213777   3.269   5.539   3.582
 4591TIP3   OH213778   2.098   2.433   2.226
 4591TIP3    H113779   2.083   2.361   2.287
 4591TIP3    H213780   2.174   2.405   2.174
 4592TIP3   OH213781   5.724   1.787   4.398
 4592TIP3    H113782   5.652   1.844   4.369
 4592TIP3    H213783   5.686   1.699   4.398
 4593TIP3   OH213784   3.858   4.714   4.374
 4593TIP3    H113785   3.808   4.793   4.396
 4593TIP3    H213786   3.937   4.720   4.428
 4594TIP3   OH213787   4.755   2.643   0.648
 4594TIP3    H113788   4.833   2.604   0.608
 4594TIP3    H213789   4.782   2.732   0.670
 4595TIP3   OH213790   1.373   5.955   0.689
 4595TIP3    H113791   1.427   5.884   0.655
 4595TIP3    H213792   1.390   6.029   0.631
 4596TIP3   OH213793   1.366   2.742   0.603
 4596TIP3    H113794   1.425   2.751   0.677
 4596TIP3    H213795   1.278   2.739   0.642
 4597TIP3   OH213796   2.920   5.756   2.446
 4597TIP3    H113797   2.838   5.801   2.427
 4597TIP3    H213798   2.895   5.664   2.456
 4598TIP3   OH213799   2.498   4.762   2.165
 4598TIP3    H113800   2.507   4.685   2.110
 4598TIP3    H213801   2.517   4.730   2.254
 4599TIP3   OH213802   1.724   0.014   4.237
 4599TIP3    H113803   1.760   0.033   4.324
 4599TIP3    H213804   1.670   0.091   4.217
 4600TIP3   OH213805   0.625   1.566   1.128
 4600TIP3    H113806   0.546   1.551   1.077
 4600TIP3    H213807   0.610   1.650   1.172
 4601TIP3   OH213808   0.610   3.755   0.878
 4601TIP3    H113809   0.646   3.681   0.927
 4601TIP3    H213810   0.686   3.791   0.831
 4602TIP3   OH213811   5.666   2.908   4.232
 4602TIP3    H113812   5.708   2.835   4.187
 4602TIP3    H213813   5.716   2.920   4.312
 4603TIP3   OH213814   1.490   3.273   4.158
 4603TIP3    H113815   1.585   3.265   4.154
 4603TIP3    H213816   1.460   3.186   4.186
 4604TIP3   OH213817   6.232   5.534   0.342
 4604TIP3    H113818   6.237   5.545   0.247
 4604TIP3    H213819   6.255   5.621   0.377
 4605TIP3   OH213820   0.239   5.807   4.187
 4605TIP3    H113821   0.239   5.776   4.277
 4605TIP3    H213822   0.174   5.878   4.186
 4606TIP3   OH213823   5.466   0.188   1.780
 4606TIP3    H113824   5.456   0.105   1.827
 4606TIP3    H213825   5.400   0.185   1.711
 4607TIP3   OH213826   3.229   0.267   3.959
 4607TIP3    H113827   3.160   0.261   4.025
 4607TIP3    H213828   3.188   0.310   3.884
 4608TIP3   OH213829   2.501   1.024   4.672
 4608TIP3    H113830   2.470   1.080   4.743
 4608TIP3    H213831   2.512   1.083   4.597
 4609TIP3   OH213832   2.574   2.161   1.660
 4609TIP3    H113833   2.607   2.115   1.582
 4609TIP3    H213834   2.504   2.217   1.626
 4610TIP3   OH213835   3.305   5.919   2.610
 4610TIP3    H113836   3.224   5.969   2.619
 4610TIP3    H213837   3.279   5.841   2.561
 4611TIP3   OH213838   4.893   1.913   2.411
 4611TIP3    H113839   4.942   1.879   2.486
 4611TIP3    H213840   4.872   2.003   2.436
 4612TIP3   OH213841   3.657   5.501   0.542
 4612TIP3    H113842   3.738   5.454   0.525
 4612TIP3    H213843   3.652   5.507   0.638
 4613TIP3   OH213844   6.329   1.759   4.601
 4613TIP3    H113845   6.311   1.749   4.695
 4613TIP3    H213846   6.299   1.848   4.581
 4614TIP3   OH213847   0.940   1.443   3.213
 4614TIP3    H113848   0.903   1.440   3.125
 4614TIP3    H213849   0.871   1.409   3.269
 4615TIP3   OH213850   1.253   2.740   5.054
 4615TIP3    H113851   1.284   2.779   5.136
 4615TIP3    H213852   1.272   2.806   4.988
 4616TIP3   OH213853   1.448   1.467   3.957
 4616TIP3    H113854   1.441   1.482   4.052
 4616TIP3    H213855   1.405   1.543   3.918
 4617TIP3   OH213856   4.041   4.965   4.011
 4617TIP3    H113857   4.038   5.010   3.926
 4617TIP3    H213858   4.029   5.034   4.076
 4618TIP3   OH213859   0.791   3.614   3.635
 4618TIP3    H113860   0.823   3.529   3.666
 4618TIP3    H213861   0.696   3.608   3.641
 4619TIP3   OH213862   5.292   4.006   1.123
 4619TIP3    H113863   5.316   3.914   1.137
 4619TIP3    H213864   5.338   4.054   1.192
 4620TIP3   OH213865   4.637   1.562   4.105
 4620TIP3    H113866   4.616   1.470   4.090
 4620TIP3    H213867   4.617   1.576   4.198
 4621TIP3   OH213868   4.872   4.732   2.356
 4621TIP3    H113869   4.876   4.804   2.293
 4621TIP3    H213870   4.963   4.707   2.369
 4622TIP3   OH213871   5.355   4.795   2.398
 4622TIP3    H113872   5.338   4.776   2.306
 4622TIP3    H213873   5.297   4.868   2.419
 4623TIP3   OH213874   3.008   1.425   3.599
 4623TIP3    H113875   3.060   1.347   3.579
 4623TIP3    H213876   2.930   1.391   3.643
 4624TIP3   OH213877   1.533   3.987   2.102
 4624TIP3    H113878   1.489   4.071   2.109
 4624TIP3    H213879   1.537   3.969   2.008
 4625TIP3   OH213880   1.621   4.707   2.610
 4625TIP3    H113881   1.588   4.793   2.585
 4625TIP3    H213882   1.593   4.697   2.701
 4626TIP3   OH213883   3.722   5.129   1.042
 4626TIP3    H113884   3.798   5.180   1.014
 4626TIP3    H213885   3.716   5.057   0.979
 4627TIP3   OH213886   4.594   3.131   1.242
 4627TIP3    H113887   4.592   3.056   1.182
 4627TIP3    H213888   4.652   3.102   1.313
 4628TIP3   OH213889   4.654   3.629   3.672
 4628TIP3    H113890   4.577   3.624   3.616
 4628TIP3    H213891   4.728   3.609   3.615
 4629TIP3   OH213892   4.789   3.676   5.088
 4629TIP3    H113893   4.764   3.674   4.995
 4629TIP3    H213894   4.736   3.746   5.125
 4630TIP3   OH213895   1.566   3.975   1.822
 4630TIP3    H113896   1.553   4.026   1.742
 4630TIP3    H213897   1.528   3.889   1.802
 4631TIP3   OH213898   2.842   1.618   1.153
 4631TIP3    H113899   2.756   1.630   1.192
 4631TIP3    H213900   2.841   1.528   1.120
 4632TIP3   OH213901   2.651   1.720   3.757
 4632TIP3    H113902   2.701   1.646   3.790
 4632TIP3    H213903   2.670   1.722   3.663
 4633TIP3   OH213904   3.621   2.650   3.055
 4633TIP3    H113905   3.645   2.557   3.062
 4633TIP3    H213906   3.604   2.663   2.962
 4634TIP3   OH213907   1.386   0.701   0.460
 4634TIP3    H113908   1.478   0.697   0.484
 4634TIP3    H213909   1.384   0.677   0.368
 4635TIP3   OH213910   0.545   4.502   0.997
 4635TIP3    H113911   0.478   4.524   1.062
 4635TIP3    H213912   0.566   4.586   0.956
 4636TIP3   OH213913   4.461   5.784   0.356
 4636TIP3    H113914   4.462   5.833   0.438
 4636TIP3    H213915   4.553   5.764   0.338
 4637TIP3   OH213916   0.299   5.928   3.112
 4637TIP3    H113917   0.224   5.959   3.062
 4637TIP3    H213918   0.375   5.963   3.066
 4638TIP3   OH213919   0.089   0.351   2.695
 4638TIP3    H113920   0.146   0.401   2.754
 4638TIP3    H213921   0.046   0.417   2.641
 4639TIP3   OH213922   1.776   3.400   5.020
 4639TIP3    H113923   1.767   3.310   4.990
 4639TIP3    H213924   1.697   3.416   5.071
 4640TIP3   OH213925   0.638   0.876   1.838
 4640TIP3    H113926   0.595   0.867   1.753
 4640TIP3    H213927   0.725   0.910   1.817
 4641TIP3   OH213928   2.033   5.145   2.820
 4641TIP3    H113929   2.003   5.101   2.741
 4641TIP3    H213930   2.086   5.080   2.865
 4642TIP3   OH213931   0.599   1.869   3.682
 4642TIP3    H113932   0.661   1.926   3.636
 4642TIP3    H213933   0.620   1.781   3.649
 4643TIP3   OH213934   4.326   0.781   0.219
 4643TIP3    H113935   4.365   0.857   0.262
 4643TIP3    H213936   4.310   0.718   0.290
 4644TIP3   OH213937   1.776   2.824   0.124
 4644TIP3    H113938   1.852   2.797   0.176
 4644TIP3    H213939   1.740   2.742   0.089
 4645TIP3   OH213940   5.475   1.979   3.904
 4645TIP3    H113941   5.388   1.965   3.942
 4645TIP3    H213942   5.528   1.906   3.938
 4646TIP3   OH213943   3.231   2.192   2.050
 4646TIP3    H113944   3.239   2.099   2.070
 4646TIP3    H213945   3.321   2.225   2.049
 4647TIP3   OH213946   2.252   1.499   3.404
 4647TIP3    H113947   2.219   1.453   3.481
 4647TIP3    H213948   2.329   1.450   3.377
 4648TIP3   OH213949   5.683   2.856   0.939
 4648TIP3    H113950   5.687   2.766   0.907
 4648TIP3    H213951   5.607   2.858   0.997
 4649TIP3   OH213952   4.391   2.659   4.349
 4649TIP3    H113953   4.405   2.741   4.397
 4649TIP3    H213954   4.455   2.664   4.277
 4650TIP3   OH213955   5.046   5.997   4.071
 4650TIP3    H113956   5.009   5.910   4.054
 4650TIP3    H213957   5.068   6.032   3.985
 4651TIP3   OH213958   1.727   3.967   1.236
 4651TIP3    H113959   1.648   3.981   1.184
 4651TIP3    H213960   1.763   3.885   1.204
 4652TIP3   OH213961   0.634   2.531   3.125
 4652TIP3    H113962   0.592   2.577   3.053
 4652TIP3    H213963   0.694   2.469   3.083
 4653TIP3   OH213964   6.241   5.580   4.548
 4653TIP3    H113965   6.328   5.605   4.519
 4653TIP3    H213966   6.183   5.643   4.506
 4654TIP3   OH213967   5.103   5.443   1.137
 4654TIP3    H113968   5.092   5.470   1.228
 4654TIP3    H213969   5.184   5.391   1.137
 4655TIP3   OH213970   5.036   1.158   3.817
 4655TIP3    H113971   5.092   1.190   3.888
 4655TIP3    H213972   5.057   1.065   3.810
 4656TIP3   OH213973   5.512   5.226   2.534
 4656TIP3    H113974   5.456   5.245   2.609
 4656TIP3    H213975   5.562   5.307   2.521
 4657TIP3   OH213976   2.521   0.314   2.418
 4657TIP3    H113977   2.429   0.335   2.434
 4657TIP3    H213978   2.521   0.267   2.335
 4658TIP3   OH213979   0.784   4.759   1.597
 4658TIP3    H113980   0.763   4.768   1.504
 4658TIP3    H213981   0.726   4.820   1.642
 4659TIP3   OH213982   4.841   2.014   3.594
 4659TIP3    H113983   4.798   2.099   3.601
 4659TIP3    H213984   4.790   1.967   3.527
 4660TIP3   OH213985   2.145   1.185   3.354
 4660TIP3    H113986   2.144   1.092   3.374
 4660TIP3    H213987   2.137   1.189   3.258
 4661TIP3   OH213988   3.371   4.173   0.924
 4661TIP3    H113989   3.395   4.172   0.831
 4661TIP3    H213990   3.421   4.246   0.960
 4662TIP3   OH213991   5.532   4.232   1.192
 4662TIP3    H113992   5.613   4.280   1.205
 4662TIP3    H213993   5.498   4.264   1.108
 4663TIP3   OH213994   2.563   2.549   3.512
 4663TIP3    H113995   2.573   2.481   3.445
 4663TIP3    H213996   2.500   2.513   3.574
 4664TIP3   OH213997   3.879   4.207   0.441
 4664TIP3    H113998   3.921   4.293   0.436
 4664TIP3    H213999   3.808   4.211   0.377
 4665TIP3   OH214000   2.886   3.233   4.170
 4665TIP3    H114001   2.939   3.278   4.236
 4665TIP3    H214002   2.884   3.293   4.095
 4666TIP3   OH214003   0.386   1.469   1.398
 4666TIP3    H114004   0.338   1.550   1.418
 4666TIP3    H214005   0.477   1.491   1.416
 4667TIP3   OH214006   2.087   4.439   0.179
 4667TIP3    H114007   2.073   4.361   0.124
 4667TIP3    H214008   2.016   4.498   0.155
 4668TIP3   OH214009   2.737   2.696   3.693
 4668TIP3    H114010   2.692   2.692   3.608
 4668TIP3    H214011   2.747   2.790   3.710
 4669TIP3   OH214012   0.076   2.270   3.812
 4669TIP3    H114013   0.013   2.342   3.812
 4669TIP3    H214014   0.025   2.194   3.782
 4670TIP3   OH214015   4.071   0.807   2.890
 4670TIP3    H114016   4.080   0.716   2.917
 4670TIP3    H214017   4.124   0.814   2.811
 4671TIP3   OH214018   0.373   5.484   3.336
 4671TIP3    H114019   0.364   5.398   3.378
 4671TIP3    H214020   0.395   5.465   3.245
 4672TIP3   OH214021   4.051   5.690   4.490
 4672TIP3    H114022   4.020   5.779   4.472
 4672TIP3    H214023   4.022   5.639   4.414
 4673TIP3   OH214024   1.299   1.599   0.606
 4673TIP3    H114025   1.219   1.620   0.557
 4673TIP3    H214026   1.288   1.643   0.690
 4674TIP3   OH214027   5.164   3.411   0.303
 4674TIP3    H114028   5.125   3.477   0.246
 4674TIP3    H214029   5.092   3.379   0.357
 4675TIP3   OH214030   1.070   4.939   2.868
 4675TIP3    H114031   1.057   4.851   2.903
 4675TIP3    H214032   0.982   4.976   2.863
 4676TIP3   OH214033   5.477   1.652   4.044
 4676TIP3    H114034   5.535   1.592   3.998
 4676TIP3    H214035   5.391   1.609   4.042
 4677TIP3   OH214036   3.878   0.995   4.540
 4677TIP3    H114037   3.851   1.087   4.534
 4677TIP3    H214038   3.854   0.969   4.630
 4678TIP3   OH214039   0.845   3.962   1.187
 4678TIP3    H114040   0.850   3.991   1.279
 4678TIP3    H214041   0.751   3.954   1.170
 4679TIP3   OH214042   2.239   1.161   1.306
 4679TIP3    H114043   2.206   1.083   1.260
 4679TIP3    H214044   2.182   1.169   1.382
 4680TIP3   OH214045   6.274   4.036   4.653
 4680TIP3    H114046   6.257   3.948   4.687
 4680TIP3    H214047   6.358   4.029   4.608
 4681TIP3   OH214048   1.616   2.163   0.689
 4681TIP3    H114049   1.573   2.132   0.769
 4681TIP3    H214050   1.681   2.227   0.720
 4682TIP3   OH214051   3.323   2.046   1.373
 4682TIP3    H114052   3.361   2.062   1.459
 4682TIP3    H214053   3.267   2.122   1.357
 4683TIP3   OH214054   5.031   1.849   5.148
 4683TIP3    H114055   5.018   1.772   5.203
 4683TIP3    H214056   5.027   1.816   5.059
 4684TIP3   OH214057   5.690   0.126   2.218
 4684TIP3    H114058   5.700   0.057   2.152
 4684TIP3    H214059   5.694   0.081   2.302
 4685TIP3   OH214060   3.523   5.867   1.385
 4685TIP3    H114061   3.537   5.958   1.413
 4685TIP3    H214062   3.495   5.874   1.294
 4686TIP3   OH214063   6.257   0.535   4.512
 4686TIP3    H114064   6.193   0.471   4.482
 4686TIP3    H214065   6.220   0.620   4.485
 4687TIP3   OH214066   3.956   3.379   4.856
 4687TIP3    H114067   4.047   3.404   4.866
 4687TIP3    H214068   3.957   3.303   4.798
 4688TIP3   OH214069   3.906   4.638   0.625
 4688TIP3    H114070   3.832   4.654   0.684
 4688TIP3    H214071   3.914   4.719   0.575
 4689TIP3   OH214072   1.167   1.248   1.512
 4689TIP3    H114073   1.192   1.167   1.557
 4689TIP3    H214074   1.172   1.225   1.419
 4690TIP3   OH214075   1.304   0.188   2.621
 4690TIP3    H114076   1.382   0.137   2.643
 4690TIP3    H214077   1.239   0.164   2.687
 4691TIP3   OH214078   3.470   3.167   1.771
 4691TIP3    H114079   3.480   3.146   1.864
 4691TIP3    H214080   3.409   3.101   1.738
 4692TIP3   OH214081   4.302   2.664   2.013
 4692TIP3    H114082   4.258   2.597   1.960
 4692TIP3    H214083   4.264   2.747   1.984
 4693TIP3   OH214084   4.962   0.475   4.622
 4693TIP3    H114085   4.876   0.452   4.657
 4693TIP3    H214086   4.982   0.559   4.663
 4694TIP3   OH214087   1.003   2.199   1.950
 4694TIP3    H114088   0.945   2.267   1.915
 4694TIP3    H214089   0.973   2.187   2.040
 4695TIP3   OH214090  -0.018   2.888   3.237
 4695TIP3    H114091   0.047   2.948   3.199
 4695TIP3    H214092   0.031   2.836   3.300
 4696TIP3   OH214093   4.293   1.588   4.396
 4696TIP3    H114094   4.283   1.565   4.489
 4696TIP3    H214095   4.341   1.671   4.397
 4697TIP3   OH214096   3.787   1.703   4.498
 4697TIP3    H114097   3.789   1.625   4.443
 4697TIP3    H214098   3.694   1.720   4.512
 4698TIP3   OH214099   5.821   3.571   2.636
 4698TIP3    H114100   5.767   3.591   2.712
 4698TIP3    H214101   5.859   3.655   2.611
 4699TIP3   OH214102   1.886   5.405   0.884
 4699TIP3    H114103   1.877   5.442   0.796
 4699TIP3    H214104   1.821   5.336   0.887
 4700TIP3   OH214105   1.773   4.804   2.292
 4700TIP3    H114106   1.806   4.856   2.218
 4700TIP3    H214107   1.788   4.859   2.369
 4701TIP3   OH214108   2.740   0.556   4.993
 4701TIP3    H114109   2.659   0.568   5.043
 4701TIP3    H214110   2.796   0.628   5.021
 4702TIP3   OH214111   1.901   2.503   4.122
 4702TIP3    H114112   1.875   2.546   4.041
 4702TIP3    H214113   1.895   2.410   4.103
 4703TIP3   OH214114   3.577   4.353   1.885
 4703TIP3    H114115   3.491   4.310   1.886
 4703TIP3    H214116   3.580   4.402   1.967
 4704TIP3   OH214117   2.451   2.830   4.524
 4704TIP3    H114118   2.468   2.790   4.439
 4704TIP3    H214119   2.515   2.901   4.530
 4705TIP3   OH214120   0.411   1.988   3.511
 4705TIP3    H114121   0.460   1.945   3.581
 4705TIP3    H214122   0.403   2.079   3.539
 4706TIP3   OH214123   3.460   3.792   1.524
 4706TIP3    H114124   3.468   3.736   1.600
 4706TIP3    H214125   3.474   3.881   1.557
 4707TIP3   OH214126   0.827   3.990   2.695
 4707TIP3    H114127   0.886   3.934   2.746
 4707TIP3    H214128   0.825   3.949   2.608
 4708TIP3   OH214129   3.233   2.107   1.030
 4708TIP3    H114130   3.171   2.079   1.097
 4708TIP3    H214131   3.292   2.167   1.075
 4709TIP3   OH214132   5.824   2.068   1.755
 4709TIP3    H114133   5.912   2.031   1.761
 4709TIP3    H214134   5.777   2.010   1.695
 4710TIP3   OH214135   3.132   5.477   2.574
 4710TIP3    H114136   3.048   5.439   2.548
 4710TIP3    H214137   3.137   5.560   2.527
 4711TIP3   OH214138   4.421   4.592   3.664
 4711TIP3    H114139   4.437   4.510   3.710
 4711TIP3    H214140   4.376   4.566   3.584
 4712TIP3   OH214141   0.930   4.013   3.881
 4712TIP3    H114142   0.934   3.923   3.850
 4712TIP3    H214143   1.008   4.023   3.936
 4713TIP3   OH214144   2.701   5.273   0.655
 4713TIP3    H114145   2.723   5.180   0.651
 4713TIP3    H214146   2.782   5.317   0.680
 4714TIP3   OH214147   1.466   1.643   4.621
 4714TIP3    H114148   1.557   1.617   4.626
 4714TIP3    H214149   1.441   1.626   4.530
 4715TIP3   OH214150   5.337   0.098   0.010
 4715TIP3    H114151   5.406   0.164   0.012
 4715TIP3    H214152   5.376   0.021   0.052
 4716TIP3   OH214153   1.234   0.904   0.938
 4716TIP3    H114154   1.182   0.826   0.957
 4716TIP3    H214155   1.258   0.896   0.846
 4717TIP3   OH214156   4.098   3.917   1.666
 4717TIP3    H114157   4.030   3.853   1.643
 4717TIP3    H214158   4.105   3.973   1.589
 4718TIP3   OH214159   5.716   1.535   4.527
 4718TIP3    H114160   5.639   1.529   4.584
 4718TIP3    H214161   5.742   1.444   4.515
 4719TIP3   OH214162   0.844   0.317   2.543
 4719TIP3    H114163   0.803   0.280   2.465
 4719TIP3    H214164   0.938   0.303   2.529
 4720TIP3   OH214165   1.430   4.021   3.450
 4720TIP3    H114166   1.468   4.000   3.365
 4720TIP3    H214167   1.496   4.074   3.494
 4721TIP3   OH214168   3.319   5.093   2.709
 4721TIP3    H114169   3.311   5.188   2.721
 4721TIP3    H214170   3.392   5.068   2.766
 4722TIP3   OH214171   3.913   5.322   0.976
 4722TIP3    H114172   3.980   5.300   0.911
 4722TIP3    H214173   3.954   5.388   1.031
 4723TIP3   OH214174   1.393   0.375   3.407
 4723TIP3    H114175   1.430   0.421   3.332
 4723TIP3    H214176   1.299   0.374   3.391
 4724TIP3   OH214177   5.440   2.041   2.074
 4724TIP3    H114178   5.415   2.128   2.105
 4724TIP3    H214179   5.395   2.032   1.990
 4725TIP3   OH214180   4.189   3.118   4.434
 4725TIP3    H114181   4.121   3.125   4.501
 4725TIP3    H214182   4.213   3.025   4.433
 4726TIP3   OH214183   5.466   2.893   1.082
 4726TIP3    H114184   5.372   2.880   1.083
 4726TIP3    H214185   5.495   2.866   1.169
 4727TIP3   OH214186   1.268   4.085   3.680
 4727TIP3    H114187   1.328   4.075   3.606
 4727TIP3    H214188   1.317   4.054   3.756
 4728TIP3   OH214189   0.898   1.271   2.700
 4728TIP3    H114190   0.976   1.223   2.671
 4728TIP3    H214191   0.883   1.335   2.630
 4729TIP3   OH214192   4.789   3.221   2.949
 4729TIP3    H114193   4.853   3.240   3.019
 4729TIP3    H214194   4.730   3.158   2.989
 4730TIP3   OH214195   0.008   2.324   1.437
 4730TIP3    H114196   0.100   2.348   1.446
 4730TIP3    H214197  -0.008   2.260   1.506
 4731TIP3   OH214198   2.369   5.171   5.127
 4731TIP3    H114199   2.446   5.212   5.089
 4731TIP3    H214200   2.326   5.128   5.053
 4732TIP3   OH214201   6.194   3.142   4.066
 4732TIP3    H114202   6.167   3.098   4.146
 4732TIP3    H214203   6.116   3.140   4.010
 4733TIP3   OH214204   2.619   3.690   1.000
 4733TIP3    H114205   2.595   3.601   0.974
 4733TIP3    H214206   2.646   3.732   0.918
 4734TIP3   OH214207   2.209   2.694   1.774
 4734TIP3    H114208   2.278   2.760   1.785
 4734TIP3    H214209   2.166   2.691   1.859
 4735TIP3   OH214210   3.524   0.166   0.514
 4735TIP3    H114211   3.579   0.151   0.437
 4735TIP3    H214212   3.499   0.258   0.509
 4736TIP3   OH214213   3.778   3.820   4.838
 4736TIP3    H114214   3.776   3.727   4.814
 4736TIP3    H214215   3.856   3.854   4.794
 4737TIP3   OH214216   3.933   5.213   3.380
 4737TIP3    H114217   3.937   5.293   3.328
 4737TIP3    H214218   3.848   5.218   3.425
 4738TIP3   OH214219   3.579   2.357   3.190
 4738TIP3    H114220   3.537   2.322   3.268
 4738TIP3    H214221   3.569   2.288   3.124
 4739TIP3   OH214222   2.380   4.494   1.450
 4739TIP3    H114223   2.385   4.458   1.361
 4739TIP3    H214224   2.409   4.585   1.441
 4740TIP3   OH214225   0.982   1.975   1.285
 4740TIP3    H114226   0.939   1.911   1.228
 4740TIP3    H214227   0.990   1.931   1.369
 4741TIP3   OH214228   5.485   4.115   2.257
 4741TIP3    H114229   5.424   4.092   2.326
 4741TIP3    H214230   5.490   4.211   2.259
 4742TIP3   OH214231   3.780   5.597   4.362
 4742TIP3    H114232   3.768   5.507   4.391
 4742TIP3    H214233   3.752   5.651   4.436
 4743TIP3   OH214234   1.860   4.777   4.401
 4743TIP3    H114235   1.841   4.870   4.412
 4743TIP3    H214236   1.774   4.736   4.398
 4744TIP3   OH214237   4.860   4.994   3.064
 4744TIP3    H114238   4.956   4.989   3.071
 4744TIP3    H214239   4.834   5.057   3.130
 4745TIP3   OH214240   1.203   1.307   3.722
 4745TIP3    H114241   1.171   1.231   3.672
 4745TIP3    H214242   1.218   1.374   3.656
 4746TIP3   OH214243   1.199   1.250   2.898
 4746TIP3    H114244   1.140   1.200   2.955
 4746TIP3    H214245   1.172   1.341   2.910
 4747TIP3   OH214246   0.357   3.938   4.411
 4747TIP3    H114247   0.373   3.941   4.317
 4747TIP3    H214248   0.394   4.019   4.446
 4748TIP3   OH214249   0.549   0.109   1.282
 4748TIP3    H114250   0.472   0.148   1.241
 4748TIP3    H214251   0.515   0.061   1.357
 4749TIP3   OH214252   3.523   0.278   4.000
 4749TIP3    H114253   3.544   0.323   3.918
 4749TIP3    H214254   3.433   0.246   3.987
 4750TIP3   OH214255   2.773   0.228   0.191
 4750TIP3    H114256   2.741   0.228   0.281
 4750TIP3    H214257   2.727   0.300   0.149
 4751TIP3   OH214258   2.699   0.923   5.089
 4751TIP3    H114259   2.721   0.919   4.996
 4751TIP3    H214260   2.605   0.945   5.091
 4752TIP3   OH214261   4.745   1.299   2.700
 4752TIP3    H114262   4.762   1.375   2.757
 4752TIP3    H214263   4.804   1.311   2.626
 4753TIP3   OH214264   2.344   2.397   4.742
 4753TIP3    H114265   2.358   2.424   4.651
 4753TIP3    H214266   2.357   2.476   4.793
 4754TIP3   OH214267   1.622   1.485   5.041
 4754TIP3    H114268   1.650   1.548   4.975
 4754TIP3    H214269   1.677   1.408   5.026
 4755TIP3   OH214270   2.339   2.077   1.076
 4755TIP3    H114271   2.409   2.012   1.078
 4755TIP3    H214272   2.293   2.060   0.994
 4756TIP3   OH214273   0.704   5.043   4.611
 4756TIP3    H114274   0.799   5.040   4.608
 4756TIP3    H214275   0.684   5.077   4.699
 4757TIP3   OH214276   2.513   3.432   4.512
 4757TIP3    H114277   2.486   3.463   4.598
 4757TIP3    H214278   2.604   3.457   4.504
 4758TIP3   OH214279   3.602   2.036   4.767
 4758TIP3    H114280   3.563   2.041   4.680
 4758TIP3    H214281   3.528   2.041   4.828
 4759TIP3   OH214282   3.331   1.971   4.831
 4759TIP3    H114283   3.371   1.890   4.800
 4759TIP3    H214284   3.259   1.988   4.770
 4760TIP3   OH214285   4.752   0.860   4.959
 4760TIP3    H114286   4.746   0.764   4.955
 4760TIP3    H214287   4.810   0.877   5.034
 4761TIP3   OH214288   5.207   0.176   2.387
 4761TIP3    H114289   5.203   0.099   2.331
 4761TIP3    H214290   5.118   0.211   2.387
 4762TIP3   OH214291   0.574   2.196   3.328
 4762TIP3    H114292   0.532   2.122   3.373
 4762TIP3    H214293   0.538   2.273   3.371
 4763TIP3   OH214294   0.579   3.878   4.932
 4763TIP3    H114295   0.566   3.925   4.849
 4763TIP3    H214296   0.659   3.915   4.968
 4764TIP3   OH214297   0.662   1.947   0.150
 4764TIP3    H114298   0.659   2.023   0.092
 4764TIP3    H214299   0.740   1.899   0.124
 4765TIP3   OH214300   2.974   0.204   2.732
 4765TIP3    H114301   2.933   0.233   2.651
 4765TIP3    H214302   2.998   0.113   2.715
 4766TIP3   OH214303   0.942   5.935   2.611
 4766TIP3    H114304   0.859   5.932   2.563
 4766TIP3    H214305   0.976   5.846   2.605
 4767TIP3   OH214306   2.353   2.579   2.902
 4767TIP3    H114307   2.320   2.490   2.893
 4767TIP3    H214308   2.278   2.629   2.934
 4768TIP3   OH214309   4.975   4.055   2.424
 4768TIP3    H114310   5.006   3.972   2.387
 4768TIP3    H214311   4.916   4.028   2.495
 4769TIP3   OH214312   0.510   5.728   3.770
 4769TIP3    H114313   0.514   5.813   3.814
 4769TIP3    H214314   0.523   5.664   3.840
 4770TIP3   OH214315   0.734   4.685   4.105
 4770TIP3    H114316   0.721   4.780   4.112
 4770TIP3    H214317   0.746   4.669   4.011
 4771TIP3   OH214318   5.419   1.095   1.709
 4771TIP3    H114319   5.501   1.070   1.668
 4771TIP3    H214320   5.412   1.189   1.697
 4772TIP3   OH214321   2.327   1.867   0.380
 4772TIP3    H114322   2.322   1.772   0.369
 4772TIP3    H214323   2.313   1.881   0.474
 4773TIP3   OH214324   6.182   5.705   3.637
 4773TIP3    H114325   6.251   5.657   3.592
 4773TIP3    H214326   6.227   5.774   3.686
 4774TIP3   OH214327   1.796   2.158   2.231
 4774TIP3    H114328   1.776   2.249   2.255
 4774TIP3    H214329   1.760   2.149   2.143
 4775TIP3   OH214330   4.149   1.538   4.172
 4775TIP3    H114331   4.060   1.560   4.196
 4775TIP3    H214332   4.204   1.578   4.240
 4776TIP3   OH214333   1.393   5.330   0.625
 4776TIP3    H114334   1.300   5.349   0.626
 4776TIP3    H214335   1.398   5.237   0.602
 4777TIP3   OH214336   1.910   4.141   1.579
 4777TIP3    H114337   1.827   4.126   1.535
 4777TIP3    H214338   1.975   4.136   1.508
 4778TIP3   OH214339   5.084   1.988   1.060
 4778TIP3    H114340   5.115   1.899   1.042
 4778TIP3    H214341   5.153   2.028   1.113
 4779TIP3   OH214342   2.487   3.129   3.612
 4779TIP3    H114343   2.421   3.184   3.569
 4779TIP3    H214344   2.465   3.040   3.584
 4780TIP3   OH214345   2.689   3.779   3.402
 4780TIP3    H114346   2.608   3.814   3.366
 4780TIP3    H214347   2.663   3.736   3.483
 4781TIP3   OH214348   0.700   3.289   1.823
 4781TIP3    H114349   0.727   3.324   1.908
 4781TIP3    H214350   0.627   3.343   1.797
 4782TIP3   OH214351   6.048   5.521   3.258
 4782TIP3    H114352   6.028   5.474   3.176
 4782TIP3    H214353   6.068   5.452   3.321
 4783TIP3   OH214354   3.219   4.515   1.591
 4783TIP3    H114355   3.154   4.515   1.661
 4783TIP3    H214356   3.189   4.582   1.529
 4784TIP3   OH214357   2.564   5.052   3.915
 4784TIP3    H114358   2.475   5.024   3.892
 4784TIP3    H214359   2.613   5.045   3.833
 4785TIP3   OH214360   1.115   0.395   4.377
 4785TIP3    H114361   1.035   0.389   4.429
 4785TIP3    H214362   1.186   0.384   4.441
 4786TIP3   OH214363   2.919   3.610   3.451
 4786TIP3    H114364   2.898   3.526   3.411
 4786TIP3    H214365   2.842   3.665   3.433
 4787TIP3   OH214366   5.120   3.662   0.209
 4787TIP3    H114367   5.178   3.731   0.239
 4787TIP3    H214368   5.032   3.692   0.232
 4788TIP3   OH214369   5.463   5.221   2.107
 4788TIP3    H114370   5.485   5.189   2.020
 4788TIP3    H214371   5.496   5.154   2.167
 4789TIP3   OH214372   4.870   2.767   1.469
 4789TIP3    H114373   4.882   2.847   1.418
 4789TIP3    H214374   4.956   2.725   1.469
 4790TIP3   OH214375   5.270   4.947   5.008
 4790TIP3    H114376   5.245   4.934   4.916
 4790TIP3    H214377   5.346   4.890   5.020
 4791TIP3   OH214378   0.184   1.319   1.539
 4791TIP3    H114379   0.247   1.351   1.475
 4791TIP3    H214380   0.173   1.226   1.518
 4792TIP3   OH214381   1.278   2.640   1.061
 4792TIP3    H114382   1.346   2.579   1.086
 4792TIP3    H214383   1.269   2.698   1.137
 4793TIP3   OH214384   4.835   5.496   2.121
 4793TIP3    H114385   4.922   5.536   2.117
 4793TIP3    H214386   4.840   5.422   2.061
 4794TIP3   OH214387   4.444   1.974   4.105
 4794TIP3    H114388   4.450   1.919   4.027
 4794TIP3    H214389   4.445   2.064   4.071
 4795TIP3   OH214390   0.379   5.942   2.790
 4795TIP3    H114391   0.450   5.996   2.825
 4795TIP3    H214392   0.424   5.869   2.746
 4796TIP3   OH214393   5.822   1.241   3.978
 4796TIP3    H114394   5.885   1.230   4.049
 4796TIP3    H214395   5.755   1.298   4.014
 4797TIP3   OH214396   6.314   1.987   4.031
 4797TIP3    H114397   6.307   2.083   4.036
 4797TIP3    H214398   6.356   1.971   3.946
 4798TIP3   OH214399   1.963   2.967   2.284
 4798TIP3    H114400   1.891   2.986   2.224
 4798TIP3    H214401   2.039   2.951   2.227
 4799TIP3   OH214402   2.838   0.397   1.747
 4799TIP3    H114403   2.798   0.437   1.824
 4799TIP3    H214404   2.909   0.457   1.723
 4800TIP3   OH214405   5.290   5.690   1.956
 4800TIP3    H114406   5.341   5.635   2.016
 4800TIP3    H214407   5.201   5.689   1.992
 4801TIP3   OH214408   3.242   4.675   3.092
 4801TIP3    H114409   3.258   4.601   3.033
 4801TIP3    H214410   3.187   4.734   3.041
 4802TIP3   OH214411   5.881   1.251   1.085
 4802TIP3    H114412   5.792   1.251   1.120
 4802TIP3    H214413   5.920   1.171   1.120
 4803TIP3   OH214414   5.923   1.583   3.986
 4803TIP3    H114415   5.923   1.658   4.045
 4803TIP3    H214416   5.874   1.515   4.033
 4804TIP3   OH214417   6.267   5.317   4.450
 4804TIP3    H114418   6.291   5.259   4.522
 4804TIP3    H214419   6.263   5.404   4.489
 4805TIP3   OH214420   4.766   4.765   3.164
 4805TIP3    H114421   4.799   4.852   3.140
 4805TIP3    H214422   4.751   4.722   3.080
 4806TIP3   OH214423   0.425   4.394   2.490
 4806TIP3    H114424   0.460   4.458   2.551
 4806TIP3    H214425   0.344   4.433   2.458
 4807TIP3   OH214426   2.511   1.064   1.290
 4807TIP3    H114427   2.516   1.076   1.195
 4807TIP3    H214428   2.428   1.105   1.315
 4808TIP3   OH214429   2.861   4.769   0.974
 4808TIP3    H114430   2.942   4.736   0.935
 4808TIP3    H214431   2.792   4.716   0.933
 4809TIP3   OH214432   4.310   0.916   3.748
 4809TIP3    H114433   4.374   0.987   3.751
 4809TIP3    H214434   4.340   0.860   3.676
 4810TIP3   OH214435   3.528   4.972   4.044
 4810TIP3    H114436   3.453   4.922   4.012
 4810TIP3    H214437   3.568   5.009   3.965
 4811TIP3   OH214438   5.358   5.698   0.785
 4811TIP3    H114439   5.394   5.702   0.874
 4811TIP3    H214440   5.374   5.608   0.756
 4812TIP3   OH214441   3.290   3.938   2.098
 4812TIP3    H114442   3.250   3.955   2.013
 4812TIP3    H214443   3.219   3.945   2.161
 4813TIP3   OH214444   5.337   0.651   0.060
 4813TIP3    H114445   5.291   0.709  -0.001
 4813TIP3    H214446   5.286   0.570   0.059
 4814TIP3   OH214447   0.950   2.334   2.792
 4814TIP3    H114448   0.987   2.246   2.801
 4814TIP3    H214449   0.877   2.335   2.854
 4815TIP3   OH214450   4.349   4.315   3.295
 4815TIP3    H114451   4.305   4.395   3.269
 4815TIP3    H214452   4.427   4.345   3.342
 4816TIP3   OH214453   4.207   0.880   2.655
 4816TIP3    H114454   4.228   0.972   2.641
 4816TIP3    H214455   4.281   0.832   2.619
 4817TIP3   OH214456   5.154   4.819   3.493
 4817TIP3    H114457   5.232   4.792   3.542
 4817TIP3    H214458   5.182   4.895   3.443
 4818TIP3   OH214459   4.267   5.687   1.068
 4818TIP3    H114460   4.297   5.701   1.158
 4818TIP3    H214461   4.306   5.603   1.043
 4819TIP3   OH214462   2.706   2.240   0.578
 4819TIP3    H114463   2.620   2.198   0.573
 4819TIP3    H214464   2.767   2.176   0.542
 4820TIP3   OH214465   2.499   4.403   0.880
 4820TIP3    H114466   2.507   4.468   0.949
 4820TIP3    H214467   2.406   4.381   0.877
 4821TIP3   OH214468   5.104   0.709   0.308
 4821TIP3    H114469   5.011   0.710   0.286
 4821TIP3    H214470   5.120   0.621   0.342
 4822TIP3   OH214471   3.880   4.311   0.083
 4822TIP3    H114472   3.821   4.355   0.023
 4822TIP3    H214473   3.846   4.222   0.091
 4823TIP3   OH214474   1.795   5.454   3.070
 4823TIP3    H114475   1.818   5.516   3.002
 4823TIP3    H214476   1.737   5.503   3.129
 4824TIP3   OH214477   5.582   2.921   2.342
 4824TIP3    H114478   5.526   2.960   2.275
 4824TIP3    H214479   5.610   2.994   2.396
 4825TIP3   OH214480   5.145   4.434   5.084
 4825TIP3    H114481   5.176   4.349   5.117
 4825TIP3    H214482   5.206   4.457   5.014
 4826TIP3   OH214483   3.226   1.310   2.591
 4826TIP3    H114484   3.270   1.387   2.554
 4826TIP3    H214485   3.236   1.319   2.685
 4827TIP3   OH214486   2.893   0.251   2.080
 4827TIP3    H114487   2.988   0.265   2.072
 4827TIP3    H214488   2.875   0.178   2.020
 4828TIP3   OH214489   6.258   0.850   1.191
 4828TIP3    H114490   6.177   0.799   1.192
 4828TIP3    H214491   6.238   0.927   1.245
 4829TIP3   OH214492   3.885   2.370   2.160
 4829TIP3    H114493   3.937   2.449   2.146
 4829TIP3    H214494   3.867   2.337   2.072
 4830TIP3   OH214495   3.201   4.774   4.496
 4830TIP3    H114496   3.106   4.784   4.501
 4830TIP3    H214497   3.215   4.680   4.485
 4831TIP3   OH214498   1.004   3.883   2.923
 4831TIP3    H114499   0.939   3.819   2.893
 4831TIP3    H214500   1.023   3.856   3.013
 4832TIP3   OH214501   0.582   3.194   4.111
 4832TIP3    H114502   0.494   3.214   4.143
 4832TIP3    H214503   0.582   3.227   4.021
 4833TIP3   OH214504   6.107   5.134   2.875
 4833TIP3    H114505   6.053   5.079   2.932
 4833TIP3    H214506   6.060   5.135   2.791
 4834TIP3   OH214507   0.812   5.626   4.049
 4834TIP3    H114508   0.850   5.674   3.976
 4834TIP3    H214509   0.887   5.597   4.101
 4835TIP3   OH214510   4.148   2.768   0.167
 4835TIP3    H114511   4.119   2.677   0.166
 4835TIP3    H214512   4.082   2.815   0.217
 4836TIP3   OH214513   1.745   3.675   1.775
 4836TIP3    H114514   1.661   3.631   1.758
 4836TIP3    H214515   1.774   3.705   1.689
 4837TIP3   OH214516   4.768   2.281   2.911
 4837TIP3    H114517   4.841   2.320   2.961
 4837TIP3    H214518   4.806   2.206   2.867
 4838TIP3   OH214519   0.105   3.566   4.138
 4838TIP3    H114520   0.124   3.475   4.114
 4838TIP3    H214521   0.140   3.617   4.066
 4839TIP3   OH214522   4.551   2.568   4.568
 4839TIP3    H114523   4.624   2.615   4.529
 4839TIP3    H214524   4.494   2.546   4.494
 4840TIP3   OH214525   4.785   2.873   4.158
 4840TIP3    H114526   4.808   2.963   4.137
 4840TIP3    H214527   4.722   2.847   4.090
 4841TIP3   OH214528   2.927   5.756   1.828
 4841TIP3    H114529   2.906   5.675   1.782
 4841TIP3    H214530   2.843   5.800   1.839
 4842TIP3   OH214531   1.887   0.792   0.307
 4842TIP3    H114532   1.798   0.758   0.316
 4842TIP3    H214533   1.930   0.768   0.389
 4843TIP3   OH214534   1.067   1.405   0.310
 4843TIP3    H114535   1.072   1.373   0.400
 4843TIP3    H214536   1.149   1.453   0.297
 4844TIP3   OH214537   0.173   4.682   1.800
 4844TIP3    H114538   0.111   4.613   1.824
 4844TIP3    H214539   0.121   4.762   1.804
 4845TIP3   OH214540   1.622   2.863   0.498
 4845TIP3    H114541   1.541   2.813   0.499
 4845TIP3    H214542   1.681   2.813   0.555
 4846TIP3   OH214543   3.712   5.195   2.859
 4846TIP3    H114544   3.686   5.225   2.772
 4846TIP3    H214545   3.664   5.113   2.872
 4847TIP3   OH214546   6.237   1.403   4.101
 4847TIP3    H114547   6.202   1.457   4.030
 4847TIP3    H214548   6.174   1.331   4.109
 4848TIP3   OH214549   1.771   3.520   4.468
 4848TIP3    H114550   1.693   3.566   4.498
 4848TIP3    H214551   1.803   3.473   4.545
 4849TIP3   OH214552   2.179   4.348   4.552
 4849TIP3    H114553   2.266   4.383   4.536
 4849TIP3    H214554   2.136   4.413   4.608
 4850TIP3   OH214555   5.434   1.582   4.361
 4850TIP3    H114556   5.403   1.670   4.343
 4850TIP3    H214557   5.379   1.552   4.434
 4851TIP3   OH214558   4.472   1.449   2.321
 4851TIP3    H114559   4.452   1.484   2.408
 4851TIP3    H214560   4.566   1.462   2.312
 4852TIP3   OH214561   4.004   3.997   2.095
 4852TIP3    H114562   4.009   3.932   2.026
 4852TIP3    H214563   3.959   3.952   2.167
 4853TIP3   OH214564   4.501   0.184   3.017
 4853TIP3    H114565   4.555   0.259   3.042
 4853TIP3    H214566   4.528   0.113   3.074
 4854TIP3   OH214567   3.833   4.429   4.362
 4854TIP3    H114568   3.832   4.524   4.353
 4854TIP3    H214569   3.812   4.397   4.274
 4855TIP3   OH214570   2.599   2.714   0.797
 4855TIP3    H114571   2.578   2.621   0.802
 4855TIP3    H214572   2.691   2.720   0.823
 4856TIP3   OH214573   4.312   1.935   0.371
 4856TIP3    H114574   4.362   1.970   0.445
 4856TIP3    H214575   4.372   1.874   0.328
 4857TIP3   OH214576   0.498   2.911   5.029
 4857TIP3    H114577   0.529   3.001   5.022
 4857TIP3    H214578   0.461   2.905   5.117
 4858TIP3   OH214579   4.929   4.319   1.169
 4858TIP3    H114580   4.970   4.384   1.112
 4858TIP3    H214581   4.867   4.274   1.112
 4859TIP3   OH214582   2.013   1.618   5.038
 4859TIP3    H114583   2.085   1.670   5.003
 4859TIP3    H214584   2.043   1.528   5.034
 4860TIP3   OH214585   6.208   2.680   2.365
 4860TIP3    H114586   6.123   2.672   2.322
 4860TIP3    H214587   6.202   2.762   2.414
 4861TIP3   OH214588   6.313   2.740   4.391
 4861TIP3    H114589   6.400   2.700   4.387
 4861TIP3    H214590   6.315   2.791   4.472
 4862TIP3   OH214591   0.458   1.640   1.892
 4862TIP3    H114592   0.420   1.675   1.973
 4862TIP3    H214593   0.508   1.563   1.920
 4863TIP3   OH214594   6.234   0.884   2.793
 4863TIP3    H114595   6.269   0.914   2.877
 4863TIP3    H214596   6.144   0.858   2.812
 4864TIP3   OH214597   2.866   0.736   0.999
 4864TIP3    H114598   2.830   0.647   1.005
 4864TIP3    H214599   2.903   0.753   1.085
 4865TIP3   OH214600   4.858   2.943   3.251
 4865TIP3    H114601   4.774   2.989   3.252
 4865TIP3    H214602   4.924   3.012   3.254
 4866TIP3   OH214603   5.119   4.812   1.514
 4866TIP3    H114604   5.171   4.736   1.539
 4866TIP3    H214605   5.043   4.810   1.573
 4867TIP3   OH214606   1.895   4.416   4.690
 4867TIP3    H114607   1.909   4.507   4.718
 4867TIP3    H214608   1.828   4.422   4.622
 4868TIP3   OH214609   6.316   5.259   2.260
 4868TIP3    H114610   6.406   5.270   2.229
 4868TIP3    H214611   6.262   5.286   2.186
 4869TIP3   OH214612   1.578   1.549   1.214
 4869TIP3    H114613   1.581   1.640   1.243
 4869TIP3    H214614   1.578   1.499   1.296
 4870TIP3   OH214615   0.323   0.203   1.567
 4870TIP3    H114616   0.309   0.291   1.533
 4870TIP3    H214617   0.277   0.203   1.651
 4871TIP3   OH214618   0.713   1.651   0.754
 4871TIP3    H114619   0.743   1.577   0.806
 4871TIP3    H214620   0.625   1.669   0.786
 4872TIP3   OH214621   0.275   1.133   1.323
 4872TIP3    H114622   0.348   1.127   1.384
 4872TIP3    H214623   0.279   1.052   1.272
 4873TIP3   OH214624   1.835   5.973   2.701
 4873TIP3    H114625   1.754   5.931   2.731
 4873TIP3    H214626   1.814   6.007   2.614
 4874TIP3   OH214627   1.671   2.119   4.672
 4874TIP3    H114628   1.631   2.192   4.625
 4874TIP3    H214629   1.745   2.159   4.718
 4875TIP3   OH214630   1.985   4.837   1.674
 4875TIP3    H114631   1.938   4.755   1.689
 4875TIP3    H214632   1.919   4.905   1.687
 4876TIP3   OH214633   3.099   5.604   0.538
 4876TIP3    H114634   3.068   5.581   0.450
 4876TIP3    H214635   3.120   5.697   0.532
 4877TIP3   OH214636   3.067   0.185   0.405
 4877TIP3    H114637   3.032   0.270   0.377
 4877TIP3    H214638   3.044   0.179   0.497
 4878TIP3   OH214639   2.085   1.639   1.003
 4878TIP3    H114640   2.005   1.687   0.981
 4878TIP3    H214641   2.061   1.586   1.079
 4879TIP3   OH214642   0.426   0.472   0.875
 4879TIP3    H114643   0.338   0.495   0.847
 4879TIP3    H214644   0.437   0.381   0.846
 4880TIP3   OH214645   4.471   3.005   1.975
 4880TIP3    H114646   4.566   2.988   1.973
 4880TIP3    H214647   4.432   2.929   1.934
 4881TIP3   OH214648   2.469   1.249   4.503
 4881TIP3    H114649   2.439   1.222   4.416
 4881TIP3    H214650   2.421   1.330   4.522
 4882TIP3   OH214651   5.986   2.864   3.849
 4882TIP3    H114652   5.957   2.946   3.890
 4882TIP3    H214653   5.957   2.870   3.759
 4883TIP3   OH214654   2.080   0.125   2.414
 4883TIP3    H114655   2.025   0.109   2.490
 4883TIP3    H214656   2.169   0.107   2.444
 4884TIP3   OH214657   1.696   5.229   0.833
 4884TIP3    H114658   1.631   5.161   0.817
 4884TIP3    H214659   1.647   5.311   0.826
 4885TIP3   OH214660   5.697   0.443   4.157
 4885TIP3    H114661   5.657   0.432   4.243
 4885TIP3    H214662   5.790   0.424   4.171
 4886TIP3   OH214663   3.338   1.079   0.041
 4886TIP3    H114664   3.331   1.098   0.134
 4886TIP3    H214665   3.409   1.015   0.034
 4887TIP3   OH214666   2.935   4.695   3.683
 4887TIP3    H114667   3.006   4.701   3.618
 4887TIP3    H214668   2.978   4.712   3.767
 4888TIP3   OH214669   3.995   2.563   3.458
 4888TIP3    H114670   3.995   2.487   3.400
 4888TIP3    H214671   4.046   2.629   3.411
 4889TIP3   OH214672   0.875   5.764   3.811
 4889TIP3    H114673   0.905   5.717   3.734
 4889TIP3    H214674   0.781   5.777   3.796
 4890TIP3   OH214675   2.560   3.770   4.571
 4890TIP3    H114676   2.598   3.858   4.569
 4890TIP3    H214677   2.628   3.716   4.613
 4891TIP3   OH214678   5.837   3.307   2.601
 4891TIP3    H114679   5.882   3.293   2.518
 4891TIP3    H214680   5.833   3.402   2.610
 4892TIP3   OH214681   4.911   3.568   3.515
 4892TIP3    H114682   4.902   3.642   3.455
 4892TIP3    H214683   5.002   3.539   3.503
 4893TIP3   OH214684   1.311   1.149   1.839
 4893TIP3    H114685   1.400   1.160   1.805
 4893TIP3    H214686   1.264   1.105   1.769
 4894TIP3   OH214687   3.497   5.213   1.505
 4894TIP3    H114688   3.538   5.136   1.465
 4894TIP3    H214689   3.508   5.282   1.440
 4895TIP3   OH214690   4.422   5.308   4.812
 4895TIP3    H114691   4.475   5.254   4.753
 4895TIP3    H214692   4.345   5.332   4.761
 4896TIP3   OH214693   5.426   3.417   1.663
 4896TIP3    H114694   5.348   3.417   1.607
 4896TIP3    H214695   5.396   3.452   1.746
 4897TIP3   OH214696   4.954   3.557   1.939
 4897TIP3    H114697   4.997   3.484   1.984
 4897TIP3    H214698   4.914   3.608   2.009
 4898TIP3   OH214699   2.971   0.449   0.410
 4898TIP3    H114700   2.996   0.499   0.332
 4898TIP3    H214701   3.017   0.491   0.482
 4899TIP3   OH214702   5.038   3.121   1.656
 4899TIP3    H114703   5.120   3.099   1.610
 4899TIP3    H214704   5.065   3.180   1.726
 4900TIP3   OH214705   1.582   4.219   0.509
 4900TIP3    H114706   1.642   4.151   0.477
 4900TIP3    H214707   1.592   4.290   0.446
 4901TIP3   OH214708   0.820   3.344   3.556
 4901TIP3    H114709   0.732   3.308   3.552
 4901TIP3    H214710   0.832   3.388   3.472
 4902TIP3   OH214711   2.240   0.477   1.125
 4902TIP3    H114712   2.235   0.556   1.178
 4902TIP3    H214713   2.329   0.443   1.140
 4903TIP3   OH214714   3.071   4.807   2.552
 4903TIP3    H114715   3.069   4.889   2.602
 4903TIP3    H214716   2.980   4.794   2.524
 4904TIP3   OH214717   4.360   2.799   0.604
 4904TIP3    H114718   4.380   2.749   0.525
 4904TIP3    H214719   4.345   2.733   0.671
 4905TIP3   OH214720   3.572   1.609   3.525
 4905TIP3    H114721   3.577   1.552   3.448
 4905TIP3    H214722   3.505   1.674   3.503
 4906TIP3   OH214723   2.933   5.781   4.924
 4906TIP3    H114724   2.928   5.780   4.829
 4906TIP3    H214725   2.944   5.689   4.949
 4907TIP3   OH214726   4.736   5.723   4.486
 4907TIP3    H114727   4.676   5.659   4.524
 4907TIP3    H214728   4.776   5.678   4.411
 4908TIP3   OH214729   2.673   1.534   3.028
 4908TIP3    H114730   2.671   1.470   3.099
 4908TIP3    H214731   2.583   1.536   2.996
 4909TIP3   OH214732   1.448   4.363   2.768
 4909TIP3    H114733   1.402   4.382   2.850
 4909TIP3    H214734   1.391   4.396   2.699
 4910TIP3   OH214735   1.377   3.321   2.950
 4910TIP3    H114736   1.298   3.267   2.943
 4910TIP3    H214737   1.445   3.270   2.906
 4911TIP3   OH214738   4.253   1.524   1.846
 4911TIP3    H114739   4.329   1.581   1.862
 4911TIP3    H214740   4.214   1.559   1.766
 4912TIP3   OH214741   0.824   3.344   2.703
 4912TIP3    H114742   0.801   3.392   2.783
 4912TIP3    H214743   0.884   3.275   2.733
 4913TIP3   OH214744   0.258   5.039   4.368
 4913TIP3    H114745   0.191   5.106   4.360
 4913TIP3    H214746   0.273   5.031   4.462
 4914TIP3   OH214747   4.183   4.296   1.100
 4914TIP3    H114748   4.108   4.351   1.079
 4914TIP3    H214749   4.214   4.264   1.015
 4915TIP3   OH214750  -0.024   3.210   3.432
 4915TIP3    H114751   0.065   3.223   3.465
 4915TIP3    H214752  -0.031   3.268   3.356
 4916TIP3   OH214753   5.408   4.707   3.066
 4916TIP3    H114754   5.446   4.732   3.150
 4916TIP3    H214755   5.449   4.623   3.045
 4917TIP3   OH214756   1.512   2.920   4.732
 4917TIP3    H114757   1.567   2.856   4.688
 4917TIP3    H214758   1.513   2.893   4.824
 4918TIP3   OH214759   5.002   4.067   4.706
 4918TIP3    H114760   4.974   4.123   4.778
 4918TIP3    H214761   4.924   4.058   4.651
 4919TIP3   OH214762   3.442   3.248   0.543
 4919TIP3    H114763   3.378   3.275   0.609
 4919TIP3    H214764   3.438   3.153   0.544
 4920TIP3   OH214765   0.419   4.672   1.704
 4920TIP3    H114766   0.340   4.651   1.753
 4920TIP3    H214767   0.405   4.761   1.672
 4921TIP3   OH214768   1.286   1.077   3.188
 4921TIP3    H114769   1.375   1.069   3.153
 4921TIP3    H214770   1.263   1.169   3.175
 4922TIP3   OH214771   3.695   0.926   0.183
 4922TIP3    H114772   3.714   1.015   0.154
 4922TIP3    H214773   3.758   0.909   0.253
 4923TIP3   OH214774   6.028   3.047   2.057
 4923TIP3    H114775   5.984   3.004   2.130
 4923TIP3    H214776   5.982   3.015   1.979
 4924TIP3   OH214777   1.261   1.041   2.374
 4924TIP3    H114778   1.327   1.008   2.312
 4924TIP3    H214779   1.225   1.119   2.331
 4925TIP3   OH214780   1.715   0.451   3.243
 4925TIP3    H114781   1.775   0.524   3.228
 4925TIP3    H214782   1.772   0.375   3.255
 4926TIP3   OH214783   4.587   3.449   4.654
 4926TIP3    H114784   4.597   3.415   4.565
 4926TIP3    H214785   4.642   3.527   4.656
 4927TIP3   OH214786   0.219   2.093   3.060
 4927TIP3    H114787   0.151   2.089   2.992
 4927TIP3    H214788   0.263   2.176   3.045
 4928TIP3   OH214789   4.117   2.379   4.003
 4928TIP3    H114790   4.094   2.286   4.006
 4928TIP3    H214791   4.105   2.404   3.911
 4929TIP3   OH214792   5.411   3.535   2.772
 4929TIP3    H114793   5.319   3.526   2.746
 4929TIP3    H214794   5.443   3.445   2.777
 4930TIP3   OH214795   1.624   2.087   3.950
 4930TIP3    H114796   1.656   2.165   3.906
 4930TIP3    H214797   1.542   2.114   3.991
 4931TIP3   OH214798   2.438   0.165   0.278
 4931TIP3    H114799   2.524   0.169   0.320
 4931TIP3    H214800   2.414   0.257   0.266
 4932TIP3   OH214801   2.727   4.446   3.239
 4932TIP3    H114802   2.675   4.415   3.313
 4932TIP3    H214803   2.812   4.470   3.278
 4933TIP3   OH214804   5.520   0.444   3.372
 4933TIP3    H114805   5.512   0.501   3.295
 4933TIP3    H214806   5.597   0.390   3.353
 4934TIP3   OH214807   5.202   4.221   0.948
 4934TIP3    H114808   5.151   4.169   0.885
 4934TIP3    H214809   5.216   4.161   1.022
 4935TIP3   OH214810   4.918   5.387   0.201
 4935TIP3    H114811   5.013   5.382   0.192
 4935TIP3    H214812   4.900   5.355   0.290
 4936TIP3   OH214813   0.216   1.791   3.538
 4936TIP3    H114814   0.168   1.808   3.457
 4936TIP3    H214815   0.286   1.856   3.538
 4937TIP3   OH214816   1.312   0.522   1.352
 4937TIP3    H114817   1.235   0.474   1.320
 4937TIP3    H214818   1.382   0.457   1.354
 4938TIP3   OH214819   4.907   0.324   5.134
 4938TIP3    H114820   4.823   0.293   5.167
 4938TIP3    H214821   4.951   0.246   5.102
 4939TIP3   OH214822   5.122   1.949   2.223
 4939TIP3    H114823   5.111   1.863   2.182
 4939TIP3    H214824   5.066   1.946   2.300
 4940TIP3   OH214825   5.591   4.067   3.856
 4940TIP3    H114826   5.541   4.136   3.900
 4940TIP3    H214827   5.539   3.988   3.868
 4941TIP3   OH214828   4.660   1.440   0.109
 4941TIP3    H114829   4.714   1.504   0.156
 4941TIP3    H214830   4.591   1.493   0.069
 4942TIP3   OH214831   1.924   2.218   0.030
 4942TIP3    H114832   1.946   2.127   0.047
 4942TIP3    H214833   1.833   2.215   0.000
 4943TIP3   OH214834   1.501   1.743   2.903
 4943TIP3    H114835   1.562   1.785   2.842
 4943TIP3    H214836   1.420   1.795   2.896
 4944TIP3   OH214837   5.852   5.307   4.842
 4944TIP3    H114838   5.892   5.367   4.779
 4944TIP3    H214839   5.805   5.363   4.903
 4945TIP3   OH214840   3.666   2.653   3.869
 4945TIP3    H114841   3.718   2.711   3.814
 4945TIP3    H214842   3.577   2.661   3.834
 4946TIP3   OH214843   4.089   0.956   3.125
 4946TIP3    H114844   4.056   0.873   3.089
 4946TIP3    H214845   4.173   0.969   3.081
 4947TIP3   OH214846   2.430   0.109   3.775
 4947TIP3    H114847   2.345   0.088   3.815
 4947TIP3    H214848   2.493   0.057   3.825
 4948TIP3   OH214849   4.081   4.148   2.355
 4948TIP3    H114850   4.077   4.107   2.269
 4948TIP3    H214851   4.173   4.167   2.369
 4949TIP3   OH214852   1.397   5.087   1.213
 4949TIP3    H114853   1.472   5.141   1.238
 4949TIP3    H214854   1.401   5.083   1.117
 4950TIP3   OH214855   3.842   5.143   4.624
 4950TIP3    H114856   3.825   5.235   4.605
 4950TIP3    H214857   3.937   5.134   4.618
 4951TIP3   OH214858   4.964   4.591   0.436
 4951TIP3    H114859   4.937   4.557   0.521
 4951TIP3    H214860   5.029   4.527   0.405
 4952TIP3   OH214861   5.758   2.876   2.694
 4952TIP3    H114862   5.787   2.800   2.745
 4952TIP3    H214863   5.834   2.901   2.642
 4953TIP3   OH214864   4.033   3.827   4.251
 4953TIP3    H114865   4.093   3.860   4.318
 4953TIP3    H214866   3.951   3.813   4.298
 4954TIP3   OH214867   1.127   3.119   2.094
 4954TIP3    H114868   1.108   3.105   2.002
 4954TIP3    H214869   1.125   3.214   2.105
 4955TIP3   OH214870   4.948   2.510   3.056
 4955TIP3    H114871   4.896   2.588   3.038
 4955TIP3    H214872   4.965   2.513   3.150
 4956TIP3   OH214873   0.256   3.667   3.874
 4956TIP3    H114874   0.275   3.650   3.782
 4956TIP3    H214875   0.207   3.749   3.874
 4957TIP3   OH214876   5.810   0.023   4.769
 4957TIP3    H114877   5.757   0.082   4.822
 4957TIP3    H214878   5.764   0.018   4.685
 4958TIP3   OH214879   1.967   5.833   1.449
 4958TIP3    H114880   1.896   5.774   1.421
 4958TIP3    H214881   1.946   5.853   1.540
 4959TIP3   OH214882   5.348   6.006   0.264
 4959TIP3    H114883   5.405   5.955   0.205
 4959TIP3    H214884   5.303   5.940   0.317
 4960TIP3   OH214885   1.045   3.304   1.262
 4960TIP3    H114886   1.041   3.394   1.295
 4960TIP3    H214887   0.956   3.287   1.231
 4961TIP3   OH214888   5.919   1.354   3.518
 4961TIP3    H114889   5.990   1.349   3.582
 4961TIP3    H214890   5.842   1.320   3.564
 4962TIP3   OH214891   2.972   5.949   0.231
 4962TIP3    H114892   3.038   5.888   0.198
 4962TIP3    H214893   2.977   5.942   0.326
 4963TIP3   OH214894   3.894   3.055   4.772
 4963TIP3    H114895   3.851   3.034   4.689
 4963TIP3    H214896   3.988   3.051   4.752
 4964TIP3   OH214897   0.209   5.655   3.943
 4964TIP3    H114898   0.172   5.576   3.981
 4964TIP3    H214899   0.231   5.710   4.019
 4965TIP3   OH214900   6.301   0.016   3.638
 4965TIP3    H114901   6.380   0.060   3.606
 4965TIP3    H214902   6.277   0.065   3.716
 4966TIP3   OH214903   5.567   0.725   4.280
 4966TIP3    H114904   5.568   0.653   4.217
 4966TIP3    H214905   5.494   0.780   4.252
 4967TIP3   OH214906   1.498   2.530   0.849
 4967TIP3    H114907   1.408   2.505   0.871
 4967TIP3    H214908   1.496   2.625   0.845
 4968TIP3   OH214909   4.759   4.494   2.076
 4968TIP3    H114910   4.689   4.547   2.112
 4968TIP3    H214911   4.827   4.557   2.052
 4969TIP3   OH214912   1.588   2.933   1.174
 4969TIP3    H114913   1.526   2.954   1.105
 4969TIP3    H214914   1.587   2.837   1.178
 4970TIP3   OH214915   5.050   0.231   0.174
 4970TIP3    H114916   5.080   0.143   0.193
 4970TIP3    H214917   4.954   0.225   0.180
 4971TIP3   OH214918   0.183   0.779   4.225
 4971TIP3    H114919   0.225   0.774   4.140
 4971TIP3    H214920   0.152   0.690   4.243
 4972TIP3   OH214921   1.935   5.869   3.142
 4972TIP3    H114922   1.977   5.801   3.194
 4972TIP3    H214923   1.921   5.829   3.056
 4973TIP3   OH214924   0.428   1.143   3.800
 4973TIP3    H114925   0.410   1.049   3.805
 4973TIP3    H214926   0.484   1.160   3.876
 4974TIP3   OH214927   1.799   0.640   2.956
 4974TIP3    H114928   1.851   0.569   2.917
 4974TIP3    H214929   1.832   0.647   3.046
 4975TIP3   OH214930   3.571   0.351   3.312
 4975TIP3    H114931   3.540   0.433   3.351
 4975TIP3    H214932   3.666   0.361   3.308
 4976TIP3   OH214933   2.918   2.435   2.266
 4976TIP3    H114934   2.937   2.410   2.175
 4976TIP3    H214935   2.830   2.402   2.282
 4977TIP3   OH214936   0.436   4.174   3.864
 4977TIP3    H114937   0.524   4.173   3.903
 4977TIP3    H214938   0.378   4.181   3.940
 4978TIP3   OH214939   6.351   3.478   0.449
 4978TIP3    H114940   6.278   3.461   0.390
 4978TIP3    H214941   6.322   3.552   0.503
 4979TIP3   OH214942   2.602   1.691   0.386
 4979TIP3    H114943   2.528   1.678   0.446
 4979TIP3    H214944   2.629   1.603   0.362
 4980TIP3   OH214945   1.740   4.238   3.177
 4980TIP3    H114946   1.781   4.318   3.143
 4980TIP3    H214947   1.813   4.176   3.188
 4981TIP3   OH214948   4.629   3.926   4.688
 4981TIP3    H114949   4.683   3.979   4.629
 4981TIP3    H214950   4.587   3.862   4.630
 4982TIP3   OH214951   0.122   4.651   4.920
 4982TIP3    H114952   0.106   4.581   4.857
 4982TIP3    H214953   0.208   4.686   4.895
 4983TIP3   OH214954   2.054   2.156   3.918
 4983TIP3    H114955   2.097   2.239   3.897
 4983TIP3    H214956   2.125   2.093   3.928
 4984TIP3   OH214957   3.219   1.675   4.120
 4984TIP3    H114958   3.174   1.701   4.200
 4984TIP3    H214959   3.180   1.591   4.095
 4985TIP3   OH214960   6.304   2.020   2.314
 4985TIP3    H114961   6.361   1.945   2.304
 4985TIP3    H214962   6.358   2.086   2.359
 4986TIP3   OH214963   0.381   3.860   0.153
 4986TIP3    H114964   0.470   3.879   0.124
 4986TIP3    H214965   0.358   3.778   0.109
 4987TIP3   OH214966   5.457   0.249   4.071
 4987TIP3    H114967   5.477   0.294   3.989
 4987TIP3    H214968   5.383   0.192   4.050
 4988TIP3   OH214969   5.018   1.830   3.727
 4988TIP3    H114970   4.956   1.878   3.673
 4988TIP3    H214971   5.100   1.880   3.719
 4989TIP3   OH214972   3.662  -0.030   4.390
 4989TIP3    H114973   3.698  -0.002   4.306
 4989TIP3    H214974   3.697   0.033   4.453
 4990TIP3   OH214975   0.384   0.964   4.060
 4990TIP3    H114976   0.296   1.002   4.058
 4990TIP3    H214977   0.390   0.912   3.980
 4991TIP3   OH214978   1.821   5.189   4.717
 4991TIP3    H114979   1.773   5.247   4.657
 4991TIP3    H214980   1.847   5.247   4.789
 4992TIP3   OH214981   3.254   2.925   2.438
 4992TIP3    H114982   3.189   2.892   2.376
 4992TIP3    H214983   3.226   3.014   2.457
 4993TIP3   OH214984   4.768   1.200   0.029
 4993TIP3    H114985   4.848   1.195   0.081
 4993TIP3    H214986   4.724   1.279   0.060
 4994TIP3   OH214987   0.692   2.874   3.883
 4994TIP3    H114988   0.755   2.810   3.849
 4994TIP3    H214989   0.723   2.893   3.971
 4995TIP3   OH214990   1.911   3.289   1.175
 4995TIP3    H114991   1.975   3.356   1.150
 4995TIP3    H214992   1.841   3.338   1.220
 4996TIP3   OH214993   6.188   3.453   3.529
 4996TIP3    H114994   6.192   3.357   3.526
 4996TIP3    H214995   6.252   3.481   3.464
 4997TIP3   OH214996   1.896   2.258   0.865
 4997TIP3    H114997   1.831   2.289   0.928
 4997TIP3    H214998   1.962   2.328   0.863
 4998TIP3   OH214999   6.251   1.390   0.658
 4998TIP3    H115000   6.172   1.425   0.699
 4998TIP3    H215001   6.242   1.295   0.666
 4999TIP3   OH215002   5.390   5.560   1.482
 4999TIP3    H115003   5.434   5.633   1.439
 4999TIP3    H215004   5.459   5.515   1.530
 5000TIP3   OH215005   0.571   5.523   2.221
 5000TIP3    H115006   0.649   5.558   2.177
 5000TIP3    H215007   0.552   5.441   2.175
 5001TIP3   OH215008   0.741   1.182   1.397
 5001TIP3    H115009   0.818   1.127   1.382
 5001TIP3    H215010   0.736   1.237   1.319
 5002TIP3   OH215011   2.137   5.911   2.474
 5002TIP3    H115012   2.083   5.878   2.402
 5002TIP3    H215013   2.118   6.005   2.478
 5003TIP3   OH215014   3.758   1.068   1.626
 5003TIP3    H115015   3.777   0.978   1.654
 5003TIP3    H215016   3.840   1.099   1.588
 5004TIP3   OH215017   3.699   5.657   5.139
 5004TIP3    H115018   3.703   5.666   5.044
 5004TIP3    H215019   3.613   5.618   5.156
 5005TIP3   OH215020   1.668   1.017   2.568
 5005TIP3    H115021   1.593   1.062   2.608
 5005TIP3    H215022   1.636   0.991   2.481
 5006TIP3   OH215023   1.591   2.544   0.233
 5006TIP3    H115024   1.594   2.570   0.141
 5006TIP3    H215025   1.683   2.543   0.261
 5007TIP3   OH215026   3.708   3.549   2.338
 5007TIP3    H115027   3.620   3.586   2.334
 5007TIP3    H215028   3.751   3.599   2.407
 5008TIP3   OH215029   3.302   3.033   5.106
 5008TIP3    H115030   3.349   3.116   5.111
 5008TIP3    H215031   3.340   2.987   5.031
 5009TIP3   OH215032   0.167   0.190   2.419
 5009TIP3    H115033   0.115   0.270   2.423
 5009TIP3    H215034   0.257   0.220   2.429
 5010TIP3   OH215035   5.780   1.464   4.205
 5010TIP3    H115036   5.694   1.422   4.206
 5010TIP3    H215037   5.791   1.497   4.294
 5011TIP3   OH215038   0.844   1.806   3.861
 5011TIP3    H115039   0.794   1.768   3.933
 5011TIP3    H215040   0.879   1.888   3.896
 5012TIP3   OH215041   5.634   1.177   5.165
 5012TIP3    H115042   5.693   1.122   5.218
 5012TIP3    H215043   5.689   1.209   5.093
 5013TIP3   OH215044  -0.030   0.709   3.297
 5013TIP3    H115045   0.012   0.771   3.238
 5013TIP3    H215046   0.030   0.635   3.300
 5014TIP3   OH215047   0.864   2.666   3.797
 5014TIP3    H115048   0.872   2.580   3.757
 5014TIP3    H215049   0.943   2.674   3.852
 5015TIP3   OH215050   2.084   0.535   0.902
 5015TIP3    H115051   2.139   0.611   0.884
 5015TIP3    H215052   2.111   0.506   0.989
 5016TIP3   OH215053   3.519   5.112   0.803
 5016TIP3    H115054   3.432   5.139   0.773
 5016TIP3    H215055   3.551   5.185   0.854
 5017TIP3   OH215056   4.202   3.725   3.418
 5017TIP3    H115057   4.141   3.766   3.479
 5017TIP3    H215058   4.223   3.641   3.458
 5018TIP3   OH215059   3.500   3.635   5.148
 5018TIP3    H115060   3.471   3.626   5.057
 5018TIP3    H215061   3.439   3.580   5.197
 5019TIP3   OH215062   0.776   0.567   2.216
 5019TIP3    H115063   0.802   0.561   2.124
 5019TIP3    H215064   0.691   0.612   2.214
 5020TIP3   OH215065   0.574   3.572   3.377
 5020TIP3    H115066   0.528   3.597   3.457
 5020TIP3    H215067   0.513   3.513   3.332
 5021TIP3   OH215068   5.254   1.959   4.658
 5021TIP3    H115069   5.275   1.867   4.672
 5021TIP3    H215070   5.163   1.968   4.687
 5022TIP3   OH215071   4.418   5.801   2.773
 5022TIP3    H115072   4.437   5.886   2.734
 5022TIP3    H215073   4.497   5.779   2.823
 5023TIP3   OH215074   3.181   2.638   4.840
 5023TIP3    H115075   3.106   2.615   4.894
 5023TIP3    H215076   3.257   2.621   4.895
 5024TIP3   OH215077   5.256   4.319   1.550
 5024TIP3    H115078   5.231   4.273   1.629
 5024TIP3    H215079   5.185   4.301   1.488
 5025TIP3   OH215080   3.648   2.879   0.398
 5025TIP3    H115081   3.649   2.931   0.318
 5025TIP3    H215082   3.584   2.922   0.454
 5026TIP3   OH215083   0.938   2.556   1.540
 5026TIP3    H115084   1.022   2.551   1.493
 5026TIP3    H215085   0.894   2.632   1.503
 5027TIP3   OH215086   5.614   3.270   0.742
 5027TIP3    H115087   5.549   3.230   0.799
 5027TIP3    H215088   5.564   3.317   0.676
 5028TIP3   OH215089   4.910   5.891   2.931
 5028TIP3    H115090   4.966   5.813   2.928
 5028TIP3    H215091   4.940   5.939   3.007
 5029TIP3   OH215092   0.423   2.317   2.286
 5029TIP3    H115093   0.451   2.361   2.206
 5029TIP3    H215094   0.463   2.230   2.280
 5030TIP3   OH215095   5.879   4.934   1.335
 5030TIP3    H115096   5.797   4.966   1.298
 5030TIP3    H215097   5.916   4.879   1.266
 5031TIP3   OH215098   4.808   1.434   1.346
 5031TIP3    H115099   4.806   1.339   1.341
 5031TIP3    H215100   4.766   1.455   1.430
 5032TIP3   OH215101   5.559   2.408   3.242
 5032TIP3    H115102   5.471   2.377   3.263
 5032TIP3    H215103   5.576   2.475   3.308
 5033TIP3   OH215104   4.777   0.227   3.556
 5033TIP3    H115105   4.717   0.276   3.613
 5033TIP3    H215106   4.838   0.293   3.523
 5034TIP3   OH215107   5.891   2.987   1.827
 5034TIP3    H115108   5.922   3.057   1.769
 5034TIP3    H215109   5.909   2.906   1.778
 5035TIP3   OH215110   5.940   4.481   1.481
 5035TIP3    H115111   5.994   4.426   1.424
 5035TIP3    H215112   5.898   4.543   1.421
 5036TIP3   OH215113   4.265   3.967   5.154
 5036TIP3    H115114   4.205   3.895   5.172
 5036TIP3    H215115   4.266   3.974   5.058
 5037TIP3   OH215116   4.251   1.547   1.271
 5037TIP3    H115117   4.268   1.598   1.192
 5037TIP3    H215118   4.160   1.518   1.262
 5038TIP3   OH215119   4.338   3.123   2.169
 5038TIP3    H115120   4.385   3.054   2.122
 5038TIP3    H215121   4.352   3.201   2.116
 5039TIP3   OH215122   5.801   2.453   3.096
 5039TIP3    H115123   5.713   2.432   3.125
 5039TIP3    H215124   5.848   2.369   3.097
 5040TIP3   OH215125   0.684   4.300   4.484
 5040TIP3    H115126   0.731   4.284   4.402
 5040TIP3    H215127   0.645   4.386   4.473
 5041TIP3   OH215128   1.374   1.553   1.550
 5041TIP3    H115129   1.356   1.477   1.496
 5041TIP3    H215130   1.304   1.553   1.616
 5042TIP3   OH215131   4.699   5.715   4.815
 5042TIP3    H115132   4.690   5.708   4.720
 5042TIP3    H215133   4.624   5.667   4.850
 5043TIP3   OH215134   5.656   1.250   1.806
 5043TIP3    H115135   5.683   1.160   1.827
 5043TIP3    H215136   5.719   1.279   1.739
 5044TIP3   OH215137   4.637   1.021   4.606
 5044TIP3    H115138   4.618   0.995   4.515
 5044TIP3    H215139   4.733   1.019   4.612
 5045TIP3   OH215140   3.276   5.358   2.769
 5045TIP3    H115141   3.221   5.386   2.842
 5045TIP3    H215142   3.231   5.388   2.691
 5046TIP3   OH215143   4.858   1.001   3.029
 5046TIP3    H115144   4.784   1.056   3.002
 5046TIP3    H215145   4.873   0.944   2.954
 5047TIP3   OH215146   1.140   0.790   2.221
 5047TIP3    H115147   1.132   0.877   2.183
 5047TIP3    H215148   1.233   0.768   2.212
 5048TIP3   OH215149   0.747   4.713   0.716
 5048TIP3    H115150   0.822   4.756   0.675
 5048TIP3    H215151   0.784   4.662   0.787
 5049TIP3   OH215152   2.940   4.819   3.324
 5049TIP3    H115153   3.021   4.867   3.309
 5049TIP3    H215154   2.967   4.728   3.335
 5050TIP3   OH215155   1.312   1.411   1.912
 5050TIP3    H115156   1.292   1.318   1.902
 5050TIP3    H215157   1.339   1.420   2.003
 5051TIP3   OH215158   4.368   0.659   1.088
 5051TIP3    H115159   4.441   0.609   1.051
 5051TIP3    H215160   4.298   0.652   1.023
 5052TIP3   OH215161   4.103   5.952   3.062
 5052TIP3    H115162   4.180   5.988   3.107
 5052TIP3    H215163   4.035   5.948   3.130
 5053TIP3   OH215164   0.238   2.673   2.088
 5053TIP3    H115165   0.316   2.637   2.130
 5053TIP3    H215166   0.259   2.673   1.995
 5054TIP3   OH215167   4.511   1.102   3.703
 5054TIP3    H115168   4.537   1.084   3.793
 5054TIP3    H215169   4.591   1.090   3.652
 5055TIP3   OH215170   5.600   1.572   1.664
 5055TIP3    H115171   5.629   1.608   1.748
 5055TIP3    H215172   5.678   1.529   1.629
 5056TIP3   OH215173   2.790   1.965   0.058
 5056TIP3    H115174   2.729   1.961   0.132
 5056TIP3    H215175   2.734   1.971  -0.019
 5057TIP3   OH215176   4.747   3.239   1.874
 5057TIP3    H115177   4.686   3.222   1.946
 5057TIP3    H215178   4.822   3.182   1.893
 5058TIP3   OH215179   0.632   5.331   4.479
 5058TIP3    H115180   0.675   5.261   4.529
 5058TIP3    H215181   0.682   5.335   4.397
 5059TIP3   OH215182   1.100   0.932   4.546
 5059TIP3    H115183   1.151   0.977   4.479
 5059TIP3    H215184   1.013   0.971   4.540
 5060TIP3   OH215185   2.817   3.246   0.503
 5060TIP3    H115186   2.904   3.235   0.464
 5060TIP3    H215187   2.836   3.268   0.595
 5061TIP3   OH215188   3.566   4.074   3.570
 5061TIP3    H115189   3.651   4.117   3.580
 5061TIP3    H215190   3.579   4.011   3.499
 5062TIP3   OH215191   3.423   2.138   2.380
 5062TIP3    H115192   3.385   2.099   2.459
 5062TIP3    H215193   3.354   2.197   2.347
 5063TIP3   OH215194   0.877   2.308   4.176
 5063TIP3    H115195   0.857   2.255   4.099
 5063TIP3    H215196   0.819   2.384   4.169
 5064TIP3   OH215197   5.888   1.483   2.220
 5064TIP3    H115198   5.857   1.432   2.295
 5064TIP3    H215199   5.898   1.418   2.150
 5065TIP3   OH215200   4.744   1.838   4.033
 5065TIP3    H115201   4.773   1.927   4.014
 5065TIP3    H215202   4.730   1.836   4.127
 5066TIP3   OH215203   1.461   1.252   2.956
 5066TIP3    H115204   1.366   1.252   2.939
 5066TIP3    H215205   1.478   1.340   2.989
 5067TIP3   OH215206   0.211   0.706   1.792
 5067TIP3    H115207   0.306   0.694   1.785
 5067TIP3    H215208   0.200   0.757   1.873
 5068TIP3   OH215209   3.321   4.492   5.182
 5068TIP3    H115210   3.238   4.490   5.134
 5068TIP3    H215211   3.382   4.532   5.120
 5069TIP3   OH215212   4.257   3.912   0.783
 5069TIP3    H115213   4.207   3.885   0.860
 5069TIP3    H215214   4.346   3.926   0.815
 5070TIP3   OH215215   1.798   5.046   1.104
 5070TIP3    H115216   1.848   5.070   1.026
 5070TIP3    H215217   1.735   4.981   1.073
 5071TIP3   OH215218   2.511   2.371   3.109
 5071TIP3    H115219   2.489   2.460   3.080
 5071TIP3    H215220   2.439   2.347   3.167
 5072TIP3   OH215221   4.303   4.130   4.443
 5072TIP3    H115222   4.271   4.219   4.431
 5072TIP3    H215223   4.329   4.102   4.355
 5073TIP3   OH215224   4.575   0.617   4.650
 5073TIP3    H115225   4.485   0.648   4.637
 5073TIP3    H215226   4.615   0.624   4.563
 5074TIP3   OH215227   5.397   4.744   2.764
 5074TIP3    H115228   5.384   4.695   2.845
 5074TIP3    H215229   5.419   4.678   2.699
 5075TIP3   OH215230   4.045   3.072   2.041
 5075TIP3    H115231   4.030   3.020   2.120
 5075TIP3    H215232   4.100   3.016   1.986
 5076TIP3   OH215233   1.572   2.790   0.805
 5076TIP3    H115234   1.531   2.836   0.879
 5076TIP3    H215235   1.663   2.818   0.807
 5077TIP3   OH215236   2.478   5.887   0.436
 5077TIP3    H115237   2.453   5.843   0.516
 5077TIP3    H215238   2.455   5.826   0.366
 5078TIP3   OH215239   4.558   3.965   2.753
 5078TIP3    H115240   4.549   4.015   2.834
 5078TIP3    H215241   4.469   3.935   2.734
 5079TIP3   OH215242   2.934   0.725   3.928
 5079TIP3    H115243   2.979   0.647   3.960
 5079TIP3    H215244   2.841   0.704   3.938
 5080TIP3   OH215245   4.598   1.540   0.828
 5080TIP3    H115246   4.593   1.448   0.801
 5080TIP3    H215247   4.545   1.587   0.764
 5081TIP3   OH215248   5.534   3.959   3.405
 5081TIP3    H115249   5.548   3.887   3.344
 5081TIP3    H215250   5.470   4.016   3.360
 5082TIP3   OH215251   3.478   0.275   3.081
 5082TIP3    H115252   3.417   0.348   3.069
 5082TIP3    H215253   3.508   0.283   3.172
 5083TIP3   OH215254   5.754   4.816   0.951
 5083TIP3    H115255   5.767   4.761   0.874
 5083TIP3    H215256   5.663   4.799   0.978
 5084TIP3   OH215257   5.055   3.890   1.099
 5084TIP3    H115258   5.121   3.958   1.110
 5084TIP3    H215259   5.001   3.895   1.179
 5085TIP3   OH215260   0.468   1.480   2.233
 5085TIP3    H115261   0.404   1.479   2.162
 5085TIP3    H215262   0.456   1.395   2.277
 5086TIP3   OH215263   5.702   3.174   1.884
 5086TIP3    H115264   5.748   3.090   1.886
 5086TIP3    H215265   5.710   3.203   1.793
 5087TIP3   OH215266   2.071   0.298   2.196
 5087TIP3    H115267   2.079   0.210   2.231
 5087TIP3    H215268   1.998   0.293   2.134
 5088TIP3   OH215269   0.189   4.646   2.173
 5088TIP3    H115270   0.259   4.591   2.138
 5088TIP3    H215271   0.180   4.619   2.264
 5089TIP3   OH215272   4.210   3.470   4.880
 5089TIP3    H115273   4.252   3.474   4.794
 5089TIP3    H215274   4.267   3.413   4.932
 5090TIP3   OH215275   5.232   0.437   2.519
 5090TIP3    H115276   5.233   0.349   2.481
 5090TIP3    H215277   5.179   0.489   2.459
 5091TIP3   OH215278   4.757   2.939   1.948
 5091TIP3    H115279   4.734   2.941   1.855
 5091TIP3    H215280   4.847   2.909   1.949
 5092TIP3   OH215281   0.780   4.386   2.369
 5092TIP3    H115282   0.705   4.330   2.387
 5092TIP3    H215283   0.742   4.470   2.343
 5093TIP3   OH215284   3.891   3.315   4.275
 5093TIP3    H115285   3.799   3.298   4.297
 5093TIP3    H215286   3.919   3.239   4.225
 5094TIP3   OH215287   0.441   5.670   3.090
 5094TIP3    H115288   0.374   5.730   3.124
 5094TIP3    H215289   0.392   5.593   3.061
 5095TIP3   OH215290   5.997   2.549   4.358
 5095TIP3    H115291   5.973   2.640   4.375
 5095TIP3    H215292   5.986   2.505   4.442
 5096TIP3   OH215293   3.709   4.407   4.614
 5096TIP3    H115294   3.747   4.399   4.526
 5096TIP3    H215295   3.626   4.452   4.600
 5097TIP3   OH215296   0.687   4.645   2.350
 5097TIP3    H115297   0.625   4.717   2.361
 5097TIP3    H215298   0.746   4.653   2.424
 5098TIP3   OH215299   1.639   0.674   0.205
 5098TIP3    H115300   1.559   0.622   0.210
 5098TIP3    H215301   1.667   0.668   0.114
 5099TIP3   OH215302   2.611   4.874   4.445
 5099TIP3    H115303   2.565   4.852   4.526
 5099TIP3    H215304   2.612   4.793   4.394
 5100TIP3   OH215305   5.815   3.049   1.097
 5100TIP3    H115306   5.796   2.959   1.070
 5100TIP3    H215307   5.850   3.090   1.018
 5101TIP3   OH215308   2.095   3.497   3.530
 5101TIP3    H115309   2.174   3.453   3.562
 5101TIP3    H215310   2.059   3.438   3.465
 5102TIP3   OH215311   0.242   3.007   4.451
 5102TIP3    H115312   0.216   3.011   4.359
 5102TIP3    H215313   0.330   2.970   4.450
 5103TIP3   OH215314   3.127   4.125   2.711
 5103TIP3    H115315   3.173   4.101   2.791
 5103TIP3    H215316   3.196   4.155   2.652
 5104TIP3   OH215317   5.567   3.574   2.491
 5104TIP3    H115318   5.628   3.581   2.565
 5104TIP3    H215319   5.612   3.619   2.419
 5105TIP3   OH215320   4.291   2.991   1.076
 5105TIP3    H115321   4.244   3.041   1.010
 5105TIP3    H215322   4.373   2.966   1.033
 5106TIP3   OH215323   4.174   2.976   0.467
 5106TIP3    H115324   4.230   3.044   0.431
 5106TIP3    H215325   4.234   2.920   0.517
 5107TIP3   OH215326   2.613   1.672   1.275
 5107TIP3    H115327   2.641   1.756   1.310
 5107TIP3    H215328   2.518   1.678   1.270
 5108TIP3   OH215329   1.048   0.529   1.603
 5108TIP3    H115330   1.028   0.600   1.542
 5108TIP3    H215331   0.976   0.468   1.594
 5109TIP3   OH215332   0.551   0.541   0.518
 5109TIP3    H115333   0.602   0.619   0.542
 5109TIP3    H215334   0.601   0.468   0.555
 5110TIP3   OH215335   2.739   4.275   3.624
 5110TIP3    H115336   2.765   4.352   3.574
 5110TIP3    H215337   2.795   4.276   3.702
 5111TIP3   OH215338   5.991   3.291   2.374
 5111TIP3    H115339   5.953   3.272   2.289
 5111TIP3    H215340   6.071   3.340   2.355
 5112TIP3   OH215341   3.336   2.188   0.308
 5112TIP3    H115342   3.373   2.151   0.228
 5112TIP3    H215343   3.389   2.266   0.325
 5113TIP3   OH215344   5.950   0.061   5.168
 5113TIP3    H115345   5.950   0.036   5.076
 5113TIP3    H215346   5.962  -0.021   5.215
 5114TIP3   OH215347   1.934   0.399   2.789
 5114TIP3    H115348   1.904   0.312   2.764
 5114TIP3    H215349   1.936   0.448   2.706
 5115TIP3   OH215350   1.075   3.543   2.336
 5115TIP3    H115351   1.142   3.511   2.396
 5115TIP3    H215352   0.999   3.561   2.392
 5116TIP3   OH215353   2.054   2.532   2.759
 5116TIP3    H115354   2.080   2.479   2.835
 5116TIP3    H215355   1.993   2.596   2.795
 5117TIP3   OH215356   4.082   2.231   3.512
 5117TIP3    H115357   4.098   2.230   3.606
 5117TIP3    H215358   4.165   2.205   3.473
 5118TIP3   OH215359   6.348   5.680   4.908
 5118TIP3    H115360   6.394   5.596   4.909
 5118TIP3    H215361   6.258   5.658   4.932
 5119TIP3   OH215362   4.065   5.367   0.729
 5119TIP3    H115363   4.003   5.331   0.665
 5119TIP3    H215364   4.151   5.337   0.699
 5120TIP3   OH215365   4.616   5.357   4.401
 5120TIP3    H115366   4.612   5.452   4.411
 5120TIP3    H215367   4.688   5.330   4.459
 5121TIP3   OH215368   5.385   3.943   0.119
 5121TIP3    H115369   5.330   3.933   0.197
 5121TIP3    H215370   5.327   3.986   0.055
 5122TIP3   OH215371   1.565   1.518   3.059
 5122TIP3    H115372   1.638   1.538   3.117
 5122TIP3    H215373   1.533   1.604   3.031
 5123TIP3   OH215374   3.995   2.748   0.539
 5123TIP3    H115375   4.020   2.826   0.490
 5123TIP3    H215376   4.036   2.676   0.492
 5124TIP3   OH215377   1.964   2.590   3.837
 5124TIP3    H115378   1.977   2.661   3.774
 5124TIP3    H215379   1.897   2.535   3.796
 5125TIP3   OH215380   3.903   1.202   0.861
 5125TIP3    H115381   3.845   1.147   0.808
 5125TIP3    H215382   3.985   1.153   0.864
 5126TIP3   OH215383   1.736   5.638   3.399
 5126TIP3    H115384   1.822   5.678   3.389
 5126TIP3    H215385   1.685   5.674   3.327
 5127TIP3   OH215386   5.792   5.571   3.349
 5127TIP3    H115387   5.837   5.600   3.429
 5127TIP3    H215388   5.863   5.543   3.291
 5128TIP3   OH215389   4.722   4.114   3.491
 5128TIP3    H115390   4.798   4.171   3.476
 5128TIP3    H215391   4.652   4.155   3.440
 5129TIP3   OH215392   4.604   0.303   1.108
 5129TIP3    H115393   4.675   0.342   1.159
 5129TIP3    H215394   4.638   0.219   1.078
 5130TIP3   OH215395   4.488   0.930   4.809
 5130TIP3    H115396   4.540   0.946   4.730
 5130TIP3    H215397   4.541   0.872   4.862
 5131TIP3   OH215398   0.509   0.636   1.894
 5131TIP3    H115399   0.550   0.716   1.860
 5131TIP3    H215400   0.491   0.656   1.985
 5132TIP3   OH215401   1.943   3.369   3.776
 5132TIP3    H115402   1.934   3.426   3.700
 5132TIP3    H215403   1.872   3.305   3.766
 5133TIP3   OH215404   3.814   5.756   2.990
 5133TIP3    H115405   3.783   5.839   3.027
 5133TIP3    H215406   3.770   5.688   3.041
 5134TIP3   OH215407   6.327   5.164   1.772
 5134TIP3    H115408   6.351   5.148   1.863
 5134TIP3    H215409   6.232   5.177   1.774
 5135TIP3   OH215410   2.520   0.195   3.286
 5135TIP3    H115411   2.506   0.233   3.372
 5135TIP3    H215412   2.515   0.100   3.300
 5136TIP3   OH215413   0.643   5.748   3.284
 5136TIP3    H115414   0.574   5.732   3.219
 5136TIP3    H215415   0.600   5.735   3.368
 5137TIP3   OH215416   2.051   3.576   1.515
 5137TIP3    H115417   2.044   3.481   1.505
 5137TIP3    H215418   1.971   3.610   1.474
 5138TIP3   OH215419   3.065   5.594   4.223
 5138TIP3    H115420   3.076   5.567   4.314
 5138TIP3    H215421   3.032   5.516   4.179
 5139TIP3   OH215422   3.710   1.733   3.712
 5139TIP3    H115423   3.790   1.688   3.741
 5139TIP3    H215424   3.658   1.665   3.670
 5140TIP3   OH215425   6.104   0.474   1.941
 5140TIP3    H115426   6.011   0.465   1.924
 5140TIP3    H215427   6.141   0.503   1.857
 5141TIP3   OH215428   4.260   4.150   3.636
 5141TIP3    H115429   4.282   4.243   3.629
 5141TIP3    H215430   4.203   4.134   3.561
 5142TIP3   OH215431   5.279   0.057   3.366
 5142TIP3    H115432   5.322   0.133   3.405
 5142TIP3    H215433   5.220   0.093   3.300
 5143TIP3   OH215434   0.273   1.754   4.647
 5143TIP3    H115435   0.267   1.702   4.727
 5143TIP3    H215436   0.182   1.765   4.619
 5144TIP3   OH215437   2.869   5.392   1.261
 5144TIP3    H115438   2.851   5.370   1.169
 5144TIP3    H215439   2.803   5.345   1.311
 5145TIP3   OH215440   3.933   3.172   1.031
 5145TIP3    H115441   3.857   3.114   1.019
 5145TIP3    H215442   3.959   3.158   1.121
 5146TIP3   OH215443   0.967   5.054   2.453
 5146TIP3    H115444   0.962   5.091   2.365
 5146TIP3    H215445   0.968   4.959   2.439
 5147TIP3   OH215446   5.281   0.835   1.130
 5147TIP3    H115447   5.222   0.764   1.106
 5147TIP3    H215448   5.292   0.827   1.225
 5148TIP3   OH215449   0.215   4.186   4.655
 5148TIP3    H115450   0.249   4.238   4.728
 5148TIP3    H215451   0.221   4.096   4.685
 5149TIP3   OH215452   3.866   1.106   1.185
 5149TIP3    H115453   3.811   1.048   1.133
 5149TIP3    H215454   3.904   1.166   1.122
 5150TIP3   OH215455   4.500   0.564   2.298
 5150TIP3    H115456   4.420   0.614   2.316
 5150TIP3    H215457   4.486   0.481   2.343
 5151TIP3   OH215458   4.661   4.725   4.333
 5151TIP3    H115459   4.636   4.748   4.244
 5151TIP3    H215460   4.671   4.809   4.378
 5152TIP3   OH215461   2.707   4.168   4.511
 5152TIP3    H115462   2.769   4.195   4.579
 5152TIP3    H215463   2.624   4.155   4.557
 5153TIP3   OH215464   3.029   0.508   1.474
 5153TIP3    H115465   3.031   0.571   1.402
 5153TIP3    H215466   3.095   0.443   1.450
 5154TIP3   OH215467   1.120   5.023   0.428
 5154TIP3    H115468   1.104   5.116   0.412
 5154TIP3    H215469   1.085   4.979   0.351
 5155TIP3   OH215470   3.242   1.011   1.140
 5155TIP3    H115471   3.256   1.095   1.097
 5155TIP3    H215472   3.173   1.028   1.205
 5156TIP3   OH215473   3.110   3.747   3.604
 5156TIP3    H115474   3.162   3.813   3.559
 5156TIP3    H215475   3.036   3.729   3.545
 5157TIP3   OH215476   4.374   5.834   3.963
 5157TIP3    H115477   4.360   5.922   3.999
 5157TIP3    H215478   4.360   5.844   3.869
 5158TIP3   OH215479   3.078   3.456   0.652
 5158TIP3    H115480   3.102   3.544   0.623
 5158TIP3    H215481   3.141   3.398   0.609
 5159TIP3   OH215482   3.072   2.660   1.158
 5159TIP3    H115483   3.083   2.753   1.173
 5159TIP3    H215484   3.148   2.635   1.106
 5160TIP3   OH215485   3.649   2.983   2.843
 5160TIP3    H115486   3.665   2.891   2.822
 5160TIP3    H215487   3.618   3.021   2.761
 5161TIP3   OH215488   0.248   5.557   0.499
 5161TIP3    H115489   0.193   5.621   0.544
 5161TIP3    H215490   0.336   5.573   0.532
 5162TIP3   OH215491   4.627   3.898   5.178
 5162TIP3    H115492   4.692   3.968   5.168
 5162TIP3    H215493   4.556   3.922   5.119
 5163TIP3   OH215494   1.435   5.330   5.192
 5163TIP3    H115495   1.498   5.378   5.246
 5163TIP3    H215496   1.463   5.346   5.102
 5164TIP3   OH215497   5.441   4.937   4.040
 5164TIP3    H115498   5.460   4.845   4.023
 5164TIP3    H215499   5.391   4.966   3.964
 5165TIP3   OH215500   2.125   2.900   2.881
 5165TIP3    H115501   2.070   2.842   2.933
 5165TIP3    H215502   2.071   2.977   2.864
 5166TIP3   OH215503   0.514   0.780   1.603
 5166TIP3    H115504   0.516   0.698   1.553
 5166TIP3    H215505   0.480   0.844   1.542
 5167TIP3   OH215506   2.613   5.553   3.521
 5167TIP3    H115507   2.583   5.544   3.431
 5167TIP3    H215508   2.560   5.624   3.558
 5168TIP3   OH215509   0.054   1.282   1.213
 5168TIP3    H115510   0.135   1.230   1.214
 5168TIP3    H215511   0.084   1.373   1.216
 5169TIP3   OH215512   3.403   1.778   2.380
 5169TIP3    H115513   3.349   1.839   2.431
 5169TIP3    H215514   3.493   1.805   2.398
 5170TIP3   OH215515   1.364   0.187   1.262
 5170TIP3    H115516   1.393   0.195   1.353
 5170TIP3    H215517   1.279   0.142   1.268
 5171TIP3   OH215518   2.578   5.823   2.781
 5171TIP3    H115519   2.604   5.825   2.873
 5171TIP3    H215520   2.529   5.741   2.772
 5172TIP3   OH215521   3.171   0.983   2.839
 5172TIP3    H115522   3.185   0.932   2.918
 5172TIP3    H215523   3.207   0.929   2.769
 5173TIP3   OH215524   3.418   4.434   2.599
 5173TIP3    H115525   3.451   4.484   2.673
 5173TIP3    H215526   3.335   4.397   2.629
 5174TIP3   OH215527   5.319   5.199   0.706
 5174TIP3    H115528   5.393   5.151   0.667
 5174TIP3    H215529   5.287   5.141   0.775
 5175TIP3   OH215530   1.855   2.770   2.461
 5175TIP3    H115531   1.872   2.679   2.485
 5175TIP3    H215532   1.920   2.789   2.393
 5176TIP3   OH215533   0.531   0.440   2.823
 5176TIP3    H115534   0.592   0.501   2.863
 5176TIP3    H215535   0.574   0.354   2.829
 5177TIP3   OH215536   4.327   1.116   2.626
 5177TIP3    H115537   4.299   1.151   2.542
 5177TIP3    H215538   4.343   1.193   2.681
 5178TIP3   OH215539   2.249   5.583   0.794
 5178TIP3    H115540   2.259   5.580   0.889
 5178TIP3    H215541   2.157   5.603   0.780
 5179TIP3   OH215542   3.991   1.743   0.195
 5179TIP3    H115543   3.954   1.815   0.143
 5179TIP3    H215544   4.005   1.672   0.132
 5180TIP3   OH215545   6.059   5.151   1.797
 5180TIP3    H115546   6.007   5.206   1.739
 5180TIP3    H215547   5.997   5.087   1.832
 5181TIP3   OH215548   4.544   2.309   1.955
 5181TIP3    H115549   4.601   2.243   1.995
 5181TIP3    H215550   4.462   2.301   2.003
 5182TIP3   OH215551   0.279   0.781   2.941
 5182TIP3    H115552   0.257   0.785   3.034
 5182TIP3    H215553   0.375   0.782   2.939
 5183TIP3   OH215554   5.505   3.385   0.509
 5183TIP3    H115555   5.519   3.367   0.416
 5183TIP3    H215556   5.432   3.446   0.511
 5184TIP3   OH215557   4.210   2.252   0.743
 5184TIP3    H115558   4.224   2.247   0.837
 5184TIP3    H215559   4.278   2.312   0.711
 5185TIP3   OH215560   1.386   5.610   4.739
 5185TIP3    H115561   1.351   5.624   4.651
 5185TIP3    H215562   1.473   5.651   4.738
 5186TIP3   OH215563   5.990   3.350   3.023
 5186TIP3    H115564   6.038   3.406   3.084
 5186TIP3    H215565   6.055   3.327   2.956
 5187TIP3   OH215566   6.229   0.370   3.515
 5187TIP3    H115567   6.312   0.407   3.547
 5187TIP3    H215568   6.161   0.422   3.559
 5188TIP3   OH215569   1.378   4.062   1.565
 5188TIP3    H115570   1.315   4.056   1.637
 5188TIP3    H215571   1.362   3.983   1.512
 5189TIP3   OH215572   1.259   2.085   3.457
 5189TIP3    H115573   1.225   2.174   3.443
 5189TIP3    H215574   1.308   2.065   3.377
 5190TIP3   OH215575   0.427   3.665   5.063
 5190TIP3    H115576   0.419   3.608   4.986
 5190TIP3    H215577   0.469   3.744   5.031
 5191TIP3   OH215578   3.151   2.362   0.532
 5191TIP3    H115579   3.214   2.434   0.539
 5191TIP3    H215580   3.205   2.283   0.542
 5192TIP3   OH215581   1.702   1.111   3.319
 5192TIP3    H115582   1.731   1.195   3.284
 5192TIP3    H215583   1.658   1.134   3.402
 5193TIP3   OH215584   0.056   2.950   4.637
 5193TIP3    H115585   0.126   2.943   4.572
 5193TIP3    H215586   0.089   2.903   4.714
 5194TIP3   OH215587   2.608   4.184   2.690
 5194TIP3    H115588   2.595   4.268   2.733
 5194TIP3    H215589   2.703   4.173   2.685
 5195TIP3   OH215590   1.895   5.995   0.814
 5195TIP3    H115591   1.935   5.908   0.814
 5195TIP3    H215592   1.832   5.993   0.742
 5196TIP3   OH215593   2.851   2.620   1.011
 5196TIP3    H115594   2.867   2.551   0.947
 5196TIP3    H215595   2.938   2.646   1.042
 5197TIP3   OH215596   4.970   5.726   2.649
 5197TIP3    H115597   4.975   5.640   2.692
 5197TIP3    H215598   4.889   5.764   2.683
 5198TIP3   OH215599   4.530   5.105   1.668
 5198TIP3    H115600   4.506   5.167   1.599
 5198TIP3    H215601   4.547   5.023   1.621
 5199TIP3   OH215602   6.346   1.624   2.960
 5199TIP3    H115603   6.391   1.627   3.044
 5199TIP3    H215604   6.260   1.588   2.980
 5200TIP3   OH215605   1.783   4.903   4.639
 5200TIP3    H115606   1.776   4.991   4.676
 5200TIP3    H215607   1.696   4.886   4.603
 5201TIP3   OH215608   6.019   1.634   3.493
 5201TIP3    H115609   6.052   1.649   3.582
 5201TIP3    H215610   6.012   1.539   3.486
 5202TIP3   OH215611   3.982   1.987   0.661
 5202TIP3    H115612   3.958   1.961   0.572
 5202TIP3    H215613   3.973   2.083   0.661
 5203TIP3   OH215614   4.917   0.306   0.975
 5203TIP3    H115615   4.903   0.369   0.904
 5203TIP3    H215616   4.969   0.236   0.935
 5204TIP3   OH215617   5.877   2.819   0.155
 5204TIP3    H115618   5.854   2.825   0.248
 5204TIP3    H215619   5.933   2.741   0.149
 5205TIP3   OH215620   4.192   3.353   4.298
 5205TIP3    H115621   4.103   3.321   4.286
 5205TIP3    H215622   4.228   3.298   4.367
 5206TIP3   OH215623   0.608   4.510   1.835
 5206TIP3    H115624   0.630   4.580   1.896
 5206TIP3    H215625   0.549   4.551   1.772
 5207TIP3   OH215626   1.588   0.906   3.152
 5207TIP3    H115627   1.617   0.993   3.178
 5207TIP3    H215628   1.559   0.865   3.233
 5208TIP3   OH215629   3.234   0.841   3.082
 5208TIP3    H115630   3.303   0.816   3.020
 5208TIP3    H215631   3.201   0.758   3.116
 5209TIP3   OH215632   2.718   1.096   0.019
 5209TIP3    H115633   2.738   1.189   0.007
 5209TIP3    H215634   2.787   1.064   0.077
 5210TIP3   OH215635   0.265   2.861   0.239
 5210TIP3    H115636   0.271   2.936   0.298
 5210TIP3    H215637   0.327   2.880   0.169
 5211TIP3   OH215638   4.908   3.790   3.349
 5211TIP3    H115639   4.817   3.819   3.340
 5211TIP3    H215640   4.960   3.868   3.329
 5212TIP3   OH215641   6.268   3.822   5.164
 5212TIP3    H115642   6.313   3.780   5.237
 5212TIP3    H215643   6.306   3.781   5.086
 5213TIP3   OH215644   3.337   0.179   1.198
 5213TIP3    H115645   3.410   0.151   1.144
 5213TIP3    H215646   3.271   0.111   1.187
 5214TIP3   OH215647   4.631   1.160   2.921
 5214TIP3    H115648   4.570   1.089   2.899
 5214TIP3    H215649   4.671   1.183   2.837
 5215TIP3   OH215650   5.767   0.693   3.230
 5215TIP3    H115651   5.688   0.673   3.181
 5215TIP3    H215652   5.827   0.731   3.165
 5216TIP3   OH215653   0.683   2.431   5.189
 5216TIP3    H115654   0.730   2.355   5.155
 5216TIP3    H215655   0.679   2.491   5.115
 5217TIP3   OH215656   1.152   0.840   2.552
 5217TIP3    H115657   1.131   0.912   2.493
 5217TIP3    H215658   1.245   0.823   2.538
 5218TIP3   OH215659   3.464   0.851   2.363
 5218TIP3    H115660   3.413   0.929   2.385
 5218TIP3    H215661   3.548   0.885   2.331
 5219TIP3   OH215662   6.249   1.464   1.992
 5219TIP3    H115663   6.290   1.472   2.078
 5219TIP3    H215664   6.226   1.372   1.985
 5220TIP3   OH215665   3.453   5.117   0.260
 5220TIP3    H115666   3.429   5.173   0.334
 5220TIP3    H215667   3.370   5.085   0.226
 5221TIP3   OH215668   1.510   2.340   3.863
 5221TIP3    H115669   1.475   2.339   3.773
 5221TIP3    H215670   1.448   2.286   3.913
 5222TIP3   OH215671   5.180   3.383   5.119
 5222TIP3    H115672   5.159   3.298   5.158
 5222TIP3    H215673   5.156   3.447   5.186
 5223TIP3   OH215674   3.859   1.755   4.039
 5223TIP3    H115675   3.779   1.720   4.078
 5223TIP3    H215676   3.911   1.784   4.114
 5224TIP3   OH215677   0.893   1.552   0.174
 5224TIP3    H115678   0.947   1.493   0.226
 5224TIP3    H215679   0.809   1.506   0.167
 5225TIP3   OH215680   2.240   5.489   0.384
 5225TIP3    H115681   2.296   5.552   0.339
 5225TIP3    H215682   2.295   5.452   0.453
 5226TIP3   OH215683   0.399   4.667   3.451
 5226TIP3    H115684   0.449   4.596   3.410
 5226TIP3    H215685   0.312   4.631   3.465
 5227TIP3   OH215686   5.489   2.900   4.675
 5227TIP3    H115687   5.451   2.836   4.614
 5227TIP3    H215688   5.545   2.848   4.733
 5228TIP3   OH215689   4.387   3.768   1.788
 5228TIP3    H115690   4.336   3.784   1.709
 5228TIP3    H215691   4.477   3.758   1.757
 5229TIP3   OH215692   2.732   4.584   4.381
 5229TIP3    H115693   2.719   4.540   4.465
 5229TIP3    H215694   2.800   4.532   4.337
 5230TIP3   OH215695   1.063   1.120   4.317
 5230TIP3    H115696   0.976   1.129   4.279
 5230TIP3    H215697   1.123   1.140   4.245
 5231TIP3   OH215698   0.824   5.413   5.093
 5231TIP3    H115699   0.796   5.321   5.095
 5231TIP3    H215700   0.916   5.408   5.067
 5232TIP3   OH215701   5.124   2.841   2.933
 5232TIP3    H115702   5.179   2.782   2.881
 5232TIP3    H215703   5.120   2.800   3.019
 5233TIP3   OH215704   2.787   3.692   1.224
 5233TIP3    H115705   2.747   3.691   1.138
 5233TIP3    H215706   2.779   3.783   1.254
 5234TIP3   OH215707   0.245   5.594   3.657
 5234TIP3    H115708   0.304   5.666   3.638
 5234TIP3    H215709   0.225   5.602   3.750
 5235TIP3   OH215710   1.281   3.927   5.095
 5235TIP3    H115711   1.347   3.934   5.026
 5235TIP3    H215712   1.231   4.008   5.088
 5236TIP3   OH215713   0.038   0.003   2.106
 5236TIP3    H115714   0.091  -0.046   2.044
 5236TIP3    H215715  -0.020   0.057   2.052
 5237TIP3   OH215716   0.271   2.545   1.237
 5237TIP3    H115717   0.251   2.582   1.323
 5237TIP3    H215718   0.213   2.469   1.229
 5238TIP3   OH215719   1.412   2.565   1.978
 5238TIP3    H115720   1.367   2.581   1.895
 5238TIP3    H215721   1.350   2.594   2.045
 5239TIP3   OH215722   4.058   3.252   3.732
 5239TIP3    H115723   4.053   3.217   3.643
 5239TIP3    H215724   4.139   3.215   3.767
 5240TIP3   OH215725   1.062   5.540   1.708
 5240TIP3    H115726   1.152   5.524   1.735
 5240TIP3    H215727   1.031   5.455   1.677
 5241TIP3   OH215728   5.468   2.424   0.452
 5241TIP3    H115729   5.415   2.360   0.405
 5241TIP3    H215730   5.558   2.394   0.441
 5242TIP3   OH215731   1.704   4.793   0.868
 5242TIP3    H115732   1.651   4.726   0.826
 5242TIP3    H215733   1.790   4.787   0.826
 5243TIP3   OH215734   4.131   3.684   0.170
 5243TIP3    H115735   4.136   3.596   0.208
 5243TIP3    H215736   4.155   3.742   0.242
 5244TIP3   OH215737   1.570   3.839   4.942
 5244TIP3    H115738   1.645   3.782   4.928
 5244TIP3    H215739   1.606   3.928   4.937
 5245TIP3   OH215740   1.559   4.264   1.509
 5245TIP3    H115741   1.634   4.228   1.461
 5245TIP3    H215742   1.511   4.188   1.539
 5246TIP3   OH215743   1.575   5.899   3.780
 5246TIP3    H115744   1.510   5.896   3.710
 5246TIP3    H215745   1.632   5.824   3.764
 5247TIP3   OH215746   1.084   2.900   4.715
 5247TIP3    H115747   1.050   2.895   4.626
 5247TIP3    H215748   1.043   2.978   4.753
 5248TIP3   OH215749   2.531   1.427   2.223
 5248TIP3    H115750   2.570   1.506   2.260
 5248TIP3    H215751   2.573   1.418   2.138
 5249TIP3   OH215752   0.486   4.615   2.682
 5249TIP3    H115753   0.547   4.678   2.722
 5249TIP3    H215754   0.402   4.662   2.680
 5250TIP3   OH215755   0.792   5.534   2.039
 5250TIP3    H115756   0.862   5.590   2.005
 5250TIP3    H215757   0.743   5.507   1.961
 5251TIP3   OH215758   5.489   1.926   4.510
 5251TIP3    H115759   5.570   1.917   4.561
 5251TIP3    H215760   5.421   1.935   4.577
 5252TIP3   OH215761   0.730   4.360   1.121
 5252TIP3    H115762   0.681   4.434   1.085
 5252TIP3    H215763   0.718   4.290   1.056
 5253TIP3   OH215764   5.553   1.270   1.094
 5253TIP3    H115765   5.591   1.187   1.066
 5253TIP3    H215766   5.514   1.306   1.015
 5254TIP3   OH215767   5.976   3.309   2.041
 5254TIP3    H115768   6.000   3.218   2.027
 5254TIP3    H215769   6.052   3.347   2.086
 5255TIP3   OH215770   1.624   5.524   4.246
 5255TIP3    H115771   1.710   5.499   4.282
 5255TIP3    H215772   1.639   5.611   4.208
 5256TIP3   OH215773   2.856   3.198   4.549
 5256TIP3    H115774   2.938   3.152   4.565
 5256TIP3    H215775   2.879   3.291   4.550
 5257TIP3   OH215776   4.023   4.947   0.528
 5257TIP3    H115777   4.036   5.015   0.461
 5257TIP3    H215778   3.936   4.911   0.509
 5258TIP3   OH215779   2.351   2.849   3.553
 5258TIP3    H115780   2.306   2.766   3.564
 5258TIP3    H215781   2.302   2.910   3.608
 5259TIP3   OH215782   0.821   2.382   3.851
 5259TIP3    H115783   0.767   2.332   3.790
 5259TIP3    H215784   0.768   2.385   3.931
 5260TIP3   OH215785   0.015   3.791   0.080
 5260TIP3    H115786   0.054   3.848   0.014
 5260TIP3    H215787   0.090   3.753   0.126
 5261TIP3   OH215788   0.723   5.551   0.348
 5261TIP3    H115789   0.732   5.461   0.317
 5261TIP3    H215790   0.740   5.605   0.271
 5262TIP3   OH215791   2.801   3.956   1.005
 5262TIP3    H115792   2.853   4.037   1.006
 5262TIP3    H215793   2.844   3.902   0.938
 5263TIP3   OH215794   2.454   3.939   3.491
 5263TIP3    H115795   2.366   3.978   3.495
 5263TIP3    H215796   2.438   3.845   3.494
 5264TIP3   OH215797   2.471   2.218   3.908
 5264TIP3    H115798   2.530   2.291   3.893
 5264TIP3    H215799   2.499   2.150   3.847
 5265TIP3   OH215800   4.896   5.046   4.046
 5265TIP3    H115801   4.829   5.041   3.977
 5265TIP3    H215802   4.863   5.113   4.106
 5266TIP3   OH215803   5.357   2.186   1.469
 5266TIP3    H115804   5.314   2.230   1.542
 5266TIP3    H215805   5.342   2.093   1.485
 5267TIP3   OH215806   5.011   3.216   0.054
 5267TIP3    H115807   4.950   3.281   0.088
 5267TIP3    H215808   5.014   3.148   0.121
 5268TIP3   OH215809   2.896   5.006   0.310
 5268TIP3    H115810   2.860   4.925   0.275
 5268TIP3    H215811   2.902   4.991   0.404
 5269TIP3   OH215812   1.560   0.756   2.936
 5269TIP3    H115813   1.559   0.834   2.991
 5269TIP3    H215814   1.646   0.717   2.951
 5270TIP3   OH215815   4.658   1.751   4.841
 5270TIP3    H115816   4.639   1.763   4.934
 5270TIP3    H215817   4.706   1.830   4.816
 5271TIP3   OH215818   2.269   4.877   2.394
 5271TIP3    H115819   2.238   4.901   2.307
 5271TIP3    H215820   2.299   4.959   2.433
 5272TIP3   OH215821   6.110   5.080   2.327
 5272TIP3    H115822   6.154   5.045   2.405
 5272TIP3    H215823   6.175   5.139   2.288
 5273TIP3   OH215824   5.875   2.478   1.881
 5273TIP3    H115825   5.924   2.447   1.805
 5273TIP3    H215826   5.917   2.561   1.904
 5274TIP3   OH215827   2.354   5.772   4.362
 5274TIP3    H115828   2.404   5.690   4.365
 5274TIP3    H215829   2.401   5.826   4.299
 5275TIP3   OH215830   0.176   0.823   0.070
 5275TIP3    H115831   0.092   0.790   0.039
 5275TIP3    H215832   0.161   0.916   0.086
 5276TIP3   OH215833   2.538   1.079   3.558
 5276TIP3    H115834   2.474   1.100   3.626
 5276TIP3    H215835   2.622   1.082   3.603
 5277TIP3   OH215836   1.744   1.829   3.094
 5277TIP3    H115837   1.754   1.735   3.103
 5277TIP3    H215838   1.735   1.843   2.999
 5278TIP3   OH215839   0.367   0.789   0.737
 5278TIP3    H115840   0.416   0.756   0.661
 5278TIP3    H215841   0.376   0.884   0.732
 5279TIP3   OH215842   1.017   5.667   0.661
 5279TIP3    H115843   1.034   5.670   0.755
 5279TIP3    H215844   1.020   5.759   0.634
 5280TIP3   OH215845   2.247   0.740   5.176
 5280TIP3    H115846   2.271   0.677   5.108
 5280TIP3    H215847   2.163   0.710   5.209
 5281TIP3   OH215848   3.439   4.021   1.171
 5281TIP3    H115849   3.428   4.051   1.081
 5281TIP3    H215850   3.533   4.011   1.182
 5282TIP3   OH215851   5.521   5.040   4.596
 5282TIP3    H115852   5.542   5.110   4.535
 5282TIP3    H215853   5.559   4.962   4.556
 5283TIP3   OH215854   1.781   0.523   5.138
 5283TIP3    H115855   1.742   0.446   5.180
 5283TIP3    H215856   1.848   0.488   5.080
 5284TIP3   OH215857   5.836   4.760   1.917
 5284TIP3    H115858   5.924   4.748   1.881
 5284TIP3    H215859   5.800   4.672   1.920
 5285TIP3   OH215860   4.217   2.931   4.812
 5285TIP3    H115861   4.310   2.908   4.813
 5285TIP3    H215862   4.182   2.891   4.891
 5286TIP3   OH215863   0.030   3.664   2.363
 5286TIP3    H115864  -0.013   3.665   2.449
 5286TIP3    H215865   0.004   3.580   2.325
 5287TIP3   OH215866   3.409   2.314   2.667
 5287TIP3    H115867   3.347   2.358   2.726
 5287TIP3    H215868   3.425   2.229   2.709
 5288TIP3   OH215869   2.000   5.661   3.278
 5288TIP3    H115870   2.085   5.661   3.322
 5288TIP3    H215871   1.969   5.570   3.285
 5289TIP3   OH215872   4.635   0.826   3.125
 5289TIP3    H115873   4.582   0.897   3.162
 5289TIP3    H215874   4.670   0.780   3.201
 5290TIP3   OH215875   0.871   1.512   4.068
 5290TIP3    H115876   0.919   1.495   4.150
 5290TIP3    H215877   0.939   1.511   4.001
 5291TIP3   OH215878   5.416   1.365   1.728
 5291TIP3    H115879   5.444   1.452   1.701
 5291TIP3    H215880   5.491   1.329   1.776
 5292TIP3   OH215881   0.479   2.449   2.031
 5292TIP3    H115882   0.546   2.512   2.056
 5292TIP3    H215883   0.510   2.413   1.948
 5293TIP3   OH215884   5.268   0.593   2.015
 5293TIP3    H115885   5.326   0.646   1.961
 5293TIP3    H215886   5.307   0.596   2.102
 5294TIP3   OH215887   5.455   3.848   1.614
 5294TIP3    H115888   5.382   3.854   1.553
 5294TIP3    H215889   5.522   3.906   1.577
 5295TIP3   OH215890   6.005   2.303   3.579
 5295TIP3    H115891   6.008   2.225   3.634
 5295TIP3    H215892   5.939   2.283   3.512
 5296TIP3   OH215893   3.777   3.490   0.792
 5296TIP3    H115894   3.749   3.523   0.706
 5296TIP3    H215895   3.832   3.559   0.827
 5297TIP3   OH215896   1.046   5.408   2.154
 5297TIP3    H115897   0.975   5.423   2.091
 5297TIP3    H215898   1.117   5.372   2.101
 5298TIP3   OH215899   5.679   3.372   2.898
 5298TIP3    H115900   5.646   3.312   2.831
 5298TIP3    H215901   5.769   3.345   2.913
 5299TIP3   OH215902   1.982   2.877   3.404
 5299TIP3    H115903   2.056   2.906   3.352
 5299TIP3    H215904   1.961   2.790   3.370
 5300TIP3   OH215905   0.985   4.711   3.394
 5300TIP3    H115906   0.999   4.678   3.483
 5300TIP3    H215907   0.940   4.794   3.406
 5301TIP3   OH215908   5.542   1.561   5.128
 5301TIP3    H115909   5.470   1.579   5.067
 5301TIP3    H215910   5.542   1.635   5.188
 5302TIP3   OH215911   5.716   5.506   4.614
 5302TIP3    H115912   5.741   5.520   4.705
 5302TIP3    H215913   5.710   5.593   4.576
 5303TIP3   OH215914   2.207   2.624   3.596
 5303TIP3    H115915   2.134   2.570   3.566
 5303TIP3    H215916   2.248   2.573   3.666
 5304TIP3   OH215917   4.531   5.149   3.621
 5304TIP3    H115918   4.568   5.236   3.603
 5304TIP3    H215919   4.502   5.117   3.536
 5305TIP3   OH215920   0.683   3.627   4.110
 5305TIP3    H115921   0.588   3.636   4.117
 5305TIP3    H215922   0.712   3.705   4.063
 5306TIP3   OH215923   6.346   2.276   0.935
 5306TIP3    H115924   6.252   2.289   0.946
 5306TIP3    H215925   6.375   2.353   0.886
 5307TIP3   OH215926   5.505   3.342   4.483
 5307TIP3    H115927   5.573   3.401   4.449
 5307TIP3    H215928   5.506   3.268   4.422
 5308TIP3   OH215929   4.579   2.545   1.424
 5308TIP3    H115930   4.527   2.465   1.416
 5308TIP3    H215931   4.654   2.530   1.367
 5309TIP3   OH215932   2.795   0.523   3.030
 5309TIP3    H115933   2.827   0.601   3.074
 5309TIP3    H215934   2.705   0.544   3.005
 5310TIP3   OH215935   5.418   5.232   3.160
 5310TIP3    H115936   5.448   5.285   3.086
 5310TIP3    H215937   5.465   5.268   3.235
 5311TIP3   OH215938   5.967   5.787   3.185
 5311TIP3    H115939   6.019   5.708   3.169
 5311TIP3    H215940   5.978   5.805   3.278
 5312TIP3   OH215941   4.279   1.124   4.106
 5312TIP3    H115942   4.349   1.150   4.165
 5312TIP3    H215943   4.296   1.031   4.087
 5313TIP3   OH215944   3.501   2.216   1.561
 5313TIP3    H115945   3.439   2.235   1.632
 5313TIP3    H215946   3.545   2.135   1.589
 5314TIP3   OH215947   4.893   5.261   3.789
 5314TIP3    H115948   4.850   5.320   3.726
 5314TIP3    H215949   4.836   5.185   3.794
 5315TIP3   OH215950   0.281   1.395   0.874
 5315TIP3    H115951   0.332   1.398   0.955
 5315TIP3    H215952   0.190   1.394   0.903
 5316TIP3   OH215953   5.016   1.754   4.627
 5316TIP3    H115954   5.050   1.765   4.539
 5316TIP3    H215955   4.994   1.842   4.656
 5317TIP3   OH215956   5.850   3.420   0.315
 5317TIP3    H115957   5.828   3.450   0.403
 5317TIP3    H215958   5.797   3.342   0.303
 5318TIP3   OH215959   0.549   1.982   0.468
 5318TIP3    H115960   0.528   2.071   0.496
 5318TIP3    H215961   0.616   1.994   0.401
 5319TIP3   OH215962   0.340   3.092   4.821
 5319TIP3    H115963   0.353   3.185   4.841
 5319TIP3    H215964   0.302   3.056   4.901
 5320TIP3   OH215965   2.487   0.425   1.810
 5320TIP3    H115966   2.520   0.338   1.787
 5320TIP3    H215967   2.482   0.424   1.906
 5321TIP3   OH215968   3.898   2.665   4.114
 5321TIP3    H115969   3.867   2.586   4.071
 5321TIP3    H215970   3.983   2.642   4.151
 5322TIP3   OH215971   1.025   0.579   2.402
 5322TIP3    H115972   1.068   0.660   2.374
 5322TIP3    H215973   0.946   0.575   2.348
 5323TIP3   OH215974   1.715   4.651   1.462
 5323TIP3    H115975   1.708   4.568   1.508
 5323TIP3    H215976   1.695   4.717   1.528
 5324TIP3   OH215977   4.815   4.709   5.125
 5324TIP3    H115978   4.900   4.722   5.166
 5324TIP3    H215979   4.822   4.754   5.041
 5325TIP3   OH215980   4.580   5.371   1.830
 5325TIP3    H115981   4.660   5.332   1.865
 5325TIP3    H215982   4.524   5.297   1.807
 5326TIP3   OH215983   3.146   4.671   1.380
 5326TIP3    H115984   3.192   4.755   1.381
 5326TIP3    H215985   3.062   4.689   1.338
 5327TIP3   OH215986   2.408   3.741   0.404
 5327TIP3    H115987   2.452   3.736   0.489
 5327TIP3    H215988   2.316   3.751   0.425
 5328TIP3   OH215989   1.961   3.584   3.176
 5328TIP3    H115990   2.044   3.629   3.182
 5328TIP3    H215991   1.977   3.511   3.116
 5329TIP3   OH215992   3.351   4.748   2.669
 5329TIP3    H115993   3.387   4.697   2.742
 5329TIP3    H215994   3.276   4.794   2.707
 5330TIP3   OH215995   3.341   1.954   2.133
 5330TIP3    H115996   3.408   1.907   2.085
 5330TIP3    H215997   3.368   1.949   2.225
 5331TIP3   OH215998   0.594   1.036   0.769
 5331TIP3    H115999   0.505   1.043   0.734
 5331TIP3    H216000   0.584   0.986   0.850
 5332TIP3   OH216001   4.250   0.957   0.843
 5332TIP3    H116002   4.260   1.014   0.919
 5332TIP3    H216003   4.163   0.918   0.853
 5333TIP3   OH216004   3.874   3.594   4.274
 5333TIP3    H116005   3.932   3.622   4.344
 5333TIP3    H216006   3.899   3.503   4.257
 5334TIP3   OH216007   6.041   5.925   0.283
 5334TIP3    H116008   5.995   5.879   0.353
 5334TIP3    H216009   5.971   5.963   0.230
 5335TIP3   OH216010   3.479   3.906   0.036
 5335TIP3    H116011   3.462   3.816   0.066
 5335TIP3    H216012   3.414   3.921  -0.033
 5336TIP3   OH216013   1.244   1.047   1.299
 5336TIP3    H116014   1.290   1.006   1.372
 5336TIP3    H216015   1.218   0.973   1.243
 5337TIP3   OH216016   3.573   2.004   1.936
 5337TIP3    H116017   3.544   2.050   2.014
 5337TIP3    H216018   3.627   2.068   1.889
 5338TIP3   OH216019   6.048   3.037   2.449
 5338TIP3    H116020   6.124   3.072   2.402
 5338TIP3    H216021   5.996   3.114   2.470
 5339TIP3   OH216022   3.726   1.638   1.213
 5339TIP3    H116023   3.654   1.680   1.260
 5339TIP3    H216024   3.793   1.706   1.206
 5340TIP3   OH216025   4.097   3.149   3.036
 5340TIP3    H116026   4.008   3.169   3.066
 5340TIP3    H216027   4.085   3.113   2.948
 5341TIP3   OH216028   0.733   2.795   3.209
 5341TIP3    H116029   0.694   2.711   3.183
 5341TIP3    H216030   0.760   2.781   3.300
 5342TIP3   OH216031   0.804   4.381   3.966
 5342TIP3    H116032   0.896   4.354   3.969
 5342TIP3    H216033   0.806   4.476   3.979
 5343TIP3   OH216034   1.088   0.321   4.086
 5343TIP3    H116035   1.118   0.319   4.177
 5343TIP3    H216036   1.121   0.240   4.048
 5344TIP3   OH216037   0.872   4.945   0.983
 5344TIP3    H116038   0.943   4.962   1.044
 5344TIP3    H216039   0.852   5.030   0.945
 5345TIP3   OH216040   5.099   3.495   0.839
 5345TIP3    H116041   5.018   3.531   0.803
 5345TIP3    H216042   5.129   3.560   0.902
 5346TIP3   OH216043   5.365   4.590   0.792
 5346TIP3    H116044   5.280   4.555   0.764
 5346TIP3    H216045   5.399   4.526   0.854
 5347TIP3   OH216046   1.505   1.739   2.065
 5347TIP3    H116047   1.524   1.770   2.154
 5347TIP3    H216048   1.411   1.723   2.066
 5348TIP3   OH216049   3.258   1.136   4.392
 5348TIP3    H116050   3.219   1.186   4.320
 5348TIP3    H216051   3.204   1.157   4.468
 5349TIP3   OH216052   3.230   1.156   0.860
 5349TIP3    H116053   3.262   1.201   0.782
 5349TIP3    H216054   3.171   1.218   0.901
 5350TIP3   OH216055   2.072   3.544   2.267
 5350TIP3    H116056   2.027   3.486   2.206
 5350TIP3    H216057   2.075   3.496   2.350
 5351TIP3   OH216058   5.448   3.599   4.038
 5351TIP3    H116059   5.411   3.570   3.955
 5351TIP3    H216060   5.412   3.539   4.103
 5352TIP3   OH216061   1.941   0.642   3.458
 5352TIP3    H116062   1.849   0.653   3.483
 5352TIP3    H216063   1.967   0.559   3.497
 5353TIP3   OH216064   0.749   1.866   2.523
 5353TIP3    H116065   0.821   1.809   2.496
 5353TIP3    H216066   0.776   1.953   2.495
 5354TIP3   OH216067   1.609   3.876   0.858
 5354TIP3    H116068   1.560   3.830   0.925
 5354TIP3    H216069   1.629   3.810   0.792
 5355TIP3   OH216070   1.250   0.706   3.374
 5355TIP3    H116071   1.319   0.643   3.352
 5355TIP3    H216072   1.212   0.730   3.289
 5356TIP3   OH216073   6.012   1.713   0.377
 5356TIP3    H116074   5.950   1.785   0.379
 5356TIP3    H216075   5.989   1.659   0.453
 5357TIP3   OH216076   1.747   1.390   3.269
 5357TIP3    H116077   1.813   1.401   3.338
 5357TIP3    H216078   1.785   1.433   3.192
 5358TIP3   OH216079   0.502   4.769   0.236
 5358TIP3    H116080   0.489   4.790   0.329
 5358TIP3    H216081   0.572   4.828   0.208
 5359TIP3   OH216082   1.544   0.415   4.369
 5359TIP3    H116083   1.506   0.331   4.395
 5359TIP3    H216084   1.576   0.400   4.279
 5360TIP3   OH216085   2.163   1.324   2.387
 5360TIP3    H116086   2.157   1.251   2.325
 5360TIP3    H216087   2.185   1.400   2.332
 5361TIP3   OH216088   1.584   1.846   1.833
 5361TIP3    H116089   1.574   1.805   1.919
 5361TIP3    H216090   1.617   1.934   1.852
 5362TIP3   OH216091   5.530   0.867   5.002
 5362TIP3    H116092   5.538   0.772   5.000
 5362TIP3    H216093   5.620   0.898   5.004
 5363TIP3   OH216094   0.305   0.070   3.848
 5363TIP3    H116095   0.294   0.066   3.943
 5363TIP3    H216096   0.395   0.040   3.834
 5364TIP3   OH216097   2.755   0.088   4.200
 5364TIP3    H116098   2.815   0.084   4.275
 5364TIP3    H216099   2.774   0.008   4.150
 5365TIP3   OH216100   0.533   3.977   4.683
 5365TIP3    H116101   0.546   4.072   4.686
 5365TIP3    H216102   0.455   3.966   4.628
 5366TIP3   OH216103   1.176   2.107   1.033
 5366TIP3    H116104   1.116   2.163   1.082
 5366TIP3    H216105   1.120   2.038   0.998
 5367TIP3   OH216106   3.709   4.948   4.458
 5367TIP3    H116107   3.680   4.999   4.383
 5367TIP3    H216108   3.747   5.012   4.518
 5368TIP3   OH216109   2.213   1.043   2.513
 5368TIP3    H116110   2.235   0.964   2.562
 5368TIP3    H216111   2.120   1.034   2.495
 5369TIP3   OH216112   4.830   2.417   4.343
 5369TIP3    H116113   4.807   2.461   4.261
 5369TIP3    H216114   4.829   2.487   4.408
 5370TIP3   OH216115   4.957   5.791   1.449
 5370TIP3    H116116   5.012   5.849   1.501
 5370TIP3    H216117   4.983   5.703   1.476
 5371TIP3   OH216118   2.729   1.244   3.040
 5371TIP3    H116119   2.735   1.248   2.945
 5371TIP3    H216120   2.663   1.176   3.057
 5372TIP3   OH216121   5.585   4.954   2.176
 5372TIP3    H116122   5.592   4.929   2.269
 5372TIP3    H216123   5.599   4.873   2.128
 5373TIP3   OH216124   5.974   1.494   0.734
 5373TIP3    H116125   5.934   1.407   0.725
 5373TIP3    H216126   5.914   1.553   0.688
 5374TIP3   OH216127   1.602   2.349   4.555
 5374TIP3    H116128   1.672   2.387   4.502
 5374TIP3    H216129   1.528   2.409   4.544
 5375TIP3   OH216130   4.657   0.665   2.112
 5375TIP3    H116131   4.606   0.619   2.180
 5375TIP3    H216132   4.736   0.693   2.157
 5376TIP3   OH216133   0.460   1.746   0.190
 5376TIP3    H116134   0.454   1.719   0.282
 5376TIP3    H216135   0.533   1.809   0.189
 5377TIP3   OH216136   1.938   0.522   1.710
 5377TIP3    H116137   1.893   0.551   1.790
 5377TIP3    H216138   1.872   0.471   1.663
 5378TIP3   OH216139   2.256   2.684  -0.021
 5378TIP3    H116140   2.339   2.648   0.008
 5378TIP3    H216141   2.254   2.773   0.015
 5379TIP3   OH216142   1.036   3.958   4.754
 5379TIP3    H116143   0.956   3.940   4.703
 5379TIP3    H216144   1.003   3.985   4.840
 5380TIP3   OH216145   4.209   0.575   3.876
 5380TIP3    H116146   4.185   0.487   3.905
 5380TIP3    H216147   4.140   0.600   3.815
 5381TIP3   OH216148   1.866   5.757   5.025
 5381TIP3    H116149   1.850   5.690   5.092
 5381TIP3    H216150   1.939   5.808   5.059
 5382TIP3   OH216151   5.669   3.394   0.011
 5382TIP3    H116152   5.602   3.366   0.073
 5382TIP3    H216153   5.620   3.433  -0.061
 5383TIP3   OH216154   0.246   2.941   3.158
 5383TIP3    H116155   0.255   3.024   3.111
 5383TIP3    H216156   0.324   2.891   3.133
 5384TIP3   OH216157   1.104   0.147   1.287
 5384TIP3    H116158   1.044   0.136   1.361
 5384TIP3    H216159   1.052   0.192   1.221
 5385TIP3   OH216160   4.047   4.800   2.143
 5385TIP3    H116161   4.135   4.812   2.108
 5385TIP3    H216162   3.998   4.875   2.111
 5386TIP3   OH216163   4.871   0.453   4.121
 5386TIP3    H116164   4.911   0.466   4.207
 5386TIP3    H216165   4.943   0.468   4.059
 5387TIP3   OH216166   4.523   4.314   2.204
 5387TIP3    H116167   4.493   4.268   2.125
 5387TIP3    H216168   4.515   4.407   2.181
 5388TIP3   OH216169   4.881   2.845   0.438
 5388TIP3    H116170   4.927   2.880   0.515
 5388TIP3    H216171   4.917   2.757   0.426
 5389TIP3   OH216172   1.101   2.828   1.694
 5389TIP3    H116173   1.040   2.845   1.622
 5389TIP3    H216174   1.056   2.862   1.772
 5390TIP3   OH216175   6.270   5.480   3.820
 5390TIP3    H116176   6.263   5.523   3.735
 5390TIP3    H216177   6.201   5.520   3.873
 5391TIP3   OH216178   4.539   1.380   0.624
 5391TIP3    H116179   4.558   1.290   0.596
 5391TIP3    H216180   4.492   1.418   0.549
 5392TIP3   OH216181   4.707   1.119   3.955
 5392TIP3    H116182   4.743   1.079   3.875
 5392TIP3    H216183   4.703   1.046   4.017
 5393TIP3   OH216184   1.829   0.195   3.211
 5393TIP3    H116185   1.852   0.241   3.131
 5393TIP3    H216186   1.744   0.156   3.193
 5394TIP3   OH216187   3.910   1.814   1.524
 5394TIP3    H116188   3.834   1.760   1.502
 5394TIP3    H216189   3.877   1.904   1.524
 5395TIP3   OH216190   5.647   3.550   4.412
 5395TIP3    H116191   5.561   3.586   4.393
 5395TIP3    H216192   5.684   3.530   4.326
 5396TIP3   OH216193   1.165   2.336   3.389
 5396TIP3    H116194   1.110   2.358   3.314
 5396TIP3    H216195   1.238   2.399   3.385
 5397TIP3   OH216196   3.340   4.782   3.919
 5397TIP3    H116197   3.258   4.754   3.881
 5397TIP3    H216198   3.407   4.756   3.856
 5398TIP3   OH216199   2.240   2.630   3.319
 5398TIP3    H116200   2.335   2.646   3.322
 5398TIP3    H216201   2.212   2.637   3.410
 5399TIP3   OH216202   1.411   4.373   5.140
 5399TIP3    H116203   1.411   4.283   5.173
 5399TIP3    H216204   1.402   4.364   5.045
 5400TIP3   OH216205   5.741   2.769   4.807
 5400TIP3    H116206   5.703   2.835   4.864
 5400TIP3    H216207   5.675   2.699   4.803
 5401TIP3   OH216208   5.848   4.547   2.176
 5401TIP3    H116209   5.850   4.451   2.185
 5401TIP3    H216210   5.933   4.570   2.139
 5402TIP3   OH216211   4.352   5.438   3.415
 5402TIP3    H116212   4.373   5.354   3.375
 5402TIP3    H216213   4.345   5.419   3.509
 5403TIP3   OH216214   4.739   5.079   5.048
 5403TIP3    H116215   4.724   5.149   5.111
 5403TIP3    H216216   4.652   5.058   5.014
 5404TIP3   OH216217   3.329   3.309   0.771
 5404TIP3    H116218   3.297   3.392   0.806
 5404TIP3    H216219   3.421   3.306   0.798
 5405TIP3   OH216220   2.259   5.716   4.813
 5405TIP3    H116221   2.274   5.723   4.908
 5405TIP3    H216222   2.290   5.800   4.779
 5406TIP3   OH216223   1.235   2.807   0.125
 5406TIP3    H116224   1.278   2.878   0.078
 5406TIP3    H216225   1.274   2.810   0.213
 5407TIP3   OH216226   1.849   2.721   5.076
 5407TIP3    H116227   1.901   2.703   4.997
 5407TIP3    H216228   1.850   2.817   5.083
 5408TIP3   OH216229   3.453   3.834   3.437
 5408TIP3    H116230   3.492   3.838   3.350
 5408TIP3    H216231   3.366   3.872   3.426
 5409TIP3   OH216232   0.775   3.240   1.246
 5409TIP3    H116233   0.730   3.245   1.162
 5409TIP3    H216234   0.754   3.153   1.280
 5410TIP3   OH216235   4.081   4.677   3.269
 5410TIP3    H116236   4.081   4.720   3.184
 5410TIP3    H216237   4.023   4.730   3.324
 5411TIP3   OH216238   3.673   4.124   0.247
 5411TIP3    H116239   3.601   4.173   0.205
 5411TIP3    H216240   3.703   4.064   0.179
 5412TIP3   OH216241   1.976   2.987   5.177
 5412TIP3    H116242   2.053   2.941   5.146
 5412TIP3    H216243   1.973   3.068   5.125
 5413TIP3   OH216244   2.435   4.124   5.064
 5413TIP3    H116245   2.371   4.172   5.117
 5413TIP3    H216246   2.388   4.103   4.983
 5414TIP3   OH216247   3.344   2.333   4.823
 5414TIP3    H116248   3.399   2.294   4.892
 5414TIP3    H216249   3.257   2.339   4.863
 5415TIP3   OH216250   0.663   1.524   1.477
 5415TIP3    H116251   0.745   1.501   1.433
 5415TIP3    H216252   0.671   1.618   1.495
 5416TIP3   OH216253   0.922   2.203   5.114
 5416TIP3    H116254   0.943   2.122   5.160
 5416TIP3    H216255   0.996   2.218   5.055
 5417TIP3   OH216256   4.442   2.891   3.082
 5417TIP3    H116257   4.347   2.881   3.086
 5417TIP3    H216258   4.468   2.916   3.170
 5418TIP3   OH216259   5.425   4.698   3.628
 5418TIP3    H116260   5.353   4.654   3.673
 5418TIP3    H216261   5.503   4.679   3.681
 5419TIP3   OH216262   5.475   1.953   1.105
 5419TIP3    H116263   5.468   1.867   1.147
 5419TIP3    H216264   5.502   1.935   1.015
 5420TIP3   OH216265   2.638   4.473   3.847
 5420TIP3    H116266   2.543   4.472   3.861
 5420TIP3    H216267   2.647   4.482   3.752
 5421TIP3   OH216268   5.596   0.031   5.178
 5421TIP3    H116269   5.633   0.077   5.102
 5421TIP3    H216270   5.585   0.099   5.244
 5422TIP3   OH216271   6.207   0.343   1.484
 5422TIP3    H116272   6.289   0.294   1.492
 5422TIP3    H216273   6.205   0.369   1.392
 5423TIP3   OH216274   0.397   2.031   5.068
 5423TIP3    H116275   0.459   2.101   5.049
 5423TIP3    H216276   0.365   2.003   4.983
 5424TIP3   OH216277   2.575   4.023   1.917
 5424TIP3    H116278   2.577   3.928   1.918
 5424TIP3    H216279   2.596   4.047   1.827
 5425TIP3   OH216280   2.008   1.927   5.161
 5425TIP3    H116281   2.013   1.902   5.068
 5425TIP3    H216282   1.915   1.942   5.176
 5426TIP3   OH216283   5.951   0.737   1.208
 5426TIP3    H116284   5.902   0.715   1.128
 5426TIP3    H216285   5.885   0.734   1.277
 5427TIP3   OH216286   4.572   2.962   0.691
 5427TIP3    H116287   4.515   2.889   0.667
 5427TIP3    H216288   4.644   2.958   0.628
 5428TIP3   OH216289   5.048   3.713   1.700
 5428TIP3    H116290   5.017   3.686   1.787
 5428TIP3    H216291   4.982   3.776   1.670
 5429TIP3   OH216292   5.007   2.033   1.416
 5429TIP3    H116293   4.981   1.990   1.498
 5429TIP3    H216294   5.101   2.017   1.409
 5430TIP3   OH216295   3.857   3.701   2.529
 5430TIP3    H116296   3.946   3.735   2.537
 5430TIP3    H216297   3.814   3.728   2.610
 5431TIP3   OH216298   4.660   1.800   3.718
 5431TIP3    H116299   4.603   1.874   3.738
 5431TIP3    H216300   4.688   1.816   3.628
 5432TIP3   OH216301   3.063   4.169   3.603
 5432TIP3    H116302   3.125   4.222   3.654
 5432TIP3    H216303   3.004   4.133   3.669
 5433TIP3   OH216304   2.192   0.823   0.852
 5433TIP3    H116305   2.133   0.885   0.893
 5433TIP3    H216306   2.272   0.827   0.905
 5434TIP3   OH216307   4.136   1.735   1.674
 5434TIP3    H116308   4.068   1.769   1.616
 5434TIP3    H216309   4.202   1.700   1.615
 5435TIP3   OH216310   4.666   0.408   3.192
 5435TIP3    H116311   4.741   0.465   3.176
 5435TIP3    H216312   4.626   0.443   3.272
 5436TIP3   OH216313   6.289   4.710   1.458
 5436TIP3    H116314   6.196   4.699   1.478
 5436TIP3    H216315   6.311   4.797   1.493
 5437TIP3   OH216316   6.120   2.552   4.036
 5437TIP3    H116317   6.212   2.578   4.043
 5437TIP3    H216318   6.084   2.567   4.124
 5438TIP3   OH216319   2.142   5.822   1.826
 5438TIP3    H116320   2.105   5.907   1.850
 5438TIP3    H216321   2.236   5.837   1.820
 5439TIP3   OH216322   0.278   1.887   1.035
 5439TIP3    H116323   0.359   1.924   0.999
 5439TIP3    H216324   0.209   1.928   0.983
 5440TIP3   OH216325   2.974   2.130   1.521
 5440TIP3    H116326   3.010   2.106   1.436
 5440TIP3    H216327   2.918   2.056   1.545
 5441TIP3   OH216328   2.601   5.843   1.500
 5441TIP3    H116329   2.553   5.890   1.432
 5441TIP3    H216330   2.689   5.880   1.497
 5442TIP3   OH216331   0.572   1.599   2.508
 5442TIP3    H116332   0.579   1.694   2.521
 5442TIP3    H216333   0.531   1.590   2.421
 5443TIP3   OH216334   1.858   0.148   2.756
 5443TIP3    H116335   1.849   0.108   2.842
 5443TIP3    H216336   1.818   0.086   2.696
 5444TIP3   OH216337   2.472   0.625   0.598
 5444TIP3    H116338   2.399   0.647   0.540
 5444TIP3    H216339   2.527   0.703   0.598
 5445TIP3   OH216340   0.157   0.949   2.440
 5445TIP3    H116341   0.070   0.950   2.399
 5445TIP3    H216342   0.149   0.885   2.510
 5446TIP3   OH216343   4.386   1.311   2.841
 5446TIP3    H116344   4.322   1.376   2.811
 5446TIP3    H216345   4.468   1.359   2.848
 5447TIP3   OH216346   2.621   1.832   3.489
 5447TIP3    H116347   2.660   1.746   3.477
 5447TIP3    H216348   2.533   1.825   3.452
 5448TIP3   OH216349   2.985   3.155   3.270
 5448TIP3    H116350   3.010   3.146   3.178
 5448TIP3    H216351   3.041   3.093   3.316
 5449TIP3   OH216352   2.381   4.836   3.800
 5449TIP3    H116353   2.299   4.856   3.846
 5449TIP3    H216354   2.375   4.742   3.781
 5450TIP3   OH216355   4.906   3.904   1.338
 5450TIP3    H116356   4.831   3.844   1.330
 5450TIP3    H216357   4.877   3.972   1.398
 5451TIP3   OH216358   3.264   4.370   4.609
 5451TIP3    H116359   3.171   4.382   4.592
 5451TIP3    H216360   3.270   4.356   4.703
 5452TIP3   OH216361   0.521   2.561   4.755
 5452TIP3    H116362   0.434   2.536   4.724
 5452TIP3    H216363   0.579   2.491   4.725
 5453TIP3   OH216364   2.718   1.604   2.315
 5453TIP3    H116365   2.794   1.570   2.362
 5453TIP3    H216366   2.751   1.680   2.268
 5454TIP3   OH216367   4.989   2.021   0.827
 5454TIP3    H116368   5.015   2.002   0.918
 5454TIP3    H216369   5.072   2.025   0.779
 5455TIP3   OH216370   5.734   5.759   0.097
 5455TIP3    H116371   5.806   5.707   0.060
 5455TIP3    H216372   5.773   5.846   0.112
 5456TIP3   OH216373   4.996   1.791   2.638
 5456TIP3    H116374   5.057   1.840   2.693
 5456TIP3    H216375   4.922   1.772   2.696
 5457TIP3   OH216376   6.014   4.481   1.758
 5457TIP3    H116377   6.049   4.502   1.671
 5457TIP3    H216378   5.933   4.433   1.740
 5458TIP3   OH216379   0.972   1.165   3.020
 5458TIP3    H116380   0.930   1.090   2.978
 5458TIP3    H216381   0.917   1.240   2.997
 5459TIP3   OH216382   6.218   5.662   4.142
 5459TIP3    H116383   6.149   5.624   4.088
 5459TIP3    H216384   6.285   5.594   4.147
 5460TIP3   OH216385   3.981   0.916   2.498
 5460TIP3    H116386   4.037   0.902   2.575
 5460TIP3    H216387   3.981   0.832   2.453
 5461TIP3   OH216388   3.487   4.550   3.189
 5461TIP3    H116389   3.423   4.479   3.186
 5461TIP3    H216390   3.572   4.507   3.179
 5462TIP3   OH216391   0.863   4.499   4.835
 5462TIP3    H116392   0.870   4.425   4.773
 5462TIP3    H216393   0.895   4.574   4.785
 5463TIP3   OH216394   0.945   0.689   3.375
 5463TIP3    H116395   0.918   0.648   3.457
 5463TIP3    H216396   1.038   0.710   3.387
 5464TIP3   OH216397   3.402   5.563   2.102
 5464TIP3    H116398   3.366   5.555   2.013
 5464TIP3    H216399   3.493   5.588   2.088
 5465TIP3   OH216400   3.857   5.321   3.717
 5465TIP3    H116401   3.851   5.411   3.749
 5465TIP3    H216402   3.801   5.320   3.638
 5466TIP3   OH216403   3.107   5.604   1.970
 5466TIP3    H116404   3.089   5.522   1.924
 5466TIP3    H216405   3.048   5.668   1.930
 5467TIP3   OH216406   4.190   1.668   2.329
 5467TIP3    H116407   4.221   1.625   2.408
 5467TIP3    H216408   4.159   1.754   2.358
 5468TIP3   OH216409   3.600   0.652   3.253
 5468TIP3    H116410   3.688   0.686   3.262
 5468TIP3    H216411   3.551   0.693   3.325
 5469TIP3   OH216412   2.517   3.359   4.149
 5469TIP3    H116413   2.440   3.352   4.206
 5469TIP3    H216414   2.508   3.444   4.106
 5470TIP3   OH216415   4.304   0.707   4.614
 5470TIP3    H116416   4.279   0.770   4.546
 5470TIP3    H216417   4.230   0.647   4.619
 5471TIP3   OH216418   0.860   5.181   2.826
 5471TIP3    H116419   0.842   5.242   2.754
 5471TIP3    H216420   0.853   5.235   2.905
 5472TIP3   OH216421   1.828   2.987   2.665
 5472TIP3    H116422   1.839   2.920   2.733
 5472TIP3    H216423   1.806   2.938   2.586
 5473TIP3   OH216424   5.669   3.287   1.627
 5473TIP3    H116425   5.579   3.313   1.645
 5473TIP3    H216426   5.718   3.370   1.624
 5474TIP3   OH216427   1.455   3.645   3.588
 5474TIP3    H116428   1.440   3.662   3.495
 5474TIP3    H216429   1.391   3.699   3.634
 5475TIP3   OH216430   1.009   4.423   0.098
 5475TIP3    H116431   1.103   4.438   0.111
 5475TIP3    H216432   0.982   4.372   0.174
 5476TIP3   OH216433   0.267   5.584   5.163
 5476TIP3    H116434   0.281   5.631   5.081
 5476TIP3    H216435   0.185   5.537   5.149
 5477TIP3   OH216436   3.104   5.529   2.236
 5477TIP3    H116437   3.139   5.555   2.151
 5477TIP3    H216438   3.163   5.461   2.267
 5478TIP3   OH216439   0.782   5.751   1.421
 5478TIP3    H116440   0.854   5.698   1.386
 5478TIP3    H216441   0.764   5.714   1.507
 5479TIP3   OH216442   2.792   0.925   2.413
 5479TIP3    H116443   2.821   0.854   2.356
 5479TIP3    H216444   2.821   1.004   2.368
 5480TIP3   OH216445   5.667   4.501   3.529
 5480TIP3    H116446   5.692   4.589   3.500
 5480TIP3    H216447   5.743   4.470   3.578
 5481TIP3   OH216448   2.841   2.323   4.717
 5481TIP3    H116449   2.915   2.360   4.670
 5481TIP3    H216450   2.769   2.384   4.701
 5482TIP3   OH216451   1.887   5.819   1.737
 5482TIP3    H116452   1.828   5.745   1.752
 5482TIP3    H216453   1.974   5.784   1.756
 5483TIP3   OH216454   1.796   2.130   4.405
 5483TIP3    H116455   1.881   2.111   4.444
 5483TIP3    H216456   1.734   2.121   4.477
 5484TIP3   OH216457   2.432   0.444   0.361
 5484TIP3    H116458   2.379   0.524   0.366
 5484TIP3    H216459   2.518   0.474   0.330
 5485TIP3   OH216460   2.801   2.923   5.134
 5485TIP3    H116461   2.862   2.962   5.198
 5485TIP3    H216462   2.828   2.960   5.050
 5486TIP3   OH216463   4.206   5.433   1.911
 5486TIP3    H116464   4.196   5.340   1.935
 5486TIP3    H216465   4.185   5.480   1.992
 5487TIP3   OH216466   0.959   3.873   2.226
 5487TIP3    H116467   0.977   3.967   2.224
 5487TIP3    H216468   1.023   3.836   2.165
 5488TIP3   OH216469   5.827   2.413   4.658
 5488TIP3    H116470   5.794   2.345   4.600
 5488TIP3    H216471   5.769   2.488   4.643
 5489TIP3   OH216472   0.346   4.115   1.941
 5489TIP3    H116473   0.331   4.091   2.033
 5489TIP3    H216474   0.302   4.047   1.891
 5490TIP3   OH216475   4.044   4.950   3.381
 5490TIP3    H116476   4.125   4.958   3.330
 5490TIP3    H216477   4.002   5.035   3.372
 5491TIP3   OH216478   1.137   4.643   0.472
 5491TIP3    H116479   1.118   4.593   0.551
 5491TIP3    H216480   1.054   4.686   0.451
 5492TIP3   OH216481   3.013   2.910   2.260
 5492TIP3    H116482   3.063   2.944   2.185
 5492TIP3    H216483   2.985   2.823   2.233
 5493TIP3   OH216484   1.634   0.372   2.249
 5493TIP3    H116485   1.620   0.459   2.213
 5493TIP3    H216486   1.545   0.338   2.264
 5494TIP3   OH216487   2.130   3.770   3.460
 5494TIP3    H116488   2.125   3.687   3.508
 5494TIP3    H216489   2.154   3.745   3.371
 5495TIP3   OH216490   5.705   5.825   2.184
 5495TIP3    H116491   5.671   5.757   2.242
 5495TIP3    H216492   5.765   5.778   2.125
 5496TIP3   OH216493   3.970   0.864   0.858
 5496TIP3    H116494   3.939   0.815   0.935
 5496TIP3    H216495   3.897   0.860   0.796
 5497TIP3   OH216496   5.473   3.802   2.952
 5497TIP3    H116497   5.423   3.883   2.959
 5497TIP3    H216498   5.421   3.737   3.001
 5498TIP3   OH216499   4.144   3.738   2.503
 5498TIP3    H116500   4.159   3.735   2.408
 5498TIP3    H216501   4.191   3.661   2.537
 5499TIP3   OH216502   1.101   3.525   3.334
 5499TIP3    H116503   1.124   3.441   3.293
 5499TIP3    H216504   1.006   3.530   3.327
 5500TIP3   OH216505   3.500   1.746   1.556
 5500TIP3    H116506   3.545   1.818   1.599
 5500TIP3    H216507   3.425   1.787   1.513
 5501TIP3   OH216508   2.627   1.524   4.034
 5501TIP3    H116509   2.562   1.531   4.103
 5501TIP3    H216510   2.588   1.463   3.971
 5502TIP3   OH216511   0.762   4.105   2.203
 5502TIP3    H116512   0.681   4.155   2.201
 5502TIP3    H216513   0.830   4.169   2.226
 5503TIP3   OH216514   1.740   0.345   2.503
 5503TIP3    H116515   1.710   0.258   2.529
 5503TIP3    H216516   1.711   0.355   2.413
 5504TIP3   OH216517   5.907   4.193   1.570
 5504TIP3    H116518   5.882   4.279   1.603
 5504TIP3    H216519   5.879   4.193   1.479
 5505TIP3   OH216520   2.737   4.176   3.940
 5505TIP3    H116521   2.691   4.137   3.867
 5505TIP3    H216522   2.805   4.231   3.899
 5506TIP3   OH216523   4.832   2.917   1.097
 5506TIP3    H116524   4.919   2.879   1.083
 5506TIP3    H216525   4.813   2.965   1.017
 5507TIP3   OH216526   0.596   5.156   3.432
 5507TIP3    H116527   0.513   5.205   3.430
 5507TIP3    H216528   0.572   5.070   3.465
 5508TIP3   OH216529   2.982   4.525   1.747
 5508TIP3    H116530   3.045   4.570   1.804
 5508TIP3    H216531   2.897   4.546   1.784
 5509TIP3   OH216532   4.022   0.264   2.728
 5509TIP3    H116533   3.977   0.179   2.726
 5509TIP3    H216534   3.963   0.323   2.682
 5510TIP3   OH216535   1.017   5.279   0.379
 5510TIP3    H116536   0.978   5.313   0.299
 5510TIP3    H216537   0.948   5.284   0.445
 5511TIP3   OH216538   3.499   5.858   4.369
 5511TIP3    H116539   3.431   5.916   4.402
 5511TIP3    H216540   3.514   5.795   4.440
 5512TIP3   OH216541   2.622   3.571   2.398
 5512TIP3    H116542   2.598   3.479   2.392
 5512TIP3    H216543   2.539   3.617   2.411
 5513TIP3   OH216544   2.140   3.393   2.512
 5513TIP3    H116545   2.106   3.457   2.575
 5513TIP3    H216546   2.135   3.309   2.558
 5514TIP3   OH216547   3.082   2.325   3.351
 5514TIP3    H116548   3.033   2.327   3.433
 5514TIP3    H216549   3.163   2.372   3.370
 5515TIP3   OH216550   4.751   1.504   2.401
 5515TIP3    H116551   4.770   1.411   2.402
 5515TIP3    H216552   4.835   1.546   2.382
 5516TIP3   OH216553   5.299   4.314   3.103
 5516TIP3    H116554   5.207   4.290   3.113
 5516TIP3    H216555   5.297   4.400   3.062
 5517TIP3   OH216556   5.238   5.763   1.666
 5517TIP3    H116557   5.249   5.719   1.750
 5517TIP3    H216558   5.302   5.721   1.608
 5518TIP3   OH216559   0.454   3.362   1.710
 5518TIP3    H116560   0.516   3.370   1.638
 5518TIP3    H216561   0.369   3.354   1.668
 5519TIP3   OH216562   1.541   1.305   2.437
 5519TIP3    H116563   1.626   1.298   2.479
 5519TIP3    H216564   1.480   1.262   2.498
 5520TIP3   OH216565   1.329   2.217   4.628
 5520TIP3    H116566   1.351   2.139   4.679
 5520TIP3    H216567   1.387   2.214   4.552
 5521TIP3   OH216568   4.633   5.486   3.309
 5521TIP3    H116569   4.695   5.506   3.239
 5521TIP3    H216570   4.560   5.443   3.264
 5522TIP3   OH216571   1.053   2.904   3.723
 5522TIP3    H116572   1.030   2.849   3.798
 5522TIP3    H216573   1.147   2.892   3.713
 5523TIP3   OH216574   3.969   5.669   3.617
 5523TIP3    H116575   4.034   5.675   3.687
 5523TIP3    H216576   3.894   5.625   3.658
 5524TIP3   OH216577   5.759   0.354   0.279
 5524TIP3    H116578   5.830   0.383   0.336
 5524TIP3    H216579   5.739   0.265   0.308
 5525TIP3   OH216580   3.123   2.071   1.776
 5525TIP3    H116581   3.067   2.037   1.846
 5525TIP3    H216582   3.062   2.100   1.709
 5526TIP3   OH216583   0.426   2.042   2.067
 5526TIP3    H116584   0.493   2.095   2.024
 5526TIP3    H216585   0.454   2.038   2.158
 5527TIP3   OH216586   1.328   0.473   4.614
 5527TIP3    H116587   1.404   0.494   4.668
 5527TIP3    H216588   1.305   0.383   4.640
 5528TIP3   OH216589   3.785   0.320   4.344
 5528TIP3    H116590   3.863   0.375   4.345
 5528TIP3    H216591   3.788   0.271   4.426
 5529TIP3   OH216592   4.533   1.139   5.048
 5529TIP3    H116593   4.593   1.091   4.990
 5529TIP3    H216594   4.518   1.222   5.003
 5530TIP3   OH216595   3.905   1.243   4.886
 5530TIP3    H116596   3.897   1.339   4.883
 5530TIP3    H216597   3.897   1.216   4.795
 5531TIP3   OH216598   2.632   2.012   3.808
 5531TIP3    H116599   2.687   2.050   3.876
 5531TIP3    H216600   2.646   1.918   3.816
 5532TIP3   OH216601   5.352   5.368   3.925
 5532TIP3    H116602   5.260   5.343   3.911
 5532TIP3    H216603   5.377   5.323   4.005
 5533TIP3   OH216604   3.747   5.960   2.001
 5533TIP3    H116605   3.821   5.900   2.015
 5533TIP3    H216606   3.690   5.913   1.940
 5534TIP3   OH216607   5.261   3.657   3.048
 5534TIP3    H116608   5.268   3.625   2.958
 5534TIP3    H216609   5.217   3.742   3.040
 5535TIP3   OH216610   3.385   0.363   2.196
 5535TIP3    H116611   3.432   0.393   2.118
 5535TIP3    H216612   3.338   0.441   2.227
 5536TIP3   OH216613   4.339   1.940   4.792
 5536TIP3    H116614   4.335   1.896   4.708
 5536TIP3    H216615   4.313   1.873   4.855
 5537TIP3   OH216616   5.744   4.887   3.451
 5537TIP3    H116617   5.797   4.813   3.423
 5537TIP3    H216618   5.789   4.922   3.528
 5538TIP3   OH216619   5.194   4.224   1.776
 5538TIP3    H116620   5.136   4.148   1.771
 5538TIP3    H216621   5.224   4.224   1.867
 5539TIP3   OH216622   0.283   4.984   2.590
 5539TIP3    H116623   0.254   5.070   2.620
 5539TIP3    H216624   0.378   4.987   2.597
 5540TIP3   OH216625   0.379   4.218   3.579
 5540TIP3    H116626   0.287   4.200   3.601
 5540TIP3    H216627   0.420   4.240   3.662
 5541TIP3   OH216628   3.916   1.893   0.408
 5541TIP3    H116629   3.954   1.829   0.347
 5541TIP3    H216630   3.823   1.895   0.386
 5542TIP3   OH216631   5.946   3.203   4.586
 5542TIP3    H116632   5.964   3.291   4.554
 5542TIP3    H216633   6.029   3.156   4.575
 5543TIP3   OH216634   1.098   3.179   4.434
 5543TIP3    H116635   1.134   3.123   4.365
 5543TIP3    H216636   1.007   3.193   4.408
 5544TIP3   OH216637   1.382   2.935   1.877
 5544TIP3    H116638   1.365   2.901   1.965
 5544TIP3    H216639   1.468   2.899   1.854
 5545TIP3   OH216640   6.286   5.939   1.087
 5545TIP3    H116641   6.291   5.961   1.180
 5545TIP3    H216642   6.265   6.022   1.044
 5546TIP3   OH216643   0.185   4.835   3.149
 5546TIP3    H116644   0.279   4.821   3.142
 5546TIP3    H216645   0.147   4.769   3.091
 5547TIP3   OH216646   4.464   4.969   5.050
 5547TIP3    H116647   4.437   4.934   5.135
 5547TIP3    H216648   4.406   5.044   5.036
 5548TIP3   OH216649   2.360   2.406   0.331
 5548TIP3    H116650   2.456   2.408   0.330
 5548TIP3    H216651   2.337   2.326   0.286
 5549TIP3   OH216652   0.131   2.696   0.424
 5549TIP3    H116653   0.143   2.724   0.515
 5549TIP3    H216654   0.177   2.763   0.373
 5550TIP3   OH216655   2.897   0.156   1.639
 5550TIP3    H116656   2.886   0.193   1.551
 5550TIP3    H216657   2.873   0.228   1.697
 5551TIP3   OH216658   0.532   3.881   3.858
 5551TIP3    H116659   0.475   3.956   3.843
 5551TIP3    H216660   0.599   3.913   3.918
 5552TIP3   OH216661   2.335   2.294   2.165
 5552TIP3    H116662   2.319   2.213   2.116
 5552TIP3    H216663   2.341   2.266   2.256
 5553TIP3   OH216664   3.501   4.901   1.476
 5553TIP3    H116665   3.428   4.926   1.533
 5553TIP3    H216666   3.467   4.913   1.387
 5554TIP3   OH216667   1.956   5.483   1.621
 5554TIP3    H116668   2.017   5.557   1.613
 5554TIP3    H216669   1.894   5.510   1.689
 5555TIP3   OH216670   0.643   3.346   3.833
 5555TIP3    H116671   0.573   3.403   3.865
 5555TIP3    H216672   0.602   3.296   3.762
 5556TIP3   OH216673   0.980   1.223   0.941
 5556TIP3    H116674   1.015   1.174   1.015
 5556TIP3    H216675   1.032   1.195   0.866
 5557TIP3   OH216676   2.318   1.245   3.038
 5557TIP3    H116677   2.369   1.248   2.957
 5557TIP3    H216678   2.244   1.188   3.017
 5558TIP3   OH216679   0.934   5.822   4.471
 5558TIP3    H116680   1.029   5.815   4.457
 5558TIP3    H216681   0.923   5.805   4.565
 5559TIP3   OH216682   0.172   2.246   0.414
 5559TIP3    H116683   0.184   2.334   0.378
 5559TIP3    H216684   0.224   2.190   0.356
 5560TIP3   OH216685   3.837   0.768   3.167
 5560TIP3    H116686   3.816   0.859   3.147
 5560TIP3    H216687   3.849   0.766   3.262
 5561TIP3   OH216688   5.106   5.557   1.392
 5561TIP3    H116689   5.084   5.547   1.485
 5561TIP3    H216690   5.201   5.546   1.389
 5562TIP3   OH216691   3.592   5.146   4.298
 5562TIP3    H116692   3.513   5.091   4.301
 5562TIP3    H216693   3.604   5.167   4.206
 5563TIP3   OH216694   0.147   3.275   2.752
 5563TIP3    H116695   0.164   3.181   2.752
 5563TIP3    H216696   0.232   3.315   2.733
 5564TIP3   OH216697   1.452   4.425   3.675
 5564TIP3    H116698   1.528   4.404   3.621
 5564TIP3    H216699   1.428   4.342   3.716
 5565TIP3   OH216700   2.790   1.124   0.994
 5565TIP3    H116701   2.698   1.099   0.983
 5565TIP3    H216702   2.833   1.093   0.914
 5566TIP3   OH216703   4.832   1.887   1.158
 5566TIP3    H116704   4.883   1.823   1.207
 5566TIP3    H216705   4.897   1.946   1.120
 5567TIP3   OH216706   5.078   3.794   2.318
 5567TIP3    H116707   5.152   3.734   2.333
 5567TIP3    H216708   5.011   3.739   2.276
 5568TIP3   OH216709   0.812   2.479   0.243
 5568TIP3    H116710   0.884   2.504   0.185
 5568TIP3    H216711   0.788   2.390   0.214
 5569TIP3   OH216712   3.216   2.889   3.863
 5569TIP3    H116713   3.187   2.876   3.773
 5569TIP3    H216714   3.140   2.865   3.916
 5570TIP3   OH216715   1.819   4.522   2.175
 5570TIP3    H116716   1.784   4.605   2.208
 5570TIP3    H216717   1.903   4.512   2.219
 5571TIP3   OH216718   3.970   5.352   4.398
 5571TIP3    H116719   3.877   5.353   4.420
 5571TIP3    H216720   3.975   5.298   4.319
 5572TIP3   OH216721   0.769   4.448   2.756
 5572TIP3    H116722   0.703   4.381   2.774
 5572TIP3    H216723   0.765   4.507   2.831
 5573TIP3   OH216724   5.795   1.807   0.035
 5573TIP3    H116725   5.760   1.895   0.048
 5573TIP3    H216726   5.793   1.794  -0.060
 5574TIP3   OH216727   2.079   1.668   3.659
 5574TIP3    H116728   2.095   1.658   3.753
 5574TIP3    H216729   2.153   1.624   3.617
 5575TIP3   OH216730   5.181   3.698   5.138
 5575TIP3    H116731   5.215   3.759   5.072
 5575TIP3    H216732   5.128   3.636   5.087
 5576TIP3   OH216733   3.036   3.822   1.420
 5576TIP3    H116734   3.041   3.743   1.367
 5576TIP3    H216735   3.124   3.859   1.418
 5577TIP3   OH216736   5.271   0.661   0.803
 5577TIP3    H116737   5.259   0.710   0.722
 5577TIP3    H216738   5.184   0.660   0.844
 5578TIP3   OH216739   0.156   5.728   4.485
 5578TIP3    H116740   0.085   5.774   4.529
 5578TIP3    H216741   0.235   5.754   4.533
 5579TIP3   OH216742   3.721   1.976   3.119
 5579TIP3    H116743   3.674   1.920   3.180
 5579TIP3    H216744   3.655   2.038   3.087
 5580TIP3   OH216745   3.264   5.294   4.295
 5580TIP3    H116746   3.179   5.264   4.328
 5580TIP3    H216747   3.285   5.232   4.225
 5581TIP3   OH216748   6.006   3.827   3.622
 5581TIP3    H116749   5.955   3.874   3.557
 5581TIP3    H216750   6.026   3.893   3.689
 5582TIP3   OH216751   4.707   1.938   0.746
 5582TIP3    H116752   4.648   1.914   0.817
 5582TIP3    H216753   4.761   2.008   0.782
 5583TIP3   OH216754   3.089   0.962   3.992
 5583TIP3    H116755   3.058   1.049   3.970
 5583TIP3    H216756   3.022   0.903   3.958
 5584TIP3   OH216757   4.847   0.126   2.121
 5584TIP3    H116758   4.760   0.154   2.092
 5584TIP3    H216759   4.874   0.061   2.057
 5585TIP3   OH216760   5.584   3.718   3.295
 5585TIP3    H116761   5.678   3.722   3.312
 5585TIP3    H216762   5.575   3.655   3.224
 5586TIP3   OH216763   0.211   3.898   1.839
 5586TIP3    H116764   0.241   3.808   1.830
 5586TIP3    H216765   0.208   3.932   1.750
 5587TIP3   OH216766   5.950   0.352   5.158
 5587TIP3    H116767   6.023   0.375   5.101
 5587TIP3    H216768   5.952   0.256   5.162
 5588TIP3   OH216769   5.510   5.677   1.034
 5588TIP3    H116770   5.461   5.602   1.070
 5588TIP3    H216771   5.470   5.753   1.075
 5589TIP3   OH216772   5.261   2.500   1.407
 5589TIP3    H116773   5.356   2.498   1.397
 5589TIP3    H216774   5.227   2.474   1.321
 5590TIP3   OH216775   4.551   0.355   3.977
 5590TIP3    H116776   4.639   0.317   3.976
 5590TIP3    H216777   4.511   0.319   4.056
 5591TIP3   OH216778   4.642   1.334   3.127
 5591TIP3    H116779   4.619   1.271   3.058
 5591TIP3    H216780   4.719   1.296   3.169
 5592TIP3   OH216781   2.773   1.927   1.398
 5592TIP3    H116782   2.687   1.946   1.435
 5592TIP3    H216783   2.777   1.979   1.318
 5593TIP3   OH216784   6.086   4.819   1.779
 5593TIP3    H116785   6.180   4.837   1.780
 5593TIP3    H216786   6.050   4.878   1.845
 5594TIP3   OH216787   5.473   5.810   0.086
 5594TIP3    H116788   5.556   5.767   0.105
 5594TIP3    H216789   5.494   5.875   0.019
 5595TIP3   OH216790   1.709   0.803   4.736
 5595TIP3    H116791   1.723   0.770   4.647
 5595TIP3    H216792   1.629   0.759   4.766
 5596TIP3   OH216793   5.682   5.762   4.420
 5596TIP3    H116794   5.627   5.812   4.481
 5596TIP3    H216795   5.677   5.810   4.338
 5597TIP3   OH216796   4.214   2.380   1.459
 5597TIP3    H116797   4.276   2.367   1.387
 5597TIP3    H216798   4.196   2.292   1.491
 5598TIP3   OH216799   4.833   5.284   1.961
 5598TIP3    H116800   4.877   5.211   2.004
 5598TIP3    H216801   4.868   5.285   1.872
 5599TIP3   OH216802   3.912   3.115   5.070
 5599TIP3    H116803   3.922   3.205   5.099
 5599TIP3    H216804   3.849   3.120   4.998
 5600TIP3   OH216805   0.999   1.465   1.139
 5600TIP3    H116806   0.912   1.426   1.149
 5600TIP3    H216807   1.059   1.391   1.146
 5601TIP3   OH216808   3.611   2.875   0.009
 5601TIP3    H116809   3.517   2.888   0.024
 5601TIP3    H216810   3.641   2.822   0.083
 5602TIP3   OH216811   0.179   1.579   3.952
 5602TIP3    H116812   0.166   1.542   3.864
 5602TIP3    H216813   0.107   1.642   3.962
 5603TIP3   OH216814   3.846   2.247   0.981
 5603TIP3    H116815   3.922   2.239   1.038
 5603TIP3    H216816   3.811   2.158   0.975
 5604TIP3   OH216817   1.015   0.692   1.976
 5604TIP3    H116818   0.983   0.771   1.931
 5604TIP3    H216819   1.060   0.726   2.054
 5605TIP3   OH216820   4.226   3.619   2.242
 5605TIP3    H116821   4.142   3.572   2.246
 5605TIP3    H216822   4.283   3.560   2.193
 5606TIP3   OH216823   4.663   2.307   4.752
 5606TIP3    H116824   4.637   2.383   4.702
 5606TIP3    H216825   4.735   2.338   4.808
 5607TIP3   OH216826   4.943   2.193   0.018
 5607TIP3    H116827   4.938   2.140  -0.061
 5607TIP3    H216828   4.874   2.160   0.075
 5608TIP3   OH216829   1.830   0.521   1.993
 5608TIP3    H116830   1.856   0.604   2.032
 5608TIP3    H216831   1.760   0.488   2.050
 5609TIP3   OH216832   2.883   2.724   1.633
 5609TIP3    H116833   2.841   2.793   1.582
 5609TIP3    H216834   2.827   2.647   1.620
 5610TIP3   OH216835   3.854   1.296   3.734
 5610TIP3    H116836   3.775   1.350   3.747
 5610TIP3    H216837   3.868   1.253   3.818
 5611TIP3   OH216838   2.374   1.279   2.550
 5611TIP3    H116839   2.313   1.208   2.529
 5611TIP3    H216840   2.341   1.354   2.501
 5612TIP3   OH216841   2.845   2.699   0.573
 5612TIP3    H116842   2.789   2.725   0.500
 5612TIP3    H216843   2.834   2.770   0.637
 5613TIP3   OH216844   1.179   4.605   2.868
 5613TIP3    H116845   1.262   4.640   2.900
 5613TIP3    H216846   1.189   4.510   2.871
 5614TIP3   OH216847   1.410   4.114   3.948
 5614TIP3    H116848   1.488   4.132   3.896
 5614TIP3    H216849   1.440   4.051   4.014
 5615TIP3   OH216850   0.129   0.467   3.353
 5615TIP3    H116851   0.108   0.476   3.446
 5615TIP3    H216852   0.122   0.372   3.337
 5616TIP3   OH216853   1.297   4.355   4.854
 5616TIP3    H116854   1.271   4.287   4.791
 5616TIP3    H216855   1.217   4.404   4.871
 5617TIP3   OH216856   0.444   5.046   0.029
 5617TIP3    H116857   0.406   4.989  -0.038
 5617TIP3    H216858   0.369   5.082   0.076
 5618TIP3   OH216859   4.071   2.020   4.926
 5618TIP3    H116860   4.123   2.080   4.872
 5618TIP3    H216861   4.072   1.937   4.878
 5619TIP3   OH216862   2.792   0.758   3.183
 5619TIP3    H116863   2.846   0.833   3.155
 5619TIP3    H216864   2.783   0.769   3.277
 5620TIP3   OH216865   3.802   0.225   5.115
 5620TIP3    H116866   3.718   0.252   5.152
 5620TIP3    H216867   3.849   0.184   5.189
 5621TIP3   OH216868   0.676   0.233   3.538
 5621TIP3    H116869   0.597   0.287   3.549
 5621TIP3    H216870   0.643   0.143   3.539
 5622TIP3   OH216871   2.205   5.273   0.022
 5622TIP3    H116872   2.271   5.264  -0.047
 5622TIP3    H216873   2.226   5.202   0.084
 5623TIP3   OH216874   0.246   3.605   3.623
 5623TIP3    H116875   0.266   3.661   3.549
 5623TIP3    H216876   0.241   3.517   3.586
 5624TIP3   OH216877   4.429   1.744   3.313
 5624TIP3    H116878   4.437   1.669   3.253
 5624TIP3    H216879   4.374   1.806   3.266
 5625TIP3   OH216880   3.286   1.586   1.205
 5625TIP3    H116881   3.251   1.499   1.184
 5625TIP3    H216882   3.350   1.569   1.274
 5626TIP3   OH216883   3.244   3.147   4.771
 5626TIP3    H116884   3.316   3.085   4.759
 5626TIP3    H216885   3.184   3.102   4.831
 5627TIP3   OH216886   4.414   1.144   1.910
 5627TIP3    H116887   4.451   1.206   1.973
 5627TIP3    H216888   4.343   1.192   1.868
 5628TIP3   OH216889   5.446   0.832   2.517
 5628TIP3    H116890   5.482   0.921   2.513
 5628TIP3    H216891   5.516   0.776   2.485
 5629TIP3   OH216892   1.712   5.198   0.139
 5629TIP3    H116893   1.791   5.171   0.185
 5629TIP3    H216894   1.647   5.209   0.208
 5630TIP3   OH216895   0.931   4.802   4.985
 5630TIP3    H116896   1.007   4.802   4.926
 5630TIP3    H216897   0.929   4.890   5.022
 5631TIP3   OH216898   2.372   2.514   4.493
 5631TIP3    H116899   2.369   2.559   4.409
 5631TIP3    H216900   2.397   2.424   4.471
 5632TIP3   OH216901   0.478   4.294   0.809
 5632TIP3    H116902   0.464   4.354   0.882
 5632TIP3    H216903   0.555   4.243   0.834
 5633TIP3   OH216904   2.324   1.702   1.270
 5633TIP3    H116905   2.297   1.790   1.242
 5633TIP3    H216906   2.328   1.707   1.366
 5634TIP3   OH216907   3.065   0.585   4.189
 5634TIP3    H116908   3.028   0.526   4.123
 5634TIP3    H216909   3.156   0.557   4.198
 5635TIP3   OH216910   1.075   1.087   3.590
 5635TIP3    H116911   1.024   1.094   3.509
 5635TIP3    H216912   1.159   1.052   3.563
 5636TIP3   OH216913   0.992   5.000   4.662
 5636TIP3    H116914   1.054   4.980   4.732
 5636TIP3    H216915   1.043   5.050   4.598
 5637TIP3   OH216916   1.372   5.239   1.523
 5637TIP3    H116917   1.467   5.232   1.534
 5637TIP3    H216918   1.361   5.295   1.447
 5638TIP3   OH216919   0.923   4.715   2.862
 5638TIP3    H116920   0.873   4.667   2.928
 5638TIP3    H216921   1.006   4.668   2.856
 5639TIP3   OH216922   3.985   1.110   0.526
 5639TIP3    H116923   3.994   1.203   0.547
 5639TIP3    H216924   4.073   1.075   0.536
 5640TIP3   OH216925   6.005   3.615   3.420
 5640TIP3    H116926   6.046   3.542   3.466
 5640TIP3    H216927   5.966   3.668   3.490
 5641TIP3   OH216928   4.292   4.738   0.696
 5641TIP3    H116929   4.276   4.648   0.724
 5641TIP3    H216930   4.265   4.740   0.604
 5642TIP3   OH216931   5.725   2.022   2.158
 5642TIP3    H116932   5.629   2.017   2.159
 5642TIP3    H216933   5.747   2.046   2.068
 5643TIP3   OH216934   5.402   2.655   4.928
 5643TIP3    H116935   5.489   2.621   4.949
 5643TIP3    H216936   5.383   2.716   4.999
 5644TIP3   OH216937   4.694   0.798   3.422
 5644TIP3    H116938   4.757   0.733   3.455
 5644TIP3    H216939   4.741   0.881   3.428
 5645TIP3   OH216940   1.097   1.274   4.078
 5645TIP3    H116941   1.111   1.342   4.013
 5645TIP3    H216942   1.008   1.242   4.060
 5646TIP3   OH216943   5.909   5.844   0.515
 5646TIP3    H116944   5.859   5.791   0.577
 5646TIP3    H216945   5.955   5.908   0.570
 5647TIP3   OH216946   4.079   2.558   0.345
 5647TIP3    H116947   3.994   2.521   0.319
 5647TIP3    H216948   4.122   2.488   0.393
 5648TIP3   OH216949   3.219   3.127   0.222
 5648TIP3    H116950   3.267   3.045   0.237
 5648TIP3    H216951   3.162   3.108   0.148
 5649TIP3   OH216952   1.572   5.735   0.218
 5649TIP3    H116953   1.662   5.704   0.211
 5649TIP3    H216954   1.564   5.803   0.152
 5650TIP3   OH216955   3.092   4.758   4.205
 5650TIP3    H116956   3.144   4.768   4.285
 5650TIP3    H216957   3.049   4.673   4.215
 5651TIP3   OH216958   3.949   3.512   3.636
 5651TIP3    H116959   3.974   3.423   3.662
 5651TIP3    H216960   3.928   3.505   3.543
 5652TIP3   OH216961   4.650   1.090   0.397
 5652TIP3    H116962   4.680   1.158   0.336
 5652TIP3    H216963   4.566   1.061   0.362
 5653TIP3   OH216964   5.649   4.870   2.761
 5653TIP3    H116965   5.569   4.841   2.805
 5653TIP3    H216966   5.622   4.886   2.671
 5654TIP3   OH216967   5.737   5.133   2.702
 5654TIP3    H116968   5.733   5.049   2.748
 5654TIP3    H216969   5.657   5.135   2.649
 5655TIP3   OH216970   2.563   4.814   0.561
 5655TIP3    H116971   2.470   4.815   0.584
 5655TIP3    H216972   2.599   4.892   0.605
 5656TIP3   OH216973   1.339   0.146   2.006
 5656TIP3    H116974   1.317   0.083   1.938
 5656TIP3    H216975   1.367   0.092   2.080
 5657TIP3   OH216976   4.163   2.277   0.374
 5657TIP3    H116977   4.133   2.195   0.335
 5657TIP3    H216978   4.257   2.281   0.352
 5658TIP3   OH216979   4.180   2.436   2.894
 5658TIP3    H116980   4.259   2.383   2.890
 5658TIP3    H216981   4.108   2.374   2.882
 5659TIP3   OH216982   2.899   4.231   1.265
 5659TIP3    H116983   2.971   4.293   1.266
 5659TIP3    H216984   2.836   4.266   1.329
 5660TIP3   OH216985   3.399   3.572   4.124
 5660TIP3    H116986   3.445   3.650   4.153
 5660TIP3    H216987   3.453   3.536   4.054
 5661TIP3   OH216988   2.668   5.139   3.676
 5661TIP3    H116989   2.731   5.208   3.694
 5661TIP3    H216990   2.722   5.064   3.649
 5662TIP3   OH216991   3.629   1.991   1.600
 5662TIP3    H116992   3.680   2.011   1.522
 5662TIP3    H216993   3.690   2.004   1.672
 5663TIP3   OH216994   1.327   2.365   1.021
 5663TIP3    H116995   1.303   2.275   1.042
 5663TIP3    H216996   1.380   2.394   1.094
 5664TIP3   OH216997   1.083   1.477   3.907
 5664TIP3    H116998   1.109   1.568   3.892
 5664TIP3    H216999   1.134   1.426   3.844
 5665TIP3   OH217000   6.292   4.186   1.019
 5665TIP3    H117001   6.198   4.174   1.007
 5665TIP3    H217002   6.315   4.124   1.089
 5666TIP3   OH217003   3.162   1.506   4.556
 5666TIP3    H117004   3.227   1.516   4.626
 5666TIP3    H217005   3.090   1.457   4.598
 5667TIP3   OH217006   0.769   3.465   2.954
 5667TIP3    H117007   0.848   3.445   3.004
 5667TIP3    H217008   0.701   3.410   2.994
 5668TIP3   OH217009   2.108   4.414   1.473
 5668TIP3    H117010   2.103   4.334   1.420
 5668TIP3    H217011   2.201   4.432   1.480
 5669TIP3   OH217012   1.379   2.901   0.981
 5669TIP3    H117013   1.321   2.966   0.940
 5669TIP3    H217014   1.322   2.852   1.041
 5670TIP3   OH217015   1.854   4.899   2.655
 5670TIP3    H117016   1.872   4.805   2.661
 5670TIP3    H217017   1.772   4.910   2.703
 5671TIP3   OH217018   2.914   0.767   0.402
 5671TIP3    H117019   2.870   0.743   0.484
 5671TIP3    H217020   2.847   0.756   0.335
 5672TIP3   OH217021   4.789   1.577   4.638
 5672TIP3    H117022   4.874   1.620   4.652
 5672TIP3    H217023   4.726   1.635   4.681
 5673TIP3   OH217024   1.549   1.245   3.543
 5673TIP3    H117025   1.563   1.282   3.630
 5673TIP3    H217026   1.507   1.314   3.494
 5674TIP3   OH217027   3.506   0.668   3.743
 5674TIP3    H117028   3.497   0.573   3.755
 5674TIP3    H217029   3.429   0.705   3.787
 5675TIP3   OH217030   5.721   4.106   4.982
 5675TIP3    H117031   5.793   4.164   5.008
 5675TIP3    H217032   5.706   4.127   4.890
 5676TIP3   OH217033   3.586   0.420   4.201
 5676TIP3    H117034   3.569   0.388   4.113
 5676TIP3    H217035   3.678   0.397   4.217
 5677TIP3   OH217036   4.337   4.258   1.421
 5677TIP3    H117037   4.302   4.310   1.348
 5677TIP3    H217038   4.391   4.320   1.471
 5678TIP3   OH217039   0.286   3.886   0.399
 5678TIP3    H117040   0.251   3.975   0.402
 5678TIP3    H217041   0.344   3.885   0.322
 5679TIP3   OH217042   1.931   3.906   3.670
 5679TIP3    H117043   1.907   3.868   3.754
 5679TIP3    H217044   2.011   3.859   3.645
 5680TIP3   OH217045   1.685   2.862   3.454
 5680TIP3    H117046   1.591   2.858   3.434
 5680TIP3    H217047   1.714   2.945   3.417
 5681TIP3   OH217048   4.942   1.655   1.258
 5681TIP3    H117049   4.877   1.585   1.267
 5681TIP3    H217050   5.025   1.609   1.250
 5682TIP3   OH217051   1.407   0.540   0.231
 5682TIP3    H117052   1.319   0.539   0.192
 5682TIP3    H217053   1.422   0.449   0.258
 5683TIP3   OH217054   0.104   1.619   1.162
 5683TIP3    H117055   0.068   1.651   1.245
 5683TIP3    H217056   0.174   1.681   1.141
 5684TIP3   OH217057   3.808   5.284   3.091
 5684TIP3    H117058   3.795   5.376   3.111
 5684TIP3    H217059   3.799   5.278   2.996
 5685TIP3   OH217060   3.336   2.269   1.771
 5685TIP3    H117061   3.274   2.199   1.791
 5685TIP3    H217062   3.326   2.331   1.843
 5686TIP3   OH217063   4.172   2.837   3.018
 5686TIP3    H117064   4.229   2.770   2.982
 5686TIP3    H217065   4.167   2.904   2.950
 5687TIP3   OH217066   2.014   2.422   5.059
 5687TIP3    H117067   2.063   2.358   5.006
 5687TIP3    H217068   2.064   2.503   5.051
 5688TIP3   OH217069   5.375   0.029   4.440
 5688TIP3    H117070   5.299  -0.004   4.487
 5688TIP3    H217071   5.352   0.020   4.348
 5689TIP3   OH217072   3.506   3.438   2.719
 5689TIP3    H117073   3.483   3.436   2.627
 5689TIP3    H217074   3.428   3.405   2.764
 5690TIP3   OH217075   5.774   5.942   3.610
 5690TIP3    H117076   5.841   5.909   3.669
 5690TIP3    H217077   5.811   6.022   3.574
 5691TIP3   OH217078   5.546   5.327   0.421
 5691TIP3    H117079   5.541   5.262   0.491
 5691TIP3    H217080   5.613   5.389   0.450
 5692TIP3   OH217081   5.744   0.786   1.376
 5692TIP3    H117082   5.732   0.877   1.400
 5692TIP3    H217083   5.662   0.761   1.334
 5693TIP3   OH217084   1.897   4.904   1.321
 5693TIP3    H117085   1.968   4.949   1.367
 5693TIP3    H217086   1.884   4.955   1.242
 5694TIP3   OH217087   3.667   2.566   3.533
 5694TIP3    H117088   3.736   2.613   3.579
 5694TIP3    H217089   3.694   2.474   3.538
 5695TIP3   OH217090   0.113   5.100   2.014
 5695TIP3    H117091   0.161   5.037   2.067
 5695TIP3    H217092   0.160   5.183   2.027
 5696TIP3   OH217093   1.917   3.423   1.757
 5696TIP3    H117094   1.865   3.396   1.832
 5696TIP3    H217095   1.895   3.516   1.744
 5697TIP3   OH217096   2.242   0.325   3.363
 5697TIP3    H117097   2.195   0.381   3.302
 5697TIP3    H217098   2.306   0.279   3.308
 5698TIP3   OH217099   0.812   0.446   4.888
 5698TIP3    H117100   0.757   0.501   4.833
 5698TIP3    H217101   0.755   0.374   4.916
 5699TIP3   OH217102   0.815   1.471   2.534
 5699TIP3    H117103   0.731   1.517   2.538
 5699TIP3    H217104   0.861   1.511   2.460
 5700TIP3   OH217105   2.764   4.249   4.265
 5700TIP3    H117106   2.672   4.261   4.240
 5700TIP3    H217107   2.760   4.238   4.360
 5701TIP3   OH217108   3.303   1.652   2.770
 5701TIP3    H117109   3.246   1.631   2.696
 5701TIP3    H217110   3.263   1.609   2.845
 5702TIP3   OH217111   1.459   3.683   1.209
 5702TIP3    H117112   1.500   3.632   1.140
 5702TIP3    H217113   1.473   3.774   1.184
 5703TIP3   OH217114   3.656   4.947   4.780
 5703TIP3    H117115   3.734   4.976   4.733
 5703TIP3    H217116   3.633   4.864   4.738
 5704TIP3   OH217117   1.630   2.224   0.013
 5704TIP3    H117118   1.610   2.131   0.006
 5704TIP3    H217119   1.555   2.261   0.059
 5705TIP3   OH217120   3.610   5.238   4.750
 5705TIP3    H117121   3.514   5.229   4.750
 5705TIP3    H217122   3.641   5.152   4.723
 5706TIP3   OH217123   5.013   1.168   0.167
 5706TIP3    H117124   5.044   1.078   0.159
 5706TIP3    H217125   5.080   1.212   0.220
 5707TIP3   OH217126   6.140   0.199   2.279
 5707TIP3    H117127   6.177   0.230   2.197
 5707TIP3    H217128   6.098   0.115   2.256
 5708TIP3   OH217129   5.408   0.292   5.042
 5708TIP3    H117130   5.383   0.346   4.967
 5708TIP3    H217131   5.378   0.204   5.019
 5709TIP3   OH217132   4.203   1.742   3.082
 5709TIP3    H117133   4.233   1.810   3.142
 5709TIP3    H217134   4.131   1.699   3.129
 5710TIP3   OH217135   2.239   1.721   4.953
 5710TIP3    H117136   2.318   1.775   4.962
 5710TIP3    H217137   2.268   1.645   4.901
 5711TIP3   OH217138   0.994   2.953   3.311
 5711TIP3    H117139   1.068   2.995   3.268
 5711TIP3    H217140   0.923   2.958   3.247
 5712TIP3   OH217141   0.248   2.072   0.209
 5712TIP3    H117142   0.318   2.008   0.196
 5712TIP3    H217143   0.236   2.112   0.123
 5713TIP3   OH217144   2.120   0.544   4.987
 5713TIP3    H117145   2.079   0.561   4.902
 5713TIP3    H217146   2.077   0.465   5.019
 5714TIP3   OH217147   5.289   4.819   4.748
 5714TIP3    H117148   5.285   4.748   4.684
 5714TIP3    H217149   5.211   4.806   4.802
 5715TIP3   OH217150   1.060   5.837   3.485
 5715TIP3    H117151   1.111   5.796   3.415
 5715TIP3    H217152   1.023   5.763   3.533
 5716TIP3   OH217153   1.845   1.583   3.111
 5716TIP3    H117154   1.925   1.626   3.140
 5716TIP3    H217155   1.868   1.540   3.029
 5717TIP3   OH217156   2.843   1.161   2.308
 5717TIP3    H117157   2.755   1.191   2.287
 5717TIP3    H217158   2.893   1.173   2.227
 5718TIP3   OH217159   6.286   3.581   3.847
 5718TIP3    H117160   6.352   3.528   3.802
 5718TIP3    H217161   6.204   3.535   3.833
 5719TIP3   OH217162   3.714   2.003   3.723
 5719TIP3    H117163   3.800   1.963   3.741
 5719TIP3    H217164   3.651   1.934   3.745
 5720TIP3   OH217165   2.827   2.204   2.649
 5720TIP3    H117166   2.742   2.242   2.629
 5720TIP3    H217167   2.861   2.256   2.721
 5721TIP3   OH217168   0.168   3.333   3.821
 5721TIP3    H117169   0.217   3.318   3.741
 5721TIP3    H217170   0.082   3.293   3.804
 5722TIP3   OH217171   1.755   5.559   0.154
 5722TIP3    H117172   1.827   5.498   0.135
 5722TIP3    H217173   1.687   5.504   0.193
 5723TIP3   OH217174   2.983   5.839   4.129
 5723TIP3    H117175   3.014   5.754   4.161
 5723TIP3    H217176   2.892   5.843   4.157
 5724TIP3   OH217177   1.381   0.225   4.457
 5724TIP3    H117178   1.461   0.207   4.507
 5724TIP3    H217179   1.310   0.213   4.520
 5725TIP3   OH217180   3.667   3.169   4.272
 5725TIP3    H117181   3.574   3.169   4.295
 5725TIP3    H217182   3.690   3.076   4.266
 5726TIP3   OH217183   6.191   1.198   2.009
 5726TIP3    H117184   6.129   1.189   1.937
 5726TIP3    H217185   6.266   1.144   1.985
 5727TIP3   OH217186   5.441   4.461   0.289
 5727TIP3    H117187   5.519   4.415   0.258
 5727TIP3    H217188   5.371   4.433   0.230
 5728TIP3   OH217189   5.708   4.639   4.121
 5728TIP3    H117190   5.630   4.672   4.167
 5728TIP3    H217191   5.741   4.715   4.073
 5729TIP3   OH217192   2.638   4.296   4.940
 5729TIP3    H117193   2.581   4.230   4.980
 5729TIP3    H217194   2.595   4.379   4.956
 5730TIP3   OH217195   5.335   1.687   1.645
 5730TIP3    H117196   5.382   1.648   1.571
 5730TIP3    H217197   5.388   1.664   1.722
 5731TIP3   OH217198   4.038   3.886   4.674
 5731TIP3    H117199   4.075   3.833   4.603
 5731TIP3    H217200   4.103   3.956   4.687
 5732TIP3   OH217201   2.227   2.904   5.049
 5732TIP3    H117202   2.280   2.925   4.973
 5732TIP3    H217203   2.279   2.933   5.124
 5733TIP3   OH217204   3.815   4.626   3.793
 5733TIP3    H117205   3.861   4.701   3.754
 5733TIP3    H217206   3.821   4.640   3.887
 5734TIP3   OH217207   3.882   0.191   0.435
 5734TIP3    H117208   3.912   0.181   0.526
 5734TIP3    H217209   3.851   0.282   0.430
 5735TIP3   OH217210   3.585   2.363   5.026
 5735TIP3    H117211   3.551   2.275   5.041
 5735TIP3    H217212   3.623   2.389   5.110
 5736TIP3   OH217213   2.670   0.534   1.194
 5736TIP3    H117214   2.602   0.554   1.259
 5736TIP3    H217215   2.628   0.549   1.109
 5737TIP3   OH217216   3.707   5.335   4.431
 5737TIP3    H117217   3.618   5.366   4.447
 5737TIP3    H217218   3.696   5.247   4.396
 5738TIP3   OH217219   3.299   4.266   4.880
 5738TIP3    H117220   3.294   4.179   4.839
 5738TIP3    H217221   3.391   4.275   4.905
 5739TIP3   OH217222   5.264   1.832   3.342
 5739TIP3    H117223   5.253   1.857   3.434
 5739TIP3    H217224   5.219   1.901   3.293
 5740TIP3   OH217225   4.823   4.829   1.433
 5740TIP3    H117226   4.913   4.796   1.421
 5740TIP3    H217227   4.783   4.821   1.347
 5741TIP3   OH217228   3.735   4.673   2.284
 5741TIP3    H117229   3.771   4.725   2.212
 5741TIP3    H217230   3.810   4.624   2.317
 5742TIP3   OH217231   5.254   3.940   3.557
 5742TIP3    H117232   5.242   3.874   3.625
 5742TIP3    H217233   5.344   3.928   3.528
 5743TIP3   OH217234   0.459   0.612   1.126
 5743TIP3    H117235   0.478   0.558   1.050
 5743TIP3    H217236   0.436   0.549   1.195
 5744TIP3   OH217237   0.606   4.505   4.312
 5744TIP3    H117238   0.669   4.541   4.248
 5744TIP3    H217239   0.541   4.461   4.258
 5745TIP3   OH217240   4.533   4.159   0.172
 5745TIP3    H117241   4.609   4.216   0.186
 5745TIP3    H217242   4.570   4.071   0.168
 5746TIP3   OH217243   5.041   1.555   2.472
 5746TIP3    H117244   4.997   1.621   2.526
 5746TIP3    H217245   5.132   1.555   2.504
 5747TIP3   OH217246   1.786   4.401   0.578
 5747TIP3    H117247   1.853   4.362   0.522
 5747TIP3    H217248   1.710   4.342   0.568
 5748TIP3   OH217249   3.487   0.419   1.295
 5748TIP3    H117250   3.463   0.343   1.242
 5748TIP3    H217251   3.578   0.436   1.273
 5749TIP3   OH217252   0.935   1.606   1.376
 5749TIP3    H117253   0.982   1.576   1.454
 5749TIP3    H217254   0.977   1.560   1.303
 5750TIP3   OH217255   2.999   2.597   5.025
 5750TIP3    H117256   2.914   2.642   5.026
 5750TIP3    H217257   2.979   2.507   5.053
 5751TIP3   OH217258   4.612   4.193   0.746
 5751TIP3    H117259   4.538   4.250   0.725
 5751TIP3    H217260   4.575   4.105   0.744
 5752TIP3   OH217261   1.402   2.501   5.086
 5752TIP3    H117262   1.377   2.457   5.005
 5752TIP3    H217263   1.380   2.593   5.071
 5753TIP3   OH217264   6.237   3.897   1.770
 5753TIP3    H117265   6.157   3.945   1.789
 5753TIP3    H217266   6.304   3.965   1.761
 5754TIP3   OH217267   1.770   2.445   4.914
 5754TIP3    H117268   1.685   2.489   4.923
 5754TIP3    H217269   1.812   2.456   4.999
 5755TIP3   OH217270   3.990   0.551   0.775
 5755TIP3    H117271   3.946   0.598   0.847
 5755TIP3    H217272   3.997   0.461   0.807
 5756TIP3   OH217273   4.600   4.909   1.138
 5756TIP3    H117274   4.634   4.990   1.100
 5756TIP3    H217275   4.526   4.936   1.191
 5757TIP3   OH217276   6.199   0.370   4.065
 5757TIP3    H117277   6.206   0.343   3.973
 5757TIP3    H217278   6.260   0.442   4.074
 5758TIP3   OH217279   4.151   2.885   1.868
 5758TIP3    H117280   4.210   2.892   1.793
 5758TIP3    H217281   4.063   2.882   1.831
 5759TIP3   OH217282   3.140   1.923   0.847
 5759TIP3    H117283   3.099   1.852   0.897
 5759TIP3    H217284   3.173   1.983   0.914
 5760TIP3   OH217285   4.671   4.354   0.476
 5760TIP3    H117286   4.703   4.369   0.387
 5760TIP3    H217287   4.592   4.408   0.482
 5761TIP3   OH217288   5.859   5.354   2.121
 5761TIP3    H117289   5.819   5.270   2.101
 5761TIP3    H217290   5.817   5.416   2.061
 5762TIP3   OH217291   1.207   3.394   1.756
 5762TIP3    H117292   1.131   3.430   1.800
 5762TIP3    H217293   1.275   3.460   1.766
 5763TIP3   OH217294   0.535   0.171   4.728
 5763TIP3    H117295   0.596   0.193   4.798
 5763TIP3    H217296   0.545   0.076   4.716
 5764TIP3   OH217297   3.573   3.097   0.252
 5764TIP3    H117298   3.517   3.133   0.184
 5764TIP3    H217299   3.591   3.170   0.311
 5765TIP3   OH217300   3.723   3.260   3.727
 5765TIP3    H117301   3.731   3.190   3.792
 5765TIP3    H217302   3.741   3.340   3.775
 5766TIP3   OH217303   1.526   4.490   2.316
 5766TIP3    H117304   1.524   4.581   2.287
 5766TIP3    H217305   1.607   4.482   2.365
 5767TIP3   OH217306   0.519   2.016   0.806
 5767TIP3    H117307   0.603   2.049   0.775
 5767TIP3    H217308   0.537   1.988   0.896
 5768TIP3   OH217309   2.936   0.087   4.409
 5768TIP3    H117310   2.961  -0.002   4.432
 5768TIP3    H217311   3.018   0.136   4.408
 5769TIP3   OH217312   0.723   4.973   4.311
 5769TIP3    H117313   0.714   5.061   4.346
 5769TIP3    H217314   0.798   4.936   4.358
 5770TIP3   OH217315   3.125   4.908   2.811
 5770TIP3    H117316   3.089   4.959   2.884
 5770TIP3    H217317   3.188   4.967   2.770
 5771TIP3   OH217318   2.290   4.665   4.961
 5771TIP3    H117319   2.265   4.756   4.976
 5771TIP3    H217320   2.271   4.650   4.868
 5772TIP3   OH217321   3.451   2.852   2.035
 5772TIP3    H117322   3.401   2.848   2.117
 5772TIP3    H217323   3.395   2.808   1.971
 5773TIP3   OH217324   5.000   2.363   2.010
 5773TIP3    H117325   4.933   2.368   2.079
 5773TIP3    H217326   4.994   2.447   1.965
 5774TIP3   OH217327   3.758   1.478   2.762
 5774TIP3    H117328   3.840   1.526   2.746
 5774TIP3    H217329   3.734   1.502   2.852
 5775TIP3   OH217330   0.937   4.321   2.109
 5775TIP3    H117331   0.920   4.351   2.020
 5775TIP3    H217332   0.890   4.384   2.165
 5776TIP3   OH217333   4.112   3.184   3.466
 5776TIP3    H117334   4.208   3.185   3.460
 5776TIP3    H217335   4.085   3.263   3.418
 5777TIP3   OH217336   4.305   3.946   2.627
 5777TIP3    H117337   4.375   3.968   2.566
 5777TIP3    H217338   4.260   3.871   2.587
 5778TIP3   OH217339   3.904   4.241   1.859
 5778TIP3    H117340   3.908   4.335   1.878
 5778TIP3    H217341   3.824   4.230   1.808
 5779TIP3   OH217342   4.059   2.604   2.363
 5779TIP3    H117343   4.059   2.680   2.421
 5779TIP3    H217344   4.003   2.540   2.407
 5780TIP3   OH217345   6.026   2.213   0.691
 5780TIP3    H117346   6.044   2.130   0.735
 5780TIP3    H217347   6.110   2.239   0.653
 5781TIP3   OH217348   3.625   0.071   2.616
 5781TIP3    H117349   3.588   0.096   2.700
 5781TIP3    H217350   3.558   0.095   2.552
 5782TIP3   OH217351   5.286   2.880   4.136
 5782TIP3    H117352   5.217   2.941   4.111
 5782TIP3    H217353   5.359   2.903   4.079
 5783TIP3   OH217354   2.327   5.203   2.897
 5783TIP3    H117355   2.408   5.198   2.847
 5783TIP3    H217356   2.276   5.126   2.869
 5784TIP3   OH217357   2.952   1.444   0.672
 5784TIP3    H117358   2.866   1.484   0.659
 5784TIP3    H217359   2.973   1.461   0.763
 5785TIP3   OH217360   0.376   1.396   3.073
 5785TIP3    H117361   0.321   1.453   3.019
 5785TIP3    H217362   0.316   1.332   3.111
 5786TIP3   OH217363   5.288   4.942   3.781
 5786TIP3    H117364   5.365   4.932   3.724
 5786TIP3    H217365   5.223   4.985   3.726
 5787TIP3   OH217366   0.526   5.249   3.082
 5787TIP3    H117367   0.487   5.189   3.147
 5787TIP3    H217368   0.452   5.300   3.050
 5788TIP3   OH217369   1.699   5.353   2.283
 5788TIP3    H117370   1.702   5.353   2.379
 5788TIP3    H217371   1.614   5.314   2.262
 5789TIP3   OH217372   0.657   3.399   4.374
 5789TIP3    H117373   0.718   3.343   4.422
 5789TIP3    H217374   0.618   3.341   4.308
 5790TIP3   OH217375   5.660   2.736   3.847
 5790TIP3    H117376   5.638   2.696   3.931
 5790TIP3    H217377   5.734   2.684   3.815
 5791TIP3   OH217378   1.976   0.614   3.174
 5791TIP3    H117379   2.068   0.639   3.167
 5791TIP3    H217380   1.960   0.605   3.268
 5792TIP3   OH217381   1.094   2.406   3.838
 5792TIP3    H117382   1.110   2.361   3.755
 5792TIP3    H217383   0.998   2.403   3.848
 5793TIP3   OH217384   3.558   4.765   4.581
 5793TIP3    H117385   3.511   4.714   4.515
 5793TIP3    H217386   3.604   4.833   4.531
 5794TIP3   OH217387   5.188   0.107   2.862
 5794TIP3    H117388   5.265   0.146   2.821
 5794TIP3    H217389   5.152   0.048   2.796
 5795TIP3   OH217390   1.381   4.903   1.679
 5795TIP3    H117391   1.340   4.818   1.695
 5795TIP3    H217392   1.453   4.907   1.742
 5796TIP3   OH217393   5.209   2.715   3.158
 5796TIP3    H117394   5.177   2.689   3.244
 5796TIP3    H217395   5.267   2.643   3.132
 5797TIP3   OH217396   3.274   4.001   4.740
 5797TIP3    H117397   3.198   3.945   4.754
 5797TIP3    H217398   3.345   3.939   4.720
 5798TIP3   OH217399   0.816   2.529   1.067
 5798TIP3    H117400   0.760   2.466   1.112
 5798TIP3    H217401   0.905   2.501   1.090
 5799TIP3   OH217402   5.738   2.088   0.080
 5799TIP3    H117403   5.699   2.174   0.093
 5799TIP3    H217404   5.796   2.098   0.005
 5800TIP3   OH217405   5.792   5.077   4.246
 5800TIP3    H117406   5.858   5.054   4.311
 5800TIP3    H217407   5.732   5.136   4.293
 5801TIP3   OH217408   3.202   3.883   3.952
 5801TIP3    H117409   3.247   3.886   4.036
 5801TIP3    H217410   3.257   3.936   3.894
 5802TIP3   OH217411   5.138   4.301   4.294
 5802TIP3    H117412   5.169   4.238   4.229
 5802TIP3    H217413   5.171   4.268   4.378
 5803TIP3   OH217414   4.553   5.924   1.645
 5803TIP3    H117415   4.504   6.003   1.621
 5803TIP3    H217416   4.610   5.908   1.570
 5804TIP3   OH217417   5.316   3.998   2.892
 5804TIP3    H117418   5.384   4.065   2.895
 5804TIP3    H217419   5.283   4.002   2.802
 5805TIP3   OH217420   5.863   5.625   0.700
 5805TIP3    H117421   5.810   5.625   0.781
 5805TIP3    H217422   5.949   5.593   0.728
 5806TIP3   OH217423   0.075   1.869   1.649
 5806TIP3    H117424   0.032   1.902   1.728
 5806TIP3    H217425   0.167   1.892   1.661
 5807TIP3   OH217426   5.984   0.107   4.187
 5807TIP3    H117427   5.917   0.134   4.250
 5807TIP3    H217428   5.947   0.029   4.146
 5808TIP3   OH217429   4.616   2.472   0.474
 5808TIP3    H117430   4.603   2.520   0.392
 5808TIP3    H217431   4.671   2.530   0.527
 5809TIP3   OH217432   3.180   3.927   1.832
 5809TIP3    H117433   3.179   3.885   1.746
 5809TIP3    H217434   3.087   3.939   1.854
 5810TIP3   OH217435   5.970   2.059   1.406
 5810TIP3    H117436   5.910   1.994   1.371
 5810TIP3    H217437   5.917   2.137   1.418
 5811TIP3   OH217438   5.870   1.408   0.412
 5811TIP3    H117439   5.778   1.409   0.437
 5811TIP3    H217440   5.916   1.380   0.492
 5812TIP3   OH217441   2.187   2.191   2.657
 5812TIP3    H117442   2.131   2.135   2.603
 5812TIP3    H217443   2.127   2.230   2.721
 5813TIP3   OH217444   2.538   4.745   4.159
 5813TIP3    H117445   2.625   4.722   4.127
 5813TIP3    H217446   2.482   4.674   4.129
 5814TIP3   OH217447   2.816   3.491   0.364
 5814TIP3    H117448   2.806   3.417   0.423
 5814TIP3    H217449   2.733   3.495   0.317
 5815TIP3   OH217450   4.617   1.453   4.854
 5815TIP3    H117451   4.590   1.433   4.944
 5815TIP3    H217452   4.620   1.549   4.850
 5816TIP3   OH217453   2.023   5.803   2.228
 5816TIP3    H117454   1.935   5.811   2.265
 5816TIP3    H217455   2.009   5.766   2.141
 5817TIP3   OH217456   5.437   0.221   0.512
 5817TIP3    H117457   5.444   0.299   0.456
 5817TIP3    H217458   5.497   0.158   0.474
 5818TIP3   OH217459   0.100   5.411   4.965
 5818TIP3    H117460   0.030   5.411   5.031
 5818TIP3    H217461   0.084   5.333   4.912
 5819TIP3   OH217462   2.174   3.850   1.983
 5819TIP3    H117463   2.232   3.799   2.040
 5819TIP3    H217464   2.209   3.837   1.895
 5820TIP3   OH217465   1.191   0.111   1.661
 5820TIP3    H117466   1.222   0.043   1.721
 5820TIP3    H217467   1.270   0.162   1.641
 5821TIP3   OH217468   6.130   1.198   0.315
 5821TIP3    H117469   6.123   1.109   0.352
 5821TIP3    H217470   6.220   1.225   0.336
 5822TIP3   OH217471   5.197   4.558   2.141
 5822TIP3    H117472   5.164   4.527   2.225
 5822TIP3    H217473   5.219   4.650   2.158
 5823TIP3   OH217474   2.430   0.714   1.934
 5823TIP3    H117475   2.367   0.741   2.001
 5823TIP3    H217476   2.441   0.620   1.947
 5824TIP3   OH217477   5.187   3.431   3.163
 5824TIP3    H117478   5.166   3.397   3.076
 5824TIP3    H217479   5.220   3.520   3.147
 5825TIP3   OH217480   5.423   0.017   1.007
 5825TIP3    H117481   5.433   0.080   0.935
 5825TIP3    H217482   5.431  -0.068   0.966
 5826TIP3   OH217483   4.827   0.949   4.400
 5826TIP3    H117484   4.915   0.937   4.436
 5826TIP3    H217485   4.834   1.029   4.348
 5827TIP3   OH217486   2.145   5.462   3.534
 5827TIP3    H117487   2.086   5.420   3.471
 5827TIP3    H217488   2.231   5.459   3.493
 5828TIP3   OH217489   3.186   3.018   2.042
 5828TIP3    H117490   3.185   3.091   1.979
 5828TIP3    H217491   3.264   2.968   2.019
 5829TIP3   OH217492   1.992   3.318   1.523
 5829TIP3    H117493   1.977   3.230   1.557
 5829TIP3    H217494   1.986   3.375   1.599
 5830TIP3   OH217495   4.739   4.389   4.587
 5830TIP3    H117496   4.701   4.403   4.673
 5830TIP3    H217497   4.677   4.429   4.526
 5831TIP3   OH217498   5.039   4.277   1.397
 5831TIP3    H117499   4.988   4.202   1.427
 5831TIP3    H217500   5.022   4.282   1.303
 5832TIP3   OH217501   5.228   1.558   3.646
 5832TIP3    H117502   5.317   1.571   3.611
 5832TIP3    H217503   5.187   1.644   3.636
 5833TIP3   OH217504   4.727   0.410   4.798
 5833TIP3    H117505   4.666   0.472   4.758
 5833TIP3    H217506   4.768   0.459   4.870
 5834TIP3   OH217507   4.017   1.826   0.870
 5834TIP3    H117508   3.932   1.782   0.863
 5834TIP3    H217509   4.012   1.898   0.807
 5835TIP3   OH217510   3.532   5.326   2.181
 5835TIP3    H117511   3.477   5.248   2.191
 5835TIP3    H217512   3.470   5.399   2.178
 5836TIP3   OH217513   1.693   4.433   4.516
 5836TIP3    H117514   1.623   4.377   4.482
 5836TIP3    H217515   1.707   4.497   4.447
 5837TIP3   OH217516   5.001   4.218   2.826
 5837TIP3    H117517   5.032   4.170   2.903
 5837TIP3    H217518   4.949   4.290   2.861
 5838TIP3   OH217519   5.707   3.073   3.091
 5838TIP3    H117520   5.671   3.036   3.172
 5838TIP3    H217521   5.635   3.067   3.029
 5839TIP3   OH217522   2.154   0.936   1.756
 5839TIP3    H117523   2.179   0.844   1.748
 5839TIP3    H217524   2.091   0.939   1.828
 5840TIP3   OH217525   6.276   0.639   1.802
 5840TIP3    H117526   6.367   0.612   1.808
 5840TIP3    H217527   6.272   0.721   1.850
 5841TIP3   OH217528   2.231   1.996   4.688
 5841TIP3    H117529   2.266   2.074   4.731
 5841TIP3    H217530   2.303   1.933   4.691
 5842TIP3   OH217531   2.903   4.418   0.616
 5842TIP3    H117532   2.815   4.393   0.644
 5842TIP3    H217533   2.930   4.348   0.557
 5843TIP3   OH217534   5.090   1.040   0.502
 5843TIP3    H117535   5.000   1.042   0.468
 5843TIP3    H217536   5.134   1.112   0.458
 5844TIP3   OH217537   1.249   5.289   1.976
 5844TIP3    H117538   1.339   5.319   1.964
 5844TIP3    H217539   1.226   5.247   1.893
 5845TIP3   OH217540   2.260   2.707   4.703
 5845TIP3    H117541   2.286   2.785   4.654
 5845TIP3    H217542   2.342   2.661   4.720
 5846TIP3   OH217543   2.033   0.326   4.679
 5846TIP3    H117544   1.983   0.295   4.604
 5846TIP3    H217545   2.094   0.391   4.643
 5847TIP3   OH217546   3.298   3.873   4.234
 5847TIP3    H117547   3.242   3.877   4.311
 5847TIP3    H217548   3.371   3.931   4.254
 5848TIP3   OH217549   0.158   3.921   2.090
 5848TIP3    H117550   0.158   3.927   1.995
 5848TIP3    H217551   0.070   3.891   2.113
 5849TIP3   OH217552   4.884   0.520   2.634
 5849TIP3    H117553   4.961   0.546   2.684
 5849TIP3    H217554   4.889   0.424   2.632
 5850TIP3   OH217555   1.660   2.501   0.626
 5850TIP3    H117556   1.747   2.542   0.628
 5850TIP3    H217557   1.610   2.547   0.693
 5851TIP3   OH217558   4.857   2.847   0.109
 5851TIP3    H117559   4.864   2.892   0.024
 5851TIP3    H217560   4.911   2.769   0.098
 5852TIP3   OH217561   2.370   4.599   3.258
 5852TIP3    H117562   2.312   4.610   3.333
 5852TIP3    H217563   2.392   4.505   3.258
 5853TIP3   OH217564   2.864   5.122   3.215
 5853TIP3    H117565   2.816   5.205   3.218
 5853TIP3    H217566   2.797   5.056   3.234
 5854TIP3   OH217567   1.373   5.348   4.839
 5854TIP3    H117568   1.457   5.338   4.885
 5854TIP3    H217569   1.377   5.435   4.800
 5855TIP3   OH217570   0.329   1.085   3.060
 5855TIP3    H117571   0.374   1.067   2.978
 5855TIP3    H217572   0.395   1.072   3.128
 5856TIP3   OH217573   2.317   3.677   2.888
 5856TIP3    H117574   2.411   3.673   2.906
 5856TIP3    H217575   2.300   3.602   2.831
 5857TIP3   OH217576   5.370   1.721   0.804
 5857TIP3    H117577   5.304   1.715   0.734
 5857TIP3    H217578   5.319   1.724   0.885
 5858TIP3   OH217579   3.260   2.538   2.454
 5858TIP3    H117580   3.175   2.503   2.479
 5858TIP3    H217581   3.297   2.571   2.536
 5859TIP3   OH217582   2.771   5.084   4.418
 5859TIP3    H117583   2.708   5.015   4.440
 5859TIP3    H217584   2.812   5.054   4.337
 5860TIP3   OH217585   5.829   0.486   1.883
 5860TIP3    H117586   5.794   0.398   1.899
 5860TIP3    H217587   5.753   0.543   1.886
 5861TIP3   OH217588   6.023   1.805   1.043
 5861TIP3    H117589   6.113   1.839   1.046
 5861TIP3    H217590   6.028   1.729   0.986
 5862TIP3   OH217591   3.621   2.015   4.256
 5862TIP3    H117592   3.708   1.977   4.270
 5862TIP3    H217593   3.616   2.086   4.320
 5863TIP3   OH217594   5.263   1.295   1.503
 5863TIP3    H117595   5.302   1.351   1.571
 5863TIP3    H217596   5.180   1.266   1.541
 5864TIP3   OH217597   0.595   4.489   3.324
 5864TIP3    H117598   0.637   4.555   3.269
 5864TIP3    H217599   0.666   4.452   3.376
 5865TIP3   OH217600   5.440   2.275   4.147
 5865TIP3    H117601   5.401   2.312   4.226
 5865TIP3    H217602   5.518   2.229   4.177
 5866TIP3   OH217603   3.874   4.940   1.755
 5866TIP3    H117604   3.804   4.875   1.750
 5866TIP3    H217605   3.954   4.890   1.741
 5867TIP3   OH217606   2.664   4.206   0.788
 5867TIP3    H117607   2.587   4.258   0.812
 5867TIP3    H217608   2.728   4.223   0.857
 5868TIP3   OH217609   0.122   4.634   4.095
 5868TIP3    H117610   0.029   4.654   4.082
 5868TIP3    H217611   0.166   4.675   4.020
 5869TIP3   OH217612   6.180   0.204   2.019
 5869TIP3    H117613   6.161   0.130   1.961
 5869TIP3    H217614   6.130   0.277   1.982
 5870TIP3   OH217615   5.854   3.993   2.366
 5870TIP3    H117616   5.854   3.975   2.272
 5870TIP3    H217617   5.943   3.975   2.394
 5871TIP3   OH217618   1.868   2.853   3.661
 5871TIP3    H117619   1.801   2.866   3.595
 5871TIP3    H217620   1.950   2.845   3.611
 5872TIP3   OH217621   2.461   5.383   2.495
 5872TIP3    H117622   2.489   5.474   2.494
 5872TIP3    H217623   2.378   5.383   2.542
 5873TIP3   OH217624   0.324   5.744   0.224
 5873TIP3    H117625   0.244   5.719   0.270
 5873TIP3    H217626   0.305   5.831   0.188
 5874TIP3   OH217627   3.124   0.804   1.973
 5874TIP3    H117628   3.172   0.883   1.948
 5874TIP3    H217629   3.082   0.774   1.892
 5875TIP3   OH217630   5.098   5.733   4.515
 5875TIP3    H117631   5.097   5.649   4.563
 5875TIP3    H217632   5.031   5.785   4.558
 5876TIP3   OH217633   6.179   5.360   1.224
 5876TIP3    H117634   6.127   5.428   1.182
 5876TIP3    H217635   6.161   5.369   1.318
 5877TIP3   OH217636   3.885   4.291   2.140
 5877TIP3    H117637   3.875   4.348   2.063
 5877TIP3    H217638   3.950   4.226   2.115
 5878TIP3   OH217639   4.758   3.682   4.807
 5878TIP3    H117640   4.829   3.717   4.753
 5878TIP3    H217641   4.681   3.733   4.782
 5879TIP3   OH217642   3.936   2.266   0.654
 5879TIP3    H117643   3.899   2.305   0.733
 5879TIP3    H217644   4.029   2.289   0.658
 5880TIP3   OH217645   3.896   1.109   2.888
 5880TIP3    H117646   3.894   1.018   2.917
 5880TIP3    H217647   3.804   1.131   2.872
 5881TIP3   OH217648   0.585   0.381   1.235
 5881TIP3    H117649   0.583   0.294   1.275
 5881TIP3    H217650   0.626   0.367   1.150
 5882TIP3   OH217651   1.932   5.894   0.355
 5882TIP3    H117652   1.865   5.962   0.364
 5882TIP3    H217653   1.925   5.867   0.263
 5883TIP3   OH217654   1.866   1.793   0.878
 5883TIP3    H117655   1.901   1.879   0.853
 5883TIP3    H217656   1.793   1.813   0.937
 5884TIP3   OH217657   2.563   3.829   1.430
 5884TIP3    H117658   2.615   3.892   1.380
 5884TIP3    H217659   2.624   3.791   1.492
 5885TIP3   OH217660   5.545   4.620   3.858
 5885TIP3    H117661   5.607   4.547   3.866
 5885TIP3    H217662   5.481   4.605   3.928
 5886TIP3   OH217663   5.315   0.820   1.394
 5886TIP3    H117664   5.254   0.747   1.384
 5886TIP3    H217665   5.400   0.779   1.408
 5887TIP3   OH217666   4.350   5.598   0.554
 5887TIP3    H117667   4.405   5.641   0.488
 5887TIP3    H217668   4.365   5.504   0.541
 5888TIP3   OH217669   2.675   0.810   0.532
 5888TIP3    H117670   2.679   0.897   0.492
 5888TIP3    H217671   2.748   0.809   0.594
 5889TIP3   OH217672   5.423   2.221   3.006
 5889TIP3    H117673   5.489   2.247   2.942
 5889TIP3    H217674   5.339   2.238   2.963
 5890TIP3   OH217675   3.514   4.564   2.832
 5890TIP3    H117676   3.551   4.480   2.859
 5890TIP3    H217677   3.559   4.629   2.886
 5891TIP3   OH217678   4.019   2.552   4.937
 5891TIP3    H117679   4.061   2.540   4.851
 5891TIP3    H217680   4.090   2.576   4.995
 5892TIP3   OH217681   2.641   5.312   1.399
 5892TIP3    H117682   2.603   5.369   1.467
 5892TIP3    H217683   2.565   5.277   1.353
 5893TIP3   OH217684   5.796   1.980   3.542
 5893TIP3    H117685   5.730   1.966   3.474
 5893TIP3    H217686   5.778   1.913   3.607
 5894TIP3   OH217687   4.961   0.072   3.851
 5894TIP3    H117688   5.007   0.105   3.773
 5894TIP3    H217689   4.948  -0.021   3.834
 5895TIP3   OH217690   6.228   2.569   0.378
 5895TIP3    H117691   6.174   2.587   0.455
 5895TIP3    H217692   6.316   2.597   0.403
 5896TIP3   OH217693   5.323   2.906   1.843
 5896TIP3    H117694   5.371   2.855   1.908
 5896TIP3    H217695   5.365   2.992   1.844
 5897TIP3   OH217696   3.289   1.436   2.209
 5897TIP3    H117697   3.290   1.506   2.274
 5897TIP3    H217698   3.378   1.434   2.174
 5898TIP3   OH217699   4.566   5.715   1.212
 5898TIP3    H117700   4.535   5.638   1.260
 5898TIP3    H217701   4.602   5.679   1.131
 5899TIP3   OH217702   2.052   3.546   0.828
 5899TIP3    H117703   2.130   3.539   0.773
 5899TIP3    H217704   2.000   3.469   0.804
 5900TIP3   OH217705   4.671   3.598   4.225
 5900TIP3    H117706   4.687   3.541   4.300
 5900TIP3    H217707   4.577   3.592   4.211
 5901TIP3   OH217708   0.112   2.772   3.461
 5901TIP3    H117709   0.081   2.754   3.550
 5901TIP3    H217710   0.139   2.863   3.463
 5902TIP3   OH217711   0.962   1.483   2.245
 5902TIP3    H117712   0.930   1.542   2.177
 5902TIP3    H217713   1.024   1.534   2.295
 5903TIP3   OH217714   2.937   5.223   3.730
 5903TIP3    H117715   2.933   5.296   3.668
 5903TIP3    H217716   2.967   5.148   3.678
 5904TIP3   OH217717   3.794   5.673   3.373
 5904TIP3    H117718   3.737   5.652   3.447
 5904TIP3    H217719   3.881   5.686   3.413
 5905TIP3   OH217720   4.988   5.463   3.172
 5905TIP3    H117721   5.007   5.442   3.263
 5905TIP3    H217722   4.964   5.379   3.132
 5906TIP3   OH217723   2.595   4.245   1.219
 5906TIP3    H117724   2.580   4.196   1.300
 5906TIP3    H217725   2.638   4.326   1.247
 5907TIP3   OH217726   1.466   4.357   0.720
 5907TIP3    H117727   1.509   4.300   0.657
 5907TIP3    H217728   1.406   4.300   0.767
 5908TIP3   OH217729   5.995   4.966   0.370
 5908TIP3    H117730   5.946   5.002   0.295
 5908TIP3    H217731   6.053   5.037   0.397
 5909TIP3   OH217732   1.747   0.124   0.892
 5909TIP3    H117733   1.733   0.115   0.986
 5909TIP3    H217734   1.832   0.166   0.884
 5910TIP3   OH217735   1.566   0.590   4.141
 5910TIP3    H117736   1.471   0.587   4.154
 5910TIP3    H217737   1.584   0.516   4.083
 5911TIP3   OH217738   3.198   1.510   2.962
 5911TIP3    H117739   3.217   1.417   2.948
 5911TIP3    H217740   3.182   1.517   3.057
 5912TIP3   OH217741   0.214   3.743   3.390
 5912TIP3    H117742   0.243   3.799   3.318
 5912TIP3    H217743   0.126   3.773   3.411
 5913TIP3   OH217744   5.094   5.575   2.128
 5913TIP3    H117745   5.129   5.628   2.200
 5913TIP3    H217746   5.154   5.501   2.122
 5914TIP3   OH217747   0.108   3.022   2.453
 5914TIP3    H117748   0.177   3.089   2.455
 5914TIP3    H217749   0.032   3.068   2.417
 5915TIP3   OH217750   4.902   2.470   4.847
 5915TIP3    H117751   4.980   2.525   4.854
 5915TIP3    H217752   4.931   2.384   4.878
 5916TIP3   OH217753   2.383   4.155   2.080
 5916TIP3    H117754   2.399   4.131   2.171
 5916TIP3    H217755   2.449   4.107   2.030
 5917TIP3   OH217756   1.263   4.438   2.210
 5917TIP3    H117757   1.226   4.386   2.281
 5917TIP3    H217758   1.355   4.450   2.234
 5918TIP3   OH217759   1.832   3.097   3.439
 5918TIP3    H117760   1.895   3.027   3.426
 5918TIP3    H217761   1.885   3.176   3.451
 5919TIP3   OH217762   2.426   1.938   4.406
 5919TIP3    H117763   2.332   1.923   4.400
 5919TIP3    H217764   2.449   1.910   4.494
 5920TIP3   OH217765   1.712   5.674   3.668
 5920TIP3    H117766   1.687   5.643   3.581
 5920TIP3    H217767   1.807   5.664   3.671
 5921TIP3   OH217768   6.033   4.120   1.053
 5921TIP3    H117769   6.056   4.033   1.086
 5921TIP3    H217770   5.977   4.102   0.978
 5922TIP3   OH217771   3.931   2.237   2.428
 5922TIP3    H117772   3.925   2.279   2.343
 5922TIP3    H217773   3.841   2.214   2.450
 5923TIP3   OH217774   1.936   2.569   4.734
 5923TIP3    H117775   2.011   2.587   4.791
 5923TIP3    H217776   1.884   2.505   4.783
 5924TIP3   OH217777   0.669   1.639   3.548
 5924TIP3    H117778   0.746   1.589   3.574
 5924TIP3    H217779   0.690   1.674   3.461
 5925TIP3   OH217780   4.398   0.768   1.682
 5925TIP3    H117781   4.392   0.817   1.600
 5925TIP3    H217782   4.481   0.797   1.722
 5926TIP3   OH217783   1.387   1.759   4.110
 5926TIP3    H117784   1.371   1.749   4.016
 5926TIP3    H217785   1.300   1.772   4.147
 5927TIP3   OH217786   3.012   0.857   4.862
 5927TIP3    H117787   2.984   0.815   4.943
 5927TIP3    H217788   2.930   0.875   4.815
 5928TIP3   OH217789   1.388   0.346   2.409
 5928TIP3    H117790   1.406   0.401   2.486
 5928TIP3    H217791   1.370   0.260   2.445
 5929TIP3   OH217792   4.892   0.600   3.212
 5929TIP3    H117793   4.906   0.693   3.193
 5929TIP3    H217794   4.934   0.555   3.139
 5930TIP3   OH217795   3.636   3.365   0.339
 5930TIP3    H117796   3.565   3.347   0.402
 5930TIP3    H217797   3.594   3.417   0.271
 5931TIP3   OH217798   6.208   1.373   0.022
 5931TIP3    H117799   6.285   1.414  -0.016
 5931TIP3    H217800   6.195   1.418   0.106
 5932TIP3   OH217801   0.352   0.557   5.201
 5932TIP3    H117802   0.441   0.522   5.200
 5932TIP3    H217803   0.320   0.544   5.111
 5933TIP3   OH217804   1.620   2.679   2.105
 5933TIP3    H117805   1.558   2.641   2.044
 5933TIP3    H217806   1.688   2.718   2.050
 5934TIP3   OH217807   5.519   4.176   2.868
 5934TIP3    H117808   5.555   4.219   2.946
 5934TIP3    H217809   5.463   4.242   2.828
 5935TIP3   OH217810   1.135   0.660   4.693
 5935TIP3    H117811   1.206   0.607   4.658
 5935TIP3    H217812   1.115   0.723   4.624
 5936TIP3   OH217813   3.872   0.878   0.415
 5936TIP3    H117814   3.939   0.824   0.457
 5936TIP3    H217815   3.901   0.968   0.432
 5937TIP3   OH217816   0.474   0.115   2.185
 5937TIP3    H117817   0.568   0.123   2.202
 5937TIP3    H217818   0.442   0.059   2.255
 5938TIP3   OH217819   1.033   1.312   0.567
 5938TIP3    H117820   0.946   1.277   0.547
 5938TIP3    H217821   1.024   1.351   0.654
 5939TIP3   OH217822   5.898   0.317   0.733
 5939TIP3    H117823   5.882   0.223   0.744
 5939TIP3    H217824   5.812   0.357   0.745
 5940TIP3   OH217825   5.348   1.973   0.542
 5940TIP3    H117826   5.383   2.046   0.592
 5940TIP3    H217827   5.406   1.966   0.466
 5941TIP3   OH217828   3.131   0.202   5.098
 5941TIP3    H117829   3.044   0.204   5.139
 5941TIP3    H217830   3.139   0.286   5.055
 5942TIP3   OH217831   4.050   2.897   5.011
 5942TIP3    H117832   3.986   2.846   4.963
 5942TIP3    H217833   4.005   2.979   5.031
 5943TIP3   OH217834   3.332   4.599   1.146
 5943TIP3    H117835   3.301   4.585   1.235
 5943TIP3    H217836   3.313   4.691   1.128
 5944TIP3   OH217837   2.995   4.018   2.456
 5944TIP3    H117838   2.996   4.030   2.551
 5944TIP3    H217839   3.063   4.077   2.423
 5945TIP3   OH217840   6.126   2.393   2.834
 5945TIP3    H117841   6.160   2.473   2.794
 5945TIP3    H217842   6.172   2.323   2.788
 5946TIP3   OH217843   2.731   4.992   0.756
 5946TIP3    H117844   2.710   5.061   0.820
 5946TIP3    H217845   2.737   4.912   0.809
 5947TIP3   OH217846   3.682   2.191   2.523
 5947TIP3    H117847   3.690   2.110   2.573
 5947TIP3    H217848   3.589   2.198   2.502
 5948TIP3   OH217849   5.015   5.943   4.894
 5948TIP3    H117850   5.100   5.960   4.854
 5948TIP3    H217851   5.006   5.848   4.891
 5949TIP3   OH217852   2.688   0.533   0.722
 5949TIP3    H117853   2.629   0.578   0.662
 5949TIP3    H217854   2.759   0.596   0.738
 5950TIP3   OH217855   2.430   1.976   4.995
 5950TIP3    H117856   2.414   2.055   4.944
 5950TIP3    H217857   2.525   1.975   5.010
 5951TIP3   OH217858   2.519   4.084   3.794
 5951TIP3    H117859   2.486   4.000   3.826
 5951TIP3    H217860   2.472   4.149   3.846
 5952TIP3   OH217861   2.008   2.537   2.473
 5952TIP3    H117862   2.057   2.494   2.403
 5952TIP3    H217863   2.058   2.518   2.553
 5953TIP3   OH217864   5.255   3.894   0.343
 5953TIP3    H117865   5.268   3.973   0.396
 5953TIP3    H217866   5.222   3.829   0.405
 5954TIP3   OH217867   5.901   4.190   4.407
 5954TIP3    H117868   5.916   4.158   4.496
 5954TIP3    H217869   5.953   4.130   4.352
 5955TIP3   OH217870   2.187   3.641   4.265
 5955TIP3    H117871   2.164   3.711   4.203
 5955TIP3    H217872   2.259   3.678   4.316
 5956TIP3   OH217873   4.229   2.003   2.086
 5956TIP3    H117874   4.166   1.998   2.014
 5956TIP3    H217875   4.238   2.097   2.103
 5957TIP3   OH217876   5.012   3.731   2.703
 5957TIP3    H117877   4.945   3.784   2.659
 5957TIP3    H217878   5.092   3.749   2.654
 5958TIP3   OH217879   4.076   1.178   3.278
 5958TIP3    H117880   4.109   1.247   3.221
 5958TIP3    H217881   4.078   1.099   3.224
 5959TIP3   OH217882   3.671   0.917   2.625
 5959TIP3    H117883   3.590   0.866   2.620
 5959TIP3    H217884   3.652   0.997   2.576
 5960TIP3   OH217885   3.975   4.326   4.640
 5960TIP3    H117886   3.887   4.361   4.652
 5960TIP3    H217887   4.026   4.399   4.606
 5961TIP3   OH217888   5.660   1.551   1.044
 5961TIP3    H117889   5.727   1.601   1.090
 5961TIP3    H217890   5.646   1.473   1.098
 5962TIP3   OH217891   4.053   1.244   4.244
 5962TIP3    H117892   4.102   1.206   4.318
 5962TIP3    H217893   4.108   1.228   4.168
 5963TIP3   OH217894   0.786   4.349   3.478
 5963TIP3    H117895   0.838   4.275   3.512
 5963TIP3    H217896   0.836   4.381   3.403
 5964TIP3   OH217897   5.563   2.523   1.454
 5964TIP3    H117898   5.642   2.499   1.405
 5964TIP3    H217899   5.571   2.474   1.536
 5965TIP3   OH217900   3.087   2.433   4.649
 5965TIP3    H117901   3.077   2.508   4.708
 5965TIP3    H217902   3.170   2.393   4.675
 5966TIP3   OH217903   5.003   1.297   5.126
 5966TIP3    H117904   5.016   1.221   5.184
 5966TIP3    H217905   5.091   1.333   5.115
 5967TIP3   OH217906   5.444   3.405   1.253
 5967TIP3    H117907   5.475   3.442   1.171
 5967TIP3    H217908   5.510   3.340   1.278
 5968TIP3   OH217909   3.557   2.545   4.097
 5968TIP3    H117910   3.489   2.488   4.060
 5968TIP3    H217911   3.602   2.581   4.021
 5969TIP3   OH217912   2.001   1.733   0.374
 5969TIP3    H117913   1.921   1.778   0.346
 5969TIP3    H217914   1.989   1.719   0.468
 5970TIP3   OH217915   3.851   5.662   1.712
 5970TIP3    H117916   3.794   5.615   1.772
 5970TIP3    H217917   3.804   5.743   1.692
 5971TIP3   OH217918   2.137   5.496   4.897
 5971TIP3    H117919   2.190   5.565   4.856
 5971TIP3    H217920   2.128   5.429   4.828
 5972TIP3   OH217921   2.502   5.555   4.935
 5972TIP3    H117922   2.545   5.631   4.974
 5972TIP3    H217923   2.489   5.580   4.843
 5973TIP3   OH217924   5.854   1.814   4.155
 5973TIP3    H117925   5.804   1.872   4.097
 5973TIP3    H217926   5.803   1.810   4.235
 5974TIP3   OH217927   0.779   4.842   3.566
 5974TIP3    H117928   0.754   4.863   3.476
 5974TIP3    H217929   0.739   4.756   3.582
 5975TIP3   OH217930   2.864   2.331   3.546
 5975TIP3    H117931   2.806   2.371   3.481
 5975TIP3    H217932   2.824   2.246   3.566
 5976TIP3   OH217933   5.172   2.231   4.355
 5976TIP3    H117934   5.116   2.237   4.277
 5976TIP3    H217935   5.235   2.302   4.345
 5977TIP3   OH217936   0.646   5.855   2.495
 5977TIP3    H117937   0.699   5.864   2.416
 5977TIP3    H217938   0.556   5.873   2.466
 5978TIP3   OH217939   5.365   4.343   0.553
 5978TIP3    H117940   5.274   4.373   0.560
 5978TIP3    H217941   5.395   4.375   0.468
 5979TIP3   OH217942   4.881   1.634   3.828
 5979TIP3    H117943   4.928   1.714   3.806
 5979TIP3    H217944   4.948   1.565   3.824
 5980TIP3   OH217945   5.148   1.642   0.258
 5980TIP3    H117946   5.159   1.690   0.340
 5980TIP3    H217947   5.212   1.680   0.199
 5981TIP3   OH217948   0.760   5.623   0.770
 5981TIP3    H117949   0.768   5.543   0.822
 5981TIP3    H217950   0.838   5.623   0.715
 5982TIP3   OH217951   4.701   0.709   4.388
 5982TIP3    H117952   4.756   0.772   4.433
 5982TIP3    H217953   4.626   0.761   4.357
 5983TIP3   OH217954   4.452   3.144   4.355
 5983TIP3    H117955   4.361   3.133   4.382
 5983TIP3    H217956   4.456   3.104   4.268
 5984TIP3   OH217957   0.081   1.089   0.150
 5984TIP3    H117958   0.093   1.149   0.224
 5984TIP3    H217959   0.004   1.123   0.105
 5985TIP3   OH217960   5.680   3.733   2.302
 5985TIP3    H117961   5.656   3.798   2.236
 5985TIP3    H217962   5.724   3.784   2.370
 5986TIP3   OH217963   5.023   3.669   4.692
 5986TIP3    H117964   5.039   3.598   4.753
 5986TIP3    H217965   5.105   3.719   4.691
 5987TIP3   OH217966   3.187   2.289   1.317
 5987TIP3    H117967   3.115   2.303   1.256
 5987TIP3    H217968   3.190   2.369   1.369
 5988TIP3   OH217969   1.334   3.812   2.351
 5988TIP3    H117970   1.337   3.907   2.343
 5988TIP3    H217971   1.274   3.795   2.424
 5989TIP3   OH217972   4.420   5.944   0.582
 5989TIP3    H117973   4.495   5.999   0.560
 5989TIP3    H217974   4.423   5.938   0.678
 5990TIP3   OH217975   4.379   4.027   0.558
 5990TIP3    H117976   4.319   4.001   0.628
 5990TIP3    H217977   4.322   4.045   0.483
 5991TIP3   OH217978   5.638   5.720   1.694
 5991TIP3    H117979   5.731   5.733   1.713
 5991TIP3    H217980   5.628   5.626   1.683
 5992TIP3   OH217981   0.871   2.030   3.270
 5992TIP3    H117982   0.940   2.000   3.330
 5992TIP3    H217983   0.877   2.125   3.272
 5993TIP3   OH217984   3.509   4.450   3.981
 5993TIP3    H117985   3.501   4.453   3.885
 5993TIP3    H217986   3.588   4.399   3.996
 5994TIP3   OH217987   0.990   4.236   3.129
 5994TIP3    H117988   0.998   4.323   3.168
 5994TIP3    H217989   1.077   4.197   3.139
 5995TIP3   OH217990   4.854   0.750   1.708
 5995TIP3    H117991   4.912   0.751   1.784
 5995TIP3    H217992   4.899   0.804   1.643
 5996TIP3   OH217993   1.501   1.487   3.394
 5996TIP3    H117994   1.562   1.559   3.406
 5996TIP3    H217995   1.546   1.427   3.334
 5997TIP3   OH217996   5.384   3.174   4.661
 5997TIP3    H117997   5.407   3.081   4.670
 5997TIP3    H217998   5.407   3.195   4.570
 5998TIP3   OH217999   3.072   2.635   0.747
 5998TIP3    H118000   3.153   2.678   0.720
 5998TIP3    H218001   3.005   2.703   0.738
 5999TIP3   OH218002   2.355   4.257   3.916
 5999TIP3    H118003   2.326   4.334   3.867
 5999TIP3    H218004   2.280   4.198   3.915
 6000TIP3   OH218005   1.546   4.217   1.027
 6000TIP3    H118006   1.623   4.256   0.985
 6000TIP3    H218007   1.506   4.290   1.075
 6001TIP3   OH218008   4.133   2.468   1.931
 6001TIP3    H118009   4.123   2.492   1.839
 6001TIP3    H218010   4.066   2.521   1.976
 6002TIP3   OH218011   2.191   0.160   5.086
 6002TIP3    H118012   2.263   0.154   5.024
 6002TIP3    H218013   2.171   0.069   5.109
 6003TIP3   OH218014   5.284   2.280   2.772
 6003TIP3    H118015   5.214   2.341   2.798
 6003TIP3    H218016   5.295   2.295   2.678
 6004TIP3   OH218017   2.856   2.855   0.778
 6004TIP3    H118018   2.882   2.943   0.748
 6004TIP3    H218019   2.873   2.856   0.872
 6005TIP3   OH218020   1.429   3.285   3.336
 6005TIP3    H118021   1.436   3.306   3.429
 6005TIP3    H218022   1.474   3.357   3.292
 6006TIP3   OH218023   3.373   4.133   2.549
 6006TIP3    H118024   3.434   4.091   2.488
 6006TIP3    H218025   3.298   4.158   2.494
 6007TIP3   OH218026   2.144   0.088   1.960
 6007TIP3    H118027   2.211   0.156   1.957
 6007TIP3    H218028   2.192   0.007   1.980
 6008TIP3   OH218029   1.549   2.296   1.971
 6008TIP3    H118030   1.461   2.263   1.949
 6008TIP3    H218031   1.535   2.388   1.994
 6009TIP3   OH218032   5.475   0.551   3.994
 6009TIP3    H118033   5.464   0.481   3.930
 6009TIP3    H218034   5.554   0.528   4.042
 6010TIP3   OH218035   3.746   1.617   2.151
 6010TIP3    H118036   3.809   1.655   2.089
 6010TIP3    H218037   3.757   1.523   2.140
 6011TIP3   OH218038   1.743   2.724   4.575
 6011TIP3    H118039   1.818   2.674   4.609
 6011TIP3    H218040   1.740   2.702   4.482
 6012TIP3   OH218041   4.032   3.473   1.599
 6012TIP3    H118042   4.050   3.425   1.680
 6012TIP3    H218043   4.101   3.447   1.539
 6013TIP3   OH218044   6.056   4.090   0.152
 6013TIP3    H118045   6.015   4.004   0.147
 6013TIP3    H218046   6.135   4.083   0.098
 6014TIP3   OH218047   2.711   1.539   0.625
 6014TIP3    H118048   2.649   1.473   0.657
 6014TIP3    H218049   2.656   1.608   0.588
 6015TIP3   OH218050   4.535   3.403   3.427
 6015TIP3    H118051   4.616   3.454   3.419
 6015TIP3    H218052   4.473   3.450   3.370
 6016TIP3   OH218053   1.018   5.111   3.304
 6016TIP3    H118054   0.949   5.145   3.247
 6016TIP3    H218055   1.009   5.161   3.385
 6017TIP3   OH218056   5.192   4.208   4.577
 6017TIP3    H118057   5.151   4.291   4.602
 6017TIP3    H218058   5.135   4.141   4.614
 6018TIP3   OH218059   4.195   4.331   4.071
 6018TIP3    H118060   4.283   4.293   4.067
 6018TIP3    H218061   4.136   4.256   4.073
 6019TIP3   OH218062   5.771   4.417   3.953
 6019TIP3    H118063   5.753   4.485   4.017
 6019TIP3    H218064   5.782   4.337   4.005
 6020TIP3   OH218065   4.055   5.815   3.870
 6020TIP3    H118066   4.096   5.875   3.807
 6020TIP3    H218067   4.059   5.862   3.954
 6021TIP3   OH218068   5.315   1.692   4.665
 6021TIP3    H118069   5.271   1.609   4.646
 6021TIP3    H218070   5.405   1.667   4.688
 6022TIP3   OH218071   4.144   2.161   4.473
 6022TIP3    H118072   4.061   2.115   4.485
 6022TIP3    H218073   4.121   2.254   4.472
 6023TIP3   OH218074   1.305   3.428   1.492
 6023TIP3    H118075   1.301   3.519   1.521
 6023TIP3    H218076   1.249   3.381   1.554
 6024TIP3   OH218077   0.676   3.881   4.309
 6024TIP3    H118078   0.634   3.871   4.223
 6024TIP3    H218079   0.697   3.791   4.336
 6025TIP3   OH218080   3.661   3.085   1.038
 6025TIP3    H118081   3.625   3.114   1.122
 6025TIP3    H218082   3.670   2.990   1.048
 6026TIP3   OH218083   3.034   5.748   2.996
 6026TIP3    H118084   3.001   5.759   2.908
 6026TIP3    H218085   2.978   5.803   3.051
 6027TIP3   OH218086   2.217   1.927   3.674
 6027TIP3    H118087   2.255   1.928   3.762
 6027TIP3    H218088   2.259   1.853   3.630
 6028TIP3   OH218089   2.074   4.594   3.992
 6028TIP3    H118090   2.122   4.537   4.052
 6028TIP3    H218091   2.130   4.598   3.914
 6029TIP3   OH218092   3.676   4.180   3.072
 6029TIP3    H118093   3.754   4.136   3.040
 6029TIP3    H218094   3.603   4.125   3.043
 6030TIP3   OH218095   6.040   5.256   3.353
 6030TIP3    H118096   6.126   5.221   3.329
 6030TIP3    H218097   5.977   5.193   3.317
 6031TIP3   OH218098   6.274   2.297   0.627
 6031TIP3    H118099   6.355   2.290   0.577
 6031TIP3    H218100   6.289   2.370   0.687
 6032TIP3   OH218101   1.165   2.797   3.488
 6032TIP3    H118102   1.141   2.869   3.429
 6032TIP3    H218103   1.122   2.819   3.571
 6033TIP3   OH218104   5.221   5.982   2.626
 6033TIP3    H118105   5.159   5.908   2.626
 6033TIP3    H218106   5.213   6.019   2.713
 6034TIP3   OH218107   4.846   2.597   4.124
 6034TIP3    H118108   4.937   2.588   4.155
 6034TIP3    H218109   4.823   2.687   4.147
 6035TIP3   OH218110   4.039   3.403   0.991
 6035TIP3    H118111   3.982   3.332   1.019
 6035TIP3    H218112   4.040   3.397   0.896
 6036TIP3   OH218113   1.059   1.697   0.456
 6036TIP3    H118114   1.128   1.679   0.392
 6036TIP3    H218115   0.978   1.686   0.408
 6037TIP3   OH218116   2.314   5.147   1.841
 6037TIP3    H118117   2.232   5.138   1.792
 6037TIP3    H218118   2.289   5.198   1.919
 6038TIP3   OH218119   4.500   0.448   3.390
 6038TIP3    H118120   4.457   0.481   3.470
 6038TIP3    H218121   4.464   0.360   3.379
 6039TIP3   OH218122   2.207   0.654   1.761
 6039TIP3    H118123   2.301   0.641   1.775
 6039TIP3    H218124   2.170   0.565   1.763
 6040TIP3   OH218125   4.526   2.953   2.798
 6040TIP3    H118126   4.521   3.041   2.834
 6040TIP3    H218127   4.474   2.899   2.858
 6041TIP3   OH218128   4.697   4.679   2.911
 6041TIP3    H118129   4.724   4.589   2.892
 6041TIP3    H218130   4.602   4.677   2.903
 6042TIP3   OH218131   2.724   2.332   4.214
 6042TIP3    H118132   2.629   2.335   4.217
 6042TIP3    H218133   2.748   2.399   4.150
 6043TIP3   OH218134   0.885   0.916   0.901
 6043TIP3    H118135   0.848   0.828   0.907
 6043TIP3    H218136   0.845   0.964   0.974
 6044TIP3   OH218137   5.251   1.112   4.171
 6044TIP3    H118138   5.330   1.094   4.121
 6044TIP3    H218139   5.281   1.126   4.261
 6045TIP3   OH218140   1.219   2.650   4.685
 6045TIP3    H118141   1.188   2.735   4.717
 6045TIP3    H218142   1.147   2.618   4.630
 6046TIP3   OH218143   3.018   2.940   4.573
 6046TIP3    H118144   3.096   2.891   4.599
 6046TIP3    H218145   3.033   2.964   4.481
 6047TIP3   OH218146   0.560   2.939   2.886
 6047TIP3    H118147   0.547   2.844   2.889
 6047TIP3    H218148   0.652   2.950   2.861
 6048TIP3   OH218149   4.961   1.495   0.640
 6048TIP3    H118150   5.053   1.469   0.638
 6048TIP3    H218151   4.912   1.412   0.646
 6049TIP3   OH218152   0.804   0.759   5.116
 6049TIP3    H118153   0.817   0.847   5.150
 6049TIP3    H218154   0.849   0.760   5.031
 6050TIP3   OH218155   5.437   2.755   2.484
 6050TIP3    H118156   5.497   2.802   2.426
 6050TIP3    H218157   5.372   2.820   2.510
 6051TIP3   OH218158   1.418   5.518   3.639
 6051TIP3    H118159   1.360   5.462   3.586
 6051TIP3    H218160   1.468   5.457   3.693
 6052TIP3   OH218161   2.384   5.353   4.271
 6052TIP3    H118162   2.391   5.399   4.187
 6052TIP3    H218163   2.457   5.386   4.323
 6053TIP3   OH218164   3.406   2.006   0.077
 6053TIP3    H118165   3.353   2.001  -0.003
 6053TIP3    H218166   3.441   1.917   0.088
 6054TIP3   OH218167   2.678   4.616   0.360
 6054TIP3    H118168   2.615   4.661   0.416
 6054TIP3    H218169   2.762   4.631   0.402
 6055TIP3   OH218170   3.336   5.717   1.538
 6055TIP3    H118171   3.383   5.634   1.550
 6055TIP3    H218172   3.389   5.765   1.474
 6056TIP3   OH218173   5.061   4.028   3.310
 6056TIP3    H118174   5.022   4.087   3.246
 6056TIP3    H218175   5.088   4.084   3.382
 6057TIP3   OH218176   3.435   3.275   4.495
 6057TIP3    H118177   3.409   3.289   4.404
 6057TIP3    H218178   3.400   3.188   4.516
 6058TIP3   OH218179   6.350   5.480   3.098
 6058TIP3    H118180   6.384   5.542   3.163
 6058TIP3    H218181   6.258   5.470   3.120
 6059TIP3   OH218182   2.196   2.897   3.232
 6059TIP3    H118183   2.198   2.803   3.246
 6059TIP3    H218184   2.282   2.918   3.196
 6060TIP3   OH218185   0.954   2.953   1.471
 6060TIP3    H118186   0.863   2.975   1.494
 6060TIP3    H218187   0.965   2.990   1.383
 6061TIP3   OH218188   5.195   3.513   1.554
 6061TIP3    H118189   5.137   3.575   1.599
 6061TIP3    H218190   5.136   3.454   1.508
 6062TIP3   OH218191   0.118   2.341   4.820
 6062TIP3    H118192   0.031   2.303   4.834
 6062TIP3    H218193   0.135   2.391   4.900
 6063TIP3   OH218194   0.753   3.529   0.993
 6063TIP3    H118195   0.812   3.589   0.947
 6063TIP3    H218196   0.773   3.542   1.085
 6064TIP3   OH218197   5.698   2.597   0.812
 6064TIP3    H118198   5.778   2.545   0.805
 6064TIP3    H218199   5.627   2.534   0.798
 6065TIP3   OH218200   5.147   2.133   3.790
 6065TIP3    H118201   5.203   2.114   3.715
 6065TIP3    H218202   5.161   2.059   3.850
 6066TIP3   OH218203   5.687   0.224   4.995
 6066TIP3    H118204   5.746   0.291   5.029
 6066TIP3    H218205   5.599   0.257   5.018
 6067TIP3   OH218206   0.833   5.569  -0.011
 6067TIP3    H118207   0.738   5.561  -0.025
 6067TIP3    H218208   0.843   5.652   0.037
 6068TIP3   OH218209   3.098   2.933   1.590
 6068TIP3    H118210   3.078   2.994   1.662
 6068TIP3    H218211   3.028   2.868   1.594
 6069TIP3   OH218212   6.142   2.062   2.736
 6069TIP3    H118213   6.133   2.088   2.645
 6069TIP3    H218214   6.225   2.100   2.764
 6070TIP3   OH218215   1.458   1.168   4.377
 6070TIP3    H118216   1.547   1.194   4.402
 6070TIP3    H218217   1.414   1.153   4.461
 6071TIP3   OH218218   4.497   0.862   4.288
 6071TIP3    H118219   4.479   0.953   4.311
 6071TIP3    H218220   4.479   0.857   4.194
 6072TIP3   OH218221   3.771   1.100   4.208
 6072TIP3    H118222   3.706   1.034   4.230
 6072TIP3    H218223   3.843   1.085   4.269
 6073TIP3   OH218224   4.484   1.037   3.179
 6073TIP3    H118225   4.455   1.088   3.255
 6073TIP3    H218226   4.425   1.064   3.108
 6074TIP3   OH218227   1.928   3.640   0.488
 6074TIP3    H118228   1.879   3.608   0.412
 6074TIP3    H218229   2.003   3.580   0.495
 6075TIP3   OH218230   1.233   5.417   0.916
 6075TIP3    H118231   1.295   5.354   0.878
 6075TIP3    H218232   1.154   5.406   0.864
 6076TIP3   OH218233   2.801   2.074   3.571
 6076TIP3    H118234   2.755   2.031   3.643
 6076TIP3    H218235   2.848   2.004   3.527
 6077TIP3   OH218236   5.581   4.681   1.437
 6077TIP3    H118237   5.659   4.648   1.393
 6077TIP3    H218238   5.528   4.603   1.453
 6078TIP3   OH218239   2.511   4.739   4.657
 6078TIP3    H118240   2.552   4.656   4.634
 6078TIP3    H218241   2.433   4.714   4.706
 6079TIP3   OH218242   2.458   5.696   0.235
 6079TIP3    H118243   2.403   5.675   0.160
 6079TIP3    H218244   2.513   5.619   0.247
 6080TIP3   OH218245   4.934   4.107   0.078
 6080TIP3    H118246   4.933   4.065   0.164
 6080TIP3    H218247   4.899   4.041   0.019
 6081TIP3   OH218248   4.309   5.169   1.512
 6081TIP3    H118249   4.233   5.227   1.519
 6081TIP3    H218250   4.341   5.182   1.423
 6082TIP3   OH218251   4.864   1.495   2.115
 6082TIP3    H118252   4.813   1.499   2.034
 6082TIP3    H218253   4.867   1.402   2.137
 6083TIP3   OH218254   3.470   3.474   3.476
 6083TIP3    H118255   3.475   3.566   3.448
 6083TIP3    H218256   3.385   3.468   3.521
 6084TIP3   OH218257   1.271   1.707   3.825
 6084TIP3    H118258   1.196   1.713   3.766
 6084TIP3    H218259   1.321   1.787   3.808
 6085TIP3   OH218260   1.049   4.204   1.269
 6085TIP3    H118261   0.978   4.265   1.289
 6085TIP3    H218262   1.011   4.117   1.284
 6086TIP3   OH218263   1.202   3.678   1.549
 6086TIP3    H118264   1.174   3.685   1.641
 6086TIP3    H218265   1.128   3.638   1.505
 6087TIP3   OH218266   0.121   1.815   2.279
 6087TIP3    H118267   0.206   1.825   2.324
 6087TIP3    H218268   0.083   1.736   2.317
 6088TIP3   OH218269   1.215   5.634   1.485
 6088TIP3    H118270   1.287   5.576   1.459
 6088TIP3    H218271   1.175   5.590   1.560
 6089TIP3   OH218272   1.127   3.413   2.093
 6089TIP3    H118273   1.120   3.474   2.166
 6089TIP3    H218274   1.084   3.458   2.020
 6090TIP3   OH218275   3.855   0.462   4.039
 6090TIP3    H118276   3.834   0.536   3.983
 6090TIP3    H218277   3.884   0.501   4.122
 6091TIP3   OH218278   6.016   0.100   1.197
 6091TIP3    H118279   5.929   0.071   1.171
 6091TIP3    H218280   6.064   0.108   1.114
 6092TIP3   OH218281   5.477   1.601   3.563
 6092TIP3    H118282   5.488   1.536   3.493
 6092TIP3    H218283   5.567   1.627   3.585
 6093TIP3   OH218284   1.003   3.108   1.832
 6093TIP3    H118285   0.945   3.073   1.765
 6093TIP3    H218286   0.971   3.196   1.848
 6094TIP3   OH218287   3.973   1.486   0.084
 6094TIP3    H118288   3.896   1.489   0.140
 6094TIP3    H218289   3.943   1.449   0.002
 6095TIP3   OH218290   1.404   0.245   3.052
 6095TIP3    H118291   1.495   0.257   3.026
 6095TIP3    H218292   1.360   0.325   3.023
 6096TIP3   OH218293   0.245   1.449   2.059
 6096TIP3    H118294   0.262   1.381   1.994
 6096TIP3    H218295   0.180   1.507   2.018
 6097TIP3   OH218296   2.905   3.307   1.518
 6097TIP3    H118297   2.928   3.244   1.586
 6097TIP3    H218298   2.866   3.254   1.449
 6098TIP3   OH218299   5.227   5.040   0.932
 6098TIP3    H118300   5.133   5.033   0.950
 6098TIP3    H218301   5.254   5.120   0.977
 6099TIP3   OH218302   1.354   5.061   0.107
 6099TIP3    H118303   1.423   5.061   0.173
 6099TIP3    H218304   1.321   5.151   0.107
 6100TIP3   OH218305   3.073   4.085   5.117
 6100TIP3    H118306   3.142   4.025   5.089
 6100TIP3    H218307   3.092   4.103   5.209
 6101TIP3   OH218308   5.051   2.382   2.303
 6101TIP3    H118309   5.104   2.373   2.224
 6101TIP3    H218310   5.028   2.474   2.307
 6102TIP3   OH218311   0.919   3.346   3.877
 6102TIP3    H118312   0.847   3.371   3.819
 6102TIP3    H218313   0.886   3.362   3.965
 6103TIP3   OH218314   2.855   4.514   4.898
 6103TIP3    H118315   2.897   4.431   4.922
 6103TIP3    H218316   2.812   4.543   4.978
 6104TIP3   OH218317   2.832   0.425   3.764
 6104TIP3    H118318   2.737   0.439   3.767
 6104TIP3    H218319   2.860   0.468   3.684
 6105TIP3   OH218320   6.253   3.221   0.561
 6105TIP3    H118321   6.292   3.307   0.543
 6105TIP3    H218322   6.285   3.165   0.490
 6106TIP3   OH218323   5.758   3.949   4.490
 6106TIP3    H118324   5.720   4.036   4.482
 6106TIP3    H218325   5.705   3.894   4.433
 6107TIP3   OH218326   4.384   0.878   4.024
 6107TIP3    H118327   4.391   0.864   3.930
 6107TIP3    H218328   4.373   0.791   4.061
 6108TIP3   OH218329   1.237   0.607   3.825
 6108TIP3    H118330   1.254   0.566   3.910
 6108TIP3    H218331   1.231   0.534   3.764
 6109TIP3   OH218332   3.823   2.350   4.238
 6109TIP3    H118333   3.752   2.317   4.293
 6109TIP3    H218334   3.784   2.359   4.151
 6110TIP3   OH218335   3.396   4.476   3.658
 6110TIP3    H118336   3.350   4.490   3.575
 6110TIP3    H218337   3.452   4.553   3.667
 6111TIP3   OH218338   3.929   4.757   0.975
 6111TIP3    H118339   4.006   4.702   0.960
 6111TIP3    H218340   3.958   4.822   1.039
 6112TIP3   OH218341   5.827   1.949   0.580
 6112TIP3    H118342   5.786   1.996   0.508
 6112TIP3    H218343   5.895   2.008   0.612
 6113TIP3   OH218344   5.523   1.387   3.354
 6113TIP3    H118345   5.470   1.461   3.329
 6113TIP3    H218346   5.473   1.310   3.326
 6114TIP3   OH218347   6.001   5.240   0.800
 6114TIP3    H118348   6.087   5.245   0.757
 6114TIP3    H218349   6.006   5.161   0.854
 6115TIP3   OH218350   2.190   1.334   0.470
 6115TIP3    H118351   2.235   1.278   0.533
 6115TIP3    H218352   2.124   1.381   0.522
 6116TIP3   OH218353   5.221   2.460   4.991
 6116TIP3    H118354   5.275   2.530   4.953
 6116TIP3    H218355   5.146   2.506   5.028
 6117TIP3   OH218356   3.897   3.856   0.740
 6117TIP3    H118357   3.831   3.923   0.752
 6117TIP3    H218358   3.883   3.795   0.812
 6118TIP3   OH218359   3.686   1.882   2.603
 6118TIP3    H118360   3.723   1.841   2.525
 6118TIP3    H218361   3.669   1.809   2.663
 6119TIP3   OH218362   1.418   5.667   2.351
 6119TIP3    H118363   1.368   5.595   2.388
 6119TIP3    H218364   1.353   5.724   2.311
 6120TIP3   OH218365   1.819   4.042   2.236
 6120TIP3    H118366   1.786   4.086   2.314
 6120TIP3    H218367   1.769   4.082   2.164
 6121TIP3   OH218368   0.214   1.420   2.846
 6121TIP3    H118369   0.137   1.471   2.824
 6121TIP3    H218370   0.273   1.431   2.771
 6122TIP3   OH218371   1.038   1.868   0.676
 6122TIP3    H118372   1.028   1.805   0.604
 6122TIP3    H218373   1.117   1.839   0.721
 6123TIP3   OH218374   0.244   4.663   0.403
 6123TIP3    H118375   0.213   4.605   0.472
 6123TIP3    H218376   0.287   4.735   0.449
 6124TIP3   OH218377   6.108   2.626   0.118
 6124TIP3    H118378   6.196   2.610   0.082
 6124TIP3    H218379   6.116   2.603   0.211
 6125TIP3   OH218380   6.094   2.860   4.857
 6125TIP3    H118381   6.146   2.782   4.879
 6125TIP3    H218382   6.010   2.847   4.900
 6126TIP3   OH218383   3.307   5.429   5.018
 6126TIP3    H118384   3.224   5.476   5.024
 6126TIP3    H218385   3.368   5.478   5.074
 6127TIP3   OH218386   0.270   0.358   4.043
 6127TIP3    H118387   0.262   0.369   3.948
 6127TIP3    H218388   0.359   0.326   4.056
 6128TIP3   OH218389   0.331   4.366   3.343
 6128TIP3    H118390   0.418   4.405   3.336
 6128TIP3    H218391   0.338   4.305   3.416
 6129TIP3   OH218392   2.463   1.224   0.334
 6129TIP3    H118393   2.450   1.194   0.424
 6129TIP3    H218394   2.380   1.265   0.310
 6130TIP3   OH218395   5.324   2.496   4.678
 6130TIP3    H118396   5.277   2.546   4.744
 6130TIP3    H218397   5.293   2.406   4.690
 6131TIP3   OH218398   0.644   0.182   0.620
 6131TIP3    H118399   0.699   0.259   0.629
 6131TIP3    H218400   0.584   0.187   0.694
 6132TIP3   OH218401   5.181   4.098   2.652
 6132TIP3    H118402   5.103   4.111   2.706
 6132TIP3    H218403   5.146   4.070   2.567
 6133TIP3   OH218404   3.116   1.481   3.923
 6133TIP3    H118405   3.152   1.529   3.849
 6133TIP3    H218406   3.031   1.521   3.939
 6134TIP3   OH218407   3.841   2.144   5.049
 6134TIP3    H118408   3.811   2.202   4.978
 6134TIP3    H218409   3.895   2.079   5.004
 6135TIP3   OH218410   1.560   5.345   3.229
 6135TIP3    H118411   1.498   5.276   3.205
 6135TIP3    H218412   1.516   5.426   3.204
 6136TIP3   OH218413   3.717   0.495   1.916
 6136TIP3    H118414   3.808   0.467   1.927
 6136TIP3    H218415   3.693   0.465   1.828
 6137TIP3   OH218416   3.372   2.905   1.653
 6137TIP3    H118417   3.278   2.888   1.651
 6137TIP3    H218418   3.404   2.872   1.568
 6138TIP3   OH218419   1.405   2.514   0.463
 6138TIP3    H118420   1.473   2.506   0.397
 6138TIP3    H218421   1.427   2.594   0.511
 6139TIP3   OH218422   4.448   4.677   2.575
 6139TIP3    H118423   4.486   4.609   2.519
 6139TIP3    H218424   4.468   4.759   2.530
 6140TIP3   OH218425   6.059   2.079   0.356
 6140TIP3    H118426   6.068   2.172   0.334
 6140TIP3    H218427   6.147   2.052   0.382
 6141TIP3   OH218428   0.996   5.745   2.205
 6141TIP3    H118429   0.917   5.796   2.225
 6141TIP3    H218430   0.984   5.715   2.115
 6142TIP3   OH218431   0.173   1.940   1.312
 6142TIP3    H118432   0.209   1.886   1.242
 6142TIP3    H218433   0.081   1.914   1.318
 6143TIP3   OH218434   5.463   2.015   0.271
 6143TIP3    H118435   5.558   2.021   0.274
 6143TIP3    H218436   5.440   2.029   0.179
 6144TIP3   OH218437   1.725   2.537   1.642
 6144TIP3    H118438   1.745   2.566   1.552
 6144TIP3    H218439   1.808   2.501   1.674
 6145TIP3   OH218440   5.046   4.050   3.028
 6145TIP3    H118441   5.135   4.027   3.002
 6145TIP3    H218442   4.996   3.969   3.018
 6146TIP3   OH218443   2.009   3.469   4.732
 6146TIP3    H118444   2.049   3.505   4.811
 6146TIP3    H218445   2.081   3.424   4.687
 6147TIP3   OH218446   5.475   4.299   4.129
 6147TIP3    H118447   5.440   4.327   4.045
 6147TIP3    H218448   5.416   4.228   4.156
 6148TIP3   OH218449   4.174   0.361   0.531
 6148TIP3    H118450   4.155   0.411   0.452
 6148TIP3    H218451   4.235   0.294   0.503
 6149TIP3   OH218452   4.976   3.478   4.071
 6149TIP3    H118453   4.923   3.552   4.102
 6149TIP3    H218454   4.981   3.491   3.976
 6150TIP3   OH218455   2.005   2.925   3.939
 6150TIP3    H118456   1.969   2.939   3.852
 6150TIP3    H218457   1.944   2.968   3.998
 6151TIP3   OH218458   4.346   5.127   3.832
 6151TIP3    H118459   4.339   5.044   3.879
 6151TIP3    H218460   4.408   5.110   3.761
 6152TIP3   OH218461   3.435   3.389   2.159
 6152TIP3    H118462   3.446   3.296   2.138
 6152TIP3    H218463   3.491   3.435   2.096
 6153TIP3   OH218464   1.551   5.888   0.431
 6153TIP3    H118465   1.542   5.967   0.377
 6153TIP3    H218466   1.573   5.819   0.368
 6154TIP3   OH218467   2.029   0.959   1.292
 6154TIP3    H118468   2.041   0.874   1.249
 6154TIP3    H218469   2.048   0.943   1.384
 6155TIP3   OH218470   5.570   5.681   0.437
 6155TIP3    H118471   5.641   5.622   0.460
 6155TIP3    H218472   5.569   5.681   0.341
 6156TIP3   OH218473   2.941   2.272   4.371
 6156TIP3    H118474   2.983   2.357   4.384
 6156TIP3    H218475   2.868   2.290   4.312
 6157TIP3   OH218476   3.339   5.192   4.825
 6157TIP3    H118477   3.361   5.245   4.902
 6157TIP3    H218478   3.282   5.123   4.858
 6158TIP3   OH218479   2.521   4.672   3.546
 6158TIP3    H118480   2.482   4.691   3.461
 6158TIP3    H218481   2.458   4.614   3.589
 6159TIP3   OH218482   3.434   5.475   0.355
 6159TIP3    H118483   3.516   5.470   0.404
 6159TIP3    H218484   3.382   5.401   0.387
 6160TIP3   OH218485   5.438   5.612   5.003
 6160TIP3    H118486   5.356   5.606   4.955
 6160TIP3    H218487   5.420   5.673   5.075
 6161TIP3   OH218488   1.100   5.310   4.179
 6161TIP3    H118489   1.144   5.252   4.241
 6161TIP3    H218490   1.084   5.391   4.228
 6162TIP3   OH218491   4.562   4.480   3.163
 6162TIP3    H118492   4.578   4.565   3.123
 6162TIP3    H218493   4.610   4.482   3.245
 6163TIP3   OH218494   2.685   3.471   1.706
 6163TIP3    H118495   2.700   3.495   1.615
 6163TIP3    H218496   2.597   3.432   1.706
 6164TIP3   OH218497   4.426   2.772   1.326
 6164TIP3    H118498   4.432   2.749   1.233
 6164TIP3    H218499   4.481   2.708   1.370
 6165TIP3   OH218500   4.371   3.560   4.344
 6165TIP3    H118501   4.298   3.498   4.343
 6165TIP3    H218502   4.361   3.609   4.262
 6166TIP3   OH218503   3.715   4.053   2.751
 6166TIP3    H118504   3.677   4.139   2.770
 6166TIP3    H218505   3.792   4.072   2.698
 6167TIP3   OH218506   4.468   2.221   1.380
 6167TIP3    H118507   4.544   2.171   1.410
 6167TIP3    H218508   4.392   2.167   1.406
 6168TIP3   OH218509   1.851   2.718   4.290
 6168TIP3    H118510   1.867   2.647   4.229
 6168TIP3    H218511   1.937   2.757   4.305
 6169TIP3   OH218512   1.448   4.670   2.905
 6169TIP3    H118513   1.478   4.696   2.992
 6169TIP3    H218514   1.520   4.619   2.868
 6170TIP3   OH218515   3.699   5.609   2.110
 6170TIP3    H118516   3.782   5.657   2.111
 6170TIP3    H218517   3.691   5.572   2.198
 6171TIP3   OH218518   1.368   3.132   1.685
 6171TIP3    H118519   1.304   3.203   1.679
 6171TIP3    H218520   1.339   3.081   1.761
 6172TIP3   OH218521   1.285   4.270   4.335
 6172TIP3    H118522   1.214   4.320   4.376
 6172TIP3    H218523   1.258   4.179   4.344
 6173TIP3   OH218524   1.369   5.069   2.871
 6173TIP3    H118525   1.289   5.045   2.826
 6173TIP3    H218526   1.343   5.081   2.962
 6174TIP3   OH218527   1.675   2.663   1.101
 6174TIP3    H118528   1.726   2.694   1.026
 6174TIP3    H218529   1.668   2.568   1.088
 6175TIP3   OH218530   4.148   0.223   3.031
 6175TIP3    H118531   4.217   0.285   3.009
 6175TIP3    H218532   4.101   0.264   3.103
 6176TIP3   OH218533   5.485   0.405   0.310
 6176TIP3    H118534   5.579   0.390   0.300
 6176TIP3    H218535   5.449   0.395   0.222
 6177TIP3   OH218536   1.157   1.554   2.941
 6177TIP3    H118537   1.117   1.623   2.888
 6177TIP3    H218538   1.202   1.602   3.011
 6178TIP3   OH218539   0.154   4.641   0.844
 6178TIP3    H118540   0.183   4.648   0.935
 6178TIP3    H218541   0.100   4.562   0.842
 6179TIP3   OH218542   4.411   2.213   4.007
 6179TIP3    H118543   4.352   2.286   4.026
 6179TIP3    H218544   4.429   2.221   3.913
 6180TIP3   OH218545   2.004   3.052   1.055
 6180TIP3    H118546   2.073   3.068   0.989
 6180TIP3    H218547   1.985   3.138   1.090
 6181TIP3   OH218548   0.986   5.597   3.646
 6181TIP3    H118549   0.955   5.507   3.633
 6181TIP3    H218550   1.058   5.589   3.708
 6182TIP3   OH218551   0.757   4.121   3.264
 6182TIP3    H118552   0.697   4.178   3.216
 6182TIP3    H218553   0.844   4.145   3.232
 6183TIP3   OH218554   6.266   2.990   3.791
 6183TIP3    H118555   6.316   2.918   3.829
 6183TIP3    H218556   6.184   2.992   3.841
 6184TIP3   OH218557   5.911   2.435   0.792
 6184TIP3    H118558   5.929   2.349   0.752
 6184TIP3    H218559   5.913   2.419   0.886
 6185TIP3   OH218560   6.009   3.477   3.860
 6185TIP3    H118561   6.039   3.389   3.838
 6185TIP3    H218562   5.921   3.465   3.894
 6186TIP3   OH218563   6.054   3.492   4.595
 6186TIP3    H118564   5.977   3.541   4.624
 6186TIP3    H218565   6.067   3.520   4.504
 6187TIP3   OH218566   3.428   1.027   4.006
 6187TIP3    H118567   3.509   1.055   3.963
 6187TIP3    H218568   3.374   1.106   4.010
 6188TIP3   OH218569   6.221   3.814   3.315
 6188TIP3    H118570   6.181   3.767   3.388
 6188TIP3    H218571   6.267   3.887   3.356
 6189TIP3   OH218572   4.635   4.949   2.863
 6189TIP3    H118573   4.712   4.989   2.904
 6189TIP3    H218574   4.651   4.855   2.868
 6190TIP3   OH218575   0.369   0.486   3.215
 6190TIP3    H118576   0.396   0.562   3.268
 6190TIP3    H218577   0.275   0.480   3.230
 6191TIP3   OH218578   5.402   3.041   2.143
 6191TIP3    H118579   5.417   2.955   2.104
 6191TIP3    H218580   5.307   3.046   2.155
 6192TIP3   OH218581   4.536   3.105   1.550
 6192TIP3    H118582   4.562   3.192   1.518
 6192TIP3    H218583   4.612   3.073   1.597
 6193TIP3   OH218584   2.293   3.067   1.555
 6193TIP3    H118585   2.361   3.012   1.594
 6193TIP3    H218586   2.223   3.070   1.620
 6194TIP3   OH218587   2.829   3.354   0.787
 6194TIP3    H118588   2.812   3.378   0.878
 6194TIP3    H218589   2.887   3.423   0.754
 6195TIP3   OH218590   2.819   3.009   2.597
 6195TIP3    H118591   2.795   2.926   2.639
 6195TIP3    H218592   2.783   3.003   2.509
 6196TIP3   OH218593   4.197   2.157   2.372
 6196TIP3    H118594   4.117   2.204   2.394
 6196TIP3    H218595   4.229   2.199   2.293
 6197TIP3   OH218596   1.788   4.217   1.317
 6197TIP3    H118597   1.786   4.125   1.290
 6197TIP3    H218598   1.861   4.255   1.268
 6198TIP3   OH218599   5.101   2.698   4.848
 6198TIP3    H118600   5.057   2.767   4.799
 6198TIP3    H218601   5.178   2.741   4.886
 6199TIP3   OH218602   1.126   1.932   1.548
 6199TIP3    H118603   1.209   1.944   1.596
 6199TIP3    H218604   1.077   2.012   1.564
 6200TIP3   OH218605   1.400   3.204   5.010
 6200TIP3    H118606   1.440   3.287   5.037
 6200TIP3    H218607   1.464   3.164   4.953
 6201TIP3   OH218608   6.325   3.245   4.358
 6201TIP3    H118609   6.374   3.260   4.277
 6201TIP3    H218610   6.294   3.332   4.384
 6202TIP3   OH218611   4.141   1.581   0.939
 6202TIP3    H118612   4.097   1.664   0.957
 6202TIP3    H218613   4.212   1.603   0.879
 6203TIP3   OH218614   2.068   1.352   4.946
 6203TIP3    H118615   2.134   1.304   4.996
 6203TIP3    H218616   2.099   1.350   4.856
 6204TIP3   OH218617   2.532   2.574   5.112
 6204TIP3    H118618   2.575   2.544   5.192
 6204TIP3    H218619   2.603   2.598   5.053
 6205TIP3   OH218620   0.005   4.888   0.838
 6205TIP3    H118621   0.056   4.808   0.852
 6205TIP3    H218622   0.063   4.945   0.789
 6206TIP3   OH218623   4.395   2.702   3.351
 6206TIP3    H118624   4.423   2.628   3.296
 6206TIP3    H218625   4.304   2.717   3.326
 6207TIP3   OH218626   5.312   4.569   1.885
 6207TIP3    H118627   5.375   4.499   1.904
 6207TIP3    H218628   5.257   4.574   1.964
 6208TIP3   OH218629   6.074   4.440   2.912
 6208TIP3    H118630   6.012   4.474   2.977
 6208TIP3    H218631   6.049   4.348   2.900
 6209TIP3   OH218632   4.529   3.746   1.176
 6209TIP3    H118633   4.582   3.766   1.099
 6209TIP3    H218634   4.448   3.710   1.141
 6210TIP3   OH218635   0.759   3.652   4.440
 6210TIP3    H118636   0.848   3.633   4.470
 6210TIP3    H218637   0.715   3.567   4.440
 6211TIP3   OH218638   3.743   0.385   2.791
 6211TIP3    H118639   3.697   0.316   2.838
 6211TIP3    H218640   3.733   0.463   2.846
 6212TIP3   OH218641   5.983   5.623   1.397
 6212TIP3    H118642   5.891   5.602   1.412
 6212TIP3    H218643   5.992   5.625   1.301
 6213TIP3   OH218644   1.575   3.491   1.677
 6213TIP3    H118645   1.624   3.419   1.638
 6213TIP3    H218646   1.560   3.464   1.768
 6214TIP3   OH218647   2.763   5.464   0.988
 6214TIP3    H118648   2.799   5.462   0.900
 6214TIP3    H218649   2.724   5.551   0.996
 6215TIP3   OH218650   1.529   1.313   0.387
 6215TIP3    H118651   1.552   1.402   0.358
 6215TIP3    H218652   1.578   1.301   0.469
 6216TIP3   OH218653   2.096   2.229   3.496
 6216TIP3    H118654   2.175   2.193   3.536
 6216TIP3    H218655   2.053   2.154   3.455
 6217TIP3   OH218656   5.843   2.663   2.809
 6217TIP3    H118657   5.832   2.618   2.893
 6217TIP3    H218658   5.852   2.593   2.745
 6218TIP3   OH218659   3.318   2.516   3.164
 6218TIP3    H118660   3.413   2.516   3.156
 6218TIP3    H218661   3.292   2.428   3.134
 6219TIP3   OH218662   4.992   3.832   0.831
 6219TIP3    H118663   4.999   3.826   0.927
 6219TIP3    H218664   5.006   3.925   0.812
 6220TIP3   OH218665   4.454   0.174   0.289
 6220TIP3    H118666   4.535   0.222   0.271
 6220TIP3    H218667   4.460   0.095   0.234
 6221TIP3   OH218668   4.730   2.764   4.399
 6221TIP3    H118669   4.668   2.813   4.454
 6221TIP3    H218670   4.715   2.797   4.311
 6222TIP3   OH218671   5.207   3.245   3.892
 6222TIP3    H118672   5.216   3.335   3.861
 6222TIP3    H218673   5.180   3.196   3.814
 6223TIP3   OH218674   4.619   5.935   1.985
 6223TIP3    H118675   4.668   5.956   2.064
 6223TIP3    H218676   4.652   5.997   1.919
 6224TIP3   OH218677   0.727   0.394   1.002
 6224TIP3    H118678   0.699   0.304   0.983
 6224TIP3    H218679   0.770   0.423   0.922
 6225TIP3   OH218680   0.935   4.016   1.440
 6225TIP3    H118681   0.930   4.097   1.490
 6225TIP3    H218682   0.895   3.950   1.496
 6226TIP3   OH218683   5.691   5.514   1.955
 6226TIP3    H118684   5.745   5.593   1.950
 6226TIP3    H218685   5.668   5.495   1.864
 6227TIP3   OH218686   6.230   0.139   3.879
 6227TIP3    H118687   6.245   0.121   3.972
 6227TIP3    H218688   6.136   0.127   3.866
 6228TIP3   OH218689   3.311   5.773   3.032
 6228TIP3    H118690   3.225   5.737   3.009
 6228TIP3    H218691   3.307   5.784   3.127
 6229TIP3   OH218692   1.753   2.467   3.726
 6229TIP3    H118693   1.711   2.495   3.644
 6229TIP3    H218694   1.699   2.394   3.757
 6230TIP3   OH218695   2.201   1.373   3.650
 6230TIP3    H118696   2.261   1.319   3.702
 6230TIP3    H218697   2.126   1.387   3.708
 6231TIP3   OH218698   6.058   2.611   0.582
 6231TIP3    H118699   6.024   2.546   0.643
 6231TIP3    H218700   6.030   2.695   0.618
 6232TIP3   OH218701   4.418   1.420   3.388
 6232TIP3    H118702   4.397   1.380   3.472
 6232TIP3    H218703   4.335   1.458   3.358
 6233TIP3   OH218704   3.319   1.277   4.048
 6233TIP3    H118705   3.242   1.271   3.991
 6233TIP3    H218706   3.342   1.370   4.047
 6234TIP3   OH218707   1.225   4.860   3.920
 6234TIP3    H118708   1.320   4.857   3.933
 6234TIP3    H218709   1.209   4.795   3.852
 6235TIP3   OH218710   2.290   3.547   1.996
 6235TIP3    H118711   2.271   3.581   1.908
 6235TIP3    H218712   2.242   3.465   2.001
 6236TIP3   OH218713   1.131   2.907   2.445
 6236TIP3    H118714   1.212   2.956   2.463
 6236TIP3    H218715   1.065   2.975   2.435
 6237TIP3   OH218716   6.294   5.399   2.497
 6237TIP3    H118717   6.199   5.386   2.498
 6237TIP3    H218718   6.325   5.343   2.426
 6238TIP3   OH218719   5.911   0.415   1.084
 6238TIP3    H118720   5.872   0.482   1.028
 6238TIP3    H218721   5.863   0.422   1.167
 6239TIP3   OH218722   3.317   4.281   1.799
 6239TIP3    H118723   3.307   4.343   1.727
 6239TIP3    H218724   3.232   4.282   1.843
 6240TIP3   OH218725   2.380   1.526   4.827
 6240TIP3    H118726   2.358   1.548   4.736
 6240TIP3    H218727   2.474   1.506   4.825
 6241TIP3   OH218728  -0.020   2.507   2.086
 6241TIP3    H118729   0.060   2.558   2.099
 6241TIP3    H218730   0.003   2.419   2.114
 6242TIP3   OH218731   3.597   3.515   1.976
 6242TIP3    H118732   3.626   3.605   1.996
 6242TIP3    H218733   3.549   3.524   1.893
 6243TIP3   OH218734   1.460   3.357   4.532
 6243TIP3    H118735   1.382   3.325   4.577
 6243TIP3    H218736   1.523   3.286   4.538
 6244TIP3   OH218737   2.447   1.587   2.839
 6244TIP3    H118738   2.409   1.629   2.762
 6244TIP3    H218739   2.439   1.493   2.822
 6245TIP3   OH218740   0.310   4.760   3.915
 6245TIP3    H118741   0.319   4.798   3.828
 6245TIP3    H218742   0.371   4.686   3.915
 6246TIP3   OH218743   4.663   3.021   5.008
 6246TIP3    H118744   4.753   2.988   5.012
 6246TIP3    H218745   4.626   3.000   5.094
 6247TIP3   OH218746   5.759   0.906   3.429
 6247TIP3    H118747   5.751   1.000   3.414
 6247TIP3    H218748   5.779   0.870   3.343
 6248TIP3   OH218749   1.857   5.033   2.399
 6248TIP3    H118750   1.849   4.991   2.485
 6248TIP3    H218751   1.922   5.102   2.413
 6249TIP3   OH218752   2.363   3.693   2.455
 6249TIP3    H118753   2.298   3.761   2.471
 6249TIP3    H218754   2.369   3.646   2.538
 6250TIP3   OH218755   3.324   0.651   2.248
 6250TIP3    H118756   3.353   0.733   2.289
 6250TIP3    H218757   3.386   0.636   2.177
 6251TIP3   OH218758   5.740   0.946   4.326
 6251TIP3    H118759   5.740   0.974   4.234
 6251TIP3    H218760   5.707   0.856   4.324
 6252TIP3   OH218761   6.190   4.277   0.567
 6252TIP3    H118762   6.231   4.228   0.496
 6252TIP3    H218763   6.178   4.365   0.533
 6253TIP3   OH218764   4.322   3.599   2.977
 6253TIP3    H118765   4.239   3.635   2.945
 6253TIP3    H218766   4.297   3.525   3.032
 6254TIP3   OH218767   4.300   0.453   4.411
 6254TIP3    H118768   4.289   0.547   4.397
 6254TIP3    H218769   4.218   0.425   4.451
 6255TIP3   OH218770   5.166   5.506   4.656
 6255TIP3    H118771   5.135   5.419   4.632
 6255TIP3    H218772   5.255   5.492   4.689
 6256TIP3   OH218773   2.985   5.548   3.673
 6256TIP3    H118774   2.921   5.571   3.741
 6256TIP3    H218775   2.941   5.480   3.622
 6257TIP3   OH218776   1.963   5.701   0.784
 6257TIP3    H118777   1.918   5.693   0.868
 6257TIP3    H218778   1.906   5.657   0.721
 6258TIP3   OH218779   5.388   2.306   3.871
 6258TIP3    H118780   5.365   2.226   3.824
 6258TIP3    H218781   5.428   2.276   3.952
 6259TIP3   OH218782   2.206   3.019   2.447
 6259TIP3    H118783   2.227   2.941   2.499
 6259TIP3    H218784   2.114   3.010   2.425
 6260TIP3   OH218785   0.628   4.800   1.028
 6260TIP3    H118786   0.701   4.826   0.972
 6260TIP3    H218787   0.582   4.882   1.047
 6261TIP3   OH218788   0.031   5.228   3.768
 6261TIP3    H118789  -0.011   5.314   3.770
 6261TIP3    H218790   0.124   5.247   3.757
 6262TIP3   OH218791   2.971   0.424   4.004
 6262TIP3    H118792   2.964   0.336   4.043
 6262TIP3    H218793   2.922   0.417   3.922
 6263TIP3   OH218794   5.149   3.449   1.191
 6263TIP3    H118795   5.224   3.401   1.227
 6263TIP3    H218796   5.189   3.525   1.147
 6264TIP3   OH218797   1.072   4.744   3.145
 6264TIP3    H118798   1.062   4.724   3.238
 6264TIP3    H218799   0.984   4.739   3.109
 6265TIP3   OH218800   3.873   4.197   1.190
 6265TIP3    H118801   3.852   4.254   1.264
 6265TIP3    H218802   3.829   4.115   1.210
 6266TIP3   OH218803   3.009   2.671   2.782
 6266TIP3    H118804   3.013   2.616   2.860
 6266TIP3    H218805   3.024   2.610   2.709
 6267TIP3   OH218806   0.138   5.277   4.266
 6267TIP3    H118807   0.201   5.330   4.315
 6267TIP3    H218808   0.054   5.295   4.308
 6268TIP3   OH218809   3.664   5.397   4.122
 6268TIP3    H118810   3.731   5.463   4.141
 6268TIP3    H218811   3.712   5.328   4.074
 6269TIP3   OH218812   3.382   2.637   3.860
 6269TIP3    H118813   3.379   2.726   3.824
 6269TIP3    H218814   3.292   2.606   3.859
 6270TIP3   OH218815   5.022   0.502   4.345
 6270TIP3    H118816   4.983   0.494   4.431
 6270TIP3    H218817   5.076   0.423   4.336
 6271TIP3   OH218818   0.545   0.803   2.134
 6271TIP3    H118819   0.592   0.885   2.122
 6271TIP3    H218820   0.454   0.823   2.110
 6272TIP3   OH218821   4.183   0.735   1.878
 6272TIP3    H118822   4.208   0.783   1.799
 6272TIP3    H218823   4.266   0.709   1.918
 6273TIP3   OH218824   2.358   0.704   3.508
 6273TIP3    H118825   2.416   0.761   3.457
 6273TIP3    H218826   2.389   0.615   3.488
 6274TIP3   OH218827   2.596   3.085   1.696
 6274TIP3    H118828   2.635   3.123   1.617
 6274TIP3    H218829   2.584   2.993   1.674
 6275TIP3   OH218830   1.633   0.676   3.794
 6275TIP3    H118831   1.579   0.601   3.769
 6275TIP3    H218832   1.570   0.748   3.801
 6276TIP3   OH218833   1.724   2.399   2.594
 6276TIP3    H118834   1.664   2.473   2.594
 6276TIP3    H218835   1.742   2.383   2.501
 6277TIP3   OH218836   2.652   3.682   3.662
 6277TIP3    H118837   2.731   3.725   3.695
 6277TIP3    H218838   2.580   3.738   3.692
 6278TIP3   OH218839   1.486   5.813   1.378
 6278TIP3    H118840   1.445   5.888   1.421
 6278TIP3    H218841   1.417   5.747   1.373
 6279TIP3   OH218842   3.182   1.625   3.675
 6279TIP3    H118843   3.226   1.631   3.590
 6279TIP3    H218844   3.115   1.558   3.662
 6280TIP3   OH218845   5.694   2.278   0.456
 6280TIP3    H118846   5.664   2.215   0.522
 6280TIP3    H218847   5.726   2.223   0.384
 6281TIP3   OH218848   0.278   5.309   2.395
 6281TIP3    H118849   0.265   5.270   2.481
 6281TIP3    H218850   0.300   5.401   2.413
 6282TIP3   OH218851   1.183   0.485   0.734
 6282TIP3    H118852   1.172   0.446   0.647
 6282TIP3    H218853   1.142   0.424   0.794
 6283TIP3   OH218854   2.490   0.843   3.801
 6283TIP3    H118855   2.545   0.911   3.841
 6283TIP3    H218856   2.407   0.849   3.848
 6284TIP3   OH218857   4.142   2.192   1.743
 6284TIP3    H118858   4.136   2.280   1.780
 6284TIP3    H218859   4.235   2.180   1.724
 6285TIP3   OH218860   0.438   1.443   0.126
 6285TIP3    H118861   0.364   1.503   0.122
 6285TIP3    H218862   0.509   1.488   0.081
 6286TIP3   OH218863   3.467   1.651   2.147
 6286TIP3    H118864   3.551   1.667   2.105
 6286TIP3    H218865   3.474   1.695   2.232
 6287TIP3   OH218866   4.880   1.306   4.705
 6287TIP3    H118867   4.829   1.376   4.663
 6287TIP3    H218868   4.952   1.352   4.748
 6288TIP3   OH218869   2.971   1.385   4.735
 6288TIP3    H118870   2.981   1.474   4.769
 6288TIP3    H218871   2.884   1.383   4.697
 6289TIP3   OH218872   6.301   1.603   2.369
 6289TIP3    H118873   6.324   1.511   2.387
 6289TIP3    H218874   6.244   1.629   2.440
 6290TIP3   OH218875   6.070   1.954   0.806
 6290TIP3    H118876   6.020   1.931   0.884
 6290TIP3    H218877   6.124   1.877   0.788
 6291TIP3   OH218878   5.756   0.422  -0.018
 6291TIP3    H118879   5.765   0.396   0.073
 6291TIP3    H218880   5.721   0.511  -0.015
 6292TIP3   OH218881   5.805   4.207   0.217
 6292TIP3    H118882   5.757   4.261   0.154
 6292TIP3    H218883   5.888   4.189   0.174
 6293TIP3   OH218884   1.554   0.067   3.207
 6293TIP3    H118885   1.500   0.111   3.141
 6293TIP3    H218886   1.530  -0.025   3.199
 6294TIP3   OH218887   4.922   3.002   3.810
 6294TIP3    H118888   4.826   2.998   3.814
 6294TIP3    H218889   4.943   2.986   3.718
 6295TIP3   OH218890   2.851   2.717   4.575
 6295TIP3    H118891   2.915   2.782   4.602
 6295TIP3    H218892   2.845   2.726   4.480
 6296TIP3   OH218893   4.558   3.123   0.130
 6296TIP3    H118894   4.502   3.058   0.089
 6296TIP3    H218895   4.612   3.073   0.191
 6297TIP3   OH218896   5.576   1.428   3.938
 6297TIP3    H118897   5.539   1.369   4.004
 6297TIP3    H218898   5.531   1.404   3.857
 6298TIP3   OH218899   3.483   3.951   2.293
 6298TIP3    H118900   3.493   3.859   2.320
 6298TIP3    H218901   3.435   3.947   2.211
 6299TIP3   OH218902   2.090   4.906   4.500
 6299TIP3    H118903   2.154   4.855   4.450
 6299TIP3    H218904   2.014   4.848   4.507
 6300TIP3   OH218905   5.650   3.158   2.465
 6300TIP3    H118906   5.572   3.198   2.504
 6300TIP3    H218907   5.723   3.208   2.501
 6301TIP3   OH218908   3.257   5.718   0.952
 6301TIP3    H118909   3.272   5.664   1.029
 6301TIP3    H218910   3.327   5.694   0.891
 6302TIP3   OH218911   2.530   2.633   3.865
 6302TIP3    H118912   2.589   2.706   3.844
 6302TIP3    H218913   2.490   2.610   3.781
 6303TIP3   OH218914   4.069   2.635   2.653
 6303TIP3    H118915   4.019   2.555   2.668
 6303TIP3    H218916   4.008   2.706   2.674
 6304TIP3   OH218917   6.243   1.070   3.141
 6304TIP3    H118918   6.329   1.105   3.163
 6304TIP3    H218919   6.192   1.147   3.115
 6305TIP3   OH218920   2.327   3.084   2.936
 6305TIP3    H118921   2.272   3.017   2.896
 6305TIP3    H218922   2.397   3.036   2.978
 6306TIP3   OH218923   1.393   4.650   1.035
 6306TIP3    H118924   1.386   4.557   1.057
 6306TIP3    H218925   1.403   4.693   1.120
 6307TIP3   OH218926   2.920   5.586   0.318
 6307TIP3    H118927   2.879   5.500   0.326
 6307TIP3    H218928   2.847   5.647   0.313
 6308TIP3   OH218929   4.953   2.996   4.981
 6308TIP3    H118930   5.022   3.048   5.024
 6308TIP3    H218931   5.000   2.939   4.921
 6309TIP3   OH218932   1.112   0.600   0.446
 6309TIP3    H118933   1.128   0.509   0.425
 6309TIP3    H218934   1.197   0.634   0.474
 6310TIP3   OH218935   1.108   1.043   3.902
 6310TIP3    H118936   1.024   1.079   3.873
 6310TIP3    H218937   1.144   0.999   3.825
 6311TIP3   OH218938   5.564   0.044   3.053
 6311TIP3    H118939   5.528  -0.034   3.096
 6311TIP3    H218940   5.560   0.024   2.960
 6312TIP3   OH218941   0.191   0.859   3.200
 6312TIP3    H118942   0.181   0.952   3.179
 6312TIP3    H218943   0.262   0.857   3.264
 6313TIP3   OH218944   4.774   0.500   1.899
 6313TIP3    H118945   4.857   0.548   1.904
 6313TIP3    H218946   4.717   0.544   1.962
 6314TIP3   OH218947   5.761   5.504   0.485
 6314TIP3    H118948   5.804   5.545   0.560
 6314TIP3    H218949   5.832   5.464   0.435
 6315TIP3   OH218950   1.864   2.782   2.934
 6315TIP3    H118951   1.792   2.807   2.991
 6315TIP3    H218952   1.838   2.699   2.895
 6316TIP3   OH218953   1.269   4.354   2.953
 6316TIP3    H118954   1.220   4.289   2.902
 6316TIP3    H218955   1.286   4.312   3.037
 6317TIP3   OH218956   2.201   4.625   4.669
 6317TIP3    H118957   2.119   4.668   4.692
 6317TIP3    H218958   2.207   4.631   4.574
 6318TIP3   OH218959   0.174   4.992   1.399
 6318TIP3    H118960   0.085   4.995   1.433
 6318TIP3    H218961   0.169   4.930   1.325
 6319TIP3   OH218962   2.923   0.941   0.155
 6319TIP3    H118963   2.945   0.899   0.238
 6319TIP3    H218964   2.889   0.871   0.100
 6320TIP3   OH218965   2.696   1.178   1.532
 6320TIP3    H118966   2.612   1.217   1.553
 6320TIP3    H218967   2.678   1.122   1.456
 6321TIP3   OH218968   4.464   4.545   0.484
 6321TIP3    H118969   4.373   4.561   0.462
 6321TIP3    H218970   4.514   4.602   0.425
 6322TIP3   OH218971   2.029   5.181   1.749
 6322TIP3    H118972   2.019   5.176   1.654
 6322TIP3    H218973   1.940   5.170   1.783
 6323TIP3   OH218974   4.710  -0.037   4.620
 6323TIP3    H118975   4.628   0.004   4.646
 6323TIP3    H218976   4.768   0.037   4.600
 6324TIP3   OH218977   1.820   4.391   4.200
 6324TIP3    H118978   1.815   4.323   4.267
 6324TIP3    H218979   1.911   4.421   4.203
 6325TIP3   OH218980   4.136   0.081   1.331
 6325TIP3    H118981   4.139  -0.009   1.362
 6325TIP3    H218982   4.109   0.074   1.239
 6326TIP3   OH218983   0.497   3.368   2.073
 6326TIP3    H118984   0.466   3.440   2.128
 6326TIP3    H218985   0.591   3.363   2.091
 6327TIP3   OH218986   3.350   2.563   0.558
 6327TIP3    H118987   3.395   2.616   0.623
 6327TIP3    H218988   3.417   2.503   0.524
 6328TIP3   OH218989   0.811   4.633   0.125
 6328TIP3    H118990   0.740   4.592   0.174
 6328TIP3    H218991   0.877   4.564   0.116
 6329TIP3   OH218992   4.904   5.272   2.939
 6329TIP3    H118993   4.857   5.198   2.901
 6329TIP3    H218994   4.993   5.239   2.953
 6330TIP3   OH218995   2.774   5.544   3.878
 6330TIP3    H118996   2.763   5.485   3.952
 6330TIP3    H218997   2.692   5.594   3.874
 6331TIP3   OH218998   6.214   1.983   4.519
 6331TIP3    H118999   6.128   2.025   4.524
 6331TIP3    H219000   6.271   2.049   4.479
 6332TIP3   OH219001   2.716   2.015   0.906
 6332TIP3    H119002   2.747   2.035   0.994
 6332TIP3    H219003   2.715   2.100   0.861
 6333TIP3   OH219004   4.613   2.625   1.974
 6333TIP3    H119005   4.532   2.673   1.959
 6333TIP3    H219006   4.678   2.668   1.919
 6334TIP3   OH219007   5.066   0.338   1.940
 6334TIP3    H119008   5.140   0.382   1.983
 6334TIP3    H219009   5.055   0.383   1.857
 6335TIP3   OH219010   4.195   4.445   2.141
 6335TIP3    H119011   4.238   4.480   2.064
 6335TIP3    H219012   4.228   4.356   2.150
 6336TIP3   OH219013   1.317   4.496   4.609
 6336TIP3    H119014   1.299   4.571   4.553
 6336TIP3    H219015   1.271   4.423   4.567
 6337TIP3   OH219016   2.371   5.195   1.297
 6337TIP3    H119017   2.319   5.174   1.374
 6337TIP3    H219018   2.344   5.284   1.273
 6338TIP3   OH219019   1.980   3.329   3.327
 6338TIP3    H119020   1.909   3.377   3.285
 6338TIP3    H219021   1.998   3.256   3.268
 6339TIP3   OH219022   2.243   3.422   4.572
 6339TIP3    H119023   2.241   3.516   4.553
 6339TIP3    H219024   2.334   3.397   4.559
 6340TIP3   OH219025   5.645   3.858   1.430
 6340TIP3    H119026   5.617   3.766   1.427
 6340TIP3    H219027   5.680   3.875   1.342
 6341TIP3   OH219028   5.743   4.419   2.719
 6341TIP3    H119029   5.775   4.466   2.796
 6341TIP3    H219030   5.784   4.333   2.726
 6342TIP3   OH219031   0.930   2.417   4.836
 6342TIP3    H119032   0.965   2.334   4.870
 6342TIP3    H219033   0.931   2.476   4.912
 6343TIP3   OH219034   5.657   0.066   0.075
 6343TIP3    H119035   5.736   0.012   0.071
 6343TIP3    H219036   5.653   0.108  -0.011
 6344TIP3   OH219037   4.625   3.691   1.656
 6344TIP3    H119038   4.632   3.601   1.689
 6344TIP3    H219039   4.634   3.682   1.561
 6345TIP3   OH219040   0.291   5.727   4.940
 6345TIP3    H119041   0.290   5.819   4.966
 6345TIP3    H219042   0.199   5.705   4.925
 6346TIP3   OH219043   5.230   1.458   2.724
 6346TIP3    H119044   5.154   1.422   2.770
 6346TIP3    H219045   5.266   1.384   2.675
 6347TIP3   OH219046   4.254   4.095   0.320
 6347TIP3    H119047   4.217   4.174   0.280
 6347TIP3    H219048   4.339   4.086   0.277
 6348TIP3   OH219049   3.198   2.738   3.009
 6348TIP3    H119050   3.244   2.819   3.032
 6348TIP3    H219051   3.246   2.669   3.055
 6349TIP3   OH219052   5.395   5.001   4.295
 6349TIP3    H119053   5.395   4.991   4.200
 6349TIP3    H219054   5.448   4.928   4.327
 6350TIP3   OH219055   4.311   1.971   3.187
 6350TIP3    H119056   4.357   2.048   3.221
 6350TIP3    H219057   4.220   1.982   3.217
 6351TIP3   OH219058   1.943   1.355   3.472
 6351TIP3    H119059   2.022   1.318   3.433
 6351TIP3    H219060   1.975   1.418   3.536
 6352TIP3   OH219061   1.585   2.675   4.177
 6352TIP3    H119062   1.657   2.662   4.239
 6352TIP3    H219063   1.622   2.730   4.109
 6353TIP3   OH219064   1.571   2.722   1.770
 6353TIP3    H119065   1.523   2.702   1.690
 6353TIP3    H219066   1.625   2.645   1.786
 6354TIP3   OH219067   3.369   1.599   1.881
 6354TIP3    H119068   3.383   1.601   1.976
 6354TIP3    H219069   3.316   1.676   1.862
 6355TIP3   OH219070   4.659   4.533   3.950
 6355TIP3    H119071   4.691   4.604   3.893
 6355TIP3    H219072   4.668   4.454   3.897
 6356TIP3   OH219073   5.875   2.794   3.612
 6356TIP3    H119074   5.824   2.833   3.541
 6356TIP3    H219075   5.946   2.747   3.567
 6357TIP3   OH219076   0.724   2.867   1.657
 6357TIP3    H119077   0.741   2.773   1.666
 6357TIP3    H219078   0.646   2.871   1.602
 6358TIP3   OH219079   5.087   4.047   3.945
 6358TIP3    H119080   5.150   4.043   4.018
 6358TIP3    H219081   5.003   4.025   3.986
 6359TIP3   OH219082   0.148   4.504   0.606
 6359TIP3    H119083   0.103   4.429   0.644
 6359TIP3    H219084   0.153   4.568   0.677
 6360TIP3   OH219085   2.237   4.020   3.150
 6360TIP3    H119086   2.200   4.052   3.068
 6360TIP3    H219087   2.186   4.063   3.218
 6361TIP3   OH219088   1.718   3.540   2.954
 6361TIP3    H119089   1.792   3.481   2.971
 6361TIP3    H219090   1.724   3.560   2.861
 6362TIP3   OH219091   0.628   4.433   0.189
 6362TIP3    H119092   0.617   4.358   0.131
 6362TIP3    H219093   0.539   4.463   0.207
 6363TIP3   OH219094   2.634   5.295   4.043
 6363TIP3    H119095   2.608   5.218   3.991
 6363TIP3    H219096   2.560   5.354   4.036
 6364TIP3   OH219097   0.874   5.467   2.391
 6364TIP3    H119098   0.823   5.532   2.344
 6364TIP3    H219099   0.951   5.453   2.336
 6365TIP3   OH219100   1.133   0.143   2.831
 6365TIP3    H119101   1.080   0.201   2.885
 6365TIP3    H219102   1.123   0.056   2.871
 6366TIP3   OH219103   5.680   0.153   1.363
 6366TIP3    H119104   5.762   0.178   1.406
 6366TIP3    H219105   5.700   0.158   1.270
 6367TIP3   OH219106   2.764   3.000   3.005
 6367TIP3    H119107   2.724   3.033   3.086
 6367TIP3    H219108   2.713   3.039   2.935
 6368TIP3   OH219109   5.133   2.998   2.144
 6368TIP3    H119110   5.049   3.038   2.170
 6368TIP3    H219111   5.112   2.945   2.068
 6369TIP3   OH219112   0.525   4.244   2.289
 6369TIP3    H119113   0.486   4.282   2.368
 6369TIP3    H219114   0.471   4.168   2.270
 6370TIP3   OH219115   6.076   1.949   1.772
 6370TIP3    H119116   6.169   1.971   1.776
 6370TIP3    H219117   6.044   1.965   1.861
 6371TIP3   OH219118   3.719   4.829   2.625
 6371TIP3    H119119   3.768   4.858   2.548
 6371TIP3    H219120   3.778   4.766   2.668
 6372TIP3   OH219121   4.768   0.088   2.623
 6372TIP3    H119122   4.767  -0.004   2.648
 6372TIP3    H219123   4.677   0.116   2.632
 6373TIP3   OH219124   4.347   1.578   2.562
 6373TIP3    H119125   4.410   1.615   2.623
 6373TIP3    H219126   4.292   1.521   2.616
 6374TIP3   OH219127   1.230   3.773   3.694
 6374TIP3    H119128   1.190   3.835   3.632
 6374TIP3    H219129   1.171   3.773   3.769
 6375TIP3   OH219130   2.937   3.925   1.665
 6375TIP3    H119131   2.957   3.852   1.606
 6375TIP3    H219132   2.969   4.003   1.618
 6376TIP3   OH219133   1.759   0.382   3.543
 6376TIP3    H119134   1.813   0.335   3.606
 6376TIP3    H219135   1.705   0.314   3.502
 6377TIP3   OH219136   1.340   2.160   0.443
 6377TIP3    H119137   1.298   2.152   0.529
 6377TIP3    H219138   1.393   2.239   0.449
 6378TIP3   OH219139   5.161   0.159   3.138
 6378TIP3    H119140   5.118   0.148   3.054
 6378TIP3    H219141   5.252   0.180   3.117
 6379TIP3   OH219142   2.394   5.172   0.441
 6379TIP3    H119143   2.436   5.161   0.355
 6379TIP3    H219144   2.424   5.257   0.473
 6380TIP3   OH219145   3.445   4.209   4.515
 6380TIP3    H119146   3.385   4.266   4.563
 6380TIP3    H219147   3.442   4.240   4.425
 6381TIP3   OH219148   2.859   0.021   3.221
 6381TIP3    H119149   2.813  -0.049   3.267
 6381TIP3    H219150   2.916   0.059   3.287
 6382TIP3   OH219151   0.293   1.868   0.463
 6382TIP3    H119152   0.252   1.892   0.380
 6382TIP3    H219153   0.379   1.910   0.460
 6383TIP3   OH219154   2.773   1.589   3.542
 6383TIP3    H119155   2.832   1.663   3.553
 6383TIP3    H219156   2.829   1.512   3.543
 6384TIP3   OH219157   5.290   2.230   4.909
 6384TIP3    H119158   5.241   2.218   4.827
 6384TIP3    H219159   5.259   2.314   4.943
 6385TIP3   OH219160   3.295   4.843   0.286
 6385TIP3    H119161   3.386   4.842   0.258
 6385TIP3    H219162   3.267   4.751   0.280
 6386TIP3   OH219163   4.133   5.816   3.396
 6386TIP3    H119164   4.079   5.763   3.454
 6386TIP3    H219165   4.121   5.905   3.428
 6387TIP3   OH219166   5.804   0.951   4.928
 6387TIP3    H119167   5.836   0.937   5.017
 6387TIP3    H219168   5.789   1.045   4.922
 6388TIP3   OH219169   1.082   4.286   3.730
 6388TIP3    H119170   0.996   4.251   3.708
 6388TIP3    H219171   1.143   4.218   3.703
 6389TIP3   OH219172   0.198   2.922   2.700
 6389TIP3    H119173   0.197   2.828   2.682
 6389TIP3    H219174   0.166   2.962   2.618
 6390TIP3   OH219175   4.954   0.166   4.682
 6390TIP3    H119176   4.963   0.219   4.761
 6390TIP3    H219177   4.890   0.213   4.628
 6391TIP3   OH219178   0.841   3.511   3.301
 6391TIP3    H119179   0.779   3.576   3.335
 6391TIP3    H219180   0.788   3.451   3.249
 6392TIP3   OH219181   2.773   3.982   3.563
 6392TIP3    H119182   2.735   3.913   3.509
 6392TIP3    H219183   2.833   4.028   3.504
 6393TIP3   OH219184   1.446   5.231   3.559
 6393TIP3    H119185   1.488   5.175   3.625
 6393TIP3    H219186   1.515   5.251   3.497
 6394TIP3   OH219187   2.341   1.575   5.200
 6394TIP3    H119188   2.318   1.483   5.208
 6394TIP3    H219189   2.292   1.606   5.124
 6395TIP3   OH219190   2.905   1.806   4.123
 6395TIP3    H119191   2.850   1.884   4.134
 6395TIP3    H219192   2.926   1.778   4.212
 6396TIP3   OH219193   6.190   3.782   4.024
 6396TIP3    H119194   6.182   3.714   3.957
 6396TIP3    H219195   6.285   3.795   4.033
 6397TIP3   OH219196   1.901   1.522   1.728
 6397TIP3    H119197   1.964   1.584   1.763
 6397TIP3    H219198   1.824   1.575   1.705
 6398TIP3   OH219199   4.986   1.901   1.664
 6398TIP3    H119200   4.959   1.976   1.715
 6398TIP3    H219201   5.029   1.843   1.727
 6399TIP3   OH219202   6.055   1.554   3.006
 6399TIP3    H119203   6.048   1.475   2.953
 6399TIP3    H219204   6.065   1.625   2.943
 6400TIP3   OH219205   2.455   5.733   0.663
 6400TIP3    H119206   2.381   5.720   0.722
 6400TIP3    H219207   2.472   5.646   0.627
 6401TIP3   OH219208   2.687   0.278   4.444
 6401TIP3    H119209   2.745   0.342   4.405
 6401TIP3    H219210   2.743   0.202   4.462
 6402TIP3   OH219211   3.623   5.328   2.635
 6402TIP3    H119212   3.542   5.380   2.633
 6402TIP3    H219213   3.630   5.292   2.546
 6403TIP3   OH219214   4.639   0.145   3.309
 6403TIP3    H119215   4.665   0.233   3.281
 6403TIP3    H219216   4.665   0.141   3.401
 6404TIP3   OH219217   5.182   2.963   2.458
 6404TIP3    H119218   5.142   2.955   2.372
 6404TIP3    H219219   5.150   3.047   2.491
 6405TIP3   OH219220   5.795   0.384   3.882
 6405TIP3    H119221   5.731   0.379   3.953
 6405TIP3    H219222   5.742   0.397   3.803
 6406TIP3   OH219223   5.294   3.127   0.441
 6406TIP3    H119224   5.332   3.114   0.354
 6406TIP3    H219225   5.365   3.162   0.494
 6407TIP3   OH219226   4.341   4.297   0.021
 6407TIP3    H119227   4.262   4.321   0.069
 6407TIP3    H219228   4.396   4.252   0.086
 6408TIP3   OH219229   0.874   0.081   0.739
 6408TIP3    H119230   0.844   0.015   0.801
 6408TIP3    H219231   0.797   0.100   0.685
 6409TIP3   OH219232   0.208   4.728   2.696
 6409TIP3    H119233   0.238   4.816   2.672
 6409TIP3    H219234   0.137   4.743   2.758
 6410TIP3   OH219235   1.423   5.217   2.230
 6410TIP3    H119236   1.375   5.234   2.310
 6410TIP3    H219237   1.390   5.132   2.199
 6411TIP3   OH219238   2.669   2.377   0.816
 6411TIP3    H119239   2.589   2.389   0.868
 6411TIP3    H219240   2.638   2.356   0.728
 6412TIP3   OH219241   0.880   4.124   3.626
 6412TIP3    H119242   0.877   4.044   3.574
 6412TIP3    H219243   0.881   4.095   3.717
 6413TIP3   OH219244   4.897   4.271   1.991
 6413TIP3    H119245   4.820   4.324   2.014
 6413TIP3    H219246   4.938   4.250   2.074
 6414TIP3   OH219247   2.683   3.780   0.153
 6414TIP3    H119248   2.597   3.742   0.138
 6414TIP3    H219249   2.743   3.727   0.100
 6415TIP3   OH219250   4.679   5.304   1.552
 6415TIP3    H119251   4.698   5.215   1.581
 6415TIP3    H219252   4.696   5.359   1.629
 6416TIP3   OH219253   5.914   5.181   4.022
 6416TIP3    H119254   5.855   5.152   4.092
 6416TIP3    H219255   5.856   5.217   3.955
 6417TIP3   OH219256   0.011   2.326   3.070
 6417TIP3    H119257   0.039   2.246   3.114
 6417TIP3    H219258   0.063   2.396   3.112
 6418TIP3   OH219259   1.510   5.226   0.324
 6418TIP3    H119260   1.478   5.184   0.404
 6418TIP3    H219261   1.464   5.310   0.321
 6419TIP3   OH219262   0.655   1.378   0.379
 6419TIP3    H119263   0.581   1.438   0.373
 6419TIP3    H219264   0.728   1.432   0.412
 6420TIP3   OH219265   4.963   1.343   3.628
 6420TIP3    H119266   4.995   1.283   3.695
 6420TIP3    H219267   5.028   1.413   3.626
 6421TIP3   OH219268   3.198   3.282   3.064
 6421TIP3    H119269   3.165   3.197   3.033
 6421TIP3    H219270   3.237   3.322   2.986
 6422TIP3   OH219271   4.423   4.644   1.106
 6422TIP3    H119272   4.381   4.726   1.131
 6422TIP3    H219273   4.507   4.645   1.150
 6423TIP3   OH219274   5.064   1.751   4.068
 6423TIP3    H119275   4.994   1.765   4.004
 6423TIP3    H219276   5.115   1.679   4.033
 6424TIP3   OH219277   5.430   3.632   1.394
 6424TIP3    H119278   5.352   3.637   1.449
 6424TIP3    H219279   5.417   3.553   1.342
 6425TIP3   OH219280   1.430   3.813   1.464
 6425TIP3    H119281   1.441   3.776   1.376
 6425TIP3    H219282   1.357   3.764   1.501
 6426TIP3   OH219283   4.058   0.811   1.181
 6426TIP3    H119284   3.986   0.773   1.131
 6426TIP3    H219285   4.076   0.894   1.138
 6427TIP3   OH219286   5.858   5.353   2.891
 6427TIP3    H119287   5.839   5.272   2.844
 6427TIP3    H219288   5.778   5.405   2.880
 6428TIP3   OH219289   3.018   2.678   2.136
 6428TIP3    H119290   2.963   2.608   2.172
 6428TIP3    H219291   2.985   2.691   2.047
 6429TIP3   OH219292   5.508   1.363   4.187
 6429TIP3    H119293   5.475   1.452   4.201
 6429TIP3    H219294   5.467   1.311   4.256
 6430TIP3   OH219295   4.442   5.631   4.387
 6430TIP3    H119296   4.392   5.697   4.436
 6430TIP3    H219297   4.375   5.572   4.353
 6431TIP3   OH219298   4.272   0.541   0.069
 6431TIP3    H119299   4.266   0.607   0.138
 6431TIP3    H219300   4.202   0.479   0.090
 6432TIP3   OH219301   0.583   2.452   3.517
 6432TIP3    H119302   0.516   2.507   3.476
 6432TIP3    H219303   0.599   2.492   3.602
 6433TIP3   OH219304   3.267   0.856   4.434
 6433TIP3    H119305   3.291   0.830   4.345
 6433TIP3    H219306   3.286   0.950   4.438
 6434TIP3   OH219307   0.460   1.088   2.796
 6434TIP3    H119308   0.427   1.086   2.706
 6434TIP3    H219309   0.548   1.052   2.789
 6435TIP3   OH219310   3.007   2.177   0.726
 6435TIP3    H119311   2.989   2.235   0.801
 6435TIP3    H219312   3.019   2.236   0.652
 6436TIP3   OH219313   5.753   2.059   5.061
 6436TIP3    H119314   5.696   2.057   5.138
 6436TIP3    H219315   5.796   1.974   5.061
 6437TIP3   OH219316   1.591   1.657   4.225
 6437TIP3    H119317   1.518   1.701   4.181
 6437TIP3    H219318   1.624   1.722   4.288
 6438TIP3   OH219319   2.382   4.302   3.572
 6438TIP3    H119320   2.350   4.366   3.636
 6438TIP3    H219321   2.304   4.277   3.523
 6439TIP3   OH219322   2.833   3.309   2.570
 6439TIP3    H119323   2.813   3.216   2.569
 6439TIP3    H219324   2.865   3.328   2.482
 6440TIP3   OH219325   4.193   5.256   0.112
 6440TIP3    H119326   4.257   5.186   0.103
 6440TIP3    H219327   4.177   5.285   0.022
 6441TIP3   OH219328   1.737   0.723   2.366
 6441TIP3    H119329   1.688   0.660   2.419
 6441TIP3    H219330   1.677   0.798   2.358
 6442TIP3   OH219331   1.552   4.750   3.154
 6442TIP3    H119332   1.482   4.753   3.219
 6442TIP3    H219333   1.604   4.829   3.171
 6443TIP3   OH219334   0.496   1.136   1.522
 6443TIP3    H119335   0.573   1.117   1.470
 6443TIP3    H219336   0.528   1.192   1.593
 6444TIP3   OH219337   0.288   2.868   0.665
 6444TIP3    H119338   0.366   2.815   0.648
 6444TIP3    H219339   0.311   2.956   0.635
 6445TIP3   OH219340   3.911   0.104   3.163
 6445TIP3    H119341   3.843   0.078   3.102
 6445TIP3    H219342   3.978   0.036   3.155
 6446TIP3   OH219343   0.992   1.545   4.340
 6446TIP3    H119344   1.013   1.614   4.403
 6446TIP3    H219345   1.021   1.464   4.382
 6447TIP3   OH219346   2.597   1.556   1.575
 6447TIP3    H119347   2.543   1.630   1.545
 6447TIP3    H219348   2.659   1.542   1.504
 6448TIP3   OH219349   3.598   2.449   4.742
 6448TIP3    H119350   3.524   2.394   4.716
 6448TIP3    H219351   3.591   2.455   4.838
 6449TIP3   OH219352   1.987   0.292   4.955
 6449TIP3    H119353   1.992   0.265   4.863
 6449TIP3    H219354   2.050   0.236   5.000
 6450TIP3   OH219355   2.773   4.567   1.984
 6450TIP3    H119356   2.696   4.548   2.038
 6450TIP3    H219357   2.740   4.623   1.914
 6451TIP3   OH219358   3.897   3.255   3.288
 6451TIP3    H119359   3.840   3.275   3.362
 6451TIP3    H219360   3.860   3.176   3.249
 6452TIP3   OH219361   2.655   0.836   1.976
 6452TIP3    H119362   2.645   0.924   1.939
 6452TIP3    H219363   2.569   0.796   1.967
 6453TIP3   OH219364   4.676   3.339   1.470
 6453TIP3    H119365   4.744   3.365   1.532
 6453TIP3    H219366   4.705   3.375   1.387
 6454TIP3   OH219367   6.159   1.748   2.565
 6454TIP3    H119368   6.127   1.831   2.531
 6454TIP3    H219369   6.081   1.696   2.580
 6455TIP3   OH219370   4.612   5.792   2.992
 6455TIP3    H119371   4.654   5.868   3.032
 6455TIP3    H219372   4.675   5.721   3.006
 6456TIP3   OH219373   3.627   0.122   0.858
 6456TIP3    H119374   3.653   0.205   0.817
 6456TIP3    H219375   3.623   0.060   0.786
 6457TIP3   OH219376   4.634   1.952   0.036
 6457TIP3    H119377   4.720   1.988   0.013
 6457TIP3    H219378   4.622   1.879  -0.024
 6458TIP3   OH219379   4.856   3.443   0.152
 6458TIP3    H119380   4.867   3.528   0.195
 6458TIP3    H219381   4.796   3.459   0.080
 6459TIP3   OH219382   5.141   1.061   2.754
 6459TIP3    H119383   5.101   1.122   2.815
 6459TIP3    H219384   5.226   1.039   2.794
 6460TIP3   OH219385   3.745   3.382   2.586
 6460TIP3    H119386   3.673   3.436   2.620
 6460TIP3    H219387   3.788   3.437   2.521
 6461TIP3   OH219388   4.934   1.157   0.956
 6461TIP3    H119389   4.912   1.064   0.956
 6461TIP3    H219390   4.897   1.191   1.037
 6462TIP3   OH219391   1.803   1.643   4.024
 6462TIP3    H119392   1.738   1.611   4.087
 6462TIP3    H219393   1.758   1.641   3.940
 6463TIP3   OH219394   0.074   5.880   0.252
 6463TIP3    H119395   0.020   5.959   0.259
 6463TIP3    H219396   0.025   5.822   0.194
 6464TIP3   OH219397   2.660   2.512   4.663
 6464TIP3    H119398   2.712   2.580   4.620
 6464TIP3    H219399   2.606   2.559   4.727
 6465TIP3   OH219400   1.851   5.802   2.438
 6465TIP3    H119401   1.792   5.764   2.503
 6465TIP3    H219402   1.840   5.896   2.448
 6466TIP3   OH219403   0.957   5.923   0.315
 6466TIP3    H119404   1.049   5.902   0.300
 6466TIP3    H219405   0.957   6.016   0.335
 6467TIP3   OH219406   5.258   1.572   2.978
 6467TIP3    H119407   5.291   1.560   2.889
 6467TIP3    H219408   5.163   1.572   2.969
 6468TIP3   OH219409   3.830   3.723   1.749
 6468TIP3    H119410   3.759   3.770   1.794
 6468TIP3    H219411   3.874   3.673   1.818
 6469TIP3   OH219412   4.375   1.771   3.616
 6469TIP3    H119413   4.312   1.789   3.546
 6469TIP3    H219414   4.460   1.767   3.571
 6470TIP3   OH219415   3.027   1.713   0.978
 6470TIP3    H119416   3.082   1.636   0.995
 6470TIP3    H219417   2.950   1.701   1.034
 6471TIP3   OH219418   3.987   1.453   0.750
 6471TIP3    H119419   3.992   1.529   0.808
 6471TIP3    H219420   3.959   1.382   0.806
 6472TIP3   OH219421   0.866   0.619   0.061
 6472TIP3    H119422   0.843   0.550   0.123
 6472TIP3    H219423   0.796   0.684   0.070
 6473TIP3   OH219424   1.501   3.321   1.338
 6473TIP3    H119425   1.465   3.290   1.255
 6473TIP3    H219426   1.430   3.370   1.379
 6474TIP3   OH219427   1.152   2.249   4.940
 6474TIP3    H119428   1.195   2.175   4.895
 6474TIP3    H219429   1.207   2.324   4.919
 6475TIP3   OH219430   1.723   2.954   4.371
 6475TIP3    H119431   1.758   2.870   4.343
 6475TIP3    H219432   1.748   2.961   4.463
 6476TIP3   OH219433   0.532   1.447   4.901
 6476TIP3    H119434   0.472   1.472   4.971
 6476TIP3    H219435   0.573   1.366   4.932
 6477TIP3   OH219436   3.975   5.066   1.992
 6477TIP3    H119437   3.923   5.146   1.995
 6477TIP3    H219438   3.956   5.029   1.906
 6478TIP3   OH219439   3.768   3.664   5.107
 6478TIP3    H119440   3.677   3.692   5.116
 6478TIP3    H219441   3.804   3.718   5.037
 6479TIP3   OH219442   4.625   0.514   2.635
 6479TIP3    H119443   4.719   0.505   2.653
 6479TIP3    H219444   4.614   0.474   2.549
 6480TIP3   OH219445   1.873   5.716   2.890
 6480TIP3    H119446   1.870   5.671   2.806
 6480TIP3    H219447   1.784   5.748   2.904
 6481TIP3   OH219448   1.986   2.807   0.264
 6481TIP3    H119449   1.985   2.846   0.351
 6481TIP3    H219450   2.051   2.737   0.270
 6482TIP3   OH219451   6.207   0.163   2.801
 6482TIP3    H119452   6.233   0.116   2.880
 6482TIP3    H219453   6.288   0.199   2.766
 6483TIP3   OH219454   3.290   0.813   3.866
 6483TIP3    H119455   3.209   0.853   3.898
 6483TIP3    H219456   3.356   0.881   3.876
 6484TIP3   OH219457   5.073   5.679   0.746
 6484TIP3    H119458   5.032   5.637   0.822
 6484TIP3    H219459   5.160   5.704   0.776
 6485TIP3   OH219460   0.449   2.245   4.244
 6485TIP3    H119461   0.470   2.281   4.157
 6485TIP3    H219462   0.445   2.322   4.301
 6486TIP3   OH219463   2.226   0.753   3.170
 6486TIP3    H119464   2.246   0.810   3.095
 6486TIP3    H219465   2.276   0.792   3.243
 6487TIP3   OH219466   0.052   2.034   3.480
 6487TIP3    H119467   0.011   2.097   3.421
 6487TIP3    H219468   0.132   2.008   3.435
 6488TIP3   OH219469   2.953   0.292   2.430
 6488TIP3    H119470   2.878   0.314   2.485
 6488TIP3    H219471   2.915   0.262   2.348
 6489TIP3   OH219472   4.753   2.742   3.672
 6489TIP3    H119473   4.711   2.803   3.733
 6489TIP3    H219474   4.717   2.765   3.587
 6490TIP3   OH219475   5.594   4.041   0.368
 6490TIP3    H119476   5.621   3.957   0.330
 6490TIP3    H219477   5.617   4.106   0.301
 6491TIP3   OH219478   2.448   5.495   4.061
 6491TIP3    H119479   2.387   5.475   3.990
 6491TIP3    H219480   2.494   5.573   4.032
 6492TIP3   OH219481   1.336   3.643   0.644
 6492TIP3    H119482   1.339   3.606   0.555
 6492TIP3    H219483   1.369   3.732   0.634
 6493TIP3   OH219484   2.923   4.836   4.505
 6493TIP3    H119485   2.839   4.834   4.461
 6493TIP3    H219486   2.925   4.757   4.558
 6494TIP3   OH219487   0.644   3.076   3.390
 6494TIP3    H119488   0.590   3.068   3.312
 6494TIP3    H219489   0.734   3.075   3.358
 6495TIP3   OH219490   0.611   4.106   3.538
 6495TIP3    H119491   0.526   4.148   3.553
 6495TIP3    H219492   0.672   4.179   3.529
 6496TIP3   OH219493   5.740   1.702   3.537
 6496TIP3    H119494   5.828   1.675   3.508
 6496TIP3    H219495   5.697   1.732   3.457
 6497TIP3   OH219496   2.359   3.277   0.113
 6497TIP3    H119497   2.272   3.293   0.077
 6497TIP3    H219498   2.401   3.219   0.049
 6498TIP3   OH219499   1.157   3.875   3.434
 6498TIP3    H119500   1.231   3.814   3.433
 6498TIP3    H219501   1.196   3.961   3.448
 6499TIP3   OH219502   5.404   1.871   2.509
 6499TIP3    H119503   5.473   1.928   2.542
 6499TIP3    H219504   5.376   1.820   2.585
 6500TIP3   OH219505   5.676   4.262   0.600
 6500TIP3    H119506   5.682   4.350   0.564
 6500TIP3    H219507   5.684   4.205   0.524
 6501TIP3   OH219508   5.645   2.447   3.704
 6501TIP3    H119509   5.731   2.468   3.741
 6501TIP3    H219510   5.645   2.352   3.695
 6502TIP3   OH219511   0.290   2.702   1.491
 6502TIP3    H119512   0.213   2.753   1.516
 6502TIP3    H219513   0.295   2.632   1.555
 6503TIP3   OH219514   2.835   5.277   4.878
 6503TIP3    H119515   2.846   5.201   4.821
 6503TIP3    H219516   2.762   5.325   4.840
 6504TIP3   OH219517   0.218   0.757   0.957
 6504TIP3    H119518   0.280   0.774   0.886
 6504TIP3    H219519   0.167   0.682   0.928
 6505TIP3   OH219520   3.076   3.256   0.417
 6505TIP3    H119521   3.117   3.171   0.401
 6505TIP3    H219522   3.134   3.319   0.375
 6506TIP3   OH219523   2.727   4.870   3.630
 6506TIP3    H119524   2.662   4.815   3.588
 6506TIP3    H219525   2.779   4.810   3.683
 6507TIP3   OH219526   5.036   0.997   1.875
 6507TIP3    H119527   5.054   0.921   1.930
 6507TIP3    H219528   5.070   0.973   1.789
 6508TIP3   OH219529   3.738   1.234   1.856
 6508TIP3    H119530   3.811   1.193   1.902
 6508TIP3    H219531   3.729   1.183   1.775
 6509TIP3   OH219532   0.244   2.127   1.708
 6509TIP3    H119533   0.171   2.189   1.703
 6509TIP3    H219534   0.314   2.169   1.657
 6510TIP3   OH219535   5.214   5.827   0.413
 6510TIP3    H119536   5.139   5.876   0.380
 6510TIP3    H219537   5.218   5.850   0.506
 6511TIP3   OH219538   2.335   2.498   2.600
 6511TIP3    H119539   2.256   2.487   2.653
 6511TIP3    H219540   2.391   2.557   2.651
 6512TIP3   OH219541   5.207   3.142   1.121
 6512TIP3    H119542   5.242   3.160   1.209
 6512TIP3    H219543   5.193   3.047   1.120
 6513TIP3   OH219544   0.149   4.601   2.455
 6513TIP3    H119545   0.183   4.628   2.540
 6513TIP3    H219546   0.066   4.647   2.446
 6514TIP3   OH219547   4.729   1.806   0.324
 6514TIP3    H119548   4.650   1.782   0.276
 6514TIP3    H219549   4.744   1.734   0.385
 6515TIP3   OH219550   1.127   3.126   4.879
 6515TIP3    H119551   1.088   3.079   4.954
 6515TIP3    H219552   1.219   3.136   4.903
 6516TIP3   OH219553   4.576   1.301   4.084
 6516TIP3    H119554   4.489   1.302   4.044
 6516TIP3    H219555   4.624   1.234   4.035
 6517TIP3   OH219556   6.267   0.096   0.471
 6517TIP3    H119557   6.296   0.183   0.499
 6517TIP3    H219558   6.313   0.035   0.528
 6518TIP3   OH219559   5.717   0.756   2.842
 6518TIP3    H119560   5.776   0.696   2.888
 6518TIP3    H219561   5.772   0.797   2.776
 6519TIP3   OH219562   0.440  -0.005   0.433
 6519TIP3    H119563   0.518  -0.035   0.386
 6519TIP3    H219564   0.455   0.088   0.446
 6520TIP3   OH219565   6.142   3.551   2.642
 6520TIP3    H119566   6.237   3.542   2.645
 6520TIP3    H219567   6.112   3.522   2.728
 6521TIP3   OH219568   4.593   2.423   4.117
 6521TIP3    H119569   4.605   2.330   4.139
 6521TIP3    H219570   4.634   2.432   4.032
 6522TIP3   OH219571   3.263   5.170   4.062
 6522TIP3    H119572   3.182   5.198   4.020
 6522TIP3    H219573   3.295   5.098   4.007
 6523TIP3   OH219574   4.840   2.772   2.156
 6523TIP3    H119575   4.798   2.835   2.098
 6523TIP3    H219576   4.779   2.763   2.230
 6524TIP3   OH219577   5.018   0.718   1.970
 6524TIP3    H119578   4.995   0.764   2.050
 6524TIP3    H219579   5.101   0.674   1.990
 6525TIP3   OH219580   3.189   0.425   2.801
 6525TIP3    H119581   3.134   0.360   2.845
 6525TIP3    H219582   3.165   0.418   2.708
 6526TIP3   OH219583   1.089   2.971   4.261
 6526TIP3    H119584   1.040   2.911   4.317
 6526TIP3    H219585   1.023   3.030   4.225
 6527TIP3   OH219586   1.562   3.138   0.517
 6527TIP3    H119587   1.496   3.145   0.585
 6527TIP3    H219588   1.616   3.063   0.542
 6528TIP3   OH219589   4.598   1.673   1.523
 6528TIP3    H119590   4.690   1.694   1.509
 6528TIP3    H219591   4.594   1.577   1.517
 6529TIP3   OH219592   6.024   2.727   4.638
 6529TIP3    H119593   6.060   2.803   4.682
 6529TIP3    H219594   5.943   2.758   4.597
 6530TIP3   OH219595   0.302   4.091   1.106
 6530TIP3    H119596   0.368   4.084   1.038
 6530TIP3    H219597   0.348   4.132   1.179
 6531TIP3   OH219598   2.754   4.535   3.536
 6531TIP3    H119599   2.679   4.595   3.536
 6531TIP3    H219600   2.828   4.590   3.564
 6532TIP3   OH219601   4.760   1.241   2.182
 6532TIP3    H119602   4.688   1.183   2.207
 6532TIP3    H219603   4.838   1.199   2.217
 6533TIP3   OH219604   0.261   2.545   1.762
 6533TIP3    H119605   0.343   2.498   1.768
 6533TIP3    H219606   0.194   2.482   1.789
 6534TIP3   OH219607   4.707   5.927   5.012
 6534TIP3    H119608   4.662   5.859   4.962
 6534TIP3    H219609   4.800   5.909   4.999
 6535TIP3   OH219610   1.162   1.033   0.415
 6535TIP3    H119611   1.211   1.115   0.418
 6535TIP3    H219612   1.123   1.024   0.502
 6536TIP3   OH219613   1.224   4.687   3.570
 6536TIP3    H119614   1.236   4.619   3.637
 6536TIP3    H219615   1.176   4.756   3.615
 6537TIP3   OH219616   2.361   4.912   0.103
 6537TIP3    H119617   2.418   4.942   0.032
 6537TIP3    H219618   2.394   4.825   0.126
 6538TIP3   OH219619   2.621   0.616   3.466
 6538TIP3    H119620   2.660   0.556   3.401
 6538TIP3    H219621   2.674   0.695   3.460
 6539TIP3   OH219622   4.036   2.357   3.265
 6539TIP3    H119623   4.087   2.307   3.329
 6539TIP3    H219624   4.013   2.294   3.198
 6540TIP3   OH219625   2.935   2.629   3.497
 6540TIP3    H119626   2.864   2.582   3.542
 6540TIP3    H219627   2.957   2.701   3.557
 6541TIP3   OH219628   3.435   1.545   3.979
 6541TIP3    H119629   3.356   1.594   4.000
 6541TIP3    H219630   3.496   1.564   4.051
 6542TIP3   OH219631   6.176   2.391   3.792
 6542TIP3    H119632   6.169   2.484   3.812
 6542TIP3    H219633   6.130   2.381   3.709
 6543TIP3   OH219634   2.454   5.784   3.605
 6543TIP3    H119635   2.422   5.874   3.595
 6543TIP3    H219636   2.406   5.750   3.680
 6544TIP3   OH219637   3.091   3.333   4.357
 6544TIP3    H119638   3.171   3.320   4.306
 6544TIP3    H219639   3.119   3.385   4.432
 6545TIP3   OH219640   5.851   2.259   4.398
 6545TIP3    H119641   5.864   2.299   4.312
 6545TIP3    H219642   5.794   2.184   4.382
 6546TIP3   OH219643   5.896   5.940   1.771
 6546TIP3    H119644   5.902   6.004   1.842
 6546TIP3    H219645   5.903   5.992   1.691
 6547TIP3   OH219646   5.467   5.418   1.150
 6547TIP3    H119647   5.544   5.382   1.194
 6547TIP3    H219648   5.477   5.390   1.059
 6548TIP3   OH219649   1.324   5.808   3.953
 6548TIP3    H119650   1.411   5.843   3.936
 6548TIP3    H219651   1.265   5.869   3.907
 6549TIP3   OH219652   2.531   5.166   0.198
 6549TIP3    H119653   2.617   5.128   0.216
 6549TIP3    H219654   2.504   5.126   0.115
 6550TIP3   OH219655   5.934   1.221   0.643
 6550TIP3    H119656   6.012   1.172   0.668
 6550TIP3    H219657   5.862   1.172   0.682
 6551TIP3   OH219658   0.418   4.718   5.047
 6551TIP3    H119659   0.448   4.639   5.093
 6551TIP3    H219660   0.479   4.726   4.973
 6552TIP3   OH219661   4.781   3.256   3.483
 6552TIP3    H119662   4.830   3.288   3.558
 6552TIP3    H219663   4.693   3.291   3.496
 6553TIP3   OH219664   3.012   2.457   2.542
 6553TIP3    H119665   2.970   2.378   2.575
 6553TIP3    H219666   2.964   2.478   2.462
 6554TIP3   OH219667   1.107   0.167   0.614
 6554TIP3    H119668   1.027   0.159   0.666
 6554TIP3    H219669   1.142   0.078   0.610
 6555TIP3   OH219670   3.057   5.451   4.843
 6555TIP3    H119671   3.099   5.371   4.808
 6555TIP3    H219672   2.965   5.427   4.852
 6556TIP3   OH219673   0.349   5.701   1.604
 6556TIP3    H119674   0.410   5.744   1.545
 6556TIP3    H219675   0.271   5.758   1.605
 6557TIP3   OH219676   3.518   5.523   4.766
 6557TIP3    H119677   3.548   5.447   4.716
 6557TIP3    H219678   3.432   5.497   4.799
 6558TIP3   OH219679   4.828   4.466   1.504
 6558TIP3    H119680   4.878   4.467   1.585
 6558TIP3    H219681   4.888   4.433   1.438
 6559TIP3   OH219682   5.886   1.352   2.537
 6559TIP3    H119683   5.959   1.304   2.576
 6559TIP3    H219684   5.810   1.295   2.549
 6560TIP3   OH219685   2.443   5.517   1.021
 6560TIP3    H119686   2.474   5.433   0.985
 6560TIP3    H219687   2.516   5.577   1.006
 6561TIP3   OH219688   5.498   4.731   1.108
 6561TIP3    H119689   5.416   4.769   1.140
 6561TIP3    H219690   5.505   4.648   1.154
 6562TIP3   OH219691   5.215   5.044   0.186
 6562TIP3    H119692   5.258   5.126   0.210
 6562TIP3    H219693   5.271   5.005   0.119
 6563TIP3   OH219694   3.425   2.861   1.398
 6563TIP3    H119695   3.361   2.790   1.403
 6563TIP3    H219696   3.498   2.825   1.347
 6564TIP3   OH219697   2.060   1.714   0.645
 6564TIP3    H119698   1.984   1.755   0.687
 6564TIP3    H219699   2.135   1.751   0.691
 6565TIP3   OH219700   3.577   2.929   3.696
 6565TIP3    H119701   3.531   2.999   3.650
 6565TIP3    H219702   3.600   2.967   3.780
 6566TIP3   OH219703   1.600   5.265   4.240
 6566TIP3    H119704   1.564   5.353   4.243
 6566TIP3    H219705   1.632   5.255   4.151
 6567TIP3   OH219706   6.121   4.175   2.676
 6567TIP3    H119707   6.178   4.116   2.724
 6567TIP3    H219708   6.032   4.144   2.696
 6568TIP3   OH219709   2.077   1.643   3.244
 6568TIP3    H119710   2.119   1.653   3.158
 6568TIP3    H219711   2.137   1.586   3.293
 6569TIP3   OH219712   3.348   3.337   4.251
 6569TIP3    H119713   3.383   3.286   4.178
 6569TIP3    H219714   3.326   3.422   4.212
 6570TIP3   OH219715   3.784   0.827   1.766
 6570TIP3    H119716   3.696   0.849   1.798
 6570TIP3    H219717   3.836   0.815   1.845
 6571TIP3   OH219718   6.021   3.627   2.385
 6571TIP3    H119719   5.997   3.578   2.464
 6571TIP3    H219720   6.096   3.580   2.349
 6572TIP3   OH219721   4.620   3.223   3.998
 6572TIP3    H119722   4.697   3.202   4.050
 6572TIP3    H219723   4.601   3.142   3.950
 6573TIP3   OH219724   4.967   0.928   1.519
 6573TIP3    H119725   5.053   0.932   1.562
 6573TIP3    H219726   4.984   0.883   1.436
 6574TIP3   OH219727   4.861   2.782   3.023
 6574TIP3    H119728   4.945   2.819   2.996
 6574TIP3    H219729   4.845   2.821   3.109
 6575TIP3   OH219730   1.717   4.568   3.532
 6575TIP3    H119731   1.656   4.549   3.461
 6575TIP3    H219732   1.771   4.640   3.498
 6576TIP3   OH219733   2.604   3.987   0.408
 6576TIP3    H119734   2.647   3.953   0.487
 6576TIP3    H219735   2.554   3.913   0.374
 6577TIP3   OH219736   3.171   4.428   2.717
 6577TIP3    H119737   3.153   4.507   2.767
 6577TIP3    H219738   3.121   4.438   2.636
 6578TIP3   OH219739   2.542   4.250   4.098
 6578TIP3    H119740   2.464   4.253   4.043
 6578TIP3    H219741   2.615   4.243   4.036
 6579TIP3   OH219742   1.902   2.627   3.278
 6579TIP3    H119743   1.828   2.606   3.336
 6579TIP3    H219744   1.933   2.543   3.246
 6580TIP3   OH219745   4.185   2.274   5.079
 6580TIP3    H119746   4.235   2.294   5.000
 6580TIP3    H219747   4.127   2.202   5.053
 6581TIP3   OH219748   0.340   3.156   0.684
 6581TIP3    H119749   0.345   3.135   0.777
 6581TIP3    H219750   0.431   3.174   0.659
 6582TIP3   OH219751   5.164   5.486   5.045
 6582TIP3    H119752   5.180   5.479   5.139
 6582TIP3    H219753   5.098   5.420   5.027
 6583TIP3   OH219754   5.630   0.116   0.351
 6583TIP3    H119755   5.631   0.083   0.261
 6583TIP3    H219756   5.687   0.056   0.399
 6584TIP3   OH219757   4.588   2.941   4.505
 6584TIP3    H119758   4.553   3.028   4.486
 6584TIP3    H219759   4.634   2.951   4.588
 6585TIP3   OH219760   0.455   1.004   0.116
 6585TIP3    H119761   0.427   1.064   0.047
 6585TIP3    H219762   0.530   1.048   0.156
 6586TIP3   OH219763   0.974   3.041   1.209
 6586TIP3    H119764   0.904   3.027   1.145
 6586TIP3    H219765   1.008   3.129   1.189
 6587TIP3   OH219766   0.396   2.306   4.633
 6587TIP3    H119767   0.301   2.320   4.634
 6587TIP3    H219768   0.424   2.341   4.548
 6588TIP3   OH219769   0.463   5.638   1.870
 6588TIP3    H119770   0.458   5.675   1.782
 6588TIP3    H219771   0.475   5.544   1.856
 6589TIP3   OH219772   6.158   0.232   3.224
 6589TIP3    H119773   6.169   0.304   3.287
 6589TIP3    H219774   6.154   0.276   3.139
 6590TIP3   OH219775   5.201   1.042   0.853
 6590TIP3    H119776   5.132   1.083   0.905
 6590TIP3    H219777   5.158   1.017   0.772
 6591TIP3   OH219778   3.400   2.150   3.973
 6591TIP3    H119779   3.492   2.124   3.976
 6591TIP3    H219780   3.353   2.072   3.946
 6592TIP3   OH219781   5.525   1.970   2.830
 6592TIP3    H119782   5.512   1.890   2.880
 6592TIP3    H219783   5.582   2.024   2.884
 6593TIP3   OH219784   6.084   4.130   3.438
 6593TIP3    H119785   6.071   4.037   3.419
 6593TIP3    H219786   6.006   4.156   3.488
 6594TIP3   OH219787   0.340   1.080   1.046
 6594TIP3    H119788   0.251   1.073   1.011
 6594TIP3    H219789   0.345   1.168   1.081
 6595TIP3   OH219790   5.770   5.189   1.039
 6595TIP3    H119791   5.754   5.227   0.953
 6595TIP3    H219792   5.865   5.186   1.047
 6596TIP3   OH219793   4.678   5.751   2.254
 6596TIP3    H119794   4.739   5.789   2.318
 6596TIP3    H219795   4.599   5.734   2.305
 6597TIP3   OH219796   0.454   1.741   0.735
 6597TIP3    H119797   0.487   1.831   0.734
 6597TIP3    H219798   0.415   1.729   0.648
 6598TIP3   OH219799   1.311   4.694   2.605
 6598TIP3    H119800   1.330   4.603   2.582
 6598TIP3    H219801   1.274   4.689   2.693
 6599TIP3   OH219802   1.890   4.620   0.143
 6599TIP3    H119803   1.886   4.586   0.054
 6599TIP3    H219804   1.857   4.710   0.136
 6600TIP3   OH219805   2.685   4.900   3.268
 6600TIP3    H119806   2.650   4.828   3.216
 6600TIP3    H219807   2.769   4.868   3.300
 6601TIP3   OH219808   6.206   3.422   1.266
 6601TIP3    H119809   6.203   3.428   1.361
 6601TIP3    H219810   6.138   3.359   1.243
 6602TIP3   OH219811   2.253   0.411   2.387
 6602TIP3    H119812   2.193   0.485   2.394
 6602TIP3    H219813   2.202   0.341   2.347
 6603TIP3   OH219814   2.750   4.981   4.758
 6603TIP3    H119815   2.656   5.001   4.764
 6603TIP3    H219816   2.781   5.034   4.685
 6604TIP3   OH219817   4.655   3.269   2.234
 6604TIP3    H119818   4.587   3.245   2.297
 6604TIP3    H219819   4.610   3.320   2.167
 6605TIP3   OH219820   1.963   3.317   2.146
 6605TIP3    H119821   1.884   3.338   2.096
 6605TIP3    H219822   2.021   3.275   2.083
 6606TIP3   OH219823   5.583   5.456   2.767
 6606TIP3    H119824   5.602   5.413   2.683
 6606TIP3    H219825   5.563   5.547   2.743
 6607TIP3   OH219826   2.599   2.635   2.437
 6607TIP3    H119827   2.659   2.683   2.495
 6607TIP3    H219828   2.629   2.656   2.349
 6608TIP3   OH219829   4.501   3.424   0.143
 6608TIP3    H119830   4.574   3.362   0.135
 6608TIP3    H219831   4.423   3.371   0.125
 6609TIP3   OH219832   2.393   5.021   2.151
 6609TIP3    H119833   2.449   4.944   2.138
 6609TIP3    H219834   2.305   4.985   2.164
 6610TIP3   OH219835   4.371   5.679   1.536
 6610TIP3    H119836   4.418   5.721   1.608
 6610TIP3    H219837   4.287   5.654   1.573
 6611TIP3   OH219838   1.675   1.909   2.762
 6611TIP3    H119839   1.706   1.999   2.779
 6611TIP3    H219840   1.724   1.881   2.685
 6612TIP3   OH219841   4.406   1.989   2.931
 6612TIP3    H119842   4.381   1.980   3.022
 6612TIP3    H219843   4.399   1.900   2.895
 6613TIP3   OH219844   4.694   5.404   1.088
 6613TIP3    H119845   4.714   5.489   1.049
 6613TIP3    H219846   4.740   5.405   1.172
 6614TIP3   OH219847   0.023   0.436   2.077
 6614TIP3    H119848  -0.052   0.394   2.036
 6614TIP3    H219849   0.097   0.378   2.058
 6615TIP3   OH219850   2.728   0.448   3.269
 6615TIP3    H119851   2.760   0.472   3.182
 6615TIP3    H219852   2.686   0.362   3.256
 6616TIP3   OH219853   5.324   0.844   3.192
 6616TIP3    H119854   5.243   0.889   3.216
 6616TIP3    H219855   5.366   0.824   3.276
 6617TIP3   OH219856   1.842   4.801   2.985
 6617TIP3    H119857   1.815   4.832   3.071
 6617TIP3    H219858   1.790   4.852   2.923
 6618TIP3   OH219859   5.508   4.672   2.092
 6618TIP3    H119860   5.460   4.594   2.066
 6618TIP3    H219861   5.586   4.638   2.137
 6619TIP3   OH219862   2.018   1.904   4.903
 6619TIP3    H119863   2.071   1.847   4.847
 6619TIP3    H219864   2.012   1.986   4.855
 6620TIP3   OH219865   1.027   2.211   3.051
 6620TIP3    H119866   1.011   2.122   3.020
 6620TIP3    H219867   1.122   2.216   3.061
 6621TIP3   OH219868   5.909   3.429   1.503
 6621TIP3    H119869   5.886   3.522   1.501
 6621TIP3    H219870   5.870   3.392   1.424
 6622TIP3   OH219871   2.762   0.780   4.561
 6622TIP3    H119872   2.734   0.742   4.477
 6622TIP3    H219873   2.707   0.737   4.626
 6623TIP3   OH219874   6.297   4.903   4.850
 6623TIP3    H119875   6.302   4.906   4.945
 6623TIP3    H219876   6.348   4.825   4.826
 6624TIP3   OH219877   6.043   1.532   1.758
 6624TIP3    H119878   6.098   1.590   1.705
 6624TIP3    H219879   6.092   1.522   1.840
 6625TIP3   OH219880   5.695   5.819   3.100
 6625TIP3    H119881   5.791   5.819   3.103
 6625TIP3    H219882   5.673   5.810   3.007
 6626TIP3   OH219883   1.271   5.928   0.330
 6626TIP3    H119884   1.332   5.965   0.393
 6626TIP3    H219885   1.290   5.834   0.329
 6627TIP3   OH219886   6.238   2.621   3.018
 6627TIP3    H119887   6.249   2.622   2.923
 6627TIP3    H219888   6.230   2.528   3.041
 6628TIP3   OH219889   3.885   0.570   4.537
 6628TIP3    H119890   3.873   0.598   4.446
 6628TIP3    H219891   3.838   0.636   4.588
 6629TIP3   OH219892   5.394   4.404   0.998
 6629TIP3    H119893   5.351   4.329   0.958
 6629TIP3    H219894   5.327   4.443   1.054
 6630TIP3   OH219895   5.100   5.654   3.004
 6630TIP3    H119896   5.095   5.600   3.083
 6630TIP3    H219897   5.117   5.591   2.934
 6631TIP3   OH219898   3.073   5.823   1.592
 6631TIP3    H119899   3.155   5.779   1.567
 6631TIP3    H219900   3.063   5.803   1.685
 6632TIP3   OH219901   2.909   0.618   2.717
 6632TIP3    H119902   2.888   0.564   2.793
 6632TIP3    H219903   2.891   0.708   2.746
 6633TIP3   OH219904   0.644   2.638   2.156
 6633TIP3    H119905   0.561   2.642   2.203
 6633TIP3    H219906   0.708   2.674   2.216
 6634TIP3   OH219907   3.393   3.231   3.985
 6634TIP3    H119908   3.474   3.280   3.991
 6634TIP3    H219909   3.389   3.201   3.895
 6635TIP3   OH219910   1.330   2.130   4.036
 6635TIP3    H119911   1.288   2.184   4.104
 6635TIP3    H219912   1.257   2.102   3.980
 6636TIP3   OH219913   1.397   0.603   2.528
 6636TIP3    H119914   1.406   0.653   2.447
 6636TIP3    H219915   1.454   0.649   2.591
 6637TIP3   OH219916   3.292   5.240   3.229
 6637TIP3    H119917   3.357   5.264   3.296
 6637TIP3    H219918   3.345   5.213   3.154
 6638TIP3   OH219919   1.826   3.733   1.493
 6638TIP3    H119920   1.776   3.802   1.536
 6638TIP3    H219921   1.904   3.777   1.459
 6639TIP3   OH219922   3.458   1.126   3.058
 6639TIP3    H119923   3.544   1.154   3.028
 6639TIP3    H219924   3.457   1.031   3.043
 6640TIP3   OH219925   2.825   2.749   4.293
 6640TIP3    H119926   2.905   2.774   4.246
 6640TIP3    H219927   2.757   2.806   4.257
   6.34452   5.98167   5.18028   0.00000   0.00000  -2.11484   0.00000  -2.11484  -2.99084
