Title
19927
    1ASP      N    1   0.456   1.668   2.386 -0.0071  0.4059  0.6428
    1ASP    HT1    2   0.405   1.654   2.296  1.7731  2.0443 -0.6876
    1ASP    HT2    3   0.453   1.583   2.446  0.8830 -1.0567 -1.3061
    1ASP    HT3    4   0.556   1.692   2.371  0.6900 -2.2579  0.6161
    1ASP     CA    5   0.384   1.776   2.459 -0.3838 -0.3410 -0.2925
    1ASP     HA    6   0.282   1.742   2.466 -0.6542  0.4407 -0.3902
    1ASP     CB    7   0.451   1.788   2.600 -0.1297 -0.3539 -0.7729
    1ASP    HB1    8   0.550   1.837   2.589  0.0183 -0.5844 -0.4973
    1ASP    HB2    9   0.459   1.688   2.648  1.4955 -0.2959 -0.8518
    1ASP     CG   10   0.364   1.866   2.697  0.2285 -0.2326  0.4614
    1ASP    OD1   11   0.414   1.901   2.812  0.0250 -0.2857  0.0114
    1ASP    OD2   12   0.244   1.898   2.665  0.4741 -0.1337  0.0631
    1ASP      C   13   0.378   1.907   2.370 -0.4142 -0.5435 -0.3641
    1ASP      O   14   0.346   1.902   2.252  0.5351 -0.2259  0.0045
    2ALA      N   15   0.408   2.026   2.431  0.3559 -0.1331  0.3163
    2ALA     HN   16   0.414   2.030   2.530 -0.6330 -1.0108  0.4301
    2ALA     CA   17   0.397   2.150   2.359 -0.9440 -0.4651 -0.7809
    2ALA     HA   18   0.359   2.139   2.259  1.2709  2.4881 -2.0812
    2ALA     CB   19   0.308   2.241   2.452  0.8258 -0.0790 -0.1146
    2ALA    HB1   20   0.303   2.346   2.418  1.3036  0.5259  1.5530
    2ALA    HB2   21   0.341   2.247   2.558  2.2341 -2.3139 -0.3509
    2ALA    HB3   22   0.206   2.202   2.471 -0.2314  1.8777 -1.5572
    2ALA      C   23   0.531   2.217   2.342  0.2909  0.8735 -0.0449
    2ALA      O   24   0.554   2.309   2.264  0.1305  0.5445 -0.1624
    3ASP      N   25   0.638   2.166   2.410 -0.5930  0.1751  0.0731
    3ASP     HN   26   0.624   2.096   2.480  0.4262  1.8191  2.0276
    3ASP     CA   27   0.773   2.215   2.398 -0.9382  0.8080 -0.5287
    3ASP     HA   28   0.796   2.244   2.296  1.2334  1.8037  0.1909
    3ASP     CB   29   0.796   2.342   2.482  0.7215  0.6172 -0.2032
    3ASP    HB1   30   0.781   2.328   2.591  0.1689  0.7337 -0.2631
    3ASP    HB2   31   0.727   2.419   2.442  0.5754  1.1580  1.0536
    3ASP     CG   32   0.930   2.411   2.454  0.6990 -0.1999 -0.5413
    3ASP    OD1   33   0.961   2.502   2.533 -0.3881  0.3965  0.1634
    3ASP    OD2   34   0.993   2.385   2.348 -0.3455 -0.6214 -0.2783
    3ASP      C   35   0.869   2.097   2.435 -0.7977 -0.2692 -0.1563
    3ASP      O   36   0.824   1.996   2.490  0.0138  0.3298  0.3265
    4GLY      N   37   0.994   2.110   2.393 -0.2027 -0.0214 -0.1410
    4GLY     HN   38   1.008   2.197   2.347 -3.3706  0.8289  0.2530
    4GLY     CA   39   1.102   2.012   2.405  0.9683  0.1887  0.7344
    4GLY    HA1   40   1.172   2.034   2.326  0.5882 -1.2743 -0.0526
    4GLY    HA2   41   1.063   1.912   2.395 -0.1885  0.6192  0.8045
    4GLY      C   42   1.175   2.030   2.531 -0.6490  0.3690  0.2383
    4GLY      O   43   1.155   2.128   2.606 -0.4601 -0.3351  0.0992
    5PRO      N   44   1.262   1.932   2.564  0.2045 -0.3804  0.5000
    5PRO     CD   45   1.313   1.830   2.471  1.0495 -0.1195 -0.4747
    5PRO    HD1   46   1.364   1.879   2.385  2.0402  4.1377  2.2262
    5PRO    HD2   47   1.230   1.770   2.428  1.4052 -1.0675  0.1207
    5PRO     CA   48   1.302   1.905   2.703  0.1197 -0.4090 -0.1802
    5PRO     HA   49   1.219   1.916   2.772 -0.9275 -1.0476 -1.2805
    5PRO     CB   50   1.368   1.764   2.708 -0.4635  0.1691 -0.0654
    5PRO    HB1   51   1.295   1.685   2.736 -1.7082  1.2874 -0.0036
    5PRO    HB2   52   1.456   1.766   2.776 -0.2681 -2.7016 -0.1150
    5PRO     CG   53   1.405   1.743   2.563  0.3334 -1.2128  0.5427
    5PRO    HG1   54   1.506   1.784   2.541 -0.3625  0.0549 -0.4673
    5PRO    HG2   55   1.412   1.637   2.530 -1.5670 -1.5159  0.9644
    5PRO      C   56   1.405   2.014   2.743  0.3736  0.6163  0.2718
    5PRO      O   57   1.405   2.039   2.865  0.6468 -0.1043 -0.1229
    6GLY      N   58   1.491   2.058   2.648  0.1917 -0.5567  0.1873
    6GLY     HN   59   1.469   2.027   2.555 -1.0743  2.3023 -0.5934
    6GLY     CA   60   1.588   2.167   2.655 -0.2981 -0.5459 -0.0720
    6GLY    HA1   61   1.531   2.256   2.674 -2.4109 -1.9324  0.5003
    6GLY    HA2   62   1.641   2.171   2.561 -0.6016  0.8587 -0.2051
    6GLY      C   63   1.694   2.146   2.765 -0.0478  0.0273 -0.0985
    6GLY      O   64   1.721   2.035   2.800  0.1331  0.2732  0.2055
    7ASP      N   65   1.755   2.253   2.816  0.5074 -0.0961 -0.7823
    7ASP     HN   66   1.733   2.343   2.778  2.7475  1.3863  1.0905
    7ASP     CA   67   1.853   2.246   2.920  0.4178 -0.0070 -0.1000
    7ASP     HA   68   1.925   2.171   2.891 -1.0545 -2.3492  1.9224
    7ASP     CB   69   1.922   2.383   2.937  0.3728  0.9227  0.5708
    7ASP    HB1   70   1.987   2.383   3.027  2.5230  1.3492 -0.9136
    7ASP    HB2   71   1.852   2.469   2.935  0.8155  1.4413  3.2600
    7ASP     CG   72   2.022   2.411   2.822 -0.1348 -0.4320 -1.2422
    7ASP    OD1   73   2.104   2.504   2.842  0.3703  0.0361  0.4884
    7ASP    OD2   74   2.013   2.356   2.708  0.4759 -0.6614  0.2862
    7ASP      C   75   1.799   2.207   3.052  0.4514  0.1730 -0.0783
    7ASP      O   76   1.685   2.231   3.085  0.6366  0.8098  0.2532
    8PRO      N   77   1.881   2.146   3.141  0.1004  0.6464  0.6127
    8PRO     CD   78   2.017   2.113   3.116  0.0725  0.0212 -0.3016
    8PRO    HD1   79   2.089   2.191   3.146  1.3810 -1.4822  0.6594
    8PRO    HD2   80   2.040   2.071   3.016  0.5312 -3.1783  1.0147
    8PRO     CA   81   1.842   2.118   3.283  0.6749 -0.2294 -1.0027
    8PRO     HA   82   1.763   2.045   3.285 -1.4234  1.9524 -0.0047
    8PRO     CB   83   1.966   2.060   3.345 -0.8271  0.3082 -0.6320
    8PRO    HB1   84   1.944   1.980   3.419  0.2141  1.4866  1.0469
    8PRO    HB2   85   2.023   2.144   3.390 -1.4500 -0.3273  1.4580
    8PRO     CG   86   2.032   2.007   3.223 -0.2950  0.2065  0.0938
    8PRO    HG1   87   2.139   1.990   3.244  0.1802 -0.9139 -2.7676
    8PRO    HG2   88   1.993   1.908   3.192  1.2454 -0.4825  0.3134
    8PRO      C   89   1.789   2.236   3.364 -0.1736  0.6008  0.2725
    8PRO      O   90   1.798   2.347   3.316  0.0750  0.2028 -0.5137
    9ASP      N   91   1.755   2.209   3.490 -0.4086  0.2762  0.0507
    9ASP     HN   92   1.776   2.118   3.526  1.0291  0.1358 -1.0850
    9ASP     CA   93   1.706   2.311   3.589 -0.4886 -0.6594 -0.8116
    9ASP     HA   94   1.614   2.353   3.552 -1.2716 -0.2319  1.4367
    9ASP     CB   95   1.697   2.260   3.737 -0.0221 -0.0240 -0.2250
    9ASP    HB1   96   1.643   2.335   3.799 -1.7516  0.1359 -1.8287
    9ASP    HB2   97   1.794   2.232   3.783 -1.4285 -3.5695  0.9312
    9ASP     CG   98   1.608   2.137   3.739 -0.1247  1.2136  0.0596
    9ASP    OD1   99   1.619   2.052   3.833  0.2578 -0.5074  0.4295
    9ASP    OD2  100   1.518   2.123   3.657  0.0769 -0.4604 -0.2194
    9ASP      C  101   1.799   2.433   3.606 -0.5321 -0.8528  0.6077
    9ASP      O  102   1.923   2.425   3.609 -0.1140 -0.4113  0.5557
   10ALA      N  103   1.741   2.558   3.623 -0.7101  0.0147  0.5170
   10ALA     HN  104   1.642   2.569   3.636 -1.1068  1.2063 -2.5877
   10ALA     CA  105   1.816   2.682   3.610  0.0712 -0.2414  0.3715
   10ALA     HA  106   1.918   2.671   3.644  0.0683  2.9388  1.7577
   10ALA     CB  107   1.804   2.748   3.470 -0.1759  0.2496 -0.7347
   10ALA    HB1  108   1.874   2.834   3.459  0.0948  0.0842 -0.2941
   10ALA    HB2  109   1.699   2.770   3.443 -0.5987  0.3562  0.9416
   10ALA    HB3  110   1.848   2.678   3.396  1.1819  0.1162  0.1674
   10ALA      C  111   1.763   2.790   3.701 -0.3212 -0.4975 -0.8325
   10ALA      O  112   1.641   2.818   3.711 -0.3306  0.3410 -0.3179
   11GLY      N  113   1.853   2.862   3.769 -0.6674 -0.5813 -0.4665
   11GLY     HN  114   1.951   2.847   3.756 -0.2006  2.0778 -0.7470
   11GLY     CA  115   1.825   2.992   3.840 -0.0083  0.9902 -0.3204
   11GLY    HA1  116   1.790   2.957   3.936  0.2702 -1.4124 -1.0196
   11GLY    HA2  117   1.750   3.046   3.785 -0.2062  0.7607 -0.2771
   11GLY      C  118   1.951   3.077   3.857 -0.5176  0.5128 -0.1008
   11GLY    OT1  119   1.953   3.194   3.811 -0.4484  0.0512  0.2922
   11GLY    OT2  120   2.056   3.020   3.907 -0.0137  0.1323 -0.1200
   12SOD    SOD  121   5.938   0.576   3.727 -0.5997 -0.6172 -0.3323
   13SOD    SOD  122   0.411   0.095   3.375 -0.5075  0.0888  0.2431
   14SOD    SOD  123   1.278   5.194   3.732 -0.7462 -0.3557 -0.0018
   15SOD    SOD  124   5.808   2.442   4.746 -0.4538  0.3318  0.1537
   16SOD    SOD  125   5.880   3.536   1.701  0.2379  0.4214  0.1228
   17SOD    SOD  126   6.284   2.202   1.412 -0.3724 -0.1484 -0.1497
   18SOD    SOD  127   2.543   1.893   4.030 -0.4429 -0.3253 -0.3946
   19SOD    SOD  128   1.093   2.690   4.792  0.0074 -0.1885 -0.2563
   20SOD    SOD  129   3.683   3.931   3.692  0.2272 -0.1691  0.0585
   21SOD    SOD  130   0.126   2.578   0.271  0.4733 -0.0932 -0.4743
   22SOD    SOD  131   1.343   3.109   2.065  0.1099 -0.1296  0.1885
   23SOD    SOD  132   4.654   3.501   5.136  0.0055  0.1484  0.5107
   24SOD    SOD  133   0.883   2.191   3.011  0.2320  0.6193 -0.6269
   25SOD    SOD  134   2.253   5.414   0.372  0.1287  0.1627  0.7393
   26SOD    SOD  135   2.993   1.563   1.829 -0.2320  0.2095  0.6239
   27SOD    SOD  136   0.669   5.131   0.218 -0.2870 -0.1026  0.2944
   28SOD    SOD  137   1.019   5.780   2.450 -0.4883  0.1193 -0.0409
   29SOD    SOD  138   3.512   0.875   1.728  0.0561 -0.3668  0.4613
   30SOD    SOD  139   4.734   4.861   3.925  0.0632 -0.0364 -0.2936
   31SOD    SOD  140   1.200   0.370   3.125  0.6512  0.1692 -0.6051
   32SOD    SOD  141   5.986   3.238   5.168 -0.1349 -0.4610 -0.3500
   33SOD    SOD  142   5.291   5.144   2.604  0.1803  0.0088  0.1323
   34CLA    CLA  143   4.540   5.158   1.543 -0.2306 -0.1528  0.6955
   35CLA    CLA  144   1.715   5.831   4.628 -0.2405  0.1980  0.1483
   36CLA    CLA  145   4.498   2.726   3.795  0.0599 -0.0065 -0.2032
   37CLA    CLA  146   4.624   1.985   4.456 -0.1192 -0.0130  0.1070
   38CLA    CLA  147   1.341   4.931   0.017 -0.2197 -0.3335  0.6642
   39CLA    CLA  148   1.637   1.755   2.177 -0.0868 -0.0202  0.1396
   40CLA    CLA  149   4.877   2.061   1.289  0.3225  0.4087  0.2910
   41CLA    CLA  150   0.972   5.046   2.502 -0.4472 -0.4246  0.1262
   42CLA    CLA  151   3.828   5.943   2.883  0.0073 -0.2020 -0.1293
   43CLA    CLA  152   5.191   2.532   0.701  0.0580 -0.0580 -0.2139
   44CLA    CLA  153   5.082   5.904   4.496 -0.3675  0.0018  0.2431
   45CLA    CLA  154   2.417   1.887   5.101 -0.2830 -0.2126 -0.3172
   46CLA    CLA  155   4.108   0.521   1.616  0.0572  0.3967  0.0428
   47CLA    CLA  156   1.263   0.634   3.701 -0.3707 -0.1922  0.0722
   48CLA    CLA  157   5.685   4.849   2.752  0.1220 -0.1660 -0.2544
   49CLA    CLA  158   3.158   4.931   4.718 -0.3673  0.2315  0.1162
   50CLA    CLA  159   0.041   3.094   4.559 -0.1204 -0.0129  0.1999
   51CLA    CLA  160   2.105   5.255   0.525 -0.0007  0.1376  0.2758
   52TIP3   OH2  161   3.792   0.011   1.065 -0.3660  0.0272 -0.2211
   52TIP3    H1  162   3.757  -0.015   0.980  0.7385 -3.6807  0.2698
   52TIP3    H2  163   3.882   0.039   1.047  0.6368 -2.8513 -0.1901
   53TIP3   OH2  164   2.362   3.665   1.596 -0.4649 -0.1031 -0.1566
   53TIP3    H1  165   2.287   3.701   1.643 -0.9534  0.8649 -1.6252
   53TIP3    H2  166   2.439   3.704   1.638 -0.8809  0.6370 -0.0839
   54TIP3   OH2  167   0.542   2.480   1.116 -0.3259  0.0926  0.1784
   54TIP3    H1  168   0.510   2.446   1.032 -0.8614  1.3030 -0.1317
   54TIP3    H2  169   0.615   2.538   1.092  1.4755 -1.8219  0.8037
   55TIP3   OH2  170   1.757   0.746   4.791 -0.3553 -0.5813  0.0420
   55TIP3    H1  171   1.795   0.823   4.748 -2.1494 -0.6567 -1.8144
   55TIP3    H2  172   1.807   0.738   4.873  1.3397  1.2334 -0.7197
   56TIP3   OH2  173   5.796   0.774   4.743  0.2266  0.2257  1.0749
   56TIP3    H1  174   5.716   0.773   4.691 -0.4867 -2.1548  2.0965
   56TIP3    H2  175   5.767   0.792   4.832  1.0031  0.6803  1.2457
   57TIP3   OH2  176   2.253   2.856   2.944  0.5070  0.4715  0.1828
   57TIP3    H1  177   2.253   2.845   2.849 -0.5704 -1.5976  0.3646
   57TIP3    H2  178   2.185   2.921   2.960  0.8053  0.9595 -0.4503
   58TIP3   OH2  179   0.549   5.288   1.232 -0.1030  0.0531  0.8189
   58TIP3    H1  180   0.513   5.355   1.174  0.9491  0.3167  0.4485
   58TIP3    H2  181   0.589   5.338   1.303 -0.0860 -0.2204  1.0016
   59TIP3   OH2  182   4.689   2.348   1.637 -0.2980  0.0979  0.1642
   59TIP3    H1  183   4.665   2.316   1.723  0.1636 -1.5889 -0.2908
   59TIP3    H2  184   4.780   2.376   1.647 -0.4545  0.5304  0.3820
   60TIP3   OH2  185   3.966   0.458   0.071 -0.0842  0.1259 -0.2419
   60TIP3    H1  186   4.021   0.518   0.021 -0.5501  0.4058 -0.4274
   60TIP3    H2  187   3.988   0.475   0.163  1.8151 -1.3843 -0.3651
   61TIP3   OH2  188   0.474   3.026   3.534 -0.4716  0.3043  0.2493
   61TIP3    H1  189   0.416   3.102   3.529 -0.3966  0.3545  0.1278
   61TIP3    H2  190   0.457   2.978   3.453 -1.8430 -0.7696  1.1337
   62TIP3   OH2  191   3.502   2.827   1.986  0.3186  0.1288  0.0990
   62TIP3    H1  192   3.417   2.807   2.027 -0.3996 -0.8561 -1.7275
   62TIP3    H2  193   3.550   2.875   2.053 -0.4493 -2.0621  2.4160
   63TIP3   OH2  194   1.433   5.240   4.588 -0.6670  0.1753  0.2969
   63TIP3    H1  195   1.377   5.202   4.656 -1.3915 -2.3032 -1.5342
   63TIP3    H2  196   1.508   5.180   4.583 -0.0076  1.0265 -0.2594
   64TIP3   OH2  197   4.146   1.590   3.837 -0.2001 -0.6712 -0.1762
   64TIP3    H1  198   4.061   1.587   3.793 -1.0684  0.6439  1.2884
   64TIP3    H2  199   4.127   1.630   3.922  2.3381  2.4656 -0.9048
   65TIP3   OH2  200   3.469   4.311   2.325 -0.3316 -0.1567 -0.4820
   65TIP3    H1  201   3.384   4.268   2.324  0.7416 -2.7067  2.4218
   65TIP3    H2  202   3.520   4.265   2.259  0.3918 -2.6860  1.6740
   66TIP3   OH2  203   2.140   0.121   4.308  0.1396 -0.1901 -0.0532
   66TIP3    H1  204   2.085   0.184   4.354  0.5560 -0.2867  0.5835
   66TIP3    H2  205   2.092   0.103   4.227  0.1285  1.1269 -0.3630
   67TIP3   OH2  206   5.037   2.135   4.078  0.5633 -0.8934  0.2679
   67TIP3    H1  207   5.009   2.223   4.052 -1.7690 -1.9098 -0.8998
   67TIP3    H2  208   5.073   2.096   3.998  0.6441 -1.3633  0.5284
   68TIP3   OH2  209   6.219   3.951   3.399 -0.1888 -0.0888 -0.1976
   68TIP3    H1  210   6.160   3.876   3.406 -1.5411  0.6892 -2.2750
   68TIP3    H2  211   6.289   3.932   3.461 -1.4586 -2.1407  0.7176
   69TIP3   OH2  212   1.045   4.558   3.091 -0.0581 -0.5545  0.0119
   69TIP3    H1  213   1.049   4.489   3.025 -0.2763  0.4397 -1.0786
   69TIP3    H2  214   1.035   4.639   3.041  3.7063  0.7219  1.0270
   70TIP3   OH2  215   2.367   3.867   1.968  0.0291  0.0878  0.1650
   70TIP3    H1  216   2.441   3.868   1.908 -1.3413 -0.5280 -1.6123
   70TIP3    H2  217   2.317   3.789   1.943 -0.7582 -0.0120  1.9123
   71TIP3   OH2  218   3.288   3.609   0.165 -0.2152 -0.0427  0.2460
   71TIP3    H1  219   3.265   3.551   0.238  1.5777 -1.7820 -0.5111
   71TIP3    H2  220   3.310   3.693   0.207 -1.3636 -0.3261  1.4848
   72TIP3   OH2  221   2.834   4.483   2.705 -0.3335  0.2174 -0.2793
   72TIP3    H1  222   2.848   4.412   2.766  0.2782  1.4672  1.0896
   72TIP3    H2  223   2.816   4.440   2.621  1.5058 -1.5267  0.1631
   73TIP3   OH2  224   3.286   0.291   3.195 -0.4957 -0.3720  0.0609
   73TIP3    H1  225   3.332   0.336   3.265  0.7674 -0.2730 -0.8178
   73TIP3    H2  226   3.214   0.246   3.239  0.2685 -0.2983  1.4217
   74TIP3   OH2  227   6.138   0.145   4.782  0.0226  0.3117  0.3145
   74TIP3    H1  228   6.087   0.160   4.861  0.3453 -2.5517  1.1880
   74TIP3    H2  229   6.229   0.143   4.812  0.1847 -0.2894 -0.1828
   75TIP3   OH2  230   3.169   3.625   3.049  0.1092  0.3843 -0.0823
   75TIP3    H1  231   3.076   3.644   3.037 -0.4259 -2.4895 -1.2502
   75TIP3    H2  232   3.209   3.711   3.064 -2.7510  1.6807  0.8787
   76TIP3   OH2  233   4.412   5.063   2.852  0.3239 -0.6885 -0.5568
   76TIP3    H1  234   4.403   5.031   2.942  0.9065 -1.2471 -0.6883
   76TIP3    H2  235   4.323   5.086   2.826  0.3386  0.9628  0.6760
   77TIP3   OH2  236   5.487   1.622   0.869 -0.7863  0.5966 -0.2412
   77TIP3    H1  237   5.571   1.608   0.826 -1.2127 -1.2146 -0.6010
   77TIP3    H2  238   5.466   1.714   0.853  1.6503  1.4387  0.8814
   78TIP3   OH2  239   4.679   2.927   4.784 -0.1052 -0.1484 -0.2164
   78TIP3    H1  240   4.596   2.966   4.756 -0.1522 -0.0304  0.0803
   78TIP3    H2  241   4.732   3.001   4.812 -0.7811 -0.3797  1.9027
   79TIP3   OH2  242   5.292   1.197   4.187  0.0421  0.3926  0.4780
   79TIP3    H1  243   5.284   1.219   4.279 -0.0348 -1.1049  0.8646
   79TIP3    H2  244   5.345   1.267   4.149 -0.9366  1.6557  1.3923
   80TIP3   OH2  245   2.903   3.494   2.833  0.2931 -0.2852  0.0009
   80TIP3    H1  246   2.872   3.527   2.918  0.1672 -2.0409  0.6772
   80TIP3    H2  247   2.944   3.570   2.792 -2.4320  1.4692  0.2219
   81TIP3   OH2  248   2.885   2.039   2.554 -0.3508  0.1830 -0.0995
   81TIP3    H1  249   2.848   2.127   2.546 -0.0459  0.2021 -1.5014
   81TIP3    H2  250   2.823   1.991   2.608 -0.7419  1.1375  0.3120
   82TIP3   OH2  251   2.134   3.425   4.190  0.2496  0.2367 -0.7800
   82TIP3    H1  252   2.215   3.393   4.229  0.3281  1.2142 -0.1244
   82TIP3    H2  253   2.147   3.414   4.095  1.3600  0.8764 -0.7123
   83TIP3   OH2  254   2.071   3.235   5.024  0.2220 -0.1830 -0.7400
   83TIP3    H1  255   2.125   3.249   5.101  1.6237 -0.5664 -1.6305
   83TIP3    H2  256   2.056   3.323   4.989 -0.3825 -0.0129 -0.0723
   84TIP3   OH2  257   2.484   0.630   2.925  0.7707 -0.5106 -0.1206
   84TIP3    H1  258   2.445   0.606   2.840 -1.2936 -0.0347  0.6246
   84TIP3    H2  259   2.540   0.705   2.905 -2.2871  1.8436 -0.6843
   85TIP3   OH2  260   3.924   2.184   1.464  0.3264 -0.4899  0.2299
   85TIP3    H1  261   3.884   2.147   1.543 -0.4417 -1.6888 -0.6810
   85TIP3    H2  262   3.850   2.204   1.407  0.7589  2.0578  0.4739
   86TIP3   OH2  263   5.510   0.898   1.198 -0.1953 -0.2110  0.3451
   86TIP3    H1  264   5.481   0.961   1.132  0.6656  0.9768  1.0376
   86TIP3    H2  265   5.432   0.846   1.218 -0.5243 -0.4487 -1.4120
   87TIP3   OH2  266   4.681   3.085   0.531  0.0615 -0.2155 -0.0127
   87TIP3    H1  267   4.743   3.156   0.514  1.4124 -0.9200  1.6545
   87TIP3    H2  268   4.728   3.025   0.588 -1.2420 -2.1908 -0.8821
   88TIP3   OH2  269   1.016   5.296   0.691  0.8814  0.1116  0.3705
   88TIP3    H1  270   1.006   5.220   0.633  0.4823  0.2247  0.2954
   88TIP3    H2  271   0.972   5.367   0.646  0.9327  0.3016  0.6186
   89TIP3   OH2  272   0.266   1.416   3.047 -0.6109  0.4620 -0.6573
   89TIP3    H1  273   0.184   1.385   3.009 -0.6936 -0.1395  0.0005
   89TIP3    H2  274   0.314   1.336   3.071 -0.0131  0.8112 -0.6625
   90TIP3   OH2  275   3.684   2.197   4.349  0.4761 -0.0157  0.4644
   90TIP3    H1  276   3.591   2.182   4.364  0.1812  1.7394  0.6856
   90TIP3    H2  277   3.728   2.135   4.407 -0.5571 -0.5829  0.6664
   91TIP3   OH2  278   6.073   0.135   4.373  0.4199 -0.2258  0.1488
   91TIP3    H1  279   6.142   0.200   4.375 -0.4012  0.7280 -1.0243
   91TIP3    H2  280   6.118   0.051   4.376  1.6433  0.3761 -0.7200
   92TIP3   OH2  281   5.638   1.616   1.120  0.0219 -0.3151 -0.2876
   92TIP3    H1  282   5.596   1.603   1.205  0.3502 -0.7489 -0.1860
   92TIP3    H2  283   5.572   1.589   1.056 -0.2152 -0.0171 -0.1677
   93TIP3   OH2  284   4.255   0.942   4.069 -0.0506 -0.0883  0.3960
   93TIP3    H1  285   4.221   1.026   4.040  0.1704  0.1319  0.7697
   93TIP3    H2  286   4.198   0.877   4.027 -2.5937  0.2938  2.9835
   94TIP3   OH2  287   3.052   2.031   0.320 -0.1731 -0.7165 -0.4005
   94TIP3    H1  288   3.018   2.067   0.239 -0.7259 -1.5532 -0.5588
   94TIP3    H2  289   3.049   2.103   0.383 -1.0224 -0.4258 -0.7676
   95TIP3   OH2  290   3.216   4.811   5.010 -0.0433  0.0108  0.2532
   95TIP3    H1  291   3.173   4.834   4.928  0.7021 -0.2775 -0.2255
   95TIP3    H2  292   3.252   4.723   4.995  0.6898  0.2370  0.6461
   96TIP3   OH2  293   3.470   5.233   1.202  0.8765  0.6263 -0.2402
   96TIP3    H1  294   3.395   5.289   1.224  1.1563  1.3608 -1.0651
   96TIP3    H2  295   3.432   5.146   1.191  0.6919  0.1740  2.9154
   97TIP3   OH2  296   3.156   1.785   2.237  0.1892 -0.4593 -0.4533
   97TIP3    H1  297   3.199   1.844   2.299  0.5479  0.2364 -1.3548
   97TIP3    H2  298   3.062   1.806   2.245  0.4307  1.4934 -1.9920
   98TIP3   OH2  299   5.241   5.588   1.970 -0.4846 -0.4508 -0.2455
   98TIP3    H1  300   5.199   5.659   2.019 -1.1288 -1.4973  0.7800
   98TIP3    H2  301   5.289   5.538   2.037  0.3405 -0.7175 -1.0223
   99TIP3   OH2  302   5.136   4.301   2.857 -0.1332  0.0380 -0.6608
   99TIP3    H1  303   5.048   4.339   2.854 -0.2662  0.1056  1.8527
   99TIP3    H2  304   5.195   4.373   2.833 -0.5366  1.2629  1.7587
  100TIP3   OH2  305   3.533   3.009   4.576 -0.0577  0.3515 -0.0805
  100TIP3    H1  306   3.584   3.076   4.530 -0.5489 -0.2274 -1.5152
  100TIP3    H2  307   3.599   2.951   4.615  0.3780  0.4758 -0.6190
  101TIP3   OH2  308   1.250   0.460   1.866 -0.3431  0.5595  0.0335
  101TIP3    H1  309   1.207   0.536   1.828 -1.0257 -0.4509 -1.3059
  101TIP3    H2  310   1.193   0.386   1.843  0.4975 -0.4106  0.9512
  102TIP3   OH2  311   3.679   1.321   2.107 -0.2661  0.0793  0.2444
  102TIP3    H1  312   3.591   1.291   2.126 -0.8589  0.8019 -1.2172
  102TIP3    H2  313   3.726   1.312   2.190 -1.4473 -1.1588  0.8217
  103TIP3   OH2  314   5.964   0.620   3.971 -0.5859  0.0046 -0.3636
  103TIP3    H1  315   6.055   0.640   3.997 -0.4431 -0.4270 -0.5344
  103TIP3    H2  316   5.936   0.552   4.032 -1.2206  0.9852  0.4923
  104TIP3   OH2  317   1.610   1.227   3.865  0.3877 -0.2945 -0.7972
  104TIP3    H1  318   1.631   1.160   3.800 -0.5719 -0.1579 -1.2661
  104TIP3    H2  319   1.623   1.310   3.819 -0.1739 -0.1935 -0.7781
  105TIP3   OH2  320   3.994   0.043   0.013  0.7766 -0.9850  0.5316
  105TIP3    H1  321   4.007   0.000   0.098  0.4070  3.0071  2.8461
  105TIP3    H2  322   4.081   0.044  -0.027  1.5913 -0.4260  2.2355
  106TIP3   OH2  323   1.523   2.843   0.207 -0.6218 -0.1430  0.0356
  106TIP3    H1  324   1.582   2.876   0.139  0.3430 -0.9062  0.4745
  106TIP3    H2  325   1.438   2.883   0.187 -0.1704  0.2726 -1.1419
  107TIP3   OH2  326   4.437   2.294   5.142  0.3730  0.2159 -0.1133
  107TIP3    H1  327   4.525   2.329   5.160  1.1260 -1.3157 -0.6824
  107TIP3    H2  328   4.430   2.297   5.046 -0.6813  1.4257 -0.0180
  108TIP3   OH2  329   4.900   1.771   2.232  0.1034  0.1311 -0.8398
  108TIP3    H1  330   4.863   1.844   2.183 -0.1128  0.5594 -0.0493
  108TIP3    H2  331   4.824   1.716   2.253  0.1444  0.1402 -0.6683
  109TIP3   OH2  332   6.038  -0.006   1.292 -0.1664 -0.1353  0.3235
  109TIP3    H1  333   6.003   0.048   1.363 -0.5731  0.4192 -0.2900
  109TIP3    H2  334   6.008   0.037   1.212 -0.9469 -1.5549 -0.1888
  110TIP3   OH2  335   3.441   4.120   3.241 -0.1038  0.2044  0.3067
  110TIP3    H1  336   3.458   4.197   3.295 -3.3566  0.4145  1.1966
  110TIP3    H2  337   3.406   4.055   3.302 -1.3294 -0.5248 -1.1109
  111TIP3   OH2  338   1.567   0.834   3.839 -0.2595  0.3535  0.2378
  111TIP3    H1  339   1.548   0.855   3.747 -2.1111  1.3093  0.7900
  111TIP3    H2  340   1.552   0.740   3.846 -1.8873  0.5587 -0.0801
  112TIP3   OH2  341   5.738   1.520   2.450  0.1616 -0.2468 -0.5101
  112TIP3    H1  342   5.794   1.500   2.375 -1.1530 -2.4828 -0.9636
  112TIP3    H2  343   5.769   1.461   2.519  0.3415  0.6922  0.2378
  113TIP3   OH2  344   1.541   3.766   0.964  0.1230 -0.2592  0.2139
  113TIP3    H1  345   1.590   3.694   1.004  2.6681  1.9441  1.3779
  113TIP3    H2  346   1.541   3.835   1.031 -1.4724  1.1518 -1.1492
  114TIP3   OH2  347   1.768   1.738   2.507  0.2399 -0.2434 -0.3592
  114TIP3    H1  348   1.834   1.705   2.447  0.0708  1.7811 -1.7709
  114TIP3    H2  349   1.689   1.747   2.453  0.2938  2.3691 -0.1387
  115TIP3   OH2  350   0.421   3.414   1.058 -0.3084  0.6243 -0.3528
  115TIP3    H1  351   0.484   3.395   1.128 -1.2402 -0.5869  0.1940
  115TIP3    H2  352   0.474   3.453   0.989  1.3439 -1.6246 -0.4802
  116TIP3   OH2  353   0.797   4.157   3.255  0.0260 -0.0627 -0.0772
  116TIP3    H1  354   0.755   4.220   3.313 -1.5264 -0.7215 -0.4281
  116TIP3    H2  355   0.730   4.091   3.238  1.7703 -2.2519  0.8619
  117TIP3   OH2  356   2.742   0.283   1.991  0.3245 -0.4669 -0.6209
  117TIP3    H1  357   2.786   0.209   2.033  1.6754  0.1191 -0.9161
  117TIP3    H2  358   2.801   0.357   2.007 -0.3953  0.2884 -1.3603
  118TIP3   OH2  359   2.805   0.325   4.427 -0.3489  0.4098 -0.0870
  118TIP3    H1  360   2.893   0.300   4.457  0.7378  1.0151 -2.5103
  118TIP3    H2  361   2.749   0.309   4.502  1.9438  0.6861  1.8271
  119TIP3   OH2  362   0.020   5.168   3.305 -0.5370  0.3878  0.0910
  119TIP3    H1  363  -0.013   5.179   3.394 -0.9416 -1.2862  0.1717
  119TIP3    H2  364   0.046   5.256   3.278 -1.8239  1.1777  1.3074
  120TIP3   OH2  365   4.194   3.568   3.669  0.1517 -0.0441 -0.2111
  120TIP3    H1  366   4.125   3.599   3.728  0.7059  0.8584 -0.0072
  120TIP3    H2  367   4.267   3.548   3.727  0.3064 -0.3026 -0.4916
  121TIP3   OH2  368   3.856   3.968   1.391  0.2134 -0.2472 -0.2793
  121TIP3    H1  369   3.836   4.062   1.391  3.3692  0.5637  1.5599
  121TIP3    H2  370   3.783   3.928   1.439 -0.4591  1.4546  0.1784
  122TIP3   OH2  371   1.457   1.274   3.333 -0.0943 -0.2084 -0.0759
  122TIP3    H1  372   1.478   1.358   3.374  1.6418 -0.2588 -0.7688
  122TIP3    H2  373   1.475   1.209   3.401 -0.7795 -0.0750  0.2407
  123TIP3   OH2  374   1.141   3.586   2.312 -0.0774 -0.3418 -0.0771
  123TIP3    H1  375   1.064   3.535   2.338  0.5770 -1.5879 -0.4885
  123TIP3    H2  376   1.167   3.548   2.227  1.4280 -0.4691  0.4119
  124TIP3   OH2  377   0.526   4.589   0.840  0.3895  0.2222 -0.7681
  124TIP3    H1  378   0.591   4.593   0.910 -0.2301  0.6248 -0.1982
  124TIP3    H2  379   0.530   4.499   0.807  0.1735 -0.1825  0.2879
  125TIP3   OH2  380   5.641   0.418   5.125  0.6370 -0.2102 -0.6353
  125TIP3    H1  381   5.682   0.493   5.166  1.8144 -0.6243 -1.0189
  125TIP3    H2  382   5.703   0.346   5.137 -0.7897 -1.3323  0.3923
  126TIP3   OH2  383   5.504   4.191   0.073 -0.3072 -0.1573 -0.6387
  126TIP3    H1  384   5.550   4.271   0.099 -1.0996  0.0556  0.1318
  126TIP3    H2  385   5.567   4.145   0.017 -0.0284  1.2275 -1.5097
  127TIP3   OH2  386   2.206   4.869   1.371 -0.4598  0.1782 -0.1699
  127TIP3    H1  387   2.193   4.949   1.421 -1.7855  0.5741 -1.0892
  127TIP3    H2  388   2.301   4.856   1.371 -0.3359  0.9321  1.2214
  128TIP3   OH2  389   0.622   1.411   3.318 -0.3785  0.5767 -0.6883
  128TIP3    H1  390   0.697   1.444   3.368 -1.1798 -0.1368  1.1049
  128TIP3    H2  391   0.603   1.479   3.254  1.7222  0.8179 -1.1313
  129TIP3   OH2  392   4.851   4.568   3.080  0.2277 -0.3282  0.0321
  129TIP3    H1  393   4.811   4.498   3.028  1.4610 -0.6119 -0.5816
  129TIP3    H2  394   4.944   4.545   3.083  0.5246  0.8661  0.5080
  130TIP3   OH2  395   5.084   4.091   0.772 -0.0393  0.3936  0.2904
  130TIP3    H1  396   5.111   4.089   0.680  0.2375 -1.7585  0.3729
  130TIP3    H2  397   5.073   4.184   0.791  0.9469  0.9586 -1.6002
  131TIP3   OH2  398   5.929   3.417   3.209  0.1942  0.1868  0.9001
  131TIP3    H1  399   5.899   3.362   3.137  1.9393  1.4320 -0.8544
  131TIP3    H2  400   5.856   3.477   3.226  0.1399  0.5576 -0.5567
  132TIP3   OH2  401   0.574   2.764   3.569  0.2145  0.4719 -0.2183
  132TIP3    H1  402   0.520   2.842   3.553 -0.0469  0.1049 -1.1820
  132TIP3    H2  403   0.626   2.786   3.646 -0.9992  1.0031  0.4800
  133TIP3   OH2  404   2.545   5.958   1.883  0.1659 -0.1598 -0.4866
  133TIP3    H1  405   2.550   5.907   1.802  1.9600 -1.2546  0.2704
  133TIP3    H2  406   2.525   5.893   1.950 -0.6508  0.6448  0.0711
  134TIP3   OH2  407   3.706   1.902   0.875  0.0368  0.1024  0.1515
  134TIP3    H1  408   3.744   1.900   0.963 -1.8402  1.0150  1.0260
  134TIP3    H2  409   3.708   1.995   0.851  2.7338 -0.3476 -1.8510
  135TIP3   OH2  410   2.028   2.279   0.843  0.1353 -0.1521  0.2401
  135TIP3    H1  411   2.022   2.186   0.862 -0.2707 -0.2469 -0.3382
  135TIP3    H2  412   2.122   2.299   0.849  0.1143 -0.3480  1.4823
  136TIP3   OH2  413   2.148   1.174   4.131 -0.0605  0.3794 -0.1589
  136TIP3    H1  414   2.222   1.219   4.172  0.5985  0.2867 -1.2038
  136TIP3    H2  415   2.153   1.200   4.039 -0.8323 -0.3013 -0.3996
  137TIP3   OH2  416   2.331   0.845   0.253 -0.7151  0.3862 -0.0200
  137TIP3    H1  417   2.366   0.928   0.286  0.8518 -0.4436  0.4983
  137TIP3    H2  418   2.280   0.870   0.176 -3.0099  2.1761  1.9449
  138TIP3   OH2  419   0.601   5.823   2.635 -0.4849 -0.4931 -0.4112
  138TIP3    H1  420   0.643   5.744   2.669 -2.0352 -0.9154  0.6348
  138TIP3    H2  421   0.656   5.895   2.665 -0.2968 -1.0428  0.6007
  139TIP3   OH2  422   0.136   3.905   5.034 -0.1126 -0.0368  0.0256
  139TIP3    H1  423   0.052   3.952   5.031 -0.4945 -0.7102  0.0875
  139TIP3    H2  424   0.151   3.877   4.944 -0.2952 -0.5077  0.1397
  140TIP3   OH2  425   4.773   4.071   1.353 -0.5928  0.3243  0.1704
  140TIP3    H1  426   4.701   4.133   1.366  0.0034  2.0490 -3.5704
  140TIP3    H2  427   4.760   4.037   1.265  0.1389 -3.6877  1.3954
  141TIP3   OH2  428   5.834   4.637   4.280 -0.0057  0.1423  0.0326
  141TIP3    H1  429   5.913   4.675   4.241 -0.5608  0.4480 -0.7961
  141TIP3    H2  430   5.847   4.543   4.271  0.5465  0.1672  0.4667
  142TIP3   OH2  431   2.786   5.780   0.464 -0.0036 -0.3808 -0.6595
  142TIP3    H1  432   2.791   5.781   0.368  2.6736 -0.6004 -0.6226
  142TIP3    H2  433   2.756   5.692   0.486  1.9422 -1.2830 -1.3422
  143TIP3   OH2  434   3.307   0.333   5.185 -0.3817  0.4960 -0.7275
  143TIP3    H1  435   3.336   0.277   5.112 -0.9247 -1.3354  0.3997
  143TIP3    H2  436   3.212   0.327   5.184 -0.5124  2.1036 -1.0678
  144TIP3   OH2  437   4.813   2.576   4.467 -0.1897  0.1318 -0.2854
  144TIP3    H1  438   4.807   2.628   4.387 -0.6246  0.7489  0.1341
  144TIP3    H2  439   4.725   2.540   4.480  0.2351 -1.1824 -0.8630
  145TIP3   OH2  440   0.410   5.573   2.068  0.3095  0.3614  0.2057
  145TIP3    H1  441   0.441   5.483   2.070  0.1720  0.1641 -2.7764
  145TIP3    H2  442   0.315   5.567   2.076  0.3336  0.3075  0.4748
  146TIP3   OH2  443   1.724   1.192   1.574 -0.1497  0.2507  0.3586
  146TIP3    H1  444   1.782   1.260   1.609  0.7355 -1.0525  1.5433
  146TIP3    H2  445   1.678   1.235   1.502  0.1400  2.1861  1.2547
  147TIP3   OH2  446   4.854   0.402   1.124  0.5653  0.2908  0.2260
  147TIP3    H1  447   4.846   0.309   1.103 -1.4737  0.9111 -2.1547
  147TIP3    H2  448   4.940   0.427   1.091  1.1636 -0.7141  0.9510
  148TIP3   OH2  449   0.888   0.227   3.327  0.6019 -0.2146  0.1219
  148TIP3    H1  450   0.921   0.141   3.353  2.9215  0.1388 -1.3962
  148TIP3    H2  451   0.917   0.286   3.397 -0.0405 -0.4533  0.6068
  149TIP3   OH2  452   2.187   3.420   1.046 -0.1768 -0.1811 -0.1303
  149TIP3    H1  453   2.145   3.506   1.045 -1.2593 -0.6974 -0.7568
  149TIP3    H2  454   2.280   3.440   1.058 -0.6035  0.9711  1.7610
  150TIP3   OH2  455   2.120   0.952   1.875  0.4676 -0.2277 -0.6869
  150TIP3    H1  456   2.051   0.902   1.918  0.2037 -0.9551 -1.9104
  150TIP3    H2  457   2.100   0.946   1.782  3.1995 -2.1312 -1.2948
  151TIP3   OH2  458   5.515   2.982   1.536 -0.1579 -0.0715 -0.0595
  151TIP3    H1  459   5.462   3.005   1.460 -1.3204 -2.5119 -0.0647
  151TIP3    H2  460   5.573   2.913   1.505  0.5637  0.1102  0.8523
  152TIP3   OH2  461   0.605   0.235   3.283 -0.6825  0.2627 -0.0595
  152TIP3    H1  462   0.685   0.237   3.336 -0.8825  2.4523  0.2427
  152TIP3    H2  463   0.636   0.245   3.193 -0.6008  1.6549  0.0990
  153TIP3   OH2  464   2.606   3.012   4.493  0.0839  0.6762  0.0300
  153TIP3    H1  465   2.518   3.015   4.531 -0.0440  1.3911 -0.3013
  153TIP3    H2  466   2.609   3.086   4.433  1.0572  0.9300  0.3619
  154TIP3   OH2  467   1.382   2.167   3.939 -0.7111  0.3133 -0.3556
  154TIP3    H1  468   1.443   2.135   3.873 -1.1792 -0.0038 -0.6431
  154TIP3    H2  469   1.433   2.170   4.020 -0.9907 -2.6081  0.0418
  155TIP3   OH2  470   2.539   5.224   3.344 -0.1244 -0.3131  0.5035
  155TIP3    H1  471   2.526   5.129   3.338 -0.9039 -0.1341 -1.4153
  155TIP3    H2  472   2.607   5.235   3.411 -2.0833 -2.0104  2.9931
  156TIP3   OH2  473   3.625   3.052   0.683 -0.0245 -0.0422 -0.5521
  156TIP3    H1  474   3.714   3.074   0.710  0.3120 -0.2718 -1.4478
  156TIP3    H2  475   3.594   2.990   0.749  0.5547 -0.1237 -0.3531
  157TIP3   OH2  476   1.834   3.075   0.344  0.4908 -0.5437  0.0775
  157TIP3    H1  477   1.777   3.014   0.391  0.7191 -1.1899 -0.4669
  157TIP3    H2  478   1.919   3.031   0.343  1.3618  0.9202  1.9384
  158TIP3   OH2  479   0.652   1.476   2.220 -0.0343 -0.4111 -0.6965
  158TIP3    H1  480   0.742   1.447   2.207  0.6074  0.6777  0.9551
  158TIP3    H2  481   0.612   1.407   2.273  0.8728  0.5902  1.4295
  159TIP3   OH2  482   2.587   1.533   1.341  0.0867  0.0734  0.2719
  159TIP3    H1  483   2.652   1.542   1.271  0.1010  1.2236  0.4243
  159TIP3    H2  484   2.516   1.592   1.316 -0.1373  0.1079  0.9707
  160TIP3   OH2  485   0.721   3.604   3.915 -0.2616 -0.0109  0.1124
  160TIP3    H1  486   0.681   3.577   3.832  1.2157 -1.7143 -0.1069
  160TIP3    H2  487   0.679   3.548   3.981 -0.7396  0.6615  0.3830
  161TIP3   OH2  488   3.375   1.883   2.089  0.6330  0.1497 -0.1255
  161TIP3    H1  489   3.408   1.960   2.135  1.8677 -0.3103 -0.2071
  161TIP3    H2  490   3.295   1.860   2.136 -0.0766  1.8123 -0.4661
  162TIP3   OH2  491   0.331   2.806   0.585 -0.0796  0.3113  0.2905
  162TIP3    H1  492   0.322   2.749   0.661 -0.7144 -0.8693 -0.6324
  162TIP3    H2  493   0.267   2.876   0.600 -1.2538 -0.6973  0.2022
  163TIP3   OH2  494   0.514   0.653   2.638  0.2347  0.0883 -0.2267
  163TIP3    H1  495   0.556   0.637   2.722 -1.4689 -2.3810  0.2728
  163TIP3    H2  496   0.456   0.728   2.653  1.0183  0.5914  0.3481
  164TIP3   OH2  497   0.026   3.183   0.887 -0.2283 -0.3024  0.4258
  164TIP3    H1  498   0.077   3.203   0.966 -1.2543 -1.1507  1.3446
  164TIP3    H2  499   0.088   3.195   0.815  1.0220 -0.4648  1.4290
  165TIP3   OH2  500   2.633   0.169   4.915  0.9718 -0.0352 -0.0656
  165TIP3    H1  501   2.566   0.122   4.865  2.4632 -2.2130 -0.2030
  165TIP3    H2  502   2.659   0.107   4.984  2.2641  1.0453  0.4601
  166TIP3   OH2  503   0.154   4.535   5.093  0.3632 -0.4327  0.1767
  166TIP3    H1  504   0.230   4.590   5.110 -0.5007  0.4760  1.2432
  166TIP3    H2  505   0.097   4.548   5.168  0.7200 -3.9230  1.2115
  167TIP3   OH2  506   2.401   2.106   1.490  0.3996 -0.2724  0.5739
  167TIP3    H1  507   2.336   2.036   1.501 -1.6510  1.2101 -1.0622
  167TIP3    H2  508   2.458   2.075   1.420 -0.9966 -0.0695 -0.7197
  168TIP3   OH2  509   4.733   4.835   3.061  0.1483  0.3390  0.5797
  168TIP3    H1  510   4.768   4.746   3.066  0.2723  0.4125  1.0553
  168TIP3    H2  511   4.783   4.877   2.990 -0.5736 -0.2557 -0.3077
  169TIP3   OH2  512   0.375   1.660   0.787  0.0367 -0.0688  0.0812
  169TIP3    H1  513   0.311   1.635   0.853 -0.6293  0.7416 -0.2389
  169TIP3    H2  514   0.410   1.577   0.755 -1.6812 -0.5908 -0.5524
  170TIP3   OH2  515   5.861   0.255   2.987  0.3629 -0.2621  0.1624
  170TIP3    H1  516   5.865   0.305   2.906 -1.6790 -0.5416 -0.1442
  170TIP3    H2  517   5.879   0.164   2.960 -0.2328 -0.3426  0.0347
  171TIP3   OH2  518   3.741   1.809   2.889  0.4411 -0.4575 -0.0155
  171TIP3    H1  519   3.678   1.881   2.881 -0.3028 -1.1491 -0.5710
  171TIP3    H2  520   3.816   1.837   2.835  0.1245 -0.1399 -0.2979
  172TIP3   OH2  521   4.187   1.572   1.417  0.1525  0.0491 -0.0095
  172TIP3    H1  522   4.260   1.633   1.409  0.3208 -0.3948 -2.7028
  172TIP3    H2  523   4.130   1.592   1.343 -1.8779 -0.4410  1.3346
  173TIP3   OH2  524   4.775   0.952   2.878  0.0687  0.2661  0.0788
  173TIP3    H1  525   4.728   1.025   2.839  0.6368  0.5809 -0.0287
  173TIP3    H2  526   4.714   0.879   2.874 -1.2942  1.2102  2.0619
  174TIP3   OH2  527   3.719   2.881   1.251 -0.3526  0.0107 -0.1829
  174TIP3    H1  528   3.624   2.870   1.246 -0.3920  0.6078 -1.4933
  174TIP3    H2  529   3.731   2.974   1.270 -0.0341  0.0168 -0.4034
  175TIP3   OH2  530   0.529   3.766   3.767 -0.4192  0.1160  0.2162
  175TIP3    H1  531   0.558   3.694   3.711  0.9412  0.8041 -0.0253
  175TIP3    H2  532   0.607   3.788   3.818 -1.6694 -0.6253  2.5749
  176TIP3   OH2  533   0.669   5.909   1.595 -0.1857 -0.1095  0.2657
  176TIP3    H1  534   0.672   5.827   1.644  1.0455 -0.7202 -0.7895
  176TIP3    H2  535   0.736   5.900   1.528 -0.7843  1.3247 -0.5757
  177TIP3   OH2  536   0.842   1.192   3.397  0.3065 -0.1631 -0.0155
  177TIP3    H1  537   0.796   1.266   3.436  0.1598  0.2964 -1.0282
  177TIP3    H2  538   0.876   1.142   3.471 -1.1745 -0.1027  0.7270
  178TIP3   OH2  539   0.465   0.057   2.581 -0.4946 -0.2109  0.4931
  178TIP3    H1  540   0.522   0.071   2.504 -0.1765 -0.7611  0.6202
  178TIP3    H2  541   0.440   0.145   2.609  0.9665  0.0957  0.9273
  179TIP3   OH2  542   6.344   3.825   1.296  0.4234 -0.3603  0.0547
  179TIP3    H1  543   6.295   3.745   1.313 -0.0109 -0.6632 -2.2540
  179TIP3    H2  544   6.277   3.894   1.297  0.3954 -0.3782 -0.2664
  180TIP3   OH2  545   1.679   5.866   3.308  0.2573 -0.0593  0.4308
  180TIP3    H1  546   1.751   5.908   3.262 -0.5449  0.7090 -0.1704
  180TIP3    H2  547   1.697   5.881   3.401  0.7908  0.2555  0.2786
  181TIP3   OH2  548   6.000   0.239   4.003 -0.0763  0.6994  0.0948
  181TIP3    H1  549   5.908   0.263   4.012 -0.3772 -0.9147  1.9875
  181TIP3    H2  550   6.008   0.210   3.912 -1.2660  1.4519 -0.2694
  182TIP3   OH2  551   4.027   1.161   2.490  0.4031  0.1601 -0.4931
  182TIP3    H1  552   4.030   1.157   2.395 -0.1925 -0.2430 -0.5012
  182TIP3    H2  553   3.943   1.203   2.509  0.7666  0.7487 -0.1524
  183TIP3   OH2  554   1.650   2.649   2.931 -0.4533  0.2860 -0.3899
  183TIP3    H1  555   1.737   2.657   2.970 -0.8005  0.5866  0.3474
  183TIP3    H2  556   1.626   2.738   2.906 -0.3258  0.1254 -1.1066
  184TIP3   OH2  557   0.818   0.852   1.916 -0.0954 -0.3843  0.8291
  184TIP3    H1  558   0.732   0.812   1.905 -0.2167  0.0113  0.2620
  184TIP3    H2  559   0.801   0.946   1.904  0.5041 -0.3594  0.1542
  185TIP3   OH2  560   4.980   4.957   1.303 -0.1744  0.4392  0.0007
  185TIP3    H1  561   4.901   4.930   1.351 -0.6366  0.7918 -0.5427
  185TIP3    H2  562   4.948   5.023   1.241  0.7744  1.6349  0.7252
  186TIP3   OH2  563   5.288   3.209   4.072 -0.2279 -0.4832 -0.0913
  186TIP3    H1  564   5.284   3.193   3.978  1.9069 -2.8434  0.1075
  186TIP3    H2  565   5.377   3.240   4.088 -0.5622 -0.0833  1.1632
  187TIP3   OH2  566   3.158   0.410   1.516 -0.4522  0.2111  0.0685
  187TIP3    H1  567   3.210   0.407   1.436  0.0024 -0.3203  0.3712
  187TIP3    H2  568   3.080   0.460   1.493  0.1828  1.0042 -0.4060
  188TIP3   OH2  569   5.705   4.331   3.794 -0.5011 -0.0308 -0.2072
  188TIP3    H1  570   5.796   4.324   3.764 -0.1219 -0.1487  0.9304
  188TIP3    H2  571   5.653   4.303   3.719  0.4191 -0.4777 -0.6975
  189TIP3   OH2  572   4.804   5.970   1.173 -0.2329  0.0452 -0.5516
  189TIP3    H1  573   4.750   5.976   1.094  0.0733 -2.7442 -1.0966
  189TIP3    H2  574   4.826   5.877   1.179  1.3621  0.4946  1.7768
  190TIP3   OH2  575   6.039   2.435   4.827  0.1406  0.0476  0.1456
  190TIP3    H1  576   6.067   2.527   4.834  0.4400  0.0394 -0.7938
  190TIP3    H2  577   6.109   2.385   4.868  1.0941  0.0970 -1.3429
  191TIP3   OH2  578   4.261   1.543   1.038  0.2493  0.0775  0.0581
  191TIP3    H1  579   4.338   1.521   1.090  2.2211 -0.1226 -2.7204
  191TIP3    H2  580   4.268   1.638   1.025 -0.4070  0.1762  0.3893
  192TIP3   OH2  581   2.474   0.269   3.462 -0.1387 -0.1298 -0.1474
  192TIP3    H1  582   2.533   0.344   3.466  0.3811 -0.5554  0.3181
  192TIP3    H2  583   2.390   0.306   3.437  0.2695  0.5171 -0.6098
  193TIP3   OH2  584   0.725   5.168   1.558  0.3244 -0.3846  0.1780
  193TIP3    H1  585   0.792   5.169   1.491  1.3195 -0.3302  1.1444
  193TIP3    H2  586   0.771   5.191   1.639 -0.8884 -0.1641  0.8366
  194TIP3   OH2  587   4.607   1.553   5.104  0.6637  0.0364  0.7800
  194TIP3    H1  588   4.644   1.466   5.120  1.0681  0.1666  0.5657
  194TIP3    H2  589   4.596   1.591   5.192 -0.0174 -0.4294  0.9087
  195TIP3   OH2  590   3.478   4.573   0.521 -0.1935 -0.4740 -0.0665
  195TIP3    H1  591   3.398   4.582   0.469 -0.1997 -3.1073 -0.6418
  195TIP3    H2  592   3.459   4.502   0.582  0.7950  0.7062  1.6806
  196TIP3   OH2  593   3.558   5.552   3.731  0.6427 -0.8489 -0.0964
  196TIP3    H1  594   3.508   5.622   3.690  1.2036 -0.2637  0.1947
  196TIP3    H2  595   3.538   5.474   3.679 -3.9684 -1.7338  2.4226
  197TIP3   OH2  596   0.969   3.733   4.277 -0.4051  0.3317 -0.2222
  197TIP3    H1  597   0.969   3.686   4.193  1.9365  0.5493 -0.3950
  197TIP3    H2  598   1.045   3.700   4.324 -0.9514  1.1392  1.3192
  198TIP3   OH2  599   2.378   5.656   3.169 -0.2797 -0.1439 -0.1459
  198TIP3    H1  600   2.446   5.719   3.144  0.2427 -0.9156 -0.7221
  198TIP3    H2  601   2.301   5.710   3.188  1.0770  0.9864  2.8238
  199TIP3   OH2  602   5.094   2.264   4.718 -0.1413  0.3318  0.7738
  199TIP3    H1  603   5.182   2.236   4.693 -0.9933 -1.8280 -0.0427
  199TIP3    H2  604   5.070   2.330   4.652  0.8374  0.9106  0.9888
  200TIP3   OH2  605   1.695   1.017   5.075  0.1067 -0.0779 -0.6638
  200TIP3    H1  606   1.776   1.050   5.115 -1.6159  2.0152  1.4145
  200TIP3    H2  607   1.681   1.073   4.999 -0.0381  0.4761 -0.2403
  201TIP3   OH2  608   0.785   3.457   2.436 -0.4238 -0.1632  0.0258
  201TIP3    H1  609   0.832   3.423   2.512 -2.4075 -0.2346  1.3085
  201TIP3    H2  610   0.702   3.409   2.436 -1.5171  1.6145 -0.6702
  202TIP3   OH2  611   3.030   5.631   0.245 -0.5563 -0.3076  0.4121
  202TIP3    H1  612   3.112   5.587   0.224 -0.6423 -1.3469  2.0467
  202TIP3    H2  613   3.055   5.722   0.261  0.2728 -0.5934  0.8107
  203TIP3   OH2  614   2.997   4.392   1.760 -0.1871 -0.0061 -0.9072
  203TIP3    H1  615   2.958   4.457   1.818 -0.6306 -0.5432 -0.6007
  203TIP3    H2  616   2.934   4.382   1.689 -0.0730 -0.0355 -1.0060
  204TIP3   OH2  617   5.384   1.844   4.783 -0.0890 -0.2189  0.0728
  204TIP3    H1  618   5.401   1.750   4.780  0.4024 -0.2196  1.8893
  204TIP3    H2  619   5.295   1.852   4.819 -1.0187  0.0079 -2.0774
  205TIP3   OH2  620   5.086   1.621   1.838 -0.1424  0.1484  0.1942
  205TIP3    H1  621   5.031   1.649   1.912 -0.2479  0.7308 -0.1028
  205TIP3    H2  622   5.030   1.630   1.761  0.1675  0.1299 -0.0344
  206TIP3   OH2  623  -0.004   2.326   4.670  0.6984  0.2888 -0.1453
  206TIP3    H1  624   0.035   2.250   4.627  0.6221  0.4279 -0.4664
  206TIP3    H2  625   0.007   2.310   4.763 -0.0027 -0.4930 -0.1821
  207TIP3   OH2  626   2.555   0.198   1.315  0.0719 -0.5609 -0.5143
  207TIP3    H1  627   2.638   0.165   1.282  0.4731  0.0747 -0.1608
  207TIP3    H2  628   2.522   0.128   1.372  1.0198 -0.2758  0.4096
  208TIP3   OH2  629   5.910   2.383   4.552  0.1602  0.1148 -0.3931
  208TIP3    H1  630   5.930   2.293   4.576  1.5024  0.0957 -1.4284
  208TIP3    H2  631   5.941   2.390   4.461 -0.8935  1.3187 -0.6769
  209TIP3   OH2  632   3.638   0.403   4.742  0.0182 -0.1711 -0.4246
  209TIP3    H1  633   3.697   0.453   4.686  1.0046 -0.9009 -0.0643
  209TIP3    H2  634   3.555   0.450   4.737  0.4518  0.5290 -1.4300
  210TIP3   OH2  635   1.205   0.164   1.804  0.3017  0.0617 -0.2615
  210TIP3    H1  636   1.173   0.077   1.780 -1.3516  0.5779 -0.0129
  210TIP3    H2  637   1.178   0.176   1.895  1.7925  0.2811  0.1818
  211TIP3   OH2  638   0.479   2.077   4.742 -0.5087 -0.1955  0.7328
  211TIP3    H1  639   0.528   2.155   4.716  0.6844 -0.2587  2.6318
  211TIP3    H2  640   0.546   2.010   4.755 -1.2401 -0.7237  1.9002
  212TIP3   OH2  641   0.797   3.977   2.583 -0.0868 -0.3996  0.2092
  212TIP3    H1  642   0.716   4.018   2.615  0.1666 -0.0657  0.4255
  212TIP3    H2  643   0.861   3.993   2.651 -0.1158 -1.6525  0.5617
  213TIP3   OH2  644   1.060   5.148   4.405 -0.1005  0.3684 -0.2598
  213TIP3    H1  645   1.061   5.243   4.414 -0.7339  0.8337 -3.6577
  213TIP3    H2  646   1.152   5.122   4.406  0.0797  0.9944  0.6119
  214TIP3   OH2  647   2.931   2.202   0.060 -0.5527 -0.1309  0.4747
  214TIP3    H1  648   2.875   2.279   0.059 -0.9150 -0.3858 -0.7638
  214TIP3    H2  649   2.981   2.208  -0.022 -1.6784 -1.9681 -0.4022
  215TIP3   OH2  650   2.087   4.120   3.947 -0.6222  0.1380  0.2039
  215TIP3    H1  651   2.107   4.203   3.990  0.4836 -0.3949  0.7768
  215TIP3    H2  652   2.119   4.054   4.008  0.2561 -0.6697 -1.0875
  216TIP3   OH2  653   3.604   1.589   5.028 -0.1530  0.3393  1.1397
  216TIP3    H1  654   3.686   1.581   5.076  1.7503 -1.6693 -2.1232
  216TIP3    H2  655   3.630   1.605   4.937 -3.3566 -0.7416 -0.0995
  217TIP3   OH2  656   5.353   1.409   1.052 -0.1048 -0.4192  0.0625
  217TIP3    H1  657   5.311   1.380   0.971 -0.5675 -0.4334  0.3050
  217TIP3    H2  658   5.430   1.353   1.060  1.3075  1.1430 -1.6162
  218TIP3   OH2  659   1.744   5.502   5.166  0.1852 -0.0626  0.8095
  218TIP3    H1  660   1.702   5.548   5.239  1.1272  1.3834  0.4776
  218TIP3    H2  661   1.706   5.543   5.087 -2.5487 -3.1183  0.3145
  219TIP3   OH2  662   2.197   0.634   2.505  0.4119  0.5061 -0.1610
  219TIP3    H1  663   2.120   0.622   2.450  0.9635 -2.5616 -0.4744
  219TIP3    H2  664   2.264   0.670   2.445  0.4571 -1.0114 -1.0780
  220TIP3   OH2  665   1.435   1.154   4.692 -0.1753  0.1751  0.0773
  220TIP3    H1  666   1.421   1.196   4.777 -0.4805 -1.7408  1.0358
  220TIP3    H2  667   1.406   1.220   4.628  0.2205  1.7316  1.4184
  221TIP3   OH2  668   2.300   2.681   1.004 -0.2255  0.0671 -0.1449
  221TIP3    H1  669   2.385   2.709   1.038  1.0613  0.4125 -3.2771
  221TIP3    H2  670   2.250   2.762   0.996  0.1693  0.2580 -0.7781
  222TIP3   OH2  671   2.454   1.613   0.963 -0.3627 -0.2680  0.3525
  222TIP3    H1  672   2.543   1.599   0.931 -1.1039 -1.4528 -1.2993
  222TIP3    H2  673   2.457   1.585   1.055  1.3688  1.4419  0.8620
  223TIP3   OH2  674   0.060   2.550   0.730  0.2405  0.6972 -0.1982
  223TIP3    H1  675   0.005   2.565   0.807  0.9394  0.3959  0.3680
  223TIP3    H2  676   0.074   2.455   0.729  2.3085  0.9274  0.7871
  224TIP3   OH2  677   0.615   5.766   2.088  0.6211  0.0664  0.4266
  224TIP3    H1  678   0.636   5.776   2.181  0.2334  0.5124  0.4688
  224TIP3    H2  679   0.555   5.691   2.086 -1.9491  1.9591  0.9524
  225TIP3   OH2  680   0.421   1.369   3.505  0.2153 -0.1766  0.1311
  225TIP3    H1  681   0.477   1.370   3.427  0.5862 -0.5399  0.3984
  225TIP3    H2  682   0.332   1.370   3.469  0.3684  1.5878 -0.2901
  226TIP3   OH2  683   3.314   2.821   3.496  0.5197  0.2086 -0.2528
  226TIP3    H1  684   3.321   2.839   3.402  0.4199  0.9571 -0.1215
  226TIP3    H2  685   3.268   2.737   3.500  1.3980 -0.3186 -0.8893
  227TIP3   OH2  686   3.374   2.984   3.774 -0.4972  0.3405 -0.7815
  227TIP3    H1  687   3.399   2.897   3.806  0.1714  1.3600  1.7566
  227TIP3    H2  688   3.420   2.993   3.691 -0.3619 -1.6200 -0.9707
  228TIP3   OH2  689   3.471   5.488   4.273 -0.2037 -0.4106 -0.3192
  228TIP3    H1  690   3.500   5.553   4.338  4.1270 -1.2403 -1.0984
  228TIP3    H2  691   3.516   5.514   4.192  0.7916 -3.6283 -0.9262
  229TIP3   OH2  692   3.768   2.194   2.127  0.3907 -0.6001  0.1200
  229TIP3    H1  693   3.677   2.172   2.146  0.6182 -1.2301  0.5059
  229TIP3    H2  694   3.818   2.120   2.160  1.1370  0.2167  0.8798
  230TIP3   OH2  695   5.624   5.490   4.903 -0.4449 -0.0828  0.7376
  230TIP3    H1  696   5.601   5.517   4.814 -2.0382  0.0414  1.1496
  230TIP3    H2  697   5.700   5.433   4.892 -1.0765 -0.6836 -0.7846
  231TIP3   OH2  698   3.556   4.446   3.661 -0.2176 -0.1837 -0.1460
  231TIP3    H1  699   3.644   4.412   3.676  0.4882  0.4220 -2.5080
  231TIP3    H2  700   3.569   4.538   3.639 -1.5182  0.1039  0.1972
  232TIP3   OH2  701   2.559   4.761   3.153  0.2981  0.3306 -0.3644
  232TIP3    H1  702   2.580   4.724   3.067  1.0479 -0.6020  0.2009
  232TIP3    H2  703   2.621   4.833   3.163  0.3604  0.2992 -0.5158
  233TIP3   OH2  704   1.825   4.276   4.096 -0.1367  0.6587 -0.2070
  233TIP3    H1  705   1.765   4.351   4.094  0.4451  1.2158  1.3732
  233TIP3    H2  706   1.909   4.313   4.122  0.6333 -0.2934 -1.2394
  234TIP3   OH2  707   2.751   0.663   0.676 -0.0468  0.2440 -0.0688
  234TIP3    H1  708   2.668   0.704   0.701  0.2048  0.4967  0.3706
  234TIP3    H2  709   2.806   0.674   0.753  0.8068  1.1717 -0.7907
  235TIP3   OH2  710   3.048   5.931   3.184 -0.0328 -0.2462  0.1396
  235TIP3    H1  711   3.000   5.856   3.151 -0.6817  0.5234 -0.7251
  235TIP3    H2  712   3.127   5.894   3.224 -1.0589 -1.4890  1.1019
  236TIP3   OH2  713   4.026   3.494   0.997 -0.4872 -0.3762 -0.5793
  236TIP3    H1  714   4.029   3.558   0.926 -1.9269 -0.9425 -1.1913
  236TIP3    H2  715   4.097   3.434   0.978  0.4549  0.6468 -0.3689
  237TIP3   OH2  716   1.883   3.625   4.063  0.2087  0.2715 -0.4709
  237TIP3    H1  717   1.851   3.693   4.004  1.0365  1.1470  0.0652
  237TIP3    H2  718   1.821   3.625   4.136 -0.7970 -0.7895 -1.2779
  238TIP3   OH2  719   6.318   3.638   3.622 -0.3754 -0.5828 -0.0793
  238TIP3    H1  720   6.352   3.580   3.691 -1.5340  0.0838  1.0970
  238TIP3    H2  721   6.326   3.726   3.659 -0.0803 -0.1077 -1.2227
  239TIP3   OH2  722   3.720   1.520   0.380 -0.6403  0.7314 -0.1874
  239TIP3    H1  723   3.661   1.445   0.395  1.9081 -1.0107  1.9414
  239TIP3    H2  724   3.741   1.552   0.468  1.1215  1.6627 -0.9094
  240TIP3   OH2  725   1.007   2.244   4.511 -0.3760 -0.2906  0.3982
  240TIP3    H1  726   1.102   2.242   4.502 -0.2995 -1.5602  1.1663
  240TIP3    H2  727   0.990   2.195   4.591 -1.6525  0.3990  0.5643
  241TIP3   OH2  728   1.559   3.900   1.467 -0.1836 -0.6745 -0.2668
  241TIP3    H1  729   1.625   3.949   1.515 -0.5462  0.0760 -0.5307
  241TIP3    H2  730   1.519   3.963   1.408 -0.8251 -1.2242 -0.4415
  242TIP3   OH2  731   0.517   2.144   4.093  0.6871 -0.2984  0.0417
  242TIP3    H1  732   0.433   2.100   4.108  0.7601 -1.4642 -2.3461
  242TIP3    H2  733   0.498   2.237   4.104 -0.9147 -0.5543 -0.2785
  243TIP3   OH2  734   2.984   3.190   2.089  0.1992 -0.1392 -0.3476
  243TIP3    H1  735   2.899   3.146   2.099  1.0265 -1.6038  0.4451
  243TIP3    H2  736   3.024   3.186   2.176  1.2889  0.1098 -0.8212
  244TIP3   OH2  737   5.063   4.260   1.104 -0.3580 -0.3099 -0.5461
  244TIP3    H1  738   5.125   4.266   1.177 -0.4650  0.8066 -0.5319
  244TIP3    H2  739   5.061   4.348   1.068  0.2628 -1.0130 -2.3817
  245TIP3   OH2  740   4.034   0.968   2.744  0.0200  0.0156 -0.5528
  245TIP3    H1  741   4.102   0.992   2.807  0.2549  0.2934 -0.9035
  245TIP3    H2  742   4.021   0.874   2.757  0.7398 -0.1183 -0.7315
  246TIP3   OH2  743   1.656   4.502   4.047 -0.1872 -0.0116 -0.1901
  246TIP3    H1  744   1.576   4.524   4.095 -0.3160  0.0177 -0.4173
  246TIP3    H2  745   1.647   4.547   3.963  0.5462  0.8720  0.1806
  247TIP3   OH2  746   2.007   2.968   2.736  0.4245 -0.3210 -0.3424
  247TIP3    H1  747   2.068   3.019   2.790  1.0322 -0.5975 -0.7640
  247TIP3    H2  748   2.063   2.918   2.677 -0.2397  1.2172 -2.3835
  248TIP3   OH2  749   3.425   5.946   4.915  0.0356 -0.2211  0.0179
  248TIP3    H1  750   3.367   5.995   4.857  0.3355  0.2134  0.0721
  248TIP3    H2  751   3.513   5.980   4.895  0.5192 -2.1260 -1.3585
  249TIP3   OH2  752   6.184   4.607   1.669  0.2430  0.4936  0.0862
  249TIP3    H1  753   6.131   4.538   1.709  0.9962  0.1521  0.5226
  249TIP3    H2  754   6.124   4.653   1.611 -1.2903  1.8932  2.6062
  250TIP3   OH2  755   1.498   1.383   2.681  0.5980 -0.0311 -0.1882
  250TIP3    H1  756   1.493   1.319   2.752  0.6726 -0.5883 -0.6848
  250TIP3    H2  757   1.551   1.454   2.718  0.9408 -0.4771  0.1918
  251TIP3   OH2  758   4.598   5.939   2.948 -0.0171 -0.0273  0.1667
  251TIP3    H1  759   4.662   5.903   2.885 -0.9701  0.7294 -1.3000
  251TIP3    H2  760   4.528   5.874   2.950 -1.3260  1.2179 -1.8097
  252TIP3   OH2  761   2.761   1.197   2.823 -0.0933 -0.2277  0.7673
  252TIP3    H1  762   2.825   1.246   2.875  0.0917  0.2963  0.0567
  252TIP3    H2  763   2.812   1.131   2.777  0.2254  1.1769 -1.0224
  253TIP3   OH2  764   1.377   5.014   2.080  0.4252  0.1506 -0.2417
  253TIP3    H1  765   1.377   5.051   2.169  0.5174  0.1371 -0.2368
  253TIP3    H2  766   1.313   5.068   2.032 -0.3773 -0.4675  0.1006
  254TIP3   OH2  767   2.871   4.289   2.031  0.0297 -0.8666  0.0627
  254TIP3    H1  768   2.786   4.296   1.987  0.3944 -0.5144 -0.6048
  254TIP3    H2  769   2.927   4.245   1.967  0.8363  0.5536 -0.2435
  255TIP3   OH2  770   0.093   0.183   1.548 -0.6855  0.7464  0.2204
  255TIP3    H1  771   0.087   0.140   1.633 -1.1092  0.0208 -0.1683
  255TIP3    H2  772   0.112   0.112   1.487 -0.6375  1.2280 -0.3292
  256TIP3   OH2  773   3.116   3.171   0.695 -0.2332 -0.1374 -0.0664
  256TIP3    H1  774   3.021   3.182   0.706  0.2964  1.9972  4.0437
  256TIP3    H2  775   3.155   3.214   0.771  4.1763  0.0647 -2.1341
  257TIP3   OH2  776   0.273   5.148   3.634  0.1789 -0.3517 -0.1990
  257TIP3    H1  777   0.350   5.123   3.584  2.2061 -1.3367  3.1440
  257TIP3    H2  778   0.305   5.208   3.701 -2.5265  1.5370 -0.3912
  258TIP3   OH2  779   1.168   0.134   0.372  0.1641  0.1941  0.0974
  258TIP3    H1  780   1.162   0.167   0.462 -1.6923 -1.3080  0.5835
  258TIP3    H2  781   1.089   0.165   0.329  0.6555  0.2328 -0.8149
  259TIP3   OH2  782   0.671   1.423   2.816  0.1104 -0.2611  0.0316
  259TIP3    H1  783   0.747   1.420   2.875  0.6301  0.3914 -0.5919
  259TIP3    H2  784   0.620   1.345   2.840  1.6053 -1.4143 -0.3714
  260TIP3   OH2  785   3.064   0.634   4.177  0.4341 -0.3202  0.6027
  260TIP3    H1  786   3.122   0.596   4.242  1.5196  0.4783  0.1358
  260TIP3    H2  787   3.001   0.565   4.157  0.9888 -1.0742  1.4083
  261TIP3   OH2  788   3.771   2.235   5.063  0.2302  0.5733 -0.6563
  261TIP3    H1  789   3.822   2.311   5.034 -2.1106  1.5117 -2.6724
  261TIP3    H2  790   3.810   2.161   5.018  0.9073  0.9874 -0.7551
  262TIP3   OH2  791   2.283   1.480   4.523  0.0923  0.3442  0.2377
  262TIP3    H1  792   2.258   1.569   4.551 -0.2582 -0.2252  1.8164
  262TIP3    H2  793   2.257   1.424   4.595  2.3453 -0.8012  0.2359
  263TIP3   OH2  794   0.138   3.307   4.063 -0.0833 -0.2448 -0.7308
  263TIP3    H1  795   0.156   3.222   4.022  0.2209  0.7627 -2.8141
  263TIP3    H2  796   0.222   3.353   4.060 -0.3375  0.2968  0.0399
  264TIP3   OH2  797   1.670   2.910   3.185  0.1897 -0.1426  0.5272
  264TIP3    H1  798   1.633   2.938   3.102  0.3549  0.4769  0.6615
  264TIP3    H2  799   1.594   2.901   3.243  0.3261  2.7387  1.2914
  265TIP3   OH2  800   1.731   2.559   1.472  0.3888 -0.1864 -0.1038
  265TIP3    H1  801   1.726   2.464   1.467 -2.4055 -0.0688 -1.7883
  265TIP3    H2  802   1.800   2.583   1.410 -1.2045 -1.0592 -2.3402
  266TIP3   OH2  803   5.627   4.691   0.638 -0.1862  0.0402 -0.2526
  266TIP3    H1  804   5.539   4.697   0.601 -0.9244  1.5319  1.5699
  266TIP3    H2  805   5.629   4.604   0.678 -1.3024  0.3798  0.6411
  267TIP3   OH2  806   4.312   2.995   1.791  0.8807 -0.0393  0.2507
  267TIP3    H1  807   4.368   3.052   1.739  0.9309 -2.0917 -2.1461
  267TIP3    H2  808   4.228   3.041   1.797  1.5386  1.1960  0.2794
  268TIP3   OH2  809   0.184   1.390   2.244  0.5429  0.1747  0.1367
  268TIP3    H1  810   0.161   1.313   2.192 -2.6140  0.9791  0.1550
  268TIP3    H2  811   0.178   1.360   2.335 -0.8419  0.4442  0.1480
  269TIP3   OH2  812   6.001   0.685   2.443 -0.1556  0.5239  0.0930
  269TIP3    H1  813   6.063   0.616   2.466  0.2462  1.5535  2.3215
  269TIP3    H2  814   6.056   0.760   2.420 -0.5952  0.5380 -0.9756
  270TIP3   OH2  815   1.882   5.002   1.170  0.1997  0.2700 -0.4665
  270TIP3    H1  816   1.792   5.012   1.198  0.3092  0.8757 -0.3226
  270TIP3    H2  817   1.934   5.030   1.245  0.4945  1.1391 -0.9870
  271TIP3   OH2  818   3.827   1.154   3.179 -0.0594 -0.0543  0.0259
  271TIP3    H1  819   3.901   1.204   3.144 -0.4136 -0.9365 -2.0876
  271TIP3    H2  820   3.859   1.064   3.183 -0.9062 -0.4015 -0.6554
  272TIP3   OH2  821   2.477   0.589   1.624 -0.4154 -0.5822  0.5223
  272TIP3    H1  822   2.470   0.643   1.546 -0.5304 -1.3746 -0.0331
  272TIP3    H2  823   2.476   0.499   1.591 -0.3494 -0.9293  1.4270
  273TIP3   OH2  824   0.552   1.167   3.215 -0.1517 -0.5130  0.0679
  273TIP3    H1  825   0.569   1.117   3.295 -0.5122 -0.2268  0.3275
  273TIP3    H2  826   0.576   1.257   3.239  1.6473 -0.7341 -0.7570
  274TIP3   OH2  827   6.159   4.917   0.931 -0.2243 -0.3512 -0.3291
  274TIP3    H1  828   6.198   4.829   0.923 -0.7319 -0.6125  0.0086
  274TIP3    H2  829   6.076   4.902   0.975 -0.1379  0.3507  0.0854
  275TIP3   OH2  830   3.518   3.429   2.620 -0.6050 -0.5462  0.3026
  275TIP3    H1  831   3.612   3.447   2.620 -0.5137 -0.7428 -1.9301
  275TIP3    H2  832   3.482   3.486   2.688  1.0905 -0.2709  1.0037
  276TIP3   OH2  833   1.847   4.951   4.381  0.1300 -0.3748 -0.1243
  276TIP3    H1  834   1.863   5.045   4.395  3.0793 -0.8980  0.5752
  276TIP3    H2  835   1.902   4.907   4.446  1.1371 -2.6229 -2.3344
  277TIP3   OH2  836   6.253   2.720   1.299 -0.3347 -0.1775 -0.0584
  277TIP3    H1  837   6.321   2.787   1.298 -0.7078  0.2038 -0.8145
  277TIP3    H2  838   6.262   2.677   1.384  2.1143 -1.4424 -0.8709
  278TIP3   OH2  839   5.221   3.201   1.662  0.0323 -0.0744  0.8571
  278TIP3    H1  840   5.154   3.140   1.692  0.8490 -2.1773 -1.2223
  278TIP3    H2  841   5.209   3.206   1.567  3.7976 -2.0943  0.0405
  279TIP3   OH2  842   1.197   5.690   4.462 -0.4982 -0.0349  0.7326
  279TIP3    H1  843   1.272   5.695   4.522  0.4557  0.7127 -0.4630
  279TIP3    H2  844   1.158   5.604   4.479  1.5615 -1.1132  0.3597
  280TIP3   OH2  845   2.549   3.911   4.268  0.0347  0.2240  0.3233
  280TIP3    H1  846   2.497   3.835   4.241 -0.2859  0.7013 -0.4614
  280TIP3    H2  847   2.491   3.959   4.326  0.7712 -0.8711  2.0297
  281TIP3   OH2  848   5.998   5.820   4.066  0.3343 -0.1828 -0.3754
  281TIP3    H1  849   5.991   5.725   4.080 -1.4639  0.1671  1.5072
  281TIP3    H2  850   5.957   5.834   3.981 -2.3523 -0.8090  0.7088
  282TIP3   OH2  851   0.682   3.080   4.590  0.3755  0.3922 -0.0871
  282TIP3    H1  852   0.631   3.160   4.580  1.2959  0.7827 -2.1886
  282TIP3    H2  853   0.632   3.013   4.544  0.5115  0.1944  0.0506
  283TIP3   OH2  854   3.107   3.853   0.512  0.0006 -0.3440 -0.3113
  283TIP3    H1  855   3.104   3.837   0.607 -0.9016 -3.1224 -0.7374
  283TIP3    H2  856   3.070   3.941   0.502  1.0495  0.4454  1.9467
  284TIP3   OH2  857   5.082   4.736   2.678  0.5776 -0.0163 -0.5904
  284TIP3    H1  858   5.148   4.794   2.641  0.2105  0.3229 -0.7130
  284TIP3    H2  859   5.000   4.762   2.635 -0.0679  1.0999  1.2119
  285TIP3   OH2  860   4.718   5.934   4.800  0.2482  0.0448 -0.5121
  285TIP3    H1  861   4.690   5.984   4.723 -0.4516  0.1057 -0.2284
  285TIP3    H2  862   4.694   5.989   4.875  2.3692  0.7281 -0.2620
  286TIP3   OH2  863   4.655   2.976   2.697  0.1105 -0.5255 -0.5375
  286TIP3    H1  864   4.571   2.937   2.720  0.5829 -0.4596  1.5048
  286TIP3    H2  865   4.720   2.919   2.738  0.9995  0.1261 -0.9996
  287TIP3   OH2  866   5.959   1.470   0.470 -0.1396 -0.2312 -0.4914
  287TIP3    H1  867   6.015   1.500   0.541  2.0729 -1.2540 -1.6940
  287TIP3    H2  868   6.005   1.499   0.390 -1.8229 -0.2998 -1.5301
  288TIP3   OH2  869   5.735   5.454   2.145 -0.3973 -0.5227  0.9002
  288TIP3    H1  870   5.694   5.369   2.161 -0.8771 -0.1813  1.5531
  288TIP3    H2  871   5.779   5.476   2.228 -0.0804 -0.2433  0.6617
  289TIP3   OH2  872   2.259   4.088   2.612  0.0333 -0.2684 -0.2885
  289TIP3    H1  873   2.180   4.058   2.569  0.1384 -0.7595 -0.1400
  289TIP3    H2  874   2.237   4.176   2.643 -0.5624 -0.5215  0.0328
  290TIP3   OH2  875   4.096   3.416   0.212  0.2590  0.0459  0.2346
  290TIP3    H1  876   4.100   3.482   0.143 -0.7055 -1.2682 -1.1575
  290TIP3    H2  877   4.014   3.433   0.258  0.0950 -0.0723 -0.0132
  291TIP3   OH2  878   3.233   1.199   1.796  0.5125 -0.2053  0.0345
  291TIP3    H1  879   3.270   1.235   1.716  0.9552  0.8720  0.6966
  291TIP3    H2  880   3.295   1.225   1.865 -0.3453 -0.2681  0.8499
  292TIP3   OH2  881   4.527   0.911   4.187 -0.3096  0.1943 -0.1360
  292TIP3    H1  882   4.517   0.831   4.239 -0.0013 -0.5016 -1.1172
  292TIP3    H2  883   4.441   0.923   4.145 -0.9329  1.4106  1.4043
  293TIP3   OH2  884   3.455   3.710   4.314 -0.2898 -1.0799 -0.7500
  293TIP3    H1  885   3.398   3.761   4.370  1.2284  0.0365 -0.1619
  293TIP3    H2  886   3.516   3.667   4.373 -1.0080 -2.9613 -1.2972
  294TIP3   OH2  887   1.339   3.625   3.195  0.0268 -0.0659  0.4027
  294TIP3    H1  888   1.351   3.605   3.102  0.3111  4.6074 -0.8201
  294TIP3    H2  889   1.406   3.574   3.240  2.6003  0.4992 -2.4723
  295TIP3   OH2  890   5.971   0.468   4.264 -0.0962 -0.1822 -0.4731
  295TIP3    H1  891   6.008   0.384   4.236  1.4444 -0.0928  1.1525
  295TIP3    H2  892   5.890   0.445   4.308 -1.0657 -0.5520 -2.3263
  296TIP3   OH2  893   5.881   4.930   0.966 -0.1034  0.1129  0.6376
  296TIP3    H1  894   5.815   4.930   1.035  0.7527  0.7767  1.4918
  296TIP3    H2  895   5.872   5.016   0.925  0.8326  0.5801  1.3789
  297TIP3   OH2  896   0.342   4.764   2.665  0.4502  0.0655  0.2490
  297TIP3    H1  897   0.312   4.758   2.574 -1.0649  1.0665  0.6362
  297TIP3    H2  898   0.274   4.720   2.715  0.5669  0.7422  1.0194
  298TIP3   OH2  899   5.709   3.687   1.664 -0.2186 -0.2034 -1.2252
  298TIP3    H1  900   5.746   3.752   1.604  0.9197 -0.9704 -1.3934
  298TIP3    H2  901   5.615   3.701   1.660  0.0123  1.6238 -1.0323
  299TIP3   OH2  902   6.031   2.411   0.806  0.4504  0.2095  0.2532
  299TIP3    H1  903   5.946   2.452   0.820  1.2950  1.5819  1.7087
  299TIP3    H2  904   6.063   2.448   0.724 -0.6065 -0.8425 -0.6728
  300TIP3   OH2  905   1.092   3.185   1.861 -0.2072 -0.0016  0.5023
  300TIP3    H1  906   0.998   3.193   1.878 -0.6320 -1.0992 -1.1722
  300TIP3    H2  907   1.121   3.114   1.918 -0.6548 -0.5059  0.1067
  301TIP3   OH2  908   4.082   5.891   3.453  0.5033  0.2812  0.2311
  301TIP3    H1  909   4.003   5.891   3.400  0.7687 -0.3280 -0.1763
  301TIP3    H2  910   4.138   5.958   3.413  0.3558  0.4363  0.2819
  302TIP3   OH2  911   4.996   1.505   0.160 -0.0395  0.2508  0.1910
  302TIP3    H1  912   4.935   1.492   0.087 -1.7739 -1.1697  1.7868
  302TIP3    H2  913   4.941   1.496   0.238  2.2055 -1.1023  1.7200
  303TIP3   OH2  914   6.033   5.796   1.419 -0.5000 -0.5292  0.1075
  303TIP3    H1  915   5.971   5.746   1.473 -1.3787  1.2474  0.8245
  303TIP3    H2  916   6.106   5.815   1.477 -1.1377  0.7993  0.5182
  304TIP3   OH2  917   0.912   5.457   4.351 -0.0721 -0.0907  0.1521
  304TIP3    H1  918   0.912   5.505   4.434 -1.1596 -0.9891  0.7043
  304TIP3    H2  919   0.999   5.474   4.313  0.1612  0.9541  1.0980
  305TIP3   OH2  920   6.228   0.222   4.132  0.0467  0.4092  0.8411
  305TIP3    H1  921   6.142   0.244   4.097  0.3046 -1.7004 -1.4079
  305TIP3    H2  922   6.226   0.126   4.141  1.8786  0.3992  1.5297
  306TIP3   OH2  923   4.944   2.519   1.334 -0.1106  0.3803  0.2193
  306TIP3    H1  924   4.879   2.488   1.272  0.3243 -0.7448  0.3019
  306TIP3    H2  925   4.911   2.491   1.420 -1.5958  3.4254  0.7598
  307TIP3   OH2  926   6.221   5.941   2.924 -0.1793  0.3352  0.4184
  307TIP3    H1  927   6.139   5.932   2.971  0.1953 -1.8744  0.7697
  307TIP3    H2  928   6.289   5.933   2.992  0.3455 -1.4591 -0.2675
  308TIP3   OH2  929   1.979   3.622   1.813 -0.1033 -0.0682 -0.0197
  308TIP3    H1  930   2.070   3.646   1.828  0.7585 -1.8655 -1.7710
  308TIP3    H2  931   1.971   3.535   1.853 -0.3500 -0.8915 -1.7707
  309TIP3   OH2  932   3.702   4.854   3.909  0.0997  0.0629 -0.8344
  309TIP3    H1  933   3.719   4.928   3.851  2.4251 -0.5142 -1.0021
  309TIP3    H2  934   3.732   4.777   3.860  0.3351 -0.6500  0.3788
  310TIP3   OH2  935   3.771   4.391   4.207 -0.2099 -0.3111  0.3491
  310TIP3    H1  936   3.771   4.434   4.121 -0.3037 -0.5808  0.2122
  310TIP3    H2  937   3.853   4.420   4.247  0.8594 -1.7636 -0.6548
  311TIP3   OH2  938   2.473   4.843   1.066 -0.0579 -0.0678 -0.4070
  311TIP3    H1  939   2.444   4.762   1.024 -0.3855 -0.8031  1.1665
  311TIP3    H2  940   2.402   4.906   1.048  0.7635  0.3080 -2.7023
  312TIP3   OH2  941   2.252   4.655   3.663  0.6483 -0.6086 -0.4486
  312TIP3    H1  942   2.280   4.693   3.747 -1.0018 -0.7207  0.1887
  312TIP3    H2  943   2.225   4.566   3.685 -1.5013 -0.0864 -0.7004
  313TIP3   OH2  944   6.229   0.583   4.019  0.3742  0.1252  0.3951
  313TIP3    H1  945   6.306   0.527   4.026  0.6247 -0.1223 -2.8134
  313TIP3    H2  946   6.255   0.666   4.059  1.9311 -0.3398  0.3837
  314TIP3   OH2  947   4.326   2.120   0.120  0.5165 -0.2386  0.7108
  314TIP3    H1  948   4.311   2.209   0.153 -1.5665 -0.4280  0.3858
  314TIP3    H2  949   4.280   2.063   0.181  1.1030 -1.0369  0.4263
  315TIP3   OH2  950   4.385   5.289   0.228 -0.5620  0.5180 -0.1859
  315TIP3    H1  951   4.341   5.215   0.271 -1.3313 -0.2516 -2.1697
  315TIP3    H2  952   4.478   5.275   0.246 -0.7475 -0.5985 -0.0183
  316TIP3   OH2  953   2.312   0.651   2.178 -0.3906 -0.3221 -0.3225
  316TIP3    H1  954   2.366   0.589   2.130  0.5771  0.0529  0.2561
  316TIP3    H2  955   2.297   0.723   2.117  2.5471  1.1266  0.4965
  317TIP3   OH2  956   4.286   4.381   3.706 -0.2147  0.2399  0.2260
  317TIP3    H1  957   4.202   4.342   3.684  0.4497 -1.0034 -0.1829
  317TIP3    H2  958   4.326   4.319   3.768  1.2942 -0.3092 -1.2105
  318TIP3   OH2  959   4.400   1.077   1.565  0.4102  0.0836 -0.6909
  318TIP3    H1  960   4.368   1.165   1.547  0.4575  0.2133 -0.1579
  318TIP3    H2  961   4.473   1.090   1.625 -0.6367 -0.4033  0.7655
  319TIP3   OH2  962   5.550   4.580   3.740 -0.2514  0.3818 -0.3961
  319TIP3    H1  963   5.589   4.501   3.777 -0.4267  0.0563 -0.8908
  319TIP3    H2  964   5.617   4.614   3.679 -0.5365  0.0998 -0.8722
  320TIP3   OH2  965   2.920   2.764   1.717  0.3364  0.6438  0.3807
  320TIP3    H1  966   2.875   2.679   1.714  0.9361  0.3435 -0.9081
  320TIP3    H2  967   3.004   2.744   1.757  0.4709  0.6223  0.0925
  321TIP3   OH2  968   4.630   5.110   1.241 -0.2034  0.1059 -0.1163
  321TIP3    H1  969   4.719   5.138   1.221  0.8966 -3.4229 -0.9333
  321TIP3    H2  970   4.630   5.095   1.336 -0.2286  0.9471  0.0208
  322TIP3   OH2  971   0.294   0.429   2.931 -0.8933 -0.3015 -0.6115
  322TIP3    H1  972   0.361   0.372   2.893 -0.3779 -0.3572  0.3623
  322TIP3    H2  973   0.244   0.372   2.989 -0.2406  0.2495  0.5362
  323TIP3   OH2  974   3.369   4.092   2.923  0.4593  0.3744  0.3334
  323TIP3    H1  975   3.334   4.077   3.011  4.3142 -1.1454  1.8247
  323TIP3    H2  976   3.358   4.008   2.878  0.0191  0.6436 -0.0756
  324TIP3   OH2  977   2.705   5.725   2.400  0.0712  0.0218 -0.3609
  324TIP3    H1  978   2.724   5.685   2.315  0.8973 -1.0607  0.3117
  324TIP3    H2  979   2.610   5.730   2.404  0.0139 -0.2979 -1.1729
  325TIP3   OH2  980   0.676   1.535   2.549  0.5076 -0.0828 -0.3729
  325TIP3    H1  981   0.671   1.480   2.627 -0.9439  0.3823 -0.0944
  325TIP3    H2  982   0.762   1.516   2.511  1.2799 -0.2813  1.3590
  326TIP3   OH2  983   4.158   5.907   3.809 -0.2351 -0.5390 -0.0651
  326TIP3    H1  984   4.111   5.977   3.764  0.4876 -0.5238 -0.8039
  326TIP3    H2  985   4.249   5.934   3.810  0.0633 -1.4660 -0.3809
  327TIP3   OH2  986   0.521   0.987   1.949  0.0399 -0.2200 -0.2069
  327TIP3    H1  987   0.581   1.000   2.023 -1.2964 -2.1821  1.3475
  327TIP3    H2  988   0.525   0.893   1.932 -1.3470 -0.1242 -1.1524
  328TIP3   OH2  989   3.075   4.522   2.933  0.4029 -0.0999 -0.2849
  328TIP3    H1  990   3.138   4.577   2.979  0.8363  0.5928 -1.6458
  328TIP3    H2  991   3.124   4.443   2.911 -0.8482 -2.3108  3.7956
  329TIP3   OH2  992   4.482   5.139   4.631  0.0279  0.0771 -0.0895
  329TIP3    H1  993   4.501   5.198   4.704  0.6145  1.3641 -1.2414
  329TIP3    H2  994   4.566   5.102   4.606 -0.3695 -1.5469  0.8082
  330TIP3   OH2  995   5.058   4.949   4.554  0.0944 -0.4908  0.1173
  330TIP3    H1  996   5.039   4.865   4.597  0.0347 -1.3038 -1.4220
  330TIP3    H2  997   5.104   5.000   4.621 -0.4717 -1.4803  1.3150
  331TIP3   OH2  998   6.008   4.352   3.408 -0.2060  0.0347 -0.6596
  331TIP3    H1  999   6.001   4.321   3.499  1.3316 -1.1864 -0.9124
  331TIP3    H2 1000   5.917   4.361   3.379 -0.7607  1.1677  1.2016
  332TIP3   OH2 1001   5.091   2.552   0.986 -0.6379  0.7863  0.0502
  332TIP3    H1 1002   5.159   2.524   1.048 -0.3759  0.5222 -0.3468
  332TIP3    H2 1003   5.127   2.528   0.900 -1.5583 -0.0450 -0.1129
  333TIP3   OH2 1004   5.743   2.445   0.558  0.4013  0.1872  0.2658
  333TIP3    H1 1005   5.793   2.461   0.478 -0.4384 -0.8372 -0.4931
  333TIP3    H2 1006   5.684   2.373   0.535 -1.1491  1.0969  1.2408
  334TIP3   OH2 1007   0.681   0.038   0.269  0.8625  0.0354  0.2871
  334TIP3    H1 1008   0.678   0.111   0.207 -1.2993 -0.4780 -0.2805
  334TIP3    H2 1009   0.675  -0.040   0.215 -2.6130 -0.4113  1.0693
  335TIP3   OH2 1010   0.816   4.924   2.246 -0.3206 -0.3327 -0.4851
  335TIP3    H1 1011   0.883   4.866   2.210  1.9884  2.3681 -0.8972
  335TIP3    H2 1012   0.852   4.954   2.330 -1.7083  0.0471  0.0087
  336TIP3   OH2 1013   2.100   0.835   0.994 -0.5944 -0.2478  0.1838
  336TIP3    H1 1014   2.016   0.810   1.034 -0.4907  1.5832  1.6406
  336TIP3    H2 1015   2.115   0.767   0.928 -1.8302 -2.2247  1.7943
  337TIP3   OH2 1016   2.054   1.865   1.576 -0.0493 -0.2578  0.1525
  337TIP3    H1 1017   2.111   1.816   1.634  1.1199  0.9054  0.0450
  337TIP3    H2 1018   2.001   1.920   1.635 -1.0301 -1.2752  0.2476
  338TIP3   OH2 1019   5.659   5.459   2.965  0.0033  0.4366  0.2883
  338TIP3    H1 1020   5.581   5.466   3.020 -1.1976 -0.1610 -1.2936
  338TIP3    H2 1021   5.700   5.377   2.991 -0.0406  0.6051  0.9116
  339TIP3   OH2 1022   2.355   0.992   4.881  0.1614 -0.0773 -0.5350
  339TIP3    H1 1023   2.398   1.059   4.934 -0.2390  0.4635 -0.8806
  339TIP3    H2 1024   2.272   0.975   4.926 -0.9217  1.5439 -1.7873
  340TIP3   OH2 1025   4.005   3.187   2.145 -0.3331  0.1106  0.3983
  340TIP3    H1 1026   4.074   3.251   2.164 -0.8962  0.5969  0.8210
  340TIP3    H2 1027   4.053   3.107   2.125  0.4268  0.8868 -1.0834
  341TIP3   OH2 1028   0.821   5.921   3.672 -0.0739 -0.5512  0.1072
  341TIP3    H1 1029   0.747   5.939   3.615 -0.8478 -0.2056  1.1847
  341TIP3    H2 1030   0.799   5.838   3.715 -0.4115  0.1546  1.3245
  342TIP3   OH2 1031   5.113   5.774   3.208  0.3291 -0.5047 -0.0821
  342TIP3    H1 1032   5.098   5.787   3.115 -1.8507  0.1924  0.3114
  342TIP3    H2 1033   5.161   5.853   3.236 -0.0622 -0.1474 -0.4021
  343TIP3   OH2 1034   4.387   4.962   2.511  0.2980  0.2262 -0.2389
  343TIP3    H1 1035   4.323   4.989   2.577  0.3811 -1.0048  0.3677
  343TIP3    H2 1036   4.464   4.935   2.561  1.0110  0.9314 -0.9279
  344TIP3   OH2 1037   2.958   4.499   0.936  0.8246  0.1548  0.1770
  344TIP3    H1 1038   2.979   4.566   1.001  2.0151  2.2195 -2.1715
  344TIP3    H2 1039   2.944   4.547   0.854 -1.8383 -2.1966 -0.9388
  345TIP3   OH2 1040   1.285   4.749   1.694 -0.1879 -0.4933  0.4768
  345TIP3    H1 1041   1.339   4.764   1.617  0.0640  1.3832  0.9750
  345TIP3    H2 1042   1.209   4.806   1.682  0.9227  1.6124  2.5999
  346TIP3   OH2 1043   4.390   3.048   3.448  0.3818  0.2101  0.9272
  346TIP3    H1 1044   4.459   2.998   3.404  1.1533  0.1386  2.1732
  346TIP3    H2 1045   4.416   3.139   3.436  0.7960  0.1775  1.5383
  347TIP3   OH2 1046   5.377   4.908   0.655 -0.3278  0.7416 -0.1274
  347TIP3    H1 1047   5.419   4.892   0.740 -1.0385  1.0025  0.2808
  347TIP3    H2 1048   5.375   4.822   0.614 -1.3888  0.3028  0.7883
  348TIP3   OH2 1049   4.673   3.526   1.273 -0.3877 -0.0459 -0.9497
  348TIP3    H1 1050   4.733   3.590   1.235 -2.2673  0.2648 -3.6469
  348TIP3    H2 1051   4.685   3.447   1.220  0.9557 -1.6672  1.5146
  349TIP3   OH2 1052   5.864   2.876   2.743 -0.3898  1.0059 -0.1637
  349TIP3    H1 1053   5.919   2.799   2.747 -1.0939  0.5497  1.1024
  349TIP3    H2 1054   5.868   2.903   2.651  0.4212 -0.1104 -0.4767
  350TIP3   OH2 1055   2.995   0.104   4.558 -0.4851  0.0568  0.0316
  350TIP3    H1 1056   3.074   0.050   4.556 -0.3192  0.3083 -1.0193
  350TIP3    H2 1057   3.027   0.194   4.569 -0.3607  0.5006 -2.9723
  351TIP3   OH2 1058   5.347   0.065   2.706 -0.0232 -0.1198  0.0044
  351TIP3    H1 1059   5.370  -0.008   2.763 -1.2037 -0.2934  0.2939
  351TIP3    H2 1060   5.266   0.100   2.744  0.2968  1.0804 -0.3727
  352TIP3   OH2 1061   0.412   2.323   2.029  0.3502 -0.5425 -0.7119
  352TIP3    H1 1062   0.444   2.286   2.111  0.6297 -1.4713 -1.2228
  352TIP3    H2 1063   0.329   2.364   2.052 -0.5204 -2.4277 -0.2938
  353TIP3   OH2 1064   0.830   4.854   1.350 -0.4912  0.2426 -0.3086
  353TIP3    H1 1065   0.918   4.819   1.337 -1.1968 -1.6782 -0.1134
  353TIP3    H2 1066   0.828   4.931   1.293  2.0392  1.7272  1.3924
  354TIP3   OH2 1067   5.952   1.102   2.508  0.5876 -0.4014  0.3235
  354TIP3    H1 1068   5.920   1.164   2.442  1.4516  1.4358  1.5449
  354TIP3    H2 1069   6.042   1.131   2.525  0.5860 -1.2416  1.8344
  355TIP3   OH2 1070   0.236   1.975   1.789  0.7176 -0.1047 -0.2175
  355TIP3    H1 1071   0.175   1.967   1.862  1.3678 -1.5600  0.1962
  355TIP3    H2 1072   0.221   2.064   1.755  1.3325  1.1592  2.5234
  356TIP3   OH2 1073   4.101   2.417   1.493 -0.1187  0.2475  0.6430
  356TIP3    H1 1074   4.166   2.348   1.506 -1.2981 -0.8824  0.7555
  356TIP3    H2 1075   4.018   2.370   1.479 -0.8128  1.6247 -0.1226
  357TIP3   OH2 1076   6.239   4.765   3.247  0.1622 -0.4643  0.1142
  357TIP3    H1 1077   6.324   4.740   3.210  0.5665 -0.5928  1.0851
  357TIP3    H2 1078   6.220   4.696   3.310 -1.0915 -0.8987 -0.7002
  358TIP3   OH2 1079   5.539   4.452   1.850  0.0482 -0.3254 -0.1110
  358TIP3    H1 1080   5.593   4.379   1.882  0.7266  0.3326  0.2682
  358TIP3    H2 1081   5.451   4.431   1.880 -0.2289 -2.1578 -1.9563
  359TIP3   OH2 1082   2.890   0.302   0.387  0.0204  0.1111  0.3264
  359TIP3    H1 1083   2.835   0.380   0.390 -2.7804 -1.5499 -2.0553
  359TIP3    H2 1084   2.864   0.251   0.464 -2.5039 -0.9285 -1.0712
  360TIP3   OH2 1085   1.450   3.891   4.673 -0.4074 -0.4925 -0.2438
  360TIP3    H1 1086   1.457   3.956   4.743 -0.5036  0.3939 -1.0425
  360TIP3    H2 1087   1.356   3.872   4.668 -0.2475 -1.7182  0.8854
  361TIP3   OH2 1088   1.332   4.368   0.494  0.6166  0.6647  0.4579
  361TIP3    H1 1089   1.295   4.316   0.422  0.1538 -0.5210  1.5102
  361TIP3    H2 1090   1.426   4.368   0.477  0.4217  1.4463 -0.7934
  362TIP3   OH2 1091   5.493   5.012   1.601  0.2972 -0.0256 -0.0544
  362TIP3    H1 1092   5.495   5.106   1.584 -2.2179 -0.0411 -0.8031
  362TIP3    H2 1093   5.481   5.005   1.696  0.7679  0.3967  0.0376
  363TIP3   OH2 1094   0.969   2.839   0.263  0.1149  0.2163 -0.3429
  363TIP3    H1 1095   1.041   2.894   0.295  0.8271 -0.9799  0.1682
  363TIP3    H2 1096   0.892   2.897   0.265  1.0479  1.5218 -0.9090
  364TIP3   OH2 1097   4.661   4.697   1.637  0.2271  0.1245  0.7291
  364TIP3    H1 1098   4.592   4.731   1.693  0.4516  1.5881  0.1633
  364TIP3    H2 1099   4.737   4.686   1.695  0.0078  0.1115  1.0139
  365TIP3   OH2 1100   3.732   5.891   4.479  0.1089 -0.0255  0.2667
  365TIP3    H1 1101   3.814   5.917   4.521 -0.4277  1.4135  0.4903
  365TIP3    H2 1102   3.749   5.901   4.385  0.9486 -2.1557  0.1323
  366TIP3   OH2 1103   1.391   4.979   5.075 -0.0083  0.2107 -0.6432
  366TIP3    H1 1104   1.311   4.939   5.041 -0.4965  2.1609 -1.9819
  366TIP3    H2 1105   1.362   5.030   5.151 -0.1545  1.2753 -1.3922
  367TIP3   OH2 1106   3.123   2.196   1.009  0.2683 -0.9345  0.0647
  367TIP3    H1 1107   3.156   2.286   1.003 -0.1674 -0.7973 -0.3327
  367TIP3    H2 1108   3.164   2.151   0.935 -3.2707  0.1699 -2.8690
  368TIP3   OH2 1109   3.306   4.209   1.011  0.0053  0.4458  0.6357
  368TIP3    H1 1110   3.236   4.232   1.072 -1.4246 -0.8033 -0.4834
  368TIP3    H2 1111   3.345   4.293   0.987 -0.7505  1.1243  1.6775
  369TIP3   OH2 1112   2.231   1.133   2.088  0.2561 -0.1073 -0.1697
  369TIP3    H1 1113   2.320   1.156   2.063  1.0141 -1.5369  1.0500
  369TIP3    H2 1114   2.189   1.105   2.007  1.2514 -0.4355 -0.5843
  370TIP3   OH2 1115   4.614   2.539   2.725 -0.0161 -0.0154  0.0620
  370TIP3    H1 1116   4.658   2.537   2.639 -0.1541 -1.3336  0.0112
  370TIP3    H2 1117   4.560   2.460   2.726 -3.1957  1.9764 -0.2596
  371TIP3   OH2 1118   5.781   5.274   4.326 -0.2123  0.0104 -0.8707
  371TIP3    H1 1119   5.745   5.295   4.412  2.8632  0.3857  0.4919
  371TIP3    H2 1120   5.773   5.355   4.276  1.4425  1.0773  0.4788
  372TIP3   OH2 1121   3.527   0.364   0.954 -0.3235  0.5711  0.6323
  372TIP3    H1 1122   3.564   0.315   1.027  1.5130 -2.1048 -1.8554
  372TIP3    H2 1123   3.565   0.323   0.876 -2.4660  2.9541 -1.8771
  373TIP3   OH2 1124   3.253   0.605   4.971 -0.5809  0.0776 -0.3036
  373TIP3    H1 1125   3.181   0.613   5.034 -0.3163 -0.1293  0.0235
  373TIP3    H2 1126   3.264   0.694   4.936  1.2312  0.9020  2.0938
  374TIP3   OH2 1127   5.991   3.923   1.950 -0.1892  0.0265 -0.2225
  374TIP3    H1 1128   5.980   4.004   1.900 -1.5789  1.0701  1.6293
  374TIP3    H2 1129   6.077   3.890   1.925  1.0638  2.8535 -0.0016
  375TIP3   OH2 1130   4.738   3.324   3.348  0.3631 -0.4438  0.3173
  375TIP3    H1 1131   4.655   3.337   3.392  0.4906  1.4619  0.0498
  375TIP3    H2 1132   4.721   3.348   3.257  1.0609 -0.5938  0.1391
  376TIP3   OH2 1133   5.271   3.464   3.946  0.1421 -0.2263  0.4086
  376TIP3    H1 1134   5.238   3.404   3.880 -0.4520 -0.8104  1.2048
  376TIP3    H2 1135   5.331   3.411   3.999  0.5105  0.1927  0.4082
  377TIP3   OH2 1136   5.179   5.508   0.267 -0.8203  0.5186 -0.2475
  377TIP3    H1 1137   5.135   5.453   0.202 -0.3041  2.0083 -1.9582
  377TIP3    H2 1138   5.221   5.446   0.326 -3.8915 -0.9493  0.6036
  378TIP3   OH2 1139   6.269   1.209   0.593 -0.4460 -0.0006 -0.3225
  378TIP3    H1 1140   6.347   1.264   0.594 -0.3278 -0.0820 -1.7730
  378TIP3    H2 1141   6.212   1.246   0.660 -0.3094  1.8217 -1.1663
  379TIP3   OH2 1142   4.777   3.601   3.160  0.1430  0.0968 -0.1408
  379TIP3    H1 1143   4.729   3.635   3.236  0.1662  0.1118 -0.1330
  379TIP3    H2 1144   4.838   3.537   3.198 -0.6376 -0.7447 -0.2584
  380TIP3   OH2 1145   0.124   3.997   1.725 -0.6282 -0.1987  0.0724
  380TIP3    H1 1146   0.209   3.998   1.769  0.6383 -0.3643 -2.2328
  380TIP3    H2 1147   0.116   4.084   1.686 -0.6697 -0.7457 -1.1906
  381TIP3   OH2 1148   5.510   1.582   4.022 -0.5722 -1.0397 -0.1353
  381TIP3    H1 1149   5.517   1.489   4.044 -1.9238 -1.1359 -0.0219
  381TIP3    H2 1150   5.426   1.609   4.058 -0.0127  0.3458  0.1877
  382TIP3   OH2 1151   2.633   1.089   2.419  0.0492  0.7213 -0.4780
  382TIP3    H1 1152   2.598   1.050   2.339  0.5867  1.2170 -0.9662
  382TIP3    H2 1153   2.567   1.071   2.486 -0.3916  0.2749 -1.0272
  383TIP3   OH2 1154   5.292   4.082   4.074  0.2375 -0.2774  0.0292
  383TIP3    H1 1155   5.376   4.110   4.037 -1.2435  0.5707 -2.9977
  383TIP3    H2 1156   5.259   4.018   4.011 -2.0556  0.5789  0.2793
  384TIP3   OH2 1157   3.778   2.895   4.149  0.2971  0.1670  0.2838
  384TIP3    H1 1158   3.742   2.963   4.206  1.6131  1.3297 -0.2263
  384TIP3    H2 1159   3.862   2.873   4.189 -0.4956 -1.8992  0.9812
  385TIP3   OH2 1160   1.535   2.711   1.913 -0.6422 -0.4148 -0.1354
  385TIP3    H1 1161   1.504   2.621   1.926 -0.8684 -0.5060 -1.2363
  385TIP3    H2 1162   1.514   2.731   1.822 -0.0325  0.5407 -0.0806
  386TIP3   OH2 1163   4.072   0.415   4.047 -0.4271 -0.3499  0.4492
  386TIP3    H1 1164   4.031   0.441   4.130 -1.2401 -0.1827  0.0039
  386TIP3    H2 1165   4.138   0.350   4.073 -2.0722 -1.8620  1.0476
  387TIP3   OH2 1166   5.952   5.649   4.684 -0.6100 -0.1138  0.0653
  387TIP3    H1 1167   5.936   5.675   4.593  1.4670 -0.7703 -0.5566
  387TIP3    H2 1168   5.875   5.678   4.731 -0.4386  3.1493 -1.3571
  388TIP3   OH2 1169   0.826   1.223   2.565  0.0957  0.1129  0.2251
  388TIP3    H1 1170   0.852   1.251   2.477 -0.5417 -0.5878 -0.1923
  388TIP3    H2 1171   0.868   1.286   2.623  0.0753  0.9148 -0.6098
  389TIP3   OH2 1172   1.221   4.330   3.267  0.2824  0.1366  0.5085
  389TIP3    H1 1173   1.162   4.276   3.321  0.1326 -0.4446 -0.2251
  389TIP3    H2 1174   1.167   4.404   3.240  1.0251  1.7810  3.1539
  390TIP3   OH2 1175   0.263   4.835   3.513 -0.2617 -0.0159  0.0985
  390TIP3    H1 1176   0.250   4.885   3.433 -0.9087 -3.2734 -2.0432
  390TIP3    H2 1177   0.196   4.867   3.573 -1.3321  0.9109 -1.5232
  391TIP3   OH2 1178   5.957   2.771   0.206  0.2581 -0.5107 -0.4077
  391TIP3    H1 1179   5.907   2.848   0.232 -0.2000 -0.1556 -2.1825
  391TIP3    H2 1180   6.002   2.798   0.125  0.1254 -2.0837 -1.0449
  392TIP3   OH2 1181   4.431   2.591   1.022 -0.1158  0.0604  0.5928
  392TIP3    H1 1182   4.524   2.581   1.044 -0.5113 -0.4956  2.1686
  392TIP3    H2 1183   4.421   2.546   0.938  0.8541 -0.7571  0.8959
  393TIP3   OH2 1184   3.582   3.460   0.893  0.5294  0.1856  0.0609
  393TIP3    H1 1185   3.657   3.406   0.920  0.7701  0.4397 -0.0896
  393TIP3    H2 1186   3.613   3.550   0.902 -0.5681  0.4032  2.3843
  394TIP3   OH2 1187   2.976   4.325   0.007 -0.1168  0.0375 -0.1191
  394TIP3    H1 1188   2.897   4.310   0.059 -0.1150 -0.3259 -0.2253
  394TIP3    H2 1189   2.992   4.242  -0.038 -1.4444  0.9880 -2.5396
  395TIP3   OH2 1190   4.096   4.818   4.446 -0.5364 -0.0503 -0.8950
  395TIP3    H1 1191   4.114   4.911   4.434  0.6688 -0.3369 -1.4090
  395TIP3    H2 1192   4.117   4.802   4.538 -1.4232  0.3171 -0.6142
  396TIP3   OH2 1193   4.545   2.060   2.935  0.0306 -0.5273 -0.2792
  396TIP3    H1 1194   4.633   2.063   2.972  1.2340 -0.2698 -2.9400
  396TIP3    H2 1195   4.525   1.966   2.929 -1.5613 -0.6471  3.7080
  397TIP3   OH2 1196   1.656   0.262   3.133  0.2287  0.2766 -0.2808
  397TIP3    H1 1197   1.572   0.307   3.129 -0.1521 -0.4337 -0.5538
  397TIP3    H2 1198   1.679   0.262   3.226 -0.4693 -0.2099 -0.0961
  398TIP3   OH2 1199   5.176   4.129   0.517  0.6031 -0.2540  0.6193
  398TIP3    H1 1200   5.271   4.120   0.511  0.7287  1.3229 -0.3088
  398TIP3    H2 1201   5.145   4.102   0.431  0.1232 -1.4711  1.1560
  399TIP3   OH2 1202   2.293   0.691   4.047  0.6787  0.0764  0.1260
  399TIP3    H1 1203   2.332   0.604   4.059 -1.1657 -0.7988  0.1039
  399TIP3    H2 1204   2.275   0.721   4.136 -0.0460 -0.2239  0.0838
  400TIP3   OH2 1205   3.852   0.124   4.253 -0.0210 -0.2067 -0.0683
  400TIP3    H1 1206   3.777   0.147   4.197 -0.2589 -2.0867 -0.5806
  400TIP3    H2 1207   3.827   0.153   4.340 -1.6565 -1.3861 -0.1083
  401TIP3   OH2 1208   2.971   1.153   0.069 -0.0457 -0.0903 -0.2701
  401TIP3    H1 1209   2.973   1.060   0.045  0.7688 -0.1383 -0.0659
  401TIP3    H2 1210   3.063   1.175   0.084 -0.3482  0.4033  0.9988
  402TIP3   OH2 1211   3.831   5.114   3.826  0.2856 -0.4853  0.3820
  402TIP3    H1 1212   3.775   5.142   3.898  0.4745 -1.2780  0.8540
  402TIP3    H2 1213   3.882   5.191   3.803 -3.9308  1.7281 -2.9991
  403TIP3   OH2 1214   0.330   3.211   1.673  0.4342  0.1965  0.1570
  403TIP3    H1 1215   0.252   3.219   1.727  1.6533  1.8295  1.7824
  403TIP3    H2 1216   0.370   3.298   1.675  0.8754  0.1778 -2.9168
  404TIP3   OH2 1217   2.237   4.660   2.877  0.8260  0.0869 -0.1359
  404TIP3    H1 1218   2.226   4.752   2.900  0.1548 -0.5737  2.4256
  404TIP3    H2 1219   2.148   4.625   2.868  1.0695 -0.3718 -0.9138
  405TIP3   OH2 1220   3.896   3.361   1.851  0.2122 -0.0793 -0.3301
  405TIP3    H1 1221   3.982   3.401   1.845  0.2233  0.1485  1.0342
  405TIP3    H2 1222   3.901   3.304   1.927 -0.7235 -0.3698 -0.4658
  406TIP3   OH2 1223   6.047   2.098   4.471 -0.6066  0.3132  0.9107
  406TIP3    H1 1224   6.111   2.062   4.410 -0.5837  0.6566  0.7311
  406TIP3    H2 1225   6.083   2.078   4.558 -0.7256 -0.3241  0.8159
  407TIP3   OH2 1226   2.939   5.189   4.547 -0.0595 -0.2614 -0.0928
  407TIP3    H1 1227   2.884   5.258   4.583  1.4036  1.0297 -0.2084
  407TIP3    H2 1228   2.975   5.226   4.466  0.6558 -1.2002 -0.2241
  408TIP3   OH2 1229   6.149   3.626   4.595  0.2955 -0.5661  0.1356
  408TIP3    H1 1230   6.131   3.576   4.515 -0.1502 -1.5119  0.8144
  408TIP3    H2 1231   6.244   3.635   4.596  0.2838 -0.1662 -0.7118
  409TIP3   OH2 1232   1.175   2.806   1.817 -0.2608  0.0739  0.3959
  409TIP3    H1 1233   1.208   2.718   1.836 -0.3118 -0.2503 -0.8877
  409TIP3    H2 1234   1.080   2.797   1.824 -0.6066 -1.0569 -3.5067
  410TIP3   OH2 1235   3.639   0.464   4.464  0.1337  0.6535  0.8531
  410TIP3    H1 1236   3.703   0.534   4.447 -1.4614  1.4860 -2.6463
  410TIP3    H2 1237   3.589   0.457   4.383 -1.7781 -2.5671  2.1097
  411TIP3   OH2 1238   5.879   4.008   0.677  0.0788 -0.7088 -0.6701
  411TIP3    H1 1239   5.841   3.920   0.681 -0.4230 -0.5839 -2.0818
  411TIP3    H2 1240   5.809   4.063   0.642  0.3682  0.2827  0.2430
  412TIP3   OH2 1241   4.084   4.146   1.609  0.0057 -0.9133 -0.4536
  412TIP3    H1 1242   4.069   4.235   1.579  0.8852 -0.5972 -0.0009
  412TIP3    H2 1243   4.006   4.123   1.659  0.0324 -0.1792 -0.0698
  413TIP3   OH2 1244   5.143   3.225   1.406  0.2523 -0.4425  0.0991
  413TIP3    H1 1245   5.089   3.304   1.407  0.7130 -0.1192 -0.2194
  413TIP3    H2 1246   5.080   3.153   1.398 -0.2696 -0.2057  1.7341
  414TIP3   OH2 1247   2.172   4.147   1.665  0.0921 -0.1285 -0.0464
  414TIP3    H1 1248   2.171   4.189   1.579 -0.8337  0.7046  0.3496
  414TIP3    H2 1249   2.136   4.213   1.724  1.2578 -0.4714  1.0939
  415TIP3   OH2 1250   2.374   0.130   3.247 -0.0378  0.5924  0.4221
  415TIP3    H1 1251   2.398   0.184   3.323  0.3897  0.8483  0.1107
  415TIP3    H2 1252   2.369   0.193   3.174  3.0800 -0.0727 -0.5329
  416TIP3   OH2 1253   4.011   4.815   2.074 -0.1982 -0.0520 -0.2060
  416TIP3    H1 1254   3.969   4.759   2.139 -2.4841  2.8470  1.0447
  416TIP3    H2 1255   4.104   4.816   2.099 -0.8813  0.3405  2.5522
  417TIP3   OH2 1256   3.627   1.643   1.164 -0.4868 -0.1067 -0.5162
  417TIP3    H1 1257   3.590   1.556   1.178 -1.6855  0.4902  0.1979
  417TIP3    H2 1258   3.551   1.698   1.142  0.4469  0.4541 -2.4973
  418TIP3   OH2 1259   2.554   5.815   4.537 -0.4837  0.0749  0.6550
  418TIP3    H1 1260   2.609   5.762   4.596  0.2156  0.1873  0.1182
  418TIP3    H2 1261   2.476   5.762   4.522 -0.8892  0.2374  2.0519
  419TIP3   OH2 1262   4.527   4.116   4.189 -0.0361  0.9986  0.5540
  419TIP3    H1 1263   4.538   4.116   4.284 -0.4951  2.6265  0.6339
  419TIP3    H2 1264   4.452   4.059   4.173  0.4877  0.1405  1.0862
  420TIP3   OH2 1265   3.176   5.103   0.484  0.6512 -0.2239 -0.5108
  420TIP3    H1 1266   3.145   5.151   0.407  0.1521 -1.9851 -1.4641
  420TIP3    H2 1267   3.230   5.167   0.531  2.4987  0.4505 -3.2637
  421TIP3   OH2 1268   0.518   5.825   2.961  0.7249  0.2415 -0.2240
  421TIP3    H1 1269   0.531   5.910   2.918  1.6447 -0.0828 -0.6216
  421TIP3    H2 1270   0.549   5.761   2.897  1.1212 -0.3254  0.5176
  422TIP3   OH2 1271   2.386   4.916   0.421 -0.1920 -0.0279 -0.1474
  422TIP3    H1 1272   2.415   4.958   0.340 -0.1841 -4.0342 -2.4563
  422TIP3    H2 1273   2.467   4.897   0.469 -0.1971  2.3285  0.9676
  423TIP3   OH2 1274   0.850   2.011   5.001 -0.3116  0.0066 -0.0985
  423TIP3    H1 1275   0.934   2.048   5.026  0.2112 -1.3269  0.1940
  423TIP3    H2 1276   0.795   2.087   4.981  1.2037  0.8853 -1.1250
  424TIP3   OH2 1277   1.245   2.866   4.744  0.1944 -0.0779  0.2591
  424TIP3    H1 1278   1.233   2.960   4.758  0.1020  0.0669 -0.7216
  424TIP3    H2 1279   1.314   2.860   4.677 -1.5785 -0.6130 -1.6209
  425TIP3   OH2 1280   5.734   2.030   2.695  0.2552  0.4065 -0.4987
  425TIP3    H1 1281   5.799   2.086   2.737  0.0345 -0.8548  1.6575
  425TIP3    H2 1282   5.718   2.071   2.610  0.7828  3.0628  0.6040
  426TIP3   OH2 1283   5.262   5.860   0.370 -0.1968 -0.9141  0.5491
  426TIP3    H1 1284   5.190   5.875   0.432 -1.0921 -2.8592  0.0393
  426TIP3    H2 1285   5.325   5.929   0.390 -1.3560 -0.2886  2.2807
  427TIP3   OH2 1286   5.270   2.628   1.454  0.2059  0.3356 -0.0228
  427TIP3    H1 1287   5.190   2.654   1.500  0.0153  0.8484 -0.6337
  427TIP3    H2 1288   5.321   2.581   1.520 -1.7197 -2.3749 -0.2862
  428TIP3   OH2 1289   1.555   1.903   4.311 -0.0467  0.3883  0.3365
  428TIP3    H1 1290   1.627   1.863   4.263 -0.0312  0.9377 -0.1126
  428TIP3    H2 1291   1.599   1.964   4.371 -0.1134  0.3682  0.4052
  429TIP3   OH2 1292   1.697   3.900   3.051  0.4285  0.0470  0.2508
  429TIP3    H1 1293   1.682   3.844   2.975  0.0280 -0.3628  0.6273
  429TIP3    H2 1294   1.655   3.983   3.028  0.5068 -0.0006 -0.0679
  430TIP3   OH2 1295   6.204   1.429   2.155  0.6511  0.3101  0.0624
  430TIP3    H1 1296   6.278   1.478   2.121  0.1619  1.0649  0.0483
  430TIP3    H2 1297   6.192   1.357   2.093  1.2220  0.3127 -0.0545
  431TIP3   OH2 1298   4.514   4.907   1.762  0.1425  0.0827 -0.4328
  431TIP3    H1 1299   4.532   4.986   1.711  1.8562 -0.1339 -0.2237
  431TIP3    H2 1300   4.425   4.882   1.737 -1.2985  3.2120  1.0198
  432TIP3   OH2 1301   1.336   0.424   4.485 -0.6266  0.3626  0.0076
  432TIP3    H1 1302   1.398   0.408   4.555  0.0307 -0.2318 -0.6885
  432TIP3    H2 1303   1.319   0.518   4.488  2.3950  1.0891 -1.4460
  433TIP3   OH2 1304   2.583   0.683   4.149  0.0027  0.0282 -0.0979
  433TIP3    H1 1305   2.590   0.643   4.236 -0.0772 -2.2764 -1.0935
  433TIP3    H2 1306   2.494   0.718   4.146  0.6061  1.8643  1.3876
  434TIP3   OH2 1307   1.118   5.581   3.353  0.5832  0.3592 -0.0374
  434TIP3    H1 1308   1.158   5.505   3.310 -0.2405 -0.8000  1.1431
  434TIP3    H2 1309   1.085   5.634   3.281 -0.0298 -1.1026 -0.8962
  435TIP3   OH2 1310   2.301   0.121   0.484 -0.0780 -0.7610  0.6503
  435TIP3    H1 1311   2.330   0.176   0.558 -1.4449  1.6175 -0.4603
  435TIP3    H2 1312   2.206   0.115   0.495 -0.4239  0.3471 -1.3195
  436TIP3   OH2 1313   1.062   1.441   0.909  0.2243  0.3134 -0.5204
  436TIP3    H1 1314   1.154   1.432   0.884  0.1992  1.1180 -0.9333
  436TIP3    H2 1315   1.030   1.515   0.858 -0.1057  1.3689  1.1444
  437TIP3   OH2 1316   4.817   1.384   0.889 -0.4821  0.1419 -0.4137
  437TIP3    H1 1317   4.854   1.466   0.922 -1.4126  1.0532 -1.5616
  437TIP3    H2 1318   4.730   1.408   0.856 -0.8300 -1.3365 -0.6382
  438TIP3   OH2 1319   0.580   3.492   2.189 -0.0370  0.1287 -0.2219
  438TIP3    H1 1320   0.607   3.401   2.194  0.3777  0.2770  0.3475
  438TIP3    H2 1321   0.657   3.539   2.157  0.3606  0.5198  1.2134
  439TIP3   OH2 1322   1.343   0.019   4.964 -0.4765  0.4333 -0.1064
  439TIP3    H1 1323   1.254   0.002   4.995 -0.6177 -0.7638 -1.0907
  439TIP3    H2 1324   1.339   0.106   4.926 -0.7480  1.1658  1.5160
  440TIP3   OH2 1325   1.964   3.645   4.671  0.2989  0.0210  0.3786
  440TIP3    H1 1326   1.936   3.556   4.696 -0.8727  0.3419  0.2642
  440TIP3    H2 1327   1.888   3.700   4.688  0.9867  1.0018  0.3645
  441TIP3   OH2 1328   5.781   5.745   3.573  0.1320 -0.5993  0.4918
  441TIP3    H1 1329   5.817   5.688   3.506  0.4972 -1.8535  1.6972
  441TIP3    H2 1330   5.687   5.727   3.572  0.3572 -2.0172  1.5219
  442TIP3   OH2 1331   1.049   1.711   0.749  0.2101  0.4144 -0.0188
  442TIP3    H1 1332   0.960   1.704   0.783 -0.9909  0.7375 -2.7948
  442TIP3    H2 1333   1.052   1.796   0.706  1.4622 -0.0834 -0.9864
  443TIP3   OH2 1334   5.779   3.959   4.506 -0.3872  0.3456 -0.0861
  443TIP3    H1 1335   5.683   3.965   4.510 -0.6008 -1.5848 -1.1122
  443TIP3    H2 1336   5.803   4.013   4.431 -0.8362 -0.3512 -0.7458
  444TIP3   OH2 1337   2.172   0.850   1.624  0.5856  0.2497 -0.1555
  444TIP3    H1 1338   2.236   0.917   1.602  0.4934  0.1240 -0.8460
  444TIP3    H2 1339   2.150   0.809   1.540  1.2594 -1.2132  0.3439
  445TIP3   OH2 1340   5.346   2.454   3.618  0.4278  0.3676  1.0804
  445TIP3    H1 1341   5.343   2.479   3.526  0.0778 -1.5758  0.5214
  445TIP3    H2 1342   5.255   2.438   3.641  0.6346 -0.3873  1.3942
  446TIP3   OH2 1343   3.365   0.512   3.362  0.0305  0.0382  0.0276
  446TIP3    H1 1344   3.376   0.605   3.379 -0.7398  0.2165 -0.4108
  446TIP3    H2 1345   3.270   0.498   3.361  0.1326 -0.7351  0.0109
  447TIP3   OH2 1346   0.993   1.044   4.044  0.4979 -0.1689  0.2892
  447TIP3    H1 1347   1.031   0.976   3.990  0.3719 -0.2213  0.2657
  447TIP3    H2 1348   1.012   1.126   3.998  0.4760 -0.2050  0.2170
  448TIP3   OH2 1349   0.647   3.473   4.828 -0.0900  0.3563  0.1307
  448TIP3    H1 1350   0.720   3.535   4.821  0.9961 -0.9369 -0.6638
  448TIP3    H2 1351   0.568   3.527   4.826  0.7985  1.6701 -1.1228
  449TIP3   OH2 1352   2.534   4.831   1.982 -0.2111  0.2992  0.3503
  449TIP3    H1 1353   2.568   4.769   1.918 -0.6561  0.2045  0.1983
  449TIP3    H2 1354   2.600   4.900   1.987 -0.8759  1.1444 -1.4255
  450TIP3   OH2 1355   3.590   3.099   4.250 -0.0648 -0.3823 -0.4897
  450TIP3    H1 1356   3.645   3.096   4.328  0.7046  1.8960 -0.8660
  450TIP3    H2 1357   3.501   3.091   4.283  0.2881 -0.1284  0.5709
  451TIP3   OH2 1358   6.291   5.593   1.979 -0.2304 -0.0862  0.0924
  451TIP3    H1 1359   6.335   5.671   2.012  0.6345 -0.8354  0.8027
  451TIP3    H2 1360   6.350   5.521   2.003 -0.9878 -0.9501 -0.5609
  452TIP3   OH2 1361   5.334   4.776   1.158 -0.4428  0.3279 -0.0156
  452TIP3    H1 1362   5.362   4.833   1.229  0.7429  1.8495 -1.6125
  452TIP3    H2 1363   5.325   4.834   1.083  0.2218 -1.4795 -1.5920
  453TIP3   OH2 1364   4.682   2.711   2.306  0.5682  0.0127 -0.5675
  453TIP3    H1 1365   4.716   2.680   2.222 -0.4362 -0.5410 -0.7854
  453TIP3    H2 1366   4.606   2.764   2.283  0.2396 -0.2055 -0.0024
  454TIP3   OH2 1367   4.292   4.445   1.780  0.2691 -0.2816 -0.0172
  454TIP3    H1 1368   4.317   4.531   1.813  0.6105 -0.9522  1.5673
  454TIP3    H2 1369   4.199   4.438   1.802  0.4204 -0.5996  0.5560
  455TIP3   OH2 1370   3.435   3.838   2.337 -0.2263 -0.0366 -0.3022
  455TIP3    H1 1371   3.376   3.855   2.263 -1.2945  1.0645  0.7423
  455TIP3    H2 1372   3.379   3.794   2.401  0.3516  0.1307  0.3196
  456TIP3   OH2 1373   1.895   5.323   5.007  0.9738 -0.7232  0.1054
  456TIP3    H1 1374   1.847   5.381   5.066  1.5097 -0.6584  0.4919
  456TIP3    H2 1375   1.845   5.324   4.926  0.7586 -0.0252  0.2347
  457TIP3   OH2 1376   2.617   5.881   1.112  0.4581  0.2267 -0.4488
  457TIP3    H1 1377   2.659   5.893   1.198  0.7987  0.4419 -0.6456
  457TIP3    H2 1378   2.525   5.870   1.133  0.5705  0.0371 -0.0318
  458TIP3   OH2 1379   4.997   3.600   2.483  0.5919 -0.0929 -0.2930
  458TIP3    H1 1380   5.068   3.570   2.426  0.6511  0.1837 -0.3674
  458TIP3    H2 1381   4.934   3.527   2.484  0.3474  0.0986 -1.1135
  459TIP3   OH2 1382   3.565   5.892   3.098 -0.0498 -0.4173  0.2060
  459TIP3    H1 1383   3.537   5.812   3.052 -0.1826  1.0841 -2.5324
  459TIP3    H2 1384   3.652   5.911   3.062  0.1071  0.5153  1.0466
  460TIP3   OH2 1385   2.988   1.258   3.001  0.0478  0.5653  0.4526
  460TIP3    H1 1386   3.067   1.269   3.053 -0.3644  1.3464  0.9407
  460TIP3    H2 1387   2.943   1.343   3.008 -0.0247  0.6796 -1.1638
  461TIP3   OH2 1388   6.304   3.930   4.557 -0.0665 -0.0236 -0.1381
  461TIP3    H1 1389   6.286   4.024   4.546 -1.8897 -0.3604 -0.4622
  461TIP3    H2 1390   6.293   3.893   4.469 -0.2163 -0.6598  0.1404
  462TIP3   OH2 1391   0.559   2.008   1.389 -0.0589  0.0389 -0.6193
  462TIP3    H1 1392   0.601   1.932   1.350  0.0590 -0.6268  0.7730
  462TIP3    H2 1393   0.588   2.082   1.335  1.1805 -0.6790 -0.9510
  463TIP3   OH2 1394   4.505   0.358   3.770 -0.1429 -0.4278 -0.5369
  463TIP3    H1 1395   4.448   0.282   3.784 -2.0005  0.3456 -3.2686
  463TIP3    H2 1396   4.579   0.323   3.721 -0.1393 -0.7532 -0.3064
  464TIP3   OH2 1397   3.967   1.836   1.761 -0.5384 -0.2283 -0.3927
  464TIP3    H1 1398   4.018   1.763   1.725 -0.8080 -0.2745 -0.6917
  464TIP3    H2 1399   3.928   1.801   1.841  0.8798  0.1831  0.5109
  465TIP3   OH2 1400   3.863   0.549   4.996  0.2743  0.1305  0.1466
  465TIP3    H1 1401   3.783   0.542   4.942  0.8861  1.6515 -1.0474
  465TIP3    H2 1402   3.917   0.475   4.968 -0.6245 -0.8435  0.8772
  466TIP3   OH2 1403   0.527   0.614   2.357  0.0767  0.5204 -0.0469
  466TIP3    H1 1404   0.522   0.644   2.448 -1.2749  0.2234 -0.0037
  466TIP3    H2 1405   0.614   0.640   2.329  0.1742  1.4853  1.0320
  467TIP3   OH2 1406   4.493   3.716   3.633 -0.0280 -0.1301  0.4918
  467TIP3    H1 1407   4.494   3.623   3.655 -0.9889 -0.5479 -1.1062
  467TIP3    H2 1408   4.509   3.760   3.717 -2.8342 -1.6575  1.9713
  468TIP3   OH2 1409   4.851   2.417   0.960 -0.1454 -0.3740  0.1479
  468TIP3    H1 1410   4.925   2.476   0.974  0.1098 -0.8910  1.0931
  468TIP3    H2 1411   4.886   2.348   0.903  0.0286 -0.4852  0.3888
  469TIP3   OH2 1412   4.802   2.376   0.365  0.0297  0.9661 -0.3696
  469TIP3    H1 1413   4.791   2.463   0.404 -0.3315  0.5881  0.3826
  469TIP3    H2 1414   4.878   2.339   0.410  0.8032  1.2708 -1.3949
  470TIP3   OH2 1415   2.192   1.351   1.785  0.4035 -0.0319 -0.1646
  470TIP3    H1 1416   2.104   1.375   1.813  0.9557  0.7259  0.9366
  470TIP3    H2 1417   2.226   1.428   1.740  0.1555 -0.6650 -1.5117
  471TIP3   OH2 1418   0.725   2.338   0.724 -0.3678 -0.1596 -0.3348
  471TIP3    H1 1419   0.748   2.270   0.787 -0.9387  0.5642  0.6921
  471TIP3    H2 1420   0.703   2.414   0.778  0.1272  0.8114 -1.4416
  472TIP3   OH2 1421   3.478   3.272   0.075  0.4891 -0.5437 -0.4657
  472TIP3    H1 1422   3.440   3.188   0.103  0.3624  0.2685  2.0756
  472TIP3    H2 1423   3.487   3.322   0.156  1.8093  1.4201 -1.7432
  473TIP3   OH2 1424   4.587   2.210   2.698  0.2942 -0.1429  0.5984
  473TIP3    H1 1425   4.555   2.147   2.762  1.0687 -0.0833  1.0496
  473TIP3    H2 1426   4.676   2.230   2.726 -0.4352  2.3628  1.3921
  474TIP3   OH2 1427   4.345   1.870   0.771  0.2848 -0.0533  0.6883
  474TIP3    H1 1428   4.303   1.791   0.807  0.7035 -0.0825  1.1355
  474TIP3    H2 1429   4.303   1.943   0.816 -2.0770  0.1999 -1.7010
  475TIP3   OH2 1430   3.998   3.052   3.901 -0.4276 -0.0547 -0.7243
  475TIP3    H1 1431   3.912   3.053   3.943  0.4249 -1.5961  1.1799
  475TIP3    H2 1432   4.060   3.053   3.973  1.1230 -2.2320 -1.9038
  476TIP3   OH2 1433   2.956   1.016   4.457 -0.2567  0.4496 -0.3623
  476TIP3    H1 1434   2.892   0.949   4.484  0.6043  0.1931  1.1659
  476TIP3    H2 1435   3.018   0.969   4.402 -0.6454  0.4108 -0.7770
  477TIP3   OH2 1436   1.254   4.705   3.881  0.0803 -0.5336  0.2155
  477TIP3    H1 1437   1.302   4.635   3.926  2.7813 -0.0498 -1.6278
  477TIP3    H2 1438   1.270   4.782   3.935  1.5715 -0.3592 -0.4256
  478TIP3   OH2 1439   0.762   2.742   2.110 -0.3574 -0.4082 -0.1062
  478TIP3    H1 1440   0.667   2.736   2.104 -0.4606 -1.4932  1.6910
  478TIP3    H2 1441   0.792   2.651   2.115  0.6028 -0.0606  1.1209
  479TIP3   OH2 1442   4.358   5.762   4.235 -0.6185  0.0751  0.5071
  479TIP3    H1 1443   4.395   5.809   4.310 -0.4474 -1.6093  1.5316
  479TIP3    H2 1444   4.418   5.690   4.219 -0.0334  1.0325 -2.0545
  480TIP3   OH2 1445   2.056   4.734   1.080  0.0828  0.0548 -0.2950
  480TIP3    H1 1446   2.035   4.817   1.123  1.3913  1.0192 -1.4036
  480TIP3    H2 1447   2.016   4.667   1.135 -1.2100  1.4311  0.5062
  481TIP3   OH2 1448   4.271   1.795   4.643  0.0293  0.5727  0.5587
  481TIP3    H1 1449   4.286   1.888   4.627 -2.0582  0.9509  0.4555
  481TIP3    H2 1450   4.241   1.791   4.734 -0.6750  0.1260  0.3189
  482TIP3   OH2 1451   2.934   4.982   3.578 -0.1505 -0.5052 -0.2611
  482TIP3    H1 1452   2.868   4.918   3.549 -0.7005  0.7708 -2.0401
  482TIP3    H2 1453   3.013   4.930   3.594 -0.8327 -1.7333 -0.7536
  483TIP3   OH2 1454   3.620   0.943   4.489 -0.3700  0.0765  0.0369
  483TIP3    H1 1455   3.688   0.985   4.436  1.7853 -2.4089  0.6455
  483TIP3    H2 1456   3.610   1.001   4.565 -0.2927  1.4070 -0.9256
  484TIP3   OH2 1457   1.861   0.950   4.618 -0.2458 -0.4439 -0.0316
  484TIP3    H1 1458   1.926   0.978   4.554 -0.4403 -0.2161 -0.1267
  484TIP3    H2 1459   1.785   1.006   4.603 -0.0235  0.1342  0.8982
  485TIP3   OH2 1460   3.467   1.161   3.111  0.5889 -0.6265 -0.1368
  485TIP3    H1 1461   3.546   1.111   3.091 -0.0567 -1.5801 -0.4274
  485TIP3    H2 1462   3.436   1.125   3.194 -0.1281 -1.0574 -0.5712
  486TIP3   OH2 1463   1.324   4.419   2.796  0.4362 -0.5203 -0.1571
  486TIP3    H1 1464   1.257   4.358   2.769 -1.6897  0.2576  2.8124
  486TIP3    H2 1465   1.285   4.506   2.784  1.5388  0.0389  0.0833
  487TIP3   OH2 1466   0.362   5.506   4.383 -0.1507 -0.2796  0.3738
  487TIP3    H1 1467   0.325   5.487   4.469 -0.4511  0.5059  0.4334
  487TIP3    H2 1468   0.419   5.582   4.398 -2.8215  2.1224 -0.6596
  488TIP3   OH2 1469   2.148   1.667   0.243  0.0345 -0.3464 -0.4425
  488TIP3    H1 1470   2.236   1.694   0.218  0.0697  0.3847  0.4138
  488TIP3    H2 1471   2.096   1.682   0.164  0.7183 -1.0620 -1.0440
  489TIP3   OH2 1472   0.519   5.615   3.647 -0.6103  0.1699 -0.2486
  489TIP3    H1 1473   0.529   5.540   3.589 -3.3082 -1.6905  1.4874
  489TIP3    H2 1474   0.608   5.639   3.672  0.3630 -1.9112 -1.5053
  490TIP3   OH2 1475   0.453   0.206   2.908 -0.1891  0.0147  0.0635
  490TIP3    H1 1476   0.530   0.170   2.865 -1.9009 -1.4664 -1.9654
  490TIP3    H2 1477   0.388   0.136   2.904 -2.0551  1.6123  0.6070
  491TIP3   OH2 1478   1.506   2.056   3.192  0.3791 -0.1420 -0.2839
  491TIP3    H1 1479   1.585   2.101   3.163 -1.0811  1.4237 -2.1530
  491TIP3    H2 1480   1.473   2.110   3.264 -0.3066  0.7088 -1.2059
  492TIP3   OH2 1481   4.669   5.433   1.382 -0.8367  0.1570  0.4291
  492TIP3    H1 1482   4.626   5.355   1.417  0.3967 -1.2021 -0.9584
  492TIP3    H2 1483   4.739   5.399   1.326 -0.8930  2.2638 -1.0139
  493TIP3   OH2 1484   5.892   0.214   3.747 -0.2536  0.2651  0.6858
  493TIP3    H1 1485   5.932   0.232   3.662  0.5299  0.3893  1.0750
  493TIP3    H2 1486   5.833   0.289   3.761  1.6142  1.6659  1.4520
  494TIP3   OH2 1487   4.620   5.305   1.852 -0.2164 -0.3359 -0.2583
  494TIP3    H1 1488   4.545   5.246   1.858 -0.2808 -0.1977  0.3357
  494TIP3    H2 1489   4.656   5.289   1.764 -0.4961 -0.9342 -0.2689
  495TIP3   OH2 1490   2.890   1.037   2.420  0.7531  0.1950  0.6585
  495TIP3    H1 1491   2.802   1.075   2.423  0.9220  0.6350  0.2079
  495TIP3    H2 1492   2.880   0.960   2.363  0.9551  1.0853 -0.6246
  496TIP3   OH2 1493   2.603   5.302   0.160 -0.8010  0.4511 -0.5738
  496TIP3    H1 1494   2.514   5.284   0.190 -1.0710  0.7818 -1.1526
  496TIP3    H2 1495   2.593   5.372   0.096 -0.0982  0.6346 -0.4917
  497TIP3   OH2 1496   4.258   5.499   2.355  0.3532 -0.1981  0.2137
  497TIP3    H1 1497   4.174   5.479   2.315 -0.8640  2.4532  1.2477
  497TIP3    H2 1498   4.304   5.415   2.357 -1.1174 -1.2275 -2.8947
  498TIP3   OH2 1499   1.534   0.510   2.869  0.0778  0.5753 -0.1467
  498TIP3    H1 1500   1.628   0.506   2.889  0.5114  3.8851 -0.9599
  498TIP3    H2 1501   1.531   0.547   2.780 -2.0093 -1.4275 -0.9834
  499TIP3   OH2 1502   3.893   4.068   4.586  0.5000 -0.4153 -0.3000
  499TIP3    H1 1503   3.823   4.003   4.582 -0.7730  0.8958  0.0961
  499TIP3    H2 1504   3.850   4.148   4.615  2.0058  0.6588 -0.9229
  500TIP3   OH2 1505   2.813   0.512   1.749  0.8495 -0.1796 -0.2155
  500TIP3    H1 1506   2.816   0.419   1.774  0.7566 -0.3143 -0.6791
  500TIP3    H2 1507   2.721   0.528   1.729  0.7272  0.2411  0.6783
  501TIP3   OH2 1508   5.469   2.512   1.637 -0.5523  0.0004  0.0869
  501TIP3    H1 1509   5.512   2.593   1.664 -1.7763  1.1178 -1.1752
  501TIP3    H2 1510   5.488   2.450   1.707  0.7460  1.2553  0.8859
  502TIP3   OH2 1511   5.960   2.436   2.938 -0.0444  0.1426  0.0828
  502TIP3    H1 1512   5.955   2.377   3.014 -2.2584 -0.0272 -0.1350
  502TIP3    H2 1513   5.940   2.380   2.863 -2.4282  1.1401 -0.1037
  503TIP3   OH2 1514   2.253   2.749   0.507  0.3396  0.1950 -0.1279
  503TIP3    H1 1515   2.187   2.782   0.447  1.0937  2.1670  0.0398
  503TIP3    H2 1516   2.214   2.671   0.546 -1.1905  0.3579 -1.2478
  504TIP3   OH2 1517   1.393   4.995   0.731 -0.4536  0.1311  0.6244
  504TIP3    H1 1518   1.475   5.011   0.779 -0.6163  0.3388  0.8306
  504TIP3    H2 1519   1.338   4.949   0.793 -0.6962  0.4736  0.6630
  505TIP3   OH2 1520   5.303   3.929   0.037 -0.0629  0.4322  0.3908
  505TIP3    H1 1521   5.231   3.878   0.003  2.2489 -0.6331 -3.4709
  505TIP3    H2 1522   5.314   4.001  -0.025  2.5498  0.1538  0.4013
  506TIP3   OH2 1523   3.193   1.556   0.999 -0.0390  0.4212  0.5407
  506TIP3    H1 1524   3.106   1.546   0.962  0.1211 -1.2624  0.5634
  506TIP3    H2 1525   3.241   1.608   0.934 -0.4288 -0.5306 -0.5391
  507TIP3   OH2 1526   2.588   1.488   4.629 -0.2335  0.1485 -0.6221
  507TIP3    H1 1527   2.524   1.441   4.682 -0.8675  0.1433 -1.3742
  507TIP3    H2 1528   2.536   1.534   4.563  0.6120 -1.0134 -2.1651
  508TIP3   OH2 1529   4.562   4.172   1.481 -0.3240  0.4708  0.1184
  508TIP3    H1 1530   4.483   4.210   1.443 -0.5248 -0.4450 -0.4174
  508TIP3    H2 1531   4.564   4.204   1.571 -0.6717  1.4395 -0.2049
  509TIP3   OH2 1532   5.470   0.860   4.903 -0.0795  1.0027 -0.4118
  509TIP3    H1 1533   5.529   0.935   4.898  1.0449  0.2453  0.8830
  509TIP3    H2 1534   5.469   0.825   4.814  1.2960  1.1584 -0.5148
  510TIP3   OH2 1535   5.696   4.274   0.633  0.0151  0.0374 -0.5418
  510TIP3    H1 1536   5.607   4.307   0.643 -0.9895 -2.3176 -1.0774
  510TIP3    H2 1537   5.736   4.284   0.719 -1.3693 -0.4655  0.1825
  511TIP3   OH2 1538   1.151   0.812   4.276 -0.3853 -0.1649  0.0126
  511TIP3    H1 1539   1.098   0.747   4.230 -0.6646 -1.1658  1.6428
  511TIP3    H2 1540   1.089   0.860   4.330 -0.1873  1.5509 -1.2181
  512TIP3   OH2 1541   1.474   0.225   0.842 -0.4318  0.0370 -0.1290
  512TIP3    H1 1542   1.496   0.186   0.758  2.8105  0.3908  0.3997
  512TIP3    H2 1543   1.525   0.306   0.845 -0.9865  0.3744  1.8894
  513TIP3   OH2 1544   5.111   2.493   4.207  0.1946 -0.2076 -0.0937
  513TIP3    H1 1545   5.195   2.522   4.173  0.1731 -0.4363 -0.3503
  513TIP3    H2 1546   5.056   2.481   4.129  0.5500 -2.0222 -0.1221
  514TIP3   OH2 1547   1.350   5.808   5.087  0.3599  0.3584 -0.4023
  514TIP3    H1 1548   1.303   5.725   5.080  2.1534 -0.9531  1.6744
  514TIP3    H2 1549   1.422   5.800   5.024  0.0647  0.7252 -0.7959
  515TIP3   OH2 1550   1.376   5.033   2.889  0.2772 -0.0910 -1.0810
  515TIP3    H1 1551   1.344   4.945   2.868  0.7456  0.2538 -3.5689
  515TIP3    H2 1552   1.420   5.023   2.973 -2.0441 -1.6059  0.0619
  516TIP3   OH2 1553   3.038   3.810   3.313  0.0982  0.0082 -0.3017
  516TIP3    H1 1554   2.949   3.830   3.283  0.4931  0.6725 -1.0645
  516TIP3    H2 1555   3.028   3.729   3.364 -0.7607 -0.6231 -1.4093
  517TIP3   OH2 1556   1.555   0.741   2.000 -0.5328 -0.2144 -0.6997
  517TIP3    H1 1557   1.528   0.656   2.033 -1.5464  0.4595  0.2574
  517TIP3    H2 1558   1.476   0.777   1.959 -0.0732  0.2104 -1.2343
  518TIP3   OH2 1559   4.752   5.677   3.103  0.0069 -0.6817  0.5664
  518TIP3    H1 1560   4.751   5.589   3.140  0.5218 -0.6471  0.6636
  518TIP3    H2 1561   4.836   5.683   3.056 -0.0924 -0.2984  0.4293
  519TIP3   OH2 1562   1.587   1.863   2.970 -0.5814  0.7274 -0.4701
  519TIP3    H1 1563   1.525   1.934   2.983  2.0787  2.9889  0.9633
  519TIP3    H2 1564   1.647   1.895   2.902  1.5890  0.6172  1.2992
  520TIP3   OH2 1565   0.390   5.065   1.331 -0.1859  0.0236  0.6414
  520TIP3    H1 1566   0.435   4.993   1.288  0.3521 -0.1346  1.4385
  520TIP3    H2 1567   0.439   5.143   1.305  0.3601 -0.1113  1.2361
  521TIP3   OH2 1568   2.670   0.424   0.139 -0.3607 -0.3391 -0.0860
  521TIP3    H1 1569   2.616   0.376   0.202 -0.0483 -0.0482  0.4093
  521TIP3    H2 1570   2.734   0.359   0.109 -0.9144 -0.6536 -0.5915
  522TIP3   OH2 1571   6.335   5.129   2.324 -0.6865  0.4689 -0.0745
  522TIP3    H1 1572   6.243   5.149   2.344 -1.1068 -2.9402  2.3731
  522TIP3    H2 1573   6.385   5.185   2.383 -1.3196  0.6139  0.3412
  523TIP3   OH2 1574   1.451   3.472   3.001 -0.1045  0.4591 -0.5650
  523TIP3    H1 1575   1.394   3.397   2.987 -1.0037  1.0998 -0.4533
  523TIP3    H2 1576   1.540   3.438   2.989 -0.5592 -0.2618 -2.1613
  524TIP3   OH2 1577   5.714   2.387   2.107  0.0885 -0.5172 -0.4356
  524TIP3    H1 1578   5.712   2.292   2.117 -1.3951 -0.4026  0.7413
  524TIP3    H2 1579   5.715   2.401   2.013  1.0359 -1.6941 -0.6273
  525TIP3   OH2 1580   4.973   4.833   3.634 -0.1287 -0.8803 -0.1272
  525TIP3    H1 1581   4.915   4.903   3.666  1.6665  0.5118  0.2542
  525TIP3    H2 1582   5.055   4.878   3.614  0.2034 -2.4290 -2.6371
  526TIP3   OH2 1583   1.831   5.473   0.507 -0.2195  0.0869 -0.7131
  526TIP3    H1 1584   1.833   5.383   0.539 -0.5995 -0.2101 -1.5171
  526TIP3    H2 1585   1.872   5.524   0.578 -1.1399 -0.5312  0.2965
  527TIP3   OH2 1586   2.271   1.376   2.516 -0.1126 -0.1793  0.2356
  527TIP3    H1 1587   2.242   1.377   2.608 -1.4519  1.6809 -0.1361
  527TIP3    H2 1588   2.195   1.346   2.467  0.1440  0.1591 -0.3826
  528TIP3   OH2 1589   5.483   3.627   1.377  0.1867  0.1149 -0.3620
  528TIP3    H1 1590   5.511   3.709   1.337 -0.5428  1.2010  1.2710
  528TIP3    H2 1591   5.428   3.653   1.451 -1.1058 -1.8638 -0.5395
  529TIP3   OH2 1592   0.116   4.218   1.167 -0.2177  0.3116  0.1423
  529TIP3    H1 1593   0.038   4.264   1.135 -0.6979 -0.9396 -0.5575
  529TIP3    H2 1594   0.182   4.287   1.177 -1.2895  1.3419  0.3911
  530TIP3   OH2 1595   1.547   0.254   2.702 -0.2195 -0.2538 -0.0027
  530TIP3    H1 1596   1.538   0.165   2.735  2.0957 -0.3410  0.5839
  530TIP3    H2 1597   1.586   0.303   2.776  1.1874  0.5333 -1.2113
  531TIP3   OH2 1598   3.482   2.623   3.227 -0.3418  0.2441 -0.5110
  531TIP3    H1 1599   3.409   2.673   3.191 -0.8097  0.5521  0.8088
  531TIP3    H2 1600   3.459   2.531   3.209 -0.0942  0.4134 -1.8103
  532TIP3   OH2 1601   6.064   0.959   0.638 -0.3813 -0.0036 -0.5581
  532TIP3    H1 1602   6.057   1.043   0.593  2.9063  0.2999 -0.7012
  532TIP3    H2 1603   6.052   0.981   0.731  1.0503  0.8006 -0.5265
  533TIP3   OH2 1604   0.832   0.816   0.814  0.3457 -0.2738  0.3505
  533TIP3    H1 1605   0.739   0.802   0.799  0.2841  0.2468  0.2515
  533TIP3    H2 1606   0.875   0.754   0.755  0.0687 -0.3767  0.2535
  534TIP3   OH2 1607   1.721   3.927   4.254  0.3056  0.2386  0.2562
  534TIP3    H1 1608   1.761   3.843   4.278  0.6527  0.4412  0.4040
  534TIP3    H2 1609   1.699   3.967   4.338  2.0602  1.2127  0.3158
  535TIP3   OH2 1610   0.819   3.538   0.179 -0.2062 -0.2009 -0.4540
  535TIP3    H1 1611   0.841   3.614   0.126 -0.9111  0.6504  0.4460
  535TIP3    H2 1612   0.766   3.483   0.121  0.4692 -0.1247 -1.1726
  536TIP3   OH2 1613   0.716   5.366   3.388  0.3994  0.6528  0.0339
  536TIP3    H1 1614   0.807   5.334   3.388 -0.0853 -0.7749  0.6332
  536TIP3    H2 1615   0.724   5.460   3.402  1.7294  0.3430  1.5831
  537TIP3   OH2 1616   0.582   0.284   5.007 -0.0950  0.2056 -0.1513
  537TIP3    H1 1617   0.611   0.309   4.919  0.9074  1.5949  0.5426
  537TIP3    H2 1618   0.635   0.207   5.029  2.1026  1.7844  0.4752
  538TIP3   OH2 1619   5.503   1.914   1.505 -0.2316  0.0621  0.0557
  538TIP3    H1 1620   5.430   1.860   1.535  0.8220 -0.8287  1.1370
  538TIP3    H2 1621   5.483   2.002   1.537 -1.0617 -0.0658 -0.0872
  539TIP3   OH2 1622   5.571   3.263   1.921  0.8137 -0.3444 -0.4472
  539TIP3    H1 1623   5.580   3.242   1.828  1.0742  2.6011 -1.1711
  539TIP3    H2 1624   5.484   3.301   1.929  2.0923  2.8652 -0.3326
  540TIP3   OH2 1625   0.800   1.764   2.683 -0.1814  0.5372  0.3245
  540TIP3    H1 1626   0.795   1.842   2.628  1.4586  0.8046  0.5150
  540TIP3    H2 1627   0.743   1.700   2.639 -3.8863  2.5977  1.6056
  541TIP3   OH2 1628   2.093   2.588   0.294 -0.4518  0.2387 -0.6385
  541TIP3    H1 1629   2.020   2.580   0.232  1.2947 -0.7615 -2.7097
  541TIP3    H2 1630   2.171   2.584   0.239  1.2023  2.5980  1.3458
  542TIP3   OH2 1631   0.225   3.672   2.845  0.1400 -0.0166  0.7756
  542TIP3    H1 1632   0.132   3.689   2.858 -0.0335  1.3169 -1.6435
  542TIP3    H2 1633   0.262   3.756   2.820  1.0498 -1.2587 -2.7648
  543TIP3   OH2 1634   2.222   4.171   4.546  0.1255 -0.2645 -1.2543
  543TIP3    H1 1635   2.165   4.220   4.487  0.6670  2.2779  0.2014
  543TIP3    H2 1636   2.170   4.096   4.573 -2.4334  1.7102 -0.3097
  544TIP3   OH2 1637   3.402   1.436   2.730  0.3400 -0.7358  0.1022
  544TIP3    H1 1638   3.329   1.374   2.737 -0.4050  0.1874  0.7828
  544TIP3    H2 1639   3.372   1.501   2.667 -0.3126  0.7595  1.8511
  545TIP3   OH2 1640   5.542   2.006   3.295 -0.0526 -0.0019 -0.1859
  545TIP3    H1 1641   5.562   1.921   3.335  1.7498  0.1239 -0.7180
  545TIP3    H2 1642   5.489   2.051   3.359  0.8550 -0.6895  1.0926
  546TIP3   OH2 1643   0.966   5.737   2.782 -0.3312 -0.4142 -0.2678
  546TIP3    H1 1644   0.945   5.650   2.748  0.5091 -1.0643  0.8474
  546TIP3    H2 1645   1.035   5.722   2.846 -0.6272  1.0006  0.4147
  547TIP3   OH2 1646   4.873   5.085   2.967 -0.2178 -0.3578  0.1959
  547TIP3    H1 1647   4.900   5.070   3.058  0.8442 -0.4790 -0.1281
  547TIP3    H2 1648   4.798   5.144   2.974  0.0470 -0.1129  1.1367
  548TIP3   OH2 1649   1.138   4.037   0.047 -0.4076  0.1443  0.2790
  548TIP3    H1 1650   1.177   3.969   0.103  2.9083  1.9173  0.3676
  548TIP3    H2 1651   1.210   4.067  -0.008 -2.1633  2.4781 -0.9129
  549TIP3   OH2 1652   5.534   1.242   0.152 -0.0219  0.0712 -0.2042
  549TIP3    H1 1653   5.450   1.255   0.108  0.0809  1.1077 -0.1254
  549TIP3    H2 1654   5.591   1.309   0.115  0.7534 -0.5702 -0.1929
  550TIP3   OH2 1655   1.494   2.170   0.668 -0.1802 -0.4537 -0.4423
  550TIP3    H1 1656   1.444   2.107   0.617  0.2758 -0.2571 -1.1457
  550TIP3    H2 1657   1.545   2.218   0.603  0.8057 -0.5493  0.2539
  551TIP3   OH2 1658   3.433   0.809   3.011  0.0008 -0.6691  0.0209
  551TIP3    H1 1659   3.397   0.720   3.005  0.3028 -0.8399  0.6473
  551TIP3    H2 1660   3.508   0.808   2.951 -0.7472 -0.4450 -0.9489
  552TIP3   OH2 1661   5.203   4.972   3.561 -0.2492  0.1307  0.3847
  552TIP3    H1 1662   5.173   5.042   3.502 -0.8627  0.1345  0.6958
  552TIP3    H2 1663   5.290   5.001   3.590  0.1367  0.0498 -0.6425
  553TIP3   OH2 1664   0.650   0.602   3.753 -0.3806  0.0092 -0.3308
  553TIP3    H1 1665   0.693   0.624   3.835 -1.5783 -0.4458  0.4403
  553TIP3    H2 1666   0.720   0.605   3.688  0.4946  0.8370  0.6168
  554TIP3   OH2 1667   3.010   3.455   1.212  0.3277  1.3863 -0.3224
  554TIP3    H1 1668   3.024   3.516   1.140 -0.7500  1.1433 -0.7525
  554TIP3    H2 1669   2.921   3.473   1.242  0.3271  0.6527  0.1503
  555TIP3   OH2 1670   2.803   2.562   2.699 -0.1709  0.3072 -0.4337
  555TIP3    H1 1671   2.883   2.526   2.660  0.3666  0.5139  0.4457
  555TIP3    H2 1672   2.796   2.516   2.783 -0.8516  0.4591 -0.4067
  556TIP3   OH2 1673   2.331   3.635   2.258  0.2373 -0.3327 -0.4317
  556TIP3    H1 1674   2.292   3.585   2.187 -0.4648  1.9365 -1.7585
  556TIP3    H2 1675   2.289   3.721   2.252  1.7243  0.5837  1.3941
  557TIP3   OH2 1676   3.809   3.825   1.986 -0.0806 -0.3114 -0.1455
  557TIP3    H1 1677   3.754   3.755   1.952  0.2197 -1.2483  1.2217
  557TIP3    H2 1678   3.864   3.783   2.052 -1.0868  1.4938  2.0046
  558TIP3   OH2 1679   5.541   5.254   4.218 -0.1337  0.3114 -0.4709
  558TIP3    H1 1680   5.633   5.245   4.244 -0.0410 -1.4475 -1.3118
  558TIP3    H2 1681   5.542   5.260   4.123 -0.7509  3.0327 -0.4034
  559TIP3   OH2 1682   4.679   1.627   0.614  0.4091  0.2778  0.3062
  559TIP3    H1 1683   4.628   1.562   0.663 -0.8607  0.6882 -0.4302
  559TIP3    H2 1684   4.621   1.655   0.544  2.7983 -1.7799 -2.7852
  560TIP3   OH2 1685   5.339   3.655   5.110 -0.6126 -0.2537 -0.8978
  560TIP3    H1 1686   5.255   3.699   5.120 -0.7845 -0.7113 -0.2601
  560TIP3    H2 1687   5.381   3.663   5.196 -0.8896 -1.8088 -0.5973
  561TIP3   OH2 1688   1.595   0.120   0.500 -0.2470  0.1845 -0.5138
  561TIP3    H1 1689   1.525   0.096   0.439  0.1131 -1.6312 -0.2714
  561TIP3    H2 1690   1.643   0.189   0.455 -0.6298 -0.3783 -1.8458
  562TIP3   OH2 1691   6.206   4.560   3.404  0.5985  0.1773 -0.4060
  562TIP3    H1 1692   6.254   4.556   3.486  1.3958 -0.6693 -0.8987
  562TIP3    H2 1693   6.141   4.491   3.410  0.4234  0.3451 -0.3503
  563TIP3   OH2 1694   6.210   3.392   3.191  0.1063 -0.7251 -0.2501
  563TIP3    H1 1695   6.114   3.398   3.193  0.1309 -0.2360 -0.4609
  563TIP3    H2 1696   6.239   3.479   3.166  0.6406 -0.6727  0.5129
  564TIP3   OH2 1697   2.161   3.473   2.678  0.1947 -0.4709 -0.0262
  564TIP3    H1 1698   2.223   3.541   2.703 -1.2848  0.5068  1.1288
  564TIP3    H2 1699   2.116   3.509   2.601 -1.5222  0.5341  1.3673
  565TIP3   OH2 1700   1.795   3.509   0.688 -0.0560 -0.0763  0.0886
  565TIP3    H1 1701   1.729   3.468   0.744  0.0007  0.5947  0.6666
  565TIP3    H2 1702   1.753   3.590   0.658 -1.2602 -1.7614 -3.3135
  566TIP3   OH2 1703   2.422   5.278   0.807 -0.2770  0.7033  0.4204
  566TIP3    H1 1704   2.415   5.345   0.739  0.6216  0.3828  0.0045
  566TIP3    H2 1705   2.513   5.250   0.805  0.2337  1.8864  2.9281
  567TIP3   OH2 1706   2.179   2.235   3.629  0.0688 -0.3242 -0.1505
  567TIP3    H1 1707   2.167   2.326   3.603 -0.1696 -0.3789 -0.2343
  567TIP3    H2 1708   2.271   2.216   3.608 -0.2014 -0.4614 -1.2631
  568TIP3   OH2 1709   0.259   4.822   4.925  0.0356 -0.2970 -0.4883
  568TIP3    H1 1710   0.179   4.825   4.978  0.5846 -1.5814  0.4610
  568TIP3    H2 1711   0.317   4.886   4.966 -0.6605  1.0314 -1.5026
  569TIP3   OH2 1712   0.842   3.367   0.889  0.0278  0.3456  0.2455
  569TIP3    H1 1713   0.800   3.445   0.851  0.5501  0.6088  0.1935
  569TIP3    H2 1714   0.900   3.402   0.957 -0.8173 -0.1153  1.2303
  570TIP3   OH2 1715   4.497   2.849   1.952 -0.0890 -0.2303  0.3007
  570TIP3    H1 1716   4.417   2.890   1.922 -0.8011 -3.0134 -2.0839
  570TIP3    H2 1717   4.567   2.908   1.923 -1.1338  0.6582 -0.4847
  571TIP3   OH2 1718   6.019   5.862   3.098 -0.3815 -0.0118  0.5319
  571TIP3    H1 1719   5.942   5.881   3.152 -1.5996 -1.1867 -0.7167
  571TIP3    H2 1720   6.072   5.804   3.153 -1.0752 -0.3106  0.9048
  572TIP3   OH2 1721   1.828   3.270   2.182 -0.0701  0.1878  0.5662
  572TIP3    H1 1722   1.844   3.201   2.247  0.9395  0.5269  0.6976
  572TIP3    H2 1723   1.846   3.228   2.098  0.6699  0.3119  0.6547
  573TIP3   OH2 1724   3.580   3.961   0.417  0.5133  0.2944 -0.4508
  573TIP3    H1 1725   3.594   4.043   0.465  0.5437 -0.1423  0.3049
  573TIP3    H2 1726   3.571   3.895   0.485  1.2159 -0.4521 -1.0661
  574TIP3   OH2 1727   4.880   5.156   1.161  0.0269 -0.4225  0.0236
  574TIP3    H1 1728   4.884   5.187   1.070 -0.0456 -0.2571  0.0758
  574TIP3    H2 1729   4.933   5.219   1.210  0.8591 -1.0528 -0.0434
  575TIP3   OH2 1730   2.834   1.554   2.463 -0.4231 -0.1456 -0.3725
  575TIP3    H1 1731   2.926   1.550   2.436  0.2998 -1.7757  1.9501
  575TIP3    H2 1732   2.814   1.464   2.489 -1.1899  0.9502  3.4341
  576TIP3   OH2 1733   3.217   0.743   3.705  0.3528 -0.2375  0.2753
  576TIP3    H1 1734   3.296   0.701   3.740 -0.4236  0.2495  2.8024
  576TIP3    H2 1735   3.151   0.732   3.774 -0.9835  1.7880 -0.5870
  577TIP3   OH2 1736   1.110   0.176   2.052  0.1806 -0.2586  0.4408
  577TIP3    H1 1737   1.050   0.101   2.053 -1.0470  0.7011  0.8457
  577TIP3    H2 1738   1.156   0.170   2.136 -0.3276 -0.2434  0.7262
  578TIP3   OH2 1739   3.615   3.865   3.069  0.5339 -0.1539 -0.4533
  578TIP3    H1 1740   3.583   3.950   3.100  2.2832 -0.0037  1.1040
  578TIP3    H2 1741   3.710   3.870   3.079  0.5620 -3.1302  2.1147
  579TIP3   OH2 1742   3.107   4.773   1.439 -0.4917 -0.5436 -0.0265
  579TIP3    H1 1743   3.182   4.820   1.400 -1.4162  1.9088  0.9408
  579TIP3    H2 1744   3.145   4.723   1.511  0.1151  2.0948  1.6373
  580TIP3   OH2 1745   4.750   2.806   5.124  0.8287 -0.2895 -0.3110
  580TIP3    H1 1746   4.753   2.734   5.060 -0.7773 -0.8068  0.1397
  580TIP3    H2 1747   4.734   2.884   5.071  0.6117 -0.5555 -0.6470
  581TIP3   OH2 1748   5.173   3.108   4.865 -0.6469  0.1390  0.6288
  581TIP3    H1 1749   5.252   3.132   4.816 -0.4802  2.7385  1.9813
  581TIP3    H2 1750   5.168   3.013   4.857  2.0980 -0.0272 -0.2832
  582TIP3   OH2 1751   0.283   3.403   4.736  0.3460  0.8298  0.4748
  582TIP3    H1 1752   0.244   3.457   4.805 -2.5968  1.3151 -1.3702
  582TIP3    H2 1753   0.336   3.465   4.685 -1.5097  1.6811 -0.5339
  583TIP3   OH2 1754   0.992   4.365   0.865 -0.6136 -0.1292  0.2560
  583TIP3    H1 1755   0.984   4.276   0.900 -0.4855 -0.8667 -1.4898
  583TIP3    H2 1756   1.083   4.373   0.838 -0.8399  0.1969 -0.4424
  584TIP3   OH2 1757   4.145   1.865   3.067 -0.7201 -0.2394 -0.2497
  584TIP3    H1 1758   4.152   1.876   2.973 -3.1684 -2.2218 -0.7675
  584TIP3    H2 1759   4.087   1.935   3.096  1.5164  1.5338  0.1700
  585TIP3   OH2 1760   1.099   5.325   2.567  0.4190  0.4112 -0.3961
  585TIP3    H1 1761   1.063   5.247   2.526  0.4971 -0.1352  0.5411
  585TIP3    H2 1762   1.125   5.296   2.655  1.5638  1.1956 -0.4544
  586TIP3   OH2 1763   5.257   0.428   1.289 -0.4407  0.0892 -0.0260
  586TIP3    H1 1764   5.224   0.344   1.322 -0.3668 -0.2688 -0.8505
  586TIP3    H2 1765   5.194   0.453   1.222  0.4109 -0.1111 -0.9190
  587TIP3   OH2 1766   5.781   3.149   5.113 -0.2816  0.4737 -0.2019
  587TIP3    H1 1767   5.694   3.184   5.133 -0.3036 -0.7787  2.1374
  587TIP3    H2 1768   5.780   3.137   5.018 -2.6119  0.6085 -0.2483
  588TIP3   OH2 1769   2.035   2.735   4.463  0.2610  1.0649  0.5378
  588TIP3    H1 1770   1.946   2.765   4.483 -0.3959  0.6466 -1.5251
  588TIP3    H2 1771   2.030   2.640   4.468  0.4695  1.0220  0.0204
  589TIP3   OH2 1772   2.462   3.214   1.617  0.9256 -0.3543 -0.2438
  589TIP3    H1 1773   2.416   3.216   1.701  1.7829 -1.0508  0.2600
  589TIP3    H2 1774   2.445   3.126   1.582  2.1337 -0.7548  0.1185
  590TIP3   OH2 1775   3.518   2.418   4.109  0.2572 -0.7070 -0.0334
  590TIP3    H1 1776   3.535   2.494   4.165  0.0561 -0.4705 -0.2915
  590TIP3    H2 1777   3.423   2.418   4.098 -0.0357 -2.3937  1.9433
  591TIP3   OH2 1778   5.471   4.653   2.873  0.0004  0.2415  0.2053
  591TIP3    H1 1779   5.467   4.702   2.956 -1.3961  0.5556 -0.0177
  591TIP3    H2 1780   5.545   4.692   2.826  0.2033  0.7220  0.8960
  592TIP3   OH2 1781   1.676   2.837   2.100 -0.2524 -0.3810  0.4613
  592TIP3    H1 1782   1.594   2.869   2.138  0.1528  1.1001  0.1624
  592TIP3    H2 1783   1.651   2.805   2.013 -0.6681 -0.8386  0.7479
  593TIP3   OH2 1784   2.187   3.721   4.205 -0.1169  0.2228  0.0164
  593TIP3    H1 1785   2.166   3.727   4.298 -1.4009 -0.2392 -0.2216
  593TIP3    H2 1786   2.156   3.634   4.179  3.0809 -0.9858 -0.1696
  594TIP3   OH2 1787   0.258   0.919   3.719  0.0506 -0.2998 -0.1351
  594TIP3    H1 1788   0.290   0.944   3.806  1.8507  1.2165 -1.1844
  594TIP3    H2 1789   0.294   0.984   3.659 -1.2507 -1.2259 -2.0475
  595TIP3   OH2 1790   3.530   1.825   3.899  0.6230 -0.3036 -0.1529
  595TIP3    H1 1791   3.573   1.910   3.896  1.9470 -0.9687 -1.6348
  595TIP3    H2 1792   3.463   1.829   3.831 -0.4249  0.0629  0.8579
  596TIP3   OH2 1793   4.110   1.033   0.580  0.2684  0.4062 -0.4519
  596TIP3    H1 1794   4.038   1.093   0.600  0.7277  0.7702  0.1300
  596TIP3    H2 1795   4.186   1.069   0.626  0.5122 -0.7057  0.0791
  597TIP3   OH2 1796   3.942   2.901   4.963  0.1646 -0.1568  0.1611
  597TIP3    H1 1797   4.003   2.853   5.018  0.4744 -0.9225 -0.8090
  597TIP3    H2 1798   3.863   2.911   5.017 -0.6794 -3.5552 -0.2055
  598TIP3   OH2 1799   5.351   2.922   0.526 -0.1537 -0.4117  0.1749
  598TIP3    H1 1800   5.437   2.883   0.511 -0.6889 -0.7667 -2.4566
  598TIP3    H2 1801   5.369   3.013   0.549  0.9637 -1.0037  1.7447
  599TIP3   OH2 1802   4.789   3.710   4.028 -0.7395  0.0729 -0.1415
  599TIP3    H1 1803   4.841   3.790   4.027 -0.4468 -0.1134  0.0357
  599TIP3    H2 1804   4.788   3.680   3.937 -2.1712  1.1189 -0.5112
  600TIP3   OH2 1805   5.276   0.531   4.251  0.1683  0.4407  0.6627
  600TIP3    H1 1806   5.281   0.508   4.344  2.2220  1.4269  0.8514
  600TIP3    H2 1807   5.214   0.604   4.247 -2.0079 -1.3060  0.8295
  601TIP3   OH2 1808   4.891   4.590   4.325  0.1073  0.2616  0.1391
  601TIP3    H1 1809   4.885   4.642   4.405 -0.6105 -1.3629  1.1989
  601TIP3    H2 1810   4.947   4.516   4.349 -1.2777 -1.0132 -0.3891
  602TIP3   OH2 1811   4.714   1.300   4.277 -0.1675 -0.2569 -0.4063
  602TIP3    H1 1812   4.773   1.351   4.333  0.4871 -1.2445 -0.1725
  602TIP3    H2 1813   4.636   1.355   4.269 -0.0510  0.1665  1.0018
  603TIP3   OH2 1814   3.441   1.349   4.549 -0.3129 -0.1203  0.0393
  603TIP3    H1 1815   3.477   1.398   4.475 -2.7502 -0.6718 -1.6163
  603TIP3    H2 1816   3.438   1.414   4.620  0.0129  1.0675 -0.9882
  604TIP3   OH2 1817   2.659   2.343   4.061  0.0739 -0.9206 -0.4816
  604TIP3    H1 1818   2.693   2.428   4.033 -0.4668 -0.8449 -0.9196
  604TIP3    H2 1819   2.703   2.326   4.144  0.4070 -0.3487 -0.5357
  605TIP3   OH2 1820   3.874   0.225   2.673  0.6844 -0.1078  0.2160
  605TIP3    H1 1821   3.789   0.183   2.657 -1.1935  2.4316  2.6203
  605TIP3    H2 1822   3.914   0.170   2.741  0.1978 -0.3969  0.2779
  606TIP3   OH2 1823   5.564   3.369   2.208  0.1922 -0.5093 -0.8995
  606TIP3    H1 1824   5.566   3.455   2.165 -0.7994 -0.3681 -0.6838
  606TIP3    H2 1825   5.643   3.325   2.177  1.8562  1.2429  0.5870
  607TIP3   OH2 1826   6.315   2.606   4.948 -0.4468 -0.9193  0.0764
  607TIP3    H1 1827   6.232   2.653   4.948  0.1907  0.2780  0.0622
  607TIP3    H2 1828   6.376   2.668   4.907  0.8828 -0.9118  1.9336
  608TIP3   OH2 1829   3.619   3.194   4.903 -0.9055  0.4749 -0.6201
  608TIP3    H1 1830   3.566   3.172   4.979 -0.8805  1.5459 -0.2674
  608TIP3    H2 1831   3.564   3.253   4.851 -0.6429  0.3478 -1.0527
  609TIP3   OH2 1832   0.241   2.102   4.190  0.5373  0.3619 -0.1331
  609TIP3    H1 1833   0.158   2.146   4.207  0.6266  0.1743  0.8329
  609TIP3    H2 1834   0.217   2.012   4.169  0.4540  0.4933 -0.6201
  610TIP3   OH2 1835   1.077   0.109   4.746  0.5357 -0.4133 -0.8818
  610TIP3    H1 1836   1.024   0.094   4.668 -0.0358  0.1225 -0.6044
  610TIP3    H2 1837   1.101   0.021   4.776 -2.4226 -0.8646  0.5102
  611TIP3   OH2 1838   2.662   5.326   1.095 -0.0151  0.4277 -0.8904
  611TIP3    H1 1839   2.610   5.261   1.048  1.2129  0.0469 -1.7620
  611TIP3    H2 1840   2.677   5.396   1.031 -3.1518  2.7163  0.6346
  612TIP3   OH2 1841   4.491   0.832   0.404 -0.1364  0.3461 -0.3322
  612TIP3    H1 1842   4.519   0.801   0.490 -0.2944 -0.2011 -0.4746
  612TIP3    H2 1843   4.477   0.753   0.353 -0.7758  0.6421 -0.6328
  613TIP3   OH2 1844   0.443   2.923   2.833 -0.0794 -0.9095  0.5579
  613TIP3    H1 1845   0.505   2.988   2.868  0.2153 -0.3382 -0.9302
  613TIP3    H2 1846   0.412   2.876   2.909 -0.0597  0.7975  1.6691
  614TIP3   OH2 1847   5.294   3.891   0.327 -0.4246 -0.1189  0.6389
  614TIP3    H1 1848   5.326   3.900   0.237  2.6516  0.7814  1.6856
  614TIP3    H2 1849   5.238   3.967   0.340 -1.1851 -0.4362 -0.5674
  615TIP3   OH2 1850   6.072   0.427   1.457 -0.1186  0.1320 -0.3485
  615TIP3    H1 1851   6.088   0.390   1.544 -0.6886  0.0054 -0.2993
  615TIP3    H2 1852   6.012   0.366   1.415  1.3073 -0.6242 -1.3975
  616TIP3   OH2 1853   3.572   5.203   2.114 -0.5260 -0.4320 -0.2249
  616TIP3    H1 1854   3.551   5.288   2.154 -0.4724 -0.2444 -0.5974
  616TIP3    H2 1855   3.641   5.222   2.051  0.2371 -0.9254  0.4454
  617TIP3   OH2 1856   3.625   3.536   3.093 -0.4394 -0.6065 -0.0474
  617TIP3    H1 1857   3.545   3.527   3.145 -0.8208 -0.2886 -0.5696
  617TIP3    H2 1858   3.603   3.601   3.027  0.5868  0.2472  0.4387
  618TIP3   OH2 1859   4.055   4.593   0.554  0.4141 -0.6133 -0.3930
  618TIP3    H1 1860   4.051   4.507   0.512  1.0439 -0.7723 -0.1343
  618TIP3    H2 1861   4.056   4.574   0.648 -1.9252 -0.2279 -0.2349
  619TIP3   OH2 1862   4.853   4.888   2.614  0.2720  0.4603 -0.4764
  619TIP3    H1 1863   4.784   4.836   2.574  0.6411  0.8378 -1.6486
  619TIP3    H2 1864   4.807   4.955   2.665 -0.2792  1.3589 -2.0839
  620TIP3   OH2 1865   2.864   2.771   0.377  0.1349  0.3979 -0.3155
  620TIP3    H1 1866   2.888   2.861   0.358 -2.5765  1.5906  1.2370
  620TIP3    H2 1867   2.897   2.755   0.465 -0.5714  0.3900 -0.0444
  621TIP3   OH2 1868   2.811   2.363   3.524  0.2228  0.1658 -0.0715
  621TIP3    H1 1869   2.782   2.423   3.593 -0.6621  2.3833 -2.2202
  621TIP3    H2 1870   2.788   2.407   3.443 -1.7627 -3.6838 -1.9000
  622TIP3   OH2 1871   4.049   0.021   2.389  0.5481  0.0318 -0.1527
  622TIP3    H1 1872   4.072   0.096   2.444  2.6726  0.2471 -1.2446
  622TIP3    H2 1873   4.064   0.050   2.299 -0.5681 -1.0765 -0.7515
  623TIP3   OH2 1874   3.434   5.168   1.803 -0.7363  0.3157  0.8071
  623TIP3    H1 1875   3.394   5.106   1.864  0.5546  0.0361  1.4055
  623TIP3    H2 1876   3.456   5.116   1.726 -3.3034  0.8643 -0.4132
  624TIP3   OH2 1877   1.451   1.129   1.721 -0.2675  1.1831 -0.3822
  624TIP3    H1 1878   1.542   1.100   1.720 -0.7525 -0.4429 -0.3092
  624TIP3    H2 1879   1.406   1.068   1.663 -1.9378 -0.3064  2.2622
  625TIP3   OH2 1880   0.977   2.673   3.251 -0.2062 -0.3747 -0.2879
  625TIP3    H1 1881   0.960   2.592   3.299 -0.5589 -0.0214  0.1895
  625TIP3    H2 1882   0.891   2.714   3.241  0.0509  0.2886  0.1140
  626TIP3   OH2 1883   6.048   3.008   1.094  0.0728 -0.9732 -0.2257
  626TIP3    H1 1884   5.996   3.066   1.149  0.3279 -1.1349  0.1845
  626TIP3    H2 1885   6.016   3.025   1.005 -0.3158 -0.6930 -0.0347
  627TIP3   OH2 1886   0.467   5.372   4.961 -0.1708  0.0218  0.2590
  627TIP3    H1 1887   0.417   5.451   4.939  0.0762  0.7162  2.0188
  627TIP3    H2 1888   0.479   5.377   5.056  1.0901 -1.4080  0.2123
  628TIP3   OH2 1889   2.742   4.388   2.466 -0.3192 -0.4531  0.2234
  628TIP3    H1 1890   2.827   4.365   2.428 -0.3778 -1.6323  0.7576
  628TIP3    H2 1891   2.700   4.442   2.399  0.4617 -0.6661 -0.4603
  629TIP3   OH2 1892   1.148   3.823   4.639  0.4547 -0.4731 -0.6532
  629TIP3    H1 1893   1.107   3.878   4.705  0.0937 -0.5486 -0.8091
  629TIP3    H2 1894   1.137   3.872   4.557  0.2502 -0.7105 -0.7698
  630TIP3   OH2 1895   0.505   4.993   1.998  0.1119  0.3743 -0.2437
  630TIP3    H1 1896   0.513   4.944   1.916 -0.8462  1.6356 -1.1186
  630TIP3    H2 1897   0.411   4.999   2.013  0.2493  1.1810  0.3350
  631TIP3   OH2 1898   0.263   3.653   0.459 -0.2107 -0.3189 -0.1986
  631TIP3    H1 1899   0.191   3.714   0.446 -0.6322 -0.3268  1.7564
  631TIP3    H2 1900   0.296   3.636   0.371  0.0930  2.8764 -0.8186
  632TIP3   OH2 1901   0.648   3.891   3.155  0.0872  0.3021  0.2027
  632TIP3    H1 1902   0.693   3.830   3.213  0.0322  1.6414  1.7241
  632TIP3    H2 1903   0.565   3.849   3.134  0.9837 -1.1146 -0.6419
  633TIP3   OH2 1904   0.363   0.403   1.065 -0.2245  0.4762  0.3069
  633TIP3    H1 1905   0.418   0.480   1.082 -0.6651  1.1632 -1.1579
  633TIP3    H2 1906   0.274   0.432   1.082 -0.2082 -0.5609  2.4199
  634TIP3   OH2 1907   1.422   3.826   4.315  0.0043  0.5856 -0.4519
  634TIP3    H1 1908   1.483   3.826   4.241 -0.8890  0.3598 -1.2091
  634TIP3    H2 1909   1.417   3.918   4.342 -0.9087  0.9295 -1.7402
  635TIP3   OH2 1910   5.265   1.516   2.953 -0.2109  0.5596  0.0979
  635TIP3    H1 1911   5.182   1.489   2.993  0.0421 -1.4847 -0.6130
  635TIP3    H2 1912   5.312   1.563   3.022 -1.8317  1.5432  0.5758
  636TIP3   OH2 1913   2.475   2.582   2.014 -0.1540 -0.4955 -0.3801
  636TIP3    H1 1914   2.543   2.635   2.055  1.2433 -2.0670 -0.5390
  636TIP3    H2 1915   2.432   2.536   2.086 -0.4169 -0.2197 -0.3590
  637TIP3   OH2 1916   4.532   3.270   0.828 -0.7541  0.2605 -0.0791
  637TIP3    H1 1917   4.597   3.281   0.758 -0.8356  0.6110 -0.1046
  637TIP3    H2 1918   4.583   3.280   0.909 -0.1541 -2.7807  0.0155
  638TIP3   OH2 1919   3.816   1.762   4.647 -0.3773 -0.3075  0.7801
  638TIP3    H1 1920   3.891   1.779   4.705  0.6016  2.0711 -1.0111
  638TIP3    H2 1921   3.849   1.699   4.583 -0.6839 -1.0272  1.3096
  639TIP3   OH2 1922   3.152   5.625   2.524  0.5680 -0.1259  0.1807
  639TIP3    H1 1923   3.079   5.683   2.502  0.7732  1.1351  2.4997
  639TIP3    H2 1924   3.226   5.685   2.537  0.8617 -0.8696  2.3580
  640TIP3   OH2 1925   2.977   3.757   1.377 -0.1941  0.2462  0.1539
  640TIP3    H1 1926   3.058   3.807   1.368 -0.2976  0.8456  2.0622
  640TIP3    H2 1927   3.005   3.673   1.413 -0.2965 -0.0337 -0.4155
  641TIP3   OH2 1928   3.919   4.312   0.935  0.0703  0.8089 -0.6145
  641TIP3    H1 1929   3.902   4.286   0.845  0.7526  0.0451 -0.5301
  641TIP3    H2 1930   3.899   4.235   0.987  3.4141 -0.1651 -0.4822
  642TIP3   OH2 1931   3.375   3.227   0.600  0.1494  0.2260 -0.4977
  642TIP3    H1 1932   3.440   3.159   0.617  0.4648  1.1831  2.9227
  642TIP3    H2 1933   3.291   3.185   0.618 -0.2983 -0.8015 -4.2143
  643TIP3   OH2 1934   0.457   4.932   5.084  0.3425 -0.4163  0.2006
  643TIP3    H1 1935   0.551   4.927   5.100  0.6302  1.3935 -0.6590
  643TIP3    H2 1936   0.420   4.966   5.166  0.3660 -1.3894  0.6348
  644TIP3   OH2 1937   3.962   3.647   2.366  0.6995 -0.3067  0.2616
  644TIP3    H1 1938   3.895   3.705   2.404  0.9486 -0.2524  0.6198
  644TIP3    H2 1939   4.003   3.700   2.297 -0.4071 -0.7270 -0.7688
  645TIP3   OH2 1940   3.513   5.380   3.520 -0.1378  0.5402  0.1253
  645TIP3    H1 1941   3.551   5.406   3.436 -0.0528  0.0145 -0.0041
  645TIP3    H2 1942   3.419   5.379   3.504 -0.1779  1.3665  0.3062
  646TIP3   OH2 1943   1.693   4.105   2.633 -0.0954 -0.3160 -0.1031
  646TIP3    H1 1944   1.717   4.196   2.617 -1.9106  0.1746 -0.3317
  646TIP3    H2 1945   1.660   4.105   2.723 -0.1984 -0.7222 -0.1402
  647TIP3   OH2 1946   4.386   4.080   0.680  1.1457  0.0372  0.7138
  647TIP3    H1 1947   4.370   4.046   0.768  0.3071  0.2664  0.6551
  647TIP3    H2 1948   4.481   4.095   0.678  1.0511  1.0742  1.9654
  648TIP3   OH2 1949   3.261   4.908   0.131 -0.0845 -0.1384 -0.0272
  648TIP3    H1 1950   3.194   4.841   0.119  0.4509 -0.7040  0.0926
  648TIP3    H2 1951   3.212   4.991   0.130 -1.1674 -0.6246  2.5591
  649TIP3   OH2 1952   3.642   3.000   0.419  0.4473  0.7719  0.3659
  649TIP3    H1 1953   3.732   3.032   0.410 -0.0917  2.1959 -0.4430
  649TIP3    H2 1954   3.614   3.030   0.505 -0.6182  4.2699 -1.0170
  650TIP3   OH2 1955   1.697   0.530   0.291 -0.1078  0.1390 -0.2128
  650TIP3    H1 1956   1.617   0.501   0.334  0.5018 -1.2771  0.0179
  650TIP3    H2 1957   1.710   0.620   0.324 -1.1403  0.0934  0.3843
  651TIP3   OH2 1958   4.011   1.752   0.500  0.6255 -0.4409  0.0497
  651TIP3    H1 1959   3.927   1.797   0.512 -0.3254 -2.2360  0.4304
  651TIP3    H2 1960   4.016   1.734   0.406  1.2829  0.8833 -0.2012
  652TIP3   OH2 1961   3.811   1.695   3.369 -0.6457 -0.6300  0.6602
  652TIP3    H1 1962   3.904   1.676   3.387 -0.7109 -1.4261  0.2039
  652TIP3    H2 1963   3.769   1.693   3.455 -0.3015 -0.6136  0.8303
  653TIP3   OH2 1964   6.077   3.714   3.030 -0.2291 -0.4853  0.5925
  653TIP3    H1 1965   6.135   3.725   3.105  0.6701  1.2345 -0.2953
  653TIP3    H2 1966   5.989   3.728   3.065  0.0908 -0.6050  1.4729
  654TIP3   OH2 1967   5.427   3.614   3.237  0.1591 -0.2288  0.2981
  654TIP3    H1 1968   5.375   3.540   3.266  1.6158 -0.9346  1.2625
  654TIP3    H2 1969   5.389   3.639   3.153  1.7113 -4.3726 -1.9296
  655TIP3   OH2 1970   1.081   3.389   2.095  0.0409  0.0727  0.1641
  655TIP3    H1 1971   0.996   3.368   2.135  0.5944 -1.3906  0.6228
  655TIP3    H2 1972   1.145   3.340   2.146  0.8512 -1.3820 -2.1021
  656TIP3   OH2 1973   1.478   0.654   1.064  0.4331  0.4107 -0.2628
  656TIP3    H1 1974   1.560   0.680   1.106  1.4468 -0.7287 -1.4481
  656TIP3    H2 1975   1.434   0.599   1.129  1.2450 -0.0715 -0.1068
  657TIP3   OH2 1976   4.661   1.876   2.609 -0.2221  0.0618 -0.1308
  657TIP3    H1 1977   4.623   1.921   2.534 -2.4166 -2.7474 -0.9073
  657TIP3    H2 1978   4.593   1.879   2.676  0.5214 -0.0470  0.6514
  658TIP3   OH2 1979   0.738   2.826   3.203 -0.6135 -0.2142 -0.1991
  658TIP3    H1 1980   0.742   2.895   3.136 -1.4092  0.6330  0.6033
  658TIP3    H2 1981   0.667   2.769   3.175 -0.2709 -0.4476 -0.6086
  659TIP3   OH2 1982   3.544   5.618   3.036 -0.2275 -0.2091  0.2511
  659TIP3    H1 1983   3.639   5.629   3.031 -0.3343  0.8459  0.3972
  659TIP3    H2 1984   3.531   5.557   3.109  0.3275 -0.3074  0.2771
  660TIP3   OH2 1985   3.651   1.995   0.186 -0.0536  0.0887 -0.3372
  660TIP3    H1 1986   3.637   1.904   0.211  0.8020  0.4112  1.4388
  660TIP3    H2 1987   3.644   1.995   0.090  1.6512 -2.1432 -0.5333
  661TIP3   OH2 1988   1.877   5.371   1.243  0.1582 -0.4960  0.6399
  661TIP3    H1 1989   1.799   5.403   1.288  0.4161  1.7710 -0.3965
  661TIP3    H2 1990   1.851   5.364   1.152  0.9810 -0.3492  0.3865
  662TIP3   OH2 1991   5.630   2.829   2.157 -0.3785 -0.5282 -0.1419
  662TIP3    H1 1992   5.612   2.795   2.244 -0.1660  0.0234  0.1254
  662TIP3    H2 1993   5.566   2.900   2.145 -0.0374 -0.2281 -0.2014
  663TIP3   OH2 1994   1.637   1.300   1.917  0.0704 -0.0790  0.1438
  663TIP3    H1 1995   1.578   1.272   1.986  0.6139  0.6326  0.9101
  663TIP3    H2 1996   1.618   1.393   1.904  0.4464 -0.0414 -0.1763
  664TIP3   OH2 1997   0.674   0.063   2.074 -0.0993 -0.2720  0.2134
  664TIP3    H1 1998   0.625  -0.009   2.035 -0.4935  1.0111 -1.7952
  664TIP3    H2 1999   0.619   0.140   2.060  0.7267  0.6029  1.4889
  665TIP3   OH2 2000   6.083   5.326   1.046  0.2005 -0.2059 -0.1079
  665TIP3    H1 2001   6.150   5.273   1.090  2.2873  2.2376 -0.1047
  665TIP3    H2 2002   6.067   5.281   0.963  1.7600 -0.9557 -0.0446
  666TIP3   OH2 2003   1.151   3.598   4.434  0.1731 -0.3579 -0.2747
  666TIP3    H1 2004   1.202   3.533   4.481  0.1342 -0.0571  0.1818
  666TIP3    H2 2005   1.136   3.668   4.497  2.0150  1.0985 -1.3458
  667TIP3   OH2 2006   2.973   0.649   1.533  0.1257  0.3513  0.3442
  667TIP3    H1 2007   2.943   0.602   1.611  0.3372 -1.2557 -0.4966
  667TIP3    H2 2008   2.893   0.666   1.484 -0.0689  1.8292  1.1180
  668TIP3   OH2 2009   3.994   0.435   2.404 -0.1090  0.0550 -0.4676
  668TIP3    H1 2010   4.037   0.356   2.434 -1.2553  0.0909  1.4079
  668TIP3    H2 2011   3.901   0.412   2.397 -0.2390  0.7886 -1.5227
  669TIP3   OH2 2012   0.292   1.850   1.324 -0.1017  0.3870 -0.1753
  669TIP3    H1 2013   0.355   1.872   1.255  1.7572  1.0956  1.6360
  669TIP3    H2 2014   0.340   1.865   1.406 -2.2990 -0.1341  1.2986
  670TIP3   OH2 2015   4.478   1.447   0.705 -0.5510 -0.3990 -0.1006
  670TIP3    H1 2016   4.384   1.431   0.701 -0.3700 -1.3792 -2.3585
  670TIP3    H2 2017   4.514   1.367   0.744 -0.7012  0.4160  1.7768
  671TIP3   OH2 2018   3.245   4.274   0.111 -0.0101  0.1130 -0.2352
  671TIP3    H1 2019   3.221   4.230   0.029  1.0672 -0.8984 -0.0226
  671TIP3    H2 2020   3.207   4.362   0.102  0.8263  0.3319 -2.1964
  672TIP3   OH2 2021   3.177   5.779   1.880  0.4561 -0.2086 -0.0049
  672TIP3    H1 2022   3.095   5.791   1.833 -0.1754 -0.8475  0.8872
  672TIP3    H2 2023   3.223   5.862   1.872 -0.7001  0.4752  0.2581
  673TIP3   OH2 2024   5.869   3.495   1.467  0.2900  0.1406  0.0569
  673TIP3    H1 2025   5.879   3.568   1.406  1.5423 -1.3386 -1.6057
  673TIP3    H2 2026   5.949   3.443   1.457 -1.0316 -2.0960  0.2770
  674TIP3   OH2 2027   4.484   3.375   1.914  0.1935 -0.5358  0.1714
  674TIP3    H1 2028   4.536   3.452   1.890 -0.7859 -0.3241 -1.4298
  674TIP3    H2 2029   4.519   3.304   1.861  0.0833 -0.8428  0.5010
  675TIP3   OH2 2030   0.489   5.715   2.362  0.0168 -0.4609  0.4231
  675TIP3    H1 2031   0.552   5.665   2.414  1.3053  0.6723  0.0272
  675TIP3    H2 2032   0.404   5.689   2.396  0.6460 -2.6602  0.4290
  676TIP3   OH2 2033   5.077   2.711   0.008 -0.2613  0.0870 -0.3107
  676TIP3    H1 2034   5.114   2.697   0.095  0.1418 -1.5981 -0.7155
  676TIP3    H2 2035   5.004   2.650   0.003  0.4741 -0.7373 -1.5724
  677TIP3   OH2 2036   3.509   4.342   5.019 -0.1235  0.1871 -0.1146
  677TIP3    H1 2037   3.415   4.335   5.001 -0.3231 -0.8208  1.1703
  677TIP3    H2 2038   3.514   4.360   5.112  0.9444  1.8766 -0.4670
  678TIP3   OH2 2039   4.070   4.398   2.643  0.6662  0.1323 -0.3779
  678TIP3    H1 2040   4.076   4.329   2.709  1.0207  0.3950 -0.1251
  678TIP3    H2 2041   3.986   4.440   2.660 -0.3016 -1.2472 -1.5634
  679TIP3   OH2 2042   3.802   4.161   2.601  0.0255  0.1078 -0.1036
  679TIP3    H1 2043   3.829   4.230   2.661  1.7589 -1.7724  1.4361
  679TIP3    H2 2044   3.708   4.150   2.617 -0.3475  2.2366 -0.6052
  680TIP3   OH2 2045   3.159   1.667   1.941 -0.1607  0.6599 -0.6343
  680TIP3    H1 2046   3.176   1.711   2.024 -1.6356  1.4205 -0.7046
  680TIP3    H2 2047   3.236   1.687   1.888 -0.2364  2.1497 -0.2416
  681TIP3   OH2 2048   2.407   3.173   5.042  0.1196  0.0227  0.1116
  681TIP3    H1 2049   2.324   3.209   5.074  0.7097  0.0011  1.8088
  681TIP3    H2 2050   2.443   3.242   4.986 -0.3139  0.7136  0.6617
  682TIP3   OH2 2051   0.101   3.909   3.551 -0.5233 -0.2503  0.2913
  682TIP3    H1 2052   0.118   3.955   3.634 -1.8386  1.6488 -0.4286
  682TIP3    H2 2053   0.186   3.875   3.525 -0.0316 -0.6804  2.2970
  683TIP3   OH2 2054   1.488   4.086   0.943 -0.2351  0.3594 -0.1882
  683TIP3    H1 2055   1.499   4.164   0.998  2.4165 -0.5581  0.7177
  683TIP3    H2 2056   1.528   4.015   0.993 -3.0592 -1.8019 -0.7161
  684TIP3   OH2 2057   1.243   1.421   1.936  0.1196 -0.2455 -0.2514
  684TIP3    H1 2058   1.316   1.450   1.990  0.6646 -0.8973 -0.6202
  684TIP3    H2 2059   1.166   1.465   1.972  0.5637 -0.2277  0.6793
  685TIP3   OH2 2060   5.697   4.798   5.050 -0.0606  0.1624 -0.1814
  685TIP3    H1 2061   5.673   4.878   5.004 -1.0707 -0.8252 -1.4433
  685TIP3    H2 2062   5.623   4.780   5.108 -0.6986 -0.8030 -1.2429
  686TIP3   OH2 2063   2.875   3.814   0.731 -0.1223 -0.6743 -0.0547
  686TIP3    H1 2064   2.913   3.845   0.813 -1.8902 -0.7508  0.8523
  686TIP3    H2 2065   2.856   3.721   0.746 -0.8320 -0.5943 -0.3901
  687TIP3   OH2 2066   1.959   3.011   1.348 -0.2432  0.1512  0.2538
  687TIP3    H1 2067   1.999   3.084   1.301  0.2928  0.4289  1.1001
  687TIP3    H2 2068   1.901   3.052   1.412 -0.1410 -0.1611  0.5547
  688TIP3   OH2 2069   3.995   2.594   2.270 -0.3994  0.1208  0.3031
  688TIP3    H1 2070   3.960   2.626   2.353 -0.9227 -1.3883  0.7031
  688TIP3    H2 2071   3.947   2.643   2.203 -2.4668 -0.9906  0.8644
  689TIP3   OH2 2072   0.983   3.579   4.032 -0.1588  0.0067 -0.1137
  689TIP3    H1 2073   0.903   3.571   3.979  0.7325 -1.7865 -1.3078
  689TIP3    H2 2074   1.018   3.665   4.011 -0.9716  0.1890 -0.7564
  690TIP3   OH2 2075   1.705   2.546   2.134 -0.8522  0.2227 -0.0475
  690TIP3    H1 2076   1.690   2.630   2.178  0.6372  0.1910  0.5747
  690TIP3    H2 2077   1.765   2.568   2.062 -0.7874 -0.2503 -0.1392
  691TIP3   OH2 2078   2.177   1.683   3.269 -0.1647 -0.3995  0.1789
  691TIP3    H1 2079   2.156   1.648   3.182  1.3021  0.1429 -0.4158
  691TIP3    H2 2080   2.091   1.703   3.307 -0.8731 -1.3537 -0.8290
  692TIP3   OH2 2081   4.969   5.763   3.457  0.0300  0.4037 -0.2190
  692TIP3    H1 2082   4.939   5.683   3.501 -0.6573  0.6080 -0.3011
  692TIP3    H2 2083   4.987   5.736   3.367  0.9488  0.0952  0.0403
  693TIP3   OH2 2084   3.214   0.925   1.392  0.1244  0.4080  0.1633
  693TIP3    H1 2085   3.209   0.833   1.419 -0.8804  0.3310 -0.2381
  693TIP3    H2 2086   3.149   0.933   1.323  1.3215  1.0541 -0.9295
  694TIP3   OH2 2087   3.586   4.907   1.205 -0.2389  0.3336  0.3471
  694TIP3    H1 2088   3.492   4.922   1.200 -0.4133 -0.5661  0.8346
  694TIP3    H2 2089   3.598   4.816   1.180  0.5946  0.6540 -0.4923
  695TIP3   OH2 2090   3.283   0.515   0.259 -0.2686  0.4814  0.2648
  695TIP3    H1 2091   3.208   0.573   0.268 -0.3749  0.5006 -0.6853
  695TIP3    H2 2092   3.346   0.564   0.207  0.0097  0.0894  0.2244
  696TIP3   OH2 2093   3.853   3.356   1.322  0.2045 -0.0523 -0.2547
  696TIP3    H1 2094   3.837   3.283   1.382 -1.1460  0.5123  0.1137
  696TIP3    H2 2095   3.777   3.355   1.264 -0.1977  1.5066  0.2187
  697TIP3   OH2 2096   2.701   3.389   2.134  0.0857 -0.0615  0.1160
  697TIP3    H1 2097   2.705   3.294   2.147 -0.9238 -0.2945 -1.0797
  697TIP3    H2 2098   2.722   3.426   2.219  1.5871 -1.3351  0.3471
  698TIP3   OH2 2099   5.305   2.699   3.798  0.0737  0.0059  0.4798
  698TIP3    H1 2100   5.376   2.763   3.797 -0.0986  0.2493  1.7001
  698TIP3    H2 2101   5.316   2.649   3.718  0.8789  0.8469  0.0518
  699TIP3   OH2 2102   0.511   5.432   1.537  0.1370 -0.4005 -0.2127
  699TIP3    H1 2103   0.533   5.512   1.585  2.7047  0.6389 -2.8247
  699TIP3    H2 2104   0.502   5.365   1.605  0.3269  1.5794  1.9002
  700TIP3   OH2 2105   2.967   4.743   2.720 -0.0309 -0.5912  0.6119
  700TIP3    H1 2106   2.975   4.767   2.628  1.5639 -0.8739  0.6504
  700TIP3    H2 2107   2.946   4.650   2.719 -0.7382 -0.4369  0.5379
  701TIP3   OH2 2108   4.548   0.282   3.016 -0.1977 -0.4172  0.3223
  701TIP3    H1 2109   4.629   0.259   3.062  0.7177 -0.1902 -1.1258
  701TIP3    H2 2110   4.577   0.310   2.929 -1.6771  1.3840  0.3456
  702TIP3   OH2 2111   4.383   0.972   2.766  0.0493  0.1212  0.0083
  702TIP3    H1 2112   4.362   0.973   2.860  0.3762 -1.9483  0.1531
  702TIP3    H2 2113   4.347   1.054   2.733 -0.6537  0.6071  1.8240
  703TIP3   OH2 2114   6.084   3.420   1.796 -0.2573 -0.2368  0.2957
  703TIP3    H1 2115   6.046   3.398   1.881 -1.2466 -0.1619 -0.1125
  703TIP3    H2 2116   6.069   3.343   1.742 -0.7568  0.1742 -0.1670
  704TIP3   OH2 2117   2.999   4.753   0.070  0.0924 -0.0076  0.0673
  704TIP3    H1 2118   2.996   4.835   0.021 -1.2614 -0.6427 -0.9583
  704TIP3    H2 2119   2.987   4.684   0.004 -1.2712 -0.9077  1.1829
  705TIP3   OH2 2120   5.127   4.366   0.800 -0.2220 -0.0798  0.1535
  705TIP3    H1 2121   5.216   4.400   0.804 -0.1894 -0.0805 -0.4255
  705TIP3    H2 2122   5.072   4.440   0.828  0.0157 -0.4247  1.6130
  706TIP3   OH2 2123   1.952   0.775   0.496 -0.2381 -0.2219 -0.1724
  706TIP3    H1 2124   1.944   0.834   0.571 -0.9308  0.0250 -0.4342
  706TIP3    H2 2125   1.901   0.698   0.521 -1.6980  0.4497 -0.9528
  707TIP3   OH2 2126   4.654   2.431   1.343 -0.1080 -0.4406 -0.2662
  707TIP3    H1 2127   4.629   2.351   1.298  2.0778 -0.8447 -0.8465
  707TIP3    H2 2128   4.662   2.405   1.435  0.2742 -0.8150 -0.4029
  708TIP3   OH2 2129   6.165   3.170   4.039 -0.6117  0.1778  0.3911
  708TIP3    H1 2130   6.160   3.236   3.970 -3.6938  0.0625  0.3593
  708TIP3    H2 2131   6.209   3.095   3.997  0.8123  1.3490 -0.2861
  709TIP3   OH2 2132   0.468   2.700   4.198 -0.1283  0.3533  0.2482
  709TIP3    H1 2133   0.457   2.724   4.106  0.8333 -0.4062 -0.0864
  709TIP3    H2 2134   0.549   2.743   4.224 -1.2005  1.8794  1.2309
  710TIP3   OH2 2135   0.646   5.250   2.605 -0.4841 -0.2024  0.3292
  710TIP3    H1 2136   0.565   5.221   2.648  0.5336 -1.4390  1.5341
  710TIP3    H2 2137   0.713   5.190   2.639  0.9124  0.6984 -0.7433
  711TIP3   OH2 2138   3.849   1.474   4.539  0.6803 -0.2423  0.3016
  711TIP3    H1 2139   3.775   1.495   4.596  0.7269  0.1897  0.2020
  711TIP3    H2 2140   3.826   1.513   4.455  0.0028 -1.9852 -0.3625
  712TIP3   OH2 2141   3.380   4.268   3.813  0.2017 -0.1892 -0.1784
  712TIP3    H1 2142   3.423   4.295   3.732 -0.2189 -0.2549 -0.4231
  712TIP3    H2 2143   3.351   4.349   3.854 -0.7682 -0.2419 -0.7505
  713TIP3   OH2 2144   3.874   3.018   1.522 -0.0752 -0.3400 -0.8459
  713TIP3    H1 2145   3.831   2.944   1.565  0.5289 -0.0802  0.2238
  713TIP3    H2 2146   3.809   3.048   1.458 -0.2075 -1.9751 -1.5331
  714TIP3   OH2 2147   1.267   1.968   0.893  0.2909  0.1770  0.9911
  714TIP3    H1 2148   1.308   1.888   0.860 -0.3974 -0.3732  1.4489
  714TIP3    H2 2149   1.181   1.940   0.923  0.1707  1.0353  1.4672
  715TIP3   OH2 2150   2.686   2.621   0.989  0.3184  0.0711  0.4233
  715TIP3    H1 2151   2.642   2.702   1.016  1.6263  1.2675 -0.8212
  715TIP3    H2 2152   2.669   2.615   0.895  1.6252 -0.1595  0.1765
  716TIP3   OH2 2153   2.985   4.174   5.029  0.1204 -0.6533 -0.2615
  716TIP3    H1 2154   2.892   4.154   5.021  0.6312 -3.0358 -1.0259
  716TIP3    H2 2155   2.993   4.217   5.114 -1.6910 -0.1738 -0.2844
  717TIP3   OH2 2156   3.213   0.542   1.764 -0.1297  0.3223  0.1776
  717TIP3    H1 2157   3.207   0.482   1.690 -0.6646  1.0152 -0.3530
  717TIP3    H2 2158   3.182   0.492   1.839  2.4978 -1.1391  0.4281
  718TIP3   OH2 2159   1.039   2.294   0.755  0.0258 -0.8220  0.2310
  718TIP3    H1 2160   1.133   2.306   0.763 -0.1291  0.4075  0.3689
  718TIP3    H2 2161   1.026   2.259   0.666  0.8414 -4.2136  1.2880
  719TIP3   OH2 2162   2.960   4.690   3.861  0.1631  0.1318  0.2844
  719TIP3    H1 2163   3.010   4.767   3.834  0.8798 -0.2418  0.5259
  719TIP3    H2 2164   2.935   4.708   3.952  2.0170 -0.7511  1.0047
  720TIP3   OH2 2165   3.703   4.153   4.096  0.6530 -0.2506  0.1168
  720TIP3    H1 2166   3.675   4.124   4.183  1.6718  0.1738  0.5973
  720TIP3    H2 2167   3.739   4.240   4.110  0.9852 -0.2488 -0.7058
  721TIP3   OH2 2168   2.375   1.426   2.277  0.1022 -0.0363  0.3580
  721TIP3    H1 2169   2.459   1.381   2.276  0.1495  0.0503  0.4508
  721TIP3    H2 2170   2.344   1.417   2.367 -0.5589 -1.1260  0.0424
  722TIP3   OH2 2171   1.362   4.589   2.199  0.3089  0.7202  0.1725
  722TIP3    H1 2172   1.351   4.599   2.105  0.6705  0.7162  0.1259
  722TIP3    H2 2173   1.455   4.610   2.214  0.0284  1.6906  0.6577
  723TIP3   OH2 2174   6.342   0.106   1.090 -0.4454  0.1473  0.7909
  723TIP3    H1 2175   6.314   0.084   1.001 -0.1313  1.3858  0.3669
  723TIP3    H2 2176   6.267   0.151   1.129 -0.6581 -0.5802  1.2325
  724TIP3   OH2 2177   3.279   2.348   3.284  0.3608  0.2248  0.1017
  724TIP3    H1 2178   3.339   2.289   3.329  1.8937  0.5250 -1.4341
  724TIP3    H2 2179   3.251   2.300   3.206 -1.8126 -0.0741  0.9902
  725TIP3   OH2 2180   4.401   2.705   1.443  0.2418 -0.0491  0.0082
  725TIP3    H1 2181   4.342   2.682   1.371  1.0230 -1.9608 -0.0613
  725TIP3    H2 2182   4.482   2.732   1.400  0.4204 -0.3519  0.1507
  726TIP3   OH2 2183   2.328   5.361   1.346 -0.8589 -0.2780  0.1453
  726TIP3    H1 2184   2.309   5.312   1.266 -1.9322 -1.1432  0.9101
  726TIP3    H2 2185   2.301   5.451   1.326  0.0196 -0.2200 -0.8621
  727TIP3   OH2 2186   3.177   1.774   0.241  0.1392 -0.1138  0.3331
  727TIP3    H1 2187   3.128   1.857   0.246 -0.0405 -0.2043  0.0980
  727TIP3    H2 2188   3.110   1.708   0.220  0.0417 -0.5409  1.8631
  728TIP3   OH2 2189   5.873   2.203   4.247  0.0155 -0.0278  0.2141
  728TIP3    H1 2190   5.914   2.147   4.312 -1.5830 -1.8333 -0.2587
  728TIP3    H2 2191   5.801   2.245   4.293 -1.8813 -2.2418 -0.6023
  729TIP3   OH2 2192   5.306   4.302   1.926 -0.4174 -0.4584  0.2382
  729TIP3    H1 2193   5.233   4.264   1.877  1.8995 -2.6863 -1.7867
  729TIP3    H2 2194   5.329   4.234   1.990 -0.0723  0.1851  0.8013
  730TIP3   OH2 2195   1.597   5.514   3.137  0.5640  0.5482 -0.5638
  730TIP3    H1 2196   1.539   5.460   3.191  0.4411  1.2006 -0.0279
  730TIP3    H2 2197   1.643   5.451   3.080  0.8815 -0.1701  0.4659
  731TIP3   OH2 2198   3.797   5.447   2.063 -0.4883 -0.8099 -0.4048
  731TIP3    H1 2199   3.766   5.385   1.997  0.4574 -0.3478 -1.3186
  731TIP3    H2 2200   3.880   5.410   2.094 -1.2139 -1.3284  0.9918
  732TIP3   OH2 2201   1.718   3.032   1.044 -0.0455  0.4396  0.7896
  732TIP3    H1 2202   1.654   3.039   1.115 -1.0861  0.3085 -0.1021
  732TIP3    H2 2203   1.781   2.967   1.074 -1.6119 -1.1859  0.7860
  733TIP3   OH2 2204   2.853   5.686   3.186 -0.3459 -0.2356  0.0341
  733TIP3    H1 2205   2.871   5.593   3.176 -1.1153 -0.1761 -2.6387
  733TIP3    H2 2206   2.864   5.703   3.280  0.6727 -2.8002  0.4539
  734TIP3   OH2 2207   0.619   3.297   1.439  0.1166 -0.0933 -0.3467
  734TIP3    H1 2208   0.542   3.344   1.407 -0.7046 -0.9515  0.3021
  734TIP3    H2 2209   0.666   3.360   1.493 -0.0081  0.5040 -0.9303
  735TIP3   OH2 2210   2.731   1.701   2.278  0.3648 -0.2700  0.0958
  735TIP3    H1 2211   2.753   1.647   2.354  0.4059  2.0112  1.8167
  735TIP3    H2 2212   2.636   1.707   2.279  0.4004  0.4079  0.4979
  736TIP3   OH2 2213   3.961   1.392   3.416  0.1494 -0.4243 -0.0848
  736TIP3    H1 2214   3.876   1.416   3.380 -0.0746  1.3092  1.4502
  736TIP3    H2 2215   4.018   1.382   3.339 -1.1765 -0.5925 -1.0777
  737TIP3   OH2 2216   2.718   4.291   4.067 -0.1582 -0.4253  0.5028
  737TIP3    H1 2217   2.779   4.306   3.994 -0.5026  2.3955  0.6872
  737TIP3    H2 2218   2.646   4.242   4.028  0.1537  0.0966 -0.7960
  738TIP3   OH2 2219   2.688   5.366   3.864  0.1279 -0.2109 -0.0772
  738TIP3    H1 2220   2.742   5.384   3.940  0.8791  0.6122 -0.7906
  738TIP3    H2 2221   2.694   5.271   3.852  0.0911 -0.3295  0.8137
  739TIP3   OH2 2222   3.467   1.085   2.123  0.1210  0.2667 -0.4183
  739TIP3    H1 2223   3.452   1.024   2.051 -0.0124 -1.4287  0.9700
  739TIP3    H2 2224   3.431   1.168   2.092 -0.5359 -0.5719 -2.0360
  740TIP3   OH2 2225   2.916   1.266   3.555  0.2214  0.0891 -0.4030
  740TIP3    H1 2226   2.968   1.328   3.606 -0.8762  0.2757  0.5079
  740TIP3    H2 2227   2.906   1.309   3.469  0.3658  0.6901 -0.1261
  741TIP3   OH2 2228   2.450   2.242   3.571 -0.6568 -0.0114  0.1030
  741TIP3    H1 2229   2.494   2.158   3.555 -0.2919  0.1609  0.1856
  741TIP3    H2 2230   2.459   2.289   3.488  0.3707  0.4950  0.4886
  742TIP3   OH2 2231   5.552   3.681   2.069  0.4471  0.1333 -0.0549
  742TIP3    H1 2232   5.607   3.638   2.003 -0.6441 -1.6748  0.1712
  742TIP3    H2 2233   5.611   3.695   2.143  1.0227 -0.2440 -0.4293
  743TIP3   OH2 2234   0.020   4.509   1.869 -0.2950  0.2468  0.2014
  743TIP3    H1 2235  -0.033   4.558   1.806  0.1614  0.7385  0.1982
  743TIP3    H2 2236   0.104   4.554   1.870 -0.1833  0.0265  0.9040
  744TIP3   OH2 2237   1.833   0.850   4.192  0.3107 -0.4890  0.2043
  744TIP3    H1 2238   1.820   0.756   4.206  0.6404 -0.5200  0.2953
  744TIP3    H2 2239   1.832   0.860   4.096 -0.7258 -0.4426  0.2136
  745TIP3   OH2 2240   2.637   0.518   3.540 -0.3064 -0.0607 -0.1849
  745TIP3    H1 2241   2.716   0.545   3.586  0.2407 -0.6771 -0.7386
  745TIP3    H2 2242   2.599   0.450   3.596 -0.9341  0.8505  0.5182
  746TIP3   OH2 2243   0.932   1.559   2.446  0.3789 -0.3162  0.8116
  746TIP3    H1 2244   0.903   1.612   2.372 -0.3972 -0.8844  0.6970
  746TIP3    H2 2245   0.966   1.479   2.406 -0.2981 -0.7418  1.0652
  747TIP3   OH2 2246   3.407   3.554   3.264 -0.1158  0.7103 -0.0404
  747TIP3    H1 2247   3.388   3.486   3.328 -0.3632  1.1950  0.4045
  747TIP3    H2 2248   3.322   3.581   3.230  0.0430  0.0687 -0.9934
  748TIP3   OH2 2249   1.970   2.037   3.647 -0.8028  0.0410  0.0785
  748TIP3    H1 2250   1.999   2.128   3.648  0.3146 -0.2879  1.2754
  748TIP3    H2 2251   2.039   1.990   3.601 -0.8950 -0.3392  0.3234
  749TIP3   OH2 2252   5.206   2.594   4.633  0.5428  0.5708  0.2019
  749TIP3    H1 2253   5.247   2.594   4.719 -0.1392  3.5524  0.6393
  749TIP3    H2 2254   5.271   2.554   4.575  0.9978 -1.5234  2.0571
  750TIP3   OH2 2255   0.580   5.535   2.552  0.2994 -0.6511  0.2812
  750TIP3    H1 2256   0.565   5.443   2.530 -1.6867 -0.0258 -1.3321
  750TIP3    H2 2257   0.580   5.537   2.647  0.4712 -2.3303  0.3441
  751TIP3   OH2 2258   2.194   3.296   2.380 -0.1449  0.0033 -0.6408
  751TIP3    H1 2259   2.122   3.350   2.413 -0.8825  0.0528 -2.2379
  751TIP3    H2 2260   2.272   3.329   2.425 -1.0417  0.2024  0.8385
  752TIP3   OH2 2261   0.906   0.398   2.638  0.2567  0.0873  0.7349
  752TIP3    H1 2262   0.992   0.394   2.596 -0.1435  0.8196 -0.1903
  752TIP3    H2 2263   0.873   0.485   2.617 -0.1752  0.2958  2.1865
  753TIP3   OH2 2264   6.085   1.270   1.145  0.1778 -0.0013  0.1604
  753TIP3    H1 2265   6.019   1.207   1.176  0.3738 -0.5112 -0.4556
  753TIP3    H2 2266   6.043   1.355   1.158  0.8152 -0.0359  3.3054
  754TIP3   OH2 2267   0.065   3.786   2.133 -0.1951  0.1341  0.0663
  754TIP3    H1 2268   0.050   3.701   2.175 -1.3337  0.5229  0.4977
  754TIP3    H2 2269   0.026   3.777   2.046 -0.4797  0.2675  0.1787
  755TIP3   OH2 2270   4.707   3.715   5.113 -0.1288 -0.0177 -0.3924
  755TIP3    H1 2271   4.630   3.762   5.081 -0.7843 -0.2583  0.7583
  755TIP3    H2 2272   4.746   3.774   5.178 -0.5764 -0.7484  0.5722
  756TIP3   OH2 2273   2.032   2.052   4.888  0.0143 -0.2818  0.4009
  756TIP3    H1 2274   2.082   1.971   4.889  1.8547  0.7787  0.5048
  756TIP3    H2 2275   2.023   2.077   4.980  1.8521  0.9532  0.2988
  757TIP3   OH2 2276   5.104   0.356   1.883 -0.1287 -0.0570 -0.2366
  757TIP3    H1 2277   5.013   0.327   1.885  0.0169 -0.4941  1.3835
  757TIP3    H2 2278   5.140   0.328   1.967  1.5382  0.0134 -0.8880
  758TIP3   OH2 2279   5.049   5.089   0.095  0.1301  0.5111  0.2086
  758TIP3    H1 2280   5.123   5.059   0.043 -1.6734 -0.6587 -1.8562
  758TIP3    H2 2281   4.972   5.069   0.041 -1.6079  3.5393  1.2902
  759TIP3   OH2 2282   0.428   3.697   0.664 -0.2160  0.2777  0.3411
  759TIP3    H1 2283   0.477   3.770   0.626  0.4843 -0.0871  0.5264
  759TIP3    H2 2284   0.370   3.667   0.593  0.8202 -0.1711 -0.3434
  760TIP3   OH2 2285   0.302   0.258   3.248  0.4489 -0.7024 -0.4869
  760TIP3    H1 2286   0.291   0.256   3.153  1.8648 -0.1538 -0.6949
  760TIP3    H2 2287   0.333   0.347   3.266 -0.2787 -0.6438  0.5575
  761TIP3   OH2 2288   0.246   2.770   1.389 -0.4705 -0.0011 -0.0617
  761TIP3    H1 2289   0.340   2.760   1.375 -0.2610  0.3062  1.0345
  761TIP3    H2 2290   0.224   2.850   1.342 -0.3895 -0.5831 -1.1357
  762TIP3   OH2 2291   4.125   3.578   2.594 -0.3002 -0.0204 -0.5073
  762TIP3    H1 2292   4.080   3.652   2.636 -0.2410  0.0972 -0.6509
  762TIP3    H2 2293   4.084   3.570   2.508 -0.9474 -0.7490 -0.1422
  763TIP3   OH2 2294   4.358   0.749   2.990 -0.4053 -0.7044 -0.2556
  763TIP3    H1 2295   4.421   0.735   2.919  2.3232 -2.1789  2.2572
  763TIP3    H2 2296   4.326   0.662   3.011 -2.3058 -0.1228 -0.5505
  764TIP3   OH2 2297   4.502   1.025   4.709 -0.8075  0.0592  0.1524
  764TIP3    H1 2298   4.506   1.058   4.799  0.2232 -1.2920  0.6329
  764TIP3    H2 2299   4.593   1.007   4.686 -1.1515 -0.5402 -0.8096
  765TIP3   OH2 2300   1.352   2.704   4.354 -0.0603 -0.2996  0.4232
  765TIP3    H1 2301   1.430   2.739   4.312 -0.5251  0.4809  0.1884
  765TIP3    H2 2302   1.359   2.732   4.445 -0.7183  0.9349  0.1092
  766TIP3   OH2 2303   2.017   1.656   3.755 -0.2208 -0.7830 -0.2105
  766TIP3    H1 2304   1.945   1.709   3.723 -1.2495 -2.1232 -0.2158
  766TIP3    H2 2305   2.093   1.713   3.751 -1.3599  0.8191  0.2504
  767TIP3   OH2 2306   1.299   4.638   0.602  0.1883 -0.0877  0.1739
  767TIP3    H1 2307   1.391   4.654   0.579 -0.2178  0.0079 -1.4902
  767TIP3    H2 2308   1.278   4.554   0.562 -0.4992 -0.0533  0.4447
  768TIP3   OH2 2309   2.706   3.972   4.041  0.6129 -0.2099  0.1665
  768TIP3    H1 2310   2.628   4.027   4.031 -0.7341 -2.0031  0.1493
  768TIP3    H2 2311   2.701   3.939   4.131  2.4319  1.1155  0.8174
  769TIP3   OH2 2312   5.633   1.416   4.658  0.4248 -0.1214 -0.1544
  769TIP3    H1 2313   5.605   1.446   4.744  0.8703 -0.2174  0.0289
  769TIP3    H2 2314   5.728   1.407   4.666  0.3461 -1.1649 -0.3328
  770TIP3   OH2 2315   5.853   4.939   2.219 -0.4152  0.4574  0.3622
  770TIP3    H1 2316   5.763   4.910   2.234 -1.1605  2.3105 -0.2593
  770TIP3    H2 2317   5.873   4.910   2.130 -1.1978  1.8170 -0.2999
  771TIP3   OH2 2318   3.113   4.629   2.185 -0.0520 -0.5290  0.0713
  771TIP3    H1 2319   3.156   4.636   2.100  1.2062 -1.4807  0.5991
  771TIP3    H2 2320   3.174   4.579   2.239 -0.8463  0.0089  1.5296
  772TIP3   OH2 2321   1.219   0.290   3.348  0.1395 -0.1151  0.4623
  772TIP3    H1 2322   1.160   0.313   3.421  0.3904 -1.2090  1.0396
  772TIP3    H2 2323   1.296   0.253   3.391  0.6672  0.0410 -0.3420
  773TIP3   OH2 2324   6.111   0.253   2.565 -0.1199  0.0684  0.6409
  773TIP3    H1 2325   6.188   0.293   2.605 -1.6820  0.4941  3.4529
  773TIP3    H2 2326   6.120   0.160   2.580  0.5691 -0.0624 -0.4688
  774TIP3   OH2 2327   5.991   0.835   2.703  0.3994 -0.3048 -0.1487
  774TIP3    H1 2328   5.975   0.794   2.618 -1.6309  0.6695 -0.2893
  774TIP3    H2 2329   5.995   0.763   2.765  1.6219 -1.0060 -0.9903
  775TIP3   OH2 2330   5.971   5.007   4.890  0.2619 -0.1352 -0.2235
  775TIP3    H1 2331   5.881   5.032   4.912  0.1180 -1.6362  1.0940
  775TIP3    H2 2332   5.977   5.021   4.796 -1.9023 -1.4974 -0.6504
  776TIP3   OH2 2333   2.035   0.136   0.190 -0.2822 -0.1317  0.6222
  776TIP3    H1 2334   2.050   0.133   0.285 -0.9524  0.6819  0.7651
  776TIP3    H2 2335   1.964   0.074   0.175 -0.9662  0.5850  0.8276
  777TIP3   OH2 2336   0.121   4.457   2.771  0.3428  0.7777  0.3106
  777TIP3    H1 2337   0.108   4.552   2.777  0.6398  1.0856 -2.3144
  777TIP3    H2 2338   0.034   4.420   2.785  0.0574  1.5126  0.5367
  778TIP3   OH2 2339   2.886   5.242   2.124  0.4225  0.1243 -0.2120
  778TIP3    H1 2340   2.950   5.309   2.149 -0.7606  0.7774  1.2645
  778TIP3    H2 2341   2.802   5.287   2.129 -0.2253 -0.9211 -1.3565
  779TIP3   OH2 2342   0.454   0.182   4.108 -0.1911 -0.6102 -0.2216
  779TIP3    H1 2343   0.406   0.213   4.185  0.5215 -2.5290  1.0614
  779TIP3    H2 2344   0.545   0.174   4.138  0.1691 -1.0113 -1.3720
  780TIP3   OH2 2345   5.700   5.457   3.812 -0.7141 -0.1697  0.1700
  780TIP3    H1 2346   5.654   5.375   3.791 -2.0414  0.6125 -0.0987
  780TIP3    H2 2347   5.695   5.509   3.732 -1.3155  0.8055  0.8160
  781TIP3   OH2 2348   2.522   4.857   4.584  0.1702 -0.4924  0.2039
  781TIP3    H1 2349   2.428   4.843   4.573 -0.5723  2.7125  1.5335
  781TIP3    H2 2350   2.533   4.952   4.585  3.4320 -0.7448  0.2838
  782TIP3   OH2 2351   0.320   2.176   0.006  0.0165  0.4334  0.1572
  782TIP3    H1 2352   0.370   2.110   0.055 -2.0229 -1.2402  0.1526
  782TIP3    H2 2353   0.235   2.178   0.050 -0.4199  2.1211 -0.6908
  783TIP3   OH2 2354   3.062   3.142   5.130 -0.5324 -0.0542 -0.3434
  783TIP3    H1 2355   3.086   3.191   5.052 -1.0333  2.5302  0.9998
  783TIP3    H2 2356   2.972   3.113   5.115 -0.0627 -1.0371 -1.3542
  784TIP3   OH2 2357   5.529   0.289   2.623 -0.0150  0.5722 -0.1673
  784TIP3    H1 2358   5.481   0.206   2.623 -1.2481  1.2556  0.6039
  784TIP3    H2 2359   5.587   0.283   2.699 -1.9892  1.4159  1.4837
  785TIP3   OH2 2360   3.338   4.884   1.403 -0.5299 -0.1391  0.1812
  785TIP3    H1 2361   3.369   4.915   1.488  0.4225 -0.5550 -0.0034
  785TIP3    H2 2362   3.345   4.960   1.346  0.8076 -0.3858 -0.0171
  786TIP3   OH2 2363   1.618   3.788   0.710 -0.2776  0.4201  0.0089
  786TIP3    H1 2364   1.584   3.790   0.799  0.1805  0.6227  0.1814
  786TIP3    H2 2365   1.552   3.738   0.660  0.9146 -2.3745  1.0585
  787TIP3   OH2 2366   4.204   0.732   4.771  0.4278  0.4531  0.4868
  787TIP3    H1 2367   4.126   0.709   4.822 -0.2892  0.0546 -0.7596
  787TIP3    H2 2368   4.277   0.705   4.827 -0.3199  0.4639  1.5015
  788TIP3   OH2 2369   3.471   3.962   1.362 -0.1973  0.1469 -0.1719
  788TIP3    H1 2370   3.479   3.987   1.270 -0.7949 -3.0354 -1.2133
  788TIP3    H2 2371   3.542   3.899   1.376 -1.2055 -0.7756  1.0113
  789TIP3   OH2 2372   3.605   5.401   0.105 -0.1700  0.2369 -0.3538
  789TIP3    H1 2373   3.608   5.484   0.151  1.1226 -0.3041  0.5994
  789TIP3    H2 2374   3.583   5.336   0.172  1.7037 -0.5516 -0.4196
  790TIP3   OH2 2375   4.485   1.381   3.448  0.5013  0.1932 -0.2873
  790TIP3    H1 2376   4.495   1.427   3.532 -1.1401 -1.2590  0.7814
  790TIP3    H2 2377   4.528   1.297   3.462  2.1876  0.7734 -1.7145
  791TIP3   OH2 2378   6.044   5.019   4.608  0.0486 -0.2464 -0.2734
  791TIP3    H1 2379   6.098   5.015   4.529 -0.5556  0.2811 -0.7240
  791TIP3    H2 2380   5.979   4.950   4.595 -0.9034  0.7227 -0.9050
  792TIP3   OH2 2381   3.808   3.752   3.558  0.0585  0.9783 -0.6312
  792TIP3    H1 2382   3.857   3.684   3.604  0.4605  0.3835 -1.8974
  792TIP3    H2 2383   3.776   3.709   3.479 -0.6563  1.9662 -0.9012
  793TIP3   OH2 2384   2.583   1.169   4.409 -0.4758  0.4523  0.2468
  793TIP3    H1 2385   2.496   1.167   4.447  0.2544 -2.7436  2.1679
  793TIP3    H2 2386   2.569   1.160   4.315 -2.2506 -1.4908  0.6353
  794TIP3   OH2 2387   2.327   2.770   1.419 -0.3674  0.1725  0.1090
  794TIP3    H1 2388   2.373   2.697   1.376  1.4295  0.8656  0.7820
  794TIP3    H2 2389   2.393   2.811   1.474 -2.6557 -1.1871  4.3551
  795TIP3   OH2 2390   5.292   1.432   1.901 -0.3509 -1.1385  0.0416
  795TIP3    H1 2391   5.353   1.492   1.944 -0.9156 -0.2894 -0.3191
  795TIP3    H2 2392   5.220   1.488   1.871 -2.1455 -2.3055  1.9194
  796TIP3   OH2 2393   3.223   2.454   4.785  0.2094 -0.6575 -0.1694
  796TIP3    H1 2394   3.215   2.455   4.690 -1.5072  1.2669 -0.0554
  796TIP3    H2 2395   3.237   2.362   4.807 -0.4305 -1.2777 -2.2038
  797TIP3   OH2 2396   2.736   4.109   4.989 -0.1223  1.2271 -0.1461
  797TIP3    H1 2397   2.678   4.033   4.987 -0.6817  1.5818  1.4748
  797TIP3    H2 2398   2.728   4.148   4.902 -2.6180  1.4683  0.1144
  798TIP3   OH2 2399   1.955   3.628   3.233  0.0776 -0.6401  0.6948
  798TIP3    H1 2400   2.025   3.640   3.169  0.1719 -1.4995  0.6194
  798TIP3    H2 2401   1.888   3.691   3.207  0.6452 -0.0918  0.5218
  799TIP3   OH2 2402   0.857   2.517   3.641  0.0329  0.0641  0.0705
  799TIP3    H1 2403   0.812   2.485   3.720 -0.2397  1.0561  0.3335
  799TIP3    H2 2404   0.924   2.577   3.674  0.4235 -0.0928 -0.4210
  800TIP3   OH2 2405   0.811   2.258   3.578 -0.0204  0.0030 -0.3414
  800TIP3    H1 2406   0.718   2.253   3.555  0.4815 -0.3003 -2.5311
  800TIP3    H2 2407   0.831   2.351   3.577 -0.4939  0.1524  1.1761
  801TIP3   OH2 2408   0.547   2.424   0.495  0.2413 -0.2358  0.1770
  801TIP3    H1 2409   0.616   2.422   0.562  0.0376  1.3257  0.4736
  801TIP3    H2 2410   0.560   2.508   0.450 -1.1266 -0.1637 -0.1180
  802TIP3   OH2 2411   5.862   1.950   0.545 -0.9130 -0.1507 -0.2218
  802TIP3    H1 2412   5.934   1.953   0.482 -1.0469  3.0538 -0.3533
  802TIP3    H2 2413   5.784   1.939   0.492 -0.8030 -0.0903 -0.3988
  803TIP3   OH2 2414   0.735   1.071   2.117  0.0424  0.1310 -0.0636
  803TIP3    H1 2415   0.789   1.010   2.167 -0.9163  1.0923  2.2484
  803TIP3    H2 2416   0.799   1.123   2.067  1.2580  0.7497  2.0271
  804TIP3   OH2 2417   2.340   3.566   0.203  0.2731  0.5041  0.0082
  804TIP3    H1 2418   2.284   3.637   0.171  0.3709 -0.0485 -1.4622
  804TIP3    H2 2419   2.383   3.603   0.280 -0.4783  1.6729 -0.1019
  805TIP3   OH2 2420   5.717   2.908   0.113 -0.6752 -0.5975 -0.2752
  805TIP3    H1 2421   5.669   2.903   0.030  0.5925 -0.3989 -1.0438
  805TIP3    H2 2422   5.725   2.818   0.142 -2.1982 -0.5825  0.2932
  806TIP3   OH2 2423   4.387   3.883   2.687  0.0595 -0.2433 -0.1111
  806TIP3    H1 2424   4.364   3.870   2.779 -2.8928  0.5886 -0.6419
  806TIP3    H2 2425   4.394   3.794   2.651  0.8753 -0.5599  0.7883
  807TIP3   OH2 2426   1.838   4.554   2.961  0.3438  0.3858 -0.0963
  807TIP3    H1 2427   1.769   4.531   2.898 -0.0381  0.4516  0.2951
  807TIP3    H2 2428   1.873   4.636   2.928 -0.6515  1.0334  0.4041
  808TIP3   OH2 2429   5.612   2.502   3.626  0.5140 -0.2969  0.5678
  808TIP3    H1 2430   5.617   2.580   3.570  1.0630  0.6653  1.9015
  808TIP3    H2 2431   5.519   2.492   3.644  0.2069 -1.2611 -1.3480
  809TIP3   OH2 2432   0.229   4.184   4.337 -0.7266 -0.2742 -0.4228
  809TIP3    H1 2433   0.257   4.235   4.261 -1.9605 -1.6956 -1.9234
  809TIP3    H2 2434   0.310   4.154   4.378  0.0432 -1.9771 -2.9814
  810TIP3   OH2 2435   4.633   2.355   0.073  0.1436 -0.0721  0.2021
  810TIP3    H1 2436   4.684   2.433   0.095  0.7367 -0.9314  2.0965
  810TIP3    H2 2437   4.543   2.387   0.066  0.6679  1.1700 -1.5114
  811TIP3   OH2 2438   1.165   4.607   2.402  0.3401  0.0611 -0.3956
  811TIP3    H1 2439   1.241   4.587   2.347 -0.4201  0.3945 -1.6137
  811TIP3    H2 2440   1.102   4.645   2.341 -0.0321  1.7100  0.9724
  812TIP3   OH2 2441   5.529   2.500   0.752  0.2298 -0.4154  0.8771
  812TIP3    H1 2442   5.591   2.493   0.680 -0.7105 -1.4418  0.1374
  812TIP3    H2 2443   5.476   2.577   0.730  1.0581  0.3409  1.4092
  813TIP3   OH2 2444   5.874   1.872   4.469  0.2974  0.3915  0.1923
  813TIP3    H1 2445   5.919   1.957   4.473  1.9787 -0.5121  1.4872
  813TIP3    H2 2446   5.926   1.820   4.408 -1.0899  0.4522 -1.0901
  814TIP3   OH2 2447   2.237   5.013   2.545  0.2869  0.1309  0.2160
  814TIP3    H1 2448   2.257   5.034   2.454  0.6115  0.6793  0.4120
  814TIP3    H2 2449   2.151   5.051   2.560  1.1728  2.0456  0.7838
  815TIP3   OH2 2450   3.658   1.509   2.742  0.0365 -0.1158  0.2811
  815TIP3    H1 2451   3.562   1.503   2.742 -0.0024 -0.1746 -1.9526
  815TIP3    H2 2452   3.686   1.444   2.807 -1.3407 -2.5129 -1.3782
  816TIP3   OH2 2453   1.761   2.839   4.443 -0.2436 -0.2055 -0.3718
  816TIP3    H1 2454   1.679   2.817   4.489 -0.7779 -0.5696 -1.4544
  816TIP3    H2 2455   1.734   2.899   4.373  0.4659 -0.0949 -0.5601
  817TIP3   OH2 2456   4.194   4.042   5.073  0.7425 -0.7029 -0.4542
  817TIP3    H1 2457   4.191   4.047   4.977  0.8035 -0.8245 -0.4623
  817TIP3    H2 2458   4.243   4.120   5.099 -1.1555  0.5287 -0.4000
  818TIP3   OH2 2459   4.777   3.632   3.763 -0.4023 -0.3222 -0.4473
  818TIP3    H1 2460   4.840   3.561   3.751  1.8185  1.3479  0.5136
  818TIP3    H2 2461   4.787   3.686   3.684 -0.1745  0.2737 -0.0150
  819TIP3   OH2 2462   5.816   3.435   5.022  0.2970  0.4442 -0.1434
  819TIP3    H1 2463   5.841   3.526   5.041  0.4856  0.1029  1.3395
  819TIP3    H2 2464   5.721   3.438   5.014  0.2134  0.6385  0.7889
  820TIP3   OH2 2465   2.745   2.313   2.865 -0.0519 -0.6011  0.2475
  820TIP3    H1 2466   2.829   2.290   2.824  0.1670 -0.2901  0.5119
  820TIP3    H2 2467   2.682   2.309   2.794  0.1762 -0.9147  0.0593
  821TIP3   OH2 2468   5.800   2.342   1.815 -0.2349 -0.6107 -0.1651
  821TIP3    H1 2469   5.707   2.322   1.826  0.0631 -1.8953  0.2077
  821TIP3    H2 2470   5.845   2.258   1.831  1.0430  0.1692  0.5414
  822TIP3   OH2 2471   5.945   1.164   0.510  0.2531  0.0491 -0.0897
  822TIP3    H1 2472   5.891   1.232   0.551  0.3176  0.0300  0.0270
  822TIP3    H2 2473   5.991   1.210   0.439 -0.8316 -0.1973 -0.9729
  823TIP3   OH2 2474   3.881   0.724   4.708 -0.7867 -0.1781  0.4338
  823TIP3    H1 2475   3.811   0.737   4.772  0.3834  2.4715  1.3388
  823TIP3    H2 2476   3.924   0.810   4.702  1.5726 -1.3508 -1.0517
  824TIP3   OH2 2477   2.888   5.625   1.115 -0.1915  0.3255 -0.0573
  824TIP3    H1 2478   2.945   5.560   1.074 -0.0516  0.8545 -0.7167
  824TIP3    H2 2479   2.930   5.709   1.096 -0.9469  0.6864 -0.1538
  825TIP3   OH2 2480   5.218   4.476   0.436 -0.2936 -0.0387  0.2773
  825TIP3    H1 2481   5.134   4.493   0.478 -0.4292  0.2874 -0.1224
  825TIP3    H2 2482   5.196   4.439   0.351 -0.0996  2.0028 -0.7220
  826TIP3   OH2 2483   3.973   1.238   2.829 -0.0739 -0.8057  0.7629
  826TIP3    H1 2484   3.971   1.226   2.924  0.6801 -0.6694  0.7975
  826TIP3    H2 2485   3.933   1.158   2.794 -1.0739 -0.5174  1.2144
  827TIP3   OH2 2486   2.521   0.947   0.826 -0.6963  0.1208 -0.2660
  827TIP3    H1 2487   2.550   0.955   0.917 -3.7209  1.6426  0.6830
  827TIP3    H2 2488   2.535   1.034   0.788 -0.2848 -0.2654 -1.0419
  828TIP3   OH2 2489   6.235   2.636   1.573  0.0559  0.2637  0.3158
  828TIP3    H1 2490   6.198   2.585   1.645 -0.9112  2.2988  1.3232
  828TIP3    H2 2491   6.315   2.673   1.610 -0.5056  1.4082  0.4092
  829TIP3   OH2 2492   1.372   0.102   3.492 -0.1121  0.3615  0.5507
  829TIP3    H1 2493   1.313   0.055   3.433 -0.7006  1.2067  0.4458
  829TIP3    H2 2494   1.315   0.133   3.563  0.1843  1.1942  0.4434
  830TIP3   OH2 2495   1.272   2.312   2.806  0.0043  0.2747  0.0317
  830TIP3    H1 2496   1.260   2.386   2.747 -0.0439  1.2754  1.2622
  830TIP3    H2 2497   1.217   2.243   2.769 -1.6648  1.5520  0.0263
  831TIP3   OH2 2498   1.529   1.389   2.418 -0.4736  0.1155 -0.3520
  831TIP3    H1 2499   1.539   1.388   2.513 -1.7400 -0.3888 -0.2060
  831TIP3    H2 2500   1.609   1.431   2.386  0.4810 -0.7209  0.8623
  832TIP3   OH2 2501   5.727   1.607   1.494  0.1841  0.0499  0.2430
  832TIP3    H1 2502   5.639   1.610   1.455  0.2150  0.7170  0.2220
  832TIP3    H2 2503   5.760   1.696   1.486  1.8136 -0.6442 -1.9116
  833TIP3   OH2 2504   4.874   0.109   2.251 -0.0220 -0.4876  0.0977
  833TIP3    H1 2505   4.905   0.031   2.205 -0.1099 -1.7253  2.0470
  833TIP3    H2 2506   4.790   0.084   2.289 -0.4813  0.8516  0.0332
  834TIP3   OH2 2507   4.406   5.254   5.180 -0.2816 -0.5318 -0.5500
  834TIP3    H1 2508   4.318   5.289   5.195  0.8895  1.9043  1.2866
  834TIP3    H2 2509   4.418   5.259   5.085 -2.3320 -1.6169 -0.9289
  835TIP3   OH2 2510   5.083   0.722   4.892 -0.2901  0.2034 -0.5219
  835TIP3    H1 2511   5.014   0.783   4.917  0.3532  1.8298 -2.5043
  835TIP3    H2 2512   5.081   0.721   4.796  2.2885  0.1321 -0.6276
  836TIP3   OH2 2513   4.962   1.855   3.305  0.1611  0.7548 -0.1370
  836TIP3    H1 2514   4.889   1.806   3.344 -0.0175  0.5177 -0.7626
  836TIP3    H2 2515   5.015   1.883   3.380 -0.5014  0.8155  0.3138
  837TIP3   OH2 2516   5.608   1.818   4.406  0.6267 -0.1763 -0.2202
  837TIP3    H1 2517   5.641   1.890   4.459 -0.3963 -1.8026  2.8744
  837TIP3    H2 2518   5.676   1.752   4.410  0.2162 -0.6106 -0.2859
  838TIP3   OH2 2519   5.854   0.413   0.964 -0.0090  0.3338 -0.4266
  838TIP3    H1 2520   5.809   0.462   0.895 -1.0137 -0.1592 -0.1388
  838TIP3    H2 2521   5.946   0.437   0.953 -0.3502  1.5655 -0.8751
  839TIP3   OH2 2522   5.937   1.207   4.019  0.2327  0.3893  0.1537
  839TIP3    H1 2523   5.851   1.168   4.038  0.2620 -1.7032 -3.1314
  839TIP3    H2 2524   5.918   1.300   4.003 -1.6263 -0.1413 -1.1143
  840TIP3   OH2 2525   3.135   1.915   3.028 -0.0359 -0.3964  0.4206
  840TIP3    H1 2526   3.147   1.862   3.107 -0.6511  0.7230  1.2920
  840TIP3    H2 2527   3.115   1.851   2.960  1.5962 -1.4922  0.8960
  841TIP3   OH2 2528   5.741   3.615   3.268  0.0501  0.4781 -0.0635
  841TIP3    H1 2529   5.755   3.660   3.185  0.1713 -1.3072 -1.0714
  841TIP3    H2 2530   5.645   3.612   3.277  0.0144  3.3137  1.4440
  842TIP3   OH2 2531   2.380   3.644   2.730 -0.4711 -0.4869  0.2446
  842TIP3    H1 2532   2.372   3.732   2.693  0.9281  0.0262  1.0887
  842TIP3    H2 2533   2.452   3.603   2.682 -0.5598 -0.8707  0.4315
  843TIP3   OH2 2534   2.427   1.242   1.233 -0.3713 -0.0375 -0.5247
  843TIP3    H1 2535   2.337   1.236   1.201 -0.1230 -2.1348 -0.9662
  843TIP3    H2 2536   2.419   1.251   1.328 -1.0659 -1.7636 -0.3856
  844TIP3   OH2 2537   3.440   4.501   1.513 -0.2223 -0.3457 -0.1703
  844TIP3    H1 2538   3.489   4.520   1.433  0.3650 -2.9092 -0.4860
  844TIP3    H2 2539   3.350   4.488   1.483 -0.3461  0.4305 -0.1498
  845TIP3   OH2 2540  -0.015   4.241   4.473 -0.5252 -0.1673 -0.0018
  845TIP3    H1 2541   0.034   4.274   4.548 -1.0957  0.8237 -0.0577
  845TIP3    H2 2542   0.031   4.274   4.397 -0.9902  0.3592 -0.0605
  846TIP3   OH2 2543   2.193   1.332   3.293  0.3784 -0.7479 -0.6839
  846TIP3    H1 2544   2.205   1.256   3.351  0.6699 -0.3970 -0.2798
  846TIP3    H2 2545   2.100   1.332   3.273  0.3094 -0.9961 -0.3762
  847TIP3   OH2 2546   5.308   5.223   1.285  0.4401 -0.2161  0.2979
  847TIP3    H1 2547   5.404   5.229   1.283  0.6066 -2.0950  0.0941
  847TIP3    H2 2548   5.283   5.250   1.373  1.4536 -2.3038  1.3009
  848TIP3   OH2 2549   2.126   1.783   2.803 -0.6109  0.3917 -0.7438
  848TIP3    H1 2550   2.067   1.849   2.767 -1.8673 -0.7767 -0.9041
  848TIP3    H2 2551   2.093   1.699   2.770 -0.4702 -0.5320  1.2875
  849TIP3   OH2 2552   2.623   1.816   2.996 -0.4049 -0.1506  0.3018
  849TIP3    H1 2553   2.604   1.902   2.957  0.2156  0.0239  0.3805
  849TIP3    H2 2554   2.571   1.755   2.944  0.8162  0.0093 -1.1769
  850TIP3   OH2 2555   4.641   5.955   0.395 -0.2922  0.3884 -0.1427
  850TIP3    H1 2556   4.584   5.944   0.319  2.9980 -0.0942 -2.7493
  850TIP3    H2 2557   4.728   5.971   0.358  1.6807 -0.7309  3.5243
  851TIP3   OH2 2558   5.495   0.554   3.180 -0.3288  0.1961  0.2950
  851TIP3    H1 2559   5.400   0.556   3.171 -0.6213  0.8607  2.7930
  851TIP3    H2 2560   5.518   0.640   3.215  0.8040 -0.9121  2.4982
  852TIP3   OH2 2561   4.826   1.494   2.584 -0.2296  0.0965 -0.5652
  852TIP3    H1 2562   4.865   1.408   2.599  0.9093  0.5878 -0.5453
  852TIP3    H2 2563   4.895   1.544   2.539 -0.5995  1.2043  0.0420
  853TIP3   OH2 2564   5.176   1.309   2.147 -0.3000  0.2037  0.1505
  853TIP3    H1 2565   5.161   1.217   2.127  0.4317  0.3484 -1.2141
  853TIP3    H2 2566   5.190   1.350   2.062  1.2848  1.2225  0.8423
  854TIP3   OH2 2567   0.343   2.905   3.089 -0.0031 -1.0835 -0.2236
  854TIP3    H1 2568   0.336   2.810   3.089 -2.1263 -0.9809  0.3398
  854TIP3    H2 2569   0.257   2.936   3.119  0.7112  1.0067 -0.1235
  855TIP3   OH2 2570   5.871   5.909   3.347 -0.0974 -0.0302  0.1990
  855TIP3    H1 2571   5.884   5.991   3.395  0.8945  0.7671 -1.3381
  855TIP3    H2 2572   5.809   5.859   3.400  0.7897  0.8786  2.1581
  856TIP3   OH2 2573   5.549   3.373   0.792 -0.3864  0.1130  0.2251
  856TIP3    H1 2574   5.478   3.372   0.856  0.2235 -0.9144  0.9330
  856TIP3    H2 2575   5.621   3.327   0.836  0.5941  0.8136 -0.6007
  857TIP3   OH2 2576   5.370   2.844   4.868  0.4063 -0.1883 -0.0881
  857TIP3    H1 2577   5.409   2.843   4.781  1.0591 -0.3899  0.2006
  857TIP3    H2 2578   5.308   2.771   4.868  1.2593 -0.9202 -0.0045
  858TIP3   OH2 2579   5.387   5.001   2.756  0.0698 -0.4004  0.2673
  858TIP3    H1 2580   5.333   4.966   2.827  0.0630 -1.6262 -0.3190
  858TIP3    H2 2581   5.469   4.951   2.762  0.3983  0.0974 -0.0551
  859TIP3   OH2 2582   1.880   1.040   2.269 -0.2094 -0.2071 -0.2422
  859TIP3    H1 2583   1.817   0.974   2.242  0.1528 -0.4116 -0.5998
  859TIP3    H2 2584   1.940   0.993   2.328 -0.5664  0.0586  0.3397
  860TIP3   OH2 2585   0.933   2.877   5.071  0.2165  0.2620  0.6332
  860TIP3    H1 2586   0.957   2.906   4.983  1.8731  0.5975  1.1720
  860TIP3    H2 2587   1.015   2.853   5.112 -0.3650  1.3264  2.5323
  861TIP3   OH2 2588   3.100   2.284   3.569  0.1214 -0.5234  0.6533
  861TIP3    H1 2589   3.136   2.206   3.610  2.0752  0.5344  1.0536
  861TIP3    H2 2590   3.061   2.333   3.641 -1.4789 -1.2639  0.3438
  862TIP3   OH2 2591   0.527   3.546   1.312 -0.2265  0.5314 -0.6904
  862TIP3    H1 2592   0.498   3.588   1.231 -0.1596  2.4405  0.2373
  862TIP3    H2 2593   0.519   3.613   1.379  1.9134 -0.2811  0.4836
  863TIP3   OH2 2594   3.990   5.665   4.865  0.3250  0.1343 -0.1977
  863TIP3    H1 2595   4.011   5.755   4.843 -0.4314 -0.0100 -1.5758
  863TIP3    H2 2596   3.942   5.631   4.790  1.5596 -1.7646 -0.2161
  864TIP3   OH2 2597   5.381   1.804   0.654 -0.2472 -0.0948  0.0017
  864TIP3    H1 2598   5.441   1.744   0.608 -1.3714 -0.0574 -1.5824
  864TIP3    H2 2599   5.431   1.885   0.662  0.7618 -0.7754  0.8436
  865TIP3   OH2 2600   1.795   5.211   0.627 -0.4106 -0.3216  1.1044
  865TIP3    H1 2601   1.882   5.190   0.593  0.3674  0.8729  2.2568
  865TIP3    H2 2602   1.742   5.133   0.608  0.5835 -0.6375 -0.6234
  866TIP3   OH2 2603   0.850   4.759   2.603  0.1449 -0.1311  0.1495
  866TIP3    H1 2604   0.782   4.729   2.543  1.0518 -0.7674 -0.5883
  866TIP3    H2 2605   0.912   4.807   2.548  0.6980 -0.2485  0.6561
  867TIP3   OH2 2606   0.565   3.181   0.470 -0.0962 -0.2110 -0.0554
  867TIP3    H1 2607   0.537   3.191   0.561  1.2769 -0.6594  0.4262
  867TIP3    H2 2608   0.542   3.264   0.429  0.5159  0.5169  1.0372
  868TIP3   OH2 2609   4.862   1.121   1.063 -0.6095 -0.1324  0.0544
  868TIP3    H1 2610   4.834   1.191   1.004 -1.3294  0.8294  1.4762
  868TIP3    H2 2611   4.781   1.080   1.092 -0.9824  3.2706  4.9371
  869TIP3   OH2 2612   6.241   2.561   4.574 -0.4169  0.1285  0.2659
  869TIP3    H1 2613   6.283   2.489   4.620 -1.5925 -1.0228 -0.4247
  869TIP3    H2 2614   6.163   2.582   4.626  0.1307  1.2269  0.6978
  870TIP3   OH2 2615   5.239   3.216   3.794  0.2365 -0.7170 -0.1781
  870TIP3    H1 2616   5.149   3.190   3.775 -0.7030  0.2115  2.5438
  870TIP3    H2 2617   5.291   3.168   3.730 -2.1859 -0.9843 -2.1102
  871TIP3   OH2 2618   2.048   0.269   1.142 -0.6881 -0.1854 -0.6407
  871TIP3    H1 2619   2.125   0.252   1.086 -0.6510 -0.9334 -0.3724
  871TIP3    H2 2620   2.010   0.182   1.157 -0.1211 -0.1428  1.3276
  872TIP3   OH2 2621   4.921   4.487   2.797 -0.3034  0.4702 -0.2160
  872TIP3    H1 2622   4.979   4.561   2.776 -1.1239  0.8203 -1.3354
  872TIP3    H2 2623   4.857   4.486   2.726 -0.0023 -1.6582 -0.5140
  873TIP3   OH2 2624   1.694   5.509   4.339 -0.0141  0.2126 -0.2188
  873TIP3    H1 2625   1.653   5.510   4.425  0.6619  1.0055  0.1095
  873TIP3    H2 2626   1.704   5.602   4.317  1.2595  0.0373 -0.4468
  874TIP3   OH2 2627   1.125   4.324   2.406  0.1637 -0.0423  0.0393
  874TIP3    H1 2628   1.137   4.418   2.421  0.9192 -0.2654  0.9662
  874TIP3    H2 2629   1.040   4.317   2.362  0.7463  1.1737 -1.3563
  875TIP3   OH2 2630   1.448   2.952   2.974 -0.0189 -0.2460 -0.3648
  875TIP3    H1 2631   1.434   2.932   2.882  0.0027  1.6580 -0.8344
  875TIP3    H2 2632   1.360   2.954   3.012 -0.0046 -1.3405 -0.2665
  876TIP3   OH2 2633   1.447   5.635   1.416  0.6674  0.1246 -0.3446
  876TIP3    H1 2634   1.448   5.709   1.355  3.0124  2.3501  2.1534
  876TIP3    H2 2635   1.402   5.668   1.493  2.1141 -0.8770  0.9939
  877TIP3   OH2 2636   4.396   5.198   3.787  0.1487 -0.1643  0.1356
  877TIP3    H1 2637   4.367   5.274   3.836  0.5482  0.5296 -0.6739
  877TIP3    H2 2638   4.453   5.233   3.718 -2.1549 -0.8027 -2.2606
  878TIP3   OH2 2639   0.771   3.043   0.337 -0.4714  0.2038 -0.3148
  878TIP3    H1 2640   0.844   3.058   0.398 -0.3840  2.8240 -0.9945
  878TIP3    H2 2641   0.694   3.070   0.386 -0.8950 -1.2574 -0.1035
  879TIP3   OH2 2642   3.836   1.017   2.021  0.0475 -0.4000 -0.3526
  879TIP3    H1 2643   3.894   1.063   2.081 -1.3552  3.4417 -1.6430
  879TIP3    H2 2644   3.877   0.931   2.009  2.9972  0.4865  2.1716
  880TIP3   OH2 2645   3.318   1.007   0.830 -0.1961 -0.8364 -0.1761
  880TIP3    H1 2646   3.327   1.102   0.845 -4.3327 -0.4865  1.4828
  880TIP3    H2 2647   3.389   0.968   0.881  0.1238  1.3319  1.1794
  881TIP3   OH2 2648   2.454   4.262   1.630 -0.7228  0.3066 -0.2158
  881TIP3    H1 2649   2.529   4.202   1.633 -0.2138  0.9571  1.6979
  881TIP3    H2 2650   2.378   4.204   1.622 -0.1024 -0.4598 -0.6542
  882TIP3   OH2 2651   3.913   4.928   1.424  0.0116 -0.1697  0.0960
  882TIP3    H1 2652   3.844   4.948   1.361 -0.5204 -1.2641  0.3098
  882TIP3    H2 2653   3.969   5.006   1.424 -1.7170  1.1384  0.5924
  883TIP3   OH2 2654   0.082   3.986   4.243 -0.5914  0.5770  0.1596
  883TIP3    H1 2655   0.103   4.062   4.298  1.5562 -0.3528  0.7248
  883TIP3    H2 2656   0.122   4.005   4.159  1.8252 -0.7404  0.9180
  884TIP3   OH2 2657   5.666   4.371   1.496  0.7023  0.3837 -0.0374
  884TIP3    H1 2658   5.694   4.298   1.552  1.0163  1.4347  1.2362
  884TIP3    H2 2659   5.584   4.341   1.457  0.5753 -0.4668  0.8283
  885TIP3   OH2 2660   2.206   3.788   0.155  0.4109  0.1132 -0.0921
  885TIP3    H1 2661   2.177   3.736   0.080  1.1781 -0.0829 -0.2566
  885TIP3    H2 2662   2.125   3.827   0.189  0.0872  0.4579 -1.2058
  886TIP3   OH2 2663   5.576   3.892   0.034 -0.2854 -0.1300 -0.1874
  886TIP3    H1 2664   5.589   3.844  -0.047  1.3271  1.1795 -0.7591
  886TIP3    H2 2665   5.481   3.898   0.044 -0.5136 -1.8875 -0.9825
  887TIP3   OH2 2666   2.125   2.130   0.525  0.3898  0.7515 -0.0191
  887TIP3    H1 2667   2.165   2.112   0.441 -0.2809  0.3027 -0.2493
  887TIP3    H2 2668   2.076   2.212   0.512 -0.7535  0.0143 -0.4356
  888TIP3   OH2 2669   2.296   4.734   0.155  0.2505  0.3993  0.1025
  888TIP3    H1 2670   2.316   4.647   0.119 -0.2410 -0.3372  1.5245
  888TIP3    H2 2671   2.222   4.719   0.214 -0.7077  2.0344 -0.5910
  889TIP3   OH2 2672   2.709   5.010   1.460  0.4051 -0.4191 -0.2870
  889TIP3    H1 2673   2.749   4.946   1.402 -0.0731 -1.8241  0.8724
  889TIP3    H2 2674   2.722   5.094   1.416  1.1671 -1.2833 -1.7852
  890TIP3   OH2 2675   1.687   5.897   3.592  0.4957 -0.0213 -0.5528
  890TIP3    H1 2676   1.681   5.816   3.643 -0.6510  0.0038 -0.6137
  890TIP3    H2 2677   1.614   5.950   3.623 -0.4235 -0.1253 -2.3939
  891TIP3   OH2 2678   3.436   0.151   3.952  0.3443 -0.5170 -0.6360
  891TIP3    H1 2679   3.426   0.061   3.982 -0.0664 -0.7116 -1.3258
  891TIP3    H2 2680   3.480   0.196   4.024 -1.0208 -0.8568  0.4623
  892TIP3   OH2 2681   5.263   4.028   2.738  0.0571 -0.8075  0.7244
  892TIP3    H1 2682   5.232   4.115   2.763 -0.4397  0.1664 -2.6885
  892TIP3    H2 2683   5.358   4.034   2.740  0.0197 -0.4566  1.3414
  893TIP3   OH2 2684   0.867   4.002   4.157 -0.3156  0.4606 -0.0033
  893TIP3    H1 2685   0.894   3.922   4.202  0.1839  2.1467  2.9405
  893TIP3    H2 2686   0.941   4.024   4.100 -0.3866 -0.9898 -0.7201
  894TIP3   OH2 2687   3.437   4.521   2.038  0.2000 -0.5837  1.1174
  894TIP3    H1 2688   3.484   4.584   2.094 -0.3286  0.5661  0.3114
  894TIP3    H2 2689   3.369   4.573   1.996 -1.0810 -1.9885  1.3877
  895TIP3   OH2 2690   0.171   0.029   4.028  0.0049  0.8475  0.0234
  895TIP3    H1 2691   0.203  -0.033   4.094  0.3355  0.8885 -0.0935
  895TIP3    H2 2692   0.118   0.092   4.077  0.7155  1.2077  0.3403
  896TIP3   OH2 2693   1.346   0.471   2.527  0.2073 -0.3031  0.1877
  896TIP3    H1 2694   1.429   0.503   2.563  0.4850  2.0089 -2.2273
  896TIP3    H2 2695   1.371   0.405   2.462  0.1651  0.4470 -0.5933
  897TIP3   OH2 2696   0.233   0.673   1.337 -0.2005 -0.4138 -0.5314
  897TIP3    H1 2697   0.231   0.686   1.432  0.4493  0.2994 -0.5965
  897TIP3    H2 2698   0.324   0.649   1.319 -0.3289 -0.5733 -0.9675
  898TIP3   OH2 2699   5.858   1.777   2.668 -0.4708  0.4341 -0.2025
  898TIP3    H1 2700   5.828   1.720   2.738  0.5544  1.3556  1.0471
  898TIP3    H2 2701   5.815   1.861   2.686  1.7585  1.4210  0.9104
  899TIP3   OH2 2702   6.160   5.640   3.835  0.0213  0.4990 -0.0801
  899TIP3    H1 2703   6.141   5.549   3.813 -0.4941 -0.2734  3.1072
  899TIP3    H2 2704   6.090   5.690   3.795  0.2912 -0.4567 -1.8530
  900TIP3   OH2 2705   4.149   4.175   1.985 -0.1851 -0.2100 -0.5434
  900TIP3    H1 2706   4.182   4.124   2.059 -1.0483 -2.0085 -1.3262
  900TIP3    H2 2707   4.187   4.132   1.908  0.3372  1.3457 -1.1965
  901TIP3   OH2 2708   4.070   5.918   2.266  0.0632  0.3461 -0.1986
  901TIP3    H1 2709   4.051   5.833   2.305  1.8555 -0.0187 -0.0251
  901TIP3    H2 2710   3.988   5.944   2.224 -0.5586 -1.4003 -0.1500
  902TIP3   OH2 2711   3.823   5.054   4.595 -0.3611  0.0709  0.2279
  902TIP3    H1 2712   3.734   5.081   4.619 -0.7977 -1.1509  0.0656
  902TIP3    H2 2713   3.810   4.989   4.526  0.7003  0.4246 -0.3158
  903TIP3   OH2 2714   3.236   3.452   3.884  0.6394 -0.5955  0.7514
  903TIP3    H1 2715   3.257   3.517   3.817  0.1178 -2.2009 -1.0481
  903TIP3    H2 2716   3.312   3.453   3.943  1.6796 -0.0078 -0.5670
  904TIP3   OH2 2717   4.560   1.350   4.696 -0.1499  0.0403  0.3056
  904TIP3    H1 2718   4.523   1.422   4.747  0.0317  0.5069 -0.2076
  904TIP3    H2 2719   4.522   1.272   4.734 -1.2086  0.4732  0.1831
  905TIP3   OH2 2720   2.811   1.349   0.083 -0.2258 -0.1313  0.4571
  905TIP3    H1 2721   2.824   1.406   0.008  0.2344 -0.1827  0.4921
  905TIP3    H2 2722   2.873   1.277   0.069 -1.4040 -1.0768 -0.0256
  906TIP3   OH2 2723   1.064   0.026   3.116  0.0849  0.2082 -0.2597
  906TIP3    H1 2724   1.143   0.081   3.115 -1.2941  2.3471  0.4199
  906TIP3    H2 2725   1.057  -0.008   3.027 -0.4873  3.5565 -1.6560
  907TIP3   OH2 2726   4.437   1.903   2.292 -0.2517 -0.0319  0.1545
  907TIP3    H1 2727   4.507   1.841   2.311 -1.6648 -1.5711  0.6141
  907TIP3    H2 2728   4.401   1.874   2.208 -0.4765  0.6050  0.0243
  908TIP3   OH2 2729   3.393   1.477   1.144 -0.0549 -0.3588  0.8093
  908TIP3    H1 2730   3.334   1.437   1.207 -0.8104  0.1951  0.4814
  908TIP3    H2 2731   3.335   1.526   1.085  0.5573 -1.3009 -0.6513
  909TIP3   OH2 2732   4.369   3.314   4.407 -0.0656  0.4337 -0.9494
  909TIP3    H1 2733   4.323   3.232   4.388  0.4733  0.1247 -0.9177
  909TIP3    H2 2734   4.437   3.319   4.339  1.3987 -0.3058  0.4097
  910TIP3   OH2 2735   0.526   5.043   4.577  0.0123 -0.0010  0.3009
  910TIP3    H1 2736   0.476   5.100   4.636 -1.5877 -0.2367 -0.7966
  910TIP3    H2 2737   0.572   5.104   4.519  0.1623  0.1925  0.6141
  911TIP3   OH2 2738   4.766   1.653   2.842  0.0220 -0.1093  0.2864
  911TIP3    H1 2739   4.763   1.580   2.781  0.8144 -0.0197  0.1272
  911TIP3    H2 2740   4.850   1.696   2.825  0.1285  0.0935  1.2313
  912TIP3   OH2 2741   3.300   2.840   4.110 -0.2135 -0.1721  0.1388
  912TIP3    H1 2742   3.243   2.846   4.034 -0.5668  1.4170  0.4902
  912TIP3    H2 2743   3.381   2.802   4.077 -1.1619 -1.7287 -0.5318
  913TIP3   OH2 2744   4.051   5.559   1.856 -0.0050  0.6889  0.4609
  913TIP3    H1 2745   4.051   5.607   1.773  0.2807  1.6860  1.0207
  913TIP3    H2 2746   4.008   5.618   1.918  0.2117  0.1552  1.1334
  914TIP3   OH2 2747   4.560   0.743   1.678  0.3604 -0.0553 -0.3274
  914TIP3    H1 2748   4.561   0.686   1.602  0.2441  1.6409 -1.6664
  914TIP3    H2 2749   4.472   0.781   1.679 -0.1383 -1.1038  1.5294
  915TIP3   OH2 2750   4.341   1.737   1.673 -0.2819 -0.0701 -0.4933
  915TIP3    H1 2751   4.352   1.761   1.581 -1.7971 -1.7229 -1.1610
  915TIP3    H2 2752   4.259   1.687   1.676  0.0343 -0.5815  1.6599
  916TIP3   OH2 2753   2.003   2.856   0.399  0.0009 -0.1788  0.1984
  916TIP3    H1 2754   1.940   2.795   0.436 -1.5877  0.9110 -0.5983
  916TIP3    H2 2755   2.026   2.818   0.314  0.1499 -0.3924  0.3324
  917TIP3   OH2 2756   2.833   3.771   3.588  0.3065 -0.2025 -0.2759
  917TIP3    H1 2757   2.901   3.833   3.616  0.8520 -0.4814 -0.9498
  917TIP3    H2 2758   2.880   3.707   3.535 -0.5395 -0.2373 -1.0055
  918TIP3   OH2 2759   1.452   0.700   4.475 -0.2614  0.1145 -0.0477
  918TIP3    H1 2760   1.476   0.667   4.562 -0.3491  1.6203  0.5852
  918TIP3    H2 2761   1.478   0.792   4.477  0.0115  0.1032 -1.7433
  919TIP3   OH2 2762   5.705   1.127   4.590 -0.0542 -0.0513 -0.1660
  919TIP3    H1 2763   5.778   1.111   4.530 -0.2095 -1.5906  0.0223
  919TIP3    H2 2764   5.707   1.222   4.606  2.9350 -0.2270  1.1517
  920TIP3   OH2 2765   3.406   3.610   4.601  0.5152  0.9178  0.0589
  920TIP3    H1 2766   3.491   3.580   4.570  0.2722  1.3294 -1.0726
  920TIP3    H2 2767   3.421   3.700   4.631  0.6833  0.6328  0.8440
  921TIP3   OH2 2768   1.498   1.543   3.274  0.4094  0.5123 -0.1482
  921TIP3    H1 2769   1.403   1.534   3.285  0.0255  4.1630  0.9292
  921TIP3    H2 2770   1.510   1.555   3.180 -0.4025  1.2445 -0.1744
  922TIP3   OH2 2771   3.432   3.223   3.090 -0.3160  0.0918  0.1080
  922TIP3    H1 2772   3.492   3.263   3.152  0.5538  1.8566 -1.7544
  922TIP3    H2 2773   3.487   3.197   3.016 -1.3937 -1.3645 -0.2258
  923TIP3   OH2 2774   2.290   3.160   3.182  0.0250 -0.7644 -0.0035
  923TIP3    H1 2775   2.238   3.160   3.263  0.8363 -0.5884  0.5226
  923TIP3    H2 2776   2.370   3.114   3.205  1.1367  1.0158 -0.1198
  924TIP3   OH2 2777   1.630   5.873   1.305  0.2065  0.1558 -0.4362
  924TIP3    H1 2778   1.625   5.966   1.330 -0.9696  0.3640 -1.3988
  924TIP3    H2 2779   1.660   5.875   1.214  0.5002 -0.4342 -0.3536
  925TIP3   OH2 2780   6.217   1.994   1.503  0.1611  0.4773  0.3841
  925TIP3    H1 2781   6.237   1.917   1.557  1.5715  1.1211  0.8354
  925TIP3    H2 2782   6.213   1.959   1.414 -0.9328 -0.3878  0.7471
  926TIP3   OH2 2783   3.727   0.541   0.631  0.2562  0.2670 -0.7745
  926TIP3    H1 2784   3.717   0.626   0.589 -0.1383 -0.7473 -2.8818
  926TIP3    H2 2785   3.710   0.557   0.724  0.3834  2.4921 -1.0948
  927TIP3   OH2 2786   3.264   1.941   3.735  0.5615  0.8245  0.2616
  927TIP3    H1 2787   3.195   1.896   3.685  0.0557  2.1647 -0.2845
  927TIP3    H2 2788   3.305   2.000   3.672  3.1337 -0.8561  0.2316
  928TIP3   OH2 2789   1.871   0.482   1.351  0.3636 -0.0545  0.3365
  928TIP3    H1 2790   1.803   0.428   1.391 -0.0636  0.5064  0.3781
  928TIP3    H2 2791   1.944   0.478   1.412 -0.0993  0.3757  0.9246
  929TIP3   OH2 2792   6.292   3.582   1.870 -0.0149  0.3419  0.4920
  929TIP3    H1 2793   6.208   3.547   1.839  1.2173 -0.7048 -1.9804
  929TIP3    H2 2794   6.317   3.524   1.942 -0.2490 -0.9555 -0.4345
  930TIP3   OH2 2795   0.469   5.792   4.710  0.4955  0.3897  0.0510
  930TIP3    H1 2796   0.550   5.840   4.727 -0.4443  1.5492  1.5087
  930TIP3    H2 2797   0.414   5.855   4.664  1.2234 -1.1712 -3.2355
  931TIP3   OH2 2798   1.831   2.159   4.739  0.1935 -0.0070 -0.3403
  931TIP3    H1 2799   1.771   2.165   4.813  0.8663 -1.8480  0.4276
  931TIP3    H2 2800   1.915   2.135   4.779  0.9181  0.3849 -1.5791
  932TIP3   OH2 2801   0.684   1.351   0.148  0.3721  0.2974  0.5568
  932TIP3    H1 2802   0.652   1.335   0.059  0.5663 -0.3542  0.6004
  932TIP3    H2 2803   0.700   1.445   0.150 -0.2571  0.4246  0.1098
  933TIP3   OH2 2804   1.086   5.577   4.132 -0.2609  0.0589  0.6053
  933TIP3    H1 2805   1.091   5.591   4.037  0.4886 -0.5699  0.5447
  933TIP3    H2 2806   1.167   5.531   4.154 -0.1720  0.6758  1.6414
  934TIP3   OH2 2807   4.776   2.806   0.275 -0.2756  0.4719  0.1607
  934TIP3    H1 2808   4.787   2.780   0.367 -0.0578 -0.7911 -0.1941
  934TIP3    H2 2809   4.702   2.754   0.245 -0.8677  1.4849 -0.1739
  935TIP3   OH2 2810   2.721   2.644   3.543  0.6281  1.2766  0.2091
  935TIP3    H1 2811   2.768   2.715   3.499 -0.6907  1.8455 -0.3422
  935TIP3    H2 2812   2.636   2.641   3.499  0.9508 -1.2801 -0.4125
  936TIP3   OH2 2813   0.406   0.109   4.569 -0.1520 -0.0849  0.3102
  936TIP3    H1 2814   0.491   0.153   4.569  0.2261 -0.7676 -0.6920
  936TIP3    H2 2815   0.344   0.177   4.593  0.1130  1.6969 -3.3788
  937TIP3   OH2 2816   2.822   3.276   4.799  0.5015 -0.4067 -0.0107
  937TIP3    H1 2817   2.917   3.276   4.812  0.5965 -0.5962 -0.6577
  937TIP3    H2 2818   2.804   3.193   4.754 -0.1527 -1.0006  1.3029
  938TIP3   OH2 2819   5.318   1.884   4.372  0.0542  0.0523  0.1947
  938TIP3    H1 2820   5.408   1.851   4.378  0.2857  0.3149 -1.4593
  938TIP3    H2 2821   5.298   1.884   4.278 -1.6570  0.0675  0.5239
  939TIP3   OH2 2822   5.389   0.533   0.085  0.2538  0.4408  0.3698
  939TIP3    H1 2823   5.376   0.583   0.166 -2.6703 -0.1555  0.3777
  939TIP3    H2 2824   5.374   0.442   0.111 -0.0600  0.1694 -0.7117
  940TIP3   OH2 2825   5.455   1.564   4.475  0.0445 -0.0853 -0.2663
  940TIP3    H1 2826   5.537   1.514   4.478 -0.4276 -0.8539  1.3027
  940TIP3    H2 2827   5.480   1.651   4.446  1.0109 -1.0086 -2.3884
  941TIP3   OH2 2828   5.764   5.095   2.559 -0.0514  0.0746 -0.3578
  941TIP3    H1 2829   5.743   5.024   2.619  0.2204  1.7068  1.7838
  941TIP3    H2 2830   5.701   5.164   2.581  1.3001  1.4304 -0.5801
  942TIP3   OH2 2831   2.340   5.005   2.035 -0.8029  0.0025  0.1833
  942TIP3    H1 2832   2.418   4.950   2.023 -0.4263  0.3027  1.1706
  942TIP3    H2 2833   2.331   5.052   1.952  1.2611  1.4656  0.7196
  943TIP3   OH2 2834   1.392   1.200   0.602 -0.1782 -0.3110 -0.2640
  943TIP3    H1 2835   1.404   1.242   0.687  0.3978  0.1086 -0.5400
  943TIP3    H2 2836   1.472   1.221   0.554 -1.3292  1.2225 -1.6263
  944TIP3   OH2 2837   2.521   3.471   3.553 -0.2262  0.0799 -0.5981
  944TIP3    H1 2838   2.429   3.492   3.538  0.2670  0.2889 -4.3848
  944TIP3    H2 2839   2.531   3.381   3.520  0.9900  0.2162 -0.6511
  945TIP3   OH2 2840   0.273   3.216   3.808 -0.4744  0.1480 -0.4627
  945TIP3    H1 2841   0.359   3.247   3.836 -0.4888 -1.0657  1.0486
  945TIP3    H2 2842   0.287   3.125   3.784 -1.3069 -0.0111 -0.3830
  946TIP3   OH2 2843   2.851   2.579   4.668 -0.4048  0.4723  0.0985
  946TIP3    H1 2844   2.910   2.614   4.601 -0.3822 -1.7209 -1.0994
  946TIP3    H2 2845   2.774   2.636   4.663 -0.5601  0.1443 -2.0711
  947TIP3   OH2 2846   5.804   3.747   5.009  0.1910  0.1476  0.1030
  947TIP3    H1 2847   5.767   3.812   4.949 -0.0695  0.1827  0.3016
  947TIP3    H2 2848   5.843   3.799   5.080 -2.7993  0.0772  1.9440
  948TIP3   OH2 2849   4.206   3.039   0.937  0.1948  0.1544 -0.3742
  948TIP3    H1 2850   4.220   3.132   0.922 -0.4988  0.4325  0.6375
  948TIP3    H2 2851   4.152   3.035   1.016  1.2508 -1.1390  0.3184
  949TIP3   OH2 2852   4.377   1.041   2.351  0.2818 -0.0078 -0.0670
  949TIP3    H1 2853   4.419   1.115   2.395 -0.0187  0.3956 -0.4468
  949TIP3    H2 2854   4.307   1.013   2.410  0.0530  0.3571 -0.1617
  950TIP3   OH2 2855   5.931   4.191   1.346  0.4744 -0.1046  0.2533
  950TIP3    H1 2856   5.995   4.223   1.410 -0.1685 -0.0828  0.8865
  950TIP3    H2 2857   5.979   4.124   1.297  0.8471 -0.4284  1.0419
  951TIP3   OH2 2858   0.561   0.413   1.312 -0.3721 -0.3280 -0.4306
  951TIP3    H1 2859   0.486   0.375   1.358  1.2074 -2.5165  0.5586
  951TIP3    H2 2860   0.568   0.362   1.232  0.3106 -0.4658 -0.2919
  952TIP3   OH2 2861   2.075   5.204   3.795 -0.5091 -0.4501  0.5651
  952TIP3    H1 2862   2.035   5.218   3.710 -1.0598 -0.3665  0.8359
  952TIP3    H2 2863   2.047   5.278   3.848  0.6581  0.0464  0.5332
  953TIP3   OH2 2864   2.954   5.904   0.652  0.3706  0.2999 -0.2097
  953TIP3    H1 2865   2.989   5.824   0.691 -1.3095 -0.2778  0.1797
  953TIP3    H2 2866   2.898   5.874   0.581 -0.1546  1.1425 -0.1667
  954TIP3   OH2 2867   2.188   1.843   0.698 -0.6086  0.3687  0.2708
  954TIP3    H1 2868   2.107   1.887   0.671 -0.8514  0.6013  1.3331
  954TIP3    H2 2869   2.250   1.914   0.714 -0.3541  0.2162 -0.0222
  955TIP3   OH2 2870   3.564   2.206   4.638 -0.4275  0.2968 -0.1454
  955TIP3    H1 2871   3.631   2.145   4.608 -0.2217  0.7208 -0.5656
  955TIP3    H2 2872   3.611   2.268   4.694 -1.1535 -1.7424  2.9665
  956TIP3   OH2 2873   3.342   5.679   4.071  0.0938 -1.0499 -0.2592
  956TIP3    H1 2874   3.404   5.735   4.119 -1.1855 -0.5066  0.8346
  956TIP3    H2 2875   3.309   5.735   4.000  0.2007 -1.0408 -0.3009
  957TIP3   OH2 2876   0.456   5.776   1.226 -0.0477  0.2600 -0.3601
  957TIP3    H1 2877   0.396   5.819   1.165 -0.8360  0.0932  0.2870
  957TIP3    H2 2878   0.448   5.826   1.307  0.1369 -0.2039 -0.0518
  958TIP3   OH2 2879   2.667   2.706   4.467 -0.2108 -0.2031 -0.1152
  958TIP3    H1 2880   2.688   2.680   4.377  0.5179 -0.1803  0.0462
  958TIP3    H2 2881   2.651   2.800   4.461 -0.2939 -0.2230 -0.2368
  959TIP3   OH2 2882   3.577   1.321   2.450  0.0753  0.1390 -0.8749
  959TIP3    H1 2883   3.632   1.398   2.463  1.3869 -0.9979  0.7025
  959TIP3    H2 2884   3.528   1.313   2.532 -0.9700 -0.0126 -1.5018
  960TIP3   OH2 2885   0.586   1.458   0.990  0.2311 -0.4070 -0.4109
  960TIP3    H1 2886   0.670   1.435   1.029 -0.3972 -0.8756  0.7189
  960TIP3    H2 2887   0.576   1.552   1.007 -0.3431 -0.7443  1.1860
  961TIP3   OH2 2888   3.227   0.581   4.431 -0.4935  0.7584  0.1707
  961TIP3    H1 2889   3.213   0.647   4.500  0.0131  2.2987 -1.1474
  961TIP3    H2 2890   3.317   0.595   4.403 -1.2746  1.4963 -2.1339
  962TIP3   OH2 2891   3.604   5.667   1.343 -0.0344  0.4006 -0.1104
  962TIP3    H1 2892   3.547   5.702   1.275 -0.0486  1.0115  0.2068
  962TIP3    H2 2893   3.602   5.733   1.412  0.3318 -0.0023  0.2921
  963TIP3   OH2 2894   4.047   5.716   1.651 -0.0859  0.5109  0.7385
  963TIP3    H1 2895   4.008   5.680   1.572  1.1703 -0.2410  0.4346
  963TIP3    H2 2896   3.995   5.794   1.670 -0.7476  0.4005 -0.5092
  964TIP3   OH2 2897   6.019   1.470   4.177  0.4145 -0.5391 -0.1535
  964TIP3    H1 2898   6.058   1.394   4.135 -1.7915 -0.9212 -1.6790
  964TIP3    H2 2899   5.959   1.506   4.112 -2.4082 -0.5036  2.2330
  965TIP3   OH2 2900   1.456   0.154   1.920  0.7787 -0.1148  0.3781
  965TIP3    H1 2901   1.364   0.170   1.900  0.0798 -1.8781  1.8074
  965TIP3    H2 2902   1.500   0.153   1.835 -0.6117  0.2269 -0.3743
  966TIP3   OH2 2903   2.148   4.969   0.726  0.1492  0.1725 -0.4276
  966TIP3    H1 2904   2.086   5.021   0.777  1.5996  0.7740  0.8008
  966TIP3    H2 2905   2.153   5.014   0.642 -1.9868 -0.6084 -1.0399
  967TIP3   OH2 2906   4.081   3.116   1.716 -0.4785 -0.0994 -0.1899
  967TIP3    H1 2907   4.035   3.121   1.633 -0.0492 -1.3519 -0.5265
  967TIP3    H2 2908   4.020   3.073   1.775  0.0459 -1.3285 -0.5086
  968TIP3   OH2 2909   4.784   2.610   4.956 -0.4065  0.0037 -0.1583
  968TIP3    H1 2910   4.744   2.524   4.940  2.2554 -1.3272 -0.1560
  968TIP3    H2 2911   4.827   2.632   4.873 -1.2192  1.4877 -0.2232
  969TIP3   OH2 2912   0.754   4.253   2.760  0.2164  0.5363 -0.1478
  969TIP3    H1 2913   0.739   4.237   2.853 -0.6528 -0.2746 -0.4130
  969TIP3    H2 2914   0.682   4.209   2.716  1.9504 -1.2721 -1.3554
  970TIP3   OH2 2915   3.545   2.056   2.504 -0.1319 -0.3372 -0.0864
  970TIP3    H1 2916   3.555   2.003   2.583 -0.2518  0.5586  0.5288
  970TIP3    H2 2917   3.627   2.106   2.498  0.2795 -1.0819 -1.0509
  971TIP3   OH2 2918   6.220   0.041   0.852  0.3588 -0.0817  0.0049
  971TIP3    H1 2919   6.260  -0.008   0.780  0.1436 -0.0967 -0.1051
  971TIP3    H2 2920   6.153   0.095   0.811  0.2619 -0.0587  0.1883
  972TIP3   OH2 2921   2.039   4.864   3.217  0.2442 -0.0365 -0.4698
  972TIP3    H1 2922   2.097   4.818   3.276 -0.5821 -1.2999 -0.6142
  972TIP3    H2 2923   2.088   4.942   3.191  1.7744 -0.9571 -0.4227
  973TIP3   OH2 2924   3.043   3.972   0.936  0.2295  0.3523 -0.5176
  973TIP3    H1 2925   3.001   3.993   1.019 -3.7854 -1.6497 -1.7835
  973TIP3    H2 2926   3.076   4.055   0.903  1.8196  1.2222  2.8927
  974TIP3   OH2 2927   2.605   4.524   3.367  0.0491 -0.1846 -0.1980
  974TIP3    H1 2928   2.694   4.503   3.337 -0.2553  1.1195 -2.1959
  974TIP3    H2 2929   2.596   4.618   3.349 -0.7933  0.3438  2.5802
  975TIP3   OH2 2930   3.759   5.953   4.216 -0.3733 -0.8068  0.0023
  975TIP3    H1 2931   3.797   5.896   4.148  0.3067  0.3740 -0.6434
  975TIP3    H2 2932   3.817   6.029   4.218 -1.0754 -0.2787  1.0839
  976TIP3   OH2 2933   2.145   5.307   4.883 -0.6122  0.0489  0.6587
  976TIP3    H1 2934   2.159   5.383   4.939 -0.0821 -1.0622  2.0759
  976TIP3    H2 2935   2.061   5.271   4.911 -0.6097 -0.1985  0.3560
  977TIP3   OH2 2936   4.788   4.134   4.366  0.2862 -0.3104  0.0100
  977TIP3    H1 2937   4.765   4.041   4.375 -2.0071  0.2761  0.8991
  977TIP3    H2 2938   4.800   4.147   4.272 -1.3927 -1.1014 -0.3395
  978TIP3   OH2 2939   5.506   2.060   0.156 -0.1629  0.2237  0.5129
  978TIP3    H1 2940   5.556   2.140   0.171 -1.1551  0.7913  0.8745
  978TIP3    H2 2941   5.512   2.012   0.239  0.9414 -0.3982  0.1063
  979TIP3   OH2 2942   6.332   1.385   2.972  0.3947 -0.3598 -1.0006
  979TIP3    H1 2943   6.287   1.314   3.019  1.0772 -0.9825 -1.2596
  979TIP3    H2 2944   6.291   1.386   2.886  1.1371 -1.2208 -1.3872
  980TIP3   OH2 2945   5.645   1.116   2.343  0.6454 -0.5002 -0.8078
  980TIP3    H1 2946   5.702   1.189   2.319 -1.0241  1.1414 -0.0767
  980TIP3    H2 2947   5.619   1.078   2.259 -0.5753  1.5119 -1.4170
  981TIP3   OH2 2948   4.181   0.906   2.512 -0.4316  0.2918  0.0609
  981TIP3    H1 2949   4.142   0.820   2.498  0.0870  0.1393 -0.4893
  981TIP3    H2 2950   4.134   0.942   2.587 -1.8414  0.2457 -0.7769
  982TIP3   OH2 2951   5.662   4.000   0.433 -0.4221 -0.2589  0.9229
  982TIP3    H1 2952   5.603   4.038   0.368 -0.5324 -0.0162  1.1587
  982TIP3    H2 2953   5.749   4.025   0.404 -0.3960 -1.0189  0.3151
  983TIP3   OH2 2954   4.187   1.431   0.787  0.1740  0.2887 -0.2142
  983TIP3    H1 2955   4.194   1.485   0.865 -0.9787  0.9131 -0.5307
  983TIP3    H2 2956   4.152   1.347   0.819  0.8713  0.1053  0.1008
  984TIP3   OH2 2957   0.092   5.904   3.084  0.0170  0.0735 -0.0735
  984TIP3    H1 2958   0.151   5.880   3.013  0.3872  0.7944 -0.0074
  984TIP3    H2 2959   0.139   5.971   3.134  0.4010 -1.4282  1.7264
  985TIP3   OH2 2960   5.544   5.125   0.345 -0.2552  0.2230 -0.2167
  985TIP3    H1 2961   5.490   5.080   0.280  0.3860  0.2136 -0.7618
  985TIP3    H2 2962   5.615   5.063   0.364 -1.6049 -0.6891  2.1626
  986TIP3   OH2 2963   6.204   1.992   0.740  0.0698  0.2258  0.5458
  986TIP3    H1 2964   6.140   1.923   0.725 -0.2839  0.5468  0.5450
  986TIP3    H2 2965   6.153   2.063   0.780  0.0681  1.1543 -1.0176
  987TIP3   OH2 2966   5.364   1.290   2.831 -0.0073 -0.1972  0.5278
  987TIP3    H1 2967   5.340   1.372   2.872  1.5615  0.1251  0.8735
  987TIP3    H2 2968   5.285   1.236   2.834 -0.6586  0.7969  1.5271
  988TIP3   OH2 2969   3.984   4.830   0.637  0.1407  0.2622  0.2153
  988TIP3    H1 2970   3.889   4.824   0.639  0.1311 -1.1106 -1.5973
  988TIP3    H2 2971   4.012   4.750   0.592  2.0636  1.2544 -0.4611
  989TIP3   OH2 2972   0.659   3.960   1.940  0.3137 -0.4014  0.3314
  989TIP3    H1 2973   0.696   4.048   1.932  0.2422 -0.2613  1.3396
  989TIP3    H2 2974   0.734   3.901   1.929  0.1443 -0.2982 -1.7503
  990TIP3   OH2 2975   1.023   0.606   4.119 -0.3464 -0.0167 -0.4824
  990TIP3    H1 2976   1.086   0.575   4.053  0.4431 -0.1537  0.3242
  990TIP3    H2 2977   0.974   0.528   4.144  0.5396 -0.3123  0.3603
  991TIP3   OH2 2978   1.408   2.635   3.354 -0.4983 -0.0978 -0.0521
  991TIP3    H1 2979   1.428   2.720   3.314  1.1523 -0.3582  0.1575
  991TIP3    H2 2980   1.483   2.580   3.332 -0.8552 -1.0650  1.0626
  992TIP3   OH2 2981   2.177   1.155   1.609  0.1469  0.4119  0.1432
  992TIP3    H1 2982   2.122   1.206   1.549 -2.8981 -0.6166  1.8308
  992TIP3    H2 2983   2.149   1.183   1.696  1.8485 -0.7279  1.0996
  993TIP3   OH2 2984   1.835   2.410   0.659  0.0425  0.5045  0.1540
  993TIP3    H1 2985   1.859   2.359   0.581 -3.0137 -2.2584  0.8169
  993TIP3    H2 2986   1.903   2.388   0.723  1.4036  1.1381 -1.0008
  994TIP3   OH2 2987   6.331   4.300   4.083 -0.5285 -0.0616  0.3088
  994TIP3    H1 2988   6.307   4.392   4.083  0.5077  0.2250  0.8242
  994TIP3    H2 2989   6.249   4.253   4.095 -1.1860  0.7472 -0.8795
  995TIP3   OH2 2990   5.715   4.938   0.324 -0.1841  0.1955 -0.7248
  995TIP3    H1 2991   5.713   4.842   0.327 -0.1738  0.2100  0.0421
  995TIP3    H2 2992   5.775   4.958   0.253  0.4515 -0.3845 -0.3699
  996TIP3   OH2 2993   6.246   1.098   4.310  0.0183  0.0670  0.4124
  996TIP3    H1 2994   6.318   1.035   4.303  1.8513  1.9348  1.2567
  996TIP3    H2 2995   6.225   1.100   4.403 -1.2295 -0.4977  0.1693
  997TIP3   OH2 2996   5.186   2.317   1.688  0.1022  0.3408  0.1276
  997TIP3    H1 2997   5.261   2.356   1.644  0.3273  0.1853  0.3747
  997TIP3    H2 2998   5.172   2.234   1.643  0.4431  0.0989  0.4595
  998TIP3   OH2 2999   5.499   1.819   3.894  0.1188 -0.0411 -0.2181
  998TIP3    H1 3000   5.535   1.867   3.969  0.3259  0.6237 -0.7298
  998TIP3    H2 3001   5.487   1.730   3.926  3.0111 -0.5509 -0.2326
  999TIP3   OH2 3002   2.444   2.571   1.281  0.3935 -0.1970  0.0969
  999TIP3    H1 3003   2.515   2.548   1.223  1.0909  0.4457  0.6741
  999TIP3    H2 3004   2.417   2.488   1.320  0.5462 -0.4976 -0.4316
 1000TIP3   OH2 3005   4.394   2.947   3.991  0.7613 -0.0740  0.1413
 1000TIP3    H1 3006   4.408   2.876   3.928 -0.6080 -1.6364  1.4833
 1000TIP3    H2 3007   4.348   3.015   3.941 -0.1479 -1.1990 -0.6123
 1001TIP3   OH2 3008   5.503   1.769   3.457  0.4018 -0.2273 -0.4511
 1001TIP3    H1 3009   5.562   1.698   3.431  0.2229 -1.3310  1.9693
 1001TIP3    H2 3010   5.462   1.739   3.538 -0.4682  2.2250  0.1039
 1002TIP3   OH2 3011   1.565   4.755   3.290 -0.0202 -0.2776  0.7123
 1002TIP3    H1 3012   1.575   4.681   3.350  1.0457  0.9993  2.1970
 1002TIP3    H2 3013   1.641   4.748   3.231  0.1746 -0.2740  0.9607
 1003TIP3   OH2 3014   4.176   3.747   4.362  0.4517 -0.9272 -0.1349
 1003TIP3    H1 3015   4.140   3.833   4.382  0.0700 -1.4269  1.5516
 1003TIP3    H2 3016   4.099   3.694   4.340  0.5194 -1.1700  0.2019
 1004TIP3   OH2 3017   1.839   1.927   3.871 -0.3292  0.0619 -0.1111
 1004TIP3    H1 3018   1.893   1.963   3.800  0.9492 -1.0827  0.2445
 1004TIP3    H2 3019   1.754   1.970   3.861  0.5125  1.6012 -0.9565
 1005TIP3   OH2 3020   5.766   5.605   0.313  0.4128 -0.0368  0.2571
 1005TIP3    H1 3021   5.753   5.589   0.220 -0.8024  0.9864  0.2246
 1005TIP3    H2 3022   5.744   5.522   0.355  1.1627 -0.5645 -0.3685
 1006TIP3   OH2 3023   2.714   1.721   0.912  0.8547  0.4460  0.1011
 1006TIP3    H1 3024   2.699   1.816   0.912 -2.8717  0.0001  0.6477
 1006TIP3    H2 3025   2.725   1.698   0.820 -0.2190  1.1824 -0.2289
 1007TIP3   OH2 3026   0.156   4.529   1.045 -0.8530  0.0398 -0.5783
 1007TIP3    H1 3027   0.187   4.614   1.076 -1.4220  0.1249 -0.2112
 1007TIP3    H2 3028   0.233   4.472   1.049 -0.2387  0.7563 -1.7157
 1008TIP3   OH2 3029   3.650   4.707   2.458 -0.4920 -0.1427  0.3361
 1008TIP3    H1 3030   3.611   4.671   2.538 -0.8001  0.8045  0.6249
 1008TIP3    H2 3031   3.640   4.801   2.467  1.0581  0.0767 -0.0149
 1009TIP3   OH2 3032   4.750   0.963   0.651  0.6174  0.3388 -0.1819
 1009TIP3    H1 3033   4.699   0.882   0.657  1.4460 -0.2445 -0.6802
 1009TIP3    H2 3034   4.782   0.964   0.560  1.0473  0.9566 -0.0306
 1010TIP3   OH2 3035   3.840   4.502   2.750  0.2992 -0.0254 -0.0585
 1010TIP3    H1 3036   3.860   4.596   2.750 -0.2930  0.1277  1.2421
 1010TIP3    H2 3037   3.751   4.496   2.715  0.5725 -0.1658 -0.7312
 1011TIP3   OH2 3038   5.545   0.213   0.671 -0.1589 -0.0283  0.4932
 1011TIP3    H1 3039   5.463   0.254   0.699  0.3223  0.4623  1.2286
 1011TIP3    H2 3040   5.523   0.121   0.658 -0.9888  0.2371 -0.0370
 1012TIP3   OH2 3041   4.574   5.687   0.979  0.4505 -0.6643 -0.1677
 1012TIP3    H1 3042   4.535   5.632   0.910  0.7372 -1.2203  0.1060
 1012TIP3    H2 3043   4.604   5.765   0.932 -2.2256  0.4531 -0.1862
 1013TIP3   OH2 3044   1.079   5.823   3.499 -0.2205  0.1830  0.8258
 1013TIP3    H1 3045   0.996   5.809   3.545  1.2153 -1.3246  3.2067
 1013TIP3    H2 3046   1.089   5.746   3.444 -1.5173  1.5793 -1.5480
 1014TIP3   OH2 3047   5.286   4.130   2.422  0.3102 -0.0309  0.0605
 1014TIP3    H1 3048   5.232   4.122   2.500  0.6177 -0.2547  0.2531
 1014TIP3    H2 3049   5.279   4.045   2.379 -0.6183  0.3954 -0.6613
 1015TIP3   OH2 3050   3.407   3.797   2.889  0.3996 -0.1920 -0.2370
 1015TIP3    H1 3051   3.428   3.712   2.851 -0.8802 -0.8370  0.4258
 1015TIP3    H2 3052   3.478   3.813   2.952 -0.0345 -1.4230  0.6058
 1016TIP3   OH2 3053   0.110   1.280   3.941  0.4717  0.4741  0.7132
 1016TIP3    H1 3054   0.082   1.305   3.852 -0.6187 -0.4262  0.7787
 1016TIP3    H2 3055   0.029   1.276   3.991  0.4735 -3.3495  0.6473
 1017TIP3   OH2 3056   4.966   0.606   2.189 -0.0085  0.6700  0.2468
 1017TIP3    H1 3057   4.997   0.631   2.102  1.4043 -0.1717  0.4785
 1017TIP3    H2 3058   5.045   0.601   2.243 -0.6183 -0.8478  1.0637
 1018TIP3   OH2 3059   5.410   5.247   1.886 -0.2186 -0.7421 -0.2428
 1018TIP3    H1 3060   5.330   5.205   1.854 -0.6473 -0.2911  0.2233
 1018TIP3    H2 3061   5.466   5.174   1.913 -0.3401 -1.0736 -0.8677
 1019TIP3   OH2 3062   2.572   0.592   4.577  0.3958  0.4936 -0.2070
 1019TIP3    H1 3063   2.548   0.542   4.499  1.3981  1.1887 -0.9872
 1019TIP3    H2 3064   2.664   0.573   4.591 -0.2248 -1.3001  2.1204
 1020TIP3   OH2 3065   2.117   0.018   4.737  0.1087  0.0209  0.0507
 1020TIP3    H1 3066   2.109   0.111   4.760 -2.0247 -0.0062 -0.3652
 1020TIP3    H2 3067   2.078   0.012   4.649 -2.3040 -1.6284  1.1173
 1021TIP3   OH2 3068   3.343   4.753   4.274 -0.3405 -0.5232  0.3594
 1021TIP3    H1 3069   3.305   4.673   4.240 -0.6479 -0.7785  1.2688
 1021TIP3    H2 3070   3.363   4.733   4.366 -0.7561  0.5509  0.7021
 1022TIP3   OH2 3071   1.293   1.308   4.512  0.0891  0.0148 -0.6793
 1022TIP3    H1 3072   1.202   1.285   4.493 -0.4712  0.8029  0.8715
 1022TIP3    H2 3073   1.339   1.292   4.430 -1.2823 -1.1985 -1.2714
 1023TIP3   OH2 3074   4.973   0.930   3.965 -0.0420 -0.1614  0.3321
 1023TIP3    H1 3075   5.030   0.919   3.889 -2.1484 -0.4633 -1.3148
 1023TIP3    H2 3076   4.990   1.019   3.995  0.9991 -0.1177 -0.3515
 1024TIP3   OH2 3077   2.872   1.105   1.036  0.0978 -0.1483  0.4484
 1024TIP3    H1 3078   2.827   1.129   1.117  0.1711 -1.0518  0.7602
 1024TIP3    H2 3079   2.816   1.141   0.967  1.0397  2.3843  0.9082
 1025TIP3   OH2 3080   2.642   0.855   2.841  0.9461 -0.0494 -0.5678
 1025TIP3    H1 3081   2.601   0.941   2.827  1.4801 -0.0570 -2.4000
 1025TIP3    H2 3082   2.733   0.876   2.863  0.5786 -0.1144  1.1913
 1026TIP3   OH2 3083   3.563   4.751   2.143  0.0029  0.2858 -0.0474
 1026TIP3    H1 3084   3.523   4.775   2.059 -2.1480  0.5017  0.9691
 1026TIP3    H2 3085   3.582   4.835   2.184  0.1710  0.1884  0.0702
 1027TIP3   OH2 3086   0.620   3.015   2.456  0.0182 -0.0279 -0.0060
 1027TIP3    H1 3087   0.632   2.928   2.420  0.1216  0.3418 -0.8802
 1027TIP3    H2 3088   0.525   3.023   2.468  0.1527 -1.7592  3.9424
 1028TIP3   OH2 3089   5.913   5.825   0.355 -0.3852 -0.3310 -0.2099
 1028TIP3    H1 3090   5.938   5.802   0.444 -0.3210 -0.3484 -0.2320
 1028TIP3    H2 3091   5.835   5.772   0.336  0.3576 -1.3145 -0.6266
 1029TIP3   OH2 3092   0.595   0.557   1.645  0.3616  0.0867  0.4710
 1029TIP3    H1 3093   0.537   0.482   1.658  0.2045  0.3053  1.0625
 1029TIP3    H2 3094   0.662   0.525   1.584 -0.7087  0.0131 -0.7112
 1030TIP3   OH2 3095   3.684   4.094   3.497  0.3386 -0.2928 -0.2060
 1030TIP3    H1 3096   3.620   4.166   3.493 -1.5772 -1.9384 -1.2694
 1030TIP3    H2 3097   3.728   4.097   3.412  1.0536  0.2746  0.1747
 1031TIP3   OH2 3098   2.037   2.357   0.087 -0.1808 -0.0754  0.1299
 1031TIP3    H1 3099   1.976   2.424   0.119  0.9683  1.5761 -1.0013
 1031TIP3    H2 3100   1.984   2.301   0.032 -0.9383  0.6000  0.1497
 1032TIP3   OH2 3101   1.231   3.541   3.873 -0.1306  0.2710  0.0545
 1032TIP3    H1 3102   1.185   3.457   3.863 -0.2554  0.3964 -0.4614
 1032TIP3    H2 3103   1.232   3.557   3.967  0.8276 -0.8358  0.2562
 1033TIP3   OH2 3104   1.122   2.022   1.643  0.4676 -0.4400  0.1291
 1033TIP3    H1 3105   1.173   2.011   1.723  0.1207  0.7822  0.5420
 1033TIP3    H2 3106   1.078   1.938   1.630  1.7063 -1.1533  0.3682
 1034TIP3   OH2 3107   2.112   3.637   3.010  0.4019 -0.1546  0.1357
 1034TIP3    H1 3108   2.074   3.655   2.924 -0.5616 -1.3682  0.2786
 1034TIP3    H2 3109   2.180   3.571   2.993 -1.0875 -1.8596  0.4943
 1035TIP3   OH2 3110   2.965   4.092   1.783 -0.0433  0.0975 -0.4327
 1035TIP3    H1 3111   3.017   4.025   1.738  0.1324 -0.4406  0.5502
 1035TIP3    H2 3112   2.993   4.175   1.744 -0.5312 -0.4144 -1.9361
 1036TIP3   OH2 3113   3.307   5.490   4.768  0.6853  0.5740  0.5556
 1036TIP3    H1 3114   3.290   5.402   4.735 -1.3362  0.8193  0.8008
 1036TIP3    H2 3115   3.336   5.477   4.858  1.1401  0.1316  0.3449
 1037TIP3   OH2 3116   3.369   1.860   1.481 -0.3635 -1.2456  0.1779
 1037TIP3    H1 3117   3.445   1.912   1.507 -2.2401  2.6355 -1.3925
 1037TIP3    H2 3118   3.405   1.795   1.420  2.0333 -1.7104  1.9079
 1038TIP3   OH2 3119   6.025   2.137   4.770  0.5452 -0.4437 -0.7290
 1038TIP3    H1 3120   6.026   2.231   4.791  2.2841 -0.8171  1.2383
 1038TIP3    H2 3121   5.944   2.105   4.808  1.0020 -0.0880  0.6141
 1039TIP3   OH2 3122   2.364   4.585   4.819  0.1927  0.7424  0.3520
 1039TIP3    H1 3123   2.419   4.607   4.743 -1.6753  1.9660 -0.7306
 1039TIP3    H2 3124   2.351   4.490   4.812 -2.0657  1.1171 -2.5040
 1040TIP3   OH2 3125   5.104   3.590   1.883  0.3850 -0.2236  0.1218
 1040TIP3    H1 3126   5.100   3.519   1.947 -1.8541  1.1667  1.6538
 1040TIP3    H2 3127   5.067   3.552   1.803  0.0241 -1.0465  0.6630
 1041TIP3   OH2 3128   5.593   3.392   1.144 -0.0409 -0.5549 -0.3610
 1041TIP3    H1 3129   5.593   3.355   1.233  0.1421  0.6837  0.1683
 1041TIP3    H2 3130   5.521   3.347   1.100  0.1648 -1.5305  0.2627
 1042TIP3   OH2 3131   6.209   5.621   4.781  0.4799 -0.8855  0.5222
 1042TIP3    H1 3132   6.177   5.591   4.866  0.6284  0.9776  1.2724
 1042TIP3    H2 3133   6.130   5.645   4.732  0.5065  0.5850  1.1564
 1043TIP3   OH2 3134   5.466   2.698   1.915 -0.2985 -0.1860  0.2875
 1043TIP3    H1 3135   5.456   2.776   1.861 -0.2938  0.0150  0.5742
 1043TIP3    H2 3136   5.535   2.722   1.978  0.1306 -0.6293 -0.0047
 1044TIP3   OH2 3137   4.739   1.213   0.462  0.8583 -0.5169 -0.4573
 1044TIP3    H1 3138   4.649   1.220   0.432  1.0564 -2.0220 -1.4812
 1044TIP3    H2 3139   4.785   1.283   0.415 -0.0286  1.4540  1.3999
 1045TIP3   OH2 3140   2.005   0.345   2.327  0.4743 -0.2658  0.2833
 1045TIP3    H1 3141   1.952   0.423   2.340 -1.5472 -1.5718  0.3392
 1045TIP3    H2 3142   1.967   0.302   2.250  1.5375 -1.1895  0.2477
 1046TIP3   OH2 3143   0.930   4.673   4.254  0.0401  0.1504  0.0958
 1046TIP3    H1 3144   0.916   4.630   4.338 -2.7612 -0.0986 -0.3797
 1046TIP3    H2 3145   0.935   4.766   4.274  0.4248  0.0148  0.6298
 1047TIP3   OH2 3146   5.240   0.597   1.776  0.3065 -0.4176 -0.3341
 1047TIP3    H1 3147   5.247   0.522   1.835 -1.9628 -1.5888 -1.4149
 1047TIP3    H2 3148   5.245   0.558   1.688 -1.6112  0.5691 -0.9240
 1048TIP3   OH2 3149   2.972   3.547   4.768  0.8280  0.9167  0.1686
 1048TIP3    H1 3150   3.042   3.519   4.709  1.0146  2.6643 -0.4787
 1048TIP3    H2 3151   2.891   3.523   4.723  0.9832  1.4052 -0.3763
 1049TIP3   OH2 3152   6.014   0.202   3.515  0.0491 -0.0447  0.1035
 1049TIP3    H1 3153   5.993   0.111   3.494  0.5132  0.1137 -1.1146
 1049TIP3    H2 3154   5.991   0.251   3.436 -1.3325  1.0887  1.1551
 1050TIP3   OH2 3155   4.811   2.631   3.721  0.0735  0.1899 -0.4951
 1050TIP3    H1 3156   4.861   2.637   3.802 -0.1930 -3.0211  0.0577
 1050TIP3    H2 3157   4.723   2.660   3.744  0.6671  1.9880 -0.4146
 1051TIP3   OH2 3158   5.494   2.443   1.366 -0.1847  0.4285  0.8479
 1051TIP3    H1 3159   5.441   2.363   1.359  1.6003 -0.8312  1.0179
 1051TIP3    H2 3160   5.507   2.455   1.460 -1.2164  1.5022  0.8828
 1052TIP3   OH2 3161   0.176   0.167   4.290  0.2341 -0.6889 -0.3193
 1052TIP3    H1 3162   0.107   0.233   4.286  1.1165  0.2311 -1.6121
 1052TIP3    H2 3163   0.245   0.207   4.344  0.8820 -0.3951 -1.3238
 1053TIP3   OH2 3164   3.908   1.848   4.365 -0.3580  0.7646 -0.4007
 1053TIP3    H1 3165   3.859   1.795   4.303 -0.0747  1.6421 -1.4193
 1053TIP3    H2 3166   3.939   1.923   4.313 -0.5093  1.7789  0.9115
 1054TIP3   OH2 3167   3.444   1.373   5.013  0.5798 -0.7174  0.2625
 1054TIP3    H1 3168   3.502   1.298   4.999  1.3604 -1.0519  4.1969
 1054TIP3    H2 3169   3.503   1.447   5.028 -0.1738  0.1688 -0.9030
 1055TIP3   OH2 3170   4.978   4.593   0.548 -0.0019  0.1195  0.6716
 1055TIP3    H1 3171   5.015   4.635   0.626  0.4040  0.3936  0.3364
 1055TIP3    H2 3172   4.995   4.655   0.478 -1.0171  0.2031  0.4886
 1056TIP3   OH2 3173   5.671   2.959   4.093  0.4443 -0.0453 -0.0201
 1056TIP3    H1 3174   5.757   2.920   4.081  1.3006  2.0432 -1.1520
 1056TIP3    H2 3175   5.683   3.023   4.164 -0.6133 -0.8772  0.9552
 1057TIP3   OH2 3176   4.694   2.428   0.728  0.7545 -0.6689  0.1961
 1057TIP3    H1 3177   4.744   2.427   0.810  3.9618  0.8435 -1.5530
 1057TIP3    H2 3178   4.704   2.340   0.692  3.1754 -0.1669 -0.5573
 1058TIP3   OH2 3179   4.552   4.305   3.594  0.5702  0.6141  0.0986
 1058TIP3    H1 3180   4.463   4.337   3.608  0.1076 -0.8289  0.5938
 1058TIP3    H2 3181   4.552   4.270   3.506  1.1150  2.0056 -0.4912
 1059TIP3   OH2 3182   4.084   5.349   2.020 -0.4177  0.0034 -0.1309
 1059TIP3    H1 3183   4.178   5.356   2.035 -0.3743  0.5630 -0.6148
 1059TIP3    H2 3184   4.066   5.414   1.952 -1.6206  1.9424  1.9145
 1060TIP3   OH2 3185   2.981   2.644   3.661 -0.8392 -0.1100  0.0084
 1060TIP3    H1 3186   2.900   2.610   3.623 -0.0242 -0.1185 -1.8379
 1060TIP3    H2 3187   3.012   2.709   3.597  0.7063 -0.2506  0.5676
 1061TIP3   OH2 3188   6.142   4.792   4.837 -0.4011  0.0005  0.1117
 1061TIP3    H1 3189   6.088   4.862   4.875 -0.0467  0.7512 -0.7222
 1061TIP3    H2 3190   6.171   4.828   4.753  1.6690 -0.2507  0.6713
 1062TIP3   OH2 3191   4.517   3.003   0.835  0.6228  0.7331  0.7342
 1062TIP3    H1 3192   4.555   2.982   0.921 -0.1044 -0.3335  0.8066
 1062TIP3    H2 3193   4.503   3.098   0.838  1.2055  0.8093  1.5404
 1063TIP3   OH2 3194   3.941   1.278   3.971 -0.1839 -0.3289  0.0596
 1063TIP3    H1 3195   4.020   1.318   3.935  0.3932 -1.4772 -0.0152
 1063TIP3    H2 3196   3.966   1.252   4.060 -0.4981 -0.6458  0.0552
 1064TIP3   OH2 3197   2.861   3.776   5.160  0.1209 -0.4253 -0.4409
 1064TIP3    H1 3198   2.767   3.792   5.171  0.3895 -0.4421  2.4440
 1064TIP3    H2 3199   2.868   3.682   5.147 -0.1415 -0.8775  2.1982
 1065TIP3   OH2 3200   5.396   1.702   2.190  0.0167  0.1938  0.2459
 1065TIP3    H1 3201   5.321   1.734   2.240 -1.8087 -0.7556 -1.7076
 1065TIP3    H2 3202   5.398   1.608   2.207  0.9462  0.2497  0.4911
 1066TIP3   OH2 3203   1.706   4.349   3.624 -1.0433 -0.6467  0.5463
 1066TIP3    H1 3204   1.640   4.326   3.558  1.2510  0.2034 -2.2595
 1066TIP3    H2 3205   1.718   4.444   3.614  2.7116 -1.1545 -1.3451
 1067TIP3   OH2 3206   1.105   3.004   2.690  0.1984 -0.9724 -0.7103
 1067TIP3    H1 3207   1.020   2.989   2.648 -0.8672  1.3466  0.4030
 1067TIP3    H2 3208   1.083   3.049   2.772  2.5957  1.8744 -1.4680
 1068TIP3   OH2 3209   0.022   2.704   0.441  0.0701  0.1574  0.9293
 1068TIP3    H1 3210  -0.066   2.685   0.474  0.0807 -0.1025  0.8041
 1068TIP3    H2 3211   0.075   2.711   0.521  0.1059 -0.5267  0.9667
 1069TIP3   OH2 3212   2.770   3.437   2.396  0.8218  0.1483 -0.0711
 1069TIP3    H1 3213   2.774   3.352   2.439 -0.0990  0.9404  1.6451
 1069TIP3    H2 3214   2.724   3.494   2.457  0.3232  1.5908 -1.6943
 1070TIP3   OH2 3215   4.799   4.270   1.002 -0.0917 -0.1535 -0.4298
 1070TIP3    H1 3216   4.893   4.265   1.019  0.0671  1.2554 -0.7325
 1070TIP3    H2 3217   4.764   4.318   1.077 -0.5051 -0.3414 -0.5025
 1071TIP3   OH2 3218   0.931   3.018   4.339  0.2235 -0.2265  0.5521
 1071TIP3    H1 3219   0.946   3.113   4.344 -0.0927 -0.1580  0.2623
 1071TIP3    H2 3220   0.949   2.987   4.427  1.3196 -0.0493  0.4063
 1072TIP3   OH2 3221   5.279   3.839   0.701 -0.4063 -0.0153  0.4402
 1072TIP3    H1 3222   5.347   3.857   0.637 -1.4403 -0.8753 -0.9381
 1072TIP3    H2 3223   5.237   3.924   0.715  0.0007  0.2278  0.2177
 1073TIP3   OH2 3224   2.443   4.633   0.708  0.3807 -0.2032 -0.3728
 1073TIP3    H1 3225   2.371   4.648   0.770  0.8744 -1.5028  0.5688
 1073TIP3    H2 3226   2.400   4.631   0.623 -0.6646 -0.6021  0.1378
 1074TIP3   OH2 3227   1.395   3.594   0.630  0.1598 -0.2159  0.2979
 1074TIP3    H1 3228   1.305   3.612   0.656  0.3601  1.0703  0.1924
 1074TIP3    H2 3229   1.400   3.499   0.624 -2.1800 -0.2963 -3.1939
 1075TIP3   OH2 3230   1.633   5.544   4.593  0.0031 -0.4067 -0.0015
 1075TIP3    H1 3231   1.662   5.633   4.612  0.6633 -0.7962  0.8771
 1075TIP3    H2 3232   1.540   5.544   4.616  0.0665 -0.0209  0.2622
 1076TIP3   OH2 3233   0.648   2.068   3.834 -0.4005  0.4696 -0.2886
 1076TIP3    H1 3234   0.647   2.113   3.918 -0.7360  0.5880 -0.3557
 1076TIP3    H2 3235   0.740   2.046   3.820 -0.4089  0.0263  0.3284
 1077TIP3   OH2 3236   0.729   0.310   2.347  0.4271  0.0295  0.4814
 1077TIP3    H1 3237   0.777   0.313   2.430  0.9290  0.7506  0.1736
 1077TIP3    H2 3238   0.741   0.397   2.309 -0.0598 -0.1924 -0.2057
 1078TIP3   OH2 3239   4.037   1.146   2.223  0.4014  0.3713  0.6247
 1078TIP3    H1 3240   4.095   1.073   2.202 -1.1647 -0.5806 -0.5698
 1078TIP3    H2 3241   4.069   1.219   2.169 -0.1902 -0.4854 -0.9495
 1079TIP3   OH2 3242   0.809   3.445   4.497  0.1468  0.0740 -0.4413
 1079TIP3    H1 3243   0.771   3.533   4.497  0.3834  0.1807 -1.2128
 1079TIP3    H2 3244   0.744   3.391   4.541  0.6601  0.9108  1.4622
 1080TIP3   OH2 3245   5.799   4.156   1.735  0.9916  0.4028  0.2343
 1080TIP3    H1 3246   5.769   4.093   1.670  0.6594  0.6106  0.1809
 1080TIP3    H2 3247   5.885   4.123   1.763  1.7638  1.0417 -1.2858
 1081TIP3   OH2 3248   0.770   0.664   2.240  0.1252 -0.0392 -0.9170
 1081TIP3    H1 3249   0.798   0.608   2.167  0.3002 -0.8708 -0.2173
 1081TIP3    H2 3250   0.816   0.747   2.225  0.8631 -0.5033 -1.2518
 1082TIP3   OH2 3251   0.707   2.593   4.465 -0.2898 -0.5628 -0.0367
 1082TIP3    H1 3252   0.747   2.543   4.394 -0.1286  0.7397 -0.8914
 1082TIP3    H2 3253   0.614   2.573   4.458 -0.7885  1.9710 -2.7426
 1083TIP3   OH2 3254   1.010   3.959   2.778 -0.2751 -0.4128 -0.3040
 1083TIP3    H1 3255   0.980   3.973   2.868 -1.4973 -0.5969 -0.6708
 1083TIP3    H2 3256   1.063   3.880   2.783 -1.6893 -1.3844 -0.0066
 1084TIP3   OH2 3257   4.374   5.780   2.865 -0.1570 -0.3949 -0.7224
 1084TIP3    H1 3258   4.292   5.829   2.864  1.4328  2.5079 -0.0382
 1084TIP3    H2 3259   4.402   5.777   2.774  0.0914  0.7101 -0.6947
 1085TIP3   OH2 3260   1.775   0.264   0.340 -0.0585  0.6542  0.0884
 1085TIP3    H1 3261   1.816   0.222   0.264  0.9473  0.3142  0.8042
 1085TIP3    H2 3262   1.777   0.358   0.320  2.0292  0.7386  0.5447
 1086TIP3   OH2 3263   3.958   4.884   2.568 -0.5373 -0.5199  0.3974
 1086TIP3    H1 3264   4.001   4.828   2.503  0.5306 -0.5319  1.0934
 1086TIP3    H2 3265   3.903   4.943   2.517  0.2101 -0.5938 -0.5051
 1087TIP3   OH2 3266   2.207   1.789   4.896  0.3651 -0.2118  0.1847
 1087TIP3    H1 3267   2.181   1.711   4.945 -0.0631 -0.5083 -0.5083
 1087TIP3    H2 3268   2.269   1.833   4.954 -1.3862  0.3476  1.7354
 1088TIP3   OH2 3269   0.962   5.151   1.305  0.0507  0.4509  0.2807
 1088TIP3    H1 3270   0.889   5.135   1.245  0.9921 -0.0559 -0.7673
 1088TIP3    H2 3271   0.973   5.246   1.304 -0.0687  0.4650 -0.1936
 1089TIP3   OH2 3272   4.229   5.185   0.578  0.5642 -0.6559  0.0353
 1089TIP3    H1 3273   4.253   5.092   0.585  0.0124 -0.9544 -1.6871
 1089TIP3    H2 3274   4.312   5.230   0.562  0.6345 -1.0674 -0.7991
 1090TIP3   OH2 3275   0.476   4.474   3.200  0.1559  0.3277 -0.4200
 1090TIP3    H1 3276   0.446   4.562   3.223 -1.7926 -0.5470  0.5680
 1090TIP3    H2 3277   0.572   4.482   3.198  0.1574  1.9131  2.0323
 1091TIP3   OH2 3278   0.842   1.453   1.082  0.1955 -0.0717 -0.0736
 1091TIP3    H1 3279   0.859   1.540   1.118  0.8571  0.0115 -0.5748
 1091TIP3    H2 3280   0.901   1.446   1.007  1.8837 -1.8596  1.3313
 1092TIP3   OH2 3281   2.310   5.980   2.947 -0.3338  0.1430  0.8521
 1092TIP3    H1 3282   2.405   5.991   2.956 -0.3723 -0.3349  1.9900
 1092TIP3    H2 3283   2.299   5.935   2.863  0.4295  0.4300  0.5917
 1093TIP3   OH2 3284   0.481   5.304   2.058 -0.6335  0.2072 -0.1305
 1093TIP3    H1 3285   0.419   5.259   2.115  0.4521 -1.4485 -0.1929
 1093TIP3    H2 3286   0.541   5.235   2.029  1.6171  1.8487  0.4250
 1094TIP3   OH2 3287   5.107   4.776   0.701  0.0898  0.0284  0.2384
 1094TIP3    H1 3288   5.192   4.819   0.711 -0.4715  1.9413 -2.1849
 1094TIP3    H2 3289   5.065   4.786   0.786  2.2021 -0.8864  1.4602
 1095TIP3   OH2 3290   5.023   1.420   5.088 -0.4241  0.2865  0.4637
 1095TIP3    H1 3291   5.026   1.343   5.144  1.6735 -0.2949 -0.3785
 1095TIP3    H2 3292   4.957   1.477   5.130 -2.5949 -2.2069  0.6832
 1096TIP3   OH2 3293   5.918   1.065   1.243 -0.8095 -0.1866  0.3383
 1096TIP3    H1 3294   5.884   0.996   1.186  2.6643 -0.8054 -1.2027
 1096TIP3    H2 3295   5.888   1.039   1.331 -2.6571 -1.5855 -0.6275
 1097TIP3   OH2 3296   2.761   5.015   2.467  0.3375  0.0130 -0.8969
 1097TIP3    H1 3297   2.747   4.938   2.522 -0.6618  0.6188 -0.2726
 1097TIP3    H2 3298   2.676   5.033   2.428  0.7790  0.2704 -1.7684
 1098TIP3   OH2 3299   2.316   2.585   2.711 -0.9470 -0.2054  0.4783
 1098TIP3    H1 3300   2.247   2.533   2.753 -0.1236  0.2485  2.5359
 1098TIP3    H2 3301   2.387   2.586   2.776  0.3245  0.7729 -0.8679
 1099TIP3   OH2 3302   5.317   5.589   4.213  0.6327  0.4646  0.3169
 1099TIP3    H1 3303   5.289   5.681   4.214  0.1875  0.3288  1.1094
 1099TIP3    H2 3304   5.275   5.550   4.290  1.8299 -0.1022  0.7113
 1100TIP3   OH2 3305   1.694   4.942   2.849 -0.0003 -0.8774 -0.1055
 1100TIP3    H1 3306   1.650   4.893   2.780 -0.8577 -0.2423 -0.0193
 1100TIP3    H2 3307   1.629   4.948   2.919  1.2708 -2.6845  1.3533
 1101TIP3   OH2 3308   1.100   5.791   1.287  0.1636 -0.2609  0.0275
 1101TIP3    H1 3309   1.074   5.792   1.195 -1.4515  2.2121  0.4201
 1101TIP3    H2 3310   1.185   5.834   1.289 -0.1172  0.3194 -0.2614
 1102TIP3   OH2 3311   2.624   0.178   0.932  0.5700  0.2433 -0.3856
 1102TIP3    H1 3312   2.608   0.087   0.908  0.0389  0.1116  0.4336
 1102TIP3    H2 3313   2.704   0.202   0.885  1.8814 -1.2878  0.9779
 1103TIP3   OH2 3314   4.939   5.549   3.651 -0.7867 -0.0763 -1.3645
 1103TIP3    H1 3315   4.876   5.484   3.620 -1.6376  0.3611 -0.5936
 1103TIP3    H2 3316   4.901   5.584   3.732  0.9702 -0.5757 -0.2715
 1104TIP3   OH2 3317   5.100   0.359   3.881 -1.0304 -0.0595 -0.0920
 1104TIP3    H1 3318   5.054   0.417   3.942  0.7024  0.9042  0.3572
 1104TIP3    H2 3319   5.067   0.271   3.903  0.1875  0.1012  2.9432
 1105TIP3   OH2 3320   5.768   2.472   0.899 -0.8045  0.5217 -0.0105
 1105TIP3    H1 3321   5.684   2.500   0.862 -0.1295  1.0432 -1.2236
 1105TIP3    H2 3322   5.754   2.470   0.993 -1.9550  1.3521 -0.1459
 1106TIP3   OH2 3323   1.673   2.807   1.335  0.7379  0.3142  0.0485
 1106TIP3    H1 3324   1.700   2.759   1.413  0.3807  1.5372  0.9657
 1106TIP3    H2 3325   1.689   2.747   1.262  2.7423 -0.2179  0.8722
 1107TIP3   OH2 3326   2.586   2.151   1.965  0.0809 -0.0037 -0.4630
 1107TIP3    H1 3327   2.645   2.098   2.018 -0.4229 -1.0656 -0.9297
 1107TIP3    H2 3328   2.619   2.240   1.974  1.5083 -0.5205 -0.4037
 1108TIP3   OH2 3329   3.889   4.657   2.338  0.6469  0.0428 -0.2246
 1108TIP3    H1 3330   3.857   4.597   2.271  0.5059  1.3589 -1.3753
 1108TIP3    H2 3331   3.811   4.686   2.385  0.7171 -0.6736  0.3430
 1109TIP3   OH2 3332   5.653   2.923   1.050 -0.2358  0.1553  0.1660
 1109TIP3    H1 3333   5.616   2.841   1.083 -0.3145  0.4037  0.7018
 1109TIP3    H2 3334   5.600   2.945   0.974 -1.2805  0.5739  0.9988
 1110TIP3   OH2 3335   5.389   4.399   4.693  0.0208 -0.2926  0.0891
 1110TIP3    H1 3336   5.344   4.481   4.712 -0.5446  0.0950 -2.5233
 1110TIP3    H2 3337   5.481   4.416   4.714 -0.2620  0.6191  0.6410
 1111TIP3   OH2 3338   4.479   2.137   0.922 -0.1720  0.4778 -0.0292
 1111TIP3    H1 3339   4.538   2.062   0.917  0.1158  0.7890 -1.7394
 1111TIP3    H2 3340   4.394   2.102   0.896 -0.5863  0.2493  1.4975
 1112TIP3   OH2 3341   1.785   4.184   3.250  0.2143  0.5428  0.1515
 1112TIP3    H1 3342   1.877   4.190   3.225  0.4626 -2.1260  0.1786
 1112TIP3    H2 3343   1.738   4.224   3.177  1.2645 -1.1684 -1.5608
 1113TIP3   OH2 3344   4.400   3.175   2.080 -0.2409  0.2076  0.0014
 1113TIP3    H1 3345   4.420   3.247   2.020 -1.4771  0.4648 -0.1148
 1113TIP3    H2 3346   4.470   3.180   2.146  1.3109 -0.2666 -1.5397
 1114TIP3   OH2 3347   2.288   4.474   0.071  0.0998 -0.6396 -0.1512
 1114TIP3    H1 3348   2.212   4.431   0.110 -1.5504  0.8319 -1.6157
 1114TIP3    H2 3349   2.269   4.476  -0.023  0.7342  2.0127 -0.2870
 1115TIP3   OH2 3350   5.447   3.003   4.473 -0.0585 -0.5504  0.0689
 1115TIP3    H1 3351   5.373   2.944   4.484 -2.7961  1.9960 -2.5979
 1115TIP3    H2 3352   5.451   3.019   4.378  0.6237  3.2126  0.5581
 1116TIP3   OH2 3353   3.028   2.759   2.131  0.1896 -0.1855 -0.2249
 1116TIP3    H1 3354   3.022   2.671   2.169  0.5546  0.4844  1.4730
 1116TIP3    H2 3355   3.017   2.818   2.205 -0.2905  1.2217 -1.3754
 1117TIP3   OH2 3356   1.395   1.059   2.427 -0.1386 -0.4006 -0.1593
 1117TIP3    H1 3357   1.476   1.052   2.377 -1.1778  1.2709 -2.2702
 1117TIP3    H2 3358   1.403   1.142   2.475 -1.2317  0.6812 -1.7555
 1118TIP3   OH2 3359   1.251   3.138   3.613 -0.2740  0.3243  0.3862
 1118TIP3    H1 3360   1.321   3.096   3.662 -0.3410  0.0065  0.2117
 1118TIP3    H2 3361   1.174   3.084   3.629 -0.4194  0.5198  0.3589
 1119TIP3   OH2 3362   5.098   1.018   2.256 -0.0011  0.3814 -0.1227
 1119TIP3    H1 3363   5.168   1.044   2.316 -1.3112  0.3050  1.5060
 1119TIP3    H2 3364   5.030   0.981   2.312 -1.9017  1.5765 -1.4773
 1120TIP3   OH2 3365   4.096   1.650   4.110 -0.0041  0.3248  0.0363
 1120TIP3    H1 3366   4.083   1.745   4.116  0.7329  0.4629 -0.4586
 1120TIP3    H2 3367   4.053   1.615   4.188 -1.8093  0.8977 -0.6304
 1121TIP3   OH2 3368  -0.020   2.693   1.891 -0.3298  0.1700  0.2112
 1121TIP3    H1 3369   0.074   2.712   1.900 -0.2406 -0.0281 -0.2583
 1121TIP3    H2 3370  -0.028   2.601   1.916 -0.2896 -0.0027 -0.3923
 1122TIP3   OH2 3371   0.973   2.904   0.840  0.0032 -0.1946 -0.1797
 1122TIP3    H1 3372   0.894   2.887   0.789 -0.6152  1.0099  0.3305
 1122TIP3    H2 3373   0.980   2.999   0.842 -0.2536 -0.1532  2.3157
 1123TIP3   OH2 3374   4.678   4.696   0.613 -0.9133  0.0373  0.3426
 1123TIP3    H1 3375   4.730   4.666   0.688  1.6787  0.1608 -1.2575
 1123TIP3    H2 3376   4.693   4.791   0.611 -0.2628 -0.0721 -0.7587
 1124TIP3   OH2 3377   5.251   4.416   2.445  0.0338 -0.2892 -0.2494
 1124TIP3    H1 3378   5.341   4.436   2.472 -0.0019 -1.8492  1.2069
 1124TIP3    H2 3379   5.248   4.321   2.440 -1.2475 -0.2198 -1.4495
 1125TIP3   OH2 3380   1.710   3.971   2.392  0.0197  0.6998 -0.0244
 1125TIP3    H1 3381   1.762   4.041   2.352 -1.1010  2.1223  0.9210
 1125TIP3    H2 3382   1.707   3.994   2.485 -0.6455 -0.4298  0.2462
 1126TIP3   OH2 3383   6.289   5.166   0.943 -0.1346 -0.3043  0.4185
 1126TIP3    H1 3384   6.210   5.141   0.896 -0.7177 -0.6688  1.5653
 1126TIP3    H2 3385   6.307   5.093   1.001  1.9702 -0.9523 -0.9039
 1127TIP3   OH2 3386   5.864   1.878   0.863 -0.1694  0.1392  0.2484
 1127TIP3    H1 3387   5.785   1.933   0.869 -0.1190  0.2793 -0.3534
 1127TIP3    H2 3388   5.876   1.863   0.770  0.4411 -0.0000  0.3455
 1128TIP3   OH2 3389   0.846   3.703   2.560 -0.0826  0.4355 -0.4291
 1128TIP3    H1 3390   0.802   3.638   2.506  0.0262  0.5754 -0.6888
 1128TIP3    H2 3391   0.789   3.779   2.558  0.6661  0.9968 -1.6492
 1129TIP3   OH2 3392   1.449   2.535   3.704  0.4895 -0.3927  0.0612
 1129TIP3    H1 3393   1.406   2.536   3.619  0.8648  2.1114 -0.1743
 1129TIP3    H2 3394   1.384   2.497   3.763 -1.4402  1.6777 -0.6004
 1130TIP3   OH2 3395   0.931   4.154   3.008  0.5020 -0.0933  0.3161
 1130TIP3    H1 3396   0.948   4.243   2.978 -0.0328 -0.1895 -0.3115
 1130TIP3    H2 3397   0.897   4.164   3.097 -1.4724  0.5026 -0.4387
 1131TIP3   OH2 3398   2.784   4.255   0.187  0.1159  0.0739 -0.4341
 1131TIP3    H1 3399   2.709   4.295   0.232  0.6169  0.6646 -0.1082
 1131TIP3    H2 3400   2.795   4.171   0.231 -1.1004 -0.5554 -1.2897
 1132TIP3   OH2 3401   4.956   0.389   4.713  0.0982  0.6117 -0.3800
 1132TIP3    H1 3402   4.861   0.400   4.712  0.2426  2.0459 -0.0208
 1132TIP3    H2 3403   4.971   0.312   4.658 -1.2487  0.5076 -0.6473
 1133TIP3   OH2 3404   4.068   0.732   0.648  0.2113 -0.4160  0.3867
 1133TIP3    H1 3405   4.108   0.778   0.574 -0.8228 -1.8583 -1.1544
 1133TIP3    H2 3406   3.993   0.787   0.672 -1.0683 -1.2150 -1.4961
 1134TIP3   OH2 3407   2.059   4.939   2.082  0.3948  0.1791  0.2791
 1134TIP3    H1 3408   2.089   5.029   2.070 -0.5623  0.2730 -1.7586
 1134TIP3    H2 3409   2.102   4.889   2.013 -0.3376 -0.6030  0.3624
 1135TIP3   OH2 3410   2.817   3.202   2.541 -0.7231  0.0641 -0.0236
 1135TIP3    H1 3411   2.832   3.205   2.635 -0.4137  2.4367 -0.0733
 1135TIP3    H2 3412   2.746   3.140   2.529 -0.6210 -0.4300  1.7493
 1136TIP3   OH2 3413   3.762   1.971   3.308  0.4685  0.0942  0.1554
 1136TIP3    H1 3414   3.781   1.878   3.302  0.7502  0.1494  0.2077
 1136TIP3    H2 3415   3.786   2.006   3.222 -0.4907 -0.0330 -0.1863
 1137TIP3   OH2 3416   2.019   1.710   0.011 -0.0194 -0.5273 -0.0813
 1137TIP3    H1 3417   2.063   1.791  -0.014 -0.9738  0.0269 -0.0167
 1137TIP3    H2 3418   1.930   1.738   0.034 -0.7638 -1.7649 -1.3397
 1138TIP3   OH2 3419   1.935   3.921   3.240  0.5259 -0.3555  0.1065
 1138TIP3    H1 3420   1.867   3.954   3.182  0.6969 -1.2326 -0.6135
 1138TIP3    H2 3421   1.926   3.974   3.320  0.2022  0.7804 -0.6490
 1139TIP3   OH2 3422   2.716   5.515   0.498 -0.1630 -0.6814  0.0120
 1139TIP3    H1 3423   2.633   5.512   0.547  0.1797 -0.2866  0.6397
 1139TIP3    H2 3424   2.704   5.453   0.427 -1.2580 -0.1217 -0.3140
 1140TIP3   OH2 3425   4.019   4.217   3.596  0.3387  0.4192  0.0639
 1140TIP3    H1 3426   4.109   4.188   3.577 -0.2410 -1.6898  0.3040
 1140TIP3    H2 3427   3.997   4.275   3.523  1.1812 -0.6595 -1.1018
 1141TIP3   OH2 3428   4.795   3.063   1.123 -0.0466 -0.6456 -0.0964
 1141TIP3    H1 3429   4.766   2.995   1.062 -0.8146  0.1835 -0.6741
 1141TIP3    H2 3430   4.888   3.073   1.105 -0.1367 -0.8461 -0.6945
 1142TIP3   OH2 3431   1.536   1.632   0.102  0.1665  0.0272  0.2143
 1142TIP3    H1 3432   1.530   1.565   0.171 -1.9347  1.3520  1.4225
 1142TIP3    H2 3433   1.449   1.634   0.063  0.9009  0.3888 -1.4648
 1143TIP3   OH2 3434   3.729   2.478   2.109 -0.2824 -0.1055  0.0671
 1143TIP3    H1 3435   3.694   2.484   2.020 -2.3968  0.2907  0.8575
 1143TIP3    H2 3436   3.786   2.401   2.107 -0.3045 -0.1257 -1.6067
 1144TIP3   OH2 3437   3.486   1.849   3.122 -0.1670  0.1639  0.2133
 1144TIP3    H1 3438   3.451   1.793   3.053 -0.0808 -0.4552  0.6639
 1144TIP3    H2 3439   3.502   1.790   3.196  0.6004  0.6549  0.4581
 1145TIP3   OH2 3440   2.034   0.168   3.395  0.2203  0.0736  0.2434
 1145TIP3    H1 3441   2.056   0.075   3.383  0.3981  0.1592 -0.1150
 1145TIP3    H2 3442   1.975   0.169   3.470 -1.1040 -0.5084 -0.7442
 1146TIP3   OH2 3443   0.453   3.599   4.618 -0.5893  0.2937 -0.0841
 1146TIP3    H1 3444   0.491   3.643   4.542 -1.0107  0.5975 -0.1240
 1146TIP3    H2 3445   0.477   3.655   4.692 -1.0923  0.5835 -0.1302
 1147TIP3   OH2 3446   0.347   0.996   3.976  0.1806  0.0577  0.3394
 1147TIP3    H1 3447   0.339   0.999   4.071  2.7677 -0.5445  0.6622
 1147TIP3    H2 3448   0.430   1.040   3.957 -0.1840  0.0036 -1.6305
 1148TIP3   OH2 3449   0.828   1.477   4.461  0.5178 -0.1662  0.1328
 1148TIP3    H1 3450   0.746   1.521   4.483  1.6018  1.1974  1.7447
 1148TIP3    H2 3451   0.841   1.494   4.368  0.1677  1.7455  0.3882
 1149TIP3   OH2 3452   2.960   5.415   3.182 -0.3627 -0.1376 -0.0950
 1149TIP3    H1 3453   3.052   5.440   3.182  0.6283 -3.3414 -1.2356
 1149TIP3    H2 3454   2.953   5.348   3.250 -1.9452  0.2612  0.1904
 1150TIP3   OH2 3455   0.956   2.214   0.494  0.2644  0.7112  0.3626
 1150TIP3    H1 3456   0.992   2.177   0.413  1.2322  0.7573  0.7510
 1150TIP3    H2 3457   0.887   2.273   0.465 -0.1958 -0.1659 -0.3567
 1151TIP3   OH2 3458   1.962   3.270   2.791  0.3952 -0.1071 -0.1547
 1151TIP3    H1 3459   2.021   3.243   2.862 -0.9488 -0.9390  0.6775
 1151TIP3    H2 3460   2.008   3.343   2.749  0.6438  1.3777  2.4703
 1152TIP3   OH2 3461   0.194   5.442   3.705 -0.1702 -0.1224  0.3268
 1152TIP3    H1 3462   0.249   5.516   3.732  0.9598 -1.7225  2.7945
 1152TIP3    H2 3463   0.188   5.450   3.610  0.7588  2.5263  0.4059
 1153TIP3   OH2 3464   2.484   4.146   4.431  0.3237 -0.3542 -0.0080
 1153TIP3    H1 3465   2.391   4.144   4.454 -0.0677  1.5371 -1.1840
 1153TIP3    H2 3466   2.511   4.237   4.443  1.2342 -0.2108 -2.3958
 1154TIP3   OH2 3467   2.946   5.207   2.582  0.5134  0.0100 -0.2534
 1154TIP3    H1 3468   2.902   5.160   2.511  0.5972 -0.5709  0.0755
 1154TIP3    H2 3469   2.933   5.300   2.561  1.0732 -0.1464 -1.3612
 1155TIP3   OH2 3470   4.141   4.277   0.489  0.3326  0.3566 -0.2144
 1155TIP3    H1 3471   4.226   4.274   0.445  0.0952  0.9488 -0.7264
 1155TIP3    H2 3472   4.094   4.200   0.457 -0.3130  1.4423 -2.0180
 1156TIP3   OH2 3473   4.348   2.569   2.559 -0.7000 -0.5066 -0.5356
 1156TIP3    H1 3474   4.333   2.527   2.474  0.3313 -1.9345 -0.0487
 1156TIP3    H2 3475   4.443   2.567   2.570 -0.7898  0.1600  0.4144
 1157TIP3   OH2 3476   4.557   0.223   1.829  0.2817  0.3498 -1.0168
 1157TIP3    H1 3477   4.525   0.252   1.914  1.2572  1.6043 -1.0587
 1157TIP3    H2 3478   4.581   0.131   1.843 -0.9182  0.1163 -0.3397
 1158TIP3   OH2 3479   1.517   0.515   0.835 -0.0070  0.8946  0.8444
 1158TIP3    H1 3480   1.529   0.563   0.917  0.3583  1.2053  0.6114
 1158TIP3    H2 3481   1.424   0.491   0.835 -0.4001  2.3277  0.5742
 1159TIP3   OH2 3482   1.950   5.475   1.597  0.2847  0.3802 -0.1444
 1159TIP3    H1 3483   1.906   5.450   1.678  1.6534 -0.3488  0.4014
 1159TIP3    H2 3484   1.902   5.428   1.528 -1.0538  1.2092  0.1730
 1160TIP3   OH2 3485   2.919   5.068   0.445 -0.0267  0.2747 -0.2944
 1160TIP3    H1 3486   2.877   5.019   0.374  0.8014 -0.5931 -0.2060
 1160TIP3    H2 3487   3.012   5.043   0.440  0.4346  1.9115 -0.2961
 1161TIP3   OH2 3488   4.080   5.635   2.683  0.0477  0.5349  0.4931
 1161TIP3    H1 3489   3.991   5.633   2.719  0.3026  1.7479  1.2569
 1161TIP3    H2 3490   4.103   5.543   2.672 -2.0854  0.1628 -1.8079
 1162TIP3   OH2 3491   4.467   3.721   0.932  0.2824 -0.2929 -0.3884
 1162TIP3    H1 3492   4.462   3.627   0.949  0.5449 -0.3783 -0.7771
 1162TIP3    H2 3493   4.404   3.759   0.993  1.3983 -0.5607  0.9778
 1163TIP3   OH2 3494   5.638   3.965   4.961  0.0008 -0.4183 -0.1647
 1163TIP3    H1 3495   5.594   4.028   4.903  0.5340  0.3724  0.2746
 1163TIP3    H2 3496   5.573   3.944   5.028 -1.2555 -2.6445 -1.8989
 1164TIP3   OH2 3497   5.798   0.539   2.532 -0.2372 -0.8898 -0.3790
 1164TIP3    H1 3498   5.745   0.493   2.466  0.1690 -0.8359 -0.7531
 1164TIP3    H2 3499   5.858   0.593   2.480  0.0560 -0.8122  0.0375
 1165TIP3   OH2 3500   1.779   0.621   3.233  0.0592  0.2927 -0.3682
 1165TIP3    H1 3501   1.797   0.633   3.140  0.8808  0.0123 -0.2469
 1165TIP3    H2 3502   1.800   0.529   3.250  1.9351  0.8559  0.5420
 1166TIP3   OH2 3503   2.456   4.492   0.313  0.2545 -0.1322  0.1289
 1166TIP3    H1 3504   2.431   4.506   0.222  0.3538  1.8284  0.3575
 1166TIP3    H2 3505   2.391   4.542   0.363  1.2659  0.3047  1.0321
 1167TIP3   OH2 3506   5.283   5.750   1.234  0.1920  0.5447  0.1278
 1167TIP3    H1 3507   5.262   5.816   1.168 -0.3759  0.5718  0.3344
 1167TIP3    H2 3508   5.246   5.668   1.200  0.0780  0.5182  0.3106
 1168TIP3   OH2 3509   6.266   4.629   0.659 -0.1987 -0.0330  0.1917
 1168TIP3    H1 3510   6.261   4.645   0.753 -2.5264 -0.0493  0.1283
 1168TIP3    H2 3511   6.307   4.708   0.623  1.5058 -0.3916  1.2681
 1169TIP3   OH2 3512   4.877   4.252   4.982 -0.2487 -0.6286 -0.3473
 1169TIP3    H1 3513   4.849   4.205   5.061 -1.4015  0.9310  0.2273
 1169TIP3    H2 3514   4.863   4.190   4.911  1.6957 -2.4197  0.7117
 1170TIP3   OH2 3515   5.896   1.254   2.278  0.1701 -0.0934  0.2784
 1170TIP3    H1 3516   5.969   1.257   2.216  2.3052  2.6501  2.6724
 1170TIP3    H2 3517   5.823   1.296   2.231  1.0744  0.0338 -1.0642
 1171TIP3   OH2 3518   4.276   3.668   4.988  0.4362  0.2600  0.0382
 1171TIP3    H1 3519   4.324   3.710   4.917  2.3706  0.1524  1.1950
 1171TIP3    H2 3520   4.194   3.639   4.948  1.3098  0.4724 -2.0574
 1172TIP3   OH2 3521   1.672   1.129   4.552  0.3441  0.3986  0.8282
 1172TIP3    H1 3522   1.706   1.217   4.537 -1.2344  0.6246 -2.0824
 1172TIP3    H2 3523   1.597   1.142   4.610 -0.1090  1.0529  0.1095
 1173TIP3   OH2 3524   5.737   5.132   4.666  0.2944 -0.5281  0.6934
 1173TIP3    H1 3525   5.691   5.208   4.631  0.1736 -0.8357  0.1733
 1173TIP3    H2 3526   5.749   5.074   4.591  1.8752 -0.2987  0.7277
 1174TIP3   OH2 3527   4.976   2.552   2.342  0.7737  0.5768 -0.8411
 1174TIP3    H1 3528   4.931   2.469   2.356  1.0502  0.4818 -0.4884
 1174TIP3    H2 3529   5.062   2.527   2.308  0.4396  0.7712 -1.8511
 1175TIP3   OH2 3530   4.550   1.907   3.555 -0.3868 -0.3055  0.1567
 1175TIP3    H1 3531   4.540   1.981   3.495 -0.4615 -1.0257 -0.7460
 1175TIP3    H2 3532   4.475   1.915   3.615 -0.8783 -0.1250 -0.4640
 1176TIP3   OH2 3533   5.879   1.458   3.926  0.1229  0.3433 -0.0327
 1176TIP3    H1 3534   5.947   1.467   3.860 -0.4132  0.3746 -0.5912
 1176TIP3    H2 3535   5.808   1.514   3.895 -0.0362  0.5579  0.7066
 1177TIP3   OH2 3536   1.719   5.195   2.720  0.1425 -0.5022 -0.0629
 1177TIP3    H1 3537   1.785   5.214   2.787  1.0996 -1.1060 -0.8035
 1177TIP3    H2 3538   1.701   5.102   2.730  1.7112 -1.0738 -1.8039
 1178TIP3   OH2 3539   5.649   2.745   3.479 -0.0416  0.5086  0.3679
 1178TIP3    H1 3540   5.675   2.836   3.470 -0.4180  0.4803 -1.1452
 1178TIP3    H2 3541   5.556   2.743   3.456  0.0302 -0.2946  0.1032
 1179TIP3   OH2 3542   3.467   0.636   0.084  0.1461  0.0707  0.3359
 1179TIP3    H1 3543   3.540   0.675   0.133  0.6188 -0.8250  0.3571
 1179TIP3    H2 3544   3.499   0.550   0.057 -0.3250  0.3036 -1.0322
 1180TIP3   OH2 3545   0.229   5.136   4.331  0.5978  0.0584  0.1724
 1180TIP3    H1 3546   0.205   5.090   4.411  0.0209  0.0626  0.0066
 1180TIP3    H2 3547   0.168   5.210   4.326  0.3330 -0.1964 -0.4977
 1181TIP3   OH2 3548   0.859   4.675   0.228  0.5547 -0.4027 -0.7795
 1181TIP3    H1 3549   0.795   4.652   0.160 -0.4770  0.9473 -0.3096
 1181TIP3    H2 3550   0.870   4.594   0.278 -1.2466 -0.5328 -0.5272
 1182TIP3   OH2 3551   0.744   0.585   3.232 -0.3276 -0.0856  0.2583
 1182TIP3    H1 3552   0.814   0.631   3.186 -1.6774  1.8928  0.0187
 1182TIP3    H2 3553   0.740   0.499   3.191  1.2738  0.1365 -0.4094
 1183TIP3   OH2 3554   0.575   0.582   0.245 -0.1723 -0.0416 -0.0525
 1183TIP3    H1 3555   0.503   0.566   0.306  0.6324 -3.0737  0.2791
 1183TIP3    H2 3556   0.532   0.601   0.161 -1.5118 -2.8135 -0.1182
 1184TIP3   OH2 3557   5.977   5.310   0.552  0.1871 -0.2666 -0.3971
 1184TIP3    H1 3558   5.945   5.383   0.605 -0.8259  0.0883 -1.4575
 1184TIP3    H2 3559   6.047   5.347   0.498  1.4991 -0.7198  0.9174
 1185TIP3   OH2 3560   3.577   4.088   3.843 -0.2437 -0.4650 -0.3589
 1185TIP3    H1 3561   3.588   4.070   3.936 -1.3680 -3.0892 -0.6644
 1185TIP3    H2 3562   3.518   4.164   3.840 -0.4559 -0.5501  1.0580
 1186TIP3   OH2 3563   0.316   5.489   0.801 -0.3643  0.2253  0.2039
 1186TIP3    H1 3564   0.303   5.398   0.776  1.3466  0.2895 -1.1138
 1186TIP3    H2 3565   0.228   5.521   0.821 -1.2428 -1.1670 -1.2232
 1187TIP3   OH2 3566   4.695   1.135   1.414  0.6673  0.1053  0.2968
 1187TIP3    H1 3567   4.785   1.167   1.419  0.3896  1.1405 -0.8809
 1187TIP3    H2 3568   4.703   1.040   1.404  1.7947  0.4171 -2.8167
 1188TIP3   OH2 3569   5.520   4.446   2.491 -0.6946 -0.4109 -0.1160
 1188TIP3    H1 3570   5.537   4.423   2.582  1.5021  0.5303 -0.2054
 1188TIP3    H2 3571   5.576   4.522   2.475 -1.1681 -0.4278 -2.2013
 1189TIP3   OH2 3572   2.848   3.380   4.310  0.3448  0.9031  0.2948
 1189TIP3    H1 3573   2.804   3.463   4.296  0.1589  0.7523 -0.0297
 1189TIP3    H2 3574   2.921   3.381   4.247 -1.8672 -0.7891 -2.5609
 1190TIP3   OH2 3575   4.557   2.610   0.158  0.5607 -0.3294 -0.6231
 1190TIP3    H1 3576   4.489   2.677   0.172  0.9504 -0.3429  1.8929
 1190TIP3    H2 3577   4.551   2.554   0.236  2.6802 -1.0178 -0.8957
 1191TIP3   OH2 3578   1.550   3.414   5.038 -0.0014  0.1663 -0.5864
 1191TIP3    H1 3579   1.529   3.432   5.130 -1.7722 -1.8285 -0.5297
 1191TIP3    H2 3580   1.639   3.449   5.026  0.3240  0.3548  1.9123
 1192TIP3   OH2 3581   1.099   3.848   3.506 -0.7079 -0.2775 -0.2496
 1192TIP3    H1 3582   1.122   3.838   3.413  3.4730 -0.8586  0.6246
 1192TIP3    H2 3583   1.172   3.898   3.543 -2.8692  1.0798  2.5666
 1193TIP3   OH2 3584   5.794   4.117   4.290 -0.4342 -0.0427 -0.2988
 1193TIP3    H1 3585   5.817   4.076   4.207 -0.6957  0.2853 -0.5394
 1193TIP3    H2 3586   5.867   4.175   4.309 -0.1048 -0.5535 -0.0030
 1194TIP3   OH2 3587   1.370   4.496   3.989 -0.5020  0.0266 -0.5564
 1194TIP3    H1 3588   1.366   4.454   4.075 -0.8062 -0.1792 -0.6658
 1194TIP3    H2 3589   1.390   4.424   3.928  0.5351  0.3108 -0.5617
 1195TIP3   OH2 3590   2.282   3.423   1.516 -0.0765  0.2759  0.4018
 1195TIP3    H1 3591   2.283   3.516   1.538 -0.5552  0.6872 -1.1850
 1195TIP3    H2 3592   2.360   3.387   1.559 -0.2708  1.2643  1.6059
 1196TIP3   OH2 3593   2.239   1.577   0.766  0.3381  0.4175  0.1633
 1196TIP3    H1 3594   2.237   1.671   0.749  4.2495  0.6444  0.1376
 1196TIP3    H2 3595   2.281   1.569   0.852  0.2984 -1.3162  0.0499
 1197TIP3   OH2 3596   0.891   1.605   0.489 -0.5960  0.1386  0.1087
 1197TIP3    H1 3597   0.976   1.647   0.488  0.2209 -1.4207  0.1163
 1197TIP3    H2 3598   0.890   1.554   0.571 -0.7691 -1.2707 -0.7294
 1198TIP3   OH2 3599   3.822   2.739   1.002 -0.1689  0.1658  0.0404
 1198TIP3    H1 3600   3.873   2.766   1.078  1.9577  0.3436 -1.3693
 1198TIP3    H2 3601   3.804   2.820   0.954 -0.8933 -0.0225 -0.0225
 1199TIP3   OH2 3602   5.576   1.645   0.538 -0.1435  0.3119  0.6543
 1199TIP3    H1 3603   5.651   1.635   0.598  1.4205 -0.0479 -1.2535
 1199TIP3    H2 3604   5.580   1.568   0.481 -1.6035  0.6204  0.0937
 1200TIP3   OH2 3605   5.009   0.200   1.625 -0.0064  0.2734  0.1460
 1200TIP3    H1 3606   5.064   0.250   1.685 -0.3013 -0.3212  0.9228
 1200TIP3    H2 3607   4.920   0.214   1.657 -0.3266  1.1827 -1.0668
 1201TIP3   OH2 3608   4.289   3.611   3.381 -0.2084  0.5988 -0.5540
 1201TIP3    H1 3609   4.205   3.594   3.339 -0.1843  0.7075 -0.6481
 1201TIP3    H2 3610   4.268   3.671   3.453 -0.0893  1.3536 -1.1307
 1202TIP3   OH2 3611   3.267   5.412   1.192 -0.5485 -0.1826 -0.2692
 1202TIP3    H1 3612   3.201   5.429   1.125 -1.2102 -3.3744 -0.5481
 1202TIP3    H2 3613   3.222   5.431   1.275 -0.7711  0.6714 -0.5751
 1203TIP3   OH2 3614   2.094   1.433   1.115 -0.0439 -0.4248  0.5425
 1203TIP3    H1 3615   2.039   1.363   1.082  0.0907 -0.8014  1.1005
 1203TIP3    H2 3616   2.059   1.513   1.074 -1.7323 -0.4944  1.7398
 1204TIP3   OH2 3617   0.793   5.724   2.433 -0.9839  0.4700  0.3741
 1204TIP3    H1 3618   0.707   5.764   2.443 -1.2954  1.3968 -4.0454
 1204TIP3    H2 3619   0.784   5.665   2.358  2.2662  0.8285 -0.4734
 1205TIP3   OH2 3620   5.838   5.235   1.940  0.6604  0.3143  0.4339
 1205TIP3    H1 3621   5.789   5.316   1.953  1.4902  0.9720 -0.5071
 1205TIP3    H2 3622   5.902   5.255   1.872  2.7179 -0.3194  2.0746
 1206TIP3   OH2 3623   4.672   4.437   4.918  0.1766 -0.3628 -0.3057
 1206TIP3    H1 3624   4.736   4.367   4.929  3.0611  2.2111  0.8166
 1206TIP3    H2 3625   4.653   4.467   5.007 -1.2595  0.0704 -0.7324
 1207TIP3   OH2 3626   2.629   1.212   0.546 -0.3356 -0.1534 -0.4447
 1207TIP3    H1 3627   2.654   1.199   0.454  1.7040  0.9206 -0.1012
 1207TIP3    H2 3628   2.567   1.285   0.543  1.3050  1.2840 -0.8339
 1208TIP3   OH2 3629   3.115   1.883   1.566  0.1341 -0.5398  1.2086
 1208TIP3    H1 3630   3.107   1.958   1.507 -0.9513 -1.8577 -0.4292
 1208TIP3    H2 3631   3.197   1.841   1.540  0.3215 -0.3968  1.5604
 1209TIP3   OH2 3632   2.116   3.968   0.741 -0.0043 -0.0908 -0.8957
 1209TIP3    H1 3633   2.135   3.938   0.652  0.3822 -0.9798 -0.5289
 1209TIP3    H2 3634   2.048   3.909   0.772  0.2066 -0.0989 -0.4327
 1210TIP3   OH2 3635   0.620   5.208   3.080 -0.1587  0.2586  0.2589
 1210TIP3    H1 3636   0.668   5.281   3.040 -0.9441  0.6548  0.0254
 1210TIP3    H2 3637   0.678   5.176   3.149  1.2620 -0.4694 -1.1944
 1211TIP3   OH2 3638   4.590   3.632   0.370 -0.0559  0.2011 -0.0209
 1211TIP3    H1 3639   4.570   3.548   0.330 -2.0415 -0.5398  2.3293
 1211TIP3    H2 3640   4.685   3.630   0.385  0.2454 -0.7194 -1.8324
 1212TIP3   OH2 3641   6.162   1.143   3.460 -0.1074 -0.3931  0.0894
 1212TIP3    H1 3642   6.100   1.215   3.447  0.6116  0.5422  1.6643
 1212TIP3    H2 3643   6.111   1.064   3.440 -1.2296  0.4574 -0.5473
 1213TIP3   OH2 3644   4.773   3.407   2.170 -0.1181 -0.0851 -0.4398
 1213TIP3    H1 3645   4.731   3.346   2.230  0.7235  0.5825  0.8650
 1213TIP3    H2 3646   4.785   3.487   2.222  1.1984  0.3055 -1.3019
 1214TIP3   OH2 3647   5.243   3.828   3.972 -0.0977 -0.0663 -0.2151
 1214TIP3    H1 3648   5.155   3.791   3.966 -1.0093  1.6874  1.3217
 1214TIP3    H2 3649   5.267   3.847   3.881 -1.7276  0.2993 -0.6069
 1215TIP3   OH2 3650   2.522   0.332   3.741  0.3130 -0.1539 -0.2100
 1215TIP3    H1 3651   2.428   0.322   3.723 -0.4705  0.6072  2.8759
 1215TIP3    H2 3652   2.553   0.243   3.757 -0.6181 -0.1905  1.6466
 1216TIP3   OH2 3653   2.403   3.724   5.017  0.3029  0.0146 -0.6652
 1216TIP3    H1 3654   2.329   3.683   5.062  1.8603 -1.8952  0.2964
 1216TIP3    H2 3655   2.392   3.697   4.926  0.5166 -1.4358 -0.2937
 1217TIP3   OH2 3656   4.298   1.591   3.583 -0.3596 -0.3745  0.3423
 1217TIP3    H1 3657   4.390   1.602   3.606 -0.1620 -1.7117  0.2648
 1217TIP3    H2 3658   4.267   1.520   3.640 -1.0933 -0.5563 -0.2608
 1218TIP3   OH2 3659   6.309   3.249   3.407 -0.5306  0.1694  0.0225
 1218TIP3    H1 3660   6.269   3.278   3.325  2.2950  3.6804 -0.3660
 1218TIP3    H2 3661   6.280   3.312   3.472  0.1141 -0.4132  0.8975
 1219TIP3   OH2 3662   5.181   1.796   1.410 -0.4277  0.6065  0.0274
 1219TIP3    H1 3663   5.163   1.759   1.496 -0.4594 -0.0368 -0.2482
 1219TIP3    H2 3664   5.095   1.819   1.375 -0.6689 -1.4506 -0.8415
 1220TIP3   OH2 3665   0.451   2.533   5.154  0.1386  0.3283 -0.9986
 1220TIP3    H1 3666   0.400   2.578   5.087  0.4908  0.5712 -1.1063
 1220TIP3    H2 3667   0.534   2.513   5.111 -0.2070 -0.9193 -1.1242
 1221TIP3   OH2 3668   5.359   0.501   5.130 -0.1358  0.1038  0.2466
 1221TIP3    H1 3669   5.440   0.474   5.087 -0.7097 -1.2199 -0.0497
 1221TIP3    H2 3670   5.289   0.474   5.070 -0.9091 -1.0299  1.5704
 1222TIP3   OH2 3671   6.287   5.912   1.875  0.0710 -0.3647 -0.3463
 1222TIP3    H1 3672   6.368   5.940   1.833 -0.1274 -0.4724 -0.8020
 1222TIP3    H2 3673   6.316   5.865   1.953  0.4600 -0.7175 -0.6942
 1223TIP3   OH2 3674   5.389   2.056   4.960  0.2433  0.3917  0.4657
 1223TIP3    H1 3675   5.391   2.005   4.878 -0.1366 -0.1564  0.7914
 1223TIP3    H2 3676   5.451   2.010   5.017  0.4710  0.7463  0.5025
 1224TIP3   OH2 3677   1.231   0.648   0.539 -0.0207 -0.0080 -0.6444
 1224TIP3    H1 3678   1.248   0.642   0.445  0.2211 -1.3564 -0.5215
 1224TIP3    H2 3679   1.148   0.601   0.552  0.2423 -0.3308 -0.0985
 1225TIP3   OH2 3680   5.934   3.471   0.710  0.2954  0.1184  0.3076
 1225TIP3    H1 3681   5.893   3.451   0.625 -0.0681  1.1312  0.2170
 1225TIP3    H2 3682   5.996   3.400   0.725  0.5390  0.0431 -0.9314
 1226TIP3   OH2 3683   1.017   3.906   1.606 -0.0379 -0.3587 -0.9000
 1226TIP3    H1 3684   1.017   3.994   1.645 -0.5341 -1.4718  1.8543
 1226TIP3    H2 3685   0.925   3.879   1.609 -0.1007 -0.5495 -2.9389
 1227TIP3   OH2 3686   1.092   1.536   5.115  0.3495 -0.0438 -0.6819
 1227TIP3    H1 3687   1.089   1.621   5.071 -0.4596  0.0017 -0.5569
 1227TIP3    H2 3688   1.001   1.517   5.137  0.6200 -0.5610  0.0349
 1228TIP3   OH2 3689   5.996   3.179   4.539 -0.5620 -0.3869  0.1057
 1228TIP3    H1 3690   6.075   3.219   4.576 -1.0906  0.4779  0.3235
 1228TIP3    H2 3691   6.023   3.152   4.451  0.0911 -0.4739  0.3219
 1229TIP3   OH2 3692   0.969   2.631   4.570  0.0855 -0.0360  0.1062
 1229TIP3    H1 3693   0.874   2.628   4.555  0.1539 -0.6264 -0.2552
 1229TIP3    H2 3694   1.007   2.611   4.485  0.5466  0.5400  0.1686
 1230TIP3   OH2 3695   2.078   4.933   4.922  0.0278  0.4429  0.4223
 1230TIP3    H1 3696   2.107   4.850   4.884 -0.2744  0.4573  0.1499
 1230TIP3    H2 3697   2.156   4.970   4.963  0.7688  1.1914 -1.5630
 1231TIP3   OH2 3698   2.585   5.824   0.048 -0.3919 -0.0719  0.0411
 1231TIP3    H1 3699   2.512   5.802  -0.010  1.0414 -2.5667 -0.9535
 1231TIP3    H2 3700   2.663   5.804  -0.003  1.0021  0.9207  1.6689
 1232TIP3   OH2 3701   2.860   0.216   0.071 -0.5298  0.2205 -0.1215
 1232TIP3    H1 3702   2.936   0.229   0.127 -1.2894 -2.0618  1.5688
 1232TIP3    H2 3703   2.889   0.244  -0.015  1.6715  0.9670  0.7818
 1233TIP3   OH2 3704   3.219   1.270   0.198  0.1221  0.1589 -0.2545
 1233TIP3    H1 3705   3.171   1.287   0.279 -2.4948 -2.4912 -1.0758
 1233TIP3    H2 3706   3.266   1.351   0.180 -1.8306  1.9601  2.1603
 1234TIP3   OH2 3707   4.596   2.811   1.299 -0.0220 -0.0354  0.1803
 1234TIP3    H1 3708   4.552   2.857   1.228 -2.5884 -1.4859  0.7165
 1234TIP3    H2 3709   4.659   2.753   1.254 -0.3641  0.3146 -0.7847
 1235TIP3   OH2 3710   4.501   1.446   1.142  0.0700 -0.4924 -0.1746
 1235TIP3    H1 3711   4.564   1.494   1.196 -0.4495 -0.5343  0.4779
 1235TIP3    H2 3712   4.489   1.363   1.187 -4.7144  1.5158  3.0513
 1236TIP3   OH2 3713   6.214   1.526   1.275 -0.2329  0.1924  0.5476
 1236TIP3    H1 3714   6.229   1.619   1.296  2.2439  0.0806 -0.3731
 1236TIP3    H2 3715   6.245   1.479   1.353 -0.7379  0.1005  0.6964
 1237TIP3   OH2 3716   0.386   3.555   1.759  0.0511 -0.3607  0.4862
 1237TIP3    H1 3717   0.328   3.548   1.834 -0.1289  0.3519  0.4153
 1237TIP3    H2 3718   0.472   3.529   1.793 -0.1506 -0.6413  0.7842
 1238TIP3   OH2 3719   4.216   2.054   1.533 -0.1573 -0.0910 -0.4979
 1238TIP3    H1 3720   4.286   2.117   1.546 -0.2096 -0.4054  1.6404
 1238TIP3    H2 3721   4.138   2.097   1.570 -0.1416 -1.4330  1.2139
 1239TIP3   OH2 3722   2.219   3.921   3.307  0.8096 -0.1780 -0.0010
 1239TIP3    H1 3723   2.254   4.000   3.266  0.8512 -0.4607 -0.5102
 1239TIP3    H2 3724   2.125   3.923   3.290  0.3010  1.2211  2.4167
 1240TIP3   OH2 3725   1.415   5.198   0.158 -0.3625 -0.1109 -0.4950
 1240TIP3    H1 3726   1.468   5.236   0.088 -0.1395  0.9323  0.2208
 1240TIP3    H2 3727   1.388   5.113   0.124  1.4750 -0.5246 -1.0242
 1241TIP3   OH2 3728   0.791   1.619   5.000 -0.1294  0.0742 -0.5691
 1241TIP3    H1 3729   0.812   1.531   5.032 -0.5563 -0.2102 -1.0492
 1241TIP3    H2 3730   0.698   1.614   4.976 -0.2992  0.8082 -0.1132
 1242TIP3   OH2 3731   0.165   2.573   1.207  0.4482 -0.4217 -0.1637
 1242TIP3    H1 3732   0.166   2.624   1.126  0.4727 -0.5545 -0.2472
 1242TIP3    H2 3733   0.195   2.634   1.274  0.0476 -0.1950 -0.1873
 1243TIP3   OH2 3734   4.688   1.620   4.016 -0.7464  0.7795  0.0850
 1243TIP3    H1 3735   4.603   1.584   4.043  0.3275 -0.6370  1.7273
 1243TIP3    H2 3736   4.685   1.711   4.048 -0.7702  0.0682  2.3353
 1244TIP3   OH2 3737   1.293   2.234   4.600  0.2632  0.1819  0.2720
 1244TIP3    H1 3738   1.302   2.157   4.656  0.8596  0.6965  0.9061
 1244TIP3    H2 3739   1.380   2.247   4.563  0.1414  0.4966  0.0893
 1245TIP3   OH2 3740   0.049   0.906   2.739 -0.1598  0.1377 -0.5051
 1245TIP3    H1 3741   0.138   0.933   2.715 -0.0762 -0.8308 -1.3686
 1245TIP3    H2 3742   0.063   0.827   2.792 -0.5353 -0.8558 -1.8452
 1246TIP3   OH2 3743   2.889   3.151   1.824 -0.2647  0.6037 -0.2946
 1246TIP3    H1 3744   2.914   3.154   1.916 -2.2168  1.6862  0.2754
 1246TIP3    H2 3745   2.793   3.157   1.825 -0.3353  0.7558 -2.4026
 1247TIP3   OH2 3746   2.318   4.212   3.201  0.0967 -0.1999  0.6834
 1247TIP3    H1 3747   2.392   4.161   3.235  0.7517  1.2925  1.5763
 1247TIP3    H2 3748   2.353   4.300   3.189 -0.2267 -0.4599 -3.4364
 1248TIP3   OH2 3749   4.740   0.915   1.797 -0.3126  0.6687 -0.7609
 1248TIP3    H1 3750   4.822   0.884   1.758 -0.7240 -0.2137 -0.9363
 1248TIP3    H2 3751   4.672   0.861   1.757 -0.6995 -0.7679  1.6825
 1249TIP3   OH2 3752   1.215   0.132   0.906  0.2196  0.5123  0.1157
 1249TIP3    H1 3753   1.207   0.065   0.838  0.1859 -2.2070  2.5955
 1249TIP3    H2 3754   1.308   0.154   0.906  0.5148 -0.6784  0.2429
 1250TIP3   OH2 3755   1.719   1.652   4.171  0.1509  0.7219  0.3114
 1250TIP3    H1 3756   1.775   1.659   4.248  0.4020  0.6553  0.1399
 1250TIP3    H2 3757   1.761   1.584   4.117 -0.1125  0.6509  0.1940
 1251TIP3   OH2 3758   2.102   5.388   3.417  0.1435  0.2331 -0.5935
 1251TIP3    H1 3759   2.165   5.392   3.490  0.5098 -2.7548 -0.6166
 1251TIP3    H2 3760   2.156   5.398   3.339  0.1304  0.8036 -0.5318
 1252TIP3   OH2 3761   2.870   4.606   3.316  0.4332  0.5533 -0.1701
 1252TIP3    H1 3762   2.965   4.601   3.307  0.2568 -1.3303 -1.5150
 1252TIP3    H2 3763   2.838   4.609   3.226 -0.8738 -1.7564  0.1574
 1253TIP3   OH2 3764   0.953   3.102   4.615 -0.5888  0.5051  0.3709
 1253TIP3    H1 3765   0.859   3.085   4.610 -0.6691  1.1915 -1.8271
 1253TIP3    H2 3766   0.961   3.182   4.668 -1.1754  0.0812  1.1060
 1254TIP3   OH2 3767   1.513   2.409   1.217  0.1409  0.3126  0.0788
 1254TIP3    H1 3768   1.424   2.437   1.237 -0.0694 -0.1419 -0.1911
 1254TIP3    H2 3769   1.566   2.489   1.223 -0.3949  0.7109 -0.4039
 1255TIP3   OH2 3770   4.117   0.583   1.308 -0.0399  0.5874 -0.2976
 1255TIP3    H1 3771   4.206   0.613   1.295  0.0033  1.2292  1.3275
 1255TIP3    H2 3772   4.103   0.587   1.402 -1.6177  0.0090 -0.4713
 1256TIP3   OH2 3773   1.680   0.822   2.892 -0.4727  0.1952 -0.0091
 1256TIP3    H1 3774   1.749   0.888   2.889 -1.2332  0.9779 -0.4340
 1256TIP3    H2 3775   1.722   0.742   2.860 -0.1706  1.0512 -1.9035
 1257TIP3   OH2 3776   5.621   5.594   1.098 -0.1379  0.3611  0.0841
 1257TIP3    H1 3777   5.678   5.555   1.032 -2.0218  0.0256 -1.4318
 1257TIP3    H2 3778   5.670   5.586   1.180  0.7855 -2.5246 -0.6372
 1258TIP3   OH2 3779   2.905   4.640   0.689 -0.5617 -0.2072 -0.0294
 1258TIP3    H1 3780   2.952   4.716   0.655  0.8250 -0.9954  0.0496
 1258TIP3    H2 3781   2.821   4.642   0.644  0.4117 -0.0475 -1.9686
 1259TIP3   OH2 3782   3.355   2.203   0.279  0.5039 -0.6276  0.6717
 1259TIP3    H1 3783   3.366   2.189   0.373 -0.3004 -0.2027  0.8379
 1259TIP3    H2 3784   3.281   2.263   0.272 -0.1578 -1.5189 -0.2706
 1260TIP3   OH2 3785   1.685   3.709   3.218  0.7968  0.3564 -0.2171
 1260TIP3    H1 3786   1.676   3.788   3.163  0.1350  0.9634  0.7453
 1260TIP3    H2 3787   1.655   3.638   3.162 -0.4779  1.0504 -0.4456
 1261TIP3   OH2 3788   4.895   3.081   2.977  0.2867 -0.2868 -0.4356
 1261TIP3    H1 3789   4.869   2.989   2.985 -0.6870  0.1519  2.6707
 1261TIP3    H2 3790   4.815   3.126   2.950  0.0646 -0.0639  0.5477
 1262TIP3   OH2 3791   1.644   5.148   3.499 -0.2803  0.8446 -0.1851
 1262TIP3    H1 3792   1.718   5.087   3.506 -1.3356 -0.3756  0.8687
 1262TIP3    H2 3793   1.673   5.226   3.546  1.0183  1.1280 -1.3754
 1263TIP3   OH2 3794   2.308   3.238   2.694  0.4664 -0.2873 -0.3069
 1263TIP3    H1 3795   2.238   3.304   2.698  0.0750 -0.6792 -0.6187
 1263TIP3    H2 3796   2.347   3.240   2.781 -0.9780 -1.1932  0.3999
 1264TIP3   OH2 3797   0.149   4.057   2.064  0.5005 -0.2144 -0.0278
 1264TIP3    H1 3798   0.172   3.977   2.110  2.3004  0.2568 -0.0145
 1264TIP3    H2 3799   0.129   4.120   2.133 -0.5686 -0.5291 -0.0303
 1265TIP3   OH2 3800   1.211   2.508   4.706 -0.3618 -0.4046  0.2823
 1265TIP3    H1 3801   1.201   2.436   4.642 -0.7376 -0.3481  0.2727
 1265TIP3    H2 3802   1.303   2.504   4.732 -0.2734 -0.6161 -0.0447
 1266TIP3   OH2 3803   3.878   3.289   3.763  0.0283  0.3988  0.0716
 1266TIP3    H1 3804   3.899   3.230   3.692  1.4142  0.4979  0.3709
 1266TIP3    H2 3805   3.906   3.243   3.842 -0.9101  0.5480  0.5042
 1267TIP3   OH2 3806   2.512   1.426   4.085 -0.3545 -0.4471 -0.3956
 1267TIP3    H1 3807   2.468   1.427   4.000 -1.4948 -2.4529  0.1245
 1267TIP3    H2 3808   2.555   1.341   4.088  0.8803  0.1823  0.4763
 1268TIP3   OH2 3809   0.571   2.583   2.275 -0.1239  0.4133 -0.0577
 1268TIP3    H1 3810   0.581   2.573   2.180  1.5255 -1.1810  0.2387
 1268TIP3    H2 3811   0.542   2.498   2.306 -0.1361  0.7598  0.9292
 1269TIP3   OH2 3812   2.074   4.453   0.594 -0.1316  0.5869 -0.3224
 1269TIP3    H1 3813   2.121   4.508   0.657 -0.5610  0.3281  0.2381
 1269TIP3    H2 3814   2.045   4.378   0.646 -0.4049  0.3199 -0.8598
 1270TIP3   OH2 3815   3.235   1.047   3.001  0.4166  0.3044 -0.0375
 1270TIP3    H1 3816   3.308   1.100   3.035  0.2165  0.8227 -0.4080
 1270TIP3    H2 3817   3.264   0.957   3.013  1.0351  0.5047  0.0150
 1271TIP3   OH2 3818   4.602   1.887   0.966  0.1728  0.1227  0.2128
 1271TIP3    H1 3819   4.691   1.904   0.934 -0.3669  2.6636 -0.1442
 1271TIP3    H2 3820   4.587   1.794   0.947  1.5415  0.4006 -2.8050
 1272TIP3   OH2 3821   6.027   0.828   4.601 -0.4021  0.1001  0.4938
 1272TIP3    H1 3822   5.942   0.810   4.640 -0.3252 -0.2136  0.5159
 1272TIP3    H2 3823   6.075   0.745   4.606 -0.8610 -0.3393 -1.4596
 1273TIP3   OH2 3824   5.893   2.600   1.904 -0.1960  0.3959 -0.0777
 1273TIP3    H1 3825   5.869   2.518   1.860  0.2367  1.6346 -2.8450
 1273TIP3    H2 3826   5.978   2.582   1.943 -0.3342 -0.6238 -0.2143
 1274TIP3   OH2 3827   4.242   1.805   4.925  0.1354  0.5200  0.5185
 1274TIP3    H1 3828   4.228   1.739   4.993 -0.7562  0.0750 -0.0784
 1274TIP3    H2 3829   4.264   1.884   4.974  1.4481 -0.2476  1.2379
 1275TIP3   OH2 3830   0.162   2.759   0.074 -0.3277 -0.1521 -0.4390
 1275TIP3    H1 3831   0.238   2.798   0.029 -1.4494  0.5347 -1.8231
 1275TIP3    H2 3832   0.126   2.831   0.125  0.1630 -0.5818  0.5282
 1276TIP3   OH2 3833   3.510   5.464   3.993  0.0970  0.3827  0.1879
 1276TIP3    H1 3834   3.530   5.490   3.902 -0.9015  0.0197 -0.1419
 1276TIP3    H2 3835   3.429   5.510   4.014  0.1558  0.2157  0.8018
 1277TIP3   OH2 3836   3.172   0.930   2.111 -0.1329 -0.0916 -0.6582
 1277TIP3    H1 3837   3.159   0.864   2.042  0.8853 -1.2930  0.2539
 1277TIP3    H2 3838   3.117   1.003   2.084 -0.7835 -1.0439 -2.0639
 1278TIP3   OH2 3839   3.105   3.589   2.081 -0.3521  0.4601  0.0078
 1278TIP3    H1 3840   3.052   3.661   2.116 -0.4150 -0.6272  2.3955
 1278TIP3    H2 3841   3.094   3.519   2.146 -0.0675 -1.6156 -2.0626
 1279TIP3   OH2 3842   2.608   5.206   1.961 -0.5823 -0.3487 -0.1172
 1279TIP3    H1 3843   2.543   5.243   2.021 -0.0736  1.3958 -0.5791
 1279TIP3    H2 3844   2.656   5.282   1.928 -0.5537 -1.2869 -2.4085
 1280TIP3   OH2 3845   0.859   4.572   0.719 -0.2069 -0.1780  0.4196
 1280TIP3    H1 3846   0.851   4.635   0.791 -0.3842 -1.1362  1.2610
 1280TIP3    H2 3847   0.896   4.494   0.760 -2.1483 -1.4254 -0.0982
 1281TIP3   OH2 3848   0.164   5.626   1.106  0.2527  0.4281 -0.4158
 1281TIP3    H1 3849   0.129   5.546   1.067 -0.2303  0.9915 -1.1842
 1281TIP3    H2 3850   0.231   5.597   1.167  0.7842 -0.5176 -1.4215
 1282TIP3   OH2 3851   2.712   0.658   2.662  0.6927  0.6414 -0.6627
 1282TIP3    H1 3852   2.632   0.615   2.630  1.2540 -0.2151 -0.9457
 1282TIP3    H2 3853   2.680   0.729   2.718 -0.2694 -0.2709 -0.0158
 1283TIP3   OH2 3854   0.047   4.822   4.070  0.0064  0.0027  0.5087
 1283TIP3    H1 3855   0.140   4.840   4.081  0.0969  2.1530 -2.5232
 1283TIP3    H2 3856   0.004   4.885   4.128  0.3563 -1.2204  2.1718
 1284TIP3   OH2 3857   5.672   0.477   1.885  0.0766  0.2321  0.1476
 1284TIP3    H1 3858   5.612   0.515   1.819 -1.4542 -2.0504  0.1077
 1284TIP3    H2 3859   5.619   0.474   1.965  1.1049  0.6788  0.8618
 1285TIP3   OH2 3860   1.378   3.049   1.827 -0.7433 -0.6345 -0.3792
 1285TIP3    H1 3861   1.332   3.112   1.772  1.4180  0.0599 -1.5210
 1285TIP3    H2 3862   1.351   2.964   1.793 -0.4675 -0.2300 -1.6954
 1286TIP3   OH2 3863   3.686   0.173   2.990 -0.8391  0.0506  0.2903
 1286TIP3    H1 3864   3.609   0.143   2.943 -1.2826  0.4577  0.7450
 1286TIP3    H2 3865   3.705   0.259   2.952  0.3607 -0.7057 -0.9355
 1287TIP3   OH2 3866   1.698   5.598   1.065  0.2467 -0.3313 -0.4556
 1287TIP3    H1 3867   1.708   5.505   1.045  2.0264 -0.0736 -0.9108
 1287TIP3    H2 3868   1.611   5.620   1.032 -0.6831 -2.0640  0.6686
 1288TIP3   OH2 3869   4.022   3.037   3.371 -0.0440 -1.1711  0.5733
 1288TIP3    H1 3870   3.938   3.055   3.330 -0.0389  0.0774  1.0866
 1288TIP3    H2 3871   4.087   3.060   3.304 -0.0560  0.1211  0.9929
 1289TIP3   OH2 3872   4.825   4.070   3.169 -0.3163  1.0138 -0.0141
 1289TIP3    H1 3873   4.868   4.155   3.174 -0.7995  1.3545 -1.2584
 1289TIP3    H2 3874   4.795   4.064   3.078 -0.2420 -0.5098  0.0424
 1290TIP3   OH2 3875   6.244   0.579   0.399  0.2039 -0.0461 -0.4779
 1290TIP3    H1 3876   6.179   0.633   0.353 -0.0430 -0.0502 -0.1318
 1290TIP3    H2 3877   6.246   0.614   0.488  0.6153 -0.1031 -0.4619
 1291TIP3   OH2 3878   6.204   3.202   2.847 -0.6296  0.3208 -0.2253
 1291TIP3    H1 3879   6.110   3.193   2.862 -1.0511  1.8661 -1.7100
 1291TIP3    H2 3880   6.224   3.136   2.781 -0.3129 -1.0748  1.1937
 1292TIP3   OH2 3881   2.410   0.077   4.786 -0.1149 -0.0358 -0.4844
 1292TIP3    H1 3882   2.354   0.021   4.732 -0.1921  0.3859 -0.8472
 1292TIP3    H2 3883   2.349   0.131   4.835 -0.0767 -1.0547  0.7477
 1293TIP3   OH2 3884   0.080   3.624   4.112  0.2970 -0.1530  0.4317
 1293TIP3    H1 3885   0.161   3.647   4.066 -0.4170  0.5776 -0.5037
 1293TIP3    H2 3886   0.087   3.529   4.125  0.9178 -0.2425 -0.4322
 1294TIP3   OH2 3887   3.301   3.867   4.470  0.9981  0.0832 -0.2044
 1294TIP3    H1 3888   3.312   3.934   4.538 -0.8296 -0.5862  0.8135
 1294TIP3    H2 3889   3.211   3.875   4.441  1.1242 -1.0735 -1.0212
 1295TIP3   OH2 3890   1.663   5.085   1.537 -0.5721 -0.2138  0.0016
 1295TIP3    H1 3891   1.606   5.062   1.464 -1.4196  0.5052  0.4251
 1295TIP3    H2 3892   1.615   5.058   1.616 -0.2155  0.1404  0.3505
 1296TIP3   OH2 3893   1.018   4.636   3.624  0.2735  0.1432  0.1313
 1296TIP3    H1 3894   1.100   4.608   3.583  0.2514 -0.2594  0.3536
 1296TIP3    H2 3895   0.952   4.621   3.558  0.0709 -1.5854  0.6767
 1297TIP3   OH2 3896   2.372   3.969   4.730 -0.2939  0.5099  0.3102
 1297TIP3    H1 3897   2.386   3.904   4.661 -0.8902  0.1053  0.5616
 1297TIP3    H2 3898   2.380   4.054   4.685 -1.2688  0.2516 -0.3973
 1298TIP3   OH2 3899   4.735   1.423   3.814  0.2158 -0.4335  0.0329
 1298TIP3    H1 3900   4.717   1.361   3.884  0.8551 -0.3115  0.3200
 1298TIP3    H2 3901   4.732   1.509   3.856  0.8706 -0.3756 -0.0209
 1299TIP3   OH2 3902   3.437   3.349   1.778 -0.4444 -0.5477  0.1953
 1299TIP3    H1 3903   3.385   3.420   1.817 -1.5752  0.2212 -2.4534
 1299TIP3    H2 3904   3.436   3.280   1.844  0.7003  1.8045  2.9071
 1300TIP3   OH2 3905   2.895   2.822   2.562 -0.8178  0.0410 -0.1183
 1300TIP3    H1 3906   2.821   2.761   2.552 -1.6623  0.9225  0.6132
 1300TIP3    H2 3907   2.894   2.847   2.654  1.3507 -1.0793  0.2764
 1301TIP3   OH2 3908   5.764   3.729   0.557 -0.3914  0.5525  0.5757
 1301TIP3    H1 3909   5.705   3.790   0.512 -0.8799 -0.7575 -0.6050
 1301TIP3    H2 3910   5.774   3.656   0.497  1.1637 -0.0028  1.4595
 1302TIP3   OH2 3911   2.315   1.316   4.284 -0.2866  0.1698  0.2839
 1302TIP3    H1 3912   2.382   1.372   4.246 -0.5256  0.2532 -0.0204
 1302TIP3    H2 3913   2.300   1.352   4.372  0.4833 -0.2099  0.5781
 1303TIP3   OH2 3914   0.730   3.203   4.824 -0.0679 -0.5496 -0.1110
 1303TIP3    H1 3915   0.725   3.157   4.740 -0.0561 -0.2175 -0.2933
 1303TIP3    H2 3916   0.689   3.288   4.808  1.2322  0.0978 -0.1719
 1304TIP3   OH2 3917   2.375   1.793   0.080  0.4035 -0.1108  0.4429
 1304TIP3    H1 3918   2.315   1.844   0.026 -1.4938 -1.2315  1.3960
 1304TIP3    H2 3919   2.398   1.850   0.153 -0.7562 -0.1766  0.8762
 1305TIP3   OH2 3920   3.687   0.460   3.910 -0.2436 -0.2136 -0.0546
 1305TIP3    H1 3921   3.746   0.535   3.917 -1.9603  1.0952  1.0085
 1305TIP3    H2 3922   3.682   0.442   3.816  0.3626  0.8662 -0.3076
 1306TIP3   OH2 3923   0.885   1.420   2.981  0.0250 -0.4114  0.1488
 1306TIP3    H1 3924   0.933   1.496   2.950  0.9523 -0.9699  0.1739
 1306TIP3    H2 3925   0.944   1.378   3.043  0.0419 -1.8046 -0.7596
 1307TIP3   OH2 3926   2.835   4.746   3.552 -0.3161 -0.3603 -0.9278
 1307TIP3    H1 3927   2.753   4.730   3.598  0.3025 -2.3376 -0.3910
 1307TIP3    H2 3928   2.835   4.682   3.481  1.4221 -1.5015  0.0250
 1308TIP3   OH2 3929   3.930   5.084   1.710 -0.8969  0.0234 -0.0965
 1308TIP3    H1 3930   3.936   5.024   1.635  0.2148 -0.7707  0.6059
 1308TIP3    H2 3931   3.948   5.170   1.673  3.5198 -0.7310 -0.2567
 1309TIP3   OH2 3932   1.762   4.084   2.003  0.7644 -0.4249  0.2800
 1309TIP3    H1 3933   1.806   4.153   2.053  0.7214  0.0630 -0.3370
 1309TIP3    H2 3934   1.713   4.132   1.936  0.3734 -1.0378  0.1298
 1310TIP3   OH2 3935   1.923   1.909   2.666 -0.2999  0.0308  0.0915
 1310TIP3    H1 3936   1.866   1.976   2.703 -0.9390  0.7355 -2.0384
 1310TIP3    H2 3937   1.869   1.864   2.601  0.9260 -0.7196 -0.4535
 1311TIP3   OH2 3938   3.713   0.597   3.421  0.4692  0.3969 -0.3850
 1311TIP3    H1 3939   3.678   0.509   3.428 -1.5162  1.2020  0.3491
 1311TIP3    H2 3940   3.734   0.608   3.329  0.5422 -0.7507 -0.5116
 1312TIP3   OH2 3941   1.755   5.365   4.779 -0.1149 -0.0211  0.0459
 1312TIP3    H1 3942   1.692   5.419   4.731 -1.4725 -0.8351  0.8482
 1312TIP3    H2 3943   1.793   5.308   4.712  0.5593  1.1783 -0.6222
 1313TIP3   OH2 3944   1.688   4.908   0.606  0.2377  0.7967 -0.8420
 1313TIP3    H1 3945   1.622   4.964   0.565 -0.0716  0.5589 -0.6725
 1313TIP3    H2 3946   1.763   4.912   0.547 -0.5051 -0.2535 -1.9074
 1314TIP3   OH2 3947   5.906   1.830   3.721 -0.0553 -0.2936  0.3940
 1314TIP3    H1 3948   5.839   1.764   3.740  1.4932 -1.8526  0.6559
 1314TIP3    H2 3949   5.870   1.879   3.647 -1.3488 -1.3028  0.3071
 1315TIP3   OH2 3950   1.334   5.126   2.369  0.2305  0.4380 -0.7374
 1315TIP3    H1 3951   1.359   5.102   2.459 -1.4301 -0.9918 -0.6126
 1315TIP3    H2 3952   1.239   5.116   2.367  0.1452  1.3003 -2.4370
 1316TIP3   OH2 3953   1.485   2.109   1.561 -0.3289  0.2873 -0.1276
 1316TIP3    H1 3954   1.492   2.197   1.598 -0.0051  1.3813 -2.6345
 1316TIP3    H2 3955   1.565   2.098   1.510 -0.8811 -1.0089 -0.7496
 1317TIP3   OH2 3956   1.575   0.923   4.108  0.4810 -0.1210  0.4565
 1317TIP3    H1 3957   1.563   0.921   4.013 -0.1423 -1.7911  0.5476
 1317TIP3    H2 3958   1.664   0.891   4.122 -0.5633 -3.2736  0.5521
 1318TIP3   OH2 3959   4.294   5.589   5.102  0.3535  0.1262 -0.2544
 1318TIP3    H1 3960   4.269   5.676   5.072  2.4584  0.0607 -2.5333
 1318TIP3    H2 3961   4.309   5.600   5.196 -0.9505  1.8071 -0.1922
 1319TIP3   OH2 3962   0.288   0.990   2.343  0.3771  0.3765  0.2054
 1319TIP3    H1 3963   0.316   0.905   2.310 -3.4993 -0.0680 -2.5907
 1319TIP3    H2 3964   0.332   1.053   2.286  0.3426  0.0472 -0.1920
 1320TIP3   OH2 3965   1.617   3.319   4.283 -0.2149 -0.6737  0.1237
 1320TIP3    H1 3966   1.550   3.352   4.224  1.5520 -0.4948 -1.9294
 1320TIP3    H2 3967   1.700   3.347   4.244  1.1265  2.1365  4.3098
 1321TIP3   OH2 3968   4.791   4.673   3.809 -0.8576 -0.2070 -0.4651
 1321TIP3    H1 3969   4.825   4.590   3.842 -0.2564  0.4557  0.6474
 1321TIP3    H2 3970   4.851   4.697   3.738 -0.4865 -0.2856 -0.1831
 1322TIP3   OH2 3971   5.255   4.623   4.815 -0.2787 -0.0221 -0.0076
 1322TIP3    H1 3972   5.281   4.624   4.908 -0.4316 -0.2311  0.0372
 1322TIP3    H2 3973   5.308   4.692   4.775 -0.1549  0.0168  0.2205
 1323TIP3   OH2 3974   2.310   0.251   1.018  0.5441 -0.1013 -0.0867
 1323TIP3    H1 3975   2.299   0.278   0.926  2.0896 -1.2238 -0.6374
 1323TIP3    H2 3976   2.342   0.329   1.062 -2.7878  1.3122  0.1857
 1324TIP3   OH2 3977   4.277   2.582   3.612 -0.3884  0.5271  0.8020
 1324TIP3    H1 3978   4.356   2.612   3.657 -1.1240  2.0527  1.1626
 1324TIP3    H2 3979   4.242   2.661   3.570 -1.6774 -0.1203  0.6056
 1325TIP3   OH2 3980   1.566   2.422   5.023  0.4593 -0.1778  0.2313
 1325TIP3    H1 3981   1.585   2.515   5.031  2.1700 -0.5862  1.6074
 1325TIP3    H2 3982   1.535   2.396   5.110 -4.5405 -0.0696 -1.2667
 1326TIP3   OH2 3983   3.625   0.032   4.443 -0.0856 -0.3087 -0.6974
 1326TIP3    H1 3984   3.614   0.091   4.517  0.9895  1.7193 -2.0632
 1326TIP3    H2 3985   3.696  -0.027   4.470  0.0168  0.1400  0.0381
 1327TIP3   OH2 3986   1.988   3.795   5.089 -0.2165 -0.1393  0.1633
 1327TIP3    H1 3987   1.942   3.712   5.101 -2.8319  1.1457 -0.3809
 1327TIP3    H2 3988   1.958   3.850   5.160  0.3281  0.8402 -0.3408
 1328TIP3   OH2 3989   2.078   0.358   1.607  0.1240 -0.2757  0.2589
 1328TIP3    H1 3990   2.133   0.324   1.537 -0.0542 -0.1565  0.0623
 1328TIP3    H2 3991   2.090   0.453   1.604  2.2650 -0.4073  2.1424
 1329TIP3   OH2 3992   1.498   3.537   1.791 -0.2147  0.4356  0.6698
 1329TIP3    H1 3993   1.569   3.599   1.771  0.1361  0.0054  0.5784
 1329TIP3    H2 3994   1.420   3.579   1.755  0.4809 -0.6498 -2.3632
 1330TIP3   OH2 3995   4.798   0.220   3.182  0.4423 -0.2951  0.0510
 1330TIP3    H1 3996   4.840   0.188   3.263  0.2851  0.8429  0.6053
 1330TIP3    H2 3997   4.866   0.212   3.116  0.4407 -1.6453  0.1916
 1331TIP3   OH2 3998   3.569   4.045   1.968 -0.4656 -0.2756  0.1385
 1331TIP3    H1 3999   3.495   3.993   1.936 -0.1580 -1.4628  1.2440
 1331TIP3    H2 4000   3.640   3.982   1.980  0.0957  0.4868  1.0293
 1332TIP3   OH2 4001   5.819   4.677   3.902 -0.2683 -0.0394  0.2192
 1332TIP3    H1 4002   5.759   4.677   3.977  1.0332  0.9360  1.3268
 1332TIP3    H2 4003   5.905   4.660   3.941  0.4936  0.8265 -1.0034
 1333TIP3   OH2 4004   5.318   0.481   4.519  0.3421  0.2296  0.5498
 1333TIP3    H1 4005   5.318   0.390   4.545  1.7891 -0.7996 -2.5263
 1333TIP3    H2 4006   5.392   0.520   4.565  0.4422 -0.4699  0.9890
 1334TIP3   OH2 4007   2.185   5.097   3.193 -0.5924  0.3248  0.6790
 1334TIP3    H1 4008   2.155   5.182   3.162  0.8944  0.9222  0.8449
 1334TIP3    H2 4009   2.277   5.093   3.170 -1.3774 -2.8460 -2.8278
 1335TIP3   OH2 4010   3.707   1.595   3.632  0.1623 -0.0805  0.3908
 1335TIP3    H1 4011   3.710   1.684   3.666 -0.7797  0.1806 -0.1577
 1335TIP3    H2 4012   3.772   1.547   3.683 -1.0651  0.3238  2.4820
 1336TIP3   OH2 4013   3.178   0.581   2.049 -0.3030  0.1458 -0.4662
 1336TIP3    H1 4014   3.150   0.611   2.135 -0.8189  1.5226 -1.0667
 1336TIP3    H2 4015   3.273   0.587   2.050 -0.3724  2.9388 -0.8454
 1337TIP3   OH2 4016   1.881   2.695   1.670  0.5119 -0.6674  0.4672
 1337TIP3    H1 4017   1.831   2.644   1.606  0.4375 -0.7344  0.5773
 1337TIP3    H2 4018   1.971   2.693   1.638 -0.0019  2.3214 -1.6609
 1338TIP3   OH2 4019   3.611   2.291   2.723  0.0559 -0.3954 -0.0093
 1338TIP3    H1 4020   3.668   2.285   2.646  2.3923 -1.1159  1.6757
 1338TIP3    H2 4021   3.523   2.304   2.686  1.4294  2.7329 -2.7122
 1339TIP3   OH2 4022   2.448   5.839   3.653 -0.6003  0.0836  0.6002
 1339TIP3    H1 4023   2.450   5.777   3.726 -3.7277 -2.5901 -1.3236
 1339TIP3    H2 4024   2.361   5.878   3.658 -0.3632  0.8671 -0.9200
 1340TIP3   OH2 4025   2.161   2.976   1.017 -0.3407 -0.1793 -0.3689
 1340TIP3    H1 4026   2.142   2.936   0.933 -1.8197  0.9978 -0.6503
 1340TIP3    H2 4027   2.100   2.935   1.078  0.9912 -1.3107  0.2488
 1341TIP3   OH2 4028   4.401   0.284   1.592 -0.0814 -0.1966  0.1014
 1341TIP3    H1 4029   4.443   0.264   1.676 -0.5911  0.6707  0.5790
 1341TIP3    H2 4030   4.311   0.307   1.615  0.3384  2.2193 -0.4037
 1342TIP3   OH2 4031   4.571   1.144   1.772  0.5583  0.1579  0.4829
 1342TIP3    H1 4032   4.566   1.183   1.859  0.7893 -0.2112  0.6627
 1342TIP3    H2 4033   4.635   1.074   1.780  1.5527  0.9488 -0.3062
 1343TIP3   OH2 4034   4.956   0.114   3.973 -0.0864 -0.4484  0.7141
 1343TIP3    H1 4035   4.892   0.177   4.007  0.3255 -0.4972  1.6010
 1343TIP3    H2 4036   5.001   0.082   4.051  0.6945 -0.7658  0.1343
 1344TIP3   OH2 4037   3.649   1.563   4.744 -0.1738  0.2184  0.4876
 1344TIP3    H1 4038   3.555   1.561   4.731  0.1587 -1.8954 -3.0959
 1344TIP3    H2 4039   3.680   1.634   4.689  0.4695 -1.1036 -0.9500
 1345TIP3   OH2 4040   4.178   4.941   3.477  0.1801 -0.3405  0.3708
 1345TIP3    H1 4041   4.174   4.996   3.556  2.3145  0.4516 -0.0128
 1345TIP3    H2 4042   4.239   4.871   3.500  1.2407  0.1924 -0.7060
 1346TIP3   OH2 4043   3.121   0.293   0.243 -0.3081  0.2942  0.4453
 1346TIP3    H1 4044   3.169   0.374   0.257 -0.3771  0.2750  0.8329
 1346TIP3    H2 4045   3.048   0.298   0.306 -0.5219  0.1012  0.2126
 1347TIP3   OH2 4046   4.672   0.458   0.606 -0.0906  0.1039  0.1227
 1347TIP3    H1 4047   4.685   0.374   0.650  1.4772 -0.1906 -0.8159
 1347TIP3    H2 4048   4.682   0.439   0.513 -0.4769  1.2077 -0.1610
 1348TIP3   OH2 4049   5.267   4.324   1.277  0.4224  0.2593  0.0382
 1348TIP3    H1 4050   5.319   4.296   1.352  1.1674 -0.2129 -0.6421
 1348TIP3    H2 4051   5.321   4.389   1.233  0.2175  0.1508 -0.3777
 1349TIP3   OH2 4052   4.058   3.550   1.556 -0.6545 -0.1564 -0.5403
 1349TIP3    H1 4053   4.124   3.493   1.595  0.0598  0.5440 -0.7069
 1349TIP3    H2 4054   4.059   3.528   1.463 -1.6221 -1.0920 -0.3471
 1350TIP3   OH2 4055   1.769   4.026   4.017 -0.1173 -0.1529 -0.6060
 1350TIP3    H1 4056   1.803   4.111   4.047  0.3350  0.0365 -1.6058
 1350TIP3    H2 4057   1.755   3.976   4.097  0.5312  0.5275 -0.0500
 1351TIP3   OH2 4058   4.253   4.757   0.194 -0.2189 -0.6773  0.1984
 1351TIP3    H1 4059   4.331   4.703   0.194  1.5746  1.7437  0.3782
 1351TIP3    H2 4060   4.234   4.772   0.101  1.1682  0.8062  0.0984
 1352TIP3   OH2 4061   3.861   0.878   0.376  0.1401 -0.2327 -0.1511
 1352TIP3    H1 4062   3.894   0.952   0.325  0.1861 -0.3639 -0.3130
 1352TIP3    H2 4063   3.875   0.904   0.467 -1.9740  0.9659 -0.1086
 1353TIP3   OH2 4064   1.425   1.782   5.045  0.1005  0.5402 -0.2049
 1353TIP3    H1 4065   1.364   1.743   5.106  0.2738  0.9846  0.2574
 1353TIP3    H2 4066   1.506   1.733   5.057 -0.4629 -0.8361 -1.6505
 1354TIP3   OH2 4067   4.958   3.195   1.685  0.6160 -0.1727 -0.0740
 1354TIP3    H1 4068   4.913   3.156   1.610 -1.5243  1.2213  0.3988
 1354TIP3    H2 4069   4.959   3.288   1.666 -1.1585  0.3889  2.1198
 1355TIP3   OH2 4070   2.688   5.948   2.626  0.2873 -0.2377  0.7115
 1355TIP3    H1 4071   2.660   6.019   2.569  1.6877 -0.4755 -0.3101
 1355TIP3    H2 4072   2.663   5.868   2.578  3.5750 -0.4968 -0.8213
 1356TIP3   OH2 4073   5.282   3.541   3.009 -0.0152 -0.0618  0.2437
 1356TIP3    H1 4074   5.364   3.494   2.991 -1.7287 -2.5376 -1.8047
 1356TIP3    H2 4075   5.294   3.627   2.970  1.5093 -0.4513 -0.2087
 1357TIP3   OH2 4076   4.533   4.784   2.081  0.9481  0.4465 -0.3434
 1357TIP3    H1 4077   4.551   4.795   1.988  0.0422 -1.2310 -0.7681
 1357TIP3    H2 4078   4.589   4.711   2.108  0.1053 -0.0850  0.0299
 1358TIP3   OH2 4079   2.577   1.139   4.103 -0.1220  0.0153 -0.3053
 1358TIP3    H1 4080   2.510   1.080   4.068 -0.2536 -0.3994  0.6232
 1358TIP3    H2 4081   2.647   1.138   4.037 -0.6847 -0.1629 -0.9082
 1359TIP3   OH2 4082   5.963   2.306   3.173 -0.2672 -0.1593  0.5369
 1359TIP3    H1 4083   5.925   2.224   3.203  1.0219 -0.7714  0.5561
 1359TIP3    H2 4084   5.930   2.372   3.235 -1.9776 -0.4873  0.0306
 1360TIP3   OH2 4085   3.033   4.355   4.353  0.0523 -0.1302 -0.2628
 1360TIP3    H1 4086   2.956   4.299   4.340 -0.5979  0.7081 -0.0864
 1360TIP3    H2 4087   3.000   4.444   4.343  1.1523  0.2220 -0.9002
 1361TIP3   OH2 4088   4.378   3.803   2.956  0.2934 -0.3565  0.2850
 1361TIP3    H1 4089   4.427   3.832   3.033 -2.2669  0.3264  1.7781
 1361TIP3    H2 4090   4.375   3.708   2.965 -0.0961 -0.2753  1.1210
 1362TIP3   OH2 4091   4.021   2.349   2.417  0.4549  0.1233 -0.2880
 1362TIP3    H1 4092   4.011   2.422   2.356  2.1529 -0.4642 -1.3568
 1362TIP3    H2 4093   4.115   2.329   2.414  0.5512 -0.1019  2.3574
 1363TIP3   OH2 4094   6.230   1.252   1.403 -0.1053  0.7005 -0.0017
 1363TIP3    H1 4095   6.318   1.263   1.366  0.2508  0.4687  0.7519
 1363TIP3    H2 4096   6.172   1.253   1.327  0.4539  1.7728 -0.4363
 1364TIP3   OH2 4097   3.663   3.143   1.344  0.0766 -0.3338 -0.4095
 1364TIP3    H1 4098   3.637   3.199   1.271  0.4691  1.5005  0.7781
 1364TIP3    H2 4099   3.585   3.138   1.400  0.0979 -0.8572 -0.4151
 1365TIP3   OH2 4100   1.239   1.147   1.959  0.5668 -0.0184 -0.3396
 1365TIP3    H1 4101   1.250   1.242   1.951 -0.1705  0.0951 -0.0558
 1365TIP3    H2 4102   1.314   1.110   1.911  1.2684  0.7085  0.1584
 1366TIP3   OH2 4103   4.020   5.281   3.125 -0.1606  0.2184  0.3823
 1366TIP3    H1 4104   3.993   5.196   3.092 -0.0818  0.3605 -0.0493
 1366TIP3    H2 4105   4.057   5.262   3.212 -0.8491 -0.0811  0.6166
 1367TIP3   OH2 4106   4.732   3.726   2.916 -0.4333 -0.0698 -0.4161
 1367TIP3    H1 4107   4.745   3.685   3.001 -1.1155  0.2761 -0.1358
 1367TIP3    H2 4108   4.773   3.813   2.925 -0.7220  0.0600 -0.3615
 1368TIP3   OH2 4109   1.293   1.723   4.735  0.0553  0.3295  0.2758
 1368TIP3    H1 4110   1.204   1.703   4.762 -0.4241  0.7787 -0.8861
 1368TIP3    H2 4111   1.321   1.646   4.686  0.2378  0.2642  0.4823
 1369TIP3   OH2 4112   6.049   2.612   1.029 -0.3351 -1.1123 -0.1127
 1369TIP3    H1 4113   6.006   2.640   1.110  1.6815  0.6670  0.4480
 1369TIP3    H2 4114   6.040   2.688   0.971 -0.1264 -1.6769 -0.8918
 1370TIP3   OH2 4115   0.881   1.712   3.274  0.1725 -0.3423  0.0700
 1370TIP3    H1 4116   0.865   1.622   3.303 -0.4494 -0.0658  0.6007
 1370TIP3    H2 4117   0.801   1.736   3.227  1.2465 -0.8768 -2.1901
 1371TIP3   OH2 4118   4.999   1.501   2.248  0.6934 -0.0723 -0.7380
 1371TIP3    H1 4119   5.062   1.441   2.209  1.1442  0.1774 -0.3999
 1371TIP3    H2 4120   5.043   1.536   2.325  0.5736  0.9565 -1.1166
 1372TIP3   OH2 4121   3.896   4.025   1.789 -0.4099 -0.3758  0.4629
 1372TIP3    H1 4122   3.976   3.975   1.773 -1.1766 -2.0757  1.6395
 1372TIP3    H2 4123   3.857   3.983   1.865 -2.0949  0.8515  0.3181
 1373TIP3   OH2 4124   1.518   5.748   2.547  0.3631 -0.3478  0.1357
 1373TIP3    H1 4125   1.598   5.800   2.534  1.5060 -1.9325  0.5454
 1373TIP3    H2 4126   1.546   5.658   2.535 -1.7248 -0.8788 -1.3315
 1374TIP3   OH2 4127   5.558   3.843   1.233 -0.0980  0.2742 -0.1689
 1374TIP3    H1 4128   5.545   3.937   1.235  0.3138  0.3875 -1.7414
 1374TIP3    H2 4129   5.515   3.814   1.152 -2.7977 -1.3308  1.6609
 1375TIP3   OH2 4130   0.327   3.853   2.306  0.2656 -0.6766 -0.3970
 1375TIP3    H1 4131   0.407   3.881   2.263  0.3951  0.5523  0.5789
 1375TIP3    H2 4132   0.264   3.840   2.235  0.3577  1.6664 -0.9763
 1376TIP3   OH2 4133   1.033   2.575   0.214  0.6102  0.4079 -0.2941
 1376TIP3    H1 4134   1.044   2.530   0.297  1.4991  0.8440 -0.1672
 1376TIP3    H2 4135   1.033   2.668   0.236  1.7163  0.5579 -0.8662
 1377TIP3   OH2 4136   3.058   5.462   3.755 -0.1014 -0.3950  0.1318
 1377TIP3    H1 4137   3.147   5.429   3.764 -0.4400 -1.3393  0.1095
 1377TIP3    H2 4138   3.045   5.473   3.661  0.2061  0.3718  0.1725
 1378TIP3   OH2 4139   2.507   2.520   1.721 -0.0443  0.0223  0.1834
 1378TIP3    H1 4140   2.421   2.479   1.709 -0.3001  0.1572  1.4131
 1378TIP3    H2 4141   2.518   2.525   1.816  1.7681 -0.8871  0.0570
 1379TIP3   OH2 4142   2.852   1.097   4.014 -0.3197 -0.3011  0.0676
 1379TIP3    H1 4143   2.843   1.002   4.025 -0.1404 -0.3042  0.2023
 1379TIP3    H2 4144   2.885   1.127   4.098  3.2638 -0.6286 -1.0409
 1380TIP3   OH2 4145   5.969   0.199   0.370 -0.1399  0.1790 -0.0419
 1380TIP3    H1 4146   6.032   0.129   0.359  0.5694  1.0999 -2.1711
 1380TIP3    H2 4147   5.884   0.156   0.358  0.0961 -0.7883  1.4216
 1381TIP3   OH2 4148   6.130   1.553   1.002  0.1945  0.7468  0.0760
 1381TIP3    H1 4149   6.044   1.524   1.032  0.3465  1.2574  1.0492
 1381TIP3    H2 4150   6.187   1.542   1.078  1.2096 -0.4432 -0.8245
 1382TIP3   OH2 4151   1.662   4.070   0.704  0.3602  0.0668 -0.2610
 1382TIP3    H1 4152   1.666   3.979   0.730  2.6909  0.4396  0.9031
 1382TIP3    H2 4153   1.596   4.109   0.762 -1.1975 -0.9686 -1.2711
 1383TIP3   OH2 4154   6.165   0.925   0.159  0.0447  0.3044 -0.1762
 1383TIP3    H1 4155   6.130   0.856   0.215 -1.8544 -0.3941 -2.0930
 1383TIP3    H2 4156   6.163   1.004   0.213  1.6248 -0.9209  1.8458
 1384TIP3   OH2 4157   4.726   4.875   1.424  0.0688  0.4550  0.1865
 1384TIP3    H1 4158   4.701   4.802   1.480  0.5627  0.1914  0.0771
 1384TIP3    H2 4159   4.680   4.951   1.460  0.0142  0.2011  0.6603
 1385TIP3   OH2 4160   5.616   1.169   2.910 -0.4375 -0.3548  0.8297
 1385TIP3    H1 4161   5.534   1.207   2.879 -0.3958  0.0141  1.1622
 1385TIP3    H2 4162   5.683   1.212   2.858 -0.4688 -0.8508  0.3713
 1386TIP3   OH2 4163   0.871   3.837   2.998  0.4139  0.9301  0.8040
 1386TIP3    H1 4164   0.901   3.915   3.046 -0.3270  2.5011 -1.1349
 1386TIP3    H2 4165   0.782   3.822   3.031  0.4738  1.0443  1.0225
 1387TIP3   OH2 4166   6.081   1.836   1.067  0.0556 -0.0023  0.2667
 1387TIP3    H1 4167   6.117   1.925   1.071 -1.9105  0.8318  0.8627
 1387TIP3    H2 4168   6.011   1.842   1.002  0.3685 -1.3167 -0.2148
 1388TIP3   OH2 4169   5.041   3.514   3.120  0.3140 -0.1344 -0.1605
 1388TIP3    H1 4170   5.028   3.605   3.147  0.6187  0.2837 -1.3656
 1388TIP3    H2 4171   5.128   3.514   3.079 -1.6839  0.3268 -5.0741
 1389TIP3   OH2 4172   4.647   3.346   3.928 -0.0786  0.0190  0.1639
 1389TIP3    H1 4173   4.721   3.342   3.989  1.4630  1.4341 -1.5181
 1389TIP3    H2 4174   4.676   3.296   3.852 -1.0890  0.1280 -0.3100
 1390TIP3   OH2 4175   2.251   4.976   0.981 -0.3885 -0.0471 -0.0734
 1390TIP3    H1 4176   2.193   4.904   1.005  0.1948 -1.3749 -2.2894
 1390TIP3    H2 4177   2.258   4.969   0.885  1.8599  1.2602 -0.0608
 1391TIP3   OH2 4178   5.376   1.282   4.469  0.0133  0.1592 -0.3736
 1391TIP3    H1 4179   5.452   1.310   4.520 -1.0690 -0.1627  1.5456
 1391TIP3    H2 4180   5.343   1.363   4.429  0.6936  0.4959 -0.2691
 1392TIP3   OH2 4181   2.426   2.937   4.923  0.2523  0.0467  0.3027
 1392TIP3    H1 4182   2.353   2.889   4.883 -0.3916 -0.0971  1.5888
 1392TIP3    H2 4183   2.395   3.027   4.928  0.6568  0.2182 -0.2676
 1393TIP3   OH2 4184   1.266   3.145   2.527 -0.1034 -0.0127  0.1578
 1393TIP3    H1 4185   1.360   3.140   2.547 -0.2566 -1.4369  0.6014
 1393TIP3    H2 4186   1.223   3.123   2.610 -0.8608  1.1779  0.1093
 1394TIP3   OH2 4187   4.051   2.768   1.205  0.5772  0.3380 -0.6625
 1394TIP3    H1 4188   4.003   2.774   1.287  1.8199  3.4895 -0.0207
 1394TIP3    H2 4189   4.119   2.703   1.221  1.1641  1.3232  1.0508
 1395TIP3   OH2 4190   3.388   1.571   4.733 -0.1961 -0.5206 -0.4430
 1395TIP3    H1 4191   3.343   1.563   4.817  0.6490  2.0511  0.3248
 1395TIP3    H2 4192   3.325   1.614   4.676  0.0081 -0.2680 -0.4774
 1396TIP3   OH2 4193   1.913   0.353   3.234  0.1241  0.2214 -0.5711
 1396TIP3    H1 4194   1.961   0.287   3.283 -0.7893 -0.1218 -0.1079
 1396TIP3    H2 4195   1.926   0.330   3.142  0.1690 -0.3390 -0.4267
 1397TIP3   OH2 4196   0.342   1.860   4.434 -0.1210  0.5398 -0.6392
 1397TIP3    H1 4197   0.383   1.827   4.514 -1.6082  0.2429  0.0361
 1397TIP3    H2 4198   0.386   1.943   4.417 -0.6826  1.2733  1.2731
 1398TIP3   OH2 4199   1.473   0.077   4.668  0.1280 -0.0244 -0.1105
 1398TIP3    H1 4200   1.510   0.154   4.711 -0.2520  0.7422 -1.1280
 1398TIP3    H2 4201   1.530   0.062   4.593  1.0569 -1.6368  0.8588
 1399TIP3   OH2 4202   1.819   3.201   2.556 -0.1141  0.1855  0.1509
 1399TIP3    H1 4203   1.810   3.296   2.557 -1.9979  0.1058  2.4730
 1399TIP3    H2 4204   1.880   3.182   2.627 -0.4275 -0.3457  0.2868
 1400TIP3   OH2 4205   4.564   2.459   3.619 -0.0207 -0.0436 -0.4758
 1400TIP3    H1 4206   4.539   2.524   3.685  0.9193  0.7203 -0.8652
 1400TIP3    H2 4207   4.529   2.494   3.537 -2.5931 -1.7499 -0.2479
 1401TIP3   OH2 4208   5.501   3.064   3.679 -0.2608 -0.4216 -0.1089
 1401TIP3    H1 4209   5.526   3.058   3.587 -0.5994  1.0415 -0.3286
 1401TIP3    H2 4210   5.532   2.983   3.718  0.6711 -0.6828 -1.3315
 1402TIP3   OH2 4211   1.178   3.334   0.715 -0.4259 -0.1613 -0.9675
 1402TIP3    H1 4212   1.237   3.368   0.782 -0.3664 -2.2960  0.1680
 1402TIP3    H2 4213   1.121   3.407   0.694  0.9817  1.2163 -0.2318
 1403TIP3   OH2 4214   0.104   0.066   2.675  0.5377  0.4347 -0.3237
 1403TIP3    H1 4215   0.033   0.019   2.718  2.0632  0.7571  2.7840
 1403TIP3    H2 4216   0.161  -0.002   2.639  0.6664  0.0062  0.6614
 1404TIP3   OH2 4217   4.702   0.035   2.891  0.0080 -0.2910  0.3412
 1404TIP3    H1 4218   4.780   0.089   2.877  1.6276 -2.1797  1.5531
 1404TIP3    H2 4219   4.702  -0.026   2.818 -0.7105  0.0859  0.0175
 1405TIP3   OH2 4220   4.956   3.524   4.510  0.7588  0.2736 -0.1694
 1405TIP3    H1 4221   4.886   3.480   4.461  0.4961 -0.5545  0.9016
 1405TIP3    H2 4222   5.011   3.452   4.541 -0.3988  0.5132  2.7496
 1406TIP3   OH2 4223   6.011   4.414   1.828  0.2078 -0.3978  0.6730
 1406TIP3    H1 4224   6.017   4.399   1.923  2.1817  1.1669  0.8556
 1406TIP3    H2 4225   5.927   4.460   1.818  1.3752  2.3617  2.2088
 1407TIP3   OH2 4226   2.812   1.695   0.344  0.3533  0.3494  0.2345
 1407TIP3    H1 4227   2.845   1.719   0.257 -0.1416  0.1643 -0.0088
 1407TIP3    H2 4228   2.851   1.760   0.403  1.1787  0.1119 -0.0330
 1408TIP3   OH2 4229   5.380   3.195   2.966  0.3556  0.1322  0.1676
 1408TIP3    H1 4230   5.434   3.273   2.983 -0.1044  0.2324  1.2565
 1408TIP3    H2 4231   5.441   3.132   2.928  0.5345  1.3560 -1.7175
 1409TIP3   OH2 4232   5.300   1.614   2.698  0.5860  0.1212 -0.3394
 1409TIP3    H1 4233   5.288   1.564   2.778  1.5301  1.7481  0.8808
 1409TIP3    H2 4234   5.372   1.674   2.717  1.1019  0.3039 -2.5472
 1410TIP3   OH2 4235   4.774   2.695   3.424  0.1534  0.1380  0.0129
 1410TIP3    H1 4236   4.803   2.679   3.514  0.5175 -2.0492 -0.4325
 1410TIP3    H2 4237   4.690   2.649   3.418  0.5714 -0.5374 -0.9916
 1411TIP3   OH2 4238   3.741   0.406   1.838  0.2317  0.3679 -0.0716
 1411TIP3    H1 4239   3.798   0.387   1.913  0.6748  2.0309  0.0562
 1411TIP3    H2 4240   3.687   0.480   1.867 -2.0809 -1.1731 -0.1787
 1412TIP3   OH2 4241   2.899   5.023   4.873  0.0145 -0.3168 -0.4038
 1412TIP3    H1 4242   2.970   5.000   4.813 -0.4841 -1.4982 -0.5655
 1412TIP3    H2 4243   2.832   4.956   4.859 -2.8858  2.7330 -3.0468
 1413TIP3   OH2 4244   4.349   4.276   1.137 -0.0333 -0.3598  0.1520
 1413TIP3    H1 4245   4.318   4.365   1.153 -0.8394 -0.1715 -2.1655
 1413TIP3    H2 4246   4.444   4.283   1.135 -0.0703  0.3216  0.5608
 1414TIP3   OH2 4247   1.025   2.742   2.057  0.1191  0.3487 -0.1608
 1414TIP3    H1 4248   1.099   2.702   2.104 -0.1742 -2.0184 -1.5500
 1414TIP3    H2 4249   0.950   2.727   2.114  0.5105  1.8531  0.7899
 1415TIP3   OH2 4250   1.466   5.932   1.705  0.4018 -0.4952  0.7798
 1415TIP3    H1 4251   1.505   6.013   1.672 -2.5218  0.1150 -1.6975
 1415TIP3    H2 4252   1.426   5.958   1.789 -1.9397  1.2657 -0.7382
 1416TIP3   OH2 4253   0.083   2.660   3.977  0.2153  0.2987  0.2403
 1416TIP3    H1 4254   0.173   2.647   4.007  1.3763  1.6874 -2.3260
 1416TIP3    H2 4255   0.056   2.741   4.021  0.3465  0.0906  0.7157
 1417TIP3   OH2 4256   2.362   2.339   3.044 -0.5485  0.3501  0.0758
 1417TIP3    H1 4257   2.408   2.387   2.975 -0.3998  0.2584  0.1094
 1417TIP3    H2 4258   2.296   2.401   3.077  0.0406  0.7477  0.5329
 1418TIP3   OH2 4259   3.155   0.289   4.037 -0.0617  0.6094 -0.1692
 1418TIP3    H1 4260   3.209   0.210   4.026  2.1735  1.7501  1.7397
 1418TIP3    H2 4261   3.155   0.330   3.950 -0.2413 -0.8227 -0.8832
 1419TIP3   OH2 4262   1.259   1.455   4.737 -0.2150  0.3821 -0.1917
 1419TIP3    H1 4263   1.166   1.447   4.758 -0.3595 -2.1584 -1.3178
 1419TIP3    H2 4264   1.268   1.413   4.651  2.2368 -1.3406  0.7585
 1420TIP3   OH2 4265   6.143   5.800   0.969  0.3194  0.3456 -0.6442
 1420TIP3    H1 4266   6.135   5.725   1.028  2.4044  0.8535  0.3750
 1420TIP3    H2 4267   6.060   5.846   0.979 -0.2236 -0.7519  0.2347
 1421TIP3   OH2 4268   3.066   2.427   3.817 -0.0225 -0.2304  0.4341
 1421TIP3    H1 4269   3.041   2.512   3.781 -1.4863 -1.5762 -1.9986
 1421TIP3    H2 4270   2.986   2.394   3.858  0.1981 -0.9194  0.3229
 1422TIP3   OH2 4271   2.393   3.378   3.826 -0.0217  0.2794  0.5085
 1422TIP3    H1 4272   2.310   3.378   3.874 -1.3387 -0.4454 -1.6182
 1422TIP3    H2 4273   2.392   3.459   3.776  1.5634  1.2735  1.9737
 1423TIP3   OH2 4274   1.737   3.170   3.259 -0.6052 -0.0323  0.0850
 1423TIP3    H1 4275   1.735   3.076   3.240 -1.4786 -0.3725  1.6681
 1423TIP3    H2 4276   1.766   3.175   3.350  0.4793  1.3211 -0.2958
 1424TIP3   OH2 4277   3.528   1.247   1.017 -0.0253 -0.0535 -0.5156
 1424TIP3    H1 4278   3.474   1.272   0.942  1.0447  0.5792 -1.0923
 1424TIP3    H2 4279   3.514   1.317   1.081  0.9052  0.6726 -1.0822
 1425TIP3   OH2 4280   4.033   3.823   1.248 -0.0783 -0.0233  0.4481
 1425TIP3    H1 4281   3.975   3.871   1.306  0.3404  0.8382  0.1835
 1425TIP3    H2 4282   4.044   3.738   1.289 -1.6264 -0.2592  0.4256
 1426TIP3   OH2 4283   1.645   1.043   3.171 -0.5338  0.2757  0.5619
 1426TIP3    H1 4284   1.721   1.047   3.230  2.6128  0.5955 -3.0942
 1426TIP3    H2 4285   1.603   1.128   3.182  1.6125  1.4348  0.4880
 1427TIP3   OH2 4286   5.030   4.153   1.861 -0.4675 -0.3589  0.0497
 1427TIP3    H1 4287   5.001   4.109   1.941 -1.1455  1.4245  0.8412
 1427TIP3    H2 4288   4.962   4.218   1.844  1.4163  1.7242  0.0647
 1428TIP3   OH2 4289   2.867   0.631   0.436  0.3699  0.2201 -0.2480
 1428TIP3    H1 4290   2.782   0.631   0.390  0.1699  1.7060  0.0749
 1428TIP3    H2 4291   2.844   0.648   0.527  0.9224 -0.8965  0.1227
 1429TIP3   OH2 4292   5.926   2.908   4.380  0.1454  0.3553 -0.1106
 1429TIP3    H1 4293   5.851   2.962   4.357  0.5413  0.5781 -0.9103
 1429TIP3    H2 4294   5.903   2.820   4.350 -1.2035 -0.3699  2.6455
 1430TIP3   OH2 4295   5.439   0.742   0.718  0.1816  0.5076  0.4809
 1430TIP3    H1 4296   5.434   0.691   0.638  0.2297  0.1533  0.7013
 1430TIP3    H2 4297   5.388   0.692   0.782  2.8200 -0.9811  1.5971
 1431TIP3   OH2 4298   4.059   3.815   2.175  0.3685 -0.3409 -0.2139
 1431TIP3    H1 4299   4.084   3.899   2.214  0.2602  0.2009 -1.2845
 1431TIP3    H2 4300   4.118   3.804   2.101  0.2305 -1.1071 -0.2183
 1432TIP3   OH2 4301   4.211   5.070   4.422 -0.2474 -0.0165 -0.1736
 1432TIP3    H1 4302   4.191   5.090   4.513 -0.4377  1.5362 -0.5279
 1432TIP3    H2 4303   4.274   5.137   4.396 -0.2971 -0.3555 -1.2238
 1433TIP3   OH2 4304   1.841   4.870   2.237  0.0748  0.7561  0.1187
 1433TIP3    H1 4305   1.918   4.903   2.191 -1.1213  1.1578 -1.7135
 1433TIP3    H2 4306   1.767   4.912   2.193 -1.2439 -0.2006  1.3177
 1434TIP3   OH2 4307   6.251   2.583   0.148  0.4243 -0.3585 -0.0081
 1434TIP3    H1 4308   6.228   2.668   0.111  0.3145  0.4290  1.7715
 1434TIP3    H2 4309   6.173   2.529   0.136  0.8552 -0.5828 -2.0974
 1435TIP3   OH2 4310   5.621   5.340   4.548  0.1603 -0.2686 -0.4473
 1435TIP3    H1 4311   5.633   5.420   4.496 -0.4679  0.1275 -0.0045
 1435TIP3    H2 4312   5.528   5.340   4.570 -0.0922 -1.7267 -1.3829
 1436TIP3   OH2 4313   3.437   2.054   3.314  0.2713  0.1852 -0.6280
 1436TIP3    H1 4314   3.431   1.993   3.240  2.2370 -0.3742 -0.3887
 1436TIP3    H2 4315   3.482   2.131   3.278 -1.7703  1.3671 -0.8075
 1437TIP3   OH2 4316   3.451   4.420   0.008  0.7138 -0.1328 -0.3683
 1437TIP3    H1 4317   3.419   4.367   0.081  0.3780 -2.6964 -2.2626
 1437TIP3    H2 4318   3.372   4.456  -0.031  0.7952  0.1682 -0.2580
 1438TIP3   OH2 4319   4.082   2.865   4.586 -0.1745 -0.4417  0.0846
 1438TIP3    H1 4320   4.075   2.907   4.671  1.3121  1.8636 -0.8288
 1438TIP3    H2 4321   4.152   2.801   4.596 -0.2048 -0.3930  0.6422
 1439TIP3   OH2 4322   0.214   4.998   1.928 -0.4167 -0.1306  0.4969
 1439TIP3    H1 4323   0.143   5.027   1.986 -0.9769 -1.1469  0.3427
 1439TIP3    H2 4324   0.171   4.978   1.845  0.0984 -0.4683  0.3073
 1440TIP3   OH2 4325   1.449   2.149   2.315 -0.2058 -0.3543  0.6442
 1440TIP3    H1 4326   1.521   2.093   2.343 -0.7741 -0.4105  2.0763
 1440TIP3    H2 4327   1.417   2.109   2.234  1.2585 -0.3966  0.0563
 1441TIP3   OH2 4328   2.658   2.576   0.362  0.0654  0.1540  0.1879
 1441TIP3    H1 4329   2.727   2.641   0.366 -1.3519  1.7925 -0.7774
 1441TIP3    H2 4330   2.701   2.496   0.331  1.2949  1.4657 -1.6335
 1442TIP3   OH2 4331   1.939   3.840   3.870 -0.5440  0.3323 -0.2394
 1442TIP3    H1 4332   1.908   3.926   3.897  0.1008  0.6277 -0.4131
 1442TIP3    H2 4333   2.035   3.847   3.874 -0.4884 -0.8204  1.1457
 1443TIP3   OH2 4334   5.362   5.397   3.418  0.1089  0.3408  0.1843
 1443TIP3    H1 4335   5.389   5.438   3.500 -0.4255  0.4942  0.2828
 1443TIP3    H2 4336   5.286   5.448   3.389  0.5027  0.5107 -0.5862
 1444TIP3   OH2 4337   4.782   3.400   4.338 -0.2881  0.7829 -0.5262
 1444TIP3    H1 4338   4.744   3.316   4.362  0.1628  1.2427  2.1407
 1444TIP3    H2 4339   4.831   3.382   4.259  2.4917 -2.3588  1.6191
 1445TIP3   OH2 4340   6.130   0.457   0.930  0.1212 -0.4459 -0.1749
 1445TIP3    H1 4341   6.122   0.550   0.913  0.8890  0.0134  1.6529
 1445TIP3    H2 4342   6.216   0.433   0.895  0.2054 -0.3090 -0.0616
 1446TIP3   OH2 4343   2.410   5.122   1.431  0.0464  0.3424  0.2174
 1446TIP3    H1 4344   2.358   5.125   1.512  0.1827  1.1118  0.2908
 1446TIP3    H2 4345   2.382   5.200   1.382 -0.2760 -0.2952 -0.6362
 1447TIP3   OH2 4346   2.857   3.712   2.133 -0.0577 -0.1618  0.5542
 1447TIP3    H1 4347   2.772   3.702   2.175  0.0160 -0.6060  0.5973
 1447TIP3    H2 4348   2.863   3.639   2.071 -0.3507  0.7195 -0.5508
 1448TIP3   OH2 4349   1.401   0.134   2.466  0.1757  0.5461 -0.0438
 1448TIP3    H1 4350   1.495   0.114   2.473  0.0572  0.3977  1.4152
 1448TIP3    H2 4351   1.379   0.174   2.550 -1.2970 -0.4178  0.0572
 1449TIP3   OH2 4352   6.296   3.414   0.131  0.5782  0.1841 -0.0177
 1449TIP3    H1 4353   6.391   3.415   0.125  0.5232  0.0302 -1.2052
 1449TIP3    H2 4354   6.272   3.322   0.127  0.4367  0.0699  2.1177
 1450TIP3   OH2 4355   2.630   4.195   3.089  0.5259 -0.1487  0.1930
 1450TIP3    H1 4356   2.695   4.193   3.019  0.9271  1.1848  0.4871
 1450TIP3    H2 4357   2.559   4.249   3.054  0.4519  0.0110  0.5841
 1451TIP3   OH2 4358   1.556   1.565   1.923 -0.6273  0.5047 -0.2335
 1451TIP3    H1 4359   1.586   1.634   1.863 -0.9969  0.2823 -0.6765
 1451TIP3    H2 4360   1.559   1.606   2.010  2.6226 -0.0149  0.0117
 1452TIP3   OH2 4361   2.729   0.045   0.278 -0.0296 -0.3323  0.1649
 1452TIP3    H1 4362   2.641   0.016   0.304 -0.0183 -0.9318 -0.4531
 1452TIP3    H2 4363   2.714   0.125   0.228 -0.2327 -0.5083 -0.0550
 1453TIP3   OH2 4364   3.347   2.527   4.509 -0.3036  0.0538 -0.1694
 1453TIP3    H1 4365   3.438   2.546   4.534  0.2628 -0.1465 -1.9790
 1453TIP3    H2 4366   3.309   2.612   4.490 -1.2181  0.3882  2.6868
 1454TIP3   OH2 4367   5.753   4.865   3.412  0.5983 -0.0429 -0.1574
 1454TIP3    H1 4368   5.778   4.948   3.451  0.6167 -0.6730  1.2284
 1454TIP3    H2 4369   5.786   4.799   3.472  0.9991 -1.0852 -1.4654
 1455TIP3   OH2 4370   1.800   4.848   1.507 -0.1193 -0.4728 -0.3296
 1455TIP3    H1 4371   1.721   4.803   1.475 -0.8059  0.5531 -0.1457
 1455TIP3    H2 4372   1.777   4.941   1.501  0.3870 -0.2039  1.4857
 1456TIP3   OH2 4373   4.178   4.645   2.555 -0.0397  0.0453 -0.2674
 1456TIP3    H1 4374   4.201   4.684   2.639  2.5249  1.5132 -1.5517
 1456TIP3    H2 4375   4.129   4.566   2.578 -1.3831  1.5608  2.5203
 1457TIP3   OH2 4376   6.297   3.652   3.218 -0.4540 -0.0858  0.2976
 1457TIP3    H1 4377   6.379   3.606   3.234 -0.4221 -0.2302 -0.2887
 1457TIP3    H2 4378   6.323   3.740   3.191 -0.4646 -0.4063 -0.7975
 1458TIP3   OH2 4379   1.403   4.798   0.306  0.3795  0.1434  0.3982
 1458TIP3    H1 4380   1.393   4.852   0.227  1.2319  0.9939  0.8382
 1458TIP3    H2 4381   1.320   4.751   0.314 -0.7298  2.0037  0.4349
 1459TIP3   OH2 4382   5.711   1.335   0.491 -0.5170  0.2731  0.2412
 1459TIP3    H1 4383   5.775   1.403   0.466 -0.6177  0.2653 -0.0422
 1459TIP3    H2 4384   5.634   1.354   0.438 -0.6550  0.1166  0.3841
 1460TIP3   OH2 4385   3.374   4.490   0.941  0.1171  0.4188 -0.5231
 1460TIP3    H1 4386   3.357   4.518   0.851 -1.8122  2.5628  0.4010
 1460TIP3    H2 4387   3.309   4.537   0.993  0.8230 -1.1632  1.9553
 1461TIP3   OH2 4388   1.480   0.449   2.026 -0.1404  0.5846  0.0236
 1461TIP3    H1 4389   1.411   0.440   1.960 -0.5298  0.4208  0.4452
 1461TIP3    H2 4390   1.546   0.384   2.001 -0.3743  0.3923 -0.0936
 1462TIP3   OH2 4391   2.040   0.462   0.699  0.7960  0.2845  0.1916
 1462TIP3    H1 4392   2.021   0.471   0.605  0.2595 -1.1443  0.1348
 1462TIP3    H2 4393   1.965   0.414   0.734  0.5534  1.5759  1.5478
 1463TIP3   OH2 4394   1.616   5.561   2.743  0.3912 -0.5561  0.2009
 1463TIP3    H1 4395   1.524   5.547   2.763  0.2361  0.2394  0.0768
 1463TIP3    H2 4396   1.643   5.632   2.801  1.2074 -1.4679  0.9810
 1464TIP3   OH2 4397   1.574   3.135   2.196  0.4662  0.3663 -0.2459
 1464TIP3    H1 4398   1.638   3.064   2.196 -0.2375 -0.2921  1.2238
 1464TIP3    H2 4399   1.596   3.189   2.272  1.0550  1.8250 -1.3941
 1465TIP3   OH2 4400   3.840   2.070   1.717 -0.0614 -0.4147 -0.0678
 1465TIP3    H1 4401   3.906   2.011   1.755 -1.4406 -0.5054  2.3444
 1465TIP3    H2 4402   3.839   2.146   1.775 -0.0038  0.9806 -1.8043
 1466TIP3   OH2 4403   4.978   0.946   2.009  0.0618  0.0114  0.3274
 1466TIP3    H1 4404   5.024   0.945   2.093  0.0238 -0.5683  0.3433
 1466TIP3    H2 4405   4.985   0.857   1.976  1.9764  0.6823 -1.3131
 1467TIP3   OH2 4406   5.443   1.952   1.244 -0.1780  0.1811 -0.3333
 1467TIP3    H1 4407   5.488   1.991   1.319 -0.7181  0.4174 -0.1288
 1467TIP3    H2 4408   5.381   1.890   1.282 -3.5052  3.2652 -0.2290
 1468TIP3   OH2 4409   4.811   1.297   1.744 -0.0870  0.0937  0.0781
 1468TIP3    H1 4410   4.905   1.282   1.739  0.1746  1.7829 -0.6058
 1468TIP3    H2 4411   4.773   1.227   1.690  1.0596  1.5736 -2.8640
 1469TIP3   OH2 4412   3.086  -0.011   2.276 -0.3807 -0.0796 -0.8279
 1469TIP3    H1 4413   3.173  -0.052   2.272 -0.9548 -1.4612  0.2215
 1469TIP3    H2 4414   3.093   0.063   2.216  1.9509  0.6822  0.2375
 1470TIP3   OH2 4415   3.754   5.757   0.752  0.3062 -0.2666  0.4345
 1470TIP3    H1 4416   3.683   5.726   0.696  1.2354  1.7292 -2.0404
 1470TIP3    H2 4417   3.828   5.700   0.732 -0.2942 -1.8963  2.4930
 1471TIP3   OH2 4418   3.214   5.708   1.395 -0.0690  0.4051  0.4152
 1471TIP3    H1 4419   3.273   5.763   1.343 -0.1387  1.3759  1.3125
 1471TIP3    H2 4420   3.261   5.696   1.478 -0.4549 -0.1342  0.5553
 1472TIP3   OH2 4421   5.625   2.617   4.099 -0.4407 -0.1543 -0.3466
 1472TIP3    H1 4422   5.693   2.658   4.045 -0.6312 -0.4027 -0.7739
 1472TIP3    H2 4423   5.629   2.524   4.076 -2.4009  0.1316 -1.9857
 1473TIP3   OH2 4424   4.276   0.193   4.922  0.2004 -0.5822  0.1970
 1473TIP3    H1 4425   4.334   0.265   4.947 -0.3482  0.1426 -0.5607
 1473TIP3    H2 4426   4.271   0.198   4.827 -0.0660 -1.4599  0.1550
 1474TIP3   OH2 4427   5.061   4.142   0.041  0.4463 -0.2159 -0.0304
 1474TIP3    H1 4428   5.126   4.123  -0.026  0.0293 -0.3080 -0.4195
 1474TIP3    H2 4429   4.991   4.187  -0.006  0.3375  0.0965  0.4272
 1475TIP3   OH2 4430   5.219   3.549   0.684 -0.6873 -0.5737  0.1886
 1475TIP3    H1 4431   5.213   3.644   0.677  1.2663 -0.3466  0.7736
 1475TIP3    H2 4432   5.277   3.523   0.612  2.0661 -0.7626  2.3065
 1476TIP3   OH2 4433   4.838   4.531   0.860  0.3044 -0.0871 -0.2149
 1476TIP3    H1 4434   4.749   4.552   0.886  0.4055 -0.7482  0.6984
 1476TIP3    H2 4435   4.828   4.470   0.787 -0.0396 -2.0557  1.3951
 1477TIP3   OH2 4436   3.159   1.655   4.380  0.2589  0.2396 -0.3615
 1477TIP3    H1 4437   3.234   1.599   4.360 -0.4479 -0.7399 -0.3159
 1477TIP3    H2 4438   3.170   1.731   4.323  1.0955 -0.0477 -0.5993
 1478TIP3   OH2 4439   2.599   5.928   4.932  0.4207 -0.0433 -0.0584
 1478TIP3    H1 4440   2.548   5.849   4.910  1.7453 -0.8332 -0.4268
 1478TIP3    H2 4441   2.585   5.987   4.858  0.9759 -0.7503 -0.7545
 1479TIP3   OH2 4442   2.058   4.314  -0.001 -0.3282 -0.2861  0.6115
 1479TIP3    H1 4443   2.036   4.287   0.088 -0.6191 -0.4614  0.4873
 1479TIP3    H2 4444   2.129   4.255  -0.026  1.1408  1.0563  1.4459
 1480TIP3   OH2 4445   3.376   3.557   2.023  0.3863  0.0600  0.1664
 1480TIP3    H1 4446   3.406   3.471   2.051 -0.1926 -0.3760 -0.5229
 1480TIP3    H2 4447   3.295   3.572   2.070  1.3307  0.9919  1.5882
 1481TIP3   OH2 4448   0.804   2.529   1.408  0.6021  0.4381 -0.7312
 1481TIP3    H1 4449   0.713   2.505   1.425  0.7574  0.0887 -0.3856
 1481TIP3    H2 4450   0.808   2.622   1.427  0.1344  0.6290 -1.5014
 1482TIP3   OH2 4451   4.365   0.617   4.007 -0.3920 -0.0524  0.5655
 1482TIP3    H1 4452   4.399   0.543   4.058 -2.1628 -0.9068  0.5752
 1482TIP3    H2 4453   4.430   0.630   3.938  0.3561 -1.0688  1.0522
 1483TIP3   OH2 4454   6.173   0.078   0.087 -0.1608  0.0322  0.7263
 1483TIP3    H1 4455   6.174   0.062   0.181  1.1177  0.4118  0.7913
 1483TIP3    H2 4456   6.232   0.012   0.051 -0.5652 -0.0463  0.1903
 1484TIP3   OH2 4457   5.377   4.661   0.520  0.3308 -0.0743  0.1929
 1484TIP3    H1 4458   5.310   4.593   0.511 -0.2485  0.1582  2.1787
 1484TIP3    H2 4459   5.409   4.676   0.431  0.5977 -3.0269 -0.3142
 1485TIP3   OH2 4460   6.177   4.896   1.937 -0.0174  0.2608  0.7921
 1485TIP3    H1 4461   6.160   4.957   1.865  1.5652  0.9496  0.9789
 1485TIP3    H2 4462   6.095   4.846   1.946 -0.1877  0.0030 -1.6107
 1486TIP3   OH2 4463   1.108   4.409   4.311  0.1828  0.6777 -0.1131
 1486TIP3    H1 4464   1.078   4.318   4.312 -0.6438  0.8342 -2.7912
 1486TIP3    H2 4465   1.080   4.445   4.395 -1.1062 -1.0359  0.2435
 1487TIP3   OH2 4466   2.408   1.230   0.812  0.5861  0.0216  0.1558
 1487TIP3    H1 4467   2.470   1.268   0.874  0.6722  2.7758 -1.4130
 1487TIP3    H2 4468   2.405   1.293   0.740 -2.1304 -1.2548 -1.0128
 1488TIP3   OH2 4469   4.341   4.575   2.964  0.1187 -0.3142  0.1816
 1488TIP3    H1 4470   4.372   4.603   3.050 -0.4852  0.3809  0.1803
 1488TIP3    H2 4471   4.347   4.479   2.966  0.6097 -0.2749  0.7985
 1489TIP3   OH2 4472   1.268   0.279   4.828  0.0621 -0.3581  0.5643
 1489TIP3    H1 4473   1.201   0.227   4.783  0.3936  1.5769 -2.4373
 1489TIP3    H2 4474   1.224   0.362   4.847  1.6162  1.1237 -1.8830
 1490TIP3   OH2 4475   3.098   0.357   4.612 -0.1013  0.0532  0.2809
 1490TIP3    H1 4476   3.173   0.392   4.564  0.5876  0.2443  1.4363
 1490TIP3    H2 4477   3.136   0.327   4.695 -1.3086  0.1605  0.8876
 1491TIP3   OH2 4478   0.734   2.608   0.860  0.1729  0.3286 -0.2682
 1491TIP3    H1 4479   0.788   2.576   0.931 -0.2771 -0.4376 -0.2655
 1491TIP3    H2 4480   0.690   2.686   0.895 -1.0312 -0.7668  0.7295
 1492TIP3   OH2 4481   2.741   2.045   0.129 -0.0063  0.1378  0.6255
 1492TIP3    H1 4482   2.728   1.982   0.058 -2.6885  1.3367 -0.0658
 1492TIP3    H2 4483   2.822   2.090   0.107 -0.0537 -0.4774 -0.9316
 1493TIP3   OH2 4484   3.045   1.995   1.923  0.4787 -0.6170  0.6961
 1493TIP3    H1 4485   3.078   1.956   1.842  1.3507 -0.3954  0.9265
 1493TIP3    H2 4486   3.115   2.055   1.951 -0.3770  0.3061  0.9084
 1494TIP3   OH2 4487   2.272   4.129  -0.012 -0.2242  0.0824  0.0821
 1494TIP3    H1 4488   2.336   4.058  -0.023 -0.7268 -0.3993  0.2310
 1494TIP3    H2 4489   2.263   4.140   0.082  0.2044  0.6788  0.0634
 1495TIP3   OH2 4490   5.148   0.129   0.492 -0.0128  0.7349 -0.7688
 1495TIP3    H1 4491   5.122   0.054   0.546  0.0454  0.2660 -1.3774
 1495TIP3    H2 4492   5.127   0.101   0.403  0.4570  1.2626 -1.0416
 1496TIP3   OH2 4493   4.780   4.075   4.746  0.1548  0.1920  0.0602
 1496TIP3    H1 4494   4.862   4.065   4.698  0.6941 -1.3166  1.2134
 1496TIP3    H2 4495   4.728   3.998   4.723  0.0856 -0.1316  1.2173
 1497TIP3   OH2 4496   3.040   0.133   0.667  0.4547  0.1501  0.0357
 1497TIP3    H1 4497   2.984   0.126   0.590 -0.9213  1.3431  0.8668
 1497TIP3    H2 4498   3.119   0.083   0.645 -0.1162  0.0488 -1.9244
 1498TIP3   OH2 4499   5.007   2.336   4.450  0.2983 -0.5148 -0.9820
 1498TIP3    H1 4500   5.033   2.385   4.372 -0.4158  2.3978  0.5138
 1498TIP3    H2 4501   4.915   2.356   4.462 -0.1154 -2.5090 -0.4373
 1499TIP3   OH2 4502   5.741   4.919   1.209 -0.9821 -0.4565  0.3763
 1499TIP3    H1 4503   5.753   4.827   1.233 -0.6567 -1.0022 -1.6505
 1499TIP3    H2 4504   5.817   4.964   1.247 -0.2516 -1.3368  0.0123
 1500TIP3   OH2 4505   2.411   5.649   2.740 -0.4713  0.4019  0.1349
 1500TIP3    H1 4506   2.330   5.599   2.733  0.5358 -1.3106  0.2587
 1500TIP3    H2 4507   2.458   5.610   2.813  1.3523  0.0271 -1.1748
 1501TIP3   OH2 4508   3.348   2.302   2.606 -0.4679 -0.0725 -0.6505
 1501TIP3    H1 4509   3.285   2.350   2.552 -0.4167  0.0509 -0.6010
 1501TIP3    H2 4510   3.325   2.210   2.594 -0.0223 -0.0841 -1.4200
 1502TIP3   OH2 4511   0.614   2.091   3.067  0.3430  0.3245 -0.3589
 1502TIP3    H1 4512   0.617   2.090   3.162  0.0769  2.1415 -0.3009
 1502TIP3    H2 4513   0.565   2.012   3.043  0.8817 -0.4359  0.9641
 1503TIP3   OH2 4514   1.557   3.573   3.759 -0.3278  0.0977 -0.0487
 1503TIP3    H1 4515   1.639   3.550   3.714 -0.7790 -3.5099  0.7079
 1503TIP3    H2 4516   1.577   3.565   3.852 -1.1357  0.9537  0.2192
 1504TIP3   OH2 4517   0.778   4.448   1.275  0.1344  0.0154 -0.3405
 1504TIP3    H1 4518   0.708   4.397   1.317  0.6577 -0.2618  0.2094
 1504TIP3    H2 4519   0.803   4.513   1.341 -0.1471  0.6395 -0.8352
 1505TIP3   OH2 4520   4.108   1.601   1.691  0.2193  0.2870  0.7155
 1505TIP3    H1 4521   4.087   1.571   1.602 -0.9379 -0.8517  1.3286
 1505TIP3    H2 4522   4.160   1.529   1.728  0.9139  0.8691  0.8835
 1506TIP3   OH2 4523   4.507   1.787   2.821  0.1232  0.3191  0.1465
 1506TIP3    H1 4524   4.587   1.764   2.869  1.1710  2.2837 -0.5673
 1506TIP3    H2 4525   4.450   1.710   2.833  2.4255 -1.5600 -0.1041
 1507TIP3   OH2 4526   6.232   3.797   0.740  0.4656  0.2968  0.2341
 1507TIP3    H1 4527   6.262   3.708   0.760  0.9996  0.6895  1.3079
 1507TIP3    H2 4528   6.137   3.791   0.739  0.4959 -0.8165 -2.4259
 1508TIP3   OH2 4529   2.405   0.600   0.147  0.0146  0.0738 -0.4862
 1508TIP3    H1 4530   2.384   0.686   0.183  0.4068 -0.0198 -0.0272
 1508TIP3    H2 4531   2.354   0.539   0.199 -1.3033  0.1078 -1.6628
 1509TIP3   OH2 4532   0.287   1.094   3.049 -0.5789 -0.0938 -0.0667
 1509TIP3    H1 4533   0.250   1.010   3.025  1.6288 -0.5072 -2.4880
 1509TIP3    H2 4534   0.364   1.072   3.103 -1.3258  0.5410  1.3198
 1510TIP3   OH2 4535   2.745   2.267   2.484 -0.8278  0.2293  0.1515
 1510TIP3    H1 4536   2.680   2.222   2.430 -2.4613  1.6886  0.7642
 1510TIP3    H2 4537   2.757   2.352   2.440 -0.0637  0.3417  0.5690
 1511TIP3   OH2 4538   2.317   0.675   4.554  0.3455  0.2565  0.3274
 1511TIP3    H1 4539   2.412   0.671   4.564  0.7092  0.2510 -2.4151
 1511TIP3    H2 4540   2.286   0.591   4.588  1.6061 -0.7278 -0.8105
 1512TIP3   OH2 4541   2.593   1.677   4.200  0.3020  0.0090  0.2070
 1512TIP3    H1 4542   2.530   1.680   4.272  0.1081  2.2058  0.0371
 1512TIP3    H2 4543   2.560   1.611   4.140 -1.0406  0.0870  0.8362
 1513TIP3   OH2 4544   0.987   2.728   2.381  0.0224 -0.2152 -1.1867
 1513TIP3    H1 4545   0.963   2.658   2.442  1.1057 -0.7692 -1.3813
 1513TIP3    H2 4546   1.059   2.692   2.330 -1.5195 -0.1736 -3.5447
 1514TIP3   OH2 4547   2.814   2.997   4.175  0.3518  0.0243 -0.3057
 1514TIP3    H1 4548   2.782   2.907   4.182  0.0984 -0.2616 -3.6481
 1514TIP3    H2 4549   2.867   3.010   4.254 -0.5508 -2.6280  0.8360
 1515TIP3   OH2 4550   4.357   5.921   0.308 -0.0070 -0.3498 -0.2921
 1515TIP3    H1 4551   4.269   5.917   0.347  0.2414  0.9419  0.4740
 1515TIP3    H2 4552   4.343   5.961   0.222 -0.1070  0.6237  0.1546
 1516TIP3   OH2 4553   1.764   0.587   4.126 -0.4837  0.0145  0.0022
 1516TIP3    H1 4554   1.711   0.543   4.059  1.1644 -1.1664 -0.5811
 1516TIP3    H2 4555   1.854   0.578   4.095  0.0091  3.8349 -0.1684
 1517TIP3   OH2 4556   5.683   2.410   4.350  0.2160 -0.1429 -0.2223
 1517TIP3    H1 4557   5.638   2.341   4.400  0.3152  0.2910  0.4766
 1517TIP3    H2 4558   5.629   2.488   4.362  0.7403  0.1934 -0.0218
 1518TIP3   OH2 4559   3.449   4.616   1.738  0.0178  0.1558 -0.4493
 1518TIP3    H1 4560   3.441   4.583   1.648 -1.3163  0.3632 -0.4257
 1518TIP3    H2 4561   3.538   4.590   1.765  0.3545 -0.1164 -1.7335
 1519TIP3   OH2 4562   1.456   4.387   4.842  0.4119 -0.4166  0.7339
 1519TIP3    H1 4563   1.537   4.428   4.873  1.3342 -0.6147 -1.2878
 1519TIP3    H2 4564   1.461   4.392   4.747 -1.1907 -1.9254  0.5167
 1520TIP3   OH2 4565   0.085   3.328   2.950  0.8067 -0.4185  0.1045
 1520TIP3    H1 4566   0.025   3.277   2.894  0.5258  0.5470 -0.4923
 1520TIP3    H2 4567   0.030   3.363   3.019  0.5926  0.7558 -0.6380
 1521TIP3   OH2 4568   5.374   3.473   0.470  0.0933  0.1377  0.2506
 1521TIP3    H1 4569   5.418   3.556   0.449  2.4305 -1.2298 -0.5981
 1521TIP3    H2 4570   5.411   3.410   0.409 -1.8655 -1.5059  0.6700
 1522TIP3   OH2 4571   1.717   4.935   2.482  0.3840  0.2846  0.1404
 1522TIP3    H1 4572   1.758   4.918   2.398 -1.4095  3.3639 -1.5508
 1522TIP3    H2 4573   1.623   4.924   2.466  0.0393  0.0579  2.0137
 1523TIP3   OH2 4574   0.412   5.949   1.486  0.4464  0.0969  0.2211
 1523TIP3    H1 4575   0.325   5.934   1.523  1.0162  0.6297  1.8664
 1523TIP3    H2 4576   0.472   5.927   1.557  1.7385 -1.3560 -1.2387
 1524TIP3   OH2 4577   1.212   3.597   1.072  0.1918  0.1444  0.3786
 1524TIP3    H1 4578   1.274   3.530   1.040 -1.9714 -1.4640 -0.6900
 1524TIP3    H2 4579   1.244   3.678   1.033  1.5262 -0.6483 -0.2924
 1525TIP3   OH2 4580   3.762   1.330   4.303 -0.5370  0.0691 -0.0028
 1525TIP3    H1 4581   3.704   1.259   4.329 -0.6059  0.5536  1.2659
 1525TIP3    H2 4582   3.850   1.298   4.325 -0.3636 -0.3656 -1.2267
 1526TIP3   OH2 4583   3.446   2.684   3.897  0.6014 -0.0091  0.1215
 1526TIP3    H1 4584   3.531   2.646   3.920 -0.3379 -1.8761  0.7625
 1526TIP3    H2 4585   3.411   2.625   3.831 -0.4576  0.3973  0.3102
 1527TIP3   OH2 4586   1.684   1.933   0.730 -0.1605  0.0550  0.3754
 1527TIP3    H1 4587   1.628   1.917   0.654 -1.1386  1.6120  0.7194
 1527TIP3    H2 4588   1.769   1.954   0.692 -0.9344  2.0285 -0.4146
 1528TIP3   OH2 4589   3.301   2.018   0.035 -0.1477 -0.1582 -0.1588
 1528TIP3    H1 4590   3.324   2.057   0.119 -3.5061 -0.2503  0.9696
 1528TIP3    H2 4591   3.292   2.092  -0.025  2.3510 -0.1005 -0.5480
 1529TIP3   OH2 4592   5.101   1.615   2.529  0.0509 -0.8180  0.3076
 1529TIP3    H1 4593   5.063   1.686   2.580  1.6090 -0.3706  0.9155
 1529TIP3    H2 4594   5.169   1.579   2.586  3.8412  1.4589 -2.3191
 1530TIP3   OH2 4595   5.526   2.194   4.482 -0.5715  0.8099  0.3641
 1530TIP3    H1 4596   5.530   2.120   4.542 -0.3936  0.0981 -0.4999
 1530TIP3    H2 4597   5.435   2.197   4.454 -0.8928  1.8113  1.4729
 1531TIP3   OH2 4598   4.969   0.384   0.178 -0.3077  0.2194  0.4037
 1531TIP3    H1 4599   5.044   0.330   0.150 -0.2008  0.0508  0.9836
 1531TIP3    H2 4600   4.999   0.474   0.166 -0.0784  0.1519  0.4495
 1532TIP3   OH2 4601   3.554   3.593   2.264 -0.5237  0.2302 -0.2433
 1532TIP3    H1 4602   3.527   3.659   2.329  0.2544  1.3893 -1.0509
 1532TIP3    H2 4603   3.520   3.626   2.181  0.3444 -0.0879 -0.7405
 1533TIP3   OH2 4604   2.479   0.910   4.646  0.1731 -0.4831 -0.2428
 1533TIP3    H1 4605   2.549   0.862   4.690  0.7316  1.5671  1.3013
 1533TIP3    H2 4606   2.418   0.934   4.716 -0.9062 -0.3061 -1.2133
 1534TIP3   OH2 4607   5.711   3.258   4.543 -0.1741 -0.2049 -0.0519
 1534TIP3    H1 4608   5.801   3.225   4.554  0.0500  0.3294 -0.2444
 1534TIP3    H2 4609   5.715   3.349   4.575 -1.5508 -1.3073  3.8426
 1535TIP3   OH2 4610   1.283   3.278   1.671 -0.0380  0.3361  0.3830
 1535TIP3    H1 4611   1.223   3.276   1.746  2.0101 -0.4555  2.1080
 1535TIP3    H2 4612   1.369   3.296   1.710  0.7397  2.6877 -2.1110
 1536TIP3   OH2 4613   6.058   5.746   1.840 -0.1702  0.1332 -0.0111
 1536TIP3    H1 4614   6.135   5.803   1.835  0.8612 -1.2599 -0.6457
 1536TIP3    H2 4615   6.081   5.670   1.787 -1.5683 -0.8167  0.6911
 1537TIP3   OH2 4616   4.297   4.332   0.792  0.0230  0.2427 -0.0503
 1537TIP3    H1 4617   4.283   4.291   0.707  0.7044  1.1635 -0.6159
 1537TIP3    H2 4618   4.391   4.352   0.794 -0.3714  2.2337  0.0006
 1538TIP3   OH2 4619   0.080   2.185   0.151  0.0549  0.0247  0.3334
 1538TIP3    H1 4620   0.079   2.104   0.201  2.3581 -1.5857 -1.9616
 1538TIP3    H2 4621  -0.013   2.206   0.139 -0.6486 -2.4781  0.7149
 1539TIP3   OH2 4622   6.113   2.839   1.753  0.0890 -0.0963 -0.0345
 1539TIP3    H1 4623   6.100   2.815   1.661  1.3026 -1.8762  0.2053
 1539TIP3    H2 4624   6.181   2.780   1.783 -0.2475  0.5035  2.0239
 1540TIP3   OH2 4625   1.331   2.866   2.732 -0.1537 -0.2520  0.2025
 1540TIP3    H1 4626   1.254   2.922   2.718  0.4652  0.1954 -1.8365
 1540TIP3    H2 4627   1.333   2.808   2.655  0.7429 -1.2373  0.9393
 1541TIP3   OH2 4628   5.320   0.309   0.376 -0.1599 -0.1683 -0.3221
 1541TIP3    H1 4629   5.316   0.273   0.288  0.6940 -1.1781  0.0212
 1541TIP3    H2 4630   5.286   0.239   0.432  0.9346 -0.2263  0.3072
 1542TIP3   OH2 4631   5.112   3.652   0.347 -0.6271 -0.2854 -0.1176
 1542TIP3    H1 4632   5.079   3.680   0.433  0.4330 -0.2049  0.2835
 1542TIP3    H2 4633   5.188   3.708   0.332 -0.0316 -1.1876 -0.5085
 1543TIP3   OH2 4634   1.970   3.994   4.573 -0.3649  0.5410 -0.1419
 1543TIP3    H1 4635   1.944   3.989   4.665  0.2785  1.4771  0.1042
 1543TIP3    H2 4636   1.895   4.035   4.530 -1.0141 -0.6434 -0.2107
 1544TIP3   OH2 4637   0.843   4.118   5.005  0.5073  0.0200 -0.2385
 1544TIP3    H1 4638   0.823   4.076   5.089 -0.6221 -1.0019 -0.9686
 1544TIP3    H2 4639   0.758   4.148   4.973  0.8562  0.0249 -1.1985
 1545TIP3   OH2 4640   4.401   5.012   3.208 -0.0170  0.2853  0.7986
 1545TIP3    H1 4641   4.368   5.100   3.191  1.3266  0.7492  0.4611
 1545TIP3    H2 4642   4.409   5.007   3.304  0.4116  0.7298  0.7889
 1546TIP3   OH2 4643   1.099   4.907   3.485  0.0099  0.0636  0.3535
 1546TIP3    H1 4644   1.123   4.843   3.417 -1.8509 -2.2040  1.6682
 1546TIP3    H2 4645   1.004   4.916   3.477 -0.1977  0.0666  2.3350
 1547TIP3   OH2 4646   4.555   4.262   0.209  0.0006  0.4923 -0.3491
 1547TIP3    H1 4647   4.502   4.217   0.275  0.6527 -0.0793 -0.2089
 1547TIP3    H2 4648   4.645   4.234   0.227  0.2602  0.8353 -1.0813
 1548TIP3   OH2 4649   3.804   5.623   2.801  0.3359  0.2785 -0.5480
 1548TIP3    H1 4650   3.868   5.594   2.866  0.8878  0.7149 -0.8799
 1548TIP3    H2 4651   3.792   5.716   2.820 -1.4398 -0.1424  0.5352
 1549TIP3   OH2 4652   1.475   1.458   4.126  0.3003  0.4579 -0.0071
 1549TIP3    H1 4653   1.529   1.533   4.151  0.1608  0.5053  0.1480
 1549TIP3    H2 4654   1.456   1.473   4.033  1.8254 -0.3274 -0.4924
 1550TIP3   OH2 4655   5.516   4.101   2.257 -0.1861 -0.1631  0.0503
 1550TIP3    H1 4656   5.465   4.143   2.326  0.1643 -0.7679  0.6968
 1550TIP3    H2 4657   5.453   4.046   2.210  0.1361 -2.1885  1.8743
 1551TIP3   OH2 4658   4.620   3.067   1.420  0.7586  0.0345  0.2681
 1551TIP3    H1 4659   4.600   2.975   1.403  1.1617  0.1174 -0.6763
 1551TIP3    H2 4660   4.646   3.102   1.336  0.5574  1.0375  0.6098
 1552TIP3   OH2 4661   4.216   3.333   1.835 -0.4892  0.0164  0.3214
 1552TIP3    H1 4662   4.188   3.344   1.925 -1.0940 -0.8224  0.2467
 1552TIP3    H2 4663   4.305   3.367   1.833  0.2598 -1.6953  1.6944
 1553TIP3   OH2 4664   2.074   3.808   3.620  0.3519 -0.0352 -0.1017
 1553TIP3    H1 4665   2.013   3.746   3.581  0.3164 -0.3982  0.5159
 1553TIP3    H2 4666   2.041   3.894   3.594  0.5699 -0.2690 -1.2123
 1554TIP3   OH2 4667   2.352   0.650   0.487 -0.4047  0.0896 -0.4649
 1554TIP3    H1 4668   2.338   0.738   0.451 -2.4907 -0.1362 -0.3122
 1554TIP3    H2 4669   2.363   0.664   0.581  1.0406  0.3134 -0.6428
 1555TIP3   OH2 4670   0.253   0.674   1.627 -0.3927  0.2771 -0.0738
 1555TIP3    H1 4671   0.179   0.615   1.616 -1.3418  1.6707 -1.6547
 1555TIP3    H2 4672   0.305   0.635   1.697 -1.7719 -1.5827 -0.0191
 1556TIP3   OH2 4673   5.707   1.626   3.779 -0.1552 -0.1214  0.5739
 1556TIP3    H1 4674   5.641   1.695   3.789 -0.8402 -0.3625 -1.7230
 1556TIP3    H2 4675   5.674   1.571   3.708  2.6172 -0.0890 -0.8917
 1557TIP3   OH2 4676   6.182   0.395   2.889  0.4885  0.8560  0.4408
 1557TIP3    H1 4677   6.246   0.349   2.834  0.6033 -0.0663  1.3155
 1557TIP3    H2 4678   6.113   0.422   2.828  0.6464 -0.0747 -0.1714
 1558TIP3   OH2 4679   1.966   0.830   1.394 -0.2433 -0.0228  0.6331
 1558TIP3    H1 4680   1.946   0.877   1.313  1.8969 -0.3001 -0.1387
 1558TIP3    H2 4681   1.926   0.883   1.463  1.2753  2.5204 -0.2687
 1559TIP3   OH2 4682   1.882   1.258   0.350 -0.2255  0.4048 -0.0521
 1559TIP3    H1 4683   1.930   1.340   0.358 -0.1862  0.5338 -1.3837
 1559TIP3    H2 4684   1.949   1.190   0.362  0.1720  0.5839 -1.1312
 1560TIP3   OH2 4685   2.132   4.206   4.999  0.1039 -0.4659 -0.2367
 1560TIP3    H1 4686   2.175   4.126   5.030 -0.4511 -0.3255  0.9576
 1560TIP3    H2 4687   2.040   4.182   4.991 -0.6245  0.7451  2.9685
 1561TIP3   OH2 4688   0.312   5.873   2.199 -0.0093 -0.1262 -0.5736
 1561TIP3    H1 4689   0.343   5.956   2.163  0.2358  0.3967  0.7857
 1561TIP3    H2 4690   0.390   5.830   2.233 -0.5268  0.6394  1.7484
 1562TIP3   OH2 4691   0.363   5.668   4.926 -0.0118 -0.0556 -0.6016
 1562TIP3    H1 4692   0.403   5.719   4.855 -0.5677 -0.3908 -1.1695
 1562TIP3    H2 4693   0.269   5.675   4.910 -0.1059 -1.1336 -0.6012
 1563TIP3   OH2 4694   5.923   0.951   4.280 -0.2434  0.7216 -0.1370
 1563TIP3    H1 4695   5.853   0.899   4.319  0.5904  0.4166  0.9950
 1563TIP3    H2 4696   5.951   1.011   4.349  0.1471  1.3185 -0.7947
 1564TIP3   OH2 4697   5.819   4.347   0.061  0.3251  0.0002 -0.0893
 1564TIP3    H1 4698   5.750   4.391   0.110 -0.5930 -0.1362 -1.2384
 1564TIP3    H2 4699   5.900   4.370   0.108 -0.5715 -0.7771  1.9709
 1565TIP3   OH2 4700   4.271   2.344   0.278  0.3770  0.3853 -0.7609
 1565TIP3    H1 4701   4.240   2.286   0.347 -0.6139  0.3681 -1.1992
 1565TIP3    H2 4702   4.356   2.375   0.308  0.0673  0.1883  0.3503
 1566TIP3   OH2 4703   1.089   4.365   4.585  0.2746  0.2896  0.5705
 1566TIP3    H1 4704   1.016   4.315   4.548  0.4770 -1.7724  2.7555
 1566TIP3    H2 4705   1.161   4.303   4.591  1.7644  1.8673 -0.0457
 1567TIP3   OH2 4706   0.861   3.129   1.366 -0.2858 -0.3716  0.7063
 1567TIP3    H1 4707   0.817   3.213   1.380  0.5523  0.0607  0.8405
 1567TIP3    H2 4708   0.917   3.118   1.443  1.0433 -0.1071 -0.1840
 1568TIP3   OH2 4709   3.993   5.632   3.002 -0.6480  0.0094 -0.2891
 1568TIP3    H1 4710   4.071   5.579   3.019 -1.0580 -1.1976 -1.9804
 1568TIP3    H2 4711   4.027   5.714   2.966 -0.0860  0.4399  1.1182
 1569TIP3   OH2 4712   2.377   1.169  -0.025 -0.2493 -0.3550  0.4536
 1569TIP3    H1 4713   2.368   1.172   0.071 -0.8670 -0.0836  0.3881
 1569TIP3    H2 4714   2.462   1.126  -0.039 -0.4289 -0.9391  1.1093
 1570TIP3   OH2 4715   2.029   1.866   4.057  0.2776 -0.3317 -0.4327
 1570TIP3    H1 4716   1.963   1.878   3.989 -1.3241  1.2364  1.3021
 1570TIP3    H2 4717   2.019   1.774   4.084 -1.3487 -0.0800 -0.0965
 1571TIP3   OH2 4718   4.357   4.924   5.068  0.0175  0.0832 -0.1024
 1571TIP3    H1 4719   4.369   4.935   4.974  1.3742 -0.8490 -0.0562
 1571TIP3    H2 4720   4.285   4.983   5.090 -1.8203 -1.2511 -2.0960
 1572TIP3   OH2 4721   0.221   4.766   1.211 -0.4816 -0.5872  0.5550
 1572TIP3    H1 4722   0.200   4.689   1.262  0.3987 -2.1358 -1.2699
 1572TIP3    H2 4723   0.315   4.779   1.224 -0.8925  1.2566  2.1602
 1573TIP3   OH2 4724   5.520   3.194   4.971 -0.4930 -0.0569 -0.6160
 1573TIP3    H1 4725   5.453   3.200   4.903 -1.2822  0.4630  0.1893
 1573TIP3    H2 4726   5.538   3.284   4.995  0.1610 -0.2158 -0.4911
 1574TIP3   OH2 4727   4.724   0.715   3.584 -0.5943 -0.6983 -0.3786
 1574TIP3    H1 4728   4.690   0.678   3.665  0.0076  1.8580  1.1664
 1574TIP3    H2 4729   4.790   0.652   3.554  1.1391 -0.5242  2.6375
 1575TIP3   OH2 4730   1.581   5.300   5.106  0.2365 -0.0381  0.4180
 1575TIP3    H1 4731   1.543   5.262   5.185  2.3553 -0.0844  1.4575
 1575TIP3    H2 4732   1.648   5.361   5.137  1.1044 -0.0139 -1.3441
 1576TIP3   OH2 4733   3.586   0.124   3.259 -0.0664  0.5667 -0.3014
 1576TIP3    H1 4734   3.612   0.119   3.167 -2.0137 -0.1596 -0.8582
 1576TIP3    H2 4735   3.623   0.045   3.298 -0.5029  0.0876 -0.8323
 1577TIP3   OH2 4736   1.748   3.446   4.645  0.3644 -0.0532 -0.3408
 1577TIP3    H1 4737   1.682   3.378   4.650 -0.9427  1.0871 -1.3035
 1577TIP3    H2 4738   1.698   3.528   4.636  1.8576  1.0593  0.8590
 1578TIP3   OH2 4739   1.586   4.573   2.508  0.0555  0.4132 -0.1661
 1578TIP3    H1 4740   1.613   4.591   2.417 -1.3165 -1.5816 -1.0422
 1578TIP3    H2 4741   1.582   4.477   2.513  0.9061  0.4437  2.2858
 1579TIP3   OH2 4742   1.950   0.072   4.077  0.1515 -0.0758 -0.5133
 1579TIP3    H1 4743   1.894  -0.005   4.072 -0.4928  0.4301 -1.2506
 1579TIP3    H2 4744   1.891   0.146   4.067  1.0001  0.4574 -1.8646
 1580TIP3   OH2 4745   2.168   5.840   3.739  0.2114  0.1946  0.6372
 1580TIP3    H1 4746   2.109   5.911   3.711  0.4818  0.2085  0.0895
 1580TIP3    H2 4747   2.132   5.811   3.822 -2.0667 -1.4712 -0.8215
 1581TIP3   OH2 4748   1.858   4.600   2.291  0.0799  0.6270 -0.5506
 1581TIP3    H1 4749   1.859   4.696   2.287 -0.7223  0.8663  2.5900
 1581TIP3    H2 4750   1.944   4.574   2.256 -0.1173  2.3549 -2.5436
 1582TIP3   OH2 4751   1.279   0.927   3.209  0.0054 -0.2580  0.0958
 1582TIP3    H1 4752   1.243   0.873   3.280 -0.1185  0.1294  0.3276
 1582TIP3    H2 4753   1.351   0.874   3.174  1.0620  0.1885  1.5029
 1583TIP3   OH2 4754   1.296   0.841   2.595  0.2615 -0.4140  0.1877
 1583TIP3    H1 4755   1.380   0.811   2.629 -0.0231 -1.0598  0.3387
 1583TIP3    H2 4756   1.309   0.933   2.576  0.5729 -0.1308  1.6241
 1584TIP3   OH2 4757   4.785   3.986   0.709  0.3118 -0.0104 -0.3580
 1584TIP3    H1 4758   4.742   4.064   0.745  0.4344  0.2901 -0.8566
 1584TIP3    H2 4759   4.716   3.920   0.707  0.0137  0.3019 -0.6174
 1585TIP3   OH2 4760   2.981   1.363   4.913  0.0588 -0.3591 -0.0070
 1585TIP3    H1 4761   3.010   1.285   4.866 -1.0983  0.5385 -2.3396
 1585TIP3    H2 4762   2.972   1.430   4.846 -2.2438  0.8504  1.3811
 1586TIP3   OH2 4763   1.474   4.626   4.299 -0.2318 -0.3290 -0.1749
 1586TIP3    H1 4764   1.517   4.708   4.324  0.8625 -0.7647 -0.5587
 1586TIP3    H2 4765   1.387   4.652   4.271 -0.3781  0.5372  1.0256
 1587TIP3   OH2 4766   3.121   0.063   1.940 -0.5715  0.2877 -0.0418
 1587TIP3    H1 4767   3.058   0.101   1.878 -1.0226 -0.0114  0.2309
 1587TIP3    H2 4768   3.160   0.139   1.983  0.5476  0.5548 -1.4540
 1588TIP3   OH2 4769   1.741   3.492   2.589 -0.2052 -0.0056  0.1294
 1588TIP3    H1 4770   1.650   3.469   2.609 -0.3065  0.0990 -0.1947
 1588TIP3    H2 4771   1.735   3.580   2.552  0.1083  0.2886  0.7748
 1589TIP3   OH2 4772   0.047   4.873   2.383 -0.1431  0.3406  0.1889
 1589TIP3    H1 4773  -0.024   4.846   2.441 -0.5259  0.6909 -0.1057
 1589TIP3    H2 4774   0.036   4.968   2.375 -0.0383  0.3069 -0.3786
 1590TIP3   OH2 4775   2.784   1.930   3.200 -0.3720 -0.4127 -0.5052
 1590TIP3    H1 4776   2.758   2.021   3.188 -1.4888 -0.7529 -0.7777
 1590TIP3    H2 4777   2.768   1.889   3.115  1.3953 -0.5850 -0.7871
 1591TIP3   OH2 4778   2.703   5.370   3.083 -0.0495  0.1411 -0.3046
 1591TIP3    H1 4779   2.651   5.352   3.162 -1.6263 -0.8056 -1.4790
 1591TIP3    H2 4780   2.793   5.351   3.109 -0.3775  0.9156  1.5610
 1592TIP3   OH2 4781   4.593   0.730   0.662 -0.4882  0.2921 -0.3566
 1592TIP3    H1 4782   4.574   0.736   0.756  1.4398 -0.1326  0.1220
 1592TIP3    H2 4783   4.605   0.637   0.646  1.0564  0.4874 -0.5604
 1593TIP3   OH2 4784   3.409   5.264   3.185 -0.7529  0.3101  0.1632
 1593TIP3    H1 4785   3.383   5.251   3.094 -1.5253  2.4897 -0.0038
 1593TIP3    H2 4786   3.505   5.263   3.183 -0.7724 -0.2098 -0.5844
 1594TIP3   OH2 4787   1.230   2.832   0.791 -0.1133  0.1084 -0.3530
 1594TIP3    H1 4788   1.286   2.858   0.864  0.4691  2.4354 -1.5347
 1594TIP3    H2 4789   1.145   2.871   0.810  0.3242  1.6246 -1.3671
 1595TIP3   OH2 4790   6.149   0.991   5.107 -0.0701 -0.0879 -0.0960
 1595TIP3    H1 4791   6.133   1.038   5.189  0.8830  2.6215 -1.3353
 1595TIP3    H2 4792   6.070   1.007   5.054 -0.1573 -0.7342 -0.1620
 1596TIP3   OH2 4793   3.139   5.029   1.590  0.0821 -0.0961 -0.2947
 1596TIP3    H1 4794   3.132   5.078   1.672 -0.3843 -0.6092 -0.0179
 1596TIP3    H2 4795   3.132   5.095   1.521  0.1730  0.3043  0.0746
 1597TIP3   OH2 4796   2.294   4.752   2.164  0.3246  0.2004 -0.5164
 1597TIP3    H1 4797   2.293   4.842   2.129  1.9508  0.6471  0.4877
 1597TIP3    H2 4798   2.367   4.710   2.120  2.0785  0.6100  1.8009
 1598TIP3   OH2 4799   5.187   5.067   4.772 -0.1268 -0.1229  0.2992
 1598TIP3    H1 4800   5.147   5.115   4.845 -0.2098  0.1239  0.0922
 1598TIP3    H2 4801   5.244   5.002   4.814 -2.0619 -1.6720  0.6620
 1599TIP3   OH2 4802   3.508   0.333   2.127  0.0614  0.3776 -0.1050
 1599TIP3    H1 4803   3.564   0.256   2.119 -0.0951  0.3419 -0.9353
 1599TIP3    H2 4804   3.504   0.350   2.222 -0.3523 -0.9557  0.1425
 1600TIP3   OH2 4805   2.609   1.448   1.985  0.6187 -0.3988 -0.3936
 1600TIP3    H1 4806   2.703   1.446   1.968  0.6468 -1.0096 -0.1796
 1600TIP3    H2 4807   2.601   1.454   2.080  0.4499 -2.2381 -0.2606
 1601TIP3   OH2 4808   0.699   5.738   3.843 -0.7005  0.5002 -0.2764
 1601TIP3    H1 4809   0.740   5.695   3.917  1.9715  2.6247 -0.3780
 1601TIP3    H2 4810   0.633   5.796   3.882 -1.4661 -0.6138  0.1358
 1602TIP3   OH2 4811   4.049   1.428   0.032 -0.3940 -0.3049 -0.6286
 1602TIP3    H1 4812   4.104   1.388  -0.035  0.1939  0.4701 -0.6256
 1602TIP3    H2 4813   4.108   1.486   0.080 -1.1494  0.3115 -0.4246
 1603TIP3   OH2 4814   2.765   3.543   1.291 -0.0386  0.8244  0.1827
 1603TIP3    H1 4815   2.759   3.613   1.356  0.5595  0.9718  0.0793
 1603TIP3    H2 4816   2.691   3.485   1.312  2.3975 -1.4150  3.7211
 1604TIP3   OH2 4817   1.962   2.358   0.409  0.2815  0.6648 -0.0226
 1604TIP3    H1 4818   1.979   2.440   0.362  1.4056 -0.4407 -1.6633
 1604TIP3    H2 4819   1.932   2.298   0.340  0.1369 -0.5056  1.0318
 1605TIP3   OH2 4820   5.610   2.509   0.146 -0.1412 -0.0900 -0.2321
 1605TIP3    H1 4821   5.527   2.461   0.155  0.2704 -0.5343  1.6603
 1605TIP3    H2 4822   5.596   2.590   0.194  0.6935 -0.4291  0.6096
 1606TIP3   OH2 4823   5.783   3.248   3.499 -0.1014  1.3064 -0.2381
 1606TIP3    H1 4824   5.718   3.318   3.509 -0.1774  1.0035  1.7215
 1606TIP3    H2 4825   5.867   3.294   3.495 -0.2096  1.5690  0.3360
 1607TIP3   OH2 4826   2.785   1.263   0.807  0.2891  0.3611 -0.8421
 1607TIP3    H1 4827   2.713   1.289   0.864 -0.0287  0.7450 -1.4159
 1607TIP3    H2 4828   2.748   1.265   0.719  0.0637 -2.5704 -0.9033
 1608TIP3   OH2 4829   0.769   1.093   3.711 -0.2133 -0.2651  0.1265
 1608TIP3    H1 4830   0.846   1.141   3.744  0.4986 -0.1547 -1.6169
 1608TIP3    H2 4831   0.695   1.146   3.740  0.4822  0.9452 -0.2209
 1609TIP3   OH2 4832   5.179   1.126   0.098 -0.2253  0.6154  0.0745
 1609TIP3    H1 4833   5.188   1.172   0.181  0.0280  0.4604  0.1327
 1609TIP3    H2 4834   5.221   1.184   0.034 -0.7020  0.8849 -0.0004
 1610TIP3   OH2 4835   0.692   2.778   5.073 -0.6586  0.9197 -0.2392
 1610TIP3    H1 4836   0.654   2.787   4.985  1.3911  0.3709 -1.2449
 1610TIP3    H2 4837   0.784   2.803   5.062  0.3518 -1.7645  1.1205
 1611TIP3   OH2 4838   3.948   5.892   1.026 -0.1707 -0.1342  0.2946
 1611TIP3    H1 4839   4.005   5.912   0.952  1.5937 -2.5163  0.8725
 1611TIP3    H2 4840   3.915   5.977   1.055  1.3817  1.1322 -1.4383
 1612TIP3   OH2 4841   6.206   5.558   1.075  0.2289  0.1101 -0.3075
 1612TIP3    H1 4842   6.216   5.564   1.170  1.4076  1.4801 -0.4793
 1612TIP3    H2 4843   6.173   5.470   1.060  2.3852 -1.0460  1.2155
 1613TIP3   OH2 4844   0.939   4.302   0.387 -0.1319  0.1292 -0.4416
 1613TIP3    H1 4845   0.991   4.344   0.318 -0.4536 -1.2023 -1.5283
 1613TIP3    H2 4846   0.983   4.218   0.402 -1.2502 -0.4790 -0.5061
 1614TIP3   OH2 4847   5.382   2.305   4.849  0.5525  0.0410 -0.1405
 1614TIP3    H1 4848   5.463   2.341   4.813  0.8517 -0.3058  0.1696
 1614TIP3    H2 4849   5.410   2.224   4.893  0.1691  0.3711  0.7240
 1615TIP3   OH2 4850   0.454   0.498   3.921  0.2599  0.2111 -0.7024
 1615TIP3    H1 4851   0.521   0.486   3.988  0.2064 -2.0231 -0.9555
 1615TIP3    H2 4852   0.499   0.541   3.849  0.8394  0.7364 -0.0423
 1616TIP3   OH2 4853   1.814   1.388   0.673 -0.0129 -0.4567 -0.3467
 1616TIP3    H1 4854   1.909   1.402   0.670 -0.0104 -0.3936 -3.4804
 1616TIP3    H2 4855   1.777   1.475   0.655 -0.9161  0.2320  3.7875
 1617TIP3   OH2 4856   2.049   1.986   0.894 -0.0595 -0.1891 -0.4504
 1617TIP3    H1 4857   2.069   2.016   0.982  0.7693 -0.7130 -0.4466
 1617TIP3    H2 4858   2.122   1.928   0.872  0.5116  1.0792 -2.0523
 1618TIP3   OH2 4859   2.133   0.951   2.965  0.3724 -0.1749  0.1514
 1618TIP3    H1 4860   2.078   0.888   3.013  1.4230 -0.0429  1.5932
 1618TIP3    H2 4861   2.212   0.959   3.018  2.3587 -1.2198 -2.4127
 1619TIP3   OH2 4862   1.825   4.615   0.365 -0.2286 -0.4570  0.2027
 1619TIP3    H1 4863   1.741   4.592   0.403  0.1009 -1.2073  0.4938
 1619TIP3    H2 4864   1.872   4.532   0.357  0.2244 -0.1394 -0.5985
 1620TIP3   OH2 4865   1.534   4.781   2.699 -0.3351  0.3647 -0.4669
 1620TIP3    H1 4866   1.545   4.706   2.640  0.8332  1.2652 -1.4572
 1620TIP3    H2 4867   1.510   4.853   2.642 -0.7097  0.9271  0.3768
 1621TIP3   OH2 4868   3.133   2.191   3.088 -0.0984 -0.1120 -0.0348
 1621TIP3    H1 4869   3.071   2.204   3.016 -1.6518 -0.6697  1.1437
 1621TIP3    H2 4870   3.158   2.099   3.082 -2.2619 -0.9077  1.5844
 1622TIP3   OH2 4871   6.224   0.913   3.183 -0.1517 -0.2208 -0.5576
 1622TIP3    H1 4872   6.187   0.876   3.263 -1.5803  1.8963 -0.1699
 1622TIP3    H2 4873   6.215   0.842   3.118 -1.2888 -1.1102  0.5197
 1623TIP3   OH2 4874   2.800   0.161   3.328 -0.6116  0.6112  0.4210
 1623TIP3    H1 4875   2.718   0.170   3.279 -0.8833  2.1768  1.0928
 1623TIP3    H2 4876   2.843   0.247   3.320  1.3251 -0.3745 -0.4947
 1624TIP3   OH2 4877   2.058   1.303   1.400 -0.0200 -0.1909 -0.0651
 1624TIP3    H1 4878   2.018   1.260   1.325  0.9934 -1.7347  0.2377
 1624TIP3    H2 4879   2.099   1.382   1.364 -2.3284  0.8731 -0.5480
 1625TIP3   OH2 4880   2.977   2.607   1.045  0.2213  0.2635 -0.2668
 1625TIP3    H1 4881   3.017   2.693   1.033  0.2724  0.0744 -1.5793
 1625TIP3    H2 4882   2.884   2.621   1.025 -0.0233  0.2683  0.7903
 1626TIP3   OH2 4883   1.331   2.811   3.623 -0.4283  0.3362  0.0604
 1626TIP3    H1 4884   1.361   2.897   3.654 -0.2814  0.4316 -0.3512
 1626TIP3    H2 4885   1.404   2.776   3.574 -0.0623 -0.5239  1.1721
 1627TIP3   OH2 4886   1.287   5.164   3.977  0.6105  0.4507 -0.1391
 1627TIP3    H1 4887   1.200   5.135   4.003 -0.7275  2.4078 -1.9956
 1627TIP3    H2 4888   1.344   5.090   3.997 -1.7482 -1.6160 -0.4721
 1628TIP3   OH2 4889   2.344   0.721   4.850  0.2089 -0.5201 -0.3879
 1628TIP3    H1 4890   2.367   0.725   4.757 -0.3281 -0.1548 -0.5104
 1628TIP3    H2 4891   2.359   0.809   4.883 -0.0759 -0.5210 -0.2468
 1629TIP3   OH2 4892   5.619   3.485   3.842 -0.0620  0.1908 -0.5736
 1629TIP3    H1 4893   5.681   3.549   3.808 -0.2585 -0.6229 -2.6204
 1629TIP3    H2 4894   5.537   3.503   3.796 -0.9997  0.3900  1.0933
 1630TIP3   OH2 4895   4.885   4.398   3.481 -0.1315  0.0324  0.3462
 1630TIP3    H1 4896   4.799   4.436   3.493  0.6236  3.3205 -2.8526
 1630TIP3    H2 4897   4.942   4.447   3.540  0.6976  3.9999 -3.2140
 1631TIP3   OH2 4898   5.323   3.370   3.353 -0.9762 -1.1100  0.4098
 1631TIP3    H1 4899   5.395   3.318   3.388  2.2525  1.2850 -2.1073
 1631TIP3    H2 4900   5.290   3.319   3.279  0.1564 -0.9734 -0.2110
 1632TIP3   OH2 4901   2.242   2.843   2.675 -0.3360 -0.3346 -0.7398
 1632TIP3    H1 4902   2.254   2.748   2.670  0.2039 -0.2483 -1.1539
 1632TIP3    H2 4903   2.297   2.878   2.605 -1.2180  0.2346 -1.1636
 1633TIP3   OH2 4904   4.716   3.252   2.805 -0.1339  0.5868  0.9061
 1633TIP3    H1 4905   4.662   3.331   2.807  1.4576  1.9485 -2.1933
 1633TIP3    H2 4906   4.670   3.193   2.747 -0.4598 -0.1041  1.8464
 1634TIP3   OH2 4907   2.140   2.888   3.610 -0.0694  0.0629 -0.0275
 1634TIP3    H1 4908   2.169   2.976   3.635  4.5268 -1.5480  1.2080
 1634TIP3    H2 4909   2.163   2.880   3.518 -1.0505  0.2492 -0.3100
 1635TIP3   OH2 4910   1.784   4.770   3.112  0.4541  0.1240 -0.5954
 1635TIP3    H1 4911   1.865   4.801   3.152  0.8446 -0.1918 -1.1362
 1635TIP3    H2 4912   1.806   4.684   3.075  0.0614  0.3478 -1.3625
 1636TIP3   OH2 4913   4.953   3.174   3.843  0.0670 -0.2197  0.0521
 1636TIP3    H1 4914   4.872   3.181   3.792  0.3858  0.9215 -0.3414
 1636TIP3    H2 4915   4.940   3.234   3.917 -0.1567 -1.4197  1.0251
 1637TIP3   OH2 4916   0.512   0.847   3.301  0.2750 -0.0313 -0.3836
 1637TIP3    H1 4917   0.486   0.766   3.344  1.1050 -0.2497 -0.2695
 1637TIP3    H2 4918   0.531   0.908   3.372 -1.9454  0.8287 -0.4586
 1638TIP3   OH2 4919   5.045   3.868   1.898  0.1831  0.1591  0.2943
 1638TIP3    H1 4920   5.051   3.772   1.894 -1.4535  0.0262  0.5625
 1638TIP3    H2 4921   5.130   3.898   1.864 -0.4168 -1.3425 -3.0022
 1639TIP3   OH2 4922   0.352   5.611   0.557  0.6391 -0.6310 -0.1601
 1639TIP3    H1 4923   0.374   5.554   0.630 -0.8474  0.0169  0.8576
 1639TIP3    H2 4924   0.341   5.698   0.597 -0.4214 -0.3084 -1.0962
 1640TIP3   OH2 4925   5.611   0.833   3.082 -0.0042  0.6433  0.1355
 1640TIP3    H1 4926   5.674   0.905   3.078  0.6146  0.1488  0.7911
 1640TIP3    H2 4927   5.568   0.834   2.997  0.3355  1.4878 -0.0329
 1641TIP3   OH2 4928   1.674   5.123   4.886  0.7555  0.0653 -0.0016
 1641TIP3    H1 4929   1.666   5.167   4.971 -0.6221  1.2454 -0.6739
 1641TIP3    H2 4930   1.625   5.180   4.826  2.2333 -0.3972 -1.7210
 1642TIP3   OH2 4931   0.635   5.613   2.842  0.4650 -0.1214 -0.5113
 1642TIP3    H1 4932   0.577   5.540   2.861  1.2548 -0.8317 -0.7841
 1642TIP3    H2 4933   0.723   5.578   2.856  0.8130  1.2909  1.1448
 1643TIP3   OH2 4934   5.765   1.454   1.714  0.8070 -0.6010 -0.2741
 1643TIP3    H1 4935   5.791   1.523   1.653  1.6631 -0.7965 -0.1516
 1643TIP3    H2 4936   5.692   1.409   1.671 -0.1803  0.7612 -0.0758
 1644TIP3   OH2 4937   3.598   2.688   2.246  0.0500 -0.1029 -0.3589
 1644TIP3    H1 4938   3.643   2.605   2.225 -1.0398 -1.1142  1.1421
 1644TIP3    H2 4939   3.512   2.680   2.204 -0.3524 -0.0830  0.4423
 1645TIP3   OH2 4940   3.581   4.234   0.458  0.6051 -0.9553 -0.8095
 1645TIP3    H1 4941   3.669   4.257   0.429 -0.2446  0.5853 -2.3590
 1645TIP3    H2 4942   3.572   4.277   0.543  1.6232 -1.8482 -0.2319
 1646TIP3   OH2 4943   5.316   2.301   3.093 -0.2965 -0.8117 -0.1444
 1646TIP3    H1 4944   5.330   2.394   3.110 -0.0782 -0.5937 -1.4069
 1646TIP3    H2 4945   5.252   2.300   3.021  0.5554 -1.6005 -0.9090
 1647TIP3   OH2 4946   5.471  -0.002   1.802 -0.2568  0.1068  0.2081
 1647TIP3    H1 4947   5.564  -0.016   1.784  0.0790  0.3887  1.5548
 1647TIP3    H2 4948   5.443   0.062   1.737  0.9510  1.3301  0.8261
 1648TIP3   OH2 4949   0.605   0.060   0.710  1.0050 -0.2438  0.0636
 1648TIP3    H1 4950   0.687   0.092   0.748  0.7626 -0.3045  0.6437
 1648TIP3    H2 4951   0.563   0.012   0.781  0.5147 -0.3043 -0.2642
 1649TIP3   OH2 4952   4.851   2.041   0.982 -0.0463 -0.3674  0.1346
 1649TIP3    H1 4953   4.913   2.101   0.941  0.0644  0.2256  1.1548
 1649TIP3    H2 4954   4.862   2.055   1.076 -2.2111  0.2673  0.3458
 1650TIP3   OH2 4955   4.692   5.658   1.527  0.2192  0.0164  0.2783
 1650TIP3    H1 4956   4.707   5.575   1.482 -1.1137 -0.7508  1.1762
 1650TIP3    H2 4957   4.673   5.632   1.618  0.4037  1.3514  0.7100
 1651TIP3   OH2 4958   5.027   0.650   4.351 -0.3476  0.0671  0.6173
 1651TIP3    H1 4959   5.049   0.642   4.444 -1.9725  0.3008  1.0654
 1651TIP3    H2 4960   5.034   0.743   4.333 -2.3222  0.3679  1.1751
 1652TIP3   OH2 4961   6.200   0.020   0.398  0.1010  0.9554  0.1807
 1652TIP3    H1 4962   6.240   0.097   0.439  2.4959 -0.0764 -0.0375
 1652TIP3    H2 4963   6.145  -0.018   0.467  1.4807  1.0777  1.4085
 1653TIP3   OH2 4964   1.076   3.593   3.052  0.0854  0.5028  0.2671
 1653TIP3    H1 4965   1.003   3.655   3.060  1.2145  1.8217  0.6180
 1653TIP3    H2 4966   1.110   3.585   3.141  1.0156  0.7118 -0.0602
 1654TIP3   OH2 4967   2.069   1.588   2.998 -0.3807 -0.1378 -0.2466
 1654TIP3    H1 4968   1.976   1.568   3.009 -0.4232 -0.2754 -0.8101
 1654TIP3    H2 4969   2.070   1.659   2.934 -0.0542 -0.8602 -1.0594
 1655TIP3   OH2 4970   5.019   1.605   4.651  0.5748  0.0806  0.1955
 1655TIP3    H1 4971   4.960   1.599   4.726  0.9581  0.3357  0.5278
 1655TIP3    H2 4972   5.037   1.699   4.643  0.2843  0.0852 -0.4188
 1656TIP3   OH2 4973   6.141   2.865   4.132  0.2684  0.3287 -0.1459
 1656TIP3    H1 4974   6.165   2.883   4.223 -0.6497  0.1715  0.1365
 1656TIP3    H2 4975   6.220   2.885   4.082  1.6505 -2.0100  0.9296
 1657TIP3   OH2 4976   0.093   0.959   0.648  0.5272  0.3055 -0.0571
 1657TIP3    H1 4977   0.032   1.016   0.603  0.0575  0.1365  0.3613
 1657TIP3    H2 4978   0.115   1.006   0.729  1.1362  0.4726 -0.3074
 1658TIP3   OH2 4979   3.768   1.836   0.605 -0.3410  0.3067 -0.1209
 1658TIP3    H1 4980   3.736   1.842   0.695 -0.7174  0.2441 -0.2507
 1658TIP3    H2 4981   3.692   1.855   0.550 -0.3670 -0.6262 -0.4439
 1659TIP3   OH2 4982   0.566   5.317   0.679  0.2845  0.1891  0.2364
 1659TIP3    H1 4983   0.489   5.288   0.630  0.1852  0.8882 -0.0457
 1659TIP3    H2 4984   0.631   5.336   0.611  0.7278 -0.4304  0.4725
 1660TIP3   OH2 4985   6.080   1.554   0.700 -0.0545  0.0257  0.3369
 1660TIP3    H1 4986   6.089   1.545   0.795 -1.1614  0.4099  0.4970
 1660TIP3    H2 4987   6.165   1.588   0.671  0.6598 -1.0957  1.0400
 1661TIP3   OH2 4988   0.176   4.188   3.562  0.0989  0.6720 -0.3279
 1661TIP3    H1 4989   0.193   4.140   3.481 -1.3462 -1.0565  0.3105
 1661TIP3    H2 4990   0.080   4.192   3.567  0.1508  0.3851  1.4637
 1662TIP3   OH2 4991   5.708   0.211   0.206 -0.4470  0.1152 -0.3457
 1662TIP3    H1 4992   5.691   0.287   0.151 -1.0614  0.4043  0.2376
 1662TIP3    H2 4993   5.780   0.166   0.162 -0.2802  0.8647 -0.8624
 1663TIP3   OH2 4994   4.790   5.293   2.081 -0.4862  0.3351 -0.2455
 1663TIP3    H1 4995   4.843   5.214   2.089  2.6133  2.0929 -1.2244
 1663TIP3    H2 4996   4.740   5.281   2.000  0.3703 -0.4402 -0.6825
 1664TIP3   OH2 4997   1.145   2.571   4.044 -0.1537  0.0958 -0.3745
 1664TIP3    H1 4998   1.142   2.509   4.117  0.1732  0.4851 -0.0274
 1664TIP3    H2 4999   1.199   2.644   4.076  0.6984 -0.1058 -1.2828
 1665TIP3   OH2 5000   3.559   2.254   3.150  0.4023  0.1631 -0.3329
 1665TIP3    H1 5001   3.641   2.262   3.200  0.6374 -0.0435 -0.6791
 1665TIP3    H2 5002   3.566   2.323   3.083 -0.5362  1.3755  0.7628
 1666TIP3   OH2 5003   1.888   3.102   1.981 -0.3855 -0.2917 -0.4889
 1666TIP3    H1 5004   1.970   3.054   1.971 -0.7021 -0.5634 -2.1274
 1666TIP3    H2 5005   1.828   3.060   1.919 -1.3220  0.8276 -0.3802
 1667TIP3   OH2 5006   6.136   3.269   0.729 -1.0357 -0.3055 -0.3703
 1667TIP3    H1 5007   6.210   3.249   0.787  0.4774  0.4378 -1.9523
 1667TIP3    H2 5008   6.081   3.191   0.731 -0.4017 -0.7504  1.0981
 1668TIP3   OH2 5009   3.041   2.853   0.996  0.7013 -0.1557  0.0534
 1668TIP3    H1 5010   3.067   2.868   1.086  0.3164  1.1835 -0.0368
 1668TIP3    H2 5011   3.115   2.884   0.944  0.0573  1.1225 -0.1308
 1669TIP3   OH2 5012   4.728   4.832   0.268 -0.2018 -0.1312  0.1050
 1669TIP3    H1 5013   4.767   4.880   0.195  2.0931 -0.1222  1.2394
 1669TIP3    H2 5014   4.664   4.892   0.304  0.0919  0.6753 -0.6617
 1670TIP3   OH2 5015   3.842   4.204   0.676 -0.0471  0.0235  0.4953
 1670TIP3    H1 5016   3.925   4.167   0.648  1.2056  1.4298  2.1494
 1670TIP3    H2 5017   3.790   4.128   0.703  0.8058 -0.8506 -0.2451
 1671TIP3   OH2 5018   2.312   5.932   4.837  0.0841  0.6090  0.0845
 1671TIP3    H1 5019   2.273   5.993   4.900 -0.0681  1.1708 -0.5476
 1671TIP3    H2 5020   2.371   5.986   4.785  0.1213  0.1688 -0.3335
 1672TIP3   OH2 5021   3.885   5.352   1.617  0.0711  0.7769  0.2407
 1672TIP3    H1 5022   3.794   5.359   1.589  0.4856  2.1679 -0.8802
 1672TIP3    H2 5023   3.936   5.388   1.544  1.5261  0.0121  0.8317
 1673TIP3   OH2 5024   2.711   3.120   2.146 -0.0525  0.2170 -0.1112
 1673TIP3    H1 5025   2.634   3.086   2.100  1.1556 -1.2955 -1.1473
 1673TIP3    H2 5026   2.712   3.074   2.229  1.3912 -2.2402 -1.3740
 1674TIP3   OH2 5027   2.433   4.337   3.471  0.0783 -0.1845 -0.0330
 1674TIP3    H1 5028   2.465   4.261   3.422 -0.6263  0.5574 -1.7179
 1674TIP3    H2 5029   2.498   4.405   3.454  0.7492 -0.3820  1.5383
 1675TIP3   OH2 5030   0.960   2.437   3.390  0.2807 -0.1067  0.2027
 1675TIP3    H1 5031   1.039   2.388   3.369  1.0652  1.4478 -0.6589
 1675TIP3    H2 5032   0.978   2.473   3.478  0.8749  0.8087 -0.2659
 1676TIP3   OH2 5033   2.305   4.651   0.482  0.3485  0.1263  0.6961
 1676TIP3    H1 5034   2.319   4.744   0.463 -1.3104  0.7941  2.3292
 1676TIP3    H2 5035   2.211   4.638   0.468  0.1439 -0.7173  2.5787
 1677TIP3   OH2 5036   5.527   0.620   3.802  0.0351 -0.6577 -0.4456
 1677TIP3    H1 5037   5.448   0.590   3.848 -1.4724  1.1920 -1.6802
 1677TIP3    H2 5038   5.495   0.679   3.735  2.4717 -0.2817 -1.3861
 1678TIP3   OH2 5039   1.996   0.386   0.049  0.0306  0.1617  0.7631
 1678TIP3    H1 5040   2.007   0.311   0.108  0.2083  0.7680  1.5219
 1678TIP3    H2 5041   2.010   0.350  -0.039 -0.1615 -0.7459  1.0898
 1679TIP3   OH2 5042   2.046   3.607   2.479 -0.5404 -0.0415 -0.1887
 1679TIP3    H1 5043   2.065   3.697   2.455  0.5331  0.0855  1.0381
 1679TIP3    H2 5044   1.979   3.579   2.416  0.6036  0.9260 -1.9034
 1680TIP3   OH2 5045   1.782   0.972   1.078  0.4875 -0.0659 -0.0759
 1680TIP3    H1 5046   1.734   0.889   1.084  0.0250  0.2978  2.1318
 1680TIP3    H2 5047   1.771   1.000   0.988 -1.0241 -1.4292 -0.3503
 1681TIP3   OH2 5048   4.782   4.384   0.599  0.5898  0.1648 -0.1448
 1681TIP3    H1 5049   4.866   4.423   0.577  0.0268  1.0630 -0.7993
 1681TIP3    H2 5050   4.719   4.430   0.543 -0.4276  0.0422  0.8649
 1682TIP3   OH2 5051   3.150   4.620   4.775  0.4887 -0.3627  0.0919
 1682TIP3    H1 5052   3.125   4.707   4.745  1.3404 -0.1777 -0.0970
 1682TIP3    H2 5053   3.188   4.578   4.698 -0.1169 -0.9861  0.1218
 1683TIP3   OH2 5054   0.069   5.820   2.109 -0.1413 -0.3057  0.0836
 1683TIP3    H1 5055   0.154   5.845   2.145  0.4070 -1.1126 -0.5983
 1683TIP3    H2 5056   0.034   5.758   2.172  0.0343 -0.3997  0.0906
 1684TIP3   OH2 5057   4.430   0.547   1.505 -0.0805 -0.2348  0.2701
 1684TIP3    H1 5058   4.453   0.458   1.529 -0.2129 -0.1511  0.7237
 1684TIP3    H2 5059   4.338   0.556   1.533 -0.2144 -0.1079 -0.1995
 1685TIP3   OH2 5060   4.837   0.481   2.472 -0.0295 -0.6558  0.3639
 1685TIP3    H1 5061   4.796   0.419   2.413 -0.7314 -0.0375  0.1868
 1685TIP3    H2 5062   4.931   0.466   2.461 -0.0915  0.2316 -1.7967
 1686TIP3   OH2 5063   0.693   0.338   4.741 -0.6038  0.2467  0.8952
 1686TIP3    H1 5064   0.776   0.384   4.731 -1.5317  1.7705 -0.3112
 1686TIP3    H2 5065   0.718   0.246   4.751  1.2190  0.6675  0.6065
 1687TIP3   OH2 5066   5.147   2.168   4.974  0.5718 -0.1604 -0.1105
 1687TIP3    H1 5067   5.233   2.140   4.944  0.5464  1.6339 -2.0542
 1687TIP3    H2 5068   5.102   2.197   4.894 -1.9935 -1.3624  0.7736
 1688TIP3   OH2 5069   5.817   4.707   1.353 -0.1994  0.1925  0.1780
 1688TIP3    H1 5070   5.860   4.708   1.439 -2.1446 -0.9939  1.2253
 1688TIP3    H2 5071   5.831   4.618   1.321 -1.4097 -0.0478  0.3001
 1689TIP3   OH2 5072   2.533   1.002   1.151  0.7850  0.4256  0.0016
 1689TIP3    H1 5073   2.614   1.030   1.195  0.7548  0.1565  0.2330
 1689TIP3    H2 5074   2.473   1.076   1.162  1.3015  1.0110 -0.9937
 1690TIP3   OH2 5075   4.639   4.204   0.781  0.2190 -0.4355  0.2611
 1690TIP3    H1 5076   4.695   4.253   0.722 -1.2910 -0.4472 -1.2699
 1690TIP3    H2 5077   4.643   4.252   0.864  1.2086  0.4566 -0.2833
 1691TIP3   OH2 5078   5.350   1.023   0.470 -0.0193 -0.3994 -0.0019
 1691TIP3    H1 5079   5.279   1.087   0.463  0.2057 -0.2681 -4.9895
 1691TIP3    H2 5080   5.398   1.049   0.548 -2.2785  2.9824  0.4740
 1692TIP3   OH2 5081   3.140   3.646   4.200  0.1457 -0.2730 -0.1769
 1692TIP3    H1 5082   3.232   3.621   4.202  0.5268  0.8303 -1.7649
 1692TIP3    H2 5083   3.093   3.564   4.190  1.0320 -0.7463 -0.5738
 1693TIP3   OH2 5084   5.209   4.714   2.363 -0.1169  0.3988  0.5030
 1693TIP3    H1 5085   5.199   4.715   2.268 -1.6954  1.2889  0.6562
 1693TIP3    H2 5086   5.221   4.622   2.385 -2.0350 -0.0983 -0.3647
 1694TIP3   OH2 5087   3.755   2.706   3.062 -0.4273 -0.3667 -0.0362
 1694TIP3    H1 5088   3.704   2.733   3.138  0.5758 -0.7106  0.7750
 1694TIP3    H2 5089   3.726   2.616   3.044 -0.7734 -0.2324 -0.1701
 1695TIP3   OH2 5090   3.045   3.446   2.296  0.1300  0.5305 -0.6019
 1695TIP3    H1 5091   2.952   3.456   2.317 -0.0801 -1.9031 -0.0688
 1695TIP3    H2 5092   3.084   3.419   2.379  0.6681 -1.7373 -1.5245
 1696TIP3   OH2 5093   5.748   3.613   1.057 -0.5571  0.2136  0.0917
 1696TIP3    H1 5094   5.670   3.568   1.089  0.2347 -0.6050  0.9201
 1696TIP3    H2 5095   5.776   3.668   1.130  0.9265 -1.2200  0.6471
 1697TIP3   OH2 5096   4.635   4.368   3.246  0.2800 -0.7895 -0.5315
 1697TIP3    H1 5097   4.711   4.370   3.304  0.9003  1.6361 -1.2976
 1697TIP3    H2 5098   4.671   4.340   3.162  0.4790  0.7441 -0.9963
 1698TIP3   OH2 5099   2.336   3.637   3.241 -0.2742  0.3317 -0.5717
 1698TIP3    H1 5100   2.380   3.591   3.169  0.2337  2.0612 -1.4115
 1698TIP3    H2 5101   2.245   3.646   3.211  0.2504  2.3777 -1.7584
 1699TIP3   OH2 5102   3.658   2.654   4.193  0.4000  0.1815 -0.0595
 1699TIP3    H1 5103   3.728   2.597   4.224 -1.5961 -2.0119  0.6688
 1699TIP3    H2 5104   3.701   2.739   4.180  3.3875 -1.2838 -0.6821
 1700TIP3   OH2 5105   5.234   0.581   3.183 -0.5369  0.2679 -0.9334
 1700TIP3    H1 5106   5.149   0.549   3.154 -0.6572 -0.2663 -0.0413
 1700TIP3    H2 5107   5.213   0.647   3.249 -0.2902 -1.1700  0.6566
 1701TIP3   OH2 5108   5.171   0.295   4.187  0.5207 -0.0179 -0.5700
 1701TIP3    H1 5109   5.243   0.285   4.126  1.0015  1.1501 -0.2127
 1701TIP3    H2 5110   5.190   0.375   4.235  0.0079 -0.7338  0.9158
 1702TIP3   OH2 5111   0.075   2.983   1.313 -0.1469  0.4980  0.3902
 1702TIP3    H1 5112   0.145   3.043   1.340 -0.0990  1.3259 -1.4242
 1702TIP3    H2 5113   0.019   3.036   1.256 -2.8012  0.1139  2.4643
 1703TIP3   OH2 5114   2.329   3.172   0.918  0.0365 -0.3197 -0.1885
 1703TIP3    H1 5115   2.273   3.108   0.962 -0.0121  0.1872  0.5116
 1703TIP3    H2 5116   2.285   3.256   0.933 -0.0592 -0.1519 -1.3519
 1704TIP3   OH2 5117   0.720   2.442   1.787  0.0805 -0.1896  0.7568
 1704TIP3    H1 5118   0.711   2.378   1.716  0.0898  0.4888  0.1240
 1704TIP3    H2 5119   0.719   2.527   1.742  2.5698  0.2157  1.2870
 1705TIP3   OH2 5120   5.856   1.067   1.806 -0.4630  0.5588  0.4358
 1705TIP3    H1 5121   5.930   1.041   1.751  0.0492  0.6042  1.0916
 1705TIP3    H2 5122   5.795   0.994   1.801  0.2269 -0.0614  0.9531
 1706TIP3   OH2 5123   5.454   4.963   1.303 -0.0410 -0.2373  0.0684
 1706TIP3    H1 5124   5.432   5.050   1.335 -1.3807  0.0765 -1.6011
 1706TIP3    H2 5125   5.533   4.976   1.250  0.0107 -0.1355  0.1691
 1707TIP3   OH2 5126   5.940   4.941   0.157  0.5336  0.8507 -0.5148
 1707TIP3    H1 5127   5.929   4.919   0.064 -1.8196  3.2014 -0.8968
 1707TIP3    H2 5128   5.955   5.035   0.158  1.2545  0.7614  1.4932
 1708TIP3   OH2 5129   1.259   0.646   0.257  0.0583 -0.5357  0.6521
 1708TIP3    H1 5130   1.198   0.573   0.248 -0.2718 -0.0455 -1.7204
 1708TIP3    H2 5131   1.222   0.716   0.205  1.4473  0.6240  1.1309
 1709TIP3   OH2 5132   0.062   1.153   2.113  0.3459  0.2564  0.0905
 1709TIP3    H1 5133   0.035   1.165   2.022 -1.8624  1.2945  0.7874
 1709TIP3    H2 5134   0.036   1.064   2.135 -0.0778  0.3520 -0.0161
 1710TIP3   OH2 5135   5.034   0.537   0.496 -0.1270 -0.3780 -0.6136
 1710TIP3    H1 5136   5.109   0.595   0.483  0.2651 -0.7752 -0.2106
 1710TIP3    H2 5137   4.957   0.591   0.478  0.2843 -0.2002 -1.8823
 1711TIP3   OH2 5138   1.398   5.270   1.006 -0.0260  0.1443 -0.5340
 1711TIP3    H1 5139   1.343   5.320   0.946  1.0194  0.0698 -1.6163
 1711TIP3    H2 5140   1.488   5.288   0.975  0.4956 -0.4444  0.5942
 1712TIP3   OH2 5141   1.204   1.526   2.985 -0.1943 -0.1199 -0.2519
 1712TIP3    H1 5142   1.146   1.588   2.940  0.7000  0.2095 -0.9712
 1712TIP3    H2 5143   1.176   1.531   3.077 -0.8806  0.5071 -0.4787
 1713TIP3   OH2 5144   4.314   3.532   2.989 -0.6586 -0.3378 -0.3181
 1713TIP3    H1 5145   4.290   3.496   2.904 -3.1014 -0.3687  0.3105
 1713TIP3    H2 5146   4.285   3.466   3.053 -0.1897  0.3158  0.6007
 1714TIP3   OH2 5147   4.907   2.175   0.206 -0.0022  0.3447  0.0194
 1714TIP3    H1 5148   4.862   2.241   0.258  1.9583 -0.2057  2.5947
 1714TIP3    H2 5149   4.880   2.092   0.244  1.4841 -0.0684  0.2217
 1715TIP3   OH2 5150   4.001   4.418   3.398 -0.5663 -0.2213  0.5083
 1715TIP3    H1 5151   4.028   4.374   3.317 -0.3742  0.4106  0.2205
 1715TIP3    H2 5152   4.058   4.495   3.403 -0.5230 -0.2989  1.2905
 1716TIP3   OH2 5153   5.206   4.828   1.901  0.4121 -0.4445  0.3347
 1716TIP3    H1 5154   5.281   4.783   1.863  2.4412  3.4189 -0.7406
 1716TIP3    H2 5155   5.135   4.815   1.837  1.3577 -0.8130 -0.6678
 1717TIP3   OH2 5156   4.515   5.743   3.840  0.0165  0.2573 -0.3137
 1717TIP3    H1 5157   4.519   5.838   3.828  0.7143  0.5048  1.5431
 1717TIP3    H2 5158   4.436   5.729   3.892  1.0796  0.0935  1.3162
 1718TIP3   OH2 5159   2.737   2.946   2.347  0.0008 -0.1831 -0.8157
 1718TIP3    H1 5160   2.721   2.857   2.316 -0.5933 -1.0543  1.7861
 1718TIP3    H2 5161   2.774   2.935   2.434 -0.1259  2.1399 -0.4062
 1719TIP3   OH2 5162   4.174   4.622   2.241  0.2183  0.3399 -0.1122
 1719TIP3    H1 5163   4.249   4.663   2.285 -0.1807  0.4555  0.4765
 1719TIP3    H2 5164   4.101   4.632   2.303 -0.0075 -0.8449 -0.1631
 1720TIP3   OH2 5165   4.045   2.412   0.079  0.8215 -0.0220 -0.2267
 1720TIP3    H1 5166   4.098   2.353   0.133  3.2797  0.5921 -1.7848
 1720TIP3    H2 5167   3.974   2.357   0.046  0.7422 -1.0387  1.5009
 1721TIP3   OH2 5168   2.043   5.159   1.316 -0.3165 -0.3240 -0.3949
 1721TIP3    H1 5169   2.115   5.201   1.269 -0.1354 -1.0574 -0.7863
 1721TIP3    H2 5170   1.976   5.227   1.322 -0.3293 -0.1901 -1.6837
 1722TIP3   OH2 5171   0.962   1.771   1.582 -0.3505  0.6203  0.0805
 1722TIP3    H1 5172   0.908   1.769   1.661  0.6992 -0.6210  0.7973
 1722TIP3    H2 5173   0.949   1.685   1.543  2.4579 -0.4457  1.2504
 1723TIP3   OH2 5174   4.216   1.186   2.668  0.0011 -0.2135  0.2852
 1723TIP3    H1 5175   4.165   1.223   2.740 -0.2073  1.2756 -0.5774
 1723TIP3    H2 5176   4.153   1.180   2.595  0.7303  0.5385 -0.4386
 1724TIP3   OH2 5177   3.258   4.660   0.712  0.1884 -0.5177 -0.6196
 1724TIP3    H1 5178   3.262   4.744   0.667 -1.0154  0.4120  0.9375
 1724TIP3    H2 5179   3.168   4.629   0.700  0.8387 -2.0522 -1.9252
 1725TIP3   OH2 5180   0.719   4.334   3.467 -0.3693 -0.2339 -0.2384
 1725TIP3    H1 5181   0.626   4.326   3.489 -0.4845 -0.2544 -0.7218
 1725TIP3    H2 5182   0.763   4.268   3.521 -0.7156 -0.6886 -0.5057
 1726TIP3   OH2 5183   1.646   1.450   3.723  0.2627  0.3626  0.2457
 1726TIP3    H1 5184   1.661   1.443   3.629 -1.4290  1.6582 -0.1524
 1726TIP3    H2 5185   1.680   1.536   3.747  1.0273 -0.1083  0.9162
 1727TIP3   OH2 5186   3.585   5.645   4.526 -0.2594 -0.3557 -0.4357
 1727TIP3    H1 5187   3.659   5.696   4.493 -1.7714  0.8336 -2.2370
 1727TIP3    H2 5188   3.552   5.696   4.600  1.6719 -1.7821  1.5370
 1728TIP3   OH2 5189   0.502   4.602   0.462 -0.5756  0.3760  0.0446
 1728TIP3    H1 5190   0.590   4.574   0.488 -0.5646  0.9884  0.6995
 1728TIP3    H2 5191   0.454   4.520   0.449 -0.9278 -0.0867  3.2614
 1729TIP3   OH2 5192   3.412   2.154   3.584 -0.2139  0.2963  0.0491
 1729TIP3    H1 5193   3.479   2.220   3.599 -1.2804  1.1218  1.3961
 1729TIP3    H2 5194   3.426   2.126   3.493  1.5085  0.9099  0.0928
 1730TIP3   OH2 5195   4.264   4.389   4.584 -0.3667 -0.1455 -0.4321
 1730TIP3    H1 5196   4.180   4.435   4.590 -0.3272 -0.2534  1.7386
 1730TIP3    H2 5197   4.313   4.419   4.660  2.0440  0.7515 -2.2352
 1731TIP3   OH2 5198   2.665   5.552   1.259  0.1044  0.1223  0.1761
 1731TIP3    H1 5199   2.744   5.591   1.221  1.0675 -1.4860  0.4453
 1731TIP3    H2 5200   2.655   5.469   1.213 -1.4902  0.3199  0.1163
 1732TIP3   OH2 5201   5.979   1.134   4.478  0.3087 -0.4129  0.0526
 1732TIP3    H1 5202   5.997   1.228   4.478 -1.4603  0.0056  2.0610
 1732TIP3    H2 5203   6.052   1.096   4.527 -0.5953  0.3814  2.1247
 1733TIP3   OH2 5204   5.913   0.715   3.264  0.1588  0.2840 -0.3191
 1733TIP3    H1 5205   5.995   0.671   3.241  0.4430  0.6368  0.0224
 1733TIP3    H2 5206   5.846   0.666   3.217  0.8501  1.8898 -3.1973
 1734TIP3   OH2 5207   4.649   5.243   0.332  0.0203  0.7280  0.5696
 1734TIP3    H1 5208   4.668   5.282   0.417 -0.4167 -2.4400  2.2926
 1734TIP3    H2 5209   4.728   5.192   0.311 -0.6641 -0.1788  0.1323
 1735TIP3   OH2 5210   0.078   4.953   3.691  0.3368 -0.6395 -0.7027
 1735TIP3    H1 5211   0.126   5.035   3.690  1.5653 -1.3256 -0.4502
 1735TIP3    H2 5212  -0.012   4.977   3.670  0.6005  0.8024 -0.2625
 1736TIP3   OH2 5213   0.408   4.343   3.550 -0.3557 -0.2785  1.0740
 1736TIP3    H1 5214   0.329   4.291   3.565 -0.6321  0.2691  1.5526
 1736TIP3    H2 5215   0.379   4.434   3.555  0.0186 -0.0596 -0.2927
 1737TIP3   OH2 5216   2.994   2.971   4.742  0.7761 -0.0027  0.0715
 1737TIP3    H1 5217   2.924   2.978   4.677 -0.6251 -2.2772  1.2043
 1737TIP3    H2 5218   3.053   2.904   4.707 -0.3424 -1.7336  1.3612
 1738TIP3   OH2 5219   4.454   4.704   3.184 -0.4849 -0.0018 -0.5046
 1738TIP3    H1 5220   4.533   4.681   3.233  0.2269  0.2558 -1.4973
 1738TIP3    H2 5221   4.441   4.797   3.202 -0.4428  0.0049 -0.5086
 1739TIP3   OH2 5222   5.558   3.509   4.430 -0.9951 -0.6004  0.5698
 1739TIP3    H1 5223   5.502   3.566   4.377  0.3860  0.4937  0.2420
 1739TIP3    H2 5224   5.641   3.556   4.436  0.2082 -2.5795  0.2730
 1740TIP3   OH2 5225   6.291   5.660   3.109  0.0032  0.2224 -0.1391
 1740TIP3    H1 5226   6.323   5.614   3.187 -0.7566 -1.1002 -0.5778
 1740TIP3    H2 5227   6.331   5.747   3.115  0.2162  0.0543  1.5600
 1741TIP3   OH2 5228   1.923   5.735   1.707 -1.2734  0.1859  0.1558
 1741TIP3    H1 5229   1.943   5.669   1.641 -1.0983  0.9669 -0.5981
 1741TIP3    H2 5230   1.834   5.764   1.686 -0.6651  1.5437 -0.7505
 1742TIP3   OH2 5231   1.428   1.294   1.360 -0.1989  0.0560 -0.2111
 1742TIP3    H1 5232   1.480   1.348   1.300 -0.8916 -0.0159 -0.8905
 1742TIP3    H2 5233   1.359   1.352   1.390 -0.7215 -0.3301 -0.6433
 1743TIP3   OH2 5234   4.168   2.814   2.977 -0.7377 -0.5040 -0.1296
 1743TIP3    H1 5235   4.170   2.803   2.882  2.1680  1.9049 -0.5044
 1743TIP3    H2 5236   4.092   2.870   2.993  0.3188  1.4129 -1.4561
 1744TIP3   OH2 5237   5.149   1.293   3.428  0.3828  0.5025 -0.0752
 1744TIP3    H1 5238   5.082   1.302   3.495 -0.5737 -0.4277 -0.8654
 1744TIP3    H2 5239   5.106   1.321   3.347  1.0602  0.2456 -0.5312
 1745TIP3   OH2 5240   5.168   0.459   4.904  0.4335 -0.4529  0.0672
 1745TIP3    H1 5241   5.168   0.554   4.894  0.4153 -0.2081  1.9623
 1745TIP3    H2 5242   5.083   0.431   4.871  0.3474  0.2131 -0.2938
 1746TIP3   OH2 5243   2.128   1.137   3.853  0.4205 -0.3664 -0.2840
 1746TIP3    H1 5244   2.051   1.193   3.846  0.0885 -0.6210  1.0017
 1746TIP3    H2 5245   2.120   1.076   3.780  0.5364  0.9364 -1.4170
 1747TIP3   OH2 5246   2.347   1.866   4.130 -0.1714 -0.0761  0.2207
 1747TIP3    H1 5247   2.291   1.800   4.171  0.5154 -0.2809  0.8531
 1747TIP3    H2 5248   2.286   1.931   4.094 -0.9807 -2.0438 -2.2653
 1748TIP3   OH2 5249   5.240   2.079   0.270 -0.1433 -0.4754 -0.4918
 1748TIP3    H1 5250   5.191   2.161   0.261 -1.6396 -0.7730  3.0168
 1748TIP3    H2 5251   5.218   2.048   0.358  1.2885 -4.0773 -1.2168
 1749TIP3   OH2 5252   4.085   4.193   4.124  0.3328  0.1496 -0.7331
 1749TIP3    H1 5253   4.060   4.229   4.209  2.2092 -0.5117  0.1586
 1749TIP3    H2 5254   4.108   4.270   4.071 -1.8237  0.6403 -1.0443
 1750TIP3   OH2 5255   3.306   5.335   3.792  0.2290  0.2668 -0.3243
 1750TIP3    H1 5256   3.358   5.280   3.851 -1.5088  0.5771  1.6187
 1750TIP3    H2 5257   3.292   5.280   3.715  1.3866 -0.6979  0.1153
 1751TIP3   OH2 5258   1.855   3.132   0.004 -0.3858 -0.0531  0.5359
 1751TIP3    H1 5259   1.792   3.172  -0.056  0.6361 -1.7020 -1.7514
 1751TIP3    H2 5260   1.836   3.173   0.089 -0.2391  4.3802 -1.2717
 1752TIP3   OH2 5261   2.405   2.913   0.181  0.0610  0.3156 -0.2351
 1752TIP3    H1 5262   2.454   2.995   0.174 -0.0693  0.6324  1.9781
 1752TIP3    H2 5263   2.420   2.884   0.271 -0.3025 -1.8487 -0.8334
 1753TIP3   OH2 5264   2.514   2.394   1.058 -0.0402 -0.3512  0.1816
 1753TIP3    H1 5265   2.430   2.413   1.016 -0.9124 -0.7270  1.7012
 1753TIP3    H2 5266   2.574   2.458   1.020 -1.0604  0.0841 -0.7616
 1754TIP3   OH2 5267   3.392   5.708   2.118  0.1216  0.0787 -0.0069
 1754TIP3    H1 5268   3.479   5.680   2.148  0.1664  0.0978 -0.1194
 1754TIP3    H2 5269   3.409   5.781   2.059  0.2302 -1.6308 -2.2033
 1755TIP3   OH2 5270   2.295   4.338   4.013 -0.5701  0.0889  0.2069
 1755TIP3    H1 5271   2.351   4.338   3.935 -0.4702  0.3884  0.2766
 1755TIP3    H2 5272   2.314   4.421   4.056 -1.0483  0.1800  0.2494
 1756TIP3   OH2 5273   5.748   4.518   1.706  0.2057 -0.3186  0.3306
 1756TIP3    H1 5274   5.660   4.514   1.743  0.5468 -0.2832  1.1652
 1756TIP3    H2 5275   5.740   4.479   1.619 -0.6506 -0.2264  0.3683
 1757TIP3   OH2 5276   4.161   0.041   3.973  0.1736  0.4998  0.2623
 1757TIP3    H1 5277   4.073   0.068   3.946  0.1222  0.2832  0.2114
 1757TIP3    H2 5278   4.165   0.066   4.066  0.3793  1.3117  0.0415
 1758TIP3   OH2 5279   5.486   5.829   2.891 -0.0599  0.2286 -0.2567
 1758TIP3    H1 5280   5.570   5.860   2.923 -1.4020  3.1253  0.7948
 1758TIP3    H2 5281   5.458   5.896   2.828 -2.1945  0.1340  0.5009
 1759TIP3   OH2 5282   4.471   3.206   1.638  0.0887  0.1046  0.2221
 1759TIP3    H1 5283   4.514   3.181   1.556  1.2366  0.2734  0.7623
 1759TIP3    H2 5284   4.459   3.301   1.631 -0.2997  0.0441  0.0309
 1760TIP3   OH2 5285   4.026   5.341   2.680  0.4251 -0.0140 -0.3524
 1760TIP3    H1 5286   4.055   5.264   2.631 -0.3888  1.4492 -3.3874
 1760TIP3    H2 5287   3.947   5.313   2.724  1.0964 -1.3643  0.0505
 1761TIP3   OH2 5288   5.331   2.070   1.735  0.1414 -0.1622 -0.4010
 1761TIP3    H1 5289   5.275   2.044   1.662 -1.4338  0.7212  0.4502
 1761TIP3    H2 5290   5.321   2.000   1.799 -1.9892  1.1082  0.7668
 1762TIP3   OH2 5291   3.237   5.327   4.089  0.1842 -0.3347  0.4023
 1762TIP3    H1 5292   3.276   5.243   4.113  1.5570  0.5828  1.5099
 1762TIP3    H2 5293   3.302   5.392   4.114 -0.2756  1.0178 -1.6573
 1763TIP3   OH2 5294   4.643   5.865   4.121  0.5025 -0.2639 -0.4314
 1763TIP3    H1 5295   4.635   5.952   4.081  0.8552  0.1550  0.3928
 1763TIP3    H2 5296   4.650   5.882   4.215 -0.3611 -1.2303 -0.1628
 1764TIP3   OH2 5297   1.513   2.274   4.420  0.8752 -0.0088  0.1090
 1764TIP3    H1 5298   1.549   2.207   4.362  0.3919 -0.2587  0.0941
 1764TIP3    H2 5299   1.470   2.336   4.362 -0.9357 -1.0457  0.2506
 1765TIP3   OH2 5300   3.929   0.799   3.414  0.2599  0.4738 -0.5740
 1765TIP3    H1 5301   3.852   0.855   3.428 -2.2462 -2.2719 -2.1255
 1765TIP3    H2 5302   3.947   0.806   3.320  0.5230 -0.5214 -0.6068
 1766TIP3   OH2 5303   3.273   5.575   0.512 -0.1472  0.0535  0.4977
 1766TIP3    H1 5304   3.292   5.616   0.427 -0.1272  1.5093  1.1870
 1766TIP3    H2 5305   3.181   5.547   0.505  0.5154 -2.0876 -0.8601
 1767TIP3   OH2 5306   0.933   1.115   0.915  0.4869 -0.2201 -0.0279
 1767TIP3    H1 5307   0.861   1.145   0.971 -0.0646  2.2237 -1.8782
 1767TIP3    H2 5308   0.893   1.053   0.855  0.2083  0.0784 -0.1562
 1768TIP3   OH2 5309   0.701   1.299   0.618 -0.4624 -0.0215  0.7412
 1768TIP3    H1 5310   0.626   1.350   0.649 -1.0313 -0.8917  0.8282
 1768TIP3    H2 5311   0.671   1.258   0.537 -0.0362 -0.2690  0.7062
 1769TIP3   OH2 5312   0.719   2.665   0.447 -0.1162  0.5609  0.1699
 1769TIP3    H1 5313   0.711   2.739   0.506  0.1351  0.5149  0.2647
 1769TIP3    H2 5314   0.795   2.617   0.479 -1.0104 -0.4291  0.8765
 1770TIP3   OH2 5315   0.947   0.880   2.254  0.7360  0.0879 -0.0729
 1770TIP3    H1 5316   1.020   0.901   2.196 -0.0380 -0.6320 -1.3433
 1770TIP3    H2 5317   0.963   0.933   2.332  1.5429  1.4734 -1.1297
 1771TIP3   OH2 5318   6.171   5.338   1.340  0.4880 -0.1126  0.1395
 1771TIP3    H1 5319   6.200   5.250   1.365 -0.4133 -1.4567 -2.9743
 1771TIP3    H2 5320   6.082   5.344   1.376 -0.1052 -1.2555 -1.0124
 1772TIP3   OH2 5321   0.761   2.844   1.357 -0.0012  0.1329  0.0257
 1772TIP3    H1 5322   0.790   2.808   1.441  2.1038  0.8988 -0.3125
 1772TIP3    H2 5323   0.837   2.891   1.323 -1.6116  2.0942 -1.1057
 1773TIP3   OH2 5324   1.339   0.721   4.895 -0.2050  0.4073  0.0872
 1773TIP3    H1 5325   1.367   0.793   4.952 -2.6174  1.2180  0.3217
 1773TIP3    H2 5326   1.318   0.650   4.955 -0.4063  0.4217  0.0331
 1774TIP3   OH2 5327   0.521   0.335   0.843 -0.2467 -0.2335  0.7426
 1774TIP3    H1 5328   0.459   0.338   0.917 -0.1209 -2.3106  1.0168
 1774TIP3    H2 5329   0.468   0.303   0.770 -0.0951  0.6254  0.2589
 1775TIP3   OH2 5330   5.028   0.923   4.334 -0.7379 -0.0347  0.4850
 1775TIP3    H1 5331   5.101   0.972   4.297 -0.4240 -0.1893  0.8947
 1775TIP3    H2 5332   4.950   0.962   4.293 -0.4720  0.5608  0.5300
 1776TIP3   OH2 5333   5.235   3.029   3.466 -0.4548  0.1253  0.7620
 1776TIP3    H1 5334   5.253   3.109   3.516 -1.4353  0.8019  0.0686
 1776TIP3    H2 5335   5.205   3.060   3.381 -0.0181 -1.0022  0.1730
 1777TIP3   OH2 5336   0.113   5.182   4.603  0.1873  0.9005  0.4165
 1777TIP3    H1 5337   0.193   5.223   4.635  2.4994 -1.7441 -1.5396
 1777TIP3    H2 5338   0.068   5.252   4.555  2.3515  1.9945 -0.1557
 1778TIP3   OH2 5339   2.000   3.425   4.433 -0.3781 -0.4185 -0.1254
 1778TIP3    H1 5340   2.049   3.456   4.357 -0.9282  0.1160 -0.2709
 1778TIP3    H2 5341   1.969   3.338   4.407  2.2750 -1.7385  0.7769
 1779TIP3   OH2 5342   1.293   3.212   4.180 -0.1108  0.1186  0.0783
 1779TIP3    H1 5343   1.248   3.292   4.154 -1.1786 -0.9961 -1.6371
 1779TIP3    H2 5344   1.245   3.181   4.257 -0.5801  0.3738 -0.1112
 1780TIP3   OH2 5345   0.424   5.882   3.239  0.3777  0.2079  0.4276
 1780TIP3    H1 5346   0.370   5.962   3.238 -0.1270 -0.1332  0.1568
 1780TIP3    H2 5347   0.479   5.890   3.161 -1.3377 -0.8208 -0.9530
 1781TIP3   OH2 5348   5.284   4.114   0.975  0.0776 -0.1126  0.0922
 1781TIP3    H1 5349   5.304   4.176   0.905  1.9224  0.9185  1.4424
 1781TIP3    H2 5350   5.201   4.145   1.011 -0.9014 -0.6554 -1.5613
 1782TIP3   OH2 5351   2.994   3.726   2.407  0.5364  0.2758  0.2741
 1782TIP3    H1 5352   2.969   3.679   2.327  1.0694 -0.1677  0.3628
 1782TIP3    H2 5353   2.972   3.817   2.388  0.3552  0.1291 -0.2580
 1783TIP3   OH2 5354  -0.014   1.018   2.469 -0.3968  0.2957 -0.0299
 1783TIP3    H1 5355   0.001   0.969   2.550  1.6285 -0.0177 -0.5250
 1783TIP3    H2 5356   0.070   1.014   2.423 -1.5529  0.2337 -2.2909
 1784TIP3   OH2 5357   5.936   3.225   1.210 -0.1300 -0.2596 -0.0668
 1784TIP3    H1 5358   5.919   3.274   1.130 -0.3351 -1.4134 -0.7529
 1784TIP3    H2 5359   5.855   3.176   1.226  0.1100 -0.4803  0.5251
 1785TIP3   OH2 5360   4.484   0.519   2.592 -0.7284 -0.2457 -0.2128
 1785TIP3    H1 5361   4.510   0.587   2.529 -0.8536  0.0087  0.0089
 1785TIP3    H2 5362   4.443   0.451   2.537 -0.1341 -0.3833 -0.4922
 1786TIP3   OH2 5363   0.852   5.928   0.419 -0.2395 -0.3689 -0.1951
 1786TIP3    H1 5364   0.784   5.955   0.358 -0.0369 -0.4662 -0.4641
 1786TIP3    H2 5365   0.933   5.934   0.369 -0.0208 -0.0208  0.1964
 1787TIP3   OH2 5366   2.590   5.098   0.961  0.1904 -0.1379  0.4127
 1787TIP3    H1 5367   2.579   5.045   0.883  1.8575  2.2678 -1.6159
 1787TIP3    H2 5368   2.514   5.076   1.016 -1.3928 -1.4985 -2.1333
 1788TIP3   OH2 5369   0.896   3.709   1.070  0.0249  0.0521 -0.0378
 1788TIP3    H1 5370   0.937   3.738   1.152  0.5207 -1.0606  0.1175
 1788TIP3    H2 5371   0.960   3.732   1.003  0.3677 -0.5750  0.0726
 1789TIP3   OH2 5372   3.994   0.268   0.918  0.1071 -0.2134 -0.4967
 1789TIP3    H1 5373   4.038   0.193   0.878 -0.2793 -1.8032  1.8764
 1789TIP3    H2 5374   4.044   0.344   0.887  2.3064 -1.6623 -0.7328
 1790TIP3   OH2 5375   3.375   5.553   2.763  0.2529 -0.0795  0.1669
 1790TIP3    H1 5376   3.410   5.569   2.851 -1.1578  2.9255  0.3021
 1790TIP3    H2 5377   3.280   5.553   2.774  0.0577 -0.1491 -1.2864
 1791TIP3   OH2 5378   1.740   3.604   1.087  0.1316  0.2967  0.1667
 1791TIP3    H1 5379   1.802   3.531   1.083 -0.1511  0.0692 -0.1266
 1791TIP3    H2 5380   1.739   3.631   1.179 -1.2478 -1.3519  0.6666
 1792TIP3   OH2 5381   1.094   0.395   2.346  0.5904  0.0874 -0.8048
 1792TIP3    H1 5382   1.085   0.490   2.355 -1.1221 -0.1339  0.2821
 1792TIP3    H2 5383   1.184   0.382   2.315  1.8190  1.9109  1.6953
 1793TIP3   OH2 5384   0.208   0.002   3.468 -0.0195  0.2145 -0.4053
 1793TIP3    H1 5385   0.143   0.062   3.432 -0.0230  1.0414  0.9202
 1793TIP3    H2 5386   0.197   0.008   3.562 -0.3322 -2.2438 -0.2234
 1794TIP3   OH2 5387   5.569   3.234   1.643 -0.1689 -0.3967 -0.2097
 1794TIP3    H1 5388   5.619   3.266   1.568 -1.1091  0.7478 -0.3841
 1794TIP3    H2 5389   5.517   3.162   1.608  0.5139 -0.8564 -0.2906
 1795TIP3   OH2 5390   2.974   4.014   3.924 -0.2581  0.4161  0.4121
 1795TIP3    H1 5391   2.882   3.990   3.934  0.4338 -2.3617  0.9868
 1795TIP3    H2 5392   3.019   3.966   3.993  1.6149  2.0090  0.3805
 1796TIP3   OH2 5393   4.881   0.859   3.218  0.4265 -0.4696 -0.4135
 1796TIP3    H1 5394   4.824   0.904   3.280  0.5840 -0.2722 -0.4104
 1796TIP3    H2 5395   4.826   0.791   3.179  0.4009 -0.7616  0.1306
 1797TIP3   OH2 5396   1.357   0.331   3.756  0.0343 -0.0981 -0.2000
 1797TIP3    H1 5397   1.296   0.389   3.711  0.8767  0.1177 -1.1021
 1797TIP3    H2 5398   1.412   0.390   3.808 -1.0213 -0.3560  1.2622
 1798TIP3   OH2 5399   3.990   3.585   3.252 -0.3851 -0.3156  0.2943
 1798TIP3    H1 5400   4.010   3.587   3.159 -0.7932 -0.8127  0.1886
 1798TIP3    H2 5401   3.979   3.491   3.272 -1.8227 -0.1289  0.4974
 1799TIP3   OH2 5402   5.781   3.735   4.175  0.2353  0.5182  0.3247
 1799TIP3    H1 5403   5.810   3.656   4.129 -0.5509 -0.1651  0.9702
 1799TIP3    H2 5404   5.778   3.709   4.267  1.3823  1.7395  0.7329
 1800TIP3   OH2 5405   1.435   1.857   3.840 -0.4205 -0.2749 -0.2337
 1800TIP3    H1 5406   1.506   1.921   3.836  0.0058 -0.5970  1.4804
 1800TIP3    H2 5407   1.373   1.886   3.773 -1.5550  3.5779  2.1589
 1801TIP3   OH2 5408   4.640   2.487   2.450 -0.2935  0.0560 -0.4143
 1801TIP3    H1 5409   4.641   2.398   2.415  0.5789 -0.1720  0.1481
 1801TIP3    H2 5410   4.668   2.542   2.377 -0.2871 -0.2011 -0.6057
 1802TIP3   OH2 5411   1.186   3.843   3.247  0.2519 -0.6218  0.2115
 1802TIP3    H1 5412   1.235   3.919   3.215 -1.8409  0.8043  0.1846
 1802TIP3    H2 5413   1.236   3.767   3.214  0.3427  0.7178 -3.2120
 1803TIP3   OH2 5414   4.302   1.430   3.251  0.6090  0.2636 -0.5076
 1803TIP3    H1 5415   4.266   1.517   3.232 -0.8580  0.6735  3.2686
 1803TIP3    H2 5416   4.339   1.438   3.339  2.4464 -2.4236 -0.9103
 1804TIP3   OH2 5417   2.467   3.701   4.095  0.3252 -0.1956 -0.3376
 1804TIP3    H1 5418   2.493   3.701   4.003  0.7975  1.1608 -0.2370
 1804TIP3    H2 5419   2.371   3.705   4.093  0.3104 -0.7728 -0.7671
 1805TIP3   OH2 5420   4.677   5.422   3.940 -0.3813 -0.1656 -0.0591
 1805TIP3    H1 5421   4.732   5.500   3.933 -2.3451  1.1736 -1.5065
 1805TIP3    H2 5422   4.607   5.448   4.000 -1.8941 -0.2338 -1.7305
 1806TIP3   OH2 5423   5.054   4.129   1.416 -0.8584  0.7038 -0.6130
 1806TIP3    H1 5424   4.967   4.105   1.383 -0.7891 -0.6882  0.1779
 1806TIP3    H2 5425   5.111   4.059   1.387 -0.3530  0.6513  0.4715
 1807TIP3   OH2 5426   5.976   5.406   3.774 -0.5330  0.1676 -0.4956
 1807TIP3    H1 5427   5.889   5.443   3.786  0.4569  2.1508  1.3829
 1807TIP3    H2 5428   5.975   5.324   3.824 -1.4789 -0.1387 -0.9978
 1808TIP3   OH2 5429   4.764   2.646   0.562  0.1809  0.1728  0.0778
 1808TIP3    H1 5430   4.691   2.704   0.588 -0.8965 -0.6340 -1.0561
 1808TIP3    H2 5431   4.756   2.571   0.621  0.3268  0.2556  0.2028
 1809TIP3   OH2 5432   2.291   4.484   4.507  0.3659  0.1578  0.3883
 1809TIP3    H1 5433   2.295   4.579   4.494  0.3519 -0.0572 -1.4157
 1809TIP3    H2 5434   2.376   4.452   4.478 -0.2025 -0.5240 -0.5805
 1810TIP3   OH2 5435   5.508   2.697   4.353  0.0069  0.3346  0.4745
 1810TIP3    H1 5436   5.487   2.783   4.389  1.0460  0.8808 -0.2014
 1810TIP3    H2 5437   5.529   2.713   4.261 -1.3804 -0.8699 -0.0989
 1811TIP3   OH2 5438   2.926   4.306   0.604  0.3039  0.7948 -0.9895
 1811TIP3    H1 5439   2.880   4.225   0.585  0.0413  0.3606  1.1468
 1811TIP3    H2 5440   3.018   4.280   0.616  0.4164  0.9974 -1.4100
 1812TIP3   OH2 5441   4.638   2.320   3.077  0.4809  0.7460  0.4805
 1812TIP3    H1 5442   4.692   2.267   3.019  0.5848  0.2121  1.0518
 1812TIP3    H2 5443   4.549   2.290   3.061  0.5169  0.5490  0.6407
 1813TIP3   OH2 5444   2.110   5.114   4.338  0.3182  0.4114  0.0624
 1813TIP3    H1 5445   2.203   5.127   4.322  0.1654 -1.0221 -2.7774
 1813TIP3    H2 5446   2.079   5.196   4.376  2.5783  1.1852  0.3433
 1814TIP3   OH2 5447   1.335   3.457   4.571  0.1608 -0.2118 -0.1394
 1814TIP3    H1 5448   1.333   3.418   4.658 -2.2876  1.1112  0.4870
 1814TIP3    H2 5449   1.396   3.531   4.579 -1.1223  0.7922  0.9411
 1815TIP3   OH2 5450   4.104   1.722   3.451  0.2679  0.8303  0.4004
 1815TIP3    H1 5451   4.171   1.662   3.484  0.7601  0.3701 -1.3276
 1815TIP3    H2 5452   4.147   1.770   3.380 -0.4701  2.4294  0.9883
 1816TIP3   OH2 5453   4.289   4.902   2.161 -0.2985  0.3119 -0.2160
 1816TIP3    H1 5454   4.354   4.841   2.127  0.3030  0.8229 -0.0079
 1816TIP3    H2 5455   4.322   4.988   2.137  0.4238  0.7325  2.0806
 1817TIP3   OH2 5456   4.795   3.628   4.747  0.3201  0.2145 -0.1355
 1817TIP3    H1 5457   4.866   3.625   4.682 -1.8940 -0.0189 -2.7014
 1817TIP3    H2 5458   4.783   3.721   4.765  2.1972  0.2053  1.5223
 1818TIP3   OH2 5459   0.124   0.414   0.029 -0.4468  0.8697 -0.0611
 1818TIP3    H1 5460   0.141   0.508   0.037  2.8133  0.4414 -0.5026
 1818TIP3    H2 5461   0.138   0.380   0.118  2.2778  0.4209 -0.5537
 1819TIP3   OH2 5462   4.550   4.199   2.830 -0.2325 -0.1607 -0.5554
 1819TIP3    H1 5463   4.631   4.192   2.780 -1.1542 -1.7783 -1.9514
 1819TIP3    H2 5464   4.483   4.220   2.764 -0.8816  1.7348  0.6475
 1820TIP3   OH2 5465   2.258   4.635   0.919 -0.2334  0.5562  0.5029
 1820TIP3    H1 5466   2.179   4.674   0.956 -2.0965 -1.3237 -1.1978
 1820TIP3    H2 5467   2.269   4.552   0.966 -1.6473 -1.0412 -1.7738
 1821TIP3   OH2 5468   4.447   4.544   2.711 -0.0657 -0.0109  0.8603
 1821TIP3    H1 5469   4.390   4.487   2.659  1.5814 -1.3524  0.4627
 1821TIP3    H2 5470   4.391   4.573   2.784 -1.5506 -0.4154 -0.0700
 1822TIP3   OH2 5471   1.367   2.488   0.448 -0.0712 -0.0775 -0.0575
 1822TIP3    H1 5472   1.390   2.495   0.540  1.0717  1.8330 -0.4310
 1822TIP3    H2 5473   1.287   2.540   0.440 -0.7781 -1.1271  0.0242
 1823TIP3   OH2 5474   0.540   5.514   0.375  0.3385 -0.1360 -0.9014
 1823TIP3    H1 5475   0.492   5.550   0.449  1.0710 -0.3086 -0.3271
 1823TIP3    H2 5476   0.545   5.586   0.312  1.3428  0.6369  0.0209
 1824TIP3   OH2 5477   3.962   2.910   0.065 -0.1153 -0.0095  0.4763
 1824TIP3    H1 5478   3.905   2.884  -0.007 -0.3320 -0.8752  0.9467
 1824TIP3    H2 5479   3.976   3.004   0.052 -0.2743 -0.1302 -0.5961
 1825TIP3   OH2 5480   3.357   0.910   4.132 -0.5628 -0.0572 -0.3201
 1825TIP3    H1 5481   3.440   0.953   4.111 -0.5026  0.0526  0.1514
 1825TIP3    H2 5482   3.290   0.967   4.094 -0.5985  1.3808  1.7499
 1826TIP3   OH2 5483   2.621   4.544   0.944  0.1101 -0.2780 -0.5899
 1826TIP3    H1 5484   2.573   4.461   0.943  0.1290 -0.2900 -0.4999
 1826TIP3    H2 5485   2.654   4.553   0.855 -0.2197 -0.1779 -0.7047
 1827TIP3   OH2 5486   5.468   0.747   5.197 -0.4072  0.0641  0.4832
 1827TIP3    H1 5487   5.499   0.794   5.120  0.0625  0.3603  0.8464
 1827TIP3    H2 5488   5.405   0.684   5.163 -2.6951  2.3449  0.1741
 1828TIP3   OH2 5489   2.458   1.842   2.042  0.3475  0.3108 -0.0796
 1828TIP3    H1 5490   2.476   1.784   2.116 -0.5957  1.8441  1.4513
 1828TIP3    H2 5491   2.395   1.795   1.988  0.0710 -0.3360  0.7890
 1829TIP3   OH2 5492   2.848   0.288   0.784  0.2313 -0.1259  0.6422
 1829TIP3    H1 5493   2.919   0.227   0.763  0.6070  0.3538  0.4931
 1829TIP3    H2 5494   2.885   0.374   0.766 -0.9219  0.0700 -1.0093
 1830TIP3   OH2 5495   1.116   3.119   0.113  0.2982 -0.5705  0.0063
 1830TIP3    H1 5496   1.128   3.052   0.045 -1.2240 -2.7010  1.6894
 1830TIP3    H2 5497   1.185   3.100   0.176  0.9820  0.6669 -0.3376
 1831TIP3   OH2 5498   5.122   3.384   0.112 -0.1330 -0.7403 -0.5901
 1831TIP3    H1 5499   5.049   3.322   0.107 -1.4079  0.5606  0.6584
 1831TIP3    H2 5500   5.112   3.439   0.035 -1.1463  0.0820  0.0975
 1832TIP3   OH2 5501   5.718   3.080   1.254  0.1936 -0.5080 -0.4000
 1832TIP3    H1 5502   5.703   3.022   1.180 -1.3920  0.5839 -0.9827
 1832TIP3    H2 5503   5.632   3.093   1.294  1.2535 -3.1007  3.3282
 1833TIP3   OH2 5504   0.682   2.840   4.776 -0.4561 -0.3663 -0.1905
 1833TIP3    H1 5505   0.619   2.773   4.803 -0.7783  0.0809  0.1915
 1833TIP3    H2 5506   0.636   2.892   4.711  0.0736 -0.9965 -1.0923
 1834TIP3   OH2 5507   3.941   4.177   2.196  0.1794  0.1981  0.5378
 1834TIP3    H1 5508   4.032   4.148   2.202 -0.0540 -1.3401 -1.8607
 1834TIP3    H2 5509   3.901   4.146   2.277  1.2633 -1.1917  0.5792
 1835TIP3   OH2 5510   0.215   4.556   3.455 -0.3196 -0.5663 -0.0128
 1835TIP3    H1 5511   0.255   4.641   3.475 -1.3874  0.2006 -1.0103
 1835TIP3    H2 5512   0.163   4.536   3.533  0.1566 -0.4500  0.3428
 1836TIP3   OH2 5513   4.253   2.598   1.246  0.0713 -0.0263  0.5638
 1836TIP3    H1 5514   4.311   2.624   1.174  0.9004  2.3760  1.9942
 1836TIP3    H2 5515   4.279   2.508   1.266 -0.0034 -0.6602 -1.9034
 1837TIP3   OH2 5516   5.744   4.487   2.281  0.3855  0.3091  0.3062
 1837TIP3    H1 5517   5.716   4.511   2.193 -1.3072  1.1536  1.0358
 1837TIP3    H2 5518   5.810   4.553   2.304  1.3999 -0.3548 -0.5630
 1838TIP3   OH2 5519   3.517   2.641   0.827  0.5576  0.6838  0.0716
 1838TIP3    H1 5520   3.447   2.577   0.840 -1.0151  2.3337  0.2018
 1838TIP3    H2 5521   3.585   2.615   0.889  0.0091 -0.8574  0.0850
 1839TIP3   OH2 5522   4.444   0.801   2.574  0.0471  0.2376 -0.2141
 1839TIP3    H1 5523   4.403   0.832   2.655 -0.2248 -0.1860 -0.1856
 1839TIP3    H2 5524   4.380   0.821   2.506 -0.7294 -1.4511 -0.0228
 1840TIP3   OH2 5525   1.171   1.422   3.538 -0.0928 -0.5472 -0.1799
 1840TIP3    H1 5526   1.222   1.344   3.561  0.1742 -0.1699  0.5138
 1840TIP3    H2 5527   1.217   1.495   3.579 -0.8830 -0.1314 -0.0053
 1841TIP3   OH2 5528   0.902   2.048   3.206 -0.0501 -0.0536 -0.2396
 1841TIP3    H1 5529   0.963   2.090   3.267  1.5665 -2.4098 -0.1144
 1841TIP3    H2 5530   0.820   2.041   3.255  1.3146 -2.2762  1.9548
 1842TIP3   OH2 5531   2.079   3.078   2.991  0.4078 -0.0433  0.1568
 1842TIP3    H1 5532   2.148   3.116   3.045  1.3706 -2.9923  1.2517
 1842TIP3    H2 5533   2.001   3.078   3.047  1.0941 -1.9632  1.2199
 1843TIP3   OH2 5534   4.573   0.033   0.378 -0.0684  0.4190  0.5101
 1843TIP3    H1 5535   4.508   0.101   0.398  1.0514  2.3315 -1.8192
 1843TIP3    H2 5536   4.656   0.079   0.376  0.9085 -1.2784 -0.0194
 1844TIP3   OH2 5537   1.094   2.289   3.036  0.2016 -0.0443 -0.0508
 1844TIP3    H1 5538   1.137   2.322   2.957 -1.3009 -0.9157 -1.3147
 1844TIP3    H2 5539   1.161   2.292   3.104  1.3705  1.3288 -1.2044
 1845TIP3   OH2 5540   3.966   2.149   4.808  0.0254  0.0715 -0.0847
 1845TIP3    H1 5541   3.952   2.192   4.724  1.4436 -0.2493 -0.5191
 1845TIP3    H2 5542   3.991   2.059   4.785 -0.1126 -0.1760  0.6970
 1846TIP3   OH2 5543   1.251   0.517   5.057 -0.8042  0.3818  0.2421
 1846TIP3    H1 5544   1.279   0.429   5.079  0.7269  0.7763  0.0105
 1846TIP3    H2 5545   1.244   0.562   5.141 -0.6339  0.3001  0.3011
 1847TIP3   OH2 5546   4.549   3.893   1.231 -0.2862  0.0168  0.5849
 1847TIP3    H1 5547   4.611   3.914   1.161 -0.6923  1.0171  0.5078
 1847TIP3    H2 5548   4.601   3.898   1.311  0.0082 -0.3919  0.4241
 1848TIP3   OH2 5549   6.100   5.166   2.072 -0.7873  0.2415  0.2612
 1848TIP3    H1 5550   6.029   5.230   2.076 -0.3340  0.7009  2.4090
 1848TIP3    H2 5551   6.064   5.088   2.114  0.3573  0.9689  2.7861
 1849TIP3   OH2 5552   1.729   5.144   0.267  0.0696 -0.6055  0.0690
 1849TIP3    H1 5553   1.716   5.110   0.178  0.1735 -0.6670  0.0774
 1849TIP3    H2 5554   1.653   5.112   0.316 -0.4136  0.1048 -0.1916
 1850TIP3   OH2 5555   0.543   2.774   1.082  0.3932 -0.0662 -0.5737
 1850TIP3    H1 5556   0.549   2.734   1.168  0.0471  1.1043  0.0204
 1850TIP3    H2 5557   0.455   2.811   1.078  0.3261 -0.3006 -1.5201
 1851TIP3   OH2 5558   3.736   5.578   1.700 -0.3186  0.1461  0.2274
 1851TIP3    H1 5559   3.755   5.556   1.609 -0.8275 -2.8311  0.7374
 1851TIP3    H2 5560   3.812   5.544   1.749 -0.8660  0.0940  1.0600
 1852TIP3   OH2 5561   1.791   1.147   0.815 -0.4505  0.0141  0.7228
 1852TIP3    H1 5562   1.806   1.234   0.777  0.2707  0.5187  2.0987
 1852TIP3    H2 5563   1.698   1.131   0.802 -0.8950  1.6222  1.6955
 1853TIP3   OH2 5564   4.087   2.030   2.382  0.2925 -0.0559 -0.2485
 1853TIP3    H1 5565   4.168   2.031   2.434 -0.6445  1.1882  1.2981
 1853TIP3    H2 5566   4.113   2.063   2.296  1.2531  1.5144  0.5841
 1854TIP3   OH2 5567   3.153   3.431   4.555  0.1709 -0.4471  0.0305
 1854TIP3    H1 5568   3.188   3.350   4.518 -1.7044 -0.7926 -1.1512
 1854TIP3    H2 5569   3.224   3.495   4.545  1.4125 -1.7390  0.2812
 1855TIP3   OH2 5570   4.854   0.447   2.859  0.1598  0.7988  0.1076
 1855TIP3    H1 5571   4.863   0.530   2.812  1.4316  0.5709 -0.0872
 1855TIP3    H2 5572   4.897   0.461   2.943  2.2169 -0.2404 -0.7112
 1856TIP3   OH2 5573   4.220   5.344   4.648 -0.3502 -0.1603  0.5277
 1856TIP3    H1 5574   4.211   5.386   4.734  0.7357 -1.7863  1.4914
 1856TIP3    H2 5575   4.314   5.349   4.629 -0.5710  0.1274 -0.5595
 1857TIP3   OH2 5576   2.655   4.843   0.775 -0.0088 -0.1818 -0.0330
 1857TIP3    H1 5577   2.598   4.791   0.720 -1.2653  0.5270  0.5580
 1857TIP3    H2 5578   2.648   4.804   0.862 -2.1762  1.7891  0.7821
 1858TIP3   OH2 5579   0.010   3.334   4.946  0.5305 -0.6162 -0.7398
 1858TIP3    H1 5580  -0.062   3.329   4.883 -0.1092 -0.1575 -0.0573
 1858TIP3    H2 5581   0.074   3.270   4.914 -0.4358 -1.4668 -1.0264
 1859TIP3   OH2 5582   5.556   0.607   4.136 -0.2445  0.2777  0.3571
 1859TIP3    H1 5583   5.586   0.538   4.077  1.9728 -1.5078  3.2946
 1859TIP3    H2 5584   5.461   0.601   4.132 -0.1618 -2.6997  0.1299
 1860TIP3   OH2 5585   6.319   3.923   2.831 -0.1398 -0.1131 -0.3816
 1860TIP3    H1 5586   6.254   3.964   2.889 -0.6361  2.0673 -2.3605
 1860TIP3    H2 5587   6.401   3.966   2.855  0.8333 -3.0749  2.3238
 1861TIP3   OH2 5588   2.085   1.409   3.657  0.0300 -0.1370  0.4349
 1861TIP3    H1 5589   2.179   1.424   3.657 -0.1216  0.9493 -0.0794
 1861TIP3    H2 5590   2.049   1.486   3.702 -0.5361 -1.1916  1.8636
 1862TIP3   OH2 5591   4.730   0.367   0.050 -0.2049  0.3085  0.8464
 1862TIP3    H1 5592   4.725   0.297  -0.014 -0.0141  2.6824 -1.9777
 1862TIP3    H2 5593   4.821   0.367   0.080 -0.7850 -2.1912  2.9314
 1863TIP3   OH2 5594   4.515   2.642   3.401  0.6015 -0.0877  0.4852
 1863TIP3    H1 5595   4.459   2.619   3.327 -0.7201  0.3859  1.2927
 1863TIP3    H2 5596   4.520   2.738   3.398  1.2454 -0.1201  0.5114
 1864TIP3   OH2 5597   2.800   0.449   2.322  0.0392 -0.1403 -0.0174
 1864TIP3    H1 5598   2.842   0.482   2.243 -1.3011 -0.2595 -0.7985
 1864TIP3    H2 5599   2.846   0.368   2.343  0.5445  0.0132 -0.5413
 1865TIP3   OH2 5600   5.493   2.875   2.584 -0.4831  0.4274 -0.0369
 1865TIP3    H1 5601   5.496   2.964   2.617  1.6882  1.3712 -2.4485
 1865TIP3    H2 5602   5.416   2.872   2.527 -0.2532  0.9553 -0.3827
 1866TIP3   OH2 5603   4.751   5.314   3.668  0.0910  0.5485  0.0389
 1866TIP3    H1 5604   4.675   5.353   3.709  1.2239  2.7444  0.2172
 1866TIP3    H2 5605   4.751   5.349   3.579 -0.3687 -1.3233 -0.7477
 1867TIP3   OH2 5606   0.150   2.125   1.315  0.1374 -0.0428 -0.0199
 1867TIP3    H1 5607   0.226   2.180   1.294 -0.6050  1.4476  0.9903
 1867TIP3    H2 5608   0.172   2.039   1.280  2.1286  0.4430 -0.0897
 1868TIP3   OH2 5609   6.210   2.893   4.391 -1.4348  0.1092 -0.4521
 1868TIP3    H1 5610   6.119   2.906   4.419 -0.7733  2.3512  0.9297
 1868TIP3    H2 5611   6.260   2.954   4.444  0.8029 -0.4223 -1.8198
 1869TIP3   OH2 5612   6.169   0.715   1.896 -0.2352 -0.1304 -0.2096
 1869TIP3    H1 5613   6.126   0.700   1.812  0.5492  0.5343 -0.7489
 1869TIP3    H2 5614   6.130   0.650   1.955 -0.6411 -0.7482 -1.1301
 1870TIP3   OH2 5615   0.543   4.057   0.825  0.3608 -0.7691  0.1899
 1870TIP3    H1 5616   0.598   3.984   0.854 -0.5334 -2.0170 -1.1476
 1870TIP3    H2 5617   0.512   4.031   0.738 -1.3965  0.4300  0.4150
 1871TIP3   OH2 5618   0.798   3.134   4.120  0.3695  0.0574 -0.0761
 1871TIP3    H1 5619   0.859   3.132   4.046  2.5402  0.9512  1.5808
 1871TIP3    H2 5620   0.849   3.099   4.194 -1.9308 -1.4309  0.9052
 1872TIP3   OH2 5621   0.411   1.073   4.239 -0.4809  0.2585  0.1840
 1872TIP3    H1 5622   0.462   1.151   4.261  1.3672 -1.2393  1.4976
 1872TIP3    H2 5623   0.467   1.000   4.264 -2.2338 -1.5184 -0.8235
 1873TIP3   OH2 5624   3.539   3.320   2.067  0.1848  0.7350  0.0211
 1873TIP3    H1 5625   3.550   3.274   2.151 -2.0335  3.1408  1.7937
 1873TIP3    H2 5626   3.562   3.254   2.001 -1.1303 -2.3743  2.3772
 1874TIP3   OH2 5627   2.385   2.090   1.803 -0.1954 -0.3759  0.3656
 1874TIP3    H1 5628   2.310   2.077   1.861 -0.1162 -2.3523  0.0915
 1874TIP3    H2 5629   2.460   2.098   1.862 -0.1308 -2.2417  0.5855
 1875TIP3   OH2 5630   3.812   4.866   4.405  0.3942  0.2587 -0.3799
 1875TIP3    H1 5631   3.903   4.844   4.383  0.7300  1.6671 -0.5070
 1875TIP3    H2 5632   3.762   4.841   4.327  0.6680 -0.4890 -0.3245
 1876TIP3   OH2 5633   1.277   5.065   1.165  0.3544  0.0829  0.5827
 1876TIP3    H1 5634   1.207   5.116   1.206 -0.1694  0.7917 -1.0838
 1876TIP3    H2 5635   1.319   5.127   1.105 -1.1998 -1.6639 -2.6128
 1877TIP3   OH2 5636   4.221   1.894   2.755  0.5889  0.0872  0.1192
 1877TIP3    H1 5637   4.291   1.841   2.792  1.3000  2.1436  1.9038
 1877TIP3    H2 5638   4.255   1.924   2.671  0.7824 -0.9931 -0.2034
 1878TIP3   OH2 5639   2.732   2.013   0.515  0.6006 -0.0852  0.5041
 1878TIP3    H1 5640   2.780   1.930   0.521 -0.2551 -0.5730  0.7296
 1878TIP3    H2 5641   2.752   2.058   0.598 -0.0878 -0.7059  1.0139
 1879TIP3   OH2 5642   4.545   1.324   0.139  0.3052  0.0120 -0.3558
 1879TIP3    H1 5643   4.566   1.231   0.150  1.4055  0.2372 -0.4137
 1879TIP3    H2 5644   4.556   1.339   0.045  2.7704  0.7723 -0.0133
 1880TIP3   OH2 5645   1.231   1.672   1.209 -0.3530 -0.2862 -0.4441
 1880TIP3    H1 5646   1.258   1.763   1.216 -1.7878  0.1850 -0.8167
 1880TIP3    H2 5647   1.272   1.629   1.285 -1.1335  1.0480  0.7689
 1881TIP3   OH2 5648   3.379   5.314   0.566 -0.7005 -0.2855  0.4844
 1881TIP3    H1 5649   3.337   5.396   0.540  1.5107  0.6513 -0.4359
 1881TIP3    H2 5650   3.455   5.342   0.617  2.5524 -1.3497 -3.3058
 1882TIP3   OH2 5651   5.421   3.740   0.960  0.4463  0.5392 -0.4684
 1882TIP3    H1 5652   5.368   3.696   0.893 -1.1378  0.8859  0.5066
 1882TIP3    H2 5653   5.497   3.773   0.912 -0.3212  0.2160 -1.9740
 1883TIP3   OH2 5654   5.342   3.105   0.258 -0.1585 -0.3120 -0.1008
 1883TIP3    H1 5655   5.333   3.027   0.204 -2.6470  1.3003 -2.2306
 1883TIP3    H2 5656   5.273   3.097   0.324  1.6561 -1.3559  1.7889
 1884TIP3   OH2 5657   6.240   0.169   2.084 -0.3718  0.2873 -0.4608
 1884TIP3    H1 5658   6.211   0.233   2.149  1.1638  0.4600  0.1091
 1884TIP3    H2 5659   6.209   0.085   2.117 -0.7381  0.5219 -0.2024
 1885TIP3   OH2 5660   4.335   3.182   2.594  0.1234  0.1536  0.0913
 1885TIP3    H1 5661   4.313   3.126   2.520  0.2143 -3.4029  2.5101
 1885TIP3    H2 5662   4.252   3.194   2.640  0.7403 -1.5985  1.7885
 1886TIP3   OH2 5663   0.200   5.353   3.447 -0.0906  0.0282  0.0235
 1886TIP3    H1 5664   0.236   5.300   3.518  0.8946 -0.3122 -0.7066
 1886TIP3    H2 5665   0.221   5.304   3.367 -2.0632 -0.1081 -0.4625
 1887TIP3   OH2 5666   5.413   4.346   0.600  0.1892  0.1367  0.8106
 1887TIP3    H1 5667   5.371   4.354   0.685 -0.9300 -3.3171  0.7461
 1887TIP3    H2 5668   5.349   4.381   0.538 -1.0001 -1.4572  1.0702
 1888TIP3   OH2 5669   1.759   2.257   1.484 -0.2176 -0.4030  0.3081
 1888TIP3    H1 5670   1.767   2.197   1.410 -1.1696 -1.4668  1.0333
 1888TIP3    H2 5671   1.849   2.287   1.501  0.1454 -0.9533 -0.6124
 1889TIP3   OH2 5672   4.926   1.130   5.014 -0.3422 -0.1059 -0.3112
 1889TIP3    H1 5673   5.000   1.069   5.010 -2.3461 -2.7017 -0.0813
 1889TIP3    H2 5674   4.946   1.194   4.946  2.1577 -0.6093 -0.1773
 1890TIP3   OH2 5675   0.046   5.726   3.935  0.0749  0.0500  0.0725
 1890TIP3    H1 5676  -0.037   5.687   3.908 -0.3487  0.7747  0.2954
 1890TIP3    H2 5677   0.109   5.695   3.871 -0.4399 -0.2258 -0.3095
 1891TIP3   OH2 5678   6.268   3.864   1.867  0.4059 -0.1211 -0.4335
 1891TIP3    H1 5679   6.322   3.917   1.809  1.0895  1.4602  1.5399
 1891TIP3    H2 5680   6.284   3.774   1.839 -1.0067  0.5888 -4.0856
 1892TIP3   OH2 5681   5.726   2.209   0.817 -0.0176 -0.6842 -0.4687
 1892TIP3    H1 5682   5.697   2.200   0.908  0.3709 -0.0921 -0.2811
 1892TIP3    H2 5683   5.744   2.303   0.807  1.7303 -0.9907 -0.5933
 1893TIP3   OH2 5684   6.307   3.048   2.622 -0.2292 -0.0811  0.0758
 1893TIP3    H1 5685   6.377   3.016   2.678 -0.7952  1.3190  1.6869
 1893TIP3    H2 5686   6.252   2.972   2.605  0.7781 -0.8363  0.1690
 1894TIP3   OH2 5687   6.180   5.995   1.188  0.5935  0.5493 -0.5580
 1894TIP3    H1 5688   6.249   5.950   1.237 -0.7900 -1.6794 -0.4864
 1894TIP3    H2 5689   6.164   5.939   1.112 -1.5366  0.6022 -0.2285
 1895TIP3   OH2 5690   0.747   4.588   3.103 -0.1884  0.1774 -0.7521
 1895TIP3    H1 5691   0.735   4.681   3.084 -1.7078 -0.2880 -2.1963
 1895TIP3    H2 5692   0.821   4.562   3.048 -0.0525  0.4174 -0.6861
 1896TIP3   OH2 5693   3.275   3.628   2.446 -0.2033  0.0137  0.3013
 1896TIP3    H1 5694   3.182   3.649   2.433 -0.2808  0.5460  1.5837
 1896TIP3    H2 5695   3.277   3.532   2.446 -0.7968 -0.0081  0.4730
 1897TIP3   OH2 5696   3.908   4.012   3.729  0.0509 -0.1908  0.0741
 1897TIP3    H1 5697   3.941   4.068   3.659  0.6263 -0.5668  0.0400
 1897TIP3    H2 5698   3.976   3.946   3.741 -0.8853 -1.2874 -0.3520
 1898TIP3   OH2 5699   1.154   2.508   1.027  0.2185  0.4029  0.4945
 1898TIP3    H1 5700   1.099   2.586   1.038  0.0436  0.1043  1.9130
 1898TIP3    H2 5701   1.137   2.479   0.937  0.5132  2.1572 -0.1618
 1899TIP3   OH2 5702   4.193   1.426   4.549  0.1593 -0.0576 -0.8172
 1899TIP3    H1 5703   4.285   1.448   4.562  0.1491 -0.1772 -0.5344
 1899TIP3    H2 5704   4.152   1.508   4.520  0.3831 -0.0413 -1.0845
 1900TIP3   OH2 5705   4.321   3.639   0.325 -0.3120  0.2892  0.5315
 1900TIP3    H1 5706   4.311   3.569   0.261  0.0055  0.5302  0.2165
 1900TIP3    H2 5707   4.415   3.641   0.344  0.0248  2.0230 -1.0616
 1901TIP3   OH2 5708   3.112   0.908   4.282 -0.1304  0.0700  0.1535
 1901TIP3    H1 5709   3.090   0.823   4.242  1.0179 -2.0177  3.5262
 1901TIP3    H2 5710   3.195   0.932   4.241  0.7630 -1.7197  0.8154
 1902TIP3   OH2 5711   1.355   3.375   0.976 -0.4791 -0.1703 -0.2337
 1902TIP3    H1 5712   1.428   3.341   1.028 -0.7543 -0.1084  0.1953
 1902TIP3    H2 5713   1.277   3.341   1.019 -0.7301  0.3610 -0.2671
 1903TIP3   OH2 5714   1.627   4.982   2.104  0.5684 -0.2751  0.2181
 1903TIP3    H1 5715   1.637   5.060   2.159  2.0949  0.3576 -0.8847
 1903TIP3    H2 5716   1.542   4.993   2.061  0.4056  0.3631  0.6910
 1904TIP3   OH2 5717   3.251   0.679   1.475  0.4298 -0.3126  0.3627
 1904TIP3    H1 5718   3.290   0.636   1.552 -0.2051  0.6153  1.2138
 1904TIP3    H2 5719   3.159   0.656   1.479  0.3050  0.1526  0.1596
 1905TIP3   OH2 5720   0.879   2.483   2.145  0.0724  0.6022 -0.4030
 1905TIP3    H1 5721   0.942   2.465   2.075 -1.6716  0.1468 -1.9400
 1905TIP3    H2 5722   0.924   2.456   2.225  2.3031  1.5208 -1.2462
 1906TIP3   OH2 5723   2.846   3.155   0.205 -0.1959 -0.1043 -0.1906
 1906TIP3    H1 5724   2.878   3.129   0.291 -0.6981 -0.9708 -0.2566
 1906TIP3    H2 5725   2.853   3.076   0.151  0.8666  0.6311 -1.1788
 1907TIP3   OH2 5726   1.850   3.251   3.542  0.1032  0.4818  0.1101
 1907TIP3    H1 5727   1.795   3.327   3.563  1.8786  1.9495 -0.3156
 1907TIP3    H2 5728   1.881   3.220   3.627 -2.1128 -1.0071  0.4461
 1908TIP3   OH2 5729   2.789   5.230   3.499  0.3617 -0.1573 -0.8253
 1908TIP3    H1 5730   2.789   5.321   3.530 -1.3283 -0.1246 -0.8293
 1908TIP3    H2 5731   2.862   5.189   3.546 -0.6983  0.4639  1.5032
 1909TIP3   OH2 5732   4.116   2.746   5.088  0.2173  0.1581  0.4863
 1909TIP3    H1 5733   4.123   2.652   5.073 -0.1429 -0.0141  1.3115
 1909TIP3    H2 5734   4.158   2.759   5.173  0.7970  0.8355  0.1030
 1910TIP3   OH2 5735   0.603   3.999   3.567  0.1846 -0.8417  0.2975
 1910TIP3    H1 5736   0.583   4.077   3.619  1.5222 -1.2296  1.4756
 1910TIP3    H2 5737   0.698   3.991   3.572  0.1156 -2.2493 -0.2429
 1911TIP3   OH2 5738   1.801   0.302   4.060  0.4856 -0.6644 -0.5906
 1911TIP3    H1 5739   1.719   0.331   4.099  0.1912 -2.6874  0.4212
 1911TIP3    H2 5740   1.867   0.359   4.100  0.1112 -2.1754  2.5156
 1912TIP3   OH2 5741   3.849   5.410   0.519  0.1283  0.1653  0.5613
 1912TIP3    H1 5742   3.906   5.366   0.456 -0.5135  0.2300 -0.0759
 1912TIP3    H2 5743   3.894   5.492   0.540  0.4973 -0.0028  0.4324
 1913TIP3   OH2 5744   5.026   4.072   4.531 -0.2418 -0.1599  0.1069
 1913TIP3    H1 5745   4.942   4.064   4.485 -0.5369  1.7158  0.2299
 1913TIP3    H2 5746   5.088   4.099   4.463  0.0425 -0.5454  0.2102
 1914TIP3   OH2 5747   4.662   0.447   0.317  0.0080  0.6657 -0.0069
 1914TIP3    H1 5748   4.585   0.503   0.306 -1.6111 -1.5604 -0.8201
 1914TIP3    H2 5749   4.688   0.425   0.228 -0.2772 -0.9370  0.2797
 1915TIP3   OH2 5750   1.078   0.821   3.897  0.2256  0.1383 -0.5096
 1915TIP3    H1 5751   1.012   0.806   3.829 -0.3813  3.8274 -0.9297
 1915TIP3    H2 5752   1.160   0.795   3.856 -0.2334  1.4798 -2.4153
 1916TIP3   OH2 5753   1.728   2.330   1.733 -0.1079  0.3996 -0.4237
 1916TIP3    H1 5754   1.633   2.326   1.746  0.0058 -0.3963  0.2366
 1916TIP3    H2 5755   1.743   2.278   1.654 -0.2354  0.7249 -0.6682
 1917TIP3   OH2 5756   4.792   2.364   3.297 -0.4894  0.5644 -0.5371
 1917TIP3    H1 5757   4.727   2.365   3.227 -0.2595  0.3401 -0.7532
 1917TIP3    H2 5758   4.858   2.301   3.268 -0.8356 -0.1990  0.2718
 1918TIP3   OH2 5759   1.549   4.020   3.355 -1.1024 -0.1266  0.1747
 1918TIP3    H1 5760   1.497   4.023   3.274 -1.8418  0.6538  0.6516
 1918TIP3    H2 5761   1.636   4.050   3.329 -1.0810 -0.7597 -0.5061
 1919TIP3   OH2 5762   5.157   0.172   1.402  0.2847 -0.7922 -0.1607
 1919TIP3    H1 5763   5.115   0.118   1.336 -0.0676 -0.0502 -0.5593
 1919TIP3    H2 5764   5.091   0.181   1.472 -0.1377  0.1320 -0.6557
 1920TIP3   OH2 5765   4.073   0.782   5.023 -0.3279 -0.2596  0.2925
 1920TIP3    H1 5766   4.071   0.809   5.115 -2.4930  1.1515 -0.0972
 1920TIP3    H2 5767   3.981   0.783   4.996  0.1294 -1.9120 -1.5621
 1921TIP3   OH2 5768   3.269   3.199   1.076 -0.1273  0.4833 -0.6882
 1921TIP3    H1 5769   3.323   3.137   1.026  0.5855  2.5215 -2.6078
 1921TIP3    H2 5770   3.223   3.250   1.009 -1.8746  1.0453  0.8610
 1922TIP3   OH2 5771   3.339   5.947   3.212  0.2110 -0.6959  0.5998
 1922TIP3    H1 5772   3.428   5.978   3.198 -0.4897  0.9919 -0.4711
 1922TIP3    H2 5773   3.314   5.983   3.298  0.3138 -0.5507  0.5687
 1923TIP3   OH2 5774   2.814   1.442   1.714  0.0900 -0.2194 -0.3958
 1923TIP3    H1 5775   2.805   1.348   1.729 -0.0694 -0.0658  0.5465
 1923TIP3    H2 5776   2.727   1.469   1.684 -0.1612 -0.2073  0.3213
 1924TIP3   OH2 5777   5.540   3.435   2.975 -0.1822  0.3039 -0.7164
 1924TIP3    H1 5778   5.582   3.450   2.890  1.1181  2.1349  0.1825
 1924TIP3    H2 5779   5.603   3.385   3.025 -0.4456  0.2547 -0.4312
 1925TIP3   OH2 5780   1.708   5.359   3.660 -0.0914  0.0370 -1.0220
 1925TIP3    H1 5781   1.747   5.418   3.596  1.5706  0.4806  0.3147
 1925TIP3    H2 5782   1.732   5.396   3.745 -1.2593 -1.1405 -0.1291
 1926TIP3   OH2 5783   5.968   0.040   2.095  0.0075 -0.1960  0.1275
 1926TIP3    H1 5784   5.913  -0.025   2.139  0.1358 -2.3297 -2.6556
 1926TIP3    H2 5785   5.907   0.110   2.072 -0.5536 -0.2802  1.2699
 1927TIP3   OH2 5786   1.828   2.079   4.105 -0.5778 -0.0621  0.1011
 1927TIP3    H1 5787   1.828   2.033   4.021  1.0296  0.4943 -0.2283
 1927TIP3    H2 5788   1.822   2.009   4.171 -0.5065 -0.5916 -0.4491
 1928TIP3   OH2 5789   3.926   2.127   0.469  0.1833  0.0393 -0.6948
 1928TIP3    H1 5790   3.838   2.102   0.497  0.7706 -1.8246 -0.3762
 1928TIP3    H2 5791   3.920   2.131   0.373 -0.6331  1.6184 -0.6085
 1929TIP3   OH2 5792   4.375   5.265   1.277  0.4047  0.2941  0.0686
 1929TIP3    H1 5793   4.448   5.212   1.309 -0.2139 -0.4289  0.3099
 1929TIP3    H2 5794   4.335   5.302   1.356 -1.1361 -1.5110  0.2066
 1930TIP3   OH2 5795   2.254   1.834   3.741  0.3906 -0.5820 -0.2642
 1930TIP3    H1 5796   2.332   1.815   3.689  1.2506  2.1436 -0.1477
 1930TIP3    H2 5797   2.275   1.916   3.786 -2.8917  0.8860 -1.0599
 1931TIP3   OH2 5798   0.184   2.445   2.133 -0.4400 -0.4546 -0.3889
 1931TIP3    H1 5799   0.117   2.457   2.200 -0.5961  0.0306 -0.6244
 1931TIP3    H2 5800   0.204   2.534   2.103  0.0331 -0.6247 -0.5899
 1932TIP3   OH2 5801   4.373   0.717   5.013  0.8250 -0.1710 -0.3165
 1932TIP3    H1 5802   4.304   0.783   5.008  0.6419 -0.0095  2.4818
 1932TIP3    H2 5803   4.401   0.720   5.105  1.3327 -3.4597 -0.2617
 1933TIP3   OH2 5804   6.175   3.173   0.126  0.3630  0.2941 -0.7220
 1933TIP3    H1 5805   6.136   3.205   0.045 -0.8452  0.2011 -0.1921
 1933TIP3    H2 5806   6.101   3.147   0.180  1.1803 -0.3064  0.1479
 1934TIP3   OH2 5807   4.378   3.381   4.732  0.5328  0.1698 -0.3161
 1934TIP3    H1 5808   4.308   3.420   4.680  0.2148  0.7055  0.5009
 1934TIP3    H2 5809   4.455   3.386   4.675 -0.0200 -0.2026 -1.1245
 1935TIP3   OH2 5810   4.401   4.160   0.415  0.0087 -0.4049  0.2155
 1935TIP3    H1 5811   4.369   4.128   0.500 -0.4003  0.3538  0.3531
 1935TIP3    H2 5812   4.388   4.086   0.356 -2.1663 -0.0933  0.2271
 1936TIP3   OH2 5813   1.600   4.105   2.908 -0.5556  0.6851  0.0801
 1936TIP3    H1 5814   1.634   4.180   2.957 -0.5164 -0.0590  1.2242
 1936TIP3    H2 5815   1.506   4.123   2.900 -0.8930 -0.0134  2.0154
 1937TIP3   OH2 5816   5.545   0.997   0.744  0.3941 -0.0808 -0.1167
 1937TIP3    H1 5817   5.634   0.994   0.708  0.8862 -0.7179  1.0887
 1937TIP3    H2 5818   5.502   0.920   0.707  0.0725  0.6551 -1.3242
 1938TIP3   OH2 5819   4.277   5.255  -0.021  0.5147 -0.1762  0.0778
 1938TIP3    H1 5820   4.290   5.280   0.070  1.0527 -0.1697  0.0021
 1938TIP3    H2 5821   4.185   5.274  -0.038  0.3768 -0.3119  0.6580
 1939TIP3   OH2 5822   5.883   2.849   2.088 -0.2804  0.0936 -0.5082
 1939TIP3    H1 5823   5.900   2.771   2.034  0.6271 -0.5521  0.6843
 1939TIP3    H2 5824   5.796   2.833   2.125 -0.1778 -0.2631 -0.4177
 1940TIP3   OH2 5825   2.497   3.858   3.775  0.9004  0.1370  0.2088
 1940TIP3    H1 5826   2.570   3.830   3.720  1.4854  1.5672  0.2054
 1940TIP3    H2 5827   2.473   3.944   3.740  1.8621  1.5088  2.6999
 1941TIP3   OH2 5828   4.261   3.917   3.921 -0.0704 -0.0951  0.3823
 1941TIP3    H1 5829   4.343   3.868   3.924  0.8006  1.3001  0.8174
 1941TIP3    H2 5830   4.240   3.934   4.013 -0.3803  0.2875  0.2451
 1942TIP3   OH2 5831   1.501   0.726   0.621  0.5842 -0.4023  0.0014
 1942TIP3    H1 5832   1.497   0.665   0.694 -1.8954 -0.2010  0.1142
 1942TIP3    H2 5833   1.419   0.713   0.574  0.4497  2.0835 -0.6024
 1943TIP3   OH2 5834   3.476   0.185   4.613 -0.2959  0.2874  1.0252
 1943TIP3    H1 5835   3.423   0.232   4.548  0.7899 -0.8086 -0.7588
 1943TIP3    H2 5836   3.543   0.247   4.639  0.8906 -0.0339 -1.0109
 1944TIP3   OH2 5837   4.345   5.270   3.146 -0.1238  0.2781  0.4778
 1944TIP3    H1 5838   4.273   5.257   3.207 -1.1187  0.8049 -0.5497
 1944TIP3    H2 5839   4.341   5.363   3.123  1.3977  0.5185  0.9987
 1945TIP3   OH2 5840   1.013   5.073   0.494  0.1684  0.7564  0.1848
 1945TIP3    H1 5841   1.037   5.089   0.403 -1.5433  1.8184 -0.1355
 1945TIP3    H2 5842   1.085   5.020   0.529  0.6209 -0.1185 -1.9039
 1946TIP3   OH2 5843   5.646   5.203   2.245 -0.4805 -0.4300  0.6338
 1946TIP3    H1 5844   5.713   5.156   2.294 -0.6888 -0.1323  1.2187
 1946TIP3    H2 5845   5.605   5.136   2.190  1.6502 -0.2626 -1.3160
 1947TIP3   OH2 5846   3.519   4.483   3.125 -0.4223 -0.0155  0.1922
 1947TIP3    H1 5847   3.559   4.427   3.191 -0.3449  0.4973  0.5904
 1947TIP3    H2 5848   3.537   4.440   3.042  2.7364  1.1988  0.1357
 1948TIP3   OH2 5849   2.988   4.883   3.012 -0.4548 -0.4175 -0.5578
 1948TIP3    H1 5850   2.962   4.798   2.976  0.7234 -0.3022 -1.7979
 1948TIP3    H2 5851   2.960   4.947   2.946  1.0624 -0.1193 -0.9471
 1949TIP3   OH2 5852   3.630   3.285   3.284  0.0340  0.0406  0.2853
 1949TIP3    H1 5853   3.627   3.314   3.376  0.5040 -0.1631  0.3681
 1949TIP3    H2 5854   3.704   3.224   3.281 -1.4803 -1.9038  0.3293
 1950TIP3   OH2 5855   4.757   5.728   4.970 -0.3528  0.2317 -0.5451
 1950TIP3    H1 5856   4.728   5.752   4.881  1.5904 -0.5276 -1.4215
 1950TIP3    H2 5857   4.848   5.703   4.960 -0.1503 -0.1024  1.6651
 1951TIP3   OH2 5858   5.794   2.360   1.533 -0.1042 -0.2906 -0.6007
 1951TIP3    H1 5859   5.755   2.447   1.518  0.7221 -0.0116 -1.1632
 1951TIP3    H2 5860   5.793   2.350   1.628 -3.0105 -0.9849 -0.6060
 1952TIP3   OH2 5861   4.741   1.490   1.924  0.6539 -0.1718  0.1632
 1952TIP3    H1 5862   4.755   1.449   2.009  1.1444 -1.0409 -0.3136
 1952TIP3    H2 5863   4.756   1.419   1.861 -0.9064  0.1513 -0.6088
 1953TIP3   OH2 5864   0.880   0.378   4.456 -0.1142 -0.2861 -0.6227
 1953TIP3    H1 5865   0.927   0.392   4.539 -3.5662 -1.8263  1.8264
 1953TIP3    H2 5866   0.851   0.465   4.430 -2.6895 -0.1153  2.3260
 1954TIP3   OH2 5867   0.529   5.623   5.126 -0.6295  0.2189  0.9461
 1954TIP3    H1 5868   0.480   5.648   5.204 -0.4954  0.0247  1.0939
 1954TIP3    H2 5869   0.469   5.641   5.053 -0.4189  1.2676  1.0168
 1955TIP3   OH2 5870   5.083   3.821   3.129  0.2407 -0.2003  0.0087
 1955TIP3    H1 5871   5.127   3.791   3.049 -1.1610 -1.6984 -0.2542
 1955TIP3    H2 5872   5.042   3.903   3.103  1.3309  0.2869 -0.2551
 1956TIP3   OH2 5873   6.026   4.918   2.771  0.0945 -0.0215  0.0130
 1956TIP3    H1 5874   6.011   4.831   2.808 -0.5111  0.1958  0.2873
 1956TIP3    H2 5875   5.954   4.930   2.709  1.7189 -0.8736 -2.1948
 1957TIP3   OH2 5876   4.048   1.028   1.670 -0.6088  0.8729  0.1527
 1957TIP3    H1 5877   4.092   1.017   1.754 -4.0075 -1.1640  1.8401
 1957TIP3    H2 5878   4.002   1.111   1.677 -0.5875  0.8854  0.1436
 1958TIP3   OH2 5879   1.222   5.753   2.973  0.5150 -0.1697  0.4818
 1958TIP3    H1 5880   1.230   5.836   2.925  3.4089 -1.6591 -2.0384
 1958TIP3    H2 5881   1.278   5.765   3.050  0.7465  0.2956  0.2500
 1959TIP3   OH2 5882   2.104   2.554   1.133 -0.1222  0.3108  0.2074
 1959TIP3    H1 5883   2.176   2.603   1.093 -0.3464  1.3676  1.0570
 1959TIP3    H2 5884   2.143   2.469   1.157  0.6525  0.6066  0.0318
 1960TIP3   OH2 5885   4.468   3.367   3.421  0.2133  0.0074  0.2120
 1960TIP3    H1 5886   4.479   3.369   3.326 -0.9610 -0.6459  0.0400
 1960TIP3    H2 5887   4.425   3.449   3.443 -0.0779 -0.1153  0.0976
 1961TIP3   OH2 5888   1.060   5.050   1.973  0.0229 -0.3247 -0.3123
 1961TIP3    H1 5889   1.038   5.070   2.064 -0.7120  0.3019 -0.6181
 1961TIP3    H2 5890   0.997   4.983   1.946  1.7598 -2.3378  0.3533
 1962TIP3   OH2 5891   1.983   0.696   3.641 -0.3550  0.0790 -0.3560
 1962TIP3    H1 5892   2.075   0.705   3.667 -0.7252  1.9519  0.4841
 1962TIP3    H2 5893   1.956   0.612   3.678  0.4087  0.5730  1.4540
 1963TIP3   OH2 5894   3.719   3.994   0.811  0.0970  0.4563 -0.2559
 1963TIP3    H1 5895   3.683   3.906   0.795 -1.1950  0.8996  0.0950
 1963TIP3    H2 5896   3.789   3.979   0.875 -2.0816 -0.0375  2.1910
 1964TIP3   OH2 5897   0.225   5.030   0.136  0.1065 -0.4086  0.1023
 1964TIP3    H1 5898   0.173   5.109   0.119  0.5277 -0.1365  0.0689
 1964TIP3    H2 5899   0.208   5.009   0.228  1.5131  0.8540  0.6827
 1965TIP3   OH2 5900   5.553   3.852   4.054 -0.6930  0.2454  0.0497
 1965TIP3    H1 5901   5.474   3.814   4.091 -0.4512 -0.0172  0.2986
 1965TIP3    H2 5902   5.625   3.809   4.100 -0.2804 -1.8246 -2.3195
 1966TIP3   OH2 5903   2.829   1.498   3.012 -0.4671 -0.0347 -0.1018
 1966TIP3    H1 5904   2.793   1.508   2.924  0.5748  0.4277 -0.5009
 1966TIP3    H2 5905   2.757   1.520   3.071 -1.1822 -0.3770 -0.8374
 1967TIP3   OH2 5906   0.105   5.761   4.831 -0.0176  0.6955 -0.2070
 1967TIP3    H1 5907   0.083   5.853   4.815 -2.2358  0.4107  0.8369
 1967TIP3    H2 5908   0.025   5.713   4.811  1.0453 -1.0374 -0.5842
 1968TIP3   OH2 5909   1.862   4.666   3.440 -0.5707  0.1760 -0.2822
 1968TIP3    H1 5910   1.782   4.615   3.425 -0.8118 -0.2512  2.0890
 1968TIP3    H2 5911   1.931   4.600   3.448 -0.4504  0.3703  0.3110
 1969TIP3   OH2 5912   3.318   5.851   2.481 -0.2495  0.0876  0.0482
 1969TIP3    H1 5913   3.273   5.907   2.544  0.7262  0.3749  0.5062
 1969TIP3    H2 5914   3.258   5.847   2.406 -0.9018  0.7023  0.5230
 1970TIP3   OH2 5915   4.508   1.283   2.253 -0.5089 -0.0536 -0.6252
 1970TIP3    H1 5916   4.587   1.291   2.199  0.6487 -1.6541  0.7299
 1970TIP3    H2 5917   4.539   1.294   2.343 -1.5403 -2.1400  0.0407
 1971TIP3   OH2 5918   1.648   1.135   2.392 -0.2099 -0.8321 -0.9552
 1971TIP3    H1 5919   1.722   1.127   2.331  0.5811 -1.9904  0.1113
 1971TIP3    H2 5920   1.660   1.220   2.434  0.9887 -1.3250 -0.2414
 1972TIP3   OH2 5921   0.424   3.721   1.530  0.1365  0.3465 -0.9012
 1972TIP3    H1 5922   0.399   3.668   1.606 -1.0091  0.1033 -1.4349
 1972TIP3    H2 5923   0.358   3.701   1.464 -0.1748  2.2452 -1.2064
 1973TIP3   OH2 5924   5.804   3.515   2.674  0.5763  0.0752  0.0589
 1973TIP3    H1 5925   5.737   3.519   2.606  0.3974 -2.5926  0.0076
 1973TIP3    H2 5926   5.886   3.529   2.627  0.3544 -0.5202 -0.5155
 1974TIP3   OH2 5927   0.823   3.787   4.494  0.1397 -0.3373 -0.1128
 1974TIP3    H1 5928   0.862   3.867   4.529 -1.2447  0.4784 -0.3465
 1974TIP3    H2 5929   0.863   3.776   4.408  0.1956  0.2375 -0.1643
 1975TIP3   OH2 5930   5.261   1.563   0.170 -0.1822  0.0470  0.3917
 1975TIP3    H1 5931   5.281   1.582   0.261 -0.9048 -0.7716  0.7425
 1975TIP3    H2 5932   5.166   1.553   0.168 -0.1643 -0.0082 -0.4331
 1976TIP3   OH2 5933   0.124   5.245   0.684  0.2496  0.1424  0.2678
 1976TIP3    H1 5934   0.110   5.182   0.612 -0.7854  0.3877  0.2349
 1976TIP3    H2 5935   0.093   5.199   0.762  0.1769  0.3448  0.3584
 1977TIP3   OH2 5936   5.956   5.068   3.554  0.1142 -0.1630  0.2585
 1977TIP3    H1 5937   5.981   4.977   3.571  0.2352 -0.1827 -0.0198
 1977TIP3    H2 5938   5.885   5.085   3.617 -1.3335 -1.1161 -1.0228
 1978TIP3   OH2 5939   3.652   0.328   3.426 -0.0551 -0.2156 -0.0218
 1978TIP3    H1 5940   3.655   0.318   3.521 -1.2462  0.8279  0.1471
 1978TIP3    H2 5941   3.600   0.254   3.396  1.7404 -1.5304 -0.0708
 1979TIP3   OH2 5942   4.998   1.283   4.447 -0.4617 -0.2110 -0.5877
 1979TIP3    H1 5943   5.025   1.310   4.359 -0.9064 -1.8394 -1.2645
 1979TIP3    H2 5944   4.921   1.337   4.466  1.9694  3.1591  0.5975
 1980TIP3   OH2 5945   0.841   0.453   2.094 -0.1938 -0.6066  0.3101
 1980TIP3    H1 5946   0.793   0.440   2.011 -0.0635 -2.3573  0.4590
 1980TIP3    H2 5947   0.912   0.389   2.090  2.1319  1.8439  0.1540
 1981TIP3   OH2 5948   6.073   4.169   0.468  0.1968 -0.0313  0.3133
 1981TIP3    H1 5949   6.034   4.250   0.437 -1.9783 -0.8435  0.7235
 1981TIP3    H2 5950   6.026   4.149   0.549  0.7213 -1.6603  0.2667
 1982TIP3   OH2 5951   1.679   2.376   4.622  0.0779 -0.0044 -0.2463
 1982TIP3    H1 5952   1.739   2.311   4.657  1.4434  0.7509 -1.0918
 1982TIP3    H2 5953   1.658   2.345   4.534 -0.1157  0.1521 -0.2560
 1983TIP3   OH2 5954   1.180   1.008   2.947 -0.2796  0.4352 -0.4401
 1983TIP3    H1 5955   1.237   1.008   3.024  0.7805 -1.1324 -1.1638
 1983TIP3    H2 5956   1.201   1.089   2.901  0.4071  0.5002 -0.0163
 1984TIP3   OH2 5957   1.107   3.534   3.548 -0.1638 -0.0066  0.4078
 1984TIP3    H1 5958   1.125   3.620   3.587  0.8767 -0.7384  1.6278
 1984TIP3    H2 5959   1.181   3.480   3.574 -2.1193 -2.0573  2.1099
 1985TIP3   OH2 5960   1.921   5.923   0.260 -0.1108 -0.4561 -0.4303
 1985TIP3    H1 5961   1.952   5.836   0.287  0.2196 -0.4781 -0.8675
 1985TIP3    H2 5962   1.943   5.979   0.334  1.1111 -0.4498 -0.7664
 1986TIP3   OH2 5963   4.274   1.131   3.215 -0.3482 -0.3302 -0.6471
 1986TIP3    H1 5964   4.328   1.191   3.267  1.3693 -0.7311 -1.8915
 1986TIP3    H2 5965   4.224   1.082   3.281 -0.1890  0.9600  0.4840
 1987TIP3   OH2 5966   5.558   0.572   2.145  0.1409 -0.2908  0.7226
 1987TIP3    H1 5967   5.632   0.629   2.164  0.0656 -0.6134  2.1200
 1987TIP3    H2 5968   5.506   0.573   2.225  0.0882 -2.2398  0.7620
 1988TIP3   OH2 5969   5.712   2.412   1.186  0.0423 -0.2059 -0.4394
 1988TIP3    H1 5970   5.689   2.420   1.278  0.3674 -0.3109 -0.3473
 1988TIP3    H2 5971   5.631   2.385   1.143  0.0684 -0.8684 -0.0760
 1989TIP3   OH2 5972   0.685   3.097   2.791 -0.1734 -0.2228 -0.2624
 1989TIP3    H1 5973   0.764   3.046   2.773 -0.3502 -0.9292  0.8733
 1989TIP3    H2 5974   0.630   3.084   2.714  0.1699 -0.9843 -0.3878
 1990TIP3   OH2 5975   4.804   1.681   4.433  0.0427  0.0759  0.6357
 1990TIP3    H1 5976   4.734   1.728   4.478 -0.3031  0.1445  0.0483
 1990TIP3    H2 5977   4.796   1.709   4.341  0.7697  0.0003  0.5426
 1991TIP3   OH2 5978   5.163   2.752   3.168 -0.7324 -0.7595  0.5544
 1991TIP3    H1 5979   5.150   2.663   3.136 -0.7698 -0.7061  0.4222
 1991TIP3    H2 5980   5.080   2.775   3.210 -0.1940 -1.3984  2.0749
 1992TIP3   OH2 5981   2.168   2.819   4.229 -0.9418 -1.2101 -0.5603
 1992TIP3    H1 5982   2.114   2.796   4.304  0.2982  0.9079  1.0609
 1992TIP3    H2 5983   2.254   2.779   4.248 -0.0092  1.0501  0.2495
 1993TIP3   OH2 5984   3.856   4.402   3.009 -0.7795 -0.1946  0.1774
 1993TIP3    H1 5985   3.853   4.434   2.919  3.0266  0.1256 -0.0350
 1993TIP3    H2 5986   3.830   4.477   3.062  0.5406  0.8738 -0.6056
 1994TIP3   OH2 5987   1.407   3.020   1.252  0.6323  0.0338 -0.1740
 1994TIP3    H1 5988   1.349   3.096   1.259 -0.3210 -0.7396  0.8445
 1994TIP3    H2 5989   1.491   3.051   1.286  0.3871  0.7484 -0.1923
 1995TIP3   OH2 5990   1.837   1.293   3.101  0.0244 -0.2247 -0.2297
 1995TIP3    H1 5991   1.877   1.267   3.183 -0.3895  1.7884  0.6743
 1995TIP3    H2 5992   1.824   1.211   3.053  0.0064 -1.4816  1.8167
 1996TIP3   OH2 5993   3.411   3.875   4.714 -0.8274  0.3428 -0.1371
 1996TIP3    H1 5994   3.462   3.851   4.792 -0.5545 -0.5279 -0.5698
 1996TIP3    H2 5995   3.336   3.924   4.749 -0.6545  0.0541  0.6657
 1997TIP3   OH2 5996   3.786   4.271   1.861 -0.5621  0.4340 -0.0664
 1997TIP3    H1 5997   3.816   4.180   1.862  0.2050  0.6722 -0.6314
 1997TIP3    H2 5998   3.729   4.276   1.784 -0.8617  0.3555  0.1485
 1998TIP3   OH2 5999   2.243   0.817   5.168 -0.1716 -0.0240  0.0156
 1998TIP3    H1 6000   2.197   0.839   5.087 -2.8096 -0.5149  1.2703
 1998TIP3    H2 6001   2.232   0.723   5.178 -1.5860  0.2721  1.8335
 1999TIP3   OH2 6002   6.032   1.341   5.023 -0.2378 -0.0597 -0.0622
 1999TIP3    H1 6003   6.018   1.435   5.013 -1.0506 -0.2602 -0.9434
 1999TIP3    H2 6004   6.123   1.334   5.052  0.0022  0.9746 -0.4965
 2000TIP3   OH2 6005   1.719   4.416   1.553 -0.5257  0.3050  0.2535
 2000TIP3    H1 6006   1.757   4.492   1.597 -0.1651  1.2772 -1.5977
 2000TIP3    H2 6007   1.774   4.403   1.476 -0.9932 -1.4310  0.1642
 2001TIP3   OH2 6008   1.083   2.180   0.214  0.0764  0.3684  0.0270
 2001TIP3    H1 6009   1.161   2.219   0.252 -0.0610  1.5249 -0.8067
 2001TIP3    H2 6010   1.116   2.118   0.149  0.3040  1.0871 -0.5480
 2002TIP3   OH2 6011   4.730   1.266   3.352 -0.3264 -0.0044 -0.7626
 2002TIP3    H1 6012   4.711   1.213   3.429 -2.4816  0.4930 -0.9022
 2002TIP3    H2 6013   4.825   1.282   3.357 -0.4083  0.0655  1.8138
 2003TIP3   OH2 6014   3.592   1.621   2.269  0.6386 -0.2595  0.2517
 2003TIP3    H1 6015   3.623   1.706   2.299  0.8707  0.1621 -1.1141
 2003TIP3    H2 6016   3.670   1.565   2.268  1.2139  0.4592 -1.9950
 2004TIP3   OH2 6017   1.961   0.674   0.126 -0.3883 -0.2398 -0.0377
 2004TIP3    H1 6018   1.888   0.648   0.181 -0.0923 -1.0466 -0.0143
 2004TIP3    H2 6019   2.006   0.592   0.105 -0.2026  0.1109 -1.0553
 2005TIP3   OH2 6020   1.857   0.762   5.059  0.3079  0.4793  0.8655
 2005TIP3    H1 6021   1.821   0.674   5.055 -1.0725  1.0379 -1.4757
 2005TIP3    H2 6022   1.784   0.816   5.090 -0.3630  1.3028 -1.7949
 2006TIP3   OH2 6023   4.688   3.644   4.269  0.2271  0.0343 -0.3505
 2006TIP3    H1 6024   4.720   3.555   4.284 -0.2257 -0.0017  0.4665
 2006TIP3    H2 6025   4.737   3.675   4.193 -0.3456 -1.2829 -1.2816
 2007TIP3   OH2 6026   6.112   2.353   4.090 -0.4347  0.0607 -0.0130
 2007TIP3    H1 6027   6.109   2.418   4.161 -0.9872 -0.9572  0.9157
 2007TIP3    H2 6028   6.045   2.288   4.113  0.5816 -1.2200 -0.5503
 2008TIP3   OH2 6029   2.337   3.021   4.572  0.2358  0.0094 -0.2429
 2008TIP3    H1 6030   2.264   3.040   4.630 -0.5429 -2.6071 -0.2297
 2008TIP3    H2 6031   2.319   2.933   4.540  2.9683 -0.3699 -0.9308
 2009TIP3   OH2 6032   0.410   1.411   1.609 -0.1233  0.1277 -0.3251
 2009TIP3    H1 6033   0.422   1.420   1.515 -0.8624  0.0469 -0.4284
 2009TIP3    H2 6034   0.478   1.349   1.637 -1.1921 -1.4280 -1.1125
 2010TIP3   OH2 6035   4.755   2.168   0.619  0.7293  0.2122 -0.4495
 2010TIP3    H1 6036   4.748   2.135   0.530  0.4539  0.1748 -0.4142
 2010TIP3    H2 6037   4.758   2.090   0.674 -0.3895  0.2288 -0.3295
 2011TIP3   OH2 6038  -0.032   1.006   1.001 -0.4246  0.2264 -0.1891
 2011TIP3    H1 6039   0.028   0.947   1.045 -1.2917 -0.7092 -0.2297
 2011TIP3    H2 6040   0.025   1.062   0.947  0.3819 -0.7923 -0.4158
 2012TIP3   OH2 6041   2.456   5.032   3.657  0.3987 -0.7830 -0.1509
 2012TIP3    H1 6042   2.494   4.994   3.736 -0.9380 -0.6262  0.6001
 2012TIP3    H2 6043   2.526   5.027   3.592  2.3785  1.2403  1.6553
 2013TIP3   OH2 6044   5.407   0.526   2.493  0.5434  0.4736  0.3698
 2013TIP3    H1 6045   5.455   0.452   2.529 -0.9563 -0.3629  0.7533
 2013TIP3    H2 6046   5.467   0.600   2.500  1.6972 -0.4950  0.9443
 2014TIP3   OH2 6047   0.608   5.903   3.477 -0.2561  0.1439  0.6074
 2014TIP3    H1 6048   0.636   5.982   3.431  0.4990  0.2980  1.2964
 2014TIP3    H2 6049   0.512   5.908   3.476 -0.2307  1.6328  1.5487
 2015TIP3   OH2 6050   4.026   3.269   4.370  0.2273  0.2782 -0.0424
 2015TIP3    H1 6051   3.960   3.329   4.405  0.0223 -0.2844  0.5526
 2015TIP3    H2 6052   4.047   3.304   4.283 -0.7383  0.5592 -0.1761
 2016TIP3   OH2 6053   3.843   4.695   1.548  0.0155 -0.6785  0.5496
 2016TIP3    H1 6054   3.849   4.763   1.481 -0.7502 -0.1923  0.9527
 2016TIP3    H2 6055   3.823   4.742   1.629 -1.4675 -1.4325  0.6640
 2017TIP3   OH2 6056   1.317   2.108   4.273 -0.4558 -0.3023 -0.0317
 2017TIP3    H1 6057   1.409   2.086   4.282 -0.1629  0.0021 -1.8152
 2017TIP3    H2 6058   1.275   2.071   4.351  1.4060  1.0900  1.7208
 2018TIP3   OH2 6059   2.464   0.001   3.579  0.0980  0.3365  0.8485
 2018TIP3    H1 6060   2.383  -0.041   3.611  0.7799 -1.8724 -0.1153
 2018TIP3    H2 6061   2.434   0.083   3.540 -1.9633 -1.0485 -0.7749
 2019TIP3   OH2 6062   2.472   0.275   1.592  0.5460 -0.1770 -0.2790
 2019TIP3    H1 6063   2.492   0.274   1.498  1.5600  0.7355 -0.0952
 2019TIP3    H2 6064   2.546   0.230   1.633  0.5238  0.1606  0.1388
 2020TIP3   OH2 6065   4.902   0.518   3.568 -0.4329 -0.1956 -0.5416
 2020TIP3    H1 6066   4.966   0.484   3.505  1.3373  0.0970  1.0337
 2020TIP3    H2 6067   4.855   0.440   3.597  1.0466 -0.8293  0.2517
 2021TIP3   OH2 6068   0.971   0.126   0.571  0.4494 -0.2527 -0.2188
 2021TIP3    H1 6069   1.021   0.169   0.641  1.0429 -0.7389 -0.3323
 2021TIP3    H2 6070   0.931   0.050   0.614  0.9938 -0.6756 -0.4505
 2022TIP3   OH2 6071   3.327   0.284   4.401  0.6544 -0.5060 -0.6404
 2022TIP3    H1 6072   3.347   0.210   4.343  0.7167 -1.8767  1.0699
 2022TIP3    H2 6073   3.235   0.305   4.382  0.1040 -2.1688  0.0537
 2023TIP3   OH2 6074   4.997   1.501   1.246 -0.8613  0.1909 -0.4415
 2023TIP3    H1 6075   5.087   1.487   1.277 -0.8283 -1.0347 -1.0073
 2023TIP3    H2 6076   4.995   1.593   1.219  0.5315 -0.0080 -1.3523
 2024TIP3   OH2 6077   2.699   2.933   3.038  0.1725 -0.0046  0.2237
 2024TIP3    H1 6078   2.739   3.019   3.027  0.0594  0.2033  1.2707
 2024TIP3    H2 6079   2.746   2.876   2.978 -0.7714  1.0787 -1.6478
 2025TIP3   OH2 6080   1.810   4.415   4.828 -0.1851 -0.2788 -0.1337
 2025TIP3    H1 6081   1.762   4.486   4.872 -0.5489 -0.8561  0.4078
 2025TIP3    H2 6082   1.888   4.458   4.793  1.7329 -0.2988  3.6960
 2026TIP3   OH2 6083   2.721   2.735   1.297 -0.0821  0.5383  0.0249
 2026TIP3    H1 6084   2.766   2.693   1.370  0.6335  2.0389  0.5033
 2026TIP3    H2 6085   2.749   2.686   1.220  0.1287 -0.3055  0.6188
 2027TIP3   OH2 6086   2.624   4.273   1.924  0.1706 -0.3511 -0.5213
 2027TIP3    H1 6087   2.590   4.286   2.012  1.7451  0.0214  0.0786
 2027TIP3    H2 6088   2.566   4.325   1.868 -0.5463 -0.1762  0.3574
 2028TIP3   OH2 6089   2.713   3.430   5.011  0.1286 -0.0861 -0.3412
 2028TIP3    H1 6090   2.719   3.393   4.923  1.3974 -0.6591 -0.0336
 2028TIP3    H2 6091   2.803   3.450   5.035 -0.2951  0.9159  0.4829
 2029TIP3   OH2 6092   4.947   1.293   3.634 -0.7103 -0.0879 -0.6092
 2029TIP3    H1 6093   4.894   1.359   3.680  0.2870  0.6669 -0.5158
 2029TIP3    H2 6094   4.969   1.229   3.701 -1.5059 -0.4166 -0.6512
 2030TIP3   OH2 6095   2.017   3.944   0.357 -0.1762  0.3022 -0.5670
 2030TIP3    H1 6096   2.044   3.891   0.431 -1.4561 -0.5104 -0.6584
 2030TIP3    H2 6097   1.923   3.956   0.368 -0.9945 -2.1959 -3.4340
 2031TIP3   OH2 6098   5.927   4.622   0.897  0.0989  0.1422 -0.5843
 2031TIP3    H1 6099   5.911   4.717   0.894 -2.9058 -0.2520  0.3035
 2031TIP3    H2 6100   5.984   4.611   0.973  0.2764  1.1952 -0.5371
 2032TIP3   OH2 6101   5.660   5.210   1.684  0.0455 -0.0524 -0.0802
 2032TIP3    H1 6102   5.648   5.246   1.596 -0.0442 -0.4795 -0.2452
 2032TIP3    H2 6103   5.696   5.283   1.734 -1.3386  0.6680 -0.0754
 2033TIP3   OH2 6104   0.955   0.900   4.449  0.2112  0.2014  0.0359
 2033TIP3    H1 6105   0.902   0.976   4.472 -0.9708  0.3864 -2.8221
 2033TIP3    H2 6106   0.927   0.831   4.509 -2.4833  0.6232 -0.6053
 2034TIP3   OH2 6107   2.905   3.466   1.890 -0.2488 -0.7846 -0.4683
 2034TIP3    H1 6108   2.937   3.427   1.971 -1.1830  0.0191  0.3051
 2034TIP3    H2 6109   2.844   3.400   1.855 -0.8890 -0.5597  0.2000
 2035TIP3   OH2 6110   5.351   2.633   5.122 -0.5068  0.0781  0.1261
 2035TIP3    H1 6111   5.351   2.729   5.125 -2.7558  0.1037  1.1843
 2035TIP3    H2 6112   5.315   2.612   5.035  3.5180  0.0314 -1.7693
 2036TIP3   OH2 6113   2.931   2.854   3.495  0.1694 -0.4309  0.1069
 2036TIP3    H1 6114   2.897   2.854   3.405 -0.3980  0.8537  0.3070
 2036TIP3    H2 6115   2.948   2.946   3.515  0.8315 -0.7584  1.1216
 2037TIP3   OH2 6116   2.519   3.202   3.517 -0.5260 -0.3225  0.9297
 2037TIP3    H1 6117   2.503   3.169   3.605  0.0870 -1.5285  0.6106
 2037TIP3    H2 6118   2.530   3.123   3.463  0.7015  0.3901  0.0807
 2038TIP3   OH2 6119   3.736   3.685   0.691  0.5030 -0.1835 -0.0173
 2038TIP3    H1 6120   3.682   3.682   0.770  0.2276  1.3215 -0.1238
 2038TIP3    H2 6121   3.673   3.689   0.620  0.7549  0.3132 -0.2119
 2039TIP3   OH2 6122   0.574   1.038   3.491  0.0574 -0.1498  0.0759
 2039TIP3    H1 6123   0.648   1.049   3.551 -0.0446 -2.3896  0.6893
 2039TIP3    H2 6124   0.502   1.085   3.533  0.8236  1.1704 -0.0133
 2040TIP3   OH2 6125   3.780   5.718   0.342 -0.0832  0.3174  0.3419
 2040TIP3    H1 6126   3.813   5.802   0.376  0.0331  0.2665  0.3565
 2040TIP3    H2 6127   3.857   5.678   0.301 -0.2497  0.4363 -0.0978
 2041TIP3   OH2 6128   0.214   4.705   1.765  0.0952 -0.0798 -0.0173
 2041TIP3    H1 6129   0.127   4.744   1.759 -0.2034 -0.7804 -0.3698
 2041TIP3    H2 6130   0.244   4.699   1.675  0.7981  0.7714  0.1475
 2042TIP3   OH2 6131   0.163   5.358   1.038  0.0831  0.3800  0.3484
 2042TIP3    H1 6132   0.182   5.340   1.130 -1.0649  1.4498  0.8360
 2042TIP3    H2 6133   0.085   5.306   1.019  0.2357  0.2703  0.0327
 2043TIP3   OH2 6134   3.357   3.757   3.794 -0.2322  0.5669  0.2729
 2043TIP3    H1 6135   3.451   3.774   3.782  0.0200 -0.3390  0.8735
 2043TIP3    H2 6136   3.342   3.769   3.888 -1.1060  2.4331 -0.0448
 2044TIP3   OH2 6137   0.602   1.657   1.739 -0.0043 -0.3711  0.3713
 2044TIP3    H1 6138   0.523   1.698   1.702 -0.3197 -0.6738  0.7038
 2044TIP3    H2 6139   0.583   1.649   1.833  0.2373 -0.8738  0.3799
 2045TIP3   OH2 6140   2.519   1.981   3.482 -0.8618  0.1887 -0.4040
 2045TIP3    H1 6141   2.606   2.011   3.454 -1.0725  0.8872 -0.3286
 2045TIP3    H2 6142   2.491   1.922   3.413  0.6968 -2.0075  0.7347
 2046TIP3   OH2 6143   4.429   0.882   3.282 -0.5403  0.6514  0.5294
 2046TIP3    H1 6144   4.346   0.924   3.303 -1.1461 -0.3901  0.3029
 2046TIP3    H2 6145   4.407   0.790   3.271  0.7865  0.2206  1.2481
 2047TIP3   OH2 6146   3.926   2.465   5.092 -0.0126 -0.1629  0.4129
 2047TIP3    H1 6147   3.934   2.530   5.162 -2.8057 -0.5428  1.2496
 2047TIP3    H2 6148   3.853   2.497   5.038 -0.2430 -1.6531 -0.2184
 2048TIP3   OH2 6149   0.058   4.828   4.396  0.2028 -0.2872  0.3262
 2048TIP3    H1 6150   0.086   4.738   4.385  1.3319 -0.1462  1.7994
 2048TIP3    H2 6151   0.065   4.844   4.490 -1.2783  0.9270  0.2688
 2049TIP3   OH2 6152   0.097   2.408   0.455 -0.0853 -0.6309 -0.2797
 2049TIP3    H1 6153   0.036   2.344   0.418 -1.3280  1.6945 -2.5149
 2049TIP3    H2 6154   0.135   2.363   0.531 -2.5191 -3.1751 -0.4109
 2050TIP3   OH2 6155   0.709   2.205   4.595 -0.6347  0.3881  0.2975
 2050TIP3    H1 6156   0.708   2.227   4.502 -3.0504  1.9325  0.5853
 2050TIP3    H2 6157   0.735   2.113   4.598  0.1026  0.4808 -1.8380
 2051TIP3   OH2 6158   3.087   5.777   1.079 -0.5191  0.1651  0.6183
 2051TIP3    H1 6159   3.116   5.791   0.988 -1.1259  0.3745  0.4536
 2051TIP3    H2 6160   3.165   5.796   1.132 -0.8379  2.6411  0.3140
 2052TIP3   OH2 6161   6.311   0.831   1.635 -0.2978 -0.6781 -0.0957
 2052TIP3    H1 6162   6.262   0.752   1.658  0.2635 -0.8818  0.4385
 2052TIP3    H2 6163   6.403   0.806   1.647 -0.1037 -0.0119 -0.1457
 2053TIP3   OH2 6164   5.603   0.126   1.145  0.1756  0.0022 -0.3017
 2053TIP3    H1 6165   5.670   0.120   1.078 -0.6672  0.1170 -1.1744
 2053TIP3    H2 6166   5.631   0.200   1.200  0.7034  0.1061 -0.7069
 2054TIP3   OH2 6167   1.192   1.267   2.859  0.5321  0.0585  0.2524
 2054TIP3    H1 6168   1.228   1.315   2.933  1.7349 -0.4513  0.0243
 2054TIP3    H2 6169   1.100   1.293   2.855 -0.1014 -1.3554  3.1223
 2055TIP3   OH2 6170   1.096   0.675   1.244 -0.5204 -0.3466  0.2437
 2055TIP3    H1 6171   1.006   0.688   1.213 -0.5608  0.8935  0.8287
 2055TIP3    H2 6172   1.139   0.759   1.226  0.2862 -0.6455  0.7654
 2056TIP3   OH2 6173   0.923   5.625   3.640  0.3958 -0.5241 -0.0398
 2056TIP3    H1 6174   0.867   5.623   3.562 -0.2581 -0.4387  0.4146
 2056TIP3    H2 6175   0.884   5.560   3.699  0.5414 -0.1743  0.4439
 2057TIP3   OH2 6176   0.772   2.601   4.081  0.0552 -0.0140 -0.6266
 2057TIP3    H1 6177   0.791   2.693   4.098 -1.0779  0.3200 -1.0755
 2057TIP3    H2 6178   0.827   2.554   4.143 -0.6498  1.0279  0.8675
 2058TIP3   OH2 6179   6.118   3.707   1.041  0.0665  0.4063 -0.5625
 2058TIP3    H1 6180   6.204   3.745   1.027 -0.4493  1.6487 -0.4478
 2058TIP3    H2 6181   6.071   3.722   0.959  0.1767 -0.9305 -0.8998
 2059TIP3   OH2 6182   1.525   1.072   3.533 -0.4587 -0.2712  0.3993
 2059TIP3    H1 6183   1.616   1.083   3.562 -0.3900 -0.0917  0.1164
 2059TIP3    H2 6184   1.513   0.977   3.529  0.4914 -0.3570 -1.9299
 2060TIP3   OH2 6185   4.500   0.722   4.404  0.5764 -0.2020 -0.4245
 2060TIP3    H1 6186   4.548   0.639   4.398  1.7281  0.4587 -0.4940
 2060TIP3    H2 6187   4.411   0.695   4.428  0.2382 -1.6511 -2.9121
 2061TIP3   OH2 6188   3.585   5.740   1.887  0.8298  0.2065 -0.5375
 2061TIP3    H1 6189   3.615   5.661   1.842  1.7836  0.2038  0.0755
 2061TIP3    H2 6190   3.653   5.758   1.952  0.2827  1.1410 -0.2036
 2062TIP3   OH2 6191   5.438   5.550   2.475  0.3375 -0.0315  0.2690
 2062TIP3    H1 6192   5.457   5.560   2.568  0.1474  0.2588  0.2758
 2062TIP3    H2 6193   5.510   5.595   2.431 -0.7527  1.8271  0.3020
 2063TIP3   OH2 6194   6.097   1.826   2.188 -0.4579 -0.2933  0.5353
 2063TIP3    H1 6195   6.048   1.744   2.193 -1.6563  0.5098  3.4378
 2063TIP3    H2 6196   6.189   1.798   2.186 -0.8005 -1.7560  2.2406
 2064TIP3   OH2 6197   6.088   2.132   1.741 -0.9290  0.0304 -1.0997
 2064TIP3    H1 6198   6.135   2.087   1.671  0.6784  0.7649 -0.5490
 2064TIP3    H2 6199   6.072   2.063   1.806 -2.4517 -0.6592 -2.1331
 2065TIP3   OH2 6200   0.065   1.183   3.544  0.1557 -0.1003  0.0593
 2065TIP3    H1 6201  -0.015   1.142   3.511  0.3619 -0.8063  0.4228
 2065TIP3    H2 6202   0.117   1.111   3.580  0.3893  0.5073  0.9919
 2066TIP3   OH2 6203   2.056   0.649   4.429 -0.0402  0.1914 -0.1301
 2066TIP3    H1 6204   2.070   0.654   4.523 -2.3055 -1.4534  0.3893
 2066TIP3    H2 6205   1.985   0.712   4.412  0.0047  0.1049 -0.6479
 2067TIP3   OH2 6206   3.754   3.012   2.028  0.2146 -0.2124  0.0113
 2067TIP3    H1 6207   3.795   2.938   1.984 -0.4555 -0.1715 -0.7005
 2067TIP3    H2 6208   3.826   3.072   2.047  0.7656 -1.0359  0.6005
 2068TIP3   OH2 6209   5.793   0.724   2.252 -0.2833  0.0331 -0.5200
 2068TIP3    H1 6210   5.863   0.722   2.318 -0.8865 -1.9843  0.1294
 2068TIP3    H2 6211   5.839   0.714   2.169  0.2875 -0.1054 -0.1952
 2069TIP3   OH2 6212   4.172   5.186   4.002  0.2188  0.0253  0.1907
 2069TIP3    H1 6213   4.187   5.279   4.013 -0.9156  0.2916 -0.2921
 2069TIP3    H2 6214   4.098   5.166   4.060 -0.3987 -0.2765 -0.6683
 2070TIP3   OH2 6215   3.541   3.539   4.993 -0.2553  0.1511  0.2334
 2070TIP3    H1 6216   3.618   3.522   5.046 -0.6012 -1.5030  0.2527
 2070TIP3    H2 6217   3.489   3.601   5.045  0.0219 -0.4306  1.2121
 2071TIP3   OH2 6218   4.734   2.192   1.893  0.0156 -0.3529  0.4594
 2071TIP3    H1 6219   4.704   2.121   1.835  1.5688 -0.8738  0.2346
 2071TIP3    H2 6220   4.732   2.153   1.980 -0.0960 -0.3472  0.4591
 2072TIP3   OH2 6221   5.566   1.415   3.321 -0.8943  0.2738  0.3474
 2072TIP3    H1 6222   5.559   1.322   3.298 -0.5195  0.5437 -0.9338
 2072TIP3    H2 6223   5.476   1.444   3.332 -1.3979  0.7580 -3.6259
 2073TIP3   OH2 6224   1.529   2.893   2.377  0.2934  0.1922 -0.2924
 2073TIP3    H1 6225   1.600   2.839   2.411 -0.0709  0.0319  0.2271
 2073TIP3    H2 6226   1.496   2.941   2.453 -1.3797 -1.1453 -0.0852
 2074TIP3   OH2 6227   1.567   1.468   1.178 -0.1375  0.0839 -0.2399
 2074TIP3    H1 6228   1.485   1.486   1.132  0.9873  0.7700 -2.0540
 2074TIP3    H2 6229   1.635   1.505   1.122  1.4722 -0.9125  0.9787
 2075TIP3   OH2 6230   1.526   0.345   4.716 -0.1507 -0.2464 -0.7392
 2075TIP3    H1 6231   1.538   0.440   4.721 -0.8171 -0.1987 -0.0802
 2075TIP3    H2 6232   1.436   0.330   4.743 -0.1205 -1.0561 -1.0541
 2076TIP3   OH2 6233   5.528   4.945   2.266  0.1449 -0.1329 -0.0110
 2076TIP3    H1 6234   5.484   4.989   2.338 -0.7561  0.9074 -1.1610
 2076TIP3    H2 6235   5.520   4.852   2.286 -1.8188  0.0615  0.2587
 2077TIP3   OH2 6236   3.093   1.863   2.650  0.6809  0.3028  0.4863
 2077TIP3    H1 6237   3.030   1.820   2.708  1.4698 -1.1648  0.3083
 2077TIP3    H2 6238   3.040   1.906   2.584 -0.1400 -0.9274  0.3261
 2078TIP3   OH2 6239   3.207   0.978   0.595 -0.1681 -0.6147  0.2882
 2078TIP3    H1 6240   3.257   0.980   0.677  1.6977 -0.9798 -0.7666
 2078TIP3    H2 6241   3.118   1.003   0.619  0.6212  0.4979  2.2215
 2079TIP3   OH2 6242   1.311   0.297   0.582  0.0629  0.5524 -0.1194
 2079TIP3    H1 6243   1.405   0.285   0.596 -0.1579 -0.2982  0.7716
 2079TIP3    H2 6244   1.278   0.333   0.665 -0.7065 -1.1715  0.3892
 2080TIP3   OH2 6245   0.469   1.375   5.046  0.0480 -0.3722 -0.5732
 2080TIP3    H1 6246   0.481   1.296   5.100 -1.8746 -0.6180 -0.4608
 2080TIP3    H2 6247   0.376   1.396   5.054  0.5376  2.0090 -0.4879
 2081TIP3   OH2 6248   4.543   4.664   0.148 -0.0565 -0.3474 -0.5371
 2081TIP3    H1 6249   4.534   4.737   0.087  0.6082  1.7650  1.7150
 2081TIP3    H2 6250   4.609   4.694   0.212 -1.8106 -1.7168  2.0962
 2082TIP3   OH2 6251   0.903   3.639   4.735  0.2756 -1.0070 -0.2241
 2082TIP3    H1 6252   0.974   3.690   4.776 -0.8697  0.3323  0.1841
 2082TIP3    H2 6253   0.914   3.655   4.641  0.2033 -0.3678 -0.1275
 2083TIP3   OH2 6254   1.990   4.049   2.612  0.1080 -0.2061  0.5878
 2083TIP3    H1 6255   1.976   4.012   2.699 -0.8721 -1.3172 -0.0233
 2083TIP3    H2 6256   1.915   4.107   2.598 -0.6098 -1.2831 -0.1495
 2084TIP3   OH2 6257   6.075   4.520   4.860  0.7834 -0.1083  0.5105
 2084TIP3    H1 6258   6.166   4.550   4.865  0.3911  1.1221  0.3968
 2084TIP3    H2 6259   6.029   4.588   4.812 -0.1520 -0.8638  0.3053
 2085TIP3   OH2 6260   0.981   2.773   3.900 -0.1964 -0.2068  0.0524
 2085TIP3    H1 6261   1.029   2.829   3.961 -2.3929  1.2024  0.6093
 2085TIP3    H2 6262   1.010   2.685   3.920 -0.2538  0.2860  2.6470
 2086TIP3   OH2 6263   2.380   2.716   4.484 -0.1490 -0.6753  0.0826
 2086TIP3    H1 6264   2.474   2.715   4.465 -0.2751  0.0032 -0.6036
 2086TIP3    H2 6265   2.347   2.636   4.442 -0.1577 -0.0070 -1.2473
 2087TIP3   OH2 6266   5.503   1.687   2.489  0.2915  0.4396  0.1611
 2087TIP3    H1 6267   5.584   1.637   2.481  0.3169  0.5503 -0.2555
 2087TIP3    H2 6268   5.447   1.633   2.545 -0.2677 -0.7895 -1.5404
 2088TIP3   OH2 6269   3.591   4.281   1.687 -0.1544  0.1778  0.3092
 2088TIP3    H1 6270   3.541   4.209   1.650  0.7868 -0.2454 -0.1742
 2088TIP3    H2 6271   3.547   4.360   1.655  0.3355 -0.1788 -1.3433
 2089TIP3   OH2 6272   1.113   4.764   0.246  0.1005 -0.5768 -0.2896
 2089TIP3    H1 6273   1.025   4.740   0.276 -0.1619 -0.1818 -0.7298
 2089TIP3    H2 6274   1.098   4.835   0.184  0.7962  0.0578  0.2556
 2090TIP3   OH2 6275   1.413   5.586   0.035  0.1761 -0.1934 -0.4061
 2090TIP3    H1 6276   1.320   5.594   0.014  0.4813 -0.5467 -1.9980
 2090TIP3    H2 6277   1.450   5.669   0.006  0.3422  0.0140  0.3839
 2091TIP3   OH2 6278   3.053   5.072   1.160  0.1601  0.5629 -0.5724
 2091TIP3    H1 6279   3.005   5.113   1.232 -0.5650 -0.6827 -0.3234
 2091TIP3    H2 6280   3.024   5.120   1.082  0.9817  1.9490 -0.0638
 2092TIP3   OH2 6281   1.887   5.031   0.894  0.2610  0.3836 -0.5757
 2092TIP3    H1 6282   1.897   5.020   0.989 -0.5018 -0.3007 -0.5635
 2092TIP3    H2 6283   1.925   4.952   0.857  2.0683  1.3725 -0.9591
 2093TIP3   OH2 6284   0.655   5.755   1.022 -0.3954 -0.2122  0.0467
 2093TIP3    H1 6285   0.736   5.707   1.041  0.0159  0.6237  0.4772
 2093TIP3    H2 6286   0.608   5.758   1.106 -2.3871 -3.3406 -0.8144
 2094TIP3   OH2 6287   5.204   2.872   0.921  0.0782  0.5188 -0.2068
 2094TIP3    H1 6288   5.252   2.816   0.860 -0.7503 -0.0347 -0.3640
 2094TIP3    H2 6289   5.260   2.877   0.999  1.1945  1.3196 -1.0340
 2095TIP3   OH2 6290   3.755   3.397   2.229  0.3632  0.8742 -0.1182
 2095TIP3    H1 6291   3.680   3.457   2.237  0.4204  0.7414  1.8752
 2095TIP3    H2 6292   3.832   3.452   2.243  0.6149  0.8573 -1.3339
 2096TIP3   OH2 6293   2.919   1.547   4.041  0.3649  0.4448 -0.4337
 2096TIP3    H1 6294   3.007   1.515   4.060  1.8573  3.2765 -1.8803
 2096TIP3    H2 6295   2.897   1.602   4.116  0.5080  0.9578 -0.7631
 2097TIP3   OH2 6296   1.250   3.253   1.232  0.1409 -0.4167  0.1070
 2097TIP3    H1 6297   1.279   3.328   1.283  2.1062 -0.3213 -1.0635
 2097TIP3    H2 6298   1.168   3.281   1.192 -0.6581  0.0309  1.9579
 2098TIP3   OH2 6299   2.947   1.020   3.388 -0.2232 -0.3554  0.2353
 2098TIP3    H1 6300   2.854   1.008   3.407  0.0411 -0.2249  1.6914
 2098TIP3    H2 6301   2.976   1.090   3.446  0.1138  1.8855 -2.4138
 2099TIP3   OH2 6302   5.847   4.033   2.899 -0.0117 -0.3982  0.7564
 2099TIP3    H1 6303   5.873   3.985   2.821 -0.1217  0.6089  0.0905
 2099TIP3    H2 6304   5.760   3.998   2.921  1.3502 -3.1014  2.4415
 2100TIP3   OH2 6305   3.827   0.098   1.696  0.2881  0.0594 -0.5915
 2100TIP3    H1 6306   3.840   0.061   1.784 -1.3469 -1.6654 -1.0079
 2100TIP3    H2 6307   3.895   0.165   1.688  1.0994 -0.4079  1.6078
 2101TIP3   OH2 6308   6.081   1.209   2.084 -0.5543 -0.2701  0.2079
 2101TIP3    H1 6309   6.114   1.123   2.059 -1.4917 -0.4837 -0.3254
 2101TIP3    H2 6310   6.040   1.243   2.005  0.2277  0.8785  0.2768
 2102TIP3   OH2 6311   4.404   1.580   2.404  0.3936 -0.9016 -0.1342
 2102TIP3    H1 6312   4.423   1.615   2.491 -1.2778 -0.5502  0.1364
 2102TIP3    H2 6313   4.336   1.514   2.418  1.2860 -2.0544 -1.0054
 2103TIP3   OH2 6314   4.403   5.292   4.369 -0.1643  0.0328  0.0765
 2103TIP3    H1 6315   4.407   5.387   4.379  0.5150 -0.1189  1.4540
 2103TIP3    H2 6316   4.494   5.263   4.372 -0.4345 -0.7809  1.2407
 2104TIP3   OH2 6317   4.163   4.711   0.993 -0.3387  0.3776  0.2721
 2104TIP3    H1 6318   4.087   4.718   1.051 -0.1969  0.8348  0.4043
 2104TIP3    H2 6319   4.135   4.650   0.924 -0.6949  0.2574  0.5207
 2105TIP3   OH2 6320   0.027   2.047   2.547  0.1318  0.0283  0.3583
 2105TIP3    H1 6321   0.096   2.026   2.609  0.2601 -0.4734  0.0546
 2105TIP3    H2 6322  -0.023   1.965   2.538  0.4991 -0.0991 -0.6734
 2106TIP3   OH2 6323   2.774   5.444   0.871 -0.2650  0.2011  0.0488
 2106TIP3    H1 6324   2.702   5.499   0.841  1.2247  1.2533 -1.7654
 2106TIP3    H2 6325   2.800   5.394   0.794  0.0124 -1.3044  1.0608
 2107TIP3   OH2 6326   1.179   5.604   5.029 -0.2268  0.0628 -0.0568
 2107TIP3    H1 6327   1.110   5.555   5.073  0.7219  0.7009  2.2510
 2107TIP3    H2 6328   1.248   5.540   5.014 -0.5818 -0.1721 -0.7240
 2108TIP3   OH2 6329   0.177   4.016   0.363 -0.2375  0.0508  0.4593
 2108TIP3    H1 6330   0.232   4.023   0.286 -0.7260  0.9215  0.1738
 2108TIP3    H2 6331   0.138   4.103   0.373 -2.4202 -0.7981  0.0029
 2109TIP3   OH2 6332   2.267   4.754   2.456 -0.2223 -0.1064  0.0290
 2109TIP3    H1 6333   2.265   4.764   2.360 -1.2089 -1.5444 -0.1343
 2109TIP3    H2 6334   2.252   4.842   2.489  1.2932  0.6328 -1.1079
 2110TIP3   OH2 6335   3.563   0.831   0.580 -0.2528 -0.2300 -0.1485
 2110TIP3    H1 6336   3.481   0.782   0.580 -1.3089  1.4802 -0.2517
 2110TIP3    H2 6337   3.567   0.872   0.493  0.0807  0.7253  0.3082
 2111TIP3   OH2 6338   6.038   5.967   0.166 -0.0186 -0.1720 -0.2051
 2111TIP3    H1 6339   5.995   5.920   0.237 -1.8585  1.2434 -0.2976
 2111TIP3    H2 6340   5.980   5.956   0.091  1.2951 -0.6396 -1.2026
 2112TIP3   OH2 6341   1.045   4.819   4.030 -0.1331 -0.2328  0.4647
 2112TIP3    H1 6342   1.016   4.907   4.052 -0.5528 -0.2199 -0.1371
 2112TIP3    H2 6343   1.007   4.764   4.099 -1.6215 -0.2198 -0.3011
 2113TIP3   OH2 6344   3.433   5.666   0.851 -0.2572  0.2074 -0.2651
 2113TIP3    H1 6345   3.439   5.647   0.944 -0.8040  0.1865 -0.2310
 2113TIP3    H2 6346   3.475   5.591   0.809  1.6872  1.0775  0.0012
 2114TIP3   OH2 6347   5.094   2.957   1.741  0.6410  0.4535  0.1915
 2114TIP3    H1 6348   5.032   3.028   1.724  1.2318  0.6905 -1.1225
 2114TIP3    H2 6349   5.083   2.937   1.834 -1.6361  0.2585 -0.0618
 2115TIP3   OH2 6350   3.513   2.991   0.946  0.2625 -0.0111 -0.2367
 2115TIP3    H1 6351   3.515   2.912   1.000  1.2132  0.0844 -0.1037
 2115TIP3    H2 6352   3.579   3.048   0.985  1.6389 -0.2999 -2.0158
 2116TIP3   OH2 6353   2.477   3.123   3.778  0.0243 -0.0066  0.0770
 2116TIP3    H1 6354   2.467   3.218   3.789 -0.5061  0.2106 -1.9708
 2116TIP3    H2 6355   2.394   3.086   3.809  0.1324  0.2033  0.6331
 2117TIP3   OH2 6356   5.027   2.526   3.341 -0.0091 -0.1865 -0.3903
 2117TIP3    H1 6357   5.024   2.612   3.382  2.5192  1.5158 -3.3162
 2117TIP3    H2 6358   4.937   2.495   3.344 -1.1065  2.7642  0.3944
 2118TIP3   OH2 6359   1.140   2.530   4.371 -0.6767 -0.5651  0.3749
 2118TIP3    H1 6360   1.195   2.460   4.336 -1.0456 -0.0829 -1.2395
 2118TIP3    H2 6361   1.196   2.607   4.371 -0.6383 -0.5887  1.0008
 2119TIP3   OH2 6362   5.514   4.230   1.150 -0.6422  0.4653 -0.1240
 2119TIP3    H1 6363   5.527   4.155   1.092 -1.4105 -1.8538  2.4966
 2119TIP3    H2 6364   5.419   4.237   1.159 -0.5440  0.1593  1.4930
 2120TIP3   OH2 6365   1.345   5.631   3.764  0.2085 -0.1268 -0.4992
 2120TIP3    H1 6366   1.426   5.664   3.802 -0.4511  0.1508  0.7001
 2120TIP3    H2 6367   1.348   5.661   3.673  0.6076  1.4233 -0.0005
 2121TIP3   OH2 6368   2.008   1.243   4.386  0.0479  0.2616 -0.0138
 2121TIP3    H1 6369   2.066   1.237   4.310  0.3974  0.5747  0.2283
 2121TIP3    H2 6370   1.921   1.223   4.351 -0.0806  2.0867 -0.8588
 2122TIP3   OH2 6371   5.872   3.265   2.744 -0.4828 -0.4382 -0.0648
 2122TIP3    H1 6372   5.830   3.343   2.708  0.2183 -0.4795 -0.9911
 2122TIP3    H2 6373   5.905   3.217   2.668 -0.8159 -1.5972  0.4889
 2123TIP3   OH2 6374   5.173   3.161   0.572 -0.5610  0.6833  0.0823
 2123TIP3    H1 6375   5.129   3.078   0.549 -0.0747  0.7161 -1.0371
 2123TIP3    H2 6376   5.176   3.209   0.490 -1.3166  2.0655  0.8373
 2124TIP3   OH2 6377   2.236   3.342   0.043 -0.0510 -0.2294  0.2424
 2124TIP3    H1 6378   2.314   3.383   0.080 -0.4924 -0.4878  1.5200
 2124TIP3    H2 6379   2.201   3.289   0.114 -1.2057 -0.3789 -0.4118
 2125TIP3   OH2 6380   3.364   5.375   1.456  0.0092  0.4047  0.0918
 2125TIP3    H1 6381   3.456   5.361   1.477  0.0939 -0.2237 -0.6301
 2125TIP3    H2 6382   3.346   5.464   1.485  0.5632  0.1904  1.1809
 2126TIP3   OH2 6383   2.385   2.047   2.205  0.0338 -0.5510  0.2512
 2126TIP3    H1 6384   2.308   1.992   2.221 -1.0734  0.9374  0.1613
 2126TIP3    H2 6385   2.431   2.002   2.133 -0.9670 -1.2241  0.0110
 2127TIP3   OH2 6386   2.678   3.793   2.471 -0.4561  0.2473  0.7823
 2127TIP3    H1 6387   2.600   3.844   2.494  0.0361  1.7018 -0.5300
 2127TIP3    H2 6388   2.750   3.842   2.509  0.0442  0.6921 -0.6511
 2128TIP3   OH2 6389   1.410   2.622   1.037 -0.1343  0.3015  0.1293
 2128TIP3    H1 6390   1.376   2.559   0.973  0.0223  1.7048 -1.4144
 2128TIP3    H2 6391   1.337   2.680   1.056 -0.1804 -0.1080  1.2682
 2129TIP3   OH2 6392   5.190   5.187   2.406  0.3183  0.5063  0.0801
 2129TIP3    H1 6393   5.109   5.238   2.412 -0.1562 -0.1248 -0.8056
 2129TIP3    H2 6394   5.219   5.198   2.316  0.0968 -0.9341 -0.1919
 2130TIP3   OH2 6395   2.257   0.354   2.797  0.1100 -0.4820  0.2021
 2130TIP3    H1 6396   2.209   0.315   2.724 -0.0006 -0.4374  0.2498
 2130TIP3    H2 6397   2.329   0.402   2.756 -1.1922  1.3677 -0.0646
 2131TIP3   OH2 6398   1.829   2.656   0.524  0.3099 -0.2278 -0.6895
 2131TIP3    H1 6399   1.823   2.588   0.592  0.2845 -0.0277 -0.4908
 2131TIP3    H2 6400   1.743   2.658   0.484  0.6465 -1.1264 -1.4830
 2132TIP3   OH2 6401   5.660   1.741   2.253  0.1803 -0.0673  0.1574
 2132TIP3    H1 6402   5.571   1.728   2.220  0.0598 -0.4292  0.6179
 2132TIP3    H2 6403   5.657   1.712   2.344  0.4508  1.1511  0.5698
 2133TIP3   OH2 6404   0.615   1.735   4.001  0.8348  0.5171  0.7370
 2133TIP3    H1 6405   0.549   1.785   4.049  2.2234 -0.1617  3.5318
 2133TIP3    H2 6406   0.570   1.655   3.974  0.6837 -0.4811  3.6212
 2134TIP3   OH2 6407   1.034   4.513   3.865 -1.0700 -0.2662 -0.9876
 2134TIP3    H1 6408   1.107   4.573   3.878 -2.3627  1.0540  0.6370
 2134TIP3    H2 6409   0.995   4.541   3.781  0.0861 -0.8026 -1.7218
 2135TIP3   OH2 6410   1.034   4.775   2.167  0.1422 -0.4987  0.5020
 2135TIP3    H1 6411   1.007   4.727   2.089 -0.2450 -0.1666  0.4268
 2135TIP3    H2 6412   1.121   4.809   2.145 -0.8971  1.5994 -0.7433
 2136TIP3   OH2 6413   0.135   4.381   2.233  0.3334  0.7996  0.2490
 2136TIP3    H1 6414   0.118   4.293   2.267 -2.7186  1.2499  0.1529
 2136TIP3    H2 6415   0.049   4.415   2.209  1.5825  3.2449 -1.2235
 2137TIP3   OH2 6416   0.183   1.850   0.053 -0.4917  0.4872 -0.5595
 2137TIP3    H1 6417   0.223   1.870   0.138 -2.3697 -2.7606  1.2770
 2137TIP3    H2 6418   0.255   1.812   0.002  0.0575 -0.0990  0.6073
 2138TIP3   OH2 6419   0.600   0.699   1.885 -0.8139 -0.0155  0.4908
 2138TIP3    H1 6420   0.547   0.642   1.940 -2.9628  0.5499 -0.8659
 2138TIP3    H2 6421   0.612   0.649   1.804  0.7967 -0.1399  0.7859
 2139TIP3   OH2 6422   5.690   1.053   2.081  0.0404 -0.3583 -0.5468
 2139TIP3    H1 6423   5.768   1.100   2.108 -0.4087 -1.3401  2.8941
 2139TIP3    H2 6424   5.718   0.999   2.007  1.8153  1.3765 -1.2256
 2140TIP3   OH2 6425   0.792   3.650   2.086 -0.4962  0.4707 -0.4796
 2140TIP3    H1 6426   0.806   3.740   2.056  0.3753  0.4415 -0.1925
 2140TIP3    H2 6427   0.867   3.602   2.050 -0.1436  0.1682  0.6320
 2141TIP3   OH2 6428   4.513   4.999   0.726  0.4899  0.1202  0.5030
 2141TIP3    H1 6429   4.478   5.068   0.782  0.5824 -0.3360  1.1260
 2141TIP3    H2 6430   4.461   4.922   0.747 -0.2391  0.2067 -0.8613
 2142TIP3   OH2 6431   4.411   2.169   0.510 -0.1303  0.4269 -0.2600
 2142TIP3    H1 6432   4.342   2.126   0.459 -0.1045 -0.1780  0.1970
 2142TIP3    H2 6433   4.480   2.104   0.516 -0.1256  0.4976  0.5201
 2143TIP3   OH2 6434   3.982   3.694   3.908  0.6983  0.8507 -0.3053
 2143TIP3    H1 6435   4.044   3.694   3.982 -0.2183  0.1443  0.4987
 2143TIP3    H2 6436   3.938   3.778   3.913  3.3456  2.5167 -2.4761
 2144TIP3   OH2 6437   1.979   4.720   4.262  0.0844  0.2044 -0.3239
 2144TIP3    H1 6438   1.932   4.793   4.301  0.7494 -0.5409  2.0449
 2144TIP3    H2 6439   2.049   4.761   4.212 -1.9410  1.2588 -2.4728
 2145TIP3   OH2 6440   4.140   2.360   2.048  0.4974  0.3348  0.2313
 2145TIP3    H1 6441   4.146   2.437   2.105 -0.2199  0.1978  0.5013
 2145TIP3    H2 6442   4.150   2.395   1.960 -0.8967  0.9057  0.2756
 2146TIP3   OH2 6443   2.881   2.278   1.623  0.1864  0.3114 -0.2680
 2146TIP3    H1 6444   2.879   2.372   1.638  0.7912  0.8355 -2.9866
 2146TIP3    H2 6445   2.790   2.254   1.606 -0.1299  0.1561  1.4821
 2147TIP3   OH2 6446   4.862   5.574   0.383 -0.2371  0.3358  0.6444
 2147TIP3    H1 6447   4.949   5.579   0.344 -1.1605  0.1226 -1.6289
 2147TIP3    H2 6448   4.826   5.662   0.372 -0.7823  0.0754  0.3068
 2148TIP3   OH2 6449   4.332   1.226   2.049 -0.3924  0.2270  0.2600
 2148TIP3    H1 6450   4.391   1.223   2.125 -0.0125  0.2575 -0.0307
 2148TIP3    H2 6451   4.376   1.283   1.986  0.0804 -1.0540 -0.6168
 2149TIP3   OH2 6452   1.451   3.044   3.738  0.5493  0.4096 -0.5200
 2149TIP3    H1 6453   1.525   2.988   3.714  0.7145 -0.1952  1.2416
 2149TIP3    H2 6454   1.466   3.065   3.830 -2.1901 -0.9937  0.3690
 2150TIP3   OH2 6455   1.303   1.978   2.138 -0.2792 -0.2083 -0.0999
 2150TIP3    H1 6456   1.361   1.922   2.085 -0.6643 -0.9482  0.2540
 2150TIP3    H2 6457   1.221   1.930   2.143 -0.8741  0.7419 -0.4134
 2151TIP3   OH2 6458   2.302   2.936   3.889  0.2886  0.2933  0.0771
 2151TIP3    H1 6459   2.298   2.855   3.838  1.8019  0.6051 -0.5733
 2151TIP3    H2 6460   2.213   2.972   3.884  0.9868  2.1536 -5.4264
 2152TIP3   OH2 6461   1.751   0.606   4.419 -0.4026 -0.0073 -0.3701
 2152TIP3    H1 6462   1.735   0.577   4.330 -1.3061 -1.0172  0.0986
 2152TIP3    H2 6463   1.683   0.672   4.436 -0.9617 -0.6456 -0.0646
 2153TIP3   OH2 6464   5.681   4.463   0.848 -0.3349  0.3073  0.1287
 2153TIP3    H1 6465   5.776   4.470   0.841 -0.3183 -0.2107 -0.1260
 2153TIP3    H2 6466   5.661   4.504   0.933  0.2838 -1.0789  0.9831
 2154TIP3   OH2 6467   5.084   0.578   1.093 -0.2301  0.5955 -0.2194
 2154TIP3    H1 6468   5.006   0.630   1.076 -1.0148 -0.5686 -0.2780
 2154TIP3    H2 6469   5.136   0.586   1.013 -0.2183  1.4671 -0.1370
 2155TIP3   OH2 6470   6.143   0.764   4.925  0.2413 -0.7398 -0.2792
 2155TIP3    H1 6471   6.173   0.817   4.999 -0.9214 -2.0505  1.1755
 2155TIP3    H2 6472   6.221   0.752   4.871  0.3180  3.6656 -1.5468
 2156TIP3   OH2 6473   4.470   0.200   3.484 -0.7668  0.2333 -0.2714
 2156TIP3    H1 6474   4.499   0.123   3.435 -0.3408  0.2236 -0.0063
 2156TIP3    H2 6475   4.400   0.167   3.541  0.6947 -0.3852  1.2464
 2157TIP3   OH2 6476   0.741   1.931   4.536  0.5662 -0.5566  0.2538
 2157TIP3    H1 6477   0.829   1.897   4.520  1.6865  2.7013 -1.3058
 2157TIP3    H2 6478   0.701   1.936   4.449 -1.0290 -1.4609  0.8809
 2158TIP3   OH2 6479   5.784   3.380   0.470  0.6074 -0.0753  0.1124
 2158TIP3    H1 6480   5.792   3.286   0.455  1.8350  0.1333 -0.7197
 2158TIP3    H2 6481   5.713   3.408   0.413  0.1973 -0.4936  0.4067
 2159TIP3   OH2 6482   0.622   4.493   3.868  0.1015 -1.1760 -0.0200
 2159TIP3    H1 6483   0.653   4.535   3.788  0.7926  1.0567  1.3421
 2159TIP3    H2 6484   0.680   4.525   3.937 -1.4470 -1.7521  1.6389
 2160TIP3   OH2 6485   5.272   1.055   1.982  0.3773 -0.1551 -0.6209
 2160TIP3    H1 6486   5.346   1.101   1.943 -0.3174 -0.0870 -1.9235
 2160TIP3    H2 6487   5.236   1.002   1.911 -1.7888  1.0495 -0.5097
 2161TIP3   OH2 6488   0.632   0.836   3.063 -0.2029 -0.2341 -0.3306
 2161TIP3    H1 6489   0.585   0.824   3.146 -0.1703 -0.1716 -0.3029
 2161TIP3    H2 6490   0.667   0.925   3.068 -1.5275  0.3564 -1.0822
 2162TIP3   OH2 6491   4.649   2.940   3.589  0.5170 -0.2870  0.4854
 2162TIP3    H1 6492   4.708   2.871   3.557 -2.6385 -2.0404 -2.1403
 2162TIP3    H2 6493   4.578   2.893   3.633  0.1003  1.6220  2.0040
 2163TIP3   OH2 6494   3.944   5.728   4.185  0.7697  0.1896  0.4496
 2163TIP3    H1 6495   3.861   5.685   4.204 -0.0390  1.1156 -0.7635
 2163TIP3    H2 6496   3.970   5.693   4.100  0.7256  1.1527  0.0245
 2164TIP3   OH2 6497   3.270   0.825   2.352 -0.4884 -0.3835 -0.3019
 2164TIP3    H1 6498   3.246   0.891   2.416  0.5353 -0.0794 -0.2082
 2164TIP3    H2 6499   3.278   0.873   2.269  0.1820 -0.3972 -0.2488
 2165TIP3   OH2 6500   0.819   2.417   0.329 -0.6791  0.6747  0.2744
 2165TIP3    H1 6501   0.753   2.482   0.352 -1.5363 -0.2495  0.5449
 2165TIP3    H2 6502   0.831   2.427   0.235  0.4010  2.2702  0.5384
 2166TIP3   OH2 6503   4.004   1.252   4.559 -0.3490  0.3699 -0.1416
 2166TIP3    H1 6504   4.086   1.298   4.543  0.6977 -0.3495  2.5882
 2166TIP3    H2 6505   3.938   1.321   4.565  0.8858  1.4667  2.1294
 2167TIP3   OH2 6506   6.053   0.927   1.503  0.3024 -0.0349  0.3264
 2167TIP3    H1 6507   6.087   0.963   1.421 -1.5382 -1.8700 -1.3363
 2167TIP3    H2 6508   6.127   0.881   1.542  1.0606  0.3905 -0.5859
 2168TIP3   OH2 6509   2.473   4.085   0.318 -0.2142 -0.1445  0.3720
 2168TIP3    H1 6510   2.482   4.021   0.389 -0.0897 -1.3583 -0.7053
 2168TIP3    H2 6511   2.483   4.034   0.238 -2.0644  0.8950 -0.5923
 2169TIP3   OH2 6512   1.105   4.030   1.962  0.2376 -0.3189 -0.3350
 2169TIP3    H1 6513   1.123   4.114   2.004 -0.9835  0.1935 -0.7758
 2169TIP3    H2 6514   1.154   4.033   1.880  1.0974 -0.5163  0.1665
 2170TIP3   OH2 6515   0.872   0.044   2.818  0.0045  0.0424 -1.2910
 2170TIP3    H1 6516   0.841  -0.038   2.857  0.1217 -0.4727 -2.2490
 2170TIP3    H2 6517   0.791   0.088   2.790 -0.0563  0.2357 -0.8130
 2171TIP3   OH2 6518   4.031   5.119   4.216  0.1505  0.1961  0.6579
 2171TIP3    H1 6519   4.084   5.096   4.292  1.7025 -1.1115 -0.7166
 2171TIP3    H2 6520   3.983   5.039   4.195  0.8559  0.0568 -0.5542
 2172TIP3   OH2 6521   6.005   1.412   4.448 -0.3323 -0.0874  0.7911
 2172TIP3    H1 6522   6.003   1.469   4.525  2.9271 -0.8716  1.6073
 2172TIP3    H2 6523   6.033   1.469   4.376  1.6499 -0.2801  1.3397
 2173TIP3   OH2 6524   2.572   5.882   0.626 -0.0980  0.2959 -0.0738
 2173TIP3    H1 6525   2.522   5.903   0.546  1.6541  1.0520 -1.0263
 2173TIP3    H2 6526   2.661   5.868   0.595  0.6386  0.6461  1.7747
 2174TIP3   OH2 6527   5.200   0.203   0.873  0.2226 -0.1003  0.4659
 2174TIP3    H1 6528   5.182   0.205   0.780  0.0381 -1.9999  0.4097
 2174TIP3    H2 6529   5.257   0.278   0.889  2.5029 -1.2172 -1.7052
 2175TIP3   OH2 6530   1.334   0.371   0.085 -0.1928 -0.1850  0.5346
 2175TIP3    H1 6531   1.265   0.424   0.044 -0.4785  0.5564  1.9101
 2175TIP3    H2 6532   1.407   0.432   0.097 -0.1471 -0.3618  1.1863
 2176TIP3   OH2 6533   4.424   4.439   4.797  0.2543 -0.0374  0.1205
 2176TIP3    H1 6534   4.401   4.532   4.808  1.4240  0.1537  1.1358
 2176TIP3    H2 6535   4.491   4.423   4.863 -0.8224 -1.9508  0.8184
 2177TIP3   OH2 6536   1.213   0.028   1.494  0.5047  0.3453  0.8039
 2177TIP3    H1 6537   1.240  -0.063   1.508  0.3136  0.2844  0.7827
 2177TIP3    H2 6538   1.132   0.037   1.545  0.4156  0.4464  0.6440
 2178TIP3   OH2 6539   4.410   1.515   4.904  0.3005  0.0457 -0.0812
 2178TIP3    H1 6540   4.323   1.537   4.939  0.1167  0.1963 -0.6306
 2178TIP3    H2 6541   4.469   1.526   4.979 -0.1710 -0.1724  0.3252
 2179TIP3   OH2 6542   3.920   4.432   1.575 -0.2328 -0.1738 -0.9534
 2179TIP3    H1 6543   3.991   4.475   1.526  0.2210  0.3699  0.1340
 2179TIP3    H2 6544   3.861   4.504   1.599 -0.6172 -0.4804 -0.9667
 2180TIP3   OH2 6545   3.309   1.132   4.492 -0.6368  0.0302 -0.2125
 2180TIP3    H1 6546   3.304   1.144   4.398  3.2742  0.5088 -0.5406
 2180TIP3    H2 6547   3.349   1.213   4.524 -2.0235 -0.0412  1.9276
 2181TIP3   OH2 6548   2.786   1.983   1.801  0.1406  0.1223 -0.0332
 2181TIP3    H1 6549   2.745   2.067   1.782  0.3058 -0.0425 -1.2181
 2181TIP3    H2 6550   2.852   2.003   1.868 -0.1245  0.8493  0.0201
 2182TIP3   OH2 6551   1.836   3.340   4.129  0.1999 -0.8717 -0.1985
 2182TIP3    H1 6552   1.890   3.261   4.129  0.3620 -0.7591 -0.2304
 2182TIP3    H2 6553   1.898   3.413   4.126  0.0367 -0.7482 -0.5613
 2183TIP3   OH2 6554   0.205   3.273   1.088 -0.6499 -0.0758  0.5957
 2183TIP3    H1 6555   0.223   3.251   1.179  1.1708  0.5829  0.4247
 2183TIP3    H2 6556   0.287   3.308   1.054 -1.2177 -0.5189 -1.3788
 2184TIP3   OH2 6557   0.542   2.119   1.842 -0.2476  0.7537  0.0301
 2184TIP3    H1 6558   0.511   2.040   1.886  0.7575  0.7186  0.7120
 2184TIP3    H2 6559   0.514   2.190   1.900 -1.0230  0.9018 -0.5086
 2185TIP3   OH2 6560   6.049   4.182   4.406 -0.4465 -0.1612  0.0040
 2185TIP3    H1 6561   6.056   4.095   4.368 -2.6439 -0.1560 -0.5570
 2185TIP3    H2 6562   6.137   4.202   4.437 -0.2479 -3.3426  1.9122
 2186TIP3   OH2 6563   1.645   0.810   0.250 -0.3230  0.1042 -0.1967
 2186TIP3    H1 6564   1.693   0.883   0.210 -0.9898  1.1205  0.7948
 2186TIP3    H2 6565   1.593   0.851   0.319 -0.9217 -1.2886  0.2060
 2187TIP3   OH2 6566   4.411   4.200   3.212  0.2212  0.3392  0.0309
 2187TIP3    H1 6567   4.481   4.264   3.221  0.8495 -0.3801  0.4227
 2187TIP3    H2 6568   4.368   4.222   3.129  0.9915  0.7102 -0.2764
 2188TIP3   OH2 6569   6.269   3.869   1.568  1.3853  0.2294  0.1594
 2188TIP3    H1 6570   6.331   3.930   1.609  1.5278  0.6449 -0.6531
 2188TIP3    H2 6571   6.324   3.797   1.537  1.2400 -0.2307  0.9485
 2189TIP3   OH2 6572   2.460   5.825   3.967 -0.1603  0.3390 -0.6984
 2189TIP3    H1 6573   2.447   5.736   3.934  0.4086 -0.0892  0.1585
 2189TIP3    H2 6574   2.385   5.841   4.024 -0.0743  0.2496 -0.5572
 2190TIP3   OH2 6575   4.583   1.192   2.838 -0.0038  0.5384 -0.6804
 2190TIP3    H1 6576   4.549   1.277   2.807  1.1451  1.8554  1.4274
 2190TIP3    H2 6577   4.612   1.209   2.928 -1.0461 -2.4857  0.3471
 2191TIP3   OH2 6578   5.609   4.695   4.441  0.0569  0.4421 -1.0148
 2191TIP3    H1 6579   5.585   4.786   4.422 -0.1672  0.3122 -1.3627
 2191TIP3    H2 6580   5.694   4.683   4.397  0.6760  0.8324  0.0240
 2192TIP3   OH2 6581   4.093   1.673   4.472  0.6180  0.1294  0.7513
 2192TIP3    H1 6582   4.023   1.734   4.452  0.6116 -0.4827 -1.3442
 2192TIP3    H2 6583   4.153   1.722   4.528  0.1110  1.7048 -0.0542
 2193TIP3   OH2 6584   5.108   2.673   1.669 -0.1827 -0.0730  0.0249
 2193TIP3    H1 6585   5.093   2.615   1.743 -1.7079  0.8188  0.4579
 2193TIP3    H2 6586   5.069   2.756   1.695 -1.1710  0.1410 -1.9216
 2194TIP3   OH2 6587   2.532   3.033   3.250 -0.3464  0.8210 -0.0337
 2194TIP3    H1 6588   2.541   2.986   3.332 -0.2489  1.7647  0.5076
 2194TIP3    H2 6589   2.561   2.971   3.183 -1.3150 -0.2811  0.5450
 2195TIP3   OH2 6590   5.167   1.663   5.001 -0.1944  0.6871 -0.6862
 2195TIP3    H1 6591   5.119   1.736   4.964  0.4606  2.4859  1.7959
 2195TIP3    H2 6592   5.100   1.603   5.033 -0.7620  1.4353 -0.4666
 2196TIP3   OH2 6593   1.865   3.034   4.929  0.5100 -0.4832 -0.2339
 2196TIP3    H1 6594   1.930   2.964   4.939  0.4377 -0.4583  0.5093
 2196TIP3    H2 6595   1.916   3.113   4.914  0.5990 -0.6609 -0.8977
 2197TIP3   OH2 6596   3.833   3.174   2.366 -0.4770  0.2554  0.3924
 2197TIP3    H1 6597   3.919   3.156   2.330 -0.2282  0.5151  0.8491
 2197TIP3    H2 6598   3.809   3.259   2.330 -0.5749  0.1488  0.2063
 2198TIP3   OH2 6599   0.263   0.286   1.770  0.0283 -0.1299 -0.3070
 2198TIP3    H1 6600   0.189   0.347   1.765  1.1249  1.2597 -0.2535
 2198TIP3    H2 6601   0.223   0.199   1.769 -1.5649  0.5739 -0.9046
 2199TIP3   OH2 6602   0.747   5.995   1.981 -0.0892 -0.0379 -0.3319
 2199TIP3    H1 6603   0.702   5.916   2.008 -1.3024  0.7554  0.0262
 2199TIP3    H2 6604   0.840   5.974   1.992 -0.4277 -0.3527  2.8885
 2200TIP3   OH2 6605   5.591   5.730   1.374  0.6656  0.3203 -0.1947
 2200TIP3    H1 6606   5.499   5.707   1.382  0.6874  0.2040 -0.2715
 2200TIP3    H2 6607   5.596   5.790   1.300  0.4626  1.4104  0.6562
 2201TIP3   OH2 6608   3.993   4.504   4.594 -0.4805  0.7061 -0.3548
 2201TIP3    H1 6609   3.999   4.455   4.675  0.6280 -0.5419 -1.1393
 2201TIP3    H2 6610   3.917   4.560   4.605  0.1608  1.2443  1.8828
 2202TIP3   OH2 6611   3.071   3.403   4.116  0.5346 -0.4830  0.3787
 2202TIP3    H1 6612   3.075   3.309   4.097 -2.8431 -0.8634  0.9567
 2202TIP3    H2 6613   3.091   3.445   4.032  0.6953 -1.7546 -0.2458
 2203TIP3   OH2 6614   1.746   3.518   3.465 -0.2217 -0.3056 -0.0866
 2203TIP3    H1 6615   1.771   3.574   3.539 -3.7541 -0.2408  1.2909
 2203TIP3    H2 6616   1.792   3.556   3.390  0.3092  2.2652  1.3909
 2204TIP3   OH2 6617   3.039   2.269   2.800  0.3834  0.0067 -0.0084
 2204TIP3    H1 6618   3.102   2.204   2.767  1.3535  0.6851  0.4467
 2204TIP3    H2 6619   3.071   2.353   2.766  0.1966  0.4597  0.9016
 2205TIP3   OH2 6620   1.233   5.159   3.500 -0.2587  0.0944 -0.3525
 2205TIP3    H1 6621   1.317   5.165   3.454 -0.4564  0.8848 -0.6282
 2205TIP3    H2 6622   1.190   5.083   3.462 -0.0407  0.2163 -0.8529
 2206TIP3   OH2 6623   1.443   3.903   2.279  0.2272 -0.0854 -0.4617
 2206TIP3    H1 6624   1.382   3.971   2.307 -0.3132 -1.1234  0.9667
 2206TIP3    H2 6625   1.528   3.947   2.276  0.1448  0.3219  1.9503
 2207TIP3   OH2 6626   6.325   1.779   0.906 -0.3905 -0.1079 -0.1460
 2207TIP3    H1 6627   6.371   1.695   0.904 -2.5550 -1.3612 -0.2925
 2207TIP3    H2 6628   6.238   1.758   0.941 -1.1026  2.0219 -0.4917
 2208TIP3   OH2 6629   3.954   2.084   3.084  0.1703  0.5284 -0.2393
 2208TIP3    H1 6630   4.026   2.146   3.089  1.2672 -0.8008  2.0837
 2208TIP3    H2 6631   3.912   2.103   3.000  2.2400  2.3889 -0.9568
 2209TIP3   OH2 6632   1.586   3.581   0.425 -0.1418 -0.4987 -0.1938
 2209TIP3    H1 6633   1.522   3.615   0.487  0.8671  1.9612 -0.3633
 2209TIP3    H2 6634   1.541   3.510   0.380 -2.9695  1.4007 -0.6438
 2210TIP3   OH2 6635   3.437   0.590   2.100 -0.1600 -0.5150 -0.6566
 2210TIP3    H1 6636   3.511   0.650   2.089 -0.6179  0.2901  0.4834
 2210TIP3    H2 6637   3.477   0.505   2.118  0.4921 -0.1115 -0.1635
 2211TIP3   OH2 6638   5.124   1.901   4.821 -0.2357 -0.2010  0.0724
 2211TIP3    H1 6639   5.122   1.886   4.727 -0.1844 -1.3106  0.2352
 2211TIP3    H2 6640   5.040   1.943   4.840  0.5252  1.8239 -0.7160
 2212TIP3   OH2 6641   3.186   0.009   0.247 -0.0034  0.8966 -0.5549
 2212TIP3    H1 6642   3.187   0.104   0.250  1.1738  0.8958 -0.0662
 2212TIP3    H2 6643   3.247  -0.014   0.176 -0.0771  0.5065 -0.4976
 2213TIP3   OH2 6644   0.695   5.922   4.763  0.2808  0.5541  0.3344
 2213TIP3    H1 6645   0.750   5.946   4.688  3.1767  2.9947  2.9634
 2213TIP3    H2 6646   0.751   5.935   4.839 -2.8848 -0.4520  3.0770
 2214TIP3   OH2 6647   0.485   4.020   1.160  0.6126  0.4343  0.3430
 2214TIP3    H1 6648   0.500   4.087   1.094 -0.3353  0.4821  0.1593
 2214TIP3    H2 6649   0.393   4.032   1.186  0.5446 -0.5320  0.5865
 2215TIP3   OH2 6650   3.953   0.495   4.275 -0.1707 -0.0703  0.3780
 2215TIP3    H1 6651   3.904   0.571   4.306 -0.9861 -1.4765  2.7561
 2215TIP3    H2 6652   4.032   0.493   4.329  0.9795  0.2929 -1.2000
 2216TIP3   OH2 6653   1.235   4.512   3.507  0.1959 -0.1885 -0.2846
 2216TIP3    H1 6654   1.310   4.478   3.557 -0.1705  0.2372  0.5877
 2216TIP3    H2 6655   1.214   4.442   3.445  1.4531 -0.2154 -0.6989
 2217TIP3   OH2 6656   1.574   5.552   3.450  0.0307 -0.6784  0.6650
 2217TIP3    H1 6657   1.644   5.585   3.393 -1.0082  0.4235 -0.0369
 2217TIP3    H2 6658   1.522   5.630   3.471 -1.2664 -1.5264  0.7451
 2218TIP3   OH2 6659   3.562   5.696   2.343 -0.4927  0.4285 -0.3663
 2218TIP3    H1 6660   3.592   5.786   2.337 -0.1577  0.3374 -0.0635
 2218TIP3    H2 6661   3.551   5.680   2.436 -0.1628  0.0296 -0.3938
 2219TIP3   OH2 6662   2.507   2.812   1.102 -0.3418 -0.2205 -0.1040
 2219TIP3    H1 6663   2.531   2.899   1.072  1.9861 -1.3237 -1.7429
 2219TIP3    H2 6664   2.552   2.803   1.186  0.3569 -0.2231 -0.4698
 2220TIP3   OH2 6665   5.708   4.257   3.375  0.6487 -0.4593  0.4220
 2220TIP3    H1 6666   5.727   4.228   3.286 -0.1402  0.6136 -0.1143
 2220TIP3    H2 6667   5.718   4.178   3.428  1.3824 -1.0569 -0.5716
 2221TIP3   OH2 6668   0.033   3.457   2.105 -0.0742 -0.0346 -0.1115
 2221TIP3    H1 6669  -0.040   3.400   2.129  0.0188  0.2483  0.9076
 2221TIP3    H2 6670   0.087   3.460   2.184  0.6995  0.2850 -0.6402
 2222TIP3   OH2 6671   2.512   2.798   0.449  0.3636  0.4001 -0.3604
 2222TIP3    H1 6672   2.430   2.776   0.493 -0.1406  0.3256 -1.3122
 2222TIP3    H2 6673   2.550   2.713   0.426  0.2854  0.4508 -0.6778
 2223TIP3   OH2 6674   0.832   0.730   4.616 -0.0280  0.4567  0.5399
 2223TIP3    H1 6675   0.859   0.737   4.707 -1.0647 -0.1231  0.9093
 2223TIP3    H2 6676   0.738   0.748   4.617 -0.4230 -1.3996 -0.1396
 2224TIP3   OH2 6677   2.948   5.803   2.476 -0.2331 -0.3086  0.0427
 2224TIP3    H1 6678   2.920   5.876   2.531 -2.0993 -0.8513 -0.1232
 2224TIP3    H2 6679   2.867   5.766   2.442  0.7259 -1.8693 -0.6503
 2225TIP3   OH2 6680   4.250   0.568   2.803 -0.3492  0.0160 -0.3855
 2225TIP3    H1 6681   4.213   0.484   2.830  0.8461 -0.6570 -0.7727
 2225TIP3    H2 6682   4.320   0.545   2.742  0.2352  1.2755 -0.2233
 2226TIP3   OH2 6683   3.368   3.208   1.350 -1.0781 -0.4765  0.1025
 2226TIP3    H1 6684   3.366   3.302   1.366 -0.5809 -0.7109  1.6663
 2226TIP3    H2 6685   3.326   3.197   1.264 -0.0745  1.2651 -0.6584
 2227TIP3   OH2 6686   3.799   1.587   3.064  1.1716 -0.1621 -0.3205
 2227TIP3    H1 6687   3.757   1.656   3.013  0.6845 -0.6514 -0.5843
 2227TIP3    H2 6688   3.771   1.604   3.154 -0.7672 -1.2968 -0.6559
 2228TIP3   OH2 6689   2.155   5.228   0.858  0.2406  0.1546 -0.5092
 2228TIP3    H1 6690   2.118   5.258   0.775 -1.0681 -0.5626 -0.2152
 2228TIP3    H2 6691   2.247   5.211   0.838  0.0059  0.2105 -1.7562
 2229TIP3   OH2 6692   4.855   0.652   2.679  0.6526 -0.1478 -0.1254
 2229TIP3    H1 6693   4.848   0.590   2.607  0.2495 -0.3802  0.1132
 2229TIP3    H2 6694   4.927   0.710   2.653  0.6978 -0.4009 -0.5819
 2230TIP3   OH2 6695   6.223   2.430   2.013 -0.2402  0.0224  0.1967
 2230TIP3    H1 6696   6.280   2.382   2.073  1.5433  0.9162 -0.7087
 2230TIP3    H2 6697   6.183   2.498   2.068  1.4957  0.9277  0.4152
 2231TIP3   OH2 6698   3.097   1.452   3.757 -0.3416  0.1159 -0.2777
 2231TIP3    H1 6699   3.111   1.532   3.806  0.4009  1.2418 -2.2052
 2231TIP3    H2 6700   3.025   1.408   3.803  0.2123  1.1375  1.6696
 2232TIP3   OH2 6701   5.252   2.534   4.882 -0.1572 -0.1457  0.0693
 2232TIP3    H1 6702   5.302   2.452   4.877 -0.0541 -0.1104  0.5173
 2232TIP3    H2 6703   5.177   2.512   4.938 -1.3313 -0.5524 -1.5756
 2233TIP3   OH2 6704   1.339   3.209   2.871 -0.0545  0.0675 -0.2534
 2233TIP3    H1 6705   1.249   3.186   2.891 -0.7696  1.4451 -1.6728
 2233TIP3    H2 6706   1.392   3.144   2.919 -1.6253  1.0997  3.1856
 2234TIP3   OH2 6707   0.377   0.116   5.010  0.0111 -0.3294  0.2959
 2234TIP3    H1 6708   0.411   0.205   5.007 -0.7753 -0.0331 -0.1003
 2234TIP3    H2 6709   0.405   0.082   5.095  0.2775  0.3089  0.4658
 2235TIP3   OH2 6710   1.927   3.975   4.866  1.1908  0.4274  0.0920
 2235TIP3    H1 6711   1.885   4.030   4.932  1.3356  2.3717 -1.3223
 2235TIP3    H2 6712   1.972   3.907   4.916 -0.9678  0.1289  1.8169
 2236TIP3   OH2 6713   6.116   2.643   2.151  0.1129 -0.2224 -0.4125
 2236TIP3    H1 6714   6.027   2.614   2.168 -0.5993  0.8214 -2.0984
 2236TIP3    H2 6715   6.128   2.721   2.206 -0.4828  0.3795 -1.1233
 2237TIP3   OH2 6716   3.149   0.081   3.776 -0.0077  0.0370 -0.1514
 2237TIP3    H1 6717   3.145   0.025   3.854 -1.3830  1.4215  0.8665
 2237TIP3    H2 6718   3.085   0.043   3.716  1.0614 -1.0429 -0.6183
 2238TIP3   OH2 6719   1.984   4.438   0.946  0.1796 -0.0228  0.5132
 2238TIP3    H1 6720   1.941   4.362   0.908  0.9548 -1.3028  2.0649
 2238TIP3    H2 6721   2.056   4.402   0.998  1.1710  1.8411  0.5321
 2239TIP3   OH2 6722   2.700   4.739   2.542 -0.0310  0.2033  0.1898
 2239TIP3    H1 6723   2.678   4.646   2.547  1.5697 -0.1251  2.7991
 2239TIP3    H2 6724   2.786   4.741   2.499 -0.0411  0.4877  0.1846
 2240TIP3   OH2 6725   4.214   1.443   0.289  0.1320  0.2768 -0.4711
 2240TIP3    H1 6726   4.162   1.450   0.369 -1.3966  1.2971 -1.4863
 2240TIP3    H2 6727   4.207   1.351   0.263 -0.6556  0.2718 -0.2560
 2241TIP3   OH2 6728   5.572   1.244   5.082 -0.1447 -0.2306  0.0679
 2241TIP3    H1 6729   5.579   1.222   4.989  1.9476  0.0209  0.1294
 2241TIP3    H2 6730   5.490   1.293   5.088 -0.7764 -1.0237 -1.4706
 2242TIP3   OH2 6731   5.656   1.215   3.817  0.1460 -0.0416  0.3464
 2242TIP3    H1 6732   5.732   1.266   3.846  0.6750 -0.2420 -0.6391
 2242TIP3    H2 6733   5.606   1.276   3.762  1.1645 -0.7416 -1.4449
 2243TIP3   OH2 6734   5.553   1.867   2.889  0.7672  0.1639  0.2781
 2243TIP3    H1 6735   5.570   1.915   2.808 -1.5652 -0.0530 -0.4321
 2243TIP3    H2 6736   5.508   1.932   2.945 -0.1733 -0.4584  0.2686
 2244TIP3   OH2 6737   5.468   5.886   4.622  0.3480 -0.1753 -0.6095
 2244TIP3    H1 6738   5.546   5.941   4.616  1.1051 -1.1398  0.0064
 2244TIP3    H2 6739   5.437   5.878   4.532  0.5882  0.7304 -0.7831
 2245TIP3   OH2 6740   0.574   4.239   1.017  0.4111 -0.4064  0.3300
 2245TIP3    H1 6741   0.548   4.191   0.939  0.4080  0.3471 -0.1327
 2245TIP3    H2 6742   0.668   4.220   1.027  0.5110 -0.1507 -0.1100
 2246TIP3   OH2 6743   4.801   0.812   0.083 -0.1075 -0.6907 -0.4500
 2246TIP3    H1 6744   4.844   0.854   0.007  0.7849  0.0820  0.4512
 2246TIP3    H2 6745   4.726   0.766   0.045  0.5109 -0.6145 -1.8547
 2247TIP3   OH2 6746   4.332   1.778   4.226  0.2459 -0.8267  0.1929
 2247TIP3    H1 6747   4.255   1.726   4.201  0.2435 -0.9011  0.3545
 2247TIP3    H2 6748   4.372   1.729   4.298  0.5041 -0.8418  0.0382
 2248TIP3   OH2 6749   0.616   1.201   2.958  0.1450  0.0178  0.7240
 2248TIP3    H1 6750   0.702   1.161   2.959 -0.5932 -1.6461  1.4326
 2248TIP3    H2 6751   0.582   1.187   3.046 -0.8792  0.5554  0.4323
 2249TIP3   OH2 6752   2.742   4.805   4.807  0.0554 -0.2951  0.3347
 2249TIP3    H1 6753   2.690   4.844   4.737 -1.1022 -2.0772  0.1409
 2249TIP3    H2 6754   2.803   4.747   4.762  0.3439 -0.2991  0.7261
 2250TIP3   OH2 6755   4.005   0.697   2.512  0.2592  0.2165  0.6644
 2250TIP3    H1 6756   3.934   0.758   2.528 -0.1191 -0.0157 -0.0796
 2250TIP3    H2 6757   3.963   0.622   2.470  0.6755 -0.6582  1.7601
 2251TIP3   OH2 6758   2.031   3.932   1.313  0.1209  0.6222 -0.3297
 2251TIP3    H1 6759   2.118   3.902   1.288  0.8114  1.8627  0.4824
 2251TIP3    H2 6760   2.033   3.934   1.409 -1.2846 -0.6554 -0.2340
 2252TIP3   OH2 6761   5.701   0.606   1.319  0.2969 -0.2178 -0.2591
 2252TIP3    H1 6762   5.649   0.679   1.351  1.1009  0.6361 -0.8237
 2252TIP3    H2 6763   5.782   0.647   1.288  0.6697 -1.3250 -0.7955
 2253TIP3   OH2 6764   3.296   2.532   2.364 -0.1101  0.1780 -1.0947
 2253TIP3    H1 6765   3.337   2.613   2.394  1.4989 -1.4379  1.5310
 2253TIP3    H2 6766   3.369   2.479   2.331 -0.7133 -1.0873 -0.4630
 2254TIP3   OH2 6767   3.278   5.399   1.818 -0.3518 -0.5242 -0.1369
 2254TIP3    H1 6768   3.295   5.433   1.906  0.9435  0.5863 -0.7905
 2254TIP3    H2 6769   3.318   5.312   1.818  0.9052  0.0336 -0.0499
 2255TIP3   OH2 6770   2.057   5.509   0.272 -0.1539  0.2291  0.3490
 2255TIP3    H1 6771   2.079   5.574   0.206  0.5565  0.2024  0.5563
 2255TIP3    H2 6772   1.988   5.456   0.231  1.6197 -1.0432 -1.1931
 2256TIP3   OH2 6773   1.887   2.333   2.467  0.1204 -0.0981 -0.3727
 2256TIP3    H1 6774   1.811   2.392   2.465  0.5401  0.4559 -0.2120
 2256TIP3    H2 6775   1.915   2.334   2.559 -1.6809 -2.9191  0.3392
 2257TIP3   OH2 6776   1.367   0.368   2.256 -0.3293  0.2976  0.1341
 2257TIP3    H1 6777   1.416   0.290   2.279 -0.8591  0.3627  1.6024
 2257TIP3    H2 6778   1.406   0.398   2.174  0.1870 -1.2265 -0.2116
 2258TIP3   OH2 6779   0.284   2.177   2.822  0.4220  0.0859  0.2827
 2258TIP3    H1 6780   0.315   2.091   2.794  1.6304 -0.0697  1.9386
 2258TIP3    H2 6781   0.206   2.158   2.875 -0.3316  0.1785 -0.7589
 2259TIP3   OH2 6782   2.929   2.666   0.701 -0.1237  0.1712 -0.1045
 2259TIP3    H1 6783   2.881   2.735   0.746  0.2344  0.2148  0.2126
 2259TIP3    H2 6784   3.009   2.708   0.670 -0.8089  0.3987 -1.6705
 2260TIP3   OH2 6785   1.182   0.481   3.946  0.7154 -0.4347  0.0942
 2260TIP3    H1 6786   1.244   0.409   3.958  2.4440  1.1312  1.0996
 2260TIP3    H2 6787   1.218   0.531   3.873  0.4815  0.3515  0.5125
 2261TIP3   OH2 6788   2.574   3.029   5.203  0.3996 -0.1156  0.7892
 2261TIP3    H1 6789   2.538   3.082   5.132  2.1651  1.3642  0.9199
 2261TIP3    H2 6790   2.656   2.995   5.167  2.7229  2.8111  2.8149
 2262TIP3   OH2 6791   1.597   2.060   0.308  0.0402  0.2279 -0.5225
 2262TIP3    H1 6792   1.559   2.024   0.229  0.2787 -0.7740 -0.1957
 2262TIP3    H2 6793   1.596   1.988   0.371 -1.4034  1.3591  0.8532
 2263TIP3   OH2 6794   3.032   1.354   1.963  0.0604  0.2542  1.5368
 2263TIP3    H1 6795   3.038   1.275   1.910  1.1167  1.5850 -0.4475
 2263TIP3    H2 6796   3.046   1.323   2.053 -1.5049 -2.0416  1.0781
 2264TIP3   OH2 6797   2.800   2.872   0.838  0.2609 -1.0908  0.7911
 2264TIP3    H1 6798   2.886   2.887   0.876  0.6461  0.7166 -0.6638
 2264TIP3    H2 6799   2.741   2.928   0.890 -0.1297 -2.5006  1.9361
 2265TIP3   OH2 6800   5.571   4.412   3.018 -0.0652  0.0001 -0.4332
 2265TIP3    H1 6801   5.550   4.470   2.944 -0.8740  1.1456  0.6413
 2265TIP3    H2 6802   5.666   4.400   3.013 -0.0096  0.6854 -1.2158
 2266TIP3   OH2 6803   6.289   0.245   0.502  0.0373  0.2938 -0.2189
 2266TIP3    H1 6804   6.364   0.246   0.561  0.1623  1.7336 -0.3840
 2266TIP3    H2 6805   6.215   0.272   0.556 -0.3691 -0.9999 -0.0867
 2267TIP3   OH2 6806   3.803   2.784   3.915  0.6797  0.3984 -0.9152
 2267TIP3    H1 6807   3.737   2.825   3.859  1.2245  0.2258 -1.6854
 2267TIP3    H2 6808   3.788   2.823   4.001  1.0093  2.0154 -1.5585
 2268TIP3   OH2 6809   1.878   0.014   4.919 -0.2629  0.6454  0.0089
 2268TIP3    H1 6810   1.887   0.087   4.980 -1.3231 -0.6561  1.7852
 2268TIP3    H2 6811   1.960   0.015   4.869 -0.0130  2.6714  0.3650
 2269TIP3   OH2 6812   4.280   2.710   4.470 -0.6152  0.4651  0.2862
 2269TIP3    H1 6813   4.245   2.627   4.436  2.9279 -1.2491  0.4261
 2269TIP3    H2 6814   4.301   2.761   4.391 -1.7800  0.8287  0.1872
 2270TIP3   OH2 6815   2.075   4.522   2.604  0.0361 -0.1353  0.1329
 2270TIP3    H1 6816   1.995   4.573   2.593 -1.6298 -1.9392  2.7646
 2270TIP3    H2 6817   2.140   4.568   2.552 -2.4381  2.0101 -1.2858
 2271TIP3   OH2 6818   5.163   5.796   2.330 -0.1218 -0.6832 -0.1040
 2271TIP3    H1 6819   5.249   5.765   2.359  0.6799  0.4328 -1.1806
 2271TIP3    H2 6820   5.122   5.831   2.409  1.3520  0.8376  0.0368
 2272TIP3   OH2 6821   5.316   1.622   4.189  0.4230 -0.5244 -0.0391
 2272TIP3    H1 6822   5.249   1.663   4.134 -0.6020 -1.9021  0.1355
 2272TIP3    H2 6823   5.268   1.587   4.263  1.1785 -2.3501 -0.3664
 2273TIP3   OH2 6824   2.581   4.402   4.451 -0.1796 -0.1604 -0.0881
 2273TIP3    H1 6825   2.614   4.414   4.540 -0.3944 -1.2650  0.1546
 2273TIP3    H2 6826   2.650   4.355   4.405  0.9848  2.4923 -1.2501
 2274TIP3   OH2 6827   4.125   2.740   0.827  0.2559  0.1501  0.3038
 2274TIP3    H1 6828   4.056   2.801   0.854  0.9152  0.9558  0.1698
 2274TIP3    H2 6829   4.206   2.789   0.837  0.7479 -0.5176 -0.3458
 2275TIP3   OH2 6830   1.697   2.519   2.461 -0.1396  0.0582 -0.3436
 2275TIP3    H1 6831   1.621   2.522   2.404  0.4622 -3.2819 -1.5254
 2275TIP3    H2 6832   1.661   2.511   2.549 -1.1691 -0.7236 -0.8212
 2276TIP3   OH2 6833   1.262   3.652   1.668 -0.0536  0.0524 -0.0018
 2276TIP3    H1 6834   1.179   3.698   1.661 -0.6352 -0.5410  2.0866
 2276TIP3    H2 6835   1.280   3.620   1.580  0.6239  4.4798 -1.7398
 2277TIP3   OH2 6836   4.147   4.559   1.452  0.3153 -0.1091  0.1794
 2277TIP3    H1 6837   4.085   4.628   1.428 -0.4403 -0.6128  0.6521
 2277TIP3    H2 6838   4.229   4.604   1.466  0.0327  0.5867 -0.3635
 2278TIP3   OH2 6839   4.971   1.820   0.144 -0.2685 -0.4241  0.1266
 2278TIP3    H1 6840   4.969   1.724   0.144 -0.2392 -0.4313 -0.6322
 2278TIP3    H2 6841   4.992   1.843   0.234 -0.5210 -1.1268  0.3726
 2279TIP3   OH2 6842   3.196   1.075   3.987 -0.1091 -1.0507 -0.0228
 2279TIP3    H1 6843   3.237   1.134   3.924  2.1851 -1.0027  1.4089
 2279TIP3    H2 6844   3.113   1.050   3.946 -0.3025  1.6322 -1.5109
 2280TIP3   OH2 6845   3.625   0.290   3.684  0.0104  0.0121 -0.6277
 2280TIP3    H1 6846   3.671   0.236   3.749  0.9977 -0.2539 -1.5194
 2280TIP3    H2 6847   3.540   0.309   3.724 -0.2123 -1.8548 -0.1006
 2281TIP3   OH2 6848   0.216   0.505   0.655 -0.2565  0.1909 -0.3530
 2281TIP3    H1 6849   0.170   0.549   0.726  2.1302 -1.0503  2.1212
 2281TIP3    H2 6850   0.190   0.413   0.663 -1.1530  0.2407 -2.1479
 2282TIP3   OH2 6851   4.762   5.663   0.659 -0.4805  0.7190  0.2443
 2282TIP3    H1 6852   4.814   5.727   0.706  0.6136  0.0392  0.0104
 2282TIP3    H2 6853   4.824   5.622   0.599 -0.8404 -1.3640  1.2010
 2283TIP3   OH2 6854   0.253   3.247   3.153 -0.1047  0.6348  0.3356
 2283TIP3    H1 6855   0.202   3.187   3.208 -1.0552  1.5194  0.4579
 2283TIP3    H2 6856   0.200   3.259   3.074 -0.7650  2.5743  1.0114
 2284TIP3   OH2 6857   6.116   2.188   3.651 -0.0620  0.0245  0.6470
 2284TIP3    H1 6858   6.172   2.265   3.663  1.1710 -0.6576 -0.4554
 2284TIP3    H2 6859   6.030   2.225   3.629  0.7575  1.1388 -0.9294
 2285TIP3   OH2 6860   4.685   5.673   2.339  0.1067  0.0635 -0.0591
 2285TIP3    H1 6861   4.597   5.706   2.353 -0.3505 -2.1730  3.8543
 2285TIP3    H2 6862   4.673   5.579   2.323  1.7195  0.1195 -2.0150
 2286TIP3   OH2 6863   2.166   4.427   1.156  0.5169  0.1315 -0.0330
 2286TIP3    H1 6864   2.203   4.491   1.217  0.7916 -0.7274  0.7348
 2286TIP3    H2 6865   2.099   4.382   1.207  1.4542 -1.2980 -0.0184
 2287TIP3   OH2 6866   1.182   2.636   2.851 -0.2656  0.0996 -0.3883
 2287TIP3    H1 6867   1.227   2.695   2.791 -0.1047 -0.7411 -1.1189
 2287TIP3    H2 6868   1.242   2.624   2.924 -0.4531  1.1131 -0.0519
 2288TIP3   OH2 6869   0.265   0.499   3.626 -0.2544  0.4811  0.4727
 2288TIP3    H1 6870   0.264   0.557   3.702 -1.6837  0.6273  0.3754
 2288TIP3    H2 6871   0.189   0.442   3.639 -0.2377  0.1964 -0.6042
 2289TIP3   OH2 6872   0.278   2.661   2.962 -0.0131 -0.0896  0.6038
 2289TIP3    H1 6873   0.210   2.671   2.895  0.5919  1.7751  0.2057
 2289TIP3    H2 6874   0.257   2.579   3.006 -2.3126  0.2487  0.2575
 2290TIP3   OH2 6875   4.715   5.373   2.337 -0.4474  0.4055  0.0188
 2290TIP3    H1 6876   4.717   5.284   2.371  1.8685  0.5636  0.4987
 2290TIP3    H2 6877   4.711   5.363   2.242 -1.2614 -0.1724  0.1091
 2291TIP3   OH2 6878   4.284   1.087   3.681  0.7216 -0.0245 -0.2840
 2291TIP3    H1 6879   4.350   1.112   3.617 -0.3268 -0.2804 -1.5009
 2291TIP3    H2 6880   4.321   1.011   3.726  2.4567  1.5279  1.0635
 2292TIP3   OH2 6881   3.840   2.368   1.225 -0.4627 -0.8789  0.1016
 2292TIP3    H1 6882   3.866   2.437   1.286  0.4605 -1.4156  0.3168
 2292TIP3    H2 6883   3.922   2.329   1.195 -0.8225 -0.0911 -2.1322
 2293TIP3   OH2 6884   2.747   0.851   3.511  0.5174 -0.5076 -0.5672
 2293TIP3    H1 6885   2.797   0.878   3.589  1.6078 -3.7115  0.0050
 2293TIP3    H2 6886   2.777   0.762   3.494  0.8732  0.2896 -5.1775
 2294TIP3   OH2 6887   3.453   2.775   2.485 -0.6379  0.3029  0.5552
 2294TIP3    H1 6888   3.487   2.864   2.492  0.2206 -0.0391  0.8691
 2294TIP3    H2 6889   3.522   2.727   2.440 -1.1609 -0.1761  0.2483
 2295TIP3   OH2 6890   6.212   4.327   2.840  0.1571 -1.2595 -0.5578
 2295TIP3    H1 6891   6.216   4.365   2.928 -2.2806  0.0892 -0.9352
 2295TIP3    H2 6892   6.176   4.239   2.854  1.2044 -1.6402 -0.1201
 2296TIP3   OH2 6893   1.728   3.297   0.228 -0.0545 -0.2632  0.4073
 2296TIP3    H1 6894   1.654   3.341   0.270  0.8422  0.8053  0.9232
 2296TIP3    H2 6895   1.737   3.214   0.276 -0.9799 -0.4525  0.2608
 2297TIP3   OH2 6896   3.118   5.265   0.277 -0.0489 -0.4403  0.6372
 2297TIP3    H1 6897   3.054   5.332   0.299 -1.6120 -1.5478 -0.3278
 2297TIP3    H2 6898   3.193   5.313   0.241 -0.6797  0.8321  0.9935
 2298TIP3   OH2 6899   5.925   1.322   0.865 -0.1010 -0.0024 -0.8134
 2298TIP3    H1 6900   5.905   1.248   0.807  0.4111 -1.4058  0.7139
 2298TIP3    H2 6901   6.017   1.309   0.890 -0.9253 -0.9129  2.2178
 2299TIP3   OH2 6902   4.102   5.534   3.323  0.9943  0.1575  0.1120
 2299TIP3    H1 6903   4.053   5.510   3.244  0.7926  3.7273 -0.9878
 2299TIP3    H2 6904   4.040   5.522   3.395 -1.0392  2.8254 -1.0530
 2300TIP3   OH2 6905   1.344   4.122   1.774 -0.0252  0.0136  0.2097
 2300TIP3    H1 6906   1.298   4.143   1.693 -0.2368 -1.0437  0.0446
 2300TIP3    H2 6907   1.379   4.034   1.760  1.5531  0.5429  0.5613
 2301TIP3   OH2 6908   1.244   4.354   0.762 -0.2322 -0.0768  0.1828
 2301TIP3    H1 6909   1.284   4.431   0.802 -1.2708  0.3291  0.4756
 2301TIP3    H2 6910   1.315   4.314   0.712  0.0781  1.6921 -0.9074
 2302TIP3   OH2 6911   4.532   0.810   0.927  0.2135 -0.5613 -0.1965
 2302TIP3    H1 6912   4.569   0.871   0.991 -0.0379 -1.5751  0.9719
 2302TIP3    H2 6913   4.454   0.855   0.894 -1.3749 -1.1099  2.4402
 2303TIP3   OH2 6914   4.141   0.130   4.230  0.0531 -0.0602 -0.1702
 2303TIP3    H1 6915   4.058   0.174   4.213 -0.0555 -0.4496 -0.6692
 2303TIP3    H2 6916   4.125   0.077   4.309  0.4740  1.5248  1.0430
 2304TIP3   OH2 6917   3.528   5.114   1.451  0.6389 -0.1341 -0.4142
 2304TIP3    H1 6918   3.476   5.177   1.500  0.7656 -0.3184 -0.0357
 2304TIP3    H2 6919   3.556   5.161   1.373 -1.3475 -0.4739 -1.4057
 2305TIP3   OH2 6920   1.490   4.505   0.089 -0.3316  0.4098  0.3470
 2305TIP3    H1 6921   1.550   4.579   0.099 -0.3018  0.3691  0.4694
 2305TIP3    H2 6922   1.403   4.542   0.099 -0.4043  0.7001 -1.0592
 2306TIP3   OH2 6923   1.563   4.883   4.311 -0.5289  0.1344 -0.5365
 2306TIP3    H1 6924   1.657   4.899   4.320 -0.5752 -0.1846  0.7453
 2306TIP3    H2 6925   1.547   4.887   4.217  0.7456  0.2990 -0.7686
 2307TIP3   OH2 6926   0.939   2.020   2.886  0.4864  0.1273 -0.0439
 2307TIP3    H1 6927   0.908   1.997   2.798 -0.3073  0.5140  0.1181
 2307TIP3    H2 6928   0.963   1.937   2.926  0.9615 -0.0401 -0.6656
 2308TIP3   OH2 6929   3.033   3.119   2.347 -0.3661  0.4314 -0.1170
 2308TIP3    H1 6930   3.061   3.037   2.386  0.6242  0.6457 -0.3332
 2308TIP3    H2 6931   2.972   3.157   2.410 -0.7737 -0.4270  0.0171
 2309TIP3   OH2 6932  -0.028   4.483   2.461 -0.8118  0.2529 -0.0822
 2309TIP3    H1 6933   0.065   4.464   2.455 -0.8056 -0.3684  1.4770
 2309TIP3    H2 6934  -0.034   4.578   2.451 -0.0674  0.2540 -0.5761
 2310TIP3   OH2 6935   4.786   2.627   2.985  0.2860 -0.4549  0.5313
 2310TIP3    H1 6936   4.813   2.602   2.897  0.2515  0.1124  0.3547
 2310TIP3    H2 6937   4.746   2.548   3.021  1.2461 -1.0100  0.4292
 2311TIP3   OH2 6938   1.390   0.425   1.488  0.2789 -0.1164 -0.5582
 2311TIP3    H1 6939   1.309   0.380   1.514  0.6900 -0.1013  0.8235
 2311TIP3    H2 6940   1.422   0.465   1.568  0.6936  1.4585 -1.4709
 2312TIP3   OH2 6941   3.465   2.649   4.889 -0.0877  0.8359 -0.1461
 2312TIP3    H1 6942   3.377   2.641   4.853 -0.0872  0.0688  0.0170
 2312TIP3    H2 6943   3.469   2.739   4.922 -0.0425  1.6024 -2.1223
 2313TIP3   OH2 6944   2.379   1.701   1.384  0.6590 -0.3684 -0.4143
 2313TIP3    H1 6945   2.398   1.749   1.303 -3.4917 -2.1079 -2.7774
 2313TIP3    H2 6946   2.399   1.763   1.454  2.5737  1.9901 -2.8396
 2314TIP3   OH2 6947   5.361   5.046   4.100 -0.2771 -0.6438  0.0912
 2314TIP3    H1 6948   5.272   5.081   4.095  0.1798  0.5087 -0.2159
 2314TIP3    H2 6949   5.409   5.111   4.151  0.3414 -1.3746  0.4551
 2315TIP3   OH2 6950   5.182   5.528   3.270 -0.5040 -0.0389 -1.0285
 2315TIP3    H1 6951   5.181   5.622   3.251 -1.0959 -0.1048 -1.3734
 2315TIP3    H2 6952   5.125   5.490   3.202 -0.6951 -0.5790 -0.5682
 2316TIP3   OH2 6953   0.309   0.738   2.267 -0.5156 -0.7252  0.1129
 2316TIP3    H1 6954   0.249   0.663   2.262 -0.4664 -0.8931  1.5378
 2316TIP3    H2 6955   0.387   0.703   2.311  0.2812 -0.2846 -0.9167
 2317TIP3   OH2 6956   2.720   0.695   5.071  0.1753 -0.6920  0.1670
 2317TIP3    H1 6957   2.656   0.714   5.140 -0.3450 -0.2032 -0.4402
 2317TIP3    H2 6958   2.711   0.767   5.010  2.9889  0.6863  1.2115
 2318TIP3   OH2 6959   3.891   5.332   4.139  0.0251  0.0519  0.6951
 2318TIP3    H1 6960   3.965   5.379   4.101 -0.8021 -0.4454 -1.6578
 2318TIP3    H2 6961   3.931   5.255   4.180  0.9680  0.6817  0.9964
 2319TIP3   OH2 6962   1.764   0.570   0.608  0.8094  0.0264  0.0725
 2319TIP3    H1 6963   1.683   0.619   0.598  0.9143  0.2319  0.2328
 2319TIP3    H2 6964   1.740   0.493   0.660  0.7538  0.1727  0.2610
 2320TIP3   OH2 6965   5.310   4.567   3.851  0.0164 -0.5732 -0.6186
 2320TIP3    H1 6966   5.399   4.577   3.817  0.8524 -4.0517  0.1015
 2320TIP3    H2 6967   5.300   4.637   3.916  2.3128 -0.2262 -0.5593
 2321TIP3   OH2 6968   2.286   1.384   3.921 -0.6548  0.4656 -1.0383
 2321TIP3    H1 6969   2.206   1.431   3.943 -0.2158  0.0368  1.9106
 2321TIP3    H2 6970   2.260   1.323   3.853 -2.5705  1.0678 -0.9052
 2322TIP3   OH2 6971   6.183   0.962   2.008  0.1464 -0.4497  0.3467
 2322TIP3    H1 6972   6.145   0.890   1.957 -0.9484 -0.4373  1.0992
 2322TIP3    H2 6973   6.235   0.919   2.076  3.1626 -0.4693 -1.7762
 2323TIP3   OH2 6974   6.016   3.658   2.559 -0.5083 -0.1363  0.2107
 2323TIP3    H1 6975   6.059   3.677   2.476 -0.9993 -0.0265 -0.0261
 2323TIP3    H2 6976   6.078   3.603   2.607 -0.3352 -0.4278 -0.3433
 2324TIP3   OH2 6977   2.415  -0.012   1.064 -0.4037 -0.3129  0.1827
 2324TIP3    H1 6978   2.321  -0.026   1.052 -0.2639 -0.3847 -0.9050
 2324TIP3    H2 6979   2.428   0.081   1.042 -0.2443 -0.2551  0.5117
 2325TIP3   OH2 6980   1.435   4.715   3.022  0.3375 -0.0362  0.2599
 2325TIP3    H1 6981   1.444   4.743   3.113 -3.3946  0.8999  0.4790
 2325TIP3    H2 6982   1.424   4.620   3.028 -2.2123  0.2454  1.1276
 2326TIP3   OH2 6983   5.861   5.482   0.713  0.0847 -0.1308  0.3980
 2326TIP3    H1 6984   5.768   5.462   0.720  0.1188 -0.2979  0.3810
 2326TIP3    H2 6985   5.889   5.494   0.804  0.2756 -1.1485  0.4931
 2327TIP3   OH2 6986   4.960   2.438   1.630  0.4708  0.3554  0.0051
 2327TIP3    H1 6987   4.998   2.375   1.692  0.5590  0.1883 -0.2196
 2327TIP3    H2 6988   5.032   2.496   1.609  0.2107  0.9737  0.7683
 2328TIP3   OH2 6989   0.776   3.128   5.147 -0.0551 -0.3666  0.1287
 2328TIP3    H1 6990   0.786   3.046   5.098 -0.5796 -1.7942  2.2779
 2328TIP3    H2 6991   0.682   3.146   5.144  0.1170  0.4908 -0.7735
 2329TIP3   OH2 6992   6.331   0.353   3.401  0.5305 -0.6293  0.1671
 2329TIP3    H1 6993   6.305   0.265   3.372  0.5916 -1.1626  1.6251
 2329TIP3    H2 6994   6.359   0.341   3.492 -0.2795  1.0493  0.6836
 2330TIP3   OH2 6995   2.390   2.464   2.236 -0.3022  0.1533  0.0846
 2330TIP3    H1 6996   2.333   2.540   2.238 -0.4359  0.0371  1.1431
 2330TIP3    H2 6997   2.333   2.392   2.210 -0.1312  0.4326 -1.1250
 2331TIP3   OH2 6998   0.449   2.789   2.581  0.1976  0.5731 -0.1723
 2331TIP3    H1 6999   0.447   2.854   2.651 -3.0482  2.8019 -2.0257
 2331TIP3    H2 7000   0.542   2.780   2.558  0.8834  4.1305  0.6496
 2332TIP3   OH2 7001   2.892   2.404   0.847  0.2718  0.3872  0.5057
 2332TIP3    H1 7002   2.919   2.490   0.815  1.3982  0.3543  1.3114
 2332TIP3    H2 7003   2.890   2.414   0.943 -0.1783 -0.3194  0.5756
 2333TIP3   OH2 7004   2.632   1.195   4.830 -0.4929 -0.2825 -0.2798
 2333TIP3    H1 7005   2.691   1.225   4.760 -0.8457 -1.9095 -1.3437
 2333TIP3    H2 7006   2.545   1.202   4.792 -0.8126  0.1458  0.5288
 2334TIP3   OH2 7007   3.162   2.419   0.647 -0.5677 -0.4690  0.2344
 2334TIP3    H1 7008   3.096   2.365   0.605 -0.3733 -1.7901  1.5217
 2334TIP3    H2 7009   3.191   2.480   0.579 -0.9099 -1.8825 -1.2374
 2335TIP3   OH2 7010   4.906   2.845   3.250  0.0855 -0.1571 -0.7018
 2335TIP3    H1 7011   4.919   2.934   3.283  1.1796  0.2095 -2.0428
 2335TIP3    H2 7012   4.857   2.801   3.319  1.4948  0.8298  0.9955
 2336TIP3   OH2 7013   1.868   1.065   3.353 -0.3747 -0.6630  0.1324
 2336TIP3    H1 7014   1.907   1.092   3.436 -0.3287  1.1732 -0.4421
 2336TIP3    H2 7015   1.882   0.971   3.350  0.9014 -0.5630  1.5557
 2337TIP3   OH2 7016   1.176   2.923   3.328 -0.3144 -0.1274  0.4638
 2337TIP3    H1 7017   1.115   2.849   3.324  1.0131 -1.3618  1.6642
 2337TIP3    H2 7018   1.166   2.957   3.417  0.4378 -0.0874  0.5388
 2338TIP3   OH2 7019   0.557   5.096   0.841 -0.5637  0.1946  0.2367
 2338TIP3    H1 7020   0.492   5.117   0.908 -0.4540  0.9466  0.1160
 2338TIP3    H2 7021   0.574   5.179   0.796  0.0204 -0.1164 -0.1429
 2339TIP3   OH2 7022   0.216   1.582   1.355 -0.2009  0.4645  0.6737
 2339TIP3    H1 7023   0.229   1.676   1.344 -0.5714  0.3890 -0.5173
 2339TIP3    H2 7024   0.162   1.574   1.433  0.4088  1.1963  1.1846
 2340TIP3   OH2 7025   0.130   0.847   4.577  0.4105 -0.0782 -0.0463
 2340TIP3    H1 7026   0.092   0.800   4.651  2.0505 -0.8159  0.3821
 2340TIP3    H2 7027   0.151   0.778   4.513 -1.7480  0.6126 -1.6226
 2341TIP3   OH2 7028   0.531   4.826   1.238 -0.1769 -0.2604  0.1011
 2341TIP3    H1 7029   0.594   4.769   1.281 -1.2877 -2.1134 -0.6040
 2341TIP3    H2 7030   0.547   4.814   1.145 -1.2832 -0.4323 -0.0782
 2342TIP3   OH2 7031   1.775   5.727   2.052  0.5769  0.0944 -0.5158
 2342TIP3    H1 7032   1.793   5.661   1.986 -1.0730  0.1383 -1.0470
 2342TIP3    H2 7033   1.679   5.726   2.062  0.6931  0.8740  1.0511
 2343TIP3   OH2 7034   2.260   4.344   4.816  0.1544  0.0861  0.3892
 2343TIP3    H1 7035   2.211   4.302   4.887  1.7536 -2.2513  0.2355
 2343TIP3    H2 7036   2.220   4.309   4.737 -0.3697  1.1752  0.1614
 2344TIP3   OH2 7037   0.351   2.868   1.862 -0.3003 -0.2317 -0.0968
 2344TIP3    H1 7038   0.334   2.954   1.900 -2.3699 -0.7336  0.2310
 2344TIP3    H2 7039   0.387   2.887   1.775 -1.8481  1.0332 -0.5283
 2345TIP3   OH2 7040   5.374   1.933   2.493 -0.2904  0.0526 -0.5698
 2345TIP3    H1 7041   5.423   1.851   2.484 -0.5574 -0.1756  0.0580
 2345TIP3    H2 7042   5.284   1.906   2.511 -0.4452  0.4836 -0.6825
 2346TIP3   OH2 7043   1.871   1.048   2.868 -0.0830  0.2539  0.0643
 2346TIP3    H1 7044   1.960   1.019   2.886  0.1645  1.1266  0.2865
 2346TIP3    H2 7045   1.853   1.015   2.780  0.0897 -0.7591  0.3892
 2347TIP3   OH2 7046   0.613   2.623   3.036  0.0142  0.5337  0.0268
 2347TIP3    H1 7047   0.601   2.528   3.036  0.5769  0.4546  0.6539
 2347TIP3    H2 7048   0.581   2.651   2.951 -0.4457 -0.1793 -0.0488
 2348TIP3   OH2 7049   5.086   5.984   1.338 -0.0181 -0.0281  0.1079
 2348TIP3    H1 7050   5.023   5.917   1.363 -0.4239  0.0526 -0.6950
 2348TIP3    H2 7051   5.142   5.942   1.273 -0.5797  0.5490 -0.7650
 2349TIP3   OH2 7052   2.557   0.924   2.184 -0.1172 -0.0396  0.5453
 2349TIP3    H1 7053   2.613   0.969   2.121  0.9474 -2.7766 -0.6159
 2349TIP3    H2 7054   2.475   0.909   2.138 -0.8790  1.5042  1.2990
 2350TIP3   OH2 7055   0.856   1.128   0.212 -0.2317 -0.4790  0.1502
 2350TIP3    H1 7056   0.794   1.195   0.242 -1.3685 -0.9516 -1.0463
 2350TIP3    H2 7057   0.832   1.049   0.260 -0.4794 -0.6275 -0.2126
 2351TIP3   OH2 7058   3.518   5.223   2.709 -0.0465  0.0179 -0.8404
 2351TIP3    H1 7059   3.440   5.182   2.746  0.4159 -1.8771 -1.8436
 2351TIP3    H2 7060   3.496   5.316   2.704 -1.9934 -0.3815 -0.4984
 2352TIP3   OH2 7061   0.559   1.561   4.412  0.1862  0.2284 -0.0344
 2352TIP3    H1 7062   0.533   1.597   4.327 -1.4660 -0.8903 -0.0577
 2352TIP3    H2 7063   0.551   1.635   4.472 -2.7917  0.1167 -0.1410
 2353TIP3   OH2 7064   1.496   4.979   1.789  0.0041 -0.3436  0.0548
 2353TIP3    H1 7065   1.453   4.939   1.713 -0.2829  1.0880 -0.5691
 2353TIP3    H2 7066   1.423   5.013   1.842  0.2209 -0.9972  0.7925
 2354TIP3   OH2 7067   0.604   5.734   0.220  0.6409  0.0690 -0.2327
 2354TIP3    H1 7068   0.613   5.825   0.248 -0.6451  0.4441 -1.0018
 2354TIP3    H2 7069   0.573   5.739   0.130 -3.3521 -1.0416  0.8791
 2355TIP3   OH2 7070   2.720   2.008   0.953 -0.0699 -0.0208 -0.0569
 2355TIP3    H1 7071   2.733   2.065   0.878  2.7149  0.5176  0.7433
 2355TIP3    H2 7072   2.670   2.061   1.015  0.8518  0.8851 -0.0749
 2356TIP3   OH2 7073   3.275   1.225   3.791  0.5119 -0.0311  0.3421
 2356TIP3    H1 7074   3.249   1.312   3.760  1.7586  0.9013  1.7974
 2356TIP3    H2 7075   3.302   1.178   3.711 -0.8936  0.6253 -0.5536
 2357TIP3   OH2 7076   1.368   2.191   1.979 -0.0264 -0.4938 -0.2876
 2357TIP3    H1 7077   1.354   2.100   2.004 -0.6094  0.0389  1.4131
 2357TIP3    H2 7078   1.295   2.238   2.018  1.1918  0.9521  0.3327
 2358TIP3   OH2 7079   5.989   2.454   1.288  0.5415 -0.2547 -0.1472
 2358TIP3    H1 7080   5.920   2.400   1.250  1.9323 -3.6389  1.6421
 2358TIP3    H2 7081   6.064   2.441   1.231  0.7499  0.2783 -0.0023
 2359TIP3   OH2 7082   2.566   4.807   4.155  0.5118 -0.1084  0.2085
 2359TIP3    H1 7083   2.622   4.786   4.079  2.1139  0.9963  1.0260
 2359TIP3    H2 7084   2.618   4.780   4.230  0.3568  1.7744  1.0426
 2360TIP3   OH2 7085   4.276   0.753   0.076  0.0103  0.9723  0.0564
 2360TIP3    H1 7086   4.316   0.826   0.028  0.0497 -0.6940 -2.6827
 2360TIP3    H2 7087   4.184   0.755   0.049 -0.0731  0.2567  0.2837
 2361TIP3   OH2 7088   2.512   1.720   3.585  0.1149  0.5405 -0.1649
 2361TIP3    H1 7089   2.605   1.700   3.574 -0.3817 -1.8131 -0.6456
 2361TIP3    H2 7090   2.501   1.807   3.546  1.9705  0.5646 -0.7084
 2362TIP3   OH2 7091   1.446   4.353   1.519  0.0354 -0.4930  0.1200
 2362TIP3    H1 7092   1.456   4.288   1.589  0.4774  0.0894  0.6067
 2362TIP3    H2 7093   1.524   4.408   1.526 -0.3100  0.0613 -0.3160
 2363TIP3   OH2 7094   0.869  -0.019   2.545  0.0408  0.2418  0.6071
 2363TIP3    H1 7095   0.852   0.006   2.636 -0.7880 -0.1804  0.5783
 2363TIP3    H2 7096   0.948   0.030   2.521 -0.1755  0.9543  1.3106
 2364TIP3   OH2 7097   5.159   1.774   2.306  0.5149  0.5329  0.4335
 2364TIP3    H1 7098   5.143   1.711   2.376  2.5970 -1.1875 -0.5036
 2364TIP3    H2 7099   5.080   1.769   2.251  0.3703 -0.8306  0.7239
 2365TIP3   OH2 7100   2.033   3.556   3.816 -0.2959  0.0606 -0.0190
 2365TIP3    H1 7101   2.098   3.602   3.764  0.4901 -0.7163  0.2415
 2365TIP3    H2 7102   2.015   3.615   3.889 -2.3598  1.7308 -1.7563
 2366TIP3   OH2 7103   2.433   5.618   2.325  0.0848  0.1123  0.2904
 2366TIP3    H1 7104   2.367   5.554   2.297 -0.8872  1.8168 -1.5824
 2366TIP3    H2 7105   2.411   5.635   2.417  0.5578 -2.3802  0.9418
 2367TIP3   OH2 7106   5.289   2.202   1.020  0.1873 -0.6547  0.3864
 2367TIP3    H1 7107   5.217   2.249   1.063 -0.5932 -0.7051 -0.8204
 2367TIP3    H2 7108   5.354   2.270   1.002  0.3233 -0.5545  1.2217
 2368TIP3   OH2 7109   2.697   4.455   0.599  0.1136  0.0077  0.2127
 2368TIP3    H1 7110   2.652   4.406   0.530  3.3761 -0.2563 -1.9160
 2368TIP3    H2 7111   2.767   4.397   0.628  1.3552  1.7155  0.7665
 2369TIP3   OH2 7112   3.789   3.070   3.196 -0.1265 -0.4489 -0.4276
 2369TIP3    H1 7113   3.724   3.003   3.219 -1.5139  0.7848 -0.5423
 2369TIP3    H2 7114   3.844   3.029   3.129 -0.0728 -1.9161  0.4879
 2370TIP3   OH2 7115   3.384   5.372   5.002  0.4398  0.0925 -0.2188
 2370TIP3    H1 7116   3.479   5.367   4.994  0.4835 -0.8130  0.6616
 2370TIP3    H2 7117   3.354   5.282   4.997 -0.1913  0.1669  1.3790
 2371TIP3   OH2 7118   5.908   2.022   0.102  0.0464  0.2138 -0.1760
 2371TIP3    H1 7119   5.871   1.937   0.080 -0.3540 -0.2406  2.0147
 2371TIP3    H2 7120   5.865   2.046   0.184 -0.0015  2.6458 -0.8215
 2372TIP3   OH2 7121   3.357   3.531   2.852 -0.0498 -0.0416 -0.1009
 2372TIP3    H1 7122   3.289   3.557   2.913  0.7527 -0.5107  1.0208
 2372TIP3    H2 7123   3.363   3.436   2.861  0.4567 -0.0552 -0.4971
 2373TIP3   OH2 7124   0.639   3.399   1.711 -0.1219 -0.1682  0.0749
 2373TIP3    H1 7125   0.729   3.403   1.744 -0.5466 -2.2684  1.7147
 2373TIP3    H2 7126   0.600   3.325   1.758 -2.5135  0.2653 -1.1002
 2374TIP3   OH2 7127   2.031   5.717   3.994  0.0572  0.0929  0.4092
 2374TIP3    H1 7128   2.011   5.693   4.085  3.2577  0.0561  1.2161
 2374TIP3    H2 7129   2.070   5.804   4.000 -1.6634  1.0455 -1.2574
 2375TIP3   OH2 7130   0.347   5.925   2.579  0.1649  0.8084  0.2092
 2375TIP3    H1 7131   0.419   5.864   2.598  0.1902  1.4463  2.4133
 2375TIP3    H2 7132   0.369   5.962   2.493  1.4180 -0.4495 -0.0534
 2376TIP3   OH2 7133   4.570   1.908   1.785 -0.1385  0.1872 -0.2489
 2376TIP3    H1 7134   4.526   1.825   1.766  0.5244 -0.3248  0.3884
 2376TIP3    H2 7135   4.647   1.908   1.729 -0.4216  0.6327 -0.6477
 2377TIP3   OH2 7136   5.431   3.406   2.687  0.7680  0.2393  0.0695
 2377TIP3    H1 7137   5.349   3.356   2.684  1.0656 -0.3153  0.8271
 2377TIP3    H2 7138   5.464   3.403   2.598  0.7065 -0.8162  0.0637
 2378TIP3   OH2 7139   2.755   0.700   3.217  0.0913  0.5404  0.2752
 2378TIP3    H1 7140   2.733   0.744   3.135 -0.9847  0.8717  0.7365
 2378TIP3    H2 7141   2.849   0.718   3.229  0.3559  0.1462 -1.0813
 2379TIP3   OH2 7142   2.911   4.856   1.606 -0.2369 -0.3942  0.2893
 2379TIP3    H1 7143   2.994   4.857   1.559  0.6549  0.1234  1.8152
 2379TIP3    H2 7144   2.858   4.922   1.561  1.6170  2.2022  1.6920
 2380TIP3   OH2 7145   3.488   3.748   0.582 -0.1826  0.4483 -0.3119
 2380TIP3    H1 7146   3.491   3.652   0.581  1.8261  0.4669 -0.1722
 2380TIP3    H2 7147   3.407   3.769   0.629 -0.4450 -1.1791  0.0292
 2381TIP3   OH2 7148   3.306   1.024   3.612 -0.3587  0.0928 -0.2169
 2381TIP3    H1 7149   3.239   0.962   3.641 -1.3036  0.2690 -1.8827
 2381TIP3    H2 7150   3.383   1.003   3.665 -0.8878 -1.9855 -0.1861
 2382TIP3   OH2 7151   5.367   2.433   2.560  0.3652  0.5909  0.8029
 2382TIP3    H1 7152   5.384   2.359   2.619 -0.0933  0.3277  0.6115
 2382TIP3    H2 7153   5.440   2.492   2.575  0.6350  0.1914  1.1092
 2383TIP3   OH2 7154   5.944   4.319   0.810  0.3434  0.1525 -0.0183
 2383TIP3    H1 7155   5.929   4.344   0.719  0.0602  0.7898  0.1939
 2383TIP3    H2 7156   6.032   4.283   0.812  0.1514 -0.3559 -0.6420
 2384TIP3   OH2 7157   6.234   3.217   2.187 -0.5827 -0.1293  0.1131
 2384TIP3    H1 7158   6.315   3.179   2.152  0.0428  0.4941  0.8295
 2384TIP3    H2 7159   6.226   3.179   2.275 -0.8987  0.0584  0.1665
 2385TIP3   OH2 7160   0.614   2.061   2.785 -0.0857 -0.3349  0.0497
 2385TIP3    H1 7161   0.650   2.097   2.867  0.5835 -0.3810 -0.2189
 2385TIP3    H2 7162   0.543   2.004   2.814 -3.0889  3.2037  0.4048
 2386TIP3   OH2 7163   6.162   2.322   0.335  0.3056  0.0558  0.2893
 2386TIP3    H1 7164   6.157   2.260   0.407  0.7411  0.6737  0.8712
 2386TIP3    H2 7165   6.160   2.269   0.255  1.9825 -0.8130  0.7756
 2387TIP3   OH2 7166   4.258   3.312   0.854 -0.2575 -0.6144  0.1898
 2387TIP3    H1 7167   4.341   3.273   0.826 -1.5163 -2.1197 -1.6392
 2387TIP3    H2 7168   4.284   3.393   0.898  2.0522  0.8880 -3.4792
 2388TIP3   OH2 7169   5.260   1.439   1.315 -0.3945  0.1167  0.3233
 2388TIP3    H1 7170   5.280   1.429   1.222  1.1044 -1.5771  0.7821
 2388TIP3    H2 7171   5.256   1.350   1.349  1.2691  0.7212  2.3020
 2389TIP3   OH2 7172   3.801   2.874   2.287  0.4026 -0.3655  0.3855
 2389TIP3    H1 7173   3.725   2.826   2.252 -0.0004 -1.3983  2.4856
 2389TIP3    H2 7174   3.769   2.964   2.297 -0.4264 -0.6925  0.8351
 2390TIP3   OH2 7175   1.830   4.204   5.000 -0.5395 -0.2550 -0.2778
 2390TIP3    H1 7176   1.828   4.279   4.940  0.5646 -0.3934 -0.4952
 2390TIP3    H2 7177   1.798   4.240   5.083  0.6565  0.6570 -0.1829
 2391TIP3   OH2 7178   2.335   3.976   2.246 -0.3441 -0.3563 -0.2824
 2391TIP3    H1 7179   2.353   3.940   2.159 -1.3916 -0.0361 -0.6453
 2391TIP3    H2 7180   2.421   4.002   2.279  0.3093 -2.1080 -0.4732
 2392TIP3   OH2 7181   5.453   3.684   2.705 -0.2586  0.3380 -0.4950
 2392TIP3    H1 7182   5.546   3.690   2.684 -0.2748  1.6361 -0.2536
 2392TIP3    H2 7183   5.443   3.597   2.745  1.1954  0.8494  1.1102
 2393TIP3   OH2 7184   1.337   2.274   0.288 -0.4904  0.1829 -0.3393
 2393TIP3    H1 7185   1.341   2.341   0.356 -0.2803  1.0154 -1.1523
 2393TIP3    H2 7186   1.417   2.286   0.237 -0.7014 -0.3411 -0.8153
 2394TIP3   OH2 7187   4.231   1.825   1.053 -0.6262 -0.3475 -0.7276
 2394TIP3    H1 7188   4.200   1.890   1.116 -1.6085 -1.5236  0.0236
 2394TIP3    H2 7189   4.165   1.826   0.983  0.7875  1.4290 -2.1576
 2395TIP3   OH2 7190   1.414   0.041   0.309 -0.4469  0.2053 -0.0994
 2395TIP3    H1 7191   1.323   0.071   0.317  0.1958  2.3810 -0.5330
 2395TIP3    H2 7192   1.425   0.022   0.216 -0.8538 -1.6094  0.1661
 2396TIP3   OH2 7193   1.083   1.282   0.196 -0.0634  0.0958 -0.0521
 2396TIP3    H1 7194   1.092   1.288   0.291  2.7181 -0.0743 -0.2240
 2396TIP3    H2 7195   1.008   1.224   0.182  0.0884 -0.6718  2.0443
 2397TIP3   OH2 7196   4.242   1.597   5.114 -0.0584  0.3354 -0.4561
 2397TIP3    H1 7197   4.223   1.505   5.132 -0.2095  0.6707  1.2821
 2397TIP3    H2 7198   4.192   1.645   5.180 -1.2345  1.7706 -2.3068
 2398TIP3   OH2 7199   2.410   2.820   2.238  0.1646 -0.0887 -0.6895
 2398TIP3    H1 7200   2.474   2.804   2.307 -0.9774 -1.7909  0.0467
 2398TIP3    H2 7201   2.395   2.914   2.240  2.1328  0.2649 -0.4539
 2399TIP3   OH2 7202   6.017   0.725   0.281  0.1224  0.2060 -0.1781
 2399TIP3    H1 7203   5.960   0.784   0.331 -0.0842  0.0653 -0.2463
 2399TIP3    H2 7204   5.968   0.643   0.275 -0.5762  0.7086 -1.9962
 2400TIP3   OH2 7205   2.072   4.291   3.236  0.0866  0.0803 -0.1633
 2400TIP3    H1 7206   2.104   4.351   3.304  0.1599 -1.8723  1.6387
 2400TIP3    H2 7207   2.150   4.241   3.211 -0.2541 -0.2155 -0.6368
 2401TIP3   OH2 7208   5.569   1.498   1.914  0.3522 -0.1628 -0.2130
 2401TIP3    H1 7209   5.655   1.493   1.873  1.2032  3.1260  0.8130
 2401TIP3    H2 7210   5.567   1.426   1.977  2.0719 -0.7120 -0.7454
 2402TIP3   OH2 7211   0.205   5.674   4.229 -0.2393 -0.5746  0.3568
 2402TIP3    H1 7212   0.256   5.612   4.282 -0.9607 -1.0806  0.4663
 2402TIP3    H2 7213   0.239   5.662   4.141 -0.1590 -0.9044  0.4293
 2403TIP3   OH2 7214   3.064   2.487   2.603 -0.1195 -0.3644  0.8481
 2403TIP3    H1 7215   3.134   2.553   2.604 -0.6680  0.3829 -1.6111
 2403TIP3    H2 7216   3.062   2.457   2.512 -1.6753 -1.8297  1.3274
 2404TIP3   OH2 7217   0.338   0.522   0.403 -0.1749 -0.1886 -0.2652
 2404TIP3    H1 7218   0.283   0.466   0.348 -1.1621  2.0080 -1.6360
 2404TIP3    H2 7219   0.326   0.488   0.491  0.0025 -2.6733 -1.1232
 2405TIP3   OH2 7220   3.053   1.339   0.792  0.5698 -0.4902  0.0298
 2405TIP3    H1 7221   2.970   1.308   0.828 -0.9232  0.6687 -2.1741
 2405TIP3    H2 7222   3.072   1.279   0.720  0.3780  0.5994 -0.9584
 2406TIP3   OH2 7223   2.584   4.754   1.290 -0.3781  0.3443 -0.3231
 2406TIP3    H1 7224   2.550   4.781   1.204 -1.9119  1.9791  0.7071
 2406TIP3    H2 7225   2.666   4.803   1.300 -0.8311  1.1397 -0.3707
 2407TIP3   OH2 7226   3.188   3.525   0.629 -0.2088 -0.2917  0.1160
 2407TIP3    H1 7227   3.209   3.610   0.669  0.7863 -0.5293  0.1198
 2407TIP3    H2 7228   3.095   3.531   0.609  0.1301  1.3527 -1.1901
 2408TIP3   OH2 7229   4.368   5.401   2.071 -0.1675 -0.3781 -0.2598
 2408TIP3    H1 7230   4.361   5.468   2.139  0.1132 -1.6169  1.0484
 2408TIP3    H2 7231   4.400   5.448   1.994  3.3212  0.4880  1.5063
 2409TIP3   OH2 7232   1.191   1.574   0.334 -0.0500  0.1072 -0.4354
 2409TIP3    H1 7233   1.245   1.563   0.256 -2.6269 -0.5494 -2.2537
 2409TIP3    H2 7234   1.194   1.489   0.378  0.8922  0.2810 -0.1476
 2410TIP3   OH2 7235   3.423  -0.015   1.239 -0.4320  0.1369  0.3891
 2410TIP3    H1 7236   3.511  -0.020   1.203 -0.5057 -0.9255  0.3442
 2410TIP3    H2 7237   3.374   0.038   1.176  0.6322  2.4331  1.3892
 2411TIP3   OH2 7238   1.610   2.499   2.699 -0.1638 -0.3352 -0.8326
 2411TIP3    H1 7239   1.521   2.476   2.729  0.9316 -1.2790  2.0994
 2411TIP3    H2 7240   1.646   2.551   2.772  2.5788 -2.2853 -0.6582
 2412TIP3   OH2 7241   5.795   3.259   3.035 -0.4954 -0.4819  0.2925
 2412TIP3    H1 7242   5.802   3.258   2.939 -0.6101 -0.1235  0.2800
 2412TIP3    H2 7243   5.821   3.171   3.061  0.0968 -0.4079 -0.0311
 2413TIP3   OH2 7244   3.495   5.561   1.106 -0.4258  0.4713  0.4869
 2413TIP3    H1 7245   3.582   5.544   1.143  0.4605  0.4007 -1.5061
 2413TIP3    H2 7246   3.445   5.482   1.128  0.6205 -0.3584  0.0182
 2414TIP3   OH2 7247   2.689   4.667   4.473  0.9325  0.6084  0.6211
 2414TIP3    H1 7248   2.643   4.590   4.439  1.1363  0.3089  1.0287
 2414TIP3    H2 7249   2.618   4.727   4.496  0.7781  0.6673  0.0347
 2415TIP3   OH2 7250   2.108   5.471   3.878 -1.0187  0.6754 -0.3936
 2415TIP3    H1 7251   2.152   5.461   3.794 -0.3284  2.6054 -0.3057
 2415TIP3    H2 7252   2.051   5.547   3.866 -0.6014  1.2359  0.9952
 2416TIP3   OH2 7253   3.428   1.736   4.153 -0.2800 -0.6674 -0.0226
 2416TIP3    H1 7254   3.419   1.830   4.168  0.3714 -0.7867  1.2382
 2416TIP3    H2 7255   3.469   1.729   4.067 -0.1661  0.2043 -0.0495
 2417TIP3   OH2 7256   4.488   1.228   1.272 -0.5095  0.2883  0.5662
 2417TIP3    H1 7257   4.560   1.202   1.330 -0.5061 -2.3660 -0.5048
 2417TIP3    H2 7258   4.410   1.228   1.328 -0.0187  1.1620  1.2758
 2418TIP3   OH2 7259   0.847   5.231   3.988 -0.1757 -0.1413 -0.0732
 2418TIP3    H1 7260   0.858   5.187   3.903 -0.0215  0.6422 -0.4721
 2418TIP3    H2 7261   0.758   5.210   4.015  0.0522 -1.0824 -0.0290
 2419TIP3   OH2 7262   0.684   5.623   4.910 -0.2216  0.6502  0.0626
 2419TIP3    H1 7263   0.625   5.605   4.984 -1.4887  2.1796 -0.5103
 2419TIP3    H2 7264   0.718   5.710   4.928 -1.3388  1.4898 -1.6012
 2420TIP3   OH2 7265   3.044   5.355   2.887  0.4350 -0.1653 -0.2028
 2420TIP3    H1 7266   2.988   5.291   2.930 -0.1632 -0.1289 -0.9118
 2420TIP3    H2 7267   3.001   5.439   2.904 -1.1935 -0.3492 -2.8762
 2421TIP3   OH2 7268   1.250   4.640   5.156  0.2107 -0.1041  0.0084
 2421TIP3    H1 7269   1.162   4.647   5.193  0.3220  1.6124  0.0119
 2421TIP3    H2 7270   1.237   4.646   5.061  0.3345  0.4810  0.0226
 2422TIP3   OH2 7271   4.585   1.540   0.327 -0.0830 -0.3432  0.4072
 2422TIP3    H1 7272   4.569   1.486   0.250 -0.6247 -1.5504  1.3387
 2422TIP3    H2 7273   4.545   1.624   0.306  0.7032 -0.2864 -1.0317
 2423TIP3   OH2 7274   6.048   4.082   2.577  0.2166  0.3760  0.3893
 2423TIP3    H1 7275   5.960   4.119   2.584  0.1108 -0.1284  2.6052
 2423TIP3    H2 7276   6.053   4.018   2.648  2.0337 -0.3486 -0.3239
 2424TIP3   OH2 7277   3.944   1.469   3.698  0.4901  0.1667  0.6592
 2424TIP3    H1 7278   3.965   1.454   3.606  1.0370  2.3993  0.3634
 2424TIP3    H2 7279   3.993   1.402   3.745  0.9656 -0.3991 -0.6022
 2425TIP3   OH2 7280   0.747   4.737   3.971  0.1066  0.0642 -0.1734
 2425TIP3    H1 7281   0.709   4.727   4.058  0.1933 -0.2864 -0.1753
 2425TIP3    H2 7282   0.839   4.755   3.986  0.5192 -1.8184 -0.2185
 2426TIP3   OH2 7283   3.895   1.376   2.593  0.5392 -0.1755 -0.3267
 2426TIP3    H1 7284   3.810   1.409   2.622  1.0654  0.3406  0.6782
 2426TIP3    H2 7285   3.934   1.337   2.671  2.6111  2.5287  0.1322
 2427TIP3   OH2 7286   3.800   1.763   0.052  0.3464 -0.4177 -0.0204
 2427TIP3    H1 7287   3.783   1.669   0.047 -0.4378 -0.2586 -0.5714
 2427TIP3    H2 7288   3.740   1.802  -0.012 -1.0678  0.6833  1.8667
 2428TIP3   OH2 7289   5.839   2.960   1.507 -0.2009 -0.1776 -0.2018
 2428TIP3    H1 7290   5.901   2.920   1.446 -0.6072 -1.0220 -0.0613
 2428TIP3    H2 7291   5.788   3.020   1.453  1.4402  1.3695 -0.1363
 2429TIP3   OH2 7292   5.062   5.184   2.713 -0.0122  0.2978  0.2055
 2429TIP3    H1 7293   5.035   5.183   2.805  1.8499  2.1331  0.8576
 2429TIP3    H2 7294   4.994   5.233   2.668 -0.7207 -0.2321  0.6787
 2430TIP3   OH2 7295   5.915   4.363   0.422 -0.2043  0.1109  0.7025
 2430TIP3    H1 7296   5.899   4.449   0.460 -2.9268  0.4387 -0.9264
 2430TIP3    H2 7297   5.836   4.313   0.441 -1.1438 -0.1651 -3.0016
 2431TIP3   OH2 7298   4.788   0.234   5.024 -0.0732  0.1850  0.1137
 2431TIP3    H1 7299   4.799   0.141   5.003  0.9450  0.4223 -0.4828
 2431TIP3    H2 7300   4.766   0.275   4.940  0.7755  0.6636  0.1104
 2432TIP3   OH2 7301   4.956   2.366   3.931  0.0222  0.4850  0.0199
 2432TIP3    H1 7302   4.883   2.424   3.912  0.9603  1.0567 -2.1590
 2432TIP3    H2 7303   5.026   2.395   3.872  1.2306 -1.5164  0.3595
 2433TIP3   OH2 7304   0.251   4.010   2.940 -0.1099  0.3397 -0.5973
 2433TIP3    H1 7305   0.337   3.996   2.901  0.6288 -0.7469  1.2571
 2433TIP3    H2 7306   0.246   4.104   2.958  2.1689  0.0542  2.2733
 2434TIP3   OH2 7307   3.337   1.007   0.124 -0.3146 -0.0167 -0.1321
 2434TIP3    H1 7308   3.375   1.091   0.151 -1.3479  0.5644 -0.4009
 2434TIP3    H2 7309   3.308   1.022   0.034  0.3552 -0.9785 -0.5242
 2435TIP3   OH2 7310   4.583   0.449   4.423  0.6704  0.3120  0.1223
 2435TIP3    H1 7311   4.658   0.426   4.369  2.4015  0.7694  2.2190
 2435TIP3    H2 7312   4.539   0.365   4.439  0.8402  0.0046 -0.9355
 2436TIP3   OH2 7313   5.871   2.682   0.648 -0.1277 -0.3792 -0.4078
 2436TIP3    H1 7314   5.955   2.646   0.621 -0.4649  0.2948 -2.5589
 2436TIP3    H2 7315   5.808   2.611   0.634 -0.2478 -0.1454 -1.0924
 2437TIP3   OH2 7316   2.661   4.146   0.637 -0.0610  0.4996  0.3822
 2437TIP3    H1 7317   2.632   4.192   0.557  1.1626  0.7896  0.0942
 2437TIP3    H2 7318   2.579   4.127   0.684 -0.7999  0.3800 -0.9027
 2438TIP3   OH2 7319   1.610   2.139   1.216  0.6733  0.0769 -0.6222
 2438TIP3    H1 7320   1.577   2.229   1.224  1.3232  0.1817  1.1787
 2438TIP3    H2 7321   1.580   2.111   1.129  0.2714  1.9444 -1.1370
 2439TIP3   OH2 7322   0.775   5.037   1.999  0.4146  0.3035  0.1547
 2439TIP3    H1 7323   0.781   4.996   2.085 -1.4655 -0.1636  0.0980
 2439TIP3    H2 7324   0.686   5.019   1.969  0.9712  0.5742 -1.8425
 2440TIP3   OH2 7325   0.579   4.459   4.701  0.1629  0.2608  0.5861
 2440TIP3    H1 7326   0.514   4.444   4.633 -0.4071 -2.3560  1.5843
 2440TIP3    H2 7327   0.556   4.544   4.738 -1.9136 -0.0244  0.0688
 2441TIP3   OH2 7328   5.049   4.510   5.003  0.1651 -0.1910  0.2607
 2441TIP3    H1 7329   5.096   4.513   4.920  1.5405 -1.2638  0.9714
 2441TIP3    H2 7330   4.971   4.457   4.985 -0.0529  0.3832 -0.5606
 2442TIP3   OH2 7331   0.257   5.035   3.331 -0.0761 -0.4869 -0.8606
 2442TIP3    H1 7332   0.315   5.104   3.298 -0.5357  1.3755  1.8821
 2442TIP3    H2 7333   0.169   5.072   3.324 -0.2737 -0.3649  1.3142
 2443TIP3   OH2 7334   3.315   0.627   4.081 -0.0322 -0.0081 -0.4238
 2443TIP3    H1 7335   3.360   0.710   4.096 -0.9162  0.2096  1.2533
 2443TIP3    H2 7336   3.228   0.653   4.049 -0.2946 -0.2788  0.0625
 2444TIP3   OH2 7337   5.256   3.541   1.225  0.2725  0.0370  0.0764
 2444TIP3    H1 7338   5.338   3.548   1.273  0.9046 -0.7637 -0.8419
 2444TIP3    H2 7339   5.232   3.632   1.207 -1.7974  0.6564  4.7123
 2445TIP3   OH2 7340   0.360   5.936   5.057 -0.3768 -0.0140 -0.1941
 2445TIP3    H1 7341   0.343   5.849   5.022 -2.4047 -0.8310  2.4968
 2445TIP3    H2 7342   0.275   5.981   5.052  0.2887  1.2869 -0.2120
 2446TIP3   OH2 7343   0.870   5.883   4.961  0.1548  0.4301  0.2344
 2446TIP3    H1 7344   0.861   5.850   5.050  0.3572 -1.1860 -0.3235
 2446TIP3    H2 7345   0.888   5.977   4.972  0.1027  0.2693  1.8792
 2447TIP3   OH2 7346   2.587   0.786   1.796  0.9731 -0.1052  0.5513
 2447TIP3    H1 7347   2.563   0.873   1.763 -2.1146 -0.9502  0.2885
 2447TIP3    H2 7348   2.560   0.725   1.727  2.3392 -1.3542  1.0696
 2448TIP3   OH2 7349   2.823   5.491   4.065 -0.3938  0.4478 -0.5466
 2448TIP3    H1 7350   2.795   5.568   4.115 -1.5855 -1.2179  1.5691
 2448TIP3    H2 7351   2.917   5.501   4.055 -0.3776  1.7110  0.5870
 2449TIP3   OH2 7352   5.674   4.264   1.968 -0.5535  0.0382 -0.1342
 2449TIP3    H1 7353   5.665   4.178   2.010  0.3027  1.0975  2.4487
 2449TIP3    H2 7354   5.705   4.245   1.880 -1.4328 -2.3318  0.0095
 2450TIP3   OH2 7355   0.985   5.916   4.033 -0.5152 -0.1053 -0.4882
 2450TIP3    H1 7356   0.979   5.852   4.104 -0.0630  0.9297  0.5230
 2450TIP3    H2 7357   0.903   5.965   4.037  1.2449  2.9924  2.4153
 2451TIP3   OH2 7358   2.098   1.496   4.741  0.1233  0.3994 -0.4593
 2451TIP3    H1 7359   2.145   1.432   4.795 -1.2994  0.5172  1.0122
 2451TIP3    H2 7360   2.093   1.574   4.796 -0.4108  0.9018 -1.2095
 2452TIP3   OH2 7361   4.636   3.856   4.675 -0.2821  0.2037 -0.3602
 2452TIP3    H1 7362   4.552   3.834   4.714  1.1175 -1.9990  1.6337
 2452TIP3    H2 7363   4.651   3.787   4.610  0.0240  0.5964 -0.7159
 2453TIP3   OH2 7364   2.702   0.842   4.811 -0.4152  0.2487  0.0873
 2453TIP3    H1 7365   2.794   0.818   4.799 -0.0187  2.5357 -2.4691
 2453TIP3    H2 7366   2.703   0.937   4.826 -2.3488  0.2833  0.3139
 2454TIP3   OH2 7367   2.805   0.721   2.416  0.1396 -0.3045  0.3921
 2454TIP3    H1 7368   2.797   0.723   2.511  1.2839 -0.8364  0.5205
 2454TIP3    H2 7369   2.742   0.654   2.388 -1.8217  1.3788  0.5336
 2455TIP3   OH2 7370   3.440   2.891   2.860 -0.1263  0.2018 -0.2224
 2455TIP3    H1 7371   3.515   2.923   2.809 -0.2235 -0.6774 -0.9263
 2455TIP3    H2 7372   3.446   2.796   2.855 -1.6172  0.1145 -0.7631
 2456TIP3   OH2 7373   5.545   0.904   3.345 -0.5203  0.3065 -0.3534
 2456TIP3    H1 7374   5.580   0.920   3.258  0.2723  0.7087  0.0290
 2456TIP3    H2 7375   5.483   0.976   3.360 -1.8103 -0.5916 -1.1627
 2457TIP3   OH2 7376   1.751   0.036   2.171 -0.0376  0.3094  0.2444
 2457TIP3    H1 7377   1.804   0.105   2.130  0.9141 -0.8647 -0.5675
 2457TIP3    H2 7378   1.725   0.073   2.256  0.6499  1.5655 -0.0675
 2458TIP3   OH2 7379   5.024   2.841   2.002 -0.2945  0.3560 -0.7036
 2458TIP3    H1 7380   4.943   2.799   2.031 -0.4133 -0.3572 -1.9978
 2458TIP3    H2 7381   5.091   2.775   2.017 -0.1294  0.5269 -0.6918
 2459TIP3   OH2 7382   1.175   1.367   4.209  0.0975 -0.0510 -0.3788
 2459TIP3    H1 7383   1.254   1.394   4.162  1.4577 -0.4331  1.5756
 2459TIP3    H2 7384   1.189   1.275   4.229 -1.1322 -0.2846 -0.5092
 2460TIP3   OH2 7385   4.744   1.191   2.432 -0.0390  0.0863  0.4546
 2460TIP3    H1 7386   4.683   1.119   2.420 -0.6010  0.5935  0.1988
 2460TIP3    H2 7387   4.830   1.153   2.414 -0.3709 -0.4072 -0.1357
 2461TIP3   OH2 7388   5.156   2.102   2.754 -0.1245  0.4454  0.2262
 2461TIP3    H1 7389   5.087   2.048   2.792  0.9641 -0.0545  1.5953
 2461TIP3    H2 7390   5.110   2.166   2.699 -1.5543 -0.7724 -0.0508
 2462TIP3   OH2 7391   2.842   3.377   0.973 -0.5661 -0.4218  0.1188
 2462TIP3    H1 7392   2.919   3.395   1.026 -0.9476  0.7458  0.3105
 2462TIP3    H2 7393   2.791   3.315   1.025  0.5884 -1.8233 -0.3592
 2463TIP3   OH2 7394   1.809   3.034   2.334 -0.3252  0.2005 -0.2266
 2463TIP3    H1 7395   1.788   3.069   2.420  1.2724 -1.4560  0.9030
 2463TIP3    H2 7396   1.788   2.940   2.340 -1.0226  0.1966 -1.9553
 2464TIP3   OH2 7397   4.984   4.011   0.305  0.2405 -0.0272 -0.0657
 2464TIP3    H1 7398   5.038   4.028   0.228  1.1069 -0.7182  0.3619
 2464TIP3    H2 7399   4.898   3.989   0.270 -0.7666  4.1458 -0.7104
 2465TIP3   OH2 7400   2.225   3.350   3.013  0.2708  0.4747 -0.0238
 2465TIP3    H1 7401   2.247   3.289   3.084  1.4268  0.7711 -0.1154
 2465TIP3    H2 7402   2.302   3.405   3.004  0.0222  0.6266 -1.3341
 2466TIP3   OH2 7403   3.249   2.411   4.062 -0.1635  0.2657  0.0235
 2466TIP3    H1 7404   3.281   2.322   4.042  1.2132  0.9618 -1.0690
 2466TIP3    H2 7405   3.181   2.427   3.997 -1.6776 -0.6022  1.3185
 2467TIP3   OH2 7406   3.549   3.055   2.479 -0.3484 -0.4717  0.8874
 2467TIP3    H1 7407   3.596   3.122   2.430  0.7974 -2.0004 -0.2352
 2467TIP3    H2 7408   3.466   3.095   2.504 -1.0703  0.3823 -2.4557
 2468TIP3   OH2 7409   4.496   3.004   2.957 -0.0963 -0.6849 -0.0786
 2468TIP3    H1 7410   4.575   2.962   2.991 -0.4097 -2.0243 -0.9147
 2468TIP3    H2 7411   4.454   2.936   2.904 -1.3405  0.2882 -0.3847
 2469TIP3   OH2 7412   1.451   4.407   5.135  0.1264  0.0853 -0.4752
 2469TIP3    H1 7413   1.454   4.396   5.040  0.8100  0.3439 -0.4947
 2469TIP3    H2 7414   1.425   4.499   5.147 -2.5554 -0.6228 -0.3616
 2470TIP3   OH2 7415   5.097   5.365   4.108  0.2519 -0.2328  0.4339
 2470TIP3    H1 7416   5.127   5.305   4.040  1.8024  1.1099 -0.1532
 2470TIP3    H2 7417   5.156   5.440   4.100 -1.9636  1.6371  0.7216
 2471TIP3   OH2 7418   0.555   3.483   0.806 -0.8305  0.3279 -0.0666
 2471TIP3    H1 7419   0.644   3.499   0.773 -0.5439  0.7830  0.8970
 2471TIP3    H2 7420   0.504   3.558   0.775 -1.1018 -0.3831 -1.3864
 2472TIP3   OH2 7421   1.335   4.457   1.954  0.1991 -0.2826  0.0971
 2472TIP3    H1 7422   1.262   4.419   2.003 -1.5142  1.5230 -0.9111
 2472TIP3    H2 7423   1.318   4.433   1.863  1.1453 -0.2351 -0.1021
 2473TIP3   OH2 7424   3.425   4.656   5.128 -0.0869  0.7731  0.3247
 2473TIP3    H1 7425   3.440   4.682   5.037 -0.5524  2.1359  0.6067
 2473TIP3    H2 7426   3.365   4.582   5.121  2.8766 -1.7478 -0.5909
 2474TIP3   OH2 7427   0.018   0.581   5.128  0.0453 -0.4710 -0.1320
 2474TIP3    H1 7428   0.061   0.500   5.155 -1.5701 -1.0793  0.7444
 2474TIP3    H2 7429  -0.075   0.565   5.143 -0.6036  0.5313 -2.6113
 2475TIP3   OH2 7430   3.024   5.242   3.918  0.1434 -0.5242 -0.8083
 2475TIP3    H1 7431   3.083   5.275   3.985 -0.9259 -1.3890  0.6245
 2475TIP3    H2 7432   3.020   5.312   3.853 -0.8521  1.5913  1.3454
 2476TIP3   OH2 7433   5.806   4.674   0.387  0.2340 -0.0948 -0.4234
 2476TIP3    H1 7434   5.731   4.623   0.357 -1.1934  0.9716  1.1495
 2476TIP3    H2 7435   5.803   4.668   0.483  1.2084  1.2723 -0.2759
 2477TIP3   OH2 7436   1.925   4.416   1.349 -0.5201  0.1479  0.5086
 2477TIP3    H1 7437   1.972   4.439   1.429 -0.4729  0.6697  0.3352
 2477TIP3    H2 7438   1.916   4.499   1.302 -1.3591  0.0107  0.4062
 2478TIP3   OH2 7439   5.585   3.042   2.846 -0.1929  0.0356  0.3314
 2478TIP3    H1 7440   5.665   2.991   2.835  0.0247  0.5148 -0.3705
 2478TIP3    H2 7441   5.594   3.115   2.785 -0.6837  0.6887  1.0166
 2479TIP3   OH2 7442   4.716   2.592   1.136  0.1786 -0.3062  0.0422
 2479TIP3    H1 7443   4.659   2.553   1.202 -1.7819 -1.0366 -1.9227
 2479TIP3    H2 7444   4.754   2.517   1.090  1.0186  0.1760 -0.0688
 2480TIP3   OH2 7445   2.526   2.545   2.902  0.8003  0.1999 -0.0410
 2480TIP3    H1 7446   2.586   2.475   2.875 -0.8202 -0.6782 -1.5770
 2480TIP3    H2 7447   2.576   2.596   2.966  2.1084 -2.2314  0.9876
 2481TIP3   OH2 7448   5.279   5.530   0.838 -0.6188 -0.7603  0.2570
 2481TIP3    H1 7449   5.244   5.581   0.766 -0.6732 -0.6309  0.3735
 2481TIP3    H2 7450   5.345   5.587   0.878  0.8430 -1.5736 -0.8913
 2482TIP3   OH2 7451   1.007   3.498   3.298 -0.0999  0.6235 -0.1986
 2482TIP3    H1 7452   1.050   3.414   3.284 -0.6326  0.4766 -1.0391
 2482TIP3    H2 7453   1.052   3.536   3.373  0.5142 -0.1666 -0.1552
 2483TIP3   OH2 7454   4.086   5.656   0.922  0.1959  0.5119 -0.0900
 2483TIP3    H1 7455   4.166   5.699   0.951 -0.2881  1.2088  0.2344
 2483TIP3    H2 7456   4.023   5.672   0.993 -0.5189  0.8288 -0.7829
 2484TIP3   OH2 7457   3.403   1.717   0.062  0.3583 -0.1695 -1.0931
 2484TIP3    H1 7458   3.340   1.788   0.079  0.9148  0.3132 -1.0380
 2484TIP3    H2 7459   3.468   1.726   0.131 -0.5137 -1.8737  0.0291
 2485TIP3   OH2 7460   0.348   3.989   3.807 -0.1245 -0.3078  0.0718
 2485TIP3    H1 7461   0.403   4.065   3.788 -0.0228 -0.5108 -0.4392
 2485TIP3    H2 7462   0.391   3.916   3.764 -0.3113 -0.6314  0.4276
 2486TIP3   OH2 7463   2.902   4.964   2.252  0.2137 -0.4721 -0.0701
 2486TIP3    H1 7464   2.950   5.037   2.215  0.8775 -0.2555  1.1646
 2486TIP3    H2 7465   2.844   5.004   2.317 -0.2105 -0.9310 -0.1629
 2487TIP3   OH2 7466   2.403   0.566   2.678  0.4878 -0.1186 -0.4335
 2487TIP3    H1 7467   2.447   0.536   2.599 -1.8741 -0.6354 -1.6662
 2487TIP3    H2 7468   2.327   0.614   2.646 -1.1599 -1.2786  1.4847
 2488TIP3   OH2 7469   4.464   3.865   5.096  0.6084  0.0462  0.4242
 2488TIP3    H1 7470   4.415   3.787   5.072  1.9024 -0.2569 -1.5053
 2488TIP3    H2 7471   4.414   3.937   5.058  1.2330 -0.2028 -0.9431
 2489TIP3   OH2 7472   3.979   1.118   0.248  0.1386  0.1786 -0.1910
 2489TIP3    H1 7473   3.973   1.200   0.296  0.9741  0.2083 -0.1248
 2489TIP3    H2 7474   4.069   1.116   0.215  0.3699 -1.0586  0.4597
 2490TIP3   OH2 7475   1.007   1.267   4.476  0.4008 -0.2890 -0.0129
 2490TIP3    H1 7476   0.955   1.347   4.480 -0.0365 -0.6080  0.6558
 2490TIP3    H2 7477   0.943   1.196   4.481  0.9287 -0.6850  1.2737
 2491TIP3   OH2 7478   1.575   4.300   2.345  0.0762 -0.1613  0.2155
 2491TIP3    H1 7479   1.522   4.258   2.413 -1.4617  0.5369 -0.5083
 2491TIP3    H2 7480   1.663   4.262   2.357 -0.5894 -1.4645  1.3550
 2492TIP3   OH2 7481   0.142   0.648   4.395  0.2017  0.5530 -0.1326
 2492TIP3    H1 7482   0.207   0.637   4.326  0.8818  1.6858  0.2987
 2492TIP3    H2 7483   0.063   0.678   4.349  0.6951  1.4523 -0.4108
 2493TIP3   OH2 7484   2.504   0.420   4.797  0.3055  0.1095 -0.1554
 2493TIP3    H1 7485   2.495   0.339   4.748 -1.5344 -0.4570  1.0224
 2493TIP3    H2 7486   2.548   0.480   4.736  0.8098 -1.4454 -1.3895
 2494TIP3   OH2 7487   5.011   2.188   3.033  0.1604 -0.4015 -0.2083
 2494TIP3    H1 7488   5.084   2.159   2.980 -0.7366 -0.7344 -1.2934
 2494TIP3    H2 7489   5.033   2.160   3.122  1.9281  0.6316 -0.2679
 2495TIP3   OH2 7490   3.336   3.130   2.635 -0.0917 -0.4844  0.2456
 2495TIP3    H1 7491   3.405   3.118   2.700  1.1939  2.8258 -0.3064
 2495TIP3    H2 7492   3.255   3.131   2.686  0.7687  0.7840  1.6670
 2496TIP3   OH2 7493   1.226   4.912   3.145  0.6723 -0.2712 -0.2120
 2496TIP3    H1 7494   1.218   4.848   3.216 -0.6013 -0.7126 -0.7175
 2496TIP3    H2 7495   1.207   4.861   3.065  0.6948  0.5125 -0.7277
 2497TIP3   OH2 7496   3.645   2.726   0.374 -0.0279  0.8131 -0.5975
 2497TIP3    H1 7497   3.658   2.710   0.467 -0.0827  0.8972 -0.5747
 2497TIP3    H2 7498   3.640   2.821   0.366  1.3854  0.8755 -0.8857
 2498TIP3   OH2 7499   4.052   2.131   4.525 -0.2174  0.2876  0.6467
 2498TIP3    H1 7500   4.056   2.136   4.429  0.3164  0.0536  0.6527
 2498TIP3    H2 7501   4.142   2.110   4.552 -0.0465  1.7544  1.2995
 2499TIP3   OH2 7502   3.479   2.585   1.343 -0.0975  0.0897 -0.0094
 2499TIP3    H1 7503   3.574   2.584   1.343 -0.0899 -0.9450  0.8126
 2499TIP3    H2 7504   3.454   2.529   1.269 -0.1046  1.4521 -1.0878
 2500TIP3   OH2 7505   2.248   1.096   3.465 -0.2331 -0.5913 -0.0351
 2500TIP3    H1 7506   2.226   1.014   3.421 -0.4193  0.2160 -1.5246
 2500TIP3    H2 7507   2.339   1.085   3.492 -0.5222 -1.6049  0.5938
 2501TIP3   OH2 7508   1.564   1.862   0.501  0.3607 -0.0563  0.2774
 2501TIP3    H1 7509   1.474   1.850   0.472  0.8626 -1.2146 -0.8877
 2501TIP3    H2 7510   1.611   1.785   0.469  2.2108  1.5091 -1.0431
 2502TIP3   OH2 7511   4.708   0.573   5.072 -0.3496  0.7056 -0.5455
 2502TIP3    H1 7512   4.715   0.649   5.014  0.1422  0.6409 -0.5755
 2502TIP3    H2 7513   4.684   0.501   5.014  1.8868  0.2598 -0.9897
 2503TIP3   OH2 7514   5.247   2.699   2.098 -0.5700  0.0207  0.2549
 2503TIP3    H1 7515   5.241   2.614   2.141  0.0799 -0.0502  0.2248
 2503TIP3    H2 7516   5.301   2.682   2.020  0.4150  0.6393  0.7755
 2504TIP3   OH2 7517   2.957   4.493   5.110 -0.0362 -0.3859  0.0966
 2504TIP3    H1 7518   3.049   4.490   5.084 -0.3626 -0.3281 -1.1151
 2504TIP3    H2 7519   2.960   4.514   5.204  1.1686 -0.0003 -0.0037
 2505TIP3   OH2 7520   2.334   0.029   2.851  0.6815  0.7096  0.6332
 2505TIP3    H1 7521   2.366  -0.001   2.766  1.2779  0.1879  1.0380
 2505TIP3    H2 7522   2.259   0.085   2.829  0.7656  0.5061 -0.2278
 2506TIP3   OH2 7523   4.361   1.532   2.127 -0.2686 -0.0592  0.0315
 2506TIP3    H1 7524   4.354   1.588   2.204 -1.3028 -1.1862  0.8041
 2506TIP3    H2 7525   4.399   1.450   2.161  0.4595 -0.1246 -0.9057
 2507TIP3   OH2 7526   2.258   0.303   3.697 -0.1102  0.1001 -0.5345
 2507TIP3    H1 7527   2.195   0.330   3.630 -0.2696  0.9947 -0.0428
 2507TIP3    H2 7528   2.204   0.259   3.763 -0.1064  0.1326 -0.5096
 2508TIP3   OH2 7529   1.416   5.490   0.488  0.4191  0.2371  0.0697
 2508TIP3    H1 7530   1.470   5.482   0.409 -0.3200  0.4169 -0.4579
 2508TIP3    H2 7531   1.373   5.405   0.496  1.6741 -0.3387  1.1728
 2509TIP3   OH2 7532   2.157   2.647   1.596 -0.6102  0.5318  0.2258
 2509TIP3    H1 7533   2.224   2.661   1.529 -0.8170 -1.6639 -0.4964
 2509TIP3    H2 7534   2.202   2.667   1.679  1.4320 -2.0619 -0.1119
 2510TIP3   OH2 7535   5.439   0.795   3.588 -0.4592  0.2263  0.2645
 2510TIP3    H1 7536   5.467   0.822   3.500 -2.7474 -0.0919 -0.6191
 2510TIP3    H2 7537   5.487   0.854   3.647  0.6659  0.8589 -1.2163
 2511TIP3   OH2 7538   0.960   5.775   3.208 -0.2232  0.7808 -0.5712
 2511TIP3    H1 7539   0.879   5.726   3.193 -0.0583  0.4793 -0.4843
 2511TIP3    H2 7540   0.953   5.851   3.150  0.0755  0.0105 -1.6475
 2512TIP3   OH2 7541   0.759   0.460   0.618 -0.2535 -0.7260 -0.5373
 2512TIP3    H1 7542   0.715   0.438   0.700  0.4239 -0.3809 -0.0734
 2512TIP3    H2 7543   0.746   0.383   0.563 -1.0299 -0.8121 -0.2397
 2513TIP3   OH2 7544   5.062   0.163   4.997 -0.5814 -0.4473  0.0080
 2513TIP3    H1 7545   5.089   0.165   5.089  0.5104  0.1588 -0.3211
 2513TIP3    H2 7546   4.981   0.215   4.995 -2.0859 -2.5550  1.0511
 2514TIP3   OH2 7547   0.863   0.923   1.414 -0.1395 -0.1402 -0.0317
 2514TIP3    H1 7548   0.840   0.830   1.404 -1.7869  0.3006 -0.5515
 2514TIP3    H2 7549   0.895   0.948   1.327 -0.1366 -0.1025 -0.0194
 2515TIP3   OH2 7550   2.714   4.144   1.700  0.4264  0.5234 -0.1966
 2515TIP3    H1 7551   2.779   4.091   1.746 -0.4375 -1.0130 -0.6484
 2515TIP3    H2 7552   2.676   4.200   1.767  0.3682 -0.4673  0.6246
 2516TIP3   OH2 7553   3.634   4.384   0.663  0.4434  0.2427 -0.0460
 2516TIP3    H1 7554   3.645   4.477   0.641  0.5491  0.4402  0.8144
 2516TIP3    H2 7555   3.724   4.353   0.679  0.3726  0.1020  0.0807
 2517TIP3   OH2 7556   4.456   1.218   2.566  0.2280  0.4438  0.4032
 2517TIP3    H1 7557   4.516   1.162   2.615  1.2991  1.6053  0.4566
 2517TIP3    H2 7558   4.382   1.231   2.624  0.6941  0.3705  1.0205
 2518TIP3   OH2 7559   6.316   3.416   2.409 -0.2564  0.5218  0.1715
 2518TIP3    H1 7560   6.391   3.397   2.466  0.1522 -2.6077 -1.2152
 2518TIP3    H2 7561   6.240   3.412   2.467  0.3178 -0.6893  0.8824
 2519TIP3   OH2 7562   1.995   4.580   0.105 -0.3432 -0.6285  0.3152
 2519TIP3    H1 7563   2.006   4.489   0.134 -0.6147 -0.1937  1.8662
 2519TIP3    H2 7564   2.014   4.632   0.182  2.3289  0.8051 -1.1394
 2520TIP3   OH2 7565   0.385   4.817   4.520 -0.2394  0.3330  0.3721
 2520TIP3    H1 7566   0.436   4.895   4.499 -0.6193  0.4329 -0.1871
 2520TIP3    H2 7567   0.303   4.850   4.555 -1.2643  0.2585 -1.7993
 2521TIP3   OH2 7568   5.928   2.524   0.337  0.6017 -0.6169 -0.2462
 2521TIP3    H1 7569   6.020   2.501   0.352  0.1768 -2.0308  0.3687
 2521TIP3    H2 7570   5.931   2.616   0.310  1.9736  0.2572  2.4836
 2522TIP3   OH2 7571   3.044   1.265   0.479 -0.2564 -0.3032  0.6795
 2522TIP3    H1 7572   2.989   1.340   0.459 -1.1743 -0.6058  1.9089
 2522TIP3    H2 7573   2.997   1.190   0.443  0.9795 -0.2654 -1.1310
 2523TIP3   OH2 7574   0.550   4.586   1.644 -0.3070  0.3836 -0.3347
 2523TIP3    H1 7575   0.478   4.609   1.584  1.0153  1.9448 -1.4365
 2523TIP3    H2 7576   0.508   4.538   1.715 -2.6248  2.1371 -0.3858
 2524TIP3   OH2 7577   1.461   5.737   3.180 -0.5596  0.0350 -0.3113
 2524TIP3    H1 7578   1.509   5.658   3.157  0.1923  0.0114  1.2317
 2524TIP3    H2 7579   1.518   5.784   3.241 -2.1849  0.3383  1.0437
 2525TIP3   OH2 7580   6.074   3.309   1.453 -0.1047  0.1833  0.2783
 2525TIP3    H1 7581   6.037   3.281   1.370 -1.2803 -0.2190  0.9165
 2525TIP3    H2 7582   6.122   3.233   1.485  0.2215  0.2895  0.0494
 2526TIP3   OH2 7583   2.978   0.750   4.557  0.0889  0.0344  0.1373
 2526TIP3    H1 7584   3.056   0.804   4.541  0.9650 -0.9673  0.8867
 2526TIP3    H2 7585   2.931   0.751   4.474  0.5974  1.1319 -0.1586
 2527TIP3   OH2 7586   3.107   0.781   3.286  0.3189  0.1958 -0.8120
 2527TIP3    H1 7587   3.193   0.783   3.327 -0.0619  0.3875 -0.0115
 2527TIP3    H2 7588   3.062   0.858   3.319 -0.0535  0.2796 -1.4828
 2528TIP3   OH2 7589   3.254   1.875   0.692  0.0656 -0.6127 -0.4567
 2528TIP3    H1 7590   3.327   1.911   0.742  1.1303 -0.3098 -2.1604
 2528TIP3    H2 7591   3.176   1.918   0.729  0.9813  0.8403 -0.1548
 2529TIP3   OH2 7592   6.197   2.019   4.250  0.2467  0.0799  0.0122
 2529TIP3    H1 7593   6.143   1.941   4.239 -1.1771  0.8944  0.9921
 2529TIP3    H2 7594   6.266   2.009   4.184  0.3154 -2.1625  0.3378
 2530TIP3   OH2 7595   2.632   5.337   2.306 -0.0203 -0.0839  0.4059
 2530TIP3    H1 7596   2.559   5.366   2.251  0.7048 -1.5580 -1.4803
 2530TIP3    H2 7597   2.608   5.249   2.333  0.2289  0.1368  1.3730
 2531TIP3   OH2 7598   0.802   5.419   2.955 -0.2251 -0.3609 -0.6357
 2531TIP3    H1 7599   0.881   5.463   2.986 -0.4934 -1.4887  1.8551
 2531TIP3    H2 7600   0.829   5.374   2.875  0.5130  2.6331 -2.2210
 2532TIP3   OH2 7601   2.335   0.569   3.155  0.4131 -0.8932  0.4336
 2532TIP3    H1 7602   2.388   0.604   3.083  2.0098 -1.8596  1.0876
 2532TIP3    H2 7603   2.398   0.525   3.212 -0.6568  0.5328  2.8785
 2533TIP3   OH2 7604   1.825   4.113   0.152 -0.3592  0.7465 -0.5137
 2533TIP3    H1 7605   1.753   4.174   0.164 -0.5803  0.1747  1.3005
 2533TIP3    H2 7606   1.829   4.064   0.234  0.7428 -0.6775 -1.3839
 2534TIP3   OH2 7607   0.500   2.429   0.175 -0.1023 -0.1524  0.0581
 2534TIP3    H1 7608   0.478   2.441   0.082  0.0608 -0.1863  0.0153
 2534TIP3    H2 7609   0.459   2.505   0.218 -1.1232 -0.7135  0.1144
 2535TIP3   OH2 7610   0.870   1.668   2.191  0.4338 -0.3097 -0.0432
 2535TIP3    H1 7611   0.915   1.730   2.135  0.7059 -0.0765  0.4311
 2535TIP3    H2 7612   0.793   1.715   2.223 -0.5923 -0.9509 -1.4562
 2536TIP3   OH2 7613   5.518   4.191   4.482  0.4398  1.3771  0.0565
 2536TIP3    H1 7614   5.426   4.214   4.496  0.3100  0.5364  0.6415
 2536TIP3    H2 7615   5.562   4.276   4.475 -0.3397  1.7932  0.0212
 2537TIP3   OH2 7616   4.702   4.553   2.183  0.5222  0.0578 -0.2352
 2537TIP3    H1 7617   4.643   4.523   2.113  2.2802 -0.3034 -1.6126
 2537TIP3    H2 7618   4.734   4.473   2.223 -2.3397  0.2073  2.7686
 2538TIP3   OH2 7619   3.849   1.943   2.241 -0.1785 -0.2350 -0.2407
 2538TIP3    H1 7620   3.936   1.973   2.268  0.1692 -0.5826 -0.9491
 2538TIP3    H2 7621   3.822   1.882   2.309 -0.7790  1.4406  1.0819
 2539TIP3   OH2 7622   2.405   4.984   0.161 -0.2491 -0.1662  0.3842
 2539TIP3    H1 7623   2.369   4.896   0.160  0.3018 -0.4218  1.8608
 2539TIP3    H2 7624   2.459   4.988   0.082 -1.2354 -0.7181 -0.3477
 2540TIP3   OH2 7625   5.315   4.062   5.052  0.0830 -0.0774 -0.5172
 2540TIP3    H1 7626   5.293   4.150   5.021 -0.5341  0.0606  0.2833
 2540TIP3    H2 7627   5.305   4.006   4.975 -0.6928  0.3694 -0.7486
 2541TIP3   OH2 7628   4.421   3.510   1.623  0.2473  0.1701 -0.4592
 2541TIP3    H1 7629   4.338   3.465   1.612 -0.0491  1.1782 -3.1074
 2541TIP3    H2 7630   4.424   3.573   1.551  2.4168  1.5722  0.7374
 2542TIP3   OH2 7631   5.895   5.697   1.185 -0.4121 -0.5433 -0.0293
 2542TIP3    H1 7632   5.858   5.762   1.126 -0.3519 -0.1314  0.3799
 2542TIP3    H2 7633   5.936   5.749   1.255  0.2900 -1.0015 -0.0926
 2543TIP3   OH2 7634   2.680   2.452   4.509  0.0344  0.4105 -0.3801
 2543TIP3    H1 7635   2.684   2.547   4.504  0.1680  0.4155 -0.1767
 2543TIP3    H2 7636   2.742   2.428   4.578  1.2216  0.0755 -1.5215
 2544TIP3   OH2 7637   0.118   5.904   4.481 -0.2320 -0.4657  0.5587
 2544TIP3    H1 7638   0.064   5.826   4.477  0.8387 -1.1956 -0.7711
 2544TIP3    H2 7639   0.090   5.956   4.405  0.0551 -0.2496  0.5973
 2545TIP3   OH2 7640   0.592   2.544   2.000  0.2230  0.2528  0.4857
 2545TIP3    H1 7641   0.534   2.471   2.024  0.5739  0.0310  0.6638
 2545TIP3    H2 7642   0.636   2.515   1.920  0.6669  0.0976  0.7830
 2546TIP3   OH2 7643   2.352   3.753   3.474 -0.1241 -0.6294 -0.2921
 2546TIP3    H1 7644   2.348   3.710   3.388 -2.9596  0.0878 -0.6273
 2546TIP3    H2 7645   2.306   3.836   3.461  1.1897  0.4434  1.4758
 2547TIP3   OH2 7646   4.603   3.432   0.173 -0.2592 -0.5549 -0.2198
 2547TIP3    H1 7647   4.602   3.500   0.106  0.2133 -0.6488 -0.3238
 2547TIP3    H2 7648   4.680   3.379   0.153  0.5163  0.0520  1.0198
 2548TIP3   OH2 7649   5.592   5.751   2.256 -0.3246 -0.6108  0.2866
 2548TIP3    H1 7650   5.634   5.810   2.193 -0.9165  0.3640  0.7865
 2548TIP3    H2 7651   5.662   5.690   2.281  0.0761 -0.6431 -0.8563
 2549TIP3   OH2 7652   2.730   3.470   4.623 -0.0001  0.2560 -0.6364
 2549TIP3    H1 7653   2.738   3.409   4.697 -0.4508  1.2833  0.2842
 2549TIP3    H2 7654   2.702   3.415   4.550 -0.7560 -0.5955  0.2597
 2550TIP3   OH2 7655   3.834   5.924   3.328 -0.0671  0.0320  0.0750
 2550TIP3    H1 7656   3.758   5.957   3.280  0.0382 -1.0099 -0.8564
 2550TIP3    H2 7657   3.798   5.892   3.411 -0.7172 -0.7451 -0.4886
 2551TIP3   OH2 7658   2.952   3.585   0.416 -0.0908 -0.7840  0.5541
 2551TIP3    H1 7659   2.901   3.593   0.497 -1.3611 -1.5102 -0.1284
 2551TIP3    H2 7660   2.981   3.674   0.398 -2.3638 -0.0189  0.2485
 2552TIP3   OH2 7661   0.463   1.455   1.347 -0.1008  0.4877  0.7136
 2552TIP3    H1 7662   0.386   1.504   1.320 -1.5590 -0.9772  1.9919
 2552TIP3    H2 7663   0.494   1.412   1.268 -0.6509  0.9987  0.2152
 2553TIP3   OH2 7664   1.224   2.390   2.541 -0.4581  0.6593  0.5947
 2553TIP3    H1 7665   1.202   2.301   2.567  0.8201  0.0467 -0.2936
 2553TIP3    H2 7666   1.141   2.429   2.515 -0.6762 -1.4363 -2.3889
 2554TIP3   OH2 7667   2.357   1.738   2.586 -0.0068 -0.4916 -1.0775
 2554TIP3    H1 7668   2.279   1.752   2.641  0.3596  0.2481 -0.7374
 2554TIP3    H2 7669   2.420   1.697   2.644  0.4942  0.5838 -0.8406
 2555TIP3   OH2 7670   0.840   5.441   4.785 -0.4765 -0.4843 -0.1923
 2555TIP3    H1 7671   0.791   5.359   4.787 -0.5358 -0.4323  0.8525
 2555TIP3    H2 7672   0.803   5.494   4.856  0.2923  0.0171 -0.1468
 2556TIP3   OH2 7673   3.630   0.756   4.837  0.2667  0.2244 -0.4089
 2556TIP3    H1 7674   3.568   0.736   4.907  1.1088  1.0367  0.5963
 2556TIP3    H2 7675   3.593   0.714   4.760 -1.5216  0.6896  0.1665
 2557TIP3   OH2 7676   4.385   2.815   5.100 -0.2640 -0.3335 -0.0340
 2557TIP3    H1 7677   4.359   2.723   5.093  2.2883 -1.0442 -2.3821
 2557TIP3    H2 7678   4.442   2.818   5.177  1.8530 -1.4762 -1.4429
 2558TIP3   OH2 7679   2.415   4.109   3.694  0.3835  0.7628 -0.2976
 2558TIP3    H1 7680   2.320   4.118   3.704  0.0134 -1.8842 -0.5322
 2558TIP3    H2 7681   2.436   4.158   3.615 -1.3793 -1.0103 -2.0051
 2559TIP3   OH2 7682   5.133   0.857   0.075  0.0988 -0.0466  0.4397
 2559TIP3    H1 7683   5.166   0.846   0.164 -0.4982 -1.2333  0.5361
 2559TIP3    H2 7684   5.137   0.951   0.059  1.3205  0.0679  1.2827
 2560TIP3   OH2 7685   5.823   4.007   1.084 -0.2098 -0.0594 -0.5139
 2560TIP3    H1 7686   5.834   3.922   1.127 -0.9650  0.4121  0.6911
 2560TIP3    H2 7687   5.737   4.001   1.042 -0.1652  0.0188 -0.6142
 2561TIP3   OH2 7688   2.807   5.246   0.672 -0.3194 -0.0399 -0.0997
 2561TIP3    H1 7689   2.863   5.289   0.608 -0.0992  0.6699  0.5538
 2561TIP3    H2 7690   2.737   5.206   0.621 -0.2540  0.6827 -0.7562
 2562TIP3   OH2 7691   0.315   5.210   4.031 -0.0861 -0.3255  0.3465
 2562TIP3    H1 7692   0.328   5.116   4.039  1.1706 -0.0711  1.6460
 2562TIP3    H2 7693   0.306   5.241   4.121 -0.5495  0.7873 -0.0662
 2563TIP3   OH2 7694   0.315   5.665   0.143  0.6151 -0.1366 -0.6927
 2563TIP3    H1 7695   0.344   5.743   0.190  0.7477  0.7958 -2.2567
 2563TIP3    H2 7696   0.248   5.627   0.200  0.4134  1.2127  0.0170
 2564TIP3   OH2 7697   0.587   1.237   1.725 -0.1535 -0.0628 -0.5842
 2564TIP3    H1 7698   0.620   1.153   1.696  0.5470  0.2383 -0.6848
 2564TIP3    H2 7699   0.658   1.274   1.779  0.0650  0.9973 -1.5589
 2565TIP3   OH2 7700   2.945   1.071   1.898 -0.1654 -0.1625 -0.5137
 2565TIP3    H1 7701   2.879   1.101   1.835  0.0574 -1.2941 -1.3156
 2565TIP3    H2 7702   2.970   0.984   1.867 -0.9472 -1.3143  1.8426
 2566TIP3   OH2 7703   1.689   5.822   2.889  0.5925 -0.0612 -0.1749
 2566TIP3    H1 7704   1.688   5.840   2.983  0.2217 -1.4756  0.1213
 2566TIP3    H2 7705   1.634   5.890   2.851  0.3173  0.2202  0.6940
 2567TIP3   OH2 7706   2.462   3.349   4.491 -0.1205  0.6261 -0.0344
 2567TIP3    H1 7707   2.394   3.334   4.425  0.3719  0.3335 -0.4787
 2567TIP3    H2 7708   2.517   3.418   4.455  0.0207  0.6233  0.1723
 2568TIP3   OH2 7709   1.233   2.570   3.541  0.8131 -0.0240 -0.0584
 2568TIP3    H1 7710   1.232   2.649   3.596 -0.3504  1.2796 -1.8429
 2568TIP3    H2 7711   1.277   2.597   3.460 -0.2177 -0.9958 -0.9811
 2569TIP3   OH2 7712   0.589   1.459   3.699 -0.3418  0.4143 -0.0650
 2569TIP3    H1 7713   0.555   1.417   3.620  0.7001 -0.8799  0.1418
 2569TIP3    H2 7714   0.513   1.464   3.758 -0.5663 -0.9606 -0.2082
 2570TIP3   OH2 7715   3.602   1.639   0.794  0.2652  0.8130  0.4119
 2570TIP3    H1 7716   3.669   1.596   0.741 -0.3877  0.8607 -0.4807
 2570TIP3    H2 7717   3.648   1.710   0.839  0.4498  2.2596 -1.8851
 2571TIP3   OH2 7718   2.693   0.167   1.726  0.3710  0.2300  0.0300
 2571TIP3    H1 7719   2.740   0.090   1.693 -0.2476 -0.0456 -0.2245
 2571TIP3    H2 7720   2.701   0.161   1.821  1.9029  0.8614 -0.0294
 2572TIP3   OH2 7721   5.833   3.213   3.811  0.2263  0.1596 -0.5722
 2572TIP3    H1 7722   5.864   3.193   3.723  0.0575 -0.1144 -0.5689
 2572TIP3    H2 7723   5.743   3.243   3.799 -0.0431 -0.5658 -0.4255
 2573TIP3   OH2 7724   2.545   5.389   1.603 -0.1555  0.1771 -0.2097
 2573TIP3    H1 7725   2.501   5.335   1.538  0.5177  0.2064 -0.6914
 2573TIP3    H2 7726   2.603   5.446   1.553 -1.3649  1.8643  0.2031
 2574TIP3   OH2 7727   3.369   0.462   4.767  0.0289  0.6146 -0.1047
 2574TIP3    H1 7728   3.326   0.511   4.838 -0.1447  1.7235 -0.9503
 2574TIP3    H2 7729   3.335   0.373   4.776 -0.3085  0.8331  0.9483
 2575TIP3   OH2 7730   5.982   1.517   2.957  0.0603 -0.6598  0.3053
 2575TIP3    H1 7731   5.918   1.586   2.941 -0.1080 -0.4278  1.7805
 2575TIP3    H2 7732   5.930   1.444   2.990  0.4328 -0.8597  0.4528
 2576TIP3   OH2 7733   4.093   2.703   0.167  0.0429 -0.4235  0.0843
 2576TIP3    H1 7734   4.032   2.758   0.117  1.1422 -0.8904 -1.8925
 2576TIP3    H2 7735   4.038   2.634   0.205 -1.1192  1.1219  1.2972
 2577TIP3   OH2 7736   0.865   4.003   2.306  0.1513  0.1801  0.5693
 2577TIP3    H1 7737   0.929   3.931   2.302 -1.3179 -1.1377 -0.1318
 2577TIP3    H2 7738   0.847   4.013   2.399  1.1475  0.3789  0.7564
 2578TIP3   OH2 7739   4.047   0.919   3.680  0.5499 -0.6443 -0.6580
 2578TIP3    H1 7740   4.119   0.970   3.643  0.5319 -0.6633 -0.7186
 2578TIP3    H2 7741   4.008   0.874   3.605 -0.3570  0.3919 -0.8236
 2579TIP3   OH2 7742   5.133   4.661   2.082  0.7957 -0.3264  0.0493
 2579TIP3    H1 7743   5.188   4.605   2.026 -1.0957 -2.4078  0.1428
 2579TIP3    H2 7744   5.110   4.735   2.026 -0.9561 -2.2999 -2.0125
 2580TIP3   OH2 7745   2.343   2.496   0.176 -0.9014  0.3820 -0.0261
 2580TIP3    H1 7746   2.362   2.432   0.108 -0.0935 -2.2311  2.4558
 2580TIP3    H2 7747   2.412   2.561   0.169 -0.1737 -0.4700 -0.9691
 2581TIP3   OH2 7748   5.812   2.234   3.857  0.3324  0.0325 -0.5909
 2581TIP3    H1 7749   5.858   2.183   3.924 -0.1740  0.1775 -0.1278
 2581TIP3    H2 7750   5.774   2.168   3.799  0.9801 -0.0907 -0.8870
 2582TIP3   OH2 7751   3.259   5.804   4.451  0.3129  0.0716  0.1456
 2582TIP3    H1 7752   3.219   5.725   4.487  0.4668  1.2092  3.0771
 2582TIP3    H2 7753   3.185   5.861   4.429  0.2278 -0.4923 -1.1109
 2583TIP3   OH2 7754   4.291   4.602   0.438 -0.3311 -0.1477  0.3605
 2583TIP3    H1 7755   4.220   4.602   0.502 -0.3087 -0.5564  0.3865
 2583TIP3    H2 7756   4.249   4.624   0.355 -0.6471 -1.2511  0.2114
 2584TIP3   OH2 7757   0.860   4.928   4.363 -0.5953  0.4834  0.1933
 2584TIP3    H1 7758   0.915   5.007   4.363  1.4054 -0.8234 -1.2031
 2584TIP3    H2 7759   0.858   4.901   4.455  1.3869  0.4518  0.2867
 2585TIP3   OH2 7760   3.303   1.578   2.309 -0.3193  0.1388 -0.0509
 2585TIP3    H1 7761   3.397   1.579   2.288 -0.6641 -2.7133 -2.3603
 2585TIP3    H2 7762   3.265   1.645   2.253  0.1054 -0.0232 -0.5362
 2586TIP3   OH2 7763   0.399   3.087   0.224  0.0367  0.0037 -0.0205
 2586TIP3    H1 7764   0.429   3.031   0.153  0.2382  0.4125 -0.2583
 2586TIP3    H2 7765   0.431   3.044   0.303  2.2311  0.9674 -0.2998
 2587TIP3   OH2 7766   4.081   2.821   0.519  0.2613 -0.6437  0.5065
 2587TIP3    H1 7767   4.133   2.829   0.440  0.1677 -2.3202  0.2414
 2587TIP3    H2 7768   4.145   2.822   0.590  0.4229 -0.1148  0.3587
 2588TIP3   OH2 7769   3.010   4.533   0.407  0.0820  0.8511  0.0777
 2588TIP3    H1 7770   2.978   4.521   0.497  0.1380 -0.5777 -0.0614
 2588TIP3    H2 7771   2.998   4.447   0.366  2.7448  0.6157 -0.4022
 2589TIP3   OH2 7772   0.944   5.692   1.007 -0.0981  0.1865  0.1828
 2589TIP3    H1 7773   0.928   5.695   0.912  2.5819 -1.6889 -0.4521
 2589TIP3    H2 7774   0.898   5.613   1.036 -0.6386  0.5740  0.3822
 2590TIP3   OH2 7775   4.652   4.802   4.627  0.4136 -0.7741 -0.3123
 2590TIP3    H1 7776   4.672   4.859   4.701 -1.4617 -0.4784  0.0208
 2590TIP3    H2 7777   4.715   4.730   4.634  1.8976  0.5217  0.0729
 2591TIP3   OH2 7778   4.491   4.946   3.455  0.0677  0.0442 -0.2351
 2591TIP3    H1 7779   4.577   4.911   3.431  0.6822  2.0102 -1.1606
 2591TIP3    H2 7780   4.472   4.907   3.540  0.4437 -2.8120 -1.3492
 2592TIP3   OH2 7781   3.459   0.771   4.376  0.0116  0.4802  0.2730
 2592TIP3    H1 7782   3.459   0.801   4.285 -0.2195 -0.4507 -0.0376
 2592TIP3    H2 7783   3.522   0.828   4.420  0.5501  0.5630 -0.5977
 2593TIP3   OH2 7784   3.203   1.280   1.286  0.0216  0.0831  0.4627
 2593TIP3    H1 7785   3.191   1.214   1.217  0.8691 -0.3034  0.6615
 2593TIP3    H2 7786   3.115   1.297   1.319 -0.4370  0.5384 -0.9501
 2594TIP3   OH2 7787   4.803   1.962   0.355  0.1978  0.2444 -0.5422
 2594TIP3    H1 7788   4.751   1.913   0.291 -0.9367 -0.3301  0.7804
 2594TIP3    H2 7789   4.871   1.902   0.383  2.1061  1.2044 -2.7553
 2595TIP3   OH2 7790   4.841   5.382   4.547 -0.1316 -0.0263 -0.1696
 2595TIP3    H1 7791   4.879   5.343   4.468  1.8494  1.5792 -0.1102
 2595TIP3    H2 7792   4.760   5.424   4.517 -0.1773 -0.7174 -1.0395
 2596TIP3   OH2 7793   4.810   4.131   2.695  0.0376  0.5772 -0.1152
 2596TIP3    H1 7794   4.818   4.159   2.604 -2.5959 -0.3084 -0.7383
 2596TIP3    H2 7795   4.884   4.073   2.709  1.6019  2.2715 -1.0256
 2597TIP3   OH2 7796   4.961   3.875   0.907 -0.5839  0.2022 -0.2413
 2597TIP3    H1 7797   4.983   3.963   0.875 -0.0933 -0.1578 -0.9384
 2597TIP3    H2 7798   4.936   3.827   0.828 -0.3386 -0.4314  0.0634
 2598TIP3   OH2 7799   3.708   3.893   1.609 -0.2846 -0.3452  0.3443
 2598TIP3    H1 7800   3.785   3.925   1.656 -0.1446 -0.1521 -0.0167
 2598TIP3    H2 7801   3.639   3.892   1.676 -0.3355  0.8724  0.3421
 2599TIP3   OH2 7802  -0.014   1.712   3.128  0.8574 -0.1975 -0.1909
 2599TIP3    H1 7803  -0.045   1.679   3.043  1.3129  1.5976 -1.1091
 2599TIP3    H2 7804   0.078   1.734   3.113  0.0082  3.8519 -0.4959
 2600TIP3   OH2 7805   5.778   5.269   3.153  0.5841 -0.0794  0.0156
 2600TIP3    H1 7806   5.821   5.266   3.238  0.9110 -2.8758 -0.1470
 2600TIP3    H2 7807   5.817   5.197   3.104 -1.0354  0.1905 -1.7787
 2601TIP3   OH2 7808   1.769   5.463   3.912 -0.0434 -0.3545  0.5693
 2601TIP3    H1 7809   1.681   5.444   3.946 -0.6183 -0.4181 -0.8641
 2601TIP3    H2 7810   1.828   5.445   3.985 -1.1779 -0.9377  1.3659
 2602TIP3   OH2 7811   0.323   4.610   4.748  0.8643 -0.2539  0.0167
 2602TIP3    H1 7812   0.287   4.666   4.816  0.6802 -0.7112  0.3007
 2602TIP3    H2 7813   0.339   4.669   4.674  0.0315  0.0445  0.0715
 2603TIP3   OH2 7814   3.998   2.529   0.622 -0.4576 -0.1427 -0.0433
 2603TIP3    H1 7815   4.090   2.558   0.621 -0.9078  1.4070 -1.3564
 2603TIP3    H2 7816   3.951   2.602   0.661 -1.0316 -1.4156  1.7361
 2604TIP3   OH2 7817   5.512   5.709   3.563  0.5776 -0.0827 -0.2885
 2604TIP3    H1 7818   5.439   5.647   3.557  0.3924 -0.0023  0.9317
 2604TIP3    H2 7819   5.497   5.770   3.491  0.2873 -0.9410 -0.9830
 2605TIP3   OH2 7820   3.635   2.069   3.800  0.4512  0.4374 -0.3268
 2605TIP3    H1 7821   3.641   2.107   3.888 -1.8843  1.8251 -0.6611
 2605TIP3    H2 7822   3.609   2.142   3.744 -0.4427 -0.8783 -1.7236
 2606TIP3   OH2 7823   1.222   2.003   3.172 -0.2747 -0.1350  0.0577
 2606TIP3    H1 7824   1.185   2.081   3.214 -0.6864 -0.4307  0.2583
 2606TIP3    H2 7825   1.311   2.028   3.149 -1.3382  1.4697 -2.7678
 2607TIP3   OH2 7826   1.912   0.227   2.087 -0.7136 -0.1889 -0.3443
 2607TIP3    H1 7827   1.994   0.207   2.043  0.5133  0.4469  1.4980
 2607TIP3    H2 7828   1.858   0.269   2.021  0.3837 -0.7802 -1.6502
 2608TIP3   OH2 7829   5.619   1.485   3.042  0.7520 -0.0584  0.2837
 2608TIP3    H1 7830   5.679   1.539   2.990 -0.4289  2.0689  1.0001
 2608TIP3    H2 7831   5.580   1.546   3.104 -0.8905 -1.7220  0.9792
 2609TIP3   OH2 7832   1.959   0.643   2.322  0.2829 -0.7179  0.1087
 2609TIP3    H1 7833   2.005   0.648   2.238  0.7202  1.3404  0.4026
 2609TIP3    H2 7834   1.867   0.632   2.298 -0.0060  2.5703 -0.8700
 2610TIP3   OH2 7835   1.014   1.506   2.021  0.2294  0.3984 -0.6123
 2610TIP3    H1 7836   0.961   1.537   2.094 -1.9827 -2.1387 -0.9613
 2610TIP3    H2 7837   0.987   1.560   1.947 -1.9415 -0.7482 -0.7520
 2611TIP3   OH2 7838   1.487   2.747   3.925 -0.3472  0.4044 -0.7371
 2611TIP3    H1 7839   1.467   2.662   3.887 -1.3717 -0.2533  1.1176
 2611TIP3    H2 7840   1.542   2.791   3.860  0.2189 -1.6609 -1.7283
 2612TIP3   OH2 7841   2.623   4.089   0.023 -0.2805  0.0893  0.2361
 2612TIP3    H1 7842   2.575   4.007   0.014 -0.1246  0.1177 -1.0592
 2612TIP3    H2 7843   2.670   4.080   0.106 -0.4282 -1.0428  0.2149
 2613TIP3   OH2 7844   0.697   0.683   0.463 -0.3565 -0.3107  0.6236
 2613TIP3    H1 7845   0.702   0.601   0.511  0.4398 -1.7653 -1.7586
 2613TIP3    H2 7846   0.654   0.661   0.381 -0.2206  1.6859 -0.0523
 2614TIP3   OH2 7847   1.489   0.620   2.282 -0.3246  0.2532  0.3002
 2614TIP3    H1 7848   1.431   0.578   2.346 -1.5067 -0.9906 -1.4757
 2614TIP3    H2 7849   1.450   0.706   2.267 -0.8224  0.0260  0.2640
 2615TIP3   OH2 7850   4.644   5.921   0.868  0.3682  0.2167 -0.3115
 2615TIP3    H1 7851   4.598   5.909   0.784  1.0305  1.3454 -0.8589
 2615TIP3    H2 7852   4.588   5.982   0.917  1.0795  1.3628 -0.8644
 2616TIP3   OH2 7853   4.672   1.792   4.682 -0.6321 -0.3710 -1.0749
 2616TIP3    H1 7854   4.748   1.833   4.724 -0.4251 -2.4408  0.7275
 2616TIP3    H2 7855   4.647   1.854   4.614  1.1188  1.5680 -0.0821
 2617TIP3   OH2 7856   3.029   2.985   4.415  0.4010  0.0673  0.0847
 2617TIP3    H1 7857   2.988   3.061   4.456  1.3336  0.4705  0.3011
 2617TIP3    H2 7858   3.123   3.003   4.420  0.6230 -0.9770 -0.1003
 2618TIP3   OH2 7859   3.159   4.635   4.471 -0.9905  0.4129  0.1808
 2618TIP3    H1 7860   3.085   4.631   4.409  0.0497  1.1187 -1.1606
 2618TIP3    H2 7861   3.232   4.594   4.424  0.4771  3.1164 -0.0979
 2619TIP3   OH2 7862   3.215   1.852   3.351 -0.1073  0.6842 -0.1000
 2619TIP3    H1 7863   3.302   1.888   3.368 -0.0748  0.9439 -0.7934
 2619TIP3    H2 7864   3.215   1.767   3.396  0.0315  1.2590  1.0227
 2620TIP3   OH2 7865   3.120   1.878   4.202 -0.0915  0.8248  0.4138
 2620TIP3    H1 7866   3.132   1.898   4.109  0.3216  3.4017  0.9260
 2620TIP3    H2 7867   3.029   1.850   4.209 -0.0281  0.2452 -0.8057
 2621TIP3   OH2 7868   2.005   4.649   5.061  0.2284 -0.1125 -0.3787
 2621TIP3    H1 7869   2.023   4.659   4.968 -1.2076  0.9968 -0.5624
 2621TIP3    H2 7870   2.006   4.738   5.096 -0.4712 -0.4087  0.4263
 2622TIP3   OH2 7871   3.220   3.663   4.869 -0.7050 -0.1473 -0.2159
 2622TIP3    H1 7872   3.147   3.613   4.833 -0.8751  0.1638 -0.3061
 2622TIP3    H2 7873   3.252   3.715   4.795  0.1263 -0.8762 -0.3857
 2623TIP3   OH2 7874   2.227   1.747   4.601 -0.4798 -0.5194 -0.5253
 2623TIP3    H1 7875   2.164   1.819   4.610  0.5018  0.2083  1.0389
 2623TIP3    H2 7876   2.292   1.764   4.670  0.6148 -2.0642 -1.1311
 2624TIP3   OH2 7877   5.286   1.030   3.444  0.1081 -0.1819 -0.2586
 2624TIP3    H1 7878   5.247   0.956   3.399 -0.8386 -0.8874  1.6109
 2624TIP3    H2 7879   5.229   1.104   3.423 -0.9178 -0.7151  0.5335
 2625TIP3   OH2 7880   3.672   5.674   4.918 -0.3213 -0.2451 -0.5974
 2625TIP3    H1 7881   3.621   5.705   4.843  0.5522 -1.5539 -1.7859
 2625TIP3    H2 7882   3.731   5.608   4.881  0.4133 -0.6394  1.1856
 2626TIP3   OH2 7883   5.027   3.138   1.005 -0.2578 -0.4998  0.1033
 2626TIP3    H1 7884   5.109   3.090   0.989 -0.4465 -1.1018  0.9119
 2626TIP3    H2 7885   5.053   3.230   1.003  0.5117 -0.6956  0.7344
 2627TIP3   OH2 7886   0.050   0.645   4.795  0.7551 -0.0680  0.4077
 2627TIP3    H1 7887   0.128   0.589   4.786  1.9281  1.4439  0.8660
 2627TIP3    H2 7888  -0.018   0.597   4.748  1.8198 -1.6750  0.4090
 2628TIP3   OH2 7889   4.329   5.445   3.893  0.2043 -0.0995  0.5739
 2628TIP3    H1 7890   4.411   5.458   3.847  0.0798  0.9488  0.6046
 2628TIP3    H2 7891   4.305   5.533   3.923 -2.0377  0.0315 -1.3087
 2629TIP3   OH2 7892   2.424   2.644   3.524  0.4540  0.6255  0.0664
 2629TIP3    H1 7893   2.330   2.655   3.536  0.3756  1.0523 -0.8382
 2629TIP3    H2 7894   2.432   2.570   3.463  0.7410  0.0000  0.8510
 2630TIP3   OH2 7895   6.072   1.621   1.615 -0.2299 -0.0893  0.0558
 2630TIP3    H1 7896   6.075   1.529   1.642 -1.7638 -0.1133  0.2082
 2630TIP3    H2 7897   6.105   1.622   1.525 -3.1325 -1.3001 -1.1363
 2631TIP3   OH2 7898   1.196   2.890   4.029 -0.3205  0.0430  0.3954
 2631TIP3    H1 7899   1.214   2.926   4.116  0.4573  4.2437 -1.2561
 2631TIP3    H2 7900   1.282   2.885   3.987 -0.9674  2.2537 -1.4298
 2632TIP3   OH2 7901   0.394   3.705   0.166  0.3276  0.5404  0.3854
 2632TIP3    H1 7902   0.467   3.693   0.227 -0.2313 -0.1153  0.9460
 2632TIP3    H2 7903   0.421   3.660   0.086  0.0581 -0.7368  0.9959
 2633TIP3   OH2 7904   1.008   4.523   1.902  0.0892 -0.2864 -0.0319
 2633TIP3    H1 7905   1.013   4.610   1.861 -2.2591 -1.3738 -3.0669
 2633TIP3    H2 7906   0.935   4.529   1.963  0.7864  0.1736  0.7813
 2634TIP3   OH2 7907   2.098   2.092   1.138  0.0540  0.3215  0.2799
 2634TIP3    H1 7908   2.118   2.181   1.168  2.1402 -0.0909  0.3106
 2634TIP3    H2 7909   2.050   2.052   1.210  1.4391  0.6119  1.4074
 2635TIP3   OH2 7910   5.757   4.922   0.620 -0.2501 -0.1956  0.5834
 2635TIP3    H1 7911   5.706   4.842   0.638 -1.7207  0.7891  0.9995
 2635TIP3    H2 7912   5.753   4.931   0.525  1.7038 -1.7009  0.2967
 2636TIP3   OH2 7913   1.440   0.925   5.080 -0.2148 -0.4589  0.0143
 2636TIP3    H1 7914   1.528   0.962   5.072 -1.2912  2.1478 -0.5387
 2636TIP3    H2 7915   1.430   0.908   5.174  0.6386 -0.1721  0.1683
 2637TIP3   OH2 7916   0.932   1.859   4.142  0.0928 -0.8362  0.3902
 2637TIP3    H1 7917   0.997   1.792   4.161  0.0525 -0.8182  0.5925
 2637TIP3    H2 7918   0.977   1.942   4.160  0.8445 -0.6858 -1.8582
 2638TIP3   OH2 7919   2.909   4.416   4.798  0.4107  0.5861 -0.2442
 2638TIP3    H1 7920   2.924   4.509   4.784 -0.5121  1.0348  1.4991
 2638TIP3    H2 7921   2.920   4.403   4.892 -0.8966 -0.7850 -0.2357
 2639TIP3   OH2 7922   3.502   4.752   0.209  0.4975 -0.4017 -0.6876
 2639TIP3    H1 7923   3.568   4.807   0.252  0.4635  0.1775 -1.3458
 2639TIP3    H2 7924   3.440   4.815   0.171  0.1985 -0.9108 -1.0546
 2640TIP3   OH2 7925   1.201   1.063   4.972  0.6651  0.4644 -0.6251
 2640TIP3    H1 7926   1.237   0.975   4.981  0.7192  0.5452 -0.0167
 2640TIP3    H2 7927   1.278   1.120   4.964  0.6954  0.6318  0.6290
 2641TIP3   OH2 7928   2.290   0.421   0.343  0.5335  0.3011  0.4122
 2641TIP3    H1 7929   2.197   0.413   0.364  0.8599 -1.2406  1.3851
 2641TIP3    H2 7930   2.325   0.482   0.408  0.6900 -1.1432  1.7255
 2642TIP3   OH2 7931   4.099   2.255   5.018 -0.5836 -0.0768 -0.0901
 2642TIP3    H1 7932   4.060   2.205   4.946  2.0216  0.4865 -2.0465
 2642TIP3    H2 7933   4.034   2.321   5.040 -1.4637 -0.2867 -1.9144
 2643TIP3   OH2 7934   4.165   0.569   4.481 -0.0684  0.0888  0.6910
 2643TIP3    H1 7935   4.137   0.654   4.448 -2.4260 -1.2893 -1.1138
 2643TIP3    H2 7936   4.105   0.550   4.553  1.1933  0.4010  1.8687
 2644TIP3   OH2 7937   5.034   5.542   2.795 -0.1775 -0.1523 -0.2261
 2644TIP3    H1 7938   5.088   5.539   2.716 -0.3913 -0.4915 -0.3612
 2644TIP3    H2 7939   4.952   5.501   2.769 -1.2710  2.1082 -0.6164
 2645TIP3   OH2 7940   2.390   4.332   0.998 -0.7386  0.1380 -0.0439
 2645TIP3    H1 7941   2.353   4.395   1.060 -2.9056  0.3016 -1.3651
 2645TIP3    H2 7942   2.351   4.248   1.022  1.1685 -0.5099  0.9386
 2646TIP3   OH2 7943   4.455   3.741   4.372  0.5739 -0.1337  0.0685
 2646TIP3    H1 7944   4.513   3.709   4.303  0.7605  0.5935 -0.1250
 2646TIP3    H2 7945   4.369   3.706   4.350  0.7762 -0.5214 -0.1154
 2647TIP3   OH2 7946   5.618   1.995   2.355  0.1556  0.2601 -0.3288
 2647TIP3    H1 7947   5.526   1.987   2.378 -0.2587  0.1923 -1.9006
 2647TIP3    H2 7948   5.649   1.905   2.347  1.2257  0.1670  3.1545
 2648TIP3   OH2 7949   3.405   4.276   1.938  1.1377  0.2573  0.1753
 2648TIP3    H1 7950   3.441   4.361   1.966  0.0561  1.1314 -0.9638
 2648TIP3    H2 7951   3.468   4.212   1.969  2.6103  1.5735  0.0433
 2649TIP3   OH2 7952   3.079   1.875   4.972  0.3263  0.0874 -0.9399
 2649TIP3    H1 7953   3.145   1.859   4.905  0.7271 -1.3615 -0.2443
 2649TIP3    H2 7954   3.019   1.801   4.964  0.2762 -0.0021  0.1710
 2650TIP3   OH2 7955   5.577   4.953   4.417 -0.2163 -0.3663 -0.2457
 2650TIP3    H1 7956   5.487   4.986   4.421 -0.1208 -0.1113 -0.1991
 2650TIP3    H2 7957   5.613   4.993   4.338  0.9466  2.3219  1.4933
 2651TIP3   OH2 7958   0.092   5.662   5.096  0.3589 -0.0325  0.2885
 2651TIP3    H1 7959   0.074   5.732   5.034  1.3360 -0.5736 -0.6360
 2651TIP3    H2 7960   0.106   5.708   5.180 -1.1784  0.6803  0.1954
 2652TIP3   OH2 7961   3.079   3.327   3.103 -0.0851  0.2572  0.0418
 2652TIP3    H1 7962   3.093   3.422   3.102 -0.6483  0.3572  0.7572
 2652TIP3    H2 7963   3.130   3.296   3.177 -0.2057  0.0520  0.0379
 2653TIP3   OH2 7964   2.329   2.781   3.201 -0.5535 -0.0027 -0.0437
 2653TIP3    H1 7965   2.266   2.827   3.257  1.5284  0.8893  1.6883
 2653TIP3    H2 7966   2.322   2.825   3.116 -1.6354  0.6426  0.3606
 2654TIP3   OH2 7967  -0.023   5.110   1.369  0.2734 -0.4822 -0.0727
 2654TIP3    H1 7968   0.037   5.049   1.413 -0.6708  0.8958  3.4878
 2654TIP3    H2 7969   0.034   5.167   1.318  1.7251 -1.0012  0.8814
 2655TIP3   OH2 7970   4.868   3.356   0.859  0.5462 -0.2265  0.7266
 2655TIP3    H1 7971   4.870   3.401   0.775 -0.4885  0.0970  0.8741
 2655TIP3    H2 7972   4.944   3.297   0.856 -1.0260 -2.3729 -1.6400
 2656TIP3   OH2 7973   4.052   0.229   1.692  0.4858 -0.5188 -0.2528
 2656TIP3    H1 7974   4.064   0.313   1.649 -0.5807 -1.0211 -1.6198
 2656TIP3    H2 7975   4.070   0.164   1.623 -0.0274 -1.3721  0.3969
 2657TIP3   OH2 7976   1.771   3.686   0.251  0.6954 -0.3800  0.0126
 2657TIP3    H1 7977   1.853   3.666   0.295  1.0152 -2.7197 -1.4903
 2657TIP3    H2 7978   1.706   3.631   0.294  0.1348  0.5113  0.3434
 2658TIP3   OH2 7979   0.512   3.204   0.740  0.0226 -0.2488  0.3165
 2658TIP3    H1 7980   0.533   3.117   0.773  1.8944 -0.2640 -0.7627
 2658TIP3    H2 7981   0.562   3.263   0.795 -1.5074  0.2255  1.2690
 2659TIP3   OH2 7982   5.241   5.927   1.785  0.7674 -0.5563 -0.2554
 2659TIP3    H1 7983   5.191   5.849   1.761 -0.1879  0.2974 -1.1509
 2659TIP3    H2 7984   5.188   5.969   1.853  1.1753 -0.5824  0.0795
 2660TIP3   OH2 7985   3.206   3.943   1.345  0.4748  0.1644  0.5668
 2660TIP3    H1 7986   3.300   3.964   1.348  0.9402 -1.7328  0.4338
 2660TIP3    H2 7987   3.163   4.028   1.343  2.2522  1.1110 -1.1353
 2661TIP3   OH2 7988   1.072   5.399   1.120  0.0029  0.5073  0.2255
 2661TIP3    H1 7989   0.989   5.448   1.124  0.6470  1.6846 -0.2081
 2661TIP3    H2 7990   1.057   5.334   1.052 -1.0652 -0.3058  1.1950
 2662TIP3   OH2 7991   0.423   1.016   0.559  0.1668 -0.2758  0.1535
 2662TIP3    H1 7992   0.468   1.017   0.474  1.2176 -0.9160  0.6884
 2662TIP3    H2 7993   0.414   0.924   0.581  1.3353 -0.1117  1.4667
 2663TIP3   OH2 7994   1.821   1.663   0.630 -0.5407  0.3466  0.4523
 2663TIP3    H1 7995   1.834   1.665   0.535 -0.8799  2.3974  0.4115
 2663TIP3    H2 7996   1.841   1.752   0.659 -0.9655 -0.1021  2.2463
 2664TIP3   OH2 7997   0.308   0.864   0.899 -0.0073  0.1213 -0.4077
 2664TIP3    H1 7998   0.273   0.858   0.810 -1.9438 -0.1862  0.3146
 2664TIP3    H2 7999   0.396   0.899   0.888 -0.3252  0.4326 -2.4130
 2665TIP3   OH2 8000   2.249   4.248   0.588  0.2622  0.5257  0.3673
 2665TIP3    H1 8001   2.208   4.334   0.580  0.4195  0.6990  1.2626
 2665TIP3    H2 8002   2.336   4.267   0.623  1.0137  0.1398 -1.1976
 2666TIP3   OH2 8003   6.274   5.627   4.259  0.6059 -0.3327  0.1486
 2666TIP3    H1 8004   6.300   5.598   4.347 -0.5049 -0.2694  0.5195
 2666TIP3    H2 8005   6.355   5.624   4.208  0.7858 -3.0760  0.4170
 2667TIP3   OH2 8006   2.050   3.441   0.759  0.0563 -0.3123 -0.4956
 2667TIP3    H1 8007   1.967   3.477   0.729 -0.4394 -0.6667  0.4036
 2667TIP3    H2 8008   2.026   3.362   0.808  0.9785 -0.8454 -0.8603
 2668TIP3   OH2 8009   1.460   0.803  -0.003  0.3222  0.0889 -0.0165
 2668TIP3    H1 8010   1.386   0.839   0.045  0.7714  1.4828 -0.3297
 2668TIP3    H2 8011   1.522   0.776   0.065  0.1905  0.3900  0.2237
 2669TIP3   OH2 8012   3.587   5.656   0.551  0.0599  0.1374 -0.4348
 2669TIP3    H1 8013   3.644   5.603   0.495  0.5340  0.2042 -0.0269
 2669TIP3    H2 8014   3.499   5.628   0.529  0.1977  0.6126 -1.6722
 2670TIP3   OH2 8015   0.542   1.128   1.418 -0.6587  0.3140  0.1093
 2670TIP3    H1 8016   0.580   1.207   1.379 -0.4441 -0.4355 -1.2664
 2670TIP3    H2 8017   0.604   1.102   1.485 -0.4815  1.0236  0.2303
 2671TIP3   OH2 8018   3.785   3.045   4.732  0.2229 -0.0232  0.3695
 2671TIP3    H1 8019   3.851   3.028   4.799  0.0505 -1.1200  0.2822
 2671TIP3    H2 8020   3.713   3.086   4.779  0.3429 -0.2473  0.7536
 2672TIP3   OH2 8021   2.861   2.187   3.899  0.1418  0.3455  0.0158
 2672TIP3    H1 8022   2.823   2.227   3.977 -1.7299 -0.7711 -0.2470
 2672TIP3    H2 8023   2.791   2.191   3.833  0.5601 -1.4729 -0.6207
 2673TIP3   OH2 8024   1.355   5.008   4.447 -0.0547  0.3106  0.3267
 2673TIP3    H1 8025   1.410   4.950   4.395  0.8019 -0.5429  2.0776
 2673TIP3    H2 8026   1.391   5.095   4.433 -0.4460  0.2422 -1.2207
 2674TIP3   OH2 8027   0.954   4.733   2.856 -0.0546  0.8849 -0.4206
 2674TIP3    H1 8028   1.048   4.736   2.839  0.3367  0.3630  1.4940
 2674TIP3    H2 8029   0.916   4.711   2.771  1.4459  1.9863 -1.4535
 2675TIP3   OH2 8030   3.302   3.624   3.576  0.4133  0.0857 -1.0492
 2675TIP3    H1 8031   3.338   3.678   3.646 -0.5820 -0.8838  0.2634
 2675TIP3    H2 8032   3.218   3.664   3.555  0.8715  0.5970 -2.0007
 2676TIP3   OH2 8033   2.837   3.201   0.631  0.0184 -0.4217 -0.5475
 2676TIP3    H1 8034   2.783   3.279   0.640  1.7445  1.0158 -1.8790
 2676TIP3    H2 8035   2.777   3.133   0.601 -1.1556  0.9497 -1.4322
 2677TIP3   OH2 8036   1.823   5.712   0.021 -0.6529 -0.0854 -0.2727
 2677TIP3    H1 8037   1.775   5.711   0.104  0.3716  2.2593  0.4287
 2677TIP3    H2 8038   1.914   5.729   0.046  0.5618 -3.7310 -1.6093
 2678TIP3   OH2 8039   1.690   2.006   2.338 -0.1037 -0.2285 -0.0383
 2678TIP3    H1 8040   1.784   2.013   2.355 -0.4042 -2.4592  3.4460
 2678TIP3    H2 8041   1.681   1.925   2.288 -0.2012 -0.0995 -0.2315
 2679TIP3   OH2 8042   3.193   4.999   2.603  0.6434  0.3794 -0.4232
 2679TIP3    H1 8043   3.211   4.961   2.517 -1.1613 -1.6039 -0.0063
 2679TIP3    H2 8044   3.119   5.058   2.589 -0.3071 -0.7142 -0.0802
 2680TIP3   OH2 8045   2.281   5.423   2.880 -0.3836 -0.9039 -1.1678
 2680TIP3    H1 8046   2.280   5.360   2.808  2.0183 -0.4979 -1.6628
 2680TIP3    H2 8047   2.373   5.426   2.907 -1.2505 -1.3313  2.2231
 2681TIP3   OH2 8048   5.031   3.058   4.452 -0.3549  0.2343 -0.5356
 2681TIP3    H1 8049   5.110   3.008   4.469 -0.1203  0.1604 -1.7523
 2681TIP3    H2 8050   4.960   2.995   4.462 -0.3221  0.3857  0.9266
 2682TIP3   OH2 8051   2.011   4.840   4.606 -0.3380  0.1113  0.3058
 2682TIP3    H1 8052   2.075   4.896   4.649  0.1010 -0.0381 -0.1475
 2682TIP3    H2 8053   2.000   4.766   4.665 -0.7366  0.5434  0.7901
 2683TIP3   OH2 8054   3.709   3.128   3.935  0.3193  0.0190 -0.2172
 2683TIP3    H1 8055   3.701   3.116   3.840  0.3719 -1.1993 -0.0779
 2683TIP3    H2 8056   3.639   3.074   3.972  1.2345 -0.6982  0.4942
 2684TIP3   OH2 8057   5.282   5.584   5.173  0.4610  0.2632  0.5216
 2684TIP3    H1 8058   5.256   5.626   5.090 -1.0393  0.1999  0.9261
 2684TIP3    H2 8059   5.376   5.598   5.178  0.2040  2.7123  0.1215
 2685TIP3   OH2 8060   3.474   5.062   3.553  0.3881 -0.8657  0.3459
 2685TIP3    H1 8061   3.416   5.060   3.477 -1.1598 -0.5144  1.4778
 2685TIP3    H2 8062   3.433   5.003   3.616  0.1217  0.9340  1.9403
 2686TIP3   OH2 8063   5.001   0.685   1.924 -0.3263 -0.4406 -0.8481
 2686TIP3    H1 8064   5.076   0.657   1.871 -0.9387 -1.7177 -1.0815
 2686TIP3    H2 8065   4.925   0.661   1.872 -0.9829 -2.4442  0.9021
 2687TIP3   OH2 8066   3.638   0.222   1.162  0.2643  0.2102  0.1978
 2687TIP3    H1 8067   3.683   0.153   1.114 -2.1559 -1.8743  0.7310
 2687TIP3    H2 8068   3.701   0.249   1.229  0.8111 -2.5678  0.9192
 2688TIP3   OH2 8069   3.160   5.865   3.603  0.0702 -0.1381  0.3680
 2688TIP3    H1 8070   3.101   5.847   3.676 -0.5956 -0.5451 -0.2520
 2688TIP3    H2 8071   3.163   5.961   3.597  0.6017 -0.0821  1.2854
 2689TIP3   OH2 8072   5.932   5.018   3.015  0.3941  0.2781 -0.1377
 2689TIP3    H1 8073   6.018   5.000   3.054  1.0726  0.5705 -1.4164
 2689TIP3    H2 8074   5.937   4.976   2.929 -0.8446  0.1034 -0.1332
 2690TIP3   OH2 8075   0.101  -0.017   4.539  0.1063  0.0885  0.0083
 2690TIP3    H1 8076   0.091   0.041   4.464 -0.5424  0.4750  0.3826
 2690TIP3    H2 8077   0.092   0.040   4.616 -4.6266 -0.9146  0.5145
 2691TIP3   OH2 8078   0.883   3.492   1.784  0.2032 -0.5110  0.0545
 2691TIP3    H1 8079   0.933   3.547   1.844 -0.4310  0.6077 -0.3964
 2691TIP3    H2 8080   0.941   3.480   1.709  0.7999 -1.4783  0.6593
 2692TIP3   OH2 8081   1.757   5.884   2.570 -0.1957  0.1696 -0.0862
 2692TIP3    H1 8082   1.808   5.903   2.648 -0.1876  0.6363 -0.2042
 2692TIP3    H2 8083   1.805   5.926   2.499 -0.5022  0.2240 -0.2612
 2693TIP3   OH2 8084   0.117   2.993   0.185  0.6776  0.1964 -0.7844
 2693TIP3    H1 8085   0.202   3.034   0.197  0.1592  0.8804  0.7919
 2693TIP3    H2 8086   0.056   3.050   0.232 -0.4672 -0.9249 -0.8604
 2694TIP3   OH2 8087   0.348   5.708   3.422  0.5692 -0.2063 -0.1461
 2694TIP3    H1 8088   0.370   5.775   3.357 -0.4797 -0.2457 -0.5498
 2694TIP3    H2 8089   0.416   5.717   3.489  0.0284  1.8153  0.2103
 2695TIP3   OH2 8090   2.017   1.655   1.962  0.0727  0.0365  0.0503
 2695TIP3    H1 8091   2.067   1.596   2.018 -0.0528  0.6366  0.7992
 2695TIP3    H2 8092   1.954   1.597   1.917 -0.0324 -0.4112  0.7573
 2696TIP3   OH2 8093   4.104   4.994   0.865  0.1460  0.2036  0.0580
 2696TIP3    H1 8094   4.016   5.019   0.891  0.3289  0.9167  0.0181
 2696TIP3    H2 8095   4.091   4.930   0.794 -0.3594  1.6948 -1.2515
 2697TIP3   OH2 8096   3.157   4.629   1.667  0.1079 -0.3584  0.6643
 2697TIP3    H1 8097   3.118   4.541   1.675  0.6554 -0.7793 -1.0184
 2697TIP3    H2 8098   3.250   4.614   1.679  0.3442 -0.2215 -0.8472
 2698TIP3   OH2 8099   4.940   0.809   1.621  0.2286  0.9154 -0.9014
 2698TIP3    H1 8100   5.002   0.772   1.557  1.1795  0.4993  0.2318
 2698TIP3    H2 8101   4.994   0.865   1.676 -0.4937  0.8839 -0.1504
 2699TIP3   OH2 8102   0.138   2.978   1.705 -0.4896 -0.3223  0.7055
 2699TIP3    H1 8103   0.149   2.884   1.689  1.1732  0.0277 -0.4953
 2699TIP3    H2 8104   0.220   3.005   1.747 -0.7042  0.6910  0.5013
 2700TIP3   OH2 8105   3.668   5.873   3.526 -0.2677  0.1971  0.0051
 2700TIP3    H1 8106   3.680   5.862   3.620 -0.1552 -0.0503 -0.0383
 2700TIP3    H2 8107   3.580   5.839   3.509 -0.0205 -0.4046 -0.0880
 2701TIP3   OH2 8108   2.611   3.032   0.977 -0.4643  1.0629  0.1873
 2701TIP3    H1 8109   2.522   3.032   0.940  0.1392  3.1176 -1.4685
 2701TIP3    H2 8110   2.609   3.101   1.043 -0.1688  0.8655  0.4050
 2702TIP3   OH2 8111   3.576   3.137   2.790 -0.1841 -0.2166  0.2069
 2702TIP3    H1 8112   3.613   3.213   2.837 -3.1893  2.4530 -1.3202
 2702TIP3    H2 8113   3.637   3.122   2.718  1.0236  0.0067  1.1399
 2703TIP3   OH2 8114   0.569   5.316   0.209  0.1519  0.1414  0.2541
 2703TIP3    H1 8115   0.568   5.376   0.284 -3.1241 -0.2516  0.6932
 2703TIP3    H2 8116   0.531   5.367   0.137 -0.2296 -0.5773 -0.0701
 2704TIP3   OH2 8117   2.518   1.708   3.859 -0.6377 -0.2220  0.2432
 2704TIP3    H1 8118   2.514   1.612   3.853  2.1064 -0.3643 -0.7566
 2704TIP3    H2 8119   2.512   1.738   3.768 -1.6613  0.5971  0.5617
 2705TIP3   OH2 8120   3.945   3.980   2.468  0.3468  0.0058  0.3864
 2705TIP3    H1 8121   3.907   4.050   2.520  2.1472  1.1301  0.2811
 2705TIP3    H2 8122   3.870   3.930   2.436 -0.9635  1.6172  0.8110
 2706TIP3   OH2 8123   2.005   1.930   4.573 -0.5287 -1.4625  0.1584
 2706TIP3    H1 8124   1.934   1.904   4.631 -0.0805 -1.3669  0.7610
 2706TIP3    H2 8125   2.052   1.997   4.622 -1.2427  0.0009 -1.0689
 2707TIP3   OH2 8126   4.371   1.793   3.267 -0.2625 -0.2215 -0.3057
 2707TIP3    H1 8127   4.389   1.883   3.296 -2.9541 -0.2578  1.8851
 2707TIP3    H2 8128   4.319   1.804   3.187 -0.3528  0.1777 -0.1958
 2708TIP3   OH2 8129   3.519   4.449   2.610 -0.6666 -0.0868  0.3122
 2708TIP3    H1 8130   3.446   4.512   2.614  0.6366  1.4359  2.4977
 2708TIP3    H2 8131   3.547   4.450   2.519 -1.6326  1.4068  0.0000
 2709TIP3   OH2 8132   1.522   5.440   0.243  0.9074 -0.1220  0.1908
 2709TIP3    H1 8133   1.542   5.352   0.212  0.1774  0.0752 -0.8943
 2709TIP3    H2 8134   1.468   5.478   0.174  1.1802  1.1656  0.6572
 2710TIP3   OH2 8135   3.080   2.930   3.131  0.2890 -0.2817 -0.2154
 2710TIP3    H1 8136   3.161   2.953   3.176 -0.0581  0.7771 -0.0940
 2710TIP3    H2 8137   3.066   3.001   3.068 -0.5527 -0.4283 -0.2099
 2711TIP3   OH2 8138   0.261   1.606   3.258  0.7260 -0.5119  0.8478
 2711TIP3    H1 8139   0.290   1.665   3.188 -2.5848  0.9766  0.5441
 2711TIP3    H2 8140   0.261   1.519   3.218 -0.1920  0.1784 -0.7813
 2712TIP3   OH2 8141   5.562   1.166   3.207  0.2949  0.2137 -0.0331
 2712TIP3    H1 8142   5.648   1.124   3.215  0.2999 -0.0006 -1.0698
 2712TIP3    H2 8143   5.551   1.180   3.113 -0.5590  0.7711  0.1408
 2713TIP3   OH2 8144   4.135   0.487   5.029  0.2499 -0.1380 -0.0200
 2713TIP3    H1 8145   4.138   0.582   5.034  0.8116 -0.1716  0.3996
 2713TIP3    H2 8146   4.154   0.457   5.118  2.4863 -0.6668 -0.6026
 2714TIP3   OH2 8147   0.974   5.167   2.198  0.2454 -0.4222  0.1400
 2714TIP3    H1 8148   0.894   5.218   2.207 -0.7722 -1.8047 -0.6502
 2714TIP3    H2 8149   0.987   5.127   2.285 -0.0118 -0.3153  0.2273
 2715TIP3   OH2 8150   1.351   4.609   0.933  0.1562  0.3200 -0.0701
 2715TIP3    H1 8151   1.427   4.665   0.950 -0.5503  0.9660  1.1011
 2715TIP3    H2 8152   1.301   4.657   0.867  0.4893  0.1462 -0.4556
 2716TIP3   OH2 8153   4.675   0.894   3.401  0.3593 -0.0144  0.2391
 2716TIP3    H1 8154   4.690   0.827   3.468 -1.1039  1.1417  1.7948
 2716TIP3    H2 8155   4.587   0.875   3.368  0.6050  0.1429 -0.5337
 2717TIP3   OH2 8156   6.241   2.570   3.414  0.9120 -0.3438 -0.1362
 2717TIP3    H1 8157   6.225   2.548   3.323  0.9893 -1.7413  0.1631
 2717TIP3    H2 8158   6.334   2.592   3.419  0.9618 -0.5121 -0.3476
 2718TIP3   OH2 8159   2.471   3.591   0.781  0.5069 -0.3005  0.3255
 2718TIP3    H1 8160   2.529   3.597   0.857  1.4824 -0.0212 -0.4201
 2718TIP3    H2 8161   2.387   3.626   0.812  1.5178  2.0245  0.6553
 2719TIP3   OH2 8162   2.604   2.227   4.373 -0.7095 -0.1688 -0.2744
 2719TIP3    H1 8163   2.645   2.299   4.421 -1.2197 -0.2358  0.2758
 2719TIP3    H2 8164   2.665   2.154   4.383  0.2200  0.3972 -1.5391
 2720TIP3   OH2 8165   2.439   2.921   1.716  0.1722  0.4100 -0.0647
 2720TIP3    H1 8166   2.494   2.901   1.640  1.4508  0.9881  0.6810
 2720TIP3    H2 8167   2.390   2.840   1.732  2.7617 -1.1219  0.8521
 2721TIP3   OH2 8168   2.197   5.508   0.772 -0.4474  0.6232 -0.3325
 2721TIP3    H1 8169   2.147   5.427   0.763 -0.3679  0.3407  1.5145
 2721TIP3    H2 8170   2.193   5.530   0.865  0.9247  1.8487 -0.5147
 2722TIP3   OH2 8171   4.598   5.284   1.003  0.3978 -0.2335 -0.0101
 2722TIP3    H1 8172   4.508   5.310   0.983  0.0425  2.0442  3.5606
 2722TIP3    H2 8173   4.590   5.193   1.034 -0.7699  0.0208  0.5230
 2723TIP3   OH2 8174   5.372   3.950   3.110 -0.2023  0.5403 -0.1988
 2723TIP3    H1 8175   5.289   3.905   3.090  0.7451 -0.8434 -1.1894
 2723TIP3    H2 8176   5.345   4.031   3.153 -2.0371 -0.3925  0.5382
 2724TIP3   OH2 8177   1.037   2.992   2.315  0.3597  0.0711  0.1312
 2724TIP3    H1 8178   1.067   3.040   2.393  0.5606  0.9810 -0.4941
 2724TIP3    H2 8179   0.999   2.911   2.351 -1.4977  1.3968  1.3932
 2725TIP3   OH2 8180   5.434   5.068   3.840 -0.5068  0.4989  0.5140
 2725TIP3    H1 8181   5.391   5.010   3.778  0.3436 -0.5309  0.8605
 2725TIP3    H2 8182   5.398   5.043   3.925  0.6466 -0.2852  0.7911
 2726TIP3   OH2 8183   3.015   1.962   0.792 -0.4326 -0.0252  0.4647
 2726TIP3    H1 8184   2.961   2.041   0.797 -0.2887  0.0334  1.1703
 2726TIP3    H2 8185   2.980   1.905   0.860  0.8882  0.3292  1.4683
 2727TIP3   OH2 8186   3.656   2.877   1.693 -0.1923  0.3855  0.1656
 2727TIP3    H1 8187   3.707   2.802   1.662 -2.3223 -0.5952 -1.1194
 2727TIP3    H2 8188   3.576   2.839   1.729 -0.8546  1.9717  0.4380
 2728TIP3   OH2 8189   6.168   1.079   2.726 -0.0730  0.0459  0.5539
 2728TIP3    H1 8190   6.116   1.005   2.693  0.0847 -0.1006  0.6367
 2728TIP3    H2 8191   6.256   1.044   2.738  0.7422  0.9535 -2.1613
 2729TIP3   OH2 8192   2.392   4.066   1.221  0.4539  0.0853 -0.3776
 2729TIP3    H1 8193   2.439   4.148   1.234 -0.4757  0.3747  1.6914
 2729TIP3    H2 8194   2.335   4.082   1.146  0.7783  1.0921 -0.4216
 2730TIP3   OH2 8195   2.136   5.003   0.371  0.3190 -0.1002 -0.0402
 2730TIP3    H1 8196   2.222   4.969   0.393  0.9295  0.0442 -1.9914
 2730TIP3    H2 8197   2.129   5.084   0.422  1.3743 -0.0827  0.1103
 2731TIP3   OH2 8198   4.437   0.661   3.492  0.2539  0.2193 -0.0652
 2731TIP3    H1 8199   4.532   0.656   3.482  0.2960  0.1406  0.3498
 2731TIP3    H2 8200   4.411   0.571   3.514 -0.2780 -0.4728 -3.0165
 2732TIP3   OH2 8201   0.796   0.756   3.986  0.4481  0.1615  0.4113
 2732TIP3    H1 8202   0.887   0.726   3.985  0.4597  0.1540 -1.2044
 2732TIP3    H2 8203   0.790   0.812   4.063  1.2524 -1.4734  1.7186
 2733TIP3   OH2 8204   3.077   1.024   1.625 -0.1953 -0.2747  0.2570
 2733TIP3    H1 8205   3.116   1.089   1.683  0.7932 -1.3014  0.7850
 2733TIP3    H2 8206   3.113   1.045   1.538 -0.2630  0.1736  0.3351
 2734TIP3   OH2 8207   3.270   0.838   4.811  0.7098  0.3391 -0.5060
 2734TIP3    H1 8208   3.270   0.801   4.722 -0.9660  0.7579 -0.7113
 2734TIP3    H2 8209   3.311   0.924   4.802  1.4430 -0.0236 -0.6807
 2735TIP3   OH2 8210   0.315   2.652   0.815 -0.8854 -0.1342 -0.0048
 2735TIP3    H1 8211   0.365   2.576   0.785 -0.3876 -0.1267  0.7868
 2735TIP3    H2 8212   0.224   2.624   0.811 -0.6766 -0.9778  0.8134
 2736TIP3   OH2 8213   4.076   4.682   1.826  0.1896 -0.0012  0.0874
 2736TIP3    H1 8214   4.040   4.711   1.910 -0.4754 -1.3570  0.2998
 2736TIP3    H2 8215   4.064   4.587   1.826 -0.1678 -0.0007 -1.6968
 2737TIP3   OH2 8216   4.199   2.067   0.373  0.0892 -0.4154 -0.5654
 2737TIP3    H1 8217   4.211   1.983   0.417 -0.6564  0.2676  1.0479
 2737TIP3    H2 8218   4.105   2.083   0.378  0.3192  0.9042 -0.0513
 2738TIP3   OH2 8219   1.011   1.617   4.632  0.0812  0.3559  0.1532
 2738TIP3    H1 8220   0.998   1.542   4.690  3.6685  0.1760  0.9509
 2738TIP3    H2 8221   0.961   1.595   4.553  0.0004 -2.2779  0.8558
 2739TIP3   OH2 8222   1.277   0.188   3.011  0.6968 -0.1430  0.1862
 2739TIP3    H1 8223   1.361   0.144   3.025  1.0732  0.7513  0.8341
 2739TIP3    H2 8224   1.273   0.203   2.917  0.5946 -1.4786 -0.0342
 2740TIP3   OH2 8225   3.483   5.246   0.312 -0.1559 -0.4001 -0.4866
 2740TIP3    H1 8226   3.558   5.187   0.319  1.4356  1.4845 -0.7848
 2740TIP3    H2 8227   3.451   5.255   0.402  0.7577 -0.2972 -0.1639
 2741TIP3   OH2 8228   0.627   5.528   1.308  0.0795  0.9504  0.3256
 2741TIP3    H1 8229   0.584   5.602   1.265 -0.1455  1.0510  0.7091
 2741TIP3    H2 8230   0.613   5.545   1.402 -0.9890 -0.1778  0.3952
 2742TIP3   OH2 8231   2.410   1.014   0.485 -0.3082  0.5545 -0.1634
 2742TIP3    H1 8232   2.475   1.059   0.538 -0.5482  1.3993 -0.5828
 2742TIP3    H2 8233   2.339   0.994   0.546  0.1892 -0.0892  0.2224
 2743TIP3   OH2 8234   5.509   4.843   0.927 -0.0316 -0.2974 -0.2406
 2743TIP3    H1 8235   5.598   4.869   0.902  0.1560  0.6276  1.2482
 2743TIP3    H2 8236   5.521   4.762   0.976 -0.0730 -0.4564 -0.4910
 2744TIP3   OH2 8237   5.927   3.161   2.490  0.1008  0.0054 -0.7212
 2744TIP3    H1 8238   5.845   3.137   2.448 -0.1817 -0.1370 -0.0908
 2744TIP3    H2 8239   5.993   3.109   2.444 -0.6212 -3.0747  1.4592
 2745TIP3   OH2 8240   3.890   2.855   1.845 -0.3162 -0.1287 -0.1627
 2745TIP3    H1 8241   3.900   2.782   1.785  0.0289  0.1004 -0.3896
 2745TIP3    H2 8242   3.811   2.900   1.816 -1.0737 -0.9585  0.5695
 2746TIP3   OH2 8243   1.754   1.067   3.705 -0.1433 -0.4659  0.4424
 2746TIP3    H1 8244   1.832   1.073   3.649  0.2637  0.7862  1.1044
 2746TIP3    H2 8245   1.779   1.006   3.774  0.4469  0.2935  0.9212
 2747TIP3   OH2 8246   4.233   0.213   0.016  0.4152  0.0582  0.1924
 2747TIP3    H1 8247   4.237   0.266  -0.064 -0.3042 -0.8970 -0.4949
 2747TIP3    H2 8248   4.230   0.277   0.087  0.1923  0.9285 -0.5834
 2748TIP3   OH2 8249   2.346   5.276   3.775 -0.0438 -0.1857 -0.5845
 2748TIP3    H1 8250   2.393   5.208   3.726  0.5647  1.0180 -1.7204
 2748TIP3    H2 8251   2.261   5.236   3.794 -0.0199 -0.9825 -1.9630
 2749TIP3   OH2 8252   4.746   1.083   3.773  0.5252  0.9245 -0.5301
 2749TIP3    H1 8253   4.699   1.118   3.849  0.4374  1.4517 -0.8265
 2749TIP3    H2 8254   4.804   1.016   3.810 -0.8919 -0.1806 -0.2307
 2750TIP3   OH2 8255   1.382   1.312   0.854 -0.0131 -0.6265 -0.0494
 2750TIP3    H1 8256   1.339   1.233   0.887 -2.2476 -0.0063 -1.2640
 2750TIP3    H2 8257   1.358   1.380   0.916 -0.4505 -0.3631 -0.4982
 2751TIP3   OH2 8258   0.527   3.191   1.853 -0.2438  0.4540 -0.8270
 2751TIP3    H1 8259   0.469   3.153   1.787 -0.5531  0.3539 -0.5039
 2751TIP3    H2 8260   0.476   3.187   1.934 -0.0302  0.9582 -0.6623
 2752TIP3   OH2 8261   1.207   3.027   5.024  0.1686  0.5613 -0.4685
 2752TIP3    H1 8262   1.299   3.053   5.030  0.9503 -1.8553 -1.1809
 2752TIP3    H2 8263   1.181   3.051   4.935  0.9103 -1.0748 -1.1529
 2753TIP3   OH2 8264   5.289   1.925   4.101  0.3103  0.4000 -0.6052
 2753TIP3    H1 8265   5.383   1.916   4.093  0.2539 -0.8538 -0.0946
 2753TIP3    H2 8266   5.262   1.972   4.022  1.2739  0.1109 -1.1175
 2754TIP3   OH2 8267   0.618   2.834   0.643 -0.2807  0.2961  0.0112
 2754TIP3    H1 8268   0.524   2.835   0.623 -0.3511  1.4055  0.3267
 2754TIP3    H2 8269   0.625   2.872   0.730  0.4315 -0.2442  0.2027
 2755TIP3   OH2 8270   0.933   0.615   3.459  0.1576  0.5920 -0.0374
 2755TIP3    H1 8271   0.912   0.673   3.533  0.5529  1.2505 -0.4296
 2755TIP3    H2 8272   0.861   0.627   3.397  0.2792  0.7234 -0.1534
 2756TIP3   OH2 8273   4.368   2.341   1.252  0.2324  0.3967  0.1135
 2756TIP3    H1 8274   4.408   2.300   1.330 -0.8959 -1.0891 -0.0340
 2756TIP3    H2 8275   4.442   2.359   1.194  0.8443 -1.1015  0.3771
 2757TIP3   OH2 8276   2.286   0.559   5.044 -0.1118  0.4775  0.5475
 2757TIP3    H1 8277   2.312   0.623   4.978  0.2471 -0.7498 -0.5447
 2757TIP3    H2 8278   2.364   0.547   5.099 -0.5145  1.7485  1.4412
 2758TIP3   OH2 8279   1.753   0.270   2.889  0.0606  0.6361 -0.3567
 2758TIP3    H1 8280   1.846   0.277   2.907  0.4723 -2.4910 -0.7238
 2758TIP3    H2 8281   1.711   0.287   2.974  0.8437  2.7409 -0.3363
 2759TIP3   OH2 8282   4.646   5.864   4.390 -0.1547 -0.3090 -0.2558
 2759TIP3    H1 8283   4.718   5.828   4.443 -0.8332 -1.0532  0.1750
 2759TIP3    H2 8284   4.606   5.930   4.446 -0.7804 -0.9942  0.1285
 2760TIP3   OH2 8285   1.915   3.835   2.025  0.1022  0.2883  0.2192
 2760TIP3    H1 8286   1.961   3.892   1.964  0.7972  0.9391  1.3277
 2760TIP3    H2 8287   1.844   3.888   2.060  0.5839  0.4040  1.0481
 2761TIP3   OH2 8288   3.745   1.326   4.817  0.0360  0.2777  0.2126
 2761TIP3    H1 8289   3.716   1.414   4.793 -0.8640 -0.0629  0.0331
 2761TIP3    H2 8290   3.817   1.340   4.879 -0.4959  1.1339  0.6438
 2762TIP3   OH2 8291   2.569   0.376   1.125  0.1383  0.0763  0.0247
 2762TIP3    H1 8292   2.572   0.312   1.196 -2.4529  0.2176  0.3307
 2762TIP3    H2 8293   2.577   0.324   1.046  1.2449 -0.2569  0.3258
 2763TIP3   OH2 8294   3.263   4.676   0.352 -0.7004  0.7515  0.8281
 2763TIP3    H1 8295   3.197   4.617   0.390 -0.8007  0.4984  0.2620
 2763TIP3    H2 8296   3.233   4.691   0.263 -0.4298  1.3047  0.8328
 2764TIP3   OH2 8297   2.617   3.768   2.972  0.1541  0.0728 -0.5100
 2764TIP3    H1 8298   2.601   3.822   2.894  0.6547  1.9555  0.6103
 2764TIP3    H2 8299   2.543   3.787   3.030  0.5010 -0.1933  0.0281
 2765TIP3   OH2 8300   0.173   4.574   4.342  0.9496  0.1161 -0.3307
 2765TIP3    H1 8301   0.185   4.531   4.427 -2.8260 -0.3551  0.1250
 2765TIP3    H2 8302   0.201   4.509   4.278  0.4826 -0.9336  0.4974
 2766TIP3   OH2 8303   3.453   3.129   1.612  0.0694  0.3660  0.1835
 2766TIP3    H1 8304   3.470   3.213   1.654 -1.0350  0.2646  0.8474
 2766TIP3    H2 8305   3.420   3.152   1.525 -1.2488  0.6456  0.7485
 2767TIP3   OH2 8306   4.191   0.290   3.240 -0.8163 -0.1904 -0.8567
 2767TIP3    H1 8307   4.098   0.312   3.252 -0.8989  0.4706 -2.4564
 2767TIP3    H2 8308   4.234   0.328   3.317 -1.7644  0.2745 -0.5312
 2768TIP3   OH2 8309   1.794   1.949   1.730 -0.1608 -0.2117 -0.5358
 2768TIP3    H1 8310   1.709   1.937   1.774  0.3506 -2.6174 -0.0312
 2768TIP3    H2 8311   1.839   2.014   1.784 -1.5090  0.7978 -0.5722
 2769TIP3   OH2 8312   4.019   3.148   4.980 -0.2075 -0.7413 -0.0631
 2769TIP3    H1 8313   4.013   3.053   4.990 -1.2221 -0.5922  0.9243
 2769TIP3    H2 8314   4.112   3.164   4.962 -0.3479 -2.0811 -2.4603
 2770TIP3   OH2 8315   2.052   3.335   1.620 -0.7831 -0.2716  0.0561
 2770TIP3    H1 8316   2.062   3.241   1.638  0.9934 -0.1355 -0.0020
 2770TIP3    H2 8317   2.142   3.367   1.609 -1.3822  1.3299 -0.5228
 2771TIP3   OH2 8318   2.675   0.479   3.965 -0.1161 -0.6477 -0.2445
 2771TIP3    H1 8319   2.610   0.426   3.919  0.3559 -1.5800  0.1289
 2771TIP3    H2 8320   2.623   0.541   4.016 -0.7989 -2.2080  1.0521
 2772TIP3   OH2 8321   2.598   0.133   2.393 -0.6869  0.7665  0.0677
 2772TIP3    H1 8322   2.690   0.143   2.369 -0.7729  3.6777  0.5315
 2772TIP3    H2 8323   2.550   0.165   2.316 -1.1154  3.3805  1.2958
 2773TIP3   OH2 8324   5.727   5.906   2.085  0.6292 -0.3742 -0.0246
 2773TIP3    H1 8325   5.708   5.990   2.042 -1.8603 -0.9376 -0.1817
 2773TIP3    H2 8326   5.818   5.914   2.113  0.2927  2.6610  0.6135
 2774TIP3   OH2 8327   6.037   0.384   0.563  0.0043  0.5407 -0.5822
 2774TIP3    H1 8328   5.987   0.318   0.516  1.8136 -0.7121 -0.8172
 2774TIP3    H2 8329   6.105   0.412   0.502  0.8836  0.6708  0.4252
 2775TIP3   OH2 8330   2.436   2.083   3.120  0.0967 -0.2932  0.6786
 2775TIP3    H1 8331   2.407   2.162   3.074  0.0479  1.1879  3.0521
 2775TIP3    H2 8332   2.530   2.098   3.135 -0.1524 -0.0480  2.1906
 2776TIP3   OH2 8333   0.090   1.611   2.660  0.4880 -0.1621 -0.4196
 2776TIP3    H1 8334   0.082   1.521   2.627 -0.2179  0.1568 -1.1166
 2776TIP3    H2 8335   0.172   1.609   2.711 -0.3863 -1.6634  1.0729
 2777TIP3   OH2 8336   1.400   5.677   4.195 -0.3038 -0.0707  0.8455
 2777TIP3    H1 8337   1.442   5.610   4.141  1.3345  1.7912 -0.3661
 2777TIP3    H2 8338   1.461   5.690   4.268  1.0216  2.1198 -0.5239
 2778TIP3   OH2 8339   0.080   5.200   3.835 -0.1201  0.0535 -0.2349
 2778TIP3    H1 8340   0.072   5.265   3.764  0.7312 -1.2936 -1.6453
 2778TIP3    H2 8341   0.170   5.210   3.866 -0.0953 -0.2070 -0.2187
 2779TIP3   OH2 8342   4.862   3.297   0.468  0.3336 -0.5930  0.3589
 2779TIP3    H1 8343   4.848   3.381   0.512  0.4992 -0.7651  0.7428
 2779TIP3    H2 8344   4.955   3.296   0.447  0.1403 -0.2492 -0.5417
 2780TIP3   OH2 8345   0.773   3.633   3.227 -0.4406  0.1954  0.6706
 2780TIP3    H1 8346   0.747   3.578   3.153 -0.9922 -0.9973  1.7314
 2780TIP3    H2 8347   0.852   3.592   3.261  2.4401  3.1158 -1.7852
 2781TIP3   OH2 8348   3.031   2.980   3.941 -0.3154  0.0619 -0.1200
 2781TIP3    H1 8349   3.019   3.015   3.853  2.2902 -1.7510 -1.3141
 2781TIP3    H2 8350   2.969   2.907   3.946 -2.1896  1.5993  0.5459
 2782TIP3   OH2 8351   4.687   0.105   3.765 -0.0025 -0.3943  0.0329
 2782TIP3    H1 8352   4.611   0.125   3.819  0.9613  0.2434  1.2191
 2782TIP3    H2 8353   4.698   0.010   3.773 -0.4112 -0.4254  0.2158
 2783TIP3   OH2 8354   0.467   5.339   3.723  0.2443  0.2539 -0.0824
 2783TIP3    H1 8355   0.386   5.390   3.725 -0.2575 -0.5193 -0.1567
 2783TIP3    H2 8356   0.493   5.332   3.815 -0.1242 -0.0292  0.0044
 2784TIP3   OH2 8357   4.157   4.058   2.614  0.0398 -0.3002 -0.1461
 2784TIP3    H1 8358   4.219   3.985   2.615 -0.8011 -1.0322 -0.2797
 2784TIP3    H2 8359   4.088   4.030   2.554  0.4771  1.2804 -1.4606
 2785TIP3   OH2 8360   5.607   2.009   0.679 -0.0825  0.4870  0.4742
 2785TIP3    H1 8361   5.686   1.963   0.649 -0.4906  0.2771 -0.3130
 2785TIP3    H2 8362   5.640   2.076   0.739  0.5093 -0.8528  1.7062
 2786TIP3   OH2 8363   5.402   1.638   3.192 -0.0235 -0.1452 -0.5631
 2786TIP3    H1 8364   5.482   1.659   3.240 -0.7139  0.3656  0.3899
 2786TIP3    H2 8365   5.351   1.584   3.253 -0.3899 -0.5233 -1.1847
 2787TIP3   OH2 8366   3.892   0.642   3.939  0.2612 -0.0863 -0.1537
 2787TIP3    H1 8367   3.913   0.566   3.992 -0.2074 -0.8983 -1.1089
 2787TIP3    H2 8368   3.976   0.685   3.925  0.4568 -0.1160  0.8225
 2788TIP3   OH2 8369   4.528   2.628   4.607 -0.4054 -0.6426 -0.3381
 2788TIP3    H1 8370   4.531   2.687   4.683 -2.6036 -1.1613  0.2357
 2788TIP3    H2 8371   4.472   2.674   4.544 -1.6595 -1.8113 -0.1207
 2789TIP3   OH2 8372   5.956   5.789   5.012  0.8061 -0.4423 -0.2848
 2789TIP3    H1 8373   5.998   5.704   5.024  2.6276  0.7031  2.8087
 2789TIP3    H2 8374   6.014   5.836   4.952  2.3094 -0.0277  1.3724
 2790TIP3   OH2 8375   0.307   1.603   2.138 -0.4444  0.3657 -0.8444
 2790TIP3    H1 8376   0.256   1.610   2.058 -1.2629 -1.8797 -0.5980
 2790TIP3    H2 8377   0.265   1.532   2.187  1.7923 -0.3243  0.2288
 2791TIP3   OH2 8378   2.860   2.798   3.846 -0.2952 -0.2003  0.0243
 2791TIP3    H1 8379   2.921   2.757   3.784 -0.2041 -1.3622  0.8417
 2791TIP3    H2 8380   2.791   2.834   3.792  2.4216  3.8001 -1.2646
 2792TIP3   OH2 8381   3.251   3.781   0.748  0.6475  0.2877 -0.5089
 2792TIP3    H1 8382   3.221   3.872   0.747 -0.5094 -0.0666 -0.1156
 2792TIP3    H2 8383   3.275   3.765   0.840 -0.3253 -0.1509 -0.3194
 2793TIP3   OH2 8384   2.817   5.602   2.189 -0.1322 -0.2584 -0.3046
 2793TIP3    H1 8385   2.753   5.552   2.139 -0.4493 -1.1532  0.9807
 2793TIP3    H2 8386   2.899   5.591   2.140 -0.8126  0.4572 -1.6579
 2794TIP3   OH2 8387   2.610   2.675   3.124  0.2467 -0.0510  0.1220
 2794TIP3    H1 8388   2.518   2.682   3.150  0.2849 -0.5967  0.4226
 2794TIP3    H2 8389   2.637   2.766   3.110 -0.3454  0.1144 -0.0057
 2795TIP3   OH2 8390   1.820   4.945   3.463 -0.3022  0.4299 -0.5165
 2795TIP3    H1 8391   1.874   4.866   3.464  2.1813  1.9699 -1.8993
 2795TIP3    H2 8392   1.780   4.947   3.376 -1.0552  0.2906 -0.1843
 2796TIP3   OH2 8393   5.384   0.574   0.481  0.4129  0.3353 -0.0216
 2796TIP3    H1 8394   5.405   0.651   0.428 -1.1666  1.0258  0.3225
 2796TIP3    H2 8395   5.356   0.508   0.417 -2.2140  1.4059 -0.0814
 2797TIP3   OH2 8396   4.439   1.956   1.214 -0.5702 -0.3342 -0.3164
 2797TIP3    H1 8397   4.477   1.957   1.126 -0.6295  0.7110 -0.3416
 2797TIP3    H2 8398   4.345   1.945   1.199 -0.8598  2.0174 -0.5254
 2798TIP3   OH2 8399   2.208   0.589   1.641 -0.0957 -0.3484  0.2196
 2798TIP3    H1 8400   2.297   0.558   1.657  0.3275  1.1522  0.9974
 2798TIP3    H2 8401   2.216   0.685   1.645 -1.8274 -0.2094  0.7438
 2799TIP3   OH2 8402   1.808   5.374   1.801  0.1723 -0.2590 -0.0772
 2799TIP3    H1 8403   1.764   5.289   1.799 -0.3597 -0.0264 -3.4620
 2799TIP3    H2 8404   1.748   5.431   1.850 -1.6474 -0.8456 -1.5065
 2800TIP3   OH2 8405   3.609   1.145   4.663 -0.5460  0.2438 -0.6940
 2800TIP3    H1 8406   3.676   1.198   4.707  1.8571 -2.7459 -0.4299
 2800TIP3    H2 8407   3.549   1.209   4.625  1.6200  3.0931  0.3487
 2801TIP3   OH2 8408   0.460   3.970   1.467 -0.0203  0.1911 -0.4563
 2801TIP3    H1 8409   0.390   3.976   1.402  0.7784 -0.4342 -1.4223
 2801TIP3    H2 8410   0.463   3.877   1.490  0.7877  0.1348 -0.7698
 2802TIP3   OH2 8411   1.580   5.969   0.276 -0.7096 -0.2940  0.1551
 2802TIP3    H1 8412   1.667   5.933   0.289 -1.3393 -2.6857 -1.5712
 2802TIP3    H2 8413   1.530   5.941   0.353 -0.1098  0.7557  0.9567
 2803TIP3   OH2 8414   2.425   5.268   0.478 -0.1375  0.2779  0.2668
 2803TIP3    H1 8415   2.339   5.241   0.511 -0.4643  1.1809  0.1590
 2803TIP3    H2 8416   2.470   5.185   0.461 -1.6114 -0.2560 -1.3703
 2804TIP3   OH2 8417   3.315   1.238   0.550  0.0708 -0.5276  0.2831
 2804TIP3    H1 8418   3.318   1.147   0.579 -2.1471  0.2468  3.5388
 2804TIP3    H2 8419   3.226   1.251   0.520  0.2258  0.6558  0.2783
 2805TIP3   OH2 8420   2.894   5.888   2.773  0.3455 -0.3051 -0.0874
 2805TIP3    H1 8421   2.813   5.880   2.723  1.2520 -0.0811 -1.6566
 2805TIP3    H2 8422   2.914   5.982   2.771  0.3365 -0.2684  0.8428
 2806TIP3   OH2 8423   3.127   5.880   0.244  0.0888  0.0445  0.0988
 2806TIP3    H1 8424   3.215   5.916   0.258  0.3223 -0.6993  0.6041
 2806TIP3    H2 8425   3.069   5.955   0.255  0.5057  0.1548  1.9485
 2807TIP3   OH2 8426   3.783   0.181   2.290 -0.0177  0.0632  0.0986
 2807TIP3    H1 8427   3.726   0.129   2.232  1.3087 -0.1226 -1.0917
 2807TIP3    H2 8428   3.815   0.118   2.354  0.3854 -0.2635 -0.4179
 2808TIP3   OH2 8429   0.815   0.905   0.374 -0.3463  0.4419 -0.2137
 2808TIP3    H1 8430   0.894   0.866   0.336 -1.1700 -1.0449 -0.4824
 2808TIP3    H2 8431   0.781   0.837   0.432 -0.2825  1.8607  1.5881
 2809TIP3   OH2 8432   2.282   3.828   1.236 -0.4996 -0.9510 -0.8959
 2809TIP3    H1 8433   2.346   3.762   1.266 -0.3904 -0.2254  0.5768
 2809TIP3    H2 8434   2.335   3.905   1.216 -0.9071 -0.2067  0.7335
 2810TIP3   OH2 8435   3.897   5.935   1.675  0.2734  0.2123  0.0512
 2810TIP3    H1 8436   3.812   5.973   1.653  0.2997  0.0797 -0.2882
 2810TIP3    H2 8437   3.939   6.001   1.730 -1.2395 -0.9516  2.8152
 2811TIP3   OH2 8438   6.183   5.014   3.144  0.2524 -0.0413  0.3575
 2811TIP3    H1 8439   6.248   5.066   3.192 -0.5170  1.2186  0.0939
 2811TIP3    H2 8440   6.175   4.933   3.194  2.7815 -0.7148 -0.1815
 2812TIP3   OH2 8441   4.352   5.505   3.410 -0.6111 -0.0051 -0.4445
 2812TIP3    H1 8442   4.266   5.540   3.387 -0.3725  0.4955 -0.5805
 2812TIP3    H2 8443   4.415   5.561   3.364 -0.2049 -0.2616 -0.2136
 2813TIP3   OH2 8444   2.549   3.945   4.948 -0.4061 -0.1993  0.4677
 2813TIP3    H1 8445   2.514   3.858   4.966 -0.6624 -0.0521  0.6906
 2813TIP3    H2 8446   2.491   3.980   4.880 -0.7511  0.0826  0.9060
 2814TIP3   OH2 8447   2.365   5.641   1.137  0.1788  0.0263  0.5110
 2814TIP3    H1 8448   2.356   5.735   1.155 -1.5744 -0.3557  1.9784
 2814TIP3    H2 8449   2.436   5.613   1.195  0.2272  0.3363  0.6051
 2815TIP3   OH2 8450   4.354   4.448   0.120  0.1126  0.0331 -0.0289
 2815TIP3    H1 8451   4.388   4.360   0.139 -0.4966 -0.4626 -1.0822
 2815TIP3    H2 8452   4.425   4.507   0.142  0.6097 -0.7460  0.5075
 2816TIP3   OH2 8453   6.041   4.936   1.340 -0.0113 -0.7428 -0.3661
 2816TIP3    H1 8454   6.015   4.979   1.421  0.8153  1.1132 -1.0312
 2816TIP3    H2 8455   6.119   4.984   1.311  0.0629 -1.7364 -1.9464
 2817TIP3   OH2 8456   5.413   5.274   0.108 -0.3304  0.8639 -0.2486
 2817TIP3    H1 8457   5.385   5.190   0.146 -1.7219  0.9412 -1.0684
 2817TIP3    H2 8458   5.368   5.279   0.024  0.9553  1.7417 -0.9158
 2818TIP3   OH2 8459   5.406   1.437   1.645 -0.4841 -0.3379 -0.1120
 2818TIP3    H1 8460   5.380   1.430   1.737  0.1700 -1.5703 -0.0036
 2818TIP3    H2 8461   5.460   1.360   1.629  1.2727  0.9940 -0.9265
 2819TIP3   OH2 8462   2.358   2.371   4.380 -0.1268 -0.3714  0.5308
 2819TIP3    H1 8463   2.324   2.299   4.433  0.2001  0.0433  1.3225
 2819TIP3    H2 8464   2.450   2.349   4.366 -0.2640 -0.5819 -0.0415
 2820TIP3   OH2 8465   6.091   2.670   2.800  0.4609  0.0603 -0.1156
 2820TIP3    H1 8466   6.106   2.723   2.878 -1.3660  0.7107 -0.1528
 2820TIP3    H2 8467   6.069   2.583   2.833 -2.2508  0.8049  0.2656
 2821TIP3   OH2 8468   0.266   1.956   3.903 -0.9106  0.3985 -0.0950
 2821TIP3    H1 8469   0.340   1.917   3.857  0.5630  1.8866  0.8898
 2821TIP3    H2 8470   0.244   1.892   3.971 -0.5038 -0.0442 -0.3732
 2822TIP3   OH2 8471   4.350   4.388   1.514  0.5305 -0.0795  0.4946
 2822TIP3    H1 8472   4.315   4.377   1.602 -1.1421 -0.7620 -0.2233
 2822TIP3    H2 8473   4.273   4.404   1.459  1.5389  0.3186 -0.8536
 2823TIP3   OH2 8474   2.560   2.898   3.479  0.0005  0.1581 -0.2466
 2823TIP3    H1 8475   2.576   2.914   3.572 -0.1688  1.3017 -0.3935
 2823TIP3    H2 8476   2.507   2.818   3.477 -0.5520  0.4770  0.6822
 2824TIP3   OH2 8477   5.870   1.464   1.083 -0.4854 -0.7606 -0.2957
 2824TIP3    H1 8478   5.797   1.522   1.066 -0.7480 -0.9801  0.0662
 2824TIP3    H2 8479   5.873   1.406   1.008  0.5745  0.5123 -1.2839
 2825TIP3   OH2 8480   5.391   4.378   0.869 -0.1156 -0.0254 -0.0152
 2825TIP3    H1 8481   5.482   4.392   0.842 -0.3955 -1.0466 -1.6618
 2825TIP3    H2 8482   5.384   4.420   0.955  0.6268  4.4497 -1.8488
 2826TIP3   OH2 8483   3.190   2.683   1.905 -0.4489  0.3228 -0.5129
 2826TIP3    H1 8484   3.137   2.726   1.972 -1.9332  1.5312 -2.3825
 2826TIP3    H2 8485   3.237   2.754   1.861  2.4019 -0.6455  0.6826
 2827TIP3   OH2 8486   0.522   4.875   3.145  0.0557  0.1249 -0.1713
 2827TIP3    H1 8487   0.593   4.920   3.100  1.1338  1.7666  2.8501
 2827TIP3    H2 8488   0.442   4.906   3.103  0.9663  2.0708 -0.5497
 2828TIP3   OH2 8489   2.096   3.704   1.083  0.0233  0.1152  0.1685
 2828TIP3    H1 8490   2.014   3.741   1.114  0.5338  0.0100  1.7520
 2828TIP3    H2 8491   2.164   3.750   1.132  0.9949  0.8021 -1.7187
 2829TIP3   OH2 8492   5.682   0.784   4.310 -0.0684  0.2398  0.5100
 2829TIP3    H1 8493   5.636   0.725   4.251  2.1253 -0.7300 -0.3459
 2829TIP3    H2 8494   5.723   0.727   4.375  2.1742  0.7257 -0.3807
 2830TIP3   OH2 8495   1.452   0.607   4.226 -0.0368  0.2329  0.5100
 2830TIP3    H1 8496   1.455   0.632   4.318 -2.0476 -0.0699  0.7105
 2830TIP3    H2 8497   1.374   0.650   4.192 -0.1657 -0.8660 -0.6742
 2831TIP3   OH2 8498   2.249   4.332   2.745  0.4597  0.0879  0.6560
 2831TIP3    H1 8499   2.179   4.329   2.810  0.1319  4.3159  0.7912
 2831TIP3    H2 8500   2.221   4.400   2.683  1.7578 -2.2605 -2.7882
 2832TIP3   OH2 8501   2.064   0.549   2.773  0.3315 -0.2611  0.1164
 2832TIP3    H1 8502   2.154   0.519   2.757  0.5307 -0.0241  0.7676
 2832TIP3    H2 8503   2.047   0.609   2.701  1.0440  0.4176  0.4918
 2833TIP3   OH2 8504   3.534   3.806   3.544  0.0657  0.3759  0.2146
 2833TIP3    H1 8505   3.581   3.751   3.481  1.2190  1.8743 -0.3106
 2833TIP3    H2 8506   3.447   3.817   3.505 -0.9804 -2.7688  1.4011
 2834TIP3   OH2 8507   1.751   3.647   1.348 -0.1907 -0.2574 -0.5411
 2834TIP3    H1 8508   1.825   3.664   1.407 -0.4784 -0.0566 -0.2338
 2834TIP3    H2 8509   1.729   3.555   1.363  0.7930 -0.6752 -1.5477
 2835TIP3   OH2 8510   2.248   3.043   1.477  0.2393  0.5062 -0.5493
 2835TIP3    H1 8511   2.222   2.960   1.437 -0.3011  0.0864  0.6132
 2835TIP3    H2 8512   2.224   3.109   1.413 -0.8102 -0.1217 -0.8424
 2836TIP3   OH2 8513   6.012   0.171   0.739  0.1174  0.1327  0.2423
 2836TIP3    H1 8514   6.008   0.255   0.693 -0.9986 -0.2409 -0.3721
 2836TIP3    H2 8515   5.935   0.171   0.796 -0.8157 -1.1285 -0.9515
 2837TIP3   OH2 8516   2.007   1.916   0.311  0.2349 -0.1173  0.4452
 2837TIP3    H1 8517   2.038   1.835   0.351 -1.6705 -0.9687  0.3297
 2837TIP3    H2 8518   2.062   1.926   0.233  0.2160 -1.5659  0.2025
 2838TIP3   OH2 8519   5.595   0.913   2.805  0.0735 -0.2881  0.6736
 2838TIP3    H1 8520   5.588   0.993   2.857  0.7401 -0.2040  0.6429
 2838TIP3    H2 8521   5.638   0.940   2.724  2.2580 -1.0252  1.5116
 2839TIP3   OH2 8522   0.956   5.766   4.266  0.2027 -0.2751 -0.0791
 2839TIP3    H1 8523   1.000   5.784   4.349  1.3092 -1.6309 -0.3286
 2839TIP3    H2 8524   1.013   5.703   4.222 -1.2624 -0.9490 -1.0909
 2840TIP3   OH2 8525   4.146   0.227   2.596 -0.1505  0.2190 -0.0754
 2840TIP3    H1 8526   4.227   0.194   2.634 -0.7926 -1.3458  0.0033
 2840TIP3    H2 8527   4.079   0.207   2.661 -0.7662  0.4921 -0.6127
 2841TIP3   OH2 8528   3.394   2.263   4.423  0.3802  0.0333  0.0871
 2841TIP3    H1 8529   3.443   2.224   4.496 -1.2953  0.2642  1.4096
 2841TIP3    H2 8530   3.393   2.357   4.443 -0.6705  0.0176  0.1608
 2842TIP3   OH2 8531   4.586   1.023   1.131 -0.2465 -0.0677 -0.5395
 2842TIP3    H1 8532   4.607   0.990   1.218 -1.5155 -0.9394 -0.5253
 2842TIP3    H2 8533   4.526   1.096   1.147  0.2415  0.3710 -0.6692
 2843TIP3   OH2 8534   0.084   2.257   0.748 -0.1460 -0.3603  0.2725
 2843TIP3    H1 8535   0.061   2.175   0.792  0.3225 -1.0978 -0.8111
 2843TIP3    H2 8536   0.171   2.242   0.711  0.3278  0.9413  0.7817
 2844TIP3   OH2 8537   3.494   0.298   1.492 -0.5648  0.2278 -0.0671
 2844TIP3    H1 8538   3.410   0.289   1.447 -0.0434 -1.1601 -0.8199
 2844TIP3    H2 8539   3.543   0.362   1.440 -0.8634  0.4718 -0.0541
 2845TIP3   OH2 8540   2.989   0.001   3.063 -0.5902 -0.0007  0.6013
 2845TIP3    H1 8541   2.898   0.008   3.092 -0.7542  0.2565  0.0503
 2845TIP3    H2 8542   3.019   0.091   3.055  0.1487 -0.0887  2.0588
 2846TIP3   OH2 8543   0.916   3.364   5.043 -0.6109 -0.1169 -0.4002
 2846TIP3    H1 8544   0.860   3.438   5.066 -0.3819  0.6175 -2.0660
 2846TIP3    H2 8545   0.855   3.295   5.016 -0.7747  0.2537 -1.0079
 2847TIP3   OH2 8546   5.652   4.793   1.998  0.2615  0.1796  0.2091
 2847TIP3    H1 8547   5.596   4.766   2.071  0.3203 -2.2904 -0.5717
 2847TIP3    H2 8548   5.619   4.880   1.974  1.4387  1.9631  4.2525
 2848TIP3   OH2 8549   3.169   4.224   1.408  0.0962 -0.0047 -0.0808
 2848TIP3    H1 8550   3.147   4.256   1.320 -0.2491 -0.8383 -0.3066
 2848TIP3    H2 8551   3.182   4.304   1.460 -0.7917  0.5039 -0.6155
 2849TIP3   OH2 8552   1.979   4.387   0.312 -0.2088  0.4345  0.0767
 2849TIP3    H1 8553   2.028   4.307   0.293 -0.5010  0.5634 -1.3137
 2849TIP3    H2 8554   1.997   4.405   0.404  0.3639 -0.8818  0.2424
 2850TIP3   OH2 8555   3.350   4.088   0.771 -0.1877  0.3981  0.2179
 2850TIP3    H1 8556   3.353   4.130   0.857 -1.4324 -1.0927  1.0435
 2850TIP3    H2 8557   3.429   4.034   0.767  0.1307  0.8647  0.2101
 2851TIP3   OH2 8558   6.205   5.536   2.880  0.8015 -0.3723  0.3586
 2851TIP3    H1 8559   6.240   5.617   2.842 -0.5830  0.5693  1.0058
 2851TIP3    H2 8560   6.232   5.539   2.972 -0.2686 -0.0095  0.6802
 2852TIP3   OH2 8561   5.754   5.990   1.492 -0.1834  0.1046 -0.4281
 2852TIP3    H1 8562   5.774   5.900   1.469  0.6129  1.0786 -4.1144
 2852TIP3    H2 8563   5.659   5.992   1.501 -0.0772 -1.4330  1.8396
 2853TIP3   OH2 8564   5.511   4.679   2.250  0.2930  0.2419  0.1556
 2853TIP3    H1 8565   5.561   4.627   2.313  0.2647 -0.2393 -0.2109
 2853TIP3    H2 8566   5.443   4.619   2.218  0.8756  0.1764 -1.0180
 2854TIP3   OH2 8567   1.136   4.988   3.761  0.0858 -0.0203 -0.0122
 2854TIP3    H1 8568   1.144   4.937   3.680  1.7189 -0.3226  0.3052
 2854TIP3    H2 8569   1.127   4.922   3.829  1.5533  0.0935  0.3314
 2855TIP3   OH2 8570   4.378   2.454   0.790 -0.5441  0.2508 -0.1153
 2855TIP3    H1 8571   4.463   2.411   0.777 -0.7257 -0.6718  1.4519
 2855TIP3    H2 8572   4.362   2.501   0.708  0.8213 -0.6959 -0.9689
 2856TIP3   OH2 8573   2.318   5.372   3.249 -0.0027  0.2366  0.6812
 2856TIP3    H1 8574   2.396   5.322   3.272  0.2810  0.9273  1.2456
 2856TIP3    H2 8575   2.351   5.455   3.217 -0.4360 -0.2027 -1.0551
 2857TIP3   OH2 8576   2.243   0.616   3.798 -0.3765 -0.2320 -0.1277
 2857TIP3    H1 8577   2.231   0.638   3.891 -0.4192 -0.8690  0.0200
 2857TIP3    H2 8578   2.331   0.647   3.778 -0.8567  1.1564 -0.2522
 2858TIP3   OH2 8579   1.902   2.164   1.902  0.9018 -0.4424 -0.7636
 2858TIP3    H1 8580   1.910   2.242   1.847  0.2760 -0.8050 -1.3868
 2858TIP3    H2 8581   1.864   2.196   1.984  2.8368  0.2760 -0.1034
 2859TIP3   OH2 8582   0.806   4.266   1.960  0.1714  0.5239  0.1614
 2859TIP3    H1 8583   0.871   4.269   2.030 -0.2491 -1.8104  0.7538
 2859TIP3    H2 8584   0.722   4.255   2.006 -0.2084 -0.1783 -0.6712
 2860TIP3   OH2 8585   5.889   3.913   2.340 -0.3052 -0.6106 -0.5401
 2860TIP3    H1 8586   5.972   3.956   2.361 -0.4279 -0.2510 -0.7811
 2860TIP3    H2 8587   5.822   3.973   2.372 -0.5045  0.1349 -2.2670
 2861TIP3   OH2 8588   4.183   0.343   2.218 -0.2348  0.4725 -0.2000
 2861TIP3    H1 8589   4.225   0.367   2.135  3.1232  2.5217  1.8543
 2861TIP3    H2 8590   4.125   0.416   2.237 -1.1143 -0.0650 -0.7711
 2862TIP3   OH2 8591   4.888   2.843   2.796 -0.1622 -0.2614  0.3590
 2862TIP3    H1 8592   4.956   2.904   2.823  0.5065 -1.5853  1.8812
 2862TIP3    H2 8593   4.932   2.782   2.737 -0.4004 -0.2796  0.1985
 2863TIP3   OH2 8594   3.576   0.469   3.171  0.3867 -0.1312  0.0695
 2863TIP3    H1 8595   3.550   0.502   3.258  2.8781  2.0604  0.1124
 2863TIP3    H2 8596   3.587   0.375   3.184  1.0639  0.1795  2.2672
 2864TIP3   OH2 8597   3.603   1.949   4.913 -0.5473 -0.1657 -0.0742
 2864TIP3    H1 8598   3.518   1.982   4.942 -0.3166  0.5948 -0.2581
 2864TIP3    H2 8599   3.600   1.957   4.817 -0.6022 -0.9639 -0.1468
 2865TIP3   OH2 8600   2.368   5.000   4.176 -0.1719 -0.4934  0.4713
 2865TIP3    H1 8601   2.433   5.065   4.148  0.0354 -1.0528 -0.3646
 2865TIP3    H2 8602   2.418   4.923   4.198 -0.4759 -0.6046  0.7793
 2866TIP3   OH2 8603   5.993   0.556   3.501  0.4261 -0.3453  0.3568
 2866TIP3    H1 8604   6.078   0.542   3.458 -0.4723  0.8083 -2.0162
 2866TIP3    H2 8605   5.940   0.599   3.434 -1.2471  1.3284  2.6167
 2867TIP3   OH2 8606   5.704   4.950   3.729 -0.0623  0.7211 -0.4102
 2867TIP3    H1 8607   5.681   5.002   3.806 -1.0465  0.9510 -0.8416
 2867TIP3    H2 8608   5.727   4.864   3.764 -0.9385  0.6847  0.1224
 2868TIP3   OH2 8609   6.065   5.267   4.744  0.2541 -0.1711  0.2652
 2868TIP3    H1 8610   6.149   5.243   4.783  0.6276 -0.5888 -0.7511
 2868TIP3    H2 8611   6.044   5.194   4.686 -0.1505  0.5429 -0.5094
 2869TIP3   OH2 8612   0.819   5.578   0.333  0.1637  0.2690  0.3027
 2869TIP3    H1 8613   0.742   5.613   0.288 -0.1964 -0.4313  0.3602
 2869TIP3    H2 8614   0.879   5.553   0.263  0.1495  0.3788  0.2495
 2870TIP3   OH2 8615   3.418   1.362   3.995 -0.1236  0.0255  0.1650
 2870TIP3    H1 8616   3.511   1.372   3.976  0.0260 -0.5507  0.5739
 2870TIP3    H2 8617   3.388   1.295   3.933 -0.0542 -0.4731  0.6651
 2871TIP3   OH2 8618   5.611   5.355   0.788  0.4235 -0.3359 -0.1330
 2871TIP3    H1 8619   5.549   5.403   0.842  0.8986  1.1335 -0.8608
 2871TIP3    H2 8620   5.567   5.345   0.704  1.1645  0.7711 -0.6749
 2872TIP3   OH2 8621   3.885   4.812   0.170 -0.0308  0.1079  0.4274
 2872TIP3    H1 8622   3.917   4.803   0.080  0.9157 -0.2105  0.7849
 2872TIP3    H2 8623   3.843   4.898   0.172 -0.3907 -0.0314 -0.4060
 2873TIP3   OH2 8624   6.034   3.735   1.638  0.0422  0.0267 -0.0326
 2873TIP3    H1 8625   6.116   3.781   1.618 -0.8251  0.5331 -2.8591
 2873TIP3    H2 8626   5.965   3.793   1.605 -1.2514 -1.7915 -0.7087
 2874TIP3   OH2 8627   4.966   5.987   1.717  0.0019 -0.4646  0.0371
 2874TIP3    H1 8628   4.933   5.944   1.638  0.2026  0.6602 -0.6822
 2874TIP3    H2 8629   4.984   5.915   1.778 -2.2841 -1.2469 -0.0922
 2875TIP3   OH2 8630   2.629   2.784   2.636  0.0299  0.2810 -0.6226
 2875TIP3    H1 8631   2.677   2.729   2.698  1.1950 -0.8081 -2.4352
 2875TIP3    H2 8632   2.579   2.723   2.583 -1.2258  1.2306 -0.5875
 2876TIP3   OH2 8633   2.370   1.009   3.957 -0.1282  0.0970 -0.4618
 2876TIP3    H1 8634   2.288   1.046   3.925 -0.5513 -1.1484 -0.8959
 2876TIP3    H2 8635   2.346   0.923   3.991  0.9684 -0.2141 -0.4287
 2877TIP3   OH2 8636   5.710   3.132   0.313  0.1060 -0.3059  0.4521
 2877TIP3    H1 8637   5.714   3.056   0.254  1.3900  0.0505  0.0542
 2877TIP3    H2 8638   5.649   3.192   0.269  3.7842  1.6032 -2.6496
 2878TIP3   OH2 8639   2.093   2.382   3.343  0.3569 -0.0413  0.0956
 2878TIP3    H1 8640   1.999   2.387   3.359  0.3210  0.1661 -0.1826
 2878TIP3    H2 8641   2.106   2.428   3.260  0.9524  1.5228  1.0188
 2879TIP3   OH2 8642   3.683   1.350   3.901 -0.1675 -0.4612  0.0952
 2879TIP3    H1 8643   3.723   1.437   3.896 -1.4859  0.6166  4.2957
 2879TIP3    H2 8644   3.748   1.296   3.947 -0.3073 -1.0084 -0.3403
 2880TIP3   OH2 8645   4.665   3.329   1.057  0.0494 -0.3589 -0.1738
 2880TIP3    H1 8646   4.735   3.356   0.996 -1.4931  0.0476 -1.8663
 2880TIP3    H2 8647   4.703   3.255   1.105  1.9926  0.4861 -0.2921
 2881TIP3   OH2 8648   6.037   2.763   3.727  0.3610 -0.1917 -0.3286
 2881TIP3    H1 8649   6.114   2.706   3.724 -0.6938 -1.6758 -0.5422
 2881TIP3    H2 8650   6.071   2.848   3.756  2.0858 -0.7543 -0.5551
 2882TIP3   OH2 8651   0.853   3.157   0.101 -0.2513 -0.7882  0.1234
 2882TIP3    H1 8652   0.817   3.128   0.184 -0.2812  0.4021  0.5461
 2882TIP3    H2 8653   0.945   3.178   0.120 -0.6563  1.0357  0.2835
 2883TIP3   OH2 8654   5.324   2.207   1.409  0.1291 -0.0981  0.5075
 2883TIP3    H1 8655   5.264   2.164   1.470 -0.4620  0.2932  0.2035
 2883TIP3    H2 8656   5.324   2.151   1.332 -1.0890  0.7259 -0.1160
 2884TIP3   OH2 8657   5.978   0.951   3.408 -0.0826  0.1014 -0.3535
 2884TIP3    H1 8658   5.903   0.970   3.464 -0.6274 -0.2679 -0.9327
 2884TIP3    H2 8659   5.953   0.870   3.363  1.4198 -1.0338  0.7630
 2885TIP3   OH2 8660   5.571   2.063   1.038 -0.7821  0.4441 -0.5949
 2885TIP3    H1 8661   5.501   2.116   1.077 -0.1407  0.4298  0.6249
 2885TIP3    H2 8662   5.555   1.975   1.070 -0.4886  0.3511 -0.7031
 2886TIP3   OH2 8663   1.279   1.280   2.568 -0.1776  0.3097  0.2793
 2886TIP3    H1 8664   1.364   1.320   2.590 -0.3596 -0.0694  1.7832
 2886TIP3    H2 8665   1.233   1.276   2.652 -0.8065 -1.5403 -0.1285
 2887TIP3   OH2 8666   0.659   0.255   0.127  0.0713 -0.1535  0.0202
 2887TIP3    H1 8667   0.636   0.345   0.149  0.7776  0.4721 -1.6260
 2887TIP3    H2 8668   0.587   0.225   0.071 -0.3239 -0.7565  0.8206
 2888TIP3   OH2 8669   3.263   2.668   2.639  0.2395  0.3897  0.2394
 2888TIP3    H1 8670   3.317   2.740   2.607 -1.3691  1.9002  0.6964
 2888TIP3    H2 8671   3.307   2.639   2.719  1.5470  0.0407 -0.5857
 2889TIP3   OH2 8672   2.384   2.037   0.685  0.1322  0.6039  0.0863
 2889TIP3    H1 8673   2.467   2.029   0.637 -0.7481 -0.9429 -1.2750
 2889TIP3    H2 8674   2.339   2.110   0.641 -0.3925 -0.3850 -1.0818
 2890TIP3   OH2 8675   4.827   5.190   1.478  0.2343 -0.4551  0.1328
 2890TIP3    H1 8676   4.732   5.181   1.492  0.1725  0.4283  0.3131
 2890TIP3    H2 8677   4.866   5.138   1.548 -0.1193 -0.1019  0.5995
 2891TIP3   OH2 8678   2.041   4.951   3.847  0.4978 -0.0437  0.2295
 2891TIP3    H1 8679   2.045   5.036   3.803  0.9212  0.4022  1.1086
 2891TIP3    H2 8680   2.118   4.903   3.816  0.7464  0.2330  0.4225
 2892TIP3   OH2 8681   2.769   1.621   3.536  0.1385  0.7850  0.3108
 2892TIP3    H1 8682   2.793   1.629   3.629  0.1251  1.3231  0.2671
 2892TIP3    H2 8683   2.845   1.655   3.489 -0.8557  2.9738  0.1770
 2893TIP3   OH2 8684   5.217   5.740   0.137  0.8794  0.1161 -0.1725
 2893TIP3    H1 8685   5.212   5.653   0.178 -1.8525  0.6160  0.7831
 2893TIP3    H2 8686   5.237   5.799   0.210 -1.5855  0.7300  0.0768
 2894TIP3   OH2 8687   3.509   4.044   1.097 -0.2627  0.3151  0.0560
 2894TIP3    H1 8688   3.455   4.116   1.065  0.6306  1.4031  0.9284
 2894TIP3    H2 8689   3.599   4.074   1.086  0.1068 -0.1682  1.5366
 2895TIP3   OH2 8690   2.271   0.069   0.078  0.0781 -0.4810  0.3166
 2895TIP3    H1 8691   2.227   0.057  -0.007  2.2834 -1.0764 -0.8168
 2895TIP3    H2 8692   2.201   0.094   0.138 -1.3624  1.5196 -2.0097
 2896TIP3   OH2 8693   1.510   0.687   3.338 -0.2139 -0.3846  0.2469
 2896TIP3    H1 8694   1.603   0.678   3.315 -0.1125  1.1467 -0.0075
 2896TIP3    H2 8695   1.473   0.740   3.268 -1.3007 -0.9821  0.3516
 2897TIP3   OH2 8696   2.129   4.217   4.221 -0.5674 -0.0513  0.2832
 2897TIP3    H1 8697   2.178   4.274   4.161  0.7489 -0.2904  1.0824
 2897TIP3    H2 8698   2.173   4.133   4.215 -0.9753 -0.3169  0.9246
 2898TIP3   OH2 8699   0.325   0.852   2.598 -0.7079  0.0179 -0.1757
 2898TIP3    H1 8700   0.308   0.880   2.507 -1.3518 -0.8777 -0.3436
 2898TIP3    H2 8701   0.316   0.933   2.649 -4.0011 -0.0104 -0.4625
 2899TIP3   OH2 8702   5.058   3.547   4.136 -0.1209  0.2059 -0.3149
 2899TIP3    H1 8703   5.118   3.522   4.066 -1.5056 -0.9260 -1.1507
 2899TIP3    H2 8704   5.081   3.489   4.209 -0.6922 -0.7961 -0.9046
 2900TIP3   OH2 8705   4.753   1.741   3.419 -0.2755 -0.5334  0.2018
 2900TIP3    H1 8706   4.678   1.789   3.456 -0.1495  1.2455 -1.6455
 2900TIP3    H2 8707   4.713   1.675   3.363 -0.5287  0.6779 -1.1028
 2901TIP3   OH2 8708   1.911   5.309   2.896  0.8434 -0.5082 -0.6251
 2901TIP3    H1 8709   1.833   5.292   2.949 -0.5460  1.0884 -2.0274
 2901TIP3    H2 8710   1.968   5.361   2.954 -0.3637  0.6686 -0.4299
 2902TIP3   OH2 8711   2.866   0.880   2.187 -0.4714  0.1021 -0.2849
 2902TIP3    H1 8712   2.834   0.806   2.238  1.2760 -0.2975  0.2911
 2902TIP3    H2 8713   2.901   0.841   2.107 -0.1160  0.3694 -0.2624
 2903TIP3   OH2 8714   3.155   4.155   0.599 -0.1996 -0.2422 -0.2470
 2903TIP3    H1 8715   3.208   4.129   0.674 -2.2373 -0.5022  1.1769
 2903TIP3    H2 8716   3.219   4.174   0.530  1.7417 -0.0426  1.5085
 2904TIP3   OH2 8717   2.088   3.753   0.564  0.0293 -0.1283  0.1235
 2904TIP3    H1 8718   2.112   3.710   0.646 -1.2635 -0.2917  0.4317
 2904TIP3    H2 8719   2.039   3.686   0.515 -0.4067  0.4077 -0.1830
 2905TIP3   OH2 8720   5.985   3.991   3.615 -0.4193 -0.0664 -0.0628
 2905TIP3    H1 8721   6.054   3.924   3.612 -1.4767 -1.1764 -1.1685
 2905TIP3    H2 8722   5.940   3.975   3.698  0.1095  0.1036  0.2618
 2906TIP3   OH2 8723   0.287   1.607   4.747  0.0840  0.3579 -0.4338
 2906TIP3    H1 8724   0.303   1.529   4.694 -1.2170 -0.6659  0.6169
 2906TIP3    H2 8725   0.250   1.670   4.686 -0.9535 -0.6420 -0.8724
 2907TIP3   OH2 8726   1.319   4.592   1.434 -0.5801 -0.4984 -0.3129
 2907TIP3    H1 8727   1.339   4.529   1.503 -0.9543  0.1605  0.4185
 2907TIP3    H2 8728   1.321   4.541   1.353 -1.2649 -1.5338  0.3018
 2908TIP3   OH2 8729   1.859   2.541   4.025  0.1802 -0.2740 -0.2127
 2908TIP3    H1 8730   1.907   2.595   3.963  2.4219 -0.6112  1.1184
 2908TIP3    H2 8731   1.880   2.578   4.111 -1.3565 -0.9408  0.5014
 2909TIP3   OH2 8732   4.751   4.100   4.063 -0.2272 -0.1054 -0.1814
 2909TIP3    H1 8733   4.671   4.087   4.114 -0.2545  0.7730  0.0066
 2909TIP3    H2 8734   4.722   4.143   3.983  0.1950  1.4619  0.4673
 2910TIP3   OH2 8735   2.333   4.757   3.904 -0.5395 -0.0994  0.0298
 2910TIP3    H1 8736   2.397   4.776   3.835 -0.3896 -1.6340 -0.2932
 2910TIP3    H2 8737   2.384   4.756   3.984 -0.5261  0.6275  0.0400
 2911TIP3   OH2 8738   1.330   0.840   2.235 -0.3374  0.4160  0.1813
 2911TIP3    H1 8739   1.260   0.869   2.176 -0.2720  0.4968  0.1441
 2911TIP3    H2 8740   1.349   0.916   2.289 -0.8649  0.1436  0.7663
 2912TIP3   OH2 8741   0.326   2.274   0.587  0.2239  0.3793 -0.6447
 2912TIP3    H1 8742   0.397   2.327   0.550 -1.8923  1.6331 -3.2168
 2912TIP3    H2 8743   0.317   2.201   0.526  0.7110 -1.0415  0.9096
 2913TIP3   OH2 8744   3.786   2.155   2.858  0.1096 -0.1428 -0.8482
 2913TIP3    H1 8745   3.737   2.222   2.810 -0.0531  0.3258 -0.0342
 2913TIP3    H2 8746   3.825   2.101   2.789  0.0788  0.6640 -1.5151
 2914TIP3   OH2 8747   6.222   5.024   4.385  0.4121  0.4244  0.3963
 2914TIP3    H1 8748   6.295   4.964   4.366  1.0299  1.7873 -1.8451
 2914TIP3    H2 8749   6.254   5.110   4.359 -0.5051  1.8248  3.4027
 2915TIP3   OH2 8750   5.328   4.029   2.058  0.3486 -0.3525 -0.3104
 2915TIP3    H1 8751   5.238   4.061   2.048  0.1355  0.1934  2.5605
 2915TIP3    H2 8752   5.319   3.934   2.059 -0.2622 -0.2967  0.3212
 2916TIP3   OH2 8753   0.716   5.664   3.124 -0.0510 -0.1605  0.2861
 2916TIP3    H1 8754   0.754   5.600   3.065  1.2018  0.0742  0.8124
 2916TIP3    H2 8755   0.630   5.683   3.087 -0.2609 -1.7912 -0.1247
 2917TIP3   OH2 8756   4.648   2.411   4.756 -0.2641  0.7653  0.2012
 2917TIP3    H1 8757   4.687   2.372   4.678  1.7089  0.8609  1.0756
 2917TIP3    H2 8758   4.604   2.490   4.724 -0.7044  0.0814 -0.9742
 2918TIP3   OH2 8759   4.279   2.433   4.163  0.6855 -0.6954 -0.5302
 2918TIP3    H1 8760   4.203   2.414   4.109  0.9604 -0.4419 -1.0096
 2918TIP3    H2 8761   4.246   2.494   4.230  0.5509 -0.2978 -0.9560
 2919TIP3   OH2 8762   1.190   3.379   0.189  0.0388 -0.9015  0.0457
 2919TIP3    H1 8763   1.141   3.300   0.167  1.6876 -1.1142 -3.5031
 2919TIP3    H2 8764   1.161   3.444   0.126  1.9812 -0.1035 -0.1034
 2920TIP3   OH2 8765   4.591   4.947   2.294  0.1288  0.1948  0.4154
 2920TIP3    H1 8766   4.565   4.883   2.227  1.8311 -0.8074  0.6771
 2920TIP3    H2 8767   4.512   5.000   2.307 -1.3008 -1.7416  0.0906
 2921TIP3   OH2 8768   0.635   0.576   4.124  0.2989 -0.1658  0.1889
 2921TIP3    H1 8769   0.702   0.579   4.192  0.8579 -0.2756 -0.3410
 2921TIP3    H2 8770   0.660   0.645   4.063 -0.4926  0.2745  0.3579
 2922TIP3   OH2 8771   2.829   3.798   1.124  0.2037 -0.5276  0.5026
 2922TIP3    H1 8772   2.874   3.821   1.205 -1.3867  0.7243  1.0950
 2922TIP3    H2 8773   2.812   3.882   1.081  1.7243 -1.2168 -1.5834
 2923TIP3   OH2 8774   1.276   5.136   1.842 -0.2980 -0.5069 -0.1696
 2923TIP3    H1 8775   1.254   5.203   1.777  1.0775  1.2008  1.0007
 2923TIP3    H2 8776   1.193   5.112   1.882 -0.7511  1.5639  0.2907
 2924TIP3   OH2 8777   2.631   3.837   3.387 -0.3772 -0.3293  0.0270
 2924TIP3    H1 8778   2.560   3.801   3.440  0.1930 -1.1507  0.2562
 2924TIP3    H2 8779   2.710   3.819   3.438 -0.0347  1.0363  0.0307
 2925TIP3   OH2 8780   2.535   5.304   4.915 -0.2428  0.8186 -0.1893
 2925TIP3    H1 8781   2.502   5.220   4.948  0.8312 -0.2721 -1.7019
 2925TIP3    H2 8782   2.545   5.358   4.993  1.5468 -1.3878  1.2678
 2926TIP3   OH2 8783   5.910   5.480   1.348  0.6561  0.5775  0.1827
 2926TIP3    H1 8784   5.910   5.510   1.439 -0.0441 -0.6763  0.6218
 2926TIP3    H2 8785   5.893   5.559   1.297 -0.1000  1.1121  1.2224
 2927TIP3   OH2 8786   4.020   4.472   5.085 -0.4393 -0.1164  0.4071
 2927TIP3    H1 8787   4.055   4.558   5.108  0.7704 -0.7627  1.0661
 2927TIP3    H2 8788   3.944   4.460   5.142 -0.9880  0.7431 -0.1118
 2928TIP3   OH2 8789   5.676   1.649   3.274 -0.6447  0.2188 -0.3142
 2928TIP3    H1 8790   5.767   1.665   3.301 -0.6306 -0.2092 -0.1047
 2928TIP3    H2 8791   5.661   1.557   3.295 -2.0943  0.9732  2.4738
 2929TIP3   OH2 8792   4.574   3.261   2.308  1.2150 -0.0902  0.0461
 2929TIP3    H1 8793   4.537   3.347   2.287 -0.0752 -0.3935  0.9640
 2929TIP3    H2 8794   4.561   3.250   2.402  2.0885 -0.9700  0.0891
 2930TIP3   OH2 8795   4.539   3.618   3.910  0.3458  0.0091  0.3640
 2930TIP3    H1 8796   4.559   3.544   3.853 -0.7905  0.3645 -0.5205
 2930TIP3    H2 8797   4.624   3.643   3.947  1.0999 -0.2656 -1.1059
 2931TIP3   OH2 8798   5.590   0.940   3.760  0.0567 -0.6836 -0.3309
 2931TIP3    H1 8799   5.624   0.888   3.834 -0.1689 -2.1033 -1.1919
 2931TIP3    H2 8800   5.592   1.030   3.792  0.4156 -1.2094  1.2414
 2932TIP3   OH2 8801   0.709   2.229   1.301 -0.1604  0.2740 -0.2950
 2932TIP3    H1 8802   0.685   2.301   1.243  1.0168  1.7366  0.9150
 2932TIP3    H2 8803   0.803   2.217   1.287  0.3967  1.3808  1.9434
 2933TIP3   OH2 8804   6.065   5.614   0.136  0.2792 -0.2233 -0.1869
 2933TIP3    H1 8805   5.990   5.671   0.147  0.4571 -0.0796  0.3588
 2933TIP3    H2 8806   6.141   5.672   0.143  0.4515 -0.4598 -0.0661
 2934TIP3   OH2 8807   1.334   0.756   4.036  0.3354  0.1451 -0.0638
 2934TIP3    H1 8808   1.390   0.831   4.055  1.0806  0.4518 -2.9616
 2934TIP3    H2 8809   1.247   0.793   4.022  0.5311  0.3882 -0.6723
 2935TIP3   OH2 8810   2.587   1.577   1.680 -0.3302  0.6834 -0.0999
 2935TIP3    H1 8811   2.624   1.609   1.763 -0.8522 -0.8987  0.7875
 2935TIP3    H2 8812   2.567   1.657   1.631  0.5073  1.6568  1.0556
 2936TIP3   OH2 8813   0.539   4.343   0.741 -0.2793  0.1445 -0.0662
 2936TIP3    H1 8814   0.505   4.254   0.748 -1.4985  0.6516  0.7868
 2936TIP3    H2 8815   0.609   4.337   0.676  1.2447 -1.8917  1.6594
 2937TIP3   OH2 8816   5.955   0.167   1.087 -0.2928  0.2129 -0.9963
 2937TIP3    H1 8817   5.965   0.226   1.161 -1.8643  0.1267 -0.6804
 2937TIP3    H2 8818   5.917   0.221   1.018  2.1394  0.5620 -2.1644
 2938TIP3   OH2 8819   5.796   1.825   1.227  0.1163 -0.8772 -0.0870
 2938TIP3    H1 8820   5.750   1.759   1.174 -2.0443  0.3117  0.2067
 2938TIP3    H2 8821   5.793   1.904   1.174  1.4697 -0.6378  0.1571
 2939TIP3   OH2 8822   5.676   0.741   0.178  0.1703 -0.2956 -0.0130
 2939TIP3    H1 8823   5.679   0.682   0.253 -4.0226 -1.5376 -0.6035
 2939TIP3    H2 8824   5.656   0.827   0.216  1.9382 -0.0720  0.5005
 2940TIP3   OH2 8825   5.689   1.548   4.988  0.2377 -0.2968 -0.6667
 2940TIP3    H1 8826   5.616   1.608   4.974  0.9928  0.9206  0.3547
 2940TIP3    H2 8827   5.673   1.511   5.075 -0.2414 -1.6579 -1.3023
 2941TIP3   OH2 8828   6.352   4.812   2.113 -0.1728 -0.2133 -0.4577
 2941TIP3    H1 8829   6.292   4.854   2.051  1.6640  1.7631 -1.0142
 2941TIP3    H2 8830   6.339   4.861   2.195 -1.2801 -1.6283  0.2551
 2942TIP3   OH2 8831   3.064   0.930   0.174  0.1668  0.1622 -0.3439
 2942TIP3    H1 8832   3.043   0.908   0.083  0.2522  2.3990 -0.9476
 2942TIP3    H2 8833   3.153   0.965   0.172  0.4193 -0.3434  0.7279
 2943TIP3   OH2 8834   5.940   4.553   0.644  0.2318  0.2994 -0.1708
 2943TIP3    H1 8835   6.029   4.575   0.614  0.5821 -1.6478 -0.7195
 2943TIP3    H2 8836   5.937   4.581   0.735  1.1756  1.0105 -0.3455
 2944TIP3   OH2 8837   0.349   5.335   2.587  0.2634  0.4240  0.1569
 2944TIP3    H1 8838   0.329   5.251   2.628  0.1769 -0.1088 -0.9362
 2944TIP3    H2 8839   0.345   5.398   2.658  0.0458 -0.4586  0.9441
 2945TIP3   OH2 8840   1.696   4.678   0.119  0.1565 -0.0003  0.0341
 2945TIP3    H1 8841   1.762   4.638   0.063 -1.2044 -0.2077 -1.5103
 2945TIP3    H2 8842   1.742   4.696   0.201  2.5696  1.3909 -1.4972
 2946TIP3   OH2 8843   5.114   3.265   2.084  0.1246  0.4452 -0.0736
 2946TIP3    H1 8844   5.054   3.258   2.159 -0.8661  1.7820 -0.6743
 2946TIP3    H2 8845   5.174   3.192   2.094 -0.1255  0.4432  1.8927
 2947TIP3   OH2 8846   3.252   2.709   3.098  0.0060  0.6773  0.2973
 2947TIP3    H1 8847   3.208   2.793   3.082 -0.1637  0.7560  1.1103
 2947TIP3    H2 8848   3.191   2.661   3.154 -0.2790 -0.3407 -0.8406
 2948TIP3   OH2 8849   6.100   4.451   1.330  0.2022  0.0978 -0.5765
 2948TIP3    H1 8850   6.030   4.423   1.270  0.3316 -0.6887 -0.3646
 2948TIP3    H2 8851   6.087   4.398   1.408  0.6950  0.3572 -0.3167
 2949TIP3   OH2 8852   0.664   1.862   2.271  0.2503  0.1245  0.5653
 2949TIP3    H1 8853   0.728   1.909   2.326  0.2607  0.8270 -0.0260
 2949TIP3    H2 8854   0.638   1.927   2.205 -0.4606 -0.4165  0.3081
 2950TIP3   OH2 8855   0.058   4.629   3.689  0.2062  0.6331 -0.3363
 2950TIP3    H1 8856   0.117   4.702   3.708 -0.4168  0.9064  0.6619
 2950TIP3    H2 8857  -0.029   4.662   3.714 -0.2295 -0.1088 -0.8257
 2951TIP3   OH2 8858   5.046   2.308   0.501  0.4788 -0.0444 -0.2820
 2951TIP3    H1 8859   5.092   2.314   0.417  0.4821  0.9792 -0.2254
 2951TIP3    H2 8860   5.104   2.352   0.563 -0.1944  0.5325 -0.0475
 2952TIP3   OH2 8861   1.081   1.102   2.454  0.0209  0.3733  0.0073
 2952TIP3    H1 8862   1.172   1.120   2.475  0.7196 -1.1189 -1.4814
 2952TIP3    H2 8863   1.043   1.069   2.535  0.8892  0.6534  0.5418
 2953TIP3   OH2 8864   5.188   1.038   5.009  0.4851  0.4821  0.0856
 2953TIP3    H1 8865   5.249   1.038   5.083  2.4117 -1.2504 -1.3817
 2953TIP3    H2 8866   5.241   1.061   4.933 -0.9943  0.3232 -1.0538
 2954TIP3   OH2 8867   4.994   1.589   3.548  0.3252  0.3162 -0.3395
 2954TIP3    H1 8868   4.995   1.657   3.614  0.4179  0.7548 -0.7875
 2954TIP3    H2 8869   4.920   1.611   3.491 -0.2312 -0.4805  0.0461
 2955TIP3   OH2 8870   3.045   2.711   4.196 -0.0170  0.1277  0.0071
 2955TIP3    H1 8871   3.013   2.801   4.188 -1.2148 -0.2468  0.3717
 2955TIP3    H2 8872   3.140   2.720   4.200 -0.1476  1.4370  0.7434
 2956TIP3   OH2 8873   2.998   0.296   2.615 -0.3990  0.2283  0.7570
 2956TIP3    H1 8874   2.921   0.254   2.653 -0.1117 -1.1877 -0.1569
 2956TIP3    H2 8875   3.002   0.382   2.658 -2.3006  0.2206  1.0330
 2957TIP3   OH2 8876   0.460   4.413   1.861 -0.1354 -0.8423 -0.5138
 2957TIP3    H1 8877   0.428   4.323   1.855  1.0863 -1.2734 -0.8137
 2957TIP3    H2 8878   0.417   4.449   1.939 -1.6982 -1.2247 -1.1648
 2958TIP3   OH2 8879   2.280   4.535   4.203  0.4260 -0.0329 -0.0818
 2958TIP3    H1 8880   2.269   4.629   4.218  1.1978 -0.0103  0.4232
 2958TIP3    H2 8881   2.285   4.498   4.291  1.8377 -0.3178 -0.2550
 2959TIP3   OH2 8882   0.220   2.704   2.055  0.0964  0.1215 -0.5583
 2959TIP3    H1 8883   0.234   2.770   2.123  0.6709  0.1233 -0.6734
 2959TIP3    H2 8884   0.248   2.747   1.974 -2.1257  0.7175 -1.0814
 2960TIP3   OH2 8885   4.590   5.870   1.737  0.4360 -0.0993  0.3570
 2960TIP3    H1 8886   4.573   5.890   1.645 -1.8301  0.2775  0.8017
 2960TIP3    H2 8887   4.568   5.777   1.746  1.0382 -0.2375  0.4513
 2961TIP3   OH2 8888   2.847   4.073   1.105  0.2743  0.1757 -0.6516
 2961TIP3    H1 8889   2.846   4.134   1.031 -1.4121  0.8607 -0.1224
 2961TIP3    H2 8890   2.829   4.128   1.181 -1.2939 -0.9528 -0.1680
 2962TIP3   OH2 8891   4.057   2.507   2.921  0.0837 -0.3917 -0.1566
 2962TIP3    H1 8892   4.106   2.589   2.923 -0.2323 -0.2138  0.3552
 2962TIP3    H2 8893   4.001   2.515   2.844  0.8155 -0.5813 -0.7250
 2963TIP3   OH2 8894   3.187   4.188   2.388 -0.2556 -0.0827 -0.5249
 2963TIP3    H1 8895   3.155   4.256   2.447 -1.1781 -0.4079 -0.6340
 2963TIP3    H2 8896   3.178   4.226   2.301  1.4839  0.5496 -0.4565
 2964TIP3   OH2 8897   0.408   1.847   1.574  0.3657  0.6372 -0.4057
 2964TIP3    H1 8898   0.474   1.907   1.538 -0.6413  0.6976 -2.2833
 2964TIP3    H2 8899   0.355   1.902   1.632  1.5923  0.7185  0.6624
 2965TIP3   OH2 8900   2.793   5.687   4.284 -0.0288  0.8090  0.3557
 2965TIP3    H1 8901   2.753   5.769   4.255  1.7588  0.8444 -2.3574
 2965TIP3    H2 8902   2.870   5.714   4.334  0.3549  0.7994 -0.2240
 2966TIP3   OH2 8903   3.627   3.923   4.590  0.3779 -0.4237  0.0655
 2966TIP3    H1 8904   3.609   3.972   4.509 -0.5049  3.7327  2.4635
 2966TIP3    H2 8905   3.541   3.914   4.631  1.1802  0.6943  2.0799
 2967TIP3   OH2 8906   3.248   5.491   3.243 -0.1336  0.1844  0.5444
 2967TIP3    H1 8907   3.308   5.564   3.254 -0.8427  0.9705 -0.6793
 2967TIP3    H2 8908   3.305   5.415   3.229  0.5976  0.9410 -0.7583
 2968TIP3   OH2 8909   5.870   1.169   1.512 -0.1259 -1.1073  0.3251
 2968TIP3    H1 8910   5.935   1.202   1.574  0.3304  0.8808 -1.1351
 2968TIP3    H2 8911   5.867   1.234   1.443 -2.0572 -2.2841 -0.7890
 2969TIP3   OH2 8912   4.908   4.612   1.360 -0.0644  0.0757 -0.0651
 2969TIP3    H1 8913   4.928   4.524   1.391 -1.2565 -0.5929 -1.1062
 2969TIP3    H2 8914   4.931   4.669   1.433  0.8134 -1.0831  0.5898
 2970TIP3   OH2 8915   0.382   4.064   4.568  0.1207 -0.3842  0.2737
 2970TIP3    H1 8916   0.294   4.039   4.540  0.0371 -1.0516  1.0852
 2970TIP3    H2 8917   0.425   3.981   4.587  0.4196  0.0089  1.3613
 2971TIP3   OH2 8918   6.131   1.478   3.199  0.3455 -0.4490 -0.0600
 2971TIP3    H1 8919   6.102   1.471   3.108 -0.3740  0.3806  0.0905
 2971TIP3    H2 8920   6.226   1.484   3.194  0.2125  2.0438 -0.9487
 2972TIP3   OH2 8921   4.148   5.193   3.348  0.3292 -0.4203  0.3997
 2972TIP3    H1 8922   4.164   5.104   3.381  2.1291 -0.3476 -0.1675
 2972TIP3    H2 8923   4.155   5.249   3.426  4.2485 -0.2858  0.1536
 2973TIP3   OH2 8924   1.817   4.130   0.496  0.5067  0.3038  0.2331
 2973TIP3    H1 8925   1.755   4.086   0.554  0.1936  1.8395  1.1113
 2973TIP3    H2 8926   1.863   4.192   0.552  2.9127 -0.8083 -0.3781
 2974TIP3   OH2 8927   4.015   5.164   1.325  0.3222 -0.5914 -0.8674
 2974TIP3    H1 8928   4.031   5.183   1.233  1.7452 -1.4071 -0.8209
 2974TIP3    H2 8929   4.069   5.227   1.373  0.4737 -0.8968 -0.6248
 2975TIP3   OH2 8930   3.690   1.327   2.953  0.6330 -0.1272 -0.2184
 2975TIP3    H1 8931   3.705   1.408   3.002 -2.6729  0.1448  0.5758
 2975TIP3    H2 8932   3.718   1.258   3.013  2.3754  0.3424 -0.4440
 2976TIP3   OH2 8933   2.399   1.885   0.946  0.3654 -0.2847 -0.2938
 2976TIP3    H1 8934   2.411   1.934   0.865 -1.9761  0.0761 -0.5019
 2976TIP3    H2 8935   2.404   1.793   0.919 -2.6089 -0.2512 -1.4049
 2977TIP3   OH2 8936   3.743   2.813   4.586 -0.2158  0.1467  0.3412
 2977TIP3    H1 8937   3.805   2.775   4.524 -0.8523 -0.3280 -0.0174
 2977TIP3    H2 8938   3.785   2.893   4.616  0.1830  0.2926 -0.5686
 2978TIP3   OH2 8939   5.193   0.664   3.526  0.0210 -0.0034  0.4637
 2978TIP3    H1 8940   5.250   0.717   3.582 -0.7166 -0.4326  1.6631
 2978TIP3    H2 8941   5.197   0.576   3.566  0.3350 -0.5934 -0.8180
 2979TIP3   OH2 8942   4.583   2.320   1.077  0.1020  0.1882 -0.3468
 2979TIP3    H1 8943   4.537   2.250   1.030  1.7654 -1.0509 -0.2167
 2979TIP3    H2 8944   4.671   2.321   1.038 -0.1294  2.8570 -0.9749
 2980TIP3   OH2 8945   0.767   2.000   2.011  0.0282 -0.2589  0.1816
 2980TIP3    H1 8946   0.770   2.095   2.017 -0.1271 -0.1835 -0.7806
 2980TIP3    H2 8947   0.676   1.979   1.990 -0.1164 -0.6806  1.1603
 2981TIP3   OH2 8948   4.417   5.154   2.199 -0.1473 -0.3917 -0.0699
 2981TIP3    H1 8949   4.399   5.186   2.288  1.5819 -1.2412  0.6240
 2981TIP3    H2 8950   4.415   5.232   2.145 -0.4456  0.2522  0.8417
 2982TIP3   OH2 8951   2.094   4.654   4.812  0.6606 -0.0718 -0.3204
 2982TIP3    H1 8952   2.186   4.633   4.828  0.5046 -0.8088 -0.3822
 2982TIP3    H2 8953   2.068   4.596   4.741  0.4057  0.8052 -0.9541
 2983TIP3   OH2 8954   5.799   2.069   1.849 -0.6430 -0.3570  0.0112
 2983TIP3    H1 8955   5.855   1.992   1.852 -0.3176 -0.1106  0.2499
 2983TIP3    H2 8956   5.740   2.053   1.775  0.8903  0.1797 -1.3733
 2984TIP3   OH2 8957   3.341   4.914   3.729  0.7295  0.1679  0.2285
 2984TIP3    H1 8958   3.254   4.941   3.758  0.6899  2.4773 -1.6864
 2984TIP3    H2 8959   3.385   4.886   3.809 -1.8119 -1.3840  1.2086
 2985TIP3   OH2 8960   2.553   3.835   1.706 -0.3973  0.3813 -0.0974
 2985TIP3    H1 8961   2.641   3.802   1.725 -0.6467  0.0628  0.5623
 2985TIP3    H2 8962   2.567   3.916   1.657  0.2422 -0.2969 -1.0615
 2986TIP3   OH2 8963   3.966   0.993   4.750 -0.2495  0.0554  0.1071
 2986TIP3    H1 8964   4.033   0.966   4.686  0.0874  1.3640 -0.1439
 2986TIP3    H2 8965   3.945   1.083   4.725 -1.5146 -0.0502  0.7008
 2987TIP3   OH2 8966   5.780   3.865   1.459 -0.0862  0.1600 -0.0259
 2987TIP3    H1 8967   5.725   3.942   1.439  0.1220  0.1786 -0.5312
 2987TIP3    H2 8968   5.766   3.806   1.386 -0.3473 -0.3473  0.4313
 2988TIP3   OH2 8969   1.655   0.855   2.232  0.1065  0.0272  0.0815
 2988TIP3    H1 8970   1.628   0.781   2.286 -1.1326  0.3057 -0.1429
 2988TIP3    H2 8971   1.621   0.836   2.145 -0.2329  0.8663  0.0246
 2989TIP3   OH2 8972   4.633   0.031   2.391  0.2579  0.6718  0.1274
 2989TIP3    H1 8973   4.570   0.037   2.463  1.8090  0.3104  1.5754
 2989TIP3    H2 8974   4.586  -0.014   2.322 -1.6094  1.9034  0.5158
 2990TIP3   OH2 8975   5.017   4.051   2.115 -0.3269  0.6326  0.2630
 2990TIP3    H1 8976   5.050   4.037   2.204 -0.1118  0.9893  0.2390
 2990TIP3    H2 8977   4.988   3.964   2.087  0.4136  0.3483  0.3531
 2991TIP3   OH2 8978   6.100   1.625   5.006  0.0583  0.1808  0.0280
 2991TIP3    H1 8979   6.156   1.615   5.083 -0.8763 -1.2456  0.5483
 2991TIP3    H2 8980   6.162   1.626   4.932  0.9535  1.4998  0.7604
 2992TIP3   OH2 8981   4.801   3.007   0.048  0.1069 -0.0913  0.0460
 2992TIP3    H1 8982   4.793   2.958   0.129 -3.6547  1.0880  0.6093
 2992TIP3    H2 8983   4.726   2.980  -0.004  1.4268  0.5046 -2.3129
 2993TIP3   OH2 8984   0.716   5.183   2.307 -0.3721  0.1749 -0.5293
 2993TIP3    H1 8985   0.709   5.089   2.293  0.6930  0.0343 -0.2503
 2993TIP3    H2 8986   0.715   5.193   2.402  1.0052  0.2870 -0.5079
 2994TIP3   OH2 8987   5.498   3.856   4.402  0.0448  0.9826 -0.4411
 2994TIP3    H1 8988   5.432   3.830   4.337 -1.7168  2.1809  0.7903
 2994TIP3    H2 8989   5.545   3.929   4.360  0.7960 -0.0117 -1.4065
 2995TIP3   OH2 8990   4.127   3.813   1.726  0.1358  0.1930  0.5673
 2995TIP3    H1 8991   4.088   3.730   1.697  0.7278 -0.1391  0.7063
 2995TIP3    H2 8992   4.157   3.854   1.645 -1.8746  1.2018  0.2567
 2996TIP3   OH2 8993   4.646   3.784   0.072 -0.0207  0.0753  0.5638
 2996TIP3    H1 8994   4.553   3.801   0.060  0.2292  0.6982 -0.7003
 2996TIP3    H2 8995   4.671   3.834   0.149 -0.4435  1.0541  0.0742
 2997TIP3   OH2 8996   4.743   2.957   2.127 -0.1504  0.0187 -0.1007
 2997TIP3    H1 8997   4.745   2.896   2.053  0.1433 -0.0093 -0.0708
 2997TIP3    H2 8998   4.816   3.017   2.111  1.1652 -1.1777  1.1566
 2998TIP3   OH2 8999   0.328   3.964   0.131  0.0040 -0.2173  0.2038
 2998TIP3    H1 9000   0.398   3.983   0.069  1.8034  0.6640  2.3612
 2998TIP3    H2 9001   0.350   3.878   0.167  0.8564  0.6682  1.9158
 2999TIP3   OH2 9002   5.263   4.523   2.782  0.1137 -0.2356  0.2187
 2999TIP3    H1 9003   5.345   4.564   2.811  0.2783 -0.7562  0.4860
 2999TIP3    H2 9004   5.253   4.553   2.691  0.7267 -0.3594  0.1037
 3000TIP3   OH2 9005   1.696   3.356   1.855  0.3661  0.1163 -0.0449
 3000TIP3    H1 9006   1.638   3.431   1.842  0.1934  0.0819  0.5339
 3000TIP3    H2 9007   1.751   3.380   1.929 -1.7424 -1.5453  2.1989
 3001TIP3   OH2 9008   5.152   5.658   4.647 -0.2362  0.3074  0.0808
 3001TIP3    H1 9009   5.124   5.745   4.617  1.6500  0.8035 -0.3509
 3001TIP3    H2 9010   5.168   5.609   4.566 -0.1127 -0.0531  0.3227
 3002TIP3   OH2 9011   5.299   2.499   3.359  0.0286  0.2391 -0.3664
 3002TIP3    H1 9012   5.322   2.585   3.323 -3.1134  0.5709 -1.9773
 3002TIP3    H2 9013   5.203   2.498   3.358 -0.0609 -3.2122 -0.2450
 3003TIP3   OH2 9014   0.359   1.961   0.268 -0.3894 -0.2947  0.5440
 3003TIP3    H1 9015   0.420   1.911   0.214 -0.7171  1.3050 -1.4148
 3003TIP3    H2 9016   0.408   2.039   0.293 -0.9749  0.0321  0.6851
 3004TIP3   OH2 9017   4.910   1.009   2.548 -0.0663  0.2494  0.1242
 3004TIP3    H1 9018   4.981   0.956   2.585 -0.4213  0.4843  1.1753
 3004TIP3    H2 9019   4.854   0.947   2.503  1.2330  0.1569 -1.4522
 3005TIP3   OH2 9020   3.082   3.639   2.665 -0.0360  0.4506  0.8275
 3005TIP3    H1 9021   3.153   3.575   2.655 -0.6324 -0.2039  0.7730
 3005TIP3    H2 9022   3.050   3.655   2.576 -0.5572  0.0606  0.9435
 3006TIP3   OH2 9023   3.983   5.257   5.056 -0.8367  0.1472 -0.1960
 3006TIP3    H1 9024   3.952   5.208   4.980 -0.0327 -0.0175 -0.4170
 3006TIP3    H2 9025   4.018   5.338   5.020 -1.0762  0.3714  0.0665
 3007TIP3   OH2 9026   5.342   0.771   2.163 -0.1688  0.1993 -0.0781
 3007TIP3    H1 9027   5.310   0.854   2.127 -0.5341  1.2272  2.3552
 3007TIP3    H2 9028   5.424   0.794   2.206 -0.9251 -0.3502  1.7742
 3008TIP3   OH2 9029   0.221   2.115   0.958 -0.2136  0.1286 -0.3431
 3008TIP3    H1 9030   0.237   2.196   1.005 -1.7799 -0.2756  0.9810
 3008TIP3    H2 9031   0.307   2.089   0.924  0.3921  2.0595 -0.3819
 3009TIP3   OH2 9032   2.032   5.758   0.459 -0.6083  0.1474 -0.4563
 3009TIP3    H1 9033   2.071   5.679   0.423 -0.0676  0.2874 -0.1895
 3009TIP3    H2 9034   2.107   5.811   0.488 -0.9447  0.8599 -0.8453
 3010TIP3   OH2 9035   2.301   0.059   1.928  0.6125 -0.0174 -0.4104
 3010TIP3    H1 9036   2.246   0.137   1.918 -0.3146 -0.4546  1.0354
 3010TIP3    H2 9037   2.385   0.093   1.959  0.4302  0.4591 -0.4288
 3011TIP3   OH2 9038   3.524   2.383   2.294 -0.0512  0.5305 -0.3018
 3011TIP3    H1 9039   3.608   2.408   2.255 -0.5743  1.1127 -1.1013
 3011TIP3    H2 9040   3.543   2.366   2.386  0.8229  1.2856 -0.3379
 3012TIP3   OH2 9041   5.768   4.565   2.786  0.5425 -0.0707  0.0905
 3012TIP3    H1 9042   5.819   4.563   2.867  0.4004 -0.5098  0.1690
 3012TIP3    H2 9043   5.749   4.658   2.773  0.6766  0.0169  0.4904
 3013TIP3   OH2 9044   4.749   4.004   1.079 -0.0941 -0.4282 -0.4103
 3013TIP3    H1 9045   4.816   3.961   1.027  1.0822 -0.4492  1.0599
 3013TIP3    H2 9046   4.749   4.095   1.048 -0.3836 -0.7401 -1.3614
 3014TIP3   OH2 9047   1.823   3.699   4.347 -0.4346 -0.2817 -0.0139
 3014TIP3    H1 9048   1.900   3.728   4.396 -0.1114 -0.2199 -0.5521
 3014TIP3    H2 9049   1.784   3.631   4.402 -0.3552  0.1242  0.5562
 3015TIP3   OH2 9050   4.218   2.859   1.563  1.1043  0.1515  0.4967
 3015TIP3    H1 9051   4.264   2.887   1.642  1.5156  0.5464  0.1258
 3015TIP3    H2 9052   4.273   2.789   1.527  0.4292 -0.6830  1.0571
 3016TIP3   OH2 9053   6.061   4.759   0.312 -0.5425 -0.4841 -0.1749
 3016TIP3    H1 9054   6.012   4.810   0.246  0.6591  0.4849 -0.3509
 3016TIP3    H2 9055   5.995   4.737   0.377 -1.3740  0.1943 -0.7506
 3017TIP3   OH2 9056   1.858   5.512   3.482  0.3156  0.0655  0.2397
 3017TIP3    H1 9057   1.904   5.595   3.483  1.5054 -0.5683 -0.1083
 3017TIP3    H2 9058   1.922   5.449   3.450 -0.9841 -0.7494 -0.8741
 3018TIP3   OH2 9059   2.284   0.307   2.289  0.2447  0.5753  0.6075
 3018TIP3    H1 9060   2.195   0.325   2.320  0.6129  0.2648  1.9300
 3018TIP3    H2 9061   2.311   0.388   2.245 -0.0308  1.3570  1.8267
 3019TIP3   OH2 9062   0.508   3.352   3.828  0.7509  0.1023 -0.1455
 3019TIP3    H1 9063   0.590   3.337   3.875  0.5568  1.8311  0.8233
 3019TIP3    H2 9064   0.534   3.388   3.743  1.0126  0.4404  0.0758
 3020TIP3   OH2 9065   4.467   2.323   4.357  0.0160  0.0064  0.1875
 3020TIP3    H1 9066   4.481   2.235   4.323  0.3341 -0.6092  1.8481
 3020TIP3    H2 9067   4.393   2.356   4.307 -1.5089 -2.0070  1.0028
 3021TIP3   OH2 9068   3.049   3.682   1.829 -0.2013 -0.2163  0.4629
 3021TIP3    H1 9069   3.005   3.600   1.851  2.4468 -1.8210  0.2165
 3021TIP3    H2 9070   3.128   3.683   1.884  0.7482  1.2759 -0.8113
 3022TIP3   OH2 9071   0.851   2.964   2.599 -0.0526  0.3737  0.0779
 3022TIP3    H1 9072   0.833   2.881   2.642  0.0540  0.5534  0.4761
 3022TIP3    H2 9073   0.794   2.965   2.522 -2.0317  1.0844  1.4947
 3023TIP3   OH2 9074   2.552   2.923   1.979  0.5622  0.0189  0.0888
 3023TIP3    H1 9075   2.509   2.870   2.046  1.5491 -0.6473  0.2201
 3023TIP3    H2 9076   2.493   2.919   1.904  0.6032 -1.2655  0.1033
 3024TIP3   OH2 9077   0.886   5.117   3.743  0.1380  0.0895  0.2710
 3024TIP3    H1 9078   0.968   5.069   3.749  1.1985  1.5961 -1.1740
 3024TIP3    H2 9079   0.832   5.066   3.682  0.4105 -0.3638  0.4107
 3025TIP3   OH2 9080   6.220   4.765   2.560  0.2425  0.3434 -0.2255
 3025TIP3    H1 9081   6.135   4.799   2.533  0.3093 -0.7730 -1.9849
 3025TIP3    H2 9082   6.214   4.758   2.655 -2.0408 -0.7851 -0.3957
 3026TIP3   OH2 9083   4.312   4.976   4.811  0.5730 -0.5686 -0.0687
 3026TIP3    H1 9084   4.232   4.994   4.761  0.6833  3.3817  0.9215
 3026TIP3    H2 9085   4.383   5.000   4.752  0.9624 -1.5414 -0.0151
 3027TIP3   OH2 9086   3.797   3.318   0.943  0.0086 -0.0866 -0.1010
 3027TIP3    H1 9087   3.863   3.375   0.982  1.4430 -0.9993 -1.0844
 3027TIP3    H2 9088   3.845   3.267   0.878 -1.2378 -2.2374  0.5451
 3028TIP3   OH2 9089   5.410   1.456   2.275  0.0718  0.5072  0.2154
 3028TIP3    H1 9090   5.337   1.394   2.263  1.7656 -1.3462 -1.1498
 3028TIP3    H2 9091   5.438   1.441   2.366  0.7838 -1.2160 -0.2353
 3029TIP3   OH2 9092   5.277   0.929   2.711  0.4280 -0.0751 -0.2495
 3029TIP3    H1 9093   5.314   0.883   2.786  0.3107  0.5030  0.1688
 3029TIP3    H2 9094   5.251   1.015   2.745 -2.9691 -1.0398 -0.0423
 3030TIP3   OH2 9095   0.175   1.051   0.236 -0.3054  0.0151  0.0781
 3030TIP3    H1 9096   0.180   0.989   0.164 -1.3445  0.2259 -0.1802
 3030TIP3    H2 9097   0.164   0.997   0.314  0.8370 -0.2135  0.1104
 3031TIP3   OH2 9098   0.211   1.279   4.222  0.1965  0.0328  0.2496
 3031TIP3    H1 9099   0.165   1.279   4.138  0.1448 -2.5236  0.2033
 3031TIP3    H2 9100   0.249   1.192   4.229  0.3139  0.2062  2.8362
 3032TIP3   OH2 9101   3.006   3.799   0.216  0.0542 -0.3664 -0.0642
 3032TIP3    H1 9102   3.000   3.753   0.132 -2.0901  1.7964 -1.2146
 3032TIP3    H2 9103   3.100   3.812   0.229  0.5043 -1.7339 -1.5644
 3033TIP3   OH2 9104   2.933   0.987   3.122  0.5647  0.0977  0.3711
 3033TIP3    H1 9105   2.950   0.997   3.215  1.1732 -0.2935  0.3060
 3033TIP3    H2 9106   2.954   1.073   3.085  0.7615  0.1227  0.5361
 3034TIP3   OH2 9107   6.334   4.165   2.599  0.1347 -0.0142 -0.1422
 3034TIP3    H1 9108   6.311   4.077   2.629 -0.3339 -0.1128 -0.7632
 3034TIP3    H2 9109   6.279   4.223   2.652  0.9363 -0.0453  0.7456
 3035TIP3   OH2 9110   3.619   1.029   1.874  0.6563 -0.0411 -0.2635
 3035TIP3    H1 9111   3.690   1.026   1.938  0.1786  0.2354  0.2895
 3035TIP3    H2 9112   3.604   1.122   1.858  1.0280 -0.1137 -1.0765
 3036TIP3   OH2 9113   3.133   2.786   1.243  0.0777  0.2576 -0.3065
 3036TIP3    H1 9114   3.127   2.843   1.319 -1.0595 -2.2294  1.6030
 3036TIP3    H2 9115   3.128   2.697   1.278  1.2192 -1.0820 -3.1501
 3037TIP3   OH2 9116   0.755   5.464   0.822 -0.1203 -0.4738 -0.3319
 3037TIP3    H1 9117   0.792   5.458   0.735 -0.3427 -1.7717 -0.3646
 3037TIP3    H2 9118   0.669   5.420   0.814 -0.4774  0.0868  0.3491
 3038TIP3   OH2 9119   4.306   0.191   0.890  0.0387 -0.3174  0.1906
 3038TIP3    H1 9120   4.276   0.180   0.800 -0.4054  1.0226  0.1472
 3038TIP3    H2 9121   4.350   0.109   0.911 -0.8641 -1.0909 -0.8490
 3039TIP3   OH2 9122   3.514   1.352   0.426  0.0060  0.4186 -0.6612
 3039TIP3    H1 9123   3.454   1.314   0.491  0.6387  0.7521  0.1315
 3039TIP3    H2 9124   3.462   1.418   0.381 -1.4177 -1.9496 -2.7107
 3040TIP3   OH2 9125   5.612   1.260   0.749  0.0585  0.2566 -0.2221
 3040TIP3    H1 9126   5.556   1.183   0.755  0.9394 -0.3806  0.1222
 3040TIP3    H2 9127   5.646   1.258   0.659  0.5412 -0.0969 -0.0353
 3041TIP3   OH2 9128   3.633   0.299   4.139  0.5416  0.1233  0.1265
 3041TIP3    H1 9129   3.578   0.352   4.196  1.4642 -0.1206  1.3114
 3041TIP3    H2 9130   3.677   0.361   4.082  0.4061  0.4829  0.4133
 3042TIP3   OH2 9131   5.154   2.001   3.831  0.8683 -0.5623  0.4060
 3042TIP3    H1 9132   5.235   2.028   3.786 -0.0309  0.1786 -0.8594
 3042TIP3    H2 9133   5.085   2.049   3.785 -0.3523 -1.5905  1.1145
 3043TIP3   OH2 9134   2.360   4.993   4.958  0.1326  0.5578  0.1674
 3043TIP3    H1 9135   2.387   5.049   5.031  0.4107 -1.6844  1.8996
 3043TIP3    H2 9136   2.402   4.909   4.976  0.6983  0.0609 -2.9359
 3044TIP3   OH2 9137   4.961   2.928   4.003  0.2875 -0.1219  0.4308
 3044TIP3    H1 9138   4.982   3.018   3.978  1.1641 -0.6822 -0.9686
 3044TIP3    H2 9139   4.866   2.921   3.992  0.3853  0.2501 -0.8184
 3045TIP3   OH2 9140   1.204   2.385   3.265  0.0998 -0.0556 -0.7474
 3045TIP3    H1 9141   1.185   2.454   3.202 -0.5209 -0.4241 -0.9732
 3045TIP3    H2 9142   1.292   2.405   3.298  0.6943 -0.1837 -2.1819
 3046TIP3   OH2 9143   0.416   2.129   4.411 -0.5063  0.0575  0.2367
 3046TIP3    H1 9144   0.492   2.187   4.405 -0.9955  0.9613  2.0956
 3046TIP3    H2 9145   0.371   2.139   4.327  0.4973  0.8272 -0.2309
 3047TIP3   OH2 9146   4.528   5.256   0.628  0.1397  0.5989  0.1258
 3047TIP3    H1 9147   4.605   5.282   0.577 -0.8514 -0.0197 -1.7963
 3047TIP3    H2 9148   4.547   5.167   0.657  0.1548  0.4243 -0.3998
 3048TIP3   OH2 9149   0.746   0.252   0.478 -0.2976 -0.4970 -0.0864
 3048TIP3    H1 9150   0.697   0.179   0.441  1.3199 -2.2479  1.0664
 3048TIP3    H2 9151   0.837   0.224   0.476  0.4835  1.8605 -0.3616
 3049TIP3   OH2 9152   3.474   3.870   1.771 -0.0571  0.2509 -0.1497
 3049TIP3    H1 9153   3.425   3.923   1.708 -0.4536 -0.0293 -0.0815
 3049TIP3    H2 9154   3.408   3.835   1.830  0.3187  0.5970  0.4995
 3050TIP3   OH2 9155   0.791   3.014   2.170  0.8092  0.3846  1.0176
 3050TIP3    H1 9156   0.882   3.002   2.198  0.7197 -0.3204  1.0179
 3050TIP3    H2 9157   0.760   2.925   2.151 -0.5823  0.3641  3.1464
 3051TIP3   OH2 9158   3.591   5.168   4.732 -0.0264  0.3529  0.3494
 3051TIP3    H1 9159   3.610   5.246   4.680  1.5701 -0.1054  0.1782
 3051TIP3    H2 9160   3.533   5.116   4.676  1.8465 -0.2420 -1.1431
 3052TIP3   OH2 9161   0.752   0.413   1.495  0.0949  0.3965 -0.4850
 3052TIP3    H1 9162   0.823   0.350   1.484  0.3307  0.7601 -1.1040
 3052TIP3    H2 9163   0.684   0.384   1.434  0.0772  0.5615 -0.5443
 3053TIP3   OH2 9164   3.842   0.237   0.224 -0.1239  0.4896 -0.4951
 3053TIP3    H1 9165   3.904   0.218   0.295 -0.2130  0.2174 -0.4898
 3053TIP3    H2 9166   3.763   0.189   0.248 -0.2325  0.5855 -0.6627
 3054TIP3   OH2 9167   3.935   0.231   5.055  0.1180  0.3541  0.0390
 3054TIP3    H1 9168   3.965   0.156   5.004  0.3571  0.1843  0.4228
 3054TIP3    H2 9169   3.840   0.223   5.056  0.0830  0.6030 -0.7452
 3055TIP3   OH2 9170   0.710   1.751   1.311  0.3998 -0.5333 -0.2672
 3055TIP3    H1 9171   0.697   1.684   1.377  0.0268  0.5768  0.8283
 3055TIP3    H2 9172   0.804   1.770   1.313 -0.0232  1.9047  2.4726
 3056TIP3   OH2 9173   4.137   4.864   3.132  0.0942 -0.7822 -0.2027
 3056TIP3    H1 9174   4.130   4.800   3.202  0.6624  0.2670  0.8493
 3056TIP3    H2 9175   4.229   4.889   3.130  0.0548 -0.6505 -1.2085
 3057TIP3   OH2 9176   3.601   5.932   2.470  0.2217  0.1900 -0.4650
 3057TIP3    H1 9177   3.616   5.944   2.564 -0.3983  0.5036 -0.3937
 3057TIP3    H2 9178   3.506   5.920   2.464  0.2203  0.5249 -1.0878
 3058TIP3   OH2 9179   2.212   2.274   2.132 -0.4768  0.3231  0.1193
 3058TIP3    H1 9180   2.280   2.208   2.149 -0.9772 -0.9975 -2.4683
 3058TIP3    H2 9181   2.137   2.243   2.183 -0.1333 -0.0811  0.3931
 3059TIP3   OH2 9182   1.639   3.714   2.476 -0.4994  0.0396  0.4374
 3059TIP3    H1 9183   1.651   3.789   2.418 -0.6246  0.0862  0.4697
 3059TIP3    H2 9184   1.545   3.696   2.471 -0.8230  1.1381  1.9706
 3060TIP3   OH2 9185   4.027   5.920   3.125 -0.1404  0.2320  0.0787
 3060TIP3    H1 9186   3.963   5.915   3.196 -0.3924 -0.1147 -0.1727
 3060TIP3    H2 9187   3.980   5.960   3.052  0.1179  0.5852  0.0992
 3061TIP3   OH2 9188   1.250   0.960   4.619  0.1656 -0.0043 -0.0696
 3061TIP3    H1 9189   1.333   0.993   4.653 -0.1726  0.4612  0.3072
 3061TIP3    H2 9190   1.260   0.965   4.524 -0.1503  1.9146 -0.0414
 3062TIP3   OH2 9191   4.203   2.468   4.846  0.0423  0.1992  0.3365
 3062TIP3    H1 9192   4.166   2.380   4.852 -0.9488  0.5194 -0.7931
 3062TIP3    H2 9193   4.248   2.469   4.761 -1.0037  1.1466 -0.2360
 3063TIP3   OH2 9194   4.832   1.515   1.576 -0.0251  0.1321  0.0508
 3063TIP3    H1 9195   4.923   1.523   1.546 -0.0035  0.4486  0.1932
 3063TIP3    H2 9196   4.829   1.432   1.623 -0.0694 -0.3961 -0.8566
 3064TIP3   OH2 9197   3.670   0.590   0.910  0.5739 -0.5107 -0.1937
 3064TIP3    H1 9198   3.624   0.506   0.918 -0.5858  0.1596  0.4406
 3064TIP3    H2 9199   3.752   0.577   0.957  0.0832 -1.0700  0.5227
 3065TIP3   OH2 9200   3.179   1.585   3.196  0.1279 -0.0699  0.3790
 3065TIP3    H1 9201   3.231   1.580   3.276 -0.1343 -0.6296  0.5134
 3065TIP3    H2 9202   3.235   1.546   3.128 -0.8056 -2.4216  0.8749
 3066TIP3   OH2 9203   4.266   4.140   3.468  0.2772  0.1028  0.0408
 3066TIP3    H1 9204   4.299   4.050   3.468  1.0462  0.3754  0.0100
 3066TIP3    H2 9205   4.294   4.176   3.384 -1.0069  0.0401 -0.4438
 3067TIP3   OH2 9206   1.745   1.790   0.042  0.0286  0.5055  0.7686
 3067TIP3    H1 9207   1.673   1.732   0.065 -0.8305  1.1900 -0.1032
 3067TIP3    H2 9208   1.720   1.827  -0.043  1.4852  0.6298  0.3663
 3068TIP3   OH2 9209   1.367   3.804   5.108  0.1170 -0.1122 -0.2143
 3068TIP3    H1 9210   1.399   3.753   5.183  0.6943  0.6300  0.0497
 3068TIP3    H2 9211   1.374   3.895   5.136  1.5693  0.2526 -1.6257
 3069TIP3   OH2 9212   1.633   3.823   4.994 -0.4345 -0.6520 -0.2209
 3069TIP3    H1 9213   1.545   3.857   5.010 -1.2338 -2.3075 -0.7872
 3069TIP3    H2 9214   1.666   3.797   5.080 -0.3174  0.3210  0.0431
 3070TIP3   OH2 9215   0.140   3.028   0.562  0.1462  0.2590 -0.4009
 3070TIP3    H1 9216   0.201   3.091   0.601 -1.2007  0.3120  1.8020
 3070TIP3    H2 9217   0.090   3.080   0.499  0.7373  0.7778 -0.4576
 3071TIP3   OH2 9218   4.421   0.122   3.893  0.0577  0.6328 -0.3597
 3071TIP3    H1 9219   4.341   0.068   3.892 -0.1437  0.8429  1.4234
 3071TIP3    H2 9220   4.446   0.125   3.985  2.2824  0.3826 -0.9035
 3072TIP3   OH2 9221   5.972   4.828   2.451  0.0550  0.2647 -0.0872
 3072TIP3    H1 9222   5.996   4.777   2.374 -1.6461 -1.7751  0.6161
 3072TIP3    H2 9223   5.909   4.892   2.418  1.1838  1.0682 -0.7551
 3073TIP3   OH2 9224   1.274   5.373   4.183 -0.0991  0.1197  0.3800
 3073TIP3    H1 9225   1.265   5.303   4.118  0.1075 -0.2432  0.7423
 3073TIP3    H2 9226   1.365   5.370   4.210  0.1166  1.0590 -0.1877
 3074TIP3   OH2 9227   2.540   0.283   0.318  0.3880  0.1959  0.2153
 3074TIP3    H1 9228   2.449   0.305   0.340 -0.5289 -1.6166 -1.4423
 3074TIP3    H2 9229   2.566   0.218   0.383 -0.6900 -1.6691 -1.1095
 3075TIP3   OH2 9230   2.087   5.194   2.013 -0.5528 -0.2259 -0.7811
 3075TIP3    H1 9231   2.017   5.221   2.071 -1.5810 -1.6676 -1.2873
 3075TIP3    H2 9232   2.161   5.250   2.036 -0.4725 -1.5314  2.8139
 3076TIP3   OH2 9233   2.918   1.002   2.692  0.0672  0.4447  0.8497
 3076TIP3    H1 9234   2.998   0.951   2.707 -0.0842 -0.2735 -0.6071
 3076TIP3    H2 9235   2.914   1.011   2.597 -0.4143  2.4081  1.0286
 3077TIP3   OH2 9236   3.291   5.224   2.946  0.0595  0.4978  0.3590
 3077TIP3    H1 9237   3.273   5.133   2.924  1.8482 -0.3826  2.2333
 3077TIP3    H2 9238   3.213   5.272   2.918 -1.0929 -1.6655 -0.2877
 3078TIP3   OH2 9239   4.944   3.869   2.438 -0.0442  0.2576 -0.4185
 3078TIP3    H1 9240   4.915   3.780   2.459  0.7738  0.0154 -0.2671
 3078TIP3    H2 9241   4.975   3.905   2.522 -0.7536  0.8378 -0.3972
 3079TIP3   OH2 9242   2.800   2.122   2.195  0.4712  0.4449 -0.2532
 3079TIP3    H1 9243   2.733   2.108   2.262 -1.2459 -1.6208 -2.2588
 3079TIP3    H2 9244   2.863   2.051   2.209 -0.6238 -0.8384 -1.6061
 3080TIP3   OH2 9245   3.367   4.703   3.546  0.2354 -0.1823  0.0695
 3080TIP3    H1 9246   3.337   4.776   3.600 -1.2355 -0.4427 -0.3550
 3080TIP3    H2 9247   3.463   4.708   3.549  0.1629  1.7536  0.0303
 3081TIP3   OH2 9248   0.528   4.134   2.632 -0.5071 -0.0747  0.4217
 3081TIP3    H1 9249   0.526   4.166   2.542  1.4911 -0.0415  0.3334
 3081TIP3    H2 9250   0.444   4.159   2.669 -0.7641  1.2807 -0.9748
 3082TIP3   OH2 9251   6.051   4.625   4.051 -0.4578 -0.0544 -0.5437
 3082TIP3    H1 9252   6.123   4.570   4.083 -0.3013 -0.1794 -1.1131
 3082TIP3    H2 9253   6.066   4.710   4.093  0.7108  0.2762 -1.5657
 3083TIP3   OH2 9254   2.975   4.067   2.908 -0.4475 -0.1248  0.0016
 3083TIP3    H1 9255   3.035   3.995   2.893 -2.1481 -1.7371  0.4970
 3083TIP3    H2 9256   2.969   4.074   3.003 -0.2330  0.7555 -0.0388
 3084TIP3   OH2 9257   3.340   0.769   3.443 -0.1029 -0.2803 -0.2085
 3084TIP3    H1 9258   3.414   0.830   3.446  0.7733 -1.2485 -1.3844
 3084TIP3    H2 9259   3.301   0.774   3.531  0.1567  1.6777 -0.1646
 3085TIP3   OH2 9260   4.795   4.336   4.564  0.3566  0.4326 -0.4020
 3085TIP3    H1 9261   4.819   4.276   4.494  0.2961 -0.0943  0.0207
 3085TIP3    H2 9262   4.781   4.280   4.640  2.3135  1.1482  0.5540
 3086TIP3   OH2 9263   1.111   3.808   3.983  0.1865  0.4038 -0.1639
 3086TIP3    H1 9264   1.160   3.877   4.029  0.3830  0.4731 -0.4707
 3086TIP3    H2 9265   1.169   3.781   3.911  0.6755 -1.0228  0.7321
 3087TIP3   OH2 9266   1.501   1.602   3.000  0.1108 -0.3827 -0.2299
 3087TIP3    H1 9267   1.520   1.695   2.993  2.0488 -0.7267 -0.1859
 3087TIP3    H2 9268   1.408   1.595   2.980 -0.7501  1.8394  2.3681
 3088TIP3   OH2 9269   3.926   5.618   1.429 -0.3823  0.5015 -0.0406
 3088TIP3    H1 9270   3.842   5.632   1.386 -0.9718  1.6987  1.3900
 3088TIP3    H2 9271   3.990   5.660   1.372 -0.7117 -0.5442 -1.2127
 3089TIP3   OH2 9272   3.662   1.200   2.701  0.1813 -0.1398 -0.2418
 3089TIP3    H1 9273   3.672   1.227   2.793  3.5720  0.7492 -0.7337
 3089TIP3    H2 9274   3.593   1.134   2.703 -0.7722  0.7806  2.7287
 3090TIP3   OH2 9275   0.539   4.842   0.959 -0.1423  0.1902 -0.1343
 3090TIP3    H1 9276   0.528   4.758   0.915 -0.7398 -0.2552  0.8374
 3090TIP3    H2 9277   0.568   4.901   0.889 -0.5781 -0.5999 -1.0192
 3091TIP3   OH2 9278   4.224   0.420   3.483  0.1025 -0.0784 -0.3341
 3091TIP3    H1 9279   4.144   0.465   3.511 -0.4242 -0.5550 -1.0101
 3091TIP3    H2 9280   4.242   0.357   3.553 -0.8897 -0.8878 -0.7670
 3092TIP3   OH2 9281   0.787   3.636   0.724  0.2706 -0.4921 -0.4632
 3092TIP3    H1 9282   0.767   3.681   0.642 -1.1940 -1.8876 -0.9346
 3092TIP3    H2 9283   0.767   3.699   0.792  0.9282  0.4850 -1.1528
 3093TIP3   OH2 9284   3.295   4.023   3.670 -0.5099 -0.5064  0.0758
 3093TIP3    H1 9285   3.316   4.112   3.701  1.7685 -1.0761  0.3453
 3093TIP3    H2 9286   3.318   3.967   3.744 -3.2487 -1.2894  0.4352
 3094TIP3   OH2 9287   0.939   5.487   0.107  0.5009 -0.3749 -0.3749
 3094TIP3    H1 9288   1.014   5.537   0.073 -0.7992  0.5851 -2.0192
 3094TIP3    H2 9289   0.891   5.462   0.028  0.2062 -2.8540  0.5190
 3095TIP3   OH2 9290   5.071   2.784   4.243  0.2697  0.1589 -0.3934
 3095TIP3    H1 9291   5.045   2.842   4.171  0.1582  2.3521  1.3123
 3095TIP3    H2 9292   5.029   2.701   4.222 -0.5015  0.9752 -2.3883
 3096TIP3   OH2 9293   3.808   1.514   0.643  0.3837  0.0168  0.6323
 3096TIP3    H1 9294   3.895   1.519   0.605  0.4312 -1.4351  0.4681
 3096TIP3    H2 9295   3.816   1.449   0.713 -1.2129 -2.8805 -1.5946
 3097TIP3   OH2 9296   3.697   4.818   4.977 -0.0879  0.1686 -0.2672
 3097TIP3    H1 9297   3.615   4.855   4.945  0.8012  0.2533 -2.6961
 3097TIP3    H2 9298   3.703   4.733   4.933  1.4825  0.5147 -0.7733
 3098TIP3   OH2 9299   3.146   2.978   1.455  0.0308 -0.3052 -0.2630
 3098TIP3    H1 9300   3.148   2.975   1.551 -0.0930 -2.4136 -0.2806
 3098TIP3    H2 9301   3.204   3.050   1.432  1.7301 -1.0749  1.3722
 3099TIP3   OH2 9302   3.173   3.134   4.112 -0.0298  0.2373  0.3043
 3099TIP3    H1 9303   3.246   3.079   4.138  1.3125  1.0447 -1.5125
 3099TIP3    H2 9304   3.124   3.081   4.049  1.4993  1.1298 -1.7681
 3100TIP3   OH2 9305   3.189   1.294   3.342  0.2685 -0.0174  0.1383
 3100TIP3    H1 9306   3.226   1.374   3.379 -0.8911  0.8335 -0.4501
 3100TIP3    H2 9307   3.104   1.322   3.306 -0.5492 -1.6761  0.6707
 3101TIP3   OH2 9308   3.443   1.071   4.891  0.7021  0.6750 -0.0402
 3101TIP3    H1 9309   3.484   1.073   4.804  1.3042  3.0081  0.2405
 3101TIP3    H2 9310   3.502   1.122   4.946 -0.3540  0.3453  1.4399
 3102TIP3   OH2 9311   0.360   5.148   4.801 -0.6226 -0.0263  0.6444
 3102TIP3    H1 9312   0.414   5.221   4.829 -0.3659 -0.4956  1.4147
 3102TIP3    H2 9313   0.329   5.108   4.883  1.0990 -2.1519  0.3627
 3103TIP3   OH2 9314   4.329   3.945   0.229  0.9466 -0.5233  0.2130
 3103TIP3    H1 9315   4.364   3.877   0.288  0.5802 -2.0674 -1.2781
 3103TIP3    H2 9316   4.349   3.913   0.141  0.7822  1.3504 -0.5501
 3104TIP3   OH2 9317   1.591   3.327   1.127  0.1212  0.3921  0.6191
 3104TIP3    H1 9318   1.668   3.370   1.090  0.7403 -1.2990 -0.1482
 3104TIP3    H2 9319   1.613   3.315   1.220 -0.1202  1.8092  0.8730
 3105TIP3   OH2 9320   1.416   4.998   1.439  0.1064 -0.4929  0.1413
 3105TIP3    H1 9321   1.325   5.025   1.457  0.8773  1.5580  1.3231
 3105TIP3    H2 9322   1.429   5.018   1.347 -1.3300 -3.1356 -0.7410
 3106TIP3   OH2 9323   4.787   1.417   4.544  0.3254  0.6497  0.2196
 3106TIP3    H1 9324   4.791   1.513   4.538  0.0306  0.6118 -0.7632
 3106TIP3    H2 9325   4.719   1.400   4.609  0.0240  1.1066  0.0296
 3107TIP3   OH2 9326   3.196   4.543   4.145 -0.0532 -0.6175  0.0721
 3107TIP3    H1 9327   3.192   4.458   4.190 -2.0571 -0.7309 -0.2621
 3107TIP3    H2 9328   3.123   4.593   4.181  0.1543  0.4024 -0.8748
 3108TIP3   OH2 9329   5.926   4.299   1.068  0.0194  0.0419  0.2039
 3108TIP3    H1 9330   5.930   4.207   1.094 -1.6740  0.2253  1.2839
 3108TIP3    H2 9331   5.927   4.297   0.972  0.6593 -1.0489  0.2208
 3109TIP3   OH2 9332   3.091   3.891   1.639 -0.2370  0.3220 -0.5644
 3109TIP3    H1 9333   3.062   3.819   1.694  1.1218  0.1328 -0.0496
 3109TIP3    H2 9334   3.136   3.850   1.566 -1.1875  0.6051 -1.3277
 3110TIP3   OH2 9335   5.641   2.930   0.517 -0.6867 -0.4506 -0.2138
 3110TIP3    H1 9336   5.646   3.017   0.478  0.2297 -0.3724  0.0531
 3110TIP3    H2 9337   5.729   2.914   0.552 -1.0761 -1.1249  0.4997
 3111TIP3   OH2 9338   4.422   4.023   2.392  0.1010 -0.2553  0.5324
 3111TIP3    H1 9339   4.506   3.986   2.418  0.9047  0.2470 -1.1626
 3111TIP3    H2 9340   4.405   4.092   2.456  2.0919  1.0839 -0.2708
 3112TIP3   OH2 9341   3.423   0.016   3.471  0.2576  0.5720  0.0128
 3112TIP3    H1 9342   3.437   0.064   3.390 -0.4002  0.9025  0.0861
 3112TIP3    H2 9343   3.335  -0.022   3.462 -0.3331  1.6046  1.0460
 3113TIP3   OH2 9344   3.219   5.265   3.551  0.2158 -0.3147  0.0407
 3113TIP3    H1 9345   3.167   5.332   3.507  0.8281  1.3116  1.6451
 3113TIP3    H2 9346   3.250   5.208   3.481 -1.3295  0.3727 -1.2466
 3114TIP3   OH2 9347   4.726   0.610   3.069  0.4252 -0.0711  0.4000
 3114TIP3    H1 9348   4.694   0.669   3.000 -0.3626 -1.1000 -0.1514
 3114TIP3    H2 9349   4.658   0.542   3.075  0.4368  0.0418  2.2585
 3115TIP3   OH2 9350   3.794   5.251   3.406 -1.1968  0.1113 -0.1395
 3115TIP3    H1 9351   3.741   5.186   3.451 -2.2548  0.8628 -0.2658
 3115TIP3    H2 9352   3.834   5.303   3.476  1.3585 -1.8906  0.0559
 3116TIP3   OH2 9353   3.699   1.534   1.710  0.5674 -0.5607  0.3997
 3116TIP3    H1 9354   3.736   1.604   1.656  0.2308  0.9448  1.9863
 3116TIP3    H2 9355   3.763   1.520   1.779  0.1775 -1.1122  0.6599
 3117TIP3   OH2 9356   0.861   5.263   0.264  0.2288  0.5043  0.3806
 3117TIP3    H1 9357   0.860   5.329   0.195  0.4424 -0.6290 -0.7380
 3117TIP3    H2 9358   0.952   5.235   0.270 -0.1371 -1.0191 -0.5093
 3118TIP3   OH2 9359   2.233   0.449   4.329  0.2028  0.1066 -0.4315
 3118TIP3    H1 9360   2.175   0.389   4.376  1.2595  0.2653  1.1492
 3118TIP3    H2 9361   2.209   0.536   4.361 -1.3486  0.6338 -2.7378
 3119TIP3   OH2 9362   0.857   4.520   2.326 -0.7791 -0.4122  0.1008
 3119TIP3    H1 9363   0.863   4.533   2.232 -2.6181  1.0278  0.1171
 3119TIP3    H2 9364   0.774   4.562   2.351  0.0247 -0.0565  2.4661
 3120TIP3   OH2 9365   5.389   2.322   2.079  0.7826  0.4129  0.2561
 3120TIP3    H1 9366   5.461   2.373   2.117  0.1236  0.0233  2.1749
 3120TIP3    H2 9367   5.344   2.285   2.155 -2.2076  1.6406 -0.7607
 3121TIP3   OH2 9368   3.737   2.385   0.642 -0.2067  0.2887  0.0276
 3121TIP3    H1 9369   3.686   2.467   0.646  0.5590  0.8123 -0.6137
 3121TIP3    H2 9370   3.828   2.414   0.643  0.0693 -0.5408 -0.7521
 3122TIP3   OH2 9371   4.778   5.590   2.049 -0.9447  0.7767 -0.1080
 3122TIP3    H1 9372   4.794   5.496   2.046  1.1197  1.0708 -0.4379
 3122TIP3    H2 9373   4.775   5.611   2.142 -0.5113  0.4998 -0.0278
 3123TIP3   OH2 9374   0.506   2.282   3.502  0.3942 -0.1068  0.2797
 3123TIP3    H1 9375   0.496   2.377   3.493 -0.7722 -0.3708 -1.6481
 3123TIP3    H2 9376   0.465   2.261   3.586 -0.3500  0.9538  0.1974
 3124TIP3   OH2 9377   2.779   4.999   1.957  0.0674 -0.1862 -0.3260
 3124TIP3    H1 9378   2.714   5.063   1.925 -0.2662 -0.9011 -1.1047
 3124TIP3    H2 9379   2.820   5.043   2.032  0.4206  1.2766 -1.3280
 3125TIP3   OH2 9380   4.369   3.565   0.614  0.4430 -0.3914  0.2420
 3125TIP3    H1 9381   4.427   3.490   0.619  0.6513 -0.2546 -0.0725
 3125TIP3    H2 9382   4.331   3.560   0.526 -0.8836 -1.1103  0.8217
 3126TIP3   OH2 9383   4.806  -0.008   1.351  0.0305 -0.2323 -0.5895
 3126TIP3    H1 9384   4.780   0.082   1.371  1.2514  0.5098 -2.1573
 3126TIP3    H2 9385   4.900  -0.010   1.370 -0.0294 -1.2528 -0.3731
 3127TIP3   OH2 9386   3.271   2.543   0.905 -0.4263 -0.2829  0.1411
 3127TIP3    H1 9387   3.191   2.588   0.931  0.6224  0.4880  2.2810
 3127TIP3    H2 9388   3.244   2.483   0.835 -2.5094  1.1769 -0.3993
 3128TIP3   OH2 9389   1.468   3.164   3.979  0.2771 -0.3647  0.3648
 3128TIP3    H1 9390   1.505   3.251   3.962 -0.9145 -0.0720 -0.9294
 3128TIP3    H2 9391   1.417   3.175   4.060  1.7130 -0.3908  1.3059
 3129TIP3   OH2 9392   3.095   2.346   0.212  0.0648  0.2316  0.3213
 3129TIP3    H1 9393   3.064   2.434   0.191  0.8134  0.4804  0.2309
 3129TIP3    H2 9394   3.042   2.288   0.158 -0.1293  0.6569  0.0509
 3130TIP3   OH2 9395   5.098   2.329   2.594  0.1300 -0.1835 -0.0651
 3130TIP3    H1 9396   5.044   2.334   2.515  0.5237 -3.1284 -0.6331
 3130TIP3    H2 9397   5.185   2.355   2.565 -0.4118  2.4258  0.3596
 3131TIP3   OH2 9398   1.227   5.736   2.545 -0.0314 -0.0204 -0.4151
 3131TIP3    H1 9399   1.314   5.771   2.523 -0.6364  2.0758  0.3052
 3131TIP3    H2 9400   1.245   5.660   2.599  1.3659  0.3110 -0.3759
 3132TIP3   OH2 9401   5.973   4.256   3.672  0.5413 -0.0320  0.2197
 3132TIP3    H1 9402   5.984   4.167   3.637  1.2788  0.2353 -0.2510
 3132TIP3    H2 9403   6.050   4.270   3.727  0.1685  0.1352  0.7044
 3133TIP3   OH2 9404   0.521   5.722   4.429  0.2509  0.7464  0.5966
 3133TIP3    H1 9405   0.590   5.749   4.369 -0.6035  1.6465 -0.0172
 3133TIP3    H2 9406   0.484   5.805   4.461 -0.5057  0.2803  0.9585
 3134TIP3   OH2 9407   2.456   4.333   0.734 -0.9888 -0.5392  0.0948
 3134TIP3    H1 9408   2.447   4.336   0.829  2.6857 -3.9095  0.8118
 3134TIP3    H2 9409   2.483   4.421   0.709  0.6000 -0.2164  2.6273
 3135TIP3   OH2 9410   3.103   1.648   2.904 -0.2097  0.5432 -0.7245
 3135TIP3    H1 9411   3.101   1.557   2.874 -1.5054  1.0207 -2.1688
 3135TIP3    H2 9412   3.055   1.646   2.988 -0.8054 -0.0032 -1.0678
 3136TIP3   OH2 9413   4.081   2.342   3.997  0.2574  0.1872 -0.1612
 3136TIP3    H1 9414   4.105   2.251   4.010 -0.9350 -0.0205  0.7950
 3136TIP3    H2 9415   3.988   2.346   4.021  0.8906  2.1363  2.3362
 3137TIP3   OH2 9416   1.293   1.358   2.285 -0.5186 -0.0559  0.0028
 3137TIP3    H1 9417   1.388   1.366   2.297 -0.3321 -2.0037  0.2090
 3137TIP3    H2 9418   1.263   1.307   2.361 -1.6690  0.1832 -0.2678
 3138TIP3   OH2 9419   0.569   4.870   0.576 -0.2807 -0.5712 -0.2173
 3138TIP3    H1 9420   0.533   4.791   0.536 -0.6202 -1.5866  1.9354
 3138TIP3    H2 9421   0.596   4.842   0.663  0.3649  1.5302  0.3143
 3139TIP3   OH2 9422   1.304   1.617   2.183  0.9851  0.2954 -0.4227
 3139TIP3    H1 9423   1.297   1.526   2.211 -2.5598  0.8119  0.8560
 3139TIP3    H2 9424   1.395   1.640   2.201  1.5159 -2.4505  1.0125
 3140TIP3   OH2 9425   6.278   3.539   0.831 -0.2741 -0.4216 -0.0042
 3140TIP3    H1 9426   6.309   3.489   0.756  0.6078 -2.2809  1.5170
 3140TIP3    H2 9427   6.202   3.490   0.862 -0.9055  0.5809  0.0816
 3141TIP3   OH2 9428   3.319   4.159   4.593 -0.1818  0.1497 -0.4007
 3141TIP3    H1 9429   3.237   4.206   4.611 -0.1077 -0.0039  0.3984
 3141TIP3    H2 9430   3.382   4.197   4.655  0.0103 -0.6271 -0.1101
 3142TIP3   OH2 9431   1.623   0.208   1.699  0.2253 -0.2516  0.3376
 3142TIP3    H1 9432   1.711   0.178   1.721 -0.4122 -1.7039  1.0733
 3142TIP3    H2 9433   1.596   0.152   1.626  0.2728  0.8528 -0.5408
 3143TIP3   OH2 9434   4.020   0.038   2.811 -0.0792 -0.0949  0.0139
 3143TIP3    H1 9435   4.071   0.072   2.884  1.8600  0.8210 -1.6455
 3143TIP3    H2 9436   4.021  -0.057   2.823  1.0390 -0.0182  0.6976
 3144TIP3   OH2 9437   5.046   1.760   3.759  0.1480 -0.1530 -0.0376
 3144TIP3    H1 9438   5.095   1.841   3.766  1.4357 -0.8810 -0.2536
 3144TIP3    H2 9439   4.955   1.785   3.775  0.6171  1.1887  0.6954
 3145TIP3   OH2 9440   1.706   5.698   0.318  1.0660  0.3999  0.1923
 3145TIP3    H1 9441   1.744   5.611   0.337  1.3760  0.3651 -0.5765
 3145TIP3    H2 9442   1.612   5.682   0.312  1.1749 -0.0036 -0.5708
 3146TIP3   OH2 9443   2.925   5.828   4.760 -0.0436  0.2559 -0.2180
 3146TIP3    H1 9444   2.848   5.781   4.795 -0.0951  0.0945 -0.5443
 3146TIP3    H2 9445   2.996   5.803   4.818 -0.4159  1.1223  0.6439
 3147TIP3   OH2 9446   5.715   4.496   5.021 -0.0747  0.0002 -0.3070
 3147TIP3    H1 9447   5.725   4.590   5.038  2.9652 -0.3251  0.2089
 3147TIP3    H2 9448   5.804   4.463   5.014 -1.0090 -2.3729 -3.5862
 3148TIP3   OH2 9449   5.266   0.227   3.281  0.1829 -0.0849  0.0553
 3148TIP3    H1 9450   5.229   0.157   3.226 -0.9359  1.4343 -1.2249
 3148TIP3    H2 9451   5.319   0.278   3.220  1.0156  0.1854  0.9888
 3149TIP3   OH2 9452   3.931   4.857   4.082 -0.0313  0.0561 -0.2262
 3149TIP3    H1 9453   3.866   4.879   4.015  0.8253 -2.0212 -1.8354
 3149TIP3    H2 9454   4.015   4.879   4.041  0.4537 -0.2479  0.5892
 3150TIP3   OH2 9455   4.867   3.109   4.972  0.3314  0.2325 -0.5049
 3150TIP3    H1 9456   4.881   3.199   4.943  2.4859  0.8708  2.0581
 3150TIP3    H2 9457   4.954   3.069   4.969 -0.3727 -1.3815 -0.4214
 3151TIP3   OH2 9458   2.496   5.125   1.707 -0.2144  0.3510  0.0196
 3151TIP3    H1 9459   2.544   5.176   1.773  3.0650 -3.4948  1.0549
 3151TIP3    H2 9460   2.551   5.130   1.629 -1.0962  0.3173 -0.6107
 3152TIP3   OH2 9461   6.249   3.829   4.049 -0.5246 -0.4961 -0.0480
 3152TIP3    H1 9462   6.265   3.736   4.065 -0.6791 -0.4127  0.6271
 3152TIP3    H2 9463   6.334   3.871   4.062 -0.4232 -0.5559 -0.4942
 3153TIP3   OH2 9464   5.500   3.928   3.598  0.4508 -0.4659  0.2800
 3153TIP3    H1 9465   5.557   4.005   3.599  0.0850 -0.1657 -0.6813
 3153TIP3    H2 9466   5.498   3.901   3.506 -0.0894 -1.1211  0.4780
 3154TIP3   OH2 9467   5.382   3.556   3.719 -0.3455  0.1394  0.0028
 3154TIP3    H1 9468   5.360   3.644   3.688  1.6953  1.0455  0.9808
 3154TIP3    H2 9469   5.317   3.538   3.786 -2.6255 -0.3968 -2.1871
 3155TIP3   OH2 9470   0.039   1.735   3.802  0.8259 -0.3322 -0.1128
 3155TIP3    H1 9471   0.104   1.708   3.737  0.1466 -1.3228 -0.4005
 3155TIP3    H2 9472   0.007   1.820   3.771  1.7686  0.0461 -0.1043
 3156TIP3   OH2 9473   2.927   0.380   2.947  0.3317 -0.4589 -0.3639
 3156TIP3    H1 9474   2.942   0.440   2.874  1.1756 -1.8283 -1.3662
 3156TIP3    H2 9475   3.013   0.342   2.965 -0.2331 -1.6567 -0.0547
 3157TIP3   OH2 9476   4.226   0.357   1.103  0.2289 -0.3623 -0.5581
 3157TIP3    H1 9477   4.197   0.445   1.081 -2.7746 -1.1223 -0.1107
 3157TIP3    H2 9478   4.266   0.324   1.022  1.0644  1.2393 -0.8332
 3158TIP3   OH2 9479   4.777   0.350   4.016  0.2241 -0.5948  0.1188
 3158TIP3    H1 9480   4.815   0.437   4.028 -0.1838 -0.3450 -0.3741
 3158TIP3    H2 9481   4.683   0.362   4.032  0.2150 -1.0258  0.4308
 3159TIP3   OH2 9482   3.144   2.178   2.171 -0.3748  0.2187 -0.4265
 3159TIP3    H1 9483   3.055   2.147   2.150  0.1796 -1.5021 -0.3937
 3159TIP3    H2 9484   3.191   2.172   2.088 -0.0240  0.1508 -0.2212
 3160TIP3   OH2 9485   1.590   0.866   2.628 -0.3410  0.1097 -0.3224
 3160TIP3    H1 9486   1.616   0.945   2.580 -2.3946  1.0306 -0.0525
 3160TIP3    H2 9487   1.627   0.878   2.715  3.8167 -1.7914 -1.6013
 3161TIP3   OH2 9488   0.379   2.664   0.337 -0.5699  0.1892  0.6175
 3161TIP3    H1 9489   0.441   2.727   0.299  0.9178 -1.1747  0.6975
 3161TIP3    H2 9490   0.352   2.705   0.419  0.0803  0.9130  0.4866
 3162TIP3   OH2 9491   3.788   3.460   2.726  0.2405  0.2237  0.4195
 3162TIP3    H1 9492   3.806   3.553   2.742 -0.2145  0.5103 -0.6197
 3162TIP3    H2 9493   3.754   3.428   2.809  1.1586  0.7854  1.0310
 3163TIP3   OH2 9494   6.177   1.190   3.073  0.2203 -0.0769  0.3303
 3163TIP3    H1 9495   6.095   1.227   3.104  1.7358  1.6755  2.6469
 3163TIP3    H2 9496   6.181   1.103   3.113  0.4850  0.7534  2.2584
 3164TIP3   OH2 9497   4.674   5.918   3.192 -0.3904 -0.1413  0.2556
 3164TIP3    H1 9498   4.643   5.966   3.115 -1.7631 -1.3169  0.0428
 3164TIP3    H2 9499   4.719   5.842   3.156  1.2332  0.6104  0.6038
 3165TIP3   OH2 9500   3.586   2.155   4.057 -0.2696 -0.9478  0.3236
 3165TIP3    H1 9501   3.501   2.136   4.017 -0.3801 -1.8940  0.9773
 3165TIP3    H2 9502   3.577   2.243   4.094 -0.0096  0.1821 -2.0976
 3166TIP3   OH2 9503   5.177   3.805   1.092 -0.6766 -0.1255  0.3467
 3166TIP3    H1 9504   5.259   3.790   1.045 -0.2630 -2.4365  1.6164
 3166TIP3    H2 9505   5.113   3.825   1.024  0.3799 -1.0086 -0.9549
 3167TIP3   OH2 9506   1.451   3.189   4.951  1.0015  0.5093  0.2896
 3167TIP3    H1 9507   1.372   3.207   4.902  0.6221 -1.7390 -0.0222
 3167TIP3    H2 9508   1.483   3.275   4.978 -1.2971  1.4896  0.0746
 3168TIP3   OH2 9509   0.573   0.544   5.089 -0.2540  0.5775 -0.3716
 3168TIP3    H1 9510   0.548   0.454   5.069 -0.3771  0.4986  0.1191
 3168TIP3    H2 9511   0.603   0.541   5.180 -0.8868  1.1557 -0.1343
 3169TIP3   OH2 9512   1.219   4.038   4.106 -0.2554 -0.1581  0.2207
 3169TIP3    H1 9513   1.170   4.109   4.066 -1.8751 -2.0955 -1.4233
 3169TIP3    H2 9514   1.308   4.072   4.114 -0.9357  1.9772 -0.6072
 3170TIP3   OH2 9515   2.622   4.053   2.638  0.1059 -0.0520 -0.0771
 3170TIP3    H1 9516   2.549   4.106   2.606 -0.4157 -0.9109 -0.3622
 3170TIP3    H2 9517   2.592   4.018   2.722  0.5237  0.2653  0.2046
 3171TIP3   OH2 9518   3.310   0.543   2.446 -0.0974  0.2414 -0.0914
 3171TIP3    H1 9519   3.330   0.635   2.428 -0.7133  0.1512 -1.3641
 3171TIP3    H2 9520   3.270   0.544   2.533  1.9055  0.8726  0.8963
 3172TIP3   OH2 9521   2.645   3.397   4.004 -0.4939 -0.3175  0.4179
 3172TIP3    H1 9522   2.688   3.479   3.981 -0.6685 -0.0795  0.9352
 3172TIP3    H2 9523   2.564   3.398   3.952 -1.2502  0.5691  1.5530
 3173TIP3   OH2 9524   2.756   4.550   4.123  0.7724 -0.0621  0.1886
 3173TIP3    H1 9525   2.693   4.604   4.075 -1.7530  0.3318  3.5063
 3173TIP3    H2 9526   2.731   4.460   4.103 -0.5622  0.0953  1.0165
 3174TIP3   OH2 9527   1.642   3.111   5.133  0.0777 -0.4960  0.1784
 3174TIP3    H1 9528   1.573   3.112   5.067  0.0439  0.6921  0.2037
 3174TIP3    H2 9529   1.717   3.070   5.090 -0.2441 -0.5968 -0.2831
 3175TIP3   OH2 9530   2.460   1.549  -0.022 -0.0655 -0.0844  0.0982
 3175TIP3    H1 9531   2.496   1.523   0.063  2.0364  2.7079  0.2126
 3175TIP3    H2 9532   2.420   1.634  -0.006 -0.0229  0.2931 -1.6322
 3176TIP3   OH2 9533   2.622   3.650   5.158 -0.2990  0.1743 -0.0482
 3176TIP3    H1 9534   2.657   3.577   5.106 -0.6731 -0.2858  0.3379
 3176TIP3    H2 9535   2.540   3.673   5.115 -0.1902  0.3579 -0.1586
 3177TIP3   OH2 9536   6.052   1.975   2.420 -0.3353 -0.1536  0.0608
 3177TIP3    H1 9537   6.095   1.948   2.502  0.0239 -1.2160 -0.4542
 3177TIP3    H2 9538   6.083   1.911   2.356 -0.5458  0.7236 -0.9283
 3178TIP3   OH2 9539   2.912   4.605   1.917 -0.5301  0.3011 -0.0432
 3178TIP3    H1 9540   2.879   4.603   2.007  0.8675 -1.6161  0.4818
 3178TIP3    H2 9541   2.978   4.676   1.918 -1.7754  1.5027 -0.0811
 3179TIP3   OH2 9542   4.020   2.435   3.746  0.3724  0.1769 -0.3236
 3179TIP3    H1 9543   4.086   2.502   3.765  2.2074 -1.6009 -0.0437
 3179TIP3    H2 9544   4.007   2.391   3.830  0.2194 -0.6787 -0.7938
 3180TIP3   OH2 9545   4.044   0.042   0.805  0.3068  0.6560  1.0085
 3180TIP3    H1 9546   4.085  -0.032   0.849  2.4026  0.6046 -0.8869
 3180TIP3    H2 9547   4.013   0.006   0.722  0.0046  1.5852  0.7133
 3181TIP3   OH2 9548   3.524   1.310   1.832 -0.4760 -0.1531  0.7158
 3181TIP3    H1 9549   3.581   1.373   1.788  0.0896 -1.4386 -0.4973
 3181TIP3    H2 9550   3.493   1.355   1.910  1.8081  0.7694  1.1604
 3182TIP3   OH2 9551   3.873   2.102   3.506  0.0651 -0.2809 -0.1678
 3182TIP3    H1 9552   3.813   2.085   3.433 -1.6214 -0.9650  1.2867
 3182TIP3    H2 9553   3.887   2.017   3.547 -1.0483  0.3831  1.7384
 3183TIP3   OH2 9554   5.119   3.854   3.459  0.8448  0.2017  0.5828
 3183TIP3    H1 9555   5.094   3.946   3.454  0.1453  0.0602  1.2735
 3183TIP3    H2 9556   5.120   3.824   3.368 -0.2025  0.5704  0.4333
 3184TIP3   OH2 9557   4.991   3.918   2.713  0.5932 -0.2134  0.2266
 3184TIP3    H1 9558   5.072   3.963   2.738  0.2401 -0.1264  1.2803
 3184TIP3    H2 9559   4.998   3.832   2.753 -0.0093 -0.0568  0.6940
 3185TIP3   OH2 9560   1.047   4.624   4.728 -0.0043  0.3860  0.5910
 3185TIP3    H1 9561   1.023   4.537   4.696 -0.5127  0.9365 -0.5981
 3185TIP3    H2 9562   0.973   4.680   4.703 -0.6411  0.8030  3.1452
 3186TIP3   OH2 9563   1.286   1.956   1.173  0.0935 -0.4273 -0.3134
 3186TIP3    H1 9564   1.294   1.995   1.086  1.9133  1.1269  0.4908
 3186TIP3    H2 9565   1.277   2.031   1.232  0.5234 -1.3792  0.9962
 3187TIP3   OH2 9566   1.092   3.604   0.673 -0.0283  0.0427  0.0980
 3187TIP3    H1 9567   1.040   3.646   0.742  1.0167 -0.5483  1.2773
 3187TIP3    H2 9568   1.046   3.627   0.592 -1.4565  0.5088  0.9961
 3188TIP3   OH2 9569   0.149   4.722   3.087  0.0551 -0.1115 -0.2496
 3188TIP3    H1 9570   0.203   4.801   3.085  0.1926 -0.1791  0.5736
 3188TIP3    H2 9571   0.205   4.654   3.050  1.9449 -1.0025  3.7802
 3189TIP3   OH2 9572   0.350   4.201   1.607  0.1842 -0.2485 -0.4250
 3189TIP3    H1 9573   0.354   4.184   1.701 -2.4255 -0.5614 -0.2900
 3189TIP3    H2 9574   0.366   4.116   1.566 -0.6103 -0.5294 -0.1705
 3190TIP3   OH2 9575   1.028   4.555   1.072  0.0945 -0.5093 -0.2671
 3190TIP3    H1 9576   1.038   4.483   1.010 -0.5483 -0.3081 -0.6129
 3190TIP3    H2 9577   0.984   4.624   1.022  1.3866  0.4152 -0.1610
 3191TIP3   OH2 9578   3.057   0.767   3.006 -0.6666  0.1325  0.1359
 3191TIP3    H1 9579   3.006   0.845   3.030 -2.2584 -0.6892 -0.4313
 3191TIP3    H2 9580   3.104   0.744   3.086 -2.7066 -0.1925  1.3323
 3192TIP3   OH2 9581   2.376   2.399   3.343  0.4816 -0.3472  0.2256
 3192TIP3    H1 9582   2.422   2.372   3.263 -0.4571 -1.2345 -0.0442
 3192TIP3    H2 9583   2.284   2.383   3.323  0.0922  0.9696  0.9143
 3193TIP3   OH2 9584   4.795   4.574   4.691 -0.4129  0.0024 -0.4543
 3193TIP3    H1 9585   4.741   4.564   4.769  1.0905  1.0341  0.7700
 3193TIP3    H2 9586   4.786   4.491   4.644 -0.0988 -1.2625  1.6228
 3194TIP3   OH2 9587   2.835   5.587   1.769 -0.0997 -0.2782  0.0217
 3194TIP3    H1 9588   2.912   5.530   1.767 -0.8338 -1.3108  0.1348
 3194TIP3    H2 9589   2.802   5.586   1.679  0.3373  0.6242 -0.1550
 3195TIP3   OH2 9590   6.097   3.433   1.003  0.2227  0.5317 -0.4045
 3195TIP3    H1 9591   6.107   3.527   1.020  2.3931  0.3069 -0.1232
 3195TIP3    H2 9592   6.155   3.392   1.067 -1.1103 -1.0648 -0.1641
 3196TIP3   OH2 9593   3.742   0.141   4.802  0.0000 -0.0404  0.0612
 3196TIP3    H1 9594   3.729   0.229   4.768 -1.1885 -0.5868 -0.9661
 3196TIP3    H2 9595   3.753   0.086   4.724  0.4801 -0.8425  0.6760
 3197TIP3   OH2 9596   2.046   0.431   5.035  0.0349 -0.1644 -0.2526
 3197TIP3    H1 9597   2.027   0.374   4.960  0.1987  1.3264 -1.4787
 3197TIP3    H2 9598   2.129   0.474   5.012 -1.2514  2.3452 -0.5177
 3198TIP3   OH2 9599   4.792   2.944   2.449  0.2297 -0.1881  0.2119
 3198TIP3    H1 9600   4.720   2.951   2.511 -0.5138 -0.2044 -0.6209
 3198TIP3    H2 9601   4.749   2.932   2.364  1.2015  0.2632 -0.3646
 3199TIP3   OH2 9602   4.787   5.160   0.854 -0.0095  0.1475  0.2187
 3199TIP3    H1 9603   4.751   5.072   0.855 -0.4056  0.2205 -2.0168
 3199TIP3    H2 9604   4.715   5.215   0.886 -0.6071 -0.1154 -0.6248
 3200TIP3   OH2 9605   4.020   0.696   2.802  0.2952 -0.4982 -0.2897
 3200TIP3    H1 9606   4.012   0.672   2.709  0.0697 -1.1112 -0.1205
 3200TIP3    H2 9607   4.109   0.671   2.825  0.1950 -0.8086 -0.2225
 3201TIP3   OH2 9608   4.936   1.196   1.312 -0.1505  0.2689  0.0888
 3201TIP3    H1 9609   4.930   1.292   1.314 -0.8324  0.2164  0.6600
 3201TIP3    H2 9610   4.912   1.173   1.222 -0.1822  0.6154  0.0054
 3202TIP3   OH2 9611   1.742   1.697   0.328 -0.0535 -0.0092 -0.0688
 3202TIP3    H1 9612   1.778   1.738   0.249  1.0172 -0.3156  0.2469
 3202TIP3    H2 9613   1.714   1.611   0.299 -0.0621  0.0410 -0.2123
 3203TIP3   OH2 9614   0.451   3.715   3.052 -0.3492 -0.3594  0.0067
 3203TIP3    H1 9615   0.511   3.673   2.990 -2.1339  1.1808 -2.9653
 3203TIP3    H2 9616   0.367   3.719   3.006 -2.3166 -0.7300  3.2723
 3204TIP3   OH2 9617   1.520   3.339   2.374  0.3031  0.5992 -0.6662
 3204TIP3    H1 9618   1.527   3.371   2.464 -0.6097  0.3518 -0.4944
 3204TIP3    H2 9619   1.493   3.415   2.323  0.8407  0.7446 -0.7430
 3205TIP3   OH2 9620   0.129   5.775   2.454 -0.3258  0.3908  0.8048
 3205TIP3    H1 9621   0.196   5.843   2.461  1.5746 -1.2282 -0.3680
 3205TIP3    H2 9622   0.048   5.822   2.433  0.5462  2.3814  1.6529
 3206TIP3   OH2 9623   3.755   0.431   2.866 -0.0875 -0.1600  0.5175
 3206TIP3    H1 9624   3.821   0.439   2.935 -1.1958 -0.2841  1.6135
 3206TIP3    H2 9625   3.803   0.395   2.791  0.6739 -2.2962  1.9466
 3207TIP3   OH2 9626   1.935   3.221   4.668 -0.3792 -0.0664 -0.1266
 3207TIP3    H1 9627   1.929   3.198   4.576 -0.5438  1.4356 -0.5281
 3207TIP3    H2 9628   1.879   3.298   4.677  0.9043  0.8038  0.8642
 3208TIP3   OH2 9629   1.871   3.507   2.286 -0.2583 -0.2861  0.5699
 3208TIP3    H1 9630   1.780   3.536   2.290 -0.7486 -1.4954 -0.8848
 3208TIP3    H2 9631   1.866   3.414   2.265  1.3145 -0.3865  0.5130
 3209TIP3   OH2 9632   0.819   2.267   4.846 -0.6207  0.0726 -0.3414
 3209TIP3    H1 9633   0.761   2.234   4.777 -0.1473 -2.2237  0.2539
 3209TIP3    H2 9634   0.907   2.240   4.819 -0.5948 -2.7417  1.9707
 3210TIP3   OH2 9635   1.853   2.152   0.251 -0.0734  0.3816  1.0121
 3210TIP3    H1 9636   1.917   2.089   0.285  0.9377  1.6296  1.4578
 3210TIP3    H2 9637   1.769   2.105   0.256  0.4807 -0.5397  2.4093
 3211TIP3   OH2 9638   3.993   5.001   0.401  0.3193 -0.2657 -0.8683
 3211TIP3    H1 9639   3.996   4.955   0.485 -1.5391  1.6886  0.4123
 3211TIP3    H2 9640   4.020   4.937   0.337  0.9599 -2.1220  1.1401
 3212TIP3   OH2 9641   5.001   0.705   3.767  0.1422 -0.2006  0.1592
 3212TIP3    H1 9642   5.052   0.768   3.716 -1.2239  0.6578 -0.1945
 3212TIP3    H2 9643   4.970   0.641   3.703  2.1118 -1.7203  0.6154
 3213TIP3   OH2 9644   0.701   5.444   1.866  0.0443 -0.7241 -0.5333
 3213TIP3    H1 9645   0.764   5.487   1.922 -0.3105 -0.0704 -0.6275
 3213TIP3    H2 9646   0.743   5.361   1.842  0.0792 -1.1489  0.9147
 3214TIP3   OH2 9647   4.085   0.585   0.309 -0.4471 -0.0512 -0.3105
 3214TIP3    H1 9648   4.160   0.644   0.319  0.8467 -1.7455  0.3165
 3214TIP3    H2 9649   4.030   0.602   0.385  0.1329  0.0314  0.0909
 3215TIP3   OH2 9650   2.035   4.325   2.961  0.3410  0.0420 -0.1378
 3215TIP3    H1 9651   2.061   4.320   3.053 -1.4707  1.7265  0.5494
 3215TIP3    H2 9652   1.971   4.397   2.958 -1.1611 -1.2555 -2.3581
 3216TIP3   OH2 9653   1.361   3.214   0.564  0.1039  0.7133  0.1005
 3216TIP3    H1 9654   1.281   3.236   0.613 -0.7371  0.4836 -1.1412
 3216TIP3    H2 9655   1.421   3.181   0.631 -1.5962 -1.1903  0.8083
 3217TIP3   OH2 9656   1.108   1.504   1.732  0.2206 -0.3188  0.9796
 3217TIP3    H1 9657   1.145   1.506   1.644 -0.3152  1.8003  0.7412
 3217TIP3    H2 9658   1.165   1.445   1.781  1.3836 -0.3991 -0.4097
 3218TIP3   OH2 9659   5.223   5.344   0.479 -0.0842  0.0698  0.3179
 3218TIP3    H1 9660   5.163   5.365   0.550 -1.0566  1.1006 -0.7687
 3218TIP3    H2 9661   5.273   5.269   0.512 -0.4406  0.5611  2.0958
 3219TIP3   OH2 9662   1.875   4.338   2.058 -0.4988 -0.4243 -0.2334
 3219TIP3    H1 9663   1.787   4.375   2.062  0.4672  2.1337 -0.9952
 3219TIP3    H2 9664   1.921   4.377   2.132  0.1673 -1.3510 -0.1359
 3220TIP3   OH2 9665   5.451   5.152   0.984  0.3881  0.0244 -0.6519
 3220TIP3    H1 9666   5.504   5.098   0.926 -0.5575 -0.7344 -0.8464
 3220TIP3    H2 9667   5.374   5.098   1.002  1.1597 -0.2968  2.2609
 3221TIP3   OH2 9668   2.677   2.822   4.893  0.2289 -0.1993  0.3821
 3221TIP3    H1 9669   2.598   2.870   4.921  0.2200  0.1417 -0.2091
 3221TIP3    H2 9670   2.643   2.737   4.863  0.0659  0.0156 -0.0436
 3222TIP3   OH2 9671   1.606   3.870   3.609  0.3286  0.0721  0.2381
 3222TIP3    H1 9672   1.570   3.918   3.534 -0.0969 -0.4712  0.0932
 3222TIP3    H2 9673   1.549   3.795   3.620  3.1828 -2.7002 -2.0520
 3223TIP3   OH2 9674   0.185   5.904   4.054  0.0377  0.0593  0.5605
 3223TIP3    H1 9675   0.186   5.855   4.137 -1.0658  0.3421  0.7540
 3223TIP3    H2 9676   0.111   5.867   4.006  0.3514  0.2620 -0.0887
 3224TIP3   OH2 9677   6.247   5.889   0.418 -0.1944 -0.1396 -0.3832
 3224TIP3    H1 9678   6.208   5.970   0.449  1.4541 -0.2203  2.2665
 3224TIP3    H2 9679   6.284   5.849   0.497  1.6267 -1.9907 -2.0547
 3225TIP3   OH2 9680   6.278   1.781   2.495  0.5099  0.3337  0.3580
 3225TIP3    H1 9681   6.328   1.743   2.566 -1.0913  0.5149  1.6490
 3225TIP3    H2 9682   6.202   1.724   2.485 -0.5773  1.6744  0.5453
 3226TIP3   OH2 9683   2.975   0.614   2.773 -0.7218 -0.2621 -0.3967
 3226TIP3    H1 9684   2.995   0.677   2.842 -1.1632 -0.9525  0.3920
 3226TIP3    H2 9685   2.889   0.639   2.741 -0.8195 -0.3545 -0.2078
 3227TIP3   OH2 9686   1.175   3.395   4.983 -0.2822  0.3109  0.3586
 3227TIP3    H1 9687   1.083   3.369   4.994 -1.5447  2.7891 -2.6552
 3227TIP3    H2 9688   1.195   3.446   5.061 -1.4722 -0.1992  1.0337
 3228TIP3   OH2 9689   3.652   4.751   3.503  0.7508  0.7995  0.2878
 3228TIP3    H1 9690   3.685   4.839   3.524  1.7097  0.7707 -0.9716
 3228TIP3    H2 9691   3.677   4.738   3.411  1.9727 -1.3982  0.8858
 3229TIP3   OH2 9692   5.761   0.293   4.632 -0.0988 -0.4839  0.2141
 3229TIP3    H1 9693   5.739   0.281   4.539  2.2905 -0.4908 -0.4152
 3229TIP3    H2 9694   5.829   0.360   4.631 -0.3242 -0.1954  2.0347
 3230TIP3   OH2 9695   3.842   0.108   3.906 -0.2047  0.2596 -0.3494
 3230TIP3    H1 9696   3.859   0.164   3.981  0.4811 -0.6640  0.2088
 3230TIP3    H2 9697   3.817   0.023   3.944  0.7524 -0.4016 -1.1392
 3231TIP3   OH2 9698   4.421   2.180   2.240  0.0187  0.0756  0.1642
 3231TIP3    H1 9699   4.462   2.229   2.169  2.3208 -1.3804  0.3886
 3231TIP3    H2 9700   4.361   2.119   2.196  0.2552  0.2612 -0.4224
 3232TIP3   OH2 9701   5.659   5.006   3.017 -0.4071 -0.4448 -0.3356
 3232TIP3    H1 9702   5.753   5.021   3.031 -0.4118  1.2432 -1.8092
 3232TIP3    H2 9703   5.656   4.949   2.941 -0.5759  0.0613 -0.7116
 3233TIP3   OH2 9704   1.699  -0.013   0.985  0.0427  0.3776  0.4586
 3233TIP3    H1 9705   1.673   0.042   1.059  0.6636  1.0187  0.2085
 3233TIP3    H2 9706   1.705   0.047   0.911 -0.4069 -0.2281 -0.0871
 3234TIP3   OH2 9707   5.959   0.629   2.893 -0.1048 -0.1869  0.0070
 3234TIP3    H1 9708   5.979   0.560   2.829  1.9735  0.8230 -0.5193
 3234TIP3    H2 9709   5.909   0.584   2.961  1.4682 -2.3419 -0.1292
 3235TIP3   OH2 9710   5.044   2.217   3.358 -0.2092 -0.6809 -0.3283
 3235TIP3    H1 9711   5.129   2.174   3.371  0.0618 -0.6393 -1.7616
 3235TIP3    H2 9712   5.064   2.311   3.365  0.0775 -0.6277 -1.6756
 3236TIP3   OH2 9713   0.474   5.917   4.018 -0.3763 -0.5007 -0.1803
 3236TIP3    H1 9714   0.489   5.989   3.956 -1.6863 -0.3308 -0.3397
 3236TIP3    H2 9715   0.385   5.932   4.050 -0.2804 -1.4699  0.5763
 3237TIP3   OH2 9716   2.279   2.258   2.771 -0.0808  0.6769  0.1705
 3237TIP3    H1 9717   2.189   2.267   2.739 -0.0456 -1.5741 -0.7902
 3237TIP3    H2 9718   2.272   2.267   2.866 -1.4047  0.0888  0.1495
 3238TIP3   OH2 9719   3.268   3.213   0.284 -0.1412 -0.2765  0.4504
 3238TIP3    H1 9720   3.232   3.302   0.289 -2.0265 -0.7972 -1.9840
 3238TIP3    H2 9721   3.358   3.222   0.313 -0.2474  2.4780  0.1827
 3239TIP3   OH2 9722   0.972   1.042   1.191 -0.4618 -0.4966 -0.3285
 3239TIP3    H1 9723   0.984   1.135   1.174 -1.8984  0.2134  2.0465
 3239TIP3    H2 9724   1.060   1.008   1.206 -0.0986  1.1823  1.7514
 3240TIP3   OH2 9725   3.225   0.228   4.827 -0.5479 -0.0187  0.3490
 3240TIP3    H1 9726   3.160   0.224   4.898 -0.1812 -2.3826  0.6405
 3240TIP3    H2 9727   3.301   0.181   4.862  0.7157  1.2492 -0.5976
 3241TIP3   OH2 9728   2.709   3.809   1.471  0.2012  0.0991 -0.0009
 3241TIP3    H1 9729   2.722   3.786   1.562  1.7047  0.3609 -0.1290
 3241TIP3    H2 9730   2.795   3.801   1.431 -0.6086 -1.0705 -1.6571
 3242TIP3   OH2 9731   4.676   0.595   1.200 -0.0437  0.0099  0.1898
 3242TIP3    H1 9732   4.598   0.600   1.144 -0.2316 -0.8828  0.3662
 3242TIP3    H2 9733   4.725   0.521   1.167  0.5671  0.3607  0.3006
 3243TIP3   OH2 9734   2.001   5.750   3.449  0.0930 -0.0940  0.0723
 3243TIP3    H1 9735   2.007   5.841   3.419 -1.6680  0.1420  0.3206
 3243TIP3    H2 9736   2.091   5.718   3.446  0.8001  1.7326  0.2270
 3244TIP3   OH2 9737   6.194   1.909   4.800  0.3155  0.3237 -0.1786
 3244TIP3    H1 9738   6.248   1.921   4.878  0.4311  0.9219 -0.3463
 3244TIP3    H2 9739   6.156   1.996   4.783 -1.1573 -0.2126  0.2732
 3245TIP3   OH2 9740   1.423   1.620   0.560  0.4614  0.3122 -0.2089
 3245TIP3    H1 9741   1.436   1.527   0.544  0.2177  0.6496 -2.8523
 3245TIP3    H2 9742   1.327   1.631   0.565  0.4119 -0.1488  5.0297
 3246TIP3   OH2 9743   1.090   5.629   3.870  0.1073 -0.2555 -0.3557
 3246TIP3    H1 9744   1.176   5.627   3.829  0.2326  1.2508 -0.2273
 3246TIP3    H2 9745   1.038   5.686   3.814 -1.0011 -1.5869 -0.7459
 3247TIP3   OH2 9746   4.241   3.048   2.371  0.3946  0.5611  0.0787
 3247TIP3    H1 9747   4.320   2.995   2.379 -0.3734 -0.3325  3.6768
 3247TIP3    H2 9748   4.197   3.015   2.293  2.7723  0.0533 -1.1421
 3248TIP3   OH2 9749   4.241   3.084   3.188  0.0669 -0.3449  0.4140
 3248TIP3    H1 9750   4.287   3.100   3.106  1.1592  2.4251  1.4514
 3248TIP3    H2 9751   4.305   3.038   3.243 -0.7666 -2.4839 -0.2660
 3249TIP3   OH2 9752   0.010   1.977   1.080 -0.0118 -0.2769  0.9057
 3249TIP3    H1 9753   0.085   2.018   1.037 -1.0582  0.4468 -0.2910
 3249TIP3    H2 9754  -0.005   1.896   1.030 -1.3445  0.6560 -0.2945
 3250TIP3   OH2 9755   4.598   3.915   1.588  0.1960 -0.2326  0.1054
 3250TIP3    H1 9756   4.588   3.985   1.523 -1.0182  0.5704  1.1198
 3250TIP3    H2 9757   4.674   3.941   1.640 -0.4017  0.4982  0.6403
 3251TIP3   OH2 9758   5.690   0.339   0.452 -0.6554  0.3712 -0.0801
 3251TIP3    H1 9759   5.641   0.294   0.521 -2.8126  0.8282 -1.2302
 3251TIP3    H2 9760   5.661   0.297   0.371 -0.7588  2.0525 -0.9706
 3252TIP3   OH2 9761   0.414   2.793   3.961  0.5493 -0.1013  0.0415
 3252TIP3    H1 9762   0.454   2.869   3.921 -0.2456  0.1698 -0.2694
 3252TIP3    H2 9763   0.378   2.743   3.887  0.6877 -0.5532  0.2741
 3253TIP3   OH2 9764   4.002   5.298   0.048 -0.0055  0.0443  0.2976
 3253TIP3    H1 9765   3.996   5.378  -0.004  1.1499  0.4203  0.7136
 3253TIP3    H2 9766   3.993   5.327   0.139  1.3630 -0.1458  0.5210
 3254TIP3   OH2 9767   3.368   4.704   2.598  0.3782  0.0202  0.1061
 3254TIP3    H1 9768   3.380   4.780   2.655  0.0663  0.3093 -0.2004
 3254TIP3    H2 9769   3.368   4.741   2.509 -1.3573 -0.1054  0.0083
 3255TIP3   OH2 9770   3.497   1.564   1.528 -0.0762  0.4277 -0.4251
 3255TIP3    H1 9771   3.570   1.559   1.590 -0.5255  0.0764  0.0850
 3255TIP3    H2 9772   3.513   1.491   1.467 -0.4379 -0.1659  0.1784
 3256TIP3   OH2 9773   4.403   0.154   4.162 -0.2935  0.3188  0.2676
 3256TIP3    H1 9774   4.336   0.166   4.229 -0.0189  0.9673  0.4316
 3256TIP3    H2 9775   4.476   0.112   4.209 -0.6633 -0.6166  0.0354
 3257TIP3   OH2 9776   1.346   5.416   4.924  0.2975  0.1354 -0.3612
 3257TIP3    H1 9777   1.419   5.411   4.986  1.1478 -0.6344 -1.3800
 3257TIP3    H2 9778   1.366   5.349   4.858 -1.2634  0.0107 -0.7523
 3258TIP3   OH2 9779   0.736   2.276   2.013  0.1935  0.6155 -0.1529
 3258TIP3    H1 9780   0.730   2.315   1.925  0.2925 -0.2837 -0.5726
 3258TIP3    H2 9781   0.772   2.346   2.067  0.5909  1.0326 -0.9303
 3259TIP3   OH2 9782   0.758   1.206   1.122 -0.2678  0.1954 -0.3240
 3259TIP3    H1 9783   0.792   1.295   1.120 -1.7169  0.8223  0.8832
 3259TIP3    H2 9784   0.730   1.192   1.213 -0.2210 -1.4326 -0.5157
 3260TIP3   OH2 9785   5.035   0.688   1.381  0.5078 -0.2555  0.0733
 3260TIP3    H1 9786   4.958   0.640   1.410  1.4659 -1.3951  0.8345
 3260TIP3    H2 9787   5.068   0.638   1.306  0.4410  0.3069 -0.3413
 3261TIP3   OH2 9788   4.760   1.020   4.282 -0.4909  0.2197  0.1288
 3261TIP3    H1 9789   4.747   1.114   4.274 -1.1978  0.0519 -0.8416
 3261TIP3    H2 9790   4.682   0.981   4.243 -0.8931 -0.7725  1.8406
 3262TIP3   OH2 9791   2.342   5.547   0.212 -0.5596 -0.2436  0.2600
 3262TIP3    H1 9792   2.334   5.642   0.209  0.4624 -0.1092  1.3115
 3262TIP3    H2 9793   2.377   5.524   0.126 -1.2775  0.2600 -0.1841
 3263TIP3   OH2 9794   1.780   1.556   3.023  0.6219 -0.4021  0.1579
 3263TIP3    H1 9795   1.694   1.599   3.031  1.1970  1.0926 -1.1712
 3263TIP3    H2 9796   1.766   1.468   3.058 -0.6504  0.7767  2.9162
 3264TIP3   OH2 9797   3.558   0.723   1.552 -0.2183  0.7389 -0.5303
 3264TIP3    H1 9798   3.633   0.664   1.558 -1.2145 -0.4794  0.3766
 3264TIP3    H2 9799   3.526   0.713   1.463 -0.5985 -0.3902 -0.2801
 3265TIP3   OH2 9800   3.064   1.755   3.624  0.2876  0.0719 -0.0631
 3265TIP3    H1 9801   3.001   1.733   3.693 -0.5145 -2.7153 -1.5287
 3265TIP3    H2 9802   3.012   1.760   3.544  1.4906  1.0790 -0.8120
 3266TIP3   OH2 9803   1.057   4.060   0.395 -0.1295  0.4830 -0.0189
 3266TIP3    H1 9804   1.115   4.011   0.452  0.7742  0.9525 -0.5130
 3266TIP3    H2 9805   1.100   4.058   0.309 -0.1284  1.9846 -0.0916
 3267TIP3   OH2 9806   3.537   4.162   4.784  0.3281 -0.1978 -0.7692
 3267TIP3    H1 9807   3.585   4.087   4.819 -1.1994 -1.1104 -0.5768
 3267TIP3    H2 9808   3.502   4.207   4.860  2.0489  1.3384 -0.8117
 3268TIP3   OH2 9809   1.216   2.883   1.548  0.1526  0.1813  0.1926
 3268TIP3    H1 9810   1.300   2.837   1.545  0.6114  0.9594  0.7283
 3268TIP3    H2 9811   1.183   2.868   1.637 -1.2074 -1.6903 -0.5587
 3269TIP3   OH2 9812   6.185   1.078   1.746  0.1312 -0.4574  0.2738
 3269TIP3    H1 9813   6.217   1.001   1.699 -0.4719 -2.1940  2.4779
 3269TIP3    H2 9814   6.211   1.062   1.837  1.2256  2.6865  0.6430
 3270TIP3   OH2 9815   0.916   4.255   2.205 -0.3714 -0.4806 -0.0871
 3270TIP3    H1 9816   0.852   4.307   2.253 -0.1400  0.6275 -0.9325
 3270TIP3    H2 9817   0.888   4.164   2.218 -1.5428 -0.0768  0.3575
 3271TIP3   OH2 9818   5.180   5.179   3.003 -0.0994  0.1042  0.5113
 3271TIP3    H1 9819   5.271   5.201   3.026 -0.1570  1.0639 -0.1038
 3271TIP3    H2 9820   5.185   5.090   2.968  0.5624  0.0469  0.7314
 3272TIP3   OH2 9821   5.860   4.519   3.040  0.0971  0.2313  0.1209
 3272TIP3    H1 9822   5.810   4.583   3.091 -0.8073 -1.0375  0.8850
 3272TIP3    H2 9823   5.949   4.555   3.036 -0.1308  1.0009  1.4576
 3273TIP3   OH2 9824   0.400   0.689   1.101 -0.6483  0.0095  0.1256
 3273TIP3    H1 9825   0.338   0.716   1.034 -0.6530 -0.8858 -0.2363
 3273TIP3    H2 9826   0.438   0.772   1.132 -1.1139  0.4778 -0.5157
 3274TIP3   OH2 9827   3.542   4.136   2.665 -0.2380 -1.2921  0.0848
 3274TIP3    H1 9828   3.451   4.109   2.678 -0.2181 -0.6715  1.7675
 3274TIP3    H2 9829   3.537   4.231   2.654  0.2252 -1.2350  0.3631
 3275TIP3   OH2 9830   1.060   0.722   1.858  0.0599 -0.2161 -0.0770
 3275TIP3    H1 9831   0.977   0.764   1.880 -0.5826 -1.5682  0.2054
 3275TIP3    H2 9832   1.050   0.697   1.766 -0.7826 -2.3093  0.5034
 3276TIP3   OH2 9833   6.016   3.410   3.462 -0.2057  0.6628  0.3167
 3276TIP3    H1 9834   5.974   3.425   3.378  2.1048 -0.2279 -1.0747
 3276TIP3    H2 9835   6.048   3.496   3.489 -1.1093  0.9803  0.4221
 3277TIP3   OH2 9836   2.105   3.235   0.265  0.2730  0.6610  0.4820
 3277TIP3    H1 9837   2.130   3.264   0.353 -0.7392  0.7472  0.7489
 3277TIP3    H2 9838   2.010   3.243   0.263  0.4123  2.8141 -1.3765
 3278TIP3   OH2 9839   4.404   5.283   2.449 -0.1419 -0.5569  0.0341
 3278TIP3    H1 9840   4.405   5.346   2.520 -0.7760  0.5789 -0.9297
 3278TIP3    H2 9841   4.497   5.267   2.429  0.0238 -0.4384  0.7144
 3279TIP3   OH2 9842   0.545   4.970   1.540  0.7418  0.2813  0.1382
 3279TIP3    H1 9843   0.605   5.043   1.554  0.0427  0.6964  1.0335
 3279TIP3    H2 9844   0.482   5.002   1.476 -0.0009  0.7440  1.0768
 3280TIP3   OH2 9845   5.700   5.501   1.880  0.0504  0.0012  0.2081
 3280TIP3    H1 9846   5.639   5.554   1.829 -0.5355 -0.3723  0.5120
 3280TIP3    H2 9847   5.681   5.523   1.971 -0.5492 -1.0865  0.3668
 3281TIP3   OH2 9848   0.486   0.559   2.089 -0.2703  0.3639 -0.4460
 3281TIP3    H1 9849   0.536   0.478   2.096  1.1795  1.2849  0.0891
 3281TIP3    H2 9850   0.500   0.604   2.172 -1.5663  0.9024 -0.4898
 3282TIP3   OH2 9851   4.399   2.037   4.227 -0.0802  0.1530  0.6205
 3282TIP3    H1 9852   4.483   2.025   4.270 -0.2721 -0.0305  0.9416
 3282TIP3    H2 9853   4.362   1.949   4.219  0.2766  0.0942 -0.5762
 3283TIP3   OH2 9854   4.988   4.857   0.939 -0.7398  0.1635  0.5357
 3283TIP3    H1 9855   5.053   4.921   0.970 -0.2863 -0.2331  0.4161
 3283TIP3    H2 9856   4.942   4.830   1.019  0.1103 -0.5051  0.8120
 3284TIP3   OH2 9857   6.132   2.103   5.114  0.3913 -0.3066  0.1753
 3284TIP3    H1 9858   6.055   2.062   5.155  0.4542 -0.0088  0.6019
 3284TIP3    H2 9859   6.199   2.035   5.117  0.0344 -0.6946 -0.5437
 3285TIP3   OH2 9860   5.593   2.753   1.418 -0.2566  0.6899  0.6461
 3285TIP3    H1 9861   5.543   2.672   1.411 -0.6880  1.0024  0.0082
 3285TIP3    H2 9862   5.685   2.724   1.425 -0.1526  0.1547 -1.8847
 3286TIP3   OH2 9863   6.359   0.517   1.591 -0.2747 -0.0813 -0.0026
 3286TIP3    H1 9864   6.295   0.486   1.526 -1.3672 -1.0197  1.4699
 3286TIP3    H2 9865   6.332   0.476   1.673  1.2758  0.8115  1.0011
 3287TIP3   OH2 9866   0.146   1.431   1.147  0.2418  0.2547 -0.0519
 3287TIP3    H1 9867   0.145   1.481   1.229  0.0038 -1.3076  0.9467
 3287TIP3    H2 9868   0.165   1.341   1.174  0.1767 -0.2987 -1.7290
 3288TIP3   OH2 9869   2.277   3.981   4.168 -0.0279 -0.3984  0.0211
 3288TIP3    H1 9870   2.370   3.961   4.157  0.0116 -1.0973  1.4396
 3288TIP3    H2 9871   2.235   3.896   4.175 -0.5830 -0.0679  0.8116
 3289TIP3   OH2 9872   2.104   0.119   0.806  0.1385 -0.7368  0.4808
 3289TIP3    H1 9873   2.152   0.071   0.873  1.3825  0.0529  0.1918
 3289TIP3    H2 9874   2.163   0.190   0.780 -0.1835 -1.1928 -1.6624
 3290TIP3   OH2 9875   0.800   0.335   4.031  0.5818  0.0858 -0.5504
 3290TIP3    H1 9876   0.792   0.261   4.092 -0.1526  0.8643  0.3471
 3290TIP3    H2 9877   0.712   0.374   4.030  0.9202  0.8542 -1.1208
 3291TIP3   OH2 9878   5.802   1.048   3.208 -0.2993  0.2205  0.4747
 3291TIP3    H1 9879   5.853   1.021   3.132 -0.9884  0.4528 -0.0785
 3291TIP3    H2 9880   5.856   1.022   3.283  0.7234  0.6427 -0.0923
 3292TIP3   OH2 9881   5.424   0.931   1.623 -0.0537  0.5062 -0.1765
 3292TIP3    H1 9882   5.424   0.994   1.551 -0.4473 -0.4336 -1.0163
 3292TIP3    H2 9883   5.510   0.942   1.664  0.0879  1.2121 -0.6507
 3293TIP3   OH2 9884   3.827   5.430   1.185  0.0531  1.0213 -0.2795
 3293TIP3    H1 9885   3.812   5.515   1.144  0.2107  2.2426  2.0277
 3293TIP3    H2 9886   3.915   5.437   1.222 -0.1685  0.0905  0.4604
 3294TIP3   OH2 9887   4.632   0.629   3.830  0.2076  0.2068  0.3849
 3294TIP3    H1 9888   4.629   0.541   3.867  1.3432 -0.9532 -2.0852
 3294TIP3    H2 9889   4.672   0.682   3.899 -1.3802 -0.9214  2.3046
 3295TIP3   OH2 9890   1.495   0.820   3.106 -0.6212  0.4661 -0.3002
 3295TIP3    H1 9891   1.533   0.906   3.123  0.5282 -0.1780  0.5018
 3295TIP3    H2 9892   1.526   0.797   3.018  0.4282  0.1847  0.1308
 3296TIP3   OH2 9893   3.007   1.294   2.482 -0.3146 -0.0709 -0.3317
 3296TIP3    H1 9894   2.962   1.210   2.481  0.2349 -0.3682 -0.3090
 3296TIP3    H2 9895   3.068   1.290   2.409 -2.4876  1.5562 -2.3854
 3297TIP3   OH2 9896   3.164   0.246   2.947 -0.1127  0.2855  0.1926
 3297TIP3    H1 9897   3.227   0.223   3.015  0.9906  0.7791 -0.6309
 3297TIP3    H2 9898   3.217   0.260   2.868 -1.1236  1.7332 -0.2810
 3298TIP3   OH2 9899   4.652   4.951   0.994  0.0431  0.0149  0.7343
 3298TIP3    H1 9900   4.649   4.971   1.088  1.1058  0.3557  0.7059
 3298TIP3    H2 9901   4.690   4.864   0.990  0.8738  0.3690  0.5950
 3299TIP3   OH2 9902   0.979   3.666   0.400 -0.5377  0.3002 -0.1228
 3299TIP3    H1 9903   0.936   3.601   0.344 -0.9259  0.6117 -0.1898
 3299TIP3    H2 9904   1.068   3.673   0.364 -0.1347 -0.9864  0.5568
 3300TIP3   OH2 9905   6.060   2.033   3.861 -1.0505  0.3318 -0.0413
 3300TIP3    H1 9906   6.017   1.965   3.809  1.7263 -1.1472 -0.6044
 3300TIP3    H2 9907   6.103   2.089   3.796  1.8313 -1.1047  0.4665
 3301TIP3   OH2 9908   5.051   0.083   0.243 -0.3294  0.1030  0.4525
 3301TIP3    H1 9909   4.989   0.015   0.217 -1.6385  0.8891  1.3899
 3301TIP3    H2 9910   5.064   0.135   0.164 -2.2625  0.9555  0.6439
 3302TIP3   OH2 9911   1.845   5.828   5.150 -0.3006 -0.3663  0.5485
 3302TIP3    H1 9912   1.932   5.864   5.164  0.0825 -1.4336  1.0234
 3302TIP3    H2 9913   1.829   5.839   5.056  0.0616  0.4365  0.5768
 3303TIP3   OH2 9914   1.533   0.609   4.720 -0.2190 -0.4641 -0.3061
 3303TIP3    H1 9915   1.459   0.652   4.763 -0.6126 -3.1481  2.0030
 3303TIP3    H2 9916   1.610   0.660   4.746 -0.9037  0.3687  0.1183
 3304TIP3   OH2 9917   5.324   4.515   1.106 -0.2045  0.6888  0.0050
 3304TIP3    H1 9918   5.231   4.517   1.081  0.1412  1.4503 -1.3406
 3304TIP3    H2 9919   5.344   4.607   1.127  0.2465  0.5230  0.3041
 3305TIP3   OH2 9920   2.793   4.308   3.265 -0.9034 -0.3689  0.0039
 3305TIP3    H1 9921   2.867   4.317   3.205 -1.5340  3.8857 -0.4646
 3305TIP3    H2 9922   2.722   4.274   3.211 -0.0545 -2.0523 -0.1378
 3306TIP3   OH2 9923   0.822   2.503   1.112 -0.1129 -0.0470  0.3061
 3306TIP3    H1 9924   0.842   2.539   1.198  0.1986  0.4035  0.0499
 3306TIP3    H2 9925   0.845   2.410   1.119  0.4503  0.1081  0.5410
 3307TIP3   OH2 9926   2.784   1.147   2.116 -0.5220 -0.0227  0.2748
 3307TIP3    H1 9927   2.805   1.066   2.162  1.9890  1.4297  1.9104
 3307TIP3    H2 9928   2.831   1.141   2.033 -0.8967 -0.4925  0.0916
 3308TIP3   OH2 9929   0.310   2.330   1.484 -0.2858  0.0904 -0.7342
 3308TIP3    H1 9930   0.304   2.244   1.526 -2.2002  0.4513 -0.1996
 3308TIP3    H2 9931   0.221   2.363   1.483  0.3531  1.9247 -1.2911
 3309TIP3   OH2 9932   1.044   5.374   5.076  0.0128 -0.0945  0.2397
 3309TIP3    H1 9933   0.957   5.340   5.095  0.3458 -1.5904 -0.7758
 3309TIP3    H2 9934   1.051   5.371   4.981  0.8906  0.7851  0.2544
 3310TIP3   OH2 9935   4.976   1.942   1.744 -0.2632 -0.5678  0.3125
 3310TIP3    H1 9936   4.955   1.849   1.753  0.0154 -0.6363  0.2891
 3310TIP3    H2 9937   4.908   1.978   1.687  0.8109 -1.2070 -1.4445
 3311TIP3   OH2 9938   0.088   0.316   3.079  0.1654 -0.3164 -0.1330
 3311TIP3    H1 9939   0.104   0.391   3.137 -0.8770 -0.3579  0.2236
 3311TIP3    H2 9940   0.026   0.350   3.014 -0.4655 -0.9275  0.1490
 3312TIP3   OH2 9941   3.957   1.219   5.096  0.7156 -0.2923 -0.1901
 3312TIP3    H1 9942   3.914   1.136   5.077  0.7009  0.1753 -2.4268
 3312TIP3    H2 9943   4.002   1.204   5.179 -2.0992 -1.4075  1.2720
 3313TIP3   OH2 9944   2.861   0.439   4.174 -0.3218  0.0202 -0.2101
 3313TIP3    H1 9945   2.818   0.401   4.250  0.1536  1.3294  0.7403
 3313TIP3    H2 9946   2.798   0.428   4.103 -0.6425 -1.5128  0.2600
 3314TIP3   OH2 9947   5.011   0.116   3.011 -0.1556  0.6197 -1.0671
 3314TIP3    H1 9948   5.067   0.054   3.058 -0.8110 -0.5123 -1.7370
 3314TIP3    H2 9949   5.069   0.189   2.991  0.0035  1.4119  1.9471
 3315TIP3   OH2 9950   1.067   3.164   2.910  0.3518 -0.6763  0.3962
 3315TIP3    H1 9951   1.101   3.149   2.998 -1.8485  0.0701  1.4568
 3315TIP3    H2 9952   1.003   3.234   2.922  1.2487  0.6786 -2.1323
 3316TIP3   OH2 9953   1.750   2.785   4.766 -0.3165  0.5403 -0.1340
 3316TIP3    H1 9954   1.704   2.860   4.805  0.5828  0.9229  0.2174
 3316TIP3    H2 9955   1.842   2.800   4.787  0.9090  2.8186 -5.5745
 3317TIP3   OH2 9956   2.313   2.712   4.764 -0.3880 -0.4851 -0.3822
 3317TIP3    H1 9957   2.253   2.638   4.758 -0.5335 -0.3275 -0.8732
 3317TIP3    H2 9958   2.325   2.742   4.674  1.0174 -0.9793 -0.3936
 3318TIP3   OH2 9959   3.888   2.924   2.734  0.0660 -0.4332  0.1291
 3318TIP3    H1 9960   3.876   3.018   2.717 -0.1374 -0.3642  0.6326
 3318TIP3    H2 9961   3.927   2.890   2.653  0.4338  0.1432  0.0519
 3319TIP3   OH2 9962   1.078   4.918   1.581  0.7107  0.0675 -0.5325
 3319TIP3    H1 9963   1.074   4.885   1.491  2.1400  0.9984 -0.9754
 3319TIP3    H2 9964   1.123   5.003   1.573  2.6234 -0.6929  1.2644
 3320TIP3   OH2 9965   5.373   2.745   0.745 -0.3698 -0.3025 -0.1337
 3320TIP3    H1 9966   5.306   2.677   0.750 -0.0198 -0.7356 -1.0681
 3320TIP3    H2 9967   5.345   2.801   0.673 -0.5068  0.3997  0.4484
 3321TIP3   OH2 9968   4.496   4.172   2.075  0.6304 -0.0647 -0.1226
 3321TIP3    H1 9969   4.573   4.190   2.130 -1.0614 -0.3311  2.5230
 3321TIP3    H2 9970   4.447   4.254   2.075  1.3626  0.4462 -2.7121
 3322TIP3   OH2 9971   5.666   0.219   4.882  0.3230 -0.7187 -0.1579
 3322TIP3    H1 9972   5.577   0.245   4.907 -0.1330 -1.6967 -0.6891
 3322TIP3    H2 9973   5.685   0.271   4.804  0.3028 -0.3636  0.0696
 3323TIP3   OH2 9974   4.316   5.658   1.401  0.2742 -0.8749 -0.2565
 3323TIP3    H1 9975   4.243   5.666   1.339 -0.2260 -1.7943  0.1890
 3323TIP3    H2 9976   4.388   5.622   1.349  0.2299 -0.5180 -0.5673
 3324TIP3   OH2 9977   1.631   5.097   1.175 -0.3641 -0.1616  0.0031
 3324TIP3    H1 9978   1.615   5.085   1.081 -1.1396 -1.0775  0.2421
 3324TIP3    H2 9979   1.594   5.184   1.194  0.8263  0.5366 -0.7539
 3325TIP3   OH2 9980   2.348   1.005   3.149  0.6058 -0.2555  0.5645
 3325TIP3    H1 9981   2.346   1.080   3.209  1.5918  1.6009 -1.5843
 3325TIP3    H2 9982   2.441   0.984   3.142  0.3950 -1.2267  0.5622
 3326TIP3   OH2 9983   4.026   0.834   4.431 -0.0494 -0.2030  0.1465
 3326TIP3    H1 9984   4.096   0.891   4.462 -1.5413  2.8017 -1.6327
 3326TIP3    H2 9985   4.058   0.801   4.347 -0.1043 -0.1662  0.1109
 3327TIP3   OH2 9986   2.212   4.789   4.156  0.0403  0.5906 -0.0899
 3327TIP3    H1 9987   2.250   4.876   4.146  0.6066  0.3603 -0.0468
 3327TIP3    H2 9988   2.209   4.753   4.067  1.7862 -0.1288  0.0915
 3328TIP3   OH2 9989   1.051   5.180   0.944 -0.3623 -0.2377  0.1717
 3328TIP3    H1 9990   1.060   5.235   0.867  1.4906  0.0990  0.5840
 3328TIP3    H2 9991   0.987   5.113   0.919 -1.5928  1.2435 -0.8084
 3329TIP3   OH2 9992   3.346   1.284   0.817 -0.8360 -0.2256 -0.1477
 3329TIP3    H1 9993   3.272   1.337   0.848 -2.8050 -0.7777 -3.3849
 3329TIP3    H2 9994   3.348   1.300   0.723  0.0200 -3.9886 -0.9241
 3330TIP3   OH2 9995   0.986   2.436   1.872 -0.2012 -0.5987  0.6944
 3330TIP3    H1 9996   0.914   2.384   1.836  0.1685 -1.5142  1.2352
 3330TIP3    H2 9997   1.027   2.476   1.796  0.1254 -1.9266  0.1387
 3331TIP3   OH2 9998   3.057   3.490   1.488  0.4365  0.4534  0.3738
 3331TIP3    H1 9999   3.030   3.415   1.540  0.0958  0.9653  0.9513
 3331TIP3    H210000   3.044   3.462   1.397  0.6611 -0.3061  0.5753
 3332TIP3   OH210001   1.179   5.451   1.403 -0.0991 -0.2085  0.0714
 3332TIP3    H110002   1.102   5.430   1.350  0.7512  0.2475 -1.4146
 3332TIP3    H210003   1.196   5.544   1.386 -0.3056  0.1792  1.8574
 3333TIP3   OH210004   2.143   5.784   4.687 -0.4687 -0.2621 -0.3812
 3333TIP3    H110005   2.102   5.769   4.773 -1.9428  2.2309 -0.5694
 3333TIP3    H210006   2.200   5.860   4.701  0.2931 -0.6405 -1.3368
 3334TIP3   OH210007   3.894   1.189   0.562 -0.3398 -0.0915  0.1988
 3334TIP3    H110008   3.832   1.157   0.496  0.2660 -2.6440  0.7567
 3334TIP3    H210009   3.847   1.179   0.645  1.2132 -3.6476  0.8207
 3335TIP3   OH210010   5.209   5.110   1.723  0.4933 -0.4052  0.0170
 3335TIP3    H110011   5.123   5.136   1.755  0.0071  0.1362 -1.6305
 3335TIP3    H210012   5.192   5.036   1.665  0.7369  1.3089 -2.4002
 3336TIP3   OH210013   0.753   3.580   1.501 -0.0031 -0.3045  0.3676
 3336TIP3    H110014   0.832   3.528   1.518 -0.4777 -1.2722 -0.2870
 3336TIP3    H210015   0.691   3.552   1.568 -0.5131 -1.1672 -0.4373
 3337TIP3   OH210016   4.784   4.694   4.101  0.1232  0.0120 -0.4276
 3337TIP3    H110017   4.761   4.626   4.039 -3.0775 -0.6333  1.2375
 3337TIP3    H210018   4.822   4.647   4.175 -0.1822  0.2509 -0.1147
 3338TIP3   OH210019   3.977   5.901   4.602  0.2878 -0.6279  0.3119
 3338TIP3    H110020   4.002   5.980   4.649 -2.0545 -0.8748  2.1671
 3338TIP3    H210021   4.060   5.854   4.588  1.8417  2.3820 -1.5313
 3339TIP3   OH210022   1.057   3.794   0.863  0.3588 -0.6088 -0.0676
 3339TIP3    H110023   1.152   3.808   0.864  0.4309 -1.0566 -0.4572
 3339TIP3    H210024   1.021   3.882   0.847  0.7219 -0.5062 -0.3501
 3340TIP3   OH210025   3.746   4.643   0.541 -0.1164  0.1589 -0.1747
 3340TIP3    H110026   3.652   4.633   0.532 -0.0583  0.0910 -0.7607
 3340TIP3    H210027   3.781   4.623   0.454  0.3883  0.8280 -0.1367
 3341TIP3   OH210028   5.676   0.205   3.217 -0.0916 -0.0689 -0.3636
 3341TIP3    H110029   5.747   0.265   3.240  1.2983 -1.6856 -0.2827
 3341TIP3    H210030   5.666   0.215   3.123  0.6681 -0.2660 -0.4706
 3342TIP3   OH210031   0.189   2.840   2.443 -0.0341 -0.2368 -0.5433
 3342TIP3    H110032   0.154   2.751   2.440 -1.2457  0.1187  1.3999
 3342TIP3    H210033   0.262   2.834   2.504  0.9970 -0.2079 -1.7320
 3343TIP3   OH210034   3.517   1.846   2.669 -0.4572  0.5050  0.3623
 3343TIP3    H110035   3.448   1.788   2.638 -0.2959  0.8249 -0.6372
 3343TIP3    H210036   3.530   1.822   2.761  0.0802 -1.5001 -0.1984
 3344TIP3   OH210037   3.768   4.581   0.273  0.7180  0.0880 -0.4171
 3344TIP3    H110038   3.676   4.571   0.250  1.1186 -2.7548 -1.2334
 3344TIP3    H210039   3.797   4.658   0.224 -1.2106  1.0992 -0.0529
 3345TIP3   OH210040   2.629   0.205   4.618 -0.3334 -0.2565  0.2138
 3345TIP3    H110041   2.580   0.129   4.588  1.6689 -0.6729 -2.2254
 3345TIP3    H210042   2.664   0.178   4.703  0.2483 -2.0538 -0.5441
 3346TIP3   OH210043   2.252   2.689   3.793  0.5406 -0.2902 -0.1806
 3346TIP3    H110044   2.183   2.690   3.859  1.4139  2.1550  0.8268
 3346TIP3    H210045   2.210   2.718   3.712  0.4854  2.3960  0.6964
 3347TIP3   OH210046   3.081   4.937   3.294  0.1466 -0.1509  0.8401
 3347TIP3    H110047   3.107   4.854   3.334 -1.5142 -0.8719  0.4717
 3347TIP3    H210048   3.073   4.918   3.201 -0.4237  0.3710  0.7756
 3348TIP3   OH210049   2.286   5.378   4.376  0.0285  0.5690 -0.0084
 3348TIP3    H110050   2.266   5.406   4.287 -0.6870 -1.5199 -0.5684
 3348TIP3    H210051   2.368   5.328   4.367  0.5829  1.3185  0.7259
 3349TIP3   OH210052   5.735   0.547   4.432  0.0211  0.6450 -0.1071
 3349TIP3    H110053   5.684   0.538   4.513 -1.0676  1.9016 -0.6236
 3349TIP3    H210054   5.690   0.491   4.369 -0.2159  1.0719 -0.3228
 3350TIP3   OH210055   2.436   0.695   0.744  0.0026  0.0847 -0.2009
 3350TIP3    H110056   2.380   0.654   0.810  1.7254 -1.0325  0.6655
 3350TIP3    H210057   2.470   0.774   0.787 -0.2199  0.2835 -0.3916
 3351TIP3   OH210058   0.750   3.230   3.387  0.4264 -0.3136  0.1903
 3351TIP3    H110059   0.749   3.222   3.292  1.2697 -1.3417  0.2436
 3351TIP3    H210060   0.678   3.289   3.407  1.0034  0.9291 -1.1669
 3352TIP3   OH210061   1.498   0.043   3.116  0.3253 -0.5562 -0.3529
 3352TIP3    H110062   1.582   0.086   3.102  0.2273 -0.9897 -2.6015
 3352TIP3    H210063   1.506   0.001   3.201  1.7955  0.7006  0.1804
 3353TIP3   OH210064   4.315   4.303   2.975  0.3661 -0.1149 -0.0860
 3353TIP3    H110065   4.241   4.280   2.920 -0.0513  1.4414 -0.2098
 3353TIP3    H210066   4.387   4.250   2.942 -0.2719 -0.3889 -1.0733
 3354TIP3   OH210067   3.270   1.947   2.426  0.4631  0.9836  0.0362
 3354TIP3    H110068   3.227   1.940   2.512  0.7290  1.1164  0.1816
 3354TIP3    H210069   3.353   1.990   2.445 -0.1701  2.5276 -0.5149
 3355TIP3   OH210070   2.299   4.960   1.690 -0.4086 -0.0707  0.6556
 3355TIP3    H110071   2.222   4.999   1.649  0.1173 -1.2806 -1.7077
 3355TIP3    H210072   2.363   5.031   1.692 -0.3058 -0.0508 -1.1930
 3356TIP3   OH210073   0.746   4.257   4.239  0.5142  0.5003  0.1510
 3356TIP3    H110074   0.781   4.315   4.171 -1.4201  1.3494 -0.1885
 3356TIP3    H210075   0.783   4.171   4.218  2.8931  1.4162  0.2521
 3357TIP3   OH210076   1.554   3.258   4.557  0.0633  0.1477 -0.5882
 3357TIP3    H110077   1.570   3.286   4.467  0.8493 -1.7532 -1.0998
 3357TIP3    H210078   1.468   3.215   4.553  0.5359 -0.8183 -0.6824
 3358TIP3   OH210079   1.656   1.694   1.331 -0.1626  0.2588 -0.4743
 3358TIP3    H110080   1.632   1.628   1.267 -0.1249  1.2094 -1.4959
 3358TIP3    H210081   1.751   1.684   1.342 -0.0957  0.4079 -0.9217
 3359TIP3   OH210082   0.524   4.184   2.990  0.5014 -0.0033  0.4240
 3359TIP3    H110083   0.530   4.170   3.084 -1.1956  0.7874  0.6841
 3359TIP3    H210084   0.443   4.233   2.978  0.2513 -0.8090 -1.5368
 3360TIP3   OH210085   6.173   0.115   1.834 -0.3660 -0.0328  0.4282
 3360TIP3    H110086   6.189   0.138   1.926 -0.9212 -1.0096  0.7865
 3360TIP3    H210087   6.259   0.097   1.798 -0.2753 -1.5194  1.2975
 3361TIP3   OH210088   2.001   1.633   2.372  0.5192 -0.1682 -0.3156
 3361TIP3    H110089   2.032   1.563   2.314  5.9700  0.1838  1.5674
 3361TIP3    H210090   2.032   1.714   2.332 -1.9792  0.8687 -0.3365
 3362TIP3   OH210091   3.484   3.589   1.607  0.0372 -0.2136  0.2811
 3362TIP3    H110092   3.460   3.531   1.680  1.8808 -0.0854  1.0321
 3362TIP3    H210093   3.579   3.595   1.612  0.1321  0.4301 -1.6843
 3363TIP3   OH210094   1.653   5.681   3.773 -0.4387 -0.0596  0.9254
 3363TIP3    H110095   1.662   5.710   3.864  0.2463 -1.7453  1.4428
 3363TIP3    H210096   1.691   5.593   3.773 -0.3781 -0.0581 -1.0207
 3364TIP3   OH210097   2.425   3.219   1.934  0.1907 -0.6552 -0.2619
 3364TIP3    H110098   2.361   3.269   1.985  0.1235 -0.5753 -0.4276
 3364TIP3    H210099   2.414   3.129   1.964  0.2202 -0.5932 -0.0595
 3365TIP3   OH210100   3.163   3.867   2.829  0.2246 -0.2175 -0.1197
 3365TIP3    H110101   3.189   3.846   2.739  0.6424 -0.7205  0.1179
 3365TIP3    H210102   3.235   3.835   2.883  0.3272  0.7691  0.3419
 3366TIP3   OH210103   2.791   2.543   1.677  0.2849 -0.1021 -0.6710
 3366TIP3    H110104   2.821   2.558   1.587  0.1076 -0.7774 -0.8535
 3366TIP3    H210105   2.696   2.556   1.673  0.4426  1.2910 -0.2582
 3367TIP3   OH210106   5.111   2.493   3.020 -0.3504 -0.2891 -0.1333
 3367TIP3    H110107   5.046   2.486   3.090 -0.8778  0.3253 -0.5539
 3367TIP3    H210108   5.061   2.522   2.943  0.2345 -0.8809 -0.7504
 3368TIP3   OH210109   4.004   4.742   1.219  0.3926  0.0728  0.4841
 3368TIP3    H110110   3.952   4.821   1.208 -0.6495 -0.4881  1.1551
 3368TIP3    H210111   4.075   4.767   1.278 -1.1577  0.0317  2.4815
 3369TIP3   OH210112   4.194   4.908   3.970  0.0370 -0.3644  0.2286
 3369TIP3    H110113   4.222   4.992   3.933 -0.7406 -0.2588 -0.1395
 3369TIP3    H210114   4.257   4.891   4.040 -0.9184  1.5070  1.6382
 3370TIP3   OH210115   0.114   0.686   2.906 -0.0201 -0.6978 -0.0483
 3370TIP3    H110116   0.165   0.715   2.982  0.5490 -0.7310 -0.4071
 3370TIP3    H210117   0.159   0.607   2.877 -0.4304 -0.8674 -0.2263
 3371TIP3   OH210118   4.992   3.098   2.578 -0.5899  0.2906 -0.1358
 3371TIP3    H110119   4.916   3.040   2.583  0.9016 -2.0392 -2.0982
 3371TIP3    H210120   5.034   3.089   2.664 -0.9056 -0.8357 -0.0749
 3372TIP3   OH210121   3.071   4.986   4.439  0.5112  0.1431 -0.3071
 3372TIP3    H110122   3.115   4.929   4.503  2.1039 -0.7708 -2.0962
 3372TIP3    H210123   3.037   5.059   4.491  0.4809 -1.2440  1.7468
 3373TIP3   OH210124   1.165   4.744   4.482 -0.5035  0.1217 -0.3890
 3373TIP3    H110125   1.109   4.718   4.555  0.0878  1.2053  0.4920
 3373TIP3    H210126   1.201   4.829   4.509  0.6613 -0.0183 -1.4224
 3374TIP3   OH210127   3.686   0.484   0.209 -0.2081  0.2011 -0.5173
 3374TIP3    H110128   3.757   0.421   0.223 -1.2575 -0.8727  0.1773
 3374TIP3    H210129   3.730   0.569   0.204  1.2063 -0.5322 -1.0716
 3375TIP3   OH210130   5.263   0.869   1.276 -0.0147 -0.3827 -0.3004
 3375TIP3    H110131   5.221   0.841   1.357 -0.1768  0.0721 -0.2235
 3375TIP3    H210132   5.190   0.887   1.216  0.0654  0.3364 -0.1896
 3376TIP3   OH210133   0.878   0.800   3.655  0.0980 -0.3957 -0.1112
 3376TIP3    H110134   0.919   0.869   3.604 -0.0036  1.0153  1.5974
 3376TIP3    H210135   0.813   0.846   3.709  0.8803 -1.5981  1.9868
 3377TIP3   OH210136   6.220   5.546   0.600  0.2436 -0.3130 -0.0930
 3377TIP3    H110137   6.261   5.626   0.632  1.1572 -1.6187  2.1995
 3377TIP3    H210138   6.280   5.476   0.625 -0.9466 -1.8313 -1.2440
 3378TIP3   OH210139   1.597   4.363   2.081 -0.2435 -0.3209  0.0948
 3378TIP3    H110140   1.594   4.342   2.174 -0.0384  1.6341  0.5914
 3378TIP3    H210141   1.520   4.418   2.066  0.1431  0.0282 -0.7073
 3379TIP3   OH210142   0.099   1.581   4.044  0.0520  0.2791 -0.3047
 3379TIP3    H110143   0.072   1.493   4.018  0.4881  0.0714 -0.0752
 3379TIP3    H210144   0.086   1.635   3.966 -1.0637  0.2029 -0.1903
 3380TIP3   OH210145   3.964   0.293   3.734 -0.3834  0.2220 -0.0418
 3380TIP3    H110146   4.009   0.345   3.801  1.5027 -0.8400 -0.3908
 3380TIP3    H210147   3.935   0.215   3.782 -0.0749 -0.0024 -0.2191
 3381TIP3   OH210148   6.086   2.442   2.476  0.6820 -0.1252 -0.3870
 3381TIP3    H110149   6.027   2.509   2.513  1.8197  0.1275  1.0948
 3381TIP3    H210150   6.033   2.396   2.412 -0.9724  0.4533  0.4955
 3382TIP3   OH210151   0.033   5.171   2.035 -0.0937 -0.5741 -0.3166
 3382TIP3    H110152   0.059   5.161   2.127 -0.9283 -0.6906 -0.0824
 3382TIP3    H210153  -0.063   5.171   2.038 -0.1225 -1.0699 -1.2457
 3383TIP3   OH210154   5.102   1.839   4.542  0.0444 -0.3964  0.0260
 3383TIP3    H110155   5.045   1.916   4.541 -0.9832 -1.1423 -0.4744
 3383TIP3    H210156   5.179   1.866   4.493 -0.3836  0.2644 -0.3065
 3384TIP3   OH210157   6.089   1.679   3.566  0.3497 -0.2334 -0.5073
 3384TIP3    H110158   6.028   1.736   3.613  0.2380 -0.6238 -0.1761
 3384TIP3    H210159   6.107   1.726   3.484  0.2760  0.2873 -0.2338
 3385TIP3   OH210160   3.175   0.921   2.620 -0.4762 -0.1882 -0.5371
 3385TIP3    H110161   3.245   0.858   2.639 -0.8433 -0.9402 -1.5772
 3385TIP3    H210162   3.203   1.002   2.662  1.1175 -0.4161 -1.0977
 3386TIP3   OH210163   6.189   3.000   0.587  0.1711  0.0196  0.2018
 3386TIP3    H110164   6.206   3.051   0.508 -0.6535  1.6471  1.0221
 3386TIP3    H210165   6.275   2.987   0.628  0.7690 -1.8604 -1.4961
 3387TIP3   OH210166   4.315   3.734   1.167  0.0655  0.3296  0.3681
 3387TIP3    H110167   4.236   3.781   1.193  0.8091  1.4180  0.7312
 3387TIP3    H210168   4.387   3.788   1.199  1.0137  0.6273 -2.0190
 3388TIP3   OH210169   3.654   4.577   1.348  0.4292 -0.3241 -0.1954
 3388TIP3    H110170   3.692   4.622   1.424  0.2675  1.1768 -0.9699
 3388TIP3    H210171   3.729   4.561   1.290  0.6087 -1.7800  0.3944
 3389TIP3   OH210172   2.049   2.144   2.358  0.0920  0.2505 -0.4258
 3389TIP3    H110173   2.064   2.135   2.452  0.9219  0.6608 -0.5090
 3389TIP3    H210174   1.971   2.198   2.352 -1.4074 -1.7397  0.0224
 3390TIP3   OH210175   4.055   4.000   0.685 -0.3289 -0.1224  0.0686
 3390TIP3    H110176   4.121   3.948   0.640 -0.7094  1.0122 -1.9495
 3390TIP3    H210177   4.099   4.034   0.763  0.7456 -1.1907 -0.0506
 3391TIP3   OH210178   0.082   5.583   3.353  0.3676  0.1896  0.8731
 3391TIP3    H110179   0.073   5.488   3.365 -0.5671  0.3343  1.4473
 3391TIP3    H210180   0.175   5.600   3.366  1.0060 -0.9561 -1.6974
 3392TIP3   OH210181   2.887   1.044   0.359  0.0846  0.0868 -0.0573
 3392TIP3    H110182   2.905   1.001   0.442 -0.6865 -1.6962 -0.7757
 3392TIP3    H210183   2.963   1.022   0.304 -0.2214 -0.2119 -0.3654
 3393TIP3   OH210184   1.412   3.691   2.691  0.2929 -0.0469 -0.4798
 3393TIP3    H110185   1.382   3.670   2.603 -1.0301  0.6084 -0.2093
 3393TIP3    H210186   1.332   3.708   2.741  1.0487  0.3015  0.6670
 3394TIP3   OH210187   3.638   1.208   3.610  0.1372  0.0347  0.2581
 3394TIP3    H110188   3.612   1.145   3.677  0.1398 -0.1448  0.0894
 3394TIP3    H210189   3.716   1.251   3.647 -0.7879  1.0866  1.0875
 3395TIP3   OH210190   1.681   1.566   2.725  0.3345  0.6255 -0.2348
 3395TIP3    H110191   1.725   1.613   2.654 -2.1544  2.0112 -0.9713
 3395TIP3    H210192   1.720   1.603   2.805 -0.3562  2.7692 -0.8330
 3396TIP3   OH210193   4.145   5.025   1.897 -0.1453  0.2267  0.2098
 3396TIP3    H110194   4.068   5.044   1.843  0.4879  0.7181 -0.5423
 3396TIP3    H210195   4.110   5.009   1.985 -1.4346 -2.6559 -0.7044
 3397TIP3   OH210196   2.011   3.955   1.582  0.8043 -0.5276  0.0237
 3397TIP3    H110197   1.920   3.965   1.612  0.3371 -1.2294 -1.1011
 3397TIP3    H210198   2.059   4.023   1.630 -1.1262  3.1526 -2.7268
 3398TIP3   OH210199   3.901   2.918   2.997  0.1192 -0.1880 -0.0880
 3398TIP3    H110200   3.850   2.839   3.017 -0.3885  0.1014 -0.2097
 3398TIP3    H210201   3.909   2.917   2.901  0.6845 -0.4368 -0.0422
 3399TIP3   OH210202   1.674   5.851   4.038  0.3929  0.2691  0.0729
 3399TIP3    H110203   1.695   5.879   4.127  0.6552 -0.3086  0.1947
 3399TIP3    H210204   1.580   5.832   4.040  0.7808 -1.7192  0.7704
 3400TIP3   OH210205   0.906   1.315   1.724  0.1811 -0.6095  0.6530
 3400TIP3    H110206   0.883   1.320   1.631 -2.0883 -1.6604  1.0778
 3400TIP3    H210207   0.981   1.374   1.733 -0.1938  0.3528 -1.6342
 3401TIP3   OH210208   2.926   1.872   2.333 -0.0709 -0.1334  0.5261
 3401TIP3    H110209   2.905   1.912   2.417 -0.2710 -0.9517  0.8800
 3401TIP3    H210210   2.849   1.819   2.312  0.3514 -0.6618  0.2796
 3402TIP3   OH210211   2.025   5.351   2.640  0.0349 -0.2912  0.5107
 3402TIP3    H110212   1.984   5.294   2.704 -0.1357 -2.0240 -1.0550
 3402TIP3    H210213   2.094   5.298   2.600 -1.2850 -0.1273 -2.2656
 3403TIP3   OH210214   1.648   0.359   1.415  0.5059  0.1675  0.1620
 3403TIP3    H110215   1.573   0.361   1.474  1.1093  0.5229  0.9325
 3403TIP3    H210216   1.612   0.326   1.332 -0.2268 -0.9607  0.8953
 3404TIP3   OH210217   6.055   5.505   4.078 -0.6036  0.3639  0.3307
 3404TIP3    H110218   6.102   5.529   3.999  0.4128 -1.5999  0.2879
 3404TIP3    H210219   6.116   5.524   4.149  0.3869 -2.1749  0.2763
 3405TIP3   OH210220   3.788   4.678   3.712  0.0324  0.0752  0.2504
 3405TIP3    H110221   3.883   4.690   3.705  0.7891 -3.9307  0.9534
 3405TIP3    H210222   3.754   4.703   3.626  1.8960  0.4924 -0.4097
 3406TIP3   OH210223   4.403   5.579   0.785 -0.1654  0.4461 -0.6867
 3406TIP3    H110224   4.369   5.510   0.843  0.8548  0.2526 -0.3002
 3406TIP3    H210225   4.386   5.546   0.697 -0.8723  0.3084 -0.5109
 3407TIP3   OH210226   4.986   0.874   0.827  0.0431 -0.0705 -0.5354
 3407TIP3    H110227   5.041   0.849   0.753  0.2021  1.4519 -0.9819
 3407TIP3    H210228   4.940   0.952   0.796 -1.1282 -0.3553  0.4093
 3408TIP3   OH210229   2.681   5.622   4.734  0.4360 -0.0830  0.3463
 3408TIP3    H110230   2.716   5.593   4.818  2.2877  1.1412  0.0592
 3408TIP3    H210231   2.636   5.546   4.699  0.7248 -1.0048  1.8686
 3409TIP3   OH210232   3.728   2.631   2.514  0.6152 -0.1549 -0.6092
 3409TIP3    H110233   3.705   2.703   2.455  1.5618  0.4364 -0.2853
 3409TIP3    H210234   3.674   2.646   2.592  0.9036  0.2852 -0.4914
 3410TIP3   OH210235   1.610   3.408   3.977  0.2771  0.0338  0.2638
 3410TIP3    H110236   1.654   3.405   3.892  0.8495 -1.6149  0.5831
 3410TIP3    H210237   1.681   3.415   4.041 -0.1278  0.8632  0.6270
 3411TIP3   OH210238   3.041   0.722   3.932  0.1970  0.5928 -0.0749
 3411TIP3    H110239   2.953   0.756   3.915  0.7412  1.8535 -0.4942
 3411TIP3    H210240   3.037   0.689   4.022 -1.4249 -1.8411 -0.9051
 3412TIP3   OH210241   3.612   0.676   2.556  0.3155  0.2016 -0.0390
 3412TIP3    H110242   3.672   0.750   2.557  0.4363  0.1007  0.1568
 3412TIP3    H210243   3.614   0.645   2.466  0.7913  0.0087  0.0332
 3413TIP3   OH210244   5.453   5.177   0.601  0.0481 -0.0698  0.6523
 3413TIP3    H110245   5.477   5.162   0.510 -1.4333 -0.0998  0.2478
 3413TIP3    H210246   5.448   5.090   0.640 -2.3843 -0.3465 -0.0864
 3414TIP3   OH210247   3.006   4.864   1.875  0.8229 -0.6937  0.1200
 3414TIP3    H110248   2.926   4.901   1.913 -0.6748 -2.0843 -1.5277
 3414TIP3    H210249   2.997   4.879   1.781  1.4262 -2.8394 -0.3267
 3415TIP3   OH210250   5.382   0.785   0.320 -0.1079 -0.3115  0.4581
 3415TIP3    H110251   5.461   0.837   0.304  0.8996 -1.1259  2.4465
 3415TIP3    H210252   5.326   0.843   0.372 -0.8188  0.2181 -0.8408
 3416TIP3   OH210253   4.459   3.490   2.162 -0.7692 -0.1055 -0.6261
 3416TIP3    H110254   4.445   3.585   2.156  1.1226  0.2378 -0.4470
 3416TIP3    H210255   4.487   3.465   2.074 -1.1619 -0.4816 -0.6440
 3417TIP3   OH210256   5.226   3.774   2.893 -0.1411  0.3488 -0.0821
 3417TIP3    H110257   5.271   3.836   2.835  2.9759 -1.7646 -0.1861
 3417TIP3    H210258   5.190   3.708   2.834  1.8073 -1.0433  0.1729
 3418TIP3   OH210259   1.978   2.646   1.353 -0.1976 -0.3831  0.5926
 3418TIP3    H110260   2.040   2.715   1.379 -1.4349  1.3339 -0.7785
 3418TIP3    H210261   2.016   2.609   1.273 -0.1037 -0.5061  0.6936
 3419TIP3   OH210262   1.909   1.878   2.091  0.1034 -0.2959 -1.1560
 3419TIP3    H110263   1.949   1.813   2.033 -0.9789  1.0347 -3.5195
 3419TIP3    H210264   1.830   1.835   2.124  0.6316 -1.0074 -0.7941
 3420TIP3   OH210265   3.839   4.959   1.132  0.7005  0.0815  0.7602
 3420TIP3    H110266   3.747   4.961   1.159  0.1472  0.6887 -0.9956
 3420TIP3    H210267   3.837   4.986   1.040  2.5570 -0.6865  0.4543
 3421TIP3   OH210268   0.690   2.225   1.618 -0.5770 -0.3622 -0.3521
 3421TIP3    H110269   0.691   2.158   1.549  1.1702 -0.2250 -0.5078
 3421TIP3    H210270   0.633   2.190   1.685 -0.8463 -1.3500 -1.0734
 3422TIP3   OH210271   2.386   1.296   1.527 -0.2843 -0.7547  0.4978
 3422TIP3    H110272   2.374   1.391   1.527 -1.3786 -0.8519 -1.3289
 3422TIP3    H210273   2.323   1.264   1.592 -2.2031 -0.3910 -1.0648
 3423TIP3   OH210274   5.450   0.446   1.085  0.0850  0.3348  0.4198
 3423TIP3    H110275   5.414   0.465   1.171  1.4548  0.8324  0.9059
 3423TIP3    H210276   5.527   0.393   1.102  0.3473  0.4076 -0.5062
 3424TIP3   OH210277   5.479   3.718   0.435 -0.0301 -0.3259  0.7438
 3424TIP3    H110278   5.440   3.800   0.406  1.8625  0.6937  0.9069
 3424TIP3    H210279   5.540   3.695   0.364  2.7384  0.8256  2.5665
 3425TIP3   OH210280   5.908   4.280   4.791  0.0063 -0.2069 -0.8810
 3425TIP3    H110281   5.968   4.353   4.809 -0.9503  0.2667  0.5191
 3425TIP3    H210282   5.903   4.232   4.873 -0.1371 -1.3127 -1.5168
 3426TIP3   OH210283   4.804   5.212   4.076 -0.3169 -0.2411  0.3642
 3426TIP3    H110284   4.829   5.137   4.022 -1.9570 -0.8890  0.4446
 3426TIP3    H210285   4.751   5.266   4.019 -0.1853  0.2286  0.6779
 3427TIP3   OH210286   0.774   5.533   2.244  0.3060  0.4505  0.2486
 3427TIP3    H110287   0.793   5.549   2.151  2.3035 -1.5523  0.2345
 3427TIP3    H210288   0.718   5.456   2.244 -0.4612  0.9891  0.7140
 3428TIP3   OH210289   5.849   1.324   3.123 -0.2916  0.2437 -0.2059
 3428TIP3    H110290   5.778   1.388   3.130  0.0024  0.7240 -1.3269
 3428TIP3    H210291   5.811   1.242   3.154 -0.7278  0.9079  1.1119
 3429TIP3   OH210292   0.155   1.926   3.428  0.1063 -0.4096 -0.3556
 3429TIP3    H110293   0.121   1.908   3.341 -0.2260  0.4980 -0.4254
 3429TIP3    H210294   0.210   2.003   3.418 -0.2922 -0.0221  0.3084
 3430TIP3   OH210295   6.088   1.801   1.333  0.2294 -0.1906 -0.1627
 3430TIP3    H110296   6.084   1.813   1.238  0.5546  0.0744 -0.1466
 3430TIP3    H210297   5.997   1.796   1.361  0.1304 -0.0993 -0.4676
 3431TIP3   OH210298   0.159   3.822   4.728 -0.2567 -0.2562 -0.1492
 3431TIP3    H110299   0.095   3.870   4.676 -2.2566 -1.7827  0.7883
 3431TIP3    H210300   0.185   3.749   4.672 -0.7436 -0.6646  0.1512
 3432TIP3   OH210301   1.997   0.173   0.525 -0.3906  0.6066  0.0688
 3432TIP3    H110302   2.010   0.219   0.607 -1.6465  0.0928  0.5883
 3432TIP3    H210303   1.904   0.183   0.506 -0.5559 -1.0302 -0.1885
 3433TIP3   OH210304   1.652   4.487   2.774  0.1714  0.2517 -0.2075
 3433TIP3    H110305   1.576   4.444   2.736  0.9632 -0.8109 -0.6240
 3433TIP3    H210306   1.670   4.560   2.715  0.8197 -0.8259 -1.3638
 3434TIP3   OH210307   3.975   0.027   4.887 -1.0272 -0.3632  0.1616
 3434TIP3    H110308   3.996  -0.028   4.812  1.0811  0.5741  0.0022
 3434TIP3    H210309   3.885   0.055   4.872 -1.2687 -1.7052 -1.0324
 3435TIP3   OH210310   2.225   5.245   0.211  0.1055  0.2312  0.3839
 3435TIP3    H110311   2.183   5.266   0.128  0.0847  0.4739  0.4532
 3435TIP3    H210312   2.230   5.150   0.213  1.1382  0.2504 -0.4085
 3436TIP3   OH210313   3.790   5.531   2.539  0.4082  0.2956  0.2596
 3436TIP3    H110314   3.709   5.578   2.560  0.6345  0.9035 -0.1957
 3436TIP3    H210315   3.804   5.474   2.614 -1.8327 -1.7975 -0.7980
 3437TIP3   OH210316   2.890   0.253   3.812  0.0440  0.1895  0.7608
 3437TIP3    H110317   2.818   0.216   3.862 -1.1448  0.4867 -0.6371
 3437TIP3    H210318   2.957   0.185   3.811 -0.6779 -0.5400  1.1501
 3438TIP3   OH210319   1.027   2.755   1.048 -0.3164 -0.1741  0.0447
 3438TIP3    H110320   0.998   2.798   0.968 -1.5680 -1.9073 -0.4960
 3438TIP3    H210321   1.005   2.817   1.118 -0.4836  0.7716 -0.8177
 3439TIP3   OH210322   1.404   0.119   0.009 -0.0600 -0.1177  0.7290
 3439TIP3    H110323   1.382   0.204   0.046 -0.2720  0.5159 -0.7885
 3439TIP3    H210324   1.322   0.070   0.010 -0.8239  0.9992 -1.6899
 3440TIP3   OH210325   3.997   5.818   1.949 -0.2456  0.4060 -0.1542
 3440TIP3    H110326   3.927   5.853   2.004 -0.8813  0.1240 -0.7826
 3440TIP3    H210327   4.023   5.891   1.893 -0.5362  0.3015 -0.4245
 3441TIP3   OH210328   2.096   1.982   5.145  0.0960 -0.2785 -0.1552
 3441TIP3    H110329   2.107   2.072   5.176  0.5189  0.7049 -2.8935
 3441TIP3    H210330   2.185   1.948   5.141  0.0429 -0.3922 -0.3251
 3442TIP3   OH210331   0.276   0.763   0.264 -0.1104  0.0974  0.2965
 3442TIP3    H110332   0.296   0.689   0.321 -0.2909  1.2791  1.9594
 3442TIP3    H210333   0.357   0.815   0.262 -0.7056  1.0935  1.1237
 3443TIP3   OH210334   3.775   1.484   0.091  0.4255 -0.2039  0.6182
 3443TIP3    H110335   3.864   1.451   0.083  1.0285  1.0646  1.7792
 3443TIP3    H210336   3.770   1.519   0.180 -0.3182  2.2814 -0.3335
 3444TIP3   OH210337   1.116   4.804   1.338 -0.2342  0.0476 -0.1452
 3444TIP3    H110338   1.175   4.845   1.274  0.1748  0.6541  0.6049
 3444TIP3    H210339   1.161   4.723   1.362 -0.6375 -0.4408 -1.0008
 3445TIP3   OH210340   5.944   0.709   1.307  0.3189  0.5003 -0.4537
 3445TIP3    H110341   6.000   0.749   1.374  1.7121 -0.4075 -1.0234
 3445TIP3    H210342   6.005   0.680   1.240 -0.7896 -1.0704 -0.8371
 3446TIP3   OH210343   6.325   2.410   3.937 -0.7360 -0.3773  0.2604
 3446TIP3    H110344   6.338   2.491   3.986 -0.7069  0.3823 -0.9541
 3446TIP3    H210345   6.247   2.369   3.977  0.6584 -1.0224  2.4715
 3447TIP3   OH210346   0.908   1.473   4.184 -0.4804  0.4789 -0.7646
 3447TIP3    H110347   0.952   1.556   4.167  1.3007 -0.3268 -0.2467
 3447TIP3    H210348   0.976   1.407   4.174 -1.3017 -0.7273  1.1540
 3448TIP3   OH210349   1.180   5.137   1.467 -1.1154 -0.4392  0.4553
 3448TIP3    H110350   1.186   5.231   1.483 -0.0194 -0.4882  0.3630
 3448TIP3    H210351   1.100   5.127   1.414 -1.2618  0.4268  0.4988
 3449TIP3   OH210352   6.294   5.305   4.052 -0.3135  0.5801  0.1552
 3449TIP3    H110353   6.212   5.266   4.023  0.0671  0.8939 -1.4491
 3449TIP3    H210354   6.356   5.285   3.982  0.7076  1.2360  0.8495
 3450TIP3   OH210355   1.411   4.258   3.861  0.5291 -0.0618 -0.4054
 3450TIP3    H110356   1.410   4.302   3.776  0.9095 -0.3703 -0.5726
 3450TIP3    H210357   1.460   4.177   3.845 -0.5784 -0.7912 -0.2236
 3451TIP3   OH210358   1.645   2.447   4.139  0.0158  0.3851  0.5789
 3451TIP3    H110359   1.711   2.461   4.070  1.6422 -0.3254  1.9157
 3451TIP3    H210360   1.683   2.489   4.216 -0.3793 -1.3417  1.7648
 3452TIP3   OH210361   0.038   1.341   1.911  0.3965 -0.1933 -0.6197
 3452TIP3    H110362   0.018   1.314   1.821  0.3533 -1.7938 -0.1624
 3452TIP3    H210363   0.133   1.335   1.916  0.3769 -0.3981 -0.4817
 3453TIP3   OH210364   4.671   1.978   3.950 -0.6014  0.1489  0.3008
 3453TIP3    H110365   4.659   1.936   4.036 -2.4774  0.8484  0.4348
 3453TIP3    H210366   4.673   2.072   3.970  2.1485  0.2541 -0.1417
 3454TIP3   OH210367   1.014   4.314   1.308  0.0395  0.5680  0.0295
 3454TIP3    H110368   0.989   4.321   1.400 -1.3910 -1.6681 -0.1464
 3454TIP3    H210369   0.957   4.376   1.263 -0.7972  0.0774  0.3985
 3455TIP3   OH210370   3.295   4.139   4.324 -0.1276 -0.1721 -0.2527
 3455TIP3    H110371   3.238   4.063   4.332  1.3337 -1.0736  3.2552
 3455TIP3    H210372   3.327   4.155   4.413  3.0637  1.8218 -1.5782
 3456TIP3   OH210373   3.908   5.693   0.033 -0.7141  0.2852 -0.3361
 3456TIP3    H110374   3.954   5.693   0.117  1.3643  0.3551 -1.4100
 3456TIP3    H210375   3.930   5.609  -0.007  0.1254  1.1322 -1.7211
 3457TIP3   OH210376   2.611   1.391   3.438 -0.3326 -0.3767 -0.4673
 3457TIP3    H110377   2.529   1.436   3.416  0.2981 -0.4845 -3.4578
 3457TIP3    H210378   2.670   1.462   3.464 -0.7933 -0.0840 -0.1957
 3458TIP3   OH210379   3.157   1.490   1.658  0.0774  0.2552  0.2567
 3458TIP3    H110380   3.204   1.408   1.642 -0.2787  0.4893 -2.4602
 3458TIP3    H210381   3.225   1.557   1.663  0.3094 -0.0448  1.6359
 3459TIP3   OH210382   0.151   0.247   0.726 -0.0432 -0.1154 -0.0299
 3459TIP3    H110383   0.149   0.212   0.816  0.9105 -0.5990 -0.1895
 3459TIP3    H210384   0.234   0.217   0.690 -0.0769  0.7076 -0.8351
 3460TIP3   OH210385   2.060   5.853   1.110 -0.6253 -0.0986 -0.0611
 3460TIP3    H110386   2.073   5.791   1.038 -1.6463 -1.5712  0.9462
 3460TIP3    H210387   1.981   5.821   1.155 -0.5914  1.3538  1.1205
 3461TIP3   OH210388   2.009   5.455   3.119  0.0946 -0.1096  0.2168
 3461TIP3    H110389   2.100   5.468   3.091 -0.1271 -0.7882 -0.8974
 3461TIP3    H210390   1.970   5.542   3.116  0.2132 -0.0870 -1.1833
 3462TIP3   OH210391   0.490   5.497   1.018  0.0199 -0.5989 -0.1957
 3462TIP3    H110392   0.466   5.470   0.929  0.2198 -0.5287 -0.2716
 3462TIP3    H210393   0.490   5.593   1.015 -0.1432 -0.5939 -0.0736
 3463TIP3   OH210394   0.014   5.767   0.703  0.4060 -0.0325 -0.4544
 3463TIP3    H110395   0.107   5.782   0.723  0.4575  0.2843 -0.9249
 3463TIP3    H210396  -0.030   5.844   0.739  0.2156 -0.6005  0.5571
 3464TIP3   OH210397   0.224   3.418   2.587 -0.1576  0.3818  0.1920
 3464TIP3    H110398   0.251   3.508   2.573 -0.7220  0.5808  0.3604
 3464TIP3    H210399   0.207   3.412   2.681  0.1184  0.0270  0.2259
 3465TIP3   OH210400   0.738   0.964   2.494 -0.5666  0.4194 -0.0985
 3465TIP3    H110401   0.696   0.914   2.564  1.0925  1.0542  1.4391
 3465TIP3    H210402   0.736   1.055   2.525  0.7029  0.6373 -0.5782
 3466TIP3   OH210403   0.645   4.667   3.611  0.3359 -0.0610 -0.0258
 3466TIP3    H110404   0.607   4.697   3.528  1.0228  1.3621  0.1504
 3466TIP3    H210405   0.662   4.747   3.660  0.8459 -0.8374  1.1008
 3467TIP3   OH210406   3.391   3.516   4.126 -0.2806 -0.0054 -0.2454
 3467TIP3    H110407   3.433   3.577   4.186 -0.0646 -0.1446 -0.2537
 3467TIP3    H210408   3.457   3.449   4.110 -0.2358  0.1848 -0.8729
 3468TIP3   OH210409   2.509   3.176   2.491 -0.3814 -0.3735  0.0308
 3468TIP3    H110410   2.486   3.268   2.502 -0.4918 -0.6669  3.8274
 3468TIP3    H210411   2.425   3.132   2.477 -0.2401  0.1045 -2.7346
 3469TIP3   OH210412   6.112   1.252   3.763  0.7974  0.5134 -0.0204
 3469TIP3    H110413   6.159   1.260   3.680  0.9705 -0.3843 -0.0210
 3469TIP3    H210414   6.078   1.340   3.781 -1.7585  0.2025 -2.5333
 3470TIP3   OH210415   2.944   5.224   5.042  0.4665 -0.6126 -0.5159
 3470TIP3    H110416   2.933   5.191   5.131  0.8570  0.1012 -0.1972
 3470TIP3    H210417   2.930   5.147   4.987  1.1625 -1.2761  0.2040
 3471TIP3   OH210418   0.565   1.212   2.283 -0.7193 -0.0729 -0.1187
 3471TIP3    H110419   0.487   1.206   2.229 -0.8787  0.5693  0.0305
 3471TIP3    H210420   0.630   1.157   2.238 -1.6351 -1.6776  0.4544
 3472TIP3   OH210421   4.481   4.528   0.617 -0.1192 -0.0146  0.1003
 3472TIP3    H110422   4.420   4.543   0.544  0.9380 -1.6670 -1.1965
 3472TIP3    H210423   4.544   4.600   0.611 -1.8601  1.7518  1.4931
 3473TIP3   OH210424   2.405   3.114   2.225 -0.8082  0.1246  0.2663
 3473TIP3    H110425   2.471   3.167   2.270 -0.3784 -0.4380  0.3054
 3473TIP3    H210426   2.338   3.177   2.199  0.3217  0.9102 -0.8593
 3474TIP3   OH210427   5.977   2.785   2.402  0.3721 -0.3810  0.4406
 3474TIP3    H110428   5.895   2.834   2.414 -0.1130 -0.9276 -0.5596
 3474TIP3    H210429   5.953   2.710   2.348  2.2336  1.4965 -3.3376
 3475TIP3   OH210430   5.752   5.574   2.396 -0.5243  0.3265 -0.0855
 3475TIP3    H110431   5.835   5.611   2.426 -0.4539  0.8592 -0.9280
 3475TIP3    H210432   5.739   5.498   2.453  1.9228 -1.4559 -1.6755
 3476TIP3   OH210433   4.511   5.586   0.296  0.1207 -0.5183  0.1613
 3476TIP3    H110434   4.571   5.517   0.267 -0.5417 -1.1174  0.1846
 3476TIP3    H210435   4.547   5.666   0.258  0.7944 -0.9017 -0.0321
 3477TIP3   OH210436   4.923   1.933   4.218 -0.6213  0.1659 -0.3678
 3477TIP3    H110437   4.984   1.912   4.289 -0.4090 -0.3086 -0.6885
 3477TIP3    H210438   4.964   2.005   4.172 -1.1509  1.0354  0.4844
 3478TIP3   OH210439   2.297   2.354   1.692 -0.3233  0.0482  0.2343
 3478TIP3    H110440   2.302   2.258   1.695  1.3470  0.1087  0.6139
 3478TIP3    H210441   2.273   2.379   1.782 -0.3145  0.0011  0.2500
 3479TIP3   OH210442   2.050   5.364   4.515 -1.1177 -0.0580 -0.2002
 3479TIP3    H110443   2.025   5.452   4.544  0.9951 -0.2384  2.5396
 3479TIP3    H210444   2.144   5.370   4.498 -0.2009 -2.3539  3.1174
 3480TIP3   OH210445   0.449   5.136   2.885 -0.8600 -0.3540  0.2830
 3480TIP3    H110446   0.492   5.055   2.858 -1.0893 -0.2009 -0.5822
 3480TIP3    H210447   0.505   5.171   2.954  0.1412 -0.3985 -0.4837
 3481TIP3   OH210448   2.987   3.547   5.051 -0.2407 -0.5556  0.3789
 3481TIP3    H110449   3.074   3.568   5.087  0.0160 -1.7441  0.4900
 3481TIP3    H210450   3.000   3.547   4.957  0.3269 -2.4581  0.4279
 3482TIP3   OH210451   2.261   5.867   0.879  0.3782  0.3300 -0.3795
 3482TIP3    H110452   2.311   5.808   0.934  0.1043  2.0178  1.8193
 3482TIP3    H210453   2.181   5.818   0.857  1.3233 -1.0407 -0.8961
 3483TIP3   OH210454   5.880   0.625   2.014  0.4502 -0.3422 -0.1488
 3483TIP3    H110455   5.818   0.587   1.953  2.6818  1.5269 -3.9433
 3483TIP3    H210456   5.956   0.567   2.010  0.5999 -0.2401  0.9751
 3484TIP3   OH210457   1.138   0.651   2.485 -0.0743 -0.2062 -0.1311
 3484TIP3    H110458   1.189   0.727   2.513  1.5856 -0.8043 -1.3432
 3484TIP3    H210459   1.194   0.576   2.506 -0.4511 -0.8980 -1.5184
 3485TIP3   OH210460   3.263   4.605   3.101  0.0955 -0.0824 -0.1093
 3485TIP3    H110461   3.330   4.537   3.106 -0.8173 -1.2259 -2.1224
 3485TIP3    H210462   3.241   4.624   3.192  1.2749 -1.5891  0.5259
 3486TIP3   OH210463   3.953   5.349   4.494 -0.1984 -0.5058 -0.5481
 3486TIP3    H110464   4.040   5.327   4.527 -0.0294 -1.9645 -1.8658
 3486TIP3    H210465   3.968   5.419   4.430  0.1005 -1.1189 -1.1644
 3487TIP3   OH210466   0.503   3.631   3.328 -0.2707  0.0519  0.3231
 3487TIP3    H110467   0.459   3.622   3.243 -2.1132  0.5982  1.1724
 3487TIP3    H210468   0.594   3.651   3.305 -1.1102  2.2802 -1.5801
 3488TIP3   OH210469   5.673   0.332   2.371  0.0415  0.1625  0.5871
 3488TIP3    H110470   5.748   0.272   2.371 -0.8066 -0.9466 -0.2110
 3488TIP3    H210471   5.625   0.310   2.451 -0.3924 -0.4159  0.1803
 3489TIP3   OH210472   1.164   3.750   4.924  0.7574  0.1849  0.3920
 3489TIP3    H110473   1.230   3.766   4.991  0.3427  1.3259  0.5465
 3489TIP3    H210474   1.209   3.695   4.859  1.7531  0.6534  0.6640
 3490TIP3   OH210475   3.374   4.077   1.611 -0.1650 -0.3505 -0.3408
 3490TIP3    H110476   3.323   4.048   1.536  0.0960 -1.6603 -0.0292
 3490TIP3    H210477   3.317   4.138   1.658 -0.8878 -0.6881 -0.7802
 3491TIP3   OH210478   1.629   0.209   3.431  0.0453 -0.0951  0.2355
 3491TIP3    H110479   1.547   0.165   3.451  0.7862 -1.2232  0.9006
 3491TIP3    H210480   1.628   0.289   3.484 -0.4268 -0.3220  0.5673
 3492TIP3   OH210481   2.504   4.348   4.959 -0.4313  0.2138 -0.6227
 3492TIP3    H110482   2.515   4.262   4.999  1.1020  1.2349  1.3062
 3492TIP3    H210483   2.410   4.364   4.962 -0.8157 -1.6054 -1.5713
 3493TIP3   OH210484   4.155   5.432   2.907  0.2202  0.1035  0.1440
 3493TIP3    H110485   4.128   5.359   2.963 -0.9248  1.1135  0.9513
 3493TIP3    H210486   4.125   5.407   2.819 -1.1615  0.0932  0.6046
 3494TIP3   OH210487   1.782   2.909   0.704  0.0363 -0.2088  0.4756
 3494TIP3    H110488   1.764   2.960   0.626  2.3266  1.4197  0.9143
 3494TIP3    H210489   1.792   2.819   0.672  0.2238  0.3138 -0.9930
 3495TIP3   OH210490   3.628   4.993   2.545 -0.4821  0.1372 -0.5532
 3495TIP3    H110491   3.564   5.057   2.574 -0.8374 -0.7850  0.7628
 3495TIP3    H210492   3.694   4.990   2.614  0.6642  0.5884 -1.5762
 3496TIP3   OH210493   0.050   4.278   5.066  0.0587  0.3056  0.4138
 3496TIP3    H110494   0.116   4.220   5.027  0.2530  0.0566  1.0952
 3496TIP3    H210495   0.090   4.365   5.061  0.3369  0.1923  0.5865
 3497TIP3   OH210496   4.882   1.770   1.192 -0.1626 -0.2367 -0.2801
 3497TIP3    H110497   4.923   1.857   1.185  2.4206 -1.4158 -1.0680
 3497TIP3    H210498   4.812   1.782   1.256 -0.9034  2.7430 -1.4637
 3498TIP3   OH210499   3.392   1.711   2.878  0.1673 -0.5365 -0.0779
 3498TIP3    H110500   3.421   1.620   2.881 -0.3906 -0.7212 -0.1949
 3498TIP3    H210501   3.300   1.706   2.851  0.3174  0.0982 -0.7304
 3499TIP3   OH210502   3.558   2.665   3.535 -0.4092  0.4965 -0.6266
 3499TIP3    H110503   3.486   2.617   3.494 -0.3466 -0.2261  0.0849
 3499TIP3    H210504   3.515   2.733   3.587 -0.5647  0.3510 -0.5628
 3500TIP3   OH210505   1.525   5.042   0.416  0.2791 -0.0333 -0.0740
 3500TIP3    H110506   1.454   5.094   0.378 -1.3070 -0.9869  1.4304
 3500TIP3    H210507   1.498   4.951   0.401  0.6670 -0.4130  1.3818
 3501TIP3   OH210508   3.917   3.508   3.595  0.5290 -0.4549 -0.0612
 3501TIP3    H110509   4.003   3.503   3.554 -0.1300 -0.5335 -1.4733
 3501TIP3    H210510   3.916   3.437   3.659  1.9421  0.3051  0.8675
 3502TIP3   OH210511   2.525   5.538   2.963  0.3643  0.4372  0.0308
 3502TIP3    H110512   2.587   5.472   2.995  0.1408  0.4243  0.4561
 3502TIP3    H210513   2.499   5.586   3.042  0.9256  1.3897 -0.3393
 3503TIP3   OH210514   1.505   1.268   4.312 -0.3427 -0.3755  0.1461
 3503TIP3    H110515   1.484   1.316   4.232  1.2195  0.4022  0.1515
 3503TIP3    H210516   1.563   1.327   4.361  0.4440 -1.6739  0.8561
 3504TIP3   OH210517   2.377   5.677   4.947  0.6382  0.0813 -0.4002
 3504TIP3    H110518   2.373   5.613   4.877  0.8129  0.4525 -0.7521
 3504TIP3    H210519   2.324   5.751   4.915 -1.6771 -0.8504  1.0067
 3505TIP3   OH210520   4.233   1.009   1.902 -0.7401 -0.0824 -0.1781
 3505TIP3    H110521   4.303   1.074   1.908  0.0203 -0.9571  0.8527
 3505TIP3    H210522   4.205   0.996   1.993 -1.2095 -0.8430 -0.4220
 3506TIP3   OH210523   3.407   0.175   0.093  0.0522  0.4558 -0.4547
 3506TIP3    H110524   3.423   0.193   0.186  3.2737 -0.3785 -0.7091
 3506TIP3    H210525   3.346   0.243   0.066 -0.2337  1.3175  2.0505
 3507TIP3   OH210526   5.210   5.623   3.666 -0.6068  0.3262  0.7659
 3507TIP3    H110527   5.223   5.691   3.733 -2.0472  1.5308 -0.1272
 3507TIP3    H210528   5.116   5.605   3.668 -0.1962 -2.2000  1.4387
 3508TIP3   OH210529   5.303   1.516   3.409 -0.3647 -0.0078 -0.7940
 3508TIP3    H110530   5.245   1.440   3.414  1.4324 -1.4707 -1.2804
 3508TIP3    H210531   5.279   1.569   3.485 -0.8133 -1.6920  0.2811
 3509TIP3   OH210532   4.061   0.813   1.504 -0.1778 -0.3057  0.1774
 3509TIP3    H110533   4.138   0.775   1.547 -0.9106 -0.9661  0.9475
 3509TIP3    H210534   4.030   0.880   1.565 -1.2001 -1.2183  0.6903
 3510TIP3   OH210535   5.253   5.037   2.118  0.1241  0.7525 -0.1593
 3510TIP3    H110536   5.235   4.994   2.034  1.1709  2.3701 -1.2470
 3510TIP3    H210537   5.330   4.992   2.152 -0.3258  0.0677 -0.0001
 3511TIP3   OH210538   1.679   3.441   2.860 -0.8736  0.2198  0.2788
 3511TIP3    H110539   1.698   3.450   2.766 -0.2761  0.9626  0.4649
 3511TIP3    H210540   1.763   3.416   2.899 -0.8362  1.0826  0.7722
 3512TIP3   OH210541   2.392   3.770   4.521  0.0333 -0.4611  0.1808
 3512TIP3    H110542   2.478   3.736   4.493  1.3521  0.9325  2.2732
 3512TIP3    H210543   2.343   3.692   4.546  0.9869 -1.2272 -0.2586
 3513TIP3   OH210544   0.742   1.996   0.956 -1.5239  0.6429 -0.3680
 3513TIP3    H110545   0.754   2.009   0.862  1.2090 -1.2134 -0.3997
 3513TIP3    H210546   0.794   2.066   0.997 -0.5466 -0.0781 -0.3287
 3514TIP3   OH210547   3.327   5.009   1.148 -0.1993  0.1793 -0.0902
 3514TIP3    H110548   3.233   5.024   1.150 -0.0835  0.8437  1.1541
 3514TIP3    H210549   3.339   4.944   1.078 -1.4175  1.0706 -1.1714
 3515TIP3   OH210550   4.625   1.558   1.380  0.3497  0.2263 -0.4481
 3515TIP3    H110551   4.586   1.497   1.443 -0.2251  0.4635 -0.5665
 3515TIP3    H210552   4.719   1.542   1.386  0.2453 -0.2649 -0.0584
 3516TIP3   OH210553   0.225   3.458   0.067 -0.0845 -0.1324  0.3800
 3516TIP3    H110554   0.195   3.537   0.113 -0.3754 -0.5637  0.9312
 3516TIP3    H210555   0.310   3.438   0.107 -0.0953 -0.2088  0.3631
 3517TIP3   OH210556   1.513   3.146   0.078  0.3365  0.1405  0.3951
 3517TIP3    H110557   1.595   3.179   0.115 -0.0590  1.8378 -0.1786
 3517TIP3    H210558   1.540   3.069   0.027  1.0014 -1.8251  3.4216
 3518TIP3   OH210559   3.732   4.172   3.130  0.0028  0.2905  0.6980
 3518TIP3    H110560   3.642   4.203   3.127  0.0291  0.3303  0.3257
 3518TIP3    H210561   3.784   4.246   3.098  0.2692  0.6473  1.9143
 3519TIP3   OH210562   5.403   2.836   3.040  0.0054  0.2005  0.2591
 3519TIP3    H110563   5.314   2.802   3.048  0.0620  0.2006  1.0371
 3519TIP3    H210564   5.403   2.884   2.957 -0.0935 -1.6123 -0.8329
 3520TIP3   OH210565   6.079   0.658   1.651 -0.1851  0.1769 -0.2650
 3520TIP3    H110566   5.993   0.701   1.653 -0.6891 -0.8312  0.8932
 3520TIP3    H210567   6.060   0.569   1.623  0.2861 -0.4585  1.3744
 3521TIP3   OH210568   1.285   3.234   2.249 -0.1549  0.3115  0.0053
 3521TIP3    H110569   1.247   3.196   2.328  0.7597 -0.4612  0.0948
 3521TIP3    H210570   1.366   3.276   2.279 -1.6174  3.3531  0.0973
 3522TIP3   OH210571   2.812   5.720   3.722  0.0655 -0.1880 -0.3284
 3522TIP3    H110572   2.735   5.728   3.779  1.2857 -1.9095  1.7041
 3522TIP3    H210573   2.856   5.804   3.729 -1.0170  0.4105 -0.5837
 3523TIP3   OH210574   3.807   2.387   1.678 -0.3889 -1.0823 -0.2555
 3523TIP3    H110575   3.713   2.368   1.684 -0.3217 -1.0882  1.1685
 3523TIP3    H210576   3.844   2.344   1.756  0.6239 -0.0895 -0.1761
 3524TIP3   OH210577   5.161   3.447   3.567  0.2090  0.0361  0.1699
 3524TIP3    H110578   5.204   3.436   3.482 -0.2360  2.1745 -0.3756
 3524TIP3    H210579   5.232   3.476   3.625  0.0177  1.2124 -0.1539
 3525TIP3   OH210580   2.840   3.000   1.545  0.4783  0.4847  0.6611
 3525TIP3    H110581   2.854   2.938   1.616  2.8046  2.0978  1.7339
 3525TIP3    H210582   2.906   2.976   1.480 -1.6286 -0.9805 -1.0960
 3526TIP3   OH210583   0.863   3.864   3.678 -0.0654 -0.8983  0.0680
 3526TIP3    H110584   0.919   3.854   3.601 -0.8424  0.0004 -0.6406
 3526TIP3    H210585   0.875   3.783   3.727 -1.0765 -2.3954 -2.0294
 3527TIP3   OH210586   4.514   4.445   4.132  0.0697 -0.7456 -0.1682
 3527TIP3    H110587   4.511   4.451   4.227 -0.0171 -0.0446 -0.2107
 3527TIP3    H210588   4.528   4.352   4.114 -0.0750 -0.9042  0.5231
 3528TIP3   OH210589   3.533   4.992   2.297  0.4514 -0.5379  0.1219
 3528TIP3    H110590   3.545   5.076   2.253  0.3145 -0.8519 -0.5257
 3528TIP3    H210591   3.563   5.007   2.387 -1.5574  0.8229  0.6318
 3529TIP3   OH210592   1.712   5.371   1.499 -0.5881  0.4516 -0.1252
 3529TIP3    H110593   1.710   5.278   1.522 -0.6267  0.4087 -0.2982
 3529TIP3    H210594   1.633   5.384   1.446 -0.6773  0.6238  0.0502
 3530TIP3   OH210595   1.777   1.298   5.083 -0.3543  0.0700 -0.4308
 3530TIP3    H110596   1.840   1.314   5.013 -0.5688 -0.0501 -0.6518
 3530TIP3    H210597   1.825   1.319   5.164 -0.4557  1.3489 -0.6766
 3531TIP3   OH210598   0.078   3.012   3.198  0.1853 -0.3340  0.2987
 3531TIP3    H110599   0.070   2.923   3.232 -1.6853  0.1348  1.2340
 3531TIP3    H210600  -0.002   3.026   3.148  1.4276  0.1313 -1.7097
 3532TIP3   OH210601   3.052   2.045   3.974 -0.6373  0.3576 -0.0912
 3532TIP3    H110602   2.990   2.112   3.947 -1.4573 -0.7806 -1.1239
 3532TIP3    H210603   3.076   1.999   3.893  0.4896 -0.1117  0.4814
 3533TIP3   OH210604   1.063   3.995   4.832 -0.1394  0.1339  0.4249
 3533TIP3    H110605   1.022   4.064   4.883  1.3353  1.4224 -0.0615
 3533TIP3    H210606   1.082   3.926   4.896  0.3451  1.1047  1.3636
 3534TIP3   OH210607   5.110   0.959   1.066 -0.7035  0.0718 -0.1389
 3534TIP3    H110608   5.084   0.914   0.986  0.3280  0.5344 -0.7546
 3534TIP3    H210609   5.045   1.029   1.077 -1.1195 -0.2878 -0.3140
 3535TIP3   OH210610   0.934   0.240   0.219  0.7582  1.0508  0.1779
 3535TIP3    H110611   0.951   0.200   0.133 -0.1583  1.5857 -0.2686
 3535TIP3    H210612   0.840   0.260   0.218  0.2668 -0.7547  2.0779
 3536TIP3   OH210613   6.006   2.816   1.280  0.0775 -0.0893 -0.0056
 3536TIP3    H110614   6.094   2.777   1.282  0.1368  0.0750  0.6248
 3536TIP3    H210615   6.015   2.890   1.220  0.1873 -0.4948 -0.5024
 3537TIP3   OH210616   3.583   2.308   1.344  0.0756 -0.0939 -0.0588
 3537TIP3    H110617   3.586   2.355   1.427  1.6478 -1.6128  0.8283
 3537TIP3    H210618   3.660   2.338   1.296 -0.3159  0.1012 -0.5693
 3538TIP3   OH210619   4.255   2.981  -0.024 -0.3736  0.8280  0.1370
 3538TIP3    H110620   4.288   3.037   0.046  1.2626 -1.3230  1.1827
 3538TIP3    H210621   4.164   2.963   0.001  0.3920 -0.5311  2.2346
 3539TIP3   OH210622   1.532   2.714   4.606  0.2275  0.0843  0.1021
 3539TIP3    H110623   1.603   2.760   4.650  0.4854 -0.5013  0.2935
 3539TIP3    H210624   1.501   2.649   4.669 -1.8714  1.6772  0.8518
 3540TIP3   OH210625   4.018   2.904   2.496  0.5290  0.0971 -0.0022
 3540TIP3    H110626   3.956   2.895   2.424  0.1703 -0.8001  0.4075
 3540TIP3    H210627   4.097   2.939   2.455  0.5143 -0.9070 -0.9539
 3541TIP3   OH210628   3.516   0.220   1.785 -0.0109  0.2343 -0.4465
 3541TIP3    H110629   3.582   0.285   1.810 -1.4623  1.0652  1.5005
 3541TIP3    H210630   3.481   0.252   1.702 -0.0168  1.4609 -0.0034
 3542TIP3   OH210631   2.117   1.042   1.170  0.0310  0.6479 -0.1886
 3542TIP3    H110632   2.112   0.965   1.113 -1.5687 -0.7342  1.6455
 3542TIP3    H210633   2.079   1.113   1.119  0.5626 -0.0253 -1.5552
 3543TIP3   OH210634   5.189   0.881   1.753  0.0200  0.3129  0.2129
 3543TIP3    H110635   5.210   0.789   1.766  0.1405  0.2996 -0.0623
 3543TIP3    H210636   5.259   0.914   1.697  0.7478  0.9040  1.4181
 3544TIP3   OH210637   5.438   1.568   4.762 -0.0487  0.1981 -0.0399
 3544TIP3    H110638   5.447   1.557   4.667 -1.1275  0.9233 -0.2317
 3544TIP3    H210639   5.374   1.502   4.788  0.2320  0.0117  0.1975
 3545TIP3   OH210640   6.158   3.945   4.284 -0.4893 -0.3179 -0.2647
 3545TIP3    H110641   6.251   3.967   4.278 -0.4495  0.2569  1.7441
 3545TIP3    H210642   6.141   3.892   4.206  1.5254 -0.4848 -0.6498
 3546TIP3   OH210643   4.542   4.726   1.175  0.0433  0.1376  0.6478
 3546TIP3    H110644   4.498   4.687   1.251 -0.9374  1.2717  0.6929
 3546TIP3    H210645   4.499   4.811   1.164  0.8123  0.3813 -0.6151
 3547TIP3   OH210646   5.896   3.498   0.106 -0.8103  0.3450 -0.1888
 3547TIP3    H110647   5.937   3.513   0.021  0.2901 -0.4090  0.1793
 3547TIP3    H210648   5.962   3.527   0.170 -1.8737  1.5330  0.4226
 3548TIP3   OH210649   5.813   2.700   4.617  0.1921 -0.5502  0.0097
 3548TIP3    H110650   5.838   2.714   4.525 -0.2713 -0.1636 -0.0631
 3548TIP3    H210651   5.865   2.763   4.666  0.8251 -1.1054  0.0796
 3549TIP3   OH210652   4.949   2.790   0.855 -0.0939 -0.1519  0.2069
 3549TIP3    H110653   4.978   2.702   0.830 -0.5445 -0.6116  1.2822
 3549TIP3    H210654   5.026   2.830   0.896 -0.4431 -0.7318  1.4398
 3550TIP3   OH210655   0.318   3.114   1.996 -0.6908 -0.2432 -0.5292
 3550TIP3    H110656   0.225   3.099   2.011 -0.6124  0.4945  0.8275
 3550TIP3    H210657   0.355   3.127   2.083  0.7326 -0.7618 -1.0258
 3551TIP3   OH210658   3.747   5.920   5.120  0.3334  0.3418 -0.2495
 3551TIP3    H110659   3.839   5.945   5.120  0.4057  0.1000  0.4079
 3551TIP3    H210660   3.737   5.864   5.043  0.4862  1.2219 -0.9308
 3552TIP3   OH210661   6.068   1.988   0.368  0.4592  0.3624  0.2552
 3552TIP3    H110662   6.117   1.935   0.305 -1.3217  0.0363 -0.9196
 3552TIP3    H210663   6.134   2.043   0.409  1.6768  0.7164 -2.0245
 3553TIP3   OH210664   0.686   2.434   5.037 -0.1662  0.4989  0.3027
 3553TIP3    H110665   0.726   2.449   5.123  2.0769  1.4739 -0.8296
 3553TIP3    H210666   0.742   2.369   4.995  1.0505  2.6899 -1.7419
 3554TIP3   OH210667   1.528   2.527   0.692 -0.3787 -0.2546  0.3484
 3554TIP3    H110668   1.582   2.514   0.614  1.6653  2.0870  1.2306
 3554TIP3    H210669   1.564   2.466   0.756  2.2833  2.0959  1.3123
 3555TIP3   OH210670   0.157   5.411   2.038 -0.3407  0.5995 -0.1168
 3555TIP3    H110671   0.191   5.406   2.128  0.6123 -0.9873 -0.5226
 3555TIP3    H210672   0.129   5.322   2.018 -1.8323  1.2258 -0.9414
 3556TIP3   OH210673   3.645   5.303   1.014  0.3676 -0.4583  0.1612
 3556TIP3    H110674   3.562   5.280   1.058 -0.9126  2.4867 -0.4719
 3556TIP3    H210675   3.705   5.323   1.085  0.3485 -1.8520  0.6102
 3557TIP3   OH210676   5.978   5.731   2.091 -0.0826 -0.1770  0.0968
 3557TIP3    H110677   5.997   5.725   1.997  2.1525 -1.1555  0.5396
 3557TIP3    H210678   5.979   5.825   2.109  0.8233 -0.0277 -0.6393
 3558TIP3   OH210679   6.342   2.228   2.917  0.0612 -0.3303  0.0457
 3558TIP3    H110680   6.322   2.148   2.965  0.5912 -0.4016  0.1542
 3558TIP3    H210681   6.278   2.229   2.845 -1.4356  0.3160  1.3180
 3559TIP3   OH210682   2.223   0.964   2.296  0.2299  0.2173 -0.1176
 3559TIP3    H110683   2.215   1.004   2.209 -1.5057  0.5879  0.1585
 3559TIP3    H210684   2.313   0.933   2.301  0.1694 -0.4871 -2.3472
 3560TIP3   OH210685   5.542   5.813   1.651 -0.2488 -0.7445  0.5824
 3560TIP3    H110686   5.597   5.853   1.718 -2.0666 -0.7086  2.1636
 3560TIP3    H210687   5.497   5.742   1.697 -0.8191 -1.3645 -0.8696
 3561TIP3   OH210688   0.487   4.174   4.285 -0.5739 -0.4495 -0.3803
 3561TIP3    H110689   0.493   4.080   4.271  2.0922 -0.2982 -0.7897
 3561TIP3    H210690   0.575   4.206   4.268 -0.7238  1.7979  2.3925
 3562TIP3   OH210691   2.821   3.003   5.056 -0.4353  0.1974  0.4666
 3562TIP3    H110692   2.785   2.923   5.018 -0.4524 -0.1924  1.2995
 3562TIP3    H210693   2.841   3.058   4.980  1.4429 -1.3573 -0.2420
 3563TIP3   OH210694   5.826   3.350   1.836 -0.6371  0.1139 -0.6469
 3563TIP3    H110695   5.893   3.282   1.841 -0.1115  0.6122 -0.6973
 3563TIP3    H210696   5.758   3.322   1.895  0.6914  0.7398  1.2794
 3564TIP3   OH210697   0.657   3.462   3.053  0.2643 -0.0647  0.9382
 3564TIP3    H110698   0.600   3.459   2.976  1.0413 -0.1608  0.3534
 3564TIP3    H210699   0.632   3.384   3.104  0.5208 -0.6307  0.2129
 3565TIP3   OH210700   2.957   0.383   3.249  0.6421  0.3615  0.2543
 3565TIP3    H110701   2.956   0.393   3.153  0.1620 -1.6718 -0.0085
 3565TIP3    H210702   2.976   0.470   3.282  0.2302  1.2461 -1.6826
 3566TIP3   OH210703   0.565   0.096   2.334  0.2484  0.0949  0.2141
 3566TIP3    H110704   0.623   0.171   2.326 -0.0173  0.2040 -0.9329
 3566TIP3    H210705   0.595   0.036   2.265 -1.3466  0.4112 -0.8052
 3567TIP3   OH210706   5.794   2.264   4.896  0.0114 -0.5247  0.4986
 3567TIP3    H110707   5.755   2.177   4.891 -0.6009 -0.2337  0.1516
 3567TIP3    H210708   5.770   2.297   4.983 -0.9927 -0.1299  0.0824
 3568TIP3   OH210709   4.284   1.298   1.462  0.3014  0.3486 -0.1439
 3568TIP3    H110710   4.268   1.391   1.452  0.9717  0.3472 -1.5388
 3568TIP3    H210711   4.210   1.256   1.419  0.5869  0.2685 -0.5695
 3569TIP3   OH210712   4.048   1.813   0.843  0.3798  0.6036 -0.0589
 3569TIP3    H110713   3.967   1.765   0.859  1.3403 -0.4704  1.9951
 3569TIP3    H210714   4.059   1.810   0.748 -1.2472 -0.4402 -0.2584
 3570TIP3   OH210715   1.061   5.911   4.462 -0.7049  0.5234  0.3218
 3570TIP3    H110716   1.120   5.837   4.482 -1.0280 -0.0253 -0.6991
 3570TIP3    H210717   1.110   5.965   4.401 -1.0316  0.3775 -0.0720
 3571TIP3   OH210718   4.008   0.148   0.453 -0.7218  0.6763  0.0167
 3571TIP3    H110719   3.980   0.077   0.510  0.7688 -0.1500 -0.2201
 3571TIP3    H210720   3.986   0.228   0.500 -1.7774  0.0539  0.6076
 3572TIP3   OH210721   0.133   3.367   4.419 -0.0126  0.1451  0.6669
 3572TIP3    H110722   0.120   3.281   4.460  1.1838 -0.7543 -0.7354
 3572TIP3    H210723   0.207   3.355   4.360  0.1169  2.1347  0.3449
 3573TIP3   OH210724   4.144   0.684   2.278 -0.2704  0.3598 -0.5939
 3573TIP3    H110725   4.106   0.661   2.362  0.7317  0.6152 -0.0563
 3573TIP3    H210726   4.233   0.648   2.281 -0.2152  0.3858 -1.5353
 3574TIP3   OH210727   5.773   4.447   1.249 -0.4292  0.2245  0.0034
 3574TIP3    H110728   5.745   4.382   1.312 -2.3820 -0.2930 -1.3185
 3574TIP3    H210729   5.833   4.401   1.191 -0.2382  0.1643  0.2457
 3575TIP3   OH210730   4.347   4.783   0.781  0.2903 -0.1587  0.5745
 3575TIP3    H110731   4.305   4.776   0.867  0.9048  1.5146  1.0356
 3575TIP3    H210732   4.276   4.767   0.719 -0.9910  2.0262  1.3507
 3576TIP3   OH210733   0.277   3.799   4.017 -0.6257  0.4869 -0.3930
 3576TIP3    H110734   0.290   3.781   3.924  0.3869  1.0948 -0.3893
 3576TIP3    H210735   0.261   3.894   4.020  0.7033  0.7267  0.1458
 3577TIP3   OH210736   1.512   0.549   3.929  0.1323 -0.4080 -0.2335
 3577TIP3    H110737   1.520   0.570   4.022  1.2851 -2.3111  0.1557
 3577TIP3    H210738   1.429   0.588   3.902  0.4317  1.3563  1.2323
 3578TIP3   OH210739   2.222   3.943   5.057 -0.0634  0.4013  0.1251
 3578TIP3    H110740   2.145   3.888   5.071 -0.3201  0.7992  0.2723
 3578TIP3    H210741   2.268   3.901   4.984  0.2657 -0.5719  0.8714
 3579TIP3   OH210742   3.091  -0.000   2.580 -0.5871 -0.1591  0.2684
 3579TIP3    H110743   3.054   0.085   2.556  0.5893  0.0047 -1.0844
 3579TIP3    H210744   3.047  -0.024   2.661 -0.6266  1.9478  0.9045
 3580TIP3   OH210745   2.790   3.987   0.257  0.0514  0.0242 -0.8271
 3580TIP3    H110746   2.748   3.962   0.340 -0.0135 -2.2767 -1.4826
 3580TIP3    H210747   2.866   3.930   0.251 -0.3363 -0.3505 -2.6699
 3581TIP3   OH210748   2.096   3.193   3.379  0.3643  0.1777 -0.0051
 3581TIP3    H110749   2.039   3.268   3.392 -0.6276 -0.1783 -1.9916
 3581TIP3    H210750   2.137   3.179   3.465  1.0188  3.2840  0.2868
 3582TIP3   OH210751   5.417   4.189   1.478 -0.4717 -0.4263 -0.3191
 3582TIP3    H110752   5.493   4.131   1.467  0.6125  0.6683  0.9821
 3582TIP3    H210753   5.383   4.168   1.564 -0.8076  0.0310 -0.3388
 3583TIP3   OH210754   0.268   4.087   2.531 -0.1602 -0.3551 -0.2699
 3583TIP3    H110755   0.251   4.001   2.491  1.0791 -0.9155  0.3489
 3583TIP3    H210756   0.183   4.114   2.565 -0.2107 -2.3280  1.3874
 3584TIP3   OH210757   1.948   0.795   3.377 -0.0086  0.4397  0.4128
 3584TIP3    H110758   1.938   0.753   3.462 -0.3476 -1.7056 -0.6310
 3584TIP3    H210759   1.887   0.749   3.320  0.6213  1.4485 -1.1397
 3585TIP3   OH210760   1.855   0.198   5.147  1.0243 -0.1278 -0.3766
 3585TIP3    H110761   1.775   0.244   5.120  1.2319 -0.1999 -1.1279
 3585TIP3    H210762   1.895   0.257   5.212  0.3622 -0.0986  0.0166
 3586TIP3   OH210763   2.395   0.316  -0.011 -0.1514  0.2891  0.7152
 3586TIP3    H110764   2.329   0.342   0.053  1.6667  0.3782  2.6788
 3586TIP3    H210765   2.412   0.224   0.008 -0.8437 -0.2020 -0.8839
 3587TIP3   OH210766   1.296   3.761   3.713  0.5826 -0.4909  0.0173
 3587TIP3    H110767   1.282   3.682   3.765 -1.0959  0.0740  0.4789
 3587TIP3    H210768   1.360   3.812   3.764  0.5493 -0.8890  0.4634
 3588TIP3   OH210769   1.478   4.108   4.211  0.0451  0.0754  0.0812
 3588TIP3    H110770   1.469   4.203   4.202  1.2275  0.1007 -1.4007
 3588TIP3    H210771   1.564   4.089   4.172 -0.2837 -1.6273  0.1220
 3589TIP3   OH210772   3.233   1.239   4.228  0.4369 -0.0688  0.1113
 3589TIP3    H110773   3.251   1.205   4.140  2.2136  0.1568  0.3382
 3589TIP3    H210774   3.139   1.256   4.229  0.6540  1.7653 -2.4257
 3590TIP3   OH210775   2.729   1.972   5.103 -0.7968 -0.6263 -0.5767
 3590TIP3    H110776   2.753   1.883   5.078 -0.9199 -0.8520  0.0802
 3590TIP3    H210777   2.635   1.967   5.120 -0.5786 -0.6831  0.7227
 3591TIP3   OH210778   2.105   1.090   2.514  0.1843 -0.1678 -0.8923
 3591TIP3    H110779   2.148   1.055   2.436 -0.8152 -3.2449 -0.2117
 3591TIP3    H210780   2.090   1.183   2.493  0.6107 -0.6810 -4.0398
 3592TIP3   OH210781   4.814   1.859   5.160 -0.4786 -0.5756 -0.4462
 3592TIP3    H110782   4.747   1.875   5.227 -1.4699 -1.2490 -1.2441
 3592TIP3    H210783   4.764   1.839   5.081  0.5996  2.2762 -2.0088
 3593TIP3   OH210784   3.305   2.588   1.565 -0.3331 -0.4444 -0.4546
 3593TIP3    H110785   3.376   2.595   1.502 -0.7202  0.1191 -0.8397
 3593TIP3    H210786   3.310   2.668   1.617  0.2797 -1.1181  0.5641
 3594TIP3   OH210787   2.554   4.804   2.342 -0.4943 -1.1320  0.0123
 3594TIP3    H110788   2.574   4.724   2.293 -0.8703 -1.8167  0.9550
 3594TIP3    H210789   2.561   4.779   2.434 -0.7643 -0.1159  0.3286
 3595TIP3   OH210790   6.037   1.801   4.251 -0.1888 -0.2565 -0.2524
 3595TIP3    H110791   6.113   1.748   4.276  0.9995  1.4297 -0.1438
 3595TIP3    H210792   6.015   1.771   4.162  0.4203 -0.9539 -0.1735
 3596TIP3   OH210793   6.037   3.600   2.158 -0.2552 -0.0869  0.6640
 3596TIP3    H110794   6.046   3.509   2.130  1.9077  0.4778 -0.7016
 3596TIP3    H210795   6.115   3.617   2.210  0.8788  1.7194 -1.4491
 3597TIP3   OH210796   4.987   2.512   2.773  0.2117 -0.1546 -0.1248
 3597TIP3    H110797   4.965   2.572   2.702  1.5528  1.5962  0.8858
 3597TIP3    H210798   5.030   2.438   2.729  0.9804  0.8726 -1.1445
 3598TIP3   OH210799   5.505   4.725   0.281  0.0987  0.2264  0.7455
 3598TIP3    H110800   5.545   4.744   0.196 -0.0478 -3.2985 -0.2601
 3598TIP3    H210801   5.415   4.755   0.272  0.2452  0.4501 -0.1429
 3599TIP3   OH210802   2.418   1.152   0.251 -0.0644 -0.0460 -0.1478
 3599TIP3    H110803   2.513   1.159   0.261  0.1790 -2.3252 -0.1909
 3599TIP3    H210804   2.388   1.109   0.331 -0.6518 -1.6879 -1.1731
 3600TIP3   OH210805   2.172   0.944   4.545 -0.0907 -0.0593 -0.4847
 3600TIP3    H110806   2.160   0.964   4.452  2.7002  2.7772 -0.3961
 3600TIP3    H210807   2.221   0.861   4.545 -2.5897 -1.6597 -1.3093
 3601TIP3   OH210808   4.002   1.133   3.473  0.1899 -0.0940 -0.3145
 3601TIP3    H110809   3.995   1.228   3.467 -1.2313 -0.0940  1.0096
 3601TIP3    H210810   3.914   1.101   3.457 -0.0361 -0.9908  2.2684
 3602TIP3   OH210811   5.305   2.858   2.353  0.0824  0.3708 -0.3073
 3602TIP3    H110812   5.221   2.904   2.348 -0.8662 -1.0485  1.3848
 3602TIP3    H210813   5.293   2.780   2.298  0.2198  0.0709  0.0847
 3603TIP3   OH210814   1.490   1.319   3.050 -0.1408  0.1087  0.0204
 3603TIP3    H110815   1.543   1.397   3.032  1.9785 -1.5433 -1.4998
 3603TIP3    H210816   1.476   1.320   3.145  3.1953  0.3779  0.6281
 3604TIP3   OH210817   4.306   0.846   1.682 -0.0969  0.5376 -0.2674
 3604TIP3    H110818   4.313   0.930   1.637 -1.6763  0.6789 -0.2818
 3604TIP3    H210819   4.278   0.868   1.770 -1.8343 -0.0266 -0.6491
 3605TIP3   OH210820   0.307   3.150   1.333  0.3986 -0.4073  0.6474
 3605TIP3    H110821   0.296   3.175   1.425  3.2750  0.8816  0.7346
 3605TIP3    H210822   0.389   3.101   1.331  0.4470 -0.3088 -1.2481
 3606TIP3   OH210823   4.760   0.782   4.035 -0.2120  0.4822  0.4326
 3606TIP3    H110824   4.837   0.831   4.008  1.3343 -1.7114  0.6343
 3606TIP3    H210825   4.715   0.841   4.097  1.1524  1.8913  0.1439
 3607TIP3   OH210826   3.568   0.915   3.254 -0.5483  0.0124  0.0864
 3607TIP3    H110827   3.526   0.873   3.179 -1.4929  0.8670  0.1195
 3607TIP3    H210828   3.497   0.961   3.298  0.7380  3.4282 -1.1199
 3608TIP3   OH210829   3.328   4.163   0.344  0.6327  0.8278 -0.1595
 3608TIP3    H110830   3.283   4.214   0.277 -0.7759  0.6894  0.6427
 3608TIP3    H210831   3.421   4.170   0.322  0.3150  2.1235 -1.1623
 3609TIP3   OH210832   5.676   4.121   1.364  0.1489  0.3998 -0.0063
 3609TIP3    H110833   5.635   4.132   1.279 -0.5723 -0.1128  0.2661
 3609TIP3    H210834   5.767   4.147   1.351  0.0845  0.1640 -0.9725
 3610TIP3   OH210835   3.853   3.710   2.777 -0.2781  0.0094 -0.1152
 3610TIP3    H110836   3.888   3.786   2.824  0.3314 -1.1201  1.3244
 3610TIP3    H210837   3.803   3.748   2.705 -1.9892  1.8792  1.8958
 3611TIP3   OH210838   0.362   4.915   4.118 -0.1026  0.1498 -0.2734
 3611TIP3    H110839   0.305   4.932   4.194 -0.5979 -1.2223 -0.3037
 3611TIP3    H210840   0.436   4.868   4.154 -1.3890 -2.5229 -0.8732
 3612TIP3   OH210841   3.302   4.858   2.359 -0.1640 -0.2173  0.2569
 3612TIP3    H110842   3.253   4.861   2.277  0.5878  0.8030 -0.1841
 3612TIP3    H210843   3.379   4.913   2.343  0.3569 -0.5626  1.4200
 3613TIP3   OH210844   0.911   4.410   4.939  0.1961  0.6890 -0.6141
 3613TIP3    H110845   1.000   4.416   4.904  0.6652  0.9548  0.5808
 3613TIP3    H210846   0.908   4.324   4.981  0.0702  0.9074 -0.1767
 3614TIP3   OH210847   4.909   4.452   2.444 -0.3591  0.1369 -0.4068
 3614TIP3    H110848   4.994   4.494   2.445 -0.7732  0.9713  0.6995
 3614TIP3    H210849   4.857   4.499   2.508 -0.7947 -2.1665  1.0492
 3615TIP3   OH210850   5.014   0.092   4.625  0.5004 -0.0707  0.7202
 3615TIP3    H110851   5.017   0.020   4.689  0.3663 -1.0067 -0.2834
 3615TIP3    H210852   5.076   0.066   4.557  1.9709  1.7642  1.2874
 3616TIP3   OH210853   2.112   5.576   1.050 -0.0298 -0.0853 -0.3920
 3616TIP3    H110854   2.068   5.543   1.129 -0.0826 -0.7022 -0.6747
 3616TIP3    H210855   2.196   5.610   1.082 -0.1484 -0.1160 -0.0404
 3617TIP3   OH210856   2.729   4.445   3.673  0.2208  0.3425 -0.4184
 3617TIP3    H110857   2.774   4.372   3.715  1.5626  1.3938  0.0577
 3617TIP3    H210858   2.776   4.458   3.590 -2.0690 -1.3713 -2.1101
 3618TIP3   OH210859   1.464   5.589   0.934  0.3949  0.1645  0.1393
 3618TIP3    H110860   1.379   5.549   0.916 -0.1048 -0.4710  3.2817
 3618TIP3    H210861   1.484   5.639   0.855 -2.0188 -1.1217 -1.4122
 3619TIP3   OH210862   2.782   0.817   3.953  0.4471 -0.8877  0.3337
 3619TIP3    H110863   2.717   0.835   3.885  1.0144 -2.7814 -0.7849
 3619TIP3    H210864   2.734   0.765   4.018  0.6303 -1.7051 -0.1621
 3620TIP3   OH210865   2.209   5.056   3.524  0.3940  0.5694  0.4735
 3620TIP3    H110866   2.299   5.038   3.553  0.4576 -0.5192 -0.3360
 3620TIP3    H210867   2.201   5.009   3.441 -1.2537 -0.2211  1.0508
 3621TIP3   OH210868   6.310   5.582   1.451  0.3159 -0.0660 -0.0472
 3621TIP3    H110869   6.281   5.587   1.542 -1.7420  1.0123 -0.6859
 3621TIP3    H210870   6.263   5.506   1.416 -0.7626  0.8852 -0.7511
 3622TIP3   OH210871   3.896   4.076   5.082 -0.9577  0.2634 -0.2856
 3622TIP3    H110872   3.979   4.028   5.079 -0.9865  0.2169 -0.3524
 3622TIP3    H210873   3.869   4.071   5.173 -0.8254  0.3844 -0.2397
 3623TIP3   OH210874   3.772   5.408   3.019  0.3068  0.4233  0.3235
 3623TIP3    H110875   3.865   5.392   3.036  0.5848 -1.5774 -2.3556
 3623TIP3    H210876   3.726   5.346   3.075  0.5769  0.9648  1.1706
 3624TIP3   OH210877   1.623   5.465   2.048 -0.4797  0.3354 -0.1068
 3624TIP3    H110878   1.602   5.469   2.141 -0.6142 -0.6016 -0.0843
 3624TIP3    H210879   1.538   5.474   2.004 -0.4332  0.6323 -0.1382
 3625TIP3   OH210880   1.665   3.064   1.378  0.2958 -0.2644 -0.1494
 3625TIP3    H110881   1.681   2.970   1.374  0.0019 -0.3667  0.8355
 3625TIP3    H210882   1.634   3.079   1.467 -0.8393  0.5867 -0.6639
 3626TIP3   OH210883   3.068   0.824   1.804  0.1421  0.2905 -0.6562
 3626TIP3    H110884   3.093   0.876   1.727 -0.7829 -0.6161 -1.5967
 3626TIP3    H210885   3.124   0.747   1.800  1.6111  1.2235  0.8167
 3627TIP3   OH210886   4.267   3.279   0.367 -0.2481  0.6720  0.1532
 3627TIP3    H110887   4.199   3.316   0.310  0.1482  0.4274 -0.4884
 3627TIP3    H210888   4.233   3.291   0.456 -1.2907  0.2404 -0.1725
 3628TIP3   OH210889   1.585   4.227   0.098  0.2537 -0.3454 -0.1376
 3628TIP3    H110890   1.583   4.184   0.013 -0.1237  0.9765 -0.8285
 3628TIP3    H210891   1.547   4.314   0.082 -0.7450 -0.4163  1.5803
 3629TIP3   OH210892   1.522   5.674   0.659 -0.2651 -0.1693  0.2051
 3629TIP3    H110893   1.503   5.755   0.613  3.3839  0.0973 -1.1604
 3629TIP3    H210894   1.497   5.605   0.599  2.5356  0.1610 -1.5278
 3630TIP3   OH210895   6.205   2.503   3.166  0.0787  0.4127  0.6342
 3630TIP3    H110896   6.151   2.424   3.176 -0.2350  0.8164  2.4143
 3630TIP3    H210897   6.151   2.563   3.115 -0.6233  0.3122  1.2428
 3631TIP3   OH210898   1.040   4.999   0.089  0.3421  0.5374 -0.3222
 3631TIP3    H110899   0.987   5.027   0.014 -1.4795 -2.0978 -0.1395
 3631TIP3    H210900   1.124   4.972   0.049  0.8737  2.7546 -0.8630
 3632TIP3   OH210901   3.900   2.156   0.922 -0.1557  0.6310  0.1121
 3632TIP3    H110902   3.940   2.127   0.840 -0.9931  0.8367 -0.3860
 3632TIP3    H210903   3.892   2.251   0.912  0.9988  0.8426  1.0165
 3633TIP3   OH210904   3.806   2.645   1.695  0.6572 -0.1721  0.1543
 3633TIP3    H110905   3.738   2.622   1.759  1.1699 -0.7528  0.4981
 3633TIP3    H210906   3.818   2.564   1.645 -0.2944  0.4926 -1.2060
 3634TIP3   OH210907   2.481   4.130   3.996  0.4429 -0.1184 -0.3615
 3634TIP3    H110908   2.405   4.167   4.042  0.4389 -1.1866  0.5208
 3634TIP3    H210909   2.456   4.131   3.904 -0.4354  0.0109 -0.1282
 3635TIP3   OH210910   0.662   0.890   2.739 -0.1296 -0.1528 -0.0006
 3635TIP3    H110911   0.659   0.812   2.793 -1.6759  0.4005  0.7537
 3635TIP3    H210912   0.686   0.961   2.799  2.7240 -0.1932 -0.9352
 3636TIP3   OH210913   4.745   4.804   3.506  0.2827  0.2090 -0.0840
 3636TIP3    H110914   4.838   4.790   3.525  0.6153  0.4658 -1.3795
 3636TIP3    H210915   4.703   4.720   3.528  1.7490 -2.1535 -4.8293
 3637TIP3   OH210916   5.293   0.560   3.953  0.1203 -0.0307  0.3429
 3637TIP3    H110917   5.240   0.637   3.971  1.3984  0.5333  1.8605
 3637TIP3    H210918   5.233   0.499   3.910 -0.9719  1.6945 -0.7022
 3638TIP3   OH210919   5.431   0.047   4.150  1.0428  0.5253  0.0874
 3638TIP3    H110920   5.403   0.138   4.136  0.0480  0.3306  0.7310
 3638TIP3    H210921   5.353   0.003   4.183  1.2572 -0.7906 -1.0838
 3639TIP3   OH210922   2.450   1.095   2.611 -0.6250  0.2125  0.5511
 3639TIP3    H110923   2.461   1.115   2.704 -0.9214  2.4459  0.1510
 3639TIP3    H210924   2.356   1.108   2.595 -0.3031  1.5442 -0.3965
 3640TIP3   OH210925   4.154   2.500   0.967  0.3612 -0.1423  0.3477
 3640TIP3    H110926   4.226   2.453   0.924 -0.6523 -0.3918 -1.1286
 3640TIP3    H210927   4.163   2.590   0.937  0.3184 -0.0833  0.5114
 3641TIP3   OH210928   1.383   4.905   4.695 -0.1733  0.1905 -0.2092
 3641TIP3    H110929   1.367   4.945   4.609 -1.0032 -0.0331 -0.1741
 3641TIP3    H210930   1.453   4.842   4.679  1.4157  1.8537 -0.1909
 3642TIP3   OH210931   4.967   1.937   2.849 -0.1577  0.1358 -0.9375
 3642TIP3    H110932   5.030   1.873   2.883 -0.3693  1.3592  2.0249
 3642TIP3    H210933   4.923   1.970   2.927 -2.0858  1.8037 -2.6496
 3643TIP3   OH210934   2.545   3.191   0.737 -0.8420  0.1185 -0.2116
 3643TIP3    H110935   2.476   3.154   0.792  1.2811 -0.3606  2.3257
 3643TIP3    H210936   2.576   3.117   0.684 -0.9989 -0.1398  0.0527
 3644TIP3   OH210937   2.136   3.341   3.922 -0.1554  0.1143 -0.5065
 3644TIP3    H110938   2.087   3.266   3.887  0.6162 -0.3044 -0.7217
 3644TIP3    H210939   2.083   3.417   3.900 -1.2845 -0.4103  0.2948
 3645TIP3   OH210940   0.461   3.145   4.320  0.2377 -0.1268  0.4944
 3645TIP3    H110941   0.416   3.138   4.405 -0.3776  1.9459  0.4063
 3645TIP3    H210942   0.429   3.071   4.269 -1.0268 -0.2164  1.3660
 3646TIP3   OH210943   4.120   5.881   2.791 -0.1946  0.0376  0.3096
 3646TIP3    H110944   4.036   5.904   2.831 -1.0988  1.8345 -2.3800
 3646TIP3    H210945   4.098   5.814   2.727  0.6605 -0.4105  0.4740
 3647TIP3   OH210946   6.211   1.331   2.719  0.4914 -0.1919  0.1897
 3647TIP3    H110947   6.201   1.236   2.724 -1.3516 -0.0182  0.2254
 3647TIP3    H210948   6.198   1.351   2.626  0.9970  0.0212  0.1627
 3648TIP3   OH210949   4.318   2.056   4.565 -0.3771  0.4698 -0.8164
 3648TIP3    H110950   4.366   2.113   4.625 -1.4345  1.1927 -0.6201
 3648TIP3    H210951   4.377   2.044   4.491  0.6187  0.2340 -0.0024
 3649TIP3   OH210952   4.623   0.717   2.827 -0.3827 -0.3590 -0.2440
 3649TIP3    H110953   4.564   0.737   2.755  0.3375  0.9294 -0.5088
 3649TIP3    H210954   4.711   0.730   2.791  0.0049 -0.4954  0.6270
 3650TIP3   OH210955   3.442   1.438   4.295 -0.0816  0.2331  0.0013
 3650TIP3    H110956   3.373   1.377   4.320 -0.4401  0.8821  0.6189
 3650TIP3    H210957   3.441   1.438   4.199 -1.2309  0.5642  0.0075
 3651TIP3   OH210958   4.540   2.904   3.265 -0.3655 -0.2784  0.0898
 3651TIP3    H110959   4.500   2.823   3.234 -2.5564  0.0492  1.8108
 3651TIP3    H210960   4.607   2.925   3.200  0.1098 -3.3223 -0.5104
 3652TIP3   OH210961   1.174   2.295   3.582  0.1427 -0.0497  0.4340
 3652TIP3    H110962   1.193   2.308   3.675 -1.8920 -0.5654  0.9641
 3652TIP3    H210963   1.172   2.383   3.546  1.4303  0.1308  0.7559
 3653TIP3   OH210964   4.264   0.874   0.827  0.5219  0.7376 -0.2582
 3653TIP3    H110965   4.211   0.913   0.897  0.2930  1.8801 -1.0300
 3653TIP3    H210966   4.208   0.807   0.788  1.0186 -0.6196  1.2751
 3654TIP3   OH210967   2.477   2.115   3.989 -0.0553  0.0139 -0.0620
 3654TIP3    H110968   2.526   2.191   4.019 -1.7699  0.9348  0.5647
 3654TIP3    H210969   2.395   2.118   4.039 -0.5079 -1.7935 -0.6049
 3655TIP3   OH210970   3.590   2.192   0.758 -0.0895  0.1845 -0.0847
 3655TIP3    H110971   3.524   2.206   0.690  1.3449  0.2799 -1.5440
 3655TIP3    H210972   3.664   2.247   0.730  0.6913 -0.0937  1.3574
 3656TIP3   OH210973   0.149   0.521   2.271 -0.4606  0.6214  0.3672
 3656TIP3    H110974   0.166   0.487   2.183 -2.8128  1.7977 -0.6571
 3656TIP3    H210975   0.218   0.484   2.325  0.8478 -0.4773 -1.8884
 3657TIP3   OH210976   4.938   1.629   0.956 -0.3296  0.0713  0.0177
 3657TIP3    H110977   5.023   1.661   0.925 -0.5665  0.8987  0.2233
 3657TIP3    H210978   4.928   1.667   1.043 -1.5312  1.1134 -0.5476
 3658TIP3   OH210979   3.404   1.053   1.201 -0.3622  0.0695 -0.2719
 3658TIP3    H110980   3.420   1.111   1.127  0.7986  0.6674  0.4060
 3658TIP3    H210981   3.311   1.030   1.195 -0.7377  1.6276 -0.8309
 3659TIP3   OH210982   3.835   5.076   0.095  0.4998 -0.1785  0.3909
 3659TIP3    H110983   3.782   5.111   0.167  0.1201  0.3725 -0.1348
 3659TIP3    H210984   3.898   5.146   0.076 -1.0219  0.7975 -1.4521
 3660TIP3   OH210985   0.590   0.005   3.506  0.2340 -0.0802  0.0074
 3660TIP3    H110986   0.640  -0.076   3.511  1.1824  0.4984  0.2081
 3660TIP3    H210987   0.655   0.074   3.520 -0.5295  0.7218 -0.3005
 3661TIP3   OH210988   2.768   5.464   3.626 -0.3179  0.0326  0.1769
 3661TIP3    H110989   2.749   5.426   3.712  2.9565 -1.5988  0.3182
 3661TIP3    H210990   2.821   5.542   3.645  1.2799 -0.8849 -0.2884
 3662TIP3   OH210991   1.599   2.965   4.882  0.1634  0.0614  0.0048
 3662TIP3    H110992   1.523   3.016   4.910 -0.0795 -0.6306  0.6404
 3662TIP3    H210993   1.674   3.018   4.909 -0.0758  0.7098 -0.5517
 3663TIP3   OH210994   3.345   5.902   1.249 -0.7579  0.3419 -0.0443
 3663TIP3    H110995   3.404   5.944   1.186  0.4846 -0.4572  0.5650
 3663TIP3    H210996   3.335   5.966   1.319 -1.1689  0.7399 -0.4522
 3664TIP3   OH210997   2.656   4.625   1.822  0.3078 -0.7027 -0.6946
 3664TIP3    H110998   2.658   4.620   1.727  2.1330  0.8448 -0.8039
 3664TIP3    H210999   2.746   4.647   1.847 -0.1424 -1.0152  1.3848
 3665TIP3   OH211000   2.695   0.263   3.089 -0.0335 -0.6875  0.4755
 3665TIP3    H111001   2.631   0.320   3.131 -0.7768 -1.7681  0.8695
 3665TIP3    H211002   2.757   0.322   3.047  0.6734  0.4785  2.9647
 3666TIP3   OH211003   4.515   5.590   1.224  0.7327 -0.5281  0.3668
 3666TIP3    H111004   4.577   5.525   1.257  0.1847 -0.8833  0.7174
 3666TIP3    H211005   4.564   5.640   1.160  0.8631 -1.9940 -0.7233
 3667TIP3   OH211006   3.011   5.387   1.752  0.1103 -0.0257  0.6046
 3667TIP3    H111007   2.982   5.296   1.749  0.0691 -0.0231  0.9211
 3667TIP3    H211008   3.101   5.382   1.785  0.1879  0.0311  0.4047
 3668TIP3   OH211009   0.229   3.561   3.480  0.1510  0.0097 -0.5443
 3668TIP3    H111010   0.298   3.624   3.458  0.4179  0.1098  0.5196
 3668TIP3    H211011   0.183   3.601   3.554 -1.5411  0.2899 -1.6904
 3669TIP3   OH211012   1.294   0.260   4.102 -0.4271 -0.0696 -0.6229
 3669TIP3    H111013   1.260   0.298   4.183  0.1180 -0.1129 -0.3721
 3669TIP3    H211014   1.362   0.199   4.130  0.0972  0.2704 -1.1332
 3670TIP3   OH211015   6.122   3.013   2.364  0.3907  0.3794  0.8731
 3670TIP3    H111016   6.086   2.930   2.395 -1.7453  1.3737  1.2465
 3670TIP3    H211017   6.175   2.989   2.288 -1.2794 -1.2059  0.1442
 3671TIP3   OH211018   0.817   2.054   0.679  0.0334  0.0053  0.0948
 3671TIP3    H111019   0.835   2.135   0.630 -0.3269 -0.6880 -1.2285
 3671TIP3    H211020   0.897   2.003   0.671 -0.6417 -0.8873 -1.3861
 3672TIP3   OH211021   1.221   4.923   0.532 -0.1549 -0.1841 -0.3324
 3672TIP3    H111022   1.269   4.957   0.608 -0.4311 -0.1609 -0.1654
 3672TIP3    H211023   1.229   4.828   0.539 -1.6228 -0.2694  0.7022
 3673TIP3   OH211024   5.357   1.397   5.092  0.1558  0.1205  0.5889
 3673TIP3    H111025   5.266   1.376   5.072 -0.4100  1.0959  1.9325
 3673TIP3    H211026   5.366   1.489   5.070  1.0471 -0.1470 -0.2264
 3674TIP3   OH211027   3.671   4.235   2.144  0.0100 -0.0008  0.3123
 3674TIP3    H111028   3.667   4.168   2.075  0.6085 -0.7901  1.0175
 3674TIP3    H211029   3.764   4.242   2.165  0.3244  2.9074 -1.4674
 3675TIP3   OH211030   5.430   5.523   0.541  0.2952 -0.2970  0.0396
 3675TIP3    H111031   5.364   5.462   0.508  0.7551 -0.4240 -0.6526
 3675TIP3    H211032   5.388   5.609   0.537  0.1990 -0.3678 -0.4669
 3676TIP3   OH211033   5.292   4.176   0.257  0.0083  0.0362 -0.5949
 3676TIP3    H111034   5.357   4.163   0.188 -0.0511  0.1389 -0.6694
 3676TIP3    H211035   5.253   4.261   0.238  0.2275  0.2195 -0.2438
 3677TIP3   OH211036   5.284   3.040   2.011 -0.0094 -0.2953 -0.6232
 3677TIP3    H111037   5.219   2.970   2.017  1.2101 -1.4481 -0.3845
 3677TIP3    H211038   5.338   3.017   1.936  1.3293 -0.4357  0.3564
 3678TIP3   OH211039   0.547   2.470   1.489 -0.2224  0.1035  0.2009
 3678TIP3    H111040   0.569   2.377   1.498 -1.9020 -0.5658 -1.9249
 3678TIP3    H211041   0.453   2.471   1.471  0.0329  2.0961 -1.3882
 3679TIP3   OH211042   4.400   2.199   3.792  0.0610 -0.4759 -0.5973
 3679TIP3    H111043   4.437   2.276   3.834  2.2945 -0.7794 -1.7952
 3679TIP3    H211044   4.384   2.226   3.702 -2.1059 -0.5712 -0.2742
 3680TIP3   OH211045   2.598   1.645   5.025  0.1251  0.2374  0.3056
 3680TIP3    H111046   2.550   1.724   5.050  1.0913  0.9880 -0.1536
 3680TIP3    H211047   2.553   1.574   5.071 -1.0052  0.9937  0.4104
 3681TIP3   OH211048   2.201   5.532   5.059  0.2955  0.2857  0.6711
 3681TIP3    H111049   2.193   5.546   5.153  0.5909  0.4519  0.6731
 3681TIP3    H211050   2.267   5.595   5.031 -0.3706  0.7881  0.2189
 3682TIP3   OH211051   5.462   5.720   0.923 -0.6953  0.1410 -0.0552
 3682TIP3    H111052   5.534   5.765   0.879 -0.6054  0.7744  0.7006
 3682TIP3    H211053   5.493   5.709   1.013 -0.9039 -1.0391 -0.1117
 3683TIP3   OH211054   4.319   5.645   1.961  0.3002 -0.2512  0.0418
 3683TIP3    H111055   4.373   5.689   1.895  2.0067 -2.7283 -0.3654
 3683TIP3    H211056   4.234   5.635   1.919 -0.3129  2.8378  0.3042
 3684TIP3   OH211057   0.381   0.179   0.607  0.7848 -0.5094 -0.1300
 3684TIP3    H111058   0.357   0.146   0.521  1.1813 -1.4009  0.0886
 3684TIP3    H211059   0.466   0.139   0.625  1.2181  0.5216  0.2197
 3685TIP3   OH211060   2.291   2.464   0.832  0.5604  0.1925 -0.1818
 3685TIP3    H111061   2.244   2.479   0.750  0.3694 -0.8796 -0.2810
 3685TIP3    H211062   2.290   2.549   0.877  0.1382  0.6317 -1.0105
 3686TIP3   OH211063   5.201   3.267   2.653  0.1515 -0.3003 -0.3870
 3686TIP3    H111064   5.162   3.224   2.577  0.3909 -0.7078 -0.2858
 3686TIP3    H211065   5.126   3.286   2.710  0.0904 -1.1035 -0.1798
 3687TIP3   OH211066   4.345   5.853   2.148 -0.4885  0.3536  0.4475
 3687TIP3    H111067   4.319   5.788   2.083  0.8892  1.1277 -0.9233
 3687TIP3    H211068   4.262   5.884   2.185 -1.2527 -0.6701 -0.3527
 3688TIP3   OH211069   0.532   4.735   3.372 -0.3818 -0.4795 -0.3533
 3688TIP3    H111070   0.530   4.791   3.295  2.7412  1.7503  0.9729
 3688TIP3    H211071   0.453   4.758   3.421  0.6888  2.7850  0.0456
 3689TIP3   OH211072   0.268   3.512   1.987  0.7156 -0.2497  0.4037
 3689TIP3    H111073   0.182   3.507   2.029  0.2355 -1.9965 -0.6558
 3689TIP3    H211074   0.331   3.499   2.059  0.0370 -0.4985  0.9635
 3690TIP3   OH211075   5.222   3.166   3.215 -0.5469 -0.3698  0.0958
 3690TIP3    H111076   5.141   3.122   3.190 -1.1240  1.1961 -0.9466
 3690TIP3    H211077   5.265   3.186   3.132  1.9411 -2.9108  0.6478
 3691TIP3   OH211078   5.178   1.435   4.774  0.1067  0.9787  0.2702
 3691TIP3    H111079   5.151   1.453   4.864 -0.1112  1.2089  0.1591
 3691TIP3    H211080   5.109   1.473   4.720  0.2273  0.8237  0.0058
 3692TIP3   OH211081   2.160   2.649   5.041 -0.2859  0.1075 -0.0764
 3692TIP3    H111082   2.171   2.647   5.136 -0.3838  1.4301 -0.0187
 3692TIP3    H211083   2.237   2.604   5.006  0.4400  0.8141  0.5970
 3693TIP3   OH211084   5.162   1.850   3.123 -0.4409 -0.0939  0.3795
 3693TIP3    H111085   5.109   1.826   3.199 -0.2843  1.0994  0.8832
 3693TIP3    H211086   5.244   1.802   3.134  0.3568  1.5315  2.0275
 3694TIP3   OH211087   3.719   3.692   1.402  0.0493  0.0659 -0.7295
 3694TIP3    H111088   3.708   3.743   1.482 -0.0998 -0.9720 -0.0685
 3694TIP3    H211089   3.745   3.605   1.432  0.6305 -0.1696 -1.8425
 3695TIP3   OH211090   3.069   0.813   1.166  0.0137  0.1339  0.6271
 3695TIP3    H111091   2.983   0.812   1.124  0.1917  0.6460  0.2474
 3695TIP3    H211092   3.077   0.725   1.205 -0.6458  0.0599  0.6073
 3696TIP3   OH211093   4.208   3.329   1.562  0.7453  0.1073 -0.3259
 3696TIP3    H111094   4.186   3.265   1.494  1.4868  1.0107 -1.4594
 3696TIP3    H211095   4.181   3.287   1.644 -0.6941 -0.7891 -1.2008
 3697TIP3   OH211096   5.294   4.730   0.035 -0.2305 -0.5336  0.1375
 3697TIP3    H111097   5.300   4.639   0.005  0.5957 -0.4556  0.0584
 3697TIP3    H211098   5.255   4.777  -0.039  1.4889 -0.4078 -0.7362
 3698TIP3   OH211099   5.463   3.037   2.209  0.6657 -0.5536 -0.3199
 3698TIP3    H111100   5.407   2.985   2.265  1.3272 -0.6722  0.2517
 3698TIP3    H211101   5.404   3.075   2.144 -0.6970  2.1101  2.2242
 3699TIP3   OH211102   4.378   3.264   3.849 -0.5516  0.2853  0.4221
 3699TIP3    H111103   4.327   3.239   3.772 -0.3373 -1.0926  0.7027
 3699TIP3    H211104   4.465   3.285   3.814 -0.3899 -0.5522  0.2966
 3700TIP3   OH211105   1.904   4.617   1.674 -0.1800 -0.1415 -0.1547
 3700TIP3    H111106   1.900   4.690   1.612  0.1889 -0.3134 -0.3825
 3700TIP3    H211107   1.879   4.656   1.758  1.3627  0.5648  0.0049
 3701TIP3   OH211108   0.989   5.347   3.450  0.1335 -0.2399  0.4508
 3701TIP3    H111109   1.022   5.433   3.477 -0.8856  1.0363 -2.0442
 3701TIP3    H211110   1.067   5.291   3.450  0.8567  0.7070  1.9695
 3702TIP3   OH211111   1.286   2.319   4.986  0.2687  0.0300 -0.3298
 3702TIP3    H111112   1.243   2.393   5.028 -0.4229 -0.0598 -0.8570
 3702TIP3    H211113   1.342   2.358   4.918 -0.3272  0.0651 -0.8108
 3703TIP3   OH211114   0.770   5.408   0.527 -0.0983 -0.0413  0.1214
 3703TIP3    H111115   0.770   5.477   0.461 -0.1649  0.2974  0.4725
 3703TIP3    H211116   0.794   5.329   0.479 -0.1648  0.1986 -0.3115
 3704TIP3   OH211117   5.450   4.601   1.359 -0.8472  0.4018 -0.1161
 3704TIP3    H111118   5.425   4.681   1.313  2.2975  1.0423 -1.0076
 3704TIP3    H211119   5.527   4.627   1.411 -0.0013 -1.9124 -0.0834
 3705TIP3   OH211120   1.555   3.632   0.025 -0.2623 -0.1519  0.3286
 3705TIP3    H111121   1.583   3.703  -0.033 -2.5265  0.1087 -0.5262
 3705TIP3    H211122   1.600   3.650   0.107 -0.0252  1.7383 -0.1613
 3706TIP3   OH211123   0.116   5.010   1.097 -0.0041 -0.1717  0.2826
 3706TIP3    H111124   0.073   4.992   1.181 -2.0782 -1.1104 -0.8967
 3706TIP3    H211125   0.181   4.940   1.088 -0.9437 -1.0705  0.3594
 3707TIP3   OH211126   2.796   3.703   1.734 -0.5049 -0.0658 -0.2176
 3707TIP3    H111127   2.787   3.612   1.703  0.8688  0.1797 -1.4850
 3707TIP3    H211128   2.877   3.702   1.785  0.7451  0.8318 -2.0535
 3708TIP3   OH211129   2.598   5.107   4.531  0.2342  0.2633 -0.3464
 3708TIP3    H111130   2.618   5.164   4.606 -1.0484  1.0921 -0.5986
 3708TIP3    H211131   2.596   5.167   4.456  2.5722 -0.7090 -1.2748
 3709TIP3   OH211132   1.859   5.558   2.537  0.1219 -0.1656 -0.2374
 3709TIP3    H111133   1.910   5.493   2.586 -0.9785 -1.0993 -0.2890
 3709TIP3    H211134   1.830   5.621   2.604 -0.3171 -0.7434  0.1319
 3710TIP3   OH211135   0.174   1.839   0.674  0.4451 -0.0349 -0.2241
 3710TIP3    H111136   0.098   1.852   0.732  0.2352 -1.4397 -0.1549
 3710TIP3    H211137   0.221   1.766   0.713  2.8252  1.8532  0.7082
 3711TIP3   OH211138   0.429   3.890   1.829 -0.3374  0.8312  0.1378
 3711TIP3    H111139   0.426   3.806   1.783 -1.7927  1.0506 -0.2249
 3711TIP3    H211140   0.514   3.891   1.873  0.7429  0.2098 -1.8103
 3712TIP3   OH211141   5.253   0.185   2.073  0.2601 -0.5506 -0.2554
 3712TIP3    H111142   5.179   0.201   2.132  0.6871  2.1139 -0.3205
 3712TIP3    H211143   5.307   0.122   2.119 -0.0590  0.4967  1.6457
 3713TIP3   OH211144   2.621   1.798   1.469 -0.4434  0.4665 -0.1951
 3713TIP3    H111145   2.624   1.721   1.413  0.9497 -0.2443  0.8040
 3713TIP3    H211146   2.673   1.864   1.422 -1.4869  0.7794 -0.9619
 3714TIP3   OH211147   2.177   0.348   1.357 -0.4109 -0.2637 -0.4148
 3714TIP3    H111148   2.230   0.269   1.365  0.2109  0.0921 -0.8860
 3714TIP3    H211149   2.147   0.347   1.266 -1.6935 -0.7514  0.0014
 3715TIP3   OH211150   1.721   3.047   4.251  0.3106 -0.0915 -0.5861
 3715TIP3    H111151   1.656   2.990   4.209  1.0423  0.0336 -1.9594
 3715TIP3    H211152   1.692   3.136   4.230  1.1861 -0.0392 -1.6880
 3716TIP3   OH211153   0.768   4.588   2.046 -0.0742  0.2857 -0.1008
 3716TIP3    H111154   0.708   4.662   2.043 -0.5340  0.1099  2.2574
 3716TIP3    H211155   0.717   4.514   2.012 -0.8416  0.3712  0.8206
 3717TIP3   OH211156   2.094   0.846   4.934 -0.4787  0.2681  0.0968
 3717TIP3    H111157   2.064   0.863   4.844  0.3558 -0.4939 -0.3390
 3717TIP3    H211158   2.013   0.834   4.984 -0.9651  1.1032 -0.4637
 3718TIP3   OH211159   4.094   2.278   0.661  0.1718 -0.2975  0.5415
 3718TIP3    H111160   4.018   2.252   0.609  0.6379 -1.2461  0.3122
 3718TIP3    H211161   4.082   2.371   0.676 -1.6038 -0.6345  1.4414
 3719TIP3   OH211162   4.172   0.938   3.376 -0.0967  0.1039 -0.1015
 3719TIP3    H111163   4.104   0.996   3.411 -0.4809 -0.4022  0.0036
 3719TIP3    H211164   4.139   0.850   3.394  0.8195 -0.1423  0.3812
 3720TIP3   OH211165   0.995   4.420   1.594  0.0863 -0.2359  0.3069
 3720TIP3    H111166   0.921   4.455   1.544 -0.4602 -0.2255  1.1134
 3720TIP3    H211167   0.969   4.430   1.685  0.5923 -1.2866  0.5750
 3721TIP3   OH211168   1.003   2.083   4.730  0.2917 -0.3666 -0.2962
 3721TIP3    H111169   1.089   2.088   4.773 -0.0875 -0.1945  0.4533
 3721TIP3    H211170   1.008   2.003   4.677  0.6291 -0.8123  0.3878
 3722TIP3   OH211171   1.462   2.334   1.748  0.1178 -0.0664 -0.0310
 3722TIP3    H111172   1.377   2.336   1.704  1.0286  0.1526 -1.9071
 3722TIP3    H211173   1.442   2.316   1.840 -2.0426  1.4848 -0.1233
 3723TIP3   OH211174   0.452   1.925   0.709 -0.5980  0.1239  0.2619
 3723TIP3    H111175   0.438   1.834   0.736  0.9740 -0.2102  0.0466
 3723TIP3    H211176   0.372   1.949   0.662 -0.3195 -1.7676 -1.2910
 3724TIP3   OH211177   1.017   0.366   3.517  0.2173 -0.7573  0.5854
 3724TIP3    H111178   0.997   0.457   3.494  0.5339 -1.1836 -1.5433
 3724TIP3    H211179   1.012   0.364   3.613  0.6583  1.5967  0.7038
 3725TIP3   OH211180   1.621   5.068   0.871  0.2767 -0.5226 -0.7419
 3725TIP3    H111181   1.709   5.030   0.867  0.3652 -0.6334  1.2852
 3725TIP3    H211182   1.633   5.158   0.838  1.6107  0.1442  1.3773
 3726TIP3   OH211183   5.397   2.941   5.136  0.3048 -0.0226  0.8465
 3726TIP3    H111184   5.371   2.922   5.046  0.7451 -2.1556  1.1147
 3726TIP3    H211185   5.418   3.035   5.136  0.4982 -0.0285 -1.3093
 3727TIP3   OH211186   1.257   0.543   2.929 -0.1018 -0.1576  0.6974
 3727TIP3    H111187   1.349   0.562   2.912  0.2721 -0.2853  2.3851
 3727TIP3    H211188   1.209   0.610   2.881  0.9548  1.2088  1.4637
 3728TIP3   OH211189   5.028   4.828   5.038 -0.1545 -0.0968  0.3243
 3728TIP3    H111190   4.948   4.777   5.052 -0.5290  0.1810 -0.7078
 3728TIP3    H211191   5.002   4.897   4.977  0.9324 -0.1748 -0.2489
 3729TIP3   OH211192   2.824   3.080   3.638  0.1454  0.4888  0.0781
 3729TIP3    H111193   2.779   3.003   3.673 -1.7951  2.0399  1.2126
 3729TIP3    H211194   2.832   3.140   3.712  0.6531  1.8260 -0.9954
 3730TIP3   OH211195   4.520   3.442   3.680  0.0112 -0.0529 -0.2820
 3730TIP3    H111196   4.520   3.411   3.590 -0.0292 -0.1303 -0.2550
 3730TIP3    H211197   4.606   3.420   3.713  0.3523  0.7702 -0.5780
 3731TIP3   OH211198   1.826   1.294   2.627 -0.1910  0.0481 -0.5495
 3731TIP3    H111199   1.844   1.372   2.679  0.7353 -0.3773 -0.2079
 3731TIP3    H211200   1.753   1.251   2.672  0.1537  0.0422  0.0118
 3732TIP3   OH211201   0.814   0.649   1.359 -0.3650 -0.2944  0.1800
 3732TIP3    H111202   0.823   0.578   1.423 -1.1288  0.0652  0.7082
 3732TIP3    H211203   0.739   0.624   1.306 -0.3284 -0.1265  0.0481
 3733TIP3   OH211204   0.822   4.889   3.382 -0.8350  0.1479  0.2824
 3733TIP3    H111205   0.787   4.803   3.356 -2.0021  0.7119 -0.0745
 3733TIP3    H211206   0.757   4.924   3.442 -0.8149  1.1571 -0.2681
 3734TIP3   OH211207   4.283   4.050   1.784 -0.1345  0.0124  0.2467
 3734TIP3    H111208   4.220   4.086   1.722  0.6887  0.9407 -0.0704
 3734TIP3    H211209   4.277   3.955   1.772 -0.2969  0.1602 -0.9453
 3735TIP3   OH211210   3.715   5.282   4.408 -0.0351  0.6354  0.3012
 3735TIP3    H111211   3.809   5.282   4.423 -0.0386  1.0395  0.3424
 3735TIP3    H211212   3.680   5.343   4.473 -0.2878  0.7387  0.0719
 3736TIP3   OH211213   2.981   1.821   0.545 -0.0418  0.0718 -0.4934
 3736TIP3    H111214   3.052   1.879   0.572 -0.4171 -0.0595  0.8358
 3736TIP3    H211215   3.007   1.735   0.576 -1.2665  0.2007  1.0329
 3737TIP3   OH211216   3.284   2.857   0.865 -0.3355  0.2512  0.6302
 3737TIP3    H111217   3.365   2.906   0.848  0.5566 -1.2921  0.2705
 3737TIP3    H211218   3.312   2.766   0.871 -1.8836 -0.1919  1.7521
 3738TIP3   OH211219   3.474   5.001   4.532  0.5402  0.0363 -0.1730
 3738TIP3    H111220   3.382   4.974   4.537  0.6187 -0.0651  1.4979
 3738TIP3    H211221   3.497   4.995   4.440 -1.4836  1.2612 -0.8166
 3739TIP3   OH211222   0.933   4.778   0.935 -0.9225  0.4265 -0.1629
 3739TIP3    H111223   1.016   4.823   0.919  0.3100 -2.1872 -1.9351
 3739TIP3    H211224   0.866   4.839   0.904  0.4145  2.0652  0.0501
 3740TIP3   OH211225   5.649   5.378   1.466  0.3975 -0.0854  0.4323
 3740TIP3    H111226   5.582   5.355   1.401  0.2086 -0.7834  0.8649
 3740TIP3    H211227   5.708   5.437   1.419 -1.1154  1.4193  0.3552
 3741TIP3   OH211228   0.433   5.421   2.837 -0.0354  0.1941 -0.5898
 3741TIP3    H111229   0.459   5.329   2.846  1.0207  0.5343  0.0456
 3741TIP3    H211230   0.374   5.437   2.910  1.3905  0.5491  0.5088
 3742TIP3   OH211231   3.974   4.373   4.819  0.4533 -0.6279 -0.3535
 3742TIP3    H111232   4.017   4.402   4.900  1.2393  0.6657 -1.2026
 3742TIP3    H211233   4.014   4.288   4.800  2.2640  0.2734 -0.7926
 3743TIP3   OH211234   0.457   0.328   1.588 -0.4785  0.0383  0.3436
 3743TIP3    H111235   0.433   0.264   1.522 -0.3277 -0.9177  1.2002
 3743TIP3    H211236   0.393   0.315   1.659  0.6821 -0.4611  1.3305
 3744TIP3   OH211237   1.450   4.990   3.385 -0.1434  0.5404 -0.3703
 3744TIP3    H111238   1.511   5.031   3.446 -2.5332  0.6922  2.1434
 3744TIP3    H211239   1.484   4.902   3.373 -0.4001 -0.1234  2.7121
 3745TIP3   OH211240   4.739   3.657   1.629  0.4748 -0.1569  0.7766
 3745TIP3    H111241   4.776   3.740   1.600 -0.6560  0.1542  0.1774
 3745TIP3    H211242   4.651   3.656   1.592 -0.2163 -0.7589  2.3668
 3746TIP3   OH211243   5.489   0.345   2.981  0.0056  0.2324 -0.3984
 3746TIP3    H111244   5.502   0.410   3.049 -0.0644 -0.1934  0.0295
 3746TIP3    H211245   5.522   0.386   2.901 -0.4520  0.9612 -0.2223
 3747TIP3   OH211246   1.952   2.824   2.151 -0.1005  0.2647 -0.2658
 3747TIP3    H111247   1.970   2.859   2.239 -0.9559  0.2321 -0.0663
 3747TIP3    H211248   1.857   2.836   2.140 -0.3728 -1.7117 -0.3167
 3748TIP3   OH211249   3.787   2.462   4.301 -0.9034  0.8410 -0.1948
 3748TIP3    H111250   3.801   2.467   4.396 -1.7147 -0.1976 -0.0104
 3748TIP3    H211251   3.772   2.369   4.284  0.6316  0.7925 -1.5605
 3749TIP3   OH211252   0.427   4.626   5.114 -0.0106 -0.4770 -0.6852
 3749TIP3    H111253   0.512   4.582   5.104  0.4733  0.6374 -1.6329
 3749TIP3    H211254   0.445   4.718   5.097 -1.4593 -0.2445 -1.0970
 3750TIP3   OH211255   0.325   4.135   1.861  0.0514  0.3061  0.3083
 3750TIP3    H111256   0.267   4.123   1.936  0.4649 -0.2756  0.5492
 3750TIP3    H211257   0.377   4.054   1.859  0.6244  0.6811 -0.0926
 3751TIP3   OH211258   5.468   1.618   1.396 -0.1697  0.4847 -0.3117
 3751TIP3    H111259   5.433   1.530   1.389 -0.4111  0.5703 -0.1945
 3751TIP3    H211260   5.401   1.667   1.443 -0.5450  1.0087 -1.3589
 3752TIP3   OH211261   3.195   4.493   4.998  0.6191 -0.1622  0.0390
 3752TIP3    H111262   3.213   4.400   4.986  0.0355 -0.3128  0.2815
 3752TIP3    H211263   3.190   4.528   4.909  0.2508 -0.4845 -0.0681
 3753TIP3   OH211264   2.105   3.867   2.408  0.1932 -0.4307 -0.3494
 3753TIP3    H111265   2.045   3.920   2.460  0.3921 -0.3594 -0.1935
 3753TIP3    H211266   2.125   3.921   2.331  2.1906  0.7097  0.8752
 3754TIP3   OH211267   4.725   0.311   3.600  0.0569 -0.3673 -0.0345
 3754TIP3    H111268   4.723   0.246   3.669  1.7492 -1.6881 -1.1397
 3754TIP3    H211269   4.663   0.278   3.534  0.5809 -0.6615 -0.3932
 3755TIP3   OH211270   2.658   1.086  -0.025  0.4068  0.1969 -0.3598
 3755TIP3    H111271   2.717   1.106   0.048  0.8167  1.9304 -1.1224
 3755TIP3    H211272   2.624   0.999  -0.005  1.9073 -0.1254  0.9692
 3756TIP3   OH211273   5.387   0.235   4.605  0.7095  0.3357  0.2798
 3756TIP3    H111274   5.335   0.175   4.657 -0.0877 -0.0228 -0.8970
 3756TIP3    H211275   5.454   0.180   4.565 -0.0855  0.1796 -0.8831
 3757TIP3   OH211276   6.286   2.418   1.278 -0.3200 -0.5461  0.1245
 3757TIP3    H111277   6.252   2.449   1.362 -1.2719 -0.7371 -0.1861
 3757TIP3    H211278   6.345   2.487   1.249 -1.9038  0.7071 -0.2430
 3758TIP3   OH211279  -0.005   1.519   1.532 -0.1362  0.4417 -0.0693
 3758TIP3    H111280   0.058   1.573   1.579 -1.5500  0.5774  1.7669
 3758TIP3    H211281  -0.009   1.437   1.582  0.4056 -0.5600 -1.5963
 3759TIP3   OH211282   0.377   2.528   3.276  0.0479  0.4766 -0.1636
 3759TIP3    H111283   0.400   2.481   3.195  0.1446  0.6838 -0.2590
 3759TIP3    H211284   0.461   2.543   3.319 -0.0971 -0.5795  0.5128
 3760TIP3   OH211285   0.132   3.621   4.502 -0.1022  0.1892 -0.4905
 3760TIP3    H111286   0.174   3.669   4.430 -0.3857  0.6096 -0.3776
 3760TIP3    H211287   0.147   3.529   4.481 -0.8137  0.2799 -1.4814
 3761TIP3   OH211288   5.985   1.614   0.022  0.4222  0.3645  0.4708
 3761TIP3    H111289   5.928   1.690   0.021  0.2148  0.2087  0.2385
 3761TIP3    H211290   6.056   1.635  -0.038  0.6276  0.5698  0.7815
 3762TIP3   OH211291   4.188   2.961   2.092 -0.5178  0.5814 -0.0499
 3762TIP3    H111292   4.259   3.012   2.052 -0.0557  0.5642  0.7169
 3762TIP3    H211293   4.187   2.879   2.043 -1.6037  1.4971 -1.6265
 3763TIP3   OH211294   4.092   2.309   1.156 -0.1198 -0.1665 -0.3448
 3763TIP3    H111295   4.099   2.361   1.076 -1.3641  0.5685 -0.0016
 3763TIP3    H211296   4.181   2.302   1.189  0.5388 -1.1512 -2.1954
 3764TIP3   OH211297   4.241   4.621   3.354  0.0310 -0.2808  0.3814
 3764TIP3    H111298   4.320   4.636   3.302 -0.6802  2.9435  0.0316
 3764TIP3    H211299   4.269   4.637   3.445  0.4196 -2.2895  0.6717
 3765TIP3   OH211300   3.180   4.514   1.379  0.0010  0.3121  0.6382
 3765TIP3    H111301   3.180   4.518   1.284 -0.1080  0.7122  0.6517
 3765TIP3    H211302   3.145   4.599   1.407  0.1548  0.2507  1.0349
 3766TIP3   OH211303   4.325   0.973   1.317  0.7547  0.4565 -1.0464
 3766TIP3    H111304   4.243   1.022   1.322  1.1480  1.1044 -0.8108
 3766TIP3    H211305   4.379   1.011   1.386  0.6352 -1.1354 -0.0014
 3767TIP3   OH211306   2.129   1.565   1.346  0.1592  0.5027  0.2552
 3767TIP3    H111307   2.128   1.519   1.262  2.3432 -2.1739  1.5178
 3767TIP3    H211308   2.200   1.629   1.338 -0.2001  0.8579 -0.1687
 3768TIP3   OH211309   1.655   4.339   3.061 -0.2902 -0.5451  0.0854
 3768TIP3    H111310   1.717   4.403   3.027  1.3736 -2.6191 -1.0395
 3768TIP3    H211311   1.575   4.389   3.078 -0.4322  1.2185 -4.3947
 3769TIP3   OH211312   5.626   3.413   1.424  0.2370  0.0095 -0.1750
 3769TIP3    H111313   5.582   3.497   1.417  0.2920 -0.0121 -0.7981
 3769TIP3    H211314   5.720   3.434   1.420  0.3199  0.0911  1.4832
 3770TIP3   OH211315   0.570   4.815   4.743 -0.2637 -0.5996  0.1084
 3770TIP3    H111316   0.514   4.829   4.667  0.0074 -0.3784 -0.0530
 3770TIP3    H211317   0.553   4.890   4.800 -0.5948 -0.8517  0.3509
 3771TIP3   OH211318   1.944   4.827   2.859  0.2080  0.3401 -0.2128
 3771TIP3    H111319   1.870   4.880   2.886 -0.6570 -0.2407 -1.3487
 3771TIP3    H211320   2.021   4.877   2.886 -0.5551  0.2799  2.3059
 3772TIP3   OH211321   5.605   3.182   2.571 -0.1930 -0.3628  0.1596
 3772TIP3    H111322   5.522   3.216   2.537 -1.0429 -0.6723  1.8391
 3772TIP3    H211323   5.670   3.249   2.548 -1.2261  0.7402  0.3823
 3773TIP3   OH211324   4.259   2.843   4.807  0.3139  0.3116  0.4456
 3773TIP3    H111325   4.318   2.768   4.808 -1.3395 -1.0693 -0.4245
 3773TIP3    H211326   4.194   2.823   4.875 -0.9000  0.2740 -0.6832
 3774TIP3   OH211327   4.660   2.209   2.373  0.3909  0.2567 -0.0279
 3774TIP3    H111328   4.582   2.181   2.327  0.3678  0.7168 -0.2769
 3774TIP3    H211329   4.634   2.212   2.465  0.3184 -0.2637 -0.0306
 3775TIP3   OH211330   3.321   2.785   2.173  0.2179  0.0811  0.1755
 3775TIP3    H111331   3.321   2.813   2.265 -0.9056  1.8967 -0.3322
 3775TIP3    H211332   3.230   2.793   2.146  0.6131 -0.0079 -1.2162
 3776TIP3   OH211333   2.387   0.864   1.985 -0.7497  0.5371  0.3436
 3776TIP3    H111334   2.315   0.915   1.948 -0.1302  1.2826  0.1361
 3776TIP3    H211335   2.445   0.848   1.911  0.4565  1.9589  0.9407
 3777TIP3   OH211336   3.517   0.468   2.725  0.2794  0.3914  0.0146
 3777TIP3    H111337   3.539   0.535   2.660 -2.0846  0.3232 -0.9340
 3777TIP3    H211338   3.581   0.482   2.796  3.3346  0.0948 -2.4770
 3778TIP3   OH211339   3.561   5.658   2.595 -0.1546 -0.1654  0.0137
 3778TIP3    H111340   3.488   5.633   2.652 -1.4504  0.5409 -1.2871
 3778TIP3    H211341   3.572   5.752   2.610 -0.2519 -0.0520 -0.5905
 3779TIP3   OH211342   3.258   5.260   4.628 -0.1267 -0.0424 -0.1197
 3779TIP3    H111343   3.291   5.237   4.541  1.7623 -1.7865  0.9663
 3779TIP3    H211344   3.198   5.189   4.650 -1.4113  0.9252 -0.3480
 3780TIP3   OH211345   5.691   5.675  -0.003  0.2404  0.2703  0.6569
 3780TIP3    H111346   5.734   5.599   0.038 -0.1318  0.1049  0.7423
 3780TIP3    H211347   5.599   5.663   0.017 -0.2298 -0.8206 -1.7776
 3781TIP3   OH211348   4.549   4.201   1.776 -0.1446  0.5612  0.1892
 3781TIP3    H111349   4.589   4.157   1.851 -1.1816 -0.6483  0.0539
 3781TIP3    H211350   4.465   4.158   1.765  0.1316  0.4699 -1.8957
 3782TIP3   OH211351   5.622   5.564   4.379 -0.1930  0.4041  0.4875
 3782TIP3    H111352   5.547   5.554   4.321  0.0128  0.5613  0.1949
 3782TIP3    H211353   5.644   5.657   4.374  0.7567  0.1381 -0.3383
 3783TIP3   OH211354   6.123   1.341   1.631 -0.0962  0.3457  0.4475
 3783TIP3    H111355   6.140   1.266   1.689 -0.5065  0.9450  1.3590
 3783TIP3    H211356   6.169   1.319   1.549  1.0746 -0.1993  1.2257
 3784TIP3   OH211357   4.334   2.286   3.514  0.0327  0.1587 -0.1455
 3784TIP3    H111358   4.258   2.317   3.466 -1.0297 -0.3963  1.1260
 3784TIP3    H211359   4.373   2.366   3.551 -0.4066  0.3677 -0.1318
 3785TIP3   OH211360   3.087   0.195   1.692  0.1385 -0.0134 -0.2546
 3785TIP3    H111361   3.030   0.200   1.616  1.1682  1.7300 -0.9785
 3785TIP3    H211362   3.160   0.254   1.672  1.9972 -1.7982  0.8089
 3786TIP3   OH211363   5.547   4.188   3.998  0.5645  0.5473 -0.1062
 3786TIP3    H111364   5.595   4.107   4.016  0.6717  0.6070 -0.1231
 3786TIP3    H211365   5.603   4.236   3.937 -0.6358 -0.5022 -2.1636
 3787TIP3   OH211366   4.792   1.918   3.720  0.2537  0.3344 -0.1859
 3787TIP3    H111367   4.743   1.920   3.802  1.0094 -0.2880  0.2973
 3787TIP3    H211368   4.726   1.904   3.653 -0.1290 -1.8216  0.5717
 3788TIP3   OH211369   5.285   2.535   1.202  0.4307 -0.7562 -0.0991
 3788TIP3    H111370   5.264   2.567   1.290  3.1931  2.1902 -0.3160
 3788TIP3    H211371   5.364   2.482   1.214  0.6132 -0.6367 -0.7278
 3789TIP3   OH211372   0.894   3.358   3.595  0.1654  0.0488 -0.1889
 3789TIP3    H111373   0.966   3.420   3.583 -1.0319  1.2985 -1.2427
 3789TIP3    H211374   0.868   3.335   3.505 -0.2258 -1.0249  0.1864
 3790TIP3   OH211375   3.924   0.906   3.158  0.4369 -0.0362  0.4932
 3790TIP3    H111376   3.851   0.849   3.136  0.5883 -0.3281  0.7507
 3790TIP3    H211377   3.984   0.899   3.083 -0.0825  0.6846 -0.0059
 3791TIP3   OH211378   4.536   1.168   4.948 -0.5117 -0.0747  0.4417
 3791TIP3    H111379   4.583   1.206   5.022  0.7298  0.9089 -0.7889
 3791TIP3    H211380   4.453   1.138   4.985  0.4675 -0.5439  2.4153
 3792TIP3   OH211381   5.288   3.885   1.773  0.1050 -0.2598 -0.0902
 3792TIP3    H111382   5.268   3.968   1.731  1.0000 -0.9466 -2.0129
 3792TIP3    H211383   5.361   3.905   1.832  0.1412  0.3695 -0.3406
 3793TIP3   OH211384   5.070   0.807   2.560 -0.2251 -0.0576 -0.0515
 3793TIP3    H111385   5.143   0.826   2.620  0.0395 -0.5757 -0.2021
 3793TIP3    H211386   5.107   0.745   2.496 -0.5582  0.3296 -0.6314
 3794TIP3   OH211387   3.186   3.187   3.782 -0.3332  0.1225  0.6511
 3794TIP3    H111388   3.251   3.118   3.796  0.5321  0.7021 -0.3924
 3794TIP3    H211389   3.236   3.269   3.786 -0.6583  0.5155 -1.7209
 3795TIP3   OH211390   3.530   2.033   2.902 -0.2394 -0.6168 -0.0954
 3795TIP3    H111391   3.613   2.080   2.904  1.2174 -3.0088 -0.9141
 3795TIP3    H211392   3.523   1.993   2.989 -1.2905  0.7109  0.4699
 3796TIP3   OH211393   2.389   5.433   1.838 -0.2775 -0.2793  0.3397
 3796TIP3    H111394   2.329   5.395   1.774  0.0771 -1.7281  0.8336
 3796TIP3    H211395   2.463   5.465   1.786 -1.2809  1.2274 -0.2388
 3797TIP3   OH211396   0.351   5.166   1.004 -0.2899 -0.5098 -0.0163
 3797TIP3    H111397   0.317   5.250   1.034 -1.6662 -0.7065 -0.9434
 3797TIP3    H211398   0.277   5.106   1.012  0.5016 -1.5009  0.0598
 3798TIP3   OH211399   0.303   2.350   1.181 -0.2613 -0.3083 -0.0675
 3798TIP3    H111400   0.384   2.400   1.169 -0.6973  0.1740 -1.1280
 3798TIP3    H211401   0.233   2.416   1.178 -0.8083 -0.9088 -0.9544
 3799TIP3   OH211402   3.923   5.973   2.578  0.3305  0.0255  0.2095
 3799TIP3    H111403   3.968   5.890   2.564 -1.2373 -0.8637  0.1852
 3799TIP3    H211404   3.874   5.961   2.659 -0.1679  0.8030  0.0406
 3800TIP3   OH211405   2.599   5.253   2.860  0.3208 -0.0774  0.3484
 3800TIP3    H111406   2.614   5.312   2.786 -0.8405 -1.0929 -0.7476
 3800TIP3    H211407   2.663   5.280   2.926  0.7440  1.4812 -0.6482
 3801TIP3   OH211408   2.561   0.502   3.272 -0.2890  0.6805  0.5205
 3801TIP3    H111409   2.584   0.505   3.365  0.9342 -1.1476  0.3120
 3801TIP3    H211410   2.621   0.564   3.231 -0.4848  1.1082  0.8664
 3802TIP3   OH211411   5.544   5.803   3.850  0.1863  0.2452 -0.1222
 3802TIP3    H111412   5.527   5.896   3.837 -2.3418 -0.0037  0.8232
 3802TIP3    H211413   5.518   5.762   3.768 -2.0485  0.0947  0.5899
 3803TIP3   OH211414   5.854   0.849   5.018  0.7089  0.1793 -0.5202
 3803TIP3    H111415   5.939   0.835   4.977  0.5700 -0.1953 -0.6823
 3803TIP3    H211416   5.840   0.944   5.012  0.9674  0.2021 -0.7797
 3804TIP3   OH211417   1.241   5.406   4.470 -0.7193  0.8747 -0.2786
 3804TIP3    H111418   1.313   5.361   4.514  0.2066  1.7929 -0.8071
 3804TIP3    H211419   1.269   5.411   4.378  0.4253  4.6803  0.1312
 3805TIP3   OH211420   3.811   0.243   4.510  0.4063 -0.3325 -0.0544
 3805TIP3    H111421   3.872   0.317   4.519  0.9922 -0.8665  0.4155
 3805TIP3    H211422   3.732   0.282   4.472  0.3040  0.7469  1.2219
 3806TIP3   OH211423   4.275   0.545   1.888 -0.1299  0.3246 -0.6536
 3806TIP3    H111424   4.306   0.629   1.921  1.9763 -0.2580 -0.9958
 3806TIP3    H211425   4.230   0.567   1.806  0.3877  1.1298 -0.7336
 3807TIP3   OH211426   5.107   0.350   2.487  0.6877 -0.2573  0.1744
 3807TIP3    H111427   5.115   0.324   2.395 -0.0214 -0.9019  0.2956
 3807TIP3    H211428   5.198   0.359   2.517  0.9386 -1.5589 -0.1605
 3808TIP3   OH211429   5.712   0.807   3.993  0.3028  0.2860 -0.0607
 3808TIP3    H111430   5.645   0.765   4.046 -1.5703  1.6736 -1.1753
 3808TIP3    H211431   5.769   0.736   3.964 -0.3175 -0.8595  1.4076
 3809TIP3   OH211432   0.346   3.853   3.428 -0.2082  0.0357  0.1525
 3809TIP3    H111433   0.418   3.894   3.477  0.8167 -0.9622 -0.4600
 3809TIP3    H211434   0.389   3.808   3.355 -1.4803 -0.4398 -0.3352
 3810TIP3   OH211435   0.593   5.343   3.950 -0.1994 -0.3304  0.6640
 3810TIP3    H111436   0.558   5.284   4.016 -0.2261  0.8374  1.7442
 3810TIP3    H211437   0.660   5.394   3.997 -0.6552  0.9598 -0.0163
 3811TIP3   OH211438   3.403   3.382   3.509 -0.1502 -0.9412 -0.3377
 3811TIP3    H111439   3.348   3.452   3.542  0.2681 -1.3338  1.2894
 3811TIP3    H211440   3.492   3.419   3.510 -0.3007 -0.1586 -3.3457
 3812TIP3   OH211441   5.685   0.616   0.432 -0.0671  0.2056 -0.3051
 3812TIP3    H111442   5.680   0.522   0.448  1.3556  0.3540  1.2556
 3812TIP3    H211443   5.745   0.649   0.499  2.2531  1.6945 -2.9141
 3813TIP3   OH211444   0.379   5.396   1.796 -0.1440  0.4984 -0.6725
 3813TIP3    H111445   0.459   5.394   1.848  0.2521  2.2773 -1.1629
 3813TIP3    H211446   0.313   5.355   1.852  0.5755  1.1494  0.6927
 3814TIP3   OH211447   3.557   2.095   1.891  0.1394  0.5420  0.0160
 3814TIP3    H111448   3.527   2.067   1.978 -0.4109 -0.7640 -0.5705
 3814TIP3    H211449   3.479   2.092   1.836  0.1888  2.6585 -0.2681
 3815TIP3   OH211450   3.322   5.866   5.164 -0.0118  0.1109  0.3532
 3815TIP3    H111451   3.366   5.881   5.080  1.6124 -0.5320  1.0340
 3815TIP3    H211452   3.335   5.773   5.181 -1.0456  0.0583  0.9489
 3816TIP3   OH211453   5.979   3.700   0.822 -0.1269  0.2551  0.3071
 3816TIP3    H111454   5.893   3.741   0.835  0.1343  0.3206  2.0318
 3816TIP3    H211455   5.959   3.610   0.797 -0.6900  0.5301 -0.2733
 3817TIP3   OH211456   3.725   1.800   2.458  0.1706  0.0340  0.2673
 3817TIP3    H111457   3.799   1.782   2.515  1.2214  1.4105 -0.6145
 3817TIP3    H211458   3.658   1.837   2.516  1.7235  2.7430  0.4714
 3818TIP3   OH211459   3.705   0.765   1.788 -0.3682 -0.4504 -0.3226
 3818TIP3    H111460   3.695   0.699   1.719  0.1414 -0.4863 -0.3634
 3818TIP3    H211461   3.799   0.769   1.805 -0.5256 -0.8211  0.7421
 3819TIP3   OH211462   0.525   0.927   0.323  0.5333  0.1531  0.4768
 3819TIP3    H111463   0.616   0.924   0.352  0.5192 -1.0596  0.4254
 3819TIP3    H211464   0.529   0.951   0.231  0.7195  1.3487  0.7807
 3820TIP3   OH211465   2.245   5.871   0.581 -0.3491 -0.1349  0.0471
 3820TIP3    H111466   2.275   5.892   0.670  0.9936 -1.5778 -0.0285
 3820TIP3    H211467   2.294   5.931   0.525 -0.5060  0.1440  0.2039
 3821TIP3   OH211468   1.442   3.216   3.259 -0.0888 -0.0292  0.1783
 3821TIP3    H111469   1.527   3.210   3.215  0.2384  1.5199  0.5225
 3821TIP3    H211470   1.444   3.302   3.303 -1.1734 -0.6822  1.5807
 3822TIP3   OH211471   4.837   4.943   0.668 -0.0678  0.3084 -0.5432
 3822TIP3    H111472   4.912   4.894   0.703 -0.0786 -0.3012 -1.3556
 3822TIP3    H211473   4.855   5.034   0.692  0.5430  0.0639 -0.0485
 3823TIP3   OH211474   6.209   1.732   4.605 -0.0036 -0.1473 -0.2535
 3823TIP3    H111475   6.198   1.784   4.685  0.0712 -0.1823 -0.2203
 3823TIP3    H211476   6.130   1.678   4.600  0.7604 -1.4145  0.7333
 3824TIP3   OH211477   0.342   2.490   4.730 -0.0806  0.1268  0.1999
 3824TIP3    H111478   0.362   2.521   4.642 -0.1791 -0.6900 -0.1178
 3824TIP3    H211479   0.260   2.442   4.720  0.3471 -0.6897  0.5731
 3825TIP3   OH211480   3.466   5.945   0.444  0.4970 -0.1183  0.5144
 3825TIP3    H111481   3.422   5.915   0.524 -0.3281  0.5009  0.3142
 3825TIP3    H211482   3.558   5.924   0.457  0.5829  1.0763  2.1786
 3826TIP3   OH211483   2.607   0.119   2.861 -0.8404 -0.0997 -0.0623
 3826TIP3    H111484   2.513   0.132   2.868 -0.7970  0.3203 -0.2173
 3826TIP3    H211485   2.644   0.177   2.927 -0.6496  0.4728 -0.6562
 3827TIP3   OH211486   5.696   1.124   4.120  1.0328 -0.2754 -0.1923
 3827TIP3    H111487   5.695   1.173   4.203  0.2200  0.1551 -0.4445
 3827TIP3    H211488   5.656   1.040   4.141 -2.7429  1.1533 -0.8809
 3828TIP3   OH211489   1.730   5.108   3.775 -0.2670  0.2800  0.5866
 3828TIP3    H111490   1.730   5.200   3.750 -0.2518  0.6632  1.9134
 3828TIP3    H211491   1.809   5.071   3.735  0.4444  1.1653  1.1528
 3829TIP3   OH211492   5.816   4.605   3.639 -0.1885 -0.1854  0.3532
 3829TIP3    H111493   5.821   4.510   3.629  1.8763 -0.0392 -0.5069
 3829TIP3    H211494   5.829   4.620   3.733  0.6959 -0.7262  0.3303
 3830TIP3   OH211495   1.871   2.507   1.891 -0.0614  0.9233  0.7004
 3830TIP3    H111496   1.814   2.452   1.838  0.0402  0.0481  1.4650
 3830TIP3    H211497   1.878   2.589   1.842 -1.1064  0.6610  0.0748
 3831TIP3   OH211498   0.528   3.184   5.006 -0.1950  0.0624 -0.0637
 3831TIP3    H111499   0.441   3.183   4.966 -1.3631 -3.1460  2.1494
 3831TIP3    H211500   0.588   3.170   4.932 -1.8415 -0.7291 -1.3239
 3832TIP3   OH211501   5.106   1.511   1.548  0.1104 -0.1494  0.2421
 3832TIP3    H111502   5.166   1.511   1.474  1.8314 -0.7727  1.5778
 3832TIP3    H211503   5.162   1.513   1.626 -1.6277  3.6757  1.6432
 3833TIP3   OH211504   4.412   5.513   2.909 -0.1431  0.8188 -0.3123
 3833TIP3    H111505   4.438   5.605   2.907  0.2062  0.7878  1.1837
 3833TIP3    H211506   4.316   5.515   2.914 -0.3370  1.0019 -2.7951
 3834TIP3   OH211507   3.419   0.018   1.924 -0.0516 -0.0206 -0.5134
 3834TIP3    H111508   3.445   0.105   1.893  0.7229 -0.2298 -0.4912
 3834TIP3    H211509   3.327   0.028   1.949  0.3899  1.1801  0.8154
 3835TIP3   OH211510   5.334   3.420   4.247  0.0965 -0.3786 -0.0101
 3835TIP3    H111511   5.364   3.346   4.299 -0.3821  0.9669  2.3421
 3835TIP3    H211512   5.248   3.394   4.214  0.4611 -1.2958 -0.2648
 3836TIP3   OH211513   2.479   0.481   2.031  0.0219  0.1034  0.1188
 3836TIP3    H111514   2.428   0.503   1.953 -0.3664 -1.1607 -0.0030
 3836TIP3    H211515   2.567   0.463   1.998 -0.0180  0.0581  0.0356
 3837TIP3   OH211516   3.369   2.845   1.657 -0.6600  0.4277 -0.3671
 3837TIP3    H111517   3.303   2.898   1.701 -1.3335  2.1648 -3.1821
 3837TIP3    H211518   3.431   2.909   1.621  0.5309 -0.9558 -0.8890
 3838TIP3   OH211519   2.546   4.745   3.620  0.2566 -0.3591 -0.5656
 3838TIP3    H111520   2.483   4.685   3.580 -1.0291  1.0646 -0.7409
 3838TIP3    H211521   2.525   4.831   3.584  1.5004  0.3648  0.3249
 3839TIP3   OH211522   3.525   0.634   5.075  0.1893 -0.0985  0.0113
 3839TIP3    H111523   3.587   0.562   5.069 -0.9217 -1.0186 -0.8246
 3839TIP3    H211524   3.439   0.593   5.069 -0.4637  1.3520 -1.3935
 3840TIP3   OH211525   2.129   4.164   3.688 -0.0138  0.2407  0.3684
 3840TIP3    H111526   2.046   4.127   3.655  0.4273 -1.2264  0.8251
 3840TIP3    H211527   2.126   4.149   3.782  0.8938 -0.0785  0.3551
 3841TIP3   OH211528   3.203   4.429   2.598 -0.1524  0.0404  0.6954
 3841TIP3    H111529   3.187   4.516   2.635  0.2492  0.9453 -1.1373
 3841TIP3    H211530   3.196   4.369   2.673 -0.4395  1.6360  1.9986
 3842TIP3   OH211531   3.045   0.555   3.554  0.0261 -0.2770  0.3220
 3842TIP3    H111532   2.985   0.567   3.627 -1.5004  0.8920 -1.0454
 3842TIP3    H211533   3.119   0.613   3.574  0.6349 -1.5001  1.8654
 3843TIP3   OH211534   2.378   3.853   2.548 -0.0004 -0.2596  0.0070
 3843TIP3    H111535   2.353   3.943   2.571  1.2919 -0.3916  2.1992
 3843TIP3    H211536   2.308   3.823   2.490 -0.5639  2.0784 -0.6269
 3844TIP3   OH211537   2.334   1.968   1.196  0.0650 -0.0570  0.4234
 3844TIP3    H111538   2.354   1.928   1.111  0.8272  0.6595  0.2509
 3844TIP3    H211539   2.239   1.979   1.196  0.2102  1.6027 -1.1160
 3845TIP3   OH211540   1.996   5.248   2.352 -0.4978 -0.0458  0.3699
 3845TIP3    H111541   1.964   5.282   2.436  0.4949  1.9603  0.0127
 3845TIP3    H211542   1.925   5.268   2.290 -2.2339 -3.5451  0.9859
 3846TIP3   OH211543   1.931   2.865   3.183  0.1466  0.3368 -0.0844
 3846TIP3    H111544   1.840   2.895   3.183  0.2481  0.7062  0.9825
 3846TIP3    H211545   1.944   2.825   3.097 -0.7125  1.1977 -0.6276
 3847TIP3   OH211546   4.599   3.502   2.822 -0.0097  0.1700 -0.1259
 3847TIP3    H111547   4.648   3.580   2.849 -0.5927  0.4617  0.1234
 3847TIP3    H211548   4.519   3.506   2.874  0.5304 -1.3114  0.8702
 3848TIP3   OH211549   5.129   2.066   1.524  0.0661  0.7471 -0.1104
 3848TIP3    H111550   5.091   2.000   1.582  0.4371  1.1578  0.6172
 3848TIP3    H211551   5.068   2.072   1.451 -0.2106 -0.0593  0.0433
 3849TIP3   OH211552   6.152   5.034   5.099  0.3541  0.0222 -0.0028
 3849TIP3    H111553   6.078   5.058   5.043  1.0862 -2.2841 -2.1248
 3849TIP3    H211554   6.230   5.061   5.050  1.0238  1.3200  1.6550
 3850TIP3   OH211555   2.171   0.628   0.857 -0.3804 -0.6038  0.0077
 3850TIP3    H111556   2.119   0.586   0.788  0.3466 -2.2854  0.4348
 3850TIP3    H211557   2.133   0.595   0.938 -0.6235  0.6206  0.4007
 3851TIP3   OH211558   0.733   1.320   4.909 -0.9959  0.4533  0.1280
 3851TIP3    H111559   0.717   1.238   4.862  0.7574  0.3996 -0.4251
 3851TIP3    H211560   0.647   1.344   4.945 -1.7951 -0.9546 -0.7601
 3852TIP3   OH211561   0.661   1.380   4.099  0.1339  0.6578  1.0510
 3852TIP3    H111562   0.747   1.397   4.136  1.8484 -2.6833 -0.8803
 3852TIP3    H211563   0.647   1.452   4.037  2.5988  0.2229 -0.1384
 3853TIP3   OH211564   2.119   3.093   1.719 -0.5516 -0.2789  0.4992
 3853TIP3    H111565   2.188   3.074   1.655 -0.2350  0.1268  0.7176
 3853TIP3    H211566   2.144   3.041   1.796  0.8984  1.7321  1.4860
 3854TIP3   OH211567   5.743   2.885   2.466 -0.5983  0.0631 -0.7030
 3854TIP3    H111568   5.720   2.960   2.411 -0.2984  0.1847 -0.6616
 3854TIP3    H211569   5.672   2.879   2.529 -0.3091  0.6924 -0.3134
 3855TIP3   OH211570   1.106   3.320   3.783  0.1960  0.0399  0.2512
 3855TIP3    H111571   1.151   3.266   3.718  0.5659  0.4786  0.1435
 3855TIP3    H211572   1.024   3.346   3.739 -0.0141 -0.4825  0.3272
 3856TIP3   OH211573   1.885   1.297   3.831  0.2537 -0.0876  0.4918
 3856TIP3    H111574   1.812   1.279   3.888 -0.0013 -1.3052 -0.1896
 3856TIP3    H211575   1.851   1.358   3.766 -0.1991 -0.7252  0.1210
 3857TIP3   OH211576   5.386   3.704   2.317  0.2893 -0.0415  0.3092
 3857TIP3    H111577   5.421   3.701   2.228  1.2099  0.2019  0.6468
 3857TIP3    H211578   5.340   3.621   2.328 -1.9355  0.9074 -1.2054
 3858TIP3   OH211579   5.145   3.328   4.489 -0.1030 -0.0982  0.5071
 3858TIP3    H111580   5.224   3.313   4.541  0.7155  0.5973 -0.4870
 3858TIP3    H211581   5.111   3.241   4.471 -0.3451 -0.3579  2.0789
 3859TIP3   OH211582   5.422   5.477   2.185 -0.0875 -0.2763  0.4829
 3859TIP3    H111583   5.434   5.526   2.266  0.0934  1.3584 -0.4679
 3859TIP3    H211584   5.491   5.509   2.127 -0.6972 -0.8027 -0.5705
 3860TIP3   OH211585   6.032   5.187   0.811 -0.5781 -0.6092  0.5975
 3860TIP3    H111586   6.027   5.108   0.757  0.8452 -0.8089  0.7302
 3860TIP3    H211587   6.030   5.259   0.748 -0.7869 -0.7793  0.4074
 3861TIP3   OH211588   1.621   3.707   2.863  0.1525  0.2266  0.1076
 3861TIP3    H111589   1.641   3.615   2.844  0.1415  0.2000  0.2220
 3861TIP3    H211590   1.549   3.729   2.803  0.4582  0.2947 -0.2376
 3862TIP3   OH211591   4.673   1.991   2.094 -0.0252  0.2861 -0.2139
 3862TIP3    H111592   4.600   1.958   2.041  0.2354  0.7621 -0.8676
 3862TIP3    H211593   4.630   2.032   2.170 -0.3709 -1.2260  0.4460
 3863TIP3   OH211594   0.867   0.635   2.496  0.3490  0.1510 -0.7027
 3863TIP3    H111595   0.962   0.648   2.490  0.4661 -0.6104 -0.6864
 3863TIP3    H211596   0.838   0.631   2.405  0.5200 -0.7631 -0.7348
 3864TIP3   OH211597   5.900   4.728   1.619  0.1816  0.3195  0.0417
 3864TIP3    H111598   5.865   4.811   1.651  0.5878  1.4353 -2.1927
 3864TIP3    H211599   5.845   4.661   1.659 -1.1673  1.7423  0.6656
 3865TIP3   OH211600   3.167   3.332   2.501 -0.7260  0.4441  0.4513
 3865TIP3    H111601   3.255   3.297   2.514 -0.3560  1.2963  0.2935
 3865TIP3    H211602   3.112   3.278   2.558 -0.2762 -0.7892 -0.2451
 3866TIP3   OH211603   5.420   3.294   2.413  0.0057 -0.2473  0.2130
 3866TIP3    H111604   5.464   3.308   2.329  0.4567 -0.5322  0.3956
 3866TIP3    H211605   5.336   3.338   2.404 -1.1745 -2.6290 -1.4158
 3867TIP3   OH211606   4.202   1.673   0.140  0.2349  0.0105 -0.3998
 3867TIP3    H111607   4.225   1.621   0.217  0.0055  0.9912  0.3510
 3867TIP3    H211608   4.149   1.744   0.175  0.1956  0.5146 -1.4651
 3868TIP3   OH211609   5.007   2.248   0.781  0.4724 -0.2028  0.0517
 3868TIP3    H111610   4.954   2.245   0.701  1.1867  0.6638 -0.4753
 3868TIP3    H211611   5.098   2.242   0.750  0.7200 -1.4052  0.9210
 3869TIP3   OH211612   6.153   1.207   0.296 -0.1176 -0.6445  0.1763
 3869TIP3    H111613   6.199   1.233   0.375 -1.7458 -1.4474  1.4692
 3869TIP3    H211614   6.151   1.285   0.241 -1.7392  0.9696  2.3513
 3870TIP3   OH211615   5.708   0.845   1.812 -0.4442  0.4406 -0.1093
 3870TIP3    H111616   5.747   0.783   1.750 -1.5243 -1.3850  0.9265
 3870TIP3    H211617   5.635   0.796   1.850 -1.4977  2.4832  0.5963
 3871TIP3   OH211618   1.023   2.133   4.217  0.0181 -0.1844 -0.5206
 3871TIP3    H111619   1.022   2.160   4.308  0.5820  1.4427 -0.9720
 3871TIP3    H211620   1.115   2.128   4.193 -0.1293  0.1141 -1.1976
 3872TIP3   OH211621   2.915   1.023   3.721  0.0601  0.3752  0.3490
 3872TIP3    H111622   2.916   1.107   3.675  2.0766  1.0160  1.4461
 3872TIP3    H211623   2.870   1.042   3.804 -1.0832 -0.0953 -0.1467
 3873TIP3   OH211624   4.519   2.580   1.937 -0.1710 -0.2036  0.2978
 3873TIP3    H111625   4.613   2.579   1.919  0.1565 -0.0271  1.8546
 3873TIP3    H211626   4.496   2.673   1.936 -0.5097 -0.2895 -0.8774
 3874TIP3   OH211627   1.589   0.523   0.032  0.1868  0.0192 -0.2543
 3874TIP3    H111628   1.667   0.576   0.015 -0.3484  0.5388 -1.1036
 3874TIP3    H211629   1.616   0.465   0.103  1.1217  0.6881 -0.0358
 3875TIP3   OH211630   4.349   3.502   1.024 -0.1757 -0.0885  0.4528
 3875TIP3    H111631   4.383   3.442   1.091  2.3643  1.3015  0.5306
 3875TIP3    H211632   4.337   3.585   1.070  0.2762  0.5169 -0.4917
 3876TIP3   OH211633   3.766   2.628   1.339 -0.1279 -0.1552  0.0807
 3876TIP3    H111634   3.833   2.662   1.398 -0.6179  0.2158  0.4343
 3876TIP3    H211635   3.750   2.700   1.277 -1.0043  0.1918  0.6927
 3877TIP3   OH211636   2.521   4.954   3.367 -0.5713 -0.3247 -0.0162
 3877TIP3    H111637   2.602   4.950   3.316  1.4750 -2.9458  2.9729
 3877TIP3    H211638   2.463   4.889   3.326 -0.2837 -0.0400 -0.8869
 3878TIP3   OH211639   5.482   2.567   3.071 -0.0223  0.3073  0.3627
 3878TIP3    H111640   5.472   2.661   3.057 -0.8079 -0.0691 -2.0121
 3878TIP3    H211641   5.526   2.535   2.992  0.5063 -1.3051  1.2571
 3879TIP3   OH211642   3.294   5.087   2.073 -0.2176 -0.9735  0.3657
 3879TIP3    H111643   3.372   5.140   2.085 -0.5311 -0.5066  0.3886
 3879TIP3    H211644   3.247   5.095   2.156  0.2297 -2.1213  0.7340
 3880TIP3   OH211645   4.442   4.708   4.425  0.2298  0.0838  1.1191
 3880TIP3    H111646   4.411   4.617   4.427 -0.0901  0.1905  1.0048
 3880TIP3    H211647   4.509   4.712   4.494  0.5437 -0.3469  0.8485
 3881TIP3   OH211648   1.986   1.338   2.158  0.0743  0.0714 -0.2584
 3881TIP3    H111649   1.998   1.252   2.117  0.4824  0.0880 -0.1796
 3881TIP3    H211650   2.071   1.381   2.148 -0.7429  1.3567 -2.3180
 3882TIP3   OH211651   5.949   5.839   2.827  0.0709  0.0183 -0.3359
 3882TIP3    H111652   5.942   5.744   2.814  1.4554 -0.1870  0.2613
 3882TIP3    H211653   5.989   5.848   2.913  1.6954  1.1031 -1.1641
 3883TIP3   OH211654   4.362   2.370   4.645  0.1526 -0.0966  0.2074
 3883TIP3    H111655   4.298   2.367   4.574 -0.0455 -0.0774  0.3851
 3883TIP3    H211656   4.431   2.428   4.612  0.2814 -0.4395 -0.1490
 3884TIP3   OH211657   4.129   3.413   4.148 -0.4489  0.0920  0.3884
 3884TIP3    H111658   4.068   3.483   4.169 -1.9112 -0.5083 -1.6184
 3884TIP3    H211659   4.183   3.448   4.077 -1.3838 -0.8806 -0.8295
 3885TIP3   OH211660   0.114   1.703   1.913  0.0013  0.6157 -0.4507
 3885TIP3    H111661   0.029   1.664   1.932  0.0318  1.2016  1.0070
 3885TIP3    H211662   0.163   1.633   1.869 -0.5245 -0.4366  0.5748
 3886TIP3   OH211663   4.172   0.954   3.027  0.5199  0.2351  0.6512
 3886TIP3    H111664   4.221   0.876   3.053  2.1324  0.8635 -0.3208
 3886TIP3    H211665   4.224   1.027   3.060  0.3610  0.9364 -0.5638
 3887TIP3   OH211666   0.387   5.953   4.489 -0.0624  0.0722  0.3002
 3887TIP3    H111667   0.419   5.983   4.403  0.6067 -1.0193  0.1481
 3887TIP3    H211668   0.294   5.932   4.474 -0.0968  0.4357 -0.0077
 3888TIP3   OH211669   5.069   2.031   2.251  0.9050  0.1339 -0.5155
 3888TIP3    H111670   5.054   2.025   2.157 -0.6395  0.4572 -0.3201
 3888TIP3    H211671   5.103   1.944   2.275  1.4573  0.1008 -1.3788
 3889TIP3   OH211672   2.311   5.792   1.921  0.0121 -0.2974  0.1622
 3889TIP3    H111673   2.321   5.750   1.836 -1.6074  1.3431 -0.9147
 3889TIP3    H211674   2.227   5.837   1.916  0.0197  0.1325  2.5298
 3890TIP3   OH211675   4.688   4.752   2.424  0.3161 -0.1591  0.4123
 3890TIP3    H111676   4.722   4.703   2.349  0.8266  0.9822 -0.1274
 3890TIP3    H211677   4.639   4.824   2.385  0.1100  0.1179  1.1795
 3891TIP3   OH211678   1.632   2.908   0.445 -0.2504  0.2535 -0.0315
 3891TIP3    H111679   1.597   2.881   0.360 -1.6696  1.0287  0.2817
 3891TIP3    H211680   1.562   2.886   0.507  1.4695 -2.0521  1.2588
 3892TIP3   OH211681   3.261   3.642   5.124 -0.3272  0.1723  0.1749
 3892TIP3    H111682   3.254   3.625   5.030 -4.3954  0.5904  0.2077
 3892TIP3    H211683   3.309   3.724   5.131  1.8207 -0.8529 -1.2872
 3893TIP3   OH211684   4.646   1.711   2.346  0.1530 -0.2001 -0.5017
 3893TIP3    H111685   4.699   1.714   2.427 -0.4240  0.6404 -0.1404
 3893TIP3    H211686   4.576   1.649   2.366 -1.2152  1.5854  0.4381
 3894TIP3   OH211687   1.575   4.789   5.157 -0.1072  0.6405 -0.0077
 3894TIP3    H111688   1.505   4.724   5.160  1.2851 -0.9345  2.5384
 3894TIP3    H211689   1.535   4.866   5.118 -2.0744 -1.4380 -2.4331
 3895TIP3   OH211690   2.695   3.760   4.652 -0.0698 -0.0813 -0.3371
 3895TIP3    H111691   2.724   3.670   4.637  0.6476  0.1811 -0.5280
 3895TIP3    H211692   2.625   3.751   4.717  1.4254 -0.6027  1.2884
 3896TIP3   OH211693   5.343   5.304   2.767  0.1589 -0.3155 -0.0805
 3896TIP3    H111694   5.368   5.393   2.743 -0.6077 -0.5860 -2.0093
 3896TIP3    H211695   5.273   5.315   2.831  0.0635  0.4683 -0.3133
 3897TIP3   OH211696   3.180   0.297   0.850  0.3729 -0.0077  0.1871
 3897TIP3    H111697   3.167   0.241   0.773 -1.0153 -1.2192  1.2286
 3897TIP3    H211698   3.198   0.384   0.815  0.1452 -0.6133 -1.4964
 3898TIP3   OH211699   0.452   2.961   1.634 -0.1651 -0.3185  0.2332
 3898TIP3    H111700   0.500   2.934   1.556  0.5752  0.8044  0.2762
 3898TIP3    H211701   0.428   3.052   1.618 -0.3231 -0.1762  1.1661
 3899TIP3   OH211702   1.610   2.304   0.445 -0.3875 -0.3434 -1.0649
 3899TIP3    H111703   1.612   2.228   0.386 -0.0027 -1.1782 -0.0026
 3899TIP3    H211704   1.679   2.361   0.411 -0.3875 -0.6616 -1.6214
 3900TIP3   OH211705   5.044   0.209   2.715  0.1044  0.0600  0.2792
 3900TIP3    H111706   5.027   0.260   2.636  1.7889  0.8422  0.3820
 3900TIP3    H211707   5.008   0.263   2.786  0.6746  0.4937  0.2520
 3901TIP3   OH211708   2.374   2.137   4.569  0.7344 -0.2227 -0.0147
 3901TIP3    H111709   2.441   2.195   4.533 -0.5051  2.1479  1.2017
 3901TIP3    H211710   2.418   2.088   4.638  1.3398  0.9816  0.4758
 3902TIP3   OH211711   5.581   1.123   4.848 -0.4657 -0.3303  0.2741
 3902TIP3    H111712   5.632   1.124   4.767  0.1072  2.0606  0.5857
 3902TIP3    H211713   5.497   1.162   4.825 -0.2499  0.4946  0.8231
 3903TIP3   OH211714   3.280   2.919   0.000  0.1104  0.1256 -0.1147
 3903TIP3    H111715   3.320   2.952   0.080 -0.3090  0.5385 -0.0725
 3903TIP3    H211716   3.325   2.836  -0.017 -0.3683 -0.3867  1.0163
 3904TIP3   OH211717   3.779   3.816   4.295  0.3090  0.3692 -0.1315
 3904TIP3    H111718   3.828   3.864   4.229 -0.8262  2.0041  0.1525
 3904TIP3    H211719   3.708   3.875   4.321 -1.9068 -1.8731 -0.6162
 3905TIP3   OH211720   3.391   0.771   2.685  0.7910  0.4579 -0.1777
 3905TIP3    H111721   3.359   0.693   2.732 -0.5891  2.1144  1.7872
 3905TIP3    H211722   3.456   0.736   2.623 -1.5954 -2.5574 -1.2463
 3906TIP3   OH211723   4.743   5.483   3.453  0.7158  0.0483 -0.0667
 3906TIP3    H111724   4.696   5.565   3.438 -0.3537 -0.5293  0.0146
 3906TIP3    H211725   4.767   5.453   3.365 -0.0219 -0.1895 -0.1906
 3907TIP3   OH211726   2.954   0.594   0.075 -0.4645 -0.0623  0.4033
 3907TIP3    H111727   2.932   0.501   0.075 -1.4196  0.0730  2.7684
 3907TIP3    H211728   2.881   0.636   0.031 -1.0908 -0.3007  1.1708
 3908TIP3   OH211729   4.720   4.570   2.637  0.1277 -0.1071 -0.2355
 3908TIP3    H111730   4.705   4.640   2.574 -1.3440 -0.3481 -0.2008
 3908TIP3    H211731   4.635   4.559   2.680  0.7794 -0.7826  0.9243
 3909TIP3   OH211732   6.044   1.659   2.485  0.0894  0.1726  0.1863
 3909TIP3    H111733   5.970   1.687   2.539 -0.6553 -0.7340 -0.3206
 3909TIP3    H211734   6.005   1.639   2.400  0.9286 -0.2780 -0.1016
 3910TIP3   OH211735   1.422   1.399   1.686 -0.3029 -0.6515  0.0589
 3910TIP3    H111736   1.439   1.423   1.777  0.0713 -2.4696  0.5050
 3910TIP3    H211737   1.426   1.303   1.685  1.9851 -0.6509 -2.2889
 3911TIP3   OH211738   4.598   1.131   3.541 -0.2584 -0.1684  0.4872
 3911TIP3    H111739   4.599   1.053   3.485  0.0863  0.8859 -1.0465
 3911TIP3    H211740   4.655   1.108   3.615  0.8925 -0.9215 -0.5933
 3912TIP3   OH211741   3.776   0.760   2.330 -0.1796  0.2124  0.1279
 3912TIP3    H111742   3.771   0.855   2.324 -1.7945  0.1448 -0.0240
 3912TIP3    H211743   3.792   0.731   2.240 -1.0749  0.2868 -0.0617
 3913TIP3   OH211744   5.686   2.538   2.896 -0.0541  0.5188 -0.4343
 3913TIP3    H111745   5.780   2.537   2.912  0.4335 -3.2502 -2.3614
 3913TIP3    H211746   5.664   2.447   2.879 -3.8222  1.4535 -1.4759
 3914TIP3   OH211747   3.113   2.437   4.298  0.3353 -0.7319  0.2240
 3914TIP3    H111748   3.177   2.419   4.229 -0.0460  0.5631 -0.5106
 3914TIP3    H211749   3.086   2.528   4.282  0.2406 -0.3879  2.0846
 3915TIP3   OH211750   0.076   5.302   0.368 -0.1353  0.1047 -0.2726
 3915TIP3    H111751   0.002   5.259   0.412 -0.9434 -0.7754 -2.3596
 3915TIP3    H211752   0.077   5.263   0.281  2.6533  0.3133 -0.4084
 3916TIP3   OH211753   5.243   2.463   2.298  0.5738  0.1462  0.4053
 3916TIP3    H111754   5.240   2.368   2.297 -0.0485  0.1563 -0.6867
 3916TIP3    H211755   5.295   2.485   2.375  2.3317 -1.1219 -0.3564
 3917TIP3   OH211756   6.253   4.657   0.938  0.5862  0.0595  0.5781
 3917TIP3    H111757   6.195   4.660   1.014 -0.8609 -2.2521 -0.2986
 3917TIP3    H211758   6.329   4.607   0.968  1.1020  1.1506  1.1166
 3918TIP3   OH211759   4.017   5.259   0.742 -0.0712  0.3225 -0.0495
 3918TIP3    H111760   4.074   5.210   0.682 -0.7224 -0.1202 -0.3194
 3918TIP3    H211761   3.939   5.279   0.690 -1.2403 -1.2537  1.0158
 3919TIP3   OH211762   5.899   1.317   1.902 -0.2931 -0.4627  0.4416
 3919TIP3    H111763   5.904   1.234   1.855 -1.0265 -0.6676  0.7203
 3919TIP3    H211764   5.852   1.376   1.843  2.4066  0.5555 -0.8649
 3920TIP3   OH211765   1.231   3.640   0.279 -0.6992 -0.3217  0.1048
 3920TIP3    H111766   1.261   3.550   0.269 -0.0650 -0.1681  0.5326
 3920TIP3    H211767   1.231   3.675   0.190  1.7470  0.0680  0.1863
 3921TIP3   OH211768   2.122   1.608   5.088 -0.2133 -0.2646 -0.4008
 3921TIP3    H111769   2.033   1.574   5.079 -0.0670 -0.9453  0.5950
 3921TIP3    H211770   2.159   1.560   5.162  0.7245  0.5630 -0.3089
 3922TIP3   OH211771   1.232   2.150   1.383 -0.1871 -0.4381  0.0000
 3922TIP3    H111772   1.270   2.232   1.349 -0.5298 -0.5767 -0.7359
 3922TIP3    H211773   1.280   2.134   1.465 -0.0667  0.4593  0.1203
 3923TIP3   OH211774   3.506   2.106   2.226  0.5611 -0.6436 -0.0000
 3923TIP3    H111775   3.476   2.197   2.231  0.5219 -0.6342 -0.3589
 3923TIP3    H211776   3.550   2.091   2.310  2.4101  0.3898 -0.7119
 3924TIP3   OH211777   5.224   4.560   1.515 -0.4766  0.0431  0.5150
 3924TIP3    H111778   5.174   4.478   1.518  0.2103 -0.3605  1.5464
 3924TIP3    H211779   5.306   4.538   1.472 -0.8339  0.5131 -0.4247
 3925TIP3   OH211780   0.653   2.073   3.370  0.0672 -0.0864  1.0506
 3925TIP3    H111781   0.632   2.147   3.427 -2.2277  1.7307 -1.8785
 3925TIP3    H211782   0.584   2.009   3.389 -1.5789  1.1188 -0.5436
 3926TIP3   OH211783   4.324   5.360   1.029 -0.3669 -0.5197 -0.6754
 3926TIP3    H111784   4.359   5.331   1.113  0.2696 -2.9982 -1.7143
 3926TIP3    H211785   4.229   5.360   1.041 -0.2631  0.0902  0.2864
 3927TIP3   OH211786   5.563   2.976   0.798  0.4887  0.0443 -0.0236
 3927TIP3    H111787   5.521   2.894   0.772 -0.7036  0.6170  0.0381
 3927TIP3    H211788   5.543   3.037   0.727 -0.0092  0.7259  0.6907
 3928TIP3   OH211789   0.181   0.799   4.965 -0.2745 -0.7872 -0.3904
 3928TIP3    H111790   0.130   0.725   4.998 -1.5019  0.7106  1.2298
 3928TIP3    H211791   0.164   0.799   4.871 -0.3406 -2.4687 -0.4053
 3929TIP3   OH211792   1.720   2.946   2.809 -0.1179 -0.2590 -0.4436
 3929TIP3    H111793   1.814   2.951   2.792 -0.2486  0.4285 -0.9989
 3929TIP3    H211794   1.705   3.010   2.878  0.0444 -1.4423  0.7493
 3930TIP3   OH211795   5.456   5.185   3.005 -0.0698 -0.3066  0.8788
 3930TIP3    H111796   5.544   5.147   3.008  0.3300  0.5685  0.6326
 3930TIP3    H211797   5.441   5.201   2.912 -1.4335 -2.5437  0.6435
 3931TIP3   OH211798   1.133   4.094   0.860  0.2905 -0.4704  0.4213
 3931TIP3    H111799   1.168   4.106   0.948 -1.1970 -2.5323  1.3742
 3931TIP3    H211800   1.192   4.145   0.804  0.4903  2.0317  2.7047
 3932TIP3   OH211801   3.450   0.159   0.609  0.2785 -0.2663  0.1567
 3932TIP3    H111802   3.425   0.221   0.678  1.1668  0.1599  0.1042
 3932TIP3    H211803   3.453   0.212   0.529  2.9163  0.1027  0.4093
 3933TIP3   OH211804   0.860   1.823   1.842 -1.0445  1.0307 -0.0510
 3933TIP3    H111805   0.768   1.797   1.849 -1.1803  1.7061  0.9592
 3933TIP3    H211806   0.868   1.896   1.903  0.6346 -0.2520  1.3333
 3934TIP3   OH211807   2.632   3.423   0.617  0.1151  0.2745 -0.3568
 3934TIP3    H111808   2.580   3.495   0.654 -1.1442 -0.2701 -0.9858
 3934TIP3    H211809   2.586   3.344   0.645  1.9270 -0.3513  0.9891
 3935TIP3   OH211810   3.671   0.758   3.653  0.2866 -0.1442 -0.2815
 3935TIP3    H111811   3.721   0.710   3.588  1.2482  0.0252  0.3114
 3935TIP3    H211812   3.606   0.695   3.686  1.1360 -0.8496  0.0632
 3936TIP3   OH211813   2.840   4.601   3.042 -0.4888 -0.5379  0.0122
 3936TIP3    H111814   2.919   4.571   2.998 -0.4632  0.0808 -0.3755
 3936TIP3    H211815   2.771   4.593   2.977 -0.4718  0.2692 -0.1183
 3937TIP3   OH211816   0.135   0.685   0.061  0.2537 -0.0435  0.4674
 3937TIP3    H111817   0.184   0.721   0.135 -0.7125  0.7240  0.7585
 3937TIP3    H211818   0.048   0.724   0.069  0.1991  0.2508 -1.2177
 3938TIP3   OH211819   5.157   5.163   3.915  0.4845  0.2582 -0.1009
 3938TIP3    H111820   5.105   5.175   3.835  1.2906  1.2318 -0.5174
 3938TIP3    H211821   5.234   5.218   3.900  0.8626  0.0881  1.1664
 3939TIP3   OH211822   4.276   4.704   4.856  0.4712  0.8706 -0.1288
 3939TIP3    H111823   4.281   4.800   4.858  0.5504  0.8927 -0.8895
 3939TIP3    H211824   4.217   4.682   4.928 -0.5566  1.5780 -0.7267
 3940TIP3   OH211825   0.666   3.512   3.636 -0.2544 -0.2334  0.0935
 3940TIP3    H111826   0.754   3.475   3.636 -0.0147  0.3285 -0.0607
 3940TIP3    H211827   0.628   3.482   3.554 -0.5345 -1.2274  0.5715
 3941TIP3   OH211828   0.439   1.822   3.333  0.4549 -0.0809 -0.3786
 3941TIP3    H111829   0.471   1.795   3.419 -1.5507 -0.3829  0.3048
 3941TIP3    H211830   0.348   1.794   3.330  0.4362 -0.0079 -2.5849
 3942TIP3   OH211831   1.400   4.377   4.274 -0.3859  0.5633  0.0358
 3942TIP3    H111832   1.419   4.470   4.285 -0.0658  0.4612  0.3423
 3942TIP3    H211833   1.312   4.366   4.310 -0.3652  0.7178  0.1332
 3943TIP3   OH211834   3.417   0.069   4.269 -0.2699  0.1129 -0.3459
 3943TIP3    H111835   3.481   0.060   4.339 -0.9009 -0.5325  0.1564
 3943TIP3    H211836   3.459   0.029   4.193 -0.4614 -1.2634  0.2401
 3944TIP3   OH211837   4.441   1.194   4.142  0.1575 -1.0739  0.1941
 3944TIP3    H111838   4.366   1.241   4.179  1.7645  1.0844  0.9236
 3944TIP3    H211839   4.447   1.114   4.194 -0.9619 -0.7363  0.8803
 3945TIP3   OH211840   0.397   1.418   2.506  0.3192 -0.5246 -0.0016
 3945TIP3    H111841   0.467   1.363   2.542  1.5541  0.2120 -1.1733
 3945TIP3    H211842   0.321   1.360   2.501  0.8869 -1.4018  1.1246
 3946TIP3   OH211843   4.065   3.519   1.270 -0.1700 -0.0634  0.0365
 3946TIP3    H111844   3.994   3.460   1.295 -0.0691 -0.2465 -0.0982
 3946TIP3    H211845   4.061   3.522   1.174 -0.5241  0.5936  0.0683
 3947TIP3   OH211846   5.174   5.262   4.973  0.4918  0.6615  0.0727
 3947TIP3    H111847   5.146   5.348   4.943  1.6949  1.8693  2.1256
 3947TIP3    H211848   5.270   5.268   4.975  0.5978 -0.7712  0.1220
 3948TIP3   OH211849   4.056   4.687   3.830 -0.3364  0.9671  0.9993
 3948TIP3    H111850   4.088   4.610   3.876 -1.1830 -0.4480 -0.6817
 3948TIP3    H211851   4.111   4.759   3.862 -0.6308  0.0338  3.8621
 3949TIP3   OH211852   1.948   0.365   4.358  0.0093 -0.1600  0.8640
 3949TIP3    H111853   1.953   0.460   4.361  0.3805 -0.1910  1.6525
 3949TIP3    H211854   1.857   0.345   4.382 -0.3027  0.0080 -0.1223
 3950TIP3   OH211855   4.051   5.332   1.003  0.1177  0.0643 -0.3448
 3950TIP3    H111856   4.049   5.296   0.914 -0.4993 -1.5418  0.2824
 3950TIP3    H211857   3.959   5.333   1.031  0.2778  0.8147  0.1931
 3951TIP3   OH211858   4.719   0.853   1.373  0.1960 -0.3594  0.0359
 3951TIP3    H111859   4.722   0.785   1.440 -2.7020 -1.2679 -0.6433
 3951TIP3    H211860   4.763   0.814   1.298 -0.2054 -0.9540  0.1005
 3952TIP3   OH211861   0.439   2.511   2.594 -0.0357  0.3188  0.1917
 3952TIP3    H111862   0.348   2.484   2.598  0.0816  0.0530  1.5412
 3952TIP3    H211863   0.435   2.605   2.579 -0.5590  0.4538  1.1102
 3953TIP3   OH211864   4.645   0.207   0.813 -0.5905 -0.0424 -0.9854
 3953TIP3    H111865   4.632   0.112   0.806 -0.0149 -0.3398  1.1605
 3953TIP3    H211866   4.739   0.219   0.801 -0.2265 -0.1207  1.2834
 3954TIP3   OH211867   2.520   5.856   5.183 -0.2999 -0.0275 -0.3556
 3954TIP3    H111868   2.583   5.791   5.212  0.2315  0.4896 -0.3308
 3954TIP3    H211869   2.566   5.907   5.116 -0.2183  1.1887  0.5758
 3955TIP3   OH211870   0.350   4.050   5.154 -0.3074  0.0444 -0.6494
 3955TIP3    H111871   0.321   4.013   5.238 -0.5894  1.6462  0.0050
 3955TIP3    H211872   0.280   4.028   5.093 -0.1662 -1.0239 -0.4444
 3956TIP3   OH211873   1.111   1.645   4.167  0.0215 -0.1705  0.2503
 3956TIP3    H111874   1.182   1.707   4.155  0.6161 -0.6897  0.9795
 3956TIP3    H211875   1.149   1.574   4.220 -0.4634 -1.4649 -1.0654
 3957TIP3   OH211876   0.265   4.725   2.054 -0.6158 -0.0488  0.1406
 3957TIP3    H111877   0.268   4.745   1.960  1.5312  1.5766  0.4728
 3957TIP3    H211878   0.185   4.767   2.085  0.4156  2.4976 -0.4092
 3958TIP3   OH211879   1.211   4.154   1.514 -0.3817  0.2868  0.0383
 3958TIP3    H111880   1.155   4.213   1.565 -0.3379  0.2775  0.0971
 3958TIP3    H211881   1.279   4.210   1.478 -1.9423  0.8470 -2.3177
 3959TIP3   OH211882   5.400   0.348   4.855 -0.3496 -0.3360 -0.1472
 3959TIP3    H111883   5.311   0.370   4.885  0.0158  0.5231  0.3475
 3959TIP3    H211884   5.388   0.315   4.766 -1.1305  0.1525 -0.2322
 3960TIP3   OH211885   4.159   2.444   3.395 -0.2938  0.3298  0.4144
 3960TIP3    H111886   4.201   2.492   3.466  1.3441 -0.0807 -0.2336
 3960TIP3    H211887   4.106   2.509   3.349  0.4991  1.1104  0.5976
 3961TIP3   OH211888   5.808   0.776   3.671  0.1536 -0.4879 -0.5972
 3961TIP3    H111889   5.807   0.865   3.705 -1.2345 -0.3044 -1.0424
 3961TIP3    H211890   5.717   0.758   3.648  0.5016 -1.8195 -1.0441
 3962TIP3   OH211891   0.017   1.386   4.425 -0.4505  0.1348  0.0204
 3962TIP3    H111892   0.079   1.351   4.361 -0.6000  0.6459 -0.4036
 3962TIP3    H211893   0.019   1.480   4.412  0.6442  0.4023  1.7797
 3963TIP3   OH211894   6.251   2.257   4.938  0.9694  0.1515 -0.3934
 3963TIP3    H111895   6.312   2.186   4.919  0.2083 -0.0094 -2.5073
 3963TIP3    H211896   6.196   2.223   5.008  1.5422 -0.7660 -0.3759
 3964TIP3   OH211897   1.577   1.950   3.467 -0.0366  0.0545  0.1080
 3964TIP3    H111898   1.518   1.987   3.402  0.9620  0.6795 -0.4730
 3964TIP3    H211899   1.557   1.999   3.548  0.0009  0.5922 -0.1991
 3965TIP3   OH211900   0.618   2.962   0.874 -0.1379 -0.6144 -0.0086
 3965TIP3    H111901   0.575   2.894   0.925  0.4801 -1.3037 -0.4024
 3965TIP3    H211902   0.663   3.016   0.939  0.7105 -1.5305  0.1869
 3966TIP3   OH211903   4.943   3.115   3.320 -0.0695  0.3004 -0.3032
 3966TIP3    H111904   4.962   3.151   3.234  0.6654  2.6391  0.7340
 3966TIP3    H211905   4.866   3.164   3.350 -0.8198 -1.0642  0.0544
 3967TIP3   OH211906   1.709   4.471   1.098  0.2526 -0.1346 -0.0643
 3967TIP3    H111907   1.700   4.507   1.009 -0.0196 -0.4254 -0.1580
 3967TIP3    H211908   1.799   4.491   1.123 -0.0720  1.1555  0.1289
 3968TIP3   OH211909   1.886   3.385   1.133 -0.3071 -0.4032  0.3832
 3968TIP3    H111910   1.922   3.338   1.058 -0.6715  2.4947 -1.7702
 3968TIP3    H211911   1.944   3.361   1.206  0.7511 -2.4493 -1.0201
 3969TIP3   OH211912   0.270   4.779   3.824 -0.4642  0.6047 -0.4401
 3969TIP3    H111913   0.346   4.833   3.842 -1.2504  1.4245  0.5612
 3969TIP3    H211914   0.197   4.841   3.816 -1.4044 -0.2770  0.8150
 3970TIP3   OH211915   0.050   5.334   2.497  0.4269 -0.4431  0.3076
 3970TIP3    H111916   0.055   5.418   2.453 -0.9809 -0.2100  0.5265
 3970TIP3    H211917   0.129   5.329   2.551  0.1122  1.1340  0.9687
 3971TIP3   OH211918   0.168   1.301   3.305  0.2971  0.1361  0.1429
 3971TIP3    H111919   0.113   1.277   3.379  2.6304 -0.7899  1.6941
 3971TIP3    H211920   0.161   1.227   3.244  0.3066 -0.2458  0.6027
 3972TIP3   OH211921   6.229   0.924   1.294  0.3336  0.3988 -0.4450
 3972TIP3    H111922   6.227   0.971   1.211  0.5757 -1.3832 -1.5052
 3972TIP3    H211923   6.322   0.914   1.313  0.2867  0.1351 -0.3513
 3973TIP3   OH211924   3.929   0.337   3.317  0.4673  0.2029 -0.2634
 3973TIP3    H111925   3.850   0.391   3.320  1.3753  1.5619 -0.0578
 3973TIP3    H211926   3.935   0.298   3.404  0.1544  0.2764 -0.2072
 3974TIP3   OH211927   5.583   2.727   0.303  0.6376  0.3660 -0.2483
 3974TIP3    H111928   5.524   2.682   0.364 -0.1284  0.3975 -0.9479
 3974TIP3    H211929   5.626   2.793   0.357 -0.2468  0.5928  0.2158
 3975TIP3   OH211930   3.551   2.126   5.167  0.1113 -0.1343  0.3277
 3975TIP3    H111931   3.635   2.149   5.127 -0.6248 -0.0130 -1.2180
 3975TIP3    H211932   3.494   2.201   5.150 -0.8466 -0.9730 -0.3345
 3976TIP3   OH211933   4.796   4.311   1.892 -0.5407  0.0146  0.5993
 3976TIP3    H111934   4.719   4.272   1.851 -0.7269  0.7388  0.2492
 3976TIP3    H211935   4.806   4.395   1.849  1.8628 -1.0218 -1.0504
 3977TIP3   OH211936   5.980   3.857   2.750  0.5310  0.2516 -0.4312
 3977TIP3    H111937   5.984   3.804   2.671  3.1719 -1.0096  0.4269
 3977TIP3    H211938   6.019   3.803   2.818 -1.9389  1.1362  1.9149
 3978TIP3   OH211939   2.472   3.751   0.377 -0.0952  0.0410 -0.3463
 3978TIP3    H111940   2.404   3.788   0.434 -1.7113 -1.8333 -0.9438
 3978TIP3    H211941   2.554   3.780   0.416 -1.2027  1.4059  1.1037
 3979TIP3   OH211942   4.460   3.287   4.131  0.2312 -0.3650 -0.6698
 3979TIP3    H111943   4.378   3.319   4.096  1.3747  1.9515 -1.4085
 3979TIP3    H211944   4.524   3.302   4.062  2.0227  1.7303  1.2692
 3980TIP3   OH211945   2.519   4.093   3.326  0.2534  0.1874 -0.3667
 3980TIP3    H111946   2.539   4.003   3.354 -1.6048 -0.5520 -1.2389
 3980TIP3    H211947   2.571   4.104   3.246  2.5617  0.9155  1.1353
 3981TIP3   OH211948   5.316   5.021   4.502 -0.3814 -0.6143  0.1454
 3981TIP3    H111949   5.237   4.969   4.489  0.2094 -1.9485  1.6198
 3981TIP3    H211950   5.295   5.078   4.577 -0.0202 -0.8195  0.4032
 3982TIP3   OH211951   6.137   2.616   0.621  0.0628 -0.1320  0.2406
 3982TIP3    H111952   6.217   2.563   0.614  1.9082  2.4944 -0.2838
 3982TIP3    H211953   6.154   2.676   0.693 -0.5079  1.8310 -1.1612
 3983TIP3   OH211954   5.510   4.122   4.814 -0.1351  0.0619  0.2088
 3983TIP3    H111955   5.527   4.174   4.736 -0.5460 -0.1657 -0.0345
 3983TIP3    H211956   5.474   4.184   4.877  0.0091  0.2051  0.1497
 3984TIP3   OH211957   2.884   4.254   3.811  0.4390 -0.0936 -0.1606
 3984TIP3    H111958   2.936   4.190   3.861 -1.1643 -1.1141  0.2567
 3984TIP3    H211959   2.945   4.326   3.794  2.1360 -1.4652 -0.1447
 3985TIP3   OH211960   4.989   5.190   3.698  0.0692 -0.5945  0.0255
 3985TIP3    H111961   4.912   5.245   3.684 -1.0078 -2.4420 -1.9883
 3985TIP3    H211962   5.043   5.205   3.620  1.6343  0.4118  1.2489
 3986TIP3   OH211963   0.019   3.038   3.572  0.1192  0.0346 -0.0177
 3986TIP3    H111964   0.055   2.977   3.508 -1.0692 -0.4566 -0.2395
 3986TIP3    H211965  -0.011   3.112   3.520  0.6425  0.3725  0.1514
 3987TIP3   OH211966   0.299   0.776   0.622  0.3326 -0.1628  0.0520
 3987TIP3    H111967   0.295   0.684   0.597  1.5449 -0.0497 -0.6650
 3987TIP3    H211968   0.216   0.813   0.593  0.1592 -0.8672 -0.3645
 3988TIP3   OH211969   2.234   3.334   2.111 -0.2057 -0.3339  0.3877
 3988TIP3    H111970   2.168   3.353   2.045  0.4303  0.6907  0.0225
 3988TIP3    H211971   2.186   3.330   2.193 -0.5464  2.0307  0.3678
 3989TIP3   OH211972   2.821   3.595   3.065  0.5115 -0.7394  0.2562
 3989TIP3    H111973   2.812   3.572   3.157  0.6266  0.1944  0.5078
 3989TIP3    H211974   2.751   3.659   3.049  1.1222 -0.1371 -0.0379
 3990TIP3   OH211975   6.117   5.703   3.381  0.2316 -0.1160 -0.2106
 3990TIP3    H111976   6.053   5.772   3.399  0.1741 -0.4588  0.9854
 3990TIP3    H211977   6.201   5.749   3.377  0.2715 -0.0484  1.2037
 3991TIP3   OH211978   6.083   2.721   4.838  0.3577 -0.5398 -0.8114
 3991TIP3    H111979   6.028   2.735   4.915  1.1411 -1.8505  0.0246
 3991TIP3    H211980   6.086   2.806   4.794 -1.4947 -0.1959 -0.3417
 3992TIP3   OH211981   0.815   5.470   1.080 -0.0562  0.2377 -0.4712
 3992TIP3    H111982   0.741   5.458   1.139 -0.3788  0.3481 -0.8476
 3992TIP3    H211983   0.778   5.455   0.993  0.2765  0.6781 -0.6908
 3993TIP3   OH211984   5.570   4.013   0.983  0.0451  0.1658 -0.5211
 3993TIP3    H111985   5.477   4.029   0.969  0.1483  0.3117 -1.0491
 3993TIP3    H211986   5.600   3.973   0.902  0.9207  2.2044 -1.2822
 3994TIP3   OH211987   2.486   4.412   3.810 -0.1964  0.1319  0.3649
 3994TIP3    H111988   2.564   4.376   3.768  1.3734  2.3827  1.1355
 3994TIP3    H211989   2.424   4.426   3.738  1.5876  1.8501 -0.9420
 3995TIP3   OH211990   3.245   3.403   0.883 -0.5062 -0.0655 -0.2901
 3995TIP3    H111991   3.340   3.416   0.885 -0.5195  0.3869 -1.4583
 3995TIP3    H211992   3.219   3.431   0.795 -1.6184 -0.9324 -0.2676
 3996TIP3   OH211993   3.752   5.272   1.854  0.1333  0.0150 -0.2033
 3996TIP3    H111994   3.763   5.341   1.789 -2.2944  0.3700 -0.3211
 3996TIP3    H211995   3.788   5.194   1.812  0.9255  0.7341 -0.9221
 3997TIP3   OH211996   0.920   2.196   1.000 -0.4772  0.2438 -0.1919
 3997TIP3    H111997   0.967   2.235   0.926 -1.2055  0.6190 -0.4694
 3997TIP3    H211998   0.959   2.237   1.077  1.8927 -1.8161 -0.1561
 3998TIP3   OH211999   5.088   4.731   1.648 -0.3437 -0.0209  0.5545
 3998TIP3    H112000   5.114   4.819   1.619  0.9050 -0.5221  0.0996
 3998TIP3    H212001   5.139   4.672   1.593 -2.1862 -1.0700 -0.1114
 3999TIP3   OH212002   3.961   0.362   0.621  0.2064 -0.1316  0.3031
 3999TIP3    H112003   3.897   0.433   0.617  0.6338  0.2955  0.7965
 3999TIP3    H212004   3.994   0.365   0.711  0.0308 -1.1435  0.4156
 4000TIP3   OH212005   5.109   4.664   4.179  0.2470 -0.4115  0.2717
 4000TIP3    H112006   5.075   4.577   4.201  0.7388 -0.8900 -0.8254
 4000TIP3    H212007   5.032   4.720   4.182 -0.2538 -1.0702 -0.0066
 4001TIP3   OH212008   3.222   3.108   1.986  0.0725 -0.3729 -0.1047
 4001TIP3    H112009   3.268   3.158   2.053  1.4416  0.5963 -1.6989
 4001TIP3    H212010   3.131   3.137   1.992  0.6761  1.7689 -0.4331
 4002TIP3   OH212011   5.659   4.675   2.485  0.2261  0.2553  0.3124
 4002TIP3    H112012   5.637   4.760   2.522 -0.9951  0.3626 -0.5606
 4002TIP3    H212013   5.751   4.661   2.507  0.3774  1.6878  0.6670
 4003TIP3   OH212014   4.855   3.688   1.149  0.0267 -0.1704 -0.0740
 4003TIP3    H112015   4.828   3.746   1.078 -1.0123  0.5237  0.8487
 4003TIP3    H212016   4.938   3.725   1.180 -1.8247  2.4816  2.1743
 4004TIP3   OH212017   3.697   2.537   0.123 -0.0374 -0.2665  0.3325
 4004TIP3    H112018   3.714   2.611   0.181 -1.4193  0.9094 -0.6866
 4004TIP3    H212019   3.710   2.460   0.178  2.4572  0.6434  1.1638
 4005TIP3   OH212020   3.371   2.218   0.566 -0.1327  0.0675 -0.2722
 4005TIP3    H112021   3.303   2.156   0.592  1.9185 -1.3899  2.1069
 4005TIP3    H212022   3.339   2.303   0.593 -1.3643 -0.4628 -0.0266
 4006TIP3   OH212023   2.177   5.838   2.351  0.3585 -0.0008 -0.2327
 4006TIP3    H112024   2.114   5.909   2.354  0.4845  0.2678 -2.3898
 4006TIP3    H212025   2.143   5.773   2.411 -0.2591  1.4664  1.0720
 4007TIP3   OH212026   1.901   5.372   4.123  0.6039  0.1059 -0.7222
 4007TIP3    H112027   1.905   5.404   4.213  1.7434 -0.0524 -0.7098
 4007TIP3    H212028   1.901   5.276   4.132 -0.4908  0.0734 -0.8576
 4008TIP3   OH212029   2.845   3.466   0.172 -0.2493  0.1927 -0.2036
 4008TIP3    H112030   2.887   3.497   0.253 -0.4251  0.8994 -0.3752
 4008TIP3    H212031   2.852   3.371   0.177  1.0550  0.2720 -0.0450
 4009TIP3   OH212032   4.833   0.149   1.042  0.3180  0.0206  0.0086
 4009TIP3    H112033   4.864   0.149   0.952  0.2009 -1.1089 -0.0461
 4009TIP3    H212034   4.780   0.069   1.049 -0.9301  0.8761  0.6503
 4010TIP3   OH212035   1.131   0.925   2.074 -0.0512 -0.5620  0.3703
 4010TIP3    H112036   1.160   1.005   2.031 -0.0928 -1.4535 -1.4055
 4010TIP3    H212037   1.104   0.867   2.002 -2.2728 -1.3174  1.7164
 4011TIP3   OH212038   5.067   5.361   0.068 -0.3497 -0.3135 -0.5211
 4011TIP3    H112039   5.138   5.355   0.004 -1.7458 -1.1292 -2.0662
 4011TIP3    H212040   5.035   5.272   0.077 -2.5504  0.2961 -1.5419
 4012TIP3   OH212041   5.071   3.072   0.042 -0.1764 -0.5958  0.0796
 4012TIP3    H112042   4.979   3.054   0.062 -1.0573  1.6535 -1.6239
 4012TIP3    H212043   5.115   3.069   0.127 -2.3905  1.3115  1.3825
 4013TIP3   OH212044   0.163   2.544   3.443 -0.4044  0.4668  0.0951
 4013TIP3    H112045   0.176   2.483   3.515 -0.8322  0.0295 -0.1920
 4013TIP3    H212046   0.239   2.532   3.387 -0.6005  0.0316 -0.0785
 4014TIP3   OH212047   3.767   0.922   3.906 -0.5230  0.5306  0.0972
 4014TIP3    H112048   3.825   0.986   3.864  0.7376  0.5019  1.6998
 4014TIP3    H212049   3.772   0.845   3.850 -1.8019  1.6499 -1.6848
 4015TIP3   OH212050   1.431   5.147   2.643  0.2939 -0.2029 -0.5918
 4015TIP3    H112051   1.504   5.206   2.663  1.1850 -0.3948 -2.9476
 4015TIP3    H212052   1.405   5.112   2.728  1.3057  1.7464  0.6058
 4016TIP3   OH212053   4.642   2.072   4.954 -0.0271 -0.2332 -0.2254
 4016TIP3    H112054   4.629   1.979   4.973  0.2052 -0.2951 -0.3679
 4016TIP3    H212055   4.553   2.107   4.942 -0.2783  0.0182  1.9413
 4017TIP3   OH212056   6.167   1.802   3.349  0.0064  0.0727  0.0140
 4017TIP3    H112057   6.197   1.891   3.364  0.4152  0.0920 -0.8309
 4017TIP3    H212058   6.207   1.777   3.266  0.3620 -1.1112  0.5195
 4018TIP3   OH212059   5.418   2.777   3.337  0.2123  0.1980  0.0013
 4018TIP3    H112060   5.430   2.801   3.245  1.2873  1.8536  0.5213
 4018TIP3    H212061   5.346   2.834   3.366 -0.0086 -0.2000  0.2331
 4019TIP3   OH212062   5.910   5.858   3.789  0.2775  1.0447  0.2996
 4019TIP3    H112063   5.859   5.938   3.775 -0.1656  0.4789 -1.5697
 4019TIP3    H212064   5.866   5.792   3.735  2.3273  0.2625 -0.4927
 4020TIP3   OH212065   1.573   2.802   4.187 -0.4285  0.3581  0.2794
 4020TIP3    H112066   1.542   2.776   4.101  0.1042 -3.2049  0.9969
 4020TIP3    H212067   1.658   2.760   4.196 -0.4730  0.6173  2.5354
 4021TIP3   OH212068   5.583   4.404   4.200  0.2209 -0.4619  0.2436
 4021TIP3    H112069   5.660   4.360   4.236 -0.5702 -1.2653  0.9949
 4021TIP3    H212070   5.541   4.339   4.144  0.2133  0.0542 -0.3676
 4022TIP3   OH212071   4.475   1.037   0.240  0.3590 -0.4153  0.7611
 4022TIP3    H112072   4.491   1.113   0.296 -0.0446 -0.3306  0.7657
 4022TIP3    H212073   4.480   0.962   0.299 -0.8354 -0.2744  1.0802
 4023TIP3   OH212074   0.085   0.870   2.139 -0.0790 -0.1347 -0.0642
 4023TIP3    H112075   0.103   0.852   2.047  0.2813  0.9405 -0.2186
 4023TIP3    H212076   0.160   0.833   2.186  0.6830  0.9866 -0.3764
 4024TIP3   OH212077   1.409   1.499   3.835 -0.5371  0.2473 -0.8345
 4024TIP3    H112078   1.384   1.566   3.771  1.0046  1.7890  0.1018
 4024TIP3    H212079   1.498   1.475   3.811  0.1487  1.0015  0.8126
 4025TIP3   OH212080   3.689   4.538   1.845  0.0453  0.2153 -0.2045
 4025TIP3    H112081   3.764   4.566   1.898  0.6149  0.6590 -1.2190
 4025TIP3    H212082   3.677   4.446   1.869  0.3551  0.3768  0.6142
 4026TIP3   OH212083   2.937   4.613   4.316 -0.4304 -0.4248 -0.1643
 4026TIP3    H112084   2.865   4.619   4.379 -0.6145 -2.5592 -0.1096
 4026TIP3    H212085   2.895   4.610   4.230 -0.4128 -1.2999 -0.1528
 4027TIP3   OH212086   2.351   5.916   2.632  0.4335  0.2033  0.2962
 4027TIP3    H112087   2.294   5.904   2.556 -0.2647  0.6924  0.7273
 4027TIP3    H212088   2.378   5.827   2.656 -0.1295 -0.0385  0.0666
 4028TIP3   OH212089   2.272   1.412   3.026  0.1285 -0.5802 -0.6116
 4028TIP3    H112090   2.271   1.376   3.115 -0.2456 -0.2247 -0.4675
 4028TIP3    H212091   2.195   1.469   3.022 -0.1834 -1.0351 -1.3472
 4029TIP3   OH212092   0.080   3.082   2.371  0.0349 -0.5127  0.3102
 4029TIP3    H112093   0.138   3.009   2.393 -0.3150 -1.2914 -1.1953
 4029TIP3    H212094   0.028   3.096   2.451 -0.7469 -2.7556  0.2688
 4030TIP3   OH212095   1.485   4.470   4.588  0.5277 -0.1079 -0.0251
 4030TIP3    H112096   1.393   4.483   4.568  0.7726  0.8384 -0.6097
 4030TIP3    H212097   1.521   4.558   4.597  1.3649 -0.4618  0.2404
 4031TIP3   OH212098   3.546   0.025   3.720  0.2927  0.4869  0.0523
 4031TIP3    H112099   3.497   0.072   3.788 -1.7211 -1.0105 -0.2762
 4031TIP3    H212100   3.485   0.020   3.647  2.8486  3.3186 -2.5631
 4032TIP3   OH212101   1.436   2.799   0.616  0.1281 -0.1123 -0.1609
 4032TIP3    H112102   1.367   2.808   0.681 -0.3171 -2.8390 -0.1594
 4032TIP3    H212103   1.473   2.712   0.631  1.4410  0.0171 -2.2042
 4033TIP3   OH212104   4.684   1.301   5.133 -0.4373 -0.1773  0.3737
 4033TIP3    H112105   4.715   1.311   5.223 -0.5663 -0.4164  0.4457
 4033TIP3    H212106   4.755   1.257   5.087  0.0201  0.8057  0.1222
 4034TIP3   OH212107   4.572   5.024   3.962 -0.2661  0.4212  0.1587
 4034TIP3    H112108   4.514   5.039   4.036  0.6293  1.4686  0.6835
 4034TIP3    H212109   4.549   5.092   3.899 -0.9072 -0.3596 -0.4631
 4035TIP3   OH212110   2.984   2.542   3.137 -0.5444 -0.1993 -0.0489
 4035TIP3    H112111   2.999   2.586   3.053  1.0235 -0.3225  0.1335
 4035TIP3    H212112   3.037   2.463   3.132 -1.0695 -0.6120  0.7572
 4036TIP3   OH212113   2.462   2.791   4.066  0.3051 -0.1383  0.7118
 4036TIP3    H112114   2.413   2.715   4.098 -1.4425  0.9284  0.6649
 4036TIP3    H212115   2.403   2.835   4.005  1.6131  0.7954  0.0547
 4037TIP3   OH212116   2.850   1.793   4.240 -0.3896 -0.5638  0.0018
 4037TIP3    H112117   2.766   1.749   4.225 -0.5887 -0.8105  1.6601
 4037TIP3    H212118   2.861   1.792   4.335  0.8038  0.7564 -0.0856
 4038TIP3   OH212119   0.550   3.235   3.133  0.1857  0.2070 -0.0931
 4038TIP3    H112120   0.458   3.210   3.142  0.5436 -0.6545  1.5197
 4038TIP3    H212121   0.596   3.153   3.120  1.0666  0.1984  2.5038
 4039TIP3   OH212122   6.155   3.974   2.225  0.1685  0.5105  0.5888
 4039TIP3    H112123   6.105   3.988   2.145  2.5814  2.6326 -0.6962
 4039TIP3    H212124   6.201   3.891   2.209 -0.3520  0.2623  0.3475
 4040TIP3   OH212125   4.404   0.827   3.698 -0.4814 -0.7491  0.4906
 4040TIP3    H112126   4.428   0.794   3.612  1.3528 -1.0887  1.0980
 4040TIP3    H212127   4.471   0.793   3.757 -0.8675  0.6823  1.8210
 4041TIP3   OH212128   1.405   3.521   4.845  0.3134 -0.5759 -0.1020
 4041TIP3    H112129   1.329   3.475   4.881  1.0956 -0.8642  1.2366
 4041TIP3    H212130   1.476   3.503   4.906  1.2432  0.4600 -0.8246
 4042TIP3   OH212131   1.486   4.306   1.111 -0.1060 -0.0496 -0.0430
 4042TIP3    H112132   1.429   4.380   1.089  0.7417  0.2547 -1.3254
 4042TIP3    H212133   1.574   4.344   1.114  0.5761 -1.2412 -2.3643
 4043TIP3   OH212134   4.266   1.401   4.169  0.2078  0.3967  0.2964
 4043TIP3    H112135   4.288   1.433   4.081  2.5478  0.0599  0.7036
 4043TIP3    H212136   4.187   1.349   4.155  0.1325  0.8931 -1.4850
 4044TIP3   OH212137   3.815   2.433   3.988 -0.0906  0.6643  0.3539
 4044TIP3    H112138   3.747   2.454   4.052 -1.0758 -0.4875 -0.2723
 4044TIP3    H212139   3.783   2.471   3.906 -1.2150 -1.8520 -0.4844
 4045TIP3   OH212140   6.025   0.314   0.099  1.2704  0.3665 -0.5602
 4045TIP3    H112141   6.082   0.256   0.149  0.8039  0.5842  0.2463
 4045TIP3    H212142   5.984   0.257   0.034 -0.4764 -0.6233  1.2922
 4046TIP3   OH212143   1.762   4.615   4.415 -0.3848  0.0036 -0.2721
 4046TIP3    H112144   1.710   4.536   4.408 -1.9758  0.9318  0.3983
 4046TIP3    H212145   1.796   4.631   4.327 -0.6241 -1.0351 -0.5570
 4047TIP3   OH212146   1.168   1.147   3.334  0.1243 -0.4955 -0.0262
 4047TIP3    H112147   1.193   1.087   3.264  0.6179  1.1681 -1.3556
 4047TIP3    H212148   1.250   1.189   3.361 -0.2518 -0.1202  0.5712
 4048TIP3   OH212149   2.617   1.302   3.188 -0.1633 -0.2315 -0.3576
 4048TIP3    H112150   2.571   1.374   3.144  0.6707 -0.2400 -1.2884
 4048TIP3    H212151   2.606   1.320   3.281 -1.1923  0.3051 -0.5594
 4049TIP3   OH212152   3.899   3.985   4.060 -0.4129  0.6256 -0.1756
 4049TIP3    H112153   3.951   4.064   4.073 -0.9909  0.9023  0.5325
 4049TIP3    H212154   3.816   4.016   4.024 -0.9062  0.4349  0.7596
 4050TIP3   OH212155   2.175   1.654   4.210 -0.0150  0.1970  0.4858
 4050TIP3    H112156   2.156   1.624   4.299  2.1013  0.5343  1.0981
 4050TIP3    H212157   2.204   1.576   4.164 -0.2962  0.1869  0.3207
 4051TIP3   OH212158   5.168   5.953   2.111  0.2682 -0.5644 -0.1293
 4051TIP3    H112159   5.159   5.893   2.184 -0.7316 -0.6653 -0.3161
 4051TIP3    H212160   5.080   5.987   2.096  1.0487  2.3381  1.1073
 4052TIP3   OH212161   4.692   0.680   2.317  0.2527 -0.3207 -0.0425
 4052TIP3    H112162   4.745   0.664   2.239  0.1898  0.2446 -0.2063
 4052TIP3    H212163   4.716   0.610   2.377  0.8623 -0.3225 -0.2801
 4053TIP3   OH212164   3.145   5.621   4.266 -0.5588  0.6506 -0.4435
 4053TIP3    H112165   3.224   5.616   4.212  0.4739  2.3368  0.8270
 4053TIP3    H212166   3.167   5.572   4.345 -1.5261 -0.5277 -0.8694
 4054TIP3   OH212167   1.068   5.334   4.697  0.5238 -0.9290 -0.0996
 4054TIP3    H112168   1.101   5.400   4.636 -2.1136 -0.0000 -0.6698
 4054TIP3    H212169   0.996   5.378   4.743  1.1027 -2.2568  2.2681
 4055TIP3   OH212170   2.512   5.624   2.041  0.0747 -0.0749  0.3702
 4055TIP3    H112171   2.433   5.670   2.012 -0.8875 -2.3124 -0.7915
 4055TIP3    H212172   2.507   5.626   2.136 -2.2069 -1.4244  0.3356
 4056TIP3   OH212173   0.520   0.901   1.232  0.3012 -0.3168  0.2015
 4056TIP3    H112174   0.521   0.978   1.287  0.8313 -0.6925  0.7235
 4056TIP3    H212175   0.608   0.865   1.237 -0.0091 -1.1227  0.2158
 4057TIP3   OH212176   3.279   3.942   2.149  0.4507  0.5827  0.0020
 4057TIP3    H112177   3.258   4.032   2.174 -0.8711  0.1234  0.6221
 4057TIP3    H212178   3.198   3.908   2.112  0.4110 -0.8534  1.2972
 4058TIP3   OH212179   1.095   0.757   2.836 -0.7579  0.3885 -0.0780
 4058TIP3    H112180   1.119   0.757   2.743  0.8786  0.0831  0.3185
 4058TIP3    H212181   1.129   0.840   2.870  2.4495 -1.2447  1.1045
 4059TIP3   OH212182   4.905   0.911   4.721 -0.0110 -0.2684 -0.4105
 4059TIP3    H112183   4.866   0.886   4.637 -1.2462  0.6978 -0.1573
 4059TIP3    H212184   4.944   0.997   4.704  2.7371 -1.4863 -0.8396
 4060TIP3   OH212185   0.157   1.176   1.295 -0.3380  0.3729  0.7027
 4060TIP3    H112186   0.154   1.100   1.237 -1.4660  0.7441  0.2498
 4060TIP3    H212187   0.201   1.144   1.374  0.8226 -0.2510 -0.1755
 4061TIP3   OH212188   2.686   3.218   1.419  0.3086 -0.3554  0.0628
 4061TIP3    H112189   2.728   3.192   1.501  0.0888 -0.1041  0.2588
 4061TIP3    H212190   2.606   3.263   1.447  0.7335  0.6385 -0.2621
 4062TIP3   OH212191   3.148   4.250   2.815 -0.1864  0.3180 -0.3644
 4062TIP3    H112192   3.067   4.199   2.823  0.3126 -0.8309 -2.1408
 4062TIP3    H212193   3.214   4.197   2.860 -0.2727  0.9204  0.4832
 4063TIP3   OH212194   5.579   1.232   1.038 -0.2559 -0.5327 -0.4179
 4063TIP3    H112195   5.624   1.266   0.960 -2.1598  3.0060 -0.1902
 4063TIP3    H212196   5.503   1.185   1.003 -1.1973  1.1867 -0.7742
 4064TIP3   OH212197   4.433   0.692   2.256  0.6700 -0.7192 -0.1415
 4064TIP3    H112198   4.520   0.696   2.294  0.4229 -4.7241  1.2448
 4064TIP3    H212199   4.448   0.699   2.161  1.9549  2.4327  0.1462
 4065TIP3   OH212200   4.300   0.355   0.254 -0.0352 -0.2120  0.0054
 4065TIP3    H112201   4.260   0.419   0.314  0.4482 -0.5100  0.6543
 4065TIP3    H212202   4.329   0.284   0.311 -2.6717 -2.1872 -0.9173
 4066TIP3   OH212203   0.315   4.365   4.159 -0.1865 -0.2052 -0.5423
 4066TIP3    H112204   0.402   4.337   4.187 -0.1591  0.7272  0.3491
 4066TIP3    H212205   0.331   4.411   4.077  0.4010  1.4004  0.4360
 4067TIP3   OH212206   3.543   5.798   1.589 -0.2624  0.0962 -0.3464
 4067TIP3    H112207   3.607   5.793   1.660  0.3073 -0.7697 -0.8968
 4067TIP3    H212208   3.472   5.739   1.616  0.3544 -0.9119 -0.8657
 4068TIP3   OH212209   4.156   2.436   4.442 -0.2353 -0.3147  0.1783
 4068TIP3    H112210   4.072   2.442   4.488 -0.4426 -1.9312  0.0595
 4068TIP3    H212211   4.142   2.372   4.372  1.3217 -1.3428  0.7314
 4069TIP3   OH212212   0.121   4.389   3.825 -0.5136  0.2736 -0.1004
 4069TIP3    H112213   0.187   4.409   3.891 -0.9383  0.8447  0.1594
 4069TIP3    H212214   0.105   4.473   3.782 -2.1029  0.4580  0.7969
 4070TIP3   OH212215   4.849   5.713   4.504  0.0313  0.3625  0.2242
 4070TIP3    H112216   4.913   5.783   4.517  0.1097  0.1682  0.9164
 4070TIP3    H212217   4.869   5.677   4.417  0.7341  0.4329  0.3547
 4071TIP3   OH212218   2.676   3.268   1.150 -0.4206 -0.0277  0.0769
 4071TIP3    H112219   2.694   3.258   1.243  0.3240  0.6117  0.0029
 4071TIP3    H212220   2.582   3.286   1.146 -0.6504 -1.0334  0.6283
 4072TIP3   OH212221   5.062   4.317   4.097 -0.1913 -0.7179  0.1132
 4072TIP3    H112222   5.113   4.281   4.169  1.4719  0.9658 -0.1443
 4072TIP3    H212223   5.118   4.310   4.020 -0.1540  1.4091 -0.1318
 4073TIP3   OH212224   3.562   4.013   4.308  0.0261 -0.0715  0.0325
 4073TIP3    H112225   3.466   4.013   4.304  0.0260 -1.8176 -0.8845
 4073TIP3    H212226   3.584   4.102   4.333 -1.7338  1.4482 -3.0969
 4074TIP3   OH212227   4.787   1.996   1.572  0.1910 -0.2673  0.3829
 4074TIP3    H112228   4.839   2.030   1.499  1.9054 -1.7900  0.8242
 4074TIP3    H212229   4.697   1.990   1.537  1.0100 -1.2827 -1.7436
 4075TIP3   OH212230   5.261   3.724   1.548 -0.0984 -0.3264  0.1375
 4075TIP3    H112231   5.286   3.759   1.634  1.4106  1.4206 -0.9523
 4075TIP3    H212232   5.226   3.637   1.568 -0.4604  0.2825  2.5848
 4076TIP3   OH212233   1.219   0.894   0.100 -0.1623  0.7868  0.1164
 4076TIP3    H112234   1.211   0.960   0.169  1.5199  0.9046  0.2364
 4076TIP3    H212235   1.139   0.904   0.048 -1.4920  0.6902  2.0256
 4077TIP3   OH212236   3.095   4.282   4.651  0.1401 -0.3882 -0.0495
 4077TIP3    H112237   3.050   4.313   4.573 -0.5601 -0.1797  0.4241
 4077TIP3    H212238   3.040   4.313   4.724 -0.0990 -1.9549  0.4725
 4078TIP3   OH212239   0.056   4.509   1.289 -0.6406  0.4379 -0.5427
 4078TIP3    H112240   0.054   4.486   1.196 -1.0197  0.3161 -0.5079
 4078TIP3    H212241  -0.036   4.505   1.316 -0.3421 -1.6813  0.3714
 4079TIP3   OH212242   5.809   5.692   1.533 -0.7842  0.4386  0.3432
 4079TIP3    H112243   5.726   5.678   1.486 -0.8502 -0.3014  0.6690
 4079TIP3    H212244   5.782   5.722   1.620 -0.8046 -1.6787  1.1169
 4080TIP3   OH212245   5.341   2.316   3.905  0.5335 -0.5604  0.0383
 4080TIP3    H112246   5.361   2.402   3.866 -0.1054 -0.7646 -0.7764
 4080TIP3    H212247   5.317   2.336   3.995  0.6104  0.0972 -0.0766
 4081TIP3   OH212248   2.685   0.832   0.166 -0.8268 -0.4584 -0.5844
 4081TIP3    H112249   2.768   0.784   0.157 -0.9348 -0.5667 -1.0079
 4081TIP3    H212250   2.645   0.795   0.245 -0.7471 -0.8264 -0.7118
 4082TIP3   OH212251   2.746   1.981   1.272 -0.5630  0.4257 -0.5255
 4082TIP3    H112252   2.830   2.025   1.257 -0.2397  0.6543  1.6707
 4082TIP3    H212253   2.681   2.043   1.240 -0.0027  1.4790  0.3252
 4083TIP3   OH212254   0.371   3.098   2.578 -0.1496  0.3984  0.3892
 4083TIP3    H112255   0.355   3.184   2.540 -0.1840  1.8391  3.3748
 4083TIP3    H212256   0.290   3.077   2.625  0.5817 -0.2594  1.4020
 4084TIP3   OH212257   5.127   5.485   4.423 -0.4476 -0.5534  0.0343
 4084TIP3    H112258   5.041   5.506   4.459  0.7707 -0.9663  3.5662
 4084TIP3    H212259   5.131   5.390   4.424  0.1013 -0.5331  0.0662
 4085TIP3   OH212260   1.772   0.828   1.662  0.1212  0.0209 -0.0314
 4085TIP3    H112261   1.773   0.914   1.702 -1.5014 -0.3732  0.9393
 4085TIP3    H212262   1.780   0.767   1.735 -1.4569 -0.6849 -0.4031
 4086TIP3   OH212263   2.845   3.657   4.250 -0.7133  0.2066 -0.0125
 4086TIP3    H112264   2.941   3.657   4.259 -0.8374 -0.8082  1.6193
 4086TIP3    H212265   2.830   3.685   4.160  1.1429 -0.2480 -0.5081
 4087TIP3   OH212266   1.567   3.069   2.600 -0.5562 -0.3134  0.4383
 4087TIP3    H112267   1.642   3.123   2.577  0.8488 -2.3584  0.0130
 4087TIP3    H212268   1.597   3.015   2.674 -1.9227 -0.5245  0.8764
 4088TIP3   OH212269   5.027   2.849   4.862 -0.0961 -0.1732 -0.0915
 4088TIP3    H112270   4.979   2.796   4.798  0.3770 -1.7012  0.7785
 4088TIP3    H212271   4.980   2.836   4.944 -0.3216  1.2661  0.0388
 4089TIP3   OH212272   1.344   5.532   2.784 -0.4847  0.8573 -0.3870
 4089TIP3    H112273   1.347   5.454   2.839 -2.1231  1.2470  0.3193
 4089TIP3    H212274   1.320   5.602   2.844 -0.5491  1.6212 -1.2850
 4090TIP3   OH212275   5.567   5.180   3.341 -0.1628 -0.0051  0.3295
 4090TIP3    H112276   5.629   5.154   3.274 -0.7249 -0.5898  0.0260
 4090TIP3    H212277   5.522   5.256   3.303  0.3018  0.3636  0.5142
 4091TIP3   OH212278   4.916   2.711   2.557 -0.6467 -0.7620  0.4085
 4091TIP3    H112279   4.951   2.651   2.491  2.1227  0.2355  0.8456
 4091TIP3    H212280   4.847   2.759   2.511 -0.3981 -1.7287 -1.0427
 4092TIP3   OH212281   2.915   3.879   2.650  0.0225 -0.1112  0.4293
 4092TIP3    H112282   2.978   3.808   2.660  0.7752  0.7044  1.8545
 4092TIP3    H212283   2.928   3.933   2.728 -2.0672  0.3837  0.4920
 4093TIP3   OH212284   5.621   0.508   4.853  0.0644  0.2110  0.5527
 4093TIP3    H112285   5.666   0.487   4.935 -1.2019  1.5946  1.6627
 4093TIP3    H212286   5.550   0.444   4.848  2.1756 -2.2317 -1.4002
 4094TIP3   OH212287   3.214   3.069   2.911 -0.2626  0.9024  0.3183
 4094TIP3    H112288   3.266   2.988   2.914 -0.5853  0.6874  0.1103
 4094TIP3    H212289   3.265   3.132   2.962  1.1265  1.2408 -1.4011
 4095TIP3   OH212290   5.746   0.234   2.113 -0.5201  0.2111 -0.1398
 4095TIP3    H112291   5.653   0.220   2.098 -0.5650  1.4309 -1.0979
 4095TIP3    H212292   5.750   0.287   2.192 -0.5627 -0.8685  0.6094
 4096TIP3   OH212293   6.314   1.496   3.418 -0.1593 -0.5640 -0.1760
 4096TIP3    H112294   6.304   1.591   3.409 -1.4987 -0.8064 -1.8113
 4096TIP3    H212295   6.391   1.474   3.365  0.2737 -0.3915  0.3678
 4097TIP3   OH212296   3.631   2.861   3.325  0.4940 -0.3294  0.0637
 4097TIP3    H112297   3.694   2.858   3.397  0.7604 -1.3920 -0.1893
 4097TIP3    H212298   3.587   2.776   3.328  0.5654 -0.4210 -1.0603
 4098TIP3   OH212299   0.625   3.969   2.861 -1.1073 -0.1307 -0.1311
 4098TIP3    H112300   0.590   4.033   2.922 -1.8414 -0.0549 -0.6195
 4098TIP3    H212301   0.720   3.981   2.866 -1.2612  1.9009 -1.1739
 4099TIP3   OH212302   2.388   4.481   1.489  0.1902  0.2264  0.0612
 4099TIP3    H112303   2.418   4.419   1.557 -0.2280  1.2280  1.1988
 4099TIP3    H212304   2.433   4.563   1.511 -1.3935  1.0669  0.2592
 4100TIP3   OH212305   4.839   3.331   2.540 -0.0888  0.4948 -0.0537
 4100TIP3    H112306   4.860   3.270   2.610  0.4964  1.3741  0.5564
 4100TIP3    H212307   4.744   3.330   2.534 -0.1163  0.0931  0.4636
 4101TIP3   OH212308   4.942   1.182   0.674  0.3575 -0.9520  0.1347
 4101TIP3    H112309   4.892   1.237   0.734  1.4441  2.4538 -1.7801
 4101TIP3    H212310   4.886   1.173   0.597  1.0470 -0.6136 -0.4234
 4102TIP3   OH212311   0.425   3.355   0.254  0.2079  0.4567 -0.1522
 4102TIP3    H112312   0.508   3.371   0.208 -1.2581  2.3304 -2.3441
 4102TIP3    H212313   0.406   3.263   0.236  1.5240  0.1330 -0.0422
 4103TIP3   OH212314   1.214   1.576   3.268 -0.2694  0.2218  0.2946
 4103TIP3    H112315   1.226   1.671   3.273 -1.8947  0.5187 -0.7703
 4103TIP3    H212316   1.164   1.554   3.346 -1.0872  0.4688 -0.1511
 4104TIP3   OH212317   3.565   1.761   0.297 -0.2687  0.1936  0.1159
 4104TIP3    H112318   3.636   1.697   0.286 -0.2563  0.2811 -0.3188
 4104TIP3    H212319   3.519   1.732   0.376  0.0026 -0.1000  0.1697
 4105TIP3   OH212320   0.334   2.897   2.208  0.6198  0.0784 -0.1687
 4105TIP3    H112321   0.330   2.851   2.292  1.2302 -0.0741 -0.2230
 4105TIP3    H212322   0.324   2.989   2.230 -0.0664 -0.0253 -0.0086
 4106TIP3   OH212323   5.180   5.328   2.156  0.8262  0.0647 -0.4770
 4106TIP3    H112324   5.266   5.365   2.176  0.4062  0.7794  0.0269
 4106TIP3    H212325   5.200   5.243   2.117  1.8472  1.2675 -2.7482
 4107TIP3   OH212326   6.044   3.102   1.788  0.8558  0.5259  0.4069
 4107TIP3    H112327   5.957   3.094   1.826  0.8501 -0.3194  0.2262
 4107TIP3    H212328   6.078   3.013   1.785  0.7400  0.4991 -1.7863
 4108TIP3   OH212329   0.919   5.606   4.566  0.3465  0.6176  0.0852
 4108TIP3    H112330   0.883   5.555   4.639 -0.4541  0.2032 -0.5822
 4108TIP3    H212331   0.918   5.696   4.596  0.4016  0.4058  0.7374
 4109TIP3   OH212332   3.373   2.978   3.207  0.0289 -0.4736 -0.3496
 4109TIP3    H112333   3.467   2.960   3.206  0.1028 -0.4421  1.7486
 4109TIP3    H212334   3.366   3.072   3.189  0.6809  0.1700  2.2763
 4110TIP3   OH212335   0.033   4.799   5.077  0.6014 -0.0410 -0.1352
 4110TIP3    H112336   0.033   4.792   5.173  1.4057 -1.1076 -0.1937
 4110TIP3    H212337  -0.059   4.811   5.054  0.5365  1.5807  0.8425
 4111TIP3   OH212338   1.286   2.087   0.479 -0.5971  0.3476 -0.2873
 4111TIP3    H112339   1.274   2.020   0.411  1.7766 -0.8808  0.3780
 4111TIP3    H212340   1.287   2.170   0.432 -0.2854 -0.3741 -1.5940
 4112TIP3   OH212341   0.923   0.190   1.553 -0.1696 -0.2144 -0.0693
 4112TIP3    H112342   0.919   0.124   1.485  0.5475 -1.0687  0.6827
 4112TIP3    H212343   0.885   0.148   1.630 -1.5189  0.9376 -0.0735
 4113TIP3   OH212344   1.805   1.024   0.197  0.3825 -0.8111  0.3898
 4113TIP3    H112345   1.898   1.004   0.186  0.0530 -3.8469  2.2079
 4113TIP3    H212346   1.797   1.056   0.287 -0.0518  2.3148 -0.6088
 4114TIP3   OH212347   5.518   5.277   3.676 -0.3094 -0.6300  0.6097
 4114TIP3    H112348   5.501   5.192   3.717  2.3843 -0.9547  1.2812
 4114TIP3    H212349   5.537   5.256   3.585  0.4356 -0.8001  0.7929
 4115TIP3   OH212350   4.534   5.500   5.010 -0.1624 -0.0408  0.0024
 4115TIP3    H112351   4.449   5.522   5.046 -0.2265  0.2486 -0.3153
 4115TIP3    H212352   4.597   5.542   5.069 -0.2640  0.3957 -0.1967
 4116TIP3   OH212353   4.328   5.939   1.313 -0.2148  0.1064 -0.2856
 4116TIP3    H112354   4.273   5.997   1.260 -1.5272 -0.7443  0.1043
 4116TIP3    H212355   4.271   5.865   1.335  0.7366 -0.2501  1.0994
 4117TIP3   OH212356   5.115   4.431   4.414 -0.3614  0.1456  0.0506
 4117TIP3    H112357   5.208   4.455   4.408 -0.4511  0.3863 -0.4001
 4117TIP3    H212358   5.110   4.344   4.374 -0.4502  0.4434 -0.5905
 4118TIP3   OH212359   3.493   3.371   4.756  0.6369 -0.2446  0.0972
 4118TIP3    H112360   3.505   3.424   4.834 -1.0238 -0.0179  0.2388
 4118TIP3    H212361   3.462   3.432   4.689  0.8539 -0.6513 -0.3874
 4119TIP3   OH212362   5.814   0.229   4.348 -0.0772  0.4704  0.2137
 4119TIP3    H112363   5.900   0.203   4.380 -0.7863 -1.7153  0.5154
 4119TIP3    H212364   5.764   0.148   4.346 -1.1316  1.0502 -3.2693
 4120TIP3   OH212365   3.424   1.952   0.880 -0.3742 -0.2333  0.0097
 4120TIP3    H112366   3.455   2.022   0.938 -0.3768  0.3612 -0.6917
 4120TIP3    H212367   3.498   1.936   0.821 -0.9059  0.2276 -0.7921
 4121TIP3   OH212368   1.058   2.826   3.047 -0.6166  0.2121 -0.8640
 4121TIP3    H112369   1.091   2.770   2.977  1.0011  0.4749 -0.3336
 4121TIP3    H212370   1.067   2.773   3.126 -0.0452  0.8376 -0.5019
 4122TIP3   OH212371   3.765   5.670   3.893 -0.2503 -0.1031  0.3392
 4122TIP3    H112372   3.712   5.608   3.842  0.5806 -0.9617  0.4817
 4122TIP3    H212373   3.767   5.750   3.841  2.1799 -1.5360 -2.0501
 4123TIP3   OH212374   2.607   4.642   3.903 -0.1554 -0.3723  0.2047
 4123TIP3    H112375   2.572   4.559   3.872 -0.5852 -0.1444  0.0702
 4123TIP3    H212376   2.618   4.695   3.824  2.2805 -1.0796  0.0122
 4124TIP3   OH212377   2.446   1.701   2.274 -0.0952 -0.0264 -0.6737
 4124TIP3    H112378   2.414   1.611   2.270 -1.3425  0.4487 -3.4346
 4124TIP3    H212379   2.411   1.735   2.357 -1.3516 -1.4694 -0.5690
 4125TIP3   OH212380   5.302   2.789   1.161  0.2077  0.0025 -0.6656
 4125TIP3    H112381   5.300   2.816   1.252  1.3695 -0.1665 -0.5703
 4125TIP3    H212382   5.299   2.693   1.164 -0.3131  0.0124 -0.8308
 4126TIP3   OH212383   0.223   3.649   1.354 -0.4152 -0.3216  0.5393
 4126TIP3    H112384   0.254   3.614   1.271 -1.5657 -0.7159  0.2632
 4126TIP3    H212385   0.141   3.692   1.333  0.3264  1.4651  1.1102
 4127TIP3   OH212386   0.792   2.315   2.856  0.3048  0.6279 -0.1968
 4127TIP3    H112387   0.698   2.307   2.838  0.3253  0.4767 -0.2409
 4127TIP3    H212388   0.819   2.392   2.806  0.0243  1.2177  0.5512
 4128TIP3   OH212389   1.211   3.904   1.421  0.1522  0.1331  0.0854
 4128TIP3    H112390   1.140   3.900   1.485 -0.8484  1.5833 -0.8715
 4128TIP3    H212391   1.262   3.981   1.447  0.6864 -0.2138  0.0729
 4129TIP3   OH212392   0.326   4.994   0.527  0.4528 -0.4397  0.3362
 4129TIP3    H112393   0.329   5.090   0.520  1.9079 -0.4806  0.0943
 4129TIP3    H212394   0.414   4.970   0.555  0.2285 -1.7414 -0.0434
 4130TIP3   OH212395   2.126   3.057   0.541  0.7849 -0.3353  0.5044
 4130TIP3    H112396   2.185   3.049   0.465  1.4819 -0.7121  1.0692
 4130TIP3    H212397   2.066   2.983   0.532 -0.2574  0.6122 -0.6125
 4131TIP3   OH212398   0.841   3.633   2.826 -0.8597 -0.0886 -0.0165
 4131TIP3    H112399   0.858   3.712   2.878  3.4990 -0.5153 -0.3607
 4131TIP3    H212400   0.859   3.660   2.736 -0.5027 -1.1676 -0.2786
 4132TIP3   OH212401   3.353   2.465   1.832 -0.1181  0.1060  0.0805
 4132TIP3    H112402   3.285   2.531   1.833  0.4849  0.7391  0.6587
 4132TIP3    H212403   3.353   2.430   1.743 -0.7403  0.5694 -0.1017
 4133TIP3   OH212404   2.060   3.618   2.109 -0.8049  0.2475  0.6037
 4133TIP3    H112405   2.010   3.581   2.182  0.7386 -0.2707  1.4230
 4133TIP3    H212406   2.009   3.695   2.082 -1.0501  0.8464  2.6608
 4134TIP3   OH212407   4.092   4.514   0.818  0.2119 -0.1155  0.1655
 4134TIP3    H112408   4.033   4.444   0.846  0.9191 -0.2706  1.3319
 4134TIP3    H212409   4.173   4.469   0.793 -0.3381  0.0300 -2.0909
 4135TIP3   OH212410   1.450   4.490   3.661 -0.1125  0.5057  0.8884
 4135TIP3    H112411   1.534   4.532   3.678  0.1710  0.1318  0.4610
 4135TIP3    H212412   1.385   4.556   3.683  0.2566  0.4791  2.1350
 4136TIP3   OH212413   1.591   2.382   0.938 -0.2850  0.1222 -0.3900
 4136TIP3    H112414   1.597   2.405   1.031  1.3923 -1.0549 -0.1510
 4136TIP3    H212415   1.609   2.288   0.936  1.1225  0.3854 -2.0090
 4137TIP3   OH212416   0.053   2.945   4.027  0.2324 -0.6441  0.9794
 4137TIP3    H112417   0.068   2.930   3.934 -0.5114  1.9470  0.3599
 4137TIP3    H212418   0.120   3.009   4.052  1.6237 -2.6427  2.7568
 4138TIP3   OH212419   1.773   1.347   4.115 -0.2074  0.0175  0.7621
 4138TIP3    H112420   1.787   1.259   4.151 -0.7282 -0.1353  0.6045
 4138TIP3    H212421   1.680   1.348   4.091  0.1224  0.1023 -0.5965
 4139TIP3   OH212422   0.584   2.610   4.853  0.3795  0.5670 -0.1343
 4139TIP3    H112423   0.622   2.546   4.913 -0.2735  1.1073  0.8856
 4139TIP3    H212424   0.498   2.575   4.831  0.4931  0.5236 -0.5175
 4140TIP3   OH212425   0.800   5.973   2.803 -0.5445  0.1852  0.0703
 4140TIP3    H112426   0.863   5.902   2.814 -0.8468 -0.6005 -2.6083
 4140TIP3    H212427   0.796   6.015   2.889  2.9451 -0.2506  0.5644
 4141TIP3   OH212428   1.003   5.055   4.736  0.2479  0.0170 -0.0418
 4141TIP3    H112429   1.034   5.036   4.824  1.0356 -0.8780 -0.4939
 4141TIP3    H212430   1.053   5.133   4.709  0.6889 -0.2640 -0.0416
 4142TIP3   OH212431   2.402   1.302   4.727  0.4831 -0.9353  0.1314
 4142TIP3    H112432   2.328   1.255   4.689 -0.9646  1.6399 -0.4415
 4142TIP3    H212433   2.371   1.332   4.812  0.8450  0.1553 -0.1054
 4143TIP3   OH212434   1.419   1.696   4.423 -0.1147  0.3373 -0.3778
 4143TIP3    H112435   1.488   1.643   4.462  1.2290  0.3731 -2.5760
 4143TIP3    H212436   1.465   1.758   4.366 -1.9477  0.1965 -2.1164
 4144TIP3   OH212437   4.992   3.461   1.360 -0.1477  0.6611  0.4801
 4144TIP3    H112438   4.902   3.489   1.344 -0.4829  0.0395  1.2544
 4144TIP3    H212439   5.043   3.503   1.290 -1.1195  0.5270 -0.3291
 4145TIP3   OH212440   3.912   3.541   0.556  0.6188  0.0265 -0.6332
 4145TIP3    H112441   3.984   3.603   0.551  0.4412  0.2714 -0.2693
 4145TIP3    H212442   3.847   3.585   0.612  0.4688 -0.4623 -0.4186
 4146TIP3   OH212443   5.901   1.124   4.987  0.0144 -0.1636  0.1246
 4146TIP3    H112444   5.956   1.202   4.992 -1.6961  1.0119  3.8913
 4146TIP3    H212445   5.822   1.153   4.940  0.8391 -0.7796 -1.7677
 4147TIP3   OH212446   3.738   5.020   3.564  0.3966  0.6928  1.0179
 4147TIP3    H112447   3.779   5.051   3.645  0.2603  0.7393  1.0695
 4147TIP3    H212448   3.647   5.049   3.571  0.4763  1.0294  0.6756
 4148TIP3   OH212449   0.372   4.602   2.947 -0.0163 -0.1782  0.2682
 4148TIP3    H112450   0.440   4.662   2.976  1.6092 -2.3732  1.3074
 4148TIP3    H212451   0.395   4.518   2.988 -2.3667 -1.4322 -0.7843
 4149TIP3   OH212452   4.995   2.134   3.648 -0.5330  0.0831  0.5717
 4149TIP3    H112453   4.956   2.201   3.592  0.3402  0.5177  0.4694
 4149TIP3    H212454   4.921   2.098   3.697 -1.4690 -0.9385 -1.4871
 4150TIP3   OH212455   0.975   1.331   0.681  0.4977 -0.1076 -0.5250
 4150TIP3    H112456   0.994   1.321   0.774  0.0327 -0.1973 -0.4388
 4150TIP3    H212457   0.884   1.305   0.672  0.2717  0.7687 -0.8588
 4151TIP3   OH212458   4.463   0.207   4.481  0.8146  0.2314  0.1953
 4151TIP3    H112459   4.542   0.154   4.490 -0.0509 -0.8825  1.9607
 4151TIP3    H212460   4.425   0.206   4.569 -1.8421 -0.3868 -0.8826
 4152TIP3   OH212461   4.391   0.198   2.711  0.0180  0.0794 -0.2641
 4152TIP3    H112462   4.429   0.110   2.706  0.0323 -0.0072  1.1041
 4152TIP3    H212463   4.465   0.255   2.734 -0.1384  0.3433 -0.4023
 4153TIP3   OH212464   1.002   3.074   0.500 -0.3722  0.6116 -0.1330
 4153TIP3    H112465   1.085   3.029   0.490 -1.2689 -0.6662 -2.6273
 4153TIP3    H212466   0.985   3.074   0.595  0.5864 -2.6155  0.1379
 4154TIP3   OH212467   0.778   1.129   4.442 -0.1145  0.0129  0.3724
 4154TIP3    H112468   0.716   1.102   4.509 -1.1071 -0.0746 -0.5467
 4154TIP3    H212469   0.745   1.214   4.412  1.7796  1.3224  1.7584
 4155TIP3   OH212470   1.636   1.621   4.581  0.4003  0.2707  0.3674
 4155TIP3    H112471   1.711   1.662   4.539 -0.4426  0.6277 -0.8465
 4155TIP3    H212472   1.646   1.641   4.674  0.3707  2.6715 -0.0896
 4156TIP3   OH212473   4.693   4.456   1.475  0.0224 -0.1588  0.2857
 4156TIP3    H112474   4.621   4.392   1.476 -0.1990  0.0887  1.3767
 4156TIP3    H212475   4.667   4.522   1.538  1.0583  0.1132  0.4413
 4157TIP3   OH212476   1.156   5.950   0.683 -0.1877 -0.8941 -0.2350
 4157TIP3    H112477   1.171   5.858   0.663  0.6327 -0.7276 -0.4572
 4157TIP3    H212478   1.233   5.995   0.647 -0.7577 -0.0762 -0.4815
 4158TIP3   OH212479   6.257   1.820   0.245 -0.3903  0.3567 -0.1473
 4158TIP3    H112480   6.262   1.836   0.150 -0.1897  0.3858 -0.1321
 4158TIP3    H212481   6.321   1.751   0.261 -0.1346  0.6320  0.0285
 4159TIP3   OH212482   5.843   1.858   3.410  0.1770  0.2906 -0.1272
 4159TIP3    H112483   5.888   1.782   3.372 -1.5315 -0.3477 -0.9877
 4159TIP3    H212484   5.848   1.925   3.342 -1.3173 -0.2608 -0.8528
 4160TIP3   OH212485   4.280   3.825   0.619  0.2840  0.0618  0.2932
 4160TIP3    H112486   4.326   3.743   0.639 -0.0451 -0.4880 -1.0978
 4160TIP3    H212487   4.348   3.893   0.627  0.4823 -0.2853  1.7794
 4161TIP3   OH212488   0.428   3.604   5.133  0.0749 -0.0743 -0.4478
 4161TIP3    H112489   0.359   3.585   5.069 -0.3505 -1.4172  0.3630
 4161TIP3    H212490   0.452   3.518   5.168  1.1728  0.5175  0.3012
 4162TIP3   OH212491   1.969   5.625   4.538  0.0888  0.4283  0.2521
 4162TIP3    H112492   2.026   5.673   4.599  0.3687 -0.6299  0.8392
 4162TIP3    H212493   1.880   5.650   4.563  0.1162 -1.1330  2.1217
 4163TIP3   OH212494   1.348   1.538   0.998 -0.2205 -0.0698 -0.2184
 4163TIP3    H112495   1.384   1.600   0.935  0.9307 -0.4560  0.0458
 4163TIP3    H212496   1.284   1.589   1.047 -0.4311  0.4847 -1.0433
 4164TIP3   OH212497   0.181   5.853   1.701 -0.1329 -0.4342 -0.2389
 4164TIP3    H112498   0.205   5.911   1.773 -1.6221 -0.3690  0.2315
 4164TIP3    H212499   0.238   5.778   1.711  2.7649  1.4139 -1.6113
 4165TIP3   OH212500   0.191   1.697   1.608 -0.9896  0.1349  0.2061
 4165TIP3    H112501   0.271   1.746   1.592 -1.1936  0.8475  1.2278
 4165TIP3    H212502   0.133   1.760   1.651 -1.3393 -0.9347  1.3720
 4166TIP3   OH212503   3.928   4.909   3.359  0.1093  0.8666  0.0579
 4166TIP3    H112504   3.877   4.934   3.435  1.2127 -1.8853  1.8181
 4166TIP3    H212505   4.019   4.926   3.384  0.4238  1.2663 -1.2351
 4167TIP3   OH212506   0.767   4.859   2.989  0.6082 -0.3517 -0.5594
 4167TIP3    H112507   0.829   4.817   2.929  1.5045 -1.0728  0.8097
 4167TIP3    H212508   0.814   4.937   3.021  1.5018 -1.7201  1.6570
 4168TIP3   OH212509   6.031   5.151   4.193 -0.8330 -0.3647 -0.2972
 4168TIP3    H112510   6.087   5.113   4.261  0.2403  0.8440 -0.4494
 4168TIP3    H212511   5.972   5.209   4.241  0.8167  1.5411 -0.4342
 4169TIP3   OH212512   0.183   4.061   4.001 -0.3533  0.2994  0.3090
 4169TIP3    H112513   0.245   4.060   3.928 -2.0899 -0.7583 -1.2321
 4169TIP3    H212514   0.179   4.153   4.028 -1.1647  1.1165 -2.2963
 4170TIP3   OH212515   3.314   1.334   2.053  0.3309 -0.0494 -0.1112
 4170TIP3    H112516   3.316   1.371   2.141  0.4829  0.2789 -0.2520
 4170TIP3    H212517   3.237   1.374   2.011  0.3815 -0.0422 -0.1977
 4171TIP3   OH212518   5.080   2.276   1.194 -0.4125  0.1311 -0.0575
 4171TIP3    H112519   5.005   2.219   1.211 -0.5159 -0.0865 -1.1716
 4171TIP3    H212520   5.055   2.360   1.232 -1.1426  0.0048 -0.2339
 4172TIP3   OH212521   3.753   2.632   4.948 -0.7833  0.1734  0.4363
 4172TIP3    H112522   3.797   2.717   4.948 -1.1187  0.4334  2.9803
 4172TIP3    H212523   3.660   2.653   4.957 -1.1221 -0.4443 -1.3480
 4173TIP3   OH212524   5.187   5.849   4.216  0.0839 -0.1072  0.3010
 4173TIP3    H112525   5.151   5.874   4.300  0.7199  1.4780  0.1377
 4173TIP3    H212526   5.225   5.929   4.181  2.8288 -1.3995  0.0021
 4174TIP3   OH212527   1.303   2.316   0.809 -0.5125  0.0211 -0.3259
 4174TIP3    H112528   1.361   2.385   0.841 -1.0694  0.7328 -0.8191
 4174TIP3    H212529   1.362   2.247   0.779  0.0649  0.5150 -0.3390
 4175TIP3   OH212530   6.058   4.354   2.490 -0.6089 -0.3891  0.1850
 4175TIP3    H112531   6.071   4.263   2.518  1.3932  0.2839  1.7159
 4175TIP3    H212532   6.147   4.385   2.470 -1.0828  1.5505  0.8788
 4176TIP3   OH212533   2.089   4.726   0.327  0.4468 -0.2354  0.0955
 4176TIP3    H112534   2.084   4.821   0.318 -0.2253 -0.4229 -2.7204
 4176TIP3    H212535   2.003   4.700   0.360  0.6597  0.1218  0.9481
 4177TIP3   OH212536   0.847   2.962   3.427 -0.1971 -0.3977 -0.1463
 4177TIP3    H112537   0.785   3.034   3.415 -1.1937 -1.2085  0.0606
 4177TIP3    H212538   0.833   2.905   3.351 -0.3685 -1.0650  0.3823
 4178TIP3   OH212539   4.819   2.852   1.690 -0.4062  0.2171  0.0636
 4178TIP3    H112540   4.771   2.927   1.725  1.0867  1.2716 -0.0582
 4178TIP3    H212541   4.839   2.877   1.599 -0.8424 -0.8200 -0.3381
 4179TIP3   OH212542   2.638   1.047   3.118 -0.0421 -0.0920  0.5530
 4179TIP3    H112543   2.724   1.047   3.076 -0.4564  0.2398 -0.3161
 4179TIP3    H212544   2.634   1.131   3.164 -0.0118  0.0105  0.3685
 4180TIP3   OH212545   2.481   4.326   1.278  0.4611  0.3717  0.0069
 4180TIP3    H112546   2.571   4.337   1.246  0.9695 -1.8925  0.5270
 4180TIP3    H212547   2.464   4.406   1.329  2.4660  0.4986  0.5647
 4181TIP3   OH212548   0.642   2.540   3.406  0.2244 -0.3151  0.3730
 4181TIP3    H112549   0.733   2.515   3.425 -0.0951 -0.4578  1.8888
 4181TIP3    H212550   0.622   2.606   3.473 -1.1435 -1.1281  0.7866
 4182TIP3   OH212551   5.730   4.922   4.136 -0.1589 -0.3903 -0.6870
 4182TIP3    H112552   5.812   4.897   4.177  0.1416 -1.4592 -1.8646
 4182TIP3    H212553   5.678   4.841   4.136  0.1440 -0.6511 -3.0085
 4183TIP3   OH212554   5.211   1.663   0.920 -0.1236 -0.6718  0.0032
 4183TIP3    H112555   5.241   1.743   0.964  0.5417  0.1781 -1.8782
 4183TIP3    H212556   5.279   1.599   0.937  0.5842 -0.0780 -0.5327
 4184TIP3   OH212557   3.653   5.228   4.011  0.1722 -0.5970 -0.6359
 4184TIP3    H112558   3.735   5.264   4.045  0.3129 -2.1391  0.7873
 4184TIP3    H212559   3.593   5.303   4.010  1.6440  0.6129 -1.9931
 4185TIP3   OH212560   1.787   2.264   2.156  0.0667 -0.1560 -0.1972
 4185TIP3    H112561   1.782   2.355   2.184 -2.1325 -0.3303  0.1332
 4185TIP3    H212562   1.757   2.213   2.231 -0.6812 -1.0031 -1.0387
 4186TIP3   OH212563   0.973   4.670   4.985  0.0665  0.3987  0.1671
 4186TIP3    H112564   0.941   4.580   4.995  2.5608 -0.5522  0.3098
 4186TIP3    H212565   1.025   4.669   4.905  2.7916  0.7899  1.8098
 4187TIP3   OH212566   2.265   0.314   0.741  0.6101  0.1436  0.1585
 4187TIP3    H112567   2.218   0.397   0.728  0.3210 -0.3032 -2.0357
 4187TIP3    H212568   2.352   0.330   0.705  0.2057 -0.7979 -1.3026
 4188TIP3   OH212569   0.609   1.869   4.886  0.2666  0.0646 -0.1236
 4188TIP3    H112570   0.580   1.780   4.905 -0.1779  0.6113  2.1165
 4188TIP3    H212571   0.696   1.874   4.924  0.7936  0.2456 -1.3295
 4189TIP3   OH212572   5.279   5.915   1.028 -0.4415 -0.0561  0.4292
 4189TIP3    H112573   5.327   5.993   1.056 -1.4201  0.6847  0.1011
 4189TIP3    H212574   5.345   5.861   0.985 -0.0538  1.3894 -0.9119
 4190TIP3   OH212575   1.627   4.614   4.874  0.6719  0.0441 -0.3183
 4190TIP3    H112576   1.532   4.632   4.872  0.6388 -0.0594  0.3785
 4190TIP3    H212577   1.667   4.700   4.858  0.4935  0.6600  2.1169
 4191TIP3   OH212578   3.342   0.261   2.728 -0.5379 -0.6387 -0.1483
 4191TIP3    H112579   3.294   0.300   2.655 -0.7545 -0.4671  0.0791
 4191TIP3    H212580   3.415   0.321   2.745 -1.7994  0.6028  1.2666
 4192TIP3   OH212581   4.983   5.865   0.513  0.2453 -0.0114  0.5568
 4192TIP3    H112582   4.981   5.907   0.428 -1.4218 -0.1598  0.4907
 4192TIP3    H212583   4.933   5.923   0.570  2.4039  0.7389  1.7840
 4193TIP3   OH212584   1.504   3.462   3.377  0.8328  0.1668  0.3193
 4193TIP3    H112585   1.452   3.457   3.457  1.4540 -4.4094  0.7010
 4193TIP3    H212586   1.593   3.476   3.408  0.7451  1.0995  0.1764
 4194TIP3   OH212587   1.301   2.662   2.551  0.2092 -0.2042 -0.4535
 4194TIP3    H112588   1.234   2.598   2.575 -0.6517  0.4633 -1.0552
 4194TIP3    H212589   1.345   2.623   2.476 -1.3534  0.5805 -1.8262
 4195TIP3   OH212590   4.407   3.745   1.442 -0.4076  0.4859  0.3288
 4195TIP3    H112591   4.333   3.804   1.459  1.2637  1.7635  4.2590
 4195TIP3    H212592   4.458   3.790   1.374 -1.5932  1.1441 -0.1621
 4196TIP3   OH212593   4.641   3.169   4.492 -0.4480  0.0531 -0.2986
 4196TIP3    H112594   4.708   3.118   4.538 -0.8235 -1.3789 -1.2539
 4196TIP3    H212595   4.565   3.168   4.549 -0.5358 -0.7034 -0.4244
 4197TIP3   OH212596   4.018   5.279   0.368 -0.4635  0.0713 -0.1947
 4197TIP3    H112597   4.030   5.184   0.363 -0.2376  0.0049  1.1790
 4197TIP3    H212598   4.076   5.307   0.439 -1.7392  0.9916  0.5374
 4198TIP3   OH212599   3.354   4.070   4.059  0.0651 -0.0808  0.3334
 4198TIP3    H112600   3.335   4.142   4.000  0.9452  0.4131  0.6279
 4198TIP3    H212601   3.340   4.106   4.147  2.7576  0.5028  0.6065
 4199TIP3   OH212602   6.014   0.700   0.925  0.2214  0.4819 -0.1153
 4199TIP3    H112603   6.077   0.762   0.886  0.3990 -0.2335 -1.0052
 4199TIP3    H212604   5.940   0.755   0.950  1.3591  1.4205  1.3790
 4200TIP3   OH212605   0.165   4.906   4.664  0.0208 -0.3521 -0.0476
 4200TIP3    H112606   0.164   5.001   4.666  1.6240 -0.2836 -1.2797
 4200TIP3    H212607   0.209   4.881   4.745  1.8869  0.0655 -0.8961
 4201TIP3   OH212608   1.872   0.530   4.674 -0.1865 -0.1001  0.3178
 4201TIP3    H112609   1.806   0.581   4.721  0.4719  1.9201 -0.7994
 4201TIP3    H212610   1.851   0.542   4.581  3.0860  2.8834 -0.2778
 4202TIP3   OH212611   1.712   0.477   2.304  0.2565  0.2561  0.2383
 4202TIP3    H112612   1.700   0.411   2.236  2.1482  2.3024 -2.3378
 4202TIP3    H212613   1.634   0.532   2.298 -0.7443 -0.9563  1.5404
 4203TIP3   OH212614   5.351   0.539   1.534 -0.0320  0.2904  0.1899
 4203TIP3    H112615   5.394   0.624   1.527  0.7843  0.0356  1.8122
 4203TIP3    H212616   5.317   0.523   1.446 -1.0110  2.6980  0.0326
 4204TIP3   OH212617   2.627   4.528   2.232 -0.1204  0.0759  0.6083
 4204TIP3    H112618   2.700   4.578   2.195  1.5854 -1.7301  1.3208
 4204TIP3    H212619   2.564   4.520   2.160  1.1108  0.3558 -0.5493
 4205TIP3   OH212620   3.549   0.935   0.304  0.0838 -0.3332 -0.3730
 4205TIP3    H112621   3.596   0.910   0.225 -0.7242  2.2709 -1.7786
 4205TIP3    H212622   3.458   0.945   0.276 -0.6275 -1.3368  1.3809
 4206TIP3   OH212623   4.001   0.755   1.807  0.1040  0.1792 -0.2738
 4206TIP3    H112624   4.049   0.832   1.776  2.1487 -0.3364  1.3810
 4206TIP3    H212625   4.018   0.688   1.740 -0.3537  0.6779 -0.9051
 4207TIP3   OH212626   5.166   5.049   1.056 -0.9491 -0.4460  0.6423
 4207TIP3    H112627   5.174   5.072   1.149  0.8309  2.1638 -0.0400
 4207TIP3    H212628   5.154   5.133   1.012 -0.6600 -1.5229 -1.6091
 4208TIP3   OH212629   2.945   5.889   1.764  0.1027  0.4233 -0.4136
 4208TIP3    H112630   2.917   5.951   1.696 -0.3987 -0.9016 -1.4588
 4208TIP3    H212631   2.889   5.812   1.751  1.4327 -0.6796  0.1580
 4209TIP3   OH212632   0.550   3.043   1.347 -0.1532  0.5672 -0.2362
 4209TIP3    H112633   0.620   2.979   1.335 -0.1449  0.4796  0.2665
 4209TIP3    H212634   0.595   3.124   1.369 -0.1874  0.6220 -0.3704
 4210TIP3   OH212635   1.970   5.083   4.114  0.0143  0.2328 -0.3265
 4210TIP3    H112636   2.030   5.096   4.187 -0.7051 -0.5700  0.4395
 4210TIP3    H212637   2.026   5.080   4.036  0.9266 -0.1891  0.3285
 4211TIP3   OH212638   4.218   0.959   4.602 -0.2641 -0.5136 -0.1813
 4211TIP3    H112639   4.220   0.866   4.624 -0.0433 -0.1438  1.5222
 4211TIP3    H212640   4.300   0.994   4.637 -0.9760  0.5589  0.4816
 4212TIP3   OH212641   2.502   5.585   3.832 -0.1699  0.2999 -0.7632
 4212TIP3    H112642   2.484   5.551   3.744 -0.9693 -1.9926  0.2128
 4212TIP3    H212643   2.559   5.519   3.872  1.9739  2.3377 -0.2165
 4213TIP3   OH212644   2.950   5.736   1.388 -0.2166 -0.2054 -0.4240
 4213TIP3    H112645   2.937   5.728   1.294 -0.9516 -0.4318 -0.3148
 4213TIP3    H212646   3.044   5.743   1.399 -0.1533  0.3239 -1.2092
 4214TIP3   OH212647   5.043   2.682   3.907 -0.2733  0.0775  0.2832
 4214TIP3    H112648   5.021   2.767   3.946  0.7374  0.4819  0.0015
 4214TIP3    H212649   5.130   2.695   3.870 -1.0678 -0.3721 -1.8692
 4215TIP3   OH212650   4.002   2.567   3.226  0.2452 -0.2074  0.2739
 4215TIP3    H112651   3.981   2.579   3.133  1.1938 -0.2113  0.0502
 4215TIP3    H212652   3.919   2.541   3.266 -0.1760 -0.1916 -0.5672
 4216TIP3   OH212653   5.387   3.643   4.777 -0.0191  0.4539 -0.2682
 4216TIP3    H112654   5.366   3.650   4.871  0.7566  0.3536 -0.0814
 4216TIP3    H212655   5.411   3.731   4.751 -0.0611  0.4459 -0.3356
 4217TIP3   OH212656   0.178   2.912   3.776  0.1356 -0.1333  0.7746
 4217TIP3    H112657   0.208   2.828   3.742  2.2244  0.1747  1.7388
 4217TIP3    H212658   0.130   2.951   3.704 -0.9624 -2.1612  0.3241
 4218TIP3   OH212659   4.873   0.412   4.309 -0.1744  0.2656 -0.0449
 4218TIP3    H112660   4.909   0.393   4.222  0.3008 -0.8380  0.3795
 4218TIP3    H212661   4.922   0.488   4.339  1.0793 -0.5763  0.0808
 4219TIP3   OH212662   4.651   1.242   3.987 -0.4394 -0.6669 -0.0991
 4219TIP3    H112663   4.562   1.243   4.021 -1.0079  1.8734 -1.4548
 4219TIP3    H212664   4.705   1.272   4.060 -0.8152 -1.1779  0.3998
 4220TIP3   OH212665   2.855   1.961   3.642  0.0094 -0.2472  0.4556
 4220TIP3    H112666   2.876   1.939   3.551  1.0994 -1.3660  0.9496
 4220TIP3    H212667   2.810   2.046   3.637  0.2891 -0.1732 -1.0975
 4221TIP3   OH212668   2.120   2.942   1.936  0.2906  0.4982 -0.2806
 4221TIP3    H112669   2.050   2.904   1.989 -0.2394 -0.7572 -1.8238
 4221TIP3    H212670   2.194   2.882   1.946  0.6762  1.0295  0.1556
 4222TIP3   OH212671   0.546   1.213   0.388  0.1140  0.0477 -0.4422
 4222TIP3    H112672   0.550   1.299   0.347 -0.5039  0.3429  0.0954
 4222TIP3    H212673   0.522   1.153   0.317 -0.6197  0.5023 -0.5880
 4223TIP3   OH212674   4.383   1.072   0.614 -0.0229 -0.4917 -0.9743
 4223TIP3    H112675   4.382   0.985   0.655 -2.8829  0.1830  0.7213
 4223TIP3    H212676   4.411   1.131   0.684  2.2022 -0.0095 -2.2025
 4224TIP3   OH212677   0.733   3.866   0.911  0.1946  0.2190  0.1661
 4224TIP3    H112678   0.786   3.940   0.940  1.3144 -1.1065  1.6897
 4224TIP3    H212679   0.746   3.799   0.978  0.8310 -2.1124 -2.0936
 4225TIP3   OH212680   3.907   0.009   1.940  0.2091 -0.0654 -0.3566
 4225TIP3    H112681   3.967   0.071   1.982  0.8404 -1.5889  1.0700
 4225TIP3    H212682   3.944  -0.077   1.959 -0.5081 -0.9216 -2.5005
 4226TIP3   OH212683   0.718   4.606   1.043 -0.2170 -0.5896  0.3408
 4226TIP3    H112684   0.784   4.671   1.017  1.9671 -3.3123 -1.4911
 4226TIP3    H212685   0.759   4.557   1.115 -0.6615 -1.6800 -0.1273
 4227TIP3   OH212686   6.207   1.030   4.622  0.6058  0.5547 -0.0003
 4227TIP3    H112687   6.286   0.982   4.649  0.5198  1.1992  1.5210
 4227TIP3    H212688   6.135   0.969   4.638  0.7257  0.1855 -0.8107
 4228TIP3   OH212689   1.419   2.924   0.978 -0.5875  0.6281 -0.3038
 4228TIP3    H112690   1.425   2.941   1.072 -2.7397  1.4750 -0.2497
 4228TIP3    H212691   1.471   2.994   0.938  1.7577 -0.6985  0.2149
 4229TIP3   OH212692   0.900   5.043   3.149 -0.1946 -0.4589 -0.6148
 4229TIP3    H112693   0.912   4.993   3.230 -2.5525  0.7242  0.5655
 4229TIP3    H212694   0.988   5.075   3.128  0.2866  0.5519  2.4150
 4230TIP3   OH212695   1.400   2.726   1.334  0.0006 -0.0848 -0.0457
 4230TIP3    H112696   1.399   2.694   1.244 -0.6396 -0.7442  0.1823
 4230TIP3    H212697   1.465   2.796   1.335 -1.2994  1.2016 -1.4548
 4231TIP3   OH212698   2.449   1.006   1.741 -0.4200 -0.5285 -0.1065
 4231TIP3    H112699   2.453   1.083   1.798  0.0516 -0.9214  0.3911
 4231TIP3    H212700   2.395   1.035   1.666  0.7839  0.6840 -0.5394
 4232TIP3   OH212701   2.643   1.285   1.479  0.2264  0.1857  0.1771
 4232TIP3    H112702   2.639   1.375   1.447  2.0349  1.1939  2.4726
 4232TIP3    H212703   2.553   1.266   1.504 -0.0250  1.7921  0.6558
 4233TIP3   OH212704   0.674   3.157   3.723 -0.4435  0.0547  0.5743
 4233TIP3    H112705   0.602   3.135   3.664  0.3901  0.1685 -0.5076
 4233TIP3    H212706   0.751   3.119   3.683  0.2740  0.8254  1.1710
 4234TIP3   OH212707   2.695   5.021   0.276 -0.3961 -0.0588 -0.3909
 4234TIP3    H112708   2.708   5.062   0.190 -0.5452  0.9639  0.0581
 4234TIP3    H212709   2.641   4.944   0.258 -0.1850 -0.0140 -1.2525
 4235TIP3   OH212710   5.875   0.642   0.631  0.5672  0.2167  0.0288
 4235TIP3    H112711   5.934   0.669   0.701  0.3470 -0.1482  0.3606
 4235TIP3    H212712   5.924   0.573   0.585  0.5701  0.2052  0.0486
 4236TIP3   OH212713   3.216   5.644   2.992 -0.4703 -0.6857 -0.4842
 4236TIP3    H112714   3.133   5.603   2.965 -0.5376  0.0153 -1.3463
 4236TIP3    H212715   3.251   5.583   3.058 -1.9348 -0.7158  0.3152
 4237TIP3   OH212716   4.439   3.271   2.916  0.1363  0.3335 -0.4311
 4237TIP3    H112717   4.366   3.263   2.855 -0.0287 -0.1518 -0.1740
 4237TIP3    H212718   4.477   3.184   2.920  0.4304  0.4719 -0.1929
 4238TIP3   OH212719   1.287   5.520   2.252  0.0158  0.1387 -0.6641
 4238TIP3    H112720   1.320   5.453   2.311  0.7163  1.8227  0.9599
 4238TIP3    H212721   1.247   5.472   2.180  0.1186 -1.9872  0.6395
 4239TIP3   OH212722   1.975   5.607   2.289  0.1007  0.1052 -0.3765
 4239TIP3    H112723   1.936   5.601   2.376  0.0739  1.3515 -0.2868
 4239TIP3    H212724   1.908   5.651   2.236  1.1528  1.8654 -0.3313
 4240TIP3   OH212725   2.380   2.532   4.166  0.2301  0.2416 -0.0574
 4240TIP3    H112726   2.449   2.485   4.119  0.5682 -0.1714  0.8378
 4240TIP3    H212727   2.364   2.480   4.245 -1.8717 -0.2652 -0.7495
 4241TIP3   OH212728   1.289   1.976   3.623  0.3245 -0.0038  0.1660
 4241TIP3    H112729   1.196   1.984   3.646  0.1947 -0.2489 -0.2838
 4241TIP3    H212730   1.323   2.066   3.631 -0.6574  0.7240 -2.7573
 4242TIP3   OH212731   1.528   5.306   4.316  0.3531  0.2202  0.0259
 4242TIP3    H112732   1.547   5.332   4.406  1.1062  0.5589 -0.2173
 4242TIP3    H212733   1.602   5.341   4.265 -0.6146  0.9837 -0.8919
 4243TIP3   OH212734   5.885   4.231   3.149  0.4522  0.1853 -0.4876
 4243TIP3    H112735   5.878   4.205   3.058 -5.2383 -1.4076 -0.0252
 4243TIP3    H212736   5.878   4.326   3.148 -1.1155  0.1045 -1.7941
 4244TIP3   OH212737   2.961   1.680   0.094 -0.1980  0.2934 -0.6117
 4244TIP3    H112738   2.950   1.764   0.049 -1.4648  0.0922 -0.6991
 4244TIP3    H212739   2.961   1.615   0.024 -2.8232 -0.0829 -0.3573
 4245TIP3   OH212740   3.771   1.024   3.447  0.0927  0.2173 -0.0183
 4245TIP3    H112741   3.719   0.965   3.392  0.6489  0.4741 -0.8461
 4245TIP3    H212742   3.706   1.073   3.497 -0.3677 -1.5095  1.1654
 4246TIP3   OH212743   0.748   3.064   3.051 -0.4343  0.8199 -0.4851
 4246TIP3    H112744   0.733   3.054   2.957  0.6239 -1.3552 -0.4693
 4246TIP3    H212745   0.839   3.091   3.058  0.2640 -1.4924 -0.0365
 4247TIP3   OH212746   1.801   3.598   5.143  0.6019 -0.2929  0.4276
 4247TIP3    H112747   1.811   3.565   5.233 -0.6615 -0.8210  0.3938
 4247TIP3    H212748   1.821   3.523   5.088  1.8790  0.1675  0.2328
 4248TIP3   OH212749   0.175   4.920   1.451  0.1096 -0.6181  0.5173
 4248TIP3    H112750   0.193   4.827   1.440  0.4030 -0.6246  1.0379
 4248TIP3    H212751   0.245   4.965   1.403 -2.1933 -0.6227 -3.2952
 4249TIP3   OH212752   4.997   3.348   2.824 -0.5352  0.2214  0.3241
 4249TIP3    H112753   5.006   3.349   2.920 -0.6642  0.9986  0.3305
 4249TIP3    H212754   4.910   3.313   2.809 -0.1140 -0.9349  0.4518
 4250TIP3   OH212755   5.059   2.422   5.038 -0.1137 -0.1561 -0.5047
 4250TIP3    H112756   5.100   2.338   5.017  0.8956  0.5970 -1.6595
 4250TIP3    H212757   4.966   2.408   5.019 -0.1898 -1.3773  0.5597
 4251TIP3   OH212758   5.239   0.424   3.641 -0.4409 -0.4576 -0.0722
 4251TIP3    H112759   5.250   0.330   3.627  0.0408 -0.5983  1.0772
 4251TIP3    H212760   5.205   0.430   3.731  0.7704  0.5026  0.3538
 4252TIP3   OH212761   5.211   1.203   0.725  0.7014  0.3346  0.1549
 4252TIP3    H112762   5.248   1.290   0.709 -0.2355  1.6473  3.9716
 4252TIP3    H212763   5.117   1.214   0.711  0.4152  0.3609  1.9249
 4253TIP3   OH212764   5.553   2.621   2.658  0.3797  0.0537 -0.1854
 4253TIP3    H112765   5.512   2.703   2.632 -0.5057 -0.2834  0.1274
 4253TIP3    H212766   5.591   2.640   2.744  0.4504  0.2228 -0.2524
 4254TIP3   OH212767   0.199   5.593   2.765 -0.2131 -0.6928  0.0558
 4254TIP3    H112768   0.110   5.622   2.745 -0.4277 -0.8700  0.7439
 4254TIP3    H212769   0.255   5.651   2.713 -0.5969  1.3026  1.7226
 4255TIP3   OH212770   1.845   0.988   2.600 -0.0120 -0.3243  0.1363
 4255TIP3    H112771   1.795   1.029   2.529  1.7680 -2.2534 -2.3978
 4255TIP3    H212772   1.933   1.026   2.593  0.2257 -0.6261  1.2792
 4256TIP3   OH212773   4.775   5.661   3.842 -0.3187  0.6842 -1.4180
 4256TIP3    H112774   4.691   5.697   3.813 -0.5217  1.0296 -0.4513
 4256TIP3    H212775   4.824   5.737   3.873 -0.3379  0.2672 -0.3368
 4257TIP3   OH212776   5.540   5.803   0.468 -0.0284 -0.0865 -0.0060
 4257TIP3    H112777   5.585   5.852   0.400  0.9210 -0.0119  0.6514
 4257TIP3    H212778   5.564   5.712   0.451 -0.9224 -0.2311 -0.5848
 4258TIP3   OH212779   3.708   2.571   3.793 -0.4960 -0.3842  0.4213
 4258TIP3    H112780   3.768   2.640   3.821 -0.8635 -0.1635  0.6875
 4258TIP3    H212781   3.692   2.589   3.701 -3.5791  2.2694  1.2784
 4259TIP3   OH212782   6.158   4.720   3.793 -0.1658 -0.3060 -0.2415
 4259TIP3    H112783   6.163   4.813   3.814  1.1887 -0.2484 -0.7295
 4259TIP3    H212784   6.125   4.679   3.873 -1.6337  0.6661 -0.3074
 4260TIP3   OH212785   0.229   1.762   4.962 -0.5872  0.1908  1.0276
 4260TIP3    H112786   0.224   1.827   4.893  1.6682  0.1964  0.7805
 4260TIP3    H212787   0.209   1.679   4.919 -0.3773  0.3465  0.6247
 4261TIP3   OH212788   4.810   5.411   2.657 -0.6935 -0.1165  0.1168
 4261TIP3    H112789   4.840   5.472   2.591  0.1093  0.5933  1.1101
 4261TIP3    H212790   4.715   5.408   2.646 -0.5915  0.1493 -0.9128
 4262TIP3   OH212791   3.213   5.206   2.327  0.0980 -0.0668  0.5348
 4262TIP3    H112792   3.298   5.237   2.359 -0.9232  2.3758  1.1521
 4262TIP3    H212793   3.152   5.277   2.348 -1.5145 -0.2313 -2.8921
 4263TIP3   OH212794   1.241   2.428   1.276  0.0878  0.6085 -0.2266
 4263TIP3    H112795   1.207   2.421   1.187  0.9241 -0.7040 -0.4687
 4263TIP3    H212796   1.202   2.509   1.310 -1.8693  0.0787 -1.0651
 4264TIP3   OH212797   0.106   0.259   3.649 -0.7219 -0.7347  0.5042
 4264TIP3    H112798   0.172   0.213   3.701  0.0863  1.3174  1.3985
 4264TIP3    H212799   0.022   0.221   3.679 -0.1028 -1.6939  1.0970
 4265TIP3   OH212800   6.164   3.072   3.132  0.4665  0.4039 -0.7764
 4265TIP3    H112801   6.081   3.065   3.180  1.3388 -0.5671  0.6300
 4265TIP3    H212802   6.170   3.166   3.110 -0.6571  0.6085 -0.2998
 4266TIP3   OH212803   1.672   1.971   1.409  0.0775 -0.0945 -0.5054
 4266TIP3    H112804   1.674   2.013   1.323 -0.1346 -0.5024 -0.7138
 4266TIP3    H212805   1.663   1.878   1.390  1.2564 -0.3116 -0.0655
 4267TIP3   OH212806   0.450   1.558   0.065  0.2758  0.0386 -0.7352
 4267TIP3    H112807   0.446   1.542  -0.029  0.6966 -0.8661 -0.6105
 4267TIP3    H212808   0.460   1.653   0.073  2.6139 -0.0572 -1.6881
 4268TIP3   OH212809   3.833   2.739   3.486  0.1821 -0.1083  0.0774
 4268TIP3    H112810   3.825   2.644   3.479  1.3972 -0.2745  0.6928
 4268TIP3    H212811   3.904   2.752   3.548  0.1562  1.2139 -0.1509
 4269TIP3   OH212812   0.652   3.228   2.249 -0.3289  0.1875  0.2456
 4269TIP3    H112813   0.611   3.180   2.321 -0.2075  0.6752  0.6477
 4269TIP3    H212814   0.723   3.171   2.219  0.3385  0.4445  1.2554
 4270TIP3   OH212815   3.718   4.874   2.994  0.6013  0.1147  0.2888
 4270TIP3    H112816   3.633   4.916   3.008  0.5857  0.7591 -1.4281
 4270TIP3    H212817   3.780   4.947   2.990  1.1834 -0.3243  1.1141
 4271TIP3   OH212818   2.131   4.489   2.179  0.0039 -0.2023 -0.0945
 4271TIP3    H112819   2.200   4.429   2.205  0.2934 -0.0185 -0.4203
 4271TIP3    H212820   2.175   4.574   2.173 -0.0389 -0.2475 -1.2105
 4272TIP3   OH212821   4.457   2.957   1.110  0.3014  0.8438  0.5458
 4272TIP3    H112822   4.391   2.935   1.045  1.5563 -0.3892 -0.3778
 4272TIP3    H212823   4.420   3.032   1.158 -0.9038  1.4332 -1.1965
 4273TIP3   OH212824   5.809   3.729   3.030 -0.1661 -0.5364  0.5686
 4273TIP3    H112825   5.753   3.798   2.994 -0.6792 -0.8526  0.7630
 4273TIP3    H212826   5.846   3.686   2.953 -0.0771 -0.2459  0.4434
 4274TIP3   OH212827   2.338   0.574   1.357 -0.6834  0.3441  0.0866
 4274TIP3    H112828   2.265   0.513   1.343 -0.1461  0.0726 -1.9113
 4274TIP3    H212829   2.340   0.627   1.277  2.6208 -1.0859 -0.9315
 4275TIP3   OH212830   2.052   0.528   4.110 -0.0718 -0.1227  0.3259
 4275TIP3    H112831   2.085   0.490   4.191  0.9688  2.8362  1.4115
 4275TIP3    H212832   2.130   0.547   4.059 -0.6756 -1.1326 -1.0461
 4276TIP3   OH212833   4.457   4.680   3.926 -0.3274  0.2364  0.4901
 4276TIP3    H112834   4.465   4.591   3.960 -2.1029  0.5280  1.7968
 4276TIP3    H212835   4.447   4.735   4.004  1.2925  1.6857 -0.2636
 4277TIP3   OH212836   1.384   3.535   4.109 -0.0692 -0.5464  0.0348
 4277TIP3    H112837   1.392   3.627   4.083 -0.9331 -0.3318  0.4748
 4277TIP3    H212838   1.466   3.495   4.081  0.0534  0.2168 -0.7508
 4278TIP3   OH212839   5.749   4.954   1.535  0.5996  0.2551 -0.8924
 4278TIP3    H112840   5.675   4.971   1.593  1.8065  1.3230  0.4249
 4278TIP3    H212841   5.710   4.934   1.451 -1.1756  1.8285 -0.5075
 4279TIP3   OH212842   1.206   1.755   1.842  0.6690 -0.1931 -1.1215
 4279TIP3    H112843   1.262   1.792   1.774 -0.4065  0.4111 -1.6889
 4279TIP3    H212844   1.159   1.684   1.798  0.4295 -0.2105 -0.8353
 4280TIP3   OH212845   2.571   4.256   2.192  0.0018  0.5637 -0.0202
 4280TIP3    H112846   2.636   4.191   2.218 -1.8253 -0.7805  1.4671
 4280TIP3    H212847   2.598   4.336   2.236  0.3205 -0.1288  1.0793
 4281TIP3   OH212848   1.507   2.014   0.054 -0.0941 -0.5064 -0.3871
 4281TIP3    H112849   1.561   2.057  -0.012 -0.1553 -0.6423 -0.5256
 4281TIP3    H212850   1.495   1.925   0.021  1.4938 -1.1923  0.7368
 4282TIP3   OH212851   3.404   1.808   1.125  0.1465 -0.2801 -0.3682
 4282TIP3    H112852   3.361   1.885   1.162  2.3934  0.4402  0.8887
 4282TIP3    H212853   3.422   1.832   1.034  2.2527  1.4040  0.4199
 4283TIP3   OH212854   2.179   4.463   3.429 -0.4458  0.1256 -0.8498
 4283TIP3    H112855   2.271   4.436   3.430 -0.1732  0.9902 -1.3884
 4283TIP3    H212856   2.146   4.440   3.516  0.4161  0.2686 -0.4756
 4284TIP3   OH212857   6.222   3.674   2.360  0.3963 -0.4302  0.0457
 4284TIP3    H112858   6.250   3.737   2.426  2.5235 -0.4271 -0.7918
 4284TIP3    H212859   6.272   3.595   2.380  0.0111 -0.8784 -0.7278
 4285TIP3   OH212860   1.913   1.432   1.834  0.2347 -0.0863  0.2301
 4285TIP3    H112861   1.900   1.464   1.745 -0.7783 -0.4068  0.2539
 4285TIP3    H212862   1.830   1.392   1.858  0.9886 -1.4245  0.7466
 4286TIP3   OH212863   2.893   4.237   0.906 -0.3887 -0.6085 -0.1045
 4286TIP3    H112864   2.871   4.224   0.814 -1.9477  1.4597 -0.0958
 4286TIP3    H212865   2.924   4.327   0.911  0.4768 -0.9485  1.2821
 4287TIP3   OH212866   6.169   5.440   0.347 -0.1232 -0.6668  0.1899
 4287TIP3    H112867   6.212   5.497   0.412  2.1262 -0.7251 -1.1454
 4287TIP3    H212868   6.142   5.500   0.278 -0.5824 -0.8574  0.2047
 4288TIP3   OH212869   1.744   0.389   1.943  0.4507 -0.5774 -0.5263
 4288TIP3    H112870   1.802   0.465   1.949  1.0203 -1.0607  0.2585
 4288TIP3    H212871   1.731   0.377   1.849 -1.3845  1.7627 -0.6627
 4289TIP3   OH212872   4.386   0.332   2.411 -0.1405  0.0851 -0.5405
 4289TIP3    H112873   4.321   0.320   2.341  0.2184 -0.4109 -0.7917
 4289TIP3    H212874   4.352   0.279   2.484  0.2321 -0.5898 -0.8451
 4290TIP3   OH212875   2.775   5.143   0.029 -0.0150  0.0441 -0.6244
 4290TIP3    H112876   2.744   5.223   0.070  0.4691  0.0597 -0.2830
 4290TIP3    H212877   2.730   5.140  -0.056 -1.2396 -0.1218 -0.0042
 4291TIP3   OH212878   4.437   0.413   2.068 -0.6237 -0.3288 -0.2003
 4291TIP3    H112879   4.391   0.477   2.014 -0.3691 -1.5903 -2.0035
 4291TIP3    H212880   4.485   0.466   2.132 -2.6284  1.1110  0.2012
 4292TIP3   OH212881   1.068   0.017   3.691 -0.4319  0.5480 -0.2210
 4292TIP3    H112882   1.043  -0.051   3.753  1.4277 -0.3344 -0.3674
 4292TIP3    H212883   1.143   0.061   3.732  1.9103 -1.0988 -2.3802
 4293TIP3   OH212884   5.517   2.780   4.653 -0.2419  0.7156 -0.0873
 4293TIP3    H112885   5.564   2.709   4.610  0.6541  0.1897  1.6932
 4293TIP3    H212886   5.583   2.825   4.706 -1.3336  1.2044  0.9076
 4294TIP3   OH212887   1.791   0.508   5.063  0.0085  0.4133  0.2849
 4294TIP3    H112888   1.876   0.465   5.073  0.4286  1.5290  2.0667
 4294TIP3    H212889   1.727   0.437   5.069  0.7862 -0.4175 -0.8808
 4295TIP3   OH212890   4.195   4.067   2.265  0.7374 -0.9881 -0.3236
 4295TIP3    H112891   4.268   4.015   2.299  1.2363 -0.2984 -0.3188
 4295TIP3    H212892   4.209   4.155   2.300 -0.0136 -0.8114 -0.4482
 4296TIP3   OH212893   1.474   0.531   1.720 -0.1250  0.2770 -0.3737
 4296TIP3    H112894   1.394   0.510   1.768 -1.8206  0.0306 -3.0870
 4296TIP3    H212895   1.498   0.619   1.749 -0.7001 -0.0798  1.2799
 4297TIP3   OH212896   4.802   0.221   4.498 -0.1751 -0.4513 -0.1694
 4297TIP3    H112897   4.810   0.278   4.422 -0.6074 -0.4278 -0.2025
 4297TIP3    H212898   4.884   0.172   4.501  0.5121  0.6994  0.2867
 4298TIP3   OH212899   3.793   3.786   1.134  0.2155  0.0924  0.0159
 4298TIP3    H112900   3.763   3.729   1.205  0.5244 -1.2376 -0.8914
 4298TIP3    H212901   3.880   3.814   1.162  0.5056 -0.7575 -0.0112
 4299TIP3   OH212902   2.541   5.579   3.501 -0.0930 -0.3640 -0.3242
 4299TIP3    H112903   2.549   5.665   3.541 -0.0871 -0.1490 -0.7797
 4299TIP3    H212904   2.620   5.532   3.530  0.1697 -0.0366 -0.5026
 4300TIP3   OH212905   2.739   2.128   3.423  0.1580  0.5687  0.2150
 4300TIP3    H112906   2.742   2.217   3.460  0.8894  1.1289 -1.1410
 4300TIP3    H212907   2.830   2.107   3.403 -0.2477  0.5461 -1.8150
 4301TIP3   OH212908   3.697   0.623   2.049 -0.2217 -0.1255 -0.0034
 4301TIP3    H112909   3.756   0.548   2.058  1.4260  0.6409 -2.8991
 4301TIP3    H212910   3.752   0.691   2.008 -1.9786  2.2406  1.3418
 4302TIP3   OH212911   6.034   3.592   3.886 -0.4514  0.3585  0.1024
 4302TIP3    H112912   6.036   3.589   3.981 -0.4784 -1.2625  0.0660
 4302TIP3    H212913   5.941   3.600   3.863 -0.5098 -0.0762  0.1919
 4303TIP3   OH212914   4.967   5.015   2.097  0.7979 -0.0809 -0.1714
 4303TIP3    H112915   4.915   4.970   2.163 -0.1938  1.9491  0.5305
 4303TIP3    H212916   5.054   5.024   2.137  0.2980  0.8349  0.7476
 4304TIP3   OH212917   0.631   0.372   3.020 -0.1474 -0.3698 -0.2382
 4304TIP3    H112918   0.670   0.421   2.948 -1.3776 -0.8025 -1.2390
 4304TIP3    H212919   0.551   0.335   2.983 -0.9504 -0.3870  1.4411
 4305TIP3   OH212920   0.358   3.435   2.856  0.5595 -0.1799 -0.5665
 4305TIP3    H112921   0.298   3.388   2.914  0.5726 -0.0277 -0.4305
 4305TIP3    H212922   0.311   3.514   2.830  1.4665  1.0177  1.2184
 4306TIP3   OH212923   4.953   2.256   2.352  0.2349  0.4326 -0.3653
 4306TIP3    H112924   5.019   2.188   2.333 -0.8463 -0.7515 -0.0092
 4306TIP3    H212925   4.872   2.207   2.367 -0.2991  1.7127  1.1971
 4307TIP3   OH212926   1.793   3.409   3.774  0.2295  0.3740  0.2046
 4307TIP3    H112927   1.841   3.336   3.813 -0.2352 -0.1032 -0.1157
 4307TIP3    H212928   1.856   3.481   3.774  0.2365  0.4168  1.9028
 4308TIP3   OH212929   2.809   2.203   0.351  0.1061  0.6193 -0.4615
 4308TIP3    H112930   2.777   2.174   0.265 -0.0042  1.7211 -0.8113
 4308TIP3    H212931   2.764   2.147   0.413  0.2403 -0.2479 -1.1224
 4309TIP3   OH212932   6.252   4.250   3.509  0.1419 -0.2658  0.4357
 4309TIP3    H112933   6.209   4.169   3.482 -1.4881  0.2738  1.3268
 4309TIP3    H212934   6.250   4.305   3.430  3.5947 -1.8951 -1.0293
 4310TIP3   OH212935   5.374   4.494   4.363 -0.3617 -0.2180 -0.2533
 4310TIP3    H112936   5.398   4.581   4.396  1.0207 -0.9324  0.7414
 4310TIP3    H212937   5.449   4.467   4.311  1.0847 -2.3716  2.6247
 4311TIP3   OH212938   5.132   1.159   2.842 -0.0927 -0.0223 -0.2115
 4311TIP3    H112939   5.096   1.090   2.897  0.5095  1.2805  1.9228
 4311TIP3    H212940   5.057   1.216   2.822  0.0201  0.5635  0.9541
 4312TIP3   OH212941   4.267   4.111   4.598  0.7046 -0.1824 -0.2643
 4312TIP3    H112942   4.259   4.206   4.595 -1.6628 -0.3520 -2.5898
 4312TIP3    H212943   4.335   4.091   4.534  1.1173 -0.0753  0.1366
 4313TIP3   OH212944   3.952   5.597   0.694 -0.1098 -0.4247  0.1732
 4313TIP3    H112945   3.992   5.606   0.781  1.4177  0.5061 -0.6013
 4313TIP3    H212946   4.020   5.623   0.633 -2.6776  4.3232 -1.1491
 4314TIP3   OH212947   3.639   5.465   3.297 -0.4084  0.0894  0.8025
 4314TIP3    H112948   3.710   5.525   3.274 -0.9123  0.3090 -0.2469
 4314TIP3    H212949   3.683   5.383   3.320  0.2048  0.3918  0.7297
 4315TIP3   OH212950   1.232   1.855   0.340  0.6763 -0.3586  0.1946
 4315TIP3    H112951   1.184   1.889   0.264 -2.7440 -1.0061  1.8311
 4315TIP3    H212952   1.193   1.768   0.356  0.9316 -0.0813  2.8541
 4316TIP3   OH212953   5.380   3.409   4.603  0.5270 -0.8509 -0.1744
 4316TIP3    H112954   5.364   3.493   4.646  0.0074 -1.8948  1.8229
 4316TIP3    H212955   5.450   3.428   4.540  0.6057  1.0148  0.3944
 4317TIP3   OH212956   0.459   2.417   4.172 -0.3208  0.0016  0.1035
 4317TIP3    H112957   0.504   2.501   4.160 -1.5126  0.8056  0.9624
 4317TIP3    H212958   0.367   2.440   4.176 -0.6136 -1.2527  1.2089
 4318TIP3   OH212959   0.274   4.638   0.744  0.6518  0.2318  0.7734
 4318TIP3    H112960   0.362   4.634   0.782  0.3781  1.0227  1.5332
 4318TIP3    H212961   0.246   4.546   0.739  1.3126  0.0101  1.0285
 4319TIP3   OH212962   3.041   1.432   2.719  0.1911 -0.0877 -0.2331
 4319TIP3    H112963   2.974   1.500   2.720 -0.8403 -1.0815 -0.0605
 4319TIP3    H212964   3.038   1.396   2.630 -0.3150 -0.8945  0.0944
 4320TIP3   OH212965   2.692   5.451   1.940 -0.6507 -0.2058 -0.7402
 4320TIP3    H112966   2.619   5.505   1.971  0.7618  0.8144  1.0206
 4320TIP3    H212967   2.744   5.510   1.887  0.7099  0.1410  0.8950
 4321TIP3   OH212968   2.217   1.245   2.766 -0.0367 -0.7931 -0.7400
 4321TIP3    H112969   2.264   1.214   2.843  0.7103 -0.6000 -1.1122
 4321TIP3    H212970   2.138   1.190   2.763 -0.0252 -0.8684  0.0948
 4322TIP3   OH212971   2.776   2.428   0.049  0.4804 -0.5308  0.5373
 4322TIP3    H112972   2.843   2.481   0.093  0.7001  0.9386 -1.4361
 4322TIP3    H212973   2.704   2.489   0.032  1.2932 -0.3287 -3.0509
 4323TIP3   OH212974   3.301   3.171   4.705 -0.0805  0.6285  0.3102
 4323TIP3    H112975   3.371   3.124   4.660 -0.4140  0.4987 -0.0870
 4323TIP3    H212976   3.340   3.254   4.731  0.5677  0.0645  1.1784
 4324TIP3   OH212977   0.189   4.104   0.832  0.2186 -0.5416 -0.8430
 4324TIP3    H112978   0.134   4.116   0.910 -0.1569 -0.8218 -1.0640
 4324TIP3    H212979   0.227   4.017   0.843  1.3856  0.0184 -0.2175
 4325TIP3   OH212980   6.152   6.001   3.683  0.2969  0.1685 -0.0957
 4325TIP3    H112981   6.111   5.914   3.678  0.3846  0.1870 -2.7151
 4325TIP3    H212982   6.242   5.984   3.708 -0.5697 -0.0664  3.4293
 4326TIP3   OH212983   4.796   0.209   0.399 -0.3570  0.0463 -0.3808
 4326TIP3    H112984   4.750   0.287   0.367  0.3284 -0.3011 -2.3392
 4326TIP3    H212985   4.883   0.214   0.361  0.0716 -1.1245  0.3718
 4327TIP3   OH212986   4.178   3.379   2.778  0.2246  0.1707 -0.2095
 4327TIP3    H112987   4.148   3.452   2.723  1.9324  2.5459  1.7705
 4327TIP3    H212988   4.097   3.343   2.815 -0.6347  1.8360 -0.3567
 4328TIP3   OH212989   5.009   5.337   1.343 -0.0869  0.3803  0.0037
 4328TIP3    H112990   4.937   5.293   1.389 -0.1592  0.3329 -0.1534
 4328TIP3    H212991   5.080   5.340   1.407 -0.1651  0.2538  0.0970
 4329TIP3   OH212992   5.825   4.162   5.030 -0.0664 -1.2592 -0.5184
 4329TIP3    H112993   5.764   4.215   5.081  1.3134  0.0079 -0.1005
 4329TIP3    H212994   5.775   4.085   5.005 -1.5664 -0.6718  0.5249
 4330TIP3   OH212995   4.256   4.648   3.610 -0.3567  0.2282 -0.1344
 4330TIP3    H112996   4.176   4.668   3.659  0.5218  0.0977  1.4334
 4330TIP3    H212997   4.281   4.560   3.638 -0.2876 -0.2011 -1.4990
 4331TIP3   OH212998   4.155   3.085   1.419  0.1298  0.0117  0.1002
 4331TIP3    H112999   4.064   3.056   1.428  0.2462  0.0325  1.7119
 4331TIP3    H213000   4.207   3.011   1.451  0.6367  0.3486  0.0762
 4332TIP3   OH213001   5.278   3.788   3.676 -0.4064  0.4404  0.1572
 4332TIP3    H113002   5.352   3.844   3.652 -1.3828  1.0453 -1.6353
 4332TIP3    H213003   5.211   3.806   3.610 -2.1110 -0.2265  1.5913
 4333TIP3   OH213004   1.407   2.497   2.114 -0.2659 -0.0832 -0.2574
 4333TIP3    H113005   1.406   2.447   2.196  0.6754  1.5067  0.7772
 4333TIP3    H213006   1.498   2.494   2.085  0.0910  1.9364  0.4680
 4334TIP3   OH213007   4.065   1.499   2.143  0.3198 -0.3601 -0.0501
 4334TIP3    H113008   4.118   1.474   2.068  0.1081  0.0556 -0.3427
 4334TIP3    H213009   4.110   1.577   2.178  0.4510 -0.5858  0.2921
 4335TIP3   OH213010   0.384   5.621   4.026 -0.3023  0.0313  0.3730
 4335TIP3    H113011   0.442   5.697   4.041  1.3036 -0.9203 -0.6847
 4335TIP3    H213012   0.440   5.545   4.043 -0.7019 -0.9609 -2.3319
 4336TIP3   OH213013   3.887   2.263   1.895  0.2337 -0.1584 -0.1007
 4336TIP3    H113014   3.969   2.309   1.915  0.3239  0.3502 -1.5478
 4336TIP3    H213015   3.863   2.221   1.978  0.7673  1.5128  0.9635
 4337TIP3   OH213016   4.858   3.877   4.918  0.4008 -0.1083  0.2020
 4337TIP3    H113017   4.785   3.857   4.976  0.8120 -0.2437  0.6859
 4337TIP3    H213018   4.853   3.971   4.904 -0.6721 -0.3096 -0.8829
 4338TIP3   OH213019   2.861   0.707   1.945  0.4449 -0.7336 -0.5254
 4338TIP3    H113020   2.780   0.731   1.901  0.6296  1.2941  0.1278
 4338TIP3    H213021   2.929   0.754   1.897  0.7545  0.7431  1.2716
 4339TIP3   OH213022   2.518   2.025   4.776 -0.6256  0.1816 -0.4500
 4339TIP3    H113023   2.607   2.037   4.744 -0.5369  1.3940  0.1937
 4339TIP3    H213024   2.512   2.081   4.853 -1.9167  0.0392 -0.4204
 4340TIP3   OH213025   4.560   5.852   0.636  0.6994  0.6674  0.0632
 4340TIP3    H113026   4.596   5.896   0.559 -0.8485  1.7790 -0.0659
 4340TIP3    H213027   4.611   5.771   0.643  1.4250  0.9323 -1.6292
 4341TIP3   OH213028   1.051   2.918   1.290  0.0250  0.6569  0.5650
 4341TIP3    H113029   0.998   2.996   1.304 -1.1423 -0.2840  1.6827
 4341TIP3    H213030   1.137   2.941   1.326 -0.5615  1.1400  1.7194
 4342TIP3   OH213031   5.208   2.394   0.305  0.4923  0.4772  0.7414
 4342TIP3    H113032   5.287   2.366   0.259 -0.0082 -1.3921  0.9187
 4342TIP3    H213033   5.187   2.480   0.268  0.6180 -0.5256 -1.8975
 4343TIP3   OH213034   1.219   3.149   4.758 -0.0462  0.4820 -0.2296
 4343TIP3    H113035   1.147   3.211   4.761  0.4629  1.0581  0.6898
 4343TIP3    H213036   1.245   3.146   4.666 -1.7042 -0.3104 -0.7026
 4344TIP3   OH213037   0.578   3.680   4.394 -0.2786  0.0861 -0.0518
 4344TIP3    H113038   0.526   3.759   4.376  0.5090  0.3425 -1.3758
 4344TIP3    H213039   0.668   3.711   4.400 -0.2321 -0.3275  2.4482
 4345TIP3   OH213040   0.656   2.273   4.320  0.2798 -0.0845  0.2074
 4345TIP3    H113041   0.669   2.206   4.253  2.7828  0.9282 -0.4455
 4345TIP3    H213042   0.616   2.346   4.274  2.3660  0.7634 -0.3886
 4346TIP3   OH213043   1.924   0.101   4.547 -0.2602  0.3186  0.3248
 4346TIP3    H113044   1.886   0.035   4.489  1.9581  0.4188 -1.3315
 4346TIP3    H213045   1.905   0.184   4.504 -1.8010  0.7438  1.6936
 4347TIP3   OH213046   3.562   2.244   1.618  0.1816 -0.0052 -0.7159
 4347TIP3    H113047   3.566   2.159   1.574  0.2162 -0.0234 -0.6776
 4347TIP3    H213048   3.573   2.224   1.711 -0.3829 -0.0191 -0.6486
 4348TIP3   OH213049   5.215   2.862   4.466 -0.0164 -0.1375 -0.0753
 4348TIP3    H113050   5.194   2.805   4.540  1.0341 -0.2876  0.1229
 4348TIP3    H213051   5.179   2.817   4.389 -0.5952 -0.2693  0.2678
 4349TIP3   OH213052   1.066   1.292   1.436  0.4361  0.3346 -0.1039
 4349TIP3    H113053   1.070   1.276   1.342  0.5568 -1.3547  0.1540
 4349TIP3    H213054   1.138   1.353   1.453  1.1237 -0.2098 -0.9571
 4350TIP3   OH213055   5.112   4.386   0.209 -0.5237  0.1538 -0.7123
 4350TIP3    H113056   5.072   4.460   0.164  1.2444  0.2761 -2.1909
 4350TIP3    H213057   5.106   4.314   0.147  1.8718  0.3033 -1.2309
 4351TIP3   OH213058   1.133   4.258   3.993 -0.7842  0.6725  0.2299
 4351TIP3    H113059   1.200   4.290   3.932 -1.4142  0.4665 -0.5880
 4351TIP3    H213060   1.076   4.333   4.007 -1.4433  0.3401 -0.5623
 4352TIP3   OH213061   5.523   3.661   0.702 -0.0256  0.1980 -0.1462
 4352TIP3    H113062   5.527   3.680   0.608 -0.1623 -0.4847 -0.2958
 4352TIP3    H213063   5.520   3.565   0.707  0.0369  0.2272  0.5582
 4353TIP3   OH213064   6.076   2.285   1.475  0.2781 -0.0322  0.3945
 4353TIP3    H113065   6.010   2.243   1.530 -1.5292  0.2424 -1.4582
 4353TIP3    H213066   6.032   2.362   1.439  0.6951 -1.2261 -2.9242
 4354TIP3   OH213067   0.355   2.133   3.693  0.1055 -0.0574  0.4941
 4354TIP3    H113068   0.337   2.160   3.783  1.7598  1.6614  0.3549
 4354TIP3    H213069   0.380   2.041   3.701 -1.4577 -0.4482  1.5317
 4355TIP3   OH213070   5.212   1.939   0.043  0.3195 -0.2303 -0.1624
 4355TIP3    H113071   5.145   1.879   0.075 -0.2886  0.1067 -0.7763
 4355TIP3    H213072   5.244   1.984   0.121  3.0584 -3.5005  0.8865
 4356TIP3   OH213073   4.065   1.556   3.083  0.4591  0.9571 -0.4875
 4356TIP3    H113074   3.974   1.578   3.063 -0.6414 -1.0720  1.7937
 4356TIP3    H213075   4.101   1.635   3.122 -0.9101  1.2791  0.1922
 4357TIP3   OH213076   0.544   1.182   2.615 -0.0905  0.0546  0.4772
 4357TIP3    H113077   0.528   1.147   2.527  0.2855 -0.5481  0.6439
 4357TIP3    H213078   0.639   1.189   2.622 -0.1813  2.2679  0.0189
 4358TIP3   OH213079   5.596   0.736   2.447 -0.2180 -0.4116 -0.5401
 4358TIP3    H113080   5.668   0.739   2.383 -0.0723  0.3456 -0.3526
 4358TIP3    H213081   5.615   0.808   2.508 -0.0965 -1.4186  0.6438
 4359TIP3   OH213082   4.488   2.901   2.235  0.0814  0.3553  0.6051
 4359TIP3    H113083   4.429   2.863   2.168 -2.4024  2.1002  1.6486
 4359TIP3    H213084   4.548   2.956   2.185  2.2578 -2.9007 -0.6976
 4360TIP3   OH213085   0.391   4.403   1.132  0.1905  0.0778  0.3389
 4360TIP3    H113086   0.416   4.410   1.224  1.6952  0.3987 -0.0790
 4360TIP3    H213087   0.458   4.349   1.093  0.0937  0.7352 -0.7700
 4361TIP3   OH213088   0.312   1.091   2.749 -0.1880 -0.1495  0.1248
 4361TIP3    H113089   0.296   1.140   2.831 -1.6209 -1.1465  0.4798
 4361TIP3    H213090   0.400   1.119   2.722  0.8252 -0.6103  2.5967
 4362TIP3   OH213091   5.549   3.946   1.639  0.1378  0.4223  0.2855
 4362TIP3    H113092   5.457   3.926   1.622 -0.5453  2.6694  0.9742
 4362TIP3    H213093   5.551   3.982   1.728  0.9711  3.9446 -0.9668
 4363TIP3   OH213094   4.925   2.612   4.717  0.3132 -0.2947  0.1226
 4363TIP3    H113095   4.892   2.605   4.627  0.7248 -0.1826 -0.0407
 4363TIP3    H213096   5.017   2.587   4.711  0.5123  0.3316  0.3999
 4364TIP3   OH213097   4.437   0.037   1.485  0.0843 -0.0444 -0.2825
 4364TIP3    H113098   4.496  -0.003   1.549  2.5275  0.5564 -2.0196
 4364TIP3    H213099   4.426   0.127   1.517 -0.6693 -0.4123  0.5329
 4365TIP3   OH213100   2.603   2.872   1.501 -0.0817 -0.2809  0.0261
 4365TIP3    H113101   2.617   2.807   1.432  0.0593 -0.0461 -0.1662
 4365TIP3    H213102   2.681   2.927   1.498 -0.8053  0.7343 -0.7256
 4366TIP3   OH213103   3.295   2.317   1.322 -0.3906 -0.1615 -0.4038
 4366TIP3    H113104   3.377   2.299   1.367 -1.2314 -0.2036  1.2063
 4366TIP3    H213105   3.320   2.371   1.247  1.2049 -1.0589 -0.5550
 4367TIP3   OH213106   2.806   3.306   3.444  0.5351  0.4417  0.1854
 4367TIP3    H113107   2.721   3.279   3.480  0.0337  0.6228 -0.8281
 4367TIP3    H213108   2.870   3.257   3.495 -0.2560 -0.9659 -0.1136
 4368TIP3   OH213109   0.088   3.883   3.141  0.3528 -0.7065  0.1218
 4368TIP3    H113110   0.135   3.929   3.071 -0.5620 -0.1452 -0.1398
 4368TIP3    H213111   0.099   3.939   3.218 -1.2637  0.3270 -0.3354
 4369TIP3   OH213112   5.703   3.109   4.326  0.4389  0.1164  0.3122
 4369TIP3    H113113   5.756   3.174   4.278  2.5759 -0.2402  2.0070
 4369TIP3    H213114   5.664   3.159   4.398  1.1618 -0.2141  0.9529
 4370TIP3   OH213115   6.156   3.001   3.771 -0.8854  0.5355  0.0595
 4370TIP3    H113116   6.119   3.086   3.744  0.2578  0.8722 -0.5149
 4370TIP3    H213117   6.228   2.987   3.710 -2.3482 -1.8949 -1.2619
 4371TIP3   OH213118   6.303   4.096   0.673 -0.2872 -0.3716  0.1058
 4371TIP3    H113119   6.358   4.043   0.730 -1.4068 -1.6128  0.0754
 4371TIP3    H213120   6.213   4.073   0.698 -0.8153 -0.8421 -2.0200
 4372TIP3   OH213121   3.062   0.656   2.296  0.4148  0.0147  0.7059
 4372TIP3    H113122   3.126   0.717   2.334 -1.3810  2.8345 -0.4332
 4372TIP3    H213123   2.979   0.679   2.339 -0.7598  0.0710 -1.4486
 4373TIP3   OH213124   4.592   3.812   0.701  0.1475  0.3098 -0.0515
 4373TIP3    H113125   4.573   3.738   0.644  1.9218 -0.9111  0.8519
 4373TIP3    H213126   4.558   3.786   0.786  1.0041  0.3975  0.3309
 4374TIP3   OH213127   2.077   0.927   0.148 -0.1274  0.6548  0.2449
 4374TIP3    H113128   2.019   0.852   0.131 -0.4235  1.0946 -0.7526
 4374TIP3    H213129   2.080   0.974   0.064  3.2672 -0.4553 -0.4146
 4375TIP3   OH213130   4.080   0.136   1.185  0.3809 -0.0407  0.4102
 4375TIP3    H113131   4.102   0.063   1.128 -1.0538  0.2226 -0.5319
 4375TIP3    H213132   4.141   0.206   1.160  0.9746 -0.5305  0.4911
 4376TIP3   OH213133   5.715   1.283   2.622 -0.8238 -0.1248 -0.0734
 4376TIP3    H113134   5.737   1.201   2.578 -0.2334 -0.3292  0.5841
 4376TIP3    H213135   5.783   1.294   2.688 -1.6709  0.1842  0.7785
 4377TIP3   OH213136   2.732   5.842   3.963 -0.1446  0.5457 -0.1749
 4377TIP3    H113137   2.749   5.936   3.966 -0.3822  0.5980 -0.3883
 4377TIP3    H213138   2.638   5.834   3.979  0.2624  0.1641  2.4394
 4378TIP3   OH213139   0.783   4.219   0.623  0.2566 -0.3953  0.0167
 4378TIP3    H113140   0.866   4.248   0.584 -0.6708  2.6958  0.1237
 4378TIP3    H213141   0.803   4.205   0.715  0.4849  1.4320  0.2796
 4379TIP3   OH213142   2.671   2.652   2.289  0.2782 -0.4394 -0.0270
 4379TIP3    H113143   2.593   2.598   2.301  0.5665 -0.9548 -0.5080
 4379TIP3    H213144   2.741   2.591   2.269  0.7499  0.0518  0.0895
 4380TIP3   OH213145   2.598   2.602   0.729  0.2371  0.5937 -0.0294
 4380TIP3    H113146   2.563   2.523   0.686  1.3880  0.0122  0.0615
 4380TIP3    H213147   2.682   2.616   0.686  0.6297  1.0090  0.8645
 4381TIP3   OH213148   5.809   2.560   3.309  0.2744  0.0190 -0.0080
 4381TIP3    H113149   5.724   2.538   3.271  0.5412  0.0491 -0.6336
 4381TIP3    H213150   5.789   2.628   3.373 -0.0990  0.5056 -0.6273
 4382TIP3   OH213151   2.179   1.836   1.835 -0.0431 -0.1608  0.1260
 4382TIP3    H113152   2.173   1.915   1.890 -3.7359  1.2797 -1.9891
 4382TIP3    H213153   2.129   1.770   1.882  0.8906 -0.5047  0.6763
 4383TIP3   OH213154   0.093   2.457   2.754 -0.3436 -0.0152 -0.6963
 4383TIP3    H113155   0.140   2.440   2.836 -0.0690  0.3229 -0.7828
 4383TIP3    H213156   0.054   2.372   2.731 -0.5779 -0.0734 -0.1220
 4384TIP3   OH213157   0.465   1.877   3.742 -0.1353 -0.7009  0.3520
 4384TIP3    H113158   0.522   1.952   3.759  0.0835 -0.4074 -1.4193
 4384TIP3    H213159   0.517   1.821   3.684 -0.8800 -1.4607  0.4011
 4385TIP3   OH213160   3.261   3.288   4.318 -0.6864 -0.5370  0.6539
 4385TIP3    H113161   3.257   3.197   4.288 -2.1161 -0.6389  1.0848
 4385TIP3    H213162   3.195   3.333   4.266 -1.0470 -0.0790  1.4898
 4386TIP3   OH213163   4.222   3.078   4.454  0.2704  0.3135  0.7221
 4386TIP3    H113164   4.166   3.005   4.481  0.1899  0.2244  0.3212
 4386TIP3    H213165   4.164   3.154   4.451  0.0354  0.1039 -0.2724
 4387TIP3   OH213166   1.371   5.417   2.527 -0.1463 -0.2216  0.3207
 4387TIP3    H113167   1.370   5.469   2.607  1.6589 -0.9888  0.8868
 4387TIP3    H213168   1.288   5.368   2.529 -0.7883  0.8722  0.9423
 4388TIP3   OH213169   4.547   4.503   1.969 -0.4801  0.0374 -0.3187
 4388TIP3    H113170   4.548   4.516   1.875 -2.9071  1.7624 -0.1828
 4388TIP3    H213171   4.460   4.468   1.989 -1.4889  3.2090  1.5729
 4389TIP3   OH213172   1.790   1.919   1.027 -0.2442  0.0660  0.3485
 4389TIP3    H113173   1.807   1.974   1.103 -1.0397  1.5038 -0.4929
 4389TIP3    H213174   1.852   1.950   0.961 -0.3349 -0.4128  0.0348
 4390TIP3   OH213175   3.987   1.303   1.750 -0.4422  0.1968  0.3187
 4390TIP3    H113176   3.916   1.317   1.812 -2.8925 -2.4752 -1.5987
 4390TIP3    H213177   4.056   1.363   1.778 -2.6525  1.5143  3.5111
 4391TIP3   OH213178   1.848   4.195   2.367 -0.0159 -0.1381 -0.2737
 4391TIP3    H113179   1.866   4.248   2.445 -0.8096 -1.5165  0.9025
 4391TIP3    H213180   1.934   4.175   2.331  0.8445 -3.3898  3.0088
 4392TIP3   OH213181   4.641   3.935   0.307  0.5531 -0.5792  0.1473
 4392TIP3    H113182   4.666   4.007   0.365 -1.1406 -0.0204  0.2384
 4392TIP3    H213183   4.635   3.858   0.365  0.8685 -0.4668  0.3306
 4393TIP3   OH213184   3.309   4.411   4.383  0.3449  0.6003  0.2649
 4393TIP3    H113185   3.388   4.417   4.436 -0.9213 -0.3520  2.3554
 4393TIP3    H213186   3.295   4.317   4.371 -0.2127  0.7731 -0.5265
 4394TIP3   OH213187   5.389   4.780   4.640 -0.0181 -0.1526  0.1848
 4394TIP3    H113188   5.460   4.759   4.579  0.4427  0.1000  0.6291
 4394TIP3    H213189   5.361   4.867   4.613 -0.8166 -0.6396 -0.6036
 4395TIP3   OH213190   6.088   4.642   2.951  0.0773 -0.2909  0.3640
 4395TIP3    H113191   6.179   4.668   2.967  0.1983 -1.3473  1.5431
 4395TIP3    H213192   6.089   4.607   2.862  0.8635 -0.4540  0.4272
 4396TIP3   OH213193   1.177   4.401   4.873  0.4804 -0.6043  0.3361
 4396TIP3    H113194   1.165   4.408   4.778 -0.9487 -2.3856  0.3212
 4396TIP3    H213195   1.271   4.412   4.886  0.4305  2.0368 -1.0010
 4397TIP3   OH213196   0.856   1.787   3.893  0.6616  0.7139 -1.0345
 4397TIP3    H113197   0.764   1.762   3.905  0.5111  0.6879 -2.1823
 4397TIP3    H213198   0.882   1.820   3.979  0.4575 -2.0325  0.2266
 4398TIP3   OH213199   0.180   3.496   3.220  0.0342 -0.1283  0.4255
 4398TIP3    H113200   0.192   3.506   3.314 -1.4036 -2.1573  0.9034
 4398TIP3    H213201   0.223   3.413   3.199  3.0780  1.7078 -1.3855
 4399TIP3   OH213202   3.100   1.149   4.733  0.4841 -0.4151 -0.2023
 4399TIP3    H113203   3.181   1.159   4.682  0.6062  2.0860  0.3501
 4399TIP3    H213204   3.032   1.133   4.668  1.0114  0.2966 -0.9550
 4400TIP3   OH213205   3.386   1.682   1.751  0.8149 -0.3308 -0.2470
 4400TIP3    H113206   3.449   1.672   1.679  1.5585 -0.5957  0.4177
 4400TIP3    H213207   3.438   1.663   1.829 -0.1299 -0.6473  0.3072
 4401TIP3   OH213208   0.855   4.846   4.654 -0.1538 -0.0431  0.1365
 4401TIP3    H113209   0.896   4.925   4.689  1.3684 -1.6153  2.1567
 4401TIP3    H213210   0.770   4.841   4.698 -0.4696  0.7073 -0.3781
 4402TIP3   OH213211   6.330   2.258   4.265  0.7997 -0.2674  0.3604
 4402TIP3    H113212   6.295   2.301   4.187  1.5303  0.8183  0.6144
 4402TIP3    H213213   6.265   2.190   4.285  0.8104 -0.8644 -1.4274
 4403TIP3   OH213214   4.077   1.401   0.533  0.5811 -1.0589 -0.2038
 4403TIP3    H113215   4.018   1.334   0.567 -1.1044  0.7459  0.6340
 4403TIP3    H213216   4.132   1.425   0.607  0.5731 -0.8926 -0.2514
 4404TIP3   OH213217   4.135   3.345   0.622 -1.0182 -0.4345  0.4300
 4404TIP3    H113218   4.073   3.418   0.622  0.8063  1.2212  1.1740
 4404TIP3    H213219   4.181   3.353   0.706  0.1192 -1.6644 -0.0335
 4405TIP3   OH213220   4.478   5.577   4.473  0.8124 -0.1582  0.3942
 4405TIP3    H113221   4.566   5.593   4.507  0.4856  0.3772  1.0020
 4405TIP3    H213222   4.422   5.576   4.550  0.3910 -1.3456  0.0977
 4406TIP3   OH213223   5.140   0.804   3.308  0.2958  0.1439 -0.8401
 4406TIP3    H113224   5.150   0.765   3.395  1.2753  1.7856 -0.1703
 4406TIP3    H213225   5.048   0.828   3.304  0.3858  0.6763  0.0356
 4407TIP3   OH213226   2.544   3.596   4.355 -0.5873 -0.6139  0.0038
 4407TIP3    H113227   2.531   3.627   4.266  0.6194  0.6747  0.2471
 4407TIP3    H213228   2.638   3.603   4.370 -0.7152 -1.2146  1.2346
 4408TIP3   OH213229   3.832   1.870   5.077  0.0793  0.5440 -0.1086
 4408TIP3    H113230   3.846   1.779   5.104  2.7944  1.2838  1.3292
 4408TIP3    H213231   3.753   1.866   5.022 -0.2605 -2.5481  0.3774
 4409TIP3   OH213232   3.671   3.627   0.217 -0.0687 -0.1915 -0.1335
 4409TIP3    H113233   3.742   3.689   0.205  0.3265 -0.8448 -1.3708
 4409TIP3    H213234   3.591   3.680   0.218  0.3382  0.4176 -0.1006
 4410TIP3   OH213235   4.276   0.591   3.241 -0.1831 -0.4320 -0.0193
 4410TIP3    H113236   4.352   0.559   3.291 -0.3068  2.0424  1.9613
 4410TIP3    H213237   4.200   0.563   3.292 -0.3303  1.5732  0.9914
 4411TIP3   OH213238   3.728   3.642   3.334  0.2800 -0.2055  0.6415
 4411TIP3    H113239   3.683   3.611   3.255 -1.2895  2.3392  0.4211
 4411TIP3    H213240   3.820   3.650   3.308  0.1744 -1.4724 -0.2240
 4412TIP3   OH213241   2.742   0.611   1.161  0.4620 -0.1268 -0.0634
 4412TIP3    H113242   2.763   0.643   1.073 -0.7631 -0.1647 -0.3965
 4412TIP3    H213243   2.678   0.541   1.145 -0.2870  0.3246  0.8870
 4413TIP3   OH213244   5.376  -0.007   0.948  0.4589  0.1012 -0.6132
 4413TIP3    H113245   5.309   0.052   0.913 -0.2943 -0.3335  0.0660
 4413TIP3    H213246   5.419   0.044   1.017 -1.8169 -0.8705  1.6905
 4414TIP3   OH213247   3.782   5.730   2.123 -0.2349  0.2811 -0.3373
 4414TIP3    H113248   3.785   5.635   2.114 -0.4348  0.3141 -0.8063
 4414TIP3    H213249   3.787   5.746   2.217 -2.6540 -0.3122 -0.0331
 4415TIP3   OH213250   1.206   3.124   3.136  0.3270  0.2847  0.0810
 4415TIP3    H113251   1.195   3.045   3.188 -0.6324  0.2915 -0.0881
 4415TIP3    H213252   1.294   3.155   3.157  0.1761 -0.0377  1.2322
 4416TIP3   OH213253   6.122   3.808   4.848 -0.3119 -0.3136 -0.1985
 4416TIP3    H113254   6.050   3.871   4.841 -1.6232 -1.6230  0.9542
 4416TIP3    H213255   6.126   3.767   4.762 -1.6119 -0.9059  0.0058
 4417TIP3   OH213256   1.769   4.690   0.919 -0.2104  0.3131 -0.2285
 4417TIP3    H113257   1.791   4.677   0.826  0.4897 -0.7222  0.0611
 4417TIP3    H213258   1.854   4.689   0.964 -0.3709  2.5609  0.2702
 4418TIP3   OH213259   5.904   3.653   1.907  0.0878 -0.0287  0.5599
 4418TIP3    H113260   5.930   3.744   1.892  1.0882 -0.4366 -0.2323
 4418TIP3    H213261   5.959   3.624   1.979  0.8680 -0.4792 -0.2170
 4419TIP3   OH213262   5.417   4.330   4.996 -0.1907 -0.0348  0.4115
 4419TIP3    H113263   5.444   4.416   4.964 -0.4933 -0.0909 -0.0054
 4419TIP3    H213264   5.458   4.322   5.082 -0.0043  0.4461  0.3681
 4420TIP3   OH213265   4.487   0.003   3.255  0.0088 -0.0194  0.5221
 4420TIP3    H113266   4.542  -0.045   3.193  0.5346  2.1167 -0.7424
 4420TIP3    H213267   4.449   0.074   3.204 -1.4593  0.4186  2.1214
 4421TIP3   OH213268   0.356   1.518   4.232 -0.2056 -0.5948 -0.2105
 4421TIP3    H113269   0.410   1.475   4.297 -1.6547  1.0634  2.2330
 4421TIP3    H213270   0.280   1.460   4.221 -1.2989  0.3659  1.7545
 4422TIP3   OH213271   0.189   3.164   4.842 -0.2626  0.2466  0.4984
 4422TIP3    H113272   0.244   3.233   4.802  2.4120 -0.9776  1.8037
 4422TIP3    H213273   0.162   3.110   4.768  0.7663  0.5893 -0.1580
 4423TIP3   OH213274   0.563   4.206   3.770  0.2133  0.5261 -0.1036
 4423TIP3    H113275   0.510   4.272   3.724 -0.0075  0.7611  0.4677
 4423TIP3    H213276   0.617   4.258   3.830  0.5533  0.2324 -0.1588
 4424TIP3   OH213277   3.660   5.399   1.406 -0.1560 -0.0257 -0.5689
 4424TIP3    H113278   3.614   5.480   1.387  2.1230  1.5598  0.3064
 4424TIP3    H213279   3.718   5.387   1.331  1.1860  0.4612  0.3602
 4425TIP3   OH213280   4.552   5.732   3.384  0.0420  0.2554  0.6404
 4425TIP3    H113281   4.489   5.800   3.406 -0.0946  0.5926 -0.7382
 4425TIP3    H213282   4.594   5.762   3.304 -0.6664 -1.7055 -0.5320
 4426TIP3   OH213283   4.666   4.542   3.601 -0.8051  0.0590 -0.5902
 4426TIP3    H113284   4.668   4.579   3.689  3.6818 -0.3241 -0.2703
 4426TIP3    H213285   4.644   4.450   3.614  0.9706 -0.2716  0.3760
 4427TIP3   OH213286   2.025   5.792   4.292 -0.3551  0.3187 -0.6584
 4427TIP3    H113287   2.041   5.740   4.370  0.2289  2.3270  0.6429
 4427TIP3    H213288   2.111   5.820   4.263 -0.6688  0.9721 -1.0020
 4428TIP3   OH213289   0.895   0.795   4.889  0.6140  0.2209  0.6930
 4428TIP3    H113290   0.816   0.821   4.937  1.4235  2.8199  0.7638
 4428TIP3    H213291   0.962   0.857   4.916  3.0403 -2.4474  1.3493
 4429TIP3   OH213292   6.179   0.483   3.778  0.5426  0.2806 -0.0653
 4429TIP3    H113293   6.242   0.539   3.732  0.1031  0.4275 -0.5057
 4429TIP3    H213294   6.191   0.504   3.871 -0.0213  1.5742 -0.2524
 4430TIP3   OH213295   4.310   5.747   1.077 -0.5115 -0.1461 -0.0847
 4430TIP3    H113296   4.399   5.717   1.055 -0.0548  1.1756 -0.1273
 4430TIP3    H213297   4.323   5.825   1.130 -1.6631 -0.5065  0.7729
 4431TIP3   OH213298   4.299   5.810   1.655 -0.4960 -0.0636  0.1806
 4431TIP3    H113299   4.330   5.766   1.575 -0.8792 -0.5678  0.3019
 4431TIP3    H213300   4.213   5.771   1.671 -0.5242  0.2152  0.7056
 4432TIP3   OH213301   1.078   5.324   3.802 -0.2644 -0.0994  0.4373
 4432TIP3    H113302   1.107   5.403   3.849 -0.7917  0.5124 -0.2381
 4432TIP3    H213303   0.992   5.348   3.766 -1.6917 -1.8390  2.3830
 4433TIP3   OH213304   3.995   0.359   4.832  0.0779  0.0024  0.9621
 4433TIP3    H113305   4.065   0.383   4.892  0.8637 -1.2475  0.5837
 4433TIP3    H213306   3.945   0.291   4.877  0.5059 -0.7463  0.3334
 4434TIP3   OH213307   5.734   5.891   5.148 -0.6128 -0.0953  0.2581
 4434TIP3    H113308   5.822   5.888   5.108 -0.1740  0.0984  1.1855
 4434TIP3    H213309   5.677   5.919   5.076  0.2069  0.5515 -0.1658
 4435TIP3   OH213310   6.035   1.008   0.945  0.2217  0.9179 -0.0085
 4435TIP3    H113311   6.123   1.032   0.975 -0.1043  1.4689  0.5141
 4435TIP3    H213312   5.978   1.027   1.019 -0.4373  1.2100 -0.5770
 4436TIP3   OH213313   4.818   2.350   3.570 -0.0196 -0.0398  0.4063
 4436TIP3    H113314   4.800   2.349   3.476 -1.7295 -3.5966  0.5830
 4436TIP3    H213315   4.733   2.371   3.610  0.1007 -0.8589  1.1322
 4437TIP3   OH213316   5.461   2.423   1.015  0.5899  0.0039 -0.2162
 4437TIP3    H113317   5.502   2.432   0.929 -1.3938  0.0643 -1.1887
 4437TIP3    H213318   5.400   2.496   1.020  0.0574 -0.4983  0.8908
 4438TIP3   OH213319   0.518   2.346   2.798  0.2621 -0.3947 -0.0377
 4438TIP3    H113320   0.497   2.392   2.717 -1.2725 -1.9605 -0.5808
 4438TIP3    H213321   0.446   2.284   2.810  0.9914 -0.9165  1.9768
 4439TIP3   OH213322   5.900   1.032   3.712 -0.8537  0.0905  0.6864
 4439TIP3    H113323   5.953   1.103   3.749  3.8797 -1.6302 -1.8562
 4439TIP3    H213324   5.853   1.073   3.640  0.3886  1.0375  0.3691
 4440TIP3   OH213325   4.513   0.971   2.108  0.1582 -0.7981 -0.0626
 4440TIP3    H113326   4.595   1.020   2.103  0.1241 -0.6403  0.8099
 4440TIP3    H213327   4.475   0.996   2.192 -0.5304 -1.2741 -0.2254
 4441TIP3   OH213328   0.033   3.346   1.427 -0.1043  0.7578 -0.3591
 4441TIP3    H113329  -0.011   3.294   1.494 -2.1801 -0.0950 -2.2657
 4441TIP3    H213330   0.021   3.437   1.455 -2.1332  0.4890 -0.2235
 4442TIP3   OH213331   1.747   1.463   2.294 -0.2382 -0.0135 -0.0614
 4442TIP3    H113332   1.724   1.536   2.236 -0.6265 -0.5192 -0.5571
 4442TIP3    H213333   1.804   1.408   2.240 -0.4458 -0.3915  0.1054
 4443TIP3   OH213334   3.067   0.124   1.302 -0.4462  0.6755  0.6027
 4443TIP3    H113335   3.136   0.158   1.359  0.2820 -2.6985  2.0001
 4443TIP3    H213336   3.100   0.139   1.214  2.1449 -0.7205  1.2190
 4444TIP3   OH213337   1.201   0.029   4.375  0.0284 -0.3206  0.4574
 4444TIP3    H113338   1.234   0.119   4.364 -0.0928 -0.1202  1.6248
 4444TIP3    H213339   1.109   0.040   4.397  0.1377 -0.7117  1.1149
 4445TIP3   OH213340   0.932   1.169   1.963  0.0179 -0.4079 -0.4251
 4445TIP3    H113341   1.025   1.153   1.948  0.0450 -1.2575  0.5747
 4445TIP3    H213342   0.911   1.244   1.906  0.9932 -1.0425 -1.6658
 4446TIP3   OH213343   0.515   2.337   3.085  0.2000 -0.7428  0.1628
 4446TIP3    H113344   0.488   2.353   2.994  2.0011  1.4619 -0.0834
 4446TIP3    H213345   0.564   2.255   3.082 -0.0579 -0.8712 -0.8015
 4447TIP3   OH213346   0.050   0.567   0.856  0.0699 -0.1202  0.4301
 4447TIP3    H113347  -0.015   0.637   0.846 -0.4145 -0.7288 -1.0619
 4447TIP3    H213348   0.085   0.579   0.944 -1.8240  0.4393  1.1750
 4448TIP3   OH213349   0.115   4.829   0.583  0.4095  0.1257  0.0699
 4448TIP3    H113350   0.161   4.770   0.643  0.6073 -0.3412 -0.5263
 4448TIP3    H213351   0.174   4.904   0.573  1.6251 -0.9867 -1.6011
 4449TIP3   OH213352   6.119   2.512   4.317 -0.1222  0.0857 -0.2263
 4449TIP3    H113353   6.162   2.545   4.395 -0.8970  0.4374  0.0627
 4449TIP3    H213354   6.030   2.546   4.322 -0.1714  0.1726 -1.2938
 4450TIP3   OH213355   5.922   3.784   1.221 -0.4650  0.5959 -0.4900
 4450TIP3    H113356   5.976   3.828   1.286 -1.0449 -0.2741  0.6157
 4450TIP3    H213357   5.981   3.765   1.149 -0.1943  3.1936 -1.0406
 4451TIP3   OH213358   6.131   3.770   5.111 -0.1897  0.0938 -0.1575
 4451TIP3    H113359   6.070   3.842   5.125  0.1870  0.2583  0.6783
 4451TIP3    H213360   6.131   3.756   5.016 -2.2132 -0.5059 -0.1105
 4452TIP3   OH213361   4.190   5.712   4.601  0.3135 -0.0619 -0.4365
 4452TIP3    H113362   4.262   5.771   4.583  1.0573 -0.0812  2.0221
 4452TIP3    H213363   4.226   5.649   4.665 -1.3770 -1.1355 -0.4694
 4453TIP3   OH213364   3.155   5.750   4.942  0.3932  0.0600  0.1744
 4453TIP3    H113365   3.193   5.768   5.028  0.3702 -0.8744  0.3896
 4453TIP3    H213366   3.113   5.665   4.951 -0.3088  0.3129 -0.5419
 4454TIP3   OH213367   0.433   5.589   3.151 -0.4042 -0.2015  0.2207
 4454TIP3    H113368   0.436   5.678   3.116 -0.3146 -0.7969 -1.3862
 4454TIP3    H213369   0.450   5.599   3.244  0.4401  1.3827 -0.0674
 4455TIP3   OH213370   2.562   0.445   5.064 -0.7431 -0.2395 -0.0438
 4455TIP3    H113371   2.537   0.402   4.983 -0.8048  0.0410 -0.1773
 4455TIP3    H213372   2.592   0.532   5.037 -0.1308 -0.3829  0.1696
 4456TIP3   OH213373   4.039   0.087   4.581 -0.7840  0.2212 -0.0192
 4456TIP3    H113374   4.028  -0.008   4.577  1.2596 -0.0644  0.0632
 4456TIP3    H213375   3.963   0.122   4.534 -1.8962 -1.4094  0.4885
 4457TIP3   OH213376   1.968   4.320   4.405 -0.0967 -0.3886 -0.2883
 4457TIP3    H113377   1.884   4.288   4.371 -0.0825 -1.2716  0.4459
 4457TIP3    H213378   2.032   4.295   4.339  0.0773 -2.9601  0.7306
 4458TIP3   OH213379   5.514   0.209   1.980  0.2258 -0.4033  0.3367
 4458TIP3    H113380   5.484   0.135   1.928  1.0090  1.2188 -2.6875
 4458TIP3    H213381   5.435   0.246   2.019 -0.2235 -2.4332  1.4771
 4459TIP3   OH213382   2.443   4.761   1.541  0.0668 -0.1685  0.5794
 4459TIP3    H113383   2.481   4.810   1.469 -0.0486 -1.2009 -0.2024
 4459TIP3    H213384   2.416   4.828   1.604  1.0062  0.6930  0.0866
 4460TIP3   OH213385   1.039   0.289   0.801  0.2512 -0.4463 -0.4814
 4460TIP3    H113386   0.953   0.272   0.841  0.2692 -1.0876 -0.6992
 4460TIP3    H213387   1.094   0.217   0.831  1.2783  0.9551  1.2069
 4461TIP3   OH213388   4.704   2.269   4.520 -0.1012 -0.2528 -0.3374
 4461TIP3    H113389   4.704   2.175   4.503 -0.4683 -0.0346 -1.6514
 4461TIP3    H213390   4.641   2.305   4.458  0.4026  0.9230 -0.1975
 4462TIP3   OH213391   3.421   4.672   1.241  0.1680 -0.1926  0.2619
 4462TIP3    H113392   3.371   4.716   1.309  0.2214  1.2265 -0.5686
 4462TIP3    H213393   3.497   4.634   1.286  0.0199  0.4235  1.0341
 4463TIP3   OH213394   4.450   4.121   4.877 -0.0870  0.2335  0.0579
 4463TIP3    H113395   4.439   4.207   4.836 -1.4092 -0.1934 -0.5247
 4463TIP3    H213396   4.468   4.141   4.969  1.7448  1.1726 -0.4605
 4464TIP3   OH213397   5.852   2.015   4.055 -0.3104 -0.4087  0.2418
 4464TIP3    H113398   5.940   2.009   4.020 -0.4774  0.2219 -0.3095
 4464TIP3    H213399   5.861   2.068   4.134 -0.1070 -0.8648  0.5281
 4465TIP3   OH213400   2.638   2.176   3.766  0.7112 -0.1694  0.1665
 4465TIP3    H113401   2.577   2.153   3.836  0.4018 -1.5742 -0.5203
 4465TIP3    H213402   2.584   2.225   3.703  0.1393 -1.7215 -0.6140
 4466TIP3   OH213403   4.123   5.030   5.175  0.6804  0.3354  0.2998
 4466TIP3    H113404   4.073   4.963   5.129  1.2373 -0.7466  1.2373
 4466TIP3    H213405   4.057   5.089   5.212  0.0742 -0.9581  1.3413
 4467TIP3   OH213406   4.487   3.900   2.023  0.1819 -0.1587  0.0328
 4467TIP3    H113407   4.501   3.995   2.027 -2.0338  0.1968  0.9970
 4467TIP3    H213408   4.506   3.877   1.933  2.1719  0.9171  0.1158
 4468TIP3   OH213409   0.208   2.360   3.638 -0.0806 -0.3150  0.4588
 4468TIP3    H113410   0.258   2.285   3.670 -2.5006 -2.6724 -0.9448
 4468TIP3    H213411   0.151   2.384   3.711 -0.8813 -1.3420  0.1869
 4469TIP3   OH213412   4.370   5.080   4.149  0.3540  0.5177  0.0310
 4469TIP3    H113413   4.388   5.145   4.217  0.4811  0.4091  0.1038
 4469TIP3    H213414   4.293   5.112   4.104 -0.5520 -0.0809  1.0997
 4470TIP3   OH213415   2.827   4.706   2.143  0.1137  0.4536  0.4994
 4470TIP3    H113416   2.914   4.688   2.178  0.4076  0.7698 -0.0517
 4470TIP3    H213417   2.798   4.784   2.192 -1.3369 -1.6019  3.1849
 4471TIP3   OH213418   2.625   4.423   4.713  0.6132  0.5392 -0.1643
 4471TIP3    H113419   2.712   4.438   4.749  0.8924 -1.4426  0.0877
 4471TIP3    H213420   2.574   4.389   4.786 -0.2799  1.3025 -0.4080
 4472TIP3   OH213421   1.039   0.750   1.561 -0.0679 -0.7009  0.4187
 4472TIP3    H113422   0.963   0.806   1.549  0.2090 -0.5570 -0.7644
 4472TIP3    H213423   1.026   0.678   1.500 -0.6629 -2.2393  2.2540
 4473TIP3   OH213424   2.827   5.932   2.032 -0.3232  0.2680 -0.1468
 4473TIP3    H113425   2.856   5.918   1.942 -0.4732 -0.9204 -0.0180
 4473TIP3    H213426   2.813   5.845   2.068  0.9721  0.6572  1.4459
 4474TIP3   OH213427   2.540   0.458   2.423  0.4519 -0.0464 -0.7027
 4474TIP3    H113428   2.501   0.376   2.453  0.9702 -0.4147 -1.0213
 4474TIP3    H213429   2.631   0.436   2.403  0.5739  0.5866 -0.8721
 4475TIP3   OH213430   1.789   1.109   4.261  0.1679  0.8566  0.5233
 4475TIP3    H113431   1.802   1.018   4.233 -0.7107  0.6411  0.7748
 4475TIP3    H213432   1.704   1.108   4.305  0.4309  1.6815  1.0677
 4476TIP3   OH213433   1.582   0.599   2.613  0.2141 -0.2256  0.2992
 4476TIP3    H113434   1.576   0.694   2.604 -1.4811 -0.1859  1.4661
 4476TIP3    H213435   1.672   0.579   2.587  0.2921  1.5583 -0.9890
 4477TIP3   OH213436   2.266   1.534   1.588  0.0300  0.5440 -0.1270
 4477TIP3    H113437   2.307   1.621   1.592 -0.2130  0.7352 -1.5160
 4477TIP3    H213438   2.208   1.538   1.513 -0.0893 -0.7921 -0.1271
 4478TIP3   OH213439   6.108   0.361   1.700  0.4323  0.4042  0.2213
 4478TIP3    H113440   6.036   0.311   1.741  1.2059 -0.8064  0.1626
 4478TIP3    H213441   6.187   0.312   1.724  0.9006 -0.8749 -3.3199
 4479TIP3   OH213442   3.221   2.770   0.573  0.1585 -0.2498 -0.0897
 4479TIP3    H113443   3.204   2.839   0.510 -0.1493 -0.3729 -0.1448
 4479TIP3    H213444   3.260   2.814   0.649 -0.2870  0.0175 -0.0182
 4480TIP3   OH213445   4.516   3.326   0.554  0.1830  0.0007  0.3916
 4480TIP3    H113446   4.567   3.245   0.560  1.4664  0.5900 -1.4303
 4480TIP3    H213447   4.467   3.318   0.473  1.8190  1.7514 -0.8877
 4481TIP3   OH213448   3.423   1.039   1.577  0.1000  0.2776  0.5360
 4481TIP3    H113449   3.339   1.011   1.541 -0.7949  0.3043  2.4755
 4481TIP3    H213450   3.423   1.134   1.568 -1.3196  0.5683  2.9128
 4482TIP3   OH213451   0.503   5.192   4.261 -0.1082  0.4482 -0.3489
 4482TIP3    H113452   0.568   5.234   4.318 -1.1963  1.5281  0.1406
 4482TIP3    H213453   0.429   5.175   4.318 -0.2694 -0.8028 -0.8999
 4483TIP3   OH213454   1.806   5.887   0.565  0.4676  0.0853 -0.1526
 4483TIP3    H113455   1.870   5.831   0.520 -0.0771  0.9259 -2.1147
 4483TIP3    H213456   1.744   5.826   0.604  0.6961 -0.7189 -1.0068
 4484TIP3   OH213457   4.309   4.041   1.245  0.3234  0.4199 -0.5273
 4484TIP3    H113458   4.392   4.029   1.199  0.1812  1.9753 -1.2679
 4484TIP3    H213459   4.276   4.125   1.213 -1.5925 -0.2130 -0.3306
 4485TIP3   OH213460   4.847   1.938   0.722  0.2348 -0.2078  0.4728
 4485TIP3    H113461   4.871   1.957   0.813  0.4345  0.0206  0.3726
 4485TIP3    H213462   4.907   1.868   0.695 -0.5497 -1.0486  0.8660
 4486TIP3   OH213463   2.383   1.762   2.899  0.3121 -0.3271 -0.0659
 4486TIP3    H113464   2.290   1.776   2.887  0.3715  0.0311 -0.1204
 4486TIP3    H213465   2.393   1.667   2.902  0.0656 -0.3958 -1.0323
 4487TIP3   OH213466   0.656   4.582   0.046 -0.0211 -0.0488 -0.6787
 4487TIP3    H113467   0.641   4.663  -0.002  1.5926  1.2104  0.8108
 4487TIP3    H213468   0.593   4.585   0.118  1.0898  0.6958  0.2856
 4488TIP3   OH213469   3.769   3.136   4.475 -0.4186 -0.3743 -0.5497
 4488TIP3    H113470   3.855   3.172   4.449 -0.6343  0.7963  0.2765
 4488TIP3    H213471   3.783   3.102   4.563 -0.8928  0.2253 -0.2318
 4489TIP3   OH213472   2.969   0.322   1.023 -0.1162 -0.1432  0.2336
 4489TIP3    H113473   2.904   0.311   0.954  0.8052  0.1595 -0.7109
 4489TIP3    H213474   3.053   0.306   0.980  0.3724 -2.0110  1.7633
 4490TIP3   OH213475   2.766   4.234   4.328  0.1485 -0.2874  0.7130
 4490TIP3    H113476   2.766   4.139   4.340 -1.0865 -0.3263  0.6318
 4490TIP3    H213477   2.745   4.246   4.235 -0.0912  0.0584  0.8088
 4491TIP3   OH213478   2.585   5.991   3.442 -0.1188  0.0269  0.5758
 4491TIP3    H113479   2.528   5.961   3.371 -1.2562  1.1870  0.9578
 4491TIP3    H213480   2.552   5.947   3.520 -0.0789  0.1970  0.6903
 4492TIP3   OH213481   4.040   4.081   1.130  0.7734 -0.4457 -0.0597
 4492TIP3    H113482   3.966   4.120   1.177  0.6960 -0.9856  0.2768
 4492TIP3    H213483   4.054   3.997   1.174  1.0053 -0.7456 -0.6983
 4493TIP3   OH213484   5.086   0.087   4.359  0.0143 -0.6428 -0.4310
 4493TIP3    H113485   5.097   0.168   4.311 -0.4541  0.0910  0.6526
 4493TIP3    H213486   5.149   0.026   4.320  1.8579  0.8502  0.0873
 4494TIP3   OH213487   1.736   1.706   1.683 -0.0385 -0.4298 -0.3072
 4494TIP3    H113488   1.752   1.800   1.691 -3.0263  0.1351  0.1953
 4494TIP3    H213489   1.749   1.687   1.590  3.7417 -0.3207  0.0351
 4495TIP3   OH213490   4.408   3.158   0.163  0.4134 -0.1553 -0.5747
 4495TIP3    H113491   4.391   3.213   0.240  1.1849 -1.9374  0.9340
 4495TIP3    H213492   4.487   3.196   0.123 -0.8268  1.6783 -1.4151
 4496TIP3   OH213493   5.295   3.754   2.037 -0.4132  0.2950 -0.5315
 4496TIP3    H113494   5.381   3.713   2.023  0.2223  1.1066  0.7746
 4496TIP3    H213495   5.233   3.694   1.996  0.4002 -2.2681  1.6690
 4497TIP3   OH213496   2.226   0.806   3.374 -0.3131  0.4063 -0.2879
 4497TIP3    H113497   2.254   0.787   3.285 -0.7331 -0.0762 -0.3201
 4497TIP3    H213498   2.132   0.790   3.374 -0.0879 -1.2126  0.6364
 4498TIP3   OH213499   0.251   5.075   2.602 -0.5327  0.3539 -0.3827
 4498TIP3    H113500   0.308   5.019   2.655 -1.3878 -2.0284 -1.7956
 4498TIP3    H213501   0.164   5.039   2.616 -0.8203 -0.1638 -3.0608
 4499TIP3   OH213502   4.637   3.049   1.818  0.6348 -0.1330 -0.0469
 4499TIP3    H113503   4.695   3.115   1.857 -1.6044  2.1883 -0.3938
 4499TIP3    H213504   4.604   3.090   1.739 -1.2524 -1.4772 -0.0174
 4500TIP3   OH213505   6.297   4.237   1.956  0.4520  0.9410 -0.5158
 4500TIP3    H113506   6.348   4.157   1.950 -1.3163 -0.1089 -2.6640
 4500TIP3    H213507   6.357   4.306   1.927  2.1089  0.5517  1.7211
 4501TIP3   OH213508   2.893   0.128   4.059  0.2567  0.0727  0.1104
 4501TIP3    H113509   2.935   0.213   4.044  0.4830  0.0558  0.6198
 4501TIP3    H213510   2.904   0.112   4.153 -0.2874 -0.2585  0.1207
 4502TIP3   OH213511   0.205   2.417   0.142 -0.3706 -0.3986 -0.2397
 4502TIP3    H113512   0.270   2.422   0.072 -1.5143  0.5893 -1.2711
 4502TIP3    H213513   0.185   2.324   0.149  0.7139 -0.6579 -0.2919
 4503TIP3   OH213514   4.485   5.823   2.618 -0.6754 -0.4540 -0.4257
 4503TIP3    H113515   4.562   5.874   2.594 -0.6407 -0.7250 -0.8966
 4503TIP3    H213516   4.452   5.788   2.535 -1.6993  0.2184 -0.3303
 4504TIP3   OH213517   1.871   5.697   1.253  0.0623  0.1291  0.0572
 4504TIP3    H113518   1.831   5.659   1.175 -0.2353  1.2418 -0.3477
 4504TIP3    H213519   1.800   5.698   1.318  0.0406  0.0855  0.0338
 4505TIP3   OH213520   4.973   4.544   0.019  0.2713 -0.0548 -0.3731
 4505TIP3    H113521   5.022   4.604  -0.037 -0.2612  0.8378  0.0904
 4505TIP3    H213522   4.885   4.583   0.024 -0.6242 -1.8107 -1.4940
 4506TIP3   OH213523   5.318   0.095   3.833  0.3830 -0.1674 -0.0268
 4506TIP3    H113524   5.241   0.044   3.859 -0.0179  0.2678 -0.3419
 4506TIP3    H213525   5.292   0.139   3.752  1.0906 -0.3026 -0.3425
 4507TIP3   OH213526   3.979   2.130   3.818 -0.0233 -0.2847 -0.6426
 4507TIP3    H113527   3.999   2.210   3.771  4.1715  0.4206  1.7996
 4507TIP3    H213528   4.050   2.070   3.794 -0.5113 -1.6028  1.0177
 4508TIP3   OH213529   6.105   4.729   4.370 -0.7263 -0.4370  0.2745
 4508TIP3    H113530   6.197   4.724   4.398  0.2113 -0.1654 -2.4994
 4508TIP3    H213531   6.096   4.817   4.334 -2.0694 -0.5174  0.3758
 4509TIP3   OH213532   3.229   3.709   1.517 -0.1253 -0.4303 -0.0577
 4509TIP3    H113533   3.313   3.680   1.552 -0.0311 -0.2179 -0.1079
 4509TIP3    H213534   3.178   3.628   1.508  0.1890 -0.6004 -0.3358
 4510TIP3   OH213535   5.295   5.369   3.795 -0.3788  0.4050  0.4409
 4510TIP3    H113536   5.372   5.339   3.747  0.4426  1.8659  0.7667
 4510TIP3    H213537   5.284   5.460   3.766 -1.1068  0.6678  1.5020
 4511TIP3   OH213538   1.188   4.932   0.926  0.1329  0.1047 -0.6178
 4511TIP3    H113539   1.237   4.954   1.005  2.5557 -0.9401 -1.7152
 4511TIP3    H213540   1.143   5.012   0.902 -1.5417  0.1877  2.3164
 4512TIP3   OH213541   0.169   0.306   2.070  1.1925 -0.4180 -0.1299
 4512TIP3    H113542   0.249   0.255   2.086  0.4124 -1.0543  2.1677
 4512TIP3    H213543   0.098   0.241   2.078  0.2593  0.7323  1.6115
 4513TIP3   OH213544   0.804   1.672   0.837  0.0225 -0.7506 -0.3709
 4513TIP3    H113545   0.751   1.709   0.908 -1.2135 -0.5081 -1.3844
 4513TIP3    H213546   0.743   1.616   0.789  0.9574 -1.2626 -0.9771
 4514TIP3   OH213547   4.746   4.268   2.169 -0.1750 -0.3842  0.3644
 4514TIP3    H113548   4.781   4.299   2.086  1.2958 -0.0531  1.0821
 4514TIP3    H213549   4.786   4.182   2.182 -0.2546 -0.3580  0.8115
 4515TIP3   OH213550   5.076   0.621   4.615  0.4809  0.2284 -0.3882
 4515TIP3    H113551   5.164   0.584   4.610 -0.2699 -1.8294  0.4635
 4515TIP3    H213552   5.026   0.557   4.665 -1.3609  1.6551 -0.2994
 4516TIP3   OH213553   2.633   4.789   0.480 -0.1000  0.2138 -0.3228
 4516TIP3    H113554   2.710   4.770   0.426  0.2487 -1.5389  0.6918
 4516TIP3    H213555   2.577   4.712   0.468 -0.5244  0.3154  0.9151
 4517TIP3   OH213556   0.213   2.256   1.769 -0.4763  0.6277  0.5102
 4517TIP3    H113557   0.300   2.294   1.776 -1.3923  3.3500 -1.2060
 4517TIP3    H213558   0.175   2.266   1.857  1.1882 -1.5137  1.5467
 4518TIP3   OH213559   3.787   4.754   2.750 -0.3041  0.4749  0.6282
 4518TIP3    H113560   3.755   4.792   2.832  0.0694 -0.4051  1.1936
 4518TIP3    H213561   3.865   4.804   2.729 -0.2617  0.5438  0.9449
 4519TIP3   OH213562   6.303   2.453   2.318  0.4570  0.4035 -0.1959
 4519TIP3    H113563   6.238   2.498   2.371  0.3105  1.1452 -0.9883
 4519TIP3    H213564   6.267   2.366   2.305  0.5208  0.1864  0.9505
 4520TIP3   OH213565   2.976   4.812   1.020  0.5575  0.3600 -0.6710
 4520TIP3    H113566   3.004   4.900   1.048 -1.0685  0.8055 -0.2993
 4520TIP3    H213567   2.944   4.825   0.931  2.2076 -0.3059 -1.4011
 4521TIP3   OH213568   0.233   1.349   4.641 -0.8716  0.4111  0.2794
 4521TIP3    H113569   0.175   1.370   4.567 -1.7422 -0.2595  0.7483
 4521TIP3    H213570   0.216   1.257   4.659  0.0184  0.3329  0.7274
 4522TIP3   OH213571   0.994   3.087   3.943 -0.0989  0.2951  0.0594
 4522TIP3    H113572   1.025   3.170   3.906  0.4686  0.0317 -0.0620
 4522TIP3    H213573   1.074   3.040   3.965 -0.4150  0.5216  1.8012
 4523TIP3   OH213574   4.225   0.400   3.777 -0.2678  0.7209 -0.0719
 4523TIP3    H113575   4.200   0.452   3.852 -0.7748  0.5779 -0.1370
 4523TIP3    H213576   4.321   0.403   3.776 -0.1010 -1.2155  1.9819
 4524TIP3   OH213577   4.012   5.359   2.325  0.3815 -0.2969  1.1687
 4524TIP3    H113578   3.926   5.363   2.368 -0.3328  1.7253 -0.2851
 4524TIP3    H213579   3.999   5.300   2.251 -0.4950  1.6952 -0.3695
 4525TIP3   OH213580   1.002   1.856   3.504  0.1916  0.2341  0.9413
 4525TIP3    H113581   0.979   1.817   3.420 -0.1889 -2.1323  2.0804
 4525TIP3    H213582   0.991   1.950   3.490 -3.2029 -0.2699 -0.6594
 4526TIP3   OH213583   1.448   0.980   4.386 -0.7019  0.4234 -0.3315
 4526TIP3    H113584   1.451   1.074   4.369 -0.4916  0.4754 -0.0139
 4526TIP3    H213585   1.465   0.940   4.300 -1.3782  0.6681 -0.5819
 4527TIP3   OH213586   3.754   4.445   3.267 -0.2276  0.0544 -0.3471
 4527TIP3    H113587   3.823   4.423   3.329  0.1299  1.6231 -0.1422
 4527TIP3    H213588   3.746   4.540   3.273 -0.8447  0.1389 -2.0230
 4528TIP3   OH213589   6.330   0.881   4.038  0.0507 -0.1777  0.3686
 4528TIP3    H113590   6.244   0.923   4.035  0.8141  1.5511  1.1415
 4528TIP3    H213591   6.364   0.904   4.125  1.6657  0.0048 -0.2825
 4529TIP3   OH213592   1.138   2.672   1.391  0.4622 -0.0693 -0.1707
 4529TIP3    H113593   1.227   2.707   1.401  0.0772  1.3713 -1.3911
 4529TIP3    H213594   1.091   2.740   1.343 -0.9285 -1.4104 -0.7920
 4530TIP3   OH213595   2.508   4.247   2.496  0.0368 -0.0741 -0.0431
 4530TIP3    H113596   2.602   4.255   2.479  0.0657 -1.8698 -0.9338
 4530TIP3    H213597   2.494   4.298   2.576  1.6590  0.6747 -0.2005
 4531TIP3   OH213598   0.865   1.666   3.644 -0.4784 -0.1008 -0.4270
 4531TIP3    H113599   0.924   1.729   3.603 -0.1967  0.1391  0.3118
 4531TIP3    H213600   0.851   1.702   3.732  1.7191 -2.3117  0.9655
 4532TIP3   OH213601   4.260   3.975   4.195 -0.4310 -0.2916 -0.7091
 4532TIP3    H113602   4.262   3.922   4.274 -0.9921 -1.0184 -1.1687
 4532TIP3    H213603   4.177   4.023   4.200 -0.0151  0.4197 -0.3885
 4533TIP3   OH213604   0.227   2.243   3.905 -0.4403 -0.2853  0.5932
 4533TIP3    H113605   0.154   2.303   3.924 -0.7707 -0.8293  1.0615
 4533TIP3    H213606   0.205   2.163   3.951 -0.4284 -1.0803 -0.7321
 4534TIP3   OH213607   4.388   3.864   4.783 -0.8825  0.0735  0.1172
 4534TIP3    H113608   4.414   3.952   4.811 -0.7462  0.2614 -0.5682
 4534TIP3    H213609   4.309   3.878   4.730  0.5092  0.0951 -2.0875
 4535TIP3   OH213610   3.909   0.578   1.069  0.0445 -0.1454  0.0882
 4535TIP3    H113611   3.976   0.576   1.000  0.1757  0.5247  0.1883
 4535TIP3    H213612   3.921   0.496   1.116  0.3108 -0.3662 -0.3524
 4536TIP3   OH213613   4.390   1.569   3.983 -0.3829 -0.3545  0.5645
 4536TIP3    H113614   4.387   1.647   4.038 -1.8176 -0.4305  0.6556
 4536TIP3    H213615   4.328   1.589   3.912  3.5773  1.0222 -2.8731
 4537TIP3   OH213616   2.514   5.069   2.377 -0.3777  0.4648  0.0254
 4537TIP3    H113617   2.422   5.094   2.370 -0.2270  0.8962 -0.5397
 4537TIP3    H213618   2.518   4.981   2.340 -0.4498  0.7397 -0.6704
 4538TIP3   OH213619   3.516   0.383   2.406  0.2092 -0.2211 -0.0442
 4538TIP3    H113620   3.458   0.455   2.431  1.2049 -0.2558  2.7611
 4538TIP3    H213621   3.516   0.326   2.483  1.8117 -1.6401 -1.0516
 4539TIP3   OH213622   3.660   0.104   2.050 -0.1725  0.4010 -0.1494
 4539TIP3    H113623   3.608   0.025   2.036 -2.8519  2.2973 -2.0151
 4539TIP3    H213624   3.747   0.082   2.017 -0.1083 -2.4324  1.6215
 4540TIP3   OH213625   2.921   3.264   1.575  0.2126  0.0235  0.2397
 4540TIP3    H113626   2.927   3.201   1.647  0.3250  0.1144  0.3105
 4540TIP3    H213627   2.911   3.210   1.497  0.6823 -0.0969  0.2594
 4541TIP3   OH213628   3.606   5.443   0.765  0.4205 -0.1301 -0.0853
 4541TIP3    H113629   3.649   5.369   0.722 -0.6033 -1.5499  1.1948
 4541TIP3    H213630   3.639   5.441   0.855 -2.6979 -1.7725  1.1811
 4542TIP3   OH213631   3.465   2.396   5.004  0.1805 -0.4196  0.2808
 4542TIP3    H113632   3.456   2.486   4.973 -1.0413 -0.0113  1.6812
 4542TIP3    H213633   3.509   2.406   5.089 -0.8438 -1.0364  0.8959
 4543TIP3   OH213634   4.745   5.401   0.547 -0.2060  0.2396 -0.0011
 4543TIP3    H113635   4.722   5.440   0.631 -0.1759 -0.3851  0.3016
 4543TIP3    H213636   4.765   5.476   0.491  1.0359  0.6255  0.9082
 4544TIP3   OH213637   1.198   1.001   0.352 -0.4475 -0.0841 -0.0726
 4544TIP3    H113638   1.156   1.044   0.426 -0.2309 -0.9003  0.5432
 4544TIP3    H213639   1.173   0.909   0.360  0.2427 -0.3226 -0.5461
 4545TIP3   OH213640   5.471   0.041   0.209 -0.2258  0.3491  0.3142
 4545TIP3    H113641   5.529   0.114   0.189  0.4449  0.1213  1.3323
 4545TIP3    H213642   5.511  -0.001   0.286 -1.7295  0.1778  1.0418
 4546TIP3   OH213643   3.882   3.091   3.597 -0.0885 -0.0112 -0.1247
 4546TIP3    H113644   3.945   3.076   3.527 -0.5068  0.5409 -0.6271
 4546TIP3    H213645   3.878   3.008   3.644  0.0768 -0.4330 -0.8500
 4547TIP3   OH213646   2.490   1.161   2.865  0.0491 -0.0053  0.1708
 4547TIP3    H113647   2.579   1.187   2.844 -0.2396 -0.7336 -2.3849
 4547TIP3    H213648   2.495   1.124   2.953  2.3889 -0.5124 -0.1189
 4548TIP3   OH213649   6.077   0.936   4.041 -0.3575 -0.1375  0.4998
 4548TIP3    H113650   6.022   0.956   4.117  1.0421  0.8687  1.2720
 4548TIP3    H213651   6.047   0.996   3.973 -0.6757 -0.0793  0.6881
 4549TIP3   OH213652   4.007   2.857   3.693  0.2142  0.3328  0.1248
 4549TIP3    H113653   4.099   2.877   3.674 -0.0341  1.1475 -0.2678
 4549TIP3    H213654   3.992   2.892   3.781 -0.2174  1.9846 -0.5569
 4550TIP3   OH213655   2.654   3.241   3.120 -0.6456 -0.0510 -0.4628
 4550TIP3    H113656   2.626   3.166   3.173  2.4779 -1.1455 -0.1837
 4550TIP3    H213657   2.657   3.314   3.182 -2.0998 -0.0416 -0.3701
 4551TIP3   OH213658   5.286   5.805   4.846 -0.1014  0.3185 -0.1197
 4551TIP3    H113659   5.271   5.734   4.784  0.8966 -1.5702  1.6903
 4551TIP3    H213660   5.375   5.836   4.826 -0.2232  0.5180 -0.3657
 4552TIP3   OH213661   5.961   0.409   2.724  0.0611 -0.6165 -0.2332
 4552TIP3    H113662   5.901   0.438   2.656 -1.8395 -1.7583  0.8720
 4552TIP3    H213663   6.011   0.339   2.683  0.6098  0.2725 -1.1322
 4553TIP3   OH213664   2.486   5.985   4.292  0.4392  0.2397  0.0699
 4553TIP3    H113665   2.529   5.948   4.369 -0.1432 -0.2375  0.1729
 4553TIP3    H213666   2.462   5.908   4.240 -1.9621  0.3655  0.9002
 4554TIP3   OH213667   0.202   5.108   5.039 -0.0895 -0.1874  0.3381
 4554TIP3    H113668   0.200   5.189   5.091  0.8017  0.2592 -0.2932
 4554TIP3    H213669   0.169   5.041   5.099 -0.9724  0.6576  0.8340
 4555TIP3   OH213670   0.055   5.159   2.999 -0.6667 -0.0256  0.3938
 4555TIP3    H113671   0.097   5.244   2.984  0.0595 -0.4943 -0.3159
 4555TIP3    H213672  -0.012   5.176   3.065 -1.8691  1.5132 -1.1349
 4556TIP3   OH213673   2.937   1.736   1.697 -0.1143  0.4983  0.0771
 4556TIP3    H113674   2.984   1.783   1.628 -0.9172  0.5866 -0.4223
 4556TIP3    H213675   2.883   1.802   1.740  0.3930  0.4457  0.8120
 4557TIP3   OH213676   5.582   4.514   3.378  0.0681  0.2986 -0.3418
 4557TIP3    H113677   5.634   4.434   3.382 -1.8997 -1.0200  0.4663
 4557TIP3    H213678   5.633   4.574   3.323  2.0715 -1.1345 -0.1241
 4558TIP3   OH213679   5.628   5.023   4.934  0.3415 -0.3275  0.4114
 4558TIP3    H113680   5.639   5.047   4.842  0.6719  0.2209  0.5897
 4558TIP3    H213681   5.564   5.087   4.968 -3.0583 -3.0050 -0.4322
 4559TIP3   OH213682   1.887   4.166   1.217 -0.6546 -0.1043 -0.2016
 4559TIP3    H113683   1.941   4.108   1.271 -1.1218 -0.0012  0.3900
 4559TIP3    H213684   1.879   4.246   1.269 -0.7502  0.1607 -0.6229
 4560TIP3   OH213685   5.381   2.486   4.473  0.1698 -0.1344  0.4266
 4560TIP3    H113686   5.333   2.437   4.406 -2.7177  2.3497  0.4529
 4560TIP3    H213687   5.427   2.554   4.423 -0.3851  0.5130  0.7876
 4561TIP3   OH213688   5.917   5.192   3.938 -0.4362  0.0965  0.4816
 4561TIP3    H113689   5.963   5.190   4.022  0.9812 -3.1272 -0.1828
 4561TIP3    H213690   5.825   5.183   3.960 -0.3163  1.6254  1.7175
 4562TIP3   OH213691   3.678   0.149   5.152 -0.0878  0.2872 -0.5752
 4562TIP3    H113692   3.675   0.060   5.187  0.1150  0.2427 -0.6693
 4562TIP3    H213693   3.601   0.155   5.095  0.2782 -0.0624 -1.1225
 4563TIP3   OH213694   3.373   2.595   2.888  0.1013 -0.2467 -0.3346
 4563TIP3    H113695   3.324   2.619   2.967 -2.1904  0.3663 -1.8272
 4563TIP3    H213696   3.368   2.500   2.884  0.9070 -0.3463  0.6259
 4564TIP3   OH213697   1.445   2.412   2.389 -0.3014  0.2045 -0.2487
 4564TIP3    H113698   1.367   2.402   2.443  1.6821 -0.5514  2.7627
 4564TIP3    H213699   1.475   2.323   2.374  0.2093  0.4933 -0.9706
 4565TIP3   OH213700   0.907   3.372   2.959 -0.6593  0.1847  0.0876
 4565TIP3    H113701   0.822   3.405   2.988 -0.2958  0.4290  0.9228
 4565TIP3    H213702   0.968   3.443   2.979 -0.4515  0.5977 -1.8253
 4566TIP3   OH213703   5.926   1.565   2.235  0.3724  0.3279 -0.2335
 4566TIP3    H113704   5.892   1.629   2.172  0.5514  0.5030 -0.1553
 4566TIP3    H213705   5.984   1.509   2.184  0.1169  0.1476 -0.3281
 4567TIP3   OH213706   2.477   4.727   5.017  0.5575 -0.6174 -0.2856
 4567TIP3    H113707   2.433   4.664   4.959  0.4525 -0.6568 -0.1618
 4567TIP3    H213708   2.570   4.720   4.992  0.8694 -2.3435  1.1316
 4568TIP3   OH213709   2.596   5.827   3.129  0.2009  0.2306 -0.1107
 4568TIP3    H113710   2.629   5.901   3.079  1.1453  0.1736  0.4076
 4568TIP3    H213711   2.674   5.786   3.167 -0.4633  0.2266  1.3217
 4569TIP3   OH213712   0.417   2.520   1.750  1.1361 -0.2378  0.3011
 4569TIP3    H113713   0.449   2.473   1.826  3.1210  0.4077 -0.0715
 4569TIP3    H213714   0.484   2.587   1.733 -0.1655  0.8321 -0.8983
 4570TIP3   OH213715   5.717   3.101   2.309  0.0522  0.1402 -0.0313
 4570TIP3    H113716   5.757   3.091   2.222 -0.8301  0.1183 -0.4490
 4570TIP3    H213717   5.623   3.095   2.292 -0.1313  0.2920  0.9137
 4571TIP3   OH213718   3.862   1.048   4.433  0.0494  0.3917 -0.0202
 4571TIP3    H113719   3.907   1.101   4.498  0.5734 -0.3996  0.2634
 4571TIP3    H213720   3.908   0.965   4.432 -0.6070  0.0184 -0.6482
 4572TIP3   OH213721   3.019   0.542   1.236  0.2807  0.5713 -0.4763
 4572TIP3    H113722   2.928   0.518   1.218  0.0150  0.7521  0.5432
 4572TIP3    H213723   3.067   0.460   1.227 -0.3662 -0.0545  1.3187
 4573TIP3   OH213724   6.294   5.196   0.125 -0.5095 -0.0070  0.1741
 4573TIP3    H113725   6.211   5.178   0.170 -1.0136 -1.2876 -1.1678
 4573TIP3    H213726   6.267   5.217   0.036  0.4626  2.3960  0.4026
 4574TIP3   OH213727   6.178   3.198   4.319  0.5834 -0.2249 -0.1917
 4574TIP3    H113728   6.185   3.173   4.226  0.4517 -0.2012 -0.2078
 4574TIP3    H213729   6.245   3.145   4.363  0.0767 -0.8623 -0.1759
 4575TIP3   OH213730   3.027   4.015   4.421  0.0357 -0.0269  0.7273
 4575TIP3    H113731   2.937   3.982   4.428 -0.3852  1.0073  0.3803
 4575TIP3    H213732   3.042   4.060   4.504 -0.7557  2.1185 -0.2286
 4576TIP3   OH213733   2.044   2.822   4.865 -0.0183 -0.1504 -0.1065
 4576TIP3    H113734   2.104   2.752   4.890  0.2718  0.3309  0.5986
 4576TIP3    H213735   2.080   2.857   4.784  1.2043  0.7280  0.7761
 4577TIP3   OH213736   4.370   5.477   0.511  0.1604  0.0662  0.4106
 4577TIP3    H113737   4.408   5.495   0.424 -0.6120  3.0870  0.5700
 4577TIP3    H213738   4.412   5.397   0.539  1.9655  0.0752 -1.9162
 4578TIP3   OH213739   1.440   3.870   1.698 -0.1656  0.0978 -0.5679
 4578TIP3    H113740   1.390   3.789   1.707  1.1731 -0.7387 -0.2591
 4578TIP3    H213741   1.483   3.862   1.613 -0.1676  0.5806 -0.6177
 4579TIP3   OH213742   0.328   0.564   1.873  0.5944 -0.6337 -0.1185
 4579TIP3    H113743   0.362   0.553   1.962  0.6078  2.0701  0.3130
 4579TIP3    H213744   0.298   0.477   1.847 -0.5278 -1.2974  2.9790
 4580TIP3   OH213745   4.753   1.337   2.152  0.2800  0.1726 -0.6241
 4580TIP3    H113746   4.839   1.361   2.185  0.0090  2.0283 -1.1625
 4580TIP3    H213747   4.770   1.263   2.093  1.0550 -1.6163  1.6753
 4581TIP3   OH213748   1.205   1.107   4.228  0.4784  0.3694 -0.2911
 4581TIP3    H113749   1.136   1.085   4.165  0.8399 -0.1614 -0.5073
 4581TIP3    H213750   1.227   1.023   4.270 -1.2011  1.0029  2.0545
 4582TIP3   OH213751   0.187   1.232   2.469 -0.0509  0.1339  0.2984
 4582TIP3    H113752   0.217   1.165   2.408 -1.0459 -0.0162 -0.0484
 4582TIP3    H213753   0.127   1.185   2.528 -1.7917  0.9410 -0.7533
 4583TIP3   OH213754   0.792   5.633   4.071  0.2999  0.2474 -0.2465
 4583TIP3    H113755   0.816   5.693   4.142 -0.9873 -0.4608  0.8346
 4583TIP3    H213756   0.864   5.570   4.068  1.0425  1.0858 -0.5366
 4584TIP3   OH213757   2.147   3.079   4.149 -0.1314 -0.1769  0.0719
 4584TIP3    H113758   2.165   2.988   4.169 -0.2360 -0.2857 -0.3174
 4584TIP3    H213759   2.106   3.077   4.063 -1.8386  0.0795  0.8395
 4585TIP3   OH213760   5.413   5.877   0.693  0.3044 -0.1526 -0.3414
 4585TIP3    H113761   5.420   5.798   0.747  2.7329  0.3391  0.1555
 4585TIP3    H213762   5.443   5.850   0.606  1.8835  0.3380  0.0147
 4586TIP3   OH213763   3.452   0.807   1.298  0.0732  0.4071  0.3552
 4586TIP3    H113764   3.387   0.809   1.369 -0.6701 -2.0507 -0.1458
 4586TIP3    H213765   3.448   0.894   1.259 -3.8234  0.0951 -0.3800
 4587TIP3   OH213766   6.142   4.139   3.208  0.1723  0.1369 -0.2108
 4587TIP3    H113767   6.047   4.147   3.215 -0.0014  0.0038 -2.0342
 4587TIP3    H213768   6.164   4.062   3.260 -0.8821 -0.5871 -0.8112
 4588TIP3   OH213769   0.781   0.188   0.911  0.0477  0.0911  0.6168
 4588TIP3    H113770   0.693   0.222   0.894  1.2434  2.7991 -0.6533
 4588TIP3    H213771   0.797   0.209   1.003 -0.2996  0.3883  0.6104
 4589TIP3   OH213772   2.862   4.282   1.272 -0.1932  0.1903  0.0176
 4589TIP3    H113773   2.874   4.282   1.367  0.4548  0.3598 -0.0668
 4589TIP3    H213774   2.807   4.359   1.255  0.4070  0.6558  0.1615
 4590TIP3   OH213775   5.089   4.492   3.653  0.2457 -0.4012 -0.3320
 4590TIP3    H113776   5.095   4.501   3.748  0.1599 -0.3235 -0.3332
 4590TIP3    H213777   5.168   4.534   3.620  0.8329 -1.4239 -0.2440
 4591TIP3   OH213778   5.689   1.883   0.351  0.0899 -0.2033  0.5505
 4591TIP3    H113779   5.757   1.833   0.305 -0.8095  0.1197 -1.2252
 4591TIP3    H213780   5.630   1.817   0.386  0.9997 -0.4693  1.6251
 4592TIP3   OH213781   0.381   2.570   4.429 -0.2973  0.5636 -0.1385
 4592TIP3    H113782   0.323   2.495   4.417  1.2048 -0.8122  0.7475
 4592TIP3    H213783   0.401   2.600   4.341  0.3605 -1.1232 -0.5932
 4593TIP3   OH213784   0.028   5.850   3.415  0.3091 -0.2824  0.0453
 4593TIP3    H113785   0.057   5.764   3.385 -1.3042 -1.0784  0.6223
 4593TIP3    H213786   0.058   5.856   3.505  2.2171  0.6795 -0.6025
 4594TIP3   OH213787   4.274   1.830   0.493 -0.0548  0.1201 -0.7656
 4594TIP3    H113788   4.307   1.818   0.582 -0.3020  2.5691 -0.2724
 4594TIP3    H213789   4.185   1.795   0.495  0.7116 -1.9382 -0.7279
 4595TIP3   OH213790   5.712   1.981   4.901  0.2481 -0.3627 -0.2295
 4595TIP3    H113791   5.760   1.900   4.884  0.9779 -0.1155  0.6022
 4595TIP3    H213792   5.683   1.973   4.992 -0.0672  0.1113 -0.2850
 4596TIP3   OH213793   2.741   4.983   3.200 -0.1682  0.1613  0.0454
 4596TIP3    H113794   2.776   4.941   3.122  0.1603  0.4640  0.0313
 4596TIP3    H213795   2.815   5.031   3.238 -0.3551  0.1179  0.4728
 4597TIP3   OH213796   5.777   1.687   2.936  0.4103 -0.0850 -0.0823
 4597TIP3    H113797   5.698   1.739   2.925 -2.2265 -3.7091 -0.2671
 4597TIP3    H213798   5.805   1.704   3.026 -1.8492 -0.1640  0.6974
 4598TIP3   OH213799   2.161   2.558   3.559 -0.0376 -0.3477  0.7103
 4598TIP3    H113800   2.080   2.533   3.604 -0.6365 -1.1161 -0.7515
 4598TIP3    H213801   2.161   2.507   3.478  0.6656  1.4915 -0.5127
 4599TIP3   OH213802   3.167   2.301   5.047  0.4111  0.2989 -0.0145
 4599TIP3    H113803   3.113   2.241   4.996 -0.9996 -0.0894  1.8390
 4599TIP3    H213804   3.243   2.317   4.992  0.2442 -2.1990 -1.1130
 4600TIP3   OH213805   3.937   2.498   4.580  0.4174  0.2625 -0.1186
 4600TIP3    H113806   3.969   2.576   4.626 -0.6727  0.7110 -0.0957
 4600TIP3    H213807   3.849   2.484   4.615  0.7979 -1.3483  0.3237
 4601TIP3   OH213808   3.976   0.397   3.029 -0.0445  0.1112 -0.3911
 4601TIP3    H113809   4.071   0.398   3.018  0.1999 -0.4523  1.2575
 4601TIP3    H213810   3.963   0.393   3.124 -1.7738  2.8635 -0.3968
 4602TIP3   OH213811   6.067   4.316   1.566  0.1085  0.8323 -0.2025
 4602TIP3    H113812   6.017   4.326   1.647 -0.0085  1.1676 -0.3111
 4602TIP3    H213813   6.158   4.323   1.592  0.0738  0.8499 -0.0856
 4603TIP3   OH213814   2.153   3.099   4.751 -0.0091 -0.7063 -0.2002
 4603TIP3    H113815   2.154   3.155   4.828 -1.1534 -0.5464 -0.2861
 4603TIP3    H213816   2.065   3.108   4.715  0.6081 -0.4887 -1.7395
 4604TIP3   OH213817   4.936   3.514   0.644  0.5817 -0.1822 -0.1006
 4604TIP3    H113818   4.934   3.609   0.631  0.2514  0.0601  1.4878
 4604TIP3    H213819   5.029   3.492   0.649  0.6518  0.2454  0.6378
 4605TIP3   OH213820   0.261   4.970   3.041 -0.3409 -0.4080 -0.1326
 4605TIP3    H113821   0.310   5.003   2.966  0.8830 -1.9984 -0.0920
 4605TIP3    H213822   0.182   5.024   3.044  1.1167  1.8618 -0.5593
 4606TIP3   OH213823   4.385   2.552   1.673 -0.3638  1.0230 -0.3412
 4606TIP3    H113824   4.443   2.594   1.737 -2.9745  3.7098  0.4798
 4606TIP3    H213825   4.390   2.609   1.596 -2.5298  1.8938  0.0985
 4607TIP3   OH213826   0.165   2.560   2.494  0.2740  0.2588  0.0185
 4607TIP3    H113827   0.152   2.531   2.584  0.2557  0.3055  0.0312
 4607TIP3    H213828   0.104   2.508   2.442 -0.4540  0.9394  0.1612
 4608TIP3   OH213829   4.380   4.280   2.604  0.2841  0.3463  0.1010
 4608TIP3    H113830   4.294   4.238   2.612  0.6598 -0.3953  0.2949
 4608TIP3    H213831   4.382   4.311   2.513 -0.4055  0.8675  0.2522
 4609TIP3   OH213832   3.604   4.917   1.594  0.1145  0.2909 -0.0192
 4609TIP3    H113833   3.526   4.890   1.642  0.2011 -2.4588 -1.2756
 4609TIP3    H213834   3.572   4.976   1.526 -0.9341 -0.9872 -0.6626
 4610TIP3   OH213835   6.168   2.043   3.120  0.3732 -0.0918  0.3282
 4610TIP3    H113836   6.114   1.997   3.055 -0.6467 -3.1754  3.1190
 4610TIP3    H213837   6.118   2.123   3.139 -0.7852 -0.5589 -0.5718
 4611TIP3   OH213838   4.626   1.803   4.959 -0.1733 -0.5044  0.4219
 4611TIP3    H113839   4.600   1.721   5.001  1.5776 -1.3632 -0.0378
 4611TIP3    H213840   4.639   1.780   4.867  0.7058  0.1867  0.3540
 4612TIP3   OH213841   2.042   1.478   0.448 -0.5577 -0.2520 -0.2646
 4612TIP3    H113842   2.061   1.543   0.380  0.4696 -0.0360  0.1964
 4612TIP3    H213843   2.035   1.529   0.528 -1.5091 -0.5346 -0.1557
 4613TIP3   OH213844   0.943   3.751   1.346  0.1117  0.4757  0.3886
 4613TIP3    H113845   1.000   3.749   1.423  0.4605  2.1656  0.2096
 4613TIP3    H213846   0.855   3.746   1.382  0.2921 -1.2602  0.7151
 4614TIP3   OH213847   6.224   5.360   3.164  0.0950  0.0522  0.7427
 4614TIP3    H113848   6.156   5.293   3.165 -0.3408  0.4906  1.6360
 4614TIP3    H213849   6.176   5.443   3.158  0.6547  0.2915 -1.7589
 4615TIP3   OH213850   2.507   0.788   1.440  0.2804  0.1809  0.1396
 4615TIP3    H113851   2.472   0.720   1.383  1.3718 -0.1516 -0.1419
 4615TIP3    H213852   2.446   0.862   1.428  0.9417  0.4515 -2.1685
 4616TIP3   OH213853   3.746   0.164   1.430  0.0088  0.0005 -0.5441
 4616TIP3    H113854   3.677   0.229   1.443 -0.2272 -0.3091 -0.2208
 4616TIP3    H213855   3.778   0.145   1.518  0.2674 -0.1143 -0.6625
 4617TIP3   OH213856   2.592   3.074   2.739 -0.7222  0.2541 -0.2600
 4617TIP3    H113857   2.559   2.988   2.714 -1.1562  0.4278 -0.3081
 4617TIP3    H213858   2.592   3.125   2.658  1.5182 -0.2912 -0.6679
 4618TIP3   OH213859   2.796   5.799   0.200  0.6280 -0.1866  0.6490
 4618TIP3    H113860   2.828   5.735   0.137 -1.4097 -3.0217  2.2129
 4618TIP3    H213861   2.708   5.821   0.169  0.7366  0.7369  0.9569
 4619TIP3   OH213862   2.956   2.582   0.175 -0.1219 -0.2428  0.3941
 4619TIP3    H113863   2.963   2.634   0.255 -0.2081 -1.3887  1.1632
 4619TIP3    H213864   3.023   2.619   0.117 -1.8621  2.4001 -0.1046
 4620TIP3   OH213865   2.152   2.325   1.285  0.0439  0.3314 -0.2537
 4620TIP3    H113866   2.095   2.317   1.362  0.4143  1.3732  0.1536
 4620TIP3    H213867   2.241   2.317   1.321  0.1775 -0.9618 -0.8360
 4621TIP3   OH213868   0.131   0.062   1.809 -0.5279  0.4544  0.4389
 4621TIP3    H113869   0.202   0.037   1.868 -1.6050  0.8160  1.9622
 4621TIP3    H213870   0.102  -0.021   1.769  0.6727  0.3005 -0.1403
 4622TIP3   OH213871   3.753   4.204   1.148 -0.1506 -0.2337  0.1174
 4622TIP3    H113872   3.738   4.278   1.090  1.4532 -0.9201 -1.2625
 4622TIP3    H213873   3.743   4.240   1.236 -2.4917  0.8715 -0.5222
 4623TIP3   OH213874   1.294   1.921   4.470  0.0952 -0.0593  0.3311
 4623TIP3    H113875   1.306   1.939   4.563  3.1279  0.6445 -0.0829
 4623TIP3    H213876   1.354   1.849   4.451 -0.8301 -0.5245 -1.0235
 4624TIP3   OH213877   5.275   0.037   4.826  0.3751  0.6951  0.2266
 4624TIP3    H113878   5.284  -0.043   4.878  1.0596  1.1963  0.8919
 4624TIP3    H213879   5.204   0.085   4.867  0.3453  0.6955  0.1748
 4625TIP3   OH213880   5.009   1.412   3.245 -0.1210  0.5688  0.3571
 4625TIP3    H113881   5.008   1.488   3.302  0.6395  1.4227 -0.7269
 4625TIP3    H213882   4.956   1.438   3.169  0.6351  0.2677 -0.2936
 4626TIP3   OH213883   1.200   5.723   0.578 -0.1900 -0.0793 -0.1351
 4626TIP3    H113884   1.200   5.735   0.483  0.4138  0.4734 -0.0764
 4626TIP3    H213885   1.218   5.629   0.590  2.1548  0.2393 -0.5708
 4627TIP3   OH213886   0.125   0.396   0.318 -0.4298 -0.0951 -0.1481
 4627TIP3    H113887   0.057   0.459   0.338 -1.0021 -1.0722  1.1425
 4627TIP3    H213888   0.084   0.310   0.333  0.5231 -0.7588 -1.1752
 4628TIP3   OH213889   6.172   2.121   1.216 -0.6879 -0.3697  0.1395
 4628TIP3    H113890   6.234   2.060   1.178  0.4967  0.8287  0.0932
 4628TIP3    H213891   6.153   2.184   1.146 -1.9225 -0.6774  0.1695
 4629TIP3   OH213892   3.456   3.802   4.048  0.2942  0.4563 -0.4720
 4629TIP3    H113893   3.453   3.779   4.141  1.1670  0.9963 -0.3002
 4629TIP3    H213894   3.422   3.891   4.044  1.4651  0.9295 -0.4764
 4630TIP3   OH213895   1.667   4.491   3.369 -0.1726 -0.2757 -0.2826
 4630TIP3    H113896   1.732   4.422   3.364 -1.5367 -1.6717  0.3694
 4630TIP3    H213897   1.583   4.445   3.374 -1.2117  1.4384 -0.8326
 4631TIP3   OH213898   6.203   0.359   1.223  0.0932  0.2902  0.4441
 4631TIP3    H113899   6.136   0.389   1.162 -0.8466  1.5322  2.0038
 4631TIP3    H213900   6.164   0.370   1.309  0.9074 -2.5798  1.2987
 4632TIP3   OH213901   3.818   4.439   3.942  0.4755  0.0227  0.8127
 4632TIP3    H113902   3.816   4.375   3.870 -0.8508  0.9278  0.0131
 4632TIP3    H213903   3.819   4.524   3.898 -2.9405  0.7021  1.7509
 4633TIP3   OH213904   5.635   2.342   4.047 -0.4041  0.7190  0.3135
 4633TIP3    H113905   5.692   2.308   3.978 -0.6491 -0.6819  0.7716
 4633TIP3    H213906   5.688   2.335   4.127 -0.9343  0.1496  0.6185
 4634TIP3   OH213907   0.241   2.166   4.632  0.0390 -0.1057 -0.0772
 4634TIP3    H113908   0.262   2.149   4.540 -0.1801  2.2771 -0.6364
 4634TIP3    H213909   0.323   2.149   4.679  0.5838  0.0919 -0.9272
 4635TIP3   OH213910   6.203   5.906   2.522 -0.0269  0.0989  0.3339
 4635TIP3    H113911   6.151   5.979   2.556 -0.5114  0.4089 -1.0226
 4635TIP3    H213912   6.275   5.947   2.474  0.1150 -0.3204  0.1805
 4636TIP3   OH213913   5.943   5.205   1.569 -0.4507 -0.2153  0.4056
 4636TIP3    H113914   5.871   5.142   1.569 -0.0177 -0.7198 -0.3296
 4636TIP3    H213915   5.912   5.276   1.626 -1.5962 -0.3357 -0.0406
 4637TIP3   OH213916   6.195   0.728   3.008 -0.6502 -0.1936  0.3207
 4637TIP3    H113917   6.128   0.714   2.941 -0.8695 -1.5472  0.7937
 4637TIP3    H213918   6.277   0.709   2.964 -0.8049 -1.2189  0.4509
 4638TIP3   OH213919   0.382   5.288   3.214 -0.0768  0.1205  0.3641
 4638TIP3    H113920   0.469   5.262   3.183 -0.7981 -2.3312  0.1537
 4638TIP3    H213921   0.338   5.324   3.137  1.0233  2.3215  0.6992
 4639TIP3   OH213922   3.763   2.030   4.555  0.0555 -0.2386  0.0790
 4639TIP3    H113923   3.775   1.936   4.570  0.3031 -0.2266 -0.0320
 4639TIP3    H213924   3.852   2.065   4.550 -0.0364  0.0216  0.2386
 4640TIP3   OH213925   1.389   5.573   1.895  0.3514  0.3914  0.3713
 4640TIP3    H113926   1.342   5.508   1.843 -2.9089  3.7570 -1.4185
 4640TIP3    H213927   1.473   5.584   1.849 -1.1309  0.9230 -2.4574
 4641TIP3   OH213928   3.073   5.896   4.196  1.0998 -0.1923 -0.1364
 4641TIP3    H113929   2.986   5.883   4.159  0.6588  0.5577  0.5957
 4641TIP3    H213930   3.108   5.808   4.207  0.0247 -0.5654  0.4933
 4642TIP3   OH213931   1.754   0.527   3.739  0.6187  0.2739  0.1082
 4642TIP3    H113932   1.694   0.523   3.664  1.3118  2.4846 -0.6477
 4642TIP3    H213933   1.699   0.514   3.815 -0.2341 -1.2389 -0.7220
 4643TIP3   OH213934   2.203   1.493   2.075  0.1372 -0.5340 -0.1662
 4643TIP3    H113935   2.256   1.523   2.002  0.9058  1.8143  1.2661
 4643TIP3    H213936   2.264   1.491   2.149 -0.6110 -2.8577  0.4686
 4644TIP3   OH213937   1.043   1.034   3.564 -0.1495  0.1189 -0.4906
 4644TIP3    H113938   1.067   1.084   3.641  3.2022 -0.4269 -1.0232
 4644TIP3    H213939   1.081   1.082   3.490 -3.7269  0.9288 -1.9860
 4645TIP3   OH213940   3.608   4.329   0.968  0.6704  0.1113  1.1760
 4645TIP3    H113941   3.524   4.375   0.964 -0.2936 -1.5012  1.9489
 4645TIP3    H213942   3.629   4.311   0.876  0.1784  0.5434  0.9721
 4646TIP3   OH213943   6.292   4.008   0.947  0.1651  0.1809  0.0788
 4646TIP3    H113944   6.203   4.037   0.929  0.0686 -0.6950 -0.9480
 4646TIP3    H213945   6.306   3.933   0.889  1.6948  0.5238 -0.0532
 4647TIP3   OH213946   0.039   1.416   3.683 -0.2558  0.4799 -0.8748
 4647TIP3    H113947   0.002   1.482   3.625 -0.0433  0.7280 -0.7277
 4647TIP3    H213948   0.047   1.338   3.628 -0.0326  0.7204 -1.1859
 4648TIP3   OH213949   4.530   3.539   4.935  0.6874  0.8717 -0.0565
 4648TIP3    H113950   4.527   3.499   4.848 -0.1660 -1.0459  0.7745
 4648TIP3    H213951   4.438   3.548   4.960  0.8969 -0.6665  1.4662
 4649TIP3   OH213952   3.559   3.121   1.876  0.4151 -0.3503 -0.1329
 4649TIP3    H113953   3.509   3.066   1.815 -0.6578 -0.2206  0.5919
 4649TIP3    H213954   3.640   3.073   1.890  0.9946 -0.0509 -2.1736
 4650TIP3   OH213955   1.225   4.796   2.825 -0.2584  0.4043  0.5191
 4650TIP3    H113956   1.302   4.742   2.844 -0.9952 -0.7403  0.3764
 4650TIP3    H213957   1.235   4.822   2.734 -1.2423 -1.8728 -0.3072
 4651TIP3   OH213958   0.029   3.081   1.949 -0.4171  0.2222  0.1200
 4651TIP3    H113959   0.032   3.049   1.859  0.8196 -2.2049  0.9224
 4651TIP3    H213960  -0.008   3.009   1.999 -0.7154  1.3720  1.6187
 4652TIP3   OH213961   1.062   4.184   3.417  0.3205  0.3875 -0.2265
 4652TIP3    H113962   1.037   4.155   3.505 -0.0353  0.1559 -0.4019
 4652TIP3    H213963   0.986   4.163   3.362 -0.3180  2.4287 -0.2058
 4653TIP3   OH213964   6.006   2.720   3.202 -0.1861 -0.2393  0.1266
 4653TIP3    H113965   6.032   2.761   3.285 -0.9037 -1.5255  1.0206
 4653TIP3    H213966   5.936   2.659   3.226 -0.6367 -0.4112 -1.4834
 4654TIP3   OH213967   0.366   4.485   2.101 -0.2029  0.0513  0.2490
 4654TIP3    H113968   0.294   4.434   2.139 -0.7001 -0.3150 -1.1143
 4654TIP3    H213969   0.326   4.569   2.077  0.1465  0.3424  0.6721
 4655TIP3   OH213970   4.356   2.885   4.247 -0.5428  0.0461  0.6396
 4655TIP3    H113971   4.355   2.963   4.302 -0.5146 -0.5488  1.4988
 4655TIP3    H213972   4.388   2.916   4.162 -0.4651  0.9500  0.9866
 4656TIP3   OH213973   3.838   1.465   1.934 -0.4898  0.5405  0.2484
 4656TIP3    H113974   3.857   1.542   1.988 -0.0591  0.3936  0.3118
 4656TIP3    H213975   3.787   1.407   1.991  0.5548  0.0830  0.7385
 4657TIP3   OH213976   2.329   5.758   4.229 -0.1341  0.3236 -0.1615
 4657TIP3    H113977   2.328   5.734   4.322 -1.7159 -0.0982 -0.2616
 4657TIP3    H213978   2.306   5.677   4.184  1.2091  0.3748 -0.9845
 4658TIP3   OH213979   5.839   2.989   3.074  0.2098 -0.5935  0.6975
 4658TIP3    H113980   5.899   2.935   3.022  0.5055  0.9078 -0.5782
 4658TIP3    H213981   5.856   2.963   3.165  2.2905 -0.7089  0.3266
 4659TIP3   OH213982   5.431   1.679   5.104  0.2020 -0.1075 -0.0580
 4659TIP3    H113983   5.340   1.706   5.090 -0.1535 -1.0233  0.3734
 4659TIP3    H213984   5.473   1.754   5.145 -0.7361 -0.1562  1.0533
 4660TIP3   OH213985   3.424   2.588   0.273  0.2007  0.4470  0.1877
 4660TIP3    H113986   3.505   2.632   0.299  0.1562  0.6374  0.0036
 4660TIP3    H213987   3.436   2.567   0.181  0.2851 -0.0694  0.3170
 4661TIP3   OH213988   1.556   4.681   0.509 -0.0746  0.2242 -0.0583
 4661TIP3    H113989   1.493   4.720   0.449  0.7600  1.2924 -0.2530
 4661TIP3    H213990   1.607   4.754   0.543 -0.1174 -0.4196  1.4967
 4662TIP3   OH213991   0.577   3.642   2.838  0.5830 -0.2828  0.1827
 4662TIP3    H113992   0.562   3.564   2.785 -0.9507 -1.1023  1.7077
 4662TIP3    H213993   0.668   3.666   2.821  0.3732 -0.9261 -2.1862
 4663TIP3   OH213994   2.665   3.303   1.856  0.0990  0.0515  0.4404
 4663TIP3    H113995   2.578   3.263   1.855 -0.0163  0.2887 -0.7414
 4663TIP3    H213996   2.665   3.359   1.933 -0.4370 -0.7137  1.0124
 4664TIP3   OH213997   0.676   0.177   4.472  0.6415 -0.0189 -0.1947
 4664TIP3    H113998   0.748   0.113   4.472  0.6294 -0.0321 -0.1339
 4664TIP3    H213999   0.718   0.260   4.495  0.5433 -0.1274  0.3862
 4665TIP3   OH214000   3.667   3.645   4.522 -0.0353 -0.0885  0.6050
 4665TIP3    H114001   3.732   3.697   4.475 -0.0288 -1.4793 -0.9796
 4665TIP3    H214002   3.671   3.679   4.612  2.0682  0.6140  0.3122
 4666TIP3   OH214003   3.428   4.782   3.999 -0.1096  0.2594  0.1882
 4666TIP3    H114004   3.520   4.804   3.982 -0.5039  1.8357 -0.0386
 4666TIP3    H214005   3.421   4.781   4.094 -0.1142  1.4203  0.2213
 4667TIP3   OH214006   3.931   3.816   4.830 -0.8187 -0.6743 -0.0152
 4667TIP3    H114007   3.852   3.782   4.790 -1.7272  0.7874  0.4521
 4667TIP3    H214008   3.993   3.743   4.828 -1.4887 -1.2341 -2.2173
 4668TIP3   OH214009   6.302   4.775   0.153 -0.6097 -0.4509 -0.0710
 4668TIP3    H114010   6.289   4.830   0.076 -0.5088 -0.5338 -0.1470
 4668TIP3    H214011   6.220   4.782   0.201 -0.6277 -0.3005 -0.1230
 4669TIP3   OH214012   4.103   4.663   4.237  0.0125 -0.0810 -0.1633
 4669TIP3    H114013   4.136   4.709   4.315  1.4206 -0.6532 -0.3855
 4669TIP3    H214014   4.041   4.724   4.198  1.0943  1.2311  0.0870
 4670TIP3   OH214015   2.531   5.636   0.921  0.2765  0.1844  0.4030
 4670TIP3    H114016   2.484   5.590   0.991  0.3054 -0.5754 -0.0698
 4670TIP3    H214017   2.579   5.706   0.967  0.2594 -0.2741  1.1343
 4671TIP3   OH214018   5.602   1.194   1.600  0.3004 -0.0992  0.1695
 4671TIP3    H114019   5.597   1.200   1.504 -0.1757  1.7151  0.2821
 4671TIP3    H214020   5.692   1.167   1.618  0.1125 -1.4883 -0.8057
 4672TIP3   OH214021   1.447   3.523   2.169  0.8471 -0.0743  0.5875
 4672TIP3    H114022   1.539   3.530   2.143  0.8415  1.1796  0.8464
 4672TIP3    H214023   1.417   3.613   2.178  0.3404 -0.4008  3.0851
 4673TIP3   OH214024   3.689   0.794   2.878 -0.1703 -0.1474 -0.4580
 4673TIP3    H114025   3.727   0.723   2.826 -1.1667 -0.2249 -1.1243
 4673TIP3    H214026   3.709   0.873   2.829  1.1896  0.0836  0.4331
 4674TIP3   OH214027   2.772   4.147   4.694 -0.9457  0.1953 -0.4418
 4674TIP3    H114028   2.814   4.224   4.733 -0.1493  0.0284 -0.9496
 4674TIP3    H214029   2.701   4.183   4.641  0.9178  0.8297 -2.6799
 4675TIP3   OH214030   3.357   1.433   3.092  0.0680 -0.6538 -0.2501
 4675TIP3    H114031   3.385   1.357   3.041 -0.1381 -0.9782  0.1103
 4675TIP3    H214032   3.423   1.440   3.161 -0.3999 -1.0562  0.2466
 4676TIP3   OH214033   4.784   3.853   4.412 -0.2472  0.0766 -0.4385
 4676TIP3    H114034   4.750   3.775   4.368 -1.8307 -0.2468  1.2525
 4676TIP3    H214035   4.879   3.842   4.409 -0.4160 -1.5108 -0.9438
 4677TIP3   OH214036   6.228   0.518   2.464 -0.4250  0.0518 -0.0475
 4677TIP3    H114037   6.295   0.539   2.399  0.1997  0.7490  0.8015
 4677TIP3    H214038   6.265   0.445   2.514 -1.8957 -2.1434 -1.9273
 4678TIP3   OH214039   2.733   1.869   2.708 -0.1269 -0.1574  0.7912
 4678TIP3    H114040   2.721   1.776   2.728  0.3672  0.0853  2.3881
 4678TIP3    H214041   2.644   1.903   2.697 -0.2842 -0.9346 -0.5088
 4679TIP3   OH214042   2.565   5.533   4.231 -0.1619  0.0796 -0.2377
 4679TIP3    H114043   2.570   5.540   4.136 -0.2081 -0.5380 -0.2903
 4679TIP3    H214044   2.629   5.596   4.264  0.4820 -0.3348 -0.6933
 4680TIP3   OH214045   4.549   3.351   2.582 -0.2948 -0.4720 -0.4377
 4680TIP3    H114046   4.521   3.441   2.565  0.3527 -0.2421 -0.3139
 4680TIP3    H214047   4.468   3.303   2.599 -0.6143  0.1741 -0.1228
 4681TIP3   OH214048   5.760   0.580   3.076  0.2190  0.0093  0.2157
 4681TIP3    H114049   5.707   0.659   3.087 -0.5453 -0.5208  0.3845
 4681TIP3    H214050   5.699   0.508   3.089  1.1078 -0.6152  1.0572
 4682TIP3   OH214051   2.914   0.469   2.063 -0.4319  0.3493  0.6255
 4682TIP3    H114052   3.005   0.494   2.080  0.5069 -1.7863 -0.9076
 4682TIP3    H214053   2.883   0.533   2.000  0.9718 -0.5179 -1.0108
 4683TIP3   OH214054   3.035   3.905   2.041 -0.4940 -0.0089 -0.3139
 4683TIP3    H114055   3.018   3.937   1.952 -1.1614 -0.3195 -0.3023
 4683TIP3    H214056   2.964   3.844   2.058 -1.8640  1.9098  1.3872
 4684TIP3   OH214057   0.446   2.381   0.860  0.0943 -0.6049 -0.1164
 4684TIP3    H114058   0.491   2.303   0.893  0.6782 -0.2178  0.0226
 4684TIP3    H214059   0.376   2.348   0.804  2.2811 -1.2170 -2.6807
 4685TIP3   OH214060   1.905   1.675   1.428 -0.5159 -0.1199  0.2204
 4685TIP3    H114061   1.953   1.736   1.485 -0.6728  1.1702 -0.9847
 4685TIP3    H214062   1.973   1.620   1.390 -0.3488 -0.5842  1.1711
 4686TIP3   OH214063   5.039   0.353   3.374  0.0849  0.1920 -0.4624
 4686TIP3    H114064   5.112   0.305   3.336 -2.4565 -2.0735 -2.9351
 4686TIP3    H214065   5.008   0.410   3.304 -0.8459  0.7430  0.3660
 4687TIP3   OH214066   4.656   0.611   4.633  0.4360 -0.0656 -0.4270
 4687TIP3    H114067   4.630   0.689   4.584  0.7685  0.4731  0.2377
 4687TIP3    H214068   4.650   0.539   4.570 -0.8771  0.3316 -0.7807
 4688TIP3   OH214069   2.379   2.380   1.427  0.2668  0.4498 -0.4519
 4688TIP3    H114070   2.433   2.301   1.425 -0.4083 -0.0143 -0.4962
 4688TIP3    H214071   2.351   2.388   1.518 -0.7944 -0.1480 -0.7041
 4689TIP3   OH214072   1.323   3.862   0.830 -0.1570  0.0042  0.0114
 4689TIP3    H114073   1.378   3.815   0.893 -1.8464 -0.5410  1.1689
 4689TIP3    H214074   1.352   3.953   0.837  0.9794 -0.3455  0.1444
 4690TIP3   OH214075   5.286   1.927   1.030 -0.5647 -0.0893  0.0114
 4690TIP3    H114076   5.262   2.011   0.989  1.5773  0.8154  0.4717
 4690TIP3    H214077   5.335   1.952   1.108 -1.3608 -1.8096  1.1281
 4691TIP3   OH214078   2.549   3.130   0.141  0.0602 -0.2870 -0.3202
 4691TIP3    H114079   2.547   3.225   0.151  1.1523  0.0943 -3.0330
 4691TIP3    H214080   2.639   3.105   0.164  0.2444 -0.4188 -1.1383
 4692TIP3   OH214081   2.587   4.295   0.413 -0.0205  0.2702  0.0068
 4692TIP3    H114082   2.548   4.218   0.372  0.5139  0.3802 -0.7327
 4692TIP3    H214083   2.550   4.369   0.365  0.1698  0.4290  0.1035
 4693TIP3   OH214084   3.384   4.934   0.423  0.7041  0.2015 -0.2669
 4693TIP3    H114085   3.360   4.853   0.380  0.4843  0.4274 -0.5692
 4693TIP3    H214086   3.312   4.994   0.405  0.7895  0.4168  0.0891
 4694TIP3   OH214087   4.550   3.891   3.826  0.5755  0.1141 -0.7386
 4694TIP3    H114088   4.611   3.960   3.801 -0.7830  1.2208 -1.1391
 4694TIP3    H214089   4.598   3.839   3.891  2.2105  0.4346 -1.6245
 4695TIP3   OH214090   4.372   3.179   1.265  0.4787 -0.0398 -0.3448
 4695TIP3    H114091   4.387   3.273   1.270 -1.0328  0.2196 -0.2431
 4695TIP3    H214092   4.346   3.153   1.353  1.5257 -0.6938 -0.2082
 4696TIP3   OH214093   0.857   1.469   3.463  0.3065 -0.1234 -0.5471
 4696TIP3    H114094   0.938   1.425   3.486  0.3226  0.6574  1.0531
 4696TIP3    H214095   0.861   1.552   3.510 -1.5927 -0.2498 -0.0765
 4697TIP3   OH214096   2.631   1.772   1.860 -0.7217 -0.1258 -0.4993
 4697TIP3    H114097   2.577   1.799   1.934  0.9764  0.5372  0.5526
 4697TIP3    H214098   2.673   1.853   1.831  0.3481 -0.7526 -0.7417
 4698TIP3   OH214099   0.574   1.045   0.971 -0.3543  0.4581 -0.2127
 4698TIP3    H114100   0.627   1.120   0.999  1.2617 -1.1233  1.2410
 4698TIP3    H214101   0.572   0.988   1.048 -1.1135 -1.2073 -1.4158
 4699TIP3   OH214102   1.771   5.317   0.937 -0.1444  0.2987  0.2852
 4699TIP3    H114103   1.724   5.320   0.854 -0.5612  1.1474  0.5422
 4699TIP3    H214104   1.829   5.241   0.929 -1.9401 -1.1288  0.1909
 4700TIP3   OH214105   4.287   5.848   0.698 -0.5617  0.3257 -0.2624
 4700TIP3    H114106   4.367   5.868   0.649 -0.2085  2.0390  0.9151
 4700TIP3    H214107   4.308   5.767   0.746  1.3967  1.9269  1.8103
 4701TIP3   OH214108   1.835   1.717   4.403 -0.3578  0.8825  0.4568
 4701TIP3    H114109   1.876   1.636   4.432  0.3443  0.7432 -0.8459
 4701TIP3    H214110   1.895   1.786   4.433 -0.4876  0.8538  0.7795
 4702TIP3   OH214111   0.340   3.476   4.030  0.8836  0.2821  0.3099
 4702TIP3    H114112   0.364   3.460   4.122  0.6546 -0.1971  0.2902
 4702TIP3    H214113   0.419   3.453   3.981  0.8344  0.0246  0.3489
 4703TIP3   OH214114   5.382   5.961   0.048 -0.2750 -0.3229 -0.4416
 4703TIP3    H114115   5.336   5.900   0.106  1.6461 -1.2387  0.1979
 4703TIP3    H214116   5.315   6.024   0.021 -1.2137  0.3178  2.9882
 4704TIP3   OH214117   2.844   5.309   0.361 -0.4227  0.3474 -0.0742
 4704TIP3    H114118   2.885   5.232   0.398  1.1309 -0.4934 -3.2253
 4704TIP3    H214119   2.770   5.275   0.309 -0.8826  1.1723  0.0175
 4705TIP3   OH214120   5.477   5.723   3.148  0.0792 -0.4114  0.1426
 4705TIP3    H114121   5.489   5.738   3.055 -1.5386 -0.5123 -0.1079
 4705TIP3    H214122   5.475   5.627   3.157  0.0896 -0.4011  0.2544
 4706TIP3   OH214123   4.935   2.058   4.479 -0.7373 -0.2662 -0.1194
 4706TIP3    H114124   4.854   2.008   4.466 -0.8537  0.1507 -1.1016
 4706TIP3    H214125   4.915   2.145   4.447 -0.6539  0.5599  1.9483
 4707TIP3   OH214126   5.205   5.688   1.494  0.2184  0.7502 -0.3382
 4707TIP3    H114127   5.287   5.671   1.541 -0.0235 -0.3769 -0.2979
 4707TIP3    H214128   5.232   5.704   1.404  0.4668 -0.1354 -0.4369
 4708TIP3   OH214129   3.845   3.863   0.442  0.2054  0.0715 -0.4235
 4708TIP3    H114130   3.936   3.834   0.450  1.2394  3.0597 -0.1196
 4708TIP3    H214131   3.802   3.827   0.520  2.2080  1.8471  1.6805
 4709TIP3   OH214132   2.012   2.855   0.819  0.2407 -0.1929 -0.0329
 4709TIP3    H114133   1.980   2.770   0.847  0.6691 -1.0987 -2.1056
 4709TIP3    H214134   1.934   2.901   0.788  0.2355 -0.4876 -0.4658
 4710TIP3   OH214135   5.301   0.851   3.015 -0.1193  0.2308  0.5894
 4710TIP3    H114136   5.211   0.882   3.020  0.2765  1.3704  1.0899
 4710TIP3    H214137   5.328   0.840   3.106 -0.4133 -2.2175  0.4369
 4711TIP3   OH214138   5.875   2.632   4.314 -0.4287  0.1293  0.8187
 4711TIP3    H114139   5.823   2.553   4.327  1.5063 -1.3097  0.1766
 4711TIP3    H214140   5.868   2.650   4.220  1.2551 -0.8643  0.4718
 4712TIP3   OH214141   1.251   4.780   1.976 -0.0906  0.2420  0.7891
 4712TIP3    H114142   1.274   4.736   1.894 -0.6095  2.3759 -0.5925
 4712TIP3    H214143   1.314   4.852   1.983 -1.0724  1.0711  1.3852
 4713TIP3   OH214144   0.816   5.396   3.713 -0.6477  0.3240  0.3415
 4713TIP3    H114145   0.832   5.308   3.679 -0.2483 -0.3634  2.1641
 4713TIP3    H214146   0.741   5.386   3.772 -1.4577  1.5033 -0.4318
 4714TIP3   OH214147   3.252   0.853   4.542 -0.1646  1.0078 -0.2300
 4714TIP3    H114148   3.318   0.823   4.480 -0.6199  0.7774 -0.6107
 4714TIP3    H214149   3.248   0.948   4.529 -0.4130  0.9345 -0.7167
 4715TIP3   OH214150   1.038   2.963   3.628 -0.4483  0.2777  0.0904
 4715TIP3    H114151   0.978   2.996   3.561 -1.0608  2.9521  1.7958
 4715TIP3    H214152   0.988   2.895   3.674 -2.1404  2.2253  1.2581
 4716TIP3   OH214153   6.201   0.616   4.565  0.3858 -1.1215  0.3874
 4716TIP3    H114154   6.194   0.655   4.478  2.4004 -2.5771 -0.4913
 4716TIP3    H214155   6.161   0.530   4.555 -0.6828 -0.7557  1.3260
 4717TIP3   OH214156   2.403   1.837   3.277 -0.0628  0.6446  0.0587
 4717TIP3    H114157   2.319   1.800   3.252  0.8825 -1.3160 -0.4235
 4717TIP3    H214158   2.426   1.896   3.204 -0.3220 -0.0021 -0.5504
 4718TIP3   OH214159   4.947   0.127   3.532 -0.0773  0.0198  0.0749
 4718TIP3    H114160   4.858   0.123   3.498 -0.4764  0.3331  1.0481
 4718TIP3    H214161   4.978   0.214   3.506  0.3288 -0.4737 -1.1537
 4719TIP3   OH214162   5.159   5.505   2.562 -0.2480  0.2114 -0.5704
 4719TIP3    H114163   5.233   5.515   2.502 -0.8775  2.8900 -1.0211
 4719TIP3    H214164   5.088   5.471   2.508 -0.1154  0.2610 -0.7765
 4720TIP3   OH214165   2.311   4.287   2.276 -0.0782 -0.7912 -0.0899
 4720TIP3    H114166   2.354   4.291   2.361  1.2335 -2.1087 -0.6439
 4720TIP3    H214167   2.382   4.286   2.213 -1.0536  0.9351 -1.2725
 4721TIP3   OH214168   5.112   1.818   0.702 -0.4067  0.2581 -0.6120
 4721TIP3    H114169   5.182   1.856   0.649  0.2847 -0.4256 -0.2157
 4721TIP3    H214170   5.158   1.765   0.767 -1.3186 -1.0013 -0.9521
 4722TIP3   OH214171   2.095   2.478   4.355 -0.3026  0.5551 -0.4924
 4722TIP3    H114172   2.184   2.460   4.386 -0.6355 -0.2024  0.0765
 4722TIP3    H214173   2.083   2.418   4.281 -0.8699 -0.4823  0.4153
 4723TIP3   OH214174   3.089   2.835   5.043 -0.3327  0.2821 -0.3457
 4723TIP3    H114175   3.081   2.786   5.125  0.9802  0.6293  0.0168
 4723TIP3    H214176   2.999   2.860   5.021 -0.8141 -0.6764  0.4497
 4724TIP3   OH214177   5.128   2.775   3.530  0.2441 -0.4449  0.9436
 4724TIP3    H114178   5.169   2.776   3.616 -0.3696  0.7864  1.2483
 4724TIP3    H214179   5.158   2.856   3.489 -0.3841 -0.4589  0.4527
 4725TIP3   OH214180   4.056   1.177   0.830  0.4716 -0.0631 -0.2966
 4725TIP3    H114181   4.035   1.093   0.870  0.9678 -0.2726 -0.4668
 4725TIP3    H214182   3.981   1.233   0.850 -1.7874 -1.6342 -3.4421
 4726TIP3   OH214183   5.273   4.297   3.865  0.3204 -0.3600  0.9016
 4726TIP3    H114184   5.287   4.390   3.852  2.5849 -0.6468  0.8726
 4726TIP3    H214185   5.355   4.265   3.904 -1.3050 -1.8956  3.3450
 4727TIP3   OH214186   2.914   5.055   0.857 -0.5797  0.1274  0.0747
 4727TIP3    H114187   2.828   5.053   0.899 -0.3548  4.3489  1.2083
 4727TIP3    H214188   2.897   5.094   0.771 -0.0520 -1.4543 -0.7861
 4728TIP3   OH214189   5.975   1.624   4.652  0.3631  0.4031 -0.4359
 4728TIP3    H114190   5.939   1.712   4.659 -2.9146 -0.7116 -1.3490
 4728TIP3    H214191   5.937   1.576   4.726  1.2092 -0.5305 -0.5770
 4729TIP3   OH214192   1.289   0.922   1.579  0.8978 -0.8722 -0.0635
 4729TIP3    H114193   1.198   0.927   1.550  0.8600 -1.9280 -0.1753
 4729TIP3    H214194   1.340   0.954   1.505  0.5321  3.2625  1.2049
 4730TIP3   OH214195   4.144   5.659   0.511 -0.3317  0.8642  0.8822
 4730TIP3    H114196   4.184   5.740   0.542 -2.8921  2.4222  0.4087
 4730TIP3    H214197   4.217   5.598   0.503  2.1077  3.7239 -0.7720
 4731TIP3   OH214198   3.068   3.901   4.161  0.0544 -0.0358  0.5005
 4731TIP3    H114199   3.043   3.941   4.245  0.2427  1.0175  0.0740
 4731TIP3    H214200   3.095   3.812   4.184  0.7209  0.4392  1.6435
 4732TIP3   OH214201   2.629   5.096   4.134  0.5527  0.4163  0.3405
 4732TIP3    H114202   2.623   5.154   4.210 -1.5322 -1.3517  1.6621
 4732TIP3    H214203   2.701   5.036   4.155 -0.1851 -0.2326  1.1125
 4733TIP3   OH214204   6.099   4.896   4.116  0.0604  0.1094  0.5042
 4733TIP3    H114205   6.074   4.984   4.146  1.0925  0.6627 -0.1878
 4733TIP3    H214206   6.137   4.911   4.030  0.5641 -0.9827  0.5333
 4734TIP3   OH214207   4.811   3.207   1.971  0.0809  0.2382 -0.1230
 4734TIP3    H114208   4.796   3.279   2.032  0.2609  0.1236  0.0566
 4734TIP3    H214209   4.903   3.215   1.947  0.0124  0.2782 -0.3740
 4735TIP3   OH214210   1.556   5.955   0.828  0.0784 -0.0261 -0.1954
 4735TIP3    H114211   1.522   5.913   0.749 -0.4383  1.1850 -0.6551
 4735TIP3    H214212   1.540   6.049   0.813 -0.2489  0.2101  1.4543
 4736TIP3   OH214213   5.934   4.369   4.241  0.8929  0.2270  0.1952
 4736TIP3    H114214   5.991   4.331   4.307  1.4006  0.3621 -0.1569
 4736TIP3    H214215   5.971   4.341   4.157 -1.8349 -3.0901 -0.1060
 4737TIP3   OH214216   1.474   4.296   3.390  0.1355  0.2167 -0.4501
 4737TIP3    H114217   1.395   4.304   3.336  0.0976 -0.8946 -0.5864
 4737TIP3    H214218   1.496   4.203   3.386  1.9084  0.6181 -1.0548
 4738TIP3   OH214219   0.252   4.595   1.460  0.1981 -0.0651  0.7408
 4738TIP3    H114220   0.316   4.526   1.442 -2.1517 -2.3803  0.6540
 4738TIP3    H214221   0.178   4.574   1.403  0.0369  3.7024 -0.7039
 4739TIP3   OH214222   4.655   2.470   5.187 -0.5661 -0.2527 -0.0207
 4739TIP3    H114223   4.698   2.510   5.111 -0.4088  1.0679  0.7428
 4739TIP3    H214224   4.599   2.539   5.222 -1.6173 -1.2600  0.3231
 4740TIP3   OH214225   2.708   1.568   2.730  0.0827  0.3590 -0.0622
 4740TIP3    H114226   2.628   1.522   2.754 -0.6257  1.1869 -0.7436
 4740TIP3    H214227   2.722   1.547   2.638  0.6577  0.2156  0.0532
 4741TIP3   OH214228   2.839   0.541   4.654 -0.6021  0.2308  0.8006
 4741TIP3    H114229   2.873   0.629   4.634 -0.9617  0.3432  0.6744
 4741TIP3    H214230   2.893   0.482   4.601 -1.6604  0.5364 -0.6839
 4742TIP3   OH214231   2.086   0.591   1.150  0.3087  0.2547 -0.2074
 4742TIP3    H114232   2.050   0.503   1.157  2.2518 -0.4997  0.9117
 4742TIP3    H214233   2.030   0.644   1.207 -0.4997 -0.3698 -0.4014
 4743TIP3   OH214234   3.476   4.294   3.458  0.4801  0.5502  0.4249
 4743TIP3    H114235   3.514   4.353   3.523 -0.3668 -0.1585  1.6093
 4743TIP3    H214236   3.414   4.347   3.409 -1.1958  0.4250  2.2911
 4744TIP3   OH214237   2.076   0.960   4.299  0.5266  0.1870 -0.5762
 4744TIP3    H114238   2.012   0.907   4.250 -1.0123  1.3025  0.1305
 4744TIP3    H214239   2.086   1.040   4.247  0.7564  0.3378 -0.3015
 4745TIP3   OH214240   3.668   3.604   1.890  0.0788  0.4930  0.3659
 4745TIP3    H114241   3.627   3.523   1.923 -1.0842  0.7447 -0.3887
 4745TIP3    H214242   3.745   3.574   1.842 -0.8867 -0.2910 -0.7685
 4746TIP3   OH214243   0.515   4.151   4.959  0.2001 -0.4642 -0.4551
 4746TIP3    H114244   0.490   4.122   5.046 -0.4715  0.3150 -0.3677
 4746TIP3    H214245   0.445   4.212   4.934  1.3512  0.7618 -0.7691
 4747TIP3   OH214246   4.343   2.746   0.197 -0.5182 -0.3373 -0.1450
 4747TIP3    H114247   4.333   2.823   0.254 -0.7601  0.9588 -1.8312
 4747TIP3    H214248   4.254   2.712   0.187 -0.8049  0.6373 -1.2512
 4748TIP3   OH214249   3.812   4.974   1.947  1.1690 -0.3003 -0.3941
 4748TIP3    H114250   3.877   4.910   1.977 -1.6264 -3.0313  0.4129
 4748TIP3    H214251   3.833   4.987   1.855  1.6854 -2.7545 -0.7147
 4749TIP3   OH214252   2.198   4.954   2.870 -0.1002 -0.4011  0.6044
 4749TIP3    H114253   2.286   4.952   2.833 -1.3334  0.9057 -2.8122
 4749TIP3    H214254   2.176   5.047   2.871 -1.5632 -0.7339  1.0770
 4750TIP3   OH214255   5.489   5.571   2.751  0.2816  0.5134 -0.2993
 4750TIP3    H114256   5.548   5.541   2.820  1.2345  1.4829 -0.6660
 4750TIP3    H214257   5.473   5.664   2.771  0.3413  0.7317 -1.2087
 4751TIP3   OH214258   6.293   3.192   0.395  0.0007  0.3171 -0.1014
 4751TIP3    H114259   6.288   3.282   0.426 -0.5346 -0.0818  1.0318
 4751TIP3    H214260   6.214   3.181   0.341  0.6666  0.8552 -1.2284
 4752TIP3   OH214261   5.215   0.492   2.788  0.2432  0.2914 -0.8899
 4752TIP3    H114262   5.264   0.574   2.787 -1.0020  1.0812 -0.5521
 4752TIP3    H214263   5.176   0.487   2.700  0.2324  0.1166 -0.8749
 4753TIP3   OH214264   1.508   5.357   3.943 -0.0850 -0.4775 -0.5426
 4753TIP3    H114265   1.490   5.369   3.849 -1.0140 -1.0866 -0.4546
 4753TIP3    H214266   1.432   5.309   3.976 -0.1075  0.3404  0.6692
 4754TIP3   OH214267   1.871   4.325   2.626 -0.6189  0.0157  0.2132
 4754TIP3    H114268   1.934   4.396   2.613 -1.2485  0.3156 -1.3878
 4754TIP3    H214269   1.832   4.343   2.712  2.1101 -0.7285  1.7047
 4755TIP3   OH214270   5.672   4.422   4.742 -0.1979 -0.4193  0.1350
 4755TIP3    H114271   5.697   4.466   4.824  0.5934  0.5893 -0.6132
 4755TIP3    H214272   5.746   4.365   4.722 -0.1564 -0.2669 -0.1470
 4756TIP3   OH214273   0.503   3.909   4.222  0.4944 -0.2346 -0.2447
 4756TIP3    H114274   0.538   3.925   4.135  0.1476 -0.4120 -0.4173
 4756TIP3    H214275   0.441   3.837   4.211 -0.6908  0.7235 -0.1398
 4757TIP3   OH214276   0.823   0.256   1.195 -0.0829 -0.0842  0.1276
 4757TIP3    H114277   0.782   0.176   1.228  0.3781  0.1859  1.4308
 4757TIP3    H214278   0.901   0.267   1.250  1.1599  0.0008 -1.5845
 4758TIP3   OH214279   5.369   1.423   0.722 -0.1487 -0.2722  0.0149
 4758TIP3    H114280   5.424   1.367   0.667  2.3084  0.5413  1.5053
 4758TIP3    H214281   5.430   1.468   0.780 -2.1522  2.7765 -0.0089
 4759TIP3   OH214282   3.906   5.522   3.558  0.2259 -0.5129 -0.1097
 4759TIP3    H114283   3.817   5.555   3.542  0.5764 -0.5750 -2.6420
 4759TIP3    H214284   3.944   5.583   3.621 -1.3751 -0.1075  0.5132
 4760TIP3   OH214285   3.403   2.460   1.122  0.3076  0.1648 -0.0221
 4760TIP3    H114286   3.342   2.477   1.050 -0.3424 -0.2896  0.4118
 4760TIP3    H214287   3.485   2.436   1.078  0.5822  2.0258 -0.6274
 4761TIP3   OH214288   5.403   5.457   3.059 -0.9022  0.2396 -0.2091
 4761TIP3    H114289   5.409   5.364   3.036 -1.0716  0.1358  0.1625
 4761TIP3    H214290   5.336   5.461   3.128 -0.8641  0.6311 -0.1906
 4762TIP3   OH214291   5.601   3.925   2.948 -0.5095 -0.3239  0.3453
 4762TIP3    H114292   5.588   4.008   2.902 -0.7797 -0.4902  0.1210
 4762TIP3    H214293   5.527   3.919   3.008  0.8280  0.8221  2.2276
 4763TIP3   OH214294   3.528   4.332   2.873 -0.0080 -0.3309  0.1795
 4763TIP3    H114295   3.503   4.369   2.789 -0.7441  1.4456  1.1321
 4763TIP3    H214296   3.481   4.249   2.878  0.4228 -0.6964 -1.3411
 4764TIP3   OH214297   2.584   0.122   0.046 -0.1230  0.2033  0.1638
 4764TIP3    H114298   2.671   0.083   0.045 -0.5717 -0.8789 -1.2631
 4764TIP3    H214299   2.579   0.171  -0.037 -0.6528  0.7991  0.5353
 4765TIP3   OH214300   6.173   2.824   2.586  0.1151 -0.4957  0.6140
 4765TIP3    H114301   6.109   2.799   2.520  0.4858 -0.8540  0.3806
 4765TIP3    H214302   6.165   2.756   2.654 -0.3589 -0.0545  1.0050
 4766TIP3   OH214303   4.440   0.598   0.249  0.3711  0.2771 -0.0548
 4766TIP3    H114304   4.385   0.659   0.198 -0.3152 -0.5008 -0.2663
 4766TIP3    H214305   4.400   0.512   0.235  2.3570 -0.5282 -1.1918
 4767TIP3   OH214306   4.000   1.853   4.830 -0.1852  0.1813  0.0440
 4767TIP3    H114307   3.966   1.864   4.919  1.7240  4.0260  0.4880
 4767TIP3    H214308   4.093   1.833   4.842  0.1401  0.9571 -1.0381
 4768TIP3   OH214309   4.288   3.512   3.936 -0.4044  0.3820  0.1050
 4768TIP3    H114310   4.322   3.427   3.908 -0.4182  0.1700  0.7310
 4768TIP3    H214311   4.366   3.566   3.949 -0.3449  0.1723  0.6422
 4769TIP3   OH214312   0.652   5.301   4.474  0.2875 -0.0862 -0.3518
 4769TIP3    H114313   0.621   5.376   4.524 -1.7576 -0.3658 -1.0795
 4769TIP3    H214314   0.747   5.303   4.483  0.0994  0.6600  2.3445
 4770TIP3   OH214315   0.978   2.293   1.259 -0.0307 -0.2759  0.0386
 4770TIP3    H114316   1.001   2.355   1.328  2.5669  1.4286 -2.1527
 4770TIP3    H214317   1.030   2.215   1.279  1.0996  0.3939 -0.2577
 4771TIP3   OH214318   1.902   4.664   1.279  0.1584  0.7098 -0.3173
 4771TIP3    H114319   1.958   4.705   1.345 -0.9993 -0.3641  1.3906
 4771TIP3    H214320   1.814   4.695   1.300 -0.3516 -0.3920 -0.7694
 4772TIP3   OH214321   0.088   0.519   1.147 -0.0938  0.2527 -0.0636
 4772TIP3    H114322   0.134   0.548   1.226  0.0219  0.9980 -0.3950
 4772TIP3    H214323   0.020   0.460   1.179 -0.2492  0.7922  0.6269
 4773TIP3   OH214324   0.246   4.279   2.956 -0.1543 -0.0104 -0.5998
 4773TIP3    H114325   0.224   4.317   3.041  2.2665  0.1710  0.0177
 4773TIP3    H214326   0.208   4.340   2.892 -0.8945  0.5448  0.3478
 4774TIP3   OH214327   4.019   1.475   1.183  0.3202  0.4072  0.4828
 4774TIP3    H114328   4.003   1.383   1.206 -0.9144 -0.1781 -2.3052
 4774TIP3    H214329   4.092   1.471   1.121  0.9142  1.4678  1.0770
 4775TIP3   OH214330   0.646   1.674   0.381 -0.6148  0.3991 -0.4033
 4775TIP3    H114331   0.646   1.769   0.391  2.1948  0.6274 -1.6838
 4775TIP3    H214332   0.712   1.643   0.444  0.0383 -0.4648 -1.4873
 4776TIP3   OH214333   5.080   5.513   4.874 -0.1218  0.6559  0.2359
 4776TIP3    H114334   5.035   5.594   4.896 -2.0828  0.3112 -1.9792
 4776TIP3    H214335   5.121   5.530   4.789 -1.9343 -1.0038 -1.0969
 4777TIP3   OH214336   2.219   4.534   1.861  0.6602 -0.7364  0.0019
 4777TIP3    H114337   2.198   4.453   1.815  0.5653 -0.4422 -0.4806
 4777TIP3    H214338   2.143   4.551   1.917  0.4600 -0.7112 -0.2775
 4778TIP3   OH214339   2.764   0.733   1.399 -0.2301  0.5932 -0.0971
 4778TIP3    H114340   2.752   0.687   1.316  0.3506 -1.3663  0.8489
 4778TIP3    H214341   2.675   0.754   1.428 -0.6035 -0.9796 -0.0265
 4779TIP3   OH214342   1.582   4.239   1.844  0.4532 -0.4182 -0.6274
 4779TIP3    H114343   1.588   4.300   1.917  1.2382  2.1148 -2.6710
 4779TIP3    H214344   1.492   4.208   1.845  0.1224  0.5141  0.6468
 4780TIP3   OH214345   3.036   5.328   4.328 -0.6784 -0.2579 -0.4659
 4780TIP3    H114346   3.117   5.277   4.326  0.7130  1.7769 -0.0898
 4780TIP3    H214347   3.040   5.382   4.249 -0.1060  1.9726  0.9793
 4781TIP3   OH214348   2.642   2.901   3.746 -0.0160 -0.0562  0.0260
 4781TIP3    H114349   2.583   2.955   3.799 -0.1384  0.3711 -0.5315
 4781TIP3    H214350   2.623   2.811   3.773 -0.9584  0.0752 -0.1594
 4782TIP3   OH214351   2.202   3.958   2.848 -0.3128  0.7022 -0.1131
 4782TIP3    H114352   2.112   3.971   2.879 -1.4817 -0.9713 -2.4075
 4782TIP3    H214353   2.213   4.023   2.779 -0.4088 -0.1335 -0.9400
 4783TIP3   OH214354   4.629   3.062   4.241  0.2766  0.5730 -0.7672
 4783TIP3    H114355   4.662   3.094   4.325  1.6166 -1.5818 -0.3749
 4783TIP3    H214356   4.570   3.130   4.210  0.7471  2.0093  1.3050
 4784TIP3   OH214357   2.600   3.188   4.205  0.0830  0.1857  0.5077
 4784TIP3    H114358   2.612   3.272   4.160 -0.9551  1.0391  1.7272
 4784TIP3    H214359   2.661   3.128   4.162  0.1149  1.2993 -1.0745
 4785TIP3   OH214360   3.237   1.553   3.478 -0.2094 -0.3891 -0.2048
 4785TIP3    H114361   3.317   1.523   3.520  0.6490  0.7418 -0.9637
 4785TIP3    H214362   3.181   1.582   3.551  0.8133  0.5169  0.2388
 4786TIP3   OH214363   2.411   5.354   2.121  0.1937  0.1163 -0.8930
 4786TIP3    H114364   2.421   5.405   2.041 -2.9049  1.3414 -0.6517
 4786TIP3    H214365   2.319   5.367   2.146  0.7583 -1.1373  2.2536
 4787TIP3   OH214366   6.224   4.391   3.152  0.8611  0.1842 -0.2427
 4787TIP3    H114367   6.166   4.462   3.181  0.4541 -0.1201 -0.2943
 4787TIP3    H214368   6.186   4.312   3.191  2.3527  0.1927  1.3176
 4788TIP3   OH214369   2.889   1.804   4.529  0.1913  0.0289  0.0664
 4788TIP3    H114370   2.958   1.764   4.583  0.2416  0.0716  0.0330
 4788TIP3    H214371   2.856   1.875   4.583  1.8161  1.5649 -0.8719
 4789TIP3   OH214372   3.580   5.110   4.249  0.2988 -0.3211 -0.6927
 4789TIP3    H114373   3.623   5.123   4.164  0.6308 -0.3434 -0.5317
 4789TIP3    H214374   3.636   5.156   4.311  0.6207 -1.1668 -0.3377
 4790TIP3   OH214375   0.034   4.261   0.390  0.1888  0.3536  0.0682
 4790TIP3    H114376  -0.015   4.337   0.358 -0.5574 -0.4233 -0.6910
 4790TIP3    H214377  -0.012   4.234   0.469 -0.2931 -0.0250 -0.3291
 4791TIP3   OH214378   0.660   4.664   2.425  0.5632  0.0346  0.7865
 4791TIP3    H114379   0.614   4.600   2.479  1.3134  0.8426  2.4601
 4791TIP3    H214380   0.594   4.696   2.363 -0.5913 -0.2558  1.8287
 4792TIP3   OH214381   3.004   1.654   1.189 -0.0360  0.3550 -0.6872
 4792TIP3    H114382   3.097   1.665   1.172  0.3314 -1.8291 -0.3619
 4792TIP3    H214383   2.999   1.629   1.281 -1.1503  2.3335 -0.1522
 4793TIP3   OH214384   1.445   5.333   3.376 -0.1426  0.1825  0.5429
 4793TIP3    H114385   1.513   5.273   3.404  1.0520  1.1982 -0.0782
 4793TIP3    H214386   1.475   5.419   3.406 -0.8431  0.7393 -0.3001
 4794TIP3   OH214387   5.005   1.429   4.204 -0.1952 -0.1286  0.2236
 4794TIP3    H114388   4.956   1.497   4.157  0.4645 -0.1251 -0.4649
 4794TIP3    H214389   5.069   1.478   4.256  0.6467 -0.2308 -0.6905
 4795TIP3   OH214390   0.575   0.764   0.742 -0.0445  0.2641 -0.3077
 4795TIP3    H114391   0.491   0.720   0.753  0.8440 -1.2786  0.6920
 4795TIP3    H214392   0.608   0.734   0.657  0.5149 -0.9863  0.3286
 4796TIP3   OH214393   1.806   0.584   2.834  0.5543  0.4008 -0.4111
 4796TIP3    H114394   1.812   0.604   2.741  1.7652  1.5890 -0.1107
 4796TIP3    H214395   1.897   0.576   2.863  0.1778 -1.1963  0.4337
 4797TIP3   OH214396   0.922   5.556   1.995  0.6916  0.4869  0.5292
 4797TIP3    H114397   0.970   5.508   2.063 -2.0082 -0.7492  1.7031
 4797TIP3    H214398   0.985   5.619   1.962  2.8491 -0.4602  2.5282
 4798TIP3   OH214399   5.351   4.420   3.204  0.4855 -0.0232  0.2894
 4798TIP3    H114400   5.382   4.498   3.251  0.2631  2.3706 -3.1437
 4798TIP3    H214401   5.419   4.404   3.139 -1.4297  0.0375 -1.8252
 4799TIP3   OH214402   4.140   2.497   1.782 -0.4376  0.3526 -0.1434
 4799TIP3    H114403   4.086   2.460   1.712 -0.4726 -0.1628  0.1527
 4799TIP3    H214404   4.225   2.513   1.741  0.0171 -1.3535  0.0537
 4800TIP3   OH214405   4.626   4.995   4.990  0.0708  0.2578 -0.2654
 4800TIP3    H114406   4.535   4.966   4.997  0.2528 -0.6517 -1.3937
 4800TIP3    H214407   4.620   5.084   4.955 -0.4061  0.6543  0.7799
 4801TIP3   OH214408   1.771   1.415   4.796  0.0755 -0.0657 -0.1852
 4801TIP3    H114409   1.793   1.488   4.852  0.7108 -0.7123  0.4299
 4801TIP3    H214410   1.700   1.447   4.741  0.3657  1.0095  0.0539
 4802TIP3   OH214411   1.919   3.187   0.936 -0.1294 -0.0682  0.5289
 4802TIP3    H114412   1.854   3.147   0.993  0.9697 -0.5658  1.4596
 4802TIP3    H214413   1.991   3.124   0.932 -0.2013 -0.0955 -1.4988
 4803TIP3   OH214414   4.568   3.522   4.595  0.1671  0.1608  0.1447
 4803TIP3    H114415   4.650   3.495   4.637  0.5775  0.0145 -0.7352
 4803TIP3    H214416   4.596   3.570   4.517 -0.5234 -3.1517 -2.3367
 4804TIP3   OH214417   1.144   2.995   2.068  0.0464  0.0057  0.1711
 4804TIP3    H114418   1.095   2.982   2.149 -1.0644 -0.5144 -0.5600
 4804TIP3    H214419   1.145   2.909   2.027  2.0976 -0.1399  0.4185
 4805TIP3   OH214420   4.425   3.755   2.253  0.4539  0.1334 -0.1769
 4805TIP3    H114421   4.446   3.821   2.318 -0.7193  1.6013 -1.1945
 4805TIP3    H214422   4.432   3.801   2.169 -2.1700 -0.4385 -0.8300
 4806TIP3   OH214423   2.854   0.375   4.878  0.3670  0.0576 -0.0444
 4806TIP3    H114424   2.764   0.345   4.882  0.4441 -0.1383  0.2404
 4806TIP3    H214425   2.860   0.423   4.795  0.5943 -1.8550 -1.1916
 4807TIP3   OH214426   0.149   0.969   4.316  0.0064 -0.6837  0.5598
 4807TIP3    H114427   0.163   0.954   4.410  1.5780 -2.4168  0.1068
 4807TIP3    H214428   0.238   0.981   4.281 -0.4140 -1.7332 -0.9514
 4808TIP3   OH214429   0.810   2.151   0.142 -0.2855 -0.2103 -0.0452
 4808TIP3    H114430   0.885   2.199   0.176 -1.0084  0.0531  1.2004
 4808TIP3    H214431   0.822   2.061   0.174 -1.1514  0.1175  1.2304
 4809TIP3   OH214432   5.127   3.865   1.353  0.4564 -0.0448  0.1563
 4809TIP3    H114433   5.157   3.853   1.263 -0.1879 -1.2671  0.0842
 4809TIP3    H214434   5.180   3.804   1.404  0.7098  0.5313  0.5917
 4810TIP3   OH214435   4.504   3.997   4.452 -1.0021  0.0186 -0.6484
 4810TIP3    H114436   4.567   3.986   4.523 -0.2073 -0.5686 -1.4231
 4810TIP3    H214437   4.494   3.909   4.415 -3.0817 -0.1119  0.1021
 4811TIP3   OH214438   0.008   2.322   1.609  0.1733 -0.1260  0.0369
 4811TIP3    H114439  -0.063   2.375   1.646 -1.2157 -2.1606  0.5359
 4811TIP3    H214440   0.059   2.295   1.685 -1.1669 -2.2008  0.3056
 4812TIP3   OH214441   0.290   1.517   1.840 -0.6862  0.1908  0.2785
 4812TIP3    H114442   0.290   1.552   1.750 -1.7117  0.1850  0.2705
 4812TIP3    H214443   0.337   1.434   1.833 -1.1625 -0.0310 -0.3445
 4813TIP3   OH214444   5.699   0.466   0.110 -0.4919  0.5391 -0.2967
 4813TIP3    H114445   5.614   0.507   0.093 -0.7282  0.7722  1.3130
 4813TIP3    H214446   5.759   0.539   0.122 -0.2083  0.3793 -0.7399
 4814TIP3   OH214447   4.061   3.320   3.243 -0.1740  0.2395  0.3333
 4814TIP3    H114448   4.073   3.346   3.335  3.0419  2.9745 -0.6390
 4814TIP3    H214449   4.125   3.250   3.230 -0.3203  0.1563  0.0632
 4815TIP3   OH214450   0.727   0.112   4.193 -0.2808 -0.0974 -0.2402
 4815TIP3    H114451   0.823   0.111   4.182 -0.1260 -3.1309  0.7406
 4815TIP3    H214452   0.714   0.123   4.287 -0.8116 -1.5683 -0.1224
 4816TIP3   OH214453   2.317   1.409   4.959  0.4317 -0.3172  0.1037
 4816TIP3    H114454   2.275   1.486   4.999  1.3300 -0.4452  1.3643
 4816TIP3    H214455   2.395   1.395   5.012  1.2295 -1.0401 -1.2239
 4817TIP3   OH214456   5.608   0.972   0.305 -0.5458 -0.3738  0.7664
 4817TIP3    H114457   5.660   0.978   0.386  1.6772  1.1900 -0.6522
 4817TIP3    H214458   5.583   1.062   0.286  1.0699 -0.3280 -1.4974
 4818TIP3   OH214459   1.866   4.730   1.929  0.0450 -0.1956  0.4796
 4818TIP3    H114460   1.815   4.791   1.982 -1.3590  0.6993 -1.7982
 4818TIP3    H214461   1.946   4.779   1.907  0.0477 -0.1128  0.6643
 4819TIP3   OH214462   2.151   5.800   3.207 -0.3846  0.1174  0.6874
 4819TIP3    H114463   2.140   5.877   3.262 -0.2783 -0.0796  0.9872
 4819TIP3    H214464   2.064   5.762   3.199 -0.8229  1.3894 -1.1323
 4820TIP3   OH214465   1.020   1.239   3.824 -0.3564 -0.2736 -0.1528
 4820TIP3    H114466   1.103   1.267   3.863 -0.9941  1.1349  0.2495
 4820TIP3    H214467   0.970   1.320   3.813 -1.6800 -1.0972 -0.3799
 4821TIP3   OH214468   3.717   2.482   3.330 -0.5214 -0.4590  0.0270
 4821TIP3    H114469   3.747   2.461   3.419 -0.0485  1.6175  0.4128
 4821TIP3    H214470   3.660   2.559   3.342 -1.1855 -0.7095 -1.3785
 4822TIP3   OH214471   2.551   2.134   1.165 -0.4589 -0.8327 -0.0181
 4822TIP3    H114472   2.473   2.093   1.202  0.5364  0.2919  3.8246
 4822TIP3    H214473   2.522   2.221   1.139 -0.6226 -0.5226  1.1264
 4823TIP3   OH214474   1.360   5.888   4.728 -0.4596 -0.4763  0.4865
 4823TIP3    H114475   1.276   5.877   4.773 -0.7270  1.3205  0.4972
 4823TIP3    H214476   1.347   5.964   4.671  1.7969  1.3363  2.1715
 4824TIP3   OH214477   2.375   1.832   1.663  0.3008  1.0318  0.7384
 4824TIP3    H114478   2.312   1.851   1.732  0.6498  2.3001  0.7321
 4824TIP3    H214479   2.457   1.872   1.694  1.4506 -1.5414  1.2845
 4825TIP3   OH214480   1.252   0.462   0.875 -0.2421  0.3990  0.3435
 4825TIP3    H114481   1.199   0.383   0.863 -0.2061  0.6825 -2.1981
 4825TIP3    H214482   1.189   0.532   0.887 -0.3670  0.3231  0.1394
 4826TIP3   OH214483   1.934   2.845   1.134  0.4850  0.3317  0.8076
 4826TIP3    H114484   1.952   2.896   1.213  0.8668 -1.2399  1.7726
 4826TIP3    H214485   1.859   2.790   1.157  0.3179  0.1712 -0.0755
 4827TIP3   OH214486   2.754   3.967   4.426 -0.9085 -0.0743  0.1479
 4827TIP3    H114487   2.677   3.956   4.370 -0.0298  1.0096 -1.3472
 4827TIP3    H214488   2.736   3.913   4.503 -2.7704 -0.5210 -0.5555
 4828TIP3   OH214489   3.654   4.258   4.415 -0.2185 -1.0058  0.2797
 4828TIP3    H114490   3.637   4.305   4.497 -0.1169 -0.2121 -0.1457
 4828TIP3    H214491   3.700   4.321   4.360  2.7280 -2.5167  0.7657
 4829TIP3   OH214492   1.206   2.896   0.451  0.3981  0.0777  0.5972
 4829TIP3    H114493   1.271   2.885   0.521 -0.5370  0.1046  1.4845
 4829TIP3    H214494   1.244   2.963   0.394  1.3555 -0.2293  0.8512
 4830TIP3   OH214495   1.377   5.725   3.523  0.0637 -0.4249  0.7235
 4830TIP3    H114496   1.390   5.820   3.526 -0.5326 -0.2585 -1.0308
 4830TIP3    H214497   1.289   5.714   3.490  0.9080 -1.5727 -1.3041
 4831TIP3   OH214498   3.094   4.321   1.133  0.4104 -0.7914  0.0296
 4831TIP3    H114499   3.007   4.283   1.146  0.5628 -1.3417 -0.5048
 4831TIP3    H214500   3.080   4.395   1.074 -0.0691  0.7943  2.0318
 4832TIP3   OH214501   3.071   1.583   0.662 -0.0640  0.9375  0.0417
 4832TIP3    H114502   3.164   1.604   0.677 -0.4047  1.8815  0.9472
 4832TIP3    H214503   3.059   1.497   0.703  0.3649  0.8942  0.0855
 4833TIP3   OH214504   3.718   5.212   0.644 -0.1420  0.2427  0.6080
 4833TIP3    H114505   3.688   5.134   0.596 -0.7248  0.7929  0.0553
 4833TIP3    H214506   3.740   5.275   0.575  1.8368  0.0487  1.0023
 4834TIP3   OH214507   2.261   2.152   0.280 -0.5005  0.1150 -0.1731
 4834TIP3    H114508   2.321   2.088   0.242  0.1347  0.8360 -0.4185
 4834TIP3    H214509   2.229   2.203   0.206  0.8212  1.5933  0.2138
 4835TIP3   OH214510   6.110   2.209   0.092  0.3311 -0.7800 -0.2235
 4835TIP3    H114511   6.102   2.259   0.011  2.4270  0.6326  0.3596
 4835TIP3    H214512   6.026   2.165   0.102 -1.0383  1.3450 -1.6465
 4836TIP3   OH214513   4.663   4.912   4.325  0.0135 -0.0766  0.0227
 4836TIP3    H114514   4.636   4.889   4.414  0.0797  0.5984  0.2220
 4836TIP3    H214515   4.637   4.836   4.272 -1.9582  0.3739  0.2566
 4837TIP3   OH214516   3.079   2.074   4.628  0.1419  0.2168 -0.1723
 4837TIP3    H114517   3.148   2.081   4.693 -1.1811  0.9653  1.2180
 4837TIP3    H214518   3.081   2.158   4.582  0.3504  0.1200 -0.3407
 4838TIP3   OH214519   4.516   2.706   4.871 -0.0135  0.2477 -0.2682
 4838TIP3    H114520   4.607   2.733   4.881  0.0678 -0.2315  0.4275
 4838TIP3    H214521   4.482   2.705   4.961 -0.3610 -0.6887 -0.3930
 4839TIP3   OH214522   3.321   1.303   1.536  0.0274 -0.3336 -0.4850
 4839TIP3    H114523   3.402   1.317   1.487  0.7937 -2.2802  0.1280
 4839TIP3    H214524   3.256   1.282   1.469  0.5544 -0.8517 -0.8482
 4840TIP3   OH214525   6.207   1.260   4.093  0.2886 -0.6020  0.0948
 4840TIP3    H114526   6.211   1.207   4.173  0.8839 -0.1495  0.3684
 4840TIP3    H214527   6.132   1.224   4.044  1.6907 -2.8428 -0.5455
 4841TIP3   OH214528   4.808   4.210   2.433  0.6936 -0.3221 -0.0463
 4841TIP3    H114529   4.854   4.293   2.440  0.5865 -0.2515 -0.1724
 4841TIP3    H214530   4.747   4.222   2.360 -0.5429  0.0908  1.0054
 4842TIP3   OH214531   2.498   2.003   0.252  0.1023 -0.1485 -0.7818
 4842TIP3    H114532   2.523   2.046   0.334 -2.5733  2.5227 -1.1870
 4842TIP3    H214533   2.570   2.022   0.192  1.6456 -1.3075  0.6013
 4843TIP3   OH214534   5.489   5.264   5.023 -0.0927 -0.0704  0.2508
 4843TIP3    H114535   5.516   5.336   4.966 -0.1928 -0.2502 -0.0245
 4843TIP3    H214536   5.551   5.267   5.096  0.4885 -0.2898 -0.2246
 4844TIP3   OH214537   3.291   0.726   0.518  0.0954  0.3307 -0.7886
 4844TIP3    H114538   3.238   0.712   0.439 -0.8964  0.2747 -0.1214
 4844TIP3    H214539   3.246   0.796   0.565 -0.2810 -0.8159  0.5842
 4845TIP3   OH214540   5.800   3.677   4.439  0.2713  0.0882  0.0794
 4845TIP3    H114541   5.786   3.768   4.466 -1.3627 -0.1463  0.0755
 4845TIP3    H214542   5.889   3.658   4.468  0.3643  1.4445  0.7754
 4846TIP3   OH214543   4.746   1.088   2.026 -0.1747  0.1610  0.1548
 4846TIP3    H114544   4.832   1.061   2.057  0.0170 -0.5414 -0.9224
 4846TIP3    H214545   4.723   1.022   1.960 -0.6465  1.4654 -1.0268
 4847TIP3   OH214546   3.055   2.269   0.463  0.1693  0.2087 -0.2127
 4847TIP3    H114547   2.964   2.259   0.432  0.2996 -0.1707 -0.4904
 4847TIP3    H214548   3.097   2.323   0.396  0.2221  0.1431 -0.2326
 4848TIP3   OH214549   3.256   0.233   2.094  0.1702  0.2174 -0.2939
 4848TIP3    H114550   3.343   0.272   2.097 -0.1763  1.0363 -0.4184
 4848TIP3    H214551   3.204   0.287   2.153  0.0274 -1.0154  0.7362
 4849TIP3   OH214552   4.701   2.775   4.304  0.2490 -0.2567 -0.4140
 4849TIP3    H114553   4.612   2.809   4.317  1.1578  1.6096  1.4376
 4849TIP3    H214554   4.721   2.795   4.213 -0.5446  1.0599 -0.3289
 4850TIP3   OH214555   4.936   1.692   4.111 -0.7092 -0.2190 -0.3480
 4850TIP3    H114556   4.873   1.693   4.039  0.7561  0.6215 -1.6949
 4850TIP3    H214557   4.934   1.781   4.146  1.0410  0.3998 -1.6746
 4851TIP3   OH214558   4.964   4.381   1.528 -0.1722  0.0555 -0.2042
 4851TIP3    H114559   4.871   4.383   1.508  0.1739 -0.9356 -2.1373
 4851TIP3    H214560   4.996   4.300   1.488  1.4850  0.2386  0.6340
 4852TIP3   OH214561   1.125   4.210   2.704  0.1416 -0.2365  0.0029
 4852TIP3    H114562   1.107   4.116   2.699 -0.6671 -0.0155 -3.1867
 4852TIP3    H214563   1.104   4.244   2.617  1.1052  2.8121  0.8172
 4853TIP3   OH214564   0.657   4.271   1.632  0.0986  0.3134 -0.2461
 4853TIP3    H114565   0.594   4.216   1.586  1.1417  0.2671 -1.6914
 4853TIP3    H214566   0.611   4.353   1.648 -0.3978  0.2232 -1.1280
 4854TIP3   OH214567   4.576   1.899   0.574 -0.0153 -0.5661  0.0681
 4854TIP3    H114568   4.522   1.912   0.652 -1.6516  0.6188 -1.1881
 4854TIP3    H214569   4.665   1.890   0.607 -0.4568  1.3992  2.0003
 4855TIP3   OH214570   4.498   0.415   3.306  0.0314 -0.2907  0.0308
 4855TIP3    H114571   4.476   0.349   3.372  0.9006 -1.0295 -0.3991
 4855TIP3    H214572   4.515   0.365   3.226 -2.1876  0.6734 -1.1209
 4856TIP3   OH214573   5.918   0.275   5.004 -0.1811  0.8242  0.5295
 4856TIP3    H114574   5.941   0.358   4.964 -1.3139  1.0421  0.2852
 4856TIP3    H214575   5.842   0.244   4.954  1.6928 -1.5927 -1.0348
 4857TIP3   OH214576   3.920   0.362   1.273 -0.0582 -0.2901  0.7917
 4857TIP3    H114577   3.970   0.284   1.250  1.5300  0.7176  0.6609
 4857TIP3    H214578   3.986   0.430   1.287 -1.2203  0.4900  3.2021
 4858TIP3   OH214579   5.767   1.877   1.503  0.2138  0.1182 -0.1779
 4858TIP3    H114580   5.772   1.881   1.407  0.2685  0.9613 -0.1517
 4858TIP3    H214581   5.676   1.899   1.522  0.0205 -0.7571 -0.0589
 4859TIP3   OH214582   1.115   4.581   2.673  0.4161  0.2897 -0.1670
 4859TIP3    H114583   1.141   4.588   2.581  2.2929 -1.9047  0.1120
 4859TIP3    H214584   1.025   4.548   2.669  0.7705 -0.6347 -1.2607
 4860TIP3   OH214585   5.056   3.841   5.088 -0.0800 -0.0087 -0.0262
 4860TIP3    H114586   5.104   3.836   5.005  0.2659 -0.4088  0.1984
 4860TIP3    H214587   4.965   3.857   5.062  0.4499  3.0730 -0.4220
 4861TIP3   OH214588   3.461   1.020   2.756  0.1015 -0.2481 -0.0493
 4861TIP3    H114589   3.415   1.089   2.805  0.9906  1.0588 -1.0028
 4861TIP3    H214590   3.437   0.939   2.802 -0.9171  0.6805  1.1475
 4862TIP3   OH214591   1.881   4.104   0.950 -0.6572 -0.0415  0.2551
 4862TIP3    H114592   1.861   4.011   0.938 -0.7670  0.0255 -0.1001
 4862TIP3    H214593   1.881   4.117   1.045  0.1062 -0.5657  0.3302
 4863TIP3   OH214594   5.338   0.947   4.230  0.0348  0.2984  0.3451
 4863TIP3    H114595   5.331   1.033   4.188 -1.8200 -0.1778 -0.3967
 4863TIP3    H214596   5.432   0.931   4.237  0.4875  2.9351  1.6622
 4864TIP3   OH214597   0.544   1.635   2.022  0.2454 -0.2253 -0.3362
 4864TIP3    H114598   0.460   1.602   2.054  0.4014  0.4831  0.8814
 4864TIP3    H214599   0.609   1.596   2.080  0.9824 -2.1481 -2.3237
 4865TIP3   OH214600   4.726   0.796   4.882  0.6158 -0.3448 -0.5929
 4865TIP3    H114601   4.781   0.852   4.827 -1.2284  0.8254 -1.3649
 4865TIP3    H214602   4.658   0.764   4.822 -1.4768  0.9782  0.9574
 4866TIP3   OH214603   0.020   0.403   1.866 -0.1704  0.1268  0.1187
 4866TIP3    H114604  -0.064   0.443   1.892 -0.1476  0.6517 -0.5830
 4866TIP3    H214605   0.066   0.388   1.949  0.2395  2.4980  0.3962
 4867TIP3   OH214606   0.090   1.611   0.334 -0.3008  0.3133  0.1762
 4867TIP3    H114607   0.082   1.617   0.239 -1.4586  1.0725  0.2964
 4867TIP3    H214608   0.160   1.547   0.349  0.6890  1.0212 -1.1882
 4868TIP3   OH214609   4.842   0.710   1.008 -0.4877 -0.1406  0.5018
 4868TIP3    H114610   4.861   0.755   0.926 -1.0552 -1.7060 -0.5435
 4868TIP3    H214611   4.759   0.746   1.037 -1.5225 -1.2416 -0.9315
 4869TIP3   OH214612   4.202   2.085   2.101  0.0582 -0.3093  0.4328
 4869TIP3    H114613   4.225   2.060   2.011  2.0665  0.8793  0.5662
 4869TIP3    H214614   4.184   2.179   2.095  0.0833 -0.2518  1.2574
 4870TIP3   OH214615   3.737   1.086   0.853 -0.1682 -0.3683 -0.2486
 4870TIP3    H114616   3.655   1.037   0.851 -0.3845 -0.1718  1.7142
 4870TIP3    H214617   3.727   1.146   0.927  0.5174  1.9119 -1.8714
 4871TIP3   OH214618   1.620   5.872   2.287 -0.4173  0.5135  0.5094
 4871TIP3    H114619   1.700   5.821   2.280  0.2676  1.6339 -0.2165
 4871TIP3    H214620   1.567   5.844   2.212 -0.1172  0.7446  0.2095
 4872TIP3   OH214621   2.793   2.590   5.135  0.0575  0.5322  0.2329
 4872TIP3    H114622   2.784   2.569   5.042 -0.6545 -2.5416  0.8624
 4872TIP3    H214623   2.824   2.509   5.175 -0.1490  1.5956  2.7681
 4873TIP3   OH214624   2.970   4.740   2.437  0.3605  0.1612 -0.4715
 4873TIP3    H114625   3.031   4.683   2.390  0.8788  0.6957 -0.4585
 4873TIP3    H214626   2.968   4.820   2.385  0.6286  0.6077  0.2021
 4874TIP3   OH214627   3.738   4.091   0.184 -0.3897  0.0933 -0.3530
 4874TIP3    H114628   3.672   4.092   0.254 -0.1370  0.4747 -0.1162
 4874TIP3    H214629   3.778   4.178   0.188 -1.9113  0.9728 -2.4311
 4875TIP3   OH214630   4.297   0.365   4.332  0.3475  0.5417 -0.2874
 4875TIP3    H114631   4.273   0.437   4.390  0.2898  0.2163  0.0940
 4875TIP3    H214632   4.339   0.300   4.389 -1.5734 -0.6990 -0.2061
 4876TIP3   OH214633   1.467   5.056   3.753  0.4778 -0.1160  0.0277
 4876TIP3    H114634   1.556   5.082   3.777  0.4123 -1.3074  1.7159
 4876TIP3    H214635   1.479   4.987   3.688  0.8039 -0.3192  0.3011
 4877TIP3   OH214636   1.956   2.001   1.355  0.7014 -0.0910  0.2435
 4877TIP3    H114637   2.003   1.982   1.437 -0.0149  0.0975  0.7036
 4877TIP3    H214638   1.864   2.002   1.380  0.5312  0.8950 -0.3849
 4878TIP3   OH214639   3.985   4.437   2.090  0.3730 -0.1525 -0.2237
 4878TIP3    H114640   3.978   4.343   2.107 -0.0936  0.0125  0.5399
 4878TIP3    H214641   3.894   4.467   2.082  0.5118  0.2737 -0.2303
 4879TIP3   OH214642   4.487   1.693   4.438 -0.0941 -0.1466 -0.4360
 4879TIP3    H114643   4.438   1.669   4.517  0.6151 -0.0421  0.0437
 4879TIP3    H214644   4.522   1.780   4.457  3.0060 -1.4500  0.6284
 4880TIP3   OH214645   5.035   1.170   1.830 -0.1200  0.2312  0.3154
 4880TIP3    H114646   5.004   1.094   1.879  0.9178  0.6224  1.6301
 4880TIP3    H214647   5.127   1.178   1.852  0.6976 -0.1448 -2.5048
 4881TIP3   OH214648   2.816   0.776   4.345  0.3229 -0.1132 -0.1196
 4881TIP3    H114649   2.808   0.722   4.266 -0.1425 -1.6172  0.9017
 4881TIP3    H214650   2.739   0.832   4.344 -0.2227 -0.8469 -0.2336
 4882TIP3   OH214651   5.765   0.940   0.596 -0.1837 -0.1297  0.3061
 4882TIP3    H114652   5.825   1.013   0.579 -0.8905  0.7999  1.6406
 4882TIP3    H214653   5.822   0.867   0.619  0.6282 -0.4737 -2.4030
 4883TIP3   OH214654   5.226   1.879   1.916  0.4070  0.4011 -0.5529
 4883TIP3    H114655   5.191   1.815   1.854  1.3263  0.9524 -1.6892
 4883TIP3    H214656   5.298   1.834   1.960 -0.6217 -0.1877  0.5865
 4884TIP3   OH214657   3.523   5.646   0.233 -0.2773 -0.4358  0.1425
 4884TIP3    H114658   3.511   5.698   0.154 -1.2006 -0.6871  0.1052
 4884TIP3    H214659   3.604   5.680   0.272 -0.1932  0.1673 -0.5309
 4885TIP3   OH214660   3.649   5.535   5.127 -0.1057 -0.0754  0.9199
 4885TIP3    H114661   3.668   5.592   5.052  0.8726 -2.0288 -0.4034
 4885TIP3    H214662   3.592   5.588   5.183 -1.4734  1.2412 -1.5303
 4886TIP3   OH214663   2.619   0.096   4.282 -0.4229 -0.6935  0.0514
 4886TIP3    H114664   2.668   0.049   4.214  0.0159 -0.0430 -0.0932
 4886TIP3    H214665   2.687   0.133   4.339 -0.7282  0.5234 -0.3517
 4887TIP3   OH214666   6.239   4.370   1.058  0.0279 -0.5566  0.9927
 4887TIP3    H114667   6.251   4.364   0.963  0.7147  1.0373  0.9532
 4887TIP3    H214668   6.146   4.351   1.070 -0.3678  0.4725 -0.1529
 4888TIP3   OH214669   5.801   2.593   4.936 -0.7368 -0.1941 -0.0125
 4888TIP3    H114670   5.808   2.559   5.026 -0.2760 -1.3595 -0.4624
 4888TIP3    H214671   5.826   2.685   4.943 -1.1928 -0.1322  1.1275
 4889TIP3   OH214672   5.443   1.399   0.418 -0.4577  0.1978 -0.2855
 4889TIP3    H114673   5.352   1.428   0.426 -0.7974 -0.7971 -0.4380
 4889TIP3    H214674   5.441   1.331   0.351 -0.1808 -2.1525  1.9299
 4890TIP3   OH214675   4.791   3.970   1.759 -0.4468 -0.1525  0.3166
 4890TIP3    H114676   4.848   3.957   1.835 -0.1315 -1.1118 -0.0660
 4890TIP3    H214677   4.842   3.936   1.685 -0.1933  1.9953 -0.5652
 4891TIP3   OH214678   5.147   3.312   0.818 -0.2086 -0.0453  0.2460
 4891TIP3    H114679   5.148   3.400   0.780 -1.9065  0.5609  1.5049
 4891TIP3    H214680   5.157   3.254   0.743 -1.2362  1.1679 -0.8842
 4892TIP3   OH214681   1.652   1.186   2.832 -0.6068  0.5816  0.1296
 4892TIP3    H114682   1.734   1.139   2.851  0.9304  2.8741 -0.4631
 4892TIP3    H214683   1.611   1.198   2.918 -0.5635 -0.9276  0.3928
 4893TIP3   OH214684   2.710   2.726   4.197 -0.4815  0.1783 -0.0636
 4893TIP3    H114685   2.632   2.769   4.162  0.2653  2.0015  0.4158
 4893TIP3    H214686   2.753   2.689   4.120 -0.8268  0.8249 -0.5742
 4894TIP3   OH214687   6.198   3.453   0.513 -0.0690  0.3076  0.1682
 4894TIP3    H114688   6.166   3.390   0.577  0.1175  0.2197  0.1734
 4894TIP3    H214689   6.135   3.525   0.518  2.2735  2.3904  3.6185
 4895TIP3   OH214690   6.127   5.069   1.732  0.4457 -0.0258  0.8665
 4895TIP3    H114691   6.068   5.091   1.661  0.0090 -0.2919  1.1451
 4895TIP3    H214692   6.170   5.152   1.754 -1.1045  0.5634  1.8357
 4896TIP3   OH214693   4.217   2.091   4.011 -0.1568 -0.9103  0.7495
 4896TIP3    H114694   4.294   2.096   4.067  0.7384 -1.8898 -0.3576
 4896TIP3    H214695   4.247   2.121   3.925 -1.5883  0.9109  0.8033
 4897TIP3   OH214696   3.262   4.489   2.343 -0.4418  0.7215 -0.7035
 4897TIP3    H114697   3.246   4.468   2.435 -1.7619  0.6811 -0.9283
 4897TIP3    H214698   3.351   4.458   2.327 -1.1105 -1.6601 -0.1451
 4898TIP3   OH214699   0.581   3.845   4.670  0.0388  0.1176 -0.1218
 4898TIP3    H114700   0.656   3.800   4.631  0.1470 -0.3149  0.5759
 4898TIP3    H214701   0.605   3.938   4.668  0.4769  0.0050 -0.1473
 4899TIP3   OH214702   2.252   5.015   4.692  0.6304 -0.2231  0.2068
 4899TIP3    H114703   2.260   5.107   4.666  0.2427 -0.4066 -0.5909
 4899TIP3    H214704   2.266   5.016   4.787 -1.3619  0.9439  0.5503
 4900TIP3   OH214705   2.258   5.110   2.289 -0.2443 -0.1459  0.3188
 4900TIP3    H114706   2.162   5.108   2.287 -0.2400 -0.1797  0.1650
 4900TIP3    H214707   2.285   5.077   2.203 -0.0748 -2.1538  1.0855
 4901TIP3   OH214708   5.735   4.216   2.358 -0.3275 -0.5325  0.2287
 4901TIP3    H114709   5.651   4.202   2.313 -0.3170  0.7669 -0.2240
 4901TIP3    H214710   5.744   4.311   2.362  1.0850 -0.6600  0.3654
 4902TIP3   OH214711   3.062   2.438   2.328 -0.0584 -0.2583  0.1853
 4902TIP3    H114712   3.140   2.485   2.301 -0.6330 -0.8878 -3.0377
 4902TIP3    H214713   3.094   2.358   2.370  0.9675  0.4921  0.8429
 4903TIP3   OH214714   1.963   1.626   0.931  0.1766 -0.5983 -0.2023
 4903TIP3    H114715   1.873   1.612   0.961 -1.2614  5.3746 -0.4865
 4903TIP3    H214716   1.956   1.627   0.835  0.6183 -0.5534 -0.2354
 4904TIP3   OH214717   4.201   0.740   4.240 -0.1090  0.1160 -0.2144
 4904TIP3    H114718   4.220   0.814   4.181 -0.8936 -1.1054 -2.0947
 4904TIP3    H214719   4.255   0.668   4.207 -1.1146 -0.8082  0.1052
 4905TIP3   OH214720   4.878   4.529   1.735  0.5921 -0.4523  0.4548
 4905TIP3    H114721   4.898   4.488   1.651 -1.1261  0.4447 -0.4441
 4905TIP3    H214722   4.947   4.595   1.746  2.2319 -2.1638  0.9769
 4906TIP3   OH214723   2.524   0.391   0.666  0.2569 -0.1203 -0.5135
 4906TIP3    H114724   2.613   0.356   0.675  1.4006  2.3401 -1.2877
 4906TIP3    H214725   2.530   0.478   0.705 -2.0133 -0.1164 -0.0633
 4907TIP3   OH214726   1.717   4.066   1.632 -0.0774  0.2133  0.6816
 4907TIP3    H114727   1.781   4.126   1.594 -1.5744  1.1519 -0.4843
 4907TIP3    H214728   1.674   4.118   1.701 -1.6308  0.6791 -0.5765
 4908TIP3   OH214729   3.881   3.945   3.128  0.5025  0.4169 -0.1154
 4908TIP3    H114730   3.826   4.022   3.114  2.2410  1.8390  0.4937
 4908TIP3    H214731   3.911   3.953   3.218 -0.2504 -1.6784  0.3694
 4909TIP3   OH214732   4.342   2.547   5.065 -0.1952 -0.4492 -0.1832
 4909TIP3    H114733   4.335   2.462   5.109 -0.0929 -0.5016 -0.2655
 4909TIP3    H214734   4.303   2.532   4.978  0.5787 -0.6388 -0.5029
 4910TIP3   OH214735   0.743   5.030   0.416  0.0881 -0.8630 -0.1503
 4910TIP3    H114736   0.833   5.038   0.450  0.9407 -2.5277 -1.8445
 4910TIP3    H214737   0.702   4.965   0.474  0.9836 -2.3875 -1.1660
 4911TIP3   OH214738   1.309   1.977   4.741 -0.2018 -0.0982 -0.2607
 4911TIP3    H114739   1.297   1.883   4.753  0.7861 -0.2176 -0.1102
 4911TIP3    H214740   1.349   2.006   4.823  1.2134  0.1213 -1.0092
 4912TIP3   OH214741   0.408   3.875   2.715  0.9009  0.4882  0.2578
 4912TIP3    H114742   0.482   3.832   2.759  0.5929  0.9444  1.2635
 4912TIP3    H214743   0.446   3.951   2.672  1.3042 -0.2862 -0.7797
 4913TIP3   OH214744   5.871   3.722   3.491 -0.2220  0.1456  0.0614
 4913TIP3    H114745   5.962   3.734   3.465  0.3446 -0.5379  1.5876
 4913TIP3    H214746   5.829   3.680   3.416  1.3346 -1.8224  0.2117
 4914TIP3   OH214747   0.566   4.625   4.408 -0.0517 -0.1872  0.0093
 4914TIP3    H114748   0.500   4.683   4.447 -0.5947 -1.5381  1.1729
 4914TIP3    H214749   0.518   4.546   4.383  0.8665 -0.5961 -0.5197
 4915TIP3   OH214750   0.260   1.804   3.026  0.9310  0.3773  0.3268
 4915TIP3    H114751   0.240   1.888   3.067 -1.2701  0.1143 -0.1084
 4915TIP3    H214752   0.302   1.828   2.943 -1.2004  1.1389 -0.5862
 4916TIP3   OH214753   5.190   1.532   0.514 -0.0263 -0.1229 -0.0444
 4916TIP3    H114754   5.250   1.555   0.585 -2.0544  0.1546  1.6737
 4916TIP3    H214755   5.106   1.521   0.557 -1.7076  1.6381 -2.6285
 4917TIP3   OH214756   1.012   5.545   2.388  0.0335  0.3723  0.0398
 4917TIP3    H114757   0.943   5.532   2.322  1.6222 -0.5670 -1.5217
 4917TIP3    H214758   1.039   5.457   2.412  0.9692  0.7326  0.3263
 4918TIP3   OH214759   1.342   3.962   0.270 -0.0599  0.5303  0.7241
 4918TIP3    H114760   1.385   4.000   0.193  1.3179  1.4233  1.8756
 4918TIP3    H214761   1.392   3.883   0.289 -1.0241 -0.2400  0.1387
 4919TIP3   OH214762   4.604   1.204   0.747  0.1347  0.0255  0.3834
 4919TIP3    H114763   4.623   1.171   0.659  1.4973  0.8280  0.3456
 4919TIP3    H214764   4.641   1.138   0.806 -0.3199 -0.2576  0.3568
 4920TIP3   OH214765   5.489   3.338   0.281  0.1745  0.0894  0.3367
 4920TIP3    H114766   5.492   3.383   0.196  0.0995 -0.5588 -0.0228
 4920TIP3    H214767   5.437   3.259   0.263 -2.0801  1.1930  1.5949
 4921TIP3   OH214768   3.779   4.244   1.446  0.2635  0.7232  0.2856
 4921TIP3    H114769   3.701   4.231   1.499  0.9096 -1.1370  0.8443
 4921TIP3    H214770   3.833   4.306   1.497 -0.5071  1.4628  0.2241
 4922TIP3   OH214771   2.560   4.991   3.897  0.1575 -0.1223  0.1157
 4922TIP3    H114772   2.548   5.003   3.991 -0.0337  2.3918 -0.1397
 4922TIP3    H214773   2.655   4.988   3.884  0.1785 -1.0323  0.4122
 4923TIP3   OH214774   0.303   5.691   3.775  0.1493  0.2937 -0.1213
 4923TIP3    H114775   0.376   5.663   3.720  1.4137  2.4077  0.3609
 4923TIP3    H214776   0.332   5.670   3.864 -0.3167  0.1534 -0.0031
 4924TIP3   OH214777   5.651   3.487   2.455  0.2270 -0.3672 -0.1424
 4924TIP3    H114778   5.616   3.416   2.401 -2.1988 -0.1108  0.9580
 4924TIP3    H214779   5.683   3.552   2.391 -0.3245 -1.1218 -1.2231
 4925TIP3   OH214780   1.679   4.958   0.045 -0.5422  0.1129  0.2063
 4925TIP3    H114781   1.706   4.870   0.073  0.5979 -0.0278 -1.2127
 4925TIP3    H214782   1.592   4.946   0.007 -1.6589  0.1335  2.5781
 4926TIP3   OH214783   1.813   5.403   0.242  0.3610 -0.5044 -0.1828
 4926TIP3    H114784   1.797   5.309   0.250  1.2041 -0.6931 -0.5753
 4926TIP3    H214785   1.813   5.434   0.333 -0.3434 -0.7960 -0.0692
 4927TIP3   OH214786   2.374   2.168   4.992  0.0553 -0.1898 -0.2473
 4927TIP3    H114787   2.310   2.202   5.054 -1.7422 -0.0548 -2.0843
 4927TIP3    H214788   2.373   2.073   5.005 -2.4121 -0.4632 -1.8815
 4928TIP3   OH214789   1.302   1.412   0.106 -0.1761  0.5134 -0.0475
 4928TIP3    H114790   1.231   1.348   0.118  1.4040 -1.7619 -1.7288
 4928TIP3    H214791   1.379   1.370   0.145  0.7893  1.7129 -0.5915
 4929TIP3   OH214792   2.793   5.423   4.481  0.0972 -0.1576 -0.1199
 4929TIP3    H114793   2.862   5.418   4.416 -0.6340  2.5684 -1.2390
 4929TIP3    H214794   2.771   5.516   4.486 -1.7715 -0.6201  2.0356
 4930TIP3   OH214795   2.578   1.774   1.169  0.1518 -0.4436 -0.1982
 4930TIP3    H114796   2.641   1.843   1.188  0.3346 -0.6049 -0.2179
 4930TIP3    H214797   2.549   1.792   1.079  0.2375 -0.4223 -0.2214
 4931TIP3   OH214798   3.779   0.960   4.961 -0.3094 -0.3213 -0.1661
 4931TIP3    H114799   3.862   0.943   4.917  0.6024 -0.6108  1.5699
 4931TIP3    H214800   3.716   0.905   4.915  0.5300 -0.4154 -1.2479
 4932TIP3   OH214801   0.194   4.745   0.310 -0.1070  0.0253 -0.1537
 4932TIP3    H114802   0.111   4.739   0.263  0.2191  1.3772 -0.9764
 4932TIP3    H214803   0.169   4.771   0.399 -0.5879  0.0046 -0.2800
 4933TIP3   OH214804   4.101   5.762   1.274  0.2350  0.0945  0.2042
 4933TIP3    H114805   4.143   5.768   1.188  0.1734 -0.2363  0.1530
 4933TIP3    H214806   4.040   5.836   1.275  0.7508  0.5256  0.2464
 4934TIP3   OH214807   5.367   5.008   0.172 -0.0776 -0.0915  0.1592
 4934TIP3    H114808   5.305   4.977   0.238  0.4046 -1.1737  0.1254
 4934TIP3    H214809   5.370   4.937   0.108  2.3156 -0.7349  0.9057
 4935TIP3   OH214810   3.645   2.027   0.452 -0.2596 -0.1613  0.4009
 4935TIP3    H114811   3.608   2.109   0.484 -0.8065 -0.5977  0.9218
 4935TIP3    H214812   3.622   2.025   0.359 -1.6724 -0.4605  0.7233
 4936TIP3   OH214813   3.307   3.912   3.427 -0.9118 -0.3068 -0.0199
 4936TIP3    H114814   3.281   3.975   3.495 -0.1342  0.8204 -0.7252
 4936TIP3    H214815   3.228   3.860   3.411 -1.2091 -0.3803  1.4882
 4937TIP3   OH214816   5.692   5.353   0.382  0.8203 -0.4790 -0.0141
 4937TIP3    H114817   5.709   5.333   0.475  3.1176 -2.1308 -0.6819
 4937TIP3    H214818   5.621   5.294   0.358  0.0506  0.1198  0.7368
 4938TIP3   OH214819   6.075   2.810   3.441  0.3851  0.1498  0.0719
 4938TIP3    H114820   6.129   2.731   3.443  1.6529  0.9878 -0.0906
 4938TIP3    H214821   6.035   2.813   3.528 -0.7862 -1.3879 -0.3614
 4939TIP3   OH214822   1.280   1.485   1.489 -0.3424  0.5182  0.6218
 4939TIP3    H114823   1.306   1.577   1.491 -1.2487  0.8295 -0.5262
 4939TIP3    H214824   1.325   1.445   1.564  0.6182  1.7365  0.7198
 4940TIP3   OH214825   0.233   3.221   0.710  0.1479 -0.5246 -0.5941
 4940TIP3    H114826   0.215   3.302   0.663 -0.3957  0.2402  0.8633
 4940TIP3    H214827   0.326   3.225   0.731 -0.3456  1.0271  1.6906
 4941TIP3   OH214828   6.071   1.946   1.943 -0.4608  0.0403  0.2739
 4941TIP3    H114829   6.055   1.877   1.878  1.2004 -0.4740  0.3672
 4941TIP3    H214830   6.052   1.903   2.027 -1.6824  0.4258  0.2241
 4942TIP3   OH214831   0.184   0.809   3.142  0.0796 -0.2392  0.3413
 4942TIP3    H114832   0.097   0.839   3.169  0.2402  1.0582 -0.4709
 4942TIP3    H214833   0.242   0.837   3.213 -0.0896 -0.6253  0.6325
 4943TIP3   OH214834   0.921   2.575   0.647  0.3757 -0.1651  0.3443
 4943TIP3    H114835   0.853   2.579   0.714 -1.5904 -0.4746 -1.4993
 4943TIP3    H214836   0.940   2.481   0.638  0.7871 -0.1073  0.6170
 4944TIP3   OH214837   1.254   0.045   2.269  0.2968  0.1533  0.7948
 4944TIP3    H114838   1.323   0.076   2.328  2.1361 -0.7269 -0.7662
 4944TIP3    H214839   1.282  -0.044   2.245 -1.1823 -0.0774 -0.2072
 4945TIP3   OH214840   4.815   5.411   3.194  0.1749 -0.2546 -0.0464
 4945TIP3    H114841   4.900   5.401   3.153 -0.0782  0.2987 -0.7369
 4945TIP3    H214842   4.759   5.347   3.151 -0.5935  1.6267 -2.0596
 4946TIP3   OH214843   1.089   0.136   2.481  0.5510 -0.1697  0.1070
 4946TIP3    H114844   1.137   0.126   2.399  0.1037 -1.4750 -0.0234
 4946TIP3    H214845   1.038   0.215   2.470  0.1032 -0.6043 -1.0902
 4947TIP3   OH214846   0.957   4.210   4.409  0.1945 -0.5770  0.0874
 4947TIP3    H114847   0.873   4.252   4.397  0.4437 -0.5824 -2.0066
 4947TIP3    H214848   0.940   4.139   4.472 -0.8922  0.6296  1.1980
 4948TIP3   OH214849   6.135   1.571   3.804 -0.4353 -0.4622  0.0677
 4948TIP3    H114850   6.131   1.619   3.721 -1.3986  1.1433  0.9871
 4948TIP3    H214851   6.219   1.596   3.842  0.4722 -2.0030 -0.8485
 4949TIP3   OH214852   5.941   4.760   1.992 -0.5866 -0.3766  0.1882
 4949TIP3    H114853   5.847   4.764   1.971 -0.6175 -0.7566  0.2351
 4949TIP3    H214854   5.960   4.666   1.993 -0.1941 -0.2957  0.1347
 4950TIP3   OH214855   1.297   5.231   0.518  0.0766  0.2948  0.4698
 4950TIP3    H114856   1.301   5.154   0.574  0.2569  0.5809  0.8540
 4950TIP3    H214857   1.252   5.201   0.439 -0.4956 -0.0240  0.9049
 4951TIP3   OH214858   4.436   3.038   4.666 -0.5798  0.2068  0.0089
 4951TIP3    H114859   4.364   3.056   4.605 -1.1665 -0.3532  0.5102
 4951TIP3    H214860   4.397   2.981   4.732 -0.1616  1.3843  1.3219
 4952TIP3   OH214861   0.944   5.695   0.736 -0.2722  0.3820  0.5072
 4952TIP3    H114862   0.995   5.740   0.669  0.4543  0.1238  0.8758
 4952TIP3    H214863   0.867   5.661   0.690  0.7609 -0.7413 -0.4371
 4953TIP3   OH214864   1.806   0.674   0.997  0.1479 -0.4310 -0.6578
 4953TIP3    H114865   1.822   0.583   0.970  1.2954 -0.3695 -0.2433
 4953TIP3    H214866   1.799   0.670   1.092 -0.2580 -0.1423 -0.6736
 4954TIP3   OH214867   1.685   1.794   3.232  0.2441 -0.2331  0.7645
 4954TIP3    H114868   1.678   1.819   3.140  0.0500  0.0962  0.8678
 4954TIP3    H214869   1.621   1.850   3.277  1.9679  1.2692  1.4486
 4955TIP3   OH214870   1.150   3.701   2.811 -0.0089 -0.1984  0.3337
 4955TIP3    H114871   1.155   3.629   2.749 -2.3990  0.1903 -0.3973
 4955TIP3    H214872   1.119   3.661   2.892 -2.8890  0.1503 -0.5115
 4956TIP3   OH214873   3.143   1.071   1.107  0.0425 -0.1935 -0.1829
 4956TIP3    H114874   3.082   1.108   1.042 -1.3678  0.2251  1.3208
 4956TIP3    H214875   3.103   0.987   1.131 -0.0081  0.1349  0.8985
 4957TIP3   OH214876   4.978   0.574   4.009  0.1555  0.2106 -0.2099
 4957TIP3    H114877   4.925   0.637   4.057 -1.0840 -0.8115 -0.1799
 4957TIP3    H214878   5.000   0.618   3.927  1.9610  1.8185  1.0681
 4958TIP3   OH214879   4.044   0.353   1.938  0.8183  0.0198  0.2950
 4958TIP3    H114880   4.118   0.413   1.948 -0.0246  1.2094 -0.3449
 4958TIP3    H214881   4.044   0.330   1.845  0.5426 -0.1699  0.3407
 4959TIP3   OH214882   3.812   5.658   3.208  0.0180 -0.5154 -0.2564
 4959TIP3    H114883   3.853   5.719   3.269 -1.1245 -0.0232  0.0391
 4959TIP3    H214884   3.874   5.653   3.135  1.4304 -1.1681  0.9397
 4960TIP3   OH214885   4.970   2.085   5.190 -0.1983 -0.0631 -0.5428
 4960TIP3    H114886   5.001   2.131   5.112  1.5309 -0.2810 -0.0430
 4960TIP3    H214887   4.961   1.994   5.163  0.6894 -0.1941 -0.4502
 4961TIP3   OH214888   5.773   3.136   2.028 -0.2371  0.3586 -0.4102
 4961TIP3    H114889   5.791   3.057   1.977  2.4560  1.6370 -1.5894
 4961TIP3    H214890   5.684   3.160   2.003 -0.2123 -0.9259 -1.9115
 4962TIP3   OH214891   5.196   3.886   4.840 -0.0201 -0.2480  0.5216
 4962TIP3    H114892   5.242   3.870   4.758 -0.8114 -1.0954  0.2245
 4962TIP3    H214893   5.145   3.965   4.824  1.3162  0.7053  0.8605
 4963TIP3   OH214894   3.860   3.180   2.647 -0.2239  0.1142 -0.4200
 4963TIP3    H114895   3.861   3.271   2.677  2.4848 -0.0384  0.2548
 4963TIP3    H214896   3.883   3.185   2.554  0.2861  0.1206 -0.2974
 4964TIP3   OH214897   0.153   1.642   4.500  0.0638  0.4971 -0.3938
 4964TIP3    H114898   0.066   1.680   4.510  0.2417  1.0545 -0.8988
 4964TIP3    H214899   0.205   1.711   4.456  0.9300  0.4200  0.4786
 4965TIP3   OH214900   5.075   2.458   3.678  0.1534  0.1243 -0.2513
 4965TIP3    H114901   5.009   2.414   3.625 -0.5532 -0.1087  0.7974
 4965TIP3    H214902   5.027   2.525   3.726  0.7200  0.0983  0.3635
 4966TIP3   OH214903   2.599   2.038   2.383  0.0453 -0.1393  0.1184
 4966TIP3    H114904   2.517   2.037   2.333 -0.8094 -0.6437  1.4646
 4966TIP3    H214905   2.571   2.025   2.474  1.5757  0.3787  0.6876
 4967TIP3   OH214906   0.315   1.539   2.790  0.3434 -0.9226  0.0816
 4967TIP3    H114907   0.285   1.523   2.879  2.4021  0.7151  1.1445
 4967TIP3    H214908   0.394   1.486   2.782  0.7262 -0.2892 -0.4041
 4968TIP3   OH214909   1.984   3.570   0.404  0.2078 -0.1235 -0.2302
 4968TIP3    H114910   1.911   3.522   0.445 -0.4001 -1.4857 -2.6591
 4968TIP3    H214911   2.048   3.502   0.383  0.9221  0.6623 -0.6410
 4969TIP3   OH214912   1.564   0.794   1.473 -0.6624 -0.3729 -0.4521
 4969TIP3    H114913   1.504   0.739   1.524 -1.5336 -0.5651 -1.6484
 4969TIP3    H214914   1.642   0.801   1.528 -1.6212 -0.4376  0.9833
 4970TIP3   OH214915   4.147   5.148   2.546  0.1469  0.2629  0.2600
 4970TIP3    H114916   4.220   5.204   2.522  0.1546  0.1189 -0.0509
 4970TIP3    H214917   4.124   5.102   2.466 -0.8467  0.9425  0.1378
 4971TIP3   OH214918   3.183   4.663   3.361 -0.1946 -0.2128 -0.1122
 4971TIP3    H114919   3.253   4.689   3.421 -0.1645  0.7772 -0.5548
 4971TIP3    H214920   3.151   4.580   3.396  0.2254  0.0457  0.9261
 4972TIP3   OH214921   1.608   4.659   2.231 -0.2314  0.0004  0.2999
 4972TIP3    H114922   1.614   4.742   2.185  1.0869 -0.0910  0.2583
 4972TIP3    H214923   1.697   4.624   2.228 -0.4571 -0.7411  1.5500
 4973TIP3   OH214924   5.777   5.770   1.819  0.3015 -0.3758 -0.7658
 4973TIP3    H114925   5.871   5.754   1.831  0.4335 -0.8628 -2.3214
 4973TIP3    H214926   5.748   5.803   1.904  1.6794 -1.1441  0.0433
 4974TIP3   OH214927   5.756   3.993   3.483  0.0695 -0.1134  0.2217
 4974TIP3    H114928   5.746   3.909   3.440  1.1381  0.2847 -0.8694
 4974TIP3    H214929   5.849   3.999   3.504  0.6887  2.0161 -2.4853
 4975TIP3   OH214930   3.480   0.575   1.180  0.0256 -0.0175  0.5348
 4975TIP3    H114931   3.468   0.668   1.202  2.1782  0.6540 -0.7999
 4975TIP3    H214932   3.566   0.553   1.214 -0.1931 -1.3471  0.2616
 4976TIP3   OH214933   5.874   5.989   4.421  0.1310  0.0250 -0.1897
 4976TIP3    H114934   5.936   5.917   4.422  0.4015  0.2359  1.4976
 4976TIP3    H214935   5.799   5.956   4.371 -1.1996 -2.7434  3.1991
 4977TIP3   OH214936   5.510   2.287   1.829 -0.4098  0.0777  0.1246
 4977TIP3    H114937   5.442   2.238   1.783 -0.2116 -1.1691  1.0906
 4977TIP3    H214938   5.476   2.298   1.918 -0.1679  1.1575  0.0991
 4978TIP3   OH214939   0.796   4.618   1.480 -0.0914  0.5133 -0.4632
 4978TIP3    H114940   0.785   4.702   1.436 -1.0065  0.8590  0.4196
 4978TIP3    H214941   0.736   4.620   1.553  1.0426 -0.2662  0.5340
 4979TIP3   OH214942   5.496   1.310   4.038 -0.3801 -0.3556 -0.0251
 4979TIP3    H114943   5.463   1.305   3.948 -0.1846 -1.0568 -0.0596
 4979TIP3    H214944   5.565   1.244   4.042  0.5256  0.5996  0.2646
 4980TIP3   OH214945   2.792   3.865   3.171  0.4936  0.6438  0.4589
 4980TIP3    H114946   2.748   3.847   3.087 -0.6802 -0.0641  1.2041
 4980TIP3    H214947   2.723   3.858   3.236  1.5189  0.5452  1.5642
 4981TIP3   OH214948   2.138   5.657   2.571 -0.0117  0.0286 -0.1629
 4981TIP3    H114949   2.111   5.564   2.572 -1.6647  0.4679  0.4806
 4981TIP3    H214950   2.083   5.698   2.638  2.3058  1.0891  1.2031
 4982TIP3   OH214951   4.098   3.748   0.429 -0.4059  0.1484 -0.2419
 4982TIP3    H114952   4.154   3.700   0.368  1.0518  1.4358  0.0214
 4982TIP3    H214953   4.159   3.793   0.488 -1.7640 -0.4325  1.7042
 4983TIP3   OH214954   3.267   2.981   0.415 -0.2899 -0.2515  0.3201
 4983TIP3    H114955   3.245   3.060   0.366  0.2634 -0.0974  0.3162
 4983TIP3    H214956   3.349   2.950   0.376  1.4206  1.1172  2.5695
 4984TIP3   OH214957   0.643   4.150   4.728  0.3342 -0.0921 -0.2088
 4984TIP3    H114958   0.627   4.237   4.693 -0.3152 -0.1670 -0.1127
 4984TIP3    H214959   0.586   4.145   4.805  1.3444 -0.1187  0.5609
 4985TIP3   OH214960   1.926   1.933   0.613 -0.4146  0.4176 -0.4237
 4985TIP3    H114961   1.964   2.012   0.651 -1.4318  0.4984  0.4632
 4985TIP3    H214962   1.929   1.948   0.518  0.8801  0.8111 -0.3473
 4986TIP3   OH214963   1.014   1.052   4.763 -0.6014  0.2871  0.2429
 4986TIP3    H114964   1.089   1.065   4.821  0.2786  3.6961 -1.3863
 4986TIP3    H214965   1.050   1.004   4.688 -0.5324  0.1745  0.3485
 4987TIP3   OH214966   4.204   2.743   2.726 -0.5043 -0.2544  0.3409
 4987TIP3    H114967   4.159   2.806   2.669 -0.8982 -1.5655 -0.8421
 4987TIP3    H214968   4.232   2.673   2.667  2.3795  0.0984  1.1789
 4988TIP3   OH214969   0.051   5.816   1.296  0.7240  0.2357 -0.7242
 4988TIP3    H114970   0.087   5.758   1.229 -0.6095 -1.1677 -0.2789
 4988TIP3    H214971   0.031   5.759   1.369  1.0984  1.5736  0.4697
 4989TIP3   OH214972   3.456   0.578   3.786  0.1053  0.0932 -0.2957
 4989TIP3    H114973   3.481   0.573   3.878  1.2306 -1.3021 -0.6367
 4989TIP3    H214974   3.387   0.513   3.776  1.1179 -0.9454 -0.7470
 4990TIP3   OH214975   6.165   3.804   3.780 -0.2387 -0.5491  0.0853
 4990TIP3    H114976   6.127   3.718   3.798 -2.4984  0.9185  3.2475
 4990TIP3    H214977   6.190   3.838   3.866 -0.7102  2.5012 -0.8450
 4991TIP3   OH214978   3.989   1.823   0.230 -0.0011  0.3151 -0.0438
 4991TIP3    H114979   3.997   1.908   0.186 -0.0146 -0.4240 -1.5562
 4991TIP3    H214980   3.922   1.776   0.179  0.6175 -0.9156  0.2399
 4992TIP3   OH214981   4.771   4.151   0.414  0.6003 -0.0529 -0.2670
 4992TIP3    H114982   4.865   4.134   0.418  0.6582  0.4649  1.4025
 4992TIP3    H214983   4.755   4.214   0.484 -1.1666 -0.9471  0.2005
 4993TIP3   OH214984   3.194   3.468   0.369  0.1650 -0.0743 -0.6228
 4993TIP3    H114985   3.100   3.484   0.377  0.1306 -0.6076  0.1596
 4993TIP3    H214986   3.227   3.469   0.459  0.5162 -2.0793 -0.6642
 4994TIP3   OH214987   5.339   4.477   2.172  0.2852 -0.1954  0.1926
 4994TIP3    H114988   5.345   4.414   2.101 -1.6255  0.8387 -0.9712
 4994TIP3    H214989   5.308   4.427   2.247 -2.5312 -0.5017 -1.0674
 4995TIP3   OH214990   5.995   5.292   2.906  0.2992  0.1298  0.0472
 4995TIP3    H114991   6.020   5.200   2.915 -2.2394 -0.7500 -0.9917
 4995TIP3    H214992   6.052   5.325   2.836  1.3402 -0.5911  0.5266
 4996TIP3   OH214993   5.636   2.161   1.376 -0.7035  0.0917  0.3026
 4996TIP3    H114994   5.693   2.107   1.322 -0.5191  0.3101  0.2821
 4996TIP3    H214995   5.695   2.206   1.437 -0.8244  0.5122  0.1134
 4997TIP3   OH214996   0.021   4.285   1.649 -0.1588  0.3883  0.4318
 4997TIP3    H114997   0.085   4.316   1.585 -0.0762 -1.9768 -0.7459
 4997TIP3    H214998   0.008   4.359   1.708  1.3114  1.9737 -1.1174
 4998TIP3   OH214999   4.527   1.498   4.248 -0.2235 -0.0015 -0.5078
 4998TIP3    H115000   4.438   1.464   4.238 -0.4088  0.3512 -0.0922
 4998TIP3    H215001   4.521   1.559   4.321  0.4855 -0.4034 -0.1056
 4999TIP3   OH215002   1.878   4.660   0.656 -0.7174 -0.4929  0.0242
 4999TIP3    H115003   1.917   4.573   0.653 -0.0384 -0.2144  0.5024
 4999TIP3    H215004   1.870   4.686   0.564 -0.0451 -0.6858 -0.0954
 5000TIP3   OH215005   5.130   1.479   3.752  0.0662 -0.1360  0.2461
 5000TIP3    H115006   5.124   1.566   3.791  2.7897  0.4877 -0.4611
 5000TIP3    H215007   5.080   1.485   3.671  1.4577  1.3170 -0.5627
 5001TIP3   OH215008   2.722   0.139   0.547  0.5044 -0.5419 -0.2645
 5001TIP3    H115009   2.759   0.094   0.471 -0.2568  0.7638 -1.4372
 5001TIP3    H215010   2.716   0.070   0.614  0.1396 -1.9978 -1.7263
 5002TIP3   OH215011   3.094   2.148   1.464 -0.1655  0.0569 -0.3185
 5002TIP3    H115012   3.051   2.178   1.544 -0.9650 -0.0862 -0.6809
 5002TIP3    H215013   3.147   2.222   1.435 -1.9259  1.0826 -1.0723
 5003TIP3   OH215014   1.582   5.784   4.932  0.1111  0.2863 -0.4521
 5003TIP3    H115015   1.563   5.819   4.845 -0.1421 -2.1134 -1.4419
 5003TIP3    H215016   1.665   5.736   4.922  0.7287  0.9612  0.9675
 5004TIP3   OH215017   5.007   4.098   3.470  0.4681 -0.2613 -0.1701
 5004TIP3    H115018   4.982   4.122   3.381 -0.0794 -2.2955 -0.6174
 5004TIP3    H215019   4.937   4.135   3.525 -0.1216 -0.4780 -0.7626
 5005TIP3   OH215020   0.036   1.918   2.834  0.6160  0.0556 -0.0592
 5005TIP3    H115021   0.111   1.905   2.776 -0.0239 -0.4348 -0.7982
 5005TIP3    H215022   0.047   1.851   2.902  0.6129 -0.3149 -0.4168
 5006TIP3   OH215023   1.578   2.101   0.929 -0.3983  0.4033 -0.2880
 5006TIP3    H115024   1.509   2.125   0.867  0.8530  0.4133 -1.7647
 5006TIP3    H215025   1.634   2.040   0.880  1.6625  1.8050  0.1669
 5007TIP3   OH215026   0.269   3.213   3.519 -0.0072  0.3491  0.7043
 5007TIP3    H115027   0.231   3.266   3.589 -0.4610  1.3959 -0.2926
 5007TIP3    H215028   0.196   3.158   3.489 -0.1910  0.8763  0.1656
 5008TIP3   OH215029   0.822   4.540   4.544 -0.3497  0.2799 -0.2283
 5008TIP3    H115030   0.745   4.560   4.490 -1.8240 -2.3991  0.6798
 5008TIP3    H215031   0.785   4.520   4.630  1.4203 -0.5052  0.3807
 5009TIP3   OH215032   2.562   2.351   2.681  0.2858  0.1198  0.2198
 5009TIP3    H115033   2.595   2.383   2.597  1.4169  0.9996  0.9706
 5009TIP3    H215034   2.468   2.372   2.679  0.2640  0.0085 -0.8641
 5010TIP3   OH215035   1.166   3.305   3.371 -0.1928 -0.4997  0.2793
 5010TIP3    H115036   1.214   3.245   3.314  0.5012 -0.0563  0.3856
 5010TIP3    H215037   1.180   3.271   3.459  0.7961  0.2117  0.4066
 5011TIP3   OH215038   2.493   4.012   1.489  0.1695 -0.5228 -0.0932
 5011TIP3    H115039   2.444   4.030   1.409 -0.7960 -2.3479  0.0252
 5011TIP3    H215040   2.573   3.968   1.458  0.0354 -0.7709 -0.0899
 5012TIP3   OH215041   3.103   0.709   0.322  0.3154 -0.5140 -0.5054
 5012TIP3    H115042   3.015   0.696   0.358  0.1682  0.0947 -0.6371
 5012TIP3    H215043   3.095   0.786   0.267  0.3962 -1.7460 -2.3340
 5013TIP3   OH215044   5.778   3.673   2.254  0.8403 -0.2840  0.2696
 5013TIP3    H115045   5.847   3.626   2.207 -0.7985 -0.5241 -2.0784
 5013TIP3    H215046   5.820   3.751   2.288  2.3714 -0.6824 -0.6256
 5014TIP3   OH215047   1.039   1.785   4.952  0.4362  0.1199  0.0578
 5014TIP3    H115048   0.992   1.749   4.876  1.8677 -0.0092 -0.7957
 5014TIP3    H215049   1.010   1.876   4.956 -0.4623 -0.1547  0.0128
 5015TIP3   OH215050   2.921   0.957   0.632  0.0172  0.0703 -0.5834
 5015TIP3    H115051   2.831   0.945   0.662 -0.2572 -2.2078 -2.1066
 5015TIP3    H215052   2.973   0.903   0.691  0.2738  0.5979 -0.3220
 5016TIP3   OH215053   4.106   2.316   3.103  0.4626  0.1063 -0.3685
 5016TIP3    H115054   4.097   2.360   3.187 -0.4829 -0.9663  0.1161
 5016TIP3    H215055   4.088   2.385   3.038  1.8478  1.0964  0.2568
 5017TIP3   OH215056   5.044   5.700   1.749  0.1595  0.0974  0.1020
 5017TIP3    H115057   5.057   5.699   1.654 -0.4134 -0.4163  0.0190
 5017TIP3    H215058   5.090   5.622   1.781  0.1899  0.1643  0.2245
 5018TIP3   OH215059   1.589   4.324   0.392  0.2610 -0.4539  0.4889
 5018TIP3    H115060   1.677   4.298   0.417 -0.1463 -0.9269  1.5175
 5018TIP3    H215061   1.574   4.283   0.307  1.7962  1.4122 -0.7694
 5019TIP3   OH215062   4.172   0.086   3.036  0.1002  0.1872 -0.6656
 5019TIP3    H115063   4.254   0.045   3.008  0.9096  1.2751 -0.0090
 5019TIP3    H215064   4.197   0.177   3.055 -0.9791  0.2040  0.8423
 5020TIP3   OH215065   5.194   0.954   3.710 -0.8399  0.1823  0.2112
 5020TIP3    H115066   5.199   1.025   3.774 -0.3117  0.0744  0.2984
 5020TIP3    H215067   5.231   0.991   3.630  1.9473 -0.7292  0.9515
 5021TIP3   OH215068   4.981   0.540   3.160  0.1452  0.3123 -0.0681
 5021TIP3    H115069   4.993   0.633   3.143 -2.1323  1.6312  4.2042
 5021TIP3    H215070   4.891   0.532   3.190  0.9049 -2.8668  1.8808
 5022TIP3   OH215071   0.909   4.167   1.706 -0.3476  0.2509 -0.0506
 5022TIP3    H115072   0.826   4.195   1.667 -0.4564  0.1859  0.1300
 5022TIP3    H215073   0.903   4.195   1.797 -0.1989  0.1836 -0.0198
 5023TIP3   OH215074   5.444   5.576   0.069 -0.2252  0.5282  0.2995
 5023TIP3    H115075   5.351   5.600   0.070 -0.2442  0.6117  2.4691
 5023TIP3    H215076   5.446   5.488   0.109  0.6184  0.5493  0.3134
 5024TIP3   OH215077   0.518   1.905   1.991 -0.0697  0.2311 -0.1174
 5024TIP3    H115078   0.429   1.923   2.022  0.9191  0.6504  2.8242
 5024TIP3    H215079   0.524   1.809   1.990 -0.1329  0.2005  1.1167
 5025TIP3   OH215080   5.698   4.688   3.192 -0.9037  0.0769  0.4334
 5025TIP3    H115081   5.702   4.768   3.244  1.7603  1.4947 -1.6667
 5025TIP3    H215082   5.646   4.712   3.115  0.6425  0.1722 -0.6366
 5026TIP3   OH215083   2.185   3.680   0.828 -0.2928 -0.1322  0.3253
 5026TIP3    H115084   2.130   3.606   0.802 -1.1524  0.0766  1.4693
 5026TIP3    H215085   2.150   3.707   0.913  1.0372  0.5708  0.6693
 5027TIP3   OH215086   1.271   3.987   0.579 -0.2304  0.1073 -0.4361
 5027TIP3    H115087   1.337   3.960   0.643 -0.0599  1.5358  0.0164
 5027TIP3    H215088   1.309   3.966   0.494 -0.1099 -1.0463 -0.1163
 5028TIP3   OH215089   5.209   3.638   4.413  0.1502  0.3965  0.0948
 5028TIP3    H115090   5.130   3.608   4.459  0.2436  3.3733  2.5266
 5028TIP3    H215091   5.265   3.560   4.408 -0.9803 -0.7165  2.7625
 5029TIP3   OH215092   2.811   4.957   4.380 -0.0822 -0.2826  0.3249
 5029TIP3    H115093   2.766   5.006   4.449  0.3090 -0.0425  0.4078
 5029TIP3    H215094   2.901   4.948   4.411 -0.0242 -0.6065  0.0714
 5030TIP3   OH215095   5.788   5.455   4.086  0.1004  0.2584  0.4257
 5030TIP3    H115096   5.764   5.437   3.995  0.4239  0.3941  0.3117
 5030TIP3    H215097   5.883   5.448   4.087 -0.0241 -2.2410  1.3097
 5031TIP3   OH215098   4.869   4.964   4.839  0.0163  0.4232  0.3101
 5031TIP3    H115099   4.861   4.961   4.744  1.2840  0.0684  0.2005
 5031TIP3    H215100   4.778   4.960   4.871 -0.3902 -0.0284 -0.8591
 5032TIP3   OH215101   2.987   0.829   5.085  0.2624 -0.1625  0.6985
 5032TIP3    H115102   2.978   0.839   4.991 -0.6968 -0.7068  0.7228
 5032TIP3    H215103   2.903   0.856   5.122  0.5698 -0.1038  1.3812
 5033TIP3   OH215104   3.697   5.856   0.053 -0.1380  0.3085  0.3070
 5033TIP3    H115105   3.776   5.802   0.060 -0.1772  0.4698  2.6731
 5033TIP3    H215106   3.729   5.945   0.042  0.0217  0.3346  0.9482
 5034TIP3   OH215107   4.220   2.106   0.860 -0.1747 -0.1303  0.2066
 5034TIP3    H115108   4.139   2.086   0.906 -0.7982 -3.1331 -1.8874
 5034TIP3    H215109   4.195   2.171   0.794 -0.7783 -0.5847 -0.0242
 5035TIP3   OH215110   4.841   5.000   3.237 -0.0451 -0.3308 -1.2436
 5035TIP3    H115111   4.765   4.957   3.198 -0.7526 -0.5608  0.3272
 5035TIP3    H215112   4.895   4.929   3.271  0.4799 -0.1287 -1.6354
 5036TIP3   OH215113   3.942   3.578   4.260 -0.1259 -0.2955 -0.7640
 5036TIP3    H115114   3.883   3.638   4.215  0.1209 -0.3047 -1.1052
 5036TIP3    H215115   3.897   3.556   4.342  0.4312  1.5298  0.0829
 5037TIP3   OH215116   3.548   1.578   3.334  0.5992 -0.2244 -0.2958
 5037TIP3    H115117   3.577   1.486   3.336  0.4221 -0.2989 -0.8586
 5037TIP3    H215118   3.557   1.608   3.424 -0.2874 -1.1001  0.1120
 5038TIP3   OH215119   4.273   5.688   3.976  0.3793  0.7299  1.0632
 5038TIP3    H115120   4.311   5.725   4.055  2.0088  1.2930  0.0595
 5038TIP3    H215121   4.223   5.760   3.937  1.3330  1.1077  0.5044
 5039TIP3   OH215122   3.850   0.980   0.010 -0.1110 -0.0815 -0.0129
 5039TIP3    H115123   3.839   1.056  -0.047  1.3841  0.3312  0.1912
 5039TIP3    H215124   3.876   1.017   0.094 -2.1679 -0.6896  0.9505
 5040TIP3   OH215125   5.368   1.711   1.669  0.1768  0.8869 -0.9852
 5040TIP3    H115126   5.397   1.740   1.755  1.9415 -2.1326 -0.4284
 5040TIP3    H215127   5.410   1.626   1.656 -1.8330  0.1578 -3.8837
 5041TIP3   OH215128   3.284   1.647   2.576  0.5971  0.3383 -0.1883
 5041TIP3    H115129   3.291   1.640   2.481  0.0895 -4.1608 -0.0910
 5041TIP3    H215130   3.202   1.693   2.591  0.3475  0.5292 -1.9167
 5042TIP3   OH215131   0.232   0.329   4.630 -0.2446  0.1751 -0.4331
 5042TIP3    H115132   0.169   0.363   4.566  0.0174  1.1524 -0.1890
 5042TIP3    H215133   0.262   0.407   4.677  0.3873 -0.4059  0.1354
 5043TIP3   OH215134   4.271   4.776   1.337 -0.6057  0.7571 -0.5794
 5043TIP3    H115135   4.314   4.834   1.274  1.3973  1.2611  1.1545
 5043TIP3    H215136   4.266   4.828   1.418 -1.0257 -0.6526  0.3365
 5044TIP3   OH215137   5.399   2.195   2.682 -0.1818 -0.0269  0.0927
 5044TIP3    H115138   5.348   2.148   2.748  0.3668  0.0955  0.6079
 5044TIP3    H215139   5.423   2.127   2.618 -0.0766 -0.2891  0.4083
 5045TIP3   OH215140   3.086   1.189   2.213  0.9018 -0.1171 -0.6775
 5045TIP3    H115141   3.165   1.135   2.217  0.4958 -0.7818 -1.4900
 5045TIP3    H215142   3.015   1.131   2.240  0.5152  0.1192 -1.1745
 5046TIP3   OH215143   5.448   4.058   0.576  0.2980  0.2619  0.5202
 5046TIP3    H115144   5.529   4.052   0.527 -0.2779  1.2957 -0.6137
 5046TIP3    H215145   5.433   4.152   0.586 -0.4900  0.0819  1.1782
 5047TIP3   OH215146   1.396   2.182   3.435  0.0196 -0.3128 -1.0501
 5047TIP3    H115147   1.463   2.163   3.501 -0.0851 -1.4802 -1.2619
 5047TIP3    H215148   1.323   2.218   3.485  0.2617 -0.3839 -0.6359
 5048TIP3   OH215149   3.413   5.887   0.714 -0.0395 -0.1160 -0.2283
 5048TIP3    H115150   3.354   5.918   0.783  0.8659  1.7924 -0.2519
 5048TIP3    H215151   3.445   5.803   0.746 -1.5569 -0.4554  0.4942
 5049TIP3   OH215152   2.010   2.332   4.139 -0.1705  0.2341  0.1446
 5049TIP3    H115153   1.947   2.276   4.186 -0.7444  0.4946 -0.2944
 5049TIP3    H215154   1.956   2.399   4.099  0.3626  0.2690 -0.5250
 5050TIP3   OH215155   4.593   1.593   3.237  0.2846 -0.1303  0.1961
 5050TIP3    H115156   4.570   1.502   3.259  1.7940  0.0924  3.1802
 5050TIP3    H215157   4.516   1.644   3.264  1.2613 -0.1144  3.4122
 5051TIP3   OH215158   2.811   4.368   1.557  0.2763 -0.0370 -0.2475
 5051TIP3    H115159   2.762   4.450   1.549 -0.0671 -0.1895  0.2146
 5051TIP3    H215160   2.745   4.304   1.585  0.8834 -0.0907  1.1078
 5052TIP3   OH215161   3.941   2.123   0.183 -0.8229  0.5664 -0.2444
 5052TIP3    H115162   3.973   2.091   0.099 -2.2502  0.6877 -0.8668
 5052TIP3    H215163   3.864   2.176   0.161 -1.0569  0.8330  1.1115
 5053TIP3   OH215164   5.753   3.959   2.092 -0.2004  0.1135 -0.0726
 5053TIP3    H115165   5.754   3.939   2.186 -0.2590 -2.6806 -0.5951
 5053TIP3    H215166   5.837   3.927   2.060  0.8508  3.1436 -0.6941
 5054TIP3   OH215167   4.557   4.544   0.876  0.3976  0.2803  0.1032
 5054TIP3    H115168   4.481   4.576   0.925 -0.4915 -0.6579 -0.6045
 5054TIP3    H215169   4.523   4.530   0.787  1.0328 -1.4654  0.1090
 5055TIP3   OH215170   1.308   1.834   3.379 -0.0525  0.4415 -0.0039
 5055TIP3    H115171   1.309   1.894   3.304 -0.6457  1.1935  0.5723
 5055TIP3    H215172   1.294   1.891   3.455  1.3998 -0.2190  0.7830
 5056TIP3   OH215173   2.701   2.413   1.913  0.6099  0.1217  0.0279
 5056TIP3    H115174   2.743   2.455   1.838 -2.5813  1.3819 -1.2432
 5056TIP3    H215175   2.699   2.482   1.980 -0.1177  0.3578 -0.2258
 5057TIP3   OH215176   4.018   4.400   4.321  0.3507 -0.7712 -0.2208
 5057TIP3    H115177   4.065   4.483   4.309  0.2429 -0.4994  1.1131
 5057TIP3    H215178   4.005   4.393   4.415 -0.4353 -1.8804 -0.3937
 5058TIP3   OH215179   6.326   2.656   0.969  0.1513  0.1720 -0.3006
 5058TIP3    H115180   6.336   2.751   0.978  0.6263  0.0113  1.1584
 5058TIP3    H215181   6.240   2.638   1.008 -0.2137  0.0640 -1.1417
 5059TIP3   OH215182   2.508   3.296   4.787  0.1019  0.4200 -0.0905
 5059TIP3    H115183   2.488   3.298   4.694  0.5959  0.0576 -0.2050
 5059TIP3    H215184   2.576   3.229   4.796  1.6600  1.9765  0.2277
 5060TIP3   OH215185   0.738   0.279   1.807 -0.1718  0.0036  0.3808
 5060TIP3    H115186   0.713   0.192   1.777 -0.3654  0.1335  0.1615
 5060TIP3    H215187   0.771   0.323   1.728  0.4684 -0.0624  0.6024
 5061TIP3   OH215188   4.632   4.225   3.856  0.3928 -0.7233 -0.2430
 5061TIP3    H115189   4.541   4.210   3.884  0.5269  2.3899  2.4226
 5061TIP3    H215190   4.624   4.270   3.772 -0.5780 -0.3280  0.0432
 5062TIP3   OH215191   0.748   3.130   1.044  0.0124  0.0158  0.2343
 5062TIP3    H115192   0.785   3.123   1.132  0.5996  1.7030  0.1674
 5062TIP3    H215193   0.795   3.203   1.005 -1.6425  0.5838 -0.7774
 5063TIP3   OH215194   2.360   0.760   1.166  0.1915  0.9866 -0.0213
 5063TIP3    H115195   2.424   0.831   1.172 -0.3850  1.5496 -0.3968
 5063TIP3    H215196   2.298   0.790   1.100  1.1422 -0.8289 -1.8541
 5064TIP3   OH215197   5.128   3.056   2.848 -0.3355 -0.1440 -0.2882
 5064TIP3    H115198   5.192   3.126   2.860 -0.5837  0.3350 -1.5626
 5064TIP3    H215199   5.051   3.085   2.897 -0.4137  0.4580 -0.7564
 5065TIP3   OH215200   5.881   4.840   4.518  0.4956  0.4448 -0.4217
 5065TIP3    H115201   5.827   4.818   4.593  1.9257 -0.9633  0.2561
 5065TIP3    H215202   5.885   4.759   4.466 -0.3838  1.3565 -1.9851
 5066TIP3   OH215203   3.819   5.535   4.675 -0.1140  0.3487  0.3617
 5066TIP3    H115204   3.729   5.544   4.646  0.2233  1.3419 -0.4188
 5066TIP3    H215205   3.849   5.453   4.636 -1.2132 -0.9792  2.1423
 5067TIP3   OH215206   5.089   2.509   1.895  0.1203  0.1539  0.7459
 5067TIP3    H115207   5.152   2.439   1.879 -3.0879 -2.4614 -2.2656
 5067TIP3    H215208   5.011   2.463   1.928 -1.7165  2.4539 -0.1174
 5068TIP3   OH215209   2.924   2.865   2.866  0.0227  0.1000  0.0336
 5068TIP3    H115210   2.996   2.824   2.913 -0.3654 -0.3983  0.2145
 5068TIP3    H215211   2.927   2.957   2.892 -0.2117 -0.1725  1.0842
 5069TIP3   OH215212   4.900   1.255   2.719  0.2197  0.0295 -0.6511
 5069TIP3    H115213   4.814   1.248   2.760 -0.0700  0.2235 -1.2138
 5069TIP3    H215214   4.901   1.184   2.654  0.0730  0.6701 -1.3661
 5070TIP3   OH215215   6.132   3.683   3.440 -0.0723  0.3096 -0.0899
 5070TIP3    H115216   6.173   3.644   3.363 -0.1144 -0.7863  0.4317
 5070TIP3    H215217   6.203   3.689   3.504 -0.5438 -0.9799  0.5874
 5071TIP3   OH215218   1.592   5.580   1.716 -0.1863 -0.1232  0.5656
 5071TIP3    H115219   1.653   5.513   1.684  1.1912  1.0911  0.5748
 5071TIP3    H215220   1.609   5.657   1.662  0.5383  1.2336  2.5951
 5072TIP3   OH215221   5.534   3.880   2.537  0.1335  0.7313  0.0445
 5072TIP3    H115222   5.537   3.850   2.447  2.0569 -1.0027  0.6157
 5072TIP3    H215223   5.465   3.827   2.578  1.1341 -0.4760  0.2139
 5073TIP3   OH215224   2.736   2.271   4.792  0.0299  0.9016  0.6558
 5073TIP3    H115225   2.797   2.302   4.859  0.7883  2.4712 -0.7092
 5073TIP3    H215226   2.650   2.301   4.822  0.1463  0.2677  1.6679
 5074TIP3   OH215227   3.157   0.321   3.507 -0.1533 -0.0962 -0.0507
 5074TIP3    H115228   3.105   0.249   3.474  0.5436 -0.8288  0.3945
 5074TIP3    H215229   3.107   0.400   3.486  0.2650 -0.4804 -2.8826
 5075TIP3   OH215230   3.295   5.821   3.857  0.5745 -0.0740  0.5506
 5075TIP3    H115231   3.341   5.766   3.793  0.5936 -0.4532  0.8866
 5075TIP3    H215232   3.299   5.909   3.820  0.5938 -0.2888  0.0333
 5076TIP3   OH215233   2.846   3.548   0.748  0.7966  0.3405  0.2768
 5076TIP3    H115234   2.774   3.518   0.692  0.7305  2.0296 -0.6063
 5076TIP3    H215235   2.847   3.486   0.821 -0.7436 -0.4456 -0.3227
 5077TIP3   OH215236   0.474   3.968   0.556 -0.1848 -0.5982  0.0597
 5077TIP3    H115237   0.540   4.017   0.507 -0.3007  0.0199  0.5102
 5077TIP3    H215238   0.396   3.970   0.500 -0.3560  0.2143  0.3150
 5078TIP3   OH215239   0.984   0.750   0.219 -0.0384  0.4050 -0.2124
 5078TIP3    H115240   0.999   0.656   0.227 -1.5696  0.0265 -1.2226
 5078TIP3    H215241   0.953   0.761   0.129  1.1468  2.0393 -0.4462
 5079TIP3   OH215242   4.046   5.638   0.260  0.2941 -0.0836 -0.4249
 5079TIP3    H115243   4.130   5.611   0.223 -0.4507 -3.1748 -0.1878
 5079TIP3    H215244   4.066   5.658   0.352  0.9254  0.3141 -0.6387
 5080TIP3   OH215245   4.737   3.718   2.103  0.2346  0.0765  0.3407
 5080TIP3    H115246   4.657   3.724   2.155  1.5553 -0.3367  2.5312
 5080TIP3    H215247   4.763   3.809   2.090 -0.1423  0.1857  0.3234
 5081TIP3   OH215248   4.150   3.365   3.497  0.1615 -0.4142  0.3692
 5081TIP3    H115249   4.199   3.429   3.548 -0.2841 -1.6984  2.5956
 5081TIP3    H215250   4.176   3.280   3.534 -1.4081 -1.3162 -0.4544
 5082TIP3   OH215251   0.190   4.119   3.279 -0.1045  0.5678 -0.2205
 5082TIP3    H115252   0.267   4.096   3.227 -0.4136  0.6529 -0.7262
 5082TIP3    H215253   0.173   4.211   3.257  0.3456  0.9136  0.7877
 5083TIP3   OH215254   0.288   0.292   3.899  0.2596  0.0621  0.4455
 5083TIP3    H115255   0.349   0.366   3.899  0.8138 -0.3839  0.0549
 5083TIP3    H215256   0.324   0.232   3.964 -0.3018  0.2168  0.9104
 5084TIP3   OH215257   2.380   0.300   3.038  0.0305  0.2614 -0.0326
 5084TIP3    H115258   2.330   0.270   2.962  1.1662 -0.4223 -0.5502
 5084TIP3    H215259   2.409   0.389   3.014  3.1895 -1.0840 -1.9767
 5085TIP3   OH215260   4.925   1.784   2.635 -0.2268  0.0504  0.5463
 5085TIP3    H115261   4.941   1.860   2.690  2.0190  0.9767 -1.2358
 5085TIP3    H215262   4.832   1.789   2.613 -0.3549  1.6570  1.3199
 5086TIP3   OH215263   5.469   4.978   3.559  0.3149 -0.0527  0.2253
 5086TIP3    H115264   5.539   4.930   3.602  0.0292  0.2232  1.0261
 5086TIP3    H215265   5.510   5.016   3.482  1.0641  0.1544  0.7118
 5087TIP3   OH215266   5.204   5.277   0.926 -0.8782 -0.3621  0.2044
 5087TIP3    H115267   5.294   5.251   0.946 -0.9036  0.5418  1.6534
 5087TIP3    H215268   5.213   5.345   0.859 -0.5500 -1.0021 -0.4023
 5088TIP3   OH215269   3.548   0.835   0.861 -0.0414  0.2008  0.3218
 5088TIP3    H115270   3.576   0.843   0.770 -0.4232 -1.7386 -0.0174
 5088TIP3    H215271   3.598   0.761   0.895 -0.7476  0.1621  1.3328
 5089TIP3   OH215272   5.477   1.761   1.910 -0.0758  0.1820  0.6083
 5089TIP3    H115273   5.484   1.785   2.003 -0.6648 -1.6468  1.1759
 5089TIP3    H215274   5.507   1.670   1.907 -2.2273 -0.5643 -0.5707
 5090TIP3   OH215275   0.071   5.864   0.992  0.4009 -0.5357 -0.4904
 5090TIP3    H115276  -0.019   5.838   0.974  0.6407 -0.9007 -1.2339
 5090TIP3    H215277   0.115   5.782   1.016  1.0635 -0.8028 -2.4376
 5091TIP3   OH215278   1.817   0.837   1.942 -0.6833  0.0468  0.2630
 5091TIP3    H115279   1.731   0.800   1.963 -1.0594 -0.2082 -1.5499
 5091TIP3    H215280   1.797   0.926   1.913 -0.3386 -0.0398 -0.2332
 5092TIP3   OH215281   5.598   2.412   4.649 -0.0856 -0.3560  0.1142
 5092TIP3    H115282   5.528   2.461   4.605 -0.2478 -1.3149 -0.7360
 5092TIP3    H215283   5.613   2.336   4.593  0.9166 -0.7146  0.8392
 5093TIP3   OH215284   1.206   3.966   4.409 -0.4270  0.0987  0.0590
 5093TIP3    H115285   1.261   3.896   4.374 -1.3260 -0.2099 -0.7927
 5093TIP3    H215286   1.206   4.033   4.340 -0.0727  0.6718  0.6075
 5094TIP3   OH215287   3.485   1.658   1.988 -0.4792 -0.5427 -0.2973
 5094TIP3    H115288   3.443   1.740   2.015  0.0161 -0.5286  0.4626
 5094TIP3    H215289   3.536   1.631   2.065 -0.8407 -1.7026 -0.4501
 5095TIP3   OH215290   4.080   2.223   4.282 -0.3136  0.6558  0.0878
 5095TIP3    H115291   4.002   2.209   4.229 -1.3209 -1.7453  1.9850
 5095TIP3    H215292   4.150   2.177   4.236 -0.8951 -0.3428  0.1745
 5096TIP3   OH215293   4.669   0.089   4.699  0.3594 -0.5026  0.5578
 5096TIP3    H115294   4.674   0.022   4.631  1.4062 -0.6849  0.7993
 5096TIP3    H215295   4.728   0.158   4.669  0.3218 -0.2879  0.9657
 5097TIP3   OH215296   1.406   1.725   1.473 -0.6329  0.1611 -0.1193
 5097TIP3    H115297   1.494   1.735   1.437 -0.3302 -0.3537  0.4591
 5097TIP3    H215298   1.400   1.793   1.541 -1.1984  1.1237 -1.0967
 5098TIP3   OH215299   0.983   2.464   5.143  0.5866  0.2087  0.5539
 5098TIP3    H115300   0.960   2.481   5.052 -0.1973  0.8795  0.8586
 5098TIP3    H215301   0.899   2.451   5.187  0.9838 -0.9082  1.0462
 5099TIP3   OH215302   3.700   0.508   1.340 -0.0244 -0.2121 -0.3449
 5099TIP3    H115303   3.776   0.452   1.326  0.2015 -0.2373  0.8950
 5099TIP3    H215304   3.737   0.593   1.363 -0.3761  0.1630 -1.1161
 5100TIP3   OH215305   1.296   1.828   4.107  0.6641  0.0573  0.3922
 5100TIP3    H115306   1.333   1.875   4.182 -1.2466  1.2845  0.6329
 5100TIP3    H215307   1.365   1.832   4.040  1.5733  0.8358  1.3456
 5101TIP3   OH215308   1.247   4.474   1.683  0.0724  0.1852 -0.1951
 5101TIP3    H115309   1.264   4.563   1.713 -0.5432  0.0568  0.5612
 5101TIP3    H215310   1.162   4.479   1.639  0.4600  0.1494 -0.9663
 5102TIP3   OH215311   1.042   3.389   1.130  0.3601 -0.6819 -0.0617
 5102TIP3    H115312   1.087   3.469   1.105  1.2467 -0.9578  0.6111
 5102TIP3    H215313   0.963   3.419   1.175  0.4254 -0.1947 -0.2644
 5103TIP3   OH215314   3.113   0.824   0.847 -0.2043  0.6712 -0.0844
 5103TIP3    H115315   3.160   0.897   0.888  0.0531  0.2313  0.4156
 5103TIP3    H215316   3.157   0.746   0.880 -1.3520  0.2435  0.5055
 5104TIP3   OH215317   4.002   4.077   0.328 -0.1740  0.0574  0.3154
 5104TIP3    H115318   3.924   4.032   0.361  0.8999 -0.5733  2.1251
 5104TIP3    H215319   4.016   4.039   0.241  0.2860 -2.7255  1.4878
 5105TIP3   OH215320   4.535   2.432   0.395 -0.0616 -0.0162 -0.1218
 5105TIP3    H115321   4.506   2.407   0.483  0.5572 -0.4894 -0.0493
 5105TIP3    H215322   4.618   2.386   0.382  0.1611  0.5282 -0.7200
 5106TIP3   OH215323   0.502   2.733   1.389 -0.2130  0.7026  0.0786
 5106TIP3    H115324   0.580   2.789   1.387  0.0177  0.3975  0.3679
 5106TIP3    H215325   0.536   2.647   1.415 -0.8101  0.8197  1.3161
 5107TIP3   OH215326   1.972   4.215   0.709 -0.2527 -0.5473 -0.1518
 5107TIP3    H115327   2.048   4.157   0.697  0.4978 -0.3950  2.9493
 5107TIP3    H215328   1.914   4.167   0.767  0.1202  1.4606  2.0345
 5108TIP3   OH215329   5.598   4.667   4.091 -0.1722  0.3926  0.0578
 5108TIP3    H115330   5.617   4.579   4.124 -0.3816  0.1219 -0.5286
 5108TIP3    H215331   5.503   4.669   4.080 -0.0917  0.4272 -0.6595
 5109TIP3   OH215332   4.742   0.958   5.125 -0.1273 -0.0432 -0.3304
 5109TIP3    H115333   4.727   0.911   5.043 -1.1094  2.0120 -1.4137
 5109TIP3    H215334   4.812   1.019   5.105  0.0948  0.0140  0.5825
 5110TIP3   OH215335   0.630   3.379   4.088  0.1325  0.6495 -0.9426
 5110TIP3    H115336   0.602   3.420   4.169 -1.0496 -0.9145 -0.5105
 5110TIP3    H215337   0.682   3.303   4.116 -0.6537 -0.1620 -1.6095
 5111TIP3   OH215338   0.173   2.462   4.248 -0.2590 -0.7073 -0.2048
 5111TIP3    H115339   0.137   2.546   4.277  0.1051 -0.4980 -0.3493
 5111TIP3    H215340   0.112   2.397   4.282 -1.0468 -0.3362 -0.8578
 5112TIP3   OH215341   5.929   1.840   1.720 -0.5810 -0.2153 -0.1920
 5112TIP3    H115342   5.874   1.861   1.644 -1.8394 -1.9950  0.1594
 5112TIP3    H215343   5.997   1.783   1.685 -1.0579 -0.8912 -0.0445
 5113TIP3   OH215344   6.105   5.446   3.484  0.5178  0.1346  0.0929
 5113TIP3    H115345   6.097   5.539   3.461  0.5527  0.0245 -0.3806
 5113TIP3    H215346   6.041   5.433   3.555 -2.0351 -0.2177 -2.0829
 5114TIP3   OH215347   2.767   1.277   4.589  0.1604 -0.2458 -0.1891
 5114TIP3    H115348   2.721   1.360   4.575 -1.3524 -0.6988  1.6781
 5114TIP3    H215349   2.721   1.214   4.534  1.2117  0.0702 -1.4866
 5115TIP3   OH215350   2.330   0.425   3.987 -0.0358  0.5501 -0.4382
 5115TIP3    H115351   2.350   0.340   4.027  1.6550  0.2137 -1.8969
 5115TIP3    H215352   2.285   0.404   3.906  0.2265  1.0567 -0.7204
 5116TIP3   OH215353   1.740   4.976   4.015 -0.0847  0.4530 -0.4587
 5116TIP3    H115354   1.718   5.044   3.951 -0.0338  2.0909  1.1598
 5116TIP3    H215355   1.824   5.005   4.052 -0.4559 -0.0449  0.8176
 5117TIP3   OH215356   0.127   2.956   5.048  1.0352  0.7317  0.1135
 5117TIP3    H115357   0.126   3.010   4.969 -0.2395  1.3155  0.4885
 5117TIP3    H215358   0.107   3.018   5.119 -1.7754 -0.3467  0.4263
 5118TIP3   OH215359   2.248   3.537   3.598 -0.3974  0.3337  0.0176
 5118TIP3    H115360   2.268   3.623   3.561 -2.8154  1.5357  1.2645
 5118TIP3    H215361   2.170   3.508   3.551  1.8748 -2.5858 -2.3322
 5119TIP3   OH215362   5.011   1.151   4.112  0.5577  0.0556 -0.6212
 5119TIP3    H115363   4.969   1.214   4.171 -1.3994  0.4675 -2.3343
 5119TIP3    H215364   5.105   1.171   4.119  0.3939  0.3206  1.9979
 5120TIP3   OH215365   2.001   2.179   4.400 -0.0636 -0.1647 -0.2452
 5120TIP3    H115366   2.090   2.173   4.365 -0.5953 -0.2379 -1.6587
 5120TIP3    H215367   2.012   2.219   4.487  1.2648  0.5819 -0.7236
 5121TIP3   OH215368   5.775   2.537   2.495 -0.6823  0.2394  0.7389
 5121TIP3    H115369   5.707   2.599   2.520 -1.6582 -0.4966  0.0226
 5121TIP3    H215370   5.737   2.451   2.513 -0.2748 -0.2095 -0.4507
 5122TIP3   OH215371   4.199   1.975   1.826  0.0561 -0.0473 -0.2752
 5122TIP3    H115372   4.107   1.984   1.799  0.0215 -0.0713 -0.1637
 5122TIP3    H215373   4.243   1.941   1.748 -0.2061 -0.9631 -0.0387
 5123TIP3   OH215374   5.473   0.727   1.900 -0.0230  0.1581 -0.0802
 5123TIP3    H115375   5.399   0.714   1.841 -0.1464  1.4590 -0.2280
 5123TIP3    H215376   5.438   0.709   1.987 -0.3389  0.1310 -0.2108
 5124TIP3   OH215377   1.767   1.090   1.827 -0.2747  0.1610  0.4096
 5124TIP3    H115378   1.741   1.120   1.740  0.4496  0.7385  0.3786
 5124TIP3    H215379   1.738   1.160   1.886 -0.3453 -0.0071  0.5736
 5125TIP3   OH215380   3.002   2.129   3.381 -0.6861 -0.1568 -0.0117
 5125TIP3    H115381   3.032   2.206   3.429 -0.8909 -0.3724  0.4586
 5125TIP3    H215382   3.077   2.105   3.326 -0.3038 -0.1626  0.5061
 5126TIP3   OH215383   1.126   4.293   2.012  0.1673 -0.1367 -0.0022
 5126TIP3    H115384   1.091   4.347   1.941 -0.7120 -0.2128  0.3648
 5126TIP3    H215385   1.060   4.299   2.081  0.8105 -0.4121  0.6453
 5127TIP3   OH215386   6.067   3.224   3.654 -0.0942  0.4140  0.0578
 5127TIP3    H115387   6.108   3.281   3.718 -0.7771 -0.4569  1.3303
 5127TIP3    H215388   6.050   3.280   3.578  2.1220  1.1098  0.0059
 5128TIP3   OH215389   0.890   2.834   1.835 -0.1205  0.4096  0.4483
 5128TIP3    H115390   0.882   2.776   1.910  1.5334 -0.7423 -0.2264
 5128TIP3    H215391   0.878   2.922   1.871 -1.5831 -0.2413  1.6585
 5129TIP3   OH215392   2.288   2.702   1.859  0.1525  0.0742  0.2822
 5129TIP3    H115393   2.227   2.653   1.914  1.5134 -1.8466  0.1873
 5129TIP3    H215394   2.374   2.685   1.897  1.1932 -1.6119 -2.5601
 5130TIP3   OH215395   2.504   3.557   2.008  1.0443  0.4625 -0.0981
 5130TIP3    H115396   2.550   3.637   2.031  0.7905  0.3129  1.0137
 5130TIP3    H215397   2.552   3.487   2.053  1.2697 -0.0234 -1.0593
 5131TIP3   OH215398   1.253   2.403   3.859  0.1569 -0.8429 -0.1935
 5131TIP3    H115399   1.212   2.447   3.934  0.6567  0.4313 -0.6359
 5131TIP3    H215400   1.322   2.349   3.897  0.7239  0.1618  0.2479
 5132TIP3   OH215401   4.919   3.047   0.762  0.7477  0.1747 -0.3042
 5132TIP3    H115402   4.932   3.099   0.842 -2.2374  1.0490 -0.2777
 5132TIP3    H215403   4.953   2.960   0.784  4.6069  1.6008  0.1313
 5133TIP3   OH215404   2.975   1.570   1.460 -0.7805  0.8820  0.2463
 5133TIP3    H115405   3.046   1.575   1.524 -0.5830  0.3157  0.0753
 5133TIP3    H215406   2.896   1.580   1.512 -0.5753  3.9125  0.2087
 5134TIP3   OH215407   0.508   0.384   2.589  0.3205 -0.1207  0.0545
 5134TIP3    H115408   0.533   0.476   2.603  3.4462 -0.8946  0.2347
 5134TIP3    H215409   0.490   0.378   2.496  0.0463  0.6870  0.0456
 5135TIP3   OH215410   2.807   5.106   3.809 -0.1764  0.4048  0.7268
 5135TIP3    H115411   2.883   5.156   3.839  0.0326  0.1603  0.6121
 5135TIP3    H215412   2.839   5.059   3.731 -0.0583 -0.7435  1.4477
 5136TIP3   OH215413   0.578   0.477   4.437 -0.4417 -0.3645  0.6827
 5136TIP3    H115414   0.665   0.513   4.423 -0.7595  0.4194  0.6623
 5136TIP3    H215415   0.527   0.549   4.473 -1.7301 -0.0627 -1.5390
 5137TIP3   OH215416   4.914   2.994   1.449 -0.2504  0.3748 -0.4070
 5137TIP3    H115417   4.986   2.937   1.421  0.7579  1.3773  0.0861
 5137TIP3    H215418   4.842   2.972   1.389 -0.0936 -1.7881  0.1073
 5138TIP3   OH215419   4.725   2.890   3.064 -0.4443 -0.4323 -0.0865
 5138TIP3    H115420   4.799   2.892   3.126  0.7851  3.5859 -1.3982
 5138TIP3    H215421   4.742   2.813   3.010  1.7737 -0.6686  0.8327
 5139TIP3   OH215422   5.830   4.117   0.236 -0.2792 -0.3604  0.0227
 5139TIP3    H115423   5.848   4.188   0.175 -3.3069  0.2078 -0.3752
 5139TIP3    H215424   5.811   4.042   0.181 -1.2735 -0.3191  0.2925
 5140TIP3   OH215425   5.994   3.474   4.131 -0.0870 -0.2348 -0.3628
 5140TIP3    H115426   6.029   3.496   4.217  0.1612  1.7333 -0.9157
 5140TIP3    H215427   5.973   3.381   4.137  0.7356 -0.3519  1.5303
 5141TIP3   OH215428   4.261   4.764   2.806 -0.3093 -0.1673 -0.4685
 5141TIP3    H115429   4.272   4.689   2.865  3.0591 -1.0856 -2.0091
 5141TIP3    H215430   4.293   4.839   2.856  1.6753 -0.7883 -0.7313
 5142TIP3   OH215431   4.744   3.973   2.220 -0.1146 -0.2014 -0.0911
 5142TIP3    H115432   4.654   3.984   2.251  0.5487  0.3785  1.7624
 5142TIP3    H215433   4.797   3.969   2.300  1.5086 -0.6451 -1.1303
 5143TIP3   OH215434   5.446   3.180   0.618 -0.0955 -0.0237 -0.5590
 5143TIP3    H115435   5.359   3.218   0.602  0.1661 -0.0147 -2.0689
 5143TIP3    H215436   5.502   3.255   0.639 -0.7302 -0.1647  1.9685
 5144TIP3   OH215437   0.576   4.327   2.148 -0.2291  0.4154 -0.3533
 5144TIP3    H115438   0.506   4.392   2.135 -0.2407  0.2283 -1.3004
 5144TIP3    H215439   0.539   4.265   2.210 -0.1206  1.4497  0.7807
 5145TIP3   OH215440   2.191   1.221   4.587 -0.0468 -0.3753  0.0101
 5145TIP3    H115441   2.113   1.230   4.532 -0.1139 -1.4306 -0.0936
 5145TIP3    H215442   2.216   1.129   4.578 -0.0858 -0.5919  1.7794
 5146TIP3   OH215443   0.863   4.066   1.286 -0.4812  0.0612 -0.0238
 5146TIP3    H115444   0.928   4.125   1.325 -0.3276 -0.3025  0.2727
 5146TIP3    H215445   0.854   3.994   1.349  1.0488 -1.4152 -1.3733
 5147TIP3   OH215446   1.504   0.307   1.127 -0.4193 -0.3592 -0.3636
 5147TIP3    H115447   1.477   0.290   1.037  0.0045 -0.8735 -0.3993
 5147TIP3    H215448   1.451   0.382   1.155  1.8567  2.1408 -2.1955
 5148TIP3   OH215449   4.772   5.095   4.575 -0.2149 -0.2797 -0.3527
 5148TIP3    H115450   4.774   5.096   4.480  1.5267  0.4571 -0.3385
 5148TIP3    H215451   4.793   5.186   4.600 -1.4252 -0.2721  0.7327
 5149TIP3   OH215452   0.901   2.555   4.858  0.1901  0.0987  0.0215
 5149TIP3    H115453   0.863   2.468   4.845  0.0854 -0.0195  1.0619
 5149TIP3    H215454   0.840   2.614   4.814 -0.8301 -0.1640  1.0435
 5150TIP3   OH215455   1.145   2.286   2.131 -0.3641 -0.3722 -0.0058
 5150TIP3    H115456   1.098   2.306   2.212 -1.5393  0.7671 -0.9295
 5150TIP3    H215457   1.083   2.306   2.062  1.2164  0.3960 -1.2655
 5151TIP3   OH215458   0.714   2.400   3.918 -0.6202 -0.1298 -0.4620
 5151TIP3    H115459   0.776   2.334   3.947  2.7865  1.7785 -2.6922
 5151TIP3    H215460   0.737   2.479   3.968 -0.7432  0.8260 -1.8576
 5152TIP3   OH215461   2.915   5.094   2.848 -0.4563 -0.1812  0.7247
 5152TIP3    H115462   2.820   5.092   2.831 -0.4372  0.1906  0.5637
 5152TIP3    H215463   2.950   5.151   2.779 -0.3016  0.9143  1.6754
 5153TIP3   OH215464   6.225   4.977   3.898  0.9138  0.1147 -0.0066
 5153TIP3    H115465   6.290   4.933   3.953  0.4829 -0.9792 -0.3372
 5153TIP3    H215466   6.269   5.056   3.868  1.4185  0.3540  1.2972
 5154TIP3   OH215467   5.059   4.117   4.840  0.8751  0.0599 -0.0345
 5154TIP3    H115468   5.044   4.192   4.898  2.2382 -0.0416  0.4853
 5154TIP3    H215469   5.059   4.154   4.752  0.0225  0.4195  0.1114
 5155TIP3   OH215470   3.203   1.491   5.099 -0.0428  0.3934 -0.1268
 5155TIP3    H115471   3.135   1.429   5.073 -0.5400  0.0611  1.8305
 5155TIP3    H215472   3.283   1.457   5.060 -0.5159 -0.7936 -0.1025
 5156TIP3   OH215473   6.205   4.330   3.773  0.2655 -0.1581 -0.8466
 5156TIP3    H115474   6.220   4.324   3.678  1.4345 -0.2743 -0.6753
 5156TIP3    H215475   6.293   4.329   3.811 -0.2075 -1.2370  0.3069
 5157TIP3   OH215476   2.890   0.186   2.353  0.2350  0.4325 -0.3035
 5157TIP3    H115477   2.972   0.218   2.392  0.2952 -1.5075  1.3239
 5157TIP3    H215478   2.917   0.117   2.293 -0.1412  0.7839 -0.8906
 5158TIP3   OH215479   2.941   2.179   1.235 -0.2150  0.4479 -0.9589
 5158TIP3    H115480   3.017   2.166   1.178  0.1139 -1.3805 -0.1827
 5158TIP3    H215481   2.977   2.175   1.324 -1.4417 -3.7352 -0.3953
 5159TIP3   OH215482   3.681   5.249   5.078  0.2249 -0.2267  0.2812
 5159TIP3    H115483   3.775   5.258   5.063  0.0349  0.7557 -0.3625
 5159TIP3    H215484   3.651   5.337   5.098 -0.4752 -0.6247  1.0561
 5160TIP3   OH215485   0.318   0.068   2.104 -0.1503 -0.1674 -0.3361
 5160TIP3    H115486   0.369   0.044   2.181  0.9192  0.5511 -0.7947
 5160TIP3    H215487   0.240   0.014   2.109  0.1856 -0.5706  0.9275
 5161TIP3   OH215488   4.100   5.095   4.664 -0.4986  0.4642 -0.0451
 5161TIP3    H115489   4.106   5.186   4.694  0.6180  0.4822 -0.2762
 5161TIP3    H215490   4.013   5.088   4.626 -0.3202  1.6609 -0.7260
 5162TIP3   OH215491   5.639   5.931   1.197 -0.4078  0.0205  0.1138
 5162TIP3    H115492   5.567   5.991   1.178  0.9805  1.4422 -0.8840
 5162TIP3    H215493   5.713   5.988   1.218  1.0193 -1.2914 -1.1016
 5163TIP3   OH215494   4.477   1.805   0.342 -0.4030  0.1354 -0.7802
 5163TIP3    H115495   4.393   1.791   0.387  0.0998 -2.2516 -0.4342
 5163TIP3    H215496   4.528   1.858   0.402 -0.3357 -1.6404  0.8276
 5164TIP3   OH215497   0.809   0.915   4.197 -0.5667  0.1127  0.6431
 5164TIP3    H115498   0.810   0.957   4.283 -3.1267  1.2324  0.2142
 5164TIP3    H215499   0.873   0.964   4.145 -1.0813  1.3185  1.1154
 5165TIP3   OH215500   3.817   5.648   1.031 -0.1051 -0.4070  0.2826
 5165TIP3    H115501   3.843   5.738   1.052  0.1639  0.0889 -1.8735
 5165TIP3    H215502   3.760   5.658   0.954 -2.3863 -1.8866  1.6413
 5166TIP3   OH215503   1.677   5.070   4.588  0.2011 -0.2173  0.0937
 5166TIP3    H115504   1.668   4.986   4.542  0.2765  0.1386 -0.5924
 5166TIP3    H215505   1.760   5.064   4.634  1.3796  0.3520 -1.8589
 5167TIP3   OH215506   1.323   5.743   0.304 -0.3174  0.1757 -0.3909
 5167TIP3    H115507   1.316   5.757   0.210 -2.1311 -0.6783 -0.4269
 5167TIP3    H215508   1.327   5.648   0.314  0.2705  0.2732  0.3807
 5168TIP3   OH215509   5.724   2.243   2.456 -0.2510 -0.0315 -0.5105
 5168TIP3    H115510   5.667   2.221   2.382 -0.7044  1.7527 -0.7571
 5168TIP3    H215511   5.810   2.259   2.415  0.2852 -2.0128 -0.2309
 5169TIP3   OH215512   1.429   3.375   0.347  0.7337 -0.2004 -0.2700
 5169TIP3    H115513   1.342   3.370   0.307  0.7093 -0.8949 -0.1537
 5169TIP3    H215514   1.418   3.336   0.434  0.9181  0.7525  0.1955
 5170TIP3   OH215515   5.400   2.961   4.194  0.1923  0.1439 -0.4021
 5170TIP3    H115516   5.485   2.950   4.153 -0.1084  1.4615 -1.4371
 5170TIP3    H215517   5.352   3.019   4.136 -1.0021  0.3830  0.7631
 5171TIP3   OH215518   0.222   0.056   3.774  0.4343  0.7517 -0.0168
 5171TIP3    H115519   0.316   0.073   3.777  0.5227  0.2777 -0.0535
 5171TIP3    H215520   0.190   0.080   3.861  0.1495  3.3769 -0.7425
 5172TIP3   OH215521   2.532   1.519   0.232  0.0773 -0.1244 -0.1708
 5172TIP3    H115522   2.518   1.472   0.314  0.5251 -1.8848 -1.0588
 5172TIP3    H215523   2.625   1.537   0.230 -0.2104  1.6381  0.5581
 5173TIP3   OH215524   5.333   1.069   2.409 -0.2012 -0.3437 -0.0861
 5173TIP3    H115525   5.314   1.069   2.502 -2.3263  0.5780 -0.4744
 5173TIP3    H215526   5.421   1.107   2.403 -0.9597  1.8753  1.4221
 5174TIP3   OH215527   5.942   5.507   3.097  0.8144  0.2573  0.4870
 5174TIP3    H115528   5.971   5.478   3.010  0.6795  1.7205 -0.0772
 5174TIP3    H215529   5.858   5.463   3.110 -0.2019  1.6173 -1.0741
 5175TIP3   OH215530   1.996   5.742   0.846 -0.3737  0.0616  0.1312
 5175TIP3    H115531   1.917   5.693   0.821 -0.1465 -0.5460  0.5726
 5175TIP3    H215532   2.056   5.675   0.877  0.7904  0.3778 -1.3457
 5176TIP3   OH215533   3.889   1.713   2.669  0.2352 -0.4787  0.4502
 5176TIP3    H115534   3.807   1.668   2.690 -0.4675  1.0281  1.1486
 5176TIP3    H215535   3.957   1.661   2.710 -0.6572 -0.3107  2.2374
 5177TIP3   OH215536   1.475   2.498   4.770 -0.4785  0.1266  0.2668
 5177TIP3    H115537   1.546   2.454   4.725 -0.1933 -0.1484  0.9781
 5177TIP3    H215538   1.502   2.501   4.862 -1.3113  0.1588  0.5213
 5178TIP3   OH215539   3.425   3.492   1.352 -0.1675 -0.7665  1.2084
 5178TIP3    H115540   3.385   3.565   1.305  0.7394 -0.8238  0.3010
 5178TIP3    H215541   3.445   3.527   1.439 -0.6276 -0.2336  1.1037
 5179TIP3   OH215542   0.957   2.884   4.804  0.9582 -0.4197  0.1189
 5179TIP3    H115543   0.957   2.973   4.768  1.4026 -0.4066  0.1440
 5179TIP3    H215544   0.866   2.856   4.798  0.9804 -0.3210 -0.7678
 5180TIP3   OH215545   4.783   5.514   1.059  0.4482  0.2574  0.0937
 5180TIP3    H115546   4.707   5.564   1.030  0.5237 -0.2918 -1.1192
 5180TIP3    H215547   4.758   5.422   1.045  1.3197  0.0664 -0.2957
 5181TIP3   OH215548   0.116   3.468   0.599  0.0973 -0.1893 -0.0676
 5181TIP3    H115549   0.163   3.546   0.570 -0.0157  0.1900  0.7595
 5181TIP3    H215550   0.040   3.463   0.541  1.4747 -1.2234 -1.9149
 5182TIP3   OH215551   4.187   3.162   3.700 -0.3411  0.4066 -0.3931
 5182TIP3    H115552   4.126   3.117   3.759  1.9178  0.6558  2.3617
 5182TIP3    H215553   4.217   3.093   3.640 -0.8476 -0.5097  0.3700
 5183TIP3   OH215554   3.377   3.833   1.008  0.0642  0.4485  0.7391
 5183TIP3    H115555   3.418   3.918   1.029  1.5835 -0.2505  0.7750
 5183TIP3    H215556   3.353   3.797   1.093 -3.5885  2.1755  0.5948
 5184TIP3   OH215557   1.118   1.715   3.857  0.0075  0.6702 -0.3253
 5184TIP3    H115558   1.162   1.715   3.942  0.9031  0.0229 -0.7707
 5184TIP3    H215559   1.026   1.733   3.877  0.0095 -0.5150  0.8857
 5185TIP3   OH215560   1.278   4.484   1.156 -0.2738  0.1728 -0.6788
 5185TIP3    H115561   1.182   4.484   1.164 -0.3474  2.6662 -0.9857
 5185TIP3    H215562   1.295   4.527   1.072  1.1357 -1.4391 -1.2885
 5186TIP3   OH215563   1.823   1.621   5.004 -0.0597  0.4299  0.1131
 5186TIP3    H115564   1.810   1.710   5.038  0.8988  0.2399  1.0104
 5186TIP3    H215565   1.739   1.578   5.019 -0.7113  1.3228 -0.8178
 5187TIP3   OH215566   2.892   0.207   1.502  0.6640 -0.1075 -0.5038
 5187TIP3    H115567   2.798   0.210   1.517  0.6723  1.3985 -0.5604
 5187TIP3    H215568   2.901   0.176   1.412  0.1007  1.4012 -1.1283
 5188TIP3   OH215569   0.275   0.672   3.399  0.3173  0.6107  0.3974
 5188TIP3    H115570   0.284   0.637   3.487 -0.8254 -2.3354 -0.5360
 5188TIP3    H215571   0.333   0.618   3.345 -0.6099  0.9081 -0.9516
 5189TIP3   OH215572   2.824   2.035   4.690 -0.4349 -0.0596 -0.0676
 5189TIP3    H115573   2.919   2.025   4.685 -0.5659 -1.0358 -0.9028
 5189TIP3    H215574   2.811   2.127   4.711  0.7004 -0.0190  0.5614
 5190TIP3   OH215575   5.931   5.413   1.741 -0.4250 -0.1546  0.0570
 5190TIP3    H115576   5.876   5.484   1.774 -1.2701  0.0091 -1.5841
 5190TIP3    H215577   6.020   5.441   1.760 -0.8459 -0.0296  2.0230
 5191TIP3   OH215578   0.680   5.685   1.746 -0.1317 -0.6750  0.1605
 5191TIP3    H115579   0.694   5.593   1.769  2.1233 -0.4363  0.0060
 5191TIP3    H215580   0.664   5.729   1.830  0.8960 -0.9208  0.5081
 5192TIP3   OH215581   5.718   5.957   2.753 -0.1402 -0.3211 -0.0493
 5192TIP3    H115582   5.794   5.905   2.782 -0.9435 -1.0398  0.8183
 5192TIP3    H215583   5.674   5.901   2.689  0.2514  0.2533 -0.8440
 5193TIP3   OH215584   2.735   4.857   2.830 -0.2721 -0.4770  0.6131
 5193TIP3    H115585   2.671   4.789   2.806  0.0931 -0.5378 -0.2333
 5193TIP3    H215586   2.819   4.822   2.803  0.0925 -0.2643  1.4478
 5194TIP3   OH215587   5.360   3.739   4.196  0.0664  0.5858 -0.2265
 5194TIP3    H115588   5.294   3.707   4.258  0.9190  2.0448  1.5442
 5194TIP3    H215589   5.309   3.765   4.119 -1.2358  0.1603  0.4459
 5195TIP3   OH215590   5.866   2.567   2.249 -0.4734 -0.7458  0.2433
 5195TIP3    H115591   5.815   2.555   2.329 -0.8339  1.5233  0.4326
 5195TIP3    H215592   5.834   2.500   2.189 -2.4829 -0.4609  0.9387
 5196TIP3   OH215593   5.193   4.938   2.538 -0.0954  0.0277  0.2371
 5196TIP3    H115594   5.113   4.982   2.507 -1.5916 -1.2952  1.9648
 5196TIP3    H215595   5.199   4.859   2.485 -1.2087 -0.9483  1.4918
 5197TIP3   OH215596   3.747   0.279   0.804 -0.0167 -0.3831  0.1045
 5197TIP3    H115597   3.776   0.312   0.718 -0.2889  2.0082  0.8668
 5197TIP3    H215598   3.828   0.265   0.852  0.0926  0.6010  0.2365
 5198TIP3   OH215599   1.451   3.789   4.004  0.1697  0.2633  0.1571
 5198TIP3    H115600   1.387   3.850   4.040  0.7332  0.2681  1.1874
 5198TIP3    H215601   1.499   3.840   3.938 -0.9828  0.2044 -0.7694
 5199TIP3   OH215602   3.376   1.540   0.279 -0.3970  0.4027  0.2431
 5199TIP3    H115603   3.398   1.594   0.202  0.7332 -0.0833  0.1994
 5199TIP3    H215604   3.351   1.603   0.346  1.0249  1.0253  0.2320
 5200TIP3   OH215605   5.110   4.101   3.046 -0.0583 -0.1086 -0.3209
 5200TIP3    H115606   5.135   4.170   2.985  1.6838  0.5730  1.0956
 5200TIP3    H215607   5.029   4.132   3.085 -1.3435 -0.6661 -2.3734
 5201TIP3   OH215608   3.437   2.818   1.200 -0.1667 -0.6222 -0.4243
 5201TIP3    H115609   3.455   2.731   1.237 -0.4605 -0.3085  0.4990
 5201TIP3    H215610   3.343   2.820   1.186  0.0486 -1.0692 -2.1185
 5202TIP3   OH215611   4.603   5.580   1.828  0.0709  0.2416  0.7560
 5202TIP3    H115612   4.639   5.606   1.912  1.4628  0.2912  0.1662
 5202TIP3    H215613   4.600   5.484   1.831  1.0295  0.1921  0.5231
 5203TIP3   OH215614   4.501   5.439   3.647 -0.4013 -0.1901  0.1802
 5203TIP3    H115615   4.437   5.474   3.586  1.2166  0.6182 -1.1160
 5203TIP3    H215616   4.584   5.476   3.620  1.0930 -3.2110  0.1769
 5204TIP3   OH215617   5.042   5.422   3.034  0.0942  0.6187 -0.2210
 5204TIP3    H115618   5.066   5.334   3.006 -0.9098  0.2581  0.0045
 5204TIP3    H215619   5.043   5.474   2.954 -0.8123  0.0412 -0.6280
 5205TIP3   OH215620   0.765   5.086   1.093 -0.0302 -0.1653 -0.6266
 5205TIP3    H115621   0.708   5.163   1.100 -0.9459 -0.5323 -3.1691
 5205TIP3    H215622   0.706   5.015   1.066  1.1893 -1.2339 -0.5701
 5206TIP3   OH215623   0.954   0.708   3.060 -0.0420 -0.1855 -0.1176
 5206TIP3    H115624   0.935   0.796   3.093 -2.0297 -0.0341 -1.5423
 5206TIP3    H215625   0.975   0.721   2.968 -0.1030 -1.1811 -0.2787
 5207TIP3   OH215626   5.128   1.214   0.399 -0.1304  0.2111 -0.2871
 5207TIP3    H115627   5.109   1.173   0.483 -0.0617  1.0723  0.1627
 5207TIP3    H215628   5.112   1.308   0.414 -0.8714  0.2949 -1.4441
 5208TIP3   OH215629   6.150   5.597   5.052 -0.8309  0.7078  0.2587
 5208TIP3    H115630   6.224   5.654   5.076 -0.6687  0.7850 -0.4106
 5208TIP3    H215631   6.153   5.526   5.117 -0.0681  0.6249  0.1505
 5209TIP3   OH215632   0.186   0.540   2.626 -0.5559 -0.1273 -0.2684
 5209TIP3    H115633   0.268   0.557   2.671  0.9091  0.1440 -2.8371
 5209TIP3    H215634   0.145   0.626   2.618 -0.7753 -0.1637  0.4175
 5210TIP3   OH215635   5.116   3.522   4.821 -0.3750 -0.3329  0.7059
 5210TIP3    H115636   5.197   3.540   4.773  0.1781 -3.7752  0.1206
 5210TIP3    H215637   5.059   3.595   4.799  0.7460 -0.3963 -3.1360
 5211TIP3   OH215638   0.175   2.686   1.644 -0.5861 -0.2568  0.2914
 5211TIP3    H115639   0.249   2.642   1.685 -0.8381 -0.9548  0.0103
 5211TIP3    H215640   0.207   2.710   1.557 -1.0995 -1.7955 -0.3589
 5212TIP3   OH215641   3.078   3.212   4.852  0.0854  0.6634 -0.6082
 5212TIP3    H115642   3.164   3.212   4.810 -0.0897  0.8151 -0.9701
 5212TIP3    H215643   3.036   3.132   4.822  0.8223 -0.4205  1.0895
 5213TIP3   OH215644   1.872   0.707   2.581  0.4521 -0.3720  0.0376
 5213TIP3    H115645   1.893   0.704   2.487  1.0702 -2.2361  0.2006
 5213TIP3    H215646   1.892   0.797   2.607 -0.1533  0.3115 -1.6995
 5214TIP3   OH215647   5.580   1.992   4.645 -0.1234  0.0982  0.1749
 5214TIP3    H115648   5.514   1.923   4.648 -1.2527  1.1874  0.8980
 5214TIP3    H215649   5.628   1.983   4.727 -0.6551  0.5244  0.5399
 5215TIP3   OH215650   0.414   0.286   4.356 -0.3156  0.7074 -0.3551
 5215TIP3    H115651   0.461   0.231   4.418 -0.3757  0.8641 -0.1701
 5215TIP3    H215652   0.465   0.367   4.352 -0.3541  0.7271 -0.4499
 5216TIP3   OH215653   4.432   0.746   1.989 -0.1442 -0.9034 -0.2273
 5216TIP3    H115654   4.493   0.721   1.920 -1.7660 -2.2685 -1.2390
 5216TIP3    H215655   4.461   0.834   2.016  0.8621 -0.5624 -2.2459
 5217TIP3   OH215656   0.493   5.030   2.490  0.7506  0.2152 -0.5771
 5217TIP3    H115657   0.481   4.978   2.411 -1.3104  1.7375 -1.3605
 5217TIP3    H215658   0.407   5.070   2.506  1.5586  1.3004  1.4532
 5218TIP3   OH215659   4.895   5.596   4.262 -0.5023  0.5558 -0.4847
 5218TIP3    H115660   4.922   5.673   4.212  0.0334  0.1107 -0.8884
 5218TIP3    H215661   4.961   5.530   4.242 -1.2247 -0.1634 -0.5149
 5219TIP3   OH215662   2.853   0.777   0.930  0.4109 -0.2862  0.4183
 5219TIP3    H115663   2.948   0.788   0.923  0.6947 -1.8770  1.0934
 5219TIP3    H215664   2.823   0.854   0.978  1.3251  0.3603 -0.0294
 5220TIP3   OH215665   6.183   3.370   3.836 -0.1676 -0.2690  0.2012
 5220TIP3    H115666   6.136   3.453   3.837 -1.3414 -0.5208 -4.8107
 5220TIP3    H215667   6.276   3.394   3.835 -0.3100  0.6335  2.8015
 5221TIP3   OH215668   2.731   5.226   4.745  0.7676  0.3142  0.4599
 5221TIP3    H115669   2.682   5.261   4.820  0.8285  1.1738  0.1169
 5221TIP3    H215670   2.805   5.180   4.784 -0.6498 -1.6004  1.0113
 5222TIP3   OH215671   3.755   5.074   0.886  0.3528  0.1196  0.1217
 5222TIP3    H115672   3.708   5.136   0.943  0.2769 -0.3447  0.5755
 5222TIP3    H215673   3.760   5.118   0.801 -0.6373  0.3080  0.1504
 5223TIP3   OH215674   0.054   4.729   2.823 -0.8804  0.1591  0.5261
 5223TIP3    H115675   0.046   4.824   2.813 -0.4461  0.1180 -0.2164
 5223TIP3    H215676   0.040   4.714   2.917 -3.2894  0.7117  0.3079
 5224TIP3   OH215677   6.176   0.716   4.305 -0.3643 -0.3880  0.8121
 5224TIP3    H115678   6.112   0.646   4.303 -1.4076  0.5345  0.6667
 5224TIP3    H215679   6.132   0.790   4.262  1.6666 -0.4312 -1.5306
 5225TIP3   OH215680   1.264   3.217   4.465 -0.1884 -0.1477 -0.5539
 5225TIP3    H115681   1.181   3.224   4.417  0.1608  0.5171 -1.0615
 5225TIP3    H215682   1.285   3.306   4.491 -0.3044 -0.4738  0.7479
 5226TIP3   OH215683   1.156   5.167   3.074  0.3448  0.0179  0.4543
 5226TIP3    H115684   1.146   5.181   2.980 -0.9896  0.4983  0.6603
 5226TIP3    H215685   1.200   5.082   3.081  2.8792  1.1165 -0.6461
 5227TIP3   OH215686   0.250   4.341   0.695  0.1260 -0.0094  0.0122
 5227TIP3    H115687   0.341   4.348   0.726  0.6043 -1.9427 -0.8021
 5227TIP3    H215688   0.222   4.254   0.725 -1.5753  0.6556  0.4685
 5228TIP3   OH215689   3.503   5.433   2.263 -1.2108  0.0605  0.2156
 5228TIP3    H115690   3.538   5.516   2.299 -2.3956  1.3077 -1.3868
 5228TIP3    H215691   3.441   5.403   2.329  1.2043 -1.1051  2.1363
 5229TIP3   OH215692   3.670   1.888   3.591  0.5043  0.1460  0.1414
 5229TIP3    H115693   3.668   1.967   3.645 -1.4902  1.0985 -1.1919
 5229TIP3    H215694   3.677   1.921   3.501 -0.8572 -1.1533 -0.4780
 5230TIP3   OH215695   3.326   5.399   2.509  0.1713 -0.1540  0.6988
 5230TIP3    H115696   3.358   5.471   2.562  1.4947 -2.0139  2.5876
 5230TIP3    H215697   3.246   5.370   2.553  1.6053 -2.1002  2.1979
 5231TIP3   OH215698   0.263   5.457   4.641 -0.0202  0.1901  0.4529
 5231TIP3    H115699   0.225   5.441   4.727  0.5244  1.0605  0.8655
 5231TIP3    H215700   0.358   5.455   4.657  0.2044 -2.5732 -0.6528
 5232TIP3   OH215701   3.620   2.316   3.655  0.2157  0.1715 -0.0672
 5232TIP3    H115702   3.709   2.345   3.635  0.6153 -0.4910  0.7261
 5232TIP3    H215703   3.583   2.387   3.707 -0.5162  1.4863 -2.2194
 5233TIP3   OH215704   0.688   5.219   4.835  0.3110 -0.5252 -0.2854
 5233TIP3    H115705   0.713   5.143   4.889  1.1466 -0.8065 -1.0316
 5233TIP3    H215706   0.612   5.256   4.879  0.7831 -0.9263  0.9154
 5234TIP3   OH215707   4.772   0.871   0.372  0.2721 -0.3523 -0.6659
 5234TIP3    H115708   4.790   0.862   0.278  3.1162  1.5076 -0.4122
 5234TIP3    H215709   4.683   0.907   0.376  0.4748  0.5196 -2.7111
 5235TIP3   OH215710   1.558   2.453   3.252 -0.2452  0.3194 -0.2591
 5235TIP3    H115711   1.529   2.386   3.190 -0.0214  1.0940 -1.2173
 5235TIP3    H215712   1.644   2.423   3.281 -1.0453 -0.9066  0.9963
 5236TIP3   OH215713   3.083   4.400   3.433  0.4197  0.0967 -0.2264
 5236TIP3    H115714   3.025   4.325   3.417  0.6291 -0.6019  1.9552
 5236TIP3    H215715   3.060   4.430   3.521 -0.3328  3.2881 -1.3931
 5237TIP3   OH215716   2.756   1.132   1.281  0.0590  0.4339 -0.0529
 5237TIP3    H115717   2.732   1.206   1.337  3.9372  0.8839  1.3347
 5237TIP3    H215718   2.790   1.067   1.342  0.7868 -0.6923 -1.6061
 5238TIP3   OH215719   0.520   1.892   0.067  0.2199 -0.7076  0.3588
 5238TIP3    H115720   0.591   1.947   0.101  0.4927 -1.0633  0.3637
 5238TIP3    H215721   0.559   1.843  -0.005 -0.2267 -0.3370 -0.1437
 5239TIP3   OH215722   2.394   5.912   2.175 -0.3212  0.2155  0.5408
 5239TIP3    H115723   2.384   5.866   2.092  1.6300 -0.1984  0.5022
 5239TIP3    H215724   2.320   5.880   2.228  1.0480 -3.2631  0.6223
 5240TIP3   OH215725   6.213   1.339   4.664  0.4216  0.0158  0.1065
 5240TIP3    H115726   6.226   1.244   4.671  4.0537  0.4590  1.2637
 5240TIP3    H215727   6.254   1.362   4.581 -0.1642  0.6290 -0.0162
 5241TIP3   OH215728   0.884   4.433   2.629 -0.0569  0.0305  0.1003
 5241TIP3    H115729   0.848   4.470   2.548  0.8681  0.7062 -0.0255
 5241TIP3    H215730   0.828   4.359   2.649  0.7306 -1.2678 -2.1491
 5242TIP3   OH215731   2.108   1.001   0.405  0.0752  0.0230 -0.1376
 5242TIP3    H115732   2.063   0.920   0.429  0.2402  0.5357  2.1072
 5242TIP3    H215733   2.119   0.994   0.310 -0.3661 -2.3290 -0.0943
 5243TIP3   OH215734   0.328   3.489   2.268 -0.3488  0.2371  0.3932
 5243TIP3    H115735   0.407   3.523   2.227 -1.1386  1.2191 -0.3653
 5243TIP3    H215736   0.321   3.537   2.351  1.1632 -1.6372  1.6999
 5244TIP3   OH215737   3.236   3.886   3.136  0.1916  0.0717 -0.0785
 5244TIP3    H115738   3.307   3.873   3.198 -1.5714 -0.5989  1.9067
 5244TIP3    H215739   3.159   3.902   3.190 -1.1745  0.9897 -2.1407
 5245TIP3   OH215740   5.968   2.230   2.327 -0.1943  0.3931  0.2483
 5245TIP3    H115741   6.047   2.240   2.273 -0.6570  0.1081 -0.4932
 5245TIP3    H215742   5.972   2.139   2.357 -1.0245 -0.1057 -1.0714
 5246TIP3   OH215743   1.579   2.192   4.145  0.8025 -0.7717 -0.4816
 5246TIP3    H115744   1.603   2.284   4.153 -0.3640 -0.6030  1.8286
 5246TIP3    H215745   1.656   2.151   4.105  2.1097  0.8830  0.1984
 5247TIP3   OH215746   1.454   2.668   1.628 -0.1018  0.1381  0.1415
 5247TIP3    H115747   1.454   2.580   1.667  0.2413 -0.7398 -1.7362
 5247TIP3    H215748   1.525   2.665   1.564  0.1648  1.9322  0.3151
 5248TIP3   OH215749   6.305   3.390   1.162  0.0664  0.2303  0.0548
 5248TIP3    H115750   6.330   3.385   1.254  0.8770 -0.7064 -0.1929
 5248TIP3    H215751   6.375   3.343   1.116 -1.3036 -1.0033 -0.8553
 5249TIP3   OH215752   2.029   0.528   1.836  0.4057  0.1214  0.0299
 5249TIP3    H115753   1.952   0.500   1.786  1.1312 -1.0087 -0.5126
 5249TIP3    H215754   2.092   0.555   1.769  0.4153  1.2305  0.4754
 5250TIP3   OH215755   0.442   1.928   5.093  0.5110  0.1517  0.5047
 5250TIP3    H115756   0.357   1.901   5.058  0.1753  0.5170  1.0294
 5250TIP3    H215757   0.505   1.900   5.026  0.0745 -0.9780  0.5516
 5251TIP3   OH215758   4.635   5.061   2.713 -0.1565 -1.1644 -0.0036
 5251TIP3    H115759   4.619   4.968   2.728 -3.0174 -0.5942  1.0560
 5251TIP3    H215760   4.574   5.105   2.772  1.3710  1.4116 -0.2147
 5252TIP3   OH215761   4.154   5.109   3.688 -0.1344  0.0576  0.4878
 5252TIP3    H115762   4.242   5.115   3.724 -0.9527 -1.1665  2.9785
 5252TIP3    H215763   4.099   5.157   3.750 -1.2756  0.5963 -0.8759
 5253TIP3   OH215764   2.170   2.944   5.163 -0.1928 -0.0480  0.0437
 5253TIP3    H115765   2.265   2.960   5.162 -0.5522  2.4985 -0.4167
 5253TIP3    H215766   2.155   2.885   5.090  0.9520  0.2207 -0.4349
 5254TIP3   OH215767   5.975   3.232   4.918 -0.0593 -0.0148 -0.0520
 5254TIP3    H115768   5.917   3.308   4.911  0.4551  0.2980 -1.0048
 5254TIP3    H215769   6.035   3.240   4.844  0.3679 -1.0443  0.1654
 5255TIP3   OH215770   1.835   2.981   1.742 -0.1461 -0.6978 -0.5360
 5255TIP3    H115771   1.856   2.888   1.735 -1.2520 -0.8452 -2.2172
 5255TIP3    H215772   1.915   3.026   1.712  0.1278 -1.1057 -0.4220
 5256TIP3   OH215773   5.403   3.607   0.119 -0.1251  0.2305 -0.1535
 5256TIP3    H115774   5.446   3.646   0.042 -0.1939 -1.0260 -0.8612
 5256TIP3    H215775   5.315   3.585   0.088  0.6266 -2.6019 -0.5477
 5257TIP3   OH215776   3.832   1.803   1.994  0.2648  0.0707 -0.0502
 5257TIP3    H115777   3.744   1.832   1.968 -0.2910 -0.6559  0.9333
 5257TIP3    H215778   3.849   1.851   2.076  0.8477  0.3062 -0.3063
 5258TIP3   OH215779   5.833   2.641   1.410  0.1572 -0.3354 -0.2764
 5258TIP3    H115780   5.876   2.716   1.369  0.1211  0.2107  0.6654
 5258TIP3    H215781   5.879   2.565   1.374 -0.6026  0.0490 -2.1669
 5259TIP3   OH215782   3.615   4.954   0.564  0.3701 -0.7845 -0.2191
 5259TIP3    H115783   3.610   4.908   0.648 -2.3890  0.9564  0.7264
 5259TIP3    H215784   3.526   4.947   0.528  0.8501  0.6167 -1.7994
 5260TIP3   OH215785   1.437   0.469   0.355 -0.0049 -0.1971 -0.1508
 5260TIP3    H115786   1.382   0.394   0.330  1.1706 -0.9255 -0.6396
 5260TIP3    H215787   1.385   0.546   0.331 -1.6380 -0.8185  1.2390
 5261TIP3   OH215788   1.392   4.449   3.075 -0.4990 -0.7396 -0.5502
 5261TIP3    H115789   1.355   4.434   2.988 -0.6336 -0.0217 -0.6150
 5261TIP3    H215790   1.334   4.401   3.134 -0.3053 -1.3776 -0.8670
 5262TIP3   OH215791   1.260   0.100   3.855  0.3551  0.1762  0.2398
 5262TIP3    H115792   1.309   0.165   3.807  1.4696 -1.5860 -1.1309
 5262TIP3    H215793   1.310   0.087   3.936  0.0323  1.0804  0.6041
 5263TIP3   OH215794   5.920   0.513   4.692  0.3686  0.6250 -0.2615
 5263TIP3    H115795   5.937   0.498   4.785 -3.6598  0.6167  0.6577
 5263TIP3    H215796   5.891   0.604   4.688  1.9660  1.1074 -1.8282
 5264TIP3   OH215797   5.024   0.321   0.643  0.2161 -0.2966  0.7560
 5264TIP3    H115798   5.004   0.407   0.607  4.1459  0.6802  0.4242
 5264TIP3    H215799   5.045   0.267   0.566 -2.5685 -1.8349  0.9190
 5265TIP3   OH215800   0.046   1.533   0.082  0.0010  0.4365 -0.2969
 5265TIP3    H115801   0.085   1.448   0.061 -1.0709  0.3141 -1.9114
 5265TIP3    H215802   0.004   1.561   0.001 -0.5505  2.0411  0.5056
 5266TIP3   OH215803   2.979   0.910   4.817  0.3618  0.5815  0.2677
 5266TIP3    H115804   3.044   0.980   4.812  0.9250 -0.0242 -2.0419
 5266TIP3    H215805   3.010   0.844   4.756 -1.4630 -0.5804  0.5231
 5267TIP3   OH215806   3.374   5.688   3.581 -0.3903 -0.1259  0.3018
 5267TIP3    H115807   3.309   5.756   3.563  0.5899  0.5466 -0.9102
 5267TIP3    H215808   3.374   5.634   3.502 -1.5194 -1.8930  1.4477
 5268TIP3   OH215809   5.676   3.019   4.758  0.0914  0.0380  0.3074
 5268TIP3    H115810   5.611   3.045   4.822 -1.7322 -0.0460 -1.4071
 5268TIP3    H215811   5.660   3.076   4.682  1.6206 -0.4061 -0.4030
 5269TIP3   OH215812   5.991   3.128   0.322 -0.2604  0.2429  0.1483
 5269TIP3    H115813   5.977   3.034   0.320  1.1454 -0.0407  1.6363
 5269TIP3    H215814   5.903   3.165   0.324 -0.8301 -1.0316 -0.4045
 5270TIP3   OH215815   1.443   5.893   0.497 -0.8990  0.5073 -0.3125
 5270TIP3    H115816   1.371   5.945   0.534 -1.3898  0.2217 -0.8445
 5270TIP3    H215817   1.401   5.840   0.429 -0.1214  0.5809 -0.8555
 5271TIP3   OH215818   6.182   1.602   1.909  0.0889  0.3765 -0.2122
 5271TIP3    H115819   6.086   1.603   1.909  0.0803 -0.0838 -1.0625
 5271TIP3    H215820   6.205   1.509   1.918  0.4733  0.5533  0.8660
 5272TIP3   OH215821   4.501   0.417   4.128 -0.2223 -0.0429  0.1231
 5272TIP3    H115822   4.464   0.443   4.213  1.7173  1.2657  0.6410
 5272TIP3    H215823   4.468   0.328   4.114 -0.3825 -0.4051  2.3807
 5273TIP3   OH215824   4.772   0.827   4.480 -0.4670  0.2307  0.2958
 5273TIP3    H115825   4.761   0.902   4.422  2.4532  2.9631  2.9058
 5273TIP3    H215826   4.859   0.792   4.458 -0.5277 -0.4725  1.1214
 5274TIP3   OH215827   0.128   0.707   3.827  0.0950  0.1990 -0.2759
 5274TIP3    H115828   0.189   0.764   3.779  0.1645  0.2170 -0.1682
 5274TIP3    H215829   0.093   0.763   3.897 -0.8873  0.5164 -0.9982
 5275TIP3   OH215830   4.676   0.366   4.804  0.0051 -0.6002  0.7825
 5275TIP3    H115831   4.600   0.368   4.862 -1.0479 -2.8796 -0.3884
 5275TIP3    H215832   4.664   0.442   4.747 -0.9815 -0.4759  1.1288
 5276TIP3   OH215833   0.931   0.407   3.784  0.3788 -0.2140  0.2032
 5276TIP3    H115834   0.968   0.495   3.795 -1.4085  0.7029 -0.6739
 5276TIP3    H215835   0.902   0.382   3.871 -0.0208  0.5257  0.2915
 5277TIP3   OH215836   4.515   4.429   4.429  0.1436 -0.1486  0.2542
 5277TIP3    H115837   4.600   4.400   4.462  0.9372  1.3712 -0.3785
 5277TIP3    H215838   4.451   4.377   4.478  1.4126 -0.8215  1.2370
 5278TIP3   OH215839   1.775   5.331   3.263 -0.1167 -0.0941  0.3911
 5278TIP3    H115840   1.856   5.375   3.237 -1.7804  2.8581 -0.2671
 5278TIP3    H215841   1.778   5.328   3.359  0.2118  1.2245  0.4375
 5279TIP3   OH215842   4.471   2.767   2.808  0.3789  0.6491  0.1656
 5279TIP3    H115843   4.530   2.692   2.808  1.4605  1.4749  0.1121
 5279TIP3    H215844   4.388   2.733   2.773  0.8022 -0.5371  0.2797
 5280TIP3   OH215845   4.172   4.490   4.046 -0.2753 -0.2300 -0.2384
 5280TIP3    H115846   4.150   4.564   4.103 -1.7914 -0.5623 -0.3394
 5280TIP3    H215847   4.219   4.429   4.103 -3.0695 -1.2447  1.1528
 5281TIP3   OH215848   4.808   2.658   2.041  0.3803 -0.0931  0.5164
 5281TIP3    H115849   4.824   2.566   2.057  1.1357  0.0631  0.6752
 5281TIP3    H215850   4.829   2.670   1.948 -0.2677 -0.1949  0.3523
 5282TIP3   OH215851   3.193   3.964   2.567 -0.1199  0.5994 -0.1803
 5282TIP3    H115852   3.107   3.960   2.524 -0.6692  1.9923  0.6949
 5282TIP3    H215853   3.240   4.033   2.520 -0.3187  1.3631  0.6921
 5283TIP3   OH215854   1.174   5.739   1.980  0.4673  0.5083 -0.0157
 5283TIP3    H115855   1.193   5.809   1.917  1.4046  2.1824  1.9791
 5283TIP3    H215856   1.248   5.679   1.972 -0.1956 -0.1642 -1.5377
 5284TIP3   OH215857   1.968   0.968   0.695 -0.2122 -0.3410 -0.2802
 5284TIP3    H115858   1.906   1.001   0.760  0.3891 -4.1300  2.5599
 5284TIP3    H215859   2.050   1.013   0.714 -1.1293  2.2226 -1.8704
 5285TIP3   OH215860   0.178   3.581   1.007 -0.3321  0.5276  0.5967
 5285TIP3    H115861   0.115   3.576   0.936 -0.6489 -2.3478  0.9782
 5285TIP3    H215862   0.211   3.492   1.018  0.7032  1.1076  3.1693
 5286TIP3   OH215863   1.138   1.271   1.173  0.1297 -0.1937  0.5567
 5286TIP3    H115864   1.121   1.342   1.112 -2.3217 -0.9426  0.2725
 5286TIP3    H215865   1.194   1.210   1.125 -1.9379 -0.8858 -1.1244
 5287TIP3   OH215866   2.565   2.591   4.822  0.3810  0.3388 -0.0899
 5287TIP3    H115867   2.534   2.501   4.817 -0.0153  0.2288  2.8005
 5287TIP3    H215868   2.490   2.644   4.796  0.2948 -0.1010 -0.7702
 5288TIP3   OH215869   3.196   2.541   0.406 -0.1380 -0.1319 -0.3555
 5288TIP3    H115870   3.204   2.617   0.464 -0.5533 -1.8407  2.1163
 5288TIP3    H215871   3.277   2.542   0.355  0.2502  1.4937  0.1983
 5289TIP3   OH215872   3.429   3.352   2.382  0.3607 -0.2450  0.1813
 5289TIP3    H115873   3.479   3.413   2.328  1.4326 -2.2084 -1.1952
 5289TIP3    H215874   3.449   3.378   2.472  2.9267 -0.1402 -0.3176
 5290TIP3   OH215875   2.713   3.910   0.526 -0.4520  0.1987 -0.3130
 5290TIP3    H115876   2.687   3.996   0.558 -0.4716 -0.0478  0.3302
 5290TIP3    H215877   2.776   3.878   0.590 -1.0130 -0.5935 -0.1514
 5291TIP3   OH215878   5.314   4.125   3.308  0.0216  0.3053 -0.5472
 5291TIP3    H115879   5.301   4.151   3.399 -1.0279 -0.8181 -0.3614
 5291TIP3    H215880   5.283   4.200   3.257 -0.4808  0.4780  0.0066
 5292TIP3   OH215881   5.112   5.940   0.805 -0.3143 -0.1217  0.2033
 5292TIP3    H115882   5.153   5.920   0.889 -0.8769  1.0651  0.7810
 5292TIP3    H215883   5.061   6.020   0.821  1.0788  1.2379 -1.7316
 5293TIP3   OH215884   2.941   1.304   1.465 -0.1435  0.1455 -0.0458
 5293TIP3    H115885   2.846   1.308   1.472 -0.2223 -0.6976 -0.5801
 5293TIP3    H215886   2.968   1.396   1.457 -0.9583  0.3565 -0.4972
 5294TIP3   OH215887   0.727   5.664   3.407 -0.0811 -0.0258 -0.3862
 5294TIP3    H115888   0.715   5.665   3.312  1.1338 -0.6246 -0.5631
 5294TIP3    H215889   0.696   5.750   3.436 -0.6126  0.0999 -1.3048
 5295TIP3   OH215890   2.842   5.451   0.119  0.6045  0.1635 -0.4808
 5295TIP3    H115891   2.761   5.430   0.167 -0.8603  0.3574 -2.7389
 5295TIP3    H215892   2.897   5.495   0.184 -0.9180 -0.3188  1.2374
 5296TIP3   OH215893   5.668   5.137   3.973 -0.0355  0.0411 -0.1460
 5296TIP3    H115894   5.577   5.120   3.949 -0.4574  1.8163  0.1184
 5296TIP3    H215895   5.696   5.057   4.019 -0.3353 -1.9874 -3.1621
 5297TIP3   OH215896   4.458   0.397   4.967  0.6244  0.7415 -0.1785
 5297TIP3    H115897   4.395   0.468   4.959 -1.1386 -0.9508 -2.8971
 5297TIP3    H215898   4.471   0.386   5.062 -3.2301  1.1488  0.5366
 5298TIP3   OH215899   0.367   3.165   4.578  0.4515 -0.1954  0.2364
 5298TIP3    H115900   0.284   3.207   4.600  1.2559  1.1440  0.8614
 5298TIP3    H215901   0.364   3.082   4.625 -0.6754 -0.3259 -0.0355
 5299TIP3   OH215902   0.498   4.488   2.580 -0.6128  0.0382 -0.1633
 5299TIP3    H115903   0.410   4.516   2.556  0.0755  1.6083 -1.0162
 5299TIP3    H215904   0.513   4.526   2.666 -0.6718  0.0074 -0.1394
 5300TIP3   OH215905   5.983   5.247   0.220 -0.3311  0.3488  0.7293
 5300TIP3    H115906   5.911   5.288   0.267 -1.4969  1.2496 -1.6439
 5300TIP3    H215907   6.060   5.299   0.243 -0.6228  0.0829  2.4154
 5301TIP3   OH215908   3.584   2.618   4.510 -0.1130  0.2089  0.4330
 5301TIP3    H115909   3.634   2.688   4.550 -0.4173  1.3436 -1.0719
 5301TIP3    H215910   3.612   2.618   4.418 -0.9409 -0.8843  0.1552
 5302TIP3   OH215911   0.145   1.310   1.649  0.4094 -0.3042  0.1319
 5302TIP3    H115912   0.230   1.353   1.653  0.0455  0.5562 -0.9112
 5302TIP3    H215913   0.162   1.228   1.601  0.8693 -0.7329  1.0157
 5303TIP3   OH215914   0.212   5.299   1.334  0.5644  0.5020  0.6380
 5303TIP3    H115915   0.192   5.344   1.416 -0.5068 -0.0612  0.6977
 5303TIP3    H215916   0.256   5.218   1.362 -2.6739 -1.3294  0.9461
 5304TIP3   OH215917   3.925   2.485   2.655 -0.5820 -0.3760 -0.4780
 5304TIP3    H115918   3.998   2.455   2.601 -1.2213 -0.4938 -1.3064
 5304TIP3    H215919   3.869   2.533   2.595 -1.2413 -0.3834  0.1142
 5305TIP3   OH215920   1.888   3.998   3.494  0.2977  0.6374 -0.2387
 5305TIP3    H115921   1.850   4.074   3.538 -1.8616  0.7609 -2.1060
 5305TIP3    H215922   1.868   3.925   3.551  2.1297  1.3489  1.4295
 5306TIP3   OH215923   6.092   1.929   2.859  0.2278  0.1592  0.0540
 5306TIP3    H115924   6.184   1.934   2.885  0.0042 -0.3560  0.9596
 5306TIP3    H215925   6.082   1.842   2.821  0.0648  0.1298  0.1631
 5307TIP3   OH215926   1.442   2.931   3.322 -0.0581  0.1976  0.0855
 5307TIP3    H115927   1.457   3.026   3.327 -1.2546  0.4306 -0.4812
 5307TIP3    H215928   1.348   2.921   3.338 -0.2996 -0.7202 -1.6740
 5308TIP3   OH215929   2.028   4.481   4.062  0.1021 -0.2680 -0.1034
 5308TIP3    H115930   1.951   4.536   4.049  0.3172 -0.1598 -1.0215
 5308TIP3    H215931   2.068   4.515   4.142 -0.2498  0.3437 -0.1785
 5309TIP3   OH215932   4.109   4.198   2.837 -0.2577  0.1540  0.0670
 5309TIP3    H115933   4.045   4.164   2.899  0.8493 -1.6265  0.3276
 5309TIP3    H215934   4.103   4.139   2.761  0.6994  0.2578 -0.1073
 5310TIP3   OH215935   6.310   1.564   4.826  0.0204 -0.0835  0.2543
 5310TIP3    H115936   6.331   1.625   4.755  0.6546 -1.3741 -0.7115
 5310TIP3    H215937   6.274   1.487   4.782 -0.8966 -0.3767  1.4541
 5311TIP3   OH215938   1.337   4.095   2.884 -0.2830 -0.0024 -0.1337
 5311TIP3    H115939   1.350   4.038   2.808  1.0678 -2.0117  1.4882
 5311TIP3    H215940   1.245   4.121   2.879 -0.3024 -0.2829 -2.2775
 5312TIP3   OH215941   5.885   3.085   0.878  0.6203 -0.6445  0.2612
 5312TIP3    H115942   5.821   3.036   0.930  0.3371  0.0736  0.6073
 5312TIP3    H215943   5.856   3.176   0.885  0.6928 -0.5030 -0.9882
 5313TIP3   OH215944   0.440   4.386   1.401 -0.0914  0.1978  0.2138
 5313TIP3    H115945   0.411   4.329   1.472 -0.6990  0.6682  0.3508
 5313TIP3    H215946   0.530   4.358   1.382  0.1806  0.2528  1.3555
 5314TIP3   OH215947   3.023   5.050   0.142 -0.0983  0.4267 -0.6713
 5314TIP3    H115948   3.040   5.128   0.194 -1.5211  0.6508 -0.5070
 5314TIP3    H215949   2.940   5.067   0.098  0.9494  0.1503 -2.8814
 5315TIP3   OH215950   4.418   1.913   3.794  0.2485  0.9508 -0.2394
 5315TIP3    H115951   4.499   1.895   3.842 -0.9726  0.0429  1.6012
 5315TIP3    H215952   4.399   2.005   3.812  1.0754  1.2931 -1.0479
 5316TIP3   OH215953   0.395   1.163   3.715  0.6337 -0.6326 -0.5493
 5316TIP3    H115954   0.385   1.241   3.660  1.5405 -0.0373  0.0873
 5316TIP3    H215955   0.442   1.195   3.793  0.2697 -1.6487  0.1083
 5317TIP3   OH215956   1.026   5.957   0.966 -0.8439 -0.3604 -0.9282
 5317TIP3    H115957   1.036   5.941   0.872 -0.7725 -0.8018 -0.8498
 5317TIP3    H215958   1.018   5.869   1.004  0.3580 -0.2478 -0.3835
 5318TIP3   OH215959   2.807   5.471   2.467  0.2920  0.7518  0.0089
 5318TIP3    H115960   2.796   5.565   2.452 -0.5855  0.7447  0.5402
 5318TIP3    H215961   2.745   5.429   2.406 -0.9119  0.6145  1.2747
 5319TIP3   OH215962   1.711   5.136   1.864 -0.2128  0.1606 -0.2490
 5319TIP3    H115963   1.644   5.076   1.832  0.6516 -0.7079 -0.4754
 5319TIP3    H215964   1.736   5.101   1.950  1.1381 -0.5396 -0.8823
 5320TIP3   OH215965   2.574   3.392   0.218 -0.2987 -0.0774 -0.3040
 5320TIP3    H115966   2.508   3.454   0.250 -0.9033  1.1076 -3.4461
 5320TIP3    H215967   2.658   3.429   0.248 -0.8442  0.3366  0.7659
 5321TIP3   OH215968   4.085   1.094   1.400 -0.5378  0.4788 -0.0368
 5321TIP3    H115969   4.100   1.079   1.493  2.3351  0.2082 -0.4666
 5321TIP3    H215970   4.042   1.013   1.370 -0.6910  0.2060  0.8750
 5322TIP3   OH215971   2.157   3.751   4.847  0.0336 -0.2586  0.1795
 5322TIP3    H115972   2.084   3.735   4.787  0.7078  0.1013 -0.7581
 5322TIP3    H215973   2.200   3.829   4.812  0.2080  0.1914  1.3676
 5323TIP3   OH215974   0.871   5.036   0.770 -0.3061 -0.4396 -0.2432
 5323TIP3    H115975   0.780   5.062   0.754  0.4584  1.9154 -1.2518
 5323TIP3    H215976   0.895   4.985   0.692 -0.8660 -1.5157  0.2597
 5324TIP3   OH215977   4.201  -0.021   5.099 -0.0078  0.3182 -0.4176
 5324TIP3    H115978   4.216   0.056   5.045 -0.5432  0.4666 -0.3629
 5324TIP3    H215979   4.261  -0.012   5.172  0.6014  0.2039 -0.9001
 5325TIP3   OH215980   0.926   3.263   2.302  0.4965  0.0729  0.1996
 5325TIP3    H115981   0.916   3.196   2.369 -0.0426 -1.7506 -1.6240
 5325TIP3    H215982   0.843   3.311   2.303  1.3881  1.7857  2.4781
 5326TIP3   OH215983   0.063   2.278   3.353 -0.2679 -0.0864  0.0222
 5326TIP3    H115984   0.016   2.321   3.424  0.0832 -2.1315  1.5821
 5326TIP3    H215985   0.155   2.286   3.377 -0.0669  0.3073 -0.8679
 5327TIP3   OH215986   3.687   1.145   0.389 -0.2261 -0.5669 -0.4765
 5327TIP3    H115987   3.642   1.064   0.368 -0.5471 -0.5842  0.2554
 5327TIP3    H215988   3.619   1.212   0.391 -0.3343 -0.6676  1.0647
 5328TIP3   OH215989   4.731   2.822   1.003 -0.0166  0.0610 -0.0892
 5328TIP3    H115990   4.803   2.792   0.947  0.4210 -0.5342  0.7686
 5328TIP3    H215991   4.701   2.743   1.047 -0.6960  0.4380  0.1368
 5329TIP3   OH215992   5.819   3.826   0.148  0.2870  0.0687 -0.7308
 5329TIP3    H115993   5.757   3.864   0.086 -1.0032 -1.8276 -0.6621
 5329TIP3    H215994   5.774   3.751   0.186  0.9694  1.1521  2.6144
 5330TIP3   OH215995   2.095   5.727   0.085  0.6376 -0.3164 -0.3711
 5330TIP3    H115996   2.125   5.734  -0.006  1.0155 -0.3997 -0.2556
 5330TIP3    H215997   2.165   5.766   0.136  1.0254 -1.4372 -0.0155
 5331TIP3   OH215998   6.320   0.139   5.048  0.2863 -0.0711 -0.5166
 5331TIP3    H115999   6.247   0.166   5.103 -0.1959  0.9396 -1.5942
 5331TIP3    H216000   6.395   0.186   5.083  0.6020 -1.6130  1.0040
 5332TIP3   OH216001   2.481   2.357   0.652 -0.0516  0.5386  0.0486
 5332TIP3    H116002   2.455   2.360   0.560 -0.1333  2.6839  0.1076
 5332TIP3    H216003   2.407   2.392   0.700  1.2855  2.8669  0.5731
 5333TIP3   OH216004   1.379   4.817   3.642 -0.0389 -0.0290  0.1619
 5333TIP3    H116005   1.323   4.790   3.568 -0.1200 -0.3858  0.3489
 5333TIP3    H216006   1.323   4.805   3.719  0.0863  0.2261  0.2929
 5334TIP3   OH216007   5.305   0.361   0.671 -0.1209 -0.6295  0.0942
 5334TIP3    H116008   5.213   0.376   0.648 -0.4754 -1.9022  0.6339
 5334TIP3    H216009   5.354   0.401   0.599 -1.1269 -1.0055 -0.8276
 5335TIP3   OH216010   1.444   1.214   0.235  0.1211  0.1878 -0.0412
 5335TIP3    H116011   1.387   1.138   0.246  0.2728 -0.7159 -4.1280
 5335TIP3    H216012   1.525   1.190   0.281 -0.6741 -1.0003  0.8264
 5336TIP3   OH216013   2.440   1.440   0.547  0.1636 -0.2797  0.6466
 5336TIP3    H116014   2.407   1.507   0.608 -1.2084 -1.9886  1.8978
 5336TIP3    H216015   2.362   1.392   0.520  1.0866 -1.2661 -0.3593
 5337TIP3   OH216016   4.338   1.563   2.808  0.1477 -0.4958 -0.5229
 5337TIP3    H116017   4.407   1.531   2.750 -0.6341 -1.9044 -0.7138
 5337TIP3    H216018   4.310   1.486   2.857  0.0938  0.4692  1.0100
 5338TIP3   OH216019   1.462   4.952   4.020 -0.7609 -0.1540  0.5665
 5338TIP3    H116020   1.452   4.934   3.927 -1.1961 -0.9637  0.7667
 5338TIP3    H216021   1.555   4.973   4.030 -1.2112  2.9281 -0.5344
 5339TIP3   OH216022   2.983   2.977   0.021  0.2993  0.1219 -0.2965
 5339TIP3    H116023   2.991   3.042  -0.049 -0.5793  1.2202  0.5882
 5339TIP3    H216024   3.074   2.958   0.046  0.5636  1.5181 -0.1225
 5340TIP3   OH216025   3.800   0.909   2.597 -0.5894  0.6296  0.6960
 5340TIP3    H116026   3.886   0.946   2.618  0.2602  2.3369 -4.4347
 5340TIP3    H216027   3.760   0.973   2.538 -3.2535 -2.4059 -1.0926
 5341TIP3   OH216028   4.394   5.734   2.384  0.9789 -0.0905  0.7533
 5341TIP3    H116029   4.332   5.661   2.383 -1.2173  1.6146  1.7805
 5341TIP3    H216030   4.367   5.790   2.312  0.2316  1.4540  2.1618
 5342TIP3   OH216031   5.724   0.983   2.551 -0.0746  0.2861 -0.0690
 5342TIP3    H116032   5.817   0.996   2.532 -0.3158  0.2519 -1.3839
 5342TIP3    H216033   5.679   1.032   2.483 -1.0871  2.4834  2.0389
 5343TIP3   OH216034   1.991   1.111   3.595  0.6630 -0.0643  0.5451
 5343TIP3    H116035   1.999   1.199   3.630 -1.9956  1.6004 -2.4987
 5343TIP3    H216036   2.080   1.086   3.570  1.3358  2.3104  0.3588
 5344TIP3   OH216037   5.032   1.810   0.415  0.2769 -0.0977 -0.0224
 5344TIP3    H116038   5.070   1.870   0.480  1.8411 -1.1702  0.0955
 5344TIP3    H216039   5.013   1.730   0.464  2.1571 -1.1910 -0.9540
 5345TIP3   OH216040   1.583   1.946   1.918 -0.2573  0.1319 -0.3750
 5345TIP3    H116041   1.609   2.027   1.961 -1.8133  0.6047 -0.2835
 5345TIP3    H216042   1.594   1.879   1.985  0.5170  0.3334 -0.2864
 5346TIP3   OH216043   2.123   5.643   2.950 -0.4668  0.2595 -0.1014
 5346TIP3    H116044   2.186   5.689   3.006  1.7694 -1.5301 -0.9605
 5346TIP3    H216045   2.173   5.571   2.913 -2.0810  0.7536 -3.6537
 5347TIP3   OH216046   5.966   5.724   0.631 -0.2214 -0.0698 -0.5380
 5347TIP3    H116047   5.910   5.647   0.639 -0.2393  0.0565  0.8567
 5347TIP3    H216048   6.054   5.689   0.617 -0.3506 -0.3181 -0.7246
 5348TIP3   OH216049   3.603   4.853   0.823  0.0692 -0.1049  0.2111
 5348TIP3    H116050   3.675   4.908   0.854 -1.1770  0.5883  2.0673
 5348TIP3    H216051   3.597   4.783   0.888 -0.6251 -0.4214 -0.1861
 5349TIP3   OH216052   6.287   5.740   2.726 -0.2723 -0.1833 -0.0120
 5349TIP3    H116053   6.299   5.816   2.782  0.5799 -1.3906  1.5111
 5349TIP3    H216054   6.266   5.776   2.640  1.3863  1.8005  0.3549
 5350TIP3   OH216055   3.528   3.387   0.331 -0.3598 -0.5995 -0.1363
 5350TIP3    H116056   3.559   3.477   0.325 -1.1769 -0.4057 -1.9074
 5350TIP3    H216057   3.533   3.366   0.425  0.9472  0.8672  0.1486
 5351TIP3   OH216058   4.767   4.095   3.629 -0.0820  0.1019  0.1002
 5351TIP3    H116059   4.764   4.160   3.699 -1.4602  0.1239  0.0410
 5351TIP3    H216060   4.702   4.125   3.566  1.2734  0.1963 -1.3250
 5352TIP3   OH216061   3.066   5.436   2.356  0.3470 -0.0604  0.4496
 5352TIP3    H116062   3.117   5.506   2.397  1.2492 -0.3055 -0.2329
 5352TIP3    H216063   2.976   5.470   2.353  0.7498  1.0092  0.2474
 5353TIP3   OH216064   5.890   2.123   3.459 -0.8937 -0.0136 -0.4028
 5353TIP3    H116065   5.975   2.117   3.503 -0.2917  1.2240 -1.3261
 5353TIP3    H216066   5.842   2.191   3.508 -0.7904  0.3056 -0.7365
 5354TIP3   OH216067   4.906   0.128   0.783  0.3040  0.1411 -1.1949
 5354TIP3    H116068   4.947   0.198   0.731  0.3968  0.0920 -1.1878
 5354TIP3    H216069   4.911   0.051   0.728 -1.0476  0.4331 -1.7856
 5355TIP3   OH216070   5.943   5.262   3.345  0.0192 -0.1576  0.3430
 5355TIP3    H116071   5.964   5.192   3.407  0.4004 -0.2986  0.0611
 5355TIP3    H216072   6.012   5.327   3.359 -0.2666  0.1116  0.5206
 5356TIP3   OH216073   2.344   1.400   3.642 -0.2158  0.2692  0.3548
 5356TIP3    H116074   2.422   1.345   3.646  0.0455  0.5934 -0.1461
 5356TIP3    H216075   2.357   1.454   3.564  0.7029  2.7708  2.1014
 5357TIP3   OH216076   6.244   4.551   2.119 -0.0422  0.2961 -0.1089
 5357TIP3    H116077   6.241   4.525   2.027  0.3738  1.4466 -0.4616
 5357TIP3    H216078   6.282   4.638   2.118  0.5834  0.0577  1.2223
 5358TIP3   OH216079   0.129   0.764   1.898  0.2804  0.1344 -0.0639
 5358TIP3    H116080   0.194   0.695   1.882 -0.4023 -0.6376  0.4111
 5358TIP3    H216081   0.046   0.727   1.867 -0.1467  0.6221  0.4721
 5359TIP3   OH216082   1.635   4.726   4.612 -0.7065  0.2773 -0.0751
 5359TIP3    H116083   1.684   4.712   4.531 -1.9745 -1.9044 -0.5525
 5359TIP3    H216084   1.697   4.770   4.671  0.6027  0.8920 -1.8268
 5360TIP3   OH216085   2.150   4.422   3.766 -0.1817 -0.7904 -0.0187
 5360TIP3    H116086   2.132   4.332   3.739 -1.4995 -0.4927 -0.2103
 5360TIP3    H216087   2.099   4.432   3.846 -1.1793  0.2136 -0.7620
 5361TIP3   OH216088   2.161   5.464   2.090  0.0967  0.5444  0.5003
 5361TIP3    H116089   2.144   5.516   2.012 -2.7515 -1.2930 -0.2547
 5361TIP3    H216090   2.099   5.498   2.155 -0.8191 -0.9000  0.4289
 5362TIP3   OH216091   1.181   5.792   2.234 -0.0098  0.0409  0.1117
 5362TIP3    H116092   1.187   5.782   2.139 -1.5653 -1.6298  0.1400
 5362TIP3    H216093   1.218   5.711   2.269 -1.1584 -0.1878  0.8519
 5363TIP3   OH216094   0.089   5.951   3.723  0.0192 -0.6897  0.6903
 5363TIP3    H116095   0.084   6.027   3.781  1.7150  0.1175 -0.1543
 5363TIP3    H216096   0.131   5.883   3.776 -0.6484 -0.7505  1.1529
 5364TIP3   OH216097   0.860   2.745   1.570 -0.3896  0.1855  0.1448
 5364TIP3    H116098   0.895   2.659   1.595 -1.9013 -0.7127 -0.6530
 5364TIP3    H216099   0.863   2.796   1.650  0.8387 -0.4943  0.5615
 5365TIP3   OH216100   1.819   0.086   2.677 -0.4380  0.2129 -0.1618
 5365TIP3    H116101   1.775   0.150   2.734  0.2827  0.2947  0.3158
 5365TIP3    H216102   1.794   0.001   2.714 -1.4932  0.1990 -0.8689
 5366TIP3   OH216103   3.867   1.857   3.856  0.0854 -0.0119  0.5237
 5366TIP3    H116104   3.826   1.944   3.850  0.9489  0.4290  0.8902
 5366TIP3    H216105   3.948   1.865   3.807  0.9904 -0.0940  1.9455
 5367TIP3   OH216106   2.051   5.041   1.618 -0.1740  0.1335 -0.5254
 5367TIP3    H116107   2.002   5.111   1.576 -0.0207  1.0347  0.7447
 5367TIP3    H216108   1.985   4.981   1.652 -0.3234  0.0899 -0.8908
 5368TIP3   OH216109   1.175   5.367   2.061  0.4447 -0.7524  0.1609
 5368TIP3    H116110   1.134   5.302   2.118 -0.7840 -1.9186 -1.9004
 5368TIP3    H216111   1.143   5.345   1.973  2.7439  0.5153 -1.1042
 5369TIP3   OH216112   4.195   3.934   1.475 -0.1602 -0.0498  0.5314
 5369TIP3    H116113   4.142   4.003   1.513  0.9486 -0.0632  2.1963
 5369TIP3    H216114   4.227   3.971   1.393 -1.7284  0.3819  0.0772
 5370TIP3   OH216115   4.904   5.837   4.022  0.4011  0.2881  0.3278
 5370TIP3    H116116   4.813   5.837   4.050  0.4204 -1.6789  0.5248
 5370TIP3    H216117   4.951   5.883   4.091 -0.1068 -1.0518  1.6197
 5371TIP3   OH216118   0.166   2.153   4.912  0.5543  0.5197  0.0374
 5371TIP3    H116119   0.180   2.116   4.825  1.8379  1.7381 -0.3174
 5371TIP3    H216120   0.239   2.214   4.923 -0.8958  2.1482  1.0138
 5372TIP3   OH216121   1.045   5.095   4.121  0.3666 -0.6974 -0.0190
 5372TIP3    H116122   0.982   5.153   4.078  0.6479 -0.3825 -0.0047
 5372TIP3    H216123   1.048   5.125   4.212  1.0933 -0.2282 -0.1880
 5373TIP3   OH216124   2.356   5.450   4.749 -0.3909  0.4436 -0.0005
 5373TIP3    H116125   2.425   5.410   4.802 -0.0660  0.6899 -0.2312
 5373TIP3    H216126   2.281   5.392   4.759  0.4295 -0.9023 -1.3160
 5374TIP3   OH216127   3.860   0.405   2.128  0.2762 -0.0060  0.2177
 5374TIP3    H116128   3.838   0.323   2.173 -2.3019 -0.4527 -1.6429
 5374TIP3    H216129   3.937   0.383   2.075  0.1384 -0.9938  0.4067
 5375TIP3   OH216130   3.497   2.135   1.070 -0.0241 -0.0810  0.4919
 5375TIP3    H116131   3.475   2.135   1.163  0.7458 -0.1595  0.6760
 5375TIP3    H216132   3.537   2.221   1.055  0.1876 -0.2132  0.3086
 5376TIP3   OH216133   6.089   0.780   3.737  0.2230 -0.0993 -0.4954
 5376TIP3    H116134   6.013   0.829   3.706  0.5133  0.3433 -0.5173
 5376TIP3    H216135   6.131   0.838   3.802  1.8400  0.6706 -2.1368
 5377TIP3   OH216136   4.470   1.428   1.925  0.2383  0.2850 -0.2240
 5377TIP3    H116137   4.561   1.445   1.948  0.2783 -0.2694  0.0737
 5377TIP3    H216138   4.420   1.494   1.973  0.3820 -0.3735  0.8822
 5378TIP3   OH216139   5.846   2.347   3.621 -0.4324 -0.8118  0.0332
 5378TIP3    H116140   5.839   2.335   3.716  1.3391  1.6525  0.5872
 5378TIP3    H216141   5.793   2.425   3.603  1.7922  0.6790 -0.3888
 5379TIP3   OH216142   3.322   0.367   1.268  0.7094 -0.0947 -0.5125
 5379TIP3    H116143   3.317   0.284   1.221  3.0332 -0.4982 -0.1715
 5379TIP3    H216144   3.386   0.419   1.218  0.7032  0.7562  0.3353
 5380TIP3   OH216145   3.235   2.559   3.463  0.1858  0.0123  0.0945
 5380TIP3    H116146   3.158   2.520   3.504  1.3692 -0.6109  1.8156
 5380TIP3    H216147   3.261   2.495   3.397 -1.4251  0.7817 -1.3738
 5381TIP3   OH216148   6.251   2.187   2.297  0.2021 -0.1100  0.4764
 5381TIP3    H116149   6.206   2.122   2.243 -1.2506  0.8086  0.5352
 5381TIP3    H216150   6.302   2.134   2.359 -1.2106 -1.2155  0.7529
 5382TIP3   OH216151   3.226   4.980   2.858 -0.0143  0.4625 -0.6345
 5382TIP3    H116152   3.149   4.956   2.910 -1.3991  2.3332 -1.6813
 5382TIP3    H216153   3.194   4.982   2.767  1.7929 -0.6054 -1.3424
 5383TIP3   OH216154   0.530   0.808   1.544  0.5715 -0.6738  0.1076
 5383TIP3    H116155   0.534   0.712   1.535  0.0486 -0.7730  0.8637
 5383TIP3    H216156   0.445   0.825   1.584 -1.3871  0.4447 -3.9824
 5384TIP3   OH216157   1.972   1.496   4.491  0.3156  0.2376  0.6589
 5384TIP3    H116158   1.996   1.502   4.584 -0.1335 -0.0016  0.7901
 5384TIP3    H216159   2.012   1.414   4.462 -2.0106 -1.2461  1.3935
 5385TIP3   OH216160   3.369   0.535   3.013  0.2833  0.2744 -0.0365
 5385TIP3    H116161   3.458   0.531   3.048 -0.0813  1.0745  1.0106
 5385TIP3    H216162   3.322   0.463   3.055  0.6109 -0.6582 -1.1914
 5386TIP3   OH216163   2.275   5.485   3.614 -0.5387 -0.5009 -0.6622
 5386TIP3    H116164   2.303   5.425   3.682 -0.5766  0.4149  0.1813
 5386TIP3    H216165   2.355   5.503   3.563  0.1787  1.0065  0.8849
 5387TIP3   OH216166   2.810   1.623   1.987  0.6703  0.0465 -0.3046
 5387TIP3    H116167   2.736   1.672   1.952 -0.6196 -0.6783  1.2921
 5387TIP3    H216168   2.828   1.662   2.073  0.7774 -1.0989  0.2166
 5388TIP3   OH216169   3.186   1.146   5.023  0.4443 -0.3537  0.3481
 5388TIP3    H116170   3.265   1.197   5.041  1.3089 -1.2957 -0.6710
 5388TIP3    H216171   3.175   1.151   4.928 -0.4991 -0.5821  0.4303
 5389TIP3   OH216172   1.951   0.311   3.731  0.8751 -0.2296 -0.0478
 5389TIP3    H116173   1.900   0.230   3.722 -2.5134  1.8450 -1.2354
 5389TIP3    H216174   1.886   0.381   3.730  3.0512  2.5060  5.5447
 5390TIP3   OH216175   3.939   0.477   4.593 -0.0401  0.0707  0.1483
 5390TIP3    H116176   3.948   0.449   4.684  0.6409 -0.3443 -0.0337
 5390TIP3    H216177   3.926   0.572   4.598  1.4763  0.2902  0.6383
 5391TIP3   OH216178   3.012   0.488   0.655  0.0539  0.1621 -0.1757
 5391TIP3    H116179   3.104   0.506   0.639  0.0731 -0.1067 -0.3851
 5391TIP3    H216180   2.968   0.511   0.573 -0.0903  0.4614 -0.0166
 5392TIP3   OH216181   0.356   4.510   3.920  0.6060 -0.4927  0.2733
 5392TIP3    H116182   0.336   4.599   3.892  1.4550 -0.6519 -0.9586
 5392TIP3    H216183   0.450   4.500   3.901  1.8587 -0.0284  4.9462
 5393TIP3   OH216184   0.673   4.542   4.981  0.0108  0.0339 -0.2833
 5393TIP3    H116185   0.753   4.493   4.962  1.6247  1.6860  1.5949
 5393TIP3    H216186   0.688   4.628   4.942 -1.0389  0.2494 -0.2442
 5394TIP3   OH216187   1.080   2.048   3.875 -0.1125 -0.5147 -0.0986
 5394TIP3    H116188   1.165   2.079   3.842 -0.2867  2.3054  1.6883
 5394TIP3    H216189   1.097   1.959   3.904  2.1461 -0.1992 -0.2464
 5395TIP3   OH216190   2.074   1.368   0.726  0.1613  0.0163  0.3640
 5395TIP3    H116191   2.119   1.451   0.745  0.1944 -0.2081  1.3186
 5395TIP3    H216192   2.131   1.324   0.663  0.5388  0.3924  0.4357
 5396TIP3   OH216193   2.366   1.585   1.888  0.2181 -0.1126 -0.0449
 5396TIP3    H116194   2.455   1.559   1.912  1.0906  3.1200  0.7711
 5396TIP3    H216195   2.372   1.610   1.795  0.2925  0.4745  0.1114
 5397TIP3   OH216196   4.039   1.162   4.231 -0.4415 -0.1112 -0.5368
 5397TIP3    H116197   4.120   1.175   4.280  0.4490 -0.3109 -1.9261
 5397TIP3    H216198   3.983   1.113   4.291  0.5831 -0.2704  0.3123
 5398TIP3   OH216199   3.226   1.230   2.785  0.1565  0.4227 -0.1494
 5398TIP3    H116200   3.210   1.166   2.854  0.5539  0.6839  0.1924
 5398TIP3    H216201   3.156   1.295   2.796  0.3997  0.6292  0.2142
 5399TIP3   OH216202   1.696   1.444   3.463 -0.0048 -0.0892  0.2452
 5399TIP3    H116203   1.756   1.400   3.404 -0.6004 -0.0112 -0.4337
 5399TIP3    H216204   1.645   1.503   3.407  0.7970  1.5102  1.1328
 5400TIP3   OH216205   2.013   1.331   2.421  0.1578 -0.2098  0.4509
 5400TIP3    H116206   1.924   1.318   2.453  0.3261 -1.5801  0.4240
 5400TIP3    H216207   2.006   1.325   2.326  0.3531 -0.8204  0.4743
 5401TIP3   OH216208   4.837   1.573   3.096 -0.6093 -0.1860 -0.0982
 5401TIP3    H116209   4.753   1.575   3.140 -0.6709  0.6415 -0.2278
 5401TIP3    H216210   4.824   1.624   3.016 -0.6026 -1.9748 -1.2881
 5402TIP3   OH216211   0.541   3.414   2.648 -0.1682 -0.1467 -0.1535
 5402TIP3    H116212   0.569   3.326   2.620  1.9817  0.8764 -1.4741
 5402TIP3    H216213   0.480   3.397   2.720  0.2107 -2.7221 -0.3203
 5403TIP3   OH216214   5.770   0.886   1.085  0.0376 -0.0356 -0.6045
 5403TIP3    H116215   5.681   0.885   1.120  0.2140  0.6697 -0.1161
 5403TIP3    H216216   5.760   0.860   0.994 -0.6391 -0.1843 -0.4939
 5404TIP3   OH216217   5.341   4.750   4.075 -0.4569  0.0422 -0.0401
 5404TIP3    H116218   5.279   4.729   4.145 -1.9316 -1.2362 -1.6201
 5404TIP3    H216219   5.346   4.845   4.076  0.3725  0.0402  2.4155
 5405TIP3   OH216220   4.636   5.144   2.451  0.1321  0.5139  0.1223
 5405TIP3    H116221   4.611   5.102   2.533 -0.4552  0.4535 -0.0789
 5405TIP3    H216222   4.651   5.071   2.390 -1.3205  0.5768 -0.3501
 5406TIP3   OH216223   1.088   3.617   1.928 -0.2387 -0.0622 -0.5661
 5406TIP3    H116224   1.165   3.668   1.955 -0.7416  1.5285 -1.9591
 5406TIP3    H216225   1.115   3.526   1.939  1.7422  0.4493 -0.6790
 5407TIP3   OH216226   2.508   0.433   4.314  0.4371 -0.0921  0.1321
 5407TIP3    H116227   2.413   0.436   4.316  0.3383 -2.0294  0.9283
 5407TIP3    H216228   2.528   0.355   4.262  1.5776 -0.0183  0.4316
 5408TIP3   OH216229   4.249   2.007   5.093  0.5999 -0.1086 -0.5617
 5408TIP3    H116230   4.321   2.005   5.156 -0.1083 -1.3929  0.2623
 5408TIP3    H216231   4.263   2.087   5.042  1.3415  0.8446  1.0610
 5409TIP3   OH216232   4.803   2.304   4.942 -0.2589 -0.2730 -0.1914
 5409TIP3    H116233   4.779   2.333   4.854 -1.8722 -0.1566  0.2641
 5409TIP3    H216234   4.755   2.223   4.954 -0.3209 -0.1036  0.7173
 5410TIP3   OH216235   2.539   3.308   2.848 -0.3688  0.3897  0.0027
 5410TIP3    H116236   2.552   3.222   2.810 -0.3302  0.3990 -0.0056
 5410TIP3    H216237   2.574   3.301   2.937  0.2747  0.5934 -0.2287
 5411TIP3   OH216238   1.663   1.669   3.885 -0.4035  0.4559 -0.8046
 5411TIP3    H116239   1.587   1.727   3.880  0.4598  1.5473 -1.5581
 5411TIP3    H216240   1.726   1.715   3.940 -0.8357 -1.1482  1.1696
 5412TIP3   OH216241   1.251   4.067   2.371  0.5047  0.2264 -0.1245
 5412TIP3    H116242   1.207   4.150   2.356  1.1971  0.0156 -4.9083
 5412TIP3    H216243   1.181   4.004   2.386 -0.5529  0.7687 -2.4109
 5413TIP3   OH216244   2.231   1.246   0.520 -0.3247  0.2211  0.5352
 5413TIP3    H116245   2.183   1.301   0.458  0.7170  0.9481  0.3648
 5413TIP3    H216246   2.207   1.156   0.495 -0.1997  0.5111 -0.6840
 5414TIP3   OH216247   1.705   0.153   2.420  0.1319 -0.3782  0.3320
 5414TIP3    H116248   1.746   0.119   2.499 -0.9106 -0.0673  1.0220
 5414TIP3    H216249   1.698   0.247   2.436  2.6269  0.2079 -1.3853
 5415TIP3   OH216250   2.139   4.050   1.946 -0.0325 -0.5079 -0.4500
 5415TIP3    H116251   2.210   3.987   1.936  0.8453  0.5061 -0.8205
 5415TIP3    H216252   2.165   4.124   1.890 -0.9290  0.2624  0.1322
 5416TIP3   OH216253   0.201   0.945   1.146  0.1800 -0.0214 -0.3064
 5416TIP3    H116254   0.244   0.878   1.199 -0.4385 -0.3129 -0.1644
 5416TIP3    H216255   0.259   0.956   1.071  0.4475 -0.4945 -0.1760
 5417TIP3   OH216256   2.029   1.500   4.010  0.3780 -0.1276 -0.9523
 5417TIP3    H116257   1.955   1.440   4.015 -0.2166  0.6537  0.4640
 5417TIP3    H216258   2.009   1.557   3.935  0.8898 -1.5803 -2.2255
 5418TIP3   OH216259   5.725   4.088   2.582  0.0148  0.5194  0.2393
 5418TIP3    H116260   5.661   4.018   2.575  0.4658  0.0017  1.0881
 5418TIP3    H216261   5.734   4.122   2.493 -0.4467 -0.2897 -0.1270
 5419TIP3   OH216262   0.449   1.534   3.956 -0.2101 -0.3491 -0.2538
 5419TIP3    H116263   0.407   1.493   4.032  0.7606 -0.8340  0.0309
 5419TIP3    H216264   0.387   1.521   3.885  0.7946 -3.9982 -0.6589
 5420TIP3   OH216265   5.087   4.378   4.718  0.1960 -0.0213 -0.7479
 5420TIP3    H116266   5.182   4.385   4.716  0.0437  3.1046 -0.9578
 5420TIP3    H216267   5.059   4.393   4.628 -0.5115 -2.6457 -1.0618
 5421TIP3   OH216268   2.484   2.576   2.504  0.2759  0.0351  0.3619
 5421TIP3    H116269   2.436   2.538   2.432  1.7894  0.7246 -1.0779
 5421TIP3    H216270   2.417   2.613   2.561 -1.0859 -2.4648  0.5304
 5422TIP3   OH216271   6.322   5.279   4.310 -0.1915 -0.6153  0.1934
 5422TIP3    H116272   6.285   5.297   4.223 -2.2511 -2.1036  0.6782
 5422TIP3    H216273   6.256   5.314   4.370 -0.1475 -2.0953  1.1266
 5423TIP3   OH216274   2.244   5.239   1.118 -0.4161  0.2089 -0.4259
 5423TIP3    H116275   2.218   5.265   1.030 -0.7642  0.0227 -0.3808
 5423TIP3    H216276   2.245   5.143   1.115 -0.0439  0.2081 -0.3368
 5424TIP3   OH216277   3.805   0.568   1.632  0.3198  0.4042  0.3542
 5424TIP3    H116278   3.771   0.510   1.700 -0.3386  0.4756  0.0964
 5424TIP3    H216279   3.898   0.547   1.627  0.0342 -0.8750  0.0305
 5425TIP3   OH216280   5.750   0.127   0.881 -0.3160 -0.3753 -0.2884
 5425TIP3    H116281   5.698   0.181   0.822  0.6216 -0.3771 -1.1296
 5425TIP3    H216282   5.731   0.037   0.854  0.7866 -0.3562 -1.2004
 5426TIP3   OH216283   2.762   1.948   3.996 -0.1998  0.2643  0.0086
 5426TIP3    H116284   2.799   2.028   3.959  0.6103 -0.6401 -1.2121
 5426TIP3    H216285   2.789   1.951   4.088  2.3695  0.0199 -0.6490
 5427TIP3   OH216286   4.941   5.011   2.375  0.6386  0.3198 -0.3282
 5427TIP3    H116287   4.894   5.000   2.458 -0.8151  3.0054 -0.6638
 5427TIP3    H216288   4.945   4.923   2.338 -2.1524 -0.4226  0.8452
 5428TIP3   OH216289   0.669   0.642   2.864  0.4070  0.3089 -0.0617
 5428TIP3    H116290   0.757   0.607   2.848  1.2491  2.8083 -1.2796
 5428TIP3    H216291   0.679   0.696   2.942 -0.3746 -0.4033  0.5433
 5429TIP3   OH216292   5.279   0.525   0.882  0.2084  0.2668  0.2853
 5429TIP3    H116293   5.342   0.498   0.949  0.8858  1.1751  0.0346
 5429TIP3    H216294   5.292   0.463   0.810 -0.3238 -0.5344  0.8638
 5430TIP3   OH216295   2.847   0.526   3.739 -0.2647 -0.0195  0.3083
 5430TIP3    H116296   2.876   0.435   3.750  1.0883  0.5635  1.9400
 5430TIP3    H216297   2.793   0.542   3.816 -3.3565 -0.4035 -1.6066
 5431TIP3   OH216298   1.870   4.706   2.626 -0.2472 -0.3194 -0.0429
 5431TIP3    H116299   1.789   4.724   2.577  0.1455 -0.9839 -0.9729
 5431TIP3    H216300   1.864   4.762   2.704 -2.2289 -1.3418  0.6030
 5432TIP3   OH216301   0.134   2.814   3.471 -0.5514  0.3031  0.3863
 5432TIP3    H116302   0.126   2.727   3.433 -1.8375 -0.1806  1.6773
 5432TIP3    H216303   0.220   2.845   3.442 -0.5227 -0.9454 -0.9640
 5433TIP3   OH216304   2.591   1.975   4.246 -0.1165  0.8440 -0.2721
 5433TIP3    H116305   2.560   1.908   4.307 -0.3109  1.0828 -0.1085
 5433TIP3    H216306   2.569   2.058   4.288  1.0864  1.0287  0.0189
 5434TIP3   OH216307   5.125   1.940   3.514 -0.2587 -0.4376  0.2409
 5434TIP3    H116308   5.186   1.971   3.447  0.6215 -1.5297  0.5026
 5434TIP3    H216309   5.090   2.019   3.553 -0.2591  0.2223 -1.0358
 5435TIP3   OH216310   0.532   0.709   4.892 -0.3099 -0.0003  0.0646
 5435TIP3    H116311   0.552   0.636   4.950  2.4629 -0.2667 -1.0940
 5435TIP3    H216312   0.549   0.787   4.945 -0.5144 -0.1944  0.4247
 5436TIP3   OH216313   4.833   5.396   4.824  0.1071 -0.0995  0.2035
 5436TIP3    H116314   4.920   5.372   4.856  0.7372  1.6697 -0.0442
 5436TIP3    H216315   4.841   5.396   4.729 -0.4501 -0.8729  0.1511
 5437TIP3   OH216316   2.267   5.600   0.534  0.6027  0.0233  0.4081
 5437TIP3    H116317   2.216   5.562   0.606 -0.1535  1.9475  0.9493
 5437TIP3    H216318   2.255   5.694   0.543 -1.4722  0.3555 -3.6102
 5438TIP3   OH216319   1.930   3.928   2.885 -0.0895 -0.1560 -0.2612
 5438TIP3    H116320   1.887   3.913   2.970 -0.3844 -0.0348 -0.3882
 5438TIP3    H216321   1.933   3.842   2.845  2.7331 -0.8092  1.1072
 5439TIP3   OH216322   1.501   1.185   2.125  0.1749 -0.2012 -0.3890
 5439TIP3    H116323   1.552   1.191   2.206 -1.0526 -2.2179  0.6118
 5439TIP3    H216324   1.411   1.199   2.153 -0.1428  0.2270 -1.6111
 5440TIP3   OH216325   4.596   2.078   0.121  0.1942  0.3111  0.2521
 5440TIP3    H116326   4.638   2.162   0.099  0.1984  0.3064  0.2420
 5440TIP3    H216327   4.503   2.096   0.116  0.1570  0.7680  1.8980
 5441TIP3   OH216328   4.833   1.461   0.383 -0.2755 -0.2646 -0.2826
 5441TIP3    H116329   4.859   1.487   0.472  0.7037  0.8737 -0.8588
 5441TIP3    H216330   4.743   1.491   0.375 -0.4490 -0.5863  0.4107
 5442TIP3   OH216331   2.703   4.065   2.336  0.1832  0.1209 -0.0341
 5442TIP3    H116332   2.795   4.038   2.336  0.0585 -0.3504  0.6544
 5442TIP3    H216333   2.677   4.060   2.428 -0.5313  0.2466 -0.2214
 5443TIP3   OH216334   5.752   1.582   4.371 -0.1614  0.3142  0.1992
 5443TIP3    H116335   5.802   1.616   4.297 -0.9266  2.8550  0.7563
 5443TIP3    H216336   5.817   1.571   4.441 -0.0591  2.0459  0.4235
 5444TIP3   OH216337   0.321   4.360   0.433  0.5087 -0.6147  0.3760
 5444TIP3    H116338   0.309   4.367   0.527  0.3686  0.8883  0.2588
 5444TIP3    H216339   0.233   4.362   0.396  0.6245  2.4714  0.0264
 5445TIP3   OH216340   2.935   1.864   1.034 -0.3922  0.3612  0.2345
 5445TIP3    H116341   2.920   1.783   1.085 -0.0292  1.0697  1.5214
 5445TIP3    H216342   2.863   1.921   1.060 -1.1318  0.1757 -1.3200
 5446TIP3   OH216343   0.438   2.421   3.841 -0.5017 -0.4834  0.3290
 5446TIP3    H116344   0.530   2.397   3.852 -0.2974  0.4080  0.6709
 5446TIP3    H216345   0.389   2.344   3.871  0.1116 -1.9103 -2.0650
 5447TIP3   OH216346   4.922   4.766   2.217  0.6917 -0.1675 -0.0617
 5447TIP3    H116347   5.002   4.717   2.199  0.3600 -0.7260 -0.0362
 5447TIP3    H216348   4.851   4.711   2.183  0.2652  0.0101  0.5092
 5448TIP3   OH216349   5.225   1.160   1.282  0.4638 -0.0282  0.4846
 5448TIP3    H116350   5.248   1.068   1.273 -1.4936 -0.5398  0.2002
 5448TIP3    H216351   5.135   1.159   1.315 -0.2983  1.7356 -1.3468
 5449TIP3   OH216352   1.226   2.628   5.005 -0.6915 -0.1214 -0.0681
 5449TIP3    H116353   1.195   2.674   5.083 -0.5063 -1.5362  0.8799
 5449TIP3    H216354   1.314   2.661   4.990 -0.6174 -0.0577  0.5061
 5450TIP3   OH216355   2.906   1.803   3.399  0.1398 -0.1703  0.8265
 5450TIP3    H116356   2.843   1.834   3.334 -0.4741 -1.3787  0.8198
 5450TIP3    H216357   2.992   1.829   3.364 -0.2252 -0.2088 -0.1278
 5451TIP3   OH216358   0.607   4.827   1.776  0.6676 -0.1911 -0.5507
 5451TIP3    H116359   0.589   4.859   1.688  0.9740 -0.8740 -0.8730
 5451TIP3    H216360   0.582   4.734   1.773 -0.8908  0.1536  0.5541
 5452TIP3   OH216361   3.389   1.835   4.551  0.3974  0.0303 -0.1621
 5452TIP3    H116362   3.447   1.759   4.538 -0.8629 -0.9168 -0.4729
 5452TIP3    H216363   3.394   1.883   4.468  1.5487  0.5720  0.1926
 5453TIP3   OH216364   2.934   4.125   3.460 -0.3754 -0.9465  0.0002
 5453TIP3    H116365   2.955   4.085   3.545 -0.5716  1.6666  1.4133
 5453TIP3    H216366   2.838   4.131   3.461 -0.4476 -1.8400 -0.9016
 5454TIP3   OH216367   5.113   4.480   3.087  0.4943  0.1776  0.6027
 5454TIP3    H116368   5.185   4.466   3.149  0.1369  0.4984  1.0919
 5454TIP3    H216369   5.157   4.488   3.002  1.0512  0.4848  0.9131
 5455TIP3   OH216370   0.111   2.401   5.123  0.1585 -0.1081 -0.1763
 5455TIP3    H116371   0.093   2.482   5.076  1.2450  0.5937  0.5800
 5455TIP3    H216372   0.045   2.339   5.091 -0.9922  1.1995 -0.4092
 5456TIP3   OH216373   0.907   4.814   0.587  0.3010 -0.9162 -0.1578
 5456TIP3    H116374   0.921   4.724   0.616  1.6155 -0.4198  0.8141
 5456TIP3    H216375   0.885   4.805   0.494 -0.7522 -2.3066  0.1818
 5457TIP3   OH216376   1.733   2.063   4.473 -0.2165 -0.5983  0.2723
 5457TIP3    H116377   1.722   2.056   4.568  1.6766  0.2024  0.6075
 5457TIP3    H216378   1.827   2.079   4.462 -0.2775 -1.4193 -1.7920
 5458TIP3   OH216379   1.195   2.289   1.662 -0.1636  0.1031 -0.1122
 5458TIP3    H116380   1.162   2.205   1.630 -0.2050 -1.0875  2.7816
 5458TIP3    H216381   1.137   2.354   1.622 -2.6644 -1.5505  0.6199
 5459TIP3   OH216382   5.304   1.336   0.008  0.1610 -1.1314  0.2336
 5459TIP3    H116383   5.260   1.403   0.060 -0.4315 -0.2493 -1.3081
 5459TIP3    H216384   5.350   1.385  -0.060 -0.1092 -2.2548 -0.8097
 5460TIP3   OH216385   5.536   3.485   5.005 -0.1255  0.3696  0.4832
 5460TIP3    H116386   5.453   3.500   5.050  1.7301  0.1522  4.4515
 5460TIP3    H216387   5.550   3.564   4.954 -3.1032  0.0105 -1.1263
 5461TIP3   OH216388   5.057   2.196  -0.017  0.3307 -0.4487  0.2576
 5461TIP3    H116389   4.981   2.196   0.041 -0.7490  0.6083 -1.0603
 5461TIP3    H216390   5.112   2.126   0.015 -0.5435 -0.3515  2.1090
 5462TIP3   OH216391   2.411   3.547   2.991 -0.1098 -0.2456  0.1963
 5462TIP3    H116392   2.385   3.569   2.901 -1.1355  3.4808  1.2029
 5462TIP3    H216393   2.501   3.516   2.984 -0.5667 -1.2345 -2.1923
 5463TIP3   OH216394   6.039   4.553   2.298 -0.1873 -0.2195 -0.1853
 5463TIP3    H116395   6.047   4.477   2.355  0.7870 -0.5775 -0.7733
 5463TIP3    H216396   6.108   4.541   2.232 -0.6754  0.6595 -0.8764
 5464TIP3   OH216397   1.649   1.248   0.489 -0.0305  0.4825 -0.2501
 5464TIP3    H116398   1.697   1.251   0.572 -0.5341  1.1543  0.0292
 5464TIP3    H216399   1.715   1.263   0.422  0.1021  1.7664  0.1527
 5465TIP3   OH216400   3.002   5.572   0.544  0.3490 -0.0209  0.1663
 5465TIP3    H116401   2.993   5.590   0.450 -0.4182  0.3688  0.3006
 5465TIP3    H216402   2.913   5.549   0.572 -0.0978  2.8443  1.3975
 5466TIP3   OH216403   4.972   4.288   3.238  0.7460  0.0578  0.3875
 5466TIP3    H116404   5.024   4.343   3.180  0.8590  1.7776  2.0259
 5466TIP3    H216405   4.958   4.342   3.316 -0.6992 -1.5861  1.3341
 5467TIP3   OH216406   5.496   4.285   3.592  0.0971 -0.4016 -0.3817
 5467TIP3    H116407   5.417   4.241   3.558  1.2974 -0.5866 -3.2552
 5467TIP3    H216408   5.539   4.320   3.514  1.0963  2.8084  1.4291
 5468TIP3   OH216409   0.716   2.867   4.239  0.6190 -1.2031 -0.2829
 5468TIP3    H116410   0.681   2.945   4.282  0.0052 -1.4130 -0.3896
 5468TIP3    H216411   0.810   2.874   4.249  0.7162  0.4434 -1.7786
 5469TIP3   OH216412   5.833   5.597   2.771 -0.1140 -0.1488  0.2959
 5469TIP3    H116413   5.764   5.605   2.838  0.8534 -0.9062  1.4173
 5469TIP3    H216414   5.841   5.503   2.756 -1.0781  0.0359 -1.7592
 5470TIP3   OH216415   3.042   5.488   4.960 -0.5657 -0.0484 -0.1273
 5470TIP3    H116416   2.999   5.407   4.989 -0.9053 -0.2755 -1.2271
 5470TIP3    H216417   3.129   5.459   4.932  0.3426  0.3917  1.9888
 5471TIP3   OH216418   6.188   3.457   4.332 -0.1149  0.8877 -0.0420
 5471TIP3    H116419   6.281   3.479   4.337  0.1682 -0.4747  2.6574
 5471TIP3    H216420   6.185   3.362   4.337 -1.6543  0.8817 -0.4537
 5472TIP3   OH216421   6.201   0.727   3.477  0.2731 -0.3452  0.6020
 5472TIP3    H116422   6.146   0.760   3.549 -1.5768 -0.6121 -0.6317
 5472TIP3    H216423   6.266   0.796   3.465 -1.2211  1.1454  0.5791
 5473TIP3   OH216424   3.785   4.301   3.689  0.1435 -0.0541  0.7444
 5473TIP3    H116425   3.753   4.215   3.717 -0.2623 -0.5932 -1.2346
 5473TIP3    H216426   3.870   4.283   3.649  0.6619  0.6785  1.4916
 5474TIP3   OH216427   3.402   2.913   4.957  0.3560  0.3778  0.0888
 5474TIP3    H116428   3.394   3.008   4.966  1.2389  0.3963  0.7439
 5474TIP3    H216429   3.329   2.878   5.008  1.1893  0.6708  1.5447
 5475TIP3   OH216430   1.304   1.206   3.585  0.1009  0.3944 -0.3149
 5475TIP3    H116431   1.292   1.205   3.680 -0.0857  0.0905 -0.3436
 5475TIP3    H216432   1.389   1.164   3.571  0.8229  1.7197 -0.1820
 5476TIP3   OH216433   5.651   1.346   2.181 -0.2072 -0.8669  0.1881
 5476TIP3    H116434   5.574   1.386   2.219 -0.0341  0.2400 -0.5786
 5476TIP3    H216435   5.618   1.292   2.109 -0.2568 -0.2761 -0.2338
 5477TIP3   OH216436   1.085   5.381   1.774  0.2392 -0.0383 -0.4720
 5477TIP3    H116437   1.167   5.413   1.738 -0.3617  2.2236  0.0311
 5477TIP3    H216438   1.019   5.444   1.744 -0.9982 -0.6975  0.7464
 5478TIP3   OH216439   3.656   2.922   3.700 -0.2392 -0.2553  0.1538
 5478TIP3    H116440   3.637   2.979   3.626  1.3359 -0.2003 -0.2455
 5478TIP3    H216441   3.693   2.843   3.662 -0.1846 -0.5767  0.8447
 5479TIP3   OH216442   1.322   2.363   4.230 -0.2019  0.8798 -0.1344
 5479TIP3    H116443   1.315   2.268   4.217  1.7026  0.8427 -1.3057
 5479TIP3    H216444   1.391   2.390   4.170  1.2730  2.5880  2.1638
 5480TIP3   OH216445   0.697   2.747   2.433 -0.1956  0.4536 -0.0954
 5480TIP3    H116446   0.641   2.685   2.385  0.1893  0.0370 -0.0085
 5480TIP3    H216447   0.786   2.722   2.409  0.0108  0.1959  0.8929
 5481TIP3   OH216448   2.001   0.294   4.754  0.0326  0.5659  0.0763
 5481TIP3    H116449   1.960   0.376   4.727  2.1008  1.3348 -0.9852
 5481TIP3    H216450   1.951   0.226   4.710 -2.3728  1.0959  1.7876
 5482TIP3   OH216451   3.072   4.972   3.883 -0.4023  0.0527 -0.5142
 5482TIP3    H116452   3.112   4.957   3.969  0.2173 -0.3618 -0.8642
 5482TIP3    H216453   3.029   5.058   3.891 -0.0602  0.1719  0.1039
 5483TIP3   OH216454   5.039   5.780   4.962  0.6170 -0.0181  0.2552
 5483TIP3    H116455   5.122   5.784   4.916  1.1738 -1.7316  1.0396
 5483TIP3    H216456   5.043   5.851   5.025  0.0282  2.0755 -1.9198
 5484TIP3   OH216457   3.476   2.972   0.207 -0.0875  0.2043 -0.9705
 5484TIP3    H116458   3.537   2.994   0.278 -1.6300  1.0357  0.1659
 5484TIP3    H216459   3.533   2.947   0.134  1.5835  0.0227  0.3097
 5485TIP3   OH216460   2.657   1.254   3.701 -0.3371 -0.5780  0.8246
 5485TIP3    H116461   2.671   1.277   3.609 -0.9116  0.3634  0.9526
 5485TIP3    H216462   2.738   1.278   3.745 -1.0690  1.7244  1.0273
 5486TIP3   OH216463   3.876   2.890   0.662  0.5435 -0.0254  0.4910
 5486TIP3    H116464   3.951   2.844   0.624  0.3563 -0.1102  0.2144
 5486TIP3    H216465   3.899   2.983   0.658 -0.0485  0.0809 -1.1549
 5487TIP3   OH216466   2.695   3.565   3.768  0.4393 -0.0526  0.4835
 5487TIP3    H116467   2.638   3.522   3.705 -0.4331  1.9836 -0.2192
 5487TIP3    H216468   2.746   3.627   3.716  0.4189  0.9709  1.6320
 5488TIP3   OH216469   2.882   4.864   4.117  0.3556  0.1456  0.2356
 5488TIP3    H116470   2.963   4.907   4.141 -0.4294  0.0843  3.4971
 5488TIP3    H216471   2.830   4.863   4.198 -2.2293 -1.2793 -1.2813
 5489TIP3   OH216472   3.300   1.881   4.807 -0.1612  0.2031 -0.4449
 5489TIP3    H116473   3.326   1.968   4.839  0.3580 -0.4088  0.8526
 5489TIP3    H216474   3.357   1.864   4.733  0.5557  0.4715  0.0402
 5490TIP3   OH216475   1.328   5.418   1.649  0.2262 -0.2312 -0.4445
 5490TIP3    H116476   1.415   5.455   1.664 -0.8328  1.5493  2.1201
 5490TIP3    H216477   1.295   5.463   1.572  1.5351 -0.9072 -1.4231
 5491TIP3   OH216478   4.376   4.713   2.400  0.2745 -0.0079 -0.1334
 5491TIP3    H116479   4.367   4.808   2.406  2.3746  0.1361  4.4332
 5491TIP3    H216480   4.293   4.679   2.432  0.6885  0.4304  1.4898
 5492TIP3   OH216481   2.430   2.591   5.079  0.8130  0.3106 -0.2762
 5492TIP3    H116482   2.487   2.615   5.152  2.1596  0.7284 -1.4077
 5492TIP3    H216483   2.486   2.598   5.002 -0.6515  0.2131 -1.3989
 5493TIP3   OH216484   1.101   1.815   2.119 -0.6896  0.1799  0.3351
 5493TIP3    H116485   1.095   1.813   2.023  0.2526 -0.4001  0.2741
 5493TIP3    H216486   1.155   1.739   2.141  0.2750  1.1051  1.2323
 5494TIP3   OH216487   2.754   2.362   1.257  0.0900 -0.2677 -0.0668
 5494TIP3    H116488   2.689   2.334   1.193  1.0438  0.0791 -1.2316
 5494TIP3    H216489   2.831   2.308   1.238  0.5362  0.1579  0.4896
 5495TIP3   OH216490   2.801   5.211   1.306 -0.7187 -0.5768  0.0849
 5495TIP3    H116491   2.848   5.288   1.338  0.2465 -1.2545  0.3527
 5495TIP3    H216492   2.774   5.235   1.217 -0.3855  0.0482  0.1439
 5496TIP3   OH216493   0.057   0.550   3.233  0.4800 -0.2833  0.0715
 5496TIP3    H116494   0.121   0.619   3.253 -0.6779  0.6364  0.7237
 5496TIP3    H216495   0.030   0.517   3.319  0.4378 -1.0218 -0.2170
 5497TIP3   OH216496   5.002   0.618   0.004  0.3996 -0.5302 -0.0581
 5497TIP3    H116497   4.913   0.653   0.000  0.6968  0.1633 -1.0362
 5497TIP3    H216498   5.055   0.690   0.038  0.7108 -0.6701 -0.2437
 5498TIP3   OH216499   5.015   2.793   1.298 -0.1617  0.1891 -0.3171
 5498TIP3    H116500   5.041   2.805   1.207  1.5718  0.0426  0.1208
 5498TIP3    H216501   4.989   2.702   1.304 -0.7511  0.3217 -0.7626
 5499TIP3   OH216502   1.942   3.395   3.049 -0.5131  0.2520 -0.4150
 5499TIP3    H116503   1.945   3.466   3.112 -0.1736 -1.2479  1.3320
 5499TIP3    H216504   2.033   3.366   3.041 -0.7349 -0.4219 -0.5817
 5500TIP3   OH216505   2.617   0.984   3.793 -0.2248  0.1491  0.2571
 5500TIP3    H116506   2.538   1.010   3.840 -0.4031  0.3300 -0.1360
 5500TIP3    H216507   2.614   1.035   3.712 -0.6767 -1.2316 -0.6299
 5501TIP3   OH216508   3.743   0.749   0.164  0.4340 -0.0696  0.2331
 5501TIP3    H116509   3.791   0.797   0.232  1.5143  2.0832 -1.8966
 5501TIP3    H216510   3.775   0.787   0.082 -3.2845 -0.1118 -1.4121
 5502TIP3   OH216511   4.406   3.451   1.317 -0.2278  0.6905  0.0212
 5502TIP3    H116512   4.483   3.508   1.325 -0.6383  1.3725 -0.7567
 5502TIP3    H216513   4.336   3.499   1.361  0.0200 -0.4526  1.7911
 5503TIP3   OH216514   0.970   0.303   3.082 -0.2853  0.1272  0.5931
 5503TIP3    H116515   0.930   0.241   3.021 -2.4084 -0.4960  2.5073
 5503TIP3    H216516   0.941   0.274   3.169  1.6253  1.6954  1.8436
 5504TIP3   OH216517   2.802   3.705   3.989  0.0512 -0.0729 -0.1781
 5504TIP3    H116518   2.758   3.784   3.957 -1.4367 -1.3072 -1.3970
 5504TIP3    H216519   2.788   3.640   3.920  2.5168 -1.0221  0.1046
 5505TIP3   OH216520   0.308   4.969   2.283  0.4667 -0.8221  0.0114
 5505TIP3    H116521   0.364   4.906   2.237 -1.1126 -1.8123 -0.6343
 5505TIP3    H216522   0.257   4.916   2.344 -0.4048 -0.0861 -0.0524
 5506TIP3   OH216523   3.641   2.497   2.950  0.3221  0.3185  0.3978
 5506TIP3    H116524   3.558   2.534   2.920  0.2058 -0.3909 -0.1779
 5506TIP3    H216525   3.661   2.427   2.888  1.5957  0.7885  0.2452
 5507TIP3   OH216526   2.930   4.415   2.270 -0.4529 -0.0748 -0.3217
 5507TIP3    H116527   2.888   4.365   2.200 -0.9559  0.5238 -0.4587
 5507TIP3    H216528   2.990   4.474   2.224 -0.6075  0.1519 -0.2349
 5508TIP3   OH216529   0.494   2.095   0.917  0.2674  0.4136 -0.1287
 5508TIP3    H116530   0.571   2.059   0.961 -0.2029  0.6165  0.9041
 5508TIP3    H216531   0.482   2.040   0.840 -0.2547 -1.5097  1.2374
 5509TIP3   OH216532   5.868   1.764   4.914  0.3846  0.3317 -0.3244
 5509TIP3    H116533   5.957   1.740   4.940  0.5768  1.9603  0.6408
 5509TIP3    H216534   5.814   1.692   4.948  1.2742 -0.4146 -0.4636
 5510TIP3   OH216535   4.351   1.030   5.122 -0.4052  0.1960  0.9368
 5510TIP3    H116536   4.281   0.992   5.175 -0.4913 -1.1610 -0.0923
 5510TIP3    H216537   4.431   1.016   5.173 -0.8018  1.4495  1.9616
 5511TIP3   OH216538   4.352   0.704   1.283  0.0452  0.2061  0.5174
 5511TIP3    H116539   4.327   0.796   1.290  0.8271  0.5300 -0.7056
 5511TIP3    H216540   4.422   0.693   1.347 -0.0051  0.4724  0.6175
 5512TIP3   OH216541   5.564   2.843   3.823  0.6066  0.3188  0.1403
 5512TIP3    H116542   5.644   2.795   3.804 -0.2675 -1.0183 -0.3009
 5512TIP3    H216543   5.576   2.875   3.913  1.0884 -1.0174  0.5739
 5513TIP3   OH216544   6.038   4.253   4.019 -0.5125  0.0247 -0.0300
 5513TIP3    H116545   6.057   4.302   3.939  0.0813 -0.6135 -0.2969
 5513TIP3    H216546   5.989   4.177   3.989 -2.6457  1.1053  0.5365
 5514TIP3   OH216547   3.130   5.674   0.783 -0.2920  0.8885 -0.1585
 5514TIP3    H116548   3.226   5.676   0.779 -0.1538 -1.0336  1.0747
 5514TIP3    H216549   3.105   5.609   0.718 -0.7021  0.7825  0.1040
 5515TIP3   OH216550   6.093   0.349   2.261  0.1632 -0.4096  0.6687
 5515TIP3    H116551   6.111   0.409   2.333 -0.5124  0.9527 -0.2628
 5515TIP3    H216552   6.028   0.288   2.296 -0.5441  0.5544  1.0549
 5516TIP3   OH216553   3.718   3.878   2.332  0.5645 -0.1334  0.1312
 5516TIP3    H116554   3.724   3.837   2.246  2.4917  1.0826 -0.3884
 5516TIP3    H216555   3.630   3.914   2.335  1.0977  1.7316 -2.3394
 5517TIP3   OH216556   3.767   4.313   5.127 -0.3601  0.4997 -0.1886
 5517TIP3    H116557   3.694   4.266   5.087 -0.8177  0.8705  0.2085
 5517TIP3    H216558   3.842   4.255   5.115 -0.1360  1.2202 -2.9644
 5518TIP3   OH216559   3.159   2.988   1.737 -0.0332 -0.2440 -0.4622
 5518TIP3    H116560   3.192   3.016   1.822  1.3477 -1.0214 -0.7023
 5518TIP3    H216561   3.065   3.003   1.741  0.1490  0.7206  0.8046
 5519TIP3   OH216562   5.505   5.264   2.511  0.5493 -0.5597  0.0477
 5519TIP3    H116563   5.510   5.359   2.509  0.0331 -0.4660  1.4854
 5519TIP3    H216564   5.541   5.235   2.427  1.3626  0.8637 -0.1178
 5520TIP3   OH216565   3.215   5.864   2.238  0.5557 -0.2820  0.0590
 5520TIP3    H116566   3.270   5.797   2.198  0.9751  1.5752 -2.7492
 5520TIP3    H216567   3.127   5.844   2.208  0.6515  0.2315 -0.6041
 5521TIP3   OH216568   1.196   1.345   0.468  0.3469  0.4221 -0.1806
 5521TIP3    H116569   1.255   1.286   0.515  0.9775  2.4355  1.7313
 5521TIP3    H216570   1.120   1.355   0.526  0.0920  1.2086 -0.6323
 5522TIP3   OH216571   1.353   3.407   3.605  0.1113  0.4633  0.7857
 5522TIP3    H116572   1.348   3.323   3.651  0.1804  0.4620  0.7908
 5522TIP3    H216573   1.398   3.465   3.666  2.3012 -0.1545 -0.1749
 5523TIP3   OH216574   2.972   2.496   4.887 -0.0609 -0.3808  0.0975
 5523TIP3    H116575   2.933   2.514   4.801  0.6508  0.4456 -0.0579
 5523TIP3    H216576   3.066   2.505   4.873  0.1799 -1.7695  0.6105
 5524TIP3   OH216577   0.398   4.368   4.493  0.1161  0.1124  0.1138
 5524TIP3    H116578   0.324   4.316   4.524 -0.4772  0.5890 -0.4513
 5524TIP3    H216579   0.440   4.314   4.427 -0.4716  0.3133 -0.4391
 5525TIP3   OH216580   0.801   3.923   0.154 -0.1286 -0.2338 -0.0536
 5525TIP3    H116581   0.722   3.869   0.154 -0.4154  0.1764  0.4004
 5525TIP3    H216582   0.858   3.882   0.089 -0.1647 -1.3413  0.5814
 5526TIP3   OH216583   5.596   2.270   2.874 -0.1576 -0.0037  0.2059
 5526TIP3    H116584   5.567   2.237   2.790  0.7475 -0.7888  0.1757
 5526TIP3    H216585   5.559   2.209   2.938 -0.3534  0.2415  0.3250
 5527TIP3   OH216586   4.030   1.926   4.105  0.0769 -0.3279  0.1549
 5527TIP3    H116587   4.115   1.967   4.089 -0.0728  0.3048  0.8943
 5527TIP3    H216588   3.966   1.995   4.087 -0.1457  0.0369  2.0687
 5528TIP3   OH216589   5.423   0.134   1.441 -0.1691 -0.2195 -0.1916
 5528TIP3    H116590   5.449   0.187   1.516  1.3589 -1.3130  0.1200
 5528TIP3    H216591   5.331   0.156   1.426  0.0184  1.4082  0.8041
 5529TIP3   OH216592   2.243   3.049   2.501  0.5992  0.2373  0.5346
 5529TIP3    H116593   2.219   3.120   2.441 -1.1037 -1.9157 -1.5326
 5529TIP3    H216594   2.252   3.092   2.586  2.9750  3.4304 -1.1070
 5530TIP3   OH216595   2.146   0.058   2.330 -0.3003  0.5438 -0.3477
 5530TIP3    H116596   2.223   0.114   2.339  0.3186 -0.3660  0.2294
 5530TIP3    H216597   2.142   0.036   2.237  0.6393 -0.0728 -0.2556
 5531TIP3   OH216598   5.188   2.658   0.244  0.5517 -0.1243 -0.0011
 5531TIP3    H116599   5.249   2.732   0.237  0.6875 -0.3237 -1.0450
 5531TIP3    H216600   5.140   2.675   0.325  0.7944  0.9537 -0.0633
 5532TIP3   OH216601   6.041   4.034   0.885 -0.4632 -0.9078  0.1762
 5532TIP3    H116602   5.980   4.054   0.957  0.3288 -0.4422  0.7321
 5532TIP3    H216603   5.984   4.017   0.810 -1.3353  2.9568 -0.2661
 5533TIP3   OH216604   3.236   2.015   1.233 -0.2917  0.7466  0.0470
 5533TIP3    H116605   3.186   2.045   1.156 -4.2452 -1.2108  1.5695
 5533TIP3    H216606   3.183   2.044   1.308  1.4750 -0.6097  1.9177
 5534TIP3   OH216607   6.111   0.515   3.192 -0.2326 -0.0775  0.4267
 5534TIP3    H116608   6.100   0.516   3.097 -0.9091  1.3681  0.4955
 5534TIP3    H216609   6.205   0.531   3.205 -0.0973 -0.4993  0.0090
 5535TIP3   OH216610   5.172   0.799   0.603 -0.0612 -0.0734 -0.2553
 5535TIP3    H116611   5.262   0.816   0.631 -1.2770  5.7202  1.6283
 5535TIP3    H216612   5.161   0.852   0.524 -2.3828  1.9066  1.2370
 5536TIP3   OH216613   0.805   0.659   4.328 -0.7147 -0.3311 -0.3811
 5536TIP3    H116614   0.811   0.741   4.278 -0.5002 -1.2735 -1.9530
 5536TIP3    H216615   0.795   0.688   4.419 -0.3494  1.4357 -0.8579
 5537TIP3   OH216616   1.711   3.587   2.068  0.0511 -0.7665  0.6684
 5537TIP3    H116617   1.658   3.662   2.042 -3.1951 -3.2961 -0.8996
 5537TIP3    H216618   1.801   3.611   2.045 -1.1669  1.6534 -2.2392
 5538TIP3   OH216619   1.594   3.831   1.976 -0.0289 -0.3770  0.0169
 5538TIP3    H116620   1.637   3.915   1.991 -1.0182  0.0707  0.4465
 5538TIP3    H216621   1.591   3.822   1.881  0.5598 -0.1852 -0.0254
 5539TIP3   OH216622   3.766   2.024   1.115 -0.4395  0.3121 -0.1847
 5539TIP3    H116623   3.833   2.067   1.062  0.6278  1.2050  1.7785
 5539TIP3    H216624   3.689   2.079   1.105 -0.0672  0.8162 -0.3197
 5540TIP3   OH216625   0.647   1.800   2.922  0.2924  0.1181 -0.6905
 5540TIP3    H116626   0.556   1.814   2.896  0.7707  1.7393 -1.6269
 5540TIP3    H216627   0.694   1.789   2.840  0.9423 -0.8819 -0.2050
 5541TIP3   OH216628   5.652   4.330   2.722  0.1301 -0.1923 -0.3788
 5541TIP3    H116629   5.714   4.403   2.726  0.6055 -0.6056  0.0985
 5541TIP3    H216630   5.707   4.254   2.704 -0.3247 -0.4695 -0.6049
 5542TIP3   OH216631   3.173   4.620   1.085  0.2145 -0.3425  0.1069
 5542TIP3    H116632   3.111   4.693   1.074 -0.4302 -0.7171  1.1495
 5542TIP3    H216633   3.246   4.658   1.134  1.1712  0.2757 -1.7120
 5543TIP3   OH216634   3.330   0.611   0.926  0.0447  0.0440  0.4669
 5543TIP3    H116635   3.406   0.669   0.930 -0.2200  0.3692  1.0024
 5543TIP3    H216636   3.320   0.578   1.016  0.5700 -1.3462  0.0381
 5544TIP3   OH216637   2.665   3.609   1.004 -0.4049  0.7323  0.0370
 5544TIP3    H116638   2.724   3.677   1.036  0.3773  0.5780 -1.0278
 5544TIP3    H216639   2.713   3.528   1.015 -0.4399  0.5960 -0.7454
 5545TIP3   OH216640   3.195   3.974   4.838 -0.3618 -0.0440  0.0586
 5545TIP3    H116641   3.109   3.970   4.796 -0.9213  0.2091  1.1253
 5545TIP3    H216642   3.180   3.938   4.926  0.4175  0.8234  0.5687
 5546TIP3   OH216643   1.164   2.567   2.236  0.0094  0.5540 -0.1630
 5546TIP3    H116644   1.220   2.515   2.179  0.8956  0.4947  0.7273
 5546TIP3    H216645   1.115   2.503   2.286  0.0726  0.5865 -0.0581
 5547TIP3   OH216646   4.813   2.296   2.848  0.5926  0.3937  0.1843
 5547TIP3    H116647   4.864   2.259   2.919  0.2616 -0.4397  0.0047
 5547TIP3    H216648   4.856   2.378   2.827 -0.3695  1.5932  2.5788
 5548TIP3   OH216649   3.823   3.424   4.441 -0.2246  0.0547 -0.3794
 5548TIP3    H116650   3.778   3.474   4.510 -0.2345  0.2416 -0.5200
 5548TIP3    H216651   3.761   3.421   4.369  0.0737  0.5124 -0.6596
 5549TIP3   OH216652   2.586   3.697   2.243  0.0846  0.0119  0.5733
 5549TIP3    H116653   2.611   3.721   2.332  0.2283 -2.1996  1.2004
 5549TIP3    H216654   2.494   3.670   2.251 -0.3535  1.1742 -0.2668
 5550TIP3   OH216655   4.122   5.480   4.126  0.4319 -0.3912  0.4627
 5550TIP3    H116656   4.127   5.512   4.216  0.6743 -0.7849  0.5933
 5550TIP3    H216657   4.202   5.513   4.085  1.3712 -1.9187  0.9693
 5551TIP3   OH216658   4.852   5.702   2.556 -0.3714  0.0936 -0.3242
 5551TIP3    H116659   4.801   5.702   2.475 -0.5689  1.4063 -0.2075
 5551TIP3    H216660   4.938   5.737   2.530 -0.2914  0.1035 -0.0436
 5552TIP3   OH216661   1.195   0.120   1.236 -0.1735  0.3756 -0.0868
 5552TIP3    H116662   1.160   0.208   1.246  0.7338  0.6931  0.4346
 5552TIP3    H216663   1.198   0.086   1.326  0.4073  0.1918 -0.1729
 5553TIP3   OH216664   6.293   1.958   3.665  0.7021  0.0179  0.4360
 5553TIP3    H116665   6.342   1.965   3.583 -0.6250 -1.9310 -0.5920
 5553TIP3    H216666   6.240   2.038   3.668  0.0276 -0.3380 -1.1253
 5554TIP3   OH216667   3.882   2.419   0.898  0.0054 -0.3026  0.3355
 5554TIP3    H116668   3.817   2.481   0.930  0.3613 -0.2244  0.9227
 5554TIP3    H216669   3.966   2.455   0.926  0.3069 -0.4190 -0.3883
 5555TIP3   OH216670   4.513   2.311   2.033 -0.1520  0.4237 -0.0385
 5555TIP3    H116671   4.595   2.309   1.984 -0.7819 -2.1008 -1.1479
 5555TIP3    H216672   4.458   2.375   1.986  0.2665  0.1806 -0.8743
 5556TIP3   OH216673   1.794   5.583   0.748  0.3322  0.3163 -0.1832
 5556TIP3    H116674   1.774   5.570   0.841  1.4650  0.5299  0.1106
 5556TIP3    H216675   1.710   5.603   0.707 -0.0356  1.2098  0.9736
 5557TIP3   OH216676   4.664   1.840   4.179 -0.7373 -0.2293 -0.0598
 5557TIP3    H116677   4.749   1.882   4.189 -1.3583  0.7845  1.2327
 5557TIP3    H216678   4.620   1.854   4.263 -2.3100 -0.4466 -0.8130
 5558TIP3   OH216679   5.870   5.509   0.976  0.1831 -0.1678  0.4104
 5558TIP3    H116680   5.882   5.581   1.038 -2.4240 -0.3661  1.2700
 5558TIP3    H216681   5.915   5.435   1.017  0.5522  0.3030  0.8786
 5559TIP3   OH216682   0.122   4.487   4.611 -0.0311 -0.0866 -0.0964
 5559TIP3    H116683   0.211   4.497   4.643 -0.2012 -1.1835  0.7887
 5559TIP3    H216684   0.069   4.542   4.669  0.0046  0.2204 -0.3491
 5560TIP3   OH216685   3.198   4.226   2.111 -0.5690 -0.3759 -0.2032
 5560TIP3    H116686   3.265   4.242   2.045 -0.8374 -0.3129 -0.4647
 5560TIP3    H216687   3.115   4.239   2.065 -0.7564  0.1423  0.2665
 5561TIP3   OH216688   4.980   3.789   0.613 -0.2146 -0.2369 -0.0763
 5561TIP3    H116689   5.046   3.828   0.670 -0.7237  0.7190 -0.1156
 5561TIP3    H216690   4.920   3.861   0.593 -0.2172 -0.6155 -1.5796
 5562TIP3   OH216691   2.417   0.754   3.618 -0.2499 -0.0442 -0.5948
 5562TIP3    H116692   2.355   0.748   3.545 -0.0272  1.9387 -0.9999
 5562TIP3    H216693   2.486   0.691   3.595 -0.2777  0.4033 -2.0333
 5563TIP3   OH216694   3.191   3.078   3.537  0.0781 -0.5709 -0.7010
 5563TIP3    H116695   3.171   3.112   3.624 -0.8438  0.7232 -1.3861
 5563TIP3    H216696   3.238   2.996   3.553 -0.1203 -0.3797  0.9985
 5564TIP3   OH216697   1.296   1.662   3.642 -0.6102 -0.3712  0.1900
 5564TIP3    H116698   1.316   1.724   3.572  0.4123 -2.5833 -1.6065
 5564TIP3    H216699   1.232   1.708   3.697 -0.7144  1.8309 -1.6193
 5565TIP3   OH216700   4.928   5.762   0.168  0.2551 -0.2400 -0.1878
 5565TIP3    H116701   4.924   5.701   0.094 -1.9249 -0.4915  0.0639
 5565TIP3    H216702   5.021   5.785   0.175  0.7223 -1.2845 -2.1053
 5566TIP3   OH216703   2.152   2.483   4.676 -0.2102  0.0065  0.8840
 5566TIP3    H116704   2.133   2.391   4.655  0.9018  0.0086 -0.2959
 5566TIP3    H216705   2.068   2.528   4.667 -0.5257 -0.6957  0.2216
 5567TIP3   OH216706   2.440   1.245   1.884  0.5251  0.7018 -0.1819
 5567TIP3    H116707   2.364   1.289   1.849  0.2428  0.6243  0.3236
 5567TIP3    H216708   2.503   1.315   1.901  0.9972  0.6622 -1.6215
 5568TIP3   OH216709   3.114   1.721   4.655 -0.0957  0.2908  0.7772
 5568TIP3    H116710   3.175   1.790   4.681  0.0315  0.6999 -0.5481
 5568TIP3    H216711   3.125   1.714   4.560 -2.4752  0.7304  0.4023
 5569TIP3   OH216712   5.950   2.927   4.677 -0.1308  0.1175 -0.3521
 5569TIP3    H116713   5.865   2.951   4.715  0.0620 -0.6003  0.5907
 5569TIP3    H216714   5.956   2.978   4.597 -1.3624  0.3444 -0.3261
 5570TIP3   OH216715   5.663   1.080  -0.016  0.0082  0.4484  0.3493
 5570TIP3    H116716   5.604   1.104   0.055 -0.1741  2.1653 -0.3490
 5570TIP3    H216717   5.748   1.066   0.027 -0.4477 -0.1053  1.0924
 5571TIP3   OH216718   2.035   4.304   1.817  0.3235 -0.8101 -0.2935
 5571TIP3    H116719   1.974   4.295   1.890 -0.3931 -0.6191 -0.8518
 5571TIP3    H216720   1.983   4.345   1.747  1.1940 -0.3000 -0.6611
 5572TIP3   OH216721   5.266   2.225   0.725  0.0778 -0.4615 -0.6454
 5572TIP3    H116722   5.273   2.320   0.733  1.0275 -0.6281  1.2737
 5572TIP3    H216723   5.267   2.194   0.816 -0.1453 -2.3087 -1.2378
 5573TIP3   OH216724   5.820   0.743   1.584 -0.2265  0.0631  0.1951
 5573TIP3    H116725   5.843   0.678   1.517  1.7824 -0.5272  1.3613
 5573TIP3    H216726   5.851   0.826   1.548 -1.4041  0.1559 -0.6409
 5574TIP3   OH216727   1.773   3.133   3.009  0.1368  0.2602 -0.9073
 5574TIP3    H116728   1.834   3.188   2.960  1.0085  0.4155  0.2903
 5574TIP3    H216729   1.746   3.187   3.083 -1.9105  0.3855 -1.6711
 5575TIP3   OH216730   1.791   1.844   4.759 -0.0659  0.3176 -0.1379
 5575TIP3    H116731   1.725   1.909   4.783 -0.0175  0.0948  0.6151
 5575TIP3    H216732   1.817   1.804   4.841  0.2215 -0.3596 -0.5476
 5576TIP3   OH216733   1.927   3.695   2.765 -0.3939  0.2162  0.1434
 5576TIP3    H116734   1.836   3.672   2.747 -0.0491 -0.1939 -1.2060
 5576TIP3    H216735   1.973   3.677   2.682  0.6950  1.5702  0.4159
 5577TIP3   OH216736   0.672   1.546   1.499  0.6061 -0.4349 -0.1380
 5577TIP3    H116737   0.651   1.570   1.590 -0.4741 -0.1439 -0.4481
 5577TIP3    H216738   0.598   1.491   1.471  1.6964 -1.8642 -0.3456
 5578TIP3   OH216739   4.860   3.563   0.298 -0.2749  0.2176 -1.2940
 5578TIP3    H116740   4.949   3.596   0.308 -0.1197 -0.8235  2.1127
 5578TIP3    H216741   4.871   3.473   0.267  0.0867 -0.5558  0.8819
 5579TIP3   OH216742   2.237   0.357   3.357  0.3280  0.2678 -0.3847
 5579TIP3    H116743   2.221   0.398   3.272 -0.4532 -0.5649 -0.6426
 5579TIP3    H216744   2.162   0.300   3.372 -0.2690  1.4652  1.5251
 5580TIP3   OH216745   4.806   4.729   1.136  0.6968  0.0905  0.2875
 5580TIP3    H116746   4.863   4.729   1.213 -0.3239  2.5605  1.1403
 5580TIP3    H216747   4.718   4.719   1.172  0.3794 -1.6675 -0.8536
 5581TIP3   OH216748   0.552   3.055   3.966  0.0371 -0.2637 -0.8743
 5581TIP3    H116749   0.619   3.060   4.034 -0.6964 -0.0758 -0.1523
 5581TIP3    H216750   0.582   3.115   3.898  0.2243  0.3945 -0.2197
 5582TIP3   OH216751   5.728   4.715   4.713  0.0306 -0.3965 -0.3658
 5582TIP3    H116752   5.696   4.744   4.798 -0.6312  1.9984 -1.3607
 5582TIP3    H216753   5.662   4.654   4.681 -0.0547 -0.7795  0.5133
 5583TIP3   OH216754   3.257   0.562   2.758 -0.4856  0.0180 -0.0452
 5583TIP3    H116755   3.168   0.590   2.780  0.2533  2.8484 -0.2625
 5583TIP3    H216756   3.293   0.531   2.841 -1.2164  0.1937  0.3497
 5584TIP3   OH216757   5.053   3.640   2.756 -0.1622 -0.0398 -0.3254
 5584TIP3    H116758   5.046   3.550   2.787  0.3338 -0.5718 -1.7082
 5584TIP3    H216759   5.060   3.633   2.661  0.7136  1.4063 -0.4011
 5585TIP3   OH216760   3.139   2.208   2.445 -0.2642  0.0248  0.2505
 5585TIP3    H116761   3.085   2.138   2.480  0.4400 -0.2430  0.8345
 5585TIP3    H216762   3.165   2.178   2.358  0.9420 -0.9811  0.9078
 5586TIP3   OH216763   0.337   2.662   3.751 -0.4026 -0.0626  0.1919
 5586TIP3    H116764   0.366   2.581   3.793 -1.2138 -0.1117  0.6623
 5586TIP3    H216765   0.343   2.643   3.657  0.4270 -0.3013  0.2823
 5587TIP3   OH216766   6.174   3.550   1.365  0.3161 -0.2394 -0.0690
 5587TIP3    H116767   6.165   3.461   1.399 -2.6003 -0.0575 -0.0589
 5587TIP3    H216768   6.190   3.538   1.271 -1.0432 -0.8478 -0.2562
 5588TIP3   OH216769   4.735   2.607   1.775  0.3132 -0.5666  0.0925
 5588TIP3    H116770   4.766   2.685   1.730 -0.6320  0.7309  1.5910
 5588TIP3    H216771   4.714   2.545   1.705  0.0340  0.9313 -1.1887
 5589TIP3   OH216772   0.880   5.858   1.425  0.0252  0.4416  0.1152
 5589TIP3    H116773   0.893   5.945   1.389 -0.3746  1.0146  1.2962
 5589TIP3    H216774   0.943   5.803   1.380  1.1052  1.5873  0.1958
 5590TIP3   OH216775   0.415   1.149   0.792 -0.1081 -0.8302  0.4980
 5590TIP3    H116776   0.419   1.100   0.710  0.2942  1.6873 -1.1038
 5590TIP3    H216777   0.487   1.115   0.844  0.2278 -1.8390 -0.5973
 5591TIP3   OH216778   1.746   5.771   4.329  0.3493  0.4443 -0.2001
 5591TIP3    H116779   1.839   5.785   4.312  0.4010  0.2912 -0.0457
 5591TIP3    H216780   1.733   5.806   4.418  0.2420  0.5433 -0.2542
 5592TIP3   OH216781   5.760   1.579   0.718 -0.7608 -0.1321 -0.3169
 5592TIP3    H116782   5.755   1.483   0.728 -0.8639 -0.2631 -1.5095
 5592TIP3    H216783   5.852   1.600   0.737 -0.7412 -0.4521 -0.0321
 5593TIP3   OH216784   1.827   4.751   3.890 -0.3571  0.2184  0.0881
 5593TIP3    H116785   1.791   4.804   3.961 -1.1647  0.5467 -0.5527
 5593TIP3    H216786   1.919   4.776   3.886 -0.1671 -0.1720  1.3393
 5594TIP3   OH216787   1.606   4.691   1.380 -0.1469 -0.7783  0.9814
 5594TIP3    H116788   1.526   4.715   1.428 -1.2368 -1.6852 -0.3224
 5594TIP3    H216789   1.576   4.667   1.293  1.7406  0.2978 -0.0169
 5595TIP3   OH216790   0.842   1.443   3.795  0.1453 -0.4404  0.1233
 5595TIP3    H116791   0.750   1.457   3.771 -0.8213 -1.7555  2.6776
 5595TIP3    H216792   0.890   1.512   3.748 -1.9164 -0.5508 -2.3702
 5596TIP3   OH216793   1.223   4.856   2.550  0.1261  0.6137  0.6569
 5596TIP3    H116794   1.155   4.920   2.567 -0.0181  1.5888 -2.8269
 5596TIP3    H216795   1.184   4.794   2.489  1.6692 -0.1547  0.3754
 5597TIP3   OH216796   2.229   5.417   1.621 -0.2032  0.3791 -0.0009
 5597TIP3    H116797   2.138   5.443   1.607  0.0632  1.8682  0.8269
 5597TIP3    H216798   2.253   5.369   1.542 -2.1837 -1.4709  0.4501
 5598TIP3   OH216799   4.764   4.995   3.710 -0.4408 -0.4010  0.2570
 5598TIP3    H116800   4.763   5.091   3.703 -1.3018 -0.3324  1.1806
 5598TIP3    H216801   4.722   4.965   3.629 -2.2475  0.0845  0.9799
 5599TIP3   OH216802   6.107   4.081   2.951  0.2947  0.6042  0.4050
 5599TIP3    H116803   6.016   4.052   2.943  0.4686  0.4098 -1.2733
 5599TIP3    H216804   6.115   4.111   3.042 -0.6932 -1.8302  1.3781
 5600TIP3   OH216805   4.265   5.276   1.704  0.0070  0.1224  0.4459
 5600TIP3    H116806   4.295   5.258   1.794 -0.5139 -1.8065  0.2725
 5600TIP3    H216807   4.334   5.241   1.648  0.5628  1.7597  0.0531
 5601TIP3   OH216808   6.335   2.009   4.019  0.4182 -0.0600 -0.0285
 5601TIP3    H116809   6.399   2.022   3.949 -0.4689  1.6411 -0.5984
 5601TIP3    H216810   6.250   2.018   3.975 -0.1721  0.2309  1.1229
 5602TIP3   OH216811   3.023   2.702   4.491 -0.2223  0.0780 -0.3506
 5602TIP3    H116812   3.106   2.743   4.516  1.0191 -0.9237 -2.5414
 5602TIP3    H216813   2.988   2.760   4.423 -1.5638  0.7021  0.8320
 5603TIP3   OH216814   0.920   4.784   1.787  0.0022  0.0618  0.1013
 5603TIP3    H116815   0.953   4.810   1.701  0.0999 -1.6247 -0.4068
 5603TIP3    H216816   0.827   4.807   1.784  0.4684  2.2451  0.4946
 5604TIP3   OH216817   0.991   0.453   4.690 -0.4249 -0.4149  0.7445
 5604TIP3    H116818   1.069   0.502   4.665  0.2237 -1.7106  0.0824
 5604TIP3    H216819   0.987   0.461   4.785  0.0002  0.4104  0.7028
 5605TIP3   OH216820   1.453   1.775   0.821 -0.3856 -0.1197  0.0882
 5605TIP3    H116821   1.448   1.751   0.729  0.9324  0.2016 -0.0849
 5605TIP3    H216822   1.514   1.849   0.824  1.3357 -1.5074  1.4558
 5606TIP3   OH216823   4.183   1.431   2.466 -0.0930  0.4450  0.4023
 5606TIP3    H116824   4.169   1.340   2.442  0.0665  0.7029 -0.7288
 5606TIP3    H216825   4.119   1.447   2.535 -1.0682 -0.1585 -0.3228
 5607TIP3   OH216826   3.850   1.610   1.425 -0.2330  0.1872  0.5410
 5607TIP3    H116827   3.891   1.604   1.339 -2.4250  0.9661 -0.6337
 5607TIP3    H216828   3.828   1.703   1.435  0.9425  0.2991  2.4368
 5608TIP3   OH216829   2.892   3.165   3.002  0.5694  0.6938  0.3875
 5608TIP3    H116830   2.961   3.229   3.020 -0.1353  1.4704  0.4285
 5608TIP3    H216831   2.813   3.206   3.038 -0.2051  0.5679 -1.1045
 5609TIP3   OH216832   4.691   2.883   4.037 -0.1411 -0.1987 -0.2572
 5609TIP3    H116833   4.653   2.939   4.104  0.9172  0.7709 -0.4357
 5609TIP3    H216834   4.618   2.859   3.981 -0.6085  1.0945 -0.2313
 5610TIP3   OH216835   3.023   3.954   3.660 -0.3322  0.0386  0.4856
 5610TIP3    H116836   3.118   3.958   3.666 -0.0495 -0.1979 -2.4503
 5610TIP3    H216837   2.992   3.988   3.744  2.3059 -0.8055  1.9238
 5611TIP3   OH216838   5.210   4.124   1.656 -0.4207  0.2013  0.0285
 5611TIP3    H116839   5.134   4.139   1.712 -0.4814  1.6772 -0.4163
 5611TIP3    H216840   5.174   4.121   1.567 -0.2025 -1.1690 -0.0375
 5612TIP3   OH216841   0.549   0.777   4.538  0.1221 -0.2083  0.2294
 5612TIP3    H116842   0.501   0.835   4.597 -0.0144  0.4230 -0.4904
 5612TIP3    H216843   0.492   0.767   4.462 -0.0482 -1.6509  0.5171
 5613TIP3   OH216844   3.316   5.886   2.924 -0.4696  0.1113  0.2523
 5613TIP3    H116845   3.316   5.937   3.005  0.3422  0.8151 -0.1744
 5613TIP3    H216846   3.273   5.803   2.947  1.6114 -0.5724  1.9255
 5614TIP3   OH216847   4.060   5.702   3.658  0.2327  0.0085 -0.3605
 5614TIP3    H116848   4.093   5.750   3.582 -0.0439 -0.1589 -0.5948
 5614TIP3    H216849   4.079   5.758   3.733  0.2565  0.3084 -0.5870
 5615TIP3   OH216850   5.459   1.359   2.548 -0.1569  0.5404  0.1636
 5615TIP3    H116851   5.422   1.383   2.633 -0.1280  0.2717  0.2528
 5615TIP3    H216852   5.552   1.345   2.564 -0.2331  0.0350  0.1850
 5616TIP3   OH216853   0.129   2.047   3.156  0.5522  0.0899 -0.5937
 5616TIP3    H116854   0.039   2.052   3.125 -0.1476  0.0433  1.2917
 5616TIP3    H216855   0.150   2.137   3.182  1.1686  0.1530 -1.2626
 5617TIP3   OH216856   4.269   0.327   2.956 -0.1045  0.4132 -0.0932
 5617TIP3    H116857   4.291   0.268   2.884  0.6942  0.0218  0.4455
 5617TIP3    H216858   4.347   0.325   3.012 -0.4127  1.3072  0.3806
 5618TIP3   OH216859   5.003   5.311   0.700 -0.2700  0.2262 -0.4496
 5618TIP3    H116860   4.955   5.251   0.756  1.1132  1.4924  2.3148
 5618TIP3    H216861   4.944   5.327   0.625 -2.5374 -1.0374  0.9500
 5619TIP3   OH216862   3.735   1.843   1.345 -0.1630  0.0827 -0.1088
 5619TIP3    H116863   3.741   1.905   1.272  0.5909 -1.7718 -1.7194
 5619TIP3    H216864   3.700   1.763   1.306  2.9957 -1.9518  0.8139
 5620TIP3   OH216865   3.895   3.154   0.436  0.1380 -0.8931  0.2259
 5620TIP3    H116866   3.962   3.112   0.382  2.1624 -0.0879  1.9573
 5620TIP3    H216867   3.884   3.241   0.398 -0.3426 -1.2011 -0.3629
 5621TIP3   OH216868   5.060  -0.001   3.740  0.5405  0.4429  0.4379
 5621TIP3    H116869   5.008   0.046   3.806 -0.7185 -1.1676  0.6339
 5621TIP3    H216870   5.029   0.033   3.657 -0.7730 -0.4104  0.5584
 5622TIP3   OH216871   2.884   2.779   3.242 -0.3126 -0.5436 -0.0852
 5622TIP3    H116872   2.960   2.831   3.218  0.2314 -0.5111  1.5817
 5622TIP3    H216873   2.896   2.696   3.196  1.3923 -0.9859  1.0704
 5623TIP3   OH216874   1.339   1.254   3.887  0.1147  0.8365  0.1862
 5623TIP3    H116875   1.345   1.349   3.879  0.5802  1.2442  3.6793
 5623TIP3    H216876   1.425   1.227   3.919 -0.7901 -0.3209  1.8244
 5624TIP3   OH216877   3.992   5.687   2.396  0.0235 -0.5509 -0.2472
 5624TIP3    H116878   3.910   5.641   2.414 -0.7014  1.3870  1.9682
 5624TIP3    H216879   4.054   5.651   2.458  0.7151 -1.5319 -1.4630
 5625TIP3   OH216880   5.685   3.893   3.820 -0.1657 -0.4957 -0.2163
 5625TIP3    H116881   5.642   3.882   3.735 -0.9634  0.0240  0.1064
 5625TIP3    H216882   5.621   3.860   3.883  0.5380 -1.1493  0.1661
 5626TIP3   OH216883   1.927   3.414   1.404  0.7320  0.1570 -0.4694
 5626TIP3    H116884   1.949   3.369   1.485  0.7786 -1.3299 -1.2636
 5626TIP3    H216885   1.971   3.499   1.410 -1.7739  1.4403  2.3975
 5627TIP3   OH216886   0.864   0.172   4.992  0.5685  0.0136  0.5567
 5627TIP3    H116887   0.842   0.126   4.911  0.0095  0.6530  0.3402
 5627TIP3    H216888   0.934   0.232   4.967 -1.1709  1.9000 -0.0246
 5628TIP3   OH216889   4.138   5.433   4.917 -0.0764 -0.4332  0.3720
 5628TIP3    H116890   4.202   5.467   4.980  0.4317  1.5176 -1.0682
 5628TIP3    H216891   4.081   5.508   4.898  0.6404 -0.4858 -2.4678
 5629TIP3   OH216892   2.239   3.769   3.830 -0.6778 -0.0678  0.0547
 5629TIP3    H116893   2.198   3.771   3.744 -1.0111 -3.1024  0.0353
 5629TIP3    H216894   2.332   3.779   3.813 -0.7916 -0.1610 -0.6357
 5630TIP3   OH216895   5.903   2.845   4.996  0.5427  0.4946 -0.4006
 5630TIP3    H116896   5.875   2.936   5.007 -2.5826 -0.5890  2.3144
 5630TIP3    H216897   5.940   2.821   5.080  1.5065 -0.7356 -1.1424
 5631TIP3   OH216898   2.065   0.213   2.635  0.3940 -0.4248  0.2115
 5631TIP3    H116899   2.064   0.231   2.541  1.1588  0.7297  0.4059
 5631TIP3    H216900   1.975   0.189   2.656  0.4837 -1.9750 -1.0333
 5632TIP3   OH216901   5.436   3.909   4.672 -0.0176  0.4215  1.1110
 5632TIP3    H116902   5.490   3.977   4.713  0.8910  0.4107 -0.0088
 5632TIP3    H216903   5.461   3.912   4.580 -2.5802  1.0212  0.3669
 5633TIP3   OH216904   2.132   5.798   1.495  0.6813  0.0805 -0.6497
 5633TIP3    H116905   2.051   5.843   1.473  0.5314 -0.3959 -1.1062
 5633TIP3    H216906   2.200   5.864   1.487  0.4180  0.3185 -0.9258
 5634TIP3   OH216907   1.947   1.420   3.365  0.4098  0.3659 -0.1999
 5634TIP3    H116908   2.000   1.422   3.444  0.1662  0.3920 -0.0367
 5634TIP3    H216909   1.935   1.513   3.342  0.6903  0.3511 -0.4089
 5635TIP3   OH216910   2.406   1.479   2.773  0.3681 -0.4305  0.3699
 5635TIP3    H116911   2.349   1.425   2.718  1.4898 -1.3857  0.1286
 5635TIP3    H216912   2.376   1.462   2.862  0.4074 -1.0740  0.2602
 5636TIP3   OH216913   2.389   0.201   4.165 -0.2690  0.1643 -0.0735
 5636TIP3    H116914   2.332   0.190   4.241  1.3856  1.2848  1.4043
 5636TIP3    H216915   2.460   0.139   4.179  0.2188  0.6083 -0.5300
 5637TIP3   OH216916   0.961   1.705   1.227 -0.1950 -0.1393  0.4493
 5637TIP3    H116917   0.985   1.797   1.213 -1.2613  0.0894  0.0486
 5637TIP3    H216918   1.045   1.658   1.226  0.2242  0.5608 -1.3403
 5638TIP3   OH216919   5.021   3.217   2.325  0.0430 -0.4442  0.1247
 5638TIP3    H116920   5.030   3.123   2.309  0.3754 -0.3019 -0.5624
 5638TIP3    H216921   4.973   3.223   2.407 -2.2304 -1.2344 -1.0588
 5639TIP3   OH216922   4.897   2.373   2.034  0.1251 -0.7858 -0.2057
 5639TIP3    H116923   4.927   2.339   2.118  0.5034 -2.0167 -0.8136
 5639TIP3    H216924   4.861   2.297   1.989 -2.9453  0.3884  0.0195
 5640TIP3   OH216925   3.780   3.495   1.626  0.3341 -0.1852 -0.2560
 5640TIP3    H116926   3.865   3.533   1.606 -0.1918  1.9159  1.1297
 5640TIP3    H216927   3.801   3.417   1.679  1.4025 -0.2011 -0.6779
 5641TIP3   OH216928   0.428   0.717   4.301  0.3281  0.2021  0.5306
 5641TIP3    H116929   0.473   0.650   4.251  0.9102 -0.2415  1.6358
 5641TIP3    H216930   0.356   0.746   4.244  2.2322  1.2580 -1.4672
 5642TIP3   OH216931   2.408   4.000   0.583 -0.1530 -0.3126 -0.4506
 5642TIP3    H116932   2.430   3.962   0.668  0.2495  2.6488  0.8779
 5642TIP3    H216933   2.329   4.052   0.599  2.0158  3.4254 -0.7864
 5643TIP3   OH216934   4.652   5.203   4.298 -0.0943 -0.4302 -0.4779
 5643TIP3    H116935   4.698   5.242   4.223 -2.8368  1.0690 -1.5278
 5643TIP3    H216936   4.643   5.110   4.274  1.8188 -0.6715 -0.4504
 5644TIP3   OH216937   2.675   3.533   3.329 -0.4011  0.2832  0.1473
 5644TIP3    H116938   2.724   3.464   3.375  0.8670  0.2596 -1.1588
 5644TIP3    H216939   2.617   3.570   3.396  2.1748  1.0464  2.1255
 5645TIP3   OH216940   5.923   5.259   5.143 -0.4373  0.4018 -0.3147
 5645TIP3    H116941   5.904   5.238   5.051 -1.2599  0.0573 -0.0758
 5645TIP3    H216942   5.855   5.323   5.166  1.5018  2.8180 -0.7912
 5646TIP3   OH216943   4.448   3.778   1.765  0.2651  0.3482  0.2496
 5646TIP3    H116944   4.405   3.707   1.716 -0.0998  0.3794  0.5155
 5646TIP3    H216945   4.499   3.824   1.699 -0.8381  0.8654 -0.2830
 5647TIP3   OH216946   4.729   3.993   2.921 -0.1839  0.4757 -0.1541
 5647TIP3    H116947   4.633   3.997   2.921 -0.1919  0.2904  0.0480
 5647TIP3    H216948   4.754   4.037   2.840 -0.5309 -2.2293 -1.8370
 5648TIP3   OH216949   5.855   1.727   2.039 -0.4329  0.5581 -0.0490
 5648TIP3    H116950   5.783   1.738   2.102 -1.2984  2.3969 -1.2877
 5648TIP3    H216951   5.813   1.687   1.962  0.6122 -1.6600  0.4642
 5649TIP3   OH216952   1.552   5.348   0.742 -0.5563  0.0305 -0.4953
 5649TIP3    H116953   1.472   5.329   0.693 -0.8637  1.0747 -0.4242
 5649TIP3    H216954   1.613   5.379   0.676 -0.1248 -0.9485 -0.5795
 5650TIP3   OH216955   2.956   0.531   5.073  0.5669  0.3647 -0.5150
 5650TIP3    H116956   2.894   0.604   5.072  0.4080  0.2787  0.9165
 5650TIP3    H216957   2.932   0.478   4.997 -0.8776  0.5420 -0.2153
 5651TIP3   OH216958   0.350   4.383   4.935  0.5544  0.2553 -0.3270
 5651TIP3    H116959   0.294   4.452   4.970  0.5679  0.8626 -1.4432
 5651TIP3    H216960   0.427   4.429   4.901  0.9549 -0.3988 -0.3198
 5652TIP3   OH216961   4.049   3.694   0.805 -0.0422 -0.1751  0.0268
 5652TIP3    H116962   4.129   3.732   0.769  0.9654 -0.6120  1.7111
 5652TIP3    H216963   3.991   3.769   0.821 -0.3157  0.0774 -1.9008
 5653TIP3   OH216964   0.826   2.833   2.856  0.4275  0.0710 -0.6137
 5653TIP3    H116965   0.886   2.845   2.930  1.3344 -0.4870 -1.2430
 5653TIP3    H216966   0.838   2.742   2.830 -1.0190 -0.1778 -0.4913
 5654TIP3   OH216967   4.744   0.486   2.091 -0.8831  0.5810  0.3122
 5654TIP3    H116968   4.761   0.424   2.020 -1.6094  0.6962  0.0285
 5654TIP3    H216969   4.810   0.554   2.080  1.1390 -1.0218  1.7237
 5655TIP3   OH216970   0.039   4.118   2.321  0.3673 -0.2428  0.5549
 5655TIP3    H116971  -0.035   4.084   2.271 -0.5487  1.5281  0.5964
 5655TIP3    H216972   0.004   4.133   2.409  1.1034 -0.4653  0.8946
 5656TIP3   OH216973   5.474   4.165   2.845  0.3692 -0.0958 -0.2340
 5656TIP3    H116974   5.451   4.219   2.921 -1.2824 -2.9625  1.4443
 5656TIP3    H216975   5.548   4.212   2.805  0.1871  2.4367  2.0796
 5657TIP3   OH216976   0.020   4.604   4.834 -0.7457 -0.5300 -0.4709
 5657TIP3    H116977   0.077   4.594   4.910 -0.2706 -0.5092 -0.8238
 5657TIP3    H216978  -0.018   4.691   4.844 -0.4613 -0.4135 -0.4135
 5658TIP3   OH216979   2.059   5.733   4.932  0.1388  0.1010  0.5392
 5658TIP3    H116980   2.079   5.823   4.960  1.1647  0.0840 -0.0870
 5658TIP3    H216981   2.040   5.686   5.013  0.3594  0.6944  0.9447
 5659TIP3   OH216982   0.854   0.819   1.108 -0.2846 -0.1216 -0.4735
 5659TIP3    H116983   0.866   0.910   1.137  0.4125 -1.0940  2.6192
 5659TIP3    H216984   0.841   0.826   1.013 -1.0938  3.2563 -0.2404
 5660TIP3   OH216985   0.633   3.752   0.285  0.0931 -0.4606 -0.6353
 5660TIP3    H116986   0.637   3.784   0.375  0.0902 -0.7172 -0.5422
 5660TIP3    H216987   0.715   3.703   0.273  0.7040  0.6498 -1.1946
 5661TIP3   OH216988   4.074   5.586   4.380 -0.2266  0.2466 -0.1557
 5661TIP3    H116989   4.035   5.653   4.325  0.7284 -1.2557 -2.8630
 5661TIP3    H216990   4.096   5.631   4.462 -1.3318  2.7014 -1.1184
 5662TIP3   OH216991   1.991   3.160   4.381  0.2345 -0.0368  0.2948
 5662TIP3    H116992   2.052   3.116   4.321 -0.7178  1.0505 -1.5759
 5662TIP3    H216993   1.904   3.136   4.348 -0.3125  2.6408 -0.4104
 5663TIP3   OH216994   5.028   4.728   4.685 -0.2704  0.0824  0.3654
 5663TIP3    H116995   4.957   4.670   4.712 -0.3202 -0.5996 -1.1376
 5663TIP3    H216996   5.107   4.691   4.724 -0.8557  1.8452  3.5812
 5664TIP3   OH216997   0.361   1.237   1.864  0.3006  0.1571  0.4513
 5664TIP3    H116998   0.319   1.154   1.845 -0.2760  0.0083  2.1790
 5664TIP3    H216999   0.449   1.229   1.827 -0.0913 -0.8244 -0.2829
 5665TIP3   OH217000   0.278   2.902   4.423  0.4676 -0.0101 -0.4220
 5665TIP3    H117001   0.228   2.979   4.448  0.3251 -0.7836  1.8913
 5665TIP3    H217002   0.213   2.833   4.414  0.8015 -0.3267 -0.4488
 5666TIP3   OH217003   0.858   4.560   3.370 -0.3037  0.0428  0.1229
 5666TIP3    H117004   0.794   4.501   3.411 -0.6531  0.1487 -0.2640
 5666TIP3    H217005   0.830   4.567   3.279 -1.3635  2.2440  0.5542
 5667TIP3   OH217006   1.025   2.136   3.433 -0.0056 -0.5509  0.2504
 5667TIP3    H117007   1.103   2.178   3.470 -0.2123  0.7538 -0.7055
 5667TIP3    H217008   0.957   2.151   3.498 -0.7164  2.9363 -1.0550
 5668TIP3   OH217009   5.386   3.126   1.324 -0.0300 -0.1761 -0.3421
 5668TIP3    H117010   5.363   3.108   1.233 -0.8398 -0.1922 -0.1393
 5668TIP3    H217011   5.309   3.169   1.361 -0.0764 -1.0138  0.5897
 5669TIP3   OH217012   4.259   1.164   4.392 -0.4710  0.3025 -0.8240
 5669TIP3    H117013   4.260   1.101   4.464  0.6843  0.9305 -0.2572
 5669TIP3    H217014   4.251   1.249   4.434  1.8408  0.8159 -1.2666
 5670TIP3   OH217015   1.788   5.447  -0.019 -0.4037  0.3376 -0.5361
 5670TIP3    H117016   1.797   5.542  -0.026 -3.4652  0.8841  1.1265
 5670TIP3    H217017   1.795   5.429   0.074 -0.0024 -1.0911 -0.8161
 5671TIP3   OH217018   3.135   5.214   1.405 -0.3081 -0.1483  0.4711
 5671TIP3    H117019   3.209   5.271   1.422  0.0339 -1.4769  4.4762
 5671TIP3    H217020   3.058   5.270   1.421 -0.0477  0.0446  1.0836
 5672TIP3   OH217021   2.343   5.220   2.700  0.1904  0.0750  0.6534
 5672TIP3    H117022   2.418   5.245   2.754  1.2358  0.0273 -0.7227
 5672TIP3    H217023   2.354   5.126   2.686  0.5616  0.2809 -0.5411
 5673TIP3   OH217024   5.748   1.313   4.332  0.5054 -0.0012 -0.3258
 5673TIP3    H117025   5.750   1.404   4.360  0.2983 -0.2999  0.7032
 5673TIP3    H217026   5.840   1.289   4.322  0.5722  0.2222 -0.2604
 5674TIP3   OH217027   4.671   3.565   1.874 -0.1657  0.3342  0.5238
 5674TIP3    H117028   4.725   3.612   1.938  2.5721 -0.8698 -0.7246
 5674TIP3    H217029   4.697   3.600   1.789 -0.2472 -1.2822 -0.2206
 5675TIP3   OH217030   2.886   2.551   1.425 -0.5283 -0.2152  0.0454
 5675TIP3    H117031   2.979   2.550   1.404 -0.8663 -0.5487 -1.6029
 5675TIP3    H217032   2.845   2.503   1.353 -2.2383  2.0122 -0.5855
 5676TIP3   OH217033   5.691   2.241   0.214 -0.2126 -0.6555 -0.3465
 5676TIP3    H117034   5.696   2.247   0.310  1.3029 -0.3047 -0.4354
 5676TIP3    H217035   5.681   2.332   0.185  0.7050 -0.6244 -0.5819
 5677TIP3   OH217036   2.156   3.258   1.300  0.8083 -0.3505 -0.2575
 5677TIP3    H117037   2.151   3.314   1.223 -0.6917  1.5224  1.1129
 5677TIP3    H217038   2.196   3.312   1.367 -0.4695 -0.9641  1.0552
 5678TIP3   OH217039   3.353   1.059   3.336 -0.1665  0.2618 -0.1199
 5678TIP3    H117040   3.347   1.065   3.431 -1.1996  0.1812 -0.1665
 5678TIP3    H217041   3.280   1.111   3.304  1.7871  2.6764 -0.9792
 5679TIP3   OH217042   1.841   1.221   1.236 -0.4192  0.4155 -0.7331
 5679TIP3    H117043   1.835   1.147   1.177 -0.1124  0.2428 -0.5532
 5679TIP3    H217044   1.769   1.279   1.211 -0.4591  0.2108 -1.0856
 5680TIP3   OH217045   2.945   3.229   4.521 -0.2416 -0.1372 -0.0767
 5680TIP3    H117046   3.003   3.297   4.556  2.2554 -2.2865  0.2908
 5680TIP3    H217047   2.897   3.273   4.450 -0.9882  2.7196  2.0333
 5681TIP3   OH217048   4.260   2.985   0.365 -0.1187 -0.4975  0.7719
 5681TIP3    H117049   4.259   3.068   0.317 -2.5149  0.2414  1.9365
 5681TIP3    H217050   4.283   3.010   0.454 -1.3635 -0.9669  1.2489
 5682TIP3   OH217051   5.949   3.023   3.318 -0.2523  0.4074  0.2291
 5682TIP3    H117052   5.954   3.104   3.369 -0.4368 -0.1398  1.1280
 5682TIP3    H217053   5.998   2.959   3.369 -1.7926 -0.5665  0.5520
 5683TIP3   OH217054   3.460   0.323   0.355  0.4729 -0.3471  0.1337
 5683TIP3    H117055   3.386   0.384   0.344  0.7070 -0.3315 -1.6417
 5683TIP3    H217056   3.537   0.379   0.349  0.6838 -0.2686  2.6201
 5684TIP3   OH217057   5.550   4.444   0.173  0.3954  0.0601  0.0978
 5684TIP3    H117058   5.464   4.444   0.130 -0.0367 -0.3437  0.9369
 5684TIP3    H217059   5.539   4.501   0.249  0.5027 -0.9392  0.8878
 5685TIP3   OH217060   1.232   5.929   2.758  0.5813 -0.0089  0.6107
 5685TIP3    H117061   1.188   6.009   2.731  0.3353 -0.2348  0.3342
 5685TIP3    H217062   1.212   5.866   2.689  1.3441 -0.1146  0.4752
 5686TIP3   OH217063   1.028   4.377   2.885 -0.1572 -0.1620  0.2506
 5686TIP3    H117064   1.059   4.320   2.815  1.0973  2.8112 -1.8159
 5686TIP3    H217065   0.947   4.415   2.852 -0.8152 -0.4750  1.4468
 5687TIP3   OH217066   4.149   5.380   1.465 -0.2572 -0.1678 -0.8295
 5687TIP3    H117067   4.189   5.467   1.461  1.5241 -0.9393 -0.7453
 5687TIP3    H217068   4.162   5.352   1.556  0.2867 -1.0058 -1.1579
 5688TIP3   OH217069   3.858   1.209   1.159  0.1081  0.6873 -0.3940
 5688TIP3    H117070   3.908   1.136   1.196  0.4148  1.0770 -0.0338
 5688TIP3    H217071   3.819   1.252   1.235 -0.4174  0.6507 -0.6400
 5689TIP3   OH217072   0.489   4.173   2.359 -0.2831 -0.4545  0.3544
 5689TIP3    H117073   0.402   4.178   2.398  0.7003 -1.4456  2.8833
 5689TIP3    H217074   0.501   4.081   2.337 -0.2921 -0.1270 -1.1603
 5690TIP3   OH217075   4.453   2.286   4.884 -0.1046 -0.0729 -0.0046
 5690TIP3    H117076   4.382   2.310   4.824 -0.6032 -0.8847  0.2502
 5690TIP3    H217077   4.533   2.317   4.841 -0.5872  0.6810 -0.3818
 5691TIP3   OH217078   0.444   3.476   4.292  0.0390 -0.1553 -0.1766
 5691TIP3    H117079   0.474   3.403   4.347  1.5238 -0.1927 -0.9822
 5691TIP3    H217080   0.496   3.551   4.322 -2.6793  1.0854  1.8424
 5692TIP3   OH217081   1.437   2.779   5.002  0.2428 -0.1657 -0.2984
 5692TIP3    H117082   1.501   2.828   4.951  0.3883 -0.3326 -0.2764
 5692TIP3    H217083   1.477   2.770   5.089  0.6966 -1.2763 -0.6165
 5693TIP3   OH217084   3.093   0.322   4.291  0.4691 -0.1859  0.5142
 5693TIP3    H117085   3.132   0.285   4.212  0.3146  0.4351  0.1436
 5693TIP3    H217086   3.014   0.367   4.260 -1.1365 -2.2471  1.3456
 5694TIP3   OH217087   1.097   0.569   3.227 -0.4741 -0.8900  0.2310
 5694TIP3    H117088   1.098   0.625   3.305 -1.2455 -2.6059  1.5315
 5694TIP3    H217089   1.027   0.605   3.173 -0.5524 -0.2421  0.7460
 5695TIP3   OH217090   4.068   4.388   0.104 -0.0913 -0.1786 -0.4852
 5695TIP3    H117091   4.068   4.293   0.115 -2.0857 -0.1087  0.6290
 5695TIP3    H217092   4.159   4.414   0.116  0.1853 -1.7675  1.4051
 5696TIP3   OH217093   3.351   2.431   3.771  0.4855  0.3694 -0.0976
 5696TIP3    H117094   3.257   2.440   3.786  0.5443  0.7392  0.0809
 5696TIP3    H217095   3.364   2.339   3.748  0.1900  0.1329  0.6717
 5697TIP3   OH217096   3.412   5.698   3.305 -0.1277  0.4328  0.0513
 5697TIP3    H117097   3.486   5.657   3.259  0.3651  0.3434  0.9101
 5697TIP3    H217098   3.394   5.777   3.255  1.4259  1.1542  0.5734
 5698TIP3   OH217099   3.802   2.186   2.528 -0.2739  0.3718 -0.0712
 5698TIP3    H117100   3.859   2.116   2.559 -0.3222  0.9430  1.3715
 5698TIP3    H217101   3.860   2.242   2.476  0.2935  0.4985  0.6887
 5699TIP3   OH217102   2.084   4.120   2.239  0.4912 -0.4741  0.6167
 5699TIP3    H117103   2.150   4.175   2.282 -0.0646  0.0559  0.8029
 5699TIP3    H217104   2.117   4.107   2.151  1.9262 -2.0195  1.3181
 5700TIP3   OH217105   3.059   5.612   2.079 -0.1298 -0.0825 -0.0990
 5700TIP3    H117106   3.081   5.673   2.008 -0.6993  2.4356  1.7412
 5700TIP3    H217107   3.141   5.565   2.096  0.1426 -0.3938 -2.0381
 5701TIP3   OH217108   6.199   3.298   4.698  0.2644  0.2560  0.0076
 5701TIP3    H117109   6.230   3.382   4.665 -1.7559  0.5566 -1.3119
 5701TIP3    H217110   6.255   3.234   4.653  1.3757  0.8293  0.5186
 5702TIP3   OH217111   0.937   1.356   2.256  0.1604 -0.1777  0.4953
 5702TIP3    H117112   0.978   1.365   2.170  0.7177 -0.2724  0.7446
 5702TIP3    H217113   0.975   1.277   2.293  0.3739  0.1840  1.0672
 5703TIP3   OH217114   3.087   3.894   5.085  0.1024  0.4003  0.1547
 5703TIP3    H117115   3.001   3.851   5.076  0.7564 -0.7330 -0.9977
 5703TIP3    H217116   3.066   3.987   5.094 -1.2498  0.1586 -0.2132
 5704TIP3   OH217117   4.099   3.098   4.146 -0.3764  0.5288  0.2555
 5704TIP3    H117118   4.093   3.080   4.240  1.7101  0.3869  0.4118
 5704TIP3    H217119   4.142   3.183   4.140  2.9103 -1.0364 -0.4951
 5705TIP3   OH217120   1.870   2.624   0.910 -0.3152 -0.0159 -0.3520
 5705TIP3    H117121   1.939   2.593   0.968  0.1833  0.3311 -0.7545
 5705TIP3    H217122   1.829   2.544   0.876  0.3521 -0.2370 -0.6610
 5706TIP3   OH217123   4.961   5.738   1.126 -0.0478  0.5770  0.3892
 5706TIP3    H117124   4.941   5.655   1.081  0.9461  0.5026  0.0734
 5706TIP3    H217125   5.046   5.724   1.166  0.5296  1.7359 -0.3816
 5707TIP3   OH217126   6.049   2.818   0.830  0.1573 -0.0462  0.1275
 5707TIP3    H117127   6.084   2.904   0.807 -0.1277 -0.6502 -2.9846
 5707TIP3    H217128   5.965   2.813   0.785 -0.7697 -1.2582  1.8622
 5708TIP3   OH217129   5.230   4.247   3.529 -0.1844 -0.7029 -0.0653
 5708TIP3    H117130   5.148   4.207   3.501 -0.0348 -2.3487  1.6095
 5708TIP3    H217131   5.204   4.323   3.581 -0.5963 -0.6065 -0.4039
 5709TIP3   OH217132   3.664   4.730   4.624 -0.9783  0.0072  0.0191
 5709TIP3    H117133   3.637   4.814   4.662 -2.6935 -0.1657 -0.7179
 5709TIP3    H217134   3.701   4.752   4.539 -0.9601  0.0534  0.0394
 5710TIP3   OH217135   0.783   5.045   2.750  0.4462 -0.5381 -0.3131
 5710TIP3    H117136   0.709   4.995   2.784 -0.1483 -0.4470 -1.4377
 5710TIP3    H217137   0.789   5.020   2.658  2.1862 -0.9815 -0.1179
 5711TIP3   OH217138   5.531   3.343   3.563  0.3583 -0.3622 -0.1444
 5711TIP3    H117139   5.508   3.421   3.614 -0.8478 -0.2235 -0.8672
 5711TIP3    H217140   5.511   3.269   3.621  1.2432 -0.1646  0.4369
 5712TIP3   OH217141   0.092   2.730   3.178 -0.1308 -0.5352  0.5885
 5712TIP3    H117142   0.152   2.681   3.122 -0.3918 -3.1039  2.3441
 5712TIP3    H217143   0.029   2.664   3.207 -0.1255  0.6841  3.6861
 5713TIP3   OH217144   2.075   2.821   2.399  0.2534 -0.7461  0.6475
 5713TIP3    H117145   2.143   2.878   2.435  2.1742 -1.1498 -2.0276
 5713TIP3    H217146   2.097   2.734   2.431  0.3810 -0.7297  0.6037
 5714TIP3   OH217147   2.978   5.751   4.486 -0.5662 -0.2360  0.4655
 5714TIP3    H117148   3.036   5.675   4.475 -0.6333 -0.1734 -0.3849
 5714TIP3    H217149   2.974   5.764   4.581  1.5574  0.3388  0.5415
 5715TIP3   OH217150   4.444   3.768   3.240 -0.3537  0.3254  1.1339
 5715TIP3    H117151   4.527   3.779   3.286  0.6576  0.2425 -0.5669
 5715TIP3    H217152   4.399   3.699   3.288  1.5133 -1.1651  0.8871
 5716TIP3   OH217153   4.064   3.988   4.405 -0.0536 -0.2918  0.3015
 5716TIP3    H117154   4.119   4.051   4.451 -1.1252  0.3339  0.7793
 5716TIP3    H217155   3.980   3.992   4.451 -0.3377 -1.6160 -0.0565
 5717TIP3   OH217156   3.956   2.837   4.352  0.1508 -0.7174 -0.6213
 5717TIP3    H117157   4.004   2.762   4.316  1.6394 -0.4521  0.6904
 5717TIP3    H217158   4.005   2.860   4.431 -0.3169  1.5902 -0.9479
 5718TIP3   OH217159   1.093   2.138   5.086  0.5898  0.1698 -0.0897
 5718TIP3    H117160   1.150   2.201   5.042 -1.6852  1.9662 -0.7057
 5718TIP3    H217161   1.104   2.157   5.179  1.2228  0.2929 -0.1862
 5719TIP3   OH217162   1.238   5.376   3.209 -0.2571 -0.2654  1.0518
 5719TIP3    H117163   1.289   5.363   3.288 -0.1412 -0.9971  0.8653
 5719TIP3    H217164   1.226   5.288   3.173 -1.3441 -0.0687  0.9034
 5720TIP3   OH217165   5.099   3.334   4.991 -0.0926 -0.0904 -0.4624
 5720TIP3    H117166   5.126   3.257   4.941 -1.3278 -1.0009  0.2253
 5720TIP3    H217167   5.118   3.408   4.933  0.6793 -0.9355 -1.3207
 5721TIP3   OH217168   1.808   2.607   4.297 -0.7093  0.2947  0.3735
 5721TIP3    H117169   1.888   2.555   4.302  0.2757  1.6128 -0.8302
 5721TIP3    H217170   1.818   2.674   4.365 -0.4896  0.8242 -0.1704
 5722TIP3   OH217171   2.149   0.287   1.913 -0.4540  0.1429 -0.0626
 5722TIP3    H117172   2.141   0.283   1.818  0.9779 -0.4685 -0.1852
 5722TIP3    H217173   2.107   0.369   1.938 -1.2999  0.0618 -1.1588
 5723TIP3   OH217174   3.068   5.488   3.467  0.4659 -0.6787  0.2017
 5723TIP3    H117175   3.117   5.493   3.385  0.9199 -0.8693  0.4612
 5723TIP3    H217176   3.034   5.577   3.479 -0.7323 -0.9526 -0.8737
 5724TIP3   OH217177   3.274   5.499   0.186 -0.1124 -0.4393  0.4269
 5724TIP3    H117178   3.369   5.487   0.182  0.0953  0.8005  1.2860
 5724TIP3    H217179   3.249   5.519   0.096  0.7869  1.4927  0.5530
 5725TIP3   OH217180   5.730   2.708   1.710  0.6707  0.5686  0.4386
 5725TIP3    H117181   5.782   2.708   1.630 -0.1468 -1.3622 -0.1673
 5725TIP3    H217182   5.789   2.673   1.777  1.1724  1.6243  0.5644
 5726TIP3   OH217183   1.266   5.747   1.649  0.4539 -0.0980 -0.2814
 5726TIP3    H117184   1.201   5.817   1.638 -0.7543 -0.8016  1.8335
 5726TIP3    H217185   1.331   5.784   1.709  1.5033  0.2416 -1.5870
 5727TIP3   OH217186   3.868   3.399   4.947  0.0285  0.1835 -0.1395
 5727TIP3    H117187   3.776   3.372   4.954 -0.4223  1.7435  0.3805
 5727TIP3    H217188   3.918   3.321   4.971 -1.2041  0.1275  2.5273
 5728TIP3   OH217189   3.486   4.445   4.608  0.7752 -0.2129  0.5382
 5728TIP3    H117190   3.568   4.431   4.657 -0.1738  0.2045  2.3563
 5728TIP3    H217191   3.465   4.538   4.623 -1.2426 -0.8483  2.2037
 5729TIP3   OH217192   3.115   2.818   2.391 -0.2730  0.4756 -0.8037
 5729TIP3    H117193   3.163   2.751   2.439  1.1113  2.2512  0.3888
 5729TIP3    H217194   3.031   2.824   2.436 -0.1442  0.0310 -0.4975
 5730TIP3   OH217195   0.355   2.848   4.684  0.1902 -0.7819 -0.1192
 5730TIP3    H117196   0.265   2.815   4.679 -1.2582  2.8684 -2.3013
 5730TIP3    H217197   0.396   2.820   4.602  1.2089 -2.5286  0.9150
 5731TIP3   OH217198   3.542   0.986   3.749 -0.4808  0.1145 -0.0413
 5731TIP3    H117199   3.608   0.920   3.728  1.3269  1.6818  0.4653
 5731TIP3    H217200   3.557   1.008   3.841 -0.8390  1.4156 -0.2627
 5732TIP3   OH217201   4.235   1.109   0.128 -0.0798  0.6603  0.2925
 5732TIP3    H117202   4.315   1.065   0.154 -0.4743  0.6006  1.4327
 5732TIP3    H217203   4.247   1.128   0.035  0.0970 -1.8724 -0.2759
 5733TIP3   OH217204   1.162   0.323   4.319 -0.0714  0.3371  0.6510
 5733TIP3    H117205   1.243   0.352   4.360  0.0279  1.2289 -0.1561
 5733TIP3    H217206   1.094   0.375   4.361 -0.2799 -0.6030  1.5236
 5734TIP3   OH217207   4.153   2.025   1.241 -0.1357  0.2915  0.5716
 5734TIP3    H117208   4.161   2.008   1.335 -0.7710 -1.0956  0.4045
 5734TIP3    H217209   4.101   2.105   1.235 -1.2924 -0.3624  1.4091
 5735TIP3   OH217210   2.241   4.755   3.412 -0.1479 -0.4718 -0.4217
 5735TIP3    H117211   2.240   4.761   3.508  0.7754  0.8629 -0.4604
 5735TIP3    H217212   2.256   4.662   3.394  0.6176 -0.6041  0.7537
 5736TIP3   OH217213   2.905   4.653   4.654 -0.3570  0.5944 -0.1668
 5736TIP3    H117214   2.990   4.657   4.610 -0.6162 -0.1605 -0.7710
 5736TIP3    H217215   2.842   4.669   4.583 -0.7415  0.5026  0.1566
 5737TIP3   OH217216   3.711   2.450   4.747  0.3034 -0.0957  0.2011
 5737TIP3    H117217   3.728   2.499   4.828  2.0392  0.2809 -0.3261
 5737TIP3    H217218   3.631   2.489   4.712 -1.7936 -1.7356  2.7613
 5738TIP3   OH217219   6.169   2.904   2.053  0.2630  0.6751 -0.0454
 5738TIP3    H117220   6.182   2.819   2.011  2.0284  1.2571 -0.7963
 5738TIP3    H217221   6.075   2.917   2.052 -0.0286 -1.1339 -0.1794
 5739TIP3   OH217222   1.106   4.444   0.204  0.3096  0.5396 -0.2190
 5739TIP3    H117223   1.109   4.539   0.197  1.6232  0.6182  1.0307
 5739TIP3    H217224   1.127   4.412   0.116 -3.0354  1.3375 -1.4527
 5740TIP3   OH217225   4.821   3.411   4.979 -0.3004  0.6000  0.2447
 5740TIP3    H117226   4.817   3.482   4.914 -1.3808 -0.0682 -0.4510
 5740TIP3    H217227   4.915   3.401   4.997  0.2043 -0.1528 -2.3339
 5741TIP3   OH217228   4.789   1.998   3.110 -0.0474  0.2289 -0.1403
 5741TIP3    H117229   4.729   2.016   3.182 -0.8198 -0.0850 -0.6946
 5741TIP3    H217230   4.849   1.931   3.145 -2.5498 -2.5745 -0.8312
 5742TIP3   OH217231   1.138   3.422   4.202  0.0271  0.1962 -0.2707
 5742TIP3    H117232   1.086   3.480   4.147 -0.4833  0.0656  0.0676
 5742TIP3    H217233   1.196   3.481   4.251 -0.0655  0.3718 -0.3738
 5743TIP3   OH217234   1.527   4.789   1.025 -0.3216 -0.6117  0.1855
 5743TIP3    H117235   1.608   4.751   0.992 -0.2860  0.1662 -0.6686
 5743TIP3    H217236   1.550   4.879   1.048 -0.5980 -0.8249  1.3944
 5744TIP3   OH217237   0.772   1.860   0.193 -0.4935 -0.4727  0.1431
 5744TIP3    H117238   0.707   1.838   0.260 -0.9504 -2.3685 -0.8211
 5744TIP3    H217239   0.826   1.781   0.186  0.7724  0.4057 -0.3709
 5745TIP3   OH217240   3.649   3.446   3.570  0.0081  0.1220  0.7492
 5745TIP3    H117241   3.714   3.514   3.550  0.8264 -0.1870  2.1991
 5745TIP3    H217242   3.692   3.390   3.634 -1.5374 -0.3678  1.4109
 5746TIP3   OH217243   1.332   3.081   0.293 -0.3484  0.4929  0.3114
 5746TIP3    H117244   1.356   3.108   0.382 -0.2942 -3.4630  1.7332
 5746TIP3    H217245   1.398   3.121   0.237  1.4580  0.7127  2.4535
 5747TIP3   OH217246   0.520   1.602   4.899 -0.1140 -0.0159 -0.1269
 5747TIP3    H117247   0.483   1.552   4.972 -0.2508  0.7926  0.3762
 5747TIP3    H217248   0.453   1.598   4.831 -0.3678 -0.0562  0.1217
 5748TIP3   OH217249   3.260   5.429   2.106  0.0927  0.1843 -0.0892
 5748TIP3    H117250   3.352   5.449   2.122  0.1238  1.1534 -1.3424
 5748TIP3    H217251   3.234   5.373   2.180  1.5208  0.3550  0.5676
 5749TIP3   OH217252   3.901   3.200   0.713  0.9188  0.3400 -0.2428
 5749TIP3    H117253   3.994   3.198   0.734  1.2251 -1.7649 -1.5739
 5749TIP3    H217254   3.898   3.212   0.618 -0.0894 -1.2557 -0.4425
 5750TIP3   OH217255   2.605   5.291   4.355 -0.4179  0.4092  0.1434
 5750TIP3    H117256   2.666   5.328   4.419  0.7997  1.7388 -1.7004
 5750TIP3    H217257   2.584   5.364   4.297 -0.7116 -0.9740 -1.5535
 5751TIP3   OH217258   0.595   3.925   2.195 -0.0202  0.4267 -0.2478
 5751TIP3    H117259   0.687   3.918   2.218 -0.2153 -1.2872  0.0878
 5751TIP3    H217260   0.594   3.929   2.099  0.3621 -0.3747 -0.2902
 5752TIP3   OH217261   4.410   5.550   4.741  0.1095 -0.6894  0.5746
 5752TIP3    H117262   4.504   5.565   4.730  0.1501 -0.7524  0.8328
 5752TIP3    H217263   4.389   5.589   4.826 -0.2369 -0.0327  0.1921
 5753TIP3   OH217264   5.553   0.885   4.639 -0.1398 -0.1908 -0.0146
 5753TIP3    H117265   5.621   0.946   4.610 -0.5675  1.3600  2.0840
 5753TIP3    H217266   5.471   0.921   4.604 -0.2089 -0.5271 -0.2077
 5754TIP3   OH217267   0.511   3.370   3.444  0.0097 -0.5899  0.2546
 5754TIP3    H117268   0.501   3.452   3.396 -0.7497 -0.6818  0.2303
 5754TIP3    H217269   0.431   3.321   3.423 -0.7763 -0.2732  2.3172
 5755TIP3   OH217270   1.492   5.725   2.113 -0.2475 -0.0642  0.4677
 5755TIP3    H117271   1.448   5.667   2.051 -0.5548 -0.4525  1.0541
 5755TIP3    H217272   1.460   5.699   2.199  1.8000 -0.9872  1.0189
 5756TIP3   OH217273   0.878   3.303   2.683 -0.4026  0.1867 -0.1065
 5756TIP3    H117274   0.892   3.366   2.753 -0.8860  1.9170 -1.5217
 5756TIP3    H217275   0.816   3.239   2.720 -0.3401  0.8295  1.1513
 5757TIP3   OH217276   1.482   0.944   0.406  0.6007  0.3120 -0.1591
 5757TIP3    H117277   1.485   0.914   0.497 -1.8230 -1.0672 -0.4504
 5757TIP3    H217278   1.395   0.981   0.396  1.1545  1.2892 -1.7029
 5758TIP3   OH217279   2.441   5.095   3.072  0.0297 -0.0418  0.9634
 5758TIP3    H117280   2.498   5.159   3.029  1.0228 -0.2971  1.8470
 5758TIP3    H217281   2.427   5.028   3.005  1.6531 -0.4970  1.0344
 5759TIP3   OH217282   4.009   0.568   3.535  0.0786  0.5428 -0.1335
 5759TIP3    H117283   3.928   0.538   3.575 -0.1713  1.2080 -0.1197
 5759TIP3    H217284   3.985   0.650   3.491  0.4391  0.0277 -1.3120
 5760TIP3   OH217285   5.604   4.840   0.058  0.7933  0.4093  0.4876
 5760TIP3    H117286   5.665   4.814  -0.011 -0.8584 -0.9359 -0.5269
 5760TIP3    H217287   5.621   4.934   0.070  1.1263  0.7117 -1.7795
 5761TIP3   OH217288   5.974   2.198   2.788 -0.0432 -0.0767 -0.0129
 5761TIP3    H117289   6.056   2.217   2.741  0.0390  1.5970  0.7542
 5761TIP3    H217290   5.981   2.105   2.811 -0.1577 -1.0781 -3.3853
 5762TIP3   OH217291   0.305   3.174   2.264  0.1389  0.6345  0.8719
 5762TIP3    H117292   0.325   3.263   2.294 -0.6417  0.8693  0.7304
 5762TIP3    H217293   0.225   3.150   2.312 -0.5678  0.6374 -0.2807
 5763TIP3   OH217294   4.358   2.405   0.019  0.1736  0.5503  0.6500
 5763TIP3    H117295   4.363   2.496  -0.011  2.9707  0.0370 -0.7838
 5763TIP3    H217296   4.305   2.409   0.098  2.3491  3.8647  2.1527
 5764TIP3   OH217297   2.050   3.321   0.519  0.5539 -0.0391 -0.3530
 5764TIP3    H117298   2.041   3.227   0.538  0.6857 -0.6057 -2.7773
 5764TIP3    H217299   2.084   3.358   0.600  2.5035 -2.4421  0.0604
 5765TIP3   OH217300   5.151   3.341   0.391 -0.2486 -0.1421 -0.4374
 5765TIP3    H117301   5.207   3.419   0.397 -0.6085  0.0957 -0.1415
 5765TIP3    H217302   5.138   3.329   0.297  0.0220  0.0016 -0.4957
 5766TIP3   OH217303   2.119   1.890   2.264 -0.1817 -0.1633 -0.1970
 5766TIP3    H117304   2.048   1.873   2.202  0.2825 -0.6780 -0.5926
 5766TIP3    H217305   2.107   1.981   2.290 -0.5110 -0.0095 -0.8818
 5767TIP3   OH217306   1.174   4.711   3.306 -0.0255  0.0104 -0.1494
 5767TIP3    H117307   1.224   4.645   3.355  1.0751  0.3842 -0.7196
 5767TIP3    H217308   1.098   4.664   3.273 -0.9158 -0.1956  2.0730
 5768TIP3   OH217309   6.257   5.885   1.576  0.2709  0.2429 -0.4898
 5768TIP3    H117310   6.286   5.963   1.529  0.8015  0.9089  0.8886
 5768TIP3    H217311   6.328   5.866   1.637 -1.5204  1.1288  2.0594
 5769TIP3   OH217312   1.889   0.109   1.731 -0.5209  0.4995  0.0153
 5769TIP3    H117313   1.947   0.092   1.806 -0.2232 -0.3403 -0.3872
 5769TIP3    H217314   1.919   0.048   1.664  0.5270  2.5902 -1.5322
 5770TIP3   OH217315   2.518   5.847   1.618 -0.3065 -0.1700 -0.0283
 5770TIP3    H117316   2.459   5.774   1.638 -1.1127  0.5517  0.3177
 5770TIP3    H217317   2.593   5.807   1.574 -0.2618 -1.3229  1.0591
 5771TIP3   OH217318   0.015   3.805   0.467  0.1267 -0.0666  0.0133
 5771TIP3    H117319   0.037   3.898   0.478 -1.4808  0.2443  0.8282
 5771TIP3    H217320  -0.046   3.786   0.538 -0.8665 -1.3129 -1.1260
 5772TIP3   OH217321   0.895   2.583   2.772 -0.3939 -0.3239 -0.1990
 5772TIP3    H117322   0.921   2.555   2.685  1.1810 -1.1204  0.4825
 5772TIP3    H217323   0.978   2.593   2.819 -1.2536 -1.2641  1.6044
 5773TIP3   OH217324   2.498   3.996   2.867 -0.5610 -0.0648  0.3483
 5773TIP3    H117325   2.431   3.981   2.799  0.6177  0.8262 -1.0805
 5773TIP3    H217326   2.457   3.967   2.948 -1.2103 -3.4521 -1.0344
 5774TIP3   OH217327   1.137   4.922   4.999  0.0840 -0.1956  0.2502
 5774TIP3    H117328   1.090   4.847   4.962  0.9301 -0.4047 -0.4402
 5774TIP3    H217329   1.084   4.949   5.074 -0.6231 -1.0202  0.0655
 5775TIP3   OH217330   6.234   0.756   0.618 -0.2059  0.1002  0.5274
 5775TIP3    H117331   6.315   0.805   0.626 -0.2866  0.0243  1.9097
 5775TIP3    H217332   6.169   0.822   0.593  0.4812 -0.0528 -2.0133
 5776TIP3   OH217333   2.695   2.185   3.105  0.3243 -0.6900 -0.2989
 5776TIP3    H117334   2.719   2.222   3.020  0.8131  1.3655  0.6660
 5776TIP3    H217335   2.715   2.255   3.168  0.7669 -2.4348  1.6068
 5777TIP3   OH217336   5.706   0.071   1.495  0.4764  0.6115 -0.2367
 5777TIP3    H117337   5.622   0.092   1.454 -0.3120 -0.0215  1.0006
 5777TIP3    H217338   5.694  -0.018   1.529  0.9208  1.2694  1.7615
 5778TIP3   OH217339   2.589   1.590   3.166  0.0113 -0.0148 -0.5951
 5778TIP3    H117340   2.616   1.678   3.139  0.3545  0.1013  0.1011
 5778TIP3    H217341   2.550   1.602   3.253  1.2195 -0.7062  0.0751
 5779TIP3   OH217342   4.953   4.963   3.952  0.0474  0.5972 -0.2354
 5779TIP3    H117343   4.998   5.038   3.912  0.4701 -1.1070 -3.2255
 5779TIP3    H217344   4.999   4.950   4.035  1.4430  2.2773 -0.6758
 5780TIP3   OH217345   5.569   5.602   4.673  0.0054  0.5597 -0.0593
 5780TIP3    H117346   5.529   5.685   4.647  0.2571  1.1253  1.2515
 5780TIP3    H217347   5.652   5.627   4.713  0.9030 -0.4743 -1.1988
 5781TIP3   OH217348   4.658   0.928   2.423 -0.0577 -0.1635  0.5750
 5781TIP3    H117349   4.661   0.846   2.374  1.0645  1.5761 -2.5166
 5781TIP3    H217350   4.572   0.929   2.464 -1.4288 -1.4381 -2.0497
 5782TIP3   OH217351   5.645   3.028   3.442 -0.3266 -0.5091  0.4238
 5782TIP3    H117352   5.618   3.053   3.353 -0.3148 -2.3016 -0.1231
 5782TIP3    H217353   5.706   3.096   3.468  0.6232 -0.5751 -1.4541
 5783TIP3   OH217354   5.780   2.093   3.203  0.0619 -0.0602  0.0058
 5783TIP3    H117355   5.692   2.060   3.220 -0.4522  0.6080 -1.2812
 5783TIP3    H217356   5.805   2.136   3.285 -0.2715 -1.3733  0.8276
 5784TIP3   OH217357   4.950   3.502   1.635  0.5134  0.4383 -0.1370
 5784TIP3    H117358   4.963   3.498   1.540 -0.0185 -0.9829 -0.1714
 5784TIP3    H217359   4.873   3.559   1.645 -0.7711 -1.0968 -0.7393
 5785TIP3   OH217360   5.223   0.287   2.983  0.3726 -0.5081  0.0373
 5785TIP3    H117361   5.308   0.248   2.964  1.6843  1.5329  1.3207
 5785TIP3    H217362   5.219   0.364   2.927 -0.4388 -0.3550  0.2947
 5786TIP3   OH217363   3.844   3.411   0.308 -0.1228 -0.4734  0.1152
 5786TIP3    H117364   3.784   3.445   0.242  1.1633 -0.2919 -1.0237
 5786TIP3    H217365   3.830   3.466   0.384 -2.4740 -1.4254  0.4412
 5787TIP3   OH217366   0.063   1.858   2.188  0.3680 -0.1188  0.0351
 5787TIP3    H117367   0.068   1.892   2.277  2.3061  0.6931 -0.3431
 5787TIP3    H217368   0.133   1.793   2.182 -0.0722 -0.5435 -0.7514
 5788TIP3   OH217369   0.863   4.191   0.106 -0.3621 -0.4573 -0.4040
 5788TIP3    H117370   0.956   4.184   0.126 -0.1493 -0.0145 -1.2018
 5788TIP3    H217371   0.827   4.104   0.126  0.3559 -0.8478 -0.7954
 5789TIP3   OH217372   6.213   5.215   3.524  0.5412  0.1902  0.2132
 5789TIP3    H117373   6.130   5.169   3.535 -0.5691  2.1320  0.4253
 5789TIP3    H217374   6.188   5.304   3.502  2.5672  1.1394  1.4804
 5790TIP3   OH217375   4.527   5.466   2.651 -0.1671 -0.6127  0.3030
 5790TIP3    H117376   4.488   5.457   2.738 -3.2477 -1.0061 -0.9934
 5790TIP3    H217377   4.535   5.560   2.638 -2.4891 -0.4072 -0.0430
 5791TIP3   OH217378   4.997   5.222   4.340  0.0524  0.0594 -0.4035
 5791TIP3    H117379   4.988   5.128   4.331 -0.8034 -0.1133  1.6432
 5791TIP3    H217380   5.035   5.251   4.257  0.3703 -2.0670 -1.0578
 5792TIP3   OH217381   4.138   2.678   4.201  0.6870  0.2326  0.4576
 5792TIP3    H117382   4.086   2.699   4.124  1.5431 -0.8998 -0.4525
 5792TIP3    H217383   4.225   2.713   4.182  0.7455  0.4995  1.1848
 5793TIP3   OH217384   1.394   2.886   2.137  0.0356  0.6864  0.1771
 5793TIP3    H117385   1.418   2.817   2.076 -1.0040  0.2780  0.2113
 5793TIP3    H217386   1.424   2.855   2.223  0.2483  0.6268  0.0809
 5794TIP3   OH217387   4.281   3.297   4.997  0.8625  0.3026  0.0123
 5794TIP3    H117388   4.373   3.278   5.018  0.6039 -0.3377  0.5878
 5794TIP3    H217389   4.286   3.350   4.917  1.7315  0.2157 -0.0050
 5795TIP3   OH217390   3.960   3.937   3.400 -0.5251 -0.5187  0.2611
 5795TIP3    H117391   3.890   3.876   3.424 -0.8820  0.0916  0.7824
 5795TIP3    H217392   4.014   3.944   3.478  0.0651 -0.8962 -0.1035
 5796TIP3   OH217393   0.135   5.543   2.323  0.0773 -0.0048  0.2268
 5796TIP3    H117394   0.155   5.598   2.399 -0.9518  1.2966 -0.3935
 5796TIP3    H217395   0.042   5.560   2.305  0.0721 -0.9714 -0.7823
 5797TIP3   OH217396   3.329   2.168   3.921  0.2052  0.0811  0.1985
 5797TIP3    H117397   3.270   2.101   3.955  0.1881  0.1211  0.2473
 5797TIP3    H217398   3.347   2.141   3.831 -1.0357  0.8310 -0.2995
 5798TIP3   OH217399   2.961   3.037   0.437 -0.6362 -0.7895 -0.5423
 5798TIP3    H117400   3.056   3.029   0.434 -0.6121 -0.5418 -0.4508
 5798TIP3    H217401   2.945   3.112   0.496 -0.8686 -0.4595 -1.0227
 5799TIP3   OH217402   6.072   5.775   4.375  0.1006  1.2030  0.3112
 5799TIP3    H117403   6.153   5.724   4.377 -0.4261  0.1260 -2.2864
 5799TIP3    H217404   6.077   5.825   4.294 -2.6459 -0.4393 -1.0133
 5800TIP3   OH217405   1.959   5.206   3.548  0.2319  0.2960 -0.3034
 5800TIP3    H117406   1.950   5.116   3.516 -2.5617  0.6697 -0.7676
 5800TIP3    H217407   2.028   5.243   3.493  0.4226 -1.1267 -1.0851
 5801TIP3   OH217408   3.281   0.181   1.075 -0.0681 -0.1840 -0.4056
 5801TIP3    H117409   3.291   0.254   1.014 -0.8302  0.3471  0.0906
 5801TIP3    H217410   3.238   0.113   1.025  0.4809 -0.2296 -0.8217
 5802TIP3   OH217411   5.397   2.309   0.134  0.2161  0.2418  0.4576
 5802TIP3    H117412   5.391   2.214   0.139  1.7967  0.1288  0.7260
 5802TIP3    H217413   5.355   2.332   0.051 -0.3313 -0.6585  0.4740
 5803TIP3   OH217414   2.860   2.346   4.246 -0.3482 -0.4635 -0.0593
 5803TIP3    H117415   2.856   2.271   4.305 -0.3225 -0.3777  0.0524
 5803TIP3    H217416   2.950   2.376   4.250 -0.1375 -0.9623 -0.7796
 5804TIP3   OH217417   3.431   5.732   4.756 -0.0023  0.5201 -0.1791
 5804TIP3    H117418   3.411   5.801   4.819  2.3084  0.8668  0.2712
 5804TIP3    H217419   3.386   5.655   4.790 -1.3265  1.4150  0.1719
 5805TIP3   OH217420   4.665   0.325   2.346 -0.0743 -0.3546 -0.4354
 5805TIP3    H117421   4.671   0.232   2.322  0.7814  0.0256 -1.8426
 5805TIP3    H217422   4.572   0.339   2.365  0.0869 -1.9505  1.9337
 5806TIP3   OH217423   5.948   0.954   2.967 -0.4784  0.0350 -0.7564
 5806TIP3    H117424   5.919   0.912   2.886  1.2034  0.9207 -1.8769
 5806TIP3    H217425   6.025   0.904   2.994  0.0372  0.8323 -0.7099
 5807TIP3   OH217426   4.155   4.305   2.394 -0.6328 -0.1821  0.6520
 5807TIP3    H117427   4.075   4.335   2.351  0.1194  2.7089  1.0520
 5807TIP3    H217428   4.145   4.334   2.485  0.9487  0.5051  0.6457
 5808TIP3   OH217429   0.614   1.151   3.944 -0.6670 -0.3516 -0.4944
 5808TIP3    H117430   0.639   1.229   3.992  0.0297 -0.0352 -1.3394
 5808TIP3    H217431   0.690   1.093   3.951 -1.8263 -1.7176  1.6141
 5809TIP3   OH217432   0.678   4.067   0.358  0.1712  0.2939  0.2651
 5809TIP3    H117433   0.712   4.039   0.273  0.6203 -1.1319  0.8921
 5809TIP3    H217434   0.728   4.146   0.378  1.7370 -0.6489  0.2426
 5810TIP3   OH217435   0.343   1.144   2.134  0.1791  0.0058  0.7985
 5810TIP3    H117436   0.383   1.165   2.050 -0.5579 -1.3593  0.0653
 5810TIP3    H217437   0.250   1.162   2.121  0.0590 -0.2252  1.3087
 5811TIP3   OH217438   5.687   0.770   0.845  0.5799 -0.6702  0.1244
 5811TIP3    H117439   5.699   0.772   0.750  1.6022 -1.2021  0.2314
 5811TIP3    H217440   5.592   0.772   0.857  0.4525  0.4814 -0.8724
 5812TIP3   OH217441   2.590   2.247   1.656 -0.1412  0.0413  0.1667
 5812TIP3    H117442   2.560   2.333   1.687 -0.5672  0.5189 -1.4872
 5812TIP3    H217443   2.510   2.197   1.645 -0.1181  0.2834 -1.2685
 5813TIP3   OH217444   1.119   2.633   0.471  0.2560 -0.0007 -0.2028
 5813TIP3    H117445   1.058   2.641   0.545 -1.6668 -0.5850 -1.6624
 5813TIP3    H217446   1.149   2.723   0.455  1.7187  0.0004  2.0207
 5814TIP3   OH217447   1.351   3.956   2.630 -0.4214 -0.2526 -0.1423
 5814TIP3    H117448   1.351   3.948   2.535  1.0156  0.3682 -0.2197
 5814TIP3    H217449   1.393   3.876   2.661 -0.5529 -0.2865 -0.0522
 5815TIP3   OH217450   0.392   2.820   3.351  0.2516 -0.1670  0.9806
 5815TIP3    H117451   0.399   2.840   3.257 -1.9344  2.3047  1.2206
 5815TIP3    H217452   0.465   2.760   3.368  0.1353 -1.5366 -2.4662
 5816TIP3   OH217453   2.808   2.402   2.242 -0.3232 -0.0184 -0.0865
 5816TIP3    H117454   2.821   2.322   2.192  0.0656 -1.7165  2.5338
 5816TIP3    H217455   2.897   2.431   2.265 -0.5226 -0.3955  1.2301
 5817TIP3   OH217456   3.075   2.352   4.564 -0.3525  0.0866 -0.2161
 5817TIP3    H117457   2.996   2.396   4.594 -1.2850 -1.4070 -0.3826
 5817TIP3    H217458   3.093   2.389   4.478  0.0462  1.5340  0.4589
 5818TIP3   OH217459   1.007   0.128   4.135 -0.1912 -0.5535 -0.0595
 5818TIP3    H117460   1.042   0.152   4.050  0.5234  0.8245  0.5750
 5818TIP3    H217461   1.044   0.193   4.195 -1.3108 -0.9939  1.1687
 5819TIP3   OH217462   0.243   5.179   1.656 -0.0592 -0.5346 -0.0887
 5819TIP3    H117463   0.286   5.101   1.690 -1.6744 -1.1724  0.5901
 5819TIP3    H217464   0.307   5.249   1.670  1.0135 -1.5456  0.2592
 5820TIP3   OH217465   0.722   4.838   5.055 -0.0426  0.4638  0.4057
 5820TIP3    H117466   0.728   4.846   5.150  0.9004  0.4011  0.3588
 5820TIP3    H217467   0.797   4.784   5.031 -0.4590  0.2125 -0.3430
 5821TIP3   OH217468   2.034   2.579   2.513  0.1144  0.0742  0.2996
 5821TIP3    H117469   2.032   2.566   2.607  2.1000 -0.4294  0.3079
 5821TIP3    H217470   2.036   2.490   2.476 -0.2981  0.2683 -0.2190
 5822TIP3   OH217471   1.858   2.563   0.173 -0.2455  0.1385 -0.1803
 5822TIP3    H117472   1.769   2.544   0.200 -0.4021  2.0320  0.7583
 5822TIP3    H217473   1.860   2.657   0.158  1.7364  0.2487  0.4230
 5823TIP3   OH217474   4.726   4.327   2.980 -0.1893  0.1298 -0.0859
 5823TIP3    H117475   4.754   4.359   2.894 -2.6653  1.9159 -0.3440
 5823TIP3    H217476   4.660   4.261   2.961  0.1898 -0.4232  0.4765
 5824TIP3   OH217477   5.046   0.336   2.187  0.6499 -0.1180  0.5031
 5824TIP3    H117478   4.958   0.301   2.196  1.1235 -0.9980  2.3288
 5824TIP3    H217479   5.033   0.426   2.157 -0.7841 -0.6436 -0.5496
 5825TIP3   OH217480   4.881   0.230   1.980 -0.0247  0.1964  0.3708
 5825TIP3    H117481   4.910   0.155   2.033 -1.1875  0.1167  0.9360
 5825TIP3    H217482   4.801   0.199   1.937  0.4911  0.5184 -0.8554
 5826TIP3   OH217483   4.859   1.961   4.760 -0.5282 -0.7017 -0.3844
 5826TIP3    H117484   4.795   2.007   4.815  0.3356 -0.7132  0.6503
 5826TIP3    H217485   4.873   2.019   4.686 -1.1078 -0.3204 -0.2066
 5827TIP3   OH217486   0.474   4.981   0.226  0.0942  0.6507  0.3107
 5827TIP3    H117487   0.423   4.960   0.304 -0.7025 -1.9118 -0.7898
 5827TIP3    H217488   0.410   4.992   0.156  0.8918  0.6043 -0.4540
 5828TIP3   OH217489   2.499   0.166   2.123 -0.3532 -0.3441 -0.9366
 5828TIP3    H117490   2.555   0.212   2.061 -2.1427  1.0195 -1.6315
 5828TIP3    H217491   2.430   0.228   2.144 -0.9050 -1.4962  0.9006
 5829TIP3   OH217492   3.863   1.636   0.995 -0.4432  0.4056  0.1508
 5829TIP3    H117493   3.776   1.652   1.031 -0.5609  0.3078 -0.0927
 5829TIP3    H217494   3.906   1.582   1.061 -0.3821  0.8988  0.5195
 5830TIP3   OH217495   1.092   1.955   0.653  0.2688  0.0480 -0.5247
 5830TIP3    H117496   1.123   2.007   0.727  0.4416 -1.2000  0.3119
 5830TIP3    H217497   1.139   1.989   0.577  0.0785  1.3599 -0.0823
 5831TIP3   OH217498   1.688   0.074   1.279  0.1377  0.2708 -0.1233
 5831TIP3    H117499   1.651   0.049   1.363  0.4651  0.6608  0.1411
 5831TIP3    H217500   1.782   0.082   1.295  0.1887  0.4561 -0.4962
 5832TIP3   OH217501   4.304   0.162   0.449  0.0831 -0.1953  0.3819
 5832TIP3    H117502   4.348   0.189   0.529  0.8013 -2.4961  0.8426
 5832TIP3    H217503   4.211   0.158   0.472 -0.0122  1.4920  0.3640
 5833TIP3   OH217504   3.920   0.025   3.109  0.2510 -0.3260 -0.8040
 5833TIP3    H117505   3.878   0.107   3.084  1.9195  1.4581  1.7045
 5833TIP3    H217506   4.014   0.040   3.092  0.8095 -0.9203  1.4457
 5834TIP3   OH217507   1.600   2.608   0.351 -0.2655 -0.4896 -0.4371
 5834TIP3    H117508   1.523   2.560   0.382  0.5548 -0.3423  2.0521
 5834TIP3    H217509   1.565   2.675   0.292 -2.2814  0.5820  1.8079
 5835TIP3   OH217510   1.877   2.549   4.708  0.1430 -0.6133 -0.1238
 5835TIP3    H117511   1.828   2.625   4.738 -1.2575 -1.4089 -0.3050
 5835TIP3    H217512   1.810   2.488   4.678  1.3099 -1.2274 -1.6212
 5836TIP3   OH217513   0.996   3.293   4.376  0.4675 -0.3214 -0.7684
 5836TIP3    H117514   1.013   3.327   4.289  0.3364 -2.4514 -1.6988
 5836TIP3    H217515   0.923   3.344   4.409  0.0294  0.0320 -2.2227
 5837TIP3   OH217516   1.687   0.884   0.817  0.0063 -0.7564  0.1598
 5837TIP3    H117517   1.649   0.832   0.746  1.6746 -0.2085 -1.2256
 5837TIP3    H217518   1.751   0.826   0.858  0.1225 -0.5995  0.2038
 5838TIP3   OH217519   0.590   1.704   3.540 -0.0111 -0.5011 -0.1046
 5838TIP3    H117520   0.553   1.634   3.594  1.0242 -0.4483  0.7120
 5838TIP3    H217521   0.683   1.680   3.530  0.4063  0.8406  0.3584
 5839TIP3   OH217522   5.173   4.950   1.506 -0.3780 -0.2849 -0.4259
 5839TIP3    H117523   5.253   4.998   1.484 -0.2700 -0.0190  0.4847
 5839TIP3    H217524   5.124   4.945   1.424 -0.1479  0.9403 -0.6568
 5840TIP3   OH217525   2.765   1.530   1.100  0.5417 -0.1810 -0.3248
 5840TIP3    H117526   2.849   1.552   1.142  0.0413 -0.8473  1.0915
 5840TIP3    H217527   2.744   1.606   1.047  2.3790 -0.2754 -1.2765
 5841TIP3   OH217528   4.308   2.632   2.122 -0.2990 -0.1375 -0.0581
 5841TIP3    H117529   4.378   2.613   2.060  0.5601  0.4171  0.7317
 5841TIP3    H217530   4.233   2.656   2.066  0.5155  0.5570 -0.8772
 5842TIP3   OH217531   3.538   5.952   4.012 -0.3109 -0.0553  0.1404
 5842TIP3    H117532   3.449   5.970   4.043 -0.2923  1.4637 -0.6077
 5842TIP3    H217533   3.595   5.990   4.078 -0.2585  0.9818 -0.4723
 5843TIP3   OH217534   0.908   3.850   1.928 -0.1442 -0.2487  0.4906
 5843TIP3    H117535   0.964   3.928   1.936 -1.9879  1.1586  0.4568
 5843TIP3    H217536   0.968   3.780   1.904  1.4143  1.4621 -0.9394
 5844TIP3   OH217537   1.895   2.825   0.085  0.0019  0.1912  0.0911
 5844TIP3    H117538   1.940   2.909   0.089 -1.4579  1.0376 -0.6058
 5844TIP3    H217539   1.908   2.795  -0.005 -1.7546  1.0224 -0.4873
 5845TIP3   OH217540   0.849   4.439   4.065  0.1369 -0.2741  0.2409
 5845TIP3    H117541   0.869   4.507   4.129  0.2148  1.7654 -1.8398
 5845TIP3    H217542   0.910   4.455   3.993 -1.3449 -1.1373 -1.2704
 5846TIP3   OH217543   0.916   4.137   3.662  0.1381  0.1034 -0.3149
 5846TIP3    H117544   0.901   4.044   3.680 -1.8123  0.5928  0.9070
 5846TIP3    H217545   0.966   4.167   3.738  1.0763  0.0015 -0.8794
 5847TIP3   OH217546   0.553   4.856   2.232 -0.1628 -0.1377 -0.0179
 5847TIP3    H117547   0.544   4.878   2.139  0.9652  1.2505  0.1643
 5847TIP3    H217548   0.642   4.882   2.254 -0.8207  0.7870  1.7580
 5848TIP3   OH217549   6.119   3.583   2.798 -0.2683 -0.4952 -0.0777
 5848TIP3    H117550   6.110   3.610   2.890  0.3285 -1.2023  0.1947
 5848TIP3    H217551   6.070   3.501   2.792 -1.4677  0.2320 -0.7363
 5849TIP3   OH217552   1.279   5.869   4.043 -0.4661  0.2510 -0.9280
 5849TIP3    H117553   1.189   5.843   4.021 -0.6417  1.4425 -1.6978
 5849TIP3    H217554   1.313   5.795   4.093 -2.0913  0.0524 -0.0247
 5850TIP3   OH217555   5.404   5.535   1.781  0.2663  0.3802  0.7716
 5850TIP3    H117556   5.425   5.447   1.811 -0.0683  0.3678  0.9776
 5850TIP3    H217557   5.336   5.565   1.842  1.0188  1.1218  1.2693
 5851TIP3   OH217558   2.622   5.064   0.546 -0.4687  0.2485 -0.3448
 5851TIP3    H117559   2.652   4.988   0.596  0.8292  1.5980  1.0399
 5851TIP3    H217560   2.668   5.059   0.462  1.7278  0.8704  0.7558
 5852TIP3   OH217561   4.448   1.401   3.734  0.0763 -0.4852  0.0896
 5852TIP3    H117562   4.534   1.361   3.723 -0.7155 -2.0661 -0.7102
 5852TIP3    H217563   4.457   1.458   3.811  0.9711 -3.1403  2.1077
 5853TIP3   OH217564   2.736   3.035   4.724 -0.5200 -0.3989 -0.0515
 5853TIP3    H117565   2.717   2.950   4.765  1.5221 -1.7139 -1.5964
 5853TIP3    H217566   2.710   3.023   4.633 -1.6864  1.2223  0.0464
 5854TIP3   OH217567   1.838   0.287   0.770  0.1373 -0.0757  0.1400
 5854TIP3    H117568   1.838   0.295   0.866  2.2943  0.3697  0.1354
 5854TIP3    H217569   1.810   0.197   0.754 -1.1425  0.1050  1.1251
 5855TIP3   OH217570   1.309   0.494   1.232 -0.0215  0.2028  0.1739
 5855TIP3    H117571   1.343   0.471   1.318 -0.7515 -0.7768  0.2077
 5855TIP3    H217572   1.216   0.512   1.246  0.3700  2.8357  0.0707
 5856TIP3   OH217573   5.554   3.999   1.907  0.1926  0.4852 -0.2547
 5856TIP3    H117574   5.485   4.029   1.965 -0.2652  1.7126 -1.3744
 5856TIP3    H217575   5.622   3.965   1.965  0.0147  2.2019  1.0278
 5857TIP3   OH217576   5.081   0.931   0.366 -0.0601  0.1713  0.4015
 5857TIP3    H117577   4.995   0.890   0.367  0.9458 -2.0914  0.6874
 5857TIP3    H217578   5.066   1.019   0.330 -2.0968 -1.0611 -2.0953
 5858TIP3   OH217579   5.401   3.489   1.650  0.1769  0.2178  0.1239
 5858TIP3    H117580   5.363   3.459   1.732  1.0041  0.2598  0.5342
 5858TIP3    H217581   5.456   3.416   1.621  1.1396  0.7939  0.4404
 5859TIP3   OH217582   5.054   3.882   4.314  0.2407  0.0073  0.0806
 5859TIP3    H117583   5.061   3.829   4.234 -0.0585 -1.1896  0.8149
 5859TIP3    H217584   5.113   3.840   4.376  0.7236  1.1282  0.3979
 5860TIP3   OH217585   4.418   1.910   2.013  0.3366 -0.2706 -0.5240
 5860TIP3    H117586   4.329   1.893   1.981  0.6791 -2.8420 -0.3202
 5860TIP3    H217587   4.473   1.908   1.934  0.3887 -0.0766 -0.4934
 5861TIP3   OH217588   5.955   0.302   3.238  0.1291  0.5690 -0.2346
 5861TIP3    H117589   5.930   0.271   3.151 -0.6167  1.0569 -0.2078
 5861TIP3    H217590   6.007   0.381   3.221 -2.1602  2.2124 -0.2537
 5862TIP3   OH217591   0.866   1.618   0.214  0.2279  0.2998 -0.5236
 5862TIP3    H117592   0.830   1.591   0.298 -0.2051 -0.5108 -0.9595
 5862TIP3    H217593   0.954   1.579   0.212  0.6488  1.1720 -0.0304
 5863TIP3   OH217594   3.560   1.641   4.448 -0.2646 -0.4269  0.8669
 5863TIP3    H117595   3.638   1.663   4.398  0.3079 -0.8706  1.5370
 5863TIP3    H217596   3.501   1.599   4.385 -0.4736  1.0141  0.0820
 5864TIP3   OH217597   1.264   4.151   4.599 -0.1622 -0.1783  0.0912
 5864TIP3    H117598   1.332   4.111   4.654  0.8795 -1.7273 -2.1654
 5864TIP3    H217599   1.235   4.080   4.542 -1.2797  1.3046 -1.2748
 5865TIP3   OH217600   4.860   1.539   4.855 -0.4563  0.2110 -0.0928
 5865TIP3    H117601   4.765   1.525   4.846 -0.1203 -1.1148 -2.1410
 5865TIP3    H217602   4.889   1.466   4.910 -0.2826 -1.0599 -1.7765
 5866TIP3   OH217603   3.762   4.729   3.249 -0.0945  0.4387  0.3396
 5866TIP3    H117604   3.724   4.779   3.177  1.4915  1.4110  0.1441
 5866TIP3    H217605   3.832   4.784   3.283  1.2778 -1.3421  0.5587
 5867TIP3   OH217606   2.380   3.875   3.091 -0.5926 -0.4102  0.6501
 5867TIP3    H117607   2.336   3.841   3.169 -0.1778 -0.3587  0.9112
 5867TIP3    H217608   2.311   3.882   3.025 -0.5240 -2.8371  0.2090
 5868TIP3   OH217609   0.616   1.644   3.182  0.2929 -0.6389  0.4891
 5868TIP3    H117610   0.628   1.693   3.101  0.7367  0.2060  1.0539
 5868TIP3    H217611   0.547   1.690   3.228 -0.9474 -1.9301 -0.0030
 5869TIP3   OH217612   0.121   3.452   3.817 -0.4347  0.3834 -0.6236
 5869TIP3    H117613   0.169   3.371   3.803 -0.0350  0.3543  0.7925
 5869TIP3    H217614   0.139   3.475   3.908  0.4828  2.7188 -1.3166
 5870TIP3   OH217615   4.273   2.892   3.634 -0.1943  0.5760  0.1447
 5870TIP3    H117616   4.325   2.828   3.682  0.4937  0.3911 -0.8060
 5870TIP3    H217617   4.333   2.927   3.568 -1.1082  0.7852 -0.6046
 5871TIP3   OH217618   5.135   1.591   4.388 -0.4019 -0.2949  0.4623
 5871TIP3    H117619   5.069   1.658   4.408 -0.1617  0.1098 -0.0727
 5871TIP3    H217620   5.178   1.574   4.472 -0.3777  0.3218  0.5817
 5872TIP3   OH217621   0.310   3.038   4.092  0.7155 -0.2258  0.5350
 5872TIP3    H117622   0.312   2.943   4.086 -1.0370 -0.3245  1.0232
 5872TIP3    H217623   0.379   3.067   4.033  1.4438 -1.7974  0.5620
 5873TIP3   OH217624   0.571   2.160   0.269 -0.1184 -0.3972 -0.4337
 5873TIP3    H117625   0.536   2.249   0.272 -1.6974 -0.8688 -2.3217
 5873TIP3    H217626   0.653   2.167   0.220  0.7203  0.2315  1.0000
 5874TIP3   OH217627   6.200   5.645   2.255  0.1295  0.0477  0.2033
 5874TIP3    H117628   6.186   5.604   2.170 -0.5433  0.3624  0.1652
 5874TIP3    H217629   6.121   5.696   2.272  0.6308  0.7114  0.6105
 5875TIP3   OH217630   1.677   5.258   3.035 -0.0328 -0.2592 -0.0129
 5875TIP3    H117631   1.685   5.275   3.129 -2.3522 -0.5386  0.3020
 5875TIP3    H217632   1.629   5.175   3.030  2.0493 -1.4686 -1.4926
 5876TIP3   OH217633   3.608   1.955   1.566  0.2209  0.9512  0.8728
 5876TIP3    H117634   3.670   1.931   1.497  0.2122  0.4330  1.0426
 5876TIP3    H217635   3.663   1.987   1.637  0.2546  1.0712  0.7936
 5877TIP3   OH217636   4.402   0.307   0.645  0.1227  0.1560 -0.5733
 5877TIP3    H117637   4.452   0.283   0.722  0.6610 -1.4613 -1.3814
 5877TIP3    H217638   4.406   0.403   0.642 -0.3129  0.2936  1.6203
 5878TIP3   OH217639   1.052   5.897   1.668  0.2346 -0.3832  0.8234
 5878TIP3    H117640   1.048   5.975   1.724  0.9788  0.0049  0.3486
 5878TIP3    H217641   0.972   5.900   1.616  0.5405  0.4032  0.3774
 5879TIP3   OH217642   5.697   5.855   0.859  0.6673 -0.4906  0.6659
 5879TIP3    H117643   5.734   5.885   0.776 -0.8975 -1.0373 -0.2731
 5879TIP3    H217644   5.756   5.889   0.925  0.6984  1.9970 -0.5235
 5880TIP3   OH217645   4.869   4.440   3.957 -0.3318 -0.2197  0.3091
 5880TIP3    H117646   4.800   4.373   3.956  1.3623 -2.0746 -1.1543
 5880TIP3    H217647   4.942   4.398   4.002  0.8371  0.5615 -0.8041
 5881TIP3   OH217648   0.513   4.314   0.250 -0.1628 -0.4661  0.2008
 5881TIP3    H117649   0.570   4.253   0.296 -0.3138 -0.9813 -0.2780
 5881TIP3    H217650   0.444   4.335   0.314  0.9897  0.8260  1.0736
 5882TIP3   OH217651   5.867   4.019   4.009  0.5583  0.4674 -0.0671
 5882TIP3    H117652   5.802   4.007   3.940  1.3785  0.8969 -0.9302
 5882TIP3    H217653   5.851   3.947   4.070  1.3462 -1.3905 -1.9245
 5883TIP3   OH217654   1.414   2.299   3.063  0.2373  0.5413  0.2362
 5883TIP3    H117655   1.500   2.259   3.054 -1.1483 -2.9092  0.9572
 5883TIP3    H217656   1.375   2.293   2.976  0.2861  1.0856  0.1704
 5884TIP3   OH217657   0.279   2.853   1.029 -0.5968  0.0530  0.2518
 5884TIP3    H117658   0.197   2.902   1.036 -1.0761 -0.5203 -1.0155
 5884TIP3    H217659   0.275   2.813   0.942  0.7168 -0.5497  0.4542
 5885TIP3   OH217660   2.009   0.339   2.942 -0.3322 -0.8021 -0.1411
 5885TIP3    H117661   2.004   0.405   2.873 -1.5568  1.1810  1.6929
 5885TIP3    H217662   2.103   0.328   2.958 -0.0732 -0.3724 -1.2677
 5886TIP3   OH217663   2.763   4.208   2.822 -0.1259 -0.0789  0.5662
 5886TIP3    H117664   2.833   4.146   2.844 -0.9014 -0.5504  1.8220
 5886TIP3    H217665   2.729   4.176   2.739  0.8412 -0.1055  0.1609
 5887TIP3   OH217666   5.557   0.158   3.455 -0.3155 -0.0737 -0.3371
 5887TIP3    H117667   5.624   0.143   3.388  0.4915  1.3185  0.1221
 5887TIP3    H217668   5.550   0.253   3.461 -2.1836 -0.1945 -0.2040
 5888TIP3   OH217669   4.960   5.144   1.868  0.0128 -0.3266 -0.1565
 5888TIP3    H117670   4.938   5.216   1.927  0.2537 -1.3111  1.1755
 5888TIP3    H217671   4.955   5.066   1.922 -0.1141 -1.3199 -1.5396
 5889TIP3   OH217672   5.722   5.389   0.084  0.5382 -0.1841 -0.1236
 5889TIP3    H117673   5.681   5.355   0.163  1.5593  0.4557  0.7046
 5889TIP3    H217674   5.787   5.322   0.060  0.5114 -0.1884 -0.1850
 5890TIP3   OH217675   0.797   3.079   1.906 -0.4034 -0.3564 -0.1829
 5890TIP3    H117676   0.708   3.107   1.883 -0.5416 -0.1023  0.6246
 5890TIP3    H217677   0.795   3.069   2.001  0.3234 -0.7542 -0.2047
 5891TIP3   OH217678   2.523   1.405   5.135 -0.8191 -0.6126  0.5502
 5891TIP3    H117679   2.596   1.353   5.100 -0.5708  0.7172 -1.0572
 5891TIP3    H217680   2.521   1.384   5.228 -1.0151 -3.7866 -0.0498
 5892TIP3   OH217681   3.549   5.909   2.742 -0.0914  0.5087  0.3643
 5892TIP3    H117682   3.469   5.915   2.794  0.4662  0.3819  1.2616
 5892TIP3    H217683   3.618   5.890   2.806  0.7090  0.9401 -0.3443
 5893TIP3   OH217684   5.081   4.113   3.840 -0.1042  0.2068 -0.0935
 5893TIP3    H117685   5.057   4.105   3.748 -2.0602 -0.4345  0.3979
 5893TIP3    H217686   5.156   4.171   3.842  0.1852 -0.0502 -2.1136
 5894TIP3   OH217687   1.209   3.633   1.391  0.6020  0.0177 -0.3644
 5894TIP3    H117688   1.230   3.588   1.308  1.0909  0.6368 -0.5852
 5894TIP3    H217689   1.212   3.726   1.369  0.0682  0.1725  0.2028
 5895TIP3   OH217690   5.863   0.288   1.825 -0.4644 -0.1754  0.1484
 5895TIP3    H117691   5.807   0.365   1.820 -0.8852 -0.3994  1.1627
 5895TIP3    H217692   5.836   0.243   1.905 -1.0543 -2.0362 -1.0253
 5896TIP3   OH217693   4.429   4.800   4.167 -0.4177 -0.1191 -0.3859
 5896TIP3    H117694   4.415   4.894   4.181  0.0563 -0.0837 -0.1321
 5896TIP3    H217695   4.432   4.763   4.255 -1.2133 -0.4729 -0.4970
 5897TIP3   OH217696   2.024   3.362   1.931 -0.3484  0.6239  0.5655
 5897TIP3    H117697   2.023   3.359   1.836  0.7791  0.7410  0.5371
 5897TIP3    H217698   1.981   3.280   1.958  0.2644  0.0803 -0.0593
 5898TIP3   OH217699   1.575   3.372   0.758  0.7483 -0.1785 -0.9121
 5898TIP3    H117700   1.492   3.390   0.801  1.2355  2.1943 -0.8195
 5898TIP3    H217701   1.591   3.279   0.774 -2.1128 -0.8608 -1.4152
 5899TIP3   OH217702   3.828   3.842   0.170  0.8879  0.0892  0.1881
 5899TIP3    H117703   3.800   3.923   0.126 -2.2586 -0.3344  1.1494
 5899TIP3    H217704   3.813   3.859   0.263 -0.9429 -1.8577  0.3426
 5900TIP3   OH217705   5.008   4.521   1.079  0.0771  0.3240 -0.1487
 5900TIP3    H117706   4.941   4.531   1.012 -1.0034 -1.3647  0.6311
 5900TIP3    H217707   4.991   4.593   1.140  1.0461  1.8527 -1.5906
 5901TIP3   OH217708   4.394   5.141   1.906 -0.2056 -0.1698  0.2529
 5901TIP3    H117709   4.304   5.113   1.920  0.1959 -1.3056  0.6200
 5901TIP3    H217710   4.447   5.064   1.926  0.9324  0.8256  1.2582
 5902TIP3   OH217711   5.683   0.380   1.182  0.3201 -0.5953  0.2716
 5902TIP3    H117712   5.736   0.388   1.103 -1.2635  0.8667 -0.7048
 5902TIP3    H217713   5.680   0.468   1.218 -0.5184 -0.8842  0.9300
 5903TIP3   OH217714   3.731   5.562   4.145  0.5059  0.2235 -0.3472
 5903TIP3    H117715   3.725   5.590   4.054 -1.0005 -1.3070 -0.7625
 5903TIP3    H217716   3.761   5.471   4.140 -3.8226 -1.4540  0.3224
 5904TIP3   OH217717   3.667   3.766   3.855  0.2371 -0.5983 -0.2228
 5904TIP3    H117718   3.681   3.671   3.858  2.2871 -0.3189  0.4159
 5904TIP3    H217719   3.603   3.783   3.924  1.8892 -1.2588  1.5838
 5905TIP3   OH217720   2.162   4.798   1.849 -0.3730  0.6027  0.4484
 5905TIP3    H117721   2.212   4.721   1.822 -1.0732 -0.1241  1.1651
 5905TIP3    H217722   2.220   4.872   1.829  0.9495 -0.2011  1.1477
 5906TIP3   OH217723   1.373   1.309   4.929 -0.0929 -0.2955  0.5334
 5906TIP3    H117724   1.307   1.361   4.883  0.0344 -1.4295 -1.0250
 5906TIP3    H217725   1.392   1.359   5.008 -1.6669  0.8354  0.2503
 5907TIP3   OH217726   3.000   3.996   2.310  0.2046  0.1133 -0.4333
 5907TIP3    H117727   3.061   4.066   2.333  0.4539 -0.2770  0.1366
 5907TIP3    H217728   3.004   3.990   2.215 -0.4509  1.4284 -0.5670
 5908TIP3   OH217729   5.675   2.105   2.111 -0.4127 -0.6650  0.1085
 5908TIP3    H117730   5.702   2.034   2.053 -0.0875 -1.5834  1.3308
 5908TIP3    H217731   5.649   2.061   2.192 -0.1725  0.6133  0.9165
 5909TIP3   OH217732   1.066   5.509   3.023  0.8732 -0.2738 -1.0334
 5909TIP3    H117733   1.104   5.439   3.076 -1.3554 -0.7163  0.0855
 5909TIP3    H217734   1.119   5.586   3.045 -0.7890 -0.0496  3.1606
 5910TIP3   OH217735   5.788   2.974   1.798  0.1731 -0.3366  0.3491
 5910TIP3    H117736   5.739   2.892   1.808  2.1497 -1.6062  0.3188
 5910TIP3    H217737   5.803   2.981   1.704  2.4757 -1.5999  0.5205
 5911TIP3   OH217738   6.296   4.555   4.143  0.1988 -0.7692  1.0088
 5911TIP3    H117739   6.341   4.634   4.113  0.7230 -1.3366  0.2951
 5911TIP3    H217740   6.336   4.536   4.228  0.5552 -0.6543  0.8705
 5912TIP3   OH217741   0.979   1.043   5.118  0.0172  0.0412  0.6766
 5912TIP3    H117742   0.991   0.952   5.145  0.1189  0.0394  0.6292
 5912TIP3    H217743   1.059   1.063   5.068 -0.5661 -0.2495 -0.4163
 5913TIP3   OH217744   2.350   5.807   0.198  0.0352 -0.4044 -0.0092
 5913TIP3    H117745   2.417   5.833   0.136 -0.2399  1.2380  0.3281
 5913TIP3    H217746   2.381   5.839   0.283 -0.8260 -0.2501  0.2648
 5914TIP3   OH217747   5.615   1.426   3.597  0.4355  0.1644  0.3754
 5914TIP3    H117748   5.522   1.410   3.612  0.7237 -2.2869 -0.0589
 5914TIP3    H217749   5.626   1.419   3.502  1.4976 -2.8660  0.6041
 5915TIP3   OH217750   2.609   0.644   0.347 -0.2749 -0.0160 -0.4673
 5915TIP3    H117751   2.530   0.648   0.402 -0.6883 -1.4805 -0.9011
 5915TIP3    H217752   2.584   0.587   0.274  1.2310 -0.6414 -0.5204
 5916TIP3   OH217753   1.028   1.873   4.544  0.2038 -0.3059  0.0838
 5916TIP3    H117754   1.038   1.787   4.585  0.0336  0.3220  1.5054
 5916TIP3    H217755   1.107   1.884   4.491  0.5724 -1.0240  0.4758
 5917TIP3   OH217756   0.890   2.445   4.287 -0.2644 -0.3855  0.4532
 5917TIP3    H117757   0.869   2.355   4.313  0.7753 -0.5666  0.7059
 5917TIP3    H217758   0.970   2.466   4.335  0.7879 -0.1476 -1.3240
 5918TIP3   OH217759   1.820   5.284   2.144 -0.1899  0.6992  0.4056
 5918TIP3    H117760   1.788   5.348   2.079 -0.5517 -0.7067 -0.8611
 5918TIP3    H217761   1.746   5.271   2.203 -1.5492 -1.3236 -1.5698
 5919TIP3   OH217762   3.240   4.230   4.934 -0.8978 -0.7961  0.2396
 5919TIP3    H117763   3.245   4.160   4.869 -1.6250 -2.6457  2.0432
 5919TIP3    H217764   3.163   4.207   4.988 -1.8098  1.9973  0.2817
 5920TIP3   OH217765   3.335   1.608   0.735  0.4935 -0.0604 -0.0320
 5920TIP3    H117766   3.429   1.606   0.754  0.9732 -0.6809 -2.1531
 5920TIP3    H217767   3.327   1.667   0.660 -0.6786 -0.7987 -0.5091
 5921TIP3   OH217768   2.767   5.943   4.233  0.9473 -0.0064 -0.4524
 5921TIP3    H117769   2.821   5.965   4.309 -0.9604 -3.1809  2.0771
 5921TIP3    H217770   2.685   5.990   4.248  0.9700  0.2921 -1.2198
 5922TIP3   OH217771   1.204   4.191   1.130 -0.0761  0.3252 -0.1952
 5922TIP3    H117772   1.153   4.239   1.196 -0.2158 -0.1260  0.0237
 5922TIP3    H217773   1.283   4.244   1.119  0.0516  0.2809  0.5036
 5923TIP3   OH217774   4.143   0.080   2.138  0.1685 -0.2101 -0.3491
 5923TIP3    H117775   4.176   0.064   2.049  1.0680 -0.0552 -0.0544
 5923TIP3    H217776   4.164   0.172   2.154 -0.6264 -0.0477 -0.2369
 5924TIP3   OH217777   3.279   5.116   4.974  0.2995  0.7032  0.1315
 5924TIP3    H117778   3.239   5.079   4.895 -2.4688  2.1138  0.7602
 5924TIP3    H217779   3.246   5.061   5.045  0.7677  0.9465  0.5391
 5925TIP3   OH217780   3.773   3.494   3.921 -0.2293  0.3625  0.0456
 5925TIP3    H117781   3.790   3.410   3.877 -1.8135 -0.0429  0.1589
 5925TIP3    H217782   3.844   3.551   3.890  0.0918 -0.6112 -1.1248
 5926TIP3   OH217783   4.078   4.304   3.154 -0.0018  0.5671 -0.4215
 5926TIP3    H117784   4.153   4.291   3.096  0.0185  0.6608 -0.4156
 5926TIP3    H217785   4.015   4.351   3.100 -0.5075 -0.4919 -0.7967
 5927TIP3   OH217786   1.273   2.546   1.839 -0.3663 -0.6915 -0.4581
 5927TIP3    H117787   1.289   2.514   1.927 -1.8025  0.3369  0.2102
 5927TIP3    H217788   1.280   2.467   1.784 -0.4576 -1.5270  0.6860
 5928TIP3   OH217789   1.777   4.868   4.840 -0.0119  0.0582 -0.2485
 5928TIP3    H117790   1.725   4.945   4.863 -0.1714 -0.4780  1.3007
 5928TIP3    H217791   1.868   4.897   4.848 -0.0520 -0.2477  1.6919
 5929TIP3   OH217792   3.758   4.535   4.921  0.0106  0.4656 -0.2591
 5929TIP3    H117793   3.724   4.468   4.981 -1.0559  1.2302  0.0062
 5929TIP3    H217794   3.848   4.507   4.903 -0.6201 -1.4446 -0.7280
 5930TIP3   OH217795   5.128   1.191   3.870  0.3477 -0.1876 -0.2624
 5930TIP3    H117796   5.069   1.181   3.945 -0.2997 -1.0673 -0.8617
 5930TIP3    H217797   5.113   1.281   3.839 -0.7230 -0.4077 -0.4228
 5931TIP3   OH217798   3.490   0.133   4.964  0.1463 -0.1555  0.2103
 5931TIP3    H117799   3.557   0.145   4.897 -1.2898  2.1118 -0.9439
 5931TIP3    H217800   3.452   0.047   4.945  2.5278 -1.4284  0.8044
 5932TIP3   OH217801   6.281   4.051   4.884 -0.2464  0.9631 -0.2957
 5932TIP3    H117802   6.210   4.116   4.876 -1.2957  0.3975  2.7849
 5932TIP3    H217803   6.242   3.969   4.855 -0.2411  0.9929 -0.3868
 5933TIP3   OH217804   1.808   3.679   3.676 -0.4008 -0.4917 -0.1741
 5933TIP3    H117805   1.727   3.730   3.679  0.8611  1.5843  0.4245
 5933TIP3    H217806   1.867   3.723   3.737  1.3536 -1.6655 -0.9302
 5934TIP3   OH217807   2.512   0.721   2.386  0.4815 -0.1917  0.3504
 5934TIP3    H117808   2.515   0.634   2.344  2.2289 -1.3571  2.6733
 5934TIP3    H217809   2.547   0.780   2.320  0.0536 -1.3723 -1.0022
 5935TIP3   OH217810   0.629   2.702   1.786 -0.7543 -0.2882  0.7145
 5935TIP3    H117811   0.670   2.786   1.768 -1.4186  0.4007  2.2128
 5935TIP3    H217812   0.568   2.720   1.859  0.2976 -2.3896  2.2213
 5936TIP3   OH217813   0.284   1.300   0.481 -0.2374 -0.3094 -0.2722
 5936TIP3    H117814   0.335   1.355   0.422 -0.9321  1.0065  0.3201
 5936TIP3    H217815   0.318   1.212   0.466  0.6456  0.2076 -1.5163
 5937TIP3   OH217816   3.047   4.477   3.723  0.4324 -0.1905  0.1222
 5937TIP3    H117817   2.991   4.551   3.746 -0.6055 -0.2186 -2.0398
 5937TIP3    H217818   3.131   4.497   3.762 -0.5025  0.9051  1.6688
 5938TIP3   OH217819   1.623   5.163   2.296  0.1414  0.8587 -0.0094
 5938TIP3    H117820   1.535   5.164   2.333 -0.1511  1.0917 -0.6899
 5938TIP3    H217821   1.681   5.179   2.370 -0.2929 -0.6323  0.6813
 5939TIP3   OH217822   4.801   2.916   4.519  0.1588 -0.4667  0.1989
 5939TIP3    H117823   4.760   2.869   4.446  1.8581 -0.5693 -0.7435
 5939TIP3    H217824   4.754   2.886   4.597 -0.7085 -1.5036 -0.6942
 5940TIP3   OH217825   5.448   5.879   3.367 -0.6036  0.3344  0.2180
 5940TIP3    H117826   5.447   5.840   3.280 -0.8237 -0.3807  0.5355
 5940TIP3    H217827   5.364   5.924   3.373 -1.6016 -1.5292  0.8968
 5941TIP3   OH217828   1.905   2.516   5.051 -0.3440 -0.1244 -0.4753
 5941TIP3    H117829   1.979   2.577   5.042 -0.3144 -0.2183 -0.8727
 5941TIP3    H217830   1.858   2.522   4.968 -0.1579 -0.8812 -0.6488
 5942TIP3   OH217831   5.381   2.473   4.138 -0.1385  0.4669  0.0358
 5942TIP3    H117832   5.450   2.418   4.099  0.3378  0.4557  0.8760
 5942TIP3    H217833   5.426   2.556   4.157 -0.6528  0.8733 -0.4678
 5943TIP3   OH217834   5.558   2.254   3.525  0.1257 -0.0794 -0.0720
 5943TIP3    H117835   5.576   2.329   3.581 -0.7323 -0.2721  0.4638
 5943TIP3    H217836   5.595   2.279   3.440  1.7087  0.0827  0.6359
 5944TIP3   OH217837   5.092   2.927   0.334  0.1385 -0.0240 -0.0762
 5944TIP3    H117838   5.120   2.876   0.410  1.7810  1.2066  0.2081
 5944TIP3    H217839   5.027   2.872   0.291  3.2097 -3.3855 -0.9966
 5945TIP3   OH217840   3.256   0.364   3.750  0.7132 -0.1899 -0.2404
 5945TIP3    H117841   3.216   0.362   3.663 -1.6558  1.8943  0.6592
 5945TIP3    H217842   3.249   0.273   3.781  0.7159 -0.7733 -1.8304
 5946TIP3   OH217843   4.117   0.775   3.902  0.0322  0.3910 -0.5589
 5946TIP3    H117844   4.113   0.822   3.818  0.7691  0.5071 -0.5396
 5946TIP3    H217845   4.193   0.718   3.893 -1.5151 -1.7091 -1.0202
 5947TIP3   OH217846   6.062   3.685   0.531 -0.1878 -0.2020  0.5381
 5947TIP3    H117847   5.971   3.687   0.560 -0.1239  0.2402  0.7110
 5947TIP3    H217848   6.070   3.761   0.473  0.0707 -0.2451  0.5163
 5948TIP3   OH217849   1.519   3.622   4.631 -0.8712 -0.0327  0.2562
 5948TIP3    H117850   1.527   3.718   4.637  0.7602 -0.1771  0.8858
 5948TIP3    H217851   1.479   3.596   4.714  1.7620 -0.1408  1.5784
 5949TIP3   OH217852   0.635   4.217   1.327  0.2813  0.0989 -0.3592
 5949TIP3    H117853   0.712   4.164   1.306  0.1585 -1.0521  1.8554
 5949TIP3    H217854   0.562   4.155   1.326 -0.0923  0.4930  0.8393
 5950TIP3   OH217855   5.002   5.396   2.361 -0.1649 -0.0914  0.5794
 5950TIP3    H117856   5.030   5.391   2.270 -0.6042 -2.5209  0.5397
 5950TIP3    H217857   4.908   5.382   2.359 -0.0819 -0.8718  1.4479
 5951TIP3   OH217858   3.952   0.759   2.081 -0.0526 -0.1053 -0.1525
 5951TIP3    H117859   3.995   0.760   1.996 -0.3810  3.5868 -0.4277
 5951TIP3    H217860   4.012   0.711   2.138  1.6005 -0.0962 -1.8032
 5952TIP3   OH217861   1.709   1.384   4.460  0.6449 -0.0059 -0.4252
 5952TIP3    H117862   1.681   1.448   4.524 -1.1715  0.3504 -1.4949
 5952TIP3    H217863   1.793   1.417   4.427 -0.0896  1.6789 -0.7188
 5953TIP3   OH217864   4.275   4.522   1.195  0.3190 -0.3022 -0.4179
 5953TIP3    H117865   4.252   4.584   1.126  2.2820 -0.9504 -1.7268
 5953TIP3    H217866   4.285   4.576   1.273 -0.3776  0.6707 -0.9828
 5954TIP3   OH217867   1.594   0.302   5.106  0.3036 -0.0878 -0.6127
 5954TIP3    H117868   1.522   0.292   5.169  1.3808 -0.4786  0.6073
 5954TIP3    H217869   1.551   0.314   5.022 -1.1906 -0.1351  0.1131
 5955TIP3   OH217870   3.518   1.305   0.025 -0.7398  0.0802  0.0221
 5955TIP3    H117871   3.532   1.311   0.120 -0.3173  0.4797 -0.0646
 5955TIP3    H217872   3.551   1.388  -0.009  1.2149 -0.9544 -0.7428
 5956TIP3   OH217873   2.712   5.656   1.518  0.1540  0.1712 -0.2140
 5956TIP3    H117874   2.659   5.637   1.441  2.1882 -4.0187 -0.8781
 5956TIP3    H217875   2.779   5.717   1.487 -0.4394  0.4009 -1.0731
 5957TIP3   OH217876   5.698   2.045   3.679 -0.5182 -0.4411  0.2951
 5957TIP3    H117877   5.683   2.060   3.586 -1.6142  0.5608  0.6000
 5957TIP3    H217878   5.616   2.010   3.712 -1.3547  2.2739  1.4534
 5958TIP3   OH217879   1.181   0.762   3.418  0.0473 -0.2772 -0.1484
 5958TIP3    H117880   1.174   0.836   3.479  1.4295 -1.0042  0.9397
 5958TIP3    H217881   1.221   0.692   3.470 -2.0572 -2.1280 -0.8828
 5959TIP3   OH217882   0.114   1.418   0.669  0.0273 -0.0719  0.2037
 5959TIP3    H117883   0.181   1.388   0.608  1.3311 -0.2137  1.6440
 5959TIP3    H217884   0.095   1.508   0.640  0.4688 -0.2031 -0.5284
 5960TIP3   OH217885   1.381   0.888   0.979 -0.0837  0.2567 -0.0098
 5960TIP3    H117886   1.420   0.812   1.022 -1.3210 -0.5568 -0.2919
 5960TIP3    H217887   1.450   0.920   0.921  0.3569 -0.8252 -0.1017
 5961TIP3   OH217888   0.068   4.932   1.700  0.0752 -0.0652 -0.8979
 5961TIP3    H117889   0.106   4.962   1.618  2.1204  2.8825  0.9244
 5961TIP3    H217890  -0.014   4.982   1.709  0.3885  0.4309 -0.7135
 5962TIP3   OH217891   3.723   5.103   0.349 -0.4412 -0.4730 -0.7243
 5962TIP3    H117892   3.673   5.051   0.411  0.4177 -1.1644 -0.5852
 5962TIP3    H217893   3.813   5.072   0.359  0.0530  0.8530 -0.8368
 5963TIP3   OH217894   0.542   4.891   2.816  0.2832 -0.2120 -0.2708
 5963TIP3    H117895   0.477   4.833   2.777 -2.2978  0.7503  2.2264
 5963TIP3    H217896   0.592   4.835   2.875  0.4050 -0.5848 -0.7211
 5964TIP3   OH217897   4.401   2.271   1.533 -0.0301  0.5591  0.0061
 5964TIP3    H117898   4.480   2.226   1.503  0.6754  1.3032  0.6933
 5964TIP3    H217899   4.428   2.316   1.613 -1.4798 -0.2258  1.0050
 5965TIP3   OH217900   3.312   0.478   0.664 -0.2140  0.4631 -0.0096
 5965TIP3    H117901   3.312   0.553   0.604 -2.4645 -0.0830 -0.7772
 5965TIP3    H217902   3.348   0.512   0.745  1.6671  1.5707 -1.2158
 5966TIP3   OH217903   0.794   2.347   3.164  0.0750 -0.3483  0.0931
 5966TIP3    H117904   0.800   2.428   3.113 -0.4834 -0.3929 -0.0589
 5966TIP3    H217905   0.849   2.362   3.240 -0.1725  0.2510  0.1595
 5967TIP3   OH217906  -0.007   1.641   0.590 -0.5292  0.4323  0.0016
 5967TIP3    H117907   0.034   1.723   0.617 -0.5853  0.3419  0.3741
 5967TIP3    H217908   0.019   1.629   0.499  0.0500  0.5116  0.1532
 5968TIP3   OH217909   1.953   5.165   4.656  0.0341  0.4151 -0.3823
 5968TIP3    H117910   2.013   5.226   4.612 -0.5293  2.2405  1.2211
 5968TIP3    H217911   2.004   5.130   4.728  0.4601 -1.3553 -1.4907
 5969TIP3   OH217912   3.126   0.379   2.324  0.2243 -0.2031 -0.3564
 5969TIP3    H117913   3.193   0.431   2.367 -0.9914 -0.4277  1.9476
 5969TIP3    H217914   3.048   0.435   2.323 -0.5112 -1.1837  0.2190
 5970TIP3   OH217915   3.262   3.881   0.301  0.2350  0.0448  0.0692
 5970TIP3    H117916   3.282   3.972   0.326  0.7125 -0.0775  0.1393
 5970TIP3    H217917   3.216   3.845   0.377  1.4531 -0.2482  0.7016
 5971TIP3   OH217918   4.057   0.045   1.469  0.5138  0.0045  0.3591
 5971TIP3    H117919   3.977  -0.000   1.494  0.8102 -1.0757 -0.5395
 5971TIP3    H217920   4.038   0.083   1.384  1.4603 -1.7922 -0.7278
 5972TIP3   OH217921   3.853   1.466   2.315 -0.8020 -0.0659 -0.0870
 5972TIP3    H117922   3.928   1.487   2.259 -1.7419  0.2654 -1.2678
 5972TIP3    H217923   3.891   1.418   2.389  0.4986 -0.3808 -0.9236
 5973TIP3   OH217924   2.854   1.716   4.949  0.0134 -0.0193  0.3258
 5973TIP3    H117925   2.780   1.670   4.989  0.5429 -1.5088 -0.3112
 5973TIP3    H217926   2.847   1.694   4.856  0.3759  1.1009  0.0243
 5974TIP3   OH217927   2.683   1.196   0.271  0.3057  0.5313 -0.4791
 5974TIP3    H117928   2.759   1.154   0.312  0.5004  2.1761  0.9697
 5974TIP3    H217929   2.720   1.268   0.219 -0.1937  0.7050 -0.6046
 5975TIP3   OH217930   2.176   1.273   0.145 -0.0284 -0.2229  0.5280
 5975TIP3    H117931   2.212   1.352   0.104 -0.9052 -0.8734 -1.5939
 5975TIP3    H217932   2.252   1.228   0.181  0.6382  0.9328  0.6224
 5976TIP3   OH217933   1.467   4.877   2.426  0.3478  0.0860 -0.1445
 5976TIP3    H117934   1.421   4.952   2.389  0.7666  0.4513  0.0719
 5976TIP3    H217935   1.399   4.811   2.439 -0.2020  0.7905  0.6326
 5977TIP3   OH217936   0.296   1.484   3.750  0.0656 -0.5414 -0.0467
 5977TIP3    H117937   0.294   1.565   3.698  2.2502  0.6440  1.5357
 5977TIP3    H217938   0.212   1.442   3.732 -1.9302  2.9027  0.3110
 5978TIP3   OH217939   0.021   4.324   0.043  0.0521  0.3274  0.5747
 5978TIP3    H117940   0.097   4.276   0.010 -0.1783  0.8033 -0.6977
 5978TIP3    H217941  -0.036   4.255   0.079 -0.5719 -0.4967 -1.8195
 5979TIP3   OH217942   5.567   5.280   1.235  0.0703  0.1161 -0.2779
 5979TIP3    H117943   5.549   5.262   1.143  0.6269 -0.3830 -0.2933
 5979TIP3    H217944   5.656   5.249   1.249 -0.0912 -0.0234  0.4848
 5980TIP3   OH217945   4.461   4.798   3.686 -0.0358  1.1612  0.2026
 5980TIP3    H117946   4.389   4.742   3.656  0.8427  0.2098 -0.1507
 5980TIP3    H217947   4.474   4.772   3.777  1.7936 -0.7910 -0.5502
 5981TIP3   OH217948   2.309   4.521   3.124  0.0043  0.0917 -0.4556
 5981TIP3    H117949   2.268   4.572   3.053 -0.6645  0.4006  0.1403
 5981TIP3    H217950   2.379   4.578   3.157 -1.3669  1.1021  0.8677
 5982TIP3   OH217951   3.020   3.579   3.451  0.3878  0.2711 -0.4070
 5982TIP3    H117952   2.991   3.517   3.385 -0.7087  1.0254 -0.6664
 5982TIP3    H217953   3.011   3.532   3.534 -0.5491  0.1102 -0.5895
 5983TIP3   OH217954   6.199   5.497   1.743 -0.4022  0.0260 -0.4806
 5983TIP3    H117955   6.232   5.408   1.732 -1.7198 -0.8287  1.8571
 5983TIP3    H217956   6.240   5.529   1.823 -0.8042  1.1067 -0.6853
 5984TIP3   OH217957   4.365   4.191   3.890 -0.4577 -0.0138 -0.3892
 5984TIP3    H117958   4.342   4.217   3.980  1.9687  1.1268 -0.0235
 5984TIP3    H217959   4.326   4.104   3.880 -0.8792 -0.1340  1.7494
 5985TIP3   OH217960   0.196   1.445   4.966  0.1444 -0.5697 -0.2372
 5985TIP3    H117961   0.238   1.455   4.881  0.8170  2.2144  0.3328
 5985TIP3    H217962   0.104   1.468   4.950 -0.1449 -1.8709 -0.5358
 5986TIP3   OH217963   5.883   0.248   1.378  0.2170  0.1082 -0.3358
 5986TIP3    H117964   5.822   0.191   1.425  0.8028  0.6145  1.0978
 5986TIP3    H217965   5.832   0.327   1.360 -0.0650 -0.1581 -0.7135
 5987TIP3   OH217966   2.902   5.725   3.443  0.2415 -0.6088 -0.1899
 5987TIP3    H117967   2.932   5.810   3.475  1.6279 -1.5997  1.2863
 5987TIP3    H217968   2.848   5.689   3.513  1.0110 -1.6194 -0.0810
 5988TIP3   OH217969   2.469   1.778   4.427  0.3903 -0.1774 -0.6346
 5988TIP3    H117970   2.377   1.759   4.446 -0.0212  0.9607 -1.3556
 5988TIP3    H217971   2.511   1.780   4.513 -0.5697  0.7579 -0.1665
 5989TIP3   OH217972   3.984   5.339   3.751  0.6010  0.4336 -0.1520
 5989TIP3    H117973   3.943   5.402   3.692  0.3712  0.0732 -0.3799
 5989TIP3    H217974   4.062   5.384   3.784  0.1104  1.0601  0.1638
 5990TIP3   OH217975   3.340   3.000   4.362  0.2917  0.1863 -0.3466
 5990TIP3    H117976   3.373   2.963   4.443  1.5489  1.4886 -0.2269
 5990TIP3    H217977   3.332   2.925   4.302  1.5273 -0.4531  0.2636
 5991TIP3   OH217978   1.849   3.394   4.984 -0.3949  0.5217 -0.1445
 5991TIP3    H117979   1.902   3.324   5.022 -0.1417  0.6559 -0.2497
 5991TIP3    H217980   1.888   3.410   4.898  0.8300  2.1922  0.6673
 5992TIP3   OH217981   1.641   3.371   1.404  0.8048  1.0649 -0.3072
 5992TIP3    H117982   1.614   3.349   1.493  0.1873 -2.3198 -1.1540
 5992TIP3    H217983   1.735   3.352   1.402  1.1861  2.7855  0.0005
 5993TIP3   OH217984   2.716   4.625   1.566 -0.6700  0.1225  0.8143
 5993TIP3    H117985   2.645   4.671   1.521 -0.2730  0.3304  0.3861
 5993TIP3    H217986   2.780   4.694   1.586 -1.4324  0.2918  2.9518
 5994TIP3   OH217987   2.998   3.389   3.668  0.0566 -0.1600  0.3240
 5994TIP3    H117988   3.046   3.328   3.724 -0.3828 -1.7096 -0.9261
 5994TIP3    H217989   2.906   3.365   3.679 -0.0232 -0.6344 -1.1772
 5995TIP3   OH217990   6.314   4.989   2.757  0.6383 -0.1834  0.0564
 5995TIP3    H117991   6.318   5.036   2.840  0.2323  0.5402 -0.3242
 5995TIP3    H217992   6.221   4.985   2.736  0.6471 -1.3908  0.2028
 5996TIP3   OH217993   2.154   2.511   0.610  0.0824 -0.1740 -0.1193
 5996TIP3    H117994   2.196   2.482   0.529 -2.1465 -1.2457 -0.9751
 5996TIP3    H217995   2.064   2.532   0.584 -0.3769  0.5660  1.8918
 5997TIP3   OH217996   3.273   2.052   2.729 -0.2252  0.4704  0.2506
 5997TIP3    H117997   3.353   2.038   2.779 -0.2471 -0.1880  0.1021
 5997TIP3    H217998   3.219   1.975   2.747 -0.2386  0.2248 -0.7713
 5998TIP3   OH217999   4.794   0.582   1.770  0.0483  0.2569  0.1927
 5998TIP3    H118000   4.801   0.509   1.708 -0.5902  0.9699 -0.7510
 5998TIP3    H218001   4.735   0.644   1.727 -0.5117  0.7289  1.5785
 5999TIP3   OH218002   2.179   4.217   1.398  0.4016 -0.0821 -0.4885
 5999TIP3    H118003   2.237   4.293   1.409  0.2527  0.0109 -0.3281
 5999TIP3    H218004   2.234   4.150   1.359  0.6278 -0.0048 -0.3053
 6000TIP3   OH218005   5.431   4.849   3.084  0.0775  0.1430  0.5918
 6000TIP3    H118006   5.381   4.849   3.166 -0.6986  0.5363  0.1341
 6000TIP3    H218007   5.499   4.915   3.097  0.7926 -0.7209  1.3935
 6001TIP3   OH218008   4.184   1.289   3.835  0.4911 -0.1953  0.4585
 6001TIP3    H118009   4.259   1.341   3.806 -0.7057  1.3173 -0.0081
 6001TIP3    H218010   4.183   1.213   3.776  0.2591  0.9843 -1.1038
 6002TIP3   OH218011   6.116   2.328   1.058  0.6175 -0.2716  0.1565
 6002TIP3    H118012   6.067   2.390   1.003  0.1881 -1.6509 -1.0972
 6002TIP3    H218013   6.207   2.353   1.046  0.4265  0.3761 -0.0007
 6003TIP3   OH218014   2.256   0.243   4.942 -0.0184  0.3913  0.0818
 6003TIP3    H118015   2.251   0.206   5.031  1.8973 -1.0222 -0.3397
 6003TIP3    H218016   2.284   0.333   4.956  3.2039 -0.5826  0.9338
 6004TIP3   OH218017   3.741   3.323   2.952 -0.5004 -0.3721 -0.0303
 6004TIP3    H118018   3.832   3.309   2.978 -0.8472 -1.0851  0.8296
 6004TIP3    H218019   3.705   3.379   3.020 -0.3023  1.2125 -1.1885
 6005TIP3   OH218020   3.967   5.140   2.121  0.9176  0.1367 -0.4457
 6005TIP3    H118021   3.990   5.211   2.062 -0.3529  1.0622  0.1325
 6005TIP3    H218022   3.898   5.092   2.076  0.5898  0.2915 -0.1127
 6006TIP3   OH218023   3.335   2.321   2.897 -0.2843  0.9120 -0.2584
 6006TIP3    H118024   3.339   2.301   2.803 -0.0414  1.0781 -0.2844
 6006TIP3    H218025   3.279   2.252   2.934  0.0088  0.5701 -0.4500
 6007TIP3   OH218026   0.269   1.907   4.719 -0.6149  0.1995 -0.4220
 6007TIP3    H118027   0.240   1.953   4.640 -0.3625 -0.2885 -0.8112
 6007TIP3    H218028   0.357   1.940   4.736 -1.6112  2.2190  1.1842
 6008TIP3   OH218029   4.633   3.923   2.492 -0.2735 -0.5769 -0.1743
 6008TIP3    H118030   4.660   3.842   2.534  0.3996 -0.2185  0.0884
 6008TIP3    H218031   4.689   3.991   2.530  0.8617 -0.3381 -2.1120
 6009TIP3   OH218032   2.894   1.326   3.860  0.2329  0.7082 -0.3066
 6009TIP3    H118033   2.868   1.247   3.907  1.0497  0.4737 -0.2323
 6009TIP3    H218034   2.860   1.398   3.913 -0.7466  0.4143 -0.5161
 6010TIP3   OH218035   3.448   1.428   3.604 -0.0641  0.4481  0.0621
 6010TIP3    H118036   3.492   1.508   3.634  0.3335  0.4678 -0.5459
 6010TIP3    H218037   3.518   1.363   3.599 -0.6264 -0.3788  1.9721
 6011TIP3   OH218038   2.145   2.053   1.971  0.1322  0.5819 -0.9130
 6011TIP3    H118039   2.165   2.134   2.017  0.9083  0.2693 -0.6857
 6011TIP3    H218040   2.050   2.052   1.963  0.1579  1.8669 -1.5758
 6012TIP3   OH218041   2.730   1.315   2.568 -0.0617 -0.1473  0.5803
 6012TIP3    H118042   2.678   1.247   2.523  0.4319 -0.9362  1.1692
 6012TIP3    H218043   2.747   1.278   2.655 -0.3895  1.0471  1.1688
 6013TIP3   OH218044   0.429   4.670   0.189 -0.1200  0.0116  0.2589
 6013TIP3    H118045   0.464   4.651   0.276 -1.7941 -1.1156  0.7407
 6013TIP3    H218046   0.335   4.683   0.204 -0.9242 -2.6741 -1.6511
 6014TIP3   OH218047   5.257   0.298   0.102  0.0379  0.4255 -0.5746
 6014TIP3    H118048   5.285   0.213   0.068  1.0408  0.7514 -0.5941
 6014TIP3    H218049   5.225   0.345   0.026 -0.3348  0.1385 -0.5974
 6015TIP3   OH218050   2.423   2.360   4.782 -0.1603 -0.3331 -0.0743
 6015TIP3    H118051   2.399   2.301   4.853 -0.9272  2.1776  1.9027
 6015TIP3    H218052   2.339   2.393   4.748 -0.0913 -3.8015 -4.5240
 6016TIP3   OH218053   1.913   1.680   3.327  0.2243  0.6237  0.3536
 6016TIP3    H118054   1.844   1.702   3.265 -0.0418 -3.4831 -1.0980
 6016TIP3    H218055   1.878   1.706   3.412 -1.9782  1.0609 -0.6210
 6017TIP3   OH218056   0.340   0.970   4.682  0.4863  0.0834 -0.1427
 6017TIP3    H118057   0.256   0.944   4.644  0.7577 -1.2179  0.1101
 6017TIP3    H218058   0.317   1.015   4.764  0.0523 -1.5198  0.6526
 6018TIP3   OH218059   1.046   0.476   0.295  0.1386  0.7581 -0.3856
 6018TIP3    H118060   1.049   0.471   0.390  0.0778 -0.4899 -0.4279
 6018TIP3    H218061   1.003   0.394   0.268 -2.2835  2.2483 -1.3801
 6019TIP3   OH218062   6.272   1.640   4.253 -0.1466 -0.3407  0.0905
 6019TIP3    H118063   6.346   1.647   4.192 -0.7109 -2.1810 -0.9146
 6019TIP3    H218064   6.243   1.549   4.244 -1.0686 -0.3191  2.2113
 6020TIP3   OH218065   4.300   4.425   2.099 -0.2243  0.3955 -0.3275
 6020TIP3    H118066   4.232   4.374   2.054 -0.1208 -0.3315  0.3298
 6020TIP3    H218067   4.253   4.498   2.139 -0.7965 -0.6346  0.9500
 6021TIP3   OH218068   5.870   1.440   4.823  0.0636 -0.0640  0.3533
 6021TIP3    H118069   5.800   1.470   4.881 -1.3239 -0.4747 -1.0431
 6021TIP3    H218070   5.928   1.389   4.880 -0.1633  1.1544  1.7510
 6022TIP3   OH218071   2.743   2.214   0.752  0.2216 -0.1795  0.2858
 6022TIP3    H118072   2.657   2.255   0.740 -0.1621 -0.9802  0.2209
 6022TIP3    H218073   2.802   2.287   0.766 -0.6265  0.3432  1.2798
 6023TIP3   OH218074   1.956   2.723   2.940 -0.3241  0.1672 -0.5457
 6023TIP3    H118075   2.012   2.662   2.892 -1.3774 -0.4294 -1.0498
 6023TIP3    H218076   1.972   2.808   2.898  0.2569  0.0225 -0.6286
 6024TIP3   OH218077   1.403   3.985   3.118 -0.4423 -0.6797 -0.2046
 6024TIP3    H118078   1.392   4.019   3.029  2.6940  0.3232 -0.3132
 6024TIP3    H218079   1.430   3.894   3.105  0.5819 -0.3700 -0.3484
 6025TIP3   OH218080   5.499   0.443   3.480 -0.1401 -0.5029 -0.4164
 6025TIP3    H118081   5.508   0.458   3.386  0.6403  2.1051  0.0047
 6025TIP3    H218082   5.407   0.460   3.499 -0.2453 -0.7916 -0.6712
 6026TIP3   OH218083   3.861   1.113   3.752 -0.6052  0.0931 -0.1502
 6026TIP3    H118084   3.935   1.068   3.710 -0.8935 -0.6650  0.1267
 6026TIP3    H218085   3.901   1.187   3.798  0.1069 -0.7544  0.6594
 6027TIP3   OH218086   2.593   1.319   1.023  0.2842  0.2231  0.2407
 6027TIP3    H118087   2.631   1.403   1.051 -0.4209  0.8117 -0.5455
 6027TIP3    H218088   2.546   1.287   1.100 -0.5978  1.2266  0.1393
 6028TIP3   OH218089   0.740   4.474   0.475  0.2201 -0.1974 -0.7908
 6028TIP3    H118090   0.769   4.386   0.448  2.4570  0.4801 -0.8497
 6028TIP3    H218091   0.788   4.490   0.556  2.2512  2.0552 -2.2970
 6029TIP3   OH218092   5.398   4.666   1.785 -0.3740 -0.3561  0.2043
 6029TIP3    H118093   5.465   4.598   1.795  2.6493  2.3256 -0.1377
 6029TIP3    H218094   5.389   4.677   1.690 -0.6800 -0.1524  0.2558
 6030TIP3   OH218095   4.703   5.445   0.156  0.2972  0.1350  0.0810
 6030TIP3    H118096   4.672   5.374   0.212  0.0655  0.1701 -0.0042
 6030TIP3    H218097   4.782   5.478   0.200  0.0217  0.2714  0.4746
 6031TIP3   OH218098   2.010   1.222   0.961  0.2038 -0.1548  0.3250
 6031TIP3    H118099   2.090   1.213   0.910  0.1538 -3.4595  0.6230
 6031TIP3    H218100   1.940   1.218   0.896  0.2154  0.0906  0.2954
 6032TIP3   OH218101   6.254   1.799   1.715 -1.0822  0.2710 -0.2968
 6032TIP3    H118102   6.305   1.811   1.795  2.3802  1.4312 -2.4749
 6032TIP3    H218103   6.222   1.709   1.719 -0.7136  0.1889  2.1578
 6033TIP3   OH218104   4.878   3.844   3.584  0.2726 -0.2603  0.4186
 6033TIP3    H118105   4.851   3.936   3.590  2.0311  0.2283  1.8192
 6033TIP3    H218106   4.964   3.847   3.543  0.4082 -1.2727  0.6000
 6034TIP3   OH218107   3.055   3.203   2.738  0.7771 -0.0309 -0.1532
 6034TIP3    H118108   3.086   3.145   2.807  0.9568 -1.4481 -1.3491
 6034TIP3    H218109   2.997   3.265   2.782  1.0761 -0.7393  1.2862
 6035TIP3   OH218110   3.659   2.748   2.748  0.3460 -0.1230  0.3306
 6035TIP3    H118111   3.676   2.727   2.840 -0.7953 -0.3171  0.5062
 6035TIP3    H218112   3.711   2.827   2.731 -1.3737  1.4204  1.8549
 6036TIP3   OH218113   3.823   1.591   4.270  0.0938 -0.2914  0.3133
 6036TIP3    H118114   3.816   1.497   4.285  2.2384 -0.7093 -0.9166
 6036TIP3    H218115   3.778   1.605   4.186  1.0607 -0.5244 -0.2690
 6037TIP3   OH218116   2.236   0.445   4.663  0.2658 -0.1661  0.8514
 6037TIP3    H118117   2.288   0.442   4.742  1.0120 -0.6616  0.3502
 6037TIP3    H218118   2.153   0.404   4.687  0.4022 -0.1102  1.4283
 6038TIP3   OH218119   5.551   5.660   5.131  0.5748  0.2858 -0.1630
 6038TIP3    H118120   5.587   5.588   5.079  0.7844 -0.9287  1.5814
 6038TIP3    H218121   5.625   5.718   5.146  0.0004  2.0660 -3.2887
 6039TIP3   OH218122   3.215   1.545   4.032 -0.1930 -0.1887  0.7464
 6039TIP3    H118123   3.260   1.615   4.080  0.4201  0.1322 -0.2695
 6039TIP3    H218124   3.284   1.482   4.013 -0.6101 -0.7359  1.0403
 6040TIP3   OH218125   1.439   4.097   4.850  0.2263 -0.3248 -0.2118
 6040TIP3    H118126   1.422   4.191   4.848 -0.6081 -0.4506  0.1591
 6040TIP3    H218127   1.461   4.079   4.942  2.6292 -0.1551 -0.6927
 6041TIP3   OH218128   1.205   0.650   4.663  0.0228 -0.8709 -0.3663
 6041TIP3    H118129   1.235   0.677   4.750 -3.2994 -0.0466  0.6910
 6041TIP3    H218130   1.182   0.731   4.619  1.6794 -1.2772 -2.1188
 6042TIP3   OH218131   4.005   4.902   4.940  0.1175 -0.0509  0.0733
 6042TIP3    H118132   3.913   4.873   4.943 -0.3344  1.3202  0.0474
 6042TIP3    H218133   4.000   4.993   4.913  1.5556 -0.1763 -0.6827
 6043TIP3   OH218134   0.524   0.291   1.983 -0.4533  0.6637 -0.1432
 6043TIP3    H118135   0.601   0.283   1.927  0.2319 -4.8646  1.0441
 6043TIP3    H218136   0.450   0.269   1.925 -0.5799  1.2079 -0.1979
 6044TIP3   OH218137   4.013   2.708   1.474  0.5029 -0.5276  0.0340
 6044TIP3    H118138   4.087   2.761   1.504  1.5202 -1.7567 -0.2165
 6044TIP3    H218139   4.038   2.618   1.496 -0.3438 -1.0969 -1.2159
 6045TIP3   OH218140   0.200   3.560   4.972  0.1359  0.0428  0.3068
 6045TIP3    H118141   0.139   3.619   4.928 -0.7516 -2.0902 -1.5369
 6045TIP3    H218142   0.145   3.490   5.007  1.1308  0.2953  2.5460
 6046TIP3   OH218143   1.471   3.392   2.650 -0.3503  0.0480  0.0300
 6046TIP3    H118144   1.473   3.389   2.746 -1.4706  1.5465  0.1527
 6046TIP3    H218145   1.378   3.381   2.628 -0.4296  1.8640 -0.7238
 6047TIP3   OH218146   1.066   3.442   1.568  0.2406 -0.4021 -0.0513
 6047TIP3    H118147   1.142   3.386   1.586 -0.0311 -1.1556 -1.0993
 6047TIP3    H218148   1.098   3.505   1.503  0.4878  0.5571  0.9722
 6048TIP3   OH218149   1.611   3.914   1.160 -0.1475 -0.3786  0.2879
 6048TIP3    H118150   1.667   3.879   1.229  0.5862  2.1521  1.1070
 6048TIP3    H218151   1.563   3.986   1.202 -1.2242 -0.0870 -1.3453
 6049TIP3   OH218152   3.742   2.921   5.165  0.2130 -0.3992  0.3603
 6049TIP3    H118153   3.685   2.845   5.163  1.2648 -1.2172 -1.2821
 6049TIP3    H218154   3.683   2.996   5.175 -0.9568 -1.3287  0.5606
 6050TIP3   OH218155   2.970   2.135   4.959 -0.4771 -0.6030  0.4971
 6050TIP3    H118156   2.883   2.136   4.920 -0.7479 -1.2731  1.0633
 6050TIP3    H218157   2.990   2.042   4.971  0.3159 -0.4576  0.3737
 6051TIP3   OH218158   1.684   2.644   1.110  0.1449  0.1597 -0.3925
 6051TIP3    H118159   1.596   2.647   1.071  0.0908 -0.7479 -0.3805
 6051TIP3    H218160   1.743   2.633   1.035  0.4113  2.2339 -0.5428
 6052TIP3   OH218161   2.238   0.976   0.776 -0.2765 -0.5472  0.3617
 6052TIP3    H118162   2.185   0.940   0.847 -0.6707 -0.6160  0.0366
 6052TIP3    H218163   2.322   0.996   0.817 -0.2819 -1.1813  0.7080
 6053TIP3   OH218164   1.156   0.748   0.783  0.2679  0.1661  0.6275
 6053TIP3    H118165   1.202   0.773   0.703  1.7285 -2.3571  0.5847
 6053TIP3    H218166   1.203   0.794   0.853 -0.3011  1.4784  0.1822
 6054TIP3   OH218167   5.920   1.236   2.842  0.0966  0.0411 -0.1893
 6054TIP3    H118168   6.010   1.265   2.830  0.0250  0.2038 -0.3367
 6054TIP3    H218169   5.927   1.160   2.901  0.1052  1.6382  2.0028
 6055TIP3   OH218170   2.377   1.516   3.370 -0.1134  0.7211  0.5593
 6055TIP3    H118171   2.328   1.599   3.373  0.0949  0.8323  1.1242
 6055TIP3    H218172   2.316   1.454   3.330  0.3641  1.5461 -1.5939
 6056TIP3   OH218173   4.135   5.043   2.792  0.1946 -0.3730  0.3589
 6056TIP3    H118174   4.125   4.950   2.768  0.2236 -0.2443 -0.1702
 6056TIP3    H218175   4.133   5.089   2.708 -1.1194  0.2350  0.7104
 6057TIP3   OH218176   3.292   2.791   4.558  0.1435  1.2854  0.2106
 6057TIP3    H118177   3.268   2.754   4.642  0.7343  0.3319 -0.0237
 6057TIP3    H218178   3.350   2.864   4.580  1.7007 -0.0178  0.6127
 6058TIP3   OH218179   0.896   5.495   2.696  0.4625 -0.6262  0.0045
 6058TIP3    H118180   0.958   5.425   2.673  2.1817  1.0044 -0.6914
 6058TIP3    H218181   0.830   5.492   2.627  1.3985 -0.6109 -0.9282
 6059TIP3   OH218182   4.666   3.790   3.401  0.2725 -0.2521  0.0463
 6059TIP3    H118183   4.743   3.834   3.438 -0.2383  0.9366 -0.2648
 6059TIP3    H218184   4.607   3.778   3.475 -0.2990  1.1541 -0.1589
 6060TIP3   OH218185   4.073   4.972   2.329 -0.3773 -0.4299  0.0965
 6060TIP3    H118186   4.024   5.017   2.261 -1.6269 -1.8494 -0.0139
 6060TIP3    H218187   4.148   4.934   2.284  0.2275  0.8064  0.0402
 6061TIP3   OH218188   5.681   5.090   0.831 -0.0871  0.1542  0.1900
 6061TIP3    H118189   5.706   5.037   0.755 -0.1300  0.3090  0.0679
 6061TIP3    H218190   5.657   5.175   0.794 -1.3071 -0.1486  0.2513
 6062TIP3   OH218191   4.928   1.541   0.648  0.0312 -0.6152  0.6648
 6062TIP3    H118192   4.956   1.539   0.739 -1.8253 -3.5204  1.3077
 6062TIP3    H218193   4.847   1.593   0.649  0.4874  0.1202  0.4611
 6063TIP3   OH218194   5.448   0.681   2.847 -0.7564  0.1372 -0.0920
 6063TIP3    H118195   5.385   0.727   2.902 -0.8252  0.2856 -0.2950
 6063TIP3    H218196   5.503   0.749   2.809 -0.1267 -0.0309  0.5087
 6064TIP3   OH218197   4.899   3.389   3.563 -0.3728 -0.3810  0.2304
 6064TIP3    H118198   4.988   3.423   3.553 -0.3962  0.6124  2.7642
 6064TIP3    H218199   4.874   3.363   3.474  2.7444 -1.5672 -0.4435
 6065TIP3   OH218200   5.891   0.164   2.384 -0.4073 -0.1237 -0.1596
 6065TIP3    H118201   5.832   0.094   2.409 -1.1759  0.6429  0.2060
 6065TIP3    H218202   5.970   0.150   2.437 -0.2631 -1.1273 -0.6265
 6066TIP3   OH218203   3.393   2.158   4.844  0.0898  0.0083  0.0963
 6066TIP3    H118204   3.439   2.178   4.763 -0.8357 -0.2720 -0.5133
 6066TIP3    H218205   3.427   2.221   4.907  2.5324 -1.2255  0.1396
 6067TIP3   OH218206   2.700   4.498   1.228 -0.2463 -0.4093 -0.2289
 6067TIP3    H118207   2.682   4.572   1.285  1.8866 -1.4115  1.9146
 6067TIP3    H218208   2.672   4.527   1.141 -1.0387  2.2306  0.8184
 6068TIP3   OH218209   5.757   2.373   5.137  0.6651 -0.1458  0.6379
 6068TIP3    H118210   5.845   2.409   5.146  0.3273  1.9342 -2.7328
 6068TIP3    H218211   5.699   2.448   5.143 -0.5403 -0.8755 -0.9179
 6069TIP3   OH218212   5.135   0.754   5.164 -0.2709  0.2273  0.1615
 6069TIP3    H118213   5.230   0.761   5.159 -0.1373 -1.2208  0.1438
 6069TIP3    H218214   5.108   0.740   5.073 -0.4512  0.1743  0.2228
 6070TIP3   OH218215   1.693   0.669   1.251 -0.1172 -0.2471 -0.5091
 6070TIP3    H118216   1.645   0.724   1.313  2.2516  1.2137  0.1715
 6070TIP3    H218217   1.758   0.624   1.304  0.7852 -0.3777 -1.6871
 6071TIP3   OH218218   3.867   2.160   4.103 -0.2807  0.2988  0.1522
 6071TIP3    H118219   3.775   2.158   4.128 -0.2929  2.2232  0.3850
 6071TIP3    H218220   3.866   2.175   4.009 -0.2455  2.3974  0.4457
 6072TIP3   OH218221   3.618   3.737   0.929 -0.3580  0.4979  0.3924
 6072TIP3    H118222   3.675   3.763   1.001 -2.4481 -2.3605  3.3934
 6072TIP3    H218223   3.530   3.759   0.959 -1.4070 -1.9033 -0.6672
 6073TIP3   OH218224   0.375   0.319   2.301  0.1170  0.0502  0.0981
 6073TIP3    H118225   0.420   0.326   2.217  0.7307  0.4047  0.4487
 6073TIP3    H218226   0.402   0.233   2.335  2.1803  1.0774  1.2201
 6074TIP3   OH218227   1.202   5.484   0.814 -0.6126  0.4794 -0.6567
 6074TIP3    H118228   1.153   5.413   0.773 -0.8585  0.5245 -0.4473
 6074TIP3    H218229   1.136   5.532   0.864  0.1880 -1.7593  2.9360
 6075TIP3   OH218230   0.499   3.748   1.103  0.2752  0.1761  0.0004
 6075TIP3    H118231   0.510   3.841   1.125 -0.5587  0.7145 -1.7140
 6075TIP3    H218232   0.498   3.746   1.008  1.5251 -1.7736 -0.0244
 6076TIP3   OH218233   5.135   4.134   4.278 -0.4262 -0.3900  0.1406
 6076TIP3    H118234   5.078   4.061   4.252 -0.3259 -0.5660  0.4127
 6076TIP3    H218235   5.223   4.105   4.253 -0.3355 -0.5360  0.6196
 6077TIP3   OH218236   4.737   5.857   1.967 -0.8302 -0.4129 -0.3032
 6077TIP3    H118237   4.762   5.765   1.956  1.5983  0.3054 -1.4939
 6077TIP3    H218238   4.687   5.877   1.888 -2.1990 -0.9253  0.4072
 6078TIP3   OH218239   4.587   2.155   1.363 -0.6692 -0.0160 -0.3139
 6078TIP3    H118240   4.677   2.133   1.339 -0.7470  0.0401 -0.6679
 6078TIP3    H218241   4.533   2.091   1.316 -0.8381  0.2433 -0.4776
 6079TIP3   OH218242   3.781   5.245   2.771  0.4085 -0.3713  0.3723
 6079TIP3    H118243   3.690   5.222   2.749  0.0592 -0.9601  2.2516
 6079TIP3    H218244   3.773   5.316   2.834  1.3571  1.0149 -1.0114
 6080TIP3   OH218245   3.037   2.624   2.859 -0.2789  0.2147  0.4903
 6080TIP3    H118246   2.968   2.665   2.807 -0.3607 -0.3094  0.1729
 6080TIP3    H218247   3.110   2.614   2.797  0.9333  2.7750  1.3424
 6081TIP3   OH218248   4.932   1.271   4.749  0.0792  0.9914 -0.6715
 6081TIP3    H118249   4.894   1.325   4.680 -0.8997  0.2723 -0.7246
 6081TIP3    H218250   4.993   1.213   4.703 -1.4175 -0.2768 -1.1517
 6082TIP3   OH218251   5.387   0.298   4.033 -0.2270  0.2169  0.0279
 6082TIP3    H118252   5.381   0.392   4.014 -0.0391  0.2752  0.2455
 6082TIP3    H218253   5.391   0.256   3.947  1.1786  0.5096 -0.0774
 6083TIP3   OH218254   2.607   2.323   5.052 -0.2339 -0.0152 -0.1582
 6083TIP3    H118255   2.602   2.372   5.134  0.3847 -0.4009  0.1176
 6083TIP3    H218256   2.522   2.280   5.044 -0.0430 -0.5829  0.6778
 6084TIP3   OH218257   6.112   3.579   0.261  0.0163  0.0389 -0.2278
 6084TIP3    H118258   6.140   3.557   0.350 -0.0239  1.0681  0.0567
 6084TIP3    H218259   6.170   3.528   0.204 -1.5451 -2.5421  0.3467
 6085TIP3   OH218260   5.163   4.947   2.858 -0.0481 -0.4361 -0.0179
 6085TIP3    H118261   5.187   4.863   2.819 -1.7881 -0.3402 -1.4280
 6085TIP3    H218262   5.068   4.949   2.853 -0.0983  1.1822  0.9809
 6086TIP3   OH218263   3.195   2.708   4.807 -0.3837  0.0704  0.4475
 6086TIP3    H118264   3.144   2.756   4.872 -1.9112  1.1210 -1.4242
 6086TIP3    H218265   3.173   2.616   4.822 -0.1445  0.2024  1.8209
 6087TIP3   OH218266   5.836   1.389   1.359 -0.0991  0.5649 -0.2620
 6087TIP3    H118267   5.820   1.462   1.419 -0.2201  0.8090 -0.5811
 6087TIP3    H218268   5.856   1.432   1.275 -0.0007  0.2314 -0.4109
 6088TIP3   OH218269   4.345   2.706   3.191 -0.0613  0.0360 -0.0569
 6088TIP3    H118270   4.315   2.767   3.124 -1.1177 -0.0933  0.2825
 6088TIP3    H218271   4.275   2.704   3.256  0.7733 -0.1325  0.8682
 6089TIP3   OH218272   5.311   1.173   4.796 -0.3047  0.3756  0.2974
 6089TIP3    H118273   5.263   1.254   4.775 -0.1514  0.1325 -1.0803
 6089TIP3    H218274   5.291   1.114   4.724  0.8437 -0.2748  0.4889
 6090TIP3   OH218275   0.485   4.214   3.257 -0.3398 -0.3391  0.2323
 6090TIP3    H118276   0.479   4.309   3.246 -1.0008 -0.5560 -1.7184
 6090TIP3    H218277   0.457   4.198   3.347 -0.7556  1.2724  0.4183
 6091TIP3   OH218278   0.106   0.433   4.049  0.4957  0.1905  0.4199
 6091TIP3    H118279   0.059   0.359   4.086  1.0209 -0.4379 -0.1502
 6091TIP3    H218280   0.180   0.394   4.003  0.0001  0.9525 -1.0838
 6092TIP3   OH218281   4.045   3.040   1.166 -0.4315  0.0167  0.4665
 6092TIP3    H118282   4.099   3.079   1.235  0.7049 -0.5552 -0.0725
 6092TIP3    H218283   4.043   2.946   1.187 -0.4346 -0.1012 -0.0435
 6093TIP3   OH218284   1.961   4.533   4.603 -0.5386  0.0296  0.2344
 6093TIP3    H118285   1.935   4.592   4.532 -0.6769  1.4153  1.4020
 6093TIP3    H218286   1.981   4.450   4.559 -2.2100  0.3596 -1.2385
 6094TIP3   OH218287   1.012   0.486   0.553  0.1605 -0.3499  0.2676
 6094TIP3    H118288   0.917   0.486   0.564  0.2002  0.7555  0.8290
 6094TIP3    H218289   1.045   0.446   0.634  0.2504  2.5011  1.7806
 6095TIP3   OH218290   4.881   3.851   1.508 -0.3252 -0.2570 -0.0669
 6095TIP3    H118291   4.852   3.913   1.440 -1.5992 -0.5007  0.2447
 6095TIP3    H218292   4.970   3.828   1.482 -1.1704 -1.2504 -2.3547
 6096TIP3   OH218293   1.674   5.787   1.556 -0.1678  0.0083  0.8091
 6096TIP3    H118294   1.651   5.867   1.605 -0.7033  0.7021 -0.5244
 6096TIP3    H218295   1.661   5.811   1.465 -0.6050 -1.7171  0.3960
 6097TIP3   OH218296   0.350   0.901   5.164  0.9967 -0.2902 -0.5602
 6097TIP3    H118297   0.287   0.896   5.092 -0.5474  0.7267  0.6484
 6097TIP3    H218298   0.316   0.838   5.228  1.6209 -0.2379 -0.1814
 6098TIP3   OH218299   0.206   3.825   0.860  0.1069 -0.3400  0.0618
 6098TIP3    H118300   0.287   3.792   0.822 -0.4760 -3.4070  1.1436
 6098TIP3    H218301   0.184   3.760   0.928 -2.1728  1.4890  1.1980
 6099TIP3   OH218302   3.650   3.364   4.174 -0.2243  0.2448 -0.0588
 6099TIP3    H118303   3.664   3.271   4.155 -1.6731 -0.4275  1.7649
 6099TIP3    H218304   3.713   3.410   4.119  1.1091 -1.8585 -0.4128
 6100TIP3   OH218305   3.294   5.086   3.363 -0.0244  0.6297 -0.0697
 6100TIP3    H118306   3.207   5.056   3.338  0.8539 -3.1491  0.8177
 6100TIP3    H218307   3.329   5.128   3.284 -0.5361 -3.1096 -2.5048
 6101TIP3   OH218308   1.889   3.529   0.044 -0.0312 -0.1852  0.4092
 6101TIP3    H118309   1.814   3.470   0.054 -1.8725  2.0520  0.4848
 6101TIP3    H218310   1.871   3.602   0.103  2.0950  0.5683  0.2043
 6102TIP3   OH218311   6.269   2.409   3.617  0.2181 -0.3434  0.3165
 6102TIP3    H118312   6.309   2.491   3.647 -0.7120  0.0853  0.4272
 6102TIP3    H218313   6.217   2.435   3.540  2.0736 -1.3194 -1.3391
 6103TIP3   OH218314   2.856   2.059   4.375 -0.7544 -0.2087 -0.3061
 6103TIP3    H118315   2.925   2.032   4.435  0.2093  1.3270 -0.6679
 6103TIP3    H218316   2.842   1.983   4.318 -0.3941 -1.0316  0.6767
 6104TIP3   OH218317   4.555   3.375   3.138  0.4274  0.0761  0.1132
 6104TIP3    H118318   4.520   3.319   3.069 -1.3340 -0.0839  1.0798
 6104TIP3    H218319   4.579   3.457   3.093 -0.9230  0.0734 -0.6655
 6105TIP3   OH218320   4.216   0.160   3.624 -0.0618  0.0730 -0.1356
 6105TIP3    H118321   4.132   0.178   3.583 -1.1568 -1.7651  1.1248
 6105TIP3    H218322   4.211   0.202   3.710  0.1774 -0.2585  0.0465
 6106TIP3   OH218323   3.617   2.613   1.885  0.0177  0.2173  0.0055
 6106TIP3    H118324   3.586   2.690   1.933 -1.4289 -1.2652  1.6027
 6106TIP3    H218325   3.542   2.552   1.886  1.2025 -1.3324 -0.9326
 6107TIP3   OH218326   2.461   4.506   1.993  0.6076 -0.0586  0.7813
 6107TIP3    H118327   2.515   4.553   1.931  1.1699  0.6730  1.8038
 6107TIP3    H218328   2.372   4.514   1.959  0.8373  0.8231  0.3761
 6108TIP3   OH218329   0.536   1.752   4.604  0.3192 -0.0647 -0.3129
 6108TIP3    H118330   0.555   1.691   4.675 -1.1244  0.3642  0.4597
 6108TIP3    H218331   0.609   1.815   4.607  0.8335 -0.6622  0.0751
 6109TIP3   OH218332   2.892   4.751   0.323  0.5169  0.0090  1.3416
 6109TIP3    H118333   2.953   4.680   0.343 -1.0435 -1.5482  0.7131
 6109TIP3    H218334   2.907   4.770   0.231  0.1231 -0.3185  1.2077
 6110TIP3   OH218335   0.851   0.642   5.168  0.3417  0.2518 -0.1661
 6110TIP3    H118336   0.799   0.618   5.091 -1.1231  1.1709  0.4787
 6110TIP3    H218337   0.824   0.580   5.235  0.7350  0.1840 -0.0730
 6111TIP3   OH218338   5.035   0.948   2.992 -0.3348  0.6646 -0.1283
 6111TIP3    H118339   5.026   0.930   3.085  0.1918  2.0003  0.2029
 6111TIP3    H218340   4.946   0.954   2.959 -0.5258  0.7632  0.4089
 6112TIP3   OH218341   5.692   3.791   0.859 -0.2180  0.1223  0.0401
 6112TIP3    H118342   5.669   3.755   0.773  1.7498  0.8492 -0.8641
 6112TIP3    H218343   5.698   3.714   0.916 -0.2682 -0.5255 -0.8041
 6113TIP3   OH218344   4.562   1.626   0.919  0.0573 -0.0988 -1.0143
 6113TIP3    H118345   4.569   1.573   0.998 -0.9767  1.8587  0.4709
 6113TIP3    H218346   4.501   1.577   0.863 -1.8366  0.0120  0.8230
 6114TIP3   OH218347   3.720   0.695   3.118  0.5825 -0.3175 -0.2724
 6114TIP3    H118348   3.666   0.616   3.124  1.3629 -0.8765 -0.5433
 6114TIP3    H218349   3.731   0.710   3.025 -1.4645  1.4598 -0.3161
 6115TIP3   OH218350   2.467   4.375   2.925 -0.1100 -0.0805 -0.0629
 6115TIP3    H118351   2.420   4.341   2.848 -0.4217  2.0387 -0.8779
 6115TIP3    H218352   2.399   4.391   2.990  0.0151 -0.7588  0.2498
 6116TIP3   OH218353   5.404   2.866   0.118 -0.0681  0.2076 -0.3990
 6116TIP3    H118354   5.455   2.823   0.187 -1.2539  0.6016  0.7439
 6116TIP3    H218355   5.466   2.876   0.046  0.5281 -2.5824 -0.3965
 6117TIP3   OH218356   0.626   5.069   4.060 -0.1425 -0.5441 -0.6445
 6117TIP3    H118357   0.583   5.116   4.132 -0.5520 -1.8068 -0.0344
 6117TIP3    H218358   0.657   4.988   4.100  3.2875  0.4789 -0.9287
 6118TIP3   OH218359   2.198   2.103   4.082  0.4132 -0.0552  0.8370
 6118TIP3    H118360   2.117   2.054   4.093  0.3661 -0.3193 -0.4610
 6118TIP3    H218361   2.169   2.193   4.067  0.0566 -0.5786 -2.6996
 6119TIP3   OH218362   1.513   0.111   4.099  0.0494 -0.4605 -0.3797
 6119TIP3    H118363   1.525   0.016   4.091  0.1854 -0.5634  0.8975
 6119TIP3    H218364   1.599   0.144   4.124  0.1007  0.0664 -1.1943
 6120TIP3   OH218365   0.486   0.065   3.763  0.3005 -0.0692  0.1337
 6120TIP3    H118366   0.501   0.067   3.669  0.1161 -1.0491  0.0695
 6120TIP3    H218367   0.569   0.091   3.802  0.2761  0.6706 -0.3044
 6121TIP3   OH218368   4.217   4.092   0.909 -0.6158  0.9430  0.0344
 6121TIP3    H118369   4.268   4.173   0.915 -1.9226  1.6891  2.4625
 6121TIP3    H218370   4.156   4.096   0.982 -2.1388 -1.3168 -0.9689
 6122TIP3   OH218371   0.685   1.931   0.441  0.2774 -0.7283 -0.2696
 6122TIP3    H118372   0.671   2.016   0.400  3.0350 -0.8832 -1.7259
 6122TIP3    H218373   0.709   1.952   0.532  2.5186  0.2278 -1.0178
 6123TIP3   OH218374   3.873   5.915   0.556  0.3025 -0.5272  0.1870
 6123TIP3    H118375   3.881   6.004   0.591 -1.8286  0.1325 -0.8503
 6123TIP3    H218376   3.860   5.861   0.634 -0.8443  0.4230  0.6973
 6124TIP3   OH218377   4.372   2.043   2.511  0.5523 -0.5172 -0.0912
 6124TIP3    H118378   4.416   2.002   2.436 -0.5064 -1.1914 -0.3641
 6124TIP3    H218379   4.406   2.133   2.512  1.2501 -0.7561 -0.8298
 6125TIP3   OH218380   3.736   1.653   4.001  0.0012  0.0494  0.5428
 6125TIP3    H118381   3.808   1.713   3.982  0.1519 -0.8136 -1.8785
 6125TIP3    H218382   3.663   1.685   3.947 -0.5142 -0.8154  0.7128
 6126TIP3   OH218383   1.113   5.834   4.862 -0.0112 -0.2157 -0.0364
 6126TIP3    H118384   1.022   5.858   4.879  0.1859  0.0688  0.6843
 6126TIP3    H218385   1.127   5.755   4.914 -0.3186 -1.2624 -1.4842
 6127TIP3   OH218386   4.354   2.196   3.110  0.0422  0.1643  0.2238
 6127TIP3    H118387   4.403   2.172   3.031  1.7475  3.2145  0.2222
 6127TIP3    H218388   4.271   2.232   3.078  0.1384  0.1193 -0.0725
 6128TIP3   OH218389   2.024   2.388   1.521  0.2040  0.1577 -0.1840
 6128TIP3    H118390   2.035   2.474   1.480  0.5838 -0.1240 -0.6859
 6128TIP3    H218391   2.062   2.398   1.608 -3.0844  1.5862  1.2634
 6129TIP3   OH218392   4.262   1.395   1.749  0.3710 -0.7585 -0.1870
 6129TIP3    H118393   4.304   1.352   1.675  1.0391  1.4841 -1.1805
 6129TIP3    H218394   4.334   1.416   1.809  0.1624 -0.3463 -0.0784
 6130TIP3   OH218395   0.137   1.157   0.835 -0.7000  0.9175 -0.2560
 6130TIP3    H118396   0.094   1.234   0.799  0.1608  1.7772  0.5075
 6130TIP3    H218397   0.225   1.157   0.796 -0.9221 -0.0798 -0.7936
 6131TIP3   OH218398   5.198   0.660   2.373 -0.1950  0.0936  0.6753
 6131TIP3    H118399   5.266   0.607   2.414 -0.6794 -0.9146  0.2100
 6131TIP3    H218400   5.244   0.712   2.308  0.1816 -0.3372  0.5938
 6132TIP3   OH218401   2.788   0.073   1.243 -0.2774 -0.3533  0.7905
 6132TIP3    H118402   2.766   0.078   1.150 -1.2434 -0.6381  0.9946
 6132TIP3    H218403   2.883   0.085   1.245 -0.1399 -1.0676 -0.2933
 6133TIP3   OH218404   0.851   1.038   2.952  0.2493 -0.0774  0.4643
 6133TIP3    H118405   0.925   0.998   2.906 -0.7754 -0.0480 -1.3147
 6133TIP3    H218406   0.890   1.083   3.027  1.9451 -0.6107 -0.0610
 6134TIP3   OH218407   3.681   5.198   3.172  0.1535  0.1342  0.2543
 6134TIP3    H118408   3.711   5.118   3.128 -1.4304 -0.5922  0.3952
 6134TIP3    H218409   3.717   5.191   3.261 -0.9413 -1.0825  0.6464
 6135TIP3   OH218410   0.181   2.445   3.090 -0.7166  0.6036  0.1962
 6135TIP3    H118411   0.113   2.386   3.058  2.6009 -2.2758 -2.3033
 6135TIP3    H218412   0.214   2.403   3.170 -0.1573  0.5193 -0.0721
 6136TIP3   OH218413   3.513   0.645   4.640  1.1627  0.0479  0.7451
 6136TIP3    H118414   3.441   0.597   4.682  0.4199  0.4515 -0.0453
 6136TIP3    H218415   3.506   0.624   4.547  0.9554  1.4967  0.4064
 6137TIP3   OH218416   2.140   2.928   3.330 -0.6249 -0.3573  0.0343
 6137TIP3    H118417   2.062   2.904   3.280 -0.9544  1.3414 -0.3471
 6137TIP3    H218418   2.126   3.020   3.353  0.7072 -0.3706  1.0378
 6138TIP3   OH218419   0.621   3.395   0.054 -0.1120  0.3038  0.3955
 6138TIP3    H118420   0.647   3.323  -0.004  0.5324  0.0238  1.0134
 6138TIP3    H218421   0.586   3.462  -0.005  1.2418  0.3421 -0.4218
 6139TIP3   OH218422   1.693   4.274   4.614 -0.1297  0.1075  0.1332
 6139TIP3    H118423   1.619   4.334   4.622 -1.3170 -0.6895 -3.2512
 6139TIP3    H218424   1.761   4.313   4.670 -1.7954  2.9450  0.4080
 6140TIP3   OH218425   2.648   1.348   2.242  0.3797  0.2374 -0.2685
 6140TIP3    H118426   2.712   1.293   2.197 -1.6615 -1.1238 -1.6813
 6140TIP3    H218427   2.638   1.308   2.328 -0.1998 -0.9130 -0.8561
 6141TIP3   OH218428   4.877   5.876   1.465 -0.4039 -0.4889 -0.0797
 6141TIP3    H118429   4.832   5.807   1.513 -0.8335  0.2985  0.6741
 6141TIP3    H218430   4.812   5.911   1.404 -1.1744  1.2539  1.6277
 6142TIP3   OH218431   0.976   5.604   1.632 -0.3260 -0.0436 -0.1511
 6142TIP3    H118432   0.894   5.651   1.651  0.0487 -0.2119  2.1089
 6142TIP3    H218433   1.044   5.671   1.642 -0.1096 -0.0147 -1.5813
 6143TIP3   OH218434   4.381   4.954   1.166  0.3716 -0.5904  0.5752
 6143TIP3    H118435   4.349   4.952   1.076  1.9463 -0.8433 -0.0112
 6143TIP3    H218436   4.359   5.041   1.199 -2.7078 -1.3827  0.9476
 6144TIP3   OH218437   1.220   1.114   0.949 -0.1546  0.7528  0.0828
 6144TIP3    H118438   1.126   1.098   0.957  0.3432 -1.4251  3.1950
 6144TIP3    H218439   1.260   1.027   0.950  1.9513  1.5873 -1.6603
 6145TIP3   OH218440   4.564   1.366   1.599 -0.0351 -0.0827  0.8160
 6145TIP3    H118441   4.525   1.413   1.673 -0.6827 -1.2289  1.2384
 6145TIP3    H218442   4.629   1.308   1.638 -0.8891 -1.2343  0.6185
 6146TIP3   OH218443   4.662   3.695   2.634  0.1738  0.1887  0.4355
 6146TIP3    H118444   4.727   3.724   2.699  0.2962 -1.1498  0.9434
 6146TIP3    H218445   4.636   3.607   2.663  0.9662 -0.8943 -1.8449
 6147TIP3   OH218446   5.652   3.631   0.211 -0.6160 -0.1508 -0.0581
 6147TIP3    H118447   5.713   3.560   0.193 -0.1555 -0.0237  0.9368
 6147TIP3    H218448   5.571   3.605   0.167 -0.1049 -0.7283 -0.6769
 6148TIP3   OH218449   0.102   0.873   3.481 -0.1305 -0.7113 -0.3673
 6148TIP3    H118450   0.115   0.875   3.576  0.6694 -0.1709 -0.4798
 6148TIP3    H218451   0.164   0.807   3.450 -0.9475 -1.4669 -0.4502
 6149TIP3   OH218452   1.582   3.093   0.799  0.4538  0.4499  0.3250
 6149TIP3    H118453   1.592   3.014   0.746  0.8140 -0.2777  1.4464
 6149TIP3    H218454   1.662   3.097   0.852  0.4753  1.6147  0.2291
 6150TIP3   OH218455   0.466   1.413   0.700  0.4927 -0.3200 -0.2252
 6150TIP3    H118456   0.497   1.390   0.787  1.2785 -0.7831 -0.6127
 6150TIP3    H218457   0.412   1.338   0.674 -0.8107  0.3943  0.3670
 6151TIP3   OH218458   5.483   0.260   1.675 -0.6135 -0.3793  0.6839
 6151TIP3    H118459   5.453   0.345   1.642  3.5936  0.5509 -1.4439
 6151TIP3    H218460   5.518   0.279   1.761  1.8896  0.5960 -0.4560
 6152TIP3   OH218461   3.358   4.873   1.694 -0.2298 -0.4201 -0.4116
 6152TIP3    H118462   3.368   4.780   1.714 -2.0163 -0.3332  1.1547
 6152TIP3    H218463   3.264   4.885   1.681 -0.1063  1.2733 -0.0121
 6153TIP3   OH218464   5.068   3.240   4.211 -0.3039  0.3405 -0.0130
 6153TIP3    H118465   5.043   3.158   4.254  0.6187  0.7328  1.3594
 6153TIP3    H218466   5.138   3.215   4.150 -0.6332 -0.0157 -0.2452
 6154TIP3   OH218467   6.131   1.505   0.252  0.0535  0.0867 -0.6224
 6154TIP3    H118468   6.217   1.547   0.247  0.8191 -1.5368 -3.5486
 6154TIP3    H218469   6.094   1.516   0.164 -2.5773  0.3029  0.4180
 6155TIP3   OH218470   4.759   4.762   5.091 -0.8557 -0.4415 -0.1509
 6155TIP3    H118471   4.706   4.822   5.039 -0.4001 -0.4232 -0.6043
 6155TIP3    H218472   4.705   4.741   5.166 -0.3642  1.9022  0.9410
 6156TIP3   OH218473   4.481   5.797   4.906  0.4878 -0.0616 -0.2314
 6156TIP3    H118474   4.549   5.782   4.971 -0.2487 -0.4425  0.4632
 6156TIP3    H218475   4.529   5.827   4.828  1.2668  2.0375  0.9740
 6157TIP3   OH218476   2.732   2.853   0.037  0.0647 -0.4174  0.0515
 6157TIP3    H118477   2.701   2.845  -0.054 -1.1359 -0.6652  0.4665
 6157TIP3    H218478   2.822   2.885   0.028 -0.3492  0.5232 -1.2038
 6158TIP3   OH218479   0.025   5.643   4.525  0.1643  0.1584 -0.1442
 6158TIP3    H118480  -0.008   5.644   4.615  0.8443  1.4265  0.1100
 6158TIP3    H218481   0.112   5.605   4.532  0.3486  0.5643 -0.2092
 6159TIP3   OH218482   5.839   5.351   2.610  0.0618 -0.2536 -1.0810
 6159TIP3    H118483   5.929   5.356   2.642 -0.2952  1.3049 -0.2355
 6159TIP3    H218484   5.821   5.257   2.605  1.0280 -0.5853  0.7907
 6160TIP3   OH218485   1.565   5.453   2.315  0.3338 -0.4160  0.1902
 6160TIP3    H118486   1.616   5.402   2.377  0.4363  0.5049  0.8741
 6160TIP3    H218487   1.481   5.467   2.358  0.2911 -0.0469 -0.0043
 6161TIP3   OH218488   4.550   4.801   2.648 -0.1480  0.0310  0.0811
 6161TIP3    H118489   4.517   4.742   2.716  1.3753 -0.8095  0.1523
 6161TIP3    H218490   4.528   4.758   2.565 -2.0637  1.0876 -0.0226
 6162TIP3   OH218491   6.158   2.829   3.009 -0.4552  0.0842 -0.5785
 6162TIP3    H118492   6.126   2.774   3.081  3.3610 -1.7707 -0.0240
 6162TIP3    H218493   6.164   2.917   3.046 -1.2706 -0.2707  0.4367
 6163TIP3   OH218494   0.888   4.110   1.007  0.2633  0.5025  0.4192
 6163TIP3    H118495   0.973   4.077   0.976 -0.0574  0.4056 -0.3865
 6163TIP3    H218496   0.890   4.097   1.101 -0.6181 -3.7723  0.0338
 6164TIP3   OH218497   1.846   5.698   3.133  0.0398 -0.0521  0.6192
 6164TIP3    H118498   1.816   5.774   3.085 -0.1985 -0.9561 -0.7102
 6164TIP3    H218499   1.793   5.698   3.213 -0.1792  0.9796  0.4858
 6165TIP3   OH218500   3.959   1.991   2.688  0.2688  0.5249  0.3181
 6165TIP3    H118501   4.052   2.013   2.693  0.6707 -0.7146 -1.0447
 6165TIP3    H218502   3.958   1.896   2.674 -1.1476  0.6609 -0.7058
 6166TIP3   OH218503   3.015   0.193   4.992 -0.0113  0.5026  0.1354
 6166TIP3    H118504   2.991   0.167   5.081  0.8281  0.4153  0.3532
 6166TIP3    H218505   2.940   0.242   4.959 -0.2832  0.6363  0.9383
 6167TIP3   OH218506   4.804   5.878   2.755 -0.4184  0.3375 -0.1878
 6167TIP3    H118507   4.763   5.933   2.689  0.9905  0.4193 -1.0309
 6167TIP3    H218508   4.823   5.795   2.710 -0.5751 -0.0651  0.4684
 6168TIP3   OH218509   5.367   1.358   3.660 -0.0867  0.2663  0.4646
 6168TIP3    H118510   5.302   1.422   3.689 -0.8490  0.8996 -2.3571
 6168TIP3    H218511   5.317   1.293   3.610  1.1664 -0.5192  0.1765
 6169TIP3   OH218512   4.141   5.939   4.190  0.7313 -0.4985 -0.1178
 6169TIP3    H118513   4.067   5.878   4.191  0.7878 -0.5601  0.7234
 6169TIP3    H218514   4.217   5.884   4.210  0.9807 -0.3947 -0.7534
 6170TIP3   OH218515   5.579   1.920   4.138 -0.1717  0.3859  0.3804
 6170TIP3    H118516   5.658   1.967   4.113 -0.9634  1.8811  0.5267
 6170TIP3    H218517   5.593   1.896   4.230  0.8506 -1.0177 -0.1188
 6171TIP3   OH218518   4.116   4.092   4.827 -0.3612  0.0106 -0.4207
 6171TIP3    H118519   4.041   4.032   4.828 -0.6903  0.4240 -0.1069
 6171TIP3    H218520   4.141   4.098   4.735 -0.2390 -0.7192 -0.4401
 6172TIP3   OH218521   6.136   3.854   0.096 -0.1683 -0.1455  0.2310
 6172TIP3    H118522   6.042   3.840   0.083 -0.3524  1.5400 -0.5775
 6172TIP3    H218523   6.157   3.804   0.175 -1.8993 -0.0128  0.8317
 6173TIP3   OH218524   3.667   3.720   4.822 -0.0782  0.0437  0.0517
 6173TIP3    H118525   3.662   3.791   4.886 -2.1283  0.6403 -0.6897
 6173TIP3    H218526   3.649   3.641   4.872  1.4913  0.0954  0.7508
 6174TIP3   OH218527   5.349   3.377   0.994  0.1127  0.5130 -0.2582
 6174TIP3    H118528   5.278   3.370   0.931  0.4920  1.0125 -0.7545
 6174TIP3    H218529   5.309   3.416   1.072 -0.6832 -1.4463  0.3685
 6175TIP3   OH218530   5.908   1.743   0.263 -0.0715  0.5790 -0.4664
 6175TIP3    H118531   5.955   1.689   0.200  0.1830  1.0668 -0.6964
 6175TIP3    H218532   5.977   1.787   0.313  0.0097 -2.8723  3.0247
 6176TIP3   OH218533   5.958   1.341   0.042  0.6689 -0.6364 -0.5295
 6176TIP3    H118534   5.870   1.329   0.076  0.2143 -0.7425 -1.7057
 6176TIP3    H218535   5.962   1.433   0.018  1.5757 -0.1302  1.3657
 6177TIP3   OH218536   5.264   2.207   4.438  0.3890  0.2081 -0.3760
 6177TIP3    H118537   5.182   2.249   4.464 -0.8589 -1.9508 -0.5794
 6177TIP3    H218538   5.238   2.142   4.372  1.8908 -1.9834  1.0524
 6178TIP3   OH218539   6.212   4.059   1.211 -0.3809 -0.0097  0.0839
 6178TIP3    H118540   6.237   4.075   1.120  0.4040  0.1565  0.3233
 6178TIP3    H218541   6.281   4.099   1.263 -1.0433  0.2752  0.7723
 6179TIP3   OH218542   5.916   0.490   0.299 -0.3821 -0.8310 -0.3883
 6179TIP3    H118543   5.854   0.444   0.354  0.5185 -0.0984  1.2974
 6179TIP3    H218544   5.953   0.422   0.242  1.6257 -2.5501  2.6550
 6180TIP3   OH218545   0.898   4.014   4.605 -0.2042 -0.3039  0.1601
 6180TIP3    H118546   0.958   4.025   4.679  0.7056  2.8639 -0.8901
 6180TIP3    H218547   0.813   4.043   4.639 -0.3266 -1.1446  0.5935
 6181TIP3   OH218548   4.209   3.509   4.549  0.0964  0.6314  0.0400
 6181TIP3    H118549   4.217   3.599   4.518 -0.9980  0.2805 -1.3529
 6181TIP3    H218550   4.248   3.456   4.480 -3.3711 -0.2445 -1.5005
 6182TIP3   OH218551   2.494   5.515   0.659 -0.2652 -0.7425 -0.1388
 6182TIP3    H118552   2.484   5.577   0.731 -2.3692 -0.2638 -0.7406
 6182TIP3    H218553   2.418   5.533   0.603  0.2625 -2.4033 -1.4570
 6183TIP3   OH218554   2.197   0.179   3.928  0.1952  0.4942  0.5112
 6183TIP3    H118555   2.261   0.133   3.982  1.1830 -1.6912 -2.2636
 6183TIP3    H218556   2.112   0.151   3.963  0.7900 -1.9827  0.1678
 6184TIP3   OH218557   1.782   5.606   4.900  0.5692  0.2207  0.4125
 6184TIP3    H118558   1.762   5.523   4.855 -0.5186  0.9934 -0.5932
 6184TIP3    H218559   1.874   5.622   4.879  0.6177 -0.4114  0.0822
 6185TIP3   OH218560   5.233   4.890   0.370 -0.3923  0.4224 -0.5127
 6185TIP3    H118561   5.257   4.889   0.463 -0.6881  3.1357 -0.3323
 6185TIP3    H218562   5.144   4.855   0.368 -0.1435 -0.2917  0.1176
 6186TIP3   OH218563   0.077   0.173   4.788 -0.8013 -0.2204  0.4148
 6186TIP3    H118564   0.111   0.177   4.877  0.4924 -2.5722  0.0969
 6186TIP3    H218565   0.135   0.231   4.738 -1.1570  0.6289  0.9500
 6187TIP3   OH218566   2.039   2.751   3.993 -0.4427 -0.6196  0.2560
 6187TIP3    H118567   2.087   2.776   4.072 -2.1133 -0.2682  1.2161
 6187TIP3    H218568   2.023   2.834   3.948  0.2045 -0.7819 -0.2834
 6188TIP3   OH218569   2.285   5.520   4.108 -0.0516  0.8739 -0.1375
 6188TIP3    H118570   2.225   5.509   4.034 -0.6378 -0.9086  0.5599
 6188TIP3    H218571   2.348   5.449   4.098 -1.5666 -0.9846  2.3388
 6189TIP3   OH218572   4.887   5.126   0.319  0.1911  0.0286  0.4821
 6189TIP3    H118573   4.928   5.074   0.388  0.7539  0.4552  0.4734
 6189TIP3    H218574   4.948   5.121   0.245 -0.4913 -0.5805 -0.0576
 6190TIP3   OH218575   2.178   2.531   3.116  0.0817  0.4384  0.2835
 6190TIP3    H118576   2.131   2.558   3.037 -0.0003 -0.5239 -0.0086
 6190TIP3    H218577   2.228   2.609   3.141  0.1895  0.7299 -0.7715
 6191TIP3   OH218578   5.254   5.746   3.914  0.1183 -0.0135  0.4514
 6191TIP3    H118579   5.345   5.739   3.943 -0.1592 -0.1365  1.3072
 6191TIP3    H218580   5.202   5.735   3.993 -0.6289  1.0003  0.1235
 6192TIP3   OH218581   2.129   2.978   0.148 -0.1038 -0.1772 -0.1848
 6192TIP3    H118582   2.221   2.953   0.138 -0.3849 -1.5267  0.3183
 6192TIP3    H218583   2.131   3.063   0.192  0.9046  0.0812 -0.7189
 6193TIP3   OH218584   1.976   1.234   4.840 -0.3445  0.0871 -0.0303
 6193TIP3    H118585   1.968   1.170   4.769  0.8465 -1.2871  0.9982
 6193TIP3    H218586   1.911   1.301   4.820 -0.4323 -0.5416 -2.1001
 6194TIP3   OH218587   0.402   0.272   3.532 -0.0865 -0.3662 -0.4481
 6194TIP3    H118588   0.336   0.336   3.556  1.9406  2.3623 -1.6067
 6194TIP3    H218589   0.478   0.295   3.586  0.8389 -1.5490 -1.1971
 6195TIP3   OH218590   0.880   2.193   3.993 -0.3997  0.3494  0.0658
 6195TIP3    H118591   0.901   2.182   4.086  0.9612 -0.1486 -0.2607
 6195TIP3    H218592   0.950   2.145   3.948  0.1064  2.2527 -1.2689
 6196TIP3   OH218593   2.528   2.626   3.808 -0.3484 -0.6351 -0.2410
 6196TIP3    H118594   2.439   2.628   3.842 -0.0052 -2.9089  0.9948
 6196TIP3    H218595   2.518   2.608   3.714 -1.1994  2.6519 -0.9271
 6197TIP3   OH218596   4.599   1.179   3.120  0.3645  0.0634 -0.4638
 6197TIP3    H118597   4.651   1.194   3.200 -0.2008 -0.0903 -0.0607
 6197TIP3    H218598   4.569   1.088   3.128  1.3134 -0.3588 -1.4475
 6198TIP3   OH218599   4.743   0.559   1.480 -0.2821 -0.2824  0.2036
 6198TIP3    H118600   4.710   0.470   1.489 -1.9023  0.3173  0.6380
 6198TIP3    H218601   4.726   0.581   1.388  0.7020 -0.6308 -0.0662
 6199TIP3   OH218602   5.900   2.102   1.222 -0.3511 -0.5738 -0.2147
 6199TIP3    H118603   5.984   2.088   1.264  1.1462 -1.8674 -3.3066
 6199TIP3    H218604   5.909   2.188   1.180 -1.2563  0.0409  0.8031
 6200TIP3   OH218605   3.464   4.915   4.846 -0.1945 -0.5886  0.4682
 6200TIP3    H118606   3.450   5.004   4.877 -1.7029 -1.1816  1.5813
 6200TIP3    H218607   3.381   4.890   4.806 -0.2447 -1.9371  1.3385
 6201TIP3   OH218608   0.172   4.403   3.198  0.0690 -0.0999 -0.0503
 6201TIP3    H118609   0.082   4.421   3.172 -0.4430 -0.4112  1.4010
 6201TIP3    H218610   0.188   4.464   3.270  1.1692  0.2229 -0.5412
 6202TIP3   OH218611   1.991   3.666   1.533 -0.0514 -0.5510  0.6492
 6202TIP3    H118612   2.033   3.752   1.537  2.3247 -1.5977  0.3725
 6202TIP3    H218613   1.983   3.640   1.625  0.1192 -0.4153  0.7043
 6203TIP3   OH218614   2.487   3.887   0.808 -0.5496 -0.3123 -0.6448
 6203TIP3    H118615   2.563   3.899   0.864 -0.8930 -0.4655 -0.1382
 6203TIP3    H218616   2.492   3.795   0.780 -1.0697 -0.6093  0.1853
 6204TIP3   OH218617   5.139   5.695   0.675  0.2290 -0.4461  0.5693
 6204TIP3    H118618   5.131   5.775   0.728  1.0273 -0.5643  0.8851
 6204TIP3    H218619   5.119   5.724   0.585  1.0554  0.2344  0.5936
 6205TIP3   OH218620   4.392   3.567   2.530  0.4311 -0.6726 -0.7488
 6205TIP3    H118621   4.357   3.622   2.459  1.9070 -0.7107 -1.5535
 6205TIP3    H218622   4.315   3.530   2.572 -0.5028 -0.6513 -2.3478
 6206TIP3   OH218623   2.606   5.360   2.623 -0.5084 -1.2498  0.1591
 6206TIP3    H118624   2.679   5.412   2.590 -0.3721 -0.3508  1.7856
 6206TIP3    H218625   2.537   5.372   2.557 -0.0246 -0.0821 -0.1632
 6207TIP3   OH218626   5.401   2.600   0.476 -0.1431 -0.1800 -0.5337
 6207TIP3    H118627   5.338   2.536   0.443  0.9474 -1.4858 -0.1986
 6207TIP3    H218628   5.372   2.620   0.565 -0.8803  0.3279 -0.8860
 6208TIP3   OH218629   0.659   0.909   5.047 -0.3792  0.0720 -0.0705
 6208TIP3    H118630   0.693   0.850   5.115  1.4342  1.4630  0.3186
 6208TIP3    H218631   0.639   0.990   5.094  1.2657  1.1891 -1.1968
 6209TIP3   OH218632   0.344   2.195   3.274  0.0567  0.0437 -0.1806
 6209TIP3    H118633   0.385   2.243   3.202 -1.7737  2.1143  0.0457
 6209TIP3    H218634   0.407   2.200   3.345  0.9350 -0.0370 -0.9417
 6210TIP3   OH218635   6.154   2.389   1.761  0.2675 -0.7358 -0.3182
 6210TIP3    H118636   6.154   2.404   1.856  0.6175 -1.2747 -0.2330
 6210TIP3    H218637   6.109   2.305   1.750  0.1753 -0.6459 -0.6348
 6211TIP3   OH218638   5.604   1.209   1.328 -0.5722  0.0094  0.0554
 6211TIP3    H118639   5.690   1.241   1.301 -0.5032  0.2040  0.5107
 6211TIP3    H218640   5.562   1.184   1.245  0.8412 -2.4688 -0.0142
 6212TIP3   OH218641   0.351   5.271   0.461  0.0752 -0.1723 -0.1237
 6212TIP3    H118642   0.258   5.295   0.456  0.2213  1.3800  2.4067
 6212TIP3    H218643   0.396   5.338   0.409 -0.0960  0.3616  0.4029
 6213TIP3   OH218644   2.029   1.552   2.642  0.1928  0.1534 -0.2376
 6213TIP3    H118645   2.028   1.610   2.566 -0.4340 -0.0275 -0.3750
 6213TIP3    H218646   2.020   1.464   2.605 -3.1273  0.2179  0.1540
 6214TIP3   OH218647   6.153   0.874   2.292 -0.3233  0.4965  0.3212
 6214TIP3    H118648   6.189   0.946   2.345 -0.5738  1.0262 -0.2201
 6214TIP3    H218649   6.230   0.827   2.261 -0.0750  1.5766 -0.7614
 6215TIP3   OH218650   3.048   3.658   1.031  0.5178 -0.2028  0.0895
 6215TIP3    H118651   3.108   3.715   0.983  0.9045 -0.6226  0.0647
 6215TIP3    H218652   2.966   3.708   1.036  1.4836  1.3580  2.0384
 6216TIP3   OH218653   1.164   5.158   0.277 -0.2500 -0.1806 -0.4714
 6216TIP3    H118654   1.250   5.179   0.240  0.3898 -0.6732  0.6637
 6216TIP3    H218655   1.126   5.095   0.216 -0.7221  1.5936 -2.0790
 6217TIP3   OH218656   4.561   5.595   4.142  0.2158  0.0131  0.4011
 6217TIP3    H118657   4.595   5.681   4.117  0.0108 -0.1916 -0.6396
 6217TIP3    H218658   4.622   5.563   4.208  2.4002 -0.5820 -1.7973
 6218TIP3   OH218659   5.819   5.582   3.346 -0.6190 -0.1359 -0.2896
 6218TIP3    H118660   5.880   5.629   3.289 -1.9734 -1.4138 -2.9519
 6218TIP3    H218661   5.848   5.491   3.342 -0.1089 -0.1347  2.0125
 6219TIP3   OH218662   2.143   2.224   4.665  0.3859  0.1339  0.4233
 6219TIP3    H118663   2.231   2.200   4.636  0.0144 -0.7308 -0.0287
 6219TIP3    H218664   2.126   2.168   4.741 -0.0173 -0.1596  0.1210
 6220TIP3   OH218665   3.661   1.067   2.393 -0.8886 -0.6994  0.1162
 6220TIP3    H118666   3.623   1.063   2.305  2.1366 -0.1461 -1.3389
 6220TIP3    H218667   3.627   1.148   2.430 -2.3264 -1.0116 -0.4613
 6221TIP3   OH218668   0.270   0.127   1.040 -0.0233 -0.1175 -0.7918
 6221TIP3    H118669   0.277   0.218   1.066  1.0824 -0.6699  1.0246
 6221TIP3    H218670   0.194   0.094   1.089  0.7581 -0.6363  0.0880
 6222TIP3   OH218671   2.438   4.694   2.671  0.3456  0.1047  0.1792
 6222TIP3    H118672   2.370   4.660   2.729  0.1349  3.5423  2.2859
 6222TIP3    H218673   2.391   4.720   2.592 -0.2779 -0.2170  0.4364
 6223TIP3   OH218674   2.334   5.359   2.427  0.3253  0.2636 -0.0555
 6223TIP3    H118675   2.283   5.300   2.371  1.2247 -0.9796  0.3845
 6223TIP3    H218676   2.352   5.308   2.506  2.8238  0.3734 -0.4783
 6224TIP3   OH218677   0.748   0.079   4.759  0.1618  0.0434  0.2489
 6224TIP3    H118678   0.700   0.011   4.807  0.3544  1.7838  3.1267
 6224TIP3    H218679   0.789   0.032   4.686 -0.8554 -2.6395  1.2721
 6225TIP3   OH218680   0.421   1.277   0.068  0.4288  0.2525  0.4603
 6225TIP3    H118681   0.326   1.281   0.060  0.4162 -0.0228  0.4546
 6225TIP3    H218682   0.449   1.369   0.072  0.2310  0.3587 -0.3369
 6226TIP3   OH218683   3.857   2.433   3.535 -0.4485  0.2968 -0.0462
 6226TIP3    H118684   3.860   2.345   3.498 -2.1099  0.0862  0.2445
 6226TIP3    H218685   3.923   2.432   3.604 -0.1738 -0.5975 -0.3117
 6227TIP3   OH218686   4.044   1.542   2.803  0.1864 -0.2576  0.5117
 6227TIP3    H118687   4.086   1.582   2.879 -1.9728  1.5416  0.8426
 6227TIP3    H218688   3.975   1.488   2.839  0.8461 -1.5777 -0.1134
 6228TIP3   OH218689   0.795   1.287   1.404 -0.2404  0.3545  0.0159
 6228TIP3    H118690   0.803   1.364   1.461  0.7507  0.6070 -0.4383
 6228TIP3    H218691   0.881   1.280   1.361 -1.1066  0.4703 -1.8225
 6229TIP3   OH218692   2.767   4.678   5.038 -0.1930 -0.2718 -0.0487
 6229TIP3    H118693   2.770   4.717   4.950  0.2665  1.5869  0.7489
 6229TIP3    H218694   2.850   4.632   5.047  0.0205  0.0505 -0.3622
 6230TIP3   OH218695   0.611   1.744   1.035 -0.4158  0.2596  0.1164
 6230TIP3    H118696   0.597   1.831   0.998  0.7708  0.7928  0.8577
 6230TIP3    H218697   0.642   1.761   1.124  1.2599 -0.8655 -0.2051
 6231TIP3   OH218698   0.831   2.657   0.051  0.1798  0.3372  0.2452
 6231TIP3    H118699   0.848   2.751   0.052 -3.8116  1.2535  0.1908
 6231TIP3    H218700   0.904   2.619   0.100  3.8255  2.9197 -2.6021
 6232TIP3   OH218701   2.933   1.443   0.318  0.2312 -0.2650  0.5636
 6232TIP3    H118702   2.894   1.527   0.342 -1.9337 -0.7979 -0.7779
 6232TIP3    H218703   2.916   1.434   0.224  0.8289 -1.9928  0.5784
 6233TIP3   OH218704   1.863   4.175   3.718  0.0663 -0.2317 -0.8528
 6233TIP3    H118705   1.857   4.184   3.813 -1.0214 -0.4977 -0.8880
 6233TIP3    H218706   1.818   4.253   3.684 -0.5858 -0.7284 -1.1445
 6234TIP3   OH218707   4.144   3.907   3.680  0.1723 -0.3842  0.7334
 6234TIP3    H118708   4.184   3.887   3.765  0.5074 -0.1550  0.6328
 6234TIP3    H218709   4.218   3.905   3.618 -0.0644 -0.5220  0.4508
 6235TIP3   OH218710   5.063   0.024   1.188  0.4603  0.3932  0.2134
 6235TIP3    H118711   5.122  -0.032   1.138  0.1148 -0.4468  0.7289
 6235TIP3    H218712   4.990   0.041   1.128 -0.7347 -1.9255  0.8980
 6236TIP3   OH218713   3.680   3.831   2.590  0.0094  0.0227  0.0936
 6236TIP3    H118714   3.679   3.826   2.495 -0.2232  1.8952 -0.0400
 6236TIP3    H218715   3.612   3.894   2.612  0.8447  0.5224  1.4187
 6237TIP3   OH218716   2.979   4.111   3.179 -0.1351 -0.0230 -0.3958
 6237TIP3    H118717   2.990   4.129   3.272  2.2137 -3.6239  0.2186
 6237TIP3    H218718   2.907   4.048   3.175 -0.8558  0.8235 -1.1685
 6238TIP3   OH218719   1.558   5.010   3.131  0.4139 -0.2281 -0.2471
 6238TIP3    H118720   1.498   5.034   3.202 -0.3692  0.1695 -1.0230
 6238TIP3    H218721   1.582   4.919   3.150 -0.8852 -0.5807 -0.2124
 6239TIP3   OH218722   6.098   0.456   2.005  0.1076  0.1084 -0.4997
 6239TIP3    H118723   6.105   0.433   2.097 -1.3385  1.3648 -0.0497
 6239TIP3    H218724   6.052   0.382   1.965 -0.8426  0.3393  0.1424
 6240TIP3   OH218725   3.505   3.067   3.530 -0.3701  0.0029 -0.1829
 6240TIP3    H118726   3.484   3.159   3.516  0.2333  0.4331  1.4350
 6240TIP3    H218727   3.467   3.021   3.455 -2.2457  1.3585 -0.1364
 6241TIP3   OH218728   3.158   4.951   4.170 -0.0849  0.0485  0.2166
 6241TIP3    H118729   3.234   4.892   4.167 -0.4602 -0.4822  0.7342
 6241TIP3    H218730   3.141   4.962   4.264 -0.3822  0.5166  0.1095
 6242TIP3   OH218731   0.552   1.024   0.087 -0.0676 -0.4203  0.0719
 6242TIP3    H118732   0.516   1.112   0.080 -1.2702 -0.7577  1.5472
 6242TIP3    H218733   0.608   1.015   0.010 -1.5235  0.8839 -1.2206
 6243TIP3   OH218734   6.001   4.801   3.589  0.3505  0.1798  0.0212
 6243TIP3    H118735   6.063   4.773   3.655  0.2705  0.1012  0.0620
 6243TIP3    H218736   5.944   4.725   3.574 -0.9255  0.8307  1.3411
 6244TIP3   OH218737   3.708   5.918   3.806 -0.3018  0.0717 -0.2891
 6244TIP3    H118738   3.729   6.009   3.784 -2.3603  0.6073 -0.2019
 6244TIP3    H218739   3.629   5.924   3.860  0.2369 -1.7050  0.7844
 6245TIP3   OH218740   3.536   1.291   1.369 -0.4471  0.6110  0.0366
 6245TIP3    H118741   3.632   1.291   1.366 -0.4599 -0.2910 -2.1412
 6245TIP3    H218742   3.510   1.221   1.309 -2.4852  0.3468  1.1326
 6246TIP3   OH218743   4.272   2.406   2.310  0.1222  0.4412  0.6835
 6246TIP3    H118744   4.287   2.488   2.264  2.0087  0.3009  0.9806
 6246TIP3    H218745   4.333   2.344   2.270 -0.2775 -0.4523  1.4135
 6247TIP3   OH218746   4.134   2.779   3.381 -0.2665 -0.6825  0.7426
 6247TIP3    H118747   4.080   2.727   3.321 -0.2865  0.1244  0.0448
 6247TIP3    H218748   4.080   2.855   3.402  1.2057  1.1071 -1.4282
 6248TIP3   OH218749   2.250   3.621   1.928  0.0303  0.2560  0.0679
 6248TIP3    H118750   2.201   3.592   2.005  1.9552 -0.7172  0.9809
 6248TIP3    H218751   2.336   3.580   1.936 -0.1435 -1.1188 -3.3719
 6249TIP3   OH218752   0.543   2.852   4.495  0.4874  0.5509  0.8080
 6249TIP3    H118753   0.472   2.837   4.432  1.7080  2.6549 -1.2259
 6249TIP3    H218754   0.601   2.776   4.484 -0.1085  0.1163  0.5778
 6250TIP3   OH218755   5.939   3.994   4.771 -0.4194 -0.0895 -0.6452
 6250TIP3    H118756   5.944   4.088   4.751 -0.6300  0.1148  0.2175
 6250TIP3    H218757   5.865   3.963   4.719 -1.1383  0.4892  0.0002
 6251TIP3   OH218758   4.343   5.026   0.285 -0.0489 -0.7383 -0.9591
 6251TIP3    H118759   4.415   4.985   0.331  0.2235  0.5984 -0.1395
 6251TIP3    H218760   4.290   4.953   0.252 -0.7333 -1.8191  2.1742
 6252TIP3   OH218761   1.037   1.830   3.061 -0.3040 -0.0948  0.3614
 6252TIP3    H118762   0.985   1.800   3.136 -0.0192 -0.2782  0.4881
 6252TIP3    H218763   1.096   1.895   3.098 -0.0011 -0.3565  0.3438
 6253TIP3   OH218764   6.207   4.482   0.437  0.1746 -0.6385  0.4026
 6253TIP3    H118765   6.158   4.553   0.396  0.9890 -0.1096  0.3150
 6253TIP3    H218766   6.257   4.526   0.507  0.9970 -1.0549  0.0824
 6254TIP3   OH218767   1.938   4.907   5.167  0.4082  0.3644 -0.2048
 6254TIP3    H118768   1.860   4.944   5.209  0.6406  0.8520 -0.1963
 6254TIP3    H218769   1.951   4.961   5.089  1.2075  0.8039  0.2245
 6255TIP3   OH218770   6.151   5.354   2.683 -0.2011  0.3353  0.0853
 6255TIP3    H118771   6.184   5.432   2.728  0.4409  0.0829  0.0577
 6255TIP3    H218772   6.215   5.338   2.613 -0.2230 -0.3333  0.2139
 6256TIP3   OH218773   1.033   2.498   1.568  0.1288  0.2062  0.0902
 6256TIP3    H118774   1.082   2.567   1.523  0.4096  0.8424  1.3203
 6256TIP3    H218775   0.949   2.494   1.521 -0.1180  1.7862  0.3365
 6257TIP3   OH218776   0.109   5.439   4.890  0.4281  0.0306  0.7957
 6257TIP3    H118777   0.169   5.403   4.956  0.0655 -0.4528  0.8690
 6257TIP3    H218778   0.063   5.509   4.935  1.1481  0.6100  0.6507
 6258TIP3   OH218779   0.154   1.290   0.058  0.0442 -0.4097  0.1685
 6258TIP3    H118780   0.156   1.237   0.138 -3.5801  1.5400  1.7838
 6258TIP3    H218781   0.108   1.236  -0.006  0.6918 -1.0165  0.2068
 6259TIP3   OH218782   1.153   3.413   2.683 -0.5409 -0.2003 -0.0308
 6259TIP3    H118783   1.114   3.345   2.629  0.8973 -0.7387 -0.4438
 6259TIP3    H218784   1.164   3.372   2.769 -0.3616 -0.2469 -0.0750
 6260TIP3   OH218785   1.420   5.365   3.684  0.3433 -0.1574 -0.0385
 6260TIP3    H118786   1.383   5.452   3.671  0.3396 -0.1835 -0.2037
 6260TIP3    H218787   1.504   5.367   3.640  0.0500 -0.4437 -0.6254
 6261TIP3   OH218788   2.436   3.508   1.130 -0.7728 -0.3252  0.4903
 6261TIP3    H118789   2.509   3.542   1.079 -1.6465  0.4379 -0.2848
 6261TIP3    H218790   2.438   3.558   1.212 -1.8647  1.4747 -0.5117
 6262TIP3   OH218791   3.954   0.121   3.521  0.5772  0.0046  0.3050
 6262TIP3    H118792   3.917   0.185   3.582  0.0602 -0.6446  0.6889
 6262TIP3    H218793   3.913   0.038   3.546  1.6185 -0.5752  0.1607
 6263TIP3   OH218794   3.501   3.461   0.632 -0.3202  0.3558 -0.4105
 6263TIP3    H118795   3.453   3.380   0.615  0.0851  0.2593 -1.1602
 6263TIP3    H218796   3.533   3.452   0.722 -0.2279 -0.3475 -0.5088
 6264TIP3   OH218797   0.970   1.229   3.156  0.0395 -0.1622 -0.9960
 6264TIP3    H118798   1.042   1.208   3.216 -0.2024  0.7741 -0.3642
 6264TIP3    H218799   0.892   1.234   3.211 -0.7308 -2.1525 -1.8115
 6265TIP3   OH218800   0.236   4.699   2.418  0.0087  0.1112  0.1989
 6265TIP3    H118801   0.241   4.636   2.346 -0.7348 -0.5084  0.6710
 6265TIP3    H218802   0.156   4.749   2.401 -1.0299 -1.0775  1.3924
 6266TIP3   OH218803  -0.013   5.250   1.767  0.0935  0.2741  0.5924
 6266TIP3    H118804   0.060   5.230   1.708 -1.2834 -0.3950 -0.9653
 6266TIP3    H218805   0.019   5.226   1.854  1.9633  0.6670  0.0464
 6267TIP3   OH218806   3.947   0.829   1.255  0.3926 -0.2748  0.1957
 6267TIP3    H118807   3.914   0.749   1.214 -2.3265  0.0217  1.5458
 6267TIP3    H218808   3.989   0.798   1.336  0.9323 -0.4359 -0.1374
 6268TIP3   OH218809   2.326   3.249   4.237 -0.2764 -0.2678 -0.4403
 6268TIP3    H118810   2.417   3.218   4.236 -0.5420 -1.3153  1.7006
 6268TIP3    H218811   2.276   3.177   4.199 -0.3685 -0.4154 -0.0494
 6269TIP3   OH218812   5.377   2.926   1.773  0.2136  0.6361 -0.6084
 6269TIP3    H118813   5.293   2.906   1.733  0.4790 -1.4705 -0.2133
 6269TIP3    H218814   5.432   2.954   1.700  0.1687 -1.3851 -1.4763
 6270TIP3   OH218815   6.191   0.195   3.714 -0.3777 -0.1073  0.4276
 6270TIP3    H118816   6.185   0.276   3.764 -0.3919  0.3669 -0.3277
 6270TIP3    H218817   6.139   0.211   3.635  3.1348  0.8252 -1.9487
 6271TIP3   OH218818   0.711   5.723   0.582 -0.0863 -0.5062  0.4274
 6271TIP3    H118819   0.716   5.640   0.536  0.4220 -0.8212  1.0449
 6271TIP3    H218820   0.765   5.783   0.530 -0.6020 -0.4988 -0.1187
 6272TIP3   OH218821   1.430   0.433   3.172 -0.6232 -1.1558  0.2722
 6272TIP3    H118822   1.445   0.500   3.238  0.5019 -2.8478  1.8153
 6272TIP3    H218823   1.448   0.477   3.089  2.7882 -0.1886  1.3697
 6273TIP3   OH218824   4.231   0.257   4.655 -0.2536 -0.8327  0.2715
 6273TIP3    H118825   4.165   0.202   4.614 -0.8313  1.6486 -2.4115
 6273TIP3    H218826   4.182   0.318   4.708  0.1213 -0.7307  0.5056
 6274TIP3   OH218827   1.391   5.616   4.695  0.3272 -0.0014  0.0225
 6274TIP3    H118828   1.339   5.563   4.756 -0.8433  1.2542  0.1763
 6274TIP3    H218829   1.394   5.703   4.736 -0.7172  0.9511 -1.7992
 6275TIP3   OH218830   3.807   4.497   1.124 -0.0113  0.0490 -0.4273
 6275TIP3    H118831   3.802   4.434   1.052 -0.2961 -0.7267  0.2634
 6275TIP3    H218832   3.900   4.517   1.132  0.0472 -0.0594 -0.8415
 6276TIP3   OH218833   5.710   0.470   3.687  0.0156  0.7429  0.0342
 6276TIP3    H118834   5.667   0.473   3.602  0.2099 -0.1172 -0.1040
 6276TIP3    H218835   5.650   0.515   3.746 -0.3461  0.9167 -0.4568
 6277TIP3   OH218836   5.310   2.191   3.341  0.1598  0.3641 -0.6590
 6277TIP3    H118837   5.306   2.250   3.266  0.2452  3.5074  1.6061
 6277TIP3    H218838   5.353   2.242   3.409  1.5130 -2.8569  1.1566
 6278TIP3   OH218839   6.023   5.044   0.564 -0.8661  0.8081 -0.2931
 6278TIP3    H118840   5.942   4.999   0.590 -0.2204  0.6402  1.5274
 6278TIP3    H218841   5.996   5.135   0.550 -1.2675  0.9179  1.0310
 6279TIP3   OH218842   4.675   2.238   4.008  0.4816  0.6488  0.2848
 6279TIP3    H118843   4.764   2.273   4.020  0.4422  1.0931 -0.6205
 6279TIP3    H218844   4.626   2.311   3.972 -0.1876  0.3117  0.4989
 6280TIP3   OH218845   3.143   2.535   1.337 -0.2670  0.3446 -0.5937
 6280TIP3    H118846   3.195   2.571   1.409 -0.7421 -0.2435  0.0599
 6280TIP3    H218847   3.192   2.458   1.308 -0.5764  0.0053 -0.2263
 6281TIP3   OH218848   3.056   5.442   0.996  0.3740  0.4835 -0.2117
 6281TIP3    H118849   3.070   5.511   0.930 -1.1786 -0.3119 -1.4599
 6281TIP3    H218850   2.977   5.396   0.965  0.6986 -1.1145  1.2158
 6282TIP3   OH218851   5.173   3.471   2.310 -0.5522  0.6146  1.1665
 6282TIP3    H118852   5.121   3.391   2.316  1.3473 -1.2836 -3.0790
 6282TIP3    H218853   5.120   3.530   2.256 -0.1688  0.3983  0.5359
 6283TIP3   OH218854   1.684   1.646   1.004 -0.7892 -0.1250  0.3557
 6283TIP3    H118855   1.729   1.729   1.022 -2.5563  0.7406  0.9551
 6283TIP3    H218856   1.632   1.663   0.926 -0.9873 -0.7540  0.3453
 6284TIP3   OH218857   3.805   1.342   1.399  0.0470  0.5751  0.0239
 6284TIP3    H118858   3.862   1.294   1.459 -0.5202 -0.5946 -0.3382
 6284TIP3    H218859   3.814   1.434   1.425  1.1492  0.2822  0.7532
 6285TIP3   OH218860   5.146   5.769   2.934 -0.2556 -0.0903  0.1034
 6285TIP3    H118861   5.096   5.706   2.881  0.9612 -0.5439 -0.5698
 6285TIP3    H218862   5.237   5.740   2.924  0.0134 -0.4340  2.7819
 6286TIP3   OH218863   5.887   1.063   0.134  0.1895 -0.0308 -0.0634
 6286TIP3    H118864   5.922   1.152   0.138  0.2566 -0.0902  2.1215
 6286TIP3    H218865   5.964   1.007   0.131  0.1982 -0.0446  0.3303
 6287TIP3   OH218866   3.742   4.526   2.134  0.2613  0.1243  0.2815
 6287TIP3    H118867   3.679   4.454   2.135  0.9389 -0.5018 -0.7023
 6287TIP3    H218868   3.690   4.604   2.155 -0.7665 -0.4331 -0.1703
 6288TIP3   OH218869   2.568   5.513   5.116  0.6589  0.7828  0.3961
 6288TIP3    H118870   2.660   5.531   5.098  0.7076 -1.1096 -1.6003
 6288TIP3    H218871   2.521   5.583   5.069  1.0376  0.3823 -0.6171
 6289TIP3   OH218872   4.976   4.943   4.285  0.3618 -0.0541  0.0984
 6289TIP3    H118873   4.881   4.934   4.296  0.3298 -0.7107 -0.5888
 6289TIP3    H218874   5.010   4.953   4.373 -0.3360  0.0591  0.3624
 6290TIP3   OH218875   5.034   2.682   0.475 -0.3387 -0.3944  0.2576
 6290TIP3    H118876   5.088   2.617   0.520  0.5528 -0.6009 -1.0791
 6290TIP3    H218877   4.948   2.675   0.518  0.0104 -1.7712  0.7821
 6291TIP3   OH218878   1.258   3.914   1.137  0.3691  0.1341 -0.2404
 6291TIP3    H118879   1.239   3.893   1.228  2.0496  1.1520  0.3839
 6291TIP3    H218880   1.225   4.003   1.125  0.7832  0.2703 -0.4044
 6292TIP3   OH218881   6.202   4.137   0.168 -0.2388 -0.1820 -0.5435
 6292TIP3    H118882   6.193   4.145   0.263 -1.3006  0.3246 -0.6748
 6292TIP3    H218883   6.179   4.046   0.149 -0.8870 -0.0449 -0.4091
 6293TIP3   OH218884   5.997   0.527   4.955 -0.1964 -0.6846 -0.1176
 6293TIP3    H118885   6.022   0.490   5.040  3.2289 -1.8135 -1.4386
 6293TIP3    H218886   6.057   0.600   4.942 -0.8651 -0.3445 -1.4327
 6294TIP3   OH218887   4.662   5.788   0.160  0.2219 -0.0183 -0.1112
 6294TIP3    H118888   4.754   5.770   0.178  0.8036 -0.4975 -3.0655
 6294TIP3    H218889   4.663   5.867   0.106 -1.2773  0.9170  1.1307
 6295TIP3   OH218890   5.744   1.713   4.090  0.2199 -0.2743 -0.0836
 6295TIP3    H118891   5.675   1.662   4.047 -0.0484 -0.4821  0.5870
 6295TIP3    H218892   5.705   1.799   4.104  0.9671  0.4466 -2.0252
 6296TIP3   OH218893   4.052   1.279   3.112 -0.2779 -0.0564 -0.1470
 6296TIP3    H118894   4.086   1.367   3.095 -0.0013  0.4984  2.7535
 6296TIP3    H218895   4.128   1.230   3.143 -0.7048 -0.9276 -0.4543
 6297TIP3   OH218896   1.882   1.425   1.567 -0.1522 -0.0500 -0.0945
 6297TIP3    H118897   1.952   1.381   1.518  0.7240  0.3522  0.7738
 6297TIP3    H218898   1.849   1.491   1.506  0.6650  0.1899 -0.2999
 6298TIP3   OH218899   1.560   4.014   3.836 -0.4260  0.6063 -0.1437
 6298TIP3    H118900   1.642   4.028   3.883 -0.9483  0.0022  1.0076
 6298TIP3    H218901   1.582   3.953   3.766 -0.1647 -0.8212  1.1245
 6299TIP3   OH218902   0.676   1.948   4.254 -0.3797  0.0566  0.4587
 6299TIP3    H118903   0.657   2.003   4.178 -2.6659 -2.3289 -0.8927
 6299TIP3    H218904   0.736   1.881   4.221 -0.4149 -0.2893  1.0800
 6300TIP3   OH218905   2.167   2.431   1.909 -0.4709  0.6226 -0.0399
 6300TIP3    H118906   2.175   2.392   1.996  0.8146 -3.0670 -1.5944
 6300TIP3    H218907   2.073   2.449   1.899 -0.7801  0.1233  1.7139
 6301TIP3   OH218908   2.868   4.841   1.291  0.4689  0.1207  0.0966
 6301TIP3    H118909   2.943   4.831   1.349  0.4451 -1.5908 -0.1086
 6301TIP3    H218910   2.903   4.819   1.204  0.3120  1.8435 -0.4432
 6302TIP3   OH218911   0.195   2.945   2.739  0.4119 -0.0258  0.2376
 6302TIP3    H118912   0.286   2.933   2.763 -0.0316 -0.3973  1.8461
 6302TIP3    H218913   0.155   2.859   2.753  0.1374 -0.3699 -2.1704
 6303TIP3   OH218914   0.651   4.829   4.223  0.1999  0.0976  0.1787
 6303TIP3    H118915   0.627   4.756   4.280  0.8011 -1.1655 -1.1209
 6303TIP3    H218916   0.722   4.874   4.270  1.0681 -1.2535  0.2054
 6304TIP3   OH218917   4.997   3.624   2.178  0.1815  0.2664  0.5495
 6304TIP3    H118918   4.919   3.634   2.122  1.0511  0.0688 -0.7496
 6304TIP3    H218919   5.008   3.710   2.219 -0.0166  0.6677 -0.2187
 6305TIP3   OH218920   1.781   1.793   3.597  0.2445  0.1835 -0.6611
 6305TIP3    H118921   1.754   1.834   3.679 -0.6964 -0.8615 -0.4315
 6305TIP3    H218922   1.712   1.815   3.535 -0.1497 -0.8267 -0.5966
 6306TIP3   OH218923   3.345   2.017   4.287  0.9227 -0.2833 -0.4053
 6306TIP3    H118924   3.322   2.106   4.313  1.4788  0.3774 -2.1102
 6306TIP3    H218925   3.261   1.974   4.273  0.6513 -0.0508  0.4461
 6307TIP3   OH218926   5.788   3.336   0.931 -0.2442 -0.3260 -0.0226
 6307TIP3    H118927   5.726   3.385   0.984 -2.4767 -2.0414 -0.8537
 6307TIP3    H218928   5.859   3.397   0.914 -2.7527  2.6335 -0.8960
 6308TIP3   OH218929   5.173   5.945   3.457  0.4836  0.0828  0.3577
 6308TIP3    H118930   5.098   5.886   3.463 -1.8220  2.8065  0.1534
 6308TIP3    H218931   5.202   5.957   3.547  0.6308 -0.8450  0.4510
 6309TIP3   OH218932   5.590   0.056   4.479  0.2567  0.0205 -0.4314
 6309TIP3    H118933   5.529  -0.017   4.469 -1.1095  1.2403 -1.1724
 6309TIP3    H218934   5.674   0.013   4.500 -0.1426 -1.8673 -2.2870
 6310TIP3   OH218935   0.805   3.484   1.212  0.2975 -1.0418 -0.1592
 6310TIP3    H118936   0.818   3.573   1.180  2.3601 -0.4129  2.1179
 6310TIP3    H218937   0.722   3.488   1.260  0.8987 -0.0227  0.8412
 6311TIP3   OH218938   3.540   2.236   0.054 -0.0457  0.2272  0.3646
 6311TIP3    H118939   3.469   2.250   0.116 -1.1455 -3.2512  0.1072
 6311TIP3    H218940   3.616   2.215   0.108 -0.4753 -0.7225  0.6286
 6312TIP3   OH218941   6.066   4.414   0.153 -0.5633 -0.0351  0.8052
 6312TIP3    H118942   6.160   4.392   0.149 -0.7313 -0.7901  0.8615
 6312TIP3    H218943   6.044   4.406   0.245 -0.7706 -0.2571  0.7377
 6313TIP3   OH218944   4.714   3.203   3.694 -0.5200 -0.0428  0.1119
 6313TIP3    H118945   4.676   3.128   3.649 -0.7918 -0.0810  0.4068
 6313TIP3    H218946   4.771   3.244   3.628 -1.8837  0.6466 -0.6728
 6314TIP3   OH218947   2.758   1.282   5.049  0.5489  0.7168 -0.2657
 6314TIP3    H118948   2.833   1.330   5.015  0.8124  0.1088 -0.5656
 6314TIP3    H218949   2.723   1.236   4.972  1.0555 -0.5523  0.2322
 6315TIP3   OH218950   2.167   1.157   5.041  0.2909  0.2266 -0.1120
 6315TIP3    H118951   2.103   1.156   4.969 -0.5954  0.6834  0.6471
 6315TIP3    H218952   2.217   1.238   5.026 -0.2823  0.6298  0.1101
 6316TIP3   OH218953   2.274   4.750   4.437 -0.4159  0.5630  0.1190
 6316TIP3    H118954   2.184   4.745   4.467 -0.0786  1.1593  1.2802
 6316TIP3    H218955   2.275   4.823   4.374 -0.5689  1.1332  0.7712
 6317TIP3   OH218956   4.645   5.257   3.018  0.4291  0.2547  0.1453
 6317TIP3    H118957   4.589   5.326   2.981 -0.1892  0.6528  1.7165
 6317TIP3    H218958   4.583   5.193   3.054  0.9804  0.1408  0.9117
 6318TIP3   OH218959   0.240   4.018   1.308 -0.1424 -0.0778  0.4090
 6318TIP3    H118960   0.174   3.949   1.305  0.4776 -0.7584  1.7366
 6318TIP3    H218961   0.191   4.098   1.288 -1.4605 -0.5121  1.6918
 6319TIP3   OH218962   6.311   5.758   0.188  0.0743 -0.3560  0.1258
 6319TIP3    H118963   6.307   5.829   0.251  2.9787 -0.8279  0.9914
 6319TIP3    H218964   6.357   5.688   0.234 -0.8857 -2.0577 -1.3837
 6320TIP3   OH218965   0.341   5.944   0.287  0.2184 -0.4518 -0.6320
 6320TIP3    H118966   0.271   5.982   0.342  2.2431  1.4915  0.7949
 6320TIP3    H218967   0.323   5.978   0.199 -1.5833 -1.4522 -0.7143
 6321TIP3   OH218968   2.814   3.177   3.894 -0.2077  0.2266  0.1710
 6321TIP3    H118969   2.817   3.133   3.979 -0.1874 -1.7188 -0.7857
 6321TIP3    H218970   2.746   3.244   3.904  1.5937  1.8511  2.4905
 6322TIP3   OH218971   0.769   5.972   4.328  0.5665  0.2321  0.0277
 6322TIP3    H118972   0.835   5.906   4.308 -0.8974 -1.5404  0.7705
 6322TIP3    H218973   0.803   6.017   4.406  0.6050 -1.1435  0.8381
 6323TIP3   OH218974   5.337   4.576   3.520  0.1938  0.5362 -0.2090
 6323TIP3    H118975   5.376   4.535   3.597 -0.8446  0.9677  0.5616
 6323TIP3    H218976   5.412   4.597   3.464  1.0287  0.8743  1.0017
 6324TIP3   OH218977   4.196   0.936   2.166 -0.1502  0.1689  0.0252
 6324TIP3    H118978   4.158   0.857   2.206 -0.3791  0.0685 -0.3843
 6324TIP3    H218979   4.269   0.958   2.223 -0.7727  0.3240  0.7904
 6325TIP3   OH218980   0.321   5.627   1.689  0.5421 -0.3420  0.2652
 6325TIP3    H118981   0.286   5.582   1.612  0.4410  0.1942 -0.0022
 6325TIP3    H218982   0.334   5.557   1.753  1.0544 -0.8555 -0.3921
 6326TIP3   OH218983   3.263   2.198   1.922  0.1280 -0.1717  0.4577
 6326TIP3    H118984   3.305   2.284   1.926 -0.7627  0.2494  1.6240
 6326TIP3    H218985   3.318   2.146   1.864  1.3027  0.8590  0.6132
 6327TIP3   OH218986   1.866   0.851   3.866  0.3420  0.1114  0.1180
 6327TIP3    H118987   1.928   0.869   3.795 -0.7332  1.0428 -0.6183
 6327TIP3    H218988   1.797   0.799   3.825 -0.5668  1.1189  0.3224
 6328TIP3   OH218989   2.182   2.647   2.167  0.2255  0.1627 -0.1706
 6328TIP3    H118990   2.092   2.679   2.156  0.1059  0.1793  0.7848
 6328TIP3    H218991   2.227   2.719   2.211  0.5201 -0.1259  0.0003
 6329TIP3   OH218992   6.039   3.915   0.361  0.2251 -0.4892 -0.0516
 6329TIP3    H118993   6.057   4.001   0.399 -0.4037 -0.2028 -0.3703
 6329TIP3    H218994   5.974   3.933   0.293  0.1399 -1.2117 -0.1667
 6330TIP3   OH218995   5.917   4.352   2.064  0.0530 -0.4941  0.0689
 6330TIP3    H118996   5.843   4.306   2.025  0.8965 -0.9965 -0.9985
 6330TIP3    H218997   5.903   4.345   2.158 -1.8757  0.4653 -0.0995
 6331TIP3   OH218998   2.021   3.468   3.453  0.1239 -0.1698  0.4178
 6331TIP3    H118999   1.937   3.443   3.491  0.3794  0.8765  1.7755
 6331TIP3    H219000   2.000   3.501   3.366 -0.6004 -1.7761 -0.0480
 6332TIP3   OH219001   0.073   2.690   4.407  0.5094  0.1999 -0.0091
 6332TIP3    H119002   0.027   2.621   4.455  1.2131  1.2678  2.2988
 6332TIP3    H219003   0.003   2.748   4.376  0.1315  0.5661  1.4698
 6333TIP3   OH219004   2.174   3.167   3.652  0.5169 -0.1608 -0.1369
 6333TIP3    H119005   2.088   3.163   3.695 -0.6301  1.4841 -2.1155
 6333TIP3    H219006   2.218   3.241   3.694 -0.1549  0.7280 -0.9556
 6334TIP3   OH219007   2.991   5.185   3.314 -0.3638  0.0484 -0.4445
 6334TIP3    H119008   2.902   5.182   3.349 -0.3247 -0.0114 -0.3496
 6334TIP3    H219009   3.024   5.095   3.323 -0.6188 -0.1409 -1.3288
 6335TIP3   OH219010   0.228   1.135   4.872  0.3596  0.3990 -0.1804
 6335TIP3    H119011   0.276   1.193   4.931  0.8660 -1.1625  1.0386
 6335TIP3    H219012   0.140   1.131   4.909  0.8190 -1.0007  0.8669
 6336TIP3   OH219013   0.100   3.320   1.800  0.3310  0.2658  0.3821
 6336TIP3    H119014   0.050   3.274   1.867  2.5676 -0.0885  1.8862
 6336TIP3    H219015   0.105   3.411   1.831 -0.8680  0.7411 -0.6970
 6337TIP3   OH219016   1.568   0.388   4.151 -0.3575  0.2735  0.2961
 6337TIP3    H119017   1.531   0.462   4.199 -1.7025  0.1431 -0.4724
 6337TIP3    H219018   1.497   0.324   4.149  0.5520 -0.7593  0.3404
 6338TIP3   OH219019   1.100   3.850   2.412 -0.0339 -0.4295 -0.5557
 6338TIP3    H119020   1.117   3.758   2.394 -1.7349 -0.7295 -0.7174
 6338TIP3    H219021   1.048   3.850   2.492  1.0307  0.4819  0.1673
 6339TIP3   OH219022   6.234   2.248   2.667 -0.3173  0.0742 -0.3826
 6339TIP3    H119023   6.272   2.174   2.619 -2.8335 -0.5846 -1.4937
 6339TIP3    H219024   6.185   2.297   2.601 -1.1469  1.0440  0.9144
 6340TIP3   OH219025   0.055   2.732   2.822  0.3589  0.1747  0.2343
 6340TIP3    H119026   0.019   2.661   2.768  1.4711 -0.3834  0.1880
 6340TIP3    H219027  -0.018   2.762   2.876 -0.2170 -0.7605 -0.0121
 6341TIP3   OH219028   3.461   0.462   4.248 -1.0451 -0.3021  0.0634
 6341TIP3    H119029   3.399   0.408   4.298 -0.9667 -0.9228 -0.5007
 6341TIP3    H219030   3.405   0.520   4.196 -1.1386 -0.2870  0.1784
 6342TIP3   OH219031   0.964   3.166   0.760  0.5995  0.0671 -0.1036
 6342TIP3    H119032   0.885   3.208   0.795  0.6768  0.4645 -0.4023
 6342TIP3    H219033   1.026   3.238   0.748  0.9210 -0.2107 -0.1042
 6343TIP3   OH219034   0.997   3.059   1.606 -0.3451 -0.3186  0.4814
 6343TIP3    H119035   1.001   3.091   1.696 -0.8141 -2.0334  1.1570
 6343TIP3    H219036   1.081   3.015   1.592 -1.1414 -2.0757  0.9328
 6344TIP3   OH219037   4.353   3.879   3.468 -0.8872  0.0067 -0.3633
 6344TIP3    H119038   4.393   3.850   3.386  0.6459  2.2995 -0.5146
 6344TIP3    H219039   4.402   3.832   3.536 -0.6801 -0.2524 -0.6855
 6345TIP3   OH219040   4.081   0.517   0.835  0.2018  0.1926 -0.0431
 6345TIP3    H119041   4.064   0.575   0.761 -0.6038 -0.2950 -0.2469
 6345TIP3    H219042   4.170   0.539   0.862 -0.0847  1.5124 -0.1217
 6346TIP3   OH219043   3.356   2.019   1.727 -0.2340 -0.0638 -0.7492
 6346TIP3    H119044   3.275   2.033   1.677 -0.1199 -0.0230 -0.9223
 6346TIP3    H219045   3.386   1.932   1.701  0.6346  0.5623 -1.8983
 6347TIP3   OH219046   1.358   2.583   3.050  0.6300  0.3577  0.6370
 6347TIP3    H119047   1.427   2.616   2.993  0.3076  1.4611  0.8563
 6347TIP3    H219048   1.397   2.508   3.094  0.7668 -0.7800 -1.2930
 6348TIP3   OH219049   6.051   4.732   1.140 -0.1738  0.1125  0.3391
 6348TIP3    H119050   6.121   4.754   1.202  1.4413  0.3652 -1.4607
 6348TIP3    H219051   5.970   4.747   1.188  0.9477  2.6193  1.6207
 6349TIP3   OH219052   1.132   0.361   1.614  0.3934  0.1615 -0.0462
 6349TIP3    H119053   1.044   0.325   1.613  0.5246 -0.1570 -0.6093
 6349TIP3    H219054   1.182   0.302   1.670  0.5711 -0.4523 -0.8408
 6350TIP3   OH219055   2.980   5.441   1.457 -0.1853 -0.1178  0.5814
 6350TIP3    H119056   2.951   5.526   1.423  1.1404  0.2706  0.3655
 6350TIP3    H219057   3.011   5.460   1.545  0.1803 -0.3689  0.5084
 6351TIP3   OH219058   4.247   4.841   1.711  0.4860  0.5307 -0.4092
 6351TIP3    H119059   4.204   4.760   1.737  0.3298  0.5323 -0.6704
 6351TIP3    H219060   4.224   4.903   1.781  1.4370  0.0859  0.3312
 6352TIP3   OH219061   2.329   2.361   0.428 -0.8114 -0.5575 -0.7090
 6352TIP3    H119062   2.323   2.433   0.365  1.5191  0.1275 -0.2458
 6352TIP3    H219063   2.313   2.282   0.376 -0.8416  0.1142 -1.7483
 6353TIP3   OH219064   0.296   1.787   4.143  0.2377 -0.5753 -0.0479
 6353TIP3    H119065   0.285   1.806   4.236  0.3467 -0.6053 -0.0281
 6353TIP3    H219066   0.281   1.692   4.136 -1.0041 -0.3754 -0.2583
 6354TIP3   OH219067   3.667   2.504   1.043  0.5772  0.5152  0.3123
 6354TIP3    H119068   3.697   2.589   1.073  0.4397  1.2975 -1.6091
 6354TIP3    H219069   3.718   2.441   1.094  0.7346  1.7208  1.7111
 6355TIP3   OH219070   0.019   0.332   2.706 -0.0318  0.2417 -0.4334
 6355TIP3    H119071   0.084   0.400   2.691 -0.4245  0.9710  1.0819
 6355TIP3    H219072   0.069   0.250   2.703  0.2478  0.3889 -3.5908
 6356TIP3   OH219073   0.880   5.196   1.775  0.4422 -0.1033  0.5175
 6356TIP3    H119074   0.972   5.222   1.781  0.4535 -0.4885  3.3032
 6356TIP3    H219075   0.861   5.157   1.860 -2.7253  1.4054  0.6383
 6357TIP3   OH219076   5.594   2.388   3.251  0.1557  0.1044  0.2989
 6357TIP3    H119077   5.663   2.346   3.200  0.3837  1.7071 -0.8169
 6357TIP3    H219078   5.543   2.437   3.186 -2.3765 -1.4117  1.0142
 6358TIP3   OH219079   2.174   4.598   1.378  0.0755 -0.3706  0.1764
 6358TIP3    H119080   2.248   4.561   1.427  0.1775 -0.0997  0.2335
 6358TIP3    H219081   2.184   4.693   1.390 -1.1816 -0.3738  1.5116
 6359TIP3   OH219082   4.945   4.825   0.427 -0.0375 -0.1509 -0.1744
 6359TIP3    H119083   4.930   4.877   0.506  0.5038  2.1424 -1.4776
 6359TIP3    H219084   4.858   4.797   0.400 -0.3891  0.3651  0.4016
 6360TIP3   OH219085   0.584   1.295   4.336 -0.8686  0.5147 -0.1503
 6360TIP3    H119086   0.604   1.316   4.245 -1.1704  0.1159 -0.3114
 6360TIP3    H219087   0.564   1.380   4.376  1.3407  0.9758  0.0960
 6361TIP3   OH219088   1.060   0.398   1.331  0.8969  0.0454  0.0836
 6361TIP3    H119089   1.065   0.489   1.302  0.5595  0.4637  1.2933
 6361TIP3    H219090   1.097   0.398   1.419 -1.3301 -0.4974  1.1016
 6362TIP3   OH219091   3.876   1.360   0.932  0.6094  0.4014  0.5648
 6362TIP3    H119092   3.834   1.315   1.005 -3.2534  0.3521 -1.4445
 6362TIP3    H219093   3.852   1.452   0.944 -1.8405  0.1322 -1.5560
 6363TIP3   OH219094   2.250   0.091   1.358  0.0734 -0.3462 -0.4816
 6363TIP3    H119095   2.331   0.105   1.308  0.7381 -0.9944  0.3896
 6363TIP3    H219096   2.229  -0.002   1.345  0.0644 -0.4391  0.1663
 6364TIP3   OH219097   4.843   3.307   0.083  0.4871 -0.0635 -0.1430
 6364TIP3    H119098   4.809   3.366   0.016  3.2322  0.8447 -0.8671
 6364TIP3    H219099   4.799   3.224   0.066 -2.0485  1.2018 -0.3041
 6365TIP3   OH219100   4.596   5.260   4.900  0.2676  0.2462 -0.1564
 6365TIP3    H119101   4.689   5.285   4.898  0.2782  0.7431  2.6827
 6365TIP3    H219102   4.549   5.343   4.902 -0.1813 -0.0002 -0.3748
 6366TIP3   OH219103   5.919   2.926   0.508  0.3820  0.2645  0.2458
 6366TIP3    H119104   5.900   2.841   0.550 -0.2326  1.2884  2.1563
 6366TIP3    H219105   6.010   2.944   0.533  0.9474 -0.3811 -1.2339
 6367TIP3   OH219106   5.820   5.269   4.895 -0.4775  0.0357  0.2361
 6367TIP3    H119107   5.893   5.324   4.865 -0.1481 -1.4435 -1.9424
 6367TIP3    H219108   5.805   5.208   4.822 -3.5460 -0.0857  0.8453
 6368TIP3   OH219109   4.212  -0.002   1.800  0.6976 -0.7773  0.1049
 6368TIP3    H119110   4.177   0.081   1.767  0.1279 -0.8758  0.4430
 6368TIP3    H219111   4.172  -0.069   1.744 -0.4973 -0.9674  1.1357
 6369TIP3   OH219112   5.317   5.332   1.549  0.0841 -0.0120  0.2750
 6369TIP3    H119113   5.291   5.266   1.614  0.9688  1.0454  1.7791
 6369TIP3    H219114   5.340   5.409   1.602 -2.3202  2.0509 -1.4745
 6370TIP3   OH219115   4.481   2.454   3.965 -0.2225  0.1231  0.2627
 6370TIP3    H119116   4.394   2.461   4.004 -0.2400 -1.6208  0.6299
 6370TIP3    H219117   4.501   2.543   3.935 -1.3674  0.9583  1.7747
 6371TIP3   OH219118   0.888   5.436   1.365 -0.0071  0.0990 -0.2249
 6371TIP3    H119119   0.917   5.510   1.417  0.5359  1.1892 -1.9819
 6371TIP3    H219120   0.803   5.463   1.330 -0.0056 -0.2705 -0.5243
 6372TIP3   OH219121   6.363   0.382   4.465  0.4281 -0.0772  0.6977
 6372TIP3    H119122   6.367   0.476   4.450  1.8582  0.2894  2.8883
 6372TIP3    H219123   6.277   0.367   4.504 -1.2492 -0.3210 -2.6585
 6373TIP3   OH219124   0.418   1.493   0.335  0.0632 -0.1713 -0.4172
 6373TIP3    H119125   0.469   1.559   0.381 -2.5003  1.5303  0.1929
 6373TIP3    H219126   0.437   1.508   0.242  0.3597  0.6718 -0.2244
 6374TIP3   OH219127   0.419   3.712   4.851  0.8619 -0.2010  0.2595
 6374TIP3    H119128   0.422   3.807   4.840 -2.6012 -0.1668 -1.9468
 6374TIP3    H219129   0.340   3.696   4.903  1.1829 -1.8735  0.3136
 6375TIP3   OH219130   2.432   5.310   4.057  0.4856 -0.3236  0.3415
 6375TIP3    H119131   2.526   5.293   4.048  0.6507 -0.0122  1.4399
 6375TIP3    H219132   2.398   5.298   3.968  1.7748  0.9310 -0.3639
 6376TIP3   OH219133   4.352   0.566   0.908 -0.6412 -0.5365 -0.0668
 6376TIP3    H119134   4.436   0.525   0.925 -0.5832 -0.1247  0.7552
 6376TIP3    H219135   4.372   0.660   0.903 -0.9967 -0.4677 -0.2347
 6377TIP3   OH219136   4.057   3.597   2.993 -0.2968  0.0434  0.5969
 6377TIP3    H119137   4.019   3.678   2.959 -0.9222  0.8715  3.0053
 6377TIP3    H219138   4.151   3.607   2.980 -0.5717 -0.5213 -2.4013
 6378TIP3   OH219139   1.423   1.015   1.343  0.3292 -0.0476  0.2682
 6378TIP3    H119140   1.437   1.110   1.348 -0.4431  0.1255 -0.6028
 6378TIP3    H219141   1.503   0.977   1.379  0.8579  0.9323  0.1622
 6379TIP3   OH219142   0.992   1.370   4.793 -0.5788 -0.1048  0.6520
 6379TIP3    H119143   0.930   1.388   4.865 -0.9756  0.5409  0.1605
 6379TIP3    H219144   0.958   1.291   4.752 -0.5294 -0.3005  0.9870
 6380TIP3   OH219145   1.481   0.801   3.569  0.0517  0.1409 -0.1801
 6380TIP3    H119146   1.400   0.757   3.594 -0.7686  1.8983  0.4018
 6380TIP3    H219147   1.500   0.768   3.481 -1.7149  0.2629 -0.6422
 6381TIP3   OH219148   6.343   2.943   1.009 -0.0634  0.1732  0.1633
 6381TIP3    H119149   6.269   2.933   1.070 -1.2151  0.6851 -1.0911
 6381TIP3    H219150   6.342   3.036   0.986 -1.7607 -0.4991 -3.1011
 6382TIP3   OH219151   0.242   0.698   4.084 -0.7207 -0.0390 -0.2745
 6382TIP3    H119152   0.198   0.615   4.063 -1.9552  0.8680 -1.4162
 6382TIP3    H219153   0.250   0.743   4.000  1.6529  0.2194  0.0427
 6383TIP3   OH219154   1.490   4.297   2.610  0.2048 -0.3798  0.2892
 6383TIP3    H119155   1.431   4.336   2.675 -1.0619 -0.2191 -0.8963
 6383TIP3    H219156   1.438   4.227   2.570  0.4981  0.3014 -1.3687
 6384TIP3   OH219157   1.397   2.056   5.015 -0.1530 -0.1112 -0.1506
 6384TIP3    H119158   1.385   1.970   5.054  1.5674  1.1520  3.5477
 6384TIP3    H219159   1.343   2.115   5.068  1.0016  1.4922 -0.6620
 6385TIP3   OH219160   0.646   4.966   3.591  0.0168  0.3161 -0.4232
 6385TIP3    H119161   0.591   5.037   3.558 -0.2358  0.6766  0.7298
 6385TIP3    H219162   0.589   4.918   3.652  0.2084 -0.8323 -1.1141
 6386TIP3   OH219163   2.757   1.158   1.718 -0.0982 -0.3560  0.4720
 6386TIP3    H119164   2.762   1.073   1.676 -1.6041 -1.1180  1.7132
 6386TIP3    H219165   2.692   1.206   1.667 -0.8763 -0.7677  1.0554
 6387TIP3   OH219166   1.570   1.481   5.063  0.2056 -0.2531  0.3800
 6387TIP3    H119167   1.494   1.457   5.116  0.5964 -0.2208  0.9682
 6387TIP3    H219168   1.633   1.411   5.078  0.7102  0.2698  0.7807
 6388TIP3   OH219169   2.922   1.234   4.281 -0.3140  0.0345  0.0354
 6388TIP3    H119170   2.946   1.155   4.329  1.7615  1.1909  1.0434
 6388TIP3    H219171   2.868   1.284   4.342  1.8767  1.2546  1.1053
 6389TIP3   OH219172   4.289   5.571   0.133  0.6376 -0.0999 -0.7390
 6389TIP3    H119173   4.348   5.602   0.201 -1.4256 -0.3103  1.2562
 6389TIP3    H219174   4.320   5.483   0.113 -0.4289 -1.3028  2.2525
 6390TIP3   OH219175   2.483   1.767   4.730  0.0245 -0.4391  0.0206
 6390TIP3    H119176   2.525   1.713   4.797  1.3775 -0.1448 -0.5529
 6390TIP3    H219177   2.488   1.856   4.764  0.4164 -0.3315 -0.3033
 6391TIP3   OH219178   1.843   1.903   5.070 -0.3773 -0.0570 -0.0043
 6391TIP3    H119179   1.792   1.967   5.119 -0.7112 -0.7594  0.5915
 6391TIP3    H219180   1.932   1.939   5.068 -1.0009  1.5528 -1.7034
 6392TIP3   OH219181   5.789   1.203   3.542 -0.0973 -0.0528  0.0321
 6392TIP3    H119182   5.728   1.273   3.566  1.1948  1.2376 -0.2759
 6392TIP3    H219183   5.871   1.249   3.521  0.8462 -1.6820 -0.0234
 6393TIP3   OH219184   3.090   0.095   3.351  0.0277 -0.2078  0.2749
 6393TIP3    H119185   3.003   0.079   3.315  0.4204  0.0776 -0.8460
 6393TIP3    H219186   3.120   0.009   3.380 -1.1236 -0.1093  1.8991
 6394TIP3   OH219187   2.656   0.077   3.790  0.7609  0.3931 -0.2831
 6394TIP3    H119188   2.609   0.012   3.737 -2.0063  1.2275  0.9654
 6394TIP3    H219189   2.706   0.128   3.726 -1.1326  0.3164 -1.9404
 6395TIP3   OH219190   2.110   5.552   1.363  0.1035  0.0486  0.2612
 6395TIP3    H119191   2.104   5.644   1.388 -0.0595  0.7626 -2.1136
 6395TIP3    H219192   2.020   5.519   1.368 -0.1643  0.5844 -0.6694
 6396TIP3   OH219193   4.679   5.617   4.676  0.1760  0.2085  0.2112
 6396TIP3    H119194   4.726   5.577   4.749  0.7566  0.2395 -0.1390
 6396TIP3    H219195   4.748   5.657   4.622 -0.2485  0.2344 -0.3218
 6397TIP3   OH219196   1.508   5.386   1.328  0.7054 -0.1052 -0.8384
 6397TIP3    H119197   1.418   5.353   1.323  0.6035 -0.2532  1.0450
 6397TIP3    H219198   1.498   5.481   1.332  0.5726 -0.1379 -0.1618
 6398TIP3   OH219199   5.655   0.493   2.766 -0.2440  0.2977 -0.1427
 6398TIP3    H119200   5.614   0.576   2.789  1.8080  0.6481  2.8983
 6398TIP3    H219201   5.726   0.516   2.706  1.8495  1.2850  2.4821
 6399TIP3   OH219202   3.356   4.841   0.919  0.1638  0.2213 -0.4505
 6399TIP3    H119203   3.438   4.867   0.875 -0.3022 -0.1959 -1.5928
 6399TIP3    H219204   3.318   4.775   0.862 -1.0350  0.4863  0.0105
 6400TIP3   OH219205   1.223   2.619   0.023 -0.1526  0.5758  0.4800
 6400TIP3    H119206   1.170   2.613   0.102 -2.4879  3.0919 -0.7113
 6400TIP3    H219207   1.222   2.530  -0.014 -0.2819 -0.2802  2.4229
 6401TIP3   OH219208   5.076   1.082   4.614  0.3086  0.5420 -0.0277
 6401TIP3    H119209   5.139   1.019   4.580  1.4092  1.3618  0.4208
 6401TIP3    H219210   5.050   1.134   4.538  0.3082  0.3104 -0.1862
 6402TIP3   OH219211   0.282   5.853   0.747  0.5269 -0.1684 -0.7471
 6402TIP3    H119212   0.365   5.826   0.785 -0.0721 -0.5901  0.2896
 6402TIP3    H219213   0.264   5.939   0.786 -0.3288 -0.8177  0.3643
 6403TIP3   OH219214   0.254   3.762   4.307  0.4317 -0.2878 -0.3486
 6403TIP3    H119215   0.207   3.717   4.237 -0.4087 -1.8943  1.1829
 6403TIP3    H219216   0.219   3.851   4.306 -0.3218 -0.5835 -1.2979
 6404TIP3   OH219217   1.697   4.027   4.503 -0.0131 -0.0945 -0.5341
 6404TIP3    H119218   1.711   4.116   4.537 -0.2895 -0.9376  1.9991
 6404TIP3    H219219   1.603   4.012   4.511  0.3036 -1.4316  1.4553
 6405TIP3   OH219220   4.360   2.642   0.555 -0.3135 -0.2474 -0.3316
 6405TIP3    H119221   4.405   2.634   0.471 -0.1511  0.4434 -0.3158
 6405TIP3    H219222   4.413   2.705   0.605 -0.7336 -0.2010  0.0609
 6406TIP3   OH219223   2.159   4.174   0.277  0.3010  0.4725 -0.1228
 6406TIP3    H119224   2.120   4.087   0.278  2.3283 -0.5052 -0.3862
 6406TIP3    H219225   2.230   4.169   0.342  1.3154  1.4775 -1.1034
 6407TIP3   OH219226   3.840   0.865   0.676 -0.0274 -0.3308 -0.1447
 6407TIP3    H119227   3.758   0.846   0.630 -0.3980  0.0339  0.3567
 6407TIP3    H219228   3.816   0.932   0.741  0.6231 -0.3769  0.1470
 6408TIP3   OH219229   5.549   0.603   4.625  0.7897  0.2230  0.3758
 6408TIP3    H119230   5.548   0.699   4.629 -0.4635  0.2582 -0.2365
 6408TIP3    H219231   5.583   0.576   4.711  0.3096  1.2096  0.8922
 6409TIP3   OH219232   2.515   0.259   2.615 -0.0535 -0.1677 -0.4414
 6409TIP3    H119233   2.542   0.183   2.563  0.1959 -0.8494  0.6672
 6409TIP3    H219234   2.549   0.242   2.702 -0.3403  1.0424 -0.0802
 6410TIP3   OH219235   2.862   1.705   3.778  0.1741  0.3504  0.2253
 6410TIP3    H119236   2.832   1.795   3.763  0.6487  0.8805  2.2295
 6410TIP3    H219237   2.849   1.690   3.872  3.7224 -0.2883  0.7447
 6411TIP3   OH219238   2.937   5.647   2.932  0.8055  0.4889 -0.1252
 6411TIP3    H119239   2.939   5.716   2.866 -1.3062  0.7728  0.0367
 6411TIP3    H219240   2.893   5.687   3.007  1.1218 -0.5144  0.6189
 6412TIP3   OH219241   3.237   4.273   1.734 -0.9394  0.3692 -0.2606
 6412TIP3    H119242   3.294   4.283   1.810 -0.2660 -3.1841 -0.1114
 6412TIP3    H219243   3.156   4.318   1.758 -0.7025 -0.4854  2.5375
 6413TIP3   OH219244   5.978   5.699   2.519  0.1921  0.5551  0.5791
 6413TIP3    H119245   6.006   5.665   2.604  2.3548 -0.1306 -0.3137
 6413TIP3    H219246   6.040   5.769   2.500 -0.1204  0.5574 -0.5133
 6414TIP3   OH219247   5.291   4.888   4.986 -0.2100  0.6127  0.2400
 6414TIP3    H119248   5.327   4.909   5.073 -0.5588 -0.1470  0.5760
 6414TIP3    H219249   5.202   4.857   5.005  0.1222 -0.7025 -0.2863
 6415TIP3   OH219250   5.765   2.648   3.813  0.4731 -0.0167  0.2967
 6415TIP3    H119251   5.726   2.574   3.765  0.3930 -1.3180  2.2438
 6415TIP3    H219252   5.847   2.666   3.766 -0.5884  0.2279 -1.5794
 6416TIP3   OH219253   6.273   5.070   0.495 -0.3056  0.4979 -0.3330
 6416TIP3    H119254   6.308   4.986   0.523  0.7403  0.5318 -1.4495
 6416TIP3    H219255   6.185   5.072   0.531  0.5798  0.1332  2.0676
 6417TIP3   OH219256   3.945   5.018   3.029  0.5252 -0.3221 -0.9366
 6417TIP3    H119257   3.988   5.035   2.945  2.4416 -0.6273 -0.0733
 6417TIP3    H219258   4.001   4.953   3.071  1.5260  2.1741  1.9374
 6418TIP3   OH219259   1.400   3.320   1.955 -0.0072 -0.2001  0.1489
 6418TIP3    H119260   1.463   3.354   1.892  0.1442 -0.0731  0.3686
 6418TIP3    H219261   1.399   3.384   2.026  0.0581 -0.4986  0.4242
 6419TIP3   OH219262   2.514   2.006   2.683 -0.2420 -0.2226 -0.1472
 6419TIP3    H119263   2.425   1.972   2.672 -0.6673  0.6044  0.5686
 6419TIP3    H219264   2.503   2.084   2.737  0.9301 -0.1228 -0.0238
 6420TIP3   OH219265   0.133   5.569   0.321 -0.1424 -0.4310  0.2911
 6420TIP3    H119266   0.206   5.569   0.383 -1.6731  1.3470  2.2495
 6420TIP3    H219267   0.087   5.487   0.336 -2.0107  1.0466  3.6006
 6421TIP3   OH219268   5.985   1.755   3.992  0.0940 -0.0387 -0.9461
 6421TIP3    H119269   5.895   1.743   4.022  0.6606 -0.0048  0.8713
 6421TIP3    H219270   5.989   1.706   3.910 -1.2523 -1.1220 -0.4117
 6422TIP3   OH219271   3.729   4.329   4.677 -0.2502  0.2808  0.0686
 6422TIP3    H119272   3.671   4.268   4.722  1.1804 -1.1986 -0.0357
 6422TIP3    H219273   3.797   4.350   4.741 -0.2788  1.1628 -0.1661
 6423TIP3   OH219274   2.580   4.640   2.903 -0.9163 -0.0594 -0.3787
 6423TIP3    H119275   2.514   4.695   2.859 -0.8745 -0.1337 -0.5350
 6423TIP3    H219276   2.540   4.553   2.906 -1.0580  0.0201  0.0336
 6424TIP3   OH219277   2.572   2.640   0.082  0.1492  0.7366 -0.6324
 6424TIP3    H119278   2.608   2.639   0.171 -1.7776  2.1169  0.2232
 6424TIP3    H219279   2.600   2.724   0.046 -0.9307  1.1753 -0.4829
 6425TIP3   OH219280   5.554   3.290   4.050  0.3274 -0.1064  0.5527
 6425TIP3    H119281   5.628   3.255   4.100  0.1929 -1.7590 -0.3021
 6425TIP3    H219282   5.590   3.366   4.004  1.1987 -0.2271  1.0013
 6426TIP3   OH219283   5.601   2.220   0.482 -0.4495  0.0548  0.1476
 6426TIP3    H119284   5.629   2.150   0.541  0.1728 -0.2290 -0.4639
 6426TIP3    H219285   5.508   2.230   0.499 -0.6042 -1.1090  0.0640
 6427TIP3   OH219286   4.332   5.124   0.878  0.2135 -0.2703  0.3565
 6427TIP3    H119287   4.309   5.210   0.912 -0.4045 -0.2709 -0.0362
 6427TIP3    H219288   4.248   5.077   0.872  0.3307 -0.3775 -0.8437
 6428TIP3   OH219289   0.710   0.255   2.762  0.3971  0.2123 -0.3750
 6428TIP3    H119290   0.793   0.290   2.731 -0.0256  0.6692 -1.0362
 6428TIP3    H219291   0.645   0.294   2.703 -0.3242  0.2106  0.4067
 6429TIP3   OH219292   1.369   5.128   4.839 -0.1980 -0.0340  0.5287
 6429TIP3    H119293   1.360   5.052   4.781 -0.9982  0.6199 -0.2349
 6429TIP3    H219294   1.374   5.091   4.927 -3.0635 -0.9229  0.4182
 6430TIP3   OH219295   4.239   3.768   1.986 -0.4804 -0.0282 -0.5434
 6430TIP3    H119296   4.210   3.758   1.895 -1.0441 -0.4315 -0.3187
 6430TIP3    H219297   4.317   3.823   1.979 -0.3314 -0.3166 -1.3037
 6431TIP3   OH219298   5.308   3.356   1.867  0.4165  0.6890  0.4294
 6431TIP3    H119299   5.265   3.310   1.795  0.1964  0.5954  0.6188
 6431TIP3    H219300   5.275   3.313   1.946 -0.0582  1.3906  0.6196
 6432TIP3   OH219301   5.891   2.768   4.071 -0.4214  0.1525  0.2109
 6432TIP3    H119302   5.891   2.744   3.978 -0.4596  0.0067  0.2480
 6432TIP3    H219303   5.978   2.805   4.086 -0.9933  1.7588 -0.2848
 6433TIP3   OH219304   0.153   1.553   0.909  0.3684  0.3841 -0.7979
 6433TIP3    H119305   0.136   1.495   0.834 -0.7333  0.5710 -0.7199
 6433TIP3    H219306   0.164   1.494   0.983 -0.8375  0.2506 -0.7033
 6434TIP3   OH219307   5.618   5.064   1.914 -0.5643  0.4312  0.2476
 6434TIP3    H119308   5.694   5.097   1.962 -1.4631  1.7241  0.8600
 6434TIP3    H219309   5.624   5.106   1.828  0.5146 -1.1118 -0.4643
 6435TIP3   OH219310   3.458   4.943   3.027 -0.2298 -0.1527 -0.1246
 6435TIP3    H119311   3.423   4.888   3.097 -0.1144 -0.1679 -0.0789
 6435TIP3    H219312   3.389   4.945   2.961  0.8548 -2.7815 -1.4838
 6436TIP3   OH219313   0.555   3.353   4.571 -0.2825  0.6203  0.2289
 6436TIP3    H119314   0.479   3.296   4.559  0.0818  0.6027 -2.4729
 6436TIP3    H219315   0.517   3.439   4.589 -0.9331  0.4294 -0.2000
 6437TIP3   OH219316   0.558   5.863   0.771  0.3401  0.2356 -0.0891
 6437TIP3    H119317   0.589   5.838   0.859  1.8539  1.0220 -0.3676
 6437TIP3    H219318   0.617   5.818   0.711 -2.3636 -2.5593 -0.8669
 6438TIP3   OH219319   1.671   4.349   4.356 -0.6802  0.3420  0.4587
 6438TIP3    H119320   1.652   4.322   4.446 -0.1901 -0.7664  0.2459
 6438TIP3    H219321   1.591   4.330   4.308 -0.6528  0.1315  0.4947
 6439TIP3   OH219322   0.751   3.874   1.504 -0.0920  0.3065  0.2406
 6439TIP3    H119323   0.666   3.911   1.528 -0.0442  0.5460  0.0527
 6439TIP3    H219324   0.734   3.780   1.494 -0.1178  0.2098  1.1417
 6440TIP3   OH219325   3.510   3.851   0.173  0.2826  0.0875 -0.1306
 6440TIP3    H119326   3.423   3.879   0.201  0.0648  0.6098 -1.2759
 6440TIP3    H219327   3.568   3.875   0.246 -0.5956 -0.8603  0.9253
 6441TIP3   OH219328   5.561   3.035   3.182  0.0516 -0.3546  0.5646
 6441TIP3    H119329   5.502   2.974   3.138  0.6745 -0.9505  0.5289
 6441TIP3    H219330   5.643   3.027   3.133  0.9092 -1.3627  2.0700
 6442TIP3   OH219331   4.425   0.299   1.297 -0.7715 -0.6447  0.3230
 6442TIP3    H119332   4.371   0.326   1.371 -0.4135 -2.0750  1.1224
 6442TIP3    H219333   4.376   0.331   1.220 -1.8553 -0.3774  1.0963
 6443TIP3   OH219334   2.115   1.774   1.131  0.2908 -0.9842  0.4877
 6443TIP3    H119335   2.102   1.729   1.047 -0.1715  0.1138 -0.0613
 6443TIP3    H219336   2.026   1.795   1.161  0.4817 -0.6980  0.8639
 6444TIP3   OH219337   1.643   2.186   4.919 -0.2524  0.0560 -0.7754
 6444TIP3    H119338   1.630   2.279   4.938  1.4343  0.6689 -2.3036
 6444TIP3    H219339   1.573   2.142   4.967  0.4469  1.8609  2.2127
 6445TIP3   OH219340   5.364   2.123   3.713  0.5907 -0.3192 -0.1283
 6445TIP3    H119341   5.416   2.188   3.665  1.4187 -0.1109  1.0176
 6445TIP3    H219342   5.361   2.156   3.803  2.3855 -2.6231  0.8707
 6446TIP3   OH219343   4.186   3.428   2.102 -0.4050  0.0572  0.4990
 6446TIP3    H119344   4.189   3.521   2.125  0.8564  0.0230  0.5459
 6446TIP3    H219345   4.268   3.392   2.137 -0.5213 -0.9179 -0.1885
 6447TIP3   OH219346   4.074   3.549   4.843 -0.2112 -0.0633 -0.1342
 6447TIP3    H119347   4.025   3.493   4.903  0.0150  0.4951  0.5759
 6447TIP3    H219348   4.046   3.520   4.756  0.2948 -1.6590  0.1945
 6448TIP3   OH219349  -0.007   3.776   2.600 -0.3216 -0.1990 -0.1455
 6448TIP3    H119350   0.088   3.770   2.586 -0.5310  0.1395 -1.9182
 6448TIP3    H219351  -0.016   3.800   2.692  1.3348  0.1884 -0.0536
 6449TIP3   OH219352   5.290   2.196   2.319 -0.1755 -0.4883 -0.1766
 6449TIP3    H119353   5.226   2.133   2.287 -0.2970 -0.3426 -0.2212
 6449TIP3    H219354   5.337   2.149   2.389 -1.0253 -0.2536  0.5704
 6450TIP3   OH219355   1.450   5.865   0.051 -0.3455 -0.0696 -0.0224
 6450TIP3    H119356   1.368   5.912   0.037 -0.0911  0.5645  0.5352
 6450TIP3    H219357   1.511   5.933   0.082  0.5734 -0.3978 -1.0446
 6451TIP3   OH219358   0.171   1.673   3.553 -0.5631  0.0871  0.3353
 6451TIP3    H119359   0.199   1.615   3.482  0.5428  0.7035  0.2473
 6451TIP3    H219360   0.136   1.750   3.509 -1.5432 -0.2669  0.4611
 6452TIP3   OH219361   2.727   2.473   3.283 -0.5451  0.0699  0.1889
 6452TIP3    H119362   2.659   2.517   3.233 -0.3438  0.8589  0.5904
 6452TIP3    H219363   2.809   2.503   3.244 -0.4219 -0.9231 -0.3341
 6453TIP3   OH219364   1.818   0.403   1.051 -0.5430 -0.1326 -0.3136
 6453TIP3    H119365   1.738   0.365   1.087 -0.6599 -0.4063 -0.8549
 6453TIP3    H219366   1.886   0.376   1.113 -0.7615 -0.5013 -0.2273
 6454TIP3   OH219367   3.210   3.259   3.338 -0.7624 -0.2836 -0.0349
 6454TIP3    H119368   3.278   3.283   3.402 -0.1365 -0.5643 -0.5779
 6454TIP3    H219369   3.172   3.178   3.373 -1.6528  0.5050  0.8838
 6455TIP3   OH219370   4.464   4.401   2.364  0.0351  0.1096  0.5398
 6455TIP3    H119371   4.492   4.490   2.342 -0.0075 -0.1064 -0.4516
 6455TIP3    H219372   4.391   4.383   2.304  0.0507 -0.5945  0.7198
 6456TIP3   OH219373   2.218   3.418   4.614 -0.4864  0.1557  0.2546
 6456TIP3    H119374   2.154   3.405   4.544  1.1323 -0.1563 -1.2559
 6456TIP3    H219375   2.265   3.334   4.619 -2.5603 -0.9666  3.9450
 6457TIP3   OH219376   5.378   1.064   0.978  0.0983  0.2519 -0.3545
 6457TIP3    H119377   5.290   1.046   1.012  0.5984  0.0679  0.9267
 6457TIP3    H219378   5.381   1.019   0.894 -1.1307  0.5132 -0.5549
 6458TIP3   OH219379   4.533   4.916   0.482  0.6385 -0.3732 -0.1475
 6458TIP3    H119380   4.545   4.824   0.504 -1.5265 -0.3807  1.3774
 6458TIP3    H219381   4.536   4.961   0.566  0.5545  0.8118 -0.7558
 6459TIP3   OH219382   3.736   0.804   4.164 -0.7617  0.0880 -0.1449
 6459TIP3    H119383   3.754   0.724   4.115 -0.6321 -0.0340  0.0996
 6459TIP3    H219384   3.744   0.874   4.100  0.0137 -0.0136 -0.1745
 6460TIP3   OH219385   4.215   0.835   0.434  0.6536 -0.6032  0.0518
 6460TIP3    H119386   4.275   0.870   0.368 -1.6172  0.2014 -1.6818
 6460TIP3    H219387   4.169   0.912   0.468  0.0914 -1.2680  0.8343
 6461TIP3   OH219388   4.693   0.305   1.347  0.5229 -0.1565 -0.1487
 6461TIP3    H119389   4.601   0.320   1.322  0.4073 -0.5818  0.0059
 6461TIP3    H219390   4.744   0.345   1.276  0.2464  1.3560  0.4749
 6462TIP3   OH219391   5.805   3.653   3.755  0.2126 -0.4622  0.5369
 6462TIP3    H119392   5.789   3.746   3.768  0.3688 -0.4949  0.9741
 6462TIP3    H219393   5.824   3.644   3.662 -0.9936 -0.2313  0.2603
 6463TIP3   OH219394   6.205   1.412   2.455  0.3043  0.0964  0.6919
 6463TIP3    H119395   6.143   1.485   2.456  0.5473  0.3017  0.9092
 6463TIP3    H219396   6.242   1.413   2.367  0.2874  0.2198  0.6855
 6464TIP3   OH219397   0.032   1.937   5.038  0.1760 -0.2978  0.4563
 6464TIP3    H119398   0.096   1.867   5.020 -1.0680 -1.8689  1.7895
 6464TIP3    H219399   0.085   2.017   5.044  1.6442 -1.0718 -1.2380
 6465TIP3   OH219400   3.550   5.400   4.625  0.3814 -0.3391 -0.4105
 6465TIP3    H119401   3.474   5.410   4.682  0.5053 -1.7280  0.0399
 6465TIP3    H219402   3.550   5.479   4.571 -0.8274  0.1244  0.2290
 6466TIP3   OH219403   2.305   1.007   1.403 -0.5703 -0.1952 -0.2441
 6466TIP3    H119404   2.248   1.012   1.327  0.1744 -0.8594 -0.8633
 6466TIP3    H219405   2.265   1.066   1.467 -1.8238 -0.4841 -0.7327
 6467TIP3   OH219406   5.946   1.680   3.205  0.4484  0.0901 -0.0290
 6467TIP3    H119407   5.985   1.595   3.182  0.0067 -0.4824  1.2757
 6467TIP3    H219408   6.021   1.737   3.222  0.7551 -0.7526  1.5753
 6468TIP3   OH219409   5.458   2.078   3.042 -0.0120 -0.2416  0.0373
 6468TIP3    H119410   5.393   2.145   3.066 -0.0834 -0.6330  0.9802
 6468TIP3    H219411   5.494   2.049   3.125  1.8880  0.4405 -0.5013
 6469TIP3   OH219412   2.716   3.450   1.616 -0.3994 -0.1442  0.5917
 6469TIP3    H119413   2.805   3.415   1.624  0.6023  2.2765  0.9052
 6469TIP3    H219414   2.660   3.381   1.651  1.2064 -2.2147 -0.6793
 6470TIP3   OH219415   6.213   5.380   4.533  0.0347 -0.3730 -0.0960
 6470TIP3    H119416   6.162   5.362   4.612 -2.9141  0.8769 -1.5612
 6470TIP3    H219417   6.204   5.474   4.519  1.7827 -0.3202 -1.1495
 6471TIP3   OH219418   2.748   1.628   0.645  0.0716 -0.0591  0.2405
 6471TIP3    H119419   2.837   1.604   0.672  0.3318  0.9282  0.2843
 6471TIP3    H219420   2.751   1.626   0.549  0.2147  0.2001  0.2369
 6472TIP3   OH219421   1.530   0.509   3.583  0.4897 -0.0599 -0.0770
 6472TIP3    H119422   1.438   0.498   3.606  0.7663 -0.6463  0.8155
 6472TIP3    H219423   1.531   0.579   3.518 -0.6699 -0.6571 -0.7681
 6473TIP3   OH219424   2.954   3.943   4.730  0.1277  0.2245 -0.0529
 6473TIP3    H119425   2.903   3.866   4.705  0.9179  0.0271 -1.1177
 6473TIP3    H219426   2.893   4.016   4.723 -1.0290 -0.4069  2.2859
 6474TIP3   OH219427   5.058   2.101   1.973 -0.1629 -0.1682  0.5782
 6474TIP3    H119428   5.134   2.044   1.958  0.0780  0.5474 -1.2274
 6474TIP3    H219429   4.997   2.079   1.903 -0.9847  0.2997  1.1328
 6475TIP3   OH219430   0.292   0.978   1.768  0.2094 -0.3312  0.3901
 6475TIP3    H119431   0.206   0.943   1.792 -0.5200  1.3987  0.5089
 6475TIP3    H219432   0.347   0.960   1.845 -0.1038 -1.2126  0.4218
 6476TIP3   OH219433   4.121   0.913   1.064  0.1949  0.2155  1.1485
 6476TIP3    H119434   4.050   0.905   1.127  0.1172 -1.3574  0.9074
 6476TIP3    H219435   4.196   0.869   1.105  0.1430 -0.8190  0.1755
 6477TIP3   OH219436   6.234   1.663   2.877  0.0521  0.1632 -0.0139
 6477TIP3    H119437   6.302   1.628   2.819 -0.8513 -1.0663 -0.3914
 6477TIP3    H219438   6.161   1.602   2.866 -1.1960  1.5777  0.2053
 6478TIP3   OH219439   1.171   1.976   0.059 -0.2577 -0.6101 -0.1497
 6478TIP3    H119440   1.142   1.910  -0.005  1.3649 -2.1520  0.6121
 6478TIP3    H219441   1.266   1.966   0.062 -0.2093  0.0033  1.8735
 6479TIP3   OH219442   6.356   2.019   1.958 -0.3618  0.2580 -0.0288
 6479TIP3    H119443   6.371   1.955   2.028  1.6505  0.7461  0.0577
 6479TIP3    H219444   6.261   2.026   1.952 -0.6080 -1.1085  1.4484
 6480TIP3   OH219445   1.949   5.743   2.782  0.0989  0.5588  0.0517
 6480TIP3    H119446   1.859   5.746   2.813  0.6007  2.7622  1.4878
 6480TIP3    H219447   1.999   5.709   2.857  0.6321  0.5547 -0.2990
 6481TIP3   OH219448   1.319   3.748   1.991 -0.1114  0.3184 -0.3415
 6481TIP3    H119449   1.412   3.740   1.972  0.4349 -2.1838  2.6407
 6481TIP3    H219450   1.312   3.829   2.042  0.9782 -0.7588  1.6427
 6482TIP3   OH219451   2.502   1.009   3.542  0.2812 -0.1313 -0.4011
 6482TIP3    H119452   2.451   0.937   3.580 -0.7629 -0.3689 -2.1435
 6482TIP3    H219453   2.583   0.969   3.513  1.3250  0.1463  1.9116
 6483TIP3   OH219454   5.726   0.327   4.099  0.2388  0.5485 -0.0347
 6483TIP3    H119455   5.636   0.299   4.116  0.0914  0.9105 -0.2068
 6483TIP3    H219456   5.774   0.305   4.178  0.1575 -0.3163 -0.2129
 6484TIP3   OH219457   4.585   0.419   0.960 -0.1569 -0.2257 -0.1792
 6484TIP3    H119458   4.670   0.458   0.940 -0.6917 -0.3281 -3.0999
 6484TIP3    H219459   4.595   0.326   0.938 -0.6702 -0.4961  0.6812
 6485TIP3   OH219460   2.842   1.532   4.740 -0.0561 -0.0626 -0.1643
 6485TIP3    H119461   2.763   1.478   4.734 -0.3314  0.4161 -1.0196
 6485TIP3    H219462   2.838   1.588   4.663  0.4100  0.9345  0.5173
 6486TIP3   OH219463   0.987   0.455   4.995 -0.6171  0.2250  0.1891
 6486TIP3    H119464   1.077   0.482   5.015 -0.3741  0.1899 -0.8090
 6486TIP3    H219465   0.932   0.516   5.044 -0.0559 -0.0581  1.1979
 6487TIP3   OH219466   0.541   4.894   3.860  0.2335  0.1289  0.1318
 6487TIP3    H119467   0.508   4.936   3.939 -0.4564 -1.8190  0.9591
 6487TIP3    H219468   0.608   4.833   3.892 -0.6511 -1.3075 -0.6465
 6488TIP3   OH219469   3.724   2.384   0.368  0.1213 -0.3765  0.0183
 6488TIP3    H119470   3.690   2.358   0.453 -0.0641  1.9049  0.7005
 6488TIP3    H219471   3.793   2.446   0.387  0.2246  0.0131 -1.4949
 6489TIP3   OH219472   3.389   0.728   1.857 -0.8445  0.2672  0.3923
 6489TIP3    H119473   3.442   0.700   1.932 -0.6168  0.6943  0.3953
 6489TIP3    H219474   3.326   0.657   1.844 -0.6711  0.0391  0.7805
 6490TIP3   OH219475   1.665   4.639   3.683 -0.3474 -0.5908  0.1808
 6490TIP3    H119476   1.717   4.655   3.605 -0.0895 -1.9089  0.0645
 6490TIP3    H219477   1.695   4.705   3.746  1.5393 -1.3610  0.1474
 6491TIP3   OH219478   0.706   1.013   1.619 -0.1595 -0.0693 -0.5465
 6491TIP3    H119479   0.652   0.938   1.597  0.1178 -0.4370 -0.0150
 6491TIP3    H219480   0.783   1.006   1.563 -0.4252  0.1681 -0.9401
 6492TIP3   OH219481   2.755   2.562   3.931 -0.3518  0.5057 -0.5265
 6492TIP3    H119482   2.805   2.636   3.895  1.2755 -1.1004 -1.7510
 6492TIP3    H219483   2.669   2.568   3.888 -0.1238  1.4735 -0.8702
 6493TIP3   OH219484   4.036   3.856   2.929 -0.6614  0.9573 -0.1148
 6493TIP3    H119485   4.124   3.871   2.964 -0.9700 -0.8256  1.6334
 6493TIP3    H219486   3.977   3.884   3.000 -1.4735  1.1407 -0.8434
 6494TIP3   OH219487   0.089   2.773   4.724 -0.1284 -0.3017  0.2961
 6494TIP3    H119488   0.056   2.856   4.691  1.1346  0.0073 -0.2220
 6494TIP3    H219489   0.066   2.709   4.657 -0.2802 -0.2131  0.2641
 6495TIP3   OH219490   4.152   0.031   3.351  0.0144  0.2017  0.2167
 6495TIP3    H119491   4.195   0.107   3.311 -0.6393  0.0817 -0.7563
 6495TIP3    H219492   4.077   0.069   3.399  1.3587  0.4536  2.2454
 6496TIP3   OH219493   1.385   3.682   2.419  0.0473 -0.1283  0.6080
 6496TIP3    H119494   1.309   3.632   2.390  0.0027  0.1125  0.3077
 6496TIP3    H219495   1.396   3.751   2.353 -0.6355  1.0251  1.6406
 6497TIP3   OH219496   3.317   5.607   1.651  0.6803  0.3430 -0.0370
 6497TIP3    H119497   3.261   5.671   1.696 -1.3870 -0.7394 -0.9506
 6497TIP3    H219498   3.298   5.524   1.694 -0.8317 -0.5988 -2.3381
 6498TIP3   OH219499   4.983   3.952   4.056  0.8328 -0.2193  0.2589
 6498TIP3    H119500   5.042   3.990   3.991 -0.6565 -0.5219 -1.3773
 6498TIP3    H219501   4.919   4.022   4.073  0.9061 -0.3306  1.0310
 6499TIP3   OH219502   3.262   3.703   1.215 -0.4862 -0.4908  0.3412
 6499TIP3    H119503   3.232   3.769   1.277 -1.4686 -0.3897 -0.2195
 6499TIP3    H219504   3.182   3.669   1.175  0.1291 -0.1058 -1.3208
 6500TIP3   OH219505   0.913   0.915   3.225 -0.3001 -0.3041  0.3554
 6500TIP3    H119506   0.893   1.002   3.258 -0.7507 -0.0526 -0.5273
 6500TIP3    H219507   0.989   0.887   3.275 -0.7097  0.2066  1.2995
 6501TIP3   OH219508   1.731   1.449   0.218  0.1827  0.2969 -0.0741
 6501TIP3    H119509   1.765   1.383   0.280 -2.3079 -0.8308  0.2220
 6501TIP3    H219510   1.700   1.398   0.144 -2.0105  1.0444  0.2505
 6502TIP3   OH219511   1.145   0.078   2.771  0.0465 -0.1448 -0.4373
 6502TIP3    H119512   1.051   0.080   2.790 -0.1275 -3.1296 -0.5608
 6502TIP3    H219513   1.150   0.083   2.675 -0.0244 -0.5519 -0.4630
 6503TIP3   OH219514   0.396   0.166   1.344  0.3315 -0.0137  0.0419
 6503TIP3    H119515   0.443   0.143   1.264  1.3394  1.3254  0.2091
 6503TIP3    H219516   0.342   0.090   1.364 -0.7165 -0.0058 -2.4610
 6504TIP3   OH219517   2.241   4.091   0.989 -0.7837  0.2250 -0.3672
 6504TIP3    H119518   2.166   4.121   0.939 -1.9348 -1.6239  0.1595
 6504TIP3    H219519   2.289   4.034   0.929 -0.6049  0.2572 -0.2558
 6505TIP3   OH219520   3.617   0.029   2.752  0.0685 -0.3989  0.2572
 6505TIP3    H119521   3.522   0.020   2.765  0.1793 -0.3153  1.1320
 6505TIP3    H219522   3.636  -0.028   2.677 -0.6343 -0.6046  0.2274
 6506TIP3   OH219523   0.292   1.097   1.511 -0.1218 -0.3655  0.0597
 6506TIP3    H119524   0.300   1.045   1.590 -3.8868 -1.6296 -0.2094
 6506TIP3    H219525   0.379   1.092   1.470  0.7754 -3.1404  2.0258
 6507TIP3   OH219526   6.290   5.199   4.933  0.2286 -0.0110  0.0291
 6507TIP3    H119527   6.321   5.283   4.900  0.8607 -0.2462  0.0101
 6507TIP3    H219528   6.367   5.158   4.972 -0.2880 -0.1730  0.9097
 6508TIP3   OH219529   3.236   4.737   1.966 -0.5708 -0.0788  0.0471
 6508TIP3    H119530   3.149   4.766   1.941 -0.2734 -0.4279 -1.4535
 6508TIP3    H219531   3.287   4.819   1.975 -1.1429  0.1627  1.4552
 6509TIP3   OH219532   3.192   5.545   4.516 -0.1206  0.2730 -0.0041
 6509TIP3    H119533   3.165   5.455   4.495  1.0799  0.3118 -2.1026
 6509TIP3    H219534   3.238   5.537   4.599 -0.2951 -1.0087  0.0022
 6510TIP3   OH219535   4.582   2.831   0.628  0.4296  0.5051 -0.2976
 6510TIP3    H119536   4.562   2.871   0.712 -0.3371  1.0794 -0.7357
 6510TIP3    H219537   4.595   2.906   0.569  1.4143  0.1172 -0.5923
 6511TIP3   OH219538   0.265   3.691   2.525 -0.1264  0.1834 -0.4570
 6511TIP3    H119539   0.291   3.738   2.446  0.1439 -0.9029 -1.0191
 6511TIP3    H219540   0.323   3.726   2.593  0.1981  0.5289 -0.9030
 6512TIP3   OH219541   2.634   3.578   2.631  0.4056 -0.3043 -0.4686
 6512TIP3    H119542   2.690   3.556   2.705  1.2622  1.1552 -0.6394
 6512TIP3    H219543   2.676   3.654   2.591 -0.8848 -0.1102 -1.5326
 6513TIP3   OH219544   0.543   5.506   4.661 -0.6577 -0.5495  0.1376
 6513TIP3    H119545   0.534   5.579   4.600 -2.6716 -0.0535  0.9487
 6513TIP3    H219546   0.589   5.543   4.736  2.1646 -1.2536 -1.1276
 6514TIP3   OH219547   2.331   5.658   4.519 -0.1140 -0.1792  0.0036
 6514TIP3    H119548   2.251   5.674   4.570  0.7572  2.0060  0.8045
 6514TIP3    H219549   2.345   5.563   4.526 -0.9263 -0.1903  2.4872
 6515TIP3   OH219550   1.663   3.178   1.655 -0.1299 -0.2955 -0.1624
 6515TIP3    H119551   1.664   3.236   1.731  0.1436 -0.3581 -0.1181
 6515TIP3    H219552   1.716   3.103   1.681 -1.0555 -0.8867  0.0314
 6516TIP3   OH219553   3.340   4.537   3.896 -0.0894  0.3749  0.8137
 6516TIP3    H119554   3.288   4.550   3.975  0.2004 -0.3543  1.1317
 6516TIP3    H219555   3.368   4.625   3.871 -0.8605  0.6989  1.0515
 6517TIP3   OH219556   3.718   2.673   0.649  0.4346  0.3755  0.9053
 6517TIP3    H119557   3.746   2.765   0.651  0.9889  0.2066  0.8864
 6517TIP3    H219558   3.649   2.669   0.716 -0.7646  1.1704 -0.2351
 6518TIP3   OH219559   3.771   0.683   4.406 -0.7180  0.0442  0.4939
 6518TIP3    H119560   3.805   0.731   4.482 -2.4308  1.3827  0.4712
 6518TIP3    H219561   3.759   0.750   4.339  0.6583 -1.0925 -0.9845
 6519TIP3   OH219562   4.128   2.748   1.933  0.0896 -0.6128  0.9359
 6519TIP3    H119563   4.129   2.684   1.862  0.7387  1.6446 -1.2339
 6519TIP3    H219564   4.043   2.791   1.925  1.5148  2.1488 -1.0121
 6520TIP3   OH219565   3.774   3.074   1.057 -0.4120  0.2897  0.5619
 6520TIP3    H119566   3.776   3.165   1.028  0.9283  0.1060  0.0023
 6520TIP3    H219567   3.866   3.048   1.062 -0.7563 -1.8094 -1.7956
 6521TIP3   OH219568   6.072   4.161   1.824 -0.2479  0.2264 -0.3540
 6521TIP3    H119569   6.064   4.256   1.817 -0.3818  0.2447  0.0294
 6521TIP3    H219570   6.147   4.148   1.881 -1.4470  0.1306  1.2577
 6522TIP3   OH219571   2.423   3.466   2.451 -0.3567  0.1468 -0.3326
 6522TIP3    H119572   2.458   3.541   2.500 -1.4265  0.7594 -0.4902
 6522TIP3    H219573   2.382   3.505   2.374  0.1080 -0.7062 -1.0316
 6523TIP3   OH219574   5.866   3.193   4.082  0.1714 -0.1292 -0.5080
 6523TIP3    H119575   5.958   3.169   4.068  0.5104  0.9635 -0.2272
 6523TIP3    H219576   5.833   3.212   3.994  0.4848  0.3950 -0.5168
 6524TIP3   OH219577   6.030   3.331   2.061 -0.0651  0.4759 -0.1054
 6524TIP3    H119578   5.952   3.285   2.092  0.0192 -0.0463 -0.6596
 6524TIP3    H219579   6.103   3.275   2.086  0.0199  0.1765 -0.9980
 6525TIP3   OH219580   1.725   3.782   4.720 -0.2030 -0.1666  0.3166
 6525TIP3    H119581   1.687   3.807   4.804  2.2144  1.9455  0.9188
 6525TIP3    H219582   1.682   3.838   4.656 -1.7044 -1.4441  0.1448
 6526TIP3   OH219583   2.679   2.989   0.589 -0.6022 -0.3830  0.1204
 6526TIP3    H119584   2.704   2.922   0.653 -1.4982 -0.2710  0.6011
 6526TIP3    H219585   2.625   2.942   0.526  0.1765 -0.4658 -0.4945
 6527TIP3   OH219586   6.092   3.374   2.563  0.0270  0.1565  0.5382
 6527TIP3    H119587   6.176   3.337   2.590 -0.1817  0.4867  1.7115
 6527TIP3    H219588   6.042   3.300   2.530  0.9577  0.0399 -0.6640
 6528TIP3   OH219589   5.334   3.088   1.048 -0.1758 -0.1974 -0.2038
 6528TIP3    H119590   5.380   3.169   1.029 -1.0743  0.3902  0.0743
 6528TIP3    H219591   5.303   3.057   0.963 -0.3358  0.0601 -0.2387
 6529TIP3   OH219592   3.863   5.130   4.856  0.0859  0.4333 -0.8084
 6529TIP3    H119593   3.860   5.096   4.766 -2.4216  1.7305 -1.3131
 6529TIP3    H219594   3.771   5.146   4.878  0.7177  0.9521  1.7080
 6530TIP3   OH219595   1.353   0.786   1.813  0.2371 -0.3383 -0.1004
 6530TIP3    H119596   1.268   0.794   1.856  0.5265  1.4447  0.2245
 6530TIP3    H219597   1.348   0.845   1.738  1.7253  1.1237  0.8890
 6531TIP3   OH219598   5.077   5.209   3.426 -0.3120 -0.0690 -0.8340
 6531TIP3    H119599   5.153   5.257   3.392  0.0620 -0.2943 -0.3342
 6531TIP3    H219600   5.033   5.175   3.348  0.3262 -0.2721 -1.1110
 6532TIP3   OH219601   0.540   5.193   3.513  0.0739  0.3329 -0.0777
 6532TIP3    H119602   0.608   5.239   3.465  1.7015  0.1868  1.9373
 6532TIP3    H219603   0.509   5.256   3.579  0.9131 -0.7352  1.4046
 6533TIP3   OH219604   0.178   5.383   2.960 -0.2823 -0.6663  0.4022
 6533TIP3    H119605   0.174   5.411   2.868 -1.0004 -1.6875  0.1052
 6533TIP3    H219606   0.136   5.455   3.008  0.5286  0.0976 -0.0020
 6534TIP3   OH219607   5.058   2.950   2.289  0.0979 -0.0680  0.1805
 6534TIP3    H119608   5.069   2.883   2.221 -0.3174 -0.5547  0.5855
 6534TIP3    H219609   4.983   2.920   2.341  1.6288 -0.8207  2.1067
 6535TIP3   OH219610   1.420   1.872   1.703 -0.4655 -0.2425 -0.1581
 6535TIP3    H119611   1.471   1.873   1.784 -0.8077 -0.2326  0.0573
 6535TIP3    H219612   1.453   1.948   1.654 -1.0211  0.4130  0.4487
 6536TIP3   OH219613   2.388   3.589   4.777  0.3704  0.0242  0.2914
 6536TIP3    H119614   2.333   3.566   4.703  1.0071 -0.8675  0.0699
 6536TIP3    H219615   2.447   3.514   4.787  0.8758  0.5155  1.1430
 6537TIP3   OH219616   4.581   5.874   1.422 -0.0811 -0.0537  0.1051
 6537TIP3    H119617   4.630   5.808   1.471 -2.3400  0.6195  3.5604
 6537TIP3    H219618   4.493   5.838   1.414 -1.5622  2.5934  2.6278
 6538TIP3   OH219619   1.043   3.362   4.691 -0.1087  0.3932  0.6259
 6538TIP3    H119620   0.997   3.394   4.613  2.6254  1.8663 -0.5209
 6538TIP3    H219621   1.034   3.433   4.754  0.7104  0.7568  0.3377
 6539TIP3   OH219622   6.228   3.135   1.565 -0.1980 -0.1967 -0.2538
 6539TIP3    H119623   6.177   3.118   1.643 -2.3272 -1.1864 -1.7748
 6539TIP3    H219624   6.313   3.092   1.582 -1.1876 -1.8300  0.8650
 6540TIP3   OH219625   3.532   3.364   4.414 -0.3435 -0.0435  0.3889
 6540TIP3    H119626   3.571   3.354   4.327  2.2707  2.3083  1.1818
 6540TIP3    H219627   3.437   3.362   4.397  0.0279  1.7960 -2.7558
 6541TIP3   OH219628   1.223   4.646   4.224 -0.1653  0.5594 -0.1873
 6541TIP3    H119629   1.176   4.563   4.225 -2.0177  1.5587  0.5187
 6541TIP3    H219630   1.221   4.676   4.315  0.9971  1.1085 -0.3320
 6542TIP3   OH219631   4.836   1.701   1.762 -0.8016  0.1124 -0.1416
 6542TIP3    H119632   4.798   1.654   1.836  1.1245  0.1418  0.9075
 6542TIP3    H219633   4.817   1.645   1.686 -2.8491  0.1141  0.3006
 6543TIP3   OH219634   4.679   4.425   1.194  0.0701  0.6641  0.2497
 6543TIP3    H119635   4.704   4.465   1.277  1.0528  1.1338 -0.2475
 6543TIP3    H219636   4.655   4.500   1.139  1.3339  0.5468 -0.5002
 6544TIP3   OH219637   5.194   3.896   2.311 -0.3337  0.2611 -0.3028
 6544TIP3    H119638   5.123   3.866   2.367  0.2549  1.4835  1.1580
 6544TIP3    H219639   5.256   3.823   2.309  0.3726  0.7080  1.9754
 6545TIP3   OH219640   4.114   4.079   0.061  0.4431  0.7887  0.1383
 6545TIP3    H119641   4.165   4.013   0.108  1.7694  0.3196 -1.8448
 6545TIP3    H219642   4.175   4.115  -0.003 -1.0925  1.9085 -0.7642
 6546TIP3   OH219643   4.404   1.721   1.377 -0.3373 -0.3735 -0.6199
 6546TIP3    H119644   4.424   1.794   1.318  1.5631  0.9139  1.4627
 6546TIP3    H219645   4.478   1.661   1.366 -0.8478 -0.9906 -0.7764
 6547TIP3   OH219646   4.717   0.326   1.631 -0.2607  0.2844 -0.8701
 6547TIP3    H119647   4.645   0.307   1.691  0.2088 -0.1046 -0.4245
 6547TIP3    H219648   4.690   0.289   1.547  0.4188 -1.9923 -0.1586
 6548TIP3   OH219649   1.734   5.327   2.490  0.1791 -0.0256 -0.2643
 6548TIP3    H119650   1.697   5.279   2.563  0.8480  1.1496  0.8981
 6548TIP3    H219651   1.766   5.409   2.529 -2.3770  2.1579 -2.3708
 6549TIP3   OH219652   3.346   1.753   0.477  0.1726 -0.2571 -0.3027
 6549TIP3    H119653   3.320   1.808   0.551  2.8345  2.5988 -1.2970
 6549TIP3    H219654   3.289   1.783   0.405 -0.7270 -1.3037 -0.0504
 6550TIP3   OH219655   4.892   3.361   4.054 -0.4662  0.4814  0.3548
 6550TIP3    H119656   4.940   3.311   4.121 -3.0596 -0.4801  1.6098
 6550TIP3    H219657   4.924   3.451   4.065  2.0403 -0.3114  0.1470
 6551TIP3   OH219658   4.147   1.897   3.685  0.2533 -0.4546 -0.3543
 6551TIP3    H119659   4.147   1.833   3.613  0.7640 -1.4065  0.4647
 6551TIP3    H219660   4.232   1.885   3.727  0.1478  0.4313  0.1279
 6552TIP3   OH219661   0.973   2.020   1.378  0.5009 -0.1543 -0.0041
 6552TIP3    H119662   0.971   1.942   1.433  0.1296 -0.0425  0.1426
 6552TIP3    H219663   1.059   2.059   1.395 -0.0611  0.5288  1.3973
 6553TIP3   OH219664   5.748   5.758   4.800 -0.4288  0.2537  0.2810
 6553TIP3    H119665   5.692   5.830   4.770 -0.6299 -0.6138 -1.6046
 6553TIP3    H219666   5.782   5.787   4.885 -2.0408  1.7114  0.4813
 6554TIP3   OH219667   1.106   5.159   2.799  0.8117  0.2947  0.1702
 6554TIP3    H119668   1.019   5.125   2.780  0.2263  0.4320  2.3967
 6554TIP3    H219669   1.162   5.081   2.802  0.7759  0.1972 -1.1391
 6555TIP3   OH219670   3.083   4.846   0.587 -0.1903  0.3706  0.0143
 6555TIP3    H119671   3.091   4.850   0.492 -0.8680  1.2810 -0.0177
 6555TIP3    H219672   3.100   4.936   0.616 -0.3462  0.1764  0.7276
 6556TIP3   OH219673   5.997   2.146   0.817  0.5581  0.2537 -0.5235
 6556TIP3    H119674   6.014   2.240   0.812  1.6249  0.0786 -0.4004
 6556TIP3    H219675   5.902   2.139   0.812  0.5263  1.1089 -4.2572
 6557TIP3   OH219676   1.803   2.764   2.387  0.2173  0.2476  0.4737
 6557TIP3    H119677   1.788   2.670   2.395  0.3428 -0.0359 -1.8373
 6557TIP3    H219678   1.896   2.775   2.402  0.1923  0.0120  0.8128
 6558TIP3   OH219679   3.682   1.336   3.331  0.0467 -0.8167 -0.3850
 6558TIP3    H119680   3.628   1.296   3.399  1.6330 -0.4369  1.1660
 6558TIP3    H219681   3.729   1.263   3.292 -0.5364 -0.9808 -0.8046
 6559TIP3   OH219682   0.783   3.817   0.522 -0.1795  0.4833  0.1530
 6559TIP3    H119683   0.808   3.909   0.510 -0.8935  0.5524 -0.9675
 6559TIP3    H219684   0.847   3.768   0.470  0.5076  0.2884  1.1515
 6560TIP3   OH219685   6.226   4.341   0.780  0.2299 -0.3057 -0.3713
 6560TIP3    H119686   6.256   4.415   0.727  1.1195 -0.0940  0.4038
 6560TIP3    H219687   6.266   4.264   0.740  2.2834  0.0075  0.8940
 6561TIP3   OH219688   1.700   0.293   4.460  0.1297  0.0126 -0.3276
 6561TIP3    H119689   1.656   0.216   4.425  1.3310 -0.3637 -1.0748
 6561TIP3    H219690   1.643   0.323   4.531 -1.4933 -0.2440 -1.4573
 6562TIP3   OH219691   2.571   0.861   4.389 -0.3986 -0.1153  0.5177
 6562TIP3    H119692   2.542   0.861   4.480 -0.4673  1.1275  0.5063
 6562TIP3    H219693   2.513   0.923   4.345  0.6142  0.4603 -0.0462
 6563TIP3   OH219694   5.669   5.708   4.070 -0.4840 -0.0335 -0.5799
 6563TIP3    H119695   5.634   5.714   3.981  2.2252 -0.7749 -1.7797
 6563TIP3    H219696   5.702   5.618   4.078 -0.9651 -0.0974  1.3281
 6564TIP3   OH219697   1.702   3.711   1.728  0.0090 -0.0238 -0.5736
 6564TIP3    H119698   1.730   3.730   1.639  0.3046 -1.8591 -0.9075
 6564TIP3    H219699   1.781   3.718   1.781 -0.2300  1.4015 -0.3713
 6565TIP3   OH219700   5.318   4.809   3.339 -0.0207  0.8949 -0.6985
 6565TIP3    H119701   5.330   4.845   3.427 -0.0397 -2.2552  0.7540
 6565TIP3    H219702   5.264   4.731   3.353  1.5081 -0.7583 -3.2039
 6566TIP3   OH219703   2.841   0.973   1.493 -0.0932  0.3436 -0.0005
 6566TIP3    H119704   2.922   0.965   1.544 -0.0736  0.1532 -0.0644
 6566TIP3    H219705   2.815   0.883   1.473  0.9055  0.4535 -1.9479
 6567TIP3   OH219706   0.825   0.158   3.662 -0.0851  0.0913 -0.2273
 6567TIP3    H119707   0.901   0.106   3.687 -0.1456  0.2016  0.1981
 6567TIP3    H219708   0.842   0.244   3.700 -0.3939  0.1327 -0.1794
 6568TIP3   OH219709   3.899   3.762   5.106  0.3876  0.0433 -1.0619
 6568TIP3    H119710   3.975   3.779   5.162  0.6797 -0.4862 -1.2912
 6568TIP3    H219711   3.935   3.763   5.017  0.4565 -1.8059 -1.1011
 6569TIP3   OH219712   6.265   2.114   0.503 -0.1866 -0.1395  0.1092
 6569TIP3    H119713   6.258   2.141   0.594 -0.2474 -0.4163  0.1870
 6569TIP3    H219714   6.346   2.064   0.498 -0.0329  0.1219 -0.0522
 6570TIP3   OH219715   6.338   0.093   3.276  0.0521 -0.2574 -0.1526
 6570TIP3    H119716   6.262   0.070   3.222 -0.4795  1.1718 -0.0802
 6570TIP3    H219717   6.388   0.154   3.222  0.4528 -0.1862  0.2941
 6571TIP3   OH219718   3.065   5.160   1.892 -0.1622 -0.0342 -0.1224
 6571TIP3    H119719   2.986   5.152   1.947  0.8250 -1.2204  1.1939
 6571TIP3    H219720   3.137   5.136   1.950  1.3497  2.2691 -0.9387
 6572TIP3   OH219721   0.196   2.037   0.483  0.4064 -0.0708 -0.3558
 6572TIP3    H119722   0.247   1.993   0.415  1.4400 -0.4472  0.6365
 6572TIP3    H219723   0.167   1.967   0.540 -0.6880  0.2182 -0.5454
 6573TIP3   OH219724   2.111   3.766   4.450 -0.3687 -1.0752 -0.0007
 6573TIP3    H119725   2.068   3.705   4.510 -1.2758 -0.2765  0.2019
 6573TIP3    H219726   2.078   3.852   4.476 -0.2098 -0.6356 -1.1690
 6574TIP3   OH219727   2.108   3.459   4.879  0.6250 -1.0218 -0.0628
 6574TIP3    H119728   2.146   3.425   4.798  2.5477  0.7248  0.0289
 6574TIP3    H219729   2.125   3.553   4.876 -2.8095 -0.2393  0.5443
 6575TIP3   OH219730   1.270   4.712   4.864  0.4619  0.6821  0.6239
 6575TIP3    H119731   1.203   4.693   4.798 -0.2326 -0.3172  1.5729
 6575TIP3    H219732   1.302   4.799   4.842 -0.2106  0.6306 -0.6416
 6576TIP3   OH219733   0.760   2.834   3.754 -0.0233 -0.1524  0.1073
 6576TIP3    H119734   0.828   2.798   3.811  0.4001  0.0508 -0.2629
 6576TIP3    H219735   0.723   2.907   3.803  0.9291  0.5683 -0.2217
 6577TIP3   OH219736   5.292   0.161   3.563 -0.4545  0.2084 -0.2067
 6577TIP3    H119737   5.381   0.153   3.528 -0.5319  1.9643 -0.9291
 6577TIP3    H219738   5.239   0.185   3.487 -1.1279  1.3804  0.6023
 6578TIP3   OH219739   2.301   5.667   1.667 -0.3341  0.3455 -0.3998
 6578TIP3    H119740   2.231   5.716   1.623 -0.8170  0.2919  0.2897
 6578TIP3    H219741   2.276   5.575   1.658 -0.3064  0.3205 -0.2188
 6579TIP3   OH219742   0.254   5.245   2.242  0.0481  0.0648  0.2986
 6579TIP3    H119743   0.268   5.153   2.264 -0.2926 -0.0157  0.1824
 6579TIP3    H219744   0.284   5.293   2.319 -1.1610 -0.2179  0.9588
 6580TIP3   OH219745   2.005   0.496   0.430  0.0425  0.5529  0.2759
 6580TIP3    H119746   2.012   0.591   0.435  0.3966  0.5547 -0.1619
 6580TIP3    H219747   1.913   0.481   0.408 -0.7623  0.6474  3.2316
 6581TIP3   OH219748   4.238   5.841   5.002  0.6303 -0.0556 -0.3570
 6581TIP3    H119749   4.233   5.928   5.042  0.0552 -0.5777  0.7283
 6581TIP3    H219750   4.322   5.841   4.955  0.3776  1.2707 -0.8457
 6582TIP3   OH219751   2.757   2.680   1.982 -0.4505 -0.4374  0.1623
 6582TIP3    H119752   2.836   2.723   2.015 -0.8103  0.7406 -0.4293
 6582TIP3    H219753   2.702   2.752   1.951 -1.6305 -1.2553  0.2754
 6583TIP3   OH219754   5.651   5.859   4.310  0.3576 -0.1525 -0.0514
 6583TIP3    H119755   5.641   5.807   4.230  0.2613 -0.0967 -0.0760
 6583TIP3    H219756   5.563   5.893   4.327  0.3559 -0.2594  0.1422
 6584TIP3   OH219757   5.614   4.608   1.093  0.0902  1.0054 -0.1438
 6584TIP3    H119758   5.545   4.581   1.152 -1.0106  0.2500 -1.7028
 6584TIP3    H219759   5.693   4.564   1.126 -0.7635 -0.4709 -0.0020
 6585TIP3   OH219760   5.508   1.165   1.898  0.2815  0.3101  0.0739
 6585TIP3    H119761   5.573   1.112   1.946  0.7184  0.4427 -0.3635
 6585TIP3    H219762   5.529   1.151   1.806  0.3834  1.2241 -0.0449
 6586TIP3   OH219763   3.998   1.403   4.912 -0.0472 -0.0297  0.4846
 6586TIP3    H119764   4.019   1.342   4.983 -1.1446 -0.7917  0.1782
 6586TIP3    H219765   4.051   1.372   4.838 -1.1794 -1.1082  0.1054
 6587TIP3   OH219766   6.212   1.302   0.888  0.1734  0.3975 -0.1083
 6587TIP3    H119767   6.198   1.394   0.909 -2.0669  0.3814 -1.2125
 6587TIP3    H219768   6.239   1.262   0.971  2.2851  2.1704  0.1569
 6588TIP3   OH219769   5.134   2.045   0.530  0.0605 -0.4741 -0.7536
 6588TIP3    H119770   5.203   2.080   0.585  1.3187 -2.0837 -1.2426
 6588TIP3    H219771   5.066   2.113   0.531  0.7428  0.2578  1.3861
 6589TIP3   OH219772   0.605   2.808   0.238  0.1648  0.0481 -0.4387
 6589TIP3    H119773   0.650   2.886   0.270 -1.1959  0.9554 -0.6279
 6589TIP3    H219774   0.652   2.735   0.278  1.9906  0.8957 -0.9175
 6590TIP3   OH219775   3.627   1.173   5.052  0.6737 -0.3550 -0.7427
 6590TIP3    H119776   3.668   1.232   5.115  1.6724 -2.7516  1.0264
 6590TIP3    H219777   3.700   1.143   4.998  0.2640 -0.3827 -1.2869
 6591TIP3   OH219778   0.993   1.658   2.850  0.5487 -0.5379 -0.0500
 6591TIP3    H119779   0.938   1.679   2.775  0.8754  0.5498 -0.0093
 6591TIP3    H219780   0.975   1.728   2.913 -1.6086 -2.7257  1.9818
 6592TIP3   OH219781   0.474   0.535   3.249  0.2583 -0.1561  0.2985
 6592TIP3    H119782   0.555   0.516   3.296  0.8070 -1.7885 -1.2193
 6592TIP3    H219783   0.500   0.540   3.157 -1.0670  1.2280 -0.0462
 6593TIP3   OH219784   2.479   3.690   1.357 -0.3026  0.4632  0.3028
 6593TIP3    H119785   2.564   3.727   1.382 -0.1270  0.3990 -0.1814
 6593TIP3    H219786   2.433   3.677   1.440 -0.7134  2.5684  0.4690
 6594TIP3   OH219787   4.023   4.419   1.827 -0.3613 -0.0450  0.0092
 6594TIP3    H119788   3.953   4.375   1.779 -0.3280  1.4027 -1.4259
 6594TIP3    H219789   3.998   4.410   1.919 -2.5067  0.5248 -0.4722
 6595TIP3   OH219790   4.380   1.357   3.017  0.4373 -0.2715 -0.2333
 6595TIP3    H119791   4.427   1.275   3.025  0.9915  0.1615  1.6074
 6595TIP3    H219792   4.373   1.389   3.107 -0.6594  1.1995 -0.7939
 6596TIP3   OH219793   6.006   1.428   3.450 -0.0090  0.5364  0.0631
 6596TIP3    H119794   6.050   1.500   3.496 -0.1322  1.3513 -1.0482
 6596TIP3    H219795   6.047   1.426   3.363 -0.1500 -0.6178  0.0069
 6597TIP3   OH219796   3.563   1.068   4.041 -0.0325  0.1290 -0.3733
 6597TIP3    H119797   3.542   1.162   4.044  1.2293  0.4046  0.7142
 6597TIP3    H219798   3.657   1.065   4.025  0.1033 -0.9260  0.5316
 6598TIP3   OH219799   2.025   0.666   3.049  0.0675  0.4736  0.2463
 6598TIP3    H119800   2.083   0.646   2.976  0.6042  2.2081  0.1545
 6598TIP3    H219801   2.074   0.639   3.127  1.6992  3.1928  0.2762
 6599TIP3   OH219802   4.017   3.239   2.972  0.1384  0.1224  0.2972
 6599TIP3    H119803   3.990   3.150   2.994 -1.0571  0.4523  0.2733
 6599TIP3    H219804   4.023   3.284   3.056 -1.7936  0.6710  0.1981
 6600TIP3   OH219805   0.326   0.524   4.825  0.5314 -0.0064  0.3115
 6600TIP3    H119806   0.396   0.578   4.790 -2.0679  2.5402 -1.3404
 6600TIP3    H219807   0.333   0.533   4.920  1.9522  0.7745  0.1519
 6601TIP3   OH219808   0.743   1.073   4.732  0.3901  0.3357  0.5959
 6601TIP3    H119809   0.699   0.997   4.770 -0.3045  1.0463  1.2848
 6601TIP3    H219810   0.835   1.062   4.754  0.3619 -0.4892  0.3444
 6602TIP3   OH219811   2.343   5.897   1.243  0.4837 -0.1486  0.2564
 6602TIP3    H119812   2.267   5.925   1.193  1.3749 -0.6485 -1.4608
 6602TIP3    H219813   2.332   5.939   1.328 -1.2976  0.4170 -0.2058
 6603TIP3   OH219814   0.331   2.758   5.023  0.0838  0.2649  0.8653
 6603TIP3    H119815   0.339   2.767   4.928  1.6934 -1.5491  0.7468
 6603TIP3    H219816   0.251   2.805   5.046 -0.0288  1.2237 -1.3013
 6604TIP3   OH219817   2.465   4.951   2.808 -0.5753 -0.3533  0.1465
 6604TIP3    H119818   2.470   4.892   2.733 -0.1966  0.7576 -0.7388
 6604TIP3    H219819   2.554   4.985   2.818 -1.1466  1.5053 -0.6012
 6605TIP3   OH219820   4.422   2.076   3.342 -0.1489 -0.2108 -0.1816
 6605TIP3    H119821   4.385   2.129   3.413 -0.0345  0.2552 -0.4696
 6605TIP3    H219822   4.418   2.132   3.265  1.1171 -0.1689 -0.2379
 6606TIP3   OH219823   5.375   1.679   3.683 -0.1286 -0.5251  0.7203
 6606TIP3    H119824   5.417   1.726   3.756  0.9782  1.5461 -1.1095
 6606TIP3    H219825   5.288   1.718   3.676  0.1899  0.1325  0.2506
 6607TIP3   OH219826   5.956   5.985   0.702 -0.1341 -0.2237  0.1850
 6607TIP3    H119827   5.948   5.890   0.707 -1.6197 -0.0832  2.5243
 6607TIP3    H219828   5.902   6.010   0.627 -0.0255 -1.1812 -0.2268
 6608TIP3   OH219829   5.539   3.862   3.304 -0.7561 -0.3249 -0.0071
 6608TIP3    H119830   5.512   3.774   3.281  0.9593 -0.9576  0.2251
 6608TIP3    H219831   5.483   3.919   3.253 -1.5456 -1.5553 -0.5561
 6609TIP3   OH219832   3.838   4.309   0.318  0.0351 -0.3873 -0.6772
 6609TIP3    H119833   3.913   4.265   0.356 -0.6559  1.8223  4.0257
 6609TIP3    H219834   3.875   4.383   0.271  0.9759  0.4773  1.2799
 6610TIP3   OH219835  -0.013   2.680   3.699  0.7866 -0.1068 -0.6279
 6610TIP3    H119836   0.042   2.677   3.777  0.4033  0.5206 -0.3268
 6610TIP3    H219837   0.031   2.743   3.642 -0.5978  1.8720  0.3965
 6611TIP3   OH219838   1.219   0.924   1.175 -0.0493 -0.7395  0.2210
 6611TIP3    H119839   1.282   0.945   1.244 -0.4130 -2.5980  1.1752
 6611TIP3    H219840   1.273   0.896   1.101  0.2932 -0.3049  0.2980
 6612TIP3   OH219841   3.354   5.252   4.344  0.0614  0.5288  0.5748
 6612TIP3    H119842   3.416   5.180   4.333  0.1897  0.9431 -2.1821
 6612TIP3    H219843   3.406   5.331   4.333 -0.7698  0.8930 -1.0369
 6613TIP3   OH219844   5.348   0.994   4.498 -0.1237  0.1589  0.1724
 6613TIP3    H119845   5.336   1.088   4.479 -0.0188  0.3337  0.9480
 6613TIP3    H219846   5.352   0.953   4.412  0.7242  0.9828 -0.1970
 6614TIP3   OH219847   1.454   4.104   1.315 -0.0470 -0.4467 -0.3328
 6614TIP3    H119848   1.378   4.092   1.258 -0.0641 -1.1150 -0.1832
 6614TIP3    H219849   1.459   4.198   1.331 -1.9253 -0.5334  1.1030
 6615TIP3   OH219850   2.931   1.419   3.316 -0.4254 -0.3967  0.6722
 6615TIP3    H119851   2.953   1.511   3.325  0.4790 -0.5483  0.2494
 6615TIP3    H219852   2.844   1.418   3.277 -0.9638  0.2590  1.8111
 6616TIP3   OH219853   5.398   3.163   4.713 -0.4291 -0.4558 -0.2535
 6616TIP3    H119854   5.392   3.246   4.667  2.0015 -0.1855 -0.2266
 6616TIP3    H219855   5.417   3.099   4.645  1.4535 -0.3305  0.1002
 6617TIP3   OH219856   2.789   5.643   4.989 -0.1735 -0.8519  0.4027
 6617TIP3    H119857   2.824   5.669   5.075  0.9578  0.5958 -0.4469
 6617TIP3    H219858   2.857   5.589   4.950  0.4185  0.4848 -0.5218
 6618TIP3   OH219859   5.190   5.524   1.110  0.0370 -0.5497 -0.2208
 6618TIP3    H119860   5.201   5.522   1.015  0.5212 -2.4337 -0.1550
 6618TIP3    H219861   5.207   5.435   1.138  0.6823  0.1447  1.7409
 6619TIP3   OH219862   1.970   5.073   2.590 -0.1483 -0.0781  0.0177
 6619TIP3    H119863   1.923   4.991   2.576 -1.0778  0.5431 -0.5901
 6619TIP3    H219864   1.902   5.138   2.603  0.4902  0.9704 -1.6355
 6620TIP3   OH219865   6.066   4.553   2.700 -0.1022  0.1066  0.2195
 6620TIP3    H119866   6.088   4.460   2.691  3.4272  0.7906  0.3283
 6620TIP3    H219867   6.073   4.587   2.610 -1.0072  0.3657  0.2400
 6621TIP3   OH219868   2.308   0.786   4.299 -0.0491  0.6115 -0.1825
 6621TIP3    H119869   2.238   0.851   4.308  2.4665  3.3088  1.5589
 6621TIP3    H219870   2.318   0.750   4.388 -0.2031 -0.9456 -0.7565
 6622TIP3   OH219871   0.972   1.422   2.675  0.1127 -0.3085 -0.7658
 6622TIP3    H119872   0.979   1.469   2.757 -2.2538 -0.6609 -0.2911
 6622TIP3    H219873   0.971   1.490   2.608  0.4916  0.0656 -0.3985
 6623TIP3   OH219874   3.274   5.789   0.038 -0.5939  0.6878  0.0925
 6623TIP3    H119875   3.320   5.863  -0.003  1.0859 -0.7475 -0.7481
 6623TIP3    H219876   3.227   5.828   0.112  1.9580  2.3263  0.9894
 6624TIP3   OH219877   4.484   1.240   0.410 -0.1871  0.3158 -0.1324
 6624TIP3    H119878   4.447   1.324   0.382 -1.2704 -0.8706 -2.5296
 6624TIP3    H219879   4.428   1.213   0.483 -2.6871 -0.2501 -2.0800
 6625TIP3   OH219880   1.971   0.669   2.064  0.3764 -0.4597 -0.2373
 6625TIP3    H119881   1.921   0.734   2.014  0.0477 -0.4732  0.0788
 6625TIP3    H219882   2.022   0.622   1.997 -2.8992 -3.1135 -1.1444
 6626TIP3   OH219883   3.638   4.689   1.047  0.0801 -0.0563  0.3265
 6626TIP3    H119884   3.690   4.631   1.102 -0.9018 -1.6065 -0.3170
 6626TIP3    H219885   3.547   4.659   1.060 -0.1663 -0.7765 -2.3965
 6627TIP3   OH219886   5.833   5.213   1.282 -0.4139 -0.3399 -0.0097
 6627TIP3    H119887   5.867   5.280   1.340 -1.7626  0.2042  0.1880
 6627TIP3    H219888   5.876   5.229   1.198 -0.2205  0.3529  0.2202
 6628TIP3   OH219889   1.572   1.630   4.830  0.0563 -0.0704  0.3180
 6628TIP3    H119890   1.501   1.694   4.836 -0.5926 -0.5947 -1.2190
 6628TIP3    H219891   1.533   1.547   4.858 -0.1653 -0.4906 -1.1383
 6629TIP3   OH219892   4.331   3.038   0.635 -0.0959  0.5315  0.0933
 6629TIP3    H119893   4.385   3.019   0.712 -2.9537 -0.6359  1.9810
 6629TIP3    H219894   4.266   3.101   0.666 -0.7095  0.8283 -1.6813
 6630TIP3   OH219895   4.554   1.471   2.652  0.3922 -0.0334  0.4540
 6630TIP3    H119896   4.642   1.489   2.617  0.9978 -0.2138  1.8053
 6630TIP3    H219897   4.535   1.381   2.623  0.6280  0.0330  0.0875
 6631TIP3   OH219898   1.814   0.451   1.686 -0.6482 -0.1234  0.3878
 6631TIP3    H119899   1.725   0.446   1.650 -1.7455 -0.8141  2.9263
 6631TIP3    H219900   1.867   0.399   1.626 -2.2190 -0.8039 -0.4790
 6632TIP3   OH219901   6.116   0.340   4.590  0.6117  0.1573 -0.1865
 6632TIP3    H119902   6.122   0.257   4.638  0.6732 -0.2607 -0.9047
 6632TIP3    H219903   6.042   0.385   4.630  0.9926  0.0490  0.6539
 6633TIP3   OH219904   0.081   3.749   0.202  0.1309 -0.3364  0.3248
 6633TIP3    H119905   0.005   3.724   0.255 -0.3276 -1.7549 -0.9262
 6633TIP3    H219906   0.120   3.822   0.250 -0.3973 -1.3726  2.4807
 6634TIP3   OH219907   1.873   4.958   0.434  0.4053 -0.3360 -0.4361
 6634TIP3    H119908   1.826   5.016   0.373  0.5920 -1.2440 -1.4825
 6634TIP3    H219909   1.965   4.977   0.419  0.5415 -1.7275 -1.7261
 6635TIP3   OH219910   3.648   3.964   4.964  0.3724 -0.5740  0.5365
 6635TIP3    H119911   3.618   3.920   5.043  0.5765 -0.6312  0.5826
 6635TIP3    H219912   3.737   3.993   4.985  0.6156 -1.0331  0.1502
 6636TIP3   OH219913   4.611   0.354   2.755 -0.1024 -0.2937  0.5788
 6636TIP3    H119914   4.589   0.405   2.677  1.2132 -1.9110 -0.9081
 6636TIP3    H219915   4.693   0.391   2.786 -0.9438  0.7773  1.6614
 6637TIP3   OH219916   3.884   1.581   5.107  0.3685 -0.0897 -0.4259
 6637TIP3    H119917   3.902   1.529   5.185  0.3931 -0.7182 -0.8409
 6637TIP3    H219918   3.922   1.530   5.035 -0.0975  0.2317 -0.9077
 6638TIP3   OH219919   3.615   3.354   1.183  0.3457  0.3592 -0.1059
 6638TIP3    H119920   3.571   3.372   1.100  1.4379 -0.6604 -0.9356
 6638TIP3    H219921   3.550   3.376   1.250 -1.6149 -1.5248 -1.2770
 6639TIP3   OH219922   1.853   3.818   0.847  0.0762  0.2952 -0.1343
 6639TIP3    H119923   1.783   3.811   0.781 -0.7497 -1.7190  0.8907
 6639TIP3    H219924   1.836   3.746   0.908  0.8248  2.0391  2.2920
 6640TIP3   OH219925   4.633   4.092   3.381  0.1103 -0.2108  0.3313
 6640TIP3    H119926   4.706   4.051   3.334 -1.0869 -3.3166  0.9060
 6640TIP3    H219927   4.559   4.086   3.321 -0.5487 -0.7957  1.1624
   6.33682   5.97441   5.17399   0.00000   0.00000  -2.11227   0.00000  -2.11227  -2.98721
