Generated by CHARMM-GUI FF-Converter
51184
    1GLY      N    1   6.687   4.656   3.775
    1GLY    HT1    2   6.770   4.716   3.783
    1GLY    HT2    3   6.618   4.698   3.705
    1GLY    HT3    4   6.717   4.563   3.736
    1GLY     CA    5   6.619   4.635   3.902
    1GLY    HA1    6   6.595   4.732   3.943
    1GLY    HA2    7   6.685   4.576   3.963
    1GLY      C    8   6.487   4.560   3.888
    1GLY      O    9   6.438   4.541   3.776
    2PRO      N   10   6.415   4.513   3.998
    2PRO     CD   11   6.479   4.504   4.116
    2PRO    HD1   12   6.480   4.604   4.164
    2PRO    HD2   13   6.582   4.462   4.109
    2PRO     CA   14   6.284   4.450   3.989
    2PRO     HA   15   6.288   4.373   3.914
    2PRO     CB   16   6.262   4.395   4.131
    2PRO    HB1   17   6.230   4.289   4.127
    2PRO    HB2   18   6.185   4.453   4.187
    2PRO     CG   19   6.394   4.411   4.198
    2PRO    HG1   20   6.384   4.444   4.304
    2PRO    HG2   21   6.442   4.310   4.199
    2PRO      C   22   6.173   4.548   3.951
    2PRO      O   23   6.189   4.669   3.968
    3GLY      N   24   6.068   4.498   3.891
    3GLY     HN   25   6.061   4.399   3.877
    3GLY     CA   26   5.953   4.578   3.855
    3GLY    HA1   27   5.883   4.515   3.803
    3GLY    HA2   28   5.986   4.661   3.795
    3GLY      C   29   5.880   4.635   3.976
    3GLY      O   30   5.904   4.593   4.089
    4ASP      N   31   5.798   4.742   3.943
    4ASP     HN   32   5.785   4.776   3.850
    4ASP     CA   33   5.710   4.794   4.048
    4ASP     HA   34   5.777   4.823   4.127
    4ASP     CB   35   5.633   4.916   3.997
    4ASP    HB1   36   5.554   4.948   4.068
    4ASP    HB2   37   5.584   4.891   3.901
    4ASP     CG   38   5.722   5.037   3.974
    4ASP    OD1   39   5.833   5.044   4.032
    4ASP    OD2   40   5.681   5.127   3.897
    4ASP      C   41   5.613   4.687   4.096
    4ASP      O   42   5.570   4.601   4.019
    5PRO      N   43   5.571   4.684   4.218
    5PRO     CD   44   5.614   4.773   4.310
    5PRO    HD1   45   5.578   4.876   4.284
    5PRO    HD2   46   5.725   4.771   4.320
    5PRO     CA   47   5.466   4.592   4.261
    5PRO     HA   48   5.502   4.491   4.247
    5PRO     CB   49   5.442   4.632   4.407
    5PRO    HB1   50   5.442   4.542   4.473
    5PRO    HB2   51   5.344   4.684   4.420
    5PRO     CG   52   5.552   4.727   4.439
    5PRO    HG1   53   5.518   4.812   4.502
    5PRO    HG2   54   5.630   4.672   4.498
    5PRO      C   55   5.337   4.607   4.179
    5PRO      O   56   5.313   4.713   4.121
    6GLY      N   57   5.268   4.498   4.179
    6GLY     HN   58   5.301   4.414   4.221
    6GLY     CA   59   5.139   4.501   4.112
    6GLY    HA1   60   5.097   4.402   4.117
    6GLY    HA2   61   5.153   4.535   4.010
    6GLY      C   62   5.039   4.593   4.179
    6GLY      O   63   5.061   4.639   4.292
    7SER      N   64   4.935   4.616   4.107
    7SER     HN   65   4.922   4.581   4.014
    7SER     CA   66   4.827   4.695   4.164
    7SER     HA   67   4.868   4.786   4.206
    7SER     CB   68   4.727   4.735   4.056
    7SER    HB1   69   4.643   4.796   4.097
    7SER    HB2   70   4.683   4.643   4.013
    7SER     OG   71   4.790   4.809   3.953
    7SER    HG1   72   4.792   4.900   3.987
    7SER      C   73   4.755   4.619   4.275
    7SER      O   74   4.763   4.497   4.282
    8ASP      N   75   4.691   4.703   4.343
    8ASP     HN   76   4.684   4.801   4.327
    8ASP     CA   77   4.603   4.641   4.442
    8ASP     HA   78   4.661   4.573   4.504
    8ASP     CB   79   4.541   4.747   4.532
    8ASP    HB1   80   4.464   4.703   4.599
    8ASP    HB2   81   4.491   4.825   4.470
    8ASP     CG   82   4.643   4.816   4.621
    8ASP    OD1   83   4.759   4.769   4.629
    8ASP    OD2   84   4.607   4.919   4.684
    8ASP      C   85   4.494   4.559   4.374
    8ASP      O   86   4.452   4.590   4.263
    9GLY      N   87   4.453   4.440   4.450
    9GLY     HN   88   4.491   4.419   4.540
    9GLY     CA   89   4.343   4.361   4.398
    9GLY    HA1   90   4.334   4.275   4.463
    9GLY    HA2   91   4.368   4.336   4.296
    9GLY      C   92   4.211   4.435   4.400
    9GLY      O   93   4.201   4.545   4.453
   10PRO      N   94   4.110   4.368   4.352
   10PRO     CD   95   4.114   4.241   4.298
   10PRO    HD1   96   4.147   4.167   4.375
   10PRO    HD2   97   4.183   4.238   4.211
   10PRO     CA   98   3.976   4.428   4.356
   10PRO     HA   99   3.981   4.530   4.320
   10PRO     CB  100   3.893   4.337   4.265
   10PRO    HB1  101   3.888   4.385   4.165
   10PRO    HB2  102   3.790   4.319   4.301
   10PRO     CG  103   3.974   4.212   4.254
   10PRO    HG1  104   3.931   4.136   4.324
   10PRO    HG2  105   3.969   4.167   4.152
   10PRO      C  106   3.918   4.432   4.498
   10PRO      O  107   3.962   4.357   4.585
   11GLY      N  108   3.827   4.515   4.522
   11GLY     HN  109   3.797   4.576   4.450
   11GLY     CA  110   3.761   4.521   4.651
   11GLY    HA1  111   3.696   4.607   4.649
   11GLY    HA2  112   3.836   4.527   4.729
   11GLY      C  113   3.674   4.400   4.679
   11GLY      O  114   3.650   4.318   4.590
   12ASP      N  115   3.628   4.371   4.795
   12ASP     HN  116   3.663   4.423   4.872
   12ASP     CA  117   3.535   4.267   4.837
   12ASP     HA  118   3.584   4.176   4.806
   12ASP     CB  119   3.518   4.268   4.989
   12ASP    HB1  120   3.438   4.200   5.023
   12ASP    HB2  121   3.492   4.372   5.018
   12ASP     CG  122   3.645   4.229   5.063
   12ASP    OD1  123   3.729   4.157   5.006
   12ASP    OD2  124   3.660   4.270   5.180
   12ASP      C  125   3.400   4.284   4.769
   12ASP      O  126   3.359   4.396   4.738
   13PRO      N  127   3.334   4.182   4.756
   13PRO     CD  128   3.378   4.053   4.762
   13PRO    HD1  129   3.391   4.023   4.869
   13PRO    HD2  130   3.474   4.038   4.706
   13PRO     CA  131   3.197   4.201   4.706
   13PRO     HA  132   3.200   4.257   4.613
   13PRO     CB  133   3.147   4.058   4.687
   13PRO    HB1  134   3.095   4.047   4.589
   13PRO    HB2  135   3.076   4.028   4.768
   13PRO     CG  136   3.269   3.973   4.697
   13PRO    HG1  137   3.249   3.879   4.752
   13PRO    HG2  138   3.302   3.944   4.595
   13PRO      C  139   3.109   4.277   4.805
   13PRO      O  140   3.135   4.276   4.926
   14GLY      N  141   3.007   4.344   4.764
   14GLY     HN  142   2.992   4.347   4.666
   14GLY     CA  143   2.907   4.411   4.846
   14GLY    HA1  144   2.837   4.460   4.779
   14GLY    HA2  145   2.958   4.479   4.912
   14GLY      C  146   2.827   4.315   4.932
   14GLY      O  147   2.824   4.195   4.906
   15SER      N  148   2.785   4.347   5.038
   15SER     HN  149   2.801   4.438   5.073
   15SER     CA  150   2.699   4.269   5.127
   15SER     HA  151   2.752   4.179   5.155
   15SER     CB  152   2.667   4.349   5.253
   15SER    HB1  153   2.606   4.290   5.325
   15SER    HB2  154   2.608   4.439   5.224
   15SER     OG  155   2.786   4.394   5.316
   15SER    HG1  156   2.803   4.332   5.389
   15SER      C  157   2.570   4.228   5.057
   15SER      O  158   2.522   4.297   4.967
   16ASP      N  159   2.512   4.104   5.069
   16ASP     HN  160   2.558   4.039   5.127
   16ASP     CA  161   2.390   4.051   5.009
   16ASP     HA  162   2.393   4.067   4.902
   16ASP     CB  163   2.375   3.903   5.041
   16ASP    HB1  164   2.281   3.865   4.994
   16ASP    HB2  165   2.367   3.884   5.150
   16ASP     CG  166   2.487   3.818   4.984
   16ASP    OD1  167   2.545   3.856   4.880
   16ASP    OD2  168   2.517   3.712   5.043
   16ASP      C  169   2.267   4.128   5.058
   16ASP    OT1  170   2.285   4.223   5.139
   16ASP    OT2  171   2.154   4.093   5.014
   17LIT    LIT  172   2.163   3.233   1.468
   18LIT    LIT  173   1.111   6.142   6.305
   19LIT    LIT  174   2.629   4.010   4.854
   20LIT    LIT  175   3.842   5.770   8.894
   21LIT    LIT  176   8.836   5.040   3.398
   22LIT    LIT  177   6.500   4.330   0.362
   23LIT    LIT  178   2.778   2.722   1.175
   24LIT    LIT  179   3.440   7.362   7.008
   25LIT    LIT  180   5.416   5.598   4.721
   26LIT    LIT  181   4.802   6.863   6.703
   27LIT    LIT  182   7.187   7.215   2.556
   28LIT    LIT  183   6.973   4.948   6.239
   29LIT    LIT  184   5.482   5.583   2.902
   30LIT    LIT  185   7.271   2.363   2.017
   31LIT    LIT  186   5.115   4.943   0.564
   32LIT    LIT  187   5.907   3.798   5.816
   33LIT    LIT  188   2.351   6.832   2.401
   34LIT    LIT  189   0.168   5.130   1.916
   35LIT    LIT  190   5.067   4.785   7.764
   36LIT    LIT  191   0.840   6.436   3.128
   37LIT    LIT  192   0.914   2.728   2.832
   38LIT    LIT  193   4.949   2.781   3.673
   39LIT    LIT  194   4.461   7.501   8.102
   40LIT    LIT  195   7.095   6.391   4.460
   41LIT    LIT  196   0.938   1.233   5.887
   42LIT    LIT  197   2.933   2.349   4.492
   43LIT    LIT  198   6.323   6.230   7.027
   44LIT    LIT  199   1.207   6.921   4.485
   45LIT    LIT  200   5.734   7.956   3.909
   46LIT    LIT  201   6.592   2.576   0.853
   47LIT    LIT  202   4.818   6.345   1.583
   48LIT    LIT  203   5.394   2.755   6.090
   49LIT    LIT  204   7.227   4.915   5.331
   50LIT    LIT  205   8.429   4.533   7.399
   51LIT    LIT  206   6.023   2.060   5.770
   52LIT    LIT  207   7.867   6.895   6.160
   53LIT    LIT  208   4.482   5.108   8.823
   54LIT    LIT  209   5.974   5.394   1.726
   55LIT    LIT  210   5.220   8.444   1.282
   56LIT    LIT  211   1.750   0.561   5.788
   57LIT    LIT  212   4.277   1.789   4.711
   58LIT    LIT  213   3.259   7.652   1.190
   59LIT    LIT  214   6.131   8.923   5.913
   60LIT    LIT  215   1.332   3.635   8.064
   61LIT    LIT  216   2.434   7.460   7.053
   62LIT    LIT  217   3.239   0.913   2.153
   63LIT    LIT  218   2.050   6.866   0.599
   64LIT    LIT  219   2.240   1.074   2.627
   65LIT    LIT  220   5.313   8.913   4.085
   66LIT    LIT  221   5.888   5.152   4.161
   67LIT    LIT  222   6.232   3.839   7.111
   68LIT    LIT  223   3.461   2.771   3.593
   69CLA    CLA  224   1.682   5.907   0.617
   70CLA    CLA  225   7.317   5.289   7.693
   71CLA    CLA  226   5.122   8.584   3.954
   72CLA    CLA  227   7.898   7.052   6.013
   73CLA    CLA  228   7.010   7.364   3.859
   74CLA    CLA  229   6.412   1.038   6.156
   75CLA    CLA  230   8.322   1.552   5.078
   76CLA    CLA  231   6.191   6.825   5.799
   77CLA    CLA  232   8.342   4.727   7.315
   78CLA    CLA  233   1.554   7.130   2.170
   79CLA    CLA  234   5.740   0.730   2.006
   80CLA    CLA  235   3.930   3.069   3.408
   81CLA    CLA  236   7.466   1.938   1.561
   82CLA    CLA  237   2.771   3.242   4.257
   83CLA    CLA  238   3.334   4.214   8.776
   84CLA    CLA  239   4.277   0.447   7.139
   85CLA    CLA  240   6.358   3.779   6.897
   86CLA    CLA  241   5.247   6.928   6.464
   87CLA    CLA  242   2.408   2.284   7.391
   88CLA    CLA  243   8.039   5.938   6.843
   89CLA    CLA  244   2.292   2.975   0.967
   90CLA    CLA  245   2.655   5.727   3.442
   91CLA    CLA  246   0.407   2.017   3.196
   92CLA    CLA  247   2.641   8.211   7.365
   93CLA    CLA  248   2.260   1.696   2.974
   94CLA    CLA  249   6.806   6.635   6.990
   95CLA    CLA  250   6.232   4.166   4.618
   96CLA    CLA  251   2.918   2.260   5.555
   97CLA    CLA  252   9.276   5.692   5.757
   98CLA    CLA  253   0.840   2.046   2.940
   99CLA    CLA  254   3.040  -0.074   6.080
  100CLA    CLA  255   2.480   2.163   3.851
  101CLA    CLA  256   8.971   5.100   3.641
  102CLA    CLA  257   4.449   6.464   2.362
  103CLA    CLA  258   2.811   5.716   1.810
  104CLA    CLA  259   1.317   3.859   5.119
  105CLA    CLA  260   5.962   9.069   5.950
  106CLA    CLA  261   3.545   6.815   5.503
  107CLA    CLA  262   5.462   1.870   5.800
  108CLA    CLA  263   3.379   1.658   1.893
  109CLA    CLA  264   1.791   4.304   2.317
  110CLA    CLA  265   5.349   6.138   5.282
  111CLA    CLA  266   3.670   3.397   2.969
  112CLA    CLA  267   6.317   2.693   1.012
  113CLA    CLA  268   3.269   4.674   6.047
  114CLA    CLA  269   4.722   4.670   8.321
  115CLA    CLA  270   7.176   3.693   4.093
  116CLA    CLA  271   3.690   6.796   0.335
  117TIP3   OH2  272   3.238   0.255   2.336
  117TIP3    H1  273   3.220   0.161   2.349
  117TIP3    H2  274   3.154   0.293   2.369
  118TIP3   OH2  275   2.923   0.609   2.429
  118TIP3    H1  276   2.919   0.642   2.338
  118TIP3    H2  277   2.977   0.676   2.475
  119TIP3   OH2  278   3.106   0.074   2.700
  119TIP3    H1  279   3.040   0.090   2.771
  119TIP3    H2  280   3.150   0.162   2.696
  120TIP3   OH2  281   2.984   0.344   2.423
  120TIP3    H1  282   2.891   0.319   2.406
  120TIP3    H2  283   2.973   0.441   2.431
  121TIP3   OH2  284   4.532   0.018   1.286
  121TIP3    H1  285   4.467  -0.023   1.345
  121TIP3    H2  286   4.537   0.108   1.321
  122TIP3   OH2  287   4.159   0.490   1.296
  122TIP3    H1  288   4.217   0.423   1.252
  122TIP3    H2  289   4.180   0.475   1.389
  123TIP3   OH2  290   3.715   0.070   1.953
  123TIP3    H1  291   3.704   0.160   1.916
  123TIP3    H2  292   3.640   0.064   2.014
  124TIP3   OH2  293   4.568   0.273   1.422
  124TIP3    H1  294   4.480   0.266   1.466
  124TIP3    H2  295   4.561   0.362   1.381
  125TIP3   OH2  296   4.314   0.329   1.145
  125TIP3    H1  297   4.322   0.250   1.087
  125TIP3    H2  298   4.335   0.398   1.080
  126TIP3   OH2  299   4.797   0.185   1.775
  126TIP3    H1  300   4.784   0.107   1.715
  126TIP3    H2  301   4.777   0.259   1.715
  127TIP3   OH2  302   4.675  -0.274   1.929
  127TIP3    H1  303   4.670  -0.187   1.973
  127TIP3    H2  304   4.592  -0.270   1.875
  128TIP3   OH2  305   4.330   0.267   1.546
  128TIP3    H1  306   4.314   0.347   1.599
  128TIP3    H2  307   4.315   0.195   1.610
  129TIP3   OH2  308   3.938   0.182   2.093
  129TIP3    H1  309   3.874   0.246   2.132
  129TIP3    H2  310   3.877   0.127   2.039
  130TIP3   OH2  311   3.734   0.353   2.179
  130TIP3    H1  312   3.696   0.358   2.089
  130TIP3    H2  313   3.654   0.335   2.234
  131TIP3   OH2  314   5.031   0.530   1.820
  131TIP3    H1  315   5.027   0.433   1.833
  131TIP3    H2  316   4.947   0.556   1.865
  132TIP3   OH2  317   4.149   0.310   1.962
  132TIP3    H1  318   4.140   0.405   1.983
  132TIP3    H2  319   4.068   0.275   2.005
  133TIP3   OH2  320   4.918  -0.369   2.089
  133TIP3    H1  321   4.853  -0.301   2.063
  133TIP3    H2  322   4.904  -0.433   2.017
  134TIP3   OH2  323   3.510   0.050   2.135
  134TIP3    H1  324   3.578   0.049   2.204
  134TIP3    H2  325   3.454  -0.023   2.161
  135TIP3   OH2  326   4.687  -0.540   2.012
  135TIP3    H1  327   4.672  -0.547   2.107
  135TIP3    H2  328   4.674  -0.444   1.998
  136TIP3   OH2  329   4.406  -0.342   2.249
  136TIP3    H1  330   4.377  -0.399   2.323
  136TIP3    H2  331   4.502  -0.331   2.270
  137TIP3   OH2  332   4.413  -0.331   1.822
  137TIP3    H1  333   4.471  -0.402   1.788
  137TIP3    H2  334   4.365  -0.379   1.892
  138TIP3   OH2  335   4.724   0.879   1.916
  138TIP3    H1  336   4.720   0.904   1.822
  138TIP3    H2  337   4.801   0.930   1.947
  139TIP3   OH2  338   3.687   0.001   2.341
  139TIP3    H1  339   3.761   0.031   2.397
  139TIP3    H2  340   3.613   0.003   2.401
  140TIP3   OH2  341   4.753  -0.027   1.610
  140TIP3    H1  342   4.797   0.009   1.530
  140TIP3    H2  343   4.668  -0.057   1.574
  141TIP3   OH2  344   4.268   0.054   1.972
  141TIP3    H1  345   4.262   0.022   2.062
  141TIP3    H2  346   4.223   0.141   1.976
  142TIP3   OH2  347   4.204  -0.152   2.213
  142TIP3    H1  348   4.172  -0.182   2.124
  142TIP3    H2  349   4.286  -0.204   2.221
  143TIP3   OH2  350   4.422   0.311   1.869
  143TIP3    H1  351   4.326   0.305   1.884
  143TIP3    H2  352   4.448   0.363   1.948
  144TIP3   OH2  353   5.045   0.244   1.864
  144TIP3    H1  354   4.948   0.236   1.852
  144TIP3    H2  355   5.075   0.213   1.775
  145TIP3   OH2  356   4.500  -0.174   1.527
  145TIP3    H1  357   4.463  -0.215   1.606
  145TIP3    H2  358   4.568  -0.237   1.498
  146TIP3   OH2  359   3.929   0.431   1.795
  146TIP3    H1  360   3.951   0.477   1.712
  146TIP3    H2  361   3.997   0.363   1.798
  147TIP3   OH2  362   4.323   0.037   1.704
  147TIP3    H1  363   4.295   0.037   1.798
  147TIP3    H2  364   4.404  -0.013   1.709
  148TIP3   OH2  365   4.558   0.568   1.755
  148TIP3    H1  366   4.479   0.512   1.749
  148TIP3    H2  367   4.542   0.633   1.683
  149TIP3   OH2  368   4.336  -0.496   2.028
  149TIP3    H1  369   4.342  -0.438   2.106
  149TIP3    H2  370   4.347  -0.584   2.065
  150TIP3   OH2  371   4.578   0.542   1.349
  150TIP3    H1  372   4.536   0.593   1.276
  150TIP3    H2  373   4.673   0.560   1.328
  151TIP3   OH2  374   3.348   0.564   2.330
  151TIP3    H1  375   3.432   0.560   2.380
  151TIP3    H2  376   3.327   0.470   2.321
  152TIP3   OH2  377   3.830   0.536   2.373
  152TIP3    H1  378   3.925   0.519   2.377
  152TIP3    H2  379   3.804   0.478   2.299
  153TIP3   OH2  380   4.473   0.444   2.105
  153TIP3    H1  381   4.461   0.377   2.175
  153TIP3    H2  382   4.548   0.496   2.139
  154TIP3   OH2  383   3.467  -0.020   2.507
  154TIP3    H1  384   3.471  -0.112   2.516
  154TIP3    H2  385   3.364  -0.012   2.486
  155TIP3   OH2  386   4.082   0.084   2.306
  155TIP3    H1  387   4.035   0.108   2.223
  155TIP3    H2  388   4.130   0.003   2.279
  156TIP3   OH2  389   4.580   0.066   1.907
  156TIP3    H1  390   4.650   0.118   1.863
  156TIP3    H2  391   4.504   0.126   1.898
  157TIP3   OH2  392   3.585  -0.344   2.476
  157TIP3    H1  393   3.681  -0.360   2.465
  157TIP3    H2  394   3.573  -0.320   2.567
  158TIP3   OH2  395   3.981  -0.372   2.263
  158TIP3    H1  396   3.960  -0.293   2.313
  158TIP3    H2  397   4.039  -0.336   2.193
  159TIP3   OH2  398   4.470   0.009   2.313
  159TIP3    H1  399   4.541  -0.021   2.256
  159TIP3    H2  400   4.453  -0.066   2.371
  160TIP3   OH2  401   4.093  -0.636   2.310
  160TIP3    H1  402   4.087  -0.699   2.237
  160TIP3    H2  403   4.036  -0.562   2.283
  161TIP3   OH2  404   4.093  -0.261   1.995
  161TIP3    H1  405   4.140  -0.298   1.919
  161TIP3    H2  406   4.021  -0.214   1.948
  162TIP3   OH2  407   4.666  -0.318   2.334
  162TIP3    H1  408   4.705  -0.377   2.403
  162TIP3    H2  409   4.737  -0.254   2.318
  163TIP3   OH2  410   4.712  -0.054   2.106
  163TIP3    H1  411   4.652  -0.004   2.046
  163TIP3    H2  412   4.798  -0.034   2.063
  164TIP3   OH2  413   3.846  -0.449   2.599
  164TIP3    H1  414   3.875  -0.518   2.662
  164TIP3    H2  415   3.879  -0.488   2.514
  165TIP3   OH2  416   4.299  -0.509   2.438
  165TIP3    H1  417   4.279  -0.553   2.521
  165TIP3    H2  418   4.234  -0.556   2.380
  166TIP3   OH2  419   4.832   0.632   1.309
  166TIP3    H1  420   4.858   0.672   1.394
  166TIP3    H2  421   4.887   0.680   1.245
  167TIP3   OH2  422   4.858   0.656   1.590
  167TIP3    H1  423   4.816   0.568   1.583
  167TIP3    H2  424   4.936   0.633   1.644
  168TIP3   OH2  425   4.910   0.328   2.166
  168TIP3    H1  426   4.833   0.340   2.226
  168TIP3    H2  427   4.949   0.418   2.165
  169TIP3   OH2  428   4.912   0.111   1.422
  169TIP3    H1  429   4.913   0.063   1.336
  169TIP3    H2  430   4.901   0.202   1.387
  170TIP3   OH2  431   4.734   0.402   1.614
  170TIP3    H1  432   4.664   0.448   1.663
  170TIP3    H2  433   4.683   0.358   1.542
  171TIP3   OH2  434   4.954  -0.007   1.989
  171TIP3    H1  435   5.027  -0.072   1.975
  171TIP3    H2  436   4.972   0.059   1.920
  172TIP3   OH2  437   5.131  -0.210   2.023
  172TIP3    H1  438   5.067  -0.278   2.052
  172TIP3    H2  439   5.216  -0.254   2.028
  173TIP3   OH2  440   1.457   6.460   8.643
  173TIP3    H1  441   1.382   6.516   8.667
  173TIP3    H2  442   1.460   6.468   8.546
  174TIP3   OH2  443   4.431   0.514   0.964
  174TIP3    H1  444   4.505   0.463   0.929
  174TIP3    H2  445   4.475   0.581   1.020
  175TIP3   OH2  446   3.513   0.310   2.352
  175TIP3    H1  447   3.424   0.277   2.333
  175TIP3    H2  448   3.524   0.284   2.445
  176TIP3   OH2  449   3.689   0.338   1.889
  176TIP3    H1  450   3.648   0.420   1.853
  176TIP3    H2  451   3.780   0.355   1.855
  177TIP3   OH2  452   4.140   0.582   2.037
  177TIP3    H1  453   4.183   0.586   2.124
  177TIP3    H2  454   4.204   0.633   1.982
  178TIP3   OH2  455   4.318   0.733   1.893
  178TIP3    H1  456   4.390   0.683   1.852
  178TIP3    H2  457   4.369   0.791   1.954
  179TIP3   OH2  458   3.374   0.612   1.912
  179TIP3    H1  459   3.285   0.647   1.892
  179TIP3    H2  460   3.366   0.590   2.005
  180TIP3   OH2  461   3.610   0.578   1.778
  180TIP3    H1  462   3.524   0.593   1.823
  180TIP3    H2  463   3.589   0.608   1.687
  181TIP3   OH2  464   4.040   0.607   1.571
  181TIP3    H1  465   3.966   0.626   1.511
  181TIP3    H2  466   4.048   0.692   1.619
  182TIP3   OH2  467   4.303   0.540   1.622
  182TIP3    H1  468   4.207   0.560   1.610
  182TIP3    H2  469   4.344   0.620   1.586
  183TIP3   OH2  470   4.510   0.734   1.542
  183TIP3    H1  471   4.494   0.819   1.496
  183TIP3    H2  472   4.535   0.675   1.468
  184TIP3   OH2  473   4.785   0.611   1.920
  184TIP3    H1  474   4.707   0.580   1.869
  184TIP3    H2  475   4.767   0.707   1.922
  185TIP3   OH2  476   5.546   0.372   1.454
  185TIP3    H1  477   5.533   0.466   1.427
  185TIP3    H2  478   5.471   0.365   1.516
  186TIP3   OH2  479   5.760   0.448   1.609
  186TIP3    H1  480   5.696   0.511   1.648
  186TIP3    H2  481   5.700   0.403   1.546
  187TIP3   OH2  482   5.485   0.016   1.745
  187TIP3    H1  483   5.472   0.111   1.766
  187TIP3    H2  484   5.408  -0.002   1.688
  188TIP3   OH2  485   5.527   0.588   1.652
  188TIP3    H1  486   5.483   0.626   1.575
  188TIP3    H2  487   5.458   0.590   1.720
  189TIP3   OH2  488   5.108   0.162   1.614
  189TIP3    H1  489   5.041   0.142   1.546
  189TIP3    H2  490   5.136   0.073   1.646
  190TIP3   OH2  491   4.948   0.342   1.260
  190TIP3    H1  492   5.038   0.333   1.226
  190TIP3    H2  493   4.950   0.430   1.300
  191TIP3   OH2  494   5.918   0.583   1.424
  191TIP3    H1  495   5.925   0.671   1.466
  191TIP3    H2  496   5.872   0.532   1.494
  192TIP3   OH2  497   5.328   0.320   1.600
  192TIP3    H1  498   5.364   0.322   1.690
  192TIP3    H2  499   5.247   0.266   1.611
  193TIP3   OH2  500   6.512   1.148   1.426
  193TIP3    H1  501   6.519   1.176   1.333
  193TIP3    H2  502   6.593   1.189   1.464
  194TIP3   OH2  503   5.467   0.274   1.839
  194TIP3    H1  504   5.551   0.299   1.885
  194TIP3    H2  505   5.404   0.279   1.913
  195TIP3   OH2  506   5.198  -0.038   1.780
  195TIP3    H1  507   5.249  -0.062   1.859
  195TIP3    H2  508   5.186  -0.125   1.737
  196TIP3   OH2  509   5.718   0.663   1.251
  196TIP3    H1  510   5.759   0.722   1.187
  196TIP3    H2  511   5.796   0.632   1.302
  197TIP3   OH2  512   5.153   0.521   1.395
  197TIP3    H1  513   5.201   0.448   1.437
  197TIP3    H2  514   5.187   0.597   1.443
  198TIP3   OH2  515   5.148   0.830   1.820
  198TIP3    H1  516   5.236   0.825   1.861
  198TIP3    H2  517   5.125   0.735   1.814
  199TIP3   OH2  518   6.275   0.713   1.592
  199TIP3    H1  519   6.262   0.639   1.655
  199TIP3    H2  520   6.347   0.764   1.635
  200TIP3   OH2  521   5.268   0.234   2.023
  200TIP3    H1  522   5.280   0.138   2.018
  200TIP3    H2  523   5.182   0.243   1.977
  201TIP3   OH2  524   5.886   0.322   1.815
  201TIP3    H1  525   5.849   0.377   1.742
  201TIP3    H2  526   5.874   0.233   1.779
  202TIP3   OH2  527   5.391  -0.062   2.012
  202TIP3    H1  528   5.476  -0.074   1.967
  202TIP3    H2  529   5.414   0.002   2.082
  203TIP3   OH2  530   4.743   0.628   0.795
  203TIP3    H1  531   4.680   0.560   0.767
  203TIP3    H2  532   4.784   0.589   0.876
  204TIP3   OH2  533   4.875   0.515   0.999
  204TIP3    H1  534   4.875   0.426   1.038
  204TIP3    H2  535   4.943   0.559   1.054
  205TIP3   OH2  536   5.306   0.562   1.831
  205TIP3    H1  537   5.212   0.536   1.825
  205TIP3    H2  538   5.325   0.553   1.924
  206TIP3   OH2  539   5.478   0.614   1.359
  206TIP3    H1  540   5.436   0.696   1.325
  206TIP3    H2  541   5.568   0.630   1.323
  207TIP3   OH2  542   5.932   0.840   1.525
  207TIP3    H1  543   5.971   0.842   1.615
  207TIP3    H2  544   5.996   0.896   1.476
  208TIP3   OH2  545   6.101   0.997   1.382
  208TIP3    H1  546   6.168   0.949   1.332
  208TIP3    H2  547   6.156   1.051   1.444
  209TIP3   OH2  548   5.162   0.848   1.408
  209TIP3    H1  549   5.072   0.883   1.386
  209TIP3    H2  550   5.176   0.891   1.493
  210TIP3   OH2  551   5.397   0.851   1.262
  210TIP3    H1  552   5.309   0.859   1.304
  210TIP3    H2  553   5.378   0.880   1.170
  211TIP3   OH2  554   5.861   0.859   1.051
  211TIP3    H1  555   5.769   0.875   1.018
  211TIP3    H2  556   5.870   0.937   1.110
  212TIP3   OH2  557   5.079   0.644   1.151
  212TIP3    H1  558   5.106   0.620   1.242
  212TIP3    H2  559   5.153   0.602   1.101
  213TIP3   OH2  560   6.590   0.884   1.436
  213TIP3    H1  561   6.522   0.833   1.390
  213TIP3    H2  562   6.561   0.976   1.423
  214TIP3   OH2  563   2.983   1.027   1.971
  214TIP3    H1  564   2.911   1.071   1.923
  214TIP3    H2  565   3.011   1.094   2.035
  215TIP3   OH2  566   2.420   1.826   1.602
  215TIP3    H1  567   2.327   1.822   1.634
  215TIP3    H2  568   2.409   1.861   1.512
  216TIP3   OH2  569   2.638   1.752   1.923
  216TIP3    H1  570   2.629   1.671   1.868
  216TIP3    H2  571   2.624   1.823   1.857
  217TIP3   OH2  572   2.826   1.359   1.759
  217TIP3    H1  573   2.749   1.418   1.775
  217TIP3    H2  574   2.862   1.401   1.678
  218TIP3   OH2  575   2.499   1.263   2.059
  218TIP3    H1  576   2.503   1.341   2.118
  218TIP3    H2  577   2.421   1.284   2.005
  219TIP3   OH2  578   2.165   1.830   1.712
  219TIP3    H1  579   2.169   1.917   1.758
  219TIP3    H2  580   2.193   1.769   1.784
  220TIP3   OH2  581   1.743   1.704   2.306
  220TIP3    H1  582   1.718   1.792   2.337
  220TIP3    H2  583   1.748   1.719   2.209
  221TIP3   OH2  584   1.568   1.931   2.333
  221TIP3    H1  585   1.521   1.918   2.249
  221TIP3    H2  586   1.496   1.922   2.398
  222TIP3   OH2  587   2.869   2.086   1.960
  222TIP3    H1  588   2.874   1.991   1.980
  222TIP3    H2  589   2.789   2.110   2.012
  223TIP3   OH2  590   2.014   1.876   2.119
  223TIP3    H1  591   2.003   1.967   2.153
  223TIP3    H2  592   1.922   1.844   2.113
  224TIP3   OH2  593   2.766   1.218   2.262
  224TIP3    H1  594   2.689   1.238   2.206
  224TIP3    H2  595   2.776   1.121   2.249
  225TIP3   OH2  596   2.549   1.014   2.173
  225TIP3    H1  597   2.489   0.993   2.248
  225TIP3    H2  598   2.527   1.108   2.155
  226TIP3   OH2  599   2.563   2.441   2.068
  226TIP3    H1  600   2.566   2.461   1.973
  226TIP3    H2  601   2.645   2.484   2.100
  227TIP3   OH2  602   2.614   1.529   1.766
  227TIP3    H1  603   2.651   1.577   1.688
  227TIP3    H2  604   2.525   1.511   1.732
  228TIP3   OH2  605   2.148   1.636   2.138
  228TIP3    H1  606   2.126   1.590   2.219
  228TIP3    H2  607   2.095   1.717   2.145
  229TIP3   OH2  608   2.080   1.313   2.485
  229TIP3    H1  609   1.991   1.304   2.448
  229TIP3    H2  610   2.127   1.371   2.423
  230TIP3   OH2  611   2.265   1.920   2.005
  230TIP3    H1  612   2.178   1.883   2.031
  230TIP3    H2  613   2.298   1.944   2.094
  231TIP3   OH2  614   2.890   1.799   2.009
  231TIP3    H1  615   2.792   1.793   2.001
  231TIP3    H2  616   2.916   1.768   1.919
  232TIP3   OH2  617   1.796   1.965   1.873
  232TIP3    H1  618   1.820   2.029   1.802
  232TIP3    H2  619   1.876   1.966   1.926
  233TIP3   OH2  620   2.233   1.629   1.883
  233TIP3    H1  621   2.198   1.619   1.975
  233TIP3    H2  622   2.227   1.539   1.850
  234TIP3   OH2  623   2.402   2.135   1.913
  234TIP3    H1  624   2.334   2.064   1.922
  234TIP3    H2  625   2.371   2.186   1.835
  235TIP3   OH2  626   2.815   0.954   2.196
  235TIP3    H1  627   2.718   0.942   2.189
  235TIP3    H2  628   2.844   0.951   2.104
  236TIP3   OH2  629   2.413   2.118   1.498
  236TIP3    H1  630   2.393   2.182   1.426
  236TIP3    H2  631   2.510   2.113   1.488
  237TIP3   OH2  632   1.190   2.132   2.481
  237TIP3    H1  633   1.275   2.147   2.528
  237TIP3    H2  634   1.182   2.036   2.490
  238TIP3   OH2  635   1.674   2.101   2.524
  238TIP3    H1  636   1.767   2.078   2.539
  238TIP3    H2  637   1.654   2.046   2.446
  239TIP3   OH2  638   2.312   2.004   2.264
  239TIP3    H1  639   2.303   1.930   2.329
  239TIP3    H2  640   2.392   2.051   2.296
  240TIP3   OH2  641   1.944   1.626   2.466
  240TIP3    H1  642   1.874   1.637   2.397
  240TIP3    H2  643   1.974   1.535   2.451
  241TIP3   OH2  644   2.444   1.631   2.078
  241TIP3    H1  645   2.510   1.684   2.030
  241TIP3    H2  646   2.361   1.665   2.041
  242TIP3   OH2  647   2.286   1.531   2.446
  242TIP3    H1  648   2.364   1.548   2.392
  242TIP3    H2  649   2.326   1.512   2.532
  243TIP3   OH2  650   2.505   1.225   2.539
  243TIP3    H1  651   2.550   1.149   2.502
  243TIP3    H2  652   2.556   1.299   2.503
  244TIP3   OH2  653   2.563   1.467   2.246
  244TIP3    H1  654   2.505   1.529   2.195
  244TIP3    H2  655   2.649   1.496   2.209
  245TIP3   OH2  656   2.398   0.968   2.419
  245TIP3    H1  657   2.339   0.892   2.410
  245TIP3    H2  658   2.481   0.928   2.453
  246TIP3   OH2  659   2.633   0.895   2.544
  246TIP3    H1  660   2.649   0.799   2.560
  246TIP3    H2  661   2.631   0.930   2.635
  247TIP3   OH2  662   2.675   2.192   1.460
  247TIP3    H1  663   2.702   2.222   1.549
  247TIP3    H2  664   2.740   2.236   1.403
  248TIP3   OH2  665   2.706   2.217   1.739
  248TIP3    H1  666   2.660   2.130   1.738
  248TIP3    H2  667   2.779   2.194   1.799
  249TIP3   OH2  668   2.746   1.889   2.312
  249TIP3    H1  669   2.673   1.898   2.377
  249TIP3    H2  670   2.788   1.977   2.316
  250TIP3   OH2  671   2.735   1.659   1.562
  250TIP3    H1  672   2.784   1.596   1.507
  250TIP3    H2  673   2.733   1.738   1.505
  251TIP3   OH2  674   2.581   1.974   1.766
  251TIP3    H1  675   2.514   2.010   1.826
  251TIP3    H2  676   2.526   1.923   1.702
  252TIP3   OH2  677   2.795   1.556   2.136
  252TIP3    H1  678   2.866   1.489   2.127
  252TIP3    H2  679   2.827   1.627   2.078
  253TIP3   OH2  680   2.970   1.356   2.154
  253TIP3    H1  681   2.906   1.301   2.203
  253TIP3    H2  682   3.053   1.309   2.167
  254TIP3   OH2  683   2.730   1.162   1.920
  254TIP3    H1  684   2.653   1.206   1.962
  254TIP3    H2  685   2.768   1.235   1.867
  255TIP3   OH2  686   3.197   0.753   2.473
  255TIP3    H1  687   3.247   0.682   2.429
  255TIP3    H2  688   3.147   0.790   2.398
  256TIP3   OH2  689   3.071   0.873   2.266
  256TIP3    H1  690   3.001   0.927   2.310
  256TIP3    H2  691   3.009   0.812   2.218
  257TIP3   OH2  692   1.359   1.865   2.505
  257TIP3    H1  693   1.286   1.802   2.498
  257TIP3    H2  694   1.383   1.855   2.599
  258TIP3   OH2  695   1.978   2.147   2.184
  258TIP3    H1  696   2.019   2.145   2.273
  258TIP3    H2  697   2.047   2.195   2.133
  259TIP3   OH2  698   2.161   2.292   2.040
  259TIP3    H1  699   2.233   2.236   2.006
  259TIP3    H2  700   2.211   2.349   2.103
  260TIP3   OH2  701   2.937   0.666   2.146
  260TIP3    H1  702   2.842   0.681   2.126
  260TIP3    H2  703   2.952   0.583   2.098
  261TIP3   OH2  704   1.877   2.173   1.711
  261TIP3    H1  705   1.791   2.172   1.666
  261TIP3    H2  706   1.880   2.261   1.753
  262TIP3   OH2  707   2.141   2.100   1.762
  262TIP3    H1  708   2.047   2.123   1.742
  262TIP3    H2  709   2.187   2.182   1.739
  263TIP3   OH2  710   2.346   2.298   1.694
  263TIP3    H1  711   2.336   2.381   1.643
  263TIP3    H2  712   2.374   2.235   1.624
  264TIP3   OH2  713   2.690   0.634   2.594
  264TIP3    H1  714   2.708   0.591   2.680
  264TIP3    H2  715   2.759   0.596   2.537
  265TIP3   OH2  716   2.628   2.172   2.071
  265TIP3    H1  717   2.549   2.141   2.023
  265TIP3    H2  718   2.608   2.267   2.076
  266TIP3   OH2  719   3.894   1.547   0.840
  266TIP3    H1  720   3.859   1.635   0.813
  266TIP3    H2  721   3.821   1.490   0.809
  267TIP3   OH2  722   3.893   1.544   1.216
  267TIP3    H1  723   3.923   1.512   1.303
  267TIP3    H2  724   3.856   1.463   1.177
  268TIP3   OH2  725   3.210   1.445   1.586
  268TIP3    H1  726   3.234   1.370   1.644
  268TIP3    H2  727   3.285   1.505   1.601
  269TIP3   OH2  728   4.139   1.843   0.897
  269TIP3    H1  729   4.119   1.773   0.961
  269TIP3    H2  730   4.165   1.917   0.954
  270TIP3   OH2  731   3.159   1.840   1.303
  270TIP3    H1  732   3.154   1.742   1.312
  270TIP3    H2  733   3.256   1.853   1.303
  271TIP3   OH2  734   3.786   2.308   0.916
  271TIP3    H1  735   3.830   2.237   0.864
  271TIP3    H2  736   3.779   2.266   1.003
  272TIP3   OH2  737   3.692   1.769   1.265
  272TIP3    H1  738   3.729   1.692   1.218
  272TIP3    H2  739   3.776   1.813   1.289
  273TIP3   OH2  740   4.706   1.087   1.263
  273TIP3    H1  741   4.734   1.171   1.305
  273TIP3    H2  742   4.719   1.108   1.169
  274TIP3   OH2  743   4.105   1.269   1.298
  274TIP3    H1  744   4.145   1.182   1.315
  274TIP3    H2  745   4.069   1.256   1.208
  275TIP3   OH2  746   4.134   1.021   0.911
  275TIP3    H1  747   4.221   1.006   0.953
  275TIP3    H2  748   4.157   1.029   0.818
  276TIP3   OH2  749   3.520   1.324   1.155
  276TIP3    H1  750   3.616   1.315   1.175
  276TIP3    H2  751   3.500   1.234   1.128
  277TIP3   OH2  752   4.778   1.295   1.433
  277TIP3    H1  753   4.695   1.342   1.411
  277TIP3    H2  754   4.791   1.323   1.525
  278TIP3   OH2  755   3.433   0.908   1.695
  278TIP3    H1  756   3.378   0.946   1.623
  278TIP3    H2  757   3.390   0.946   1.773
  279TIP3   OH2  758   3.780   1.760   0.707
  279TIP3    H1  759   3.749   1.747   0.616
  279TIP3    H2  760   3.736   1.844   0.731
  280TIP3   OH2  761   3.545   1.685   1.493
  280TIP3    H1  762   3.482   1.748   1.535
  280TIP3    H2  763   3.585   1.741   1.423
  281TIP3   OH2  764   4.364   1.015   1.058
  281TIP3    H1  765   4.331   0.979   1.141
  281TIP3    H2  766   4.406   1.098   1.086
  282TIP3   OH2  767   3.320   1.024   1.478
  282TIP3    H1  768   3.375   1.103   1.499
  282TIP3    H2  769   3.350   1.003   1.389
  283TIP3   OH2  770   3.367   1.877   1.583
  283TIP3    H1  771   3.339   1.967   1.557
  283TIP3    H2  772   3.299   1.856   1.651
  284TIP3   OH2  773   4.208   2.087   1.067
  284TIP3    H1  774   4.118   2.077   1.107
  284TIP3    H2  775   4.198   2.172   1.020
  285TIP3   OH2  776   4.497   0.987   1.429
  285TIP3    H1  777   4.409   1.014   1.398
  285TIP3    H2  778   4.555   1.019   1.357
  286TIP3   OH2  779   3.801   0.623   1.416
  286TIP3    H1  780   3.770   0.541   1.455
  286TIP3    H2  781   3.727   0.681   1.443
  287TIP3   OH2  782   3.907   2.135   0.740
  287TIP3    H1  783   3.955   2.051   0.721
  287TIP3    H2  784   3.971   2.198   0.699
  288TIP3   OH2  785   4.047   1.919   0.647
  288TIP3    H1  786   4.023   1.840   0.597
  288TIP3    H2  787   4.084   1.880   0.730
  289TIP3   OH2  788   4.434   2.000   1.409
  289TIP3    H1  789   4.421   1.922   1.350
  289TIP3    H2  790   4.415   2.074   1.347
  290TIP3   OH2  791   3.729   1.397   0.664
  290TIP3    H1  792   3.650   1.454   0.658
  290TIP3    H2  793   3.771   1.408   0.577
  291TIP3   OH2  794   4.628   1.637   1.254
  291TIP3    H1  795   4.544   1.688   1.259
  291TIP3    H2  796   4.658   1.661   1.163
  292TIP3   OH2  797   4.082   1.491   0.650
  292TIP3    H1  798   4.024   1.510   0.728
  292TIP3    H2  799   4.163   1.459   0.694
  293TIP3   OH2  800   4.307   1.516   1.549
  293TIP3    H1  801   4.302   1.600   1.598
  293TIP3    H2  802   4.220   1.518   1.504
  294TIP3   OH2  803   3.303   1.466   1.053
  294TIP3    H1  804   3.270   1.393   0.999
  294TIP3    H2  805   3.386   1.426   1.089
  295TIP3   OH2  806   3.434   1.884   1.201
  295TIP3    H1  807   3.420   1.842   1.115
  295TIP3    H2  808   3.524   1.851   1.224
  296TIP3   OH2  809   3.442   1.449   1.400
  296TIP3    H1  810   3.482   1.428   1.313
  296TIP3    H2  811   3.485   1.533   1.425
  297TIP3   OH2  812   3.966   2.082   1.186
  297TIP3    H1  813   3.953   2.162   1.241
  297TIP3    H2  814   3.950   2.009   1.249
  298TIP3   OH2  815   3.575   2.006   1.727
  298TIP3    H1  816   3.516   2.065   1.778
  298TIP3    H2  817   3.511   1.943   1.690
  299TIP3   OH2  818   3.948   1.341   0.470
  299TIP3    H1  819   3.997   1.400   0.532
  299TIP3    H2  820   3.947   1.396   0.388
  300TIP3   OH2  821   3.653   2.016   0.747
  300TIP3    H1  822   3.734   2.069   0.757
  300TIP3    H2  823   3.595   2.074   0.696
  301TIP3   OH2  824   3.371   2.174   1.821
  301TIP3    H1  825   3.335   2.167   1.730
  301TIP3    H2  826   3.292   2.152   1.875
  302TIP3   OH2  827   4.223   1.950   0.060
  302TIP3    H1  828   4.239   2.044   0.041
  302TIP3    H2  829   4.312   1.911   0.049
  303TIP3   OH2  830   2.954   1.703   1.763
  303TIP3    H1  831   2.895   1.666   1.696
  303TIP3    H2  832   2.995   1.622   1.802
  304TIP3   OH2  833   2.809   1.893   1.399
  304TIP3    H1  834   2.905   1.886   1.397
  304TIP3    H2  835   2.797   1.967   1.461
  305TIP3   OH2  836   4.670   2.344   1.454
  305TIP3    H1  837   4.668   2.248   1.467
  305TIP3    H2  838   4.587   2.370   1.500
  306TIP3   OH2  839   3.775   2.131   1.587
  306TIP3    H1  840   3.774   2.222   1.622
  306TIP3    H2  841   3.703   2.090   1.641
  307TIP3   OH2  842   3.536   2.258   0.542
  307TIP3    H1  843   3.491   2.236   0.458
  307TIP3    H2  844   3.504   2.347   0.562
  308TIP3   OH2  845   2.984   2.121   0.919
  308TIP3    H1  846   3.013   2.093   1.008
  308TIP3    H2  847   2.915   2.054   0.898
  309TIP3   OH2  848   3.731   2.160   0.193
  309TIP3    H1  849   3.787   2.100   0.139
  309TIP3    H2  850   3.778   2.160   0.278
  310TIP3   OH2  851   3.792   2.212   0.461
  310TIP3    H1  852   3.702   2.220   0.498
  310TIP3    H2  853   3.837   2.162   0.531
  311TIP3   OH2  854   4.560   1.475   1.729
  311TIP3    H1  855   4.478   1.489   1.679
  311TIP3    H2  856   4.574   1.379   1.718
  312TIP3   OH2  857   3.166   1.879   1.772
  312TIP3    H1  858   3.227   1.828   1.830
  312TIP3    H2  859   3.089   1.818   1.770
  313TIP3   OH2  860   3.559   0.710   1.535
  313TIP3    H1  861   3.478   0.672   1.495
  313TIP3    H2  862   3.521   0.782   1.589
  314TIP3   OH2  863   4.090   0.822   1.734
  314TIP3    H1  864   4.156   0.792   1.800
  314TIP3    H2  865   4.005   0.802   1.779
  315TIP3   OH2  866   4.331   1.252   1.654
  315TIP3    H1  867   4.278   1.248   1.736
  315TIP3    H2  868   4.304   1.338   1.616
  316TIP3   OH2  869   3.489   1.231   1.556
  316TIP3    H1  870   3.439   1.252   1.638
  316TIP3    H2  871   3.471   1.311   1.503
  317TIP3   OH2  872   3.877   1.214   0.807
  317TIP3    H1  873   3.824   1.277   0.754
  317TIP3    H2  874   3.920   1.160   0.737
  318TIP3   OH2  875   4.038   1.471   1.883
  318TIP3    H1  876   4.015   1.400   1.946
  318TIP3    H2  877   4.132   1.486   1.907
  319TIP3   OH2  878   4.019   1.229   1.042
  319TIP3    H1  879   3.960   1.251   0.965
  319TIP3    H2  880   4.054   1.144   1.006
  320TIP3   OH2  881   3.316   1.260   1.767
  320TIP3    H1  882   3.336   1.323   1.838
  320TIP3    H2  883   3.280   1.183   1.814
  321TIP3   OH2  884   4.032   1.468   1.463
  321TIP3    H1  885   4.063   1.396   1.403
  321TIP3    H2  886   4.000   1.415   1.538
  322TIP3   OH2  887   3.685   0.971   1.154
  322TIP3    H1  888   3.614   0.912   1.179
  322TIP3    H2  889   3.765   0.928   1.188
  323TIP3   OH2  890   4.192   1.005   1.335
  323TIP3    H1  891   4.158   1.019   1.426
  323TIP3    H2  892   4.123   0.947   1.299
  324TIP3   OH2  893   4.360   2.695   1.554
  324TIP3    H1  894   4.358   2.718   1.459
  324TIP3    H2  895   4.438   2.744   1.585
  325TIP3   OH2  896   3.783   1.268   1.231
  325TIP3    H1  897   3.840   1.218   1.171
  325TIP3    H2  898   3.790   1.215   1.312
  326TIP3   OH2  899   3.757   1.152   1.529
  326TIP3    H1  900   3.670   1.195   1.535
  326TIP3    H2  901   3.817   1.216   1.571
  327TIP3   OH2  902   3.496   1.559   0.660
  327TIP3    H1  903   3.399   1.548   0.674
  327TIP3    H2  904   3.517   1.608   0.742
  328TIP3   OH2  905   4.396   1.782   1.245
  328TIP3    H1  906   4.418   1.832   1.164
  328TIP3    H2  907   4.311   1.739   1.221
  329TIP3   OH2  908   3.899   1.868   1.614
  329TIP3    H1  909   3.908   1.842   1.706
  329TIP3    H2  910   3.852   1.953   1.620
  330TIP3   OH2  911   4.021   1.101   0.588
  330TIP3    H1  912   4.117   1.103   0.605
  330TIP3    H2  913   4.005   1.183   0.536
  331TIP3   OH2  914   3.165   1.550   1.295
  331TIP3    H1  915   3.211   1.524   1.212
  331TIP3    H2  916   3.221   1.507   1.362
  332TIP3   OH2  917   3.671   1.709   0.459
  332TIP3    H1  918   3.619   1.790   0.443
  332TIP3    H2  919   3.600   1.650   0.487
  333TIP3   OH2  920   3.042   1.497   1.912
  333TIP3    H1  921   3.100   1.486   1.990
  333TIP3    H2  922   2.996   1.412   1.909
  334TIP3   OH2  923   3.797   1.602   1.929
  334TIP3    H1  924   3.731   1.551   1.878
  334TIP3    H2  925   3.881   1.565   1.895
  335TIP3   OH2  926   4.055   2.128   1.505
  335TIP3    H1  927   3.959   2.121   1.520
  335TIP3    H2  928   4.082   2.177   1.586
  336TIP3   OH2  929   4.442   1.185   0.421
  336TIP3    H1  930   4.421   1.131   0.343
  336TIP3    H2  931   4.430   1.276   0.384
  337TIP3   OH2  932   4.684   2.054   1.497
  337TIP3    H1  933   4.586   2.049   1.489
  337TIP3    H2  934   4.709   2.023   1.407
  338TIP3   OH2  935   4.172   2.013   0.327
  338TIP3    H1  936   4.135   1.942   0.381
  338TIP3    H2  937   4.174   1.973   0.238
  339TIP3   OH2  938   4.162   1.643   1.166
  339TIP3    H1  939   4.068   1.620   1.178
  339TIP3    H2  940   4.194   1.564   1.119
  340TIP3   OH2  941   3.277   1.871   0.914
  340TIP3    H1  942   3.300   1.948   0.860
  340TIP3    H2  943   3.181   1.872   0.906
  341TIP3   OH2  944   3.452   1.661   0.914
  341TIP3    H1  945   3.395   1.740   0.909
  341TIP3    H2  946   3.398   1.599   0.965
  342TIP3   OH2  947   3.556   2.216   1.385
  342TIP3    H1  948   3.601   2.287   1.335
  342TIP3    H2  949   3.630   2.179   1.435
  343TIP3   OH2  950   3.212   2.111   0.764
  343TIP3    H1  951   3.127   2.119   0.812
  343TIP3    H2  952   3.242   2.204   0.766
  344TIP3   OH2  953   3.946   1.850   1.345
  344TIP3    H1  954   3.937   1.848   1.443
  344TIP3    H2  955   4.024   1.795   1.332
  345TIP3   OH2  956   3.901   1.756   0.232
  345TIP3    H1  957   3.966   1.720   0.296
  345TIP3    H2  958   3.823   1.764   0.288
  346TIP3   OH2  959   4.195   2.384   1.395
  346TIP3    H1  960   4.116   2.326   1.389
  346TIP3    H2  961   4.177   2.447   1.322
  347TIP3   OH2  962   4.263   2.226   0.040
  347TIP3    H1  963   4.310   2.305   0.009
  347TIP3    H2  964   4.182   2.267   0.075
  348TIP3   OH2  965   3.271   0.984   1.934
  348TIP3    H1  966   3.177   1.002   1.913
  348TIP3    H2  967   3.274   0.889   1.913
  349TIP3   OH2  968   4.081   1.686   0.448
  349TIP3    H1  969   4.072   1.621   0.520
  349TIP3    H2  970   4.176   1.678   0.429
  350TIP3   OH2  971   2.996   2.076   1.547
  350TIP3    H1  972   3.050   2.002   1.579
  350TIP3    H2  973   3.022   2.145   1.609
  351TIP3   OH2  974   4.117   1.058   1.594
  351TIP3    H1  975   4.197   1.095   1.635
  351TIP3    H2  976   4.101   0.977   1.648
  352TIP3   OH2  977   3.500   1.920   0.453
  352TIP3    H1  978   3.409   1.942   0.478
  352TIP3    H2  979   3.518   1.983   0.383
  353TIP3   OH2  980   3.955   1.307   1.668
  353TIP3    H1  981   3.975   1.362   1.746
  353TIP3    H2  982   4.010   1.229   1.682
  354TIP3   OH2  983   3.236   2.001   0.500
  354TIP3    H1  984   3.210   2.081   0.450
  354TIP3    H2  985   3.225   2.033   0.593
  355TIP3   OH2  986   4.597   1.207   1.650
  355TIP3    H1  987   4.499   1.206   1.658
  355TIP3    H2  988   4.606   1.168   1.562
  356TIP3   OH2  989   4.246   1.403   1.038
  356TIP3    H1  990   4.168   1.345   1.047
  356TIP3    H2  991   4.315   1.353   1.086
  357TIP3   OH2  992   4.214   2.359   0.987
  357TIP3    H1  993   4.171   2.406   0.913
  357TIP3    H2  994   4.308   2.377   0.965
  358TIP3   OH2  995   2.986   2.386   1.965
  358TIP3    H1  996   3.073   2.385   2.011
  358TIP3    H2  997   2.967   2.291   1.964
  359TIP3   OH2  998   3.469   2.356   2.007
  359TIP3    H1  999   3.561   2.329   2.019
  359TIP3    H2 1000   3.441   2.294   1.936
  360TIP3   OH2 1001   4.109   2.258   1.743
  360TIP3    H1 1002   4.098   2.188   1.812
  360TIP3    H2 1003   4.185   2.309   1.776
  361TIP3   OH2 1004   3.899   1.984   0.060
  361TIP3    H1 1005   3.910   1.904   0.114
  361TIP3    H2 1006   3.971   1.975  -0.004
  362TIP3   OH2 1007   3.111   1.800   2.177
  362TIP3    H1 1008   3.171   1.744   2.126
  362TIP3    H2 1009   3.029   1.794   2.125
  363TIP3   OH2 1010   3.729   1.877   1.931
  363TIP3    H1 1011   3.671   1.882   1.853
  363TIP3    H2 1012   3.754   1.782   1.933
  364TIP3   OH2 1013   4.219   1.884   1.548
  364TIP3    H1 1014   4.290   1.932   1.502
  364TIP3    H2 1015   4.144   1.946   1.535
  365TIP3   OH2 1016   3.257   1.474   2.157
  365TIP3    H1 1017   3.317   1.520   2.096
  365TIP3    H2 1018   3.255   1.536   2.232
  366TIP3   OH2 1019   3.571   1.421   1.821
  366TIP3    H1 1020   3.512   1.498   1.841
  366TIP3    H2 1021   3.616   1.453   1.739
  367TIP3   OH2 1022   4.091   1.815   1.947
  367TIP3    H1 1023   4.168   1.788   1.896
  367TIP3    H2 1024   4.084   1.746   2.014
  368TIP3   OH2 1025   4.252   1.483   0.085
  368TIP3    H1 1026   4.212   1.412   0.035
  368TIP3    H2 1027   4.219   1.561   0.034
  369TIP3   OH2 1028   3.690   1.199   1.934
  369TIP3    H1 1029   3.694   1.122   1.873
  369TIP3    H2 1030   3.649   1.268   1.877
  370TIP3   OH2 1031   3.692   0.987   1.745
  370TIP3    H1 1032   3.723   1.030   1.663
  370TIP3    H2 1033   3.600   0.962   1.721
  371TIP3   OH2 1034   3.724   1.521   1.619
  371TIP3    H1 1035   3.806   1.532   1.569
  371TIP3    H2 1036   3.665   1.587   1.576
  372TIP3   OH2 1037   4.307   1.489   1.999
  372TIP3    H1 1038   4.357   1.406   2.004
  372TIP3    H2 1039   4.373   1.549   1.963
  373TIP3   OH2 1040   4.348   1.742   1.736
  373TIP3    H1 1041   4.289   1.794   1.677
  373TIP3    H2 1042   4.435   1.763   1.695
  374TIP3   OH2 1043   3.579   1.298   2.176
  374TIP3    H1 1044   3.484   1.280   2.172
  374TIP3    H2 1045   3.607   1.287   2.083
  375TIP3   OH2 1046   3.831   0.754   1.809
  375TIP3    H1 1047   3.776   0.832   1.787
  375TIP3    H2 1048   3.766   0.681   1.800
  376TIP3   OH2 1049   3.955   1.254   2.026
  376TIP3    H1 1050   3.942   1.243   2.122
  376TIP3    H2 1051   3.865   1.230   1.995
  377TIP3   OH2 1052   4.194   1.203   1.882
  377TIP3    H1 1053   4.119   1.206   1.943
  377TIP3    H2 1054   4.267   1.172   1.939
  378TIP3   OH2 1055   4.426   1.145   2.033
  378TIP3    H1 1056   4.436   1.049   2.051
  378TIP3    H2 1057   4.421   1.183   2.123
  379TIP3   OH2 1058   3.388   1.066   2.226
  379TIP3    H1 1059   3.466   1.053   2.171
  379TIP3    H2 1060   3.432   1.073   2.315
  380TIP3   OH2 1061   3.923   0.758   2.068
  380TIP3    H1 1062   3.989   0.686   2.061
  380TIP3    H2 1063   3.884   0.754   1.978
  381TIP3   OH2 1064   3.990   0.973   2.228
  381TIP3    H1 1065   3.969   0.903   2.162
  381TIP3    H2 1066   3.913   1.033   2.221
  382TIP3   OH2 1067   3.206   2.210   0.318
  382TIP3    H1 1068   3.302   2.205   0.300
  382TIP3    H2 1069   3.171   2.228   0.231
  383TIP3   OH2 1070   2.640   2.195   0.970
  383TIP3    H1 1071   2.636   2.115   0.915
  383TIP3    H2 1072   2.677   2.152   1.050
  384TIP3   OH2 1073   2.736   2.057   1.185
  384TIP3    H1 1074   2.729   1.987   1.253
  384TIP3    H2 1075   2.803   2.114   1.228
  385TIP3   OH2 1076   4.467   2.450   0.943
  385TIP3    H1 1077   4.495   2.481   1.031
  385TIP3    H2 1078   4.531   2.494   0.885
  386TIP3   OH2 1079   4.498   2.470   1.225
  386TIP3    H1 1080   4.452   2.383   1.220
  386TIP3    H2 1081   4.572   2.446   1.282
  387TIP3   OH2 1082   4.544   2.145   1.799
  387TIP3    H1 1083   4.470   2.154   1.863
  387TIP3    H2 1084   4.584   2.234   1.803
  388TIP3   OH2 1085   4.360   1.660   0.422
  388TIP3    H1 1086   4.426   1.724   0.391
  388TIP3    H2 1087   4.404   1.622   0.500
  389TIP3   OH2 1088   4.488   1.526   0.623
  389TIP3    H1 1089   4.421   1.482   0.680
  389TIP3    H2 1090   4.549   1.565   0.688
  390TIP3   OH2 1091   4.543   1.919   1.056
  390TIP3    H1 1092   4.593   1.853   1.005
  390TIP3    H2 1093   4.533   1.992   0.992
  391TIP3   OH2 1094   4.373   2.220   1.250
  391TIP3    H1 1095   4.301   2.261   1.301
  391TIP3    H2 1096   4.323   2.172   1.180
  392TIP3   OH2 1097   4.408   1.421   0.292
  392TIP3    H1 1098   4.350   1.435   0.214
  392TIP3    H2 1099   4.386   1.504   0.341
  393TIP3   OH2 1100   4.307   1.381   0.771
  393TIP3    H1 1101   4.302   1.284   0.763
  393TIP3    H2 1102   4.290   1.394   0.867
  394TIP3   OH2 1103   2.949   1.463   1.536
  394TIP3    H1 1104   2.966   1.438   1.445
  394TIP3    H2 1105   3.043   1.462   1.568
  395TIP3   OH2 1106   4.591   1.808   1.626
  395TIP3    H1 1107   4.664   1.743   1.616
  395TIP3    H2 1108   4.616   1.877   1.562
  396TIP3   OH2 1109   4.776   1.613   1.643
  396TIP3    H1 1110   4.701   1.563   1.682
  396TIP3    H2 1111   4.848   1.548   1.657
  397TIP3   OH2 1112   4.297   1.101   0.659
  397TIP3    H1 1113   4.338   1.013   0.677
  397TIP3    H2 1114   4.356   1.134   0.589
  398TIP3   OH2 1115   4.459   1.271   1.160
  398TIP3    H1 1116   4.545   1.297   1.119
  398TIP3    H2 1117   4.472   1.310   1.249
  399TIP3   OH2 1118   4.528   1.417   1.391
  399TIP3    H1 1119   4.450   1.451   1.438
  399TIP3    H2 1120   4.560   1.498   1.345
  400TIP3   OH2 1121   3.133   1.134   2.178
  400TIP3    H1 1122   3.230   1.145   2.187
  400TIP3    H2 1123   3.105   1.114   2.268
  401TIP3   OH2 1124   4.979   1.008   1.947
  401TIP3    H1 1125   5.039   0.943   1.904
  401TIP3    H2 1126   4.950   1.062   1.871
  402TIP3   OH2 1127   4.402   0.841   0.692
  402TIP3    H1 1128   4.443   0.827   0.780
  402TIP3    H2 1129   4.332   0.774   0.691
  403TIP3   OH2 1130   3.033   1.168   1.626
  403TIP3    H1 1131   2.968   1.109   1.585
  403TIP3    H2 1132   2.977   1.238   1.661
  404TIP3   OH2 1133   4.850   1.148   1.753
  404TIP3    H1 1134   4.764   1.190   1.772
  404TIP3    H2 1135   4.820   1.076   1.693
  405TIP3   OH2 1136   4.055   2.316   0.603
  405TIP3    H1 1137   4.101   2.300   0.518
  405TIP3    H2 1138   4.113   2.382   0.644
  406TIP3   OH2 1139   3.133   0.757   1.926
  406TIP3    H1 1140   3.072   0.695   1.968
  406TIP3    H2 1141   3.073   0.792   1.856
  407TIP3   OH2 1142   3.151   2.133   1.988
  407TIP3    H1 1143   3.067   2.089   1.965
  407TIP3    H2 1144   3.174   2.091   2.072
  408TIP3   OH2 1145   3.327   2.150   1.534
  408TIP3    H1 1146   3.284   2.228   1.494
  408TIP3    H2 1147   3.415   2.159   1.492
  409TIP3   OH2 1148   3.775   2.398   1.672
  409TIP3    H1 1149   3.817   2.397   1.761
  409TIP3    H2 1150   3.842   2.448   1.621
  410TIP3   OH2 1151   3.954   2.549   1.529
  410TIP3    H1 1152   4.025   2.497   1.489
  410TIP3    H2 1153   4.006   2.605   1.591
  411TIP3   OH2 1154   4.749   0.912   1.631
  411TIP3    H1 1155   4.658   0.908   1.595
  411TIP3    H2 1156   4.778   0.818   1.619
  412TIP3   OH2 1157   3.007   2.411   1.555
  412TIP3    H1 1158   2.917   2.446   1.538
  412TIP3    H2 1159   3.021   2.440   1.646
  413TIP3   OH2 1160   3.245   2.390   1.416
  413TIP3    H1 1161   3.158   2.402   1.460
  413TIP3    H2 1162   3.225   2.416   1.325
  414TIP3   OH2 1163   3.670   2.417   1.213
  414TIP3    H1 1164   3.601   2.437   1.147
  414TIP3    H2 1165   3.682   2.505   1.256
  415TIP3   OH2 1166   3.938   2.357   1.265
  415TIP3    H1 1167   3.844   2.372   1.244
  415TIP3    H2 1168   3.981   2.433   1.222
  416TIP3   OH2 1169   4.148   2.549   1.180
  416TIP3    H1 1170   4.132   2.633   1.131
  416TIP3    H2 1171   4.172   2.487   1.108
  417TIP3   OH2 1172   2.927   2.216   1.308
  417TIP3    H1 1173   2.954   2.187   1.397
  417TIP3    H2 1174   2.995   2.168   1.255
  418TIP3   OH2 1175   3.108   2.073   1.163
  418TIP3    H1 1176   3.127   1.988   1.210
  418TIP3    H2 1177   3.198   2.109   1.153
  419TIP3   OH2 1178   3.377   2.171   1.163
  419TIP3    H1 1179   3.409   2.080   1.148
  419TIP3    H2 1180   3.423   2.190   1.247
  420TIP3   OH2 1181   3.957   0.833   1.261
  420TIP3    H1 1182   3.914   0.759   1.306
  420TIP3    H2 1183   4.021   0.789   1.203
  421TIP3   OH2 1184   4.483   0.712   1.160
  421TIP3    H1 1185   4.517   0.769   1.088
  421TIP3    H2 1186   4.387   0.731   1.155
  422TIP3   OH2 1187   4.569   0.808   0.917
  422TIP3    H1 1188   4.641   0.762   0.870
  422TIP3    H2 1189   4.598   0.902   0.909
  423TIP3   OH2 1190   4.202   0.713   1.136
  423TIP3    H1 1191   4.189   0.683   1.045
  423TIP3    H2 1192   4.188   0.632   1.189
  424TIP3   OH2 1193   3.475   2.167   0.274
  424TIP3    H1 1194   3.570   2.183   0.249
  424TIP3    H2 1195   3.451   2.109   0.201
  425TIP3   OH2 1196   4.199   2.281   0.368
  425TIP3    H1 1197   4.192   2.182   0.358
  425TIP3    H2 1198   4.151   2.310   0.288
  426TIP3   OH2 1199   3.389   0.788   2.178
  426TIP3    H1 1200   3.385   0.703   2.228
  426TIP3    H2 1201   3.485   0.806   2.188
  427TIP3   OH2 1202   3.660   0.814   2.270
  427TIP3    H1 1203   3.745   0.789   2.230
  427TIP3    H2 1204   3.650   0.746   2.339
  428TIP3   OH2 1205   4.485   0.873   2.063
  428TIP3    H1 1206   4.504   0.842   2.155
  428TIP3    H2 1207   4.574   0.868   2.022
  429TIP3   OH2 1208   4.424   2.426   1.556
  429TIP3    H1 1209   4.346   2.394   1.507
  429TIP3    H2 1210   4.403   2.522   1.560
  430TIP3   OH2 1211   5.689   1.807   0.359
  430TIP3    H1 1212   5.680   1.898   0.328
  430TIP3    H2 1213   5.638   1.763   0.289
  431TIP3   OH2 1214   5.680   1.807   0.707
  431TIP3    H1 1215   5.714   1.762   0.786
  431TIP3    H2 1216   5.653   1.733   0.651
  432TIP3   OH2 1217   4.989   1.694   1.068
  432TIP3    H1 1218   5.019   1.626   1.131
  432TIP3    H2 1219   5.068   1.749   1.060
  433TIP3   OH2 1220   5.933   2.106   0.382
  433TIP3    H1 1221   5.915   2.030   0.438
  433TIP3    H2 1222   5.959   2.174   0.446
  434TIP3   OH2 1223   4.959   2.103   0.794
  434TIP3    H1 1224   4.951   2.005   0.796
  434TIP3    H2 1225   5.056   2.112   0.787
  435TIP3   OH2 1226   4.666   1.312   0.577
  435TIP3    H1 1227   4.618   1.396   0.589
  435TIP3    H2 1228   4.591   1.252   0.562
  436TIP3   OH2 1229   4.726   1.596   0.751
  436TIP3    H1 1230   4.776   1.518   0.786
  436TIP3    H2 1231   4.784   1.627   0.681
  437TIP3   OH2 1232   5.585   2.565   0.402
  437TIP3    H1 1233   5.626   2.492   0.352
  437TIP3    H2 1234   5.577   2.525   0.490
  438TIP3   OH2 1235   5.487   2.024   0.752
  438TIP3    H1 1236   5.527   1.946   0.711
  438TIP3    H2 1237   5.570   2.071   0.775
  439TIP3   OH2 1238   5.885   1.526   0.788
  439TIP3    H1 1239   5.955   1.459   0.798
  439TIP3    H2 1240   5.874   1.527   0.692
  440TIP3   OH2 1241   5.222   1.182   0.762
  440TIP3    H1 1242   5.215   1.251   0.692
  440TIP3    H2 1243   5.191   1.103   0.716
  441TIP3   OH2 1244   4.872   1.386   0.851
  441TIP3    H1 1245   4.953   1.369   0.903
  441TIP3    H2 1246   4.884   1.322   0.779
  442TIP3   OH2 1247   5.313   1.585   0.649
  442TIP3    H1 1248   5.408   1.564   0.663
  442TIP3    H2 1249   5.278   1.497   0.625
  443TIP3   OH2 1250   6.589   1.554   0.947
  443TIP3    H1 1251   6.503   1.597   0.924
  443TIP3    H2 1252   6.598   1.583   1.039
  444TIP3   OH2 1253   5.231   1.170   1.185
  444TIP3    H1 1254   5.173   1.212   1.120
  444TIP3    H2 1255   5.181   1.189   1.268
  445TIP3   OH2 1256   5.601   2.037   0.184
  445TIP3    H1 1257   5.542   1.990   0.121
  445TIP3    H2 1258   5.542   2.110   0.212
  446TIP3   OH2 1259   5.341   1.943   0.979
  446TIP3    H1 1260   5.280   2.010   1.016
  446TIP3    H2 1261   5.384   1.993   0.906
  447TIP3   OH2 1262   5.101   1.290   0.976
  447TIP3    H1 1263   5.165   1.362   0.998
  447TIP3    H2 1264   5.149   1.248   0.900
  448TIP3   OH2 1265   5.168   2.137   1.077
  448TIP3    H1 1266   5.143   2.223   1.038
  448TIP3    H2 1267   5.089   2.122   1.133
  449TIP3   OH2 1268   4.563   1.826   0.317
  449TIP3    H1 1269   4.522   1.847   0.230
  449TIP3    H2 1270   4.591   1.914   0.348
  450TIP3   OH2 1271   6.001   2.342   0.552
  450TIP3    H1 1272   5.911   2.332   0.591
  450TIP3    H2 1273   5.991   2.428   0.507
  451TIP3   OH2 1274   6.276   1.266   0.952
  451TIP3    H1 1275   6.181   1.271   0.931
  451TIP3    H2 1276   6.312   1.284   0.862
  452TIP3   OH2 1277   5.607   0.909   0.958
  452TIP3    H1 1278   5.572   0.817   0.959
  452TIP3    H2 1279   5.523   0.958   0.973
  453TIP3   OH2 1280   5.702   2.388   0.224
  453TIP3    H1 1281   5.754   2.306   0.209
  453TIP3    H2 1282   5.766   2.454   0.188
  454TIP3   OH2 1283   5.851   2.174   0.128
  454TIP3    H1 1284   5.778   2.111   0.118
  454TIP3    H2 1285   5.892   2.141   0.211
  455TIP3   OH2 1286   6.232   2.255   0.894
  455TIP3    H1 1287   6.216   2.178   0.835
  455TIP3    H2 1288   6.218   2.330   0.832
  456TIP3   OH2 1289   5.547   1.725   0.139
  456TIP3    H1 1290   5.452   1.725   0.118
  456TIP3    H2 1291   5.574   1.633   0.128
  457TIP3   OH2 1292   6.426   1.892   0.746
  457TIP3    H1 1293   6.341   1.940   0.747
  457TIP3    H2 1294   6.451   1.900   0.652
  458TIP3   OH2 1295   6.103   1.772   1.034
  458TIP3    H1 1296   6.098   1.857   1.081
  458TIP3    H2 1297   6.015   1.772   0.990
  459TIP3   OH2 1298   5.099   1.728   0.543
  459TIP3    H1 1299   5.061   1.669   0.474
  459TIP3    H2 1300   5.178   1.678   0.573
  460TIP3   OH2 1301   5.230   2.141   0.691
  460TIP3    H1 1302   5.210   2.101   0.605
  460TIP3    H2 1303   5.320   2.107   0.709
  461TIP3   OH2 1304   5.237   1.702   0.895
  461TIP3    H1 1305   5.272   1.679   0.807
  461TIP3    H2 1306   5.281   1.787   0.915
  462TIP3   OH2 1307   5.761   2.340   0.671
  462TIP3    H1 1308   5.750   2.422   0.724
  462TIP3    H2 1309   5.745   2.269   0.737
  463TIP3   OH2 1310   5.374   2.259   1.221
  463TIP3    H1 1311   5.312   2.320   1.267
  463TIP3    H2 1312   5.311   2.204   1.171
  464TIP3   OH2 1313   5.129   1.814   1.321
  464TIP3    H1 1314   5.133   1.901   1.365
  464TIP3    H2 1315   5.033   1.794   1.331
  465TIP3   OH2 1316   5.447   2.271   0.236
  465TIP3    H1 1317   5.529   2.324   0.245
  465TIP3    H2 1318   5.390   2.327   0.182
  466TIP3   OH2 1319   5.168   2.428   1.307
  466TIP3    H1 1320   5.133   2.427   1.216
  466TIP3    H2 1321   5.088   2.405   1.360
  467TIP3   OH2 1322   4.964   1.562   0.340
  467TIP3    H1 1323   4.905   1.620   0.288
  467TIP3    H2 1324   4.902   1.491   0.362
  468TIP3   OH2 1325   4.748   1.957   1.253
  468TIP3    H1 1326   4.681   1.936   1.185
  468TIP3    H2 1327   4.784   1.869   1.276
  469TIP3   OH2 1328   4.601   2.150   0.885
  469TIP3    H1 1329   4.697   2.143   0.877
  469TIP3    H2 1330   4.592   2.229   0.941
  470TIP3   OH2 1331   5.569   2.389   1.074
  470TIP3    H1 1332   5.568   2.481   1.109
  470TIP3    H2 1333   5.500   2.347   1.130
  471TIP3   OH2 1334   5.332   2.519   0.030
  471TIP3    H1 1335   5.286   2.492  -0.051
  471TIP3    H2 1336   5.297   2.607   0.049
  472TIP3   OH2 1337   4.770   2.366   0.413
  472TIP3    H1 1338   4.818   2.356   0.499
  472TIP3    H2 1339   4.717   2.285   0.413
  473TIP3   OH2 1340   5.548   2.370  -0.294
  473TIP3    H1 1341   5.545   2.275  -0.282
  473TIP3    H2 1342   5.560   2.401  -0.202
  474TIP3   OH2 1343   5.586   2.460  -0.040
  474TIP3    H1 1344   5.495   2.474  -0.004
  474TIP3    H2 1345   5.629   2.418   0.036
  475TIP3   OH2 1346   6.358   1.729   1.216
  475TIP3    H1 1347   6.279   1.747   1.162
  475TIP3    H2 1348   6.365   1.632   1.208
  476TIP3   OH2 1349   4.951   2.141   1.243
  476TIP3    H1 1350   5.002   2.122   1.325
  476TIP3    H2 1351   4.878   2.076   1.250
  477TIP3   OH2 1352   5.340   0.974   1.025
  477TIP3    H1 1353   5.252   0.939   0.999
  477TIP3    H2 1354   5.312   1.052   1.077
  478TIP3   OH2 1355   5.886   1.074   1.219
  478TIP3    H1 1356   5.949   1.053   1.291
  478TIP3    H2 1357   5.799   1.058   1.262
  479TIP3   OH2 1358   6.126   1.510   1.142
  479TIP3    H1 1359   6.072   1.507   1.224
  479TIP3    H2 1360   6.101   1.596   1.103
  480TIP3   OH2 1361   5.284   1.481   1.045
  480TIP3    H1 1362   5.235   1.504   1.127
  480TIP3    H2 1363   5.269   1.561   0.990
  481TIP3   OH2 1364   5.164   1.362   0.565
  481TIP3    H1 1365   5.071   1.334   0.573
  481TIP3    H2 1366   5.182   1.352   0.471
  482TIP3   OH2 1367   5.833   1.731   1.374
  482TIP3    H1 1368   5.811   1.657   1.435
  482TIP3    H2 1369   5.927   1.742   1.394
  483TIP3   OH2 1370   5.780   1.472   0.526
  483TIP3    H1 1371   5.777   1.534   0.452
  483TIP3    H2 1372   5.867   1.427   0.511
  484TIP3   OH2 1373   5.103   1.508   1.253
  484TIP3    H1 1374   5.130   1.572   1.320
  484TIP3    H2 1375   5.092   1.427   1.306
  485TIP3   OH2 1376   4.685   1.042   0.852
  485TIP3    H1 1377   4.772   1.063   0.892
  485TIP3    H2 1378   4.707   1.011   0.762
  486TIP3   OH2 1379   4.687   1.070   0.343
  486TIP3    H1 1380   4.678   1.100   0.252
  486TIP3    H2 1381   4.616   1.120   0.387
  487TIP3   OH2 1382   5.830   1.727   0.954
  487TIP3    H1 1383   5.855   1.655   0.892
  487TIP3    H2 1384   5.796   1.673   1.028
  488TIP3   OH2 1385   5.465   1.201   0.630
  488TIP3    H1 1386   5.401   1.188   0.701
  488TIP3    H2 1387   5.550   1.190   0.674
  489TIP3   OH2 1388   4.919   1.230   0.613
  489TIP3    H1 1389   4.828   1.265   0.597
  489TIP3    H2 1390   4.905   1.137   0.591
  490TIP3   OH2 1391   6.011   1.284   0.857
  490TIP3    H1 1392   5.945   1.299   0.928
  490TIP3    H2 1393   5.958   1.253   0.783
  491TIP3   OH2 1394   6.135   2.998   1.042
  491TIP3    H1 1395   6.139   2.951   0.958
  491TIP3    H2 1396   6.214   2.965   1.086
  492TIP3   OH2 1397   5.114   2.062   1.462
  492TIP3    H1 1398   5.194   2.092   1.510
  492TIP3    H2 1399   5.049   2.060   1.535
  493TIP3   OH2 1400   5.573   1.516   0.714
  493TIP3    H1 1401   5.646   1.488   0.654
  493TIP3    H2 1402   5.597   1.471   0.797
  494TIP3   OH2 1403   5.555   1.405   1.015
  494TIP3    H1 1404   5.467   1.447   1.020
  494TIP3    H2 1405   5.613   1.471   1.058
  495TIP3   OH2 1406   5.269   1.817   0.098
  495TIP3    H1 1407   5.199   1.748   0.096
  495TIP3    H2 1408   5.265   1.846   0.192
  496TIP3   OH2 1409   6.192   2.036   0.731
  496TIP3    H1 1410   6.212   2.086   0.649
  496TIP3    H2 1411   6.105   1.995   0.709
  497TIP3   OH2 1412   5.683   2.115   1.101
  497TIP3    H1 1413   5.715   2.100   1.190
  497TIP3    H2 1414   5.657   2.209   1.102
  498TIP3   OH2 1415   4.983   1.825   0.779
  498TIP3    H1 1416   5.020   1.796   0.693
  498TIP3    H2 1417   5.026   1.763   0.840
  499TIP3   OH2 1418   5.444   1.969  -0.044
  499TIP3    H1 1419   5.393   2.052  -0.054
  499TIP3    H2 1420   5.374   1.909  -0.013
  500TIP3   OH2 1421   4.864   1.745   1.391
  500TIP3    H1 1422   4.882   1.731   1.486
  500TIP3    H2 1423   4.794   1.679   1.374
  501TIP3   OH2 1424   5.589   1.858   1.411
  501TIP3    H1 1425   5.530   1.801   1.360
  501TIP3    H2 1426   5.677   1.824   1.382
  502TIP3   OH2 1427   5.852   2.364   1.007
  502TIP3    H1 1428   5.756   2.375   1.005
  502TIP3    H2 1429   5.877   2.428   1.076
  503TIP3   OH2 1430   6.489   2.305   0.984
  503TIP3    H1 1431   6.392   2.321   0.991
  503TIP3    H2 1432   6.495   2.269   0.894
  504TIP3   OH2 1433   5.969   2.272  -0.208
  504TIP3    H1 1434   5.916   2.234  -0.136
  504TIP3    H2 1435   6.020   2.194  -0.236
  505TIP3   OH2 1436   5.951   1.911   0.660
  505TIP3    H1 1437   5.857   1.889   0.668
  505TIP3    H2 1438   5.984   1.827   0.620
  506TIP3   OH2 1439   5.084   2.129   0.404
  506TIP3    H1 1440   5.085   2.209   0.349
  506TIP3    H2 1441   4.989   2.112   0.411
  507TIP3   OH2 1442   4.661   1.417   0.158
  507TIP3    H1 1443   4.697   1.506   0.146
  507TIP3    H2 1444   4.574   1.434   0.199
  508TIP3   OH2 1445   5.221   1.894   0.351
  508TIP3    H1 1446   5.188   1.984   0.367
  508TIP3    H2 1447   5.186   1.846   0.428
  509TIP3   OH2 1448   5.353   2.473   0.872
  509TIP3    H1 1449   5.397   2.544   0.821
  509TIP3    H2 1450   5.429   2.435   0.920
  510TIP3   OH2 1451   5.002   2.369   0.255
  510TIP3    H1 1452   4.917   2.376   0.302
  510TIP3    H2 1453   5.034   2.461   0.257
  511TIP3   OH2 1454   5.742   2.108   0.830
  511TIP3    H1 1455   5.733   2.101   0.928
  511TIP3    H2 1456   5.820   2.052   0.814
  512TIP3   OH2 1457   5.075   1.251   1.401
  512TIP3    H1 1458   4.978   1.255   1.414
  512TIP3    H2 1459   5.102   1.191   1.472
  513TIP3   OH2 1460   4.792   2.335   1.031
  513TIP3    H1 1461   4.844   2.258   1.060
  513TIP3    H2 1462   4.822   2.402   1.094
  514TIP3   OH2 1463   5.041   2.012  -0.304
  514TIP3    H1 1464   5.090   1.932  -0.325
  514TIP3    H2 1465   5.022   1.998  -0.209
  515TIP3   OH2 1466   5.033   1.992  -0.021
  515TIP3    H1 1467   5.106   1.957   0.033
  515TIP3    H2 1468   5.042   2.088  -0.008
  516TIP3   OH2 1469   4.774   1.694   0.196
  516TIP3    H1 1470   4.702   1.735   0.250
  516TIP3    H2 1471   4.781   1.759   0.124
  517TIP3   OH2 1472   5.898   1.325   1.102
  517TIP3    H1 1473   5.988   1.353   1.126
  517TIP3    H2 1474   5.891   1.238   1.146
  518TIP3   OH2 1475   5.293   2.198  -0.050
  518TIP3    H1 1476   5.203   2.224  -0.023
  518TIP3    H2 1477   5.294   2.227  -0.143
  519TIP3   OH2 1478   5.748   1.565   1.156
  519TIP3    H1 1479   5.772   1.616   1.236
  519TIP3    H2 1480   5.802   1.484   1.165
  520TIP3   OH2 1481   5.031   2.263   0.001
  520TIP3    H1 1482   4.998   2.333  -0.058
  520TIP3    H2 1483   5.016   2.303   0.090
  521TIP3   OH2 1484   6.392   1.451   1.142
  521TIP3    H1 1485   6.294   1.448   1.152
  521TIP3    H2 1486   6.396   1.438   1.047
  522TIP3   OH2 1487   6.034   1.672   0.553
  522TIP3    H1 1488   6.009   1.590   0.507
  522TIP3    H2 1489   6.127   1.651   0.569
  523TIP3   OH2 1490   4.759   1.896  -0.006
  523TIP3    H1 1491   4.826   1.964   0.009
  523TIP3    H2 1492   4.810   1.843  -0.072
  524TIP3   OH2 1493   6.009   2.614   0.472
  524TIP3    H1 1494   5.967   2.666   0.400
  524TIP3    H2 1495   6.104   2.631   0.452
  525TIP3   OH2 1496   5.084   0.877   1.002
  525TIP3    H1 1497   5.031   0.848   0.924
  525TIP3    H2 1498   5.074   0.801   1.062
  526TIP3   OH2 1499   4.629   2.108   0.382
  526TIP3    H1 1500   4.553   2.132   0.437
  526TIP3    H2 1501   4.601   2.144   0.295
  527TIP3   OH2 1502   4.781   2.643   1.453
  527TIP3    H1 1503   4.868   2.641   1.499
  527TIP3    H2 1504   4.760   2.548   1.451
  528TIP3   OH2 1505   5.266   2.608   1.497
  528TIP3    H1 1506   5.360   2.586   1.502
  528TIP3    H2 1507   5.238   2.550   1.424
  529TIP3   OH2 1508   5.260   2.179  -0.331
  529TIP3    H1 1509   5.178   2.125  -0.325
  529TIP3    H2 1510   5.309   2.132  -0.399
  530TIP3   OH2 1511   5.894   2.520   1.232
  530TIP3    H1 1512   5.891   2.449   1.300
  530TIP3    H2 1513   5.978   2.566   1.254
  531TIP3   OH2 1514   4.913   2.049   1.654
  531TIP3    H1 1515   4.929   1.953   1.659
  531TIP3    H2 1516   4.826   2.052   1.609
  532TIP3   OH2 1517   4.915   1.733  -0.155
  532TIP3    H1 1518   4.896   1.664  -0.089
  532TIP3    H2 1519   4.941   1.675  -0.229
  533TIP3   OH2 1520   5.520   2.134   1.427
  533TIP3    H1 1521   5.481   2.152   1.339
  533TIP3    H2 1522   5.550   2.041   1.418
  534TIP3   OH2 1523   6.016   2.142   1.036
  534TIP3    H1 1524   6.091   2.184   0.990
  534TIP3    H2 1525   5.947   2.209   1.022
  535TIP3   OH2 1526   5.032   1.784   1.635
  535TIP3    H1 1527   5.107   1.728   1.613
  535TIP3    H2 1528   5.058   1.817   1.724
  536TIP3   OH2 1529   5.104   1.601   0.101
  536TIP3    H1 1530   5.060   1.578   0.184
  536TIP3    H2 1531   5.188   1.554   0.105
  537TIP3   OH2 1532   5.367   1.668   1.297
  537TIP3    H1 1533   5.289   1.728   1.297
  537TIP3    H2 1534   5.418   1.702   1.219
  538TIP3   OH2 1535   5.886   2.071   1.433
  538TIP3    H1 1536   5.960   2.044   1.378
  538TIP3    H2 1537   5.882   2.000   1.500
  539TIP3   OH2 1538   5.490   1.457   1.423
  539TIP3    H1 1539   5.491   1.377   1.367
  539TIP3    H2 1540   5.447   1.522   1.364
  540TIP3   OH2 1541   5.492   1.242   1.234
  540TIP3    H1 1542   5.521   1.285   1.151
  540TIP3    H2 1543   5.399   1.220   1.213
  541TIP3   OH2 1544   5.521   1.779   1.104
  541TIP3    H1 1545   5.604   1.788   1.056
  541TIP3    H2 1546   5.465   1.846   1.059
  542TIP3   OH2 1547   6.104   1.747   1.486
  542TIP3    H1 1548   6.151   1.663   1.491
  542TIP3    H2 1549   6.170   1.806   1.447
  543TIP3   OH2 1550   6.142   1.999   1.226
  543TIP3    H1 1551   6.083   2.051   1.165
  543TIP3    H2 1552   6.229   2.019   1.185
  544TIP3   OH2 1553   5.368   1.569   1.655
  544TIP3    H1 1554   5.300   1.500   1.668
  544TIP3    H2 1555   5.403   1.545   1.566
  545TIP3   OH2 1556   5.627   1.008   1.296
  545TIP3    H1 1557   5.578   1.090   1.274
  545TIP3    H2 1558   5.557   0.941   1.283
  546TIP3   OH2 1559   5.751   1.511   1.514
  546TIP3    H1 1560   5.739   1.496   1.609
  546TIP3    H2 1561   5.661   1.487   1.482
  547TIP3   OH2 1562   5.992   1.464   1.372
  547TIP3    H1 1563   5.914   1.462   1.432
  547TIP3    H2 1564   6.063   1.429   1.429
  548TIP3   OH2 1565   6.227   1.400   1.522
  548TIP3    H1 1566   6.229   1.304   1.542
  548TIP3    H2 1567   6.218   1.440   1.611
  549TIP3   OH2 1568   5.208   1.349   1.706
  549TIP3    H1 1569   5.215   1.258   1.671
  549TIP3    H2 1570   5.245   1.336   1.796
  550TIP3   OH2 1571   5.717   1.017   1.555
  550TIP3    H1 1572   5.781   0.943   1.552
  550TIP3    H2 1573   5.679   1.010   1.464
  551TIP3   OH2 1574   5.791   1.237   1.700
  551TIP3    H1 1575   5.765   1.163   1.641
  551TIP3    H2 1576   5.710   1.292   1.702
  552TIP3   OH2 1577   4.992   2.463  -0.191
  552TIP3    H1 1578   5.088   2.457  -0.208
  552TIP3    H2 1579   4.959   2.486  -0.279
  553TIP3   OH2 1580   4.491   1.843   0.047
  553TIP3    H1 1581   4.582   1.870   0.020
  553TIP3    H2 1582   4.478   1.763  -0.006
  554TIP3   OH2 1583   4.401   2.455   0.442
  554TIP3    H1 1584   4.333   2.393   0.407
  554TIP3    H2 1585   4.445   2.399   0.509
  555TIP3   OH2 1586   4.535   2.309   0.631
  555TIP3    H1 1587   4.523   2.233   0.690
  555TIP3    H2 1588   4.587   2.367   0.689
  556TIP3   OH2 1589   6.268   2.700   0.433
  556TIP3    H1 1590   6.296   2.734   0.520
  556TIP3    H2 1591   6.318   2.755   0.372
  557TIP3   OH2 1592   6.297   2.720   0.712
  557TIP3    H1 1593   6.262   2.631   0.690
  557TIP3    H2 1594   6.296   2.712   0.810
  558TIP3   OH2 1595   6.345   2.394   1.292
  558TIP3    H1 1596   6.267   2.409   1.350
  558TIP3    H2 1597   6.376   2.485   1.278
  559TIP3   OH2 1598   6.346   2.178   0.547
  559TIP3    H1 1599   6.391   2.109   0.495
  559TIP3    H2 1600   6.323   2.244   0.479
  560TIP3   OH2 1601   6.178   2.471   0.729
  560TIP3    H1 1602   6.123   2.508   0.800
  560TIP3    H2 1603   6.111   2.430   0.670
  561TIP3   OH2 1604   4.724   1.712   1.004
  561TIP3    H1 1605   4.721   1.682   0.910
  561TIP3    H2 1606   4.821   1.714   1.020
  562TIP3   OH2 1607   6.381   2.066   1.113
  562TIP3    H1 1608   6.455   2.002   1.101
  562TIP3    H2 1609   6.403   2.134   1.048
  563TIP3   OH2 1610   6.570   1.877   1.133
  563TIP3    H1 1611   6.496   1.824   1.168
  563TIP3    H2 1612   6.646   1.818   1.156
  564TIP3   OH2 1613   6.305   1.620   0.616
  564TIP3    H1 1614   6.397   1.594   0.631
  564TIP3    H2 1615   6.270   1.607   0.706
  565TIP3   OH2 1616   6.339   1.673   0.898
  565TIP3    H1 1617   6.254   1.704   0.934
  565TIP3    H2 1618   6.368   1.751   0.846
  566TIP3   OH2 1619   4.941   1.400   1.678
  566TIP3    H1 1620   5.039   1.393   1.679
  566TIP3    H2 1621   4.917   1.314   1.718
  567TIP3   OH2 1622   6.774   1.264   1.437
  567TIP3    H1 1623   6.829   1.201   1.389
  567TIP3    H2 1624   6.747   1.327   1.367
  568TIP3   OH2 1625   4.908   1.092   1.006
  568TIP3    H1 1626   4.970   1.018   1.019
  568TIP3    H2 1627   4.968   1.169   1.005
  569TIP3   OH2 1628   4.707   1.365   1.082
  569TIP3    H1 1629   4.754   1.360   0.997
  569TIP3    H2 1630   4.732   1.452   1.113
  570TIP3   OH2 1631   6.659   1.439   1.266
  570TIP3    H1 1632   6.576   1.475   1.303
  570TIP3    H2 1633   6.623   1.364   1.214
  571TIP3   OH2 1634   4.671   0.911   0.610
  571TIP3    H1 1635   4.583   0.873   0.627
  571TIP3    H2 1636   4.678   0.902   0.514
  572TIP3   OH2 1637   5.847   2.579   0.099
  572TIP3    H1 1638   5.895   2.564   0.015
  572TIP3    H2 1639   5.905   2.642   0.144
  573TIP3   OH2 1640   4.908   0.948   1.396
  573TIP3    H1 1641   4.857   0.945   1.478
  573TIP3    H2 1642   4.842   0.988   1.335
  574TIP3   OH2 1643   4.948   2.378   1.474
  574TIP3    H1 1644   4.857   2.349   1.455
  574TIP3    H2 1645   4.957   2.356   1.568
  575TIP3   OH2 1646   5.126   2.409   1.021
  575TIP3    H1 1647   5.079   2.485   0.981
  575TIP3    H2 1648   5.213   2.422   0.978
  576TIP3   OH2 1649   5.572   2.655   1.162
  576TIP3    H1 1650   5.616   2.656   1.249
  576TIP3    H2 1651   5.637   2.704   1.107
  577TIP3   OH2 1652   5.745   2.805   1.012
  577TIP3    H1 1653   5.809   2.753   0.962
  577TIP3    H2 1654   5.802   2.856   1.073
  578TIP3   OH2 1655   6.557   1.216   1.159
  578TIP3    H1 1656   6.480   1.270   1.132
  578TIP3    H2 1657   6.556   1.149   1.086
  579TIP3   OH2 1658   4.803   2.668   1.042
  579TIP3    H1 1659   4.714   2.702   1.020
  579TIP3    H2 1660   4.810   2.698   1.133
  580TIP3   OH2 1661   5.040   2.646   0.902
  580TIP3    H1 1662   4.953   2.658   0.946
  580TIP3    H2 1663   5.021   2.676   0.812
  581TIP3   OH2 1664   5.463   2.677   0.698
  581TIP3    H1 1665   5.392   2.696   0.634
  581TIP3    H2 1666   5.474   2.763   0.742
  582TIP3   OH2 1667   5.730   2.609   0.750
  582TIP3    H1 1668   5.639   2.635   0.725
  582TIP3    H2 1669   5.783   2.684   0.721
  583TIP3   OH2 1670   5.949   2.816   0.666
  583TIP3    H1 1671   5.933   2.893   0.610
  583TIP3    H2 1672   5.969   2.745   0.602
  584TIP3   OH2 1673   4.715   2.460   0.790
  584TIP3    H1 1674   4.742   2.434   0.881
  584TIP3    H2 1675   4.786   2.415   0.739
  585TIP3   OH2 1676   4.908   2.331   0.646
  585TIP3    H1 1677   4.924   2.247   0.695
  585TIP3    H2 1678   4.999   2.367   0.641
  586TIP3   OH2 1679   5.175   2.427   0.649
  586TIP3    H1 1680   5.207   2.336   0.634
  586TIP3    H2 1681   5.220   2.446   0.733
  587TIP3   OH2 1682   4.965   0.794   0.774
  587TIP3    H1 1683   4.871   0.766   0.769
  587TIP3    H2 1684   5.002   0.739   0.703
  588TIP3   OH2 1685   4.505   2.229   0.177
  588TIP3    H1 1686   4.420   2.190   0.146
  588TIP3    H2 1687   4.485   2.323   0.167
  589TIP3   OH2 1688   5.260   2.434  -0.234
  589TIP3    H1 1689   5.338   2.471  -0.279
  589TIP3    H2 1690   5.250   2.352  -0.287
  590TIP3   OH2 1691   5.990   2.538  -0.131
  590TIP3    H1 1692   5.989   2.440  -0.144
  590TIP3    H2 1693   5.947   2.568  -0.212
  591TIP3   OH2 1694   5.207   1.071   1.641
  591TIP3    H1 1695   5.171   1.002   1.700
  591TIP3    H2 1696   5.301   1.071   1.670
  592TIP3   OH2 1697   5.454   1.066   1.764
  592TIP3    H1 1698   5.539   1.046   1.722
  592TIP3    H2 1699   5.448   0.996   1.832
  593TIP3   OH2 1700   4.604   2.297  -0.156
  593TIP3    H1 1701   4.562   2.296  -0.070
  593TIP3    H2 1702   4.657   2.217  -0.156
  594TIP3   OH2 1703   6.271   1.124   1.555
  594TIP3    H1 1704   6.291   1.095   1.646
  594TIP3    H2 1705   6.361   1.131   1.517
  595TIP3   OH2 1706   6.790   1.956   0.549
  595TIP3    H1 1707   6.801   1.891   0.619
  595TIP3    H2 1708   6.874   2.004   0.553
  596TIP3   OH2 1709   6.768   2.351   0.300
  596TIP3    H1 1710   6.728   2.264   0.300
  596TIP3    H2 1711   6.862   2.330   0.308
  597TIP3   OH2 1712   7.100   2.212   0.444
  597TIP3    H1 1713   7.059   2.266   0.513
  597TIP3    H2 1714   7.193   2.212   0.467
  598TIP3   OH2 1715   6.954   2.403   0.585
  598TIP3    H1 1716   6.927   2.484   0.536
  598TIP3    H2 1717   6.870   2.371   0.619
  599TIP3   OH2 1718   7.063   2.430   0.164
  599TIP3    H1 1719   7.028   2.342   0.142
  599TIP3    H2 1720   7.130   2.409   0.230
  600TIP3   OH2 1721   7.532   2.587   0.152
  600TIP3    H1 1722   7.523   2.666   0.209
  600TIP3    H2 1723   7.558   2.519   0.216
  601TIP3   OH2 1724   7.176   2.517   0.695
  601TIP3    H1 1725   7.132   2.576   0.757
  601TIP3    H2 1726   7.101   2.467   0.655
  602TIP3   OH2 1727   6.906   2.083   0.806
  602TIP3    H1 1728   6.912   2.161   0.863
  602TIP3    H2 1729   6.816   2.052   0.826
  603TIP3   OH2 1730   6.915   2.691   0.794
  603TIP3    H1 1731   6.919   2.685   0.697
  603TIP3    H2 1732   6.941   2.604   0.824
  604TIP3   OH2 1733   6.557   2.227   0.728
  604TIP3    H1 1734   6.483   2.201   0.669
  604TIP3    H2 1735   6.586   2.141   0.764
  605TIP3   OH2 1736   6.391   2.410   0.368
  605TIP3    H1 1737   6.487   2.412   0.360
  605TIP3    H2 1738   6.373   2.483   0.429
  606TIP3   OH2 1739   7.370   2.644   0.552
  606TIP3    H1 1740   7.375   2.735   0.589
  606TIP3    H2 1741   7.303   2.604   0.611
  607TIP3   OH2 1742   6.537   2.703  -0.019
  607TIP3    H1 1743   6.611   2.657   0.027
  607TIP3    H2 1744   6.477   2.629  -0.034
  608TIP3   OH2 1745   6.713   2.439   0.780
  608TIP3    H1 1746   6.788   2.397   0.829
  608TIP3    H2 1747   6.665   2.357   0.752
  609TIP3   OH2 1748   7.637   2.030   0.914
  609TIP3    H1 1749   7.592   1.955   0.957
  609TIP3    H2 1750   7.707   1.987   0.862
  610TIP3   OH2 1751   6.838   1.761   0.815
  610TIP3    H1 1752   6.900   1.835   0.800
  610TIP3    H2 1753   6.876   1.697   0.755
  611TIP3   OH2 1754   7.909   3.255   0.538
  611TIP3    H1 1755   7.914   3.227   0.446
  611TIP3    H2 1756   8.001   3.240   0.563
  612TIP3   OH2 1757   6.909   2.336   0.948
  612TIP3    H1 1758   6.991   2.349   1.000
  612TIP3    H2 1759   6.846   2.319   1.021
  613TIP3   OH2 1760   7.528   2.388   0.630
  613TIP3    H1 1761   7.501   2.374   0.722
  613TIP3    H2 1762   7.464   2.453   0.598
  614TIP3   OH2 1763   6.651   2.015   0.879
  614TIP3    H1 1764   6.673   1.990   0.971
  614TIP3    H2 1765   6.593   1.940   0.853
  615TIP3   OH2 1766   7.395   2.157   0.872
  615TIP3    H1 1767   7.322   2.093   0.859
  615TIP3    H2 1768   7.473   2.101   0.888
  616TIP3   OH2 1769   7.661   2.658   0.462
  616TIP3    H1 1770   7.567   2.632   0.465
  616TIP3    H2 1771   7.670   2.692   0.554
  617TIP3   OH2 1772   7.144   2.707   0.377
  617TIP3    H1 1773   7.170   2.789   0.329
  617TIP3    H2 1774   7.229   2.682   0.417
  618TIP3   OH2 1775   7.756   2.910   0.401
  618TIP3    H1 1776   7.717   2.820   0.393
  618TIP3    H2 1777   7.817   2.914   0.325
  619TIP3   OH2 1778   6.882   1.525   0.993
  619TIP3    H1 1779   6.819   1.592   0.964
  619TIP3    H2 1780   6.932   1.509   0.910
  620TIP3   OH2 1781   6.592   2.597   0.524
  620TIP3    H1 1782   6.639   2.515   0.536
  620TIP3    H2 1783   6.662   2.663   0.526
  621TIP3   OH2 1784   6.407   2.414  -0.128
  621TIP3    H1 1785   6.364   2.395  -0.044
  621TIP3    H2 1786   6.333   2.420  -0.191
  622TIP3   OH2 1787   7.068   2.866   0.992
  622TIP3    H1 1788   7.161   2.839   0.994
  622TIP3    H2 1789   7.038   2.828   0.907
  623TIP3   OH2 1790   7.682   2.753   0.712
  623TIP3    H1 1791   7.671   2.690   0.786
  623TIP3    H2 1792   7.745   2.818   0.748
  624TIP3   OH2 1793   6.713   2.307   1.138
  624TIP3    H1 1794   6.728   2.211   1.151
  624TIP3    H2 1795   6.624   2.305   1.097
  625TIP3   OH2 1796   7.316   2.409   0.913
  625TIP3    H1 1797   7.277   2.411   0.824
  625TIP3    H2 1798   7.357   2.319   0.914
  626TIP3   OH2 1799   7.804   2.379   0.502
  626TIP3    H1 1800   7.784   2.405   0.411
  626TIP3    H2 1801   7.716   2.387   0.543
  627TIP3   OH2 1802   6.836   2.046   1.115
  627TIP3    H1 1803   6.903   1.978   1.100
  627TIP3    H2 1804   6.859   2.075   1.206
  628TIP3   OH2 1805   7.174   2.018   0.798
  628TIP3    H1 1806   7.080   2.038   0.816
  628TIP3    H2 1807   7.167   1.982   0.709
  629TIP3   OH2 1808   7.675   2.333   0.920
  629TIP3    H1 1809   7.759   2.298   0.883
  629TIP3    H2 1810   7.654   2.262   0.983
  630TIP3   OH2 1811   7.154   1.852   1.123
  630TIP3    H1 1812   7.106   1.774   1.158
  630TIP3    H2 1813   7.177   1.824   1.033
  631TIP3   OH2 1814   7.490   1.847   1.036
  631TIP3    H1 1815   7.490   1.828   1.131
  631TIP3    H2 1816   7.476   1.757   1.002
  632TIP3   OH2 1817   7.031   1.626   1.207
  632TIP3    H1 1818   6.991   1.551   1.160
  632TIP3    H2 1819   7.057   1.588   1.294
  633TIP3   OH2 1820   6.188   2.720  -0.057
  633TIP3    H1 1821   6.129   2.656  -0.101
  633TIP3    H2 1822   6.239   2.662   0.003
  634TIP3   OH2 1823   6.322   2.562   0.128
  634TIP3    H1 1824   6.311   2.490   0.193
  634TIP3    H2 1825   6.372   2.626   0.181
  635TIP3   OH2 1826   6.527   1.977   0.476
  635TIP3    H1 1827   6.528   1.928   0.393
  635TIP3    H2 1828   6.622   1.974   0.501
  636TIP3   OH2 1829   6.746   1.683   1.192
  636TIP3    H1 1830   6.832   1.660   1.155
  636TIP3    H2 1831   6.719   1.595   1.228
  637TIP3   OH2 1832   6.913   2.665   0.510
  637TIP3    H1 1833   6.877   2.747   0.468
  637TIP3    H2 1834   7.002   2.669   0.468
  638TIP3   OH2 1835   7.368   2.910   0.648
  638TIP3    H1 1836   7.413   2.910   0.735
  638TIP3    H2 1837   7.433   2.959   0.593
  639TIP3   OH2 1838   7.545   3.060   0.502
  639TIP3    H1 1839   7.621   3.009   0.467
  639TIP3    H2 1840   7.592   3.116   0.568
  640TIP3   OH2 1841   6.604   2.928   0.538
  640TIP3    H1 1842   6.510   2.944   0.514
  640TIP3    H2 1843   6.611   2.987   0.614
  641TIP3   OH2 1844   6.834   2.895   0.388
  641TIP3    H1 1845   6.750   2.913   0.435
  641TIP3    H2 1846   6.814   2.930   0.299
  642TIP3   OH2 1847   7.212   2.921   0.232
  642TIP3    H1 1848   7.157   2.937   0.152
  642TIP3    H2 1849   7.247   3.011   0.247
  643TIP3   OH2 1850   7.473   2.841   0.270
  643TIP3    H1 1851   7.378   2.849   0.250
  643TIP3    H2 1852   7.496   2.934   0.281
  644TIP3   OH2 1853   6.513   2.724   0.285
  644TIP3    H1 1854   6.530   2.689   0.374
  644TIP3    H2 1855   6.585   2.679   0.234
  645TIP3   OH2 1856   6.716   2.589   0.158
  645TIP3    H1 1857   6.735   2.500   0.195
  645TIP3    H2 1858   6.806   2.619   0.134
  646TIP3   OH2 1859   6.979   2.684   0.134
  646TIP3    H1 1860   7.011   2.591   0.127
  646TIP3    H2 1861   7.022   2.709   0.218
  647TIP3   OH2 1862   7.957   2.884   0.587
  647TIP3    H1 1863   7.879   2.879   0.529
  647TIP3    H2 1864   8.004   2.959   0.544
  648TIP3   OH2 1865   0.464   3.303   2.118
  648TIP3    H1 1866   0.469   3.246   2.039
  648TIP3    H2 1867   0.450   3.390   2.076
  649TIP3   OH2 1868   0.716   3.645   2.119
  649TIP3    H1 1869   0.715   3.549   2.135
  649TIP3    H2 1870   0.632   3.672   2.163
  650TIP3   OH2 1871   0.636   2.755   2.327
  650TIP3    H1 1872   0.554   2.794   2.364
  650TIP3    H2 1873   0.639   2.674   2.380
  651TIP3   OH2 1874   0.404   3.997   2.217
  651TIP3    H1 1875   0.403   4.020   2.122
  651TIP3    H2 1876   0.485   4.043   2.247
  652TIP3   OH2 1877   0.102   3.435   2.200
  652TIP3    H1 1878   0.020   3.463   2.243
  652TIP3    H2 1879   0.164   3.468   2.269
  653TIP3   OH2 1880   0.730   3.354   2.165
  653TIP3    H1 1881   0.632   3.352   2.170
  653TIP3    H2 1882   0.745   3.324   2.072
  654TIP3   OH2 1883   0.225   3.701   2.062
  654TIP3    H1 1884   0.145   3.647   2.054
  654TIP3    H2 1885   0.216   3.763   1.985
  655TIP3   OH2 1886  -0.476   3.630   2.676
  655TIP3    H1 1887  -0.380   3.638   2.679
  655TIP3    H2 1888  -0.497   3.661   2.587
  656TIP3   OH2 1889   0.156   3.568   2.435
  656TIP3    H1 1890   0.151   3.496   2.501
  656TIP3    H2 1891   0.235   3.619   2.464
  657TIP3   OH2 1892   0.304   3.224   2.336
  657TIP3    H1 1893   0.365   3.260   2.269
  657TIP3    H2 1894   0.223   3.207   2.286
  658TIP3   OH2 1895   0.130   3.121   2.624
  658TIP3    H1 1896   0.200   3.099   2.562
  658TIP3    H2 1897   0.136   3.049   2.690
  659TIP3   OH2 1898   0.388   2.811   2.727
  659TIP3    H1 1899   0.390   2.718   2.699
  659TIP3    H2 1900   0.398   2.857   2.642
  660TIP3   OH2 1901   0.432   3.005   2.421
  660TIP3    H1 1902   0.368   3.073   2.392
  660TIP3    H2 1903   0.508   3.033   2.365
  661TIP3   OH2 1904   0.466   2.547   2.689
  661TIP3    H1 1905   0.472   2.449   2.679
  661TIP3    H2 1906   0.466   2.552   2.787
  662TIP3   OH2 1907   0.530   3.742   1.599
  662TIP3    H1 1908   0.553   3.805   1.669
  662TIP3    H2 1909   0.597   3.764   1.531
  663TIP3   OH2 1910   0.544   3.779   1.897
  663TIP3    H1 1911   0.508   3.689   1.893
  663TIP3    H2 1912   0.625   3.762   1.947
  664TIP3   OH2 1913   0.587   3.448   2.459
  664TIP3    H1 1914   0.513   3.455   2.523
  664TIP3    H2 1915   0.630   3.536   2.467
  665TIP3   OH2 1916   0.419   3.526   1.976
  665TIP3    H1 1917   0.350   3.590   2.001
  665TIP3    H2 1918   0.397   3.503   1.884
  666TIP3   OH2 1919   0.642   3.107   2.283
  666TIP3    H1 1920   0.722   3.050   2.280
  666TIP3    H2 1921   0.666   3.181   2.225
  667TIP3   OH2 1922   0.837   2.928   2.310
  667TIP3    H1 1923   0.764   2.864   2.323
  667TIP3    H2 1924   0.913   2.869   2.330
  668TIP3   OH2 1925   1.040   2.340   2.623
  668TIP3    H1 1926   1.079   2.255   2.594
  668TIP3    H2 1927   1.002   2.372   2.539
  669TIP3   OH2 1928   0.889   2.455   2.416
  669TIP3    H1 1929   0.810   2.444   2.471
  669TIP3    H2 1930   0.876   2.384   2.352
  670TIP3   OH2 1931  -0.180   3.713   2.342
  670TIP3    H1 1932  -0.128   3.706   2.425
  670TIP3    H2 1933  -0.114   3.752   2.281
  671TIP3   OH2 1934   0.009   3.848   2.190
  671TIP3    H1 1935   0.091   3.808   2.156
  671TIP3    H2 1936   0.048   3.909   2.257
  672TIP3   OH2 1937   0.207   3.852   1.841
  672TIP3    H1 1938   0.179   3.937   1.799
  672TIP3    H2 1939   0.219   3.795   1.762
  673TIP3   OH2 1940   0.470   3.730   2.222
  673TIP3    H1 1941   0.389   3.701   2.177
  673TIP3    H2 1942   0.454   3.827   2.225
  674TIP3   OH2 1943   1.762   3.143   1.005
  674TIP3    H1 1944   1.711   3.215   0.961
  674TIP3    H2 1945   1.689   3.088   1.040
  675TIP3   OH2 1946   1.737   3.099   1.364
  675TIP3    H1 1947   1.751   3.052   1.448
  675TIP3    H2 1948   1.694   3.029   1.312
  676TIP3   OH2 1949   1.038   2.988   1.746
  676TIP3    H1 1950   1.067   2.924   1.813
  676TIP3    H2 1951   1.099   3.061   1.760
  677TIP3   OH2 1952   1.975   3.409   1.041
  677TIP3    H1 1953   1.960   3.335   1.101
  677TIP3    H2 1954   2.003   3.481   1.101
  678TIP3   OH2 1955   1.014   3.391   1.438
  678TIP3    H1 1956   0.984   3.339   1.513
  678TIP3    H2 1957   1.108   3.405   1.455
  679TIP3   OH2 1958   1.626   3.866   1.064
  679TIP3    H1 1959   1.669   3.792   1.016
  679TIP3    H2 1960   1.622   3.830   1.154
  680TIP3   OH2 1961   1.534   3.319   1.409
  680TIP3    H1 1962   1.584   3.242   1.376
  680TIP3    H2 1963   1.611   3.375   1.433
  681TIP3   OH2 1964   2.571   2.661   1.383
  681TIP3    H1 1965   2.595   2.730   1.448
  681TIP3    H2 1966   2.490   2.701   1.346
  682TIP3   OH2 1967   1.957   2.833   1.445
  682TIP3    H1 1968   1.993   2.744   1.462
  682TIP3    H2 1969   1.927   2.820   1.352
  683TIP3   OH2 1970   2.619   2.848   1.583
  683TIP3    H1 1971   2.534   2.893   1.567
  683TIP3    H2 1972   2.634   2.869   1.677
  684TIP3   OH2 1973   1.607   3.325   0.870
  684TIP3    H1 1974   1.597   3.298   0.777
  684TIP3    H2 1975   1.577   3.417   0.867
  685TIP3   OH2 1976   1.381   3.242   1.644
  685TIP3    H1 1977   1.320   3.308   1.683
  685TIP3    H2 1978   1.424   3.296   1.575
  686TIP3   OH2 1979   2.225   2.549   1.230
  686TIP3    H1 1980   2.163   2.553   1.303
  686TIP3    H2 1981   2.245   2.643   1.218
  687TIP3   OH2 1982   1.206   3.436   1.733
  687TIP3    H1 1983   1.188   3.528   1.703
  687TIP3    H2 1984   1.128   3.424   1.793
  688TIP3   OH2 1985   2.047   3.639   1.218
  688TIP3    H1 1986   1.956   3.637   1.256
  688TIP3    H2 1987   2.046   3.727   1.174
  689TIP3   OH2 1988   2.337   2.556   1.575
  689TIP3    H1 1989   2.245   2.572   1.549
  689TIP3    H2 1990   2.383   2.568   1.491
  690TIP3   OH2 1991   1.745   3.685   0.890
  690TIP3    H1 1992   1.797   3.605   0.866
  690TIP3    H2 1993   1.806   3.753   0.852
  691TIP3   OH2 1994   1.892   3.478   0.791
  691TIP3    H1 1995   1.866   3.400   0.740
  691TIP3    H2 1996   1.926   3.440   0.874
  692TIP3   OH2 1997   2.407   3.224   1.384
  692TIP3    H1 1998   2.398   3.308   1.334
  692TIP3    H2 1999   2.482   3.192   1.330
  693TIP3   OH2 2000   1.944   3.058   0.816
  693TIP3    H1 2001   1.898   3.100   0.891
  693TIP3    H2 2002   2.029   3.031   0.856
  694TIP3   OH2 2003   2.142   3.138   1.637
  694TIP3    H1 2004   2.150   3.175   1.728
  694TIP3    H2 2005   2.052   3.096   1.642
  695TIP3   OH2 2006   1.288   3.439   1.345
  695TIP3    H1 2007   1.264   3.371   1.282
  695TIP3    H2 2008   1.378   3.411   1.371
  696TIP3   OH2 2009   1.279   3.003   1.541
  696TIP3    H1 2010   1.341   2.996   1.468
  696TIP3    H2 2011   1.309   3.086   1.584
  697TIP3   OH2 2012   1.803   3.640   1.335
  697TIP3    H1 2013   1.795   3.726   1.381
  697TIP3    H2 2014   1.788   3.576   1.406
  698TIP3   OH2 2015   1.419   3.553   1.884
  698TIP3    H1 2016   1.363   3.619   1.931
  698TIP3    H2 2017   1.350   3.506   1.834
  699TIP3   OH2 2018   1.173   3.117   1.981
  699TIP3    H1 2019   1.180   3.203   2.029
  699TIP3    H2 2020   1.078   3.098   1.996
  700TIP3   OH2 2021   1.476   3.591   0.894
  700TIP3    H1 2022   1.567   3.622   0.909
  700TIP3    H2 2023   1.434   3.674   0.863
  701TIP3   OH2 2024   1.216   3.723   1.969
  701TIP3    H1 2025   1.181   3.728   1.878
  701TIP3    H2 2026   1.135   3.705   2.022
  702TIP3   OH2 2027   2.068   3.497   0.207
  702TIP3    H1 2028   2.076   3.593   0.192
  702TIP3    H2 2029   2.161   3.468   0.200
  703TIP3   OH2 2030   0.785   3.253   1.920
  703TIP3    H1 2031   0.794   3.242   1.822
  703TIP3    H2 2032   0.820   3.167   1.950
  704TIP3   OH2 2033   0.663   3.499   1.657
  704TIP3    H1 2034   0.690   3.483   1.564
  704TIP3    H2 2035   0.630   3.590   1.647
  705TIP3   OH2 2036   2.516   3.908   1.605
  705TIP3    H1 2037   2.514   3.812   1.619
  705TIP3    H2 2038   2.431   3.934   1.648
  706TIP3   OH2 2039   1.618   3.686   1.741
  706TIP3    H1 2040   1.621   3.779   1.772
  706TIP3    H2 2041   1.548   3.650   1.798
  707TIP3   OH2 2042   1.390   3.828   0.767
  707TIP3    H1 2043   1.349   3.794   0.684
  707TIP3    H2 2044   1.364   3.922   0.767
  708TIP3   OH2 2045   1.604   3.734   0.380
  708TIP3    H1 2046   1.670   3.674   0.342
  708TIP3    H2 2047   1.636   3.747   0.472
  709TIP3   OH2 2048   1.628   3.778   0.643
  709TIP3    H1 2049   1.548   3.789   0.699
  709TIP3    H2 2050   1.677   3.713   0.695
  710TIP3   OH2 2051   2.400   3.033   1.878
  710TIP3    H1 2052   2.319   3.022   1.828
  710TIP3    H2 2053   2.428   2.939   1.886
  711TIP3   OH2 2054   0.997   3.434   1.908
  711TIP3    H1 2055   1.048   3.422   1.991
  711TIP3    H2 2056   0.920   3.376   1.923
  712TIP3   OH2 2057   1.935   2.387   1.884
  712TIP3    H1 2058   2.004   2.353   1.945
  712TIP3    H2 2059   1.852   2.364   1.930
  713TIP3   OH2 2060   2.171   2.828   1.808
  713TIP3    H1 2061   2.130   2.800   1.894
  713TIP3    H2 2062   2.098   2.876   1.768
  714TIP3   OH2 2063   1.335   2.781   1.704
  714TIP3    H1 2064   1.271   2.786   1.778
  714TIP3    H2 2065   1.304   2.855   1.648
  715TIP3   OH2 2066   1.879   3.028   2.032
  715TIP3    H1 2067   1.856   2.957   2.096
  715TIP3    H2 2068   1.971   3.047   2.059
  716TIP3   OH2 2069   1.846   2.778   1.200
  716TIP3    H1 2070   1.842   2.828   1.117
  716TIP3    H2 2071   1.858   2.687   1.162
  717TIP3   OH2 2072   1.151   2.803   1.926
  717TIP3    H1 2073   1.186   2.873   1.983
  717TIP3    H2 2074   1.146   2.727   1.989
  718TIP3   OH2 2075   1.897   3.024   1.623
  718TIP3    H1 2076   1.914   2.951   1.558
  718TIP3    H2 2077   1.851   2.973   1.693
  719TIP3   OH2 2078   2.034   2.565   1.475
  719TIP3    H1 2079   2.002   2.571   1.568
  719TIP3    H2 2080   1.960   2.515   1.435
  720TIP3   OH2 2081   2.205   4.250   1.704
  720TIP3    H1 2082   2.201   4.278   1.611
  720TIP3    H2 2083   2.278   4.303   1.739
  721TIP3   OH2 2084   1.160   3.361   2.127
  721TIP3    H1 2085   1.241   3.393   2.173
  721TIP3    H2 2086   1.096   3.363   2.201
  722TIP3   OH2 2087   1.650   2.817   1.401
  722TIP3    H1 2088   1.724   2.790   1.344
  722TIP3    H2 2089   1.659   2.759   1.478
  723TIP3   OH2 2090   1.601   2.711   1.679
  723TIP3    H1 2091   1.514   2.754   1.690
  723TIP3    H2 2092   1.662   2.774   1.722
  724TIP3   OH2 2093   1.740   3.420   1.764
  724TIP3    H1 2094   1.756   3.402   1.858
  724TIP3    H2 2095   1.704   3.510   1.766
  725TIP3   OH2 2096   0.911   3.052   2.058
  725TIP3    H1 2097   0.938   3.042   2.152
  725TIP3    H2 2098   0.846   2.981   2.050
  726TIP3   OH2 2099   1.636   3.159   2.073
  726TIP3    H1 2100   1.576   3.098   2.027
  726TIP3    H2 2101   1.724   3.126   2.045
  727TIP3   OH2 2102   1.893   3.688   1.645
  727TIP3    H1 2103   1.798   3.686   1.668
  727TIP3    H2 2104   1.929   3.729   1.727
  728TIP3   OH2 2105   2.519   3.616   1.651
  728TIP3    H1 2106   2.423   3.623   1.649
  728TIP3    H2 2107   2.538   3.577   1.563
  729TIP3   OH2 2108   2.007   3.574   0.472
  729TIP3    H1 2109   1.973   3.507   0.533
  729TIP3    H2 2110   2.015   3.527   0.387
  730TIP3   OH2 2111   2.018   3.185   1.351
  730TIP3    H1 2112   1.922   3.168   1.348
  730TIP3    H2 2113   2.043   3.135   1.272
  731TIP3   OH2 2114   1.400   3.773   1.535
  731TIP3    H1 2115   1.440   3.847   1.485
  731TIP3    H2 2116   1.476   3.743   1.588
  732TIP3   OH2 2117   1.778   3.407   1.495
  732TIP3    H1 2118   1.773   3.414   1.593
  732TIP3    H2 2119   1.847   3.341   1.483
  733TIP3   OH2 2120   2.036   3.939   1.544
  733TIP3    H1 2121   1.956   3.883   1.537
  733TIP3    H2 2122   2.020   4.004   1.472
  734TIP3   OH2 2123   2.102   3.779   0.193
  734TIP3    H1 2124   2.150   3.856   0.159
  734TIP3    H2 2125   2.021   3.824   0.226
  735TIP3   OH2 2126   1.118   2.590   2.099
  735TIP3    H1 2127   1.028   2.558   2.114
  735TIP3    H2 2128   1.170   2.521   2.143
  736TIP3   OH2 2129   1.920   3.234   0.601
  736TIP3    H1 2130   1.919   3.165   0.670
  736TIP3    H2 2131   2.016   3.239   0.583
  737TIP3   OH2 2132   0.877   3.677   1.700
  737TIP3    H1 2133   0.859   3.583   1.715
  737TIP3    H2 2134   0.907   3.706   1.786
  738TIP3   OH2 2135   1.960   2.617   1.741
  738TIP3    H1 2136   2.038   2.648   1.789
  738TIP3    H2 2137   1.939   2.536   1.792
  739TIP3   OH2 2138   1.798   2.865   1.817
  739TIP3    H1 2139   1.814   2.919   1.898
  739TIP3    H2 2140   1.847   2.783   1.838
  740TIP3   OH2 2141   2.437   2.767   1.798
  740TIP3    H1 2142   2.340   2.771   1.808
  740TIP3    H2 2143   2.445   2.712   1.719
  741TIP3   OH2 2144   2.056   3.912   1.136
  741TIP3    H1 2145   2.013   3.960   1.062
  741TIP3    H2 2146   2.150   3.933   1.116
  742TIP3   OH2 2147   0.827   3.945   2.119
  742TIP3    H1 2148   0.914   3.948   2.165
  742TIP3    H2 2149   0.811   3.849   2.118
  743TIP3   OH2 2150   1.302   3.909   2.165
  743TIP3    H1 2151   1.399   3.912   2.172
  743TIP3    H2 2152   1.290   3.848   2.090
  744TIP3   OH2 2153   1.958   3.801   1.885
  744TIP3    H1 2154   1.941   3.743   1.962
  744TIP3    H2 2155   2.028   3.860   1.918
  745TIP3   OH2 2156   0.960   3.351   2.319
  745TIP3    H1 2157   0.977   3.255   2.324
  745TIP3    H2 2158   0.873   3.354   2.274
  746TIP3   OH2 2159   1.568   3.435   2.091
  746TIP3    H1 2160   1.524   3.455   2.005
  746TIP3    H2 2161   1.595   3.342   2.081
  747TIP3   OH2 2162   1.087   3.086   2.295
  747TIP3    H1 2163   1.165   3.032   2.276
  747TIP3    H2 2164   1.109   3.123   2.383
  748TIP3   OH2 2165   1.411   2.969   1.963
  748TIP3    H1 2166   1.334   3.030   1.964
  748TIP3    H2 2167   1.460   3.001   1.883
  749TIP3   OH2 2168   1.928   3.363   2.093
  749TIP3    H1 2169   2.024   3.373   2.093
  749TIP3    H2 2170   1.916   3.299   2.166
  750TIP3   OH2 2171   1.535   2.758   2.086
  750TIP3    H1 2172   1.530   2.677   2.032
  750TIP3    H2 2173   1.490   2.824   2.030
  751TIP3   OH2 2174   1.520   2.540   1.885
  751TIP3    H1 2175   1.569   2.585   1.813
  751TIP3    H2 2176   1.434   2.529   1.843
  752TIP3   OH2 2177   1.562   3.077   1.765
  752TIP3    H1 2178   1.645   3.090   1.718
  752TIP3    H2 2179   1.505   3.146   1.726
  753TIP3   OH2 2180   2.148   3.044   2.145
  753TIP3    H1 2181   2.188   2.959   2.171
  753TIP3    H2 2182   2.227   3.098   2.131
  754TIP3   OH2 2183   2.198   3.307   1.855
  754TIP3    H1 2184   2.147   3.389   1.864
  754TIP3    H2 2185   2.290   3.338   1.854
  755TIP3   OH2 2186   1.408   2.874   2.315
  755TIP3    H1 2187   1.344   2.802   2.332
  755TIP3    H2 2188   1.446   2.846   2.229
  756TIP3   OH2 2189   1.678   2.317   1.959
  756TIP3    H1 2190   1.615   2.388   1.936
  756TIP3    H2 2191   1.622   2.236   1.951
  757TIP3   OH2 2192   1.797   2.814   2.177
  757TIP3    H1 2193   1.791   2.800   2.273
  757TIP3    H2 2194   1.705   2.788   2.151
  758TIP3   OH2 2195   2.034   2.754   2.028
  758TIP3    H1 2196   1.961   2.761   2.093
  758TIP3    H2 2197   2.109   2.727   2.086
  759TIP3   OH2 2198   2.260   2.699   2.177
  759TIP3    H1 2199   2.276   2.605   2.198
  759TIP3    H2 2200   2.258   2.740   2.266
  760TIP3   OH2 2201   1.258   2.651   2.375
  760TIP3    H1 2202   1.260   2.560   2.339
  760TIP3    H2 2203   1.296   2.636   2.464
  761TIP3   OH2 2204   1.761   2.319   2.221
  761TIP3    H1 2205   1.831   2.250   2.216
  761TIP3    H2 2206   1.727   2.316   2.130
  762TIP3   OH2 2207   1.832   2.535   2.375
  762TIP3    H1 2208   1.809   2.462   2.314
  762TIP3    H2 2209   1.752   2.592   2.370
  763TIP3   OH2 2210   2.308   4.006   1.093
  763TIP3    H1 2211   2.333   4.037   1.182
  763TIP3    H2 2212   2.369   4.055   1.036
  764TIP3   OH2 2213   2.338   4.028   1.373
  764TIP3    H1 2214   2.295   3.940   1.373
  764TIP3    H2 2215   2.412   4.010   1.432
  765TIP3   OH2 2216   2.381   3.697   1.944
  765TIP3    H1 2217   2.310   3.709   2.010
  765TIP3    H2 2218   2.423   3.786   1.945
  766TIP3   OH2 2219   2.200   3.229   0.589
  766TIP3    H1 2220   2.271   3.288   0.556
  766TIP3    H2 2221   2.227   3.214   0.681
  767TIP3   OH2 2222   2.388   3.458   1.226
  767TIP3    H1 2223   2.428   3.403   1.157
  767TIP3    H2 2224   2.364   3.538   1.175
  768TIP3   OH2 2225   2.222   3.779   1.405
  768TIP3    H1 2226   2.150   3.815   1.460
  768TIP3    H2 2227   2.173   3.722   1.343
  769TIP3   OH2 2228   2.258   3.001   0.448
  769TIP3    H1 2229   2.178   3.004   0.395
  769TIP3    H2 2230   2.242   3.075   0.510
  770TIP3   OH2 2231   2.605   3.189   1.798
  770TIP3    H1 2232   2.531   3.135   1.832
  770TIP3    H2 2233   2.680   3.128   1.810
  771TIP3   OH2 2234   2.326   2.793   1.322
  771TIP3    H1 2235   2.342   2.848   1.243
  771TIP3    H2 2236   2.328   2.859   1.393
  772TIP3   OH2 2237   2.372   2.983   1.532
  772TIP3    H1 2238   2.294   3.011   1.583
  772TIP3    H2 2239   2.399   3.066   1.488
  773TIP3   OH2 2240   0.993   2.715   2.362
  773TIP3    H1 2241   1.088   2.696   2.348
  773TIP3    H2 2242   0.958   2.625   2.380
  774TIP3   OH2 2243   2.816   2.562   2.096
  774TIP3    H1 2244   2.879   2.497   2.057
  774TIP3    H2 2245   2.796   2.619   2.019
  775TIP3   OH2 2246   2.695   2.709   1.898
  775TIP3    H1 2247   2.609   2.745   1.928
  775TIP3    H2 2248   2.664   2.633   1.845
  776TIP3   OH2 2249   1.898   3.868   0.757
  776TIP3    H1 2250   1.946   3.858   0.672
  776TIP3    H2 2251   1.948   3.939   0.799
  777TIP3   OH2 2252   0.993   3.676   2.134
  777TIP3    H1 2253   0.900   3.649   2.123
  777TIP3    H2 2254   1.007   3.663   2.228
  778TIP3   OH2 2255   1.179   3.705   1.685
  778TIP3    H1 2256   1.118   3.772   1.647
  778TIP3    H2 2257   1.261   3.730   1.638
  779TIP3   OH2 2258   1.615   3.956   1.818
  779TIP3    H1 2259   1.654   3.956   1.909
  779TIP3    H2 2260   1.682   4.008   1.770
  780TIP3   OH2 2261   1.796   4.107   1.677
  780TIP3    H1 2262   1.871   4.056   1.644
  780TIP3    H2 2263   1.842   4.164   1.743
  781TIP3   OH2 2264   2.591   2.468   1.780
  781TIP3    H1 2265   2.499   2.453   1.752
  781TIP3    H2 2266   2.627   2.376   1.773
  782TIP3   OH2 2267   0.854   3.986   1.704
  782TIP3    H1 2268   0.761   4.008   1.682
  782TIP3    H2 2269   0.855   4.006   1.798
  783TIP3   OH2 2270   1.087   3.944   1.564
  783TIP3    H1 2271   1.002   3.959   1.611
  783TIP3    H2 2272   1.065   3.974   1.474
  784TIP3   OH2 2273   1.510   3.974   1.364
  784TIP3    H1 2274   1.440   3.995   1.300
  784TIP3    H2 2275   1.523   4.061   1.407
  785TIP3   OH2 2276   1.779   3.909   1.409
  785TIP3    H1 2277   1.685   3.931   1.394
  785TIP3    H2 2278   1.823   3.989   1.376
  786TIP3   OH2 2279   1.986   4.105   1.330
  786TIP3    H1 2280   1.973   4.190   1.283
  786TIP3    H2 2281   2.012   4.045   1.257
  787TIP3   OH2 2282   0.771   3.775   1.463
  787TIP3    H1 2283   0.818   3.752   1.546
  787TIP3    H2 2284   0.815   3.714   1.400
  788TIP3   OH2 2285   0.949   3.630   1.308
  788TIP3    H1 2286   0.966   3.547   1.356
  788TIP3    H2 2287   1.038   3.669   1.301
  789TIP3   OH2 2288   1.222   3.727   1.312
  789TIP3    H1 2289   1.254   3.636   1.303
  789TIP3    H2 2290   1.264   3.752   1.396
  790TIP3   OH2 2291   2.333   2.299   1.323
  790TIP3    H1 2292   2.376   2.330   1.241
  790TIP3    H2 2293   2.242   2.325   1.306
  791TIP3   OH2 2294   2.435   2.360   1.079
  791TIP3    H1 2295   2.527   2.334   1.057
  791TIP3    H2 2296   2.432   2.455   1.066
  792TIP3   OH2 2297   2.039   3.840   0.519
  792TIP3    H1 2298   2.031   3.743   0.506
  792TIP3    H2 2299   1.992   3.873   0.439
  793TIP3   OH2 2300   1.253   2.384   2.307
  793TIP3    H1 2301   1.215   2.306   2.349
  793TIP3    H2 2302   1.347   2.376   2.336
  794TIP3   OH2 2303   1.500   2.372   2.428
  794TIP3    H1 2304   1.586   2.345   2.390
  794TIP3    H2 2305   1.488   2.302   2.496
  795TIP3   OH2 2306   2.325   2.431   2.214
  795TIP3    H1 2307   2.343   2.398   2.305
  795TIP3    H2 2308   2.414   2.425   2.174
  796TIP3   OH2 2309   2.269   3.983   1.700
  796TIP3    H1 2310   2.187   3.954   1.655
  796TIP3    H2 2311   2.249   4.079   1.708
  797TIP3   OH2 2312   3.532   3.357   0.472
  797TIP3    H1 2313   3.502   3.448   0.453
  797TIP3    H2 2314   3.455   3.306   0.440
  798TIP3   OH2 2315   3.530   3.356   0.853
  798TIP3    H1 2316   3.561   3.327   0.940
  798TIP3    H2 2317   3.489   3.275   0.819
  799TIP3   OH2 2318   2.835   3.249   1.218
  799TIP3    H1 2319   2.867   3.187   1.286
  799TIP3    H2 2320   2.911   3.308   1.208
  800TIP3   OH2 2321   3.773   3.658   0.534
  800TIP3    H1 2322   3.758   3.588   0.599
  800TIP3    H2 2323   3.802   3.732   0.590
  801TIP3   OH2 2324   2.800   3.664   0.944
  801TIP3    H1 2325   2.794   3.566   0.946
  801TIP3    H2 2326   2.897   3.674   0.939
  802TIP3   OH2 2327   2.500   2.882   0.750
  802TIP3    H1 2328   2.448   2.937   0.812
  802TIP3    H2 2329   2.431   2.819   0.728
  803TIP3   OH2 2330   2.613   3.163   0.908
  803TIP3    H1 2331   2.594   3.070   0.926
  803TIP3    H2 2332   2.613   3.166   0.812
  804TIP3   OH2 2333   3.423   4.122   0.551
  804TIP3    H1 2334   3.468   4.050   0.502
  804TIP3    H2 2335   3.414   4.083   0.639
  805TIP3   OH2 2336   3.329   3.582   0.902
  805TIP3    H1 2337   3.367   3.505   0.857
  805TIP3    H2 2338   3.412   3.627   0.926
  806TIP3   OH2 2339   4.341   2.903   0.899
  806TIP3    H1 2340   4.371   2.985   0.942
  806TIP3    H2 2341   4.363   2.921   0.806
  807TIP3   OH2 2342   3.740   3.084   0.935
  807TIP3    H1 2343   3.783   2.999   0.955
  807TIP3    H2 2344   3.710   3.068   0.843
  808TIP3   OH2 2345   3.072   2.741   0.903
  808TIP3    H1 2346   3.059   2.814   0.839
  808TIP3    H2 2347   3.033   2.667   0.850
  809TIP3   OH2 2348   3.772   2.835   0.522
  809TIP3    H1 2349   3.844   2.817   0.587
  809TIP3    H2 2350   3.826   2.868   0.447
  810TIP3   OH2 2351   2.710   2.904   1.006
  810TIP3    H1 2352   2.792   2.954   1.021
  810TIP3    H2 2353   2.723   2.875   0.913
  811TIP3   OH2 2354   3.154   3.143   0.799
  811TIP3    H1 2355   3.248   3.118   0.812
  811TIP3    H2 2356   3.115   3.059   0.767
  812TIP3   OH2 2357   4.416   3.111   1.068
  812TIP3    H1 2358   4.332   3.157   1.048
  812TIP3    H2 2359   4.425   3.131   1.162
  813TIP3   OH2 2360   3.082   2.719   1.341
  813TIP3    H1 2361   3.031   2.768   1.274
  813TIP3    H2 2362   3.030   2.739   1.422
  814TIP3   OH2 2363   3.425   3.579   0.341
  814TIP3    H1 2364   3.378   3.558   0.260
  814TIP3    H2 2365   3.379   3.662   0.367
  815TIP3   OH2 2366   3.182   3.501   1.129
  815TIP3    H1 2367   3.119   3.567   1.167
  815TIP3    H2 2368   3.223   3.552   1.056
  816TIP3   OH2 2369   3.984   2.836   0.692
  816TIP3    H1 2370   3.976   2.784   0.773
  816TIP3    H2 2371   4.037   2.912   0.722
  817TIP3   OH2 2372   2.942   2.816   1.129
  817TIP3    H1 2373   2.993   2.898   1.149
  817TIP3    H2 2374   2.993   2.786   1.049
  818TIP3   OH2 2375   3.009   3.695   1.226
  818TIP3    H1 2376   2.984   3.781   1.188
  818TIP3    H2 2377   2.930   3.679   1.282
  819TIP3   OH2 2378   2.404   3.384   0.468
  819TIP3    H1 2379   2.366   3.406   0.380
  819TIP3    H2 2380   2.436   3.471   0.499
  820TIP3   OH2 2381   3.845   3.902   0.703
  820TIP3    H1 2382   3.755   3.892   0.743
  820TIP3    H2 2383   3.835   3.987   0.657
  821TIP3   OH2 2384   4.134   2.805   1.067
  821TIP3    H1 2385   4.046   2.831   1.034
  821TIP3    H2 2386   4.193   2.835   0.995
  822TIP3   OH2 2387   3.430   2.444   1.045
  822TIP3    H1 2388   3.420   2.349   1.065
  822TIP3    H2 2389   3.352   2.480   1.094
  823TIP3   OH2 2390   3.546   3.947   0.377
  823TIP3    H1 2391   3.596   3.864   0.357
  823TIP3    H2 2392   3.608   4.012   0.337
  824TIP3   OH2 2393   3.690   3.732   0.282
  824TIP3    H1 2394   3.647   3.654   0.245
  824TIP3    H2 2395   3.725   3.697   0.367
  825TIP3   OH2 2396   4.071   3.814   1.046
  825TIP3    H1 2397   4.058   3.736   0.987
  825TIP3    H2 2398   4.053   3.888   0.984
  826TIP3   OH2 2399   3.362   3.209   0.304
  826TIP3    H1 2400   3.281   3.260   0.283
  826TIP3    H2 2401   3.406   3.202   0.218
  827TIP3   OH2 2402   3.312   2.984   0.037
  827TIP3    H1 2403   3.387   3.038   0.068
  827TIP3    H2 2404   3.356   2.907   0.001
  828TIP3   OH2 2405   4.266   3.452   0.891
  828TIP3    H1 2406   4.182   3.503   0.897
  828TIP3    H2 2407   4.294   3.476   0.800
  829TIP3   OH2 2408   3.709   3.289   0.275
  829TIP3    H1 2409   3.654   3.313   0.353
  829TIP3    H2 2410   3.793   3.263   0.319
  830TIP3   OH2 2411   3.944   3.330   1.186
  830TIP3    H1 2412   3.940   3.413   1.238
  830TIP3    H2 2413   3.857   3.334   1.141
  831TIP3   OH2 2414   2.941   3.289   0.691
  831TIP3    H1 2415   2.899   3.230   0.625
  831TIP3    H2 2416   3.018   3.235   0.721
  832TIP3   OH2 2417   3.072   3.701   0.840
  832TIP3    H1 2418   3.049   3.657   0.757
  832TIP3    H2 2419   3.161   3.665   0.858
  833TIP3   OH2 2420   3.087   3.253   1.051
  833TIP3    H1 2421   3.112   3.237   0.958
  833TIP3    H2 2422   3.122   3.343   1.067
  834TIP3   OH2 2423   3.603   3.896   0.823
  834TIP3    H1 2424   3.590   3.976   0.877
  834TIP3    H2 2425   3.587   3.824   0.886
  835TIP3   OH2 2426   3.216   3.816   1.369
  835TIP3    H1 2427   3.156   3.878   1.416
  835TIP3    H2 2428   3.150   3.763   1.320
  836TIP3   OH2 2429   3.547   3.148   0.100
  836TIP3    H1 2430   3.605   3.207   0.153
  836TIP3    H2 2431   3.575   3.173   0.008
  837TIP3   OH2 2432   2.971   3.372   1.472
  837TIP3    H1 2433   2.975   3.460   1.516
  837TIP3    H2 2434   2.876   3.353   1.480
  838TIP3   OH2 2435   3.292   3.827   0.379
  838TIP3    H1 2436   3.371   3.882   0.394
  838TIP3    H2 2437   3.232   3.888   0.334
  839TIP3   OH2 2438   3.010   3.983   1.457
  839TIP3    H1 2439   2.973   3.984   1.366
  839TIP3    H2 2440   2.932   3.961   1.511
  840TIP3   OH2 2441   4.069   2.393   0.148
  840TIP3    H1 2442   3.985   2.405   0.198
  840TIP3    H2 2443   4.074   2.477   0.099
  841TIP3   OH2 2444   2.809   3.129   0.499
  841TIP3    H1 2445   2.746   3.179   0.443
  841TIP3    H2 2446   2.764   3.045   0.508
  842TIP3   OH2 2447   3.861   3.765  -0.311
  842TIP3    H1 2448   3.875   3.859  -0.284
  842TIP3    H2 2449   3.948   3.726  -0.293
  843TIP3   OH2 2450   2.588   3.514   1.410
  843TIP3    H1 2451   2.528   3.498   1.335
  843TIP3    H2 2452   2.628   3.426   1.427
  844TIP3   OH2 2453   2.442   3.706   1.041
  844TIP3    H1 2454   2.538   3.702   1.028
  844TIP3    H2 2455   2.432   3.787   1.092
  845TIP3   OH2 2456   4.308   4.159   1.090
  845TIP3    H1 2457   4.306   4.062   1.105
  845TIP3    H2 2458   4.225   4.184   1.137
  846TIP3   OH2 2459   3.413   3.944   1.227
  846TIP3    H1 2460   3.412   4.037   1.259
  846TIP3    H2 2461   3.342   3.905   1.281
  847TIP3   OH2 2462   3.173   4.073   0.176
  847TIP3    H1 2463   3.129   4.055   0.091
  847TIP3    H2 2464   3.140   4.162   0.200
  848TIP3   OH2 2465   2.611   3.924   0.563
  848TIP3    H1 2466   2.659   3.915   0.648
  848TIP3    H2 2467   2.555   3.844   0.566
  849TIP3   OH2 2468   3.368   3.975  -0.167
  849TIP3    H1 2469   3.426   3.916  -0.220
  849TIP3    H2 2470   3.414   3.977  -0.081
  850TIP3   OH2 2471   3.430   4.025   0.100
  850TIP3    H1 2472   3.338   4.032   0.135
  850TIP3    H2 2473   3.474   3.980   0.173
  851TIP3   OH2 2474   4.198   3.291   1.365
  851TIP3    H1 2475   4.115   3.302   1.317
  851TIP3    H2 2476   4.213   3.195   1.355
  852TIP3   OH2 2477   2.793   3.696   1.392
  852TIP3    H1 2478   2.843   3.683   1.476
  852TIP3    H2 2479   2.717   3.635   1.404
  853TIP3   OH2 2480   3.187   2.517   1.175
  853TIP3    H1 2481   3.098   2.494   1.145
  853TIP3    H2 2482   3.167   2.597   1.227
  854TIP3   OH2 2483   3.727   2.637   1.371
  854TIP3    H1 2484   3.796   2.608   1.434
  854TIP3    H2 2485   3.644   2.616   1.417
  855TIP3   OH2 2486   3.967   3.066   1.290
  855TIP3    H1 2487   3.916   3.061   1.374
  855TIP3    H2 2488   3.941   3.153   1.255
  856TIP3   OH2 2489   3.628   3.206  -0.152
  856TIP3    H1 2490   3.602   3.163  -0.234
  856TIP3    H2 2491   3.708   3.254  -0.180
  857TIP3   OH2 2492   3.351   2.582   0.148
  857TIP3    H1 2493   3.305   2.579   0.234
  857TIP3    H2 2494   3.341   2.491   0.117
  858TIP3   OH2 2495   3.106   3.024   1.191
  858TIP3    H1 2496   3.071   3.057   1.276
  858TIP3    H2 2497   3.103   3.106   1.136
  859TIP3   OH2 2498   3.007   2.926   0.716
  859TIP3    H1 2499   2.914   2.897   0.724
  859TIP3    H2 2500   3.028   2.886   0.628
  860TIP3   OH2 2501   3.501   3.010   0.438
  860TIP3    H1 2502   3.448   3.080   0.394
  860TIP3    H2 2503   3.554   2.976   0.363
  861TIP3   OH2 2504   3.673   3.287   1.522
  861TIP3    H1 2505   3.652   3.214   1.585
  861TIP3    H2 2506   3.767   3.302   1.544
  862TIP3   OH2 2507   3.656   3.037   0.676
  862TIP3    H1 2508   3.595   3.065   0.604
  862TIP3    H2 2509   3.690   2.956   0.633
  863TIP3   OH2 2510   2.939   3.064   1.410
  863TIP3    H1 2511   2.977   3.129   1.470
  863TIP3    H2 2512   2.934   2.984   1.466
  864TIP3   OH2 2513   3.029   2.585   0.143
  864TIP3    H1 2514   3.017   2.573   0.239
  864TIP3    H2 2515   2.957   2.530   0.108
  865TIP3   OH2 2516   3.666   3.283   1.099
  865TIP3    H1 2517   3.699   3.211   1.040
  865TIP3    H2 2518   3.637   3.230   1.176
  866TIP3   OH2 2519   3.337   2.751   0.771
  866TIP3    H1 2520   3.256   2.742   0.826
  866TIP3    H2 2521   3.408   2.741   0.837
  867TIP3   OH2 2522   2.768   2.797   0.767
  867TIP3    H1 2523   2.675   2.804   0.737
  867TIP3    H2 2524   2.794   2.706   0.741
  868TIP3   OH2 2525   3.053   2.796   0.485
  868TIP3    H1 2526   3.147   2.808   0.460
  868TIP3    H2 2527   3.006   2.818   0.401
  869TIP3   OH2 2528   3.828   2.822   0.973
  869TIP3    H1 2529   3.793   2.833   1.064
  869TIP3    H2 2530   3.764   2.759   0.936
  870TIP3   OH2 2531   2.909   2.843   0.268
  870TIP3    H1 2532   2.818   2.817   0.248
  870TIP3    H2 2533   2.941   2.866   0.179
  871TIP3   OH2 2534   3.997   4.509   1.191
  871TIP3    H1 2535   3.995   4.533   1.097
  871TIP3    H2 2536   4.074   4.560   1.223
  872TIP3   OH2 2537   2.955   3.618   1.615
  872TIP3    H1 2538   3.035   3.649   1.660
  872TIP3    H2 2539   2.891   3.623   1.688
  873TIP3   OH2 2540   3.419   3.073   0.867
  873TIP3    H1 2541   3.490   3.034   0.815
  873TIP3    H2 2542   3.430   3.029   0.953
  874TIP3   OH2 2543   2.945   2.562   0.739
  874TIP3    H1 2544   2.914   2.483   0.787
  874TIP3    H2 2545   2.985   2.524   0.660
  875TIP3   OH2 2546   3.394   2.968   1.160
  875TIP3    H1 2547   3.307   3.010   1.171
  875TIP3    H2 2548   3.454   3.029   1.208
  876TIP3   OH2 2549   3.133   3.363   0.252
  876TIP3    H1 2550   3.062   3.295   0.243
  876TIP3    H2 2551   3.115   3.396   0.343
  877TIP3   OH2 2552   4.033   3.597   0.882
  877TIP3    H1 2553   4.055   3.647   0.801
  877TIP3    H2 2554   3.948   3.554   0.857
  878TIP3   OH2 2555   3.606   2.672   0.108
  878TIP3    H1 2556   3.511   2.647   0.108
  878TIP3    H2 2557   3.605   2.766   0.133
  879TIP3   OH2 2558   3.533   3.679   1.249
  879TIP3    H1 2559   3.556   3.657   1.340
  879TIP3    H2 2560   3.492   3.767   1.258
  880TIP3   OH2 2561   3.659   2.921   0.220
  880TIP3    H1 2562   3.755   2.923   0.235
  880TIP3    H2 2563   3.643   3.001   0.167
  881TIP3   OH2 2564   2.839   3.394   0.931
  881TIP3    H1 2565   2.861   3.359   0.843
  881TIP3    H2 2566   2.855   3.318   0.988
  882TIP3   OH2 2567   3.275   3.510   0.069
  882TIP3    H1 2568   3.231   3.598   0.079
  882TIP3    H2 2569   3.223   3.457   0.133
  883TIP3   OH2 2570   2.706   3.298   1.543
  883TIP3    H1 2571   2.737   3.309   1.635
  883TIP3    H2 2572   2.643   3.226   1.555
  884TIP3   OH2 2573   3.432   3.417   1.559
  884TIP3    H1 2574   3.375   3.358   1.508
  884TIP3    H2 2575   3.521   3.384   1.534
  885TIP3   OH2 2576   3.692   3.940   1.143
  885TIP3    H1 2577   3.596   3.937   1.157
  885TIP3    H2 2578   3.720   3.990   1.223
  886TIP3   OH2 2579   4.103   3.012   0.056
  886TIP3    H1 2580   4.042   2.967  -0.008
  886TIP3    H2 2581   4.099   3.101   0.015
  887TIP3   OH2 2582   4.321   3.869   1.134
  887TIP3    H1 2583   4.223   3.863   1.127
  887TIP3    H2 2584   4.346   3.837   1.044
  888TIP3   OH2 2585   3.812   3.822  -0.035
  888TIP3    H1 2586   3.773   3.764   0.032
  888TIP3    H2 2587   3.796   3.774  -0.117
  889TIP3   OH2 2588   3.798   3.458   0.801
  889TIP3    H1 2589   3.705   3.434   0.814
  889TIP3    H2 2590   3.832   3.379   0.756
  890TIP3   OH2 2591   2.925   3.686   0.552
  890TIP3    H1 2592   2.924   3.767   0.499
  890TIP3    H2 2593   2.831   3.669   0.563
  891TIP3   OH2 2594   2.435   3.031   0.237
  891TIP3    H1 2595   2.513   3.084   0.263
  891TIP3    H2 2596   2.394   3.012   0.323
  892TIP3   OH2 2597   3.065   3.452   0.497
  892TIP3    H1 2598   3.029   3.541   0.516
  892TIP3    H2 2599   3.028   3.401   0.572
  893TIP3   OH2 2600   3.194   4.030   1.023
  893TIP3    H1 2601   3.236   4.103   0.973
  893TIP3    H2 2602   3.270   3.994   1.072
  894TIP3   OH2 2603   2.844   3.926   0.405
  894TIP3    H1 2604   2.759   3.934   0.452
  894TIP3    H2 2605   2.876   4.019   0.408
  895TIP3   OH2 2606   3.583   3.663   0.981
  895TIP3    H1 2607   3.573   3.662   1.079
  895TIP3    H2 2608   3.663   3.610   0.969
  896TIP3   OH2 2609   3.552   3.563  -0.134
  896TIP3    H1 2610   3.609   3.533  -0.060
  896TIP3    H2 2611   3.465   3.541  -0.099
  897TIP3   OH2 2612   3.832   4.197   1.031
  897TIP3    H1 2613   3.753   4.140   1.026
  897TIP3    H2 2614   3.814   4.261   0.959
  898TIP3   OH2 2615   3.889   4.032  -0.279
  898TIP3    H1 2616   3.918   4.057  -0.369
  898TIP3    H2 2617   3.817   4.098  -0.263
  899TIP3   OH2 2618   2.916   2.805   1.548
  899TIP3    H1 2619   2.822   2.812   1.571
  899TIP3    H2 2620   2.950   2.751   1.621
  900TIP3   OH2 2621   3.718   3.490   0.081
  900TIP3    H1 2622   3.707   3.424   0.153
  900TIP3    H2 2623   3.815   3.488   0.070
  901TIP3   OH2 2624   2.633   3.893   1.180
  901TIP3    H1 2625   2.688   3.820   1.212
  901TIP3    H2 2626   2.658   3.963   1.242
  902TIP3   OH2 2627   2.921   3.544  -0.136
  902TIP3    H1 2628   2.957   3.460  -0.164
  902TIP3    H2 2629   2.894   3.528  -0.043
  903TIP3   OH2 2630   2.867   3.545   0.141
  903TIP3    H1 2631   2.941   3.517   0.197
  903TIP3    H2 2632   2.875   3.643   0.143
  904TIP3   OH2 2633   2.612   3.244   0.344
  904TIP3    H1 2634   2.543   3.286   0.399
  904TIP3    H2 2635   2.622   3.311   0.273
  905TIP3   OH2 2636   3.752   2.873   1.232
  905TIP3    H1 2637   3.833   2.910   1.271
  905TIP3    H2 2638   3.738   2.792   1.286
  906TIP3   OH2 2639   3.626   2.627   0.394
  906TIP3    H1 2640   3.620   2.646   0.298
  906TIP3    H2 2641   3.667   2.709   0.428
  907TIP3   OH2 2642   3.138   3.740   0.090
  907TIP3    H1 2643   3.051   3.771   0.122
  907TIP3    H2 2644   3.147   3.791   0.008
  908TIP3   OH2 2645   3.328   2.803   0.498
  908TIP3    H1 2646   3.392   2.875   0.481
  908TIP3    H2 2647   3.331   2.797   0.596
  909TIP3   OH2 2648   3.592   3.122   1.306
  909TIP3    H1 2649   3.613   3.175   1.385
  909TIP3    H2 2650   3.647   3.043   1.319
  910TIP3   OH2 2651   3.468   2.531   0.601
  910TIP3    H1 2652   3.466   2.608   0.660
  910TIP3    H2 2653   3.526   2.566   0.529
  911TIP3   OH2 2654   2.880   3.816   0.153
  911TIP3    H1 2655   2.850   3.888   0.092
  911TIP3    H2 2656   2.863   3.858   0.241
  912TIP3   OH2 2657   2.991   2.535   0.412
  912TIP3    H1 2658   2.994   2.625   0.448
  912TIP3    H2 2659   3.086   2.510   0.417
  913TIP3   OH2 2660   4.234   3.023   1.284
  913TIP3    H1 2661   4.136   3.022   1.295
  913TIP3    H2 2662   4.241   2.976   1.200
  914TIP3   OH2 2663   3.883   3.217   0.674
  914TIP3    H1 2664   3.807   3.157   0.686
  914TIP3    H2 2665   3.955   3.170   0.722
  915TIP3   OH2 2666   2.597   3.453   0.146
  915TIP3    H1 2667   2.671   3.515   0.159
  915TIP3    H2 2668   2.641   3.393   0.081
  916TIP3   OH2 2669   3.851   4.173   0.624
  916TIP3    H1 2670   3.808   4.220   0.549
  916TIP3    H2 2671   3.945   4.191   0.602
  917TIP3   OH2 2672   2.897   2.472   1.156
  917TIP3    H1 2673   2.888   2.428   1.069
  917TIP3    H2 2674   2.905   2.394   1.215
  918TIP3   OH2 2675   2.468   3.660   0.531
  918TIP3    H1 2676   2.396   3.691   0.588
  918TIP3    H2 2677   2.442   3.699   0.445
  919TIP3   OH2 2678   2.623   4.201   1.602
  919TIP3    H1 2679   2.709   4.202   1.650
  919TIP3    H2 2680   2.602   4.107   1.603
  920TIP3   OH2 2681   3.106   4.167   1.647
  920TIP3    H1 2682   3.200   4.147   1.656
  920TIP3    H2 2683   3.081   4.107   1.574
  921TIP3   OH2 2684   3.091   3.745  -0.204
  921TIP3    H1 2685   3.021   3.679  -0.181
  921TIP3    H2 2686   3.156   3.687  -0.245
  922TIP3   OH2 2687   3.747   4.070   1.380
  922TIP3    H1 2688   3.735   4.002   1.450
  922TIP3    H2 2689   3.822   4.122   1.413
  923TIP3   OH2 2690   3.532   3.794  -0.302
  923TIP3    H1 2691   3.549   3.713  -0.250
  923TIP3    H2 2692   3.596   3.788  -0.374
  924TIP3   OH2 2693   2.749   3.602   1.805
  924TIP3    H1 2694   2.771   3.507   1.803
  924TIP3    H2 2695   2.665   3.606   1.754
  925TIP3   OH2 2696   2.739   3.273   0.005
  925TIP3    H1 2697   2.789   3.224   0.072
  925TIP3    H2 2698   2.770   3.235  -0.078
  926TIP3   OH2 2699   3.362   3.693   1.577
  926TIP3    H1 2700   3.321   3.709   1.490
  926TIP3    H2 2701   3.393   3.600   1.569
  927TIP3   OH2 2702   3.214   3.443  -0.191
  927TIP3    H1 2703   3.234   3.477  -0.101
  927TIP3    H2 2704   3.238   3.351  -0.182
  928TIP3   OH2 2705   3.854   3.700   1.183
  928TIP3    H1 2706   3.928   3.746   1.140
  928TIP3    H2 2707   3.783   3.764   1.170
  929TIP3   OH2 2708   2.872   3.339   1.783
  929TIP3    H1 2709   2.949   3.284   1.764
  929TIP3    H2 2710   2.897   3.374   1.872
  930TIP3   OH2 2711   2.945   3.160   0.221
  930TIP3    H1 2712   2.913   3.119   0.303
  930TIP3    H2 2713   2.972   3.082   0.169
  931TIP3   OH2 2714   3.202   3.219   1.438
  931TIP3    H1 2715   3.130   3.285   1.446
  931TIP3    H2 2716   3.258   3.258   1.368
  932TIP3   OH2 2717   3.035   2.952   0.043
  932TIP3    H1 2718   3.043   2.891  -0.031
  932TIP3    H2 2719   3.130   2.972   0.058
  933TIP3   OH2 2720   3.725   3.628   1.581
  933TIP3    H1 2721   3.806   3.604   1.535
  933TIP3    H2 2722   3.721   3.562   1.653
  934TIP3   OH2 2723   3.857   3.283  -0.297
  934TIP3    H1 2724   3.861   3.234  -0.380
  934TIP3    H2 2725   3.863   3.375  -0.326
  935TIP3   OH2 2726   3.329   3.014   1.574
  935TIP3    H1 2727   3.334   2.934   1.519
  935TIP3    H2 2728   3.287   3.079   1.514
  936TIP3   OH2 2729   3.336   2.802   1.383
  936TIP3    H1 2730   3.364   2.842   1.298
  936TIP3    H2 2731   3.244   2.776   1.364
  937TIP3   OH2 2732   3.360   3.336   1.255
  937TIP3    H1 2733   3.444   3.344   1.208
  937TIP3    H2 2734   3.304   3.402   1.209
  938TIP3   OH2 2735   3.942   3.303   1.634
  938TIP3    H1 2736   3.990   3.220   1.649
  938TIP3    H2 2737   4.012   3.361   1.601
  939TIP3   OH2 2738   3.985   3.556   1.371
  939TIP3    H1 2739   3.926   3.609   1.312
  939TIP3    H2 2740   4.072   3.577   1.331
  940TIP3   OH2 2741   3.204   3.128   1.800
  940TIP3    H1 2742   3.138   3.059   1.818
  940TIP3    H2 2743   3.243   3.098   1.716
  941TIP3   OH2 2744   3.467   2.563   1.446
  941TIP3    H1 2745   3.417   2.645   1.426
  941TIP3    H2 2746   3.398   2.495   1.437
  942TIP3   OH2 2747   3.592   3.070   1.664
  942TIP3    H1 2748   3.584   3.056   1.760
  942TIP3    H2 2749   3.502   3.044   1.637
  943TIP3   OH2 2750   3.831   3.017   1.519
  943TIP3    H1 2751   3.757   3.019   1.582
  943TIP3    H2 2752   3.905   2.987   1.575
  944TIP3   OH2 2753   4.063   2.958   1.667
  944TIP3    H1 2754   4.074   2.863   1.687
  944TIP3    H2 2755   4.057   2.998   1.757
  945TIP3   OH2 2756   3.045   2.907   1.856
  945TIP3    H1 2757   3.053   2.815   1.825
  945TIP3    H2 2758   3.083   2.899   1.945
  946TIP3   OH2 2759   3.562   2.576   1.703
  946TIP3    H1 2760   3.628   2.504   1.701
  946TIP3    H2 2761   3.522   2.567   1.614
  947TIP3   OH2 2762   3.628   2.791   1.863
  947TIP3    H1 2763   3.606   2.719   1.799
  947TIP3    H2 2764   3.549   2.847   1.857
  948TIP3   OH2 2765   2.844   4.018  -0.032
  948TIP3    H1 2766   2.938   4.015  -0.058
  948TIP3    H2 2767   2.801   4.047  -0.113
  949TIP3   OH2 2768   2.331   3.399   0.195
  949TIP3    H1 2769   2.420   3.431   0.170
  949TIP3    H2 2770   2.330   3.313   0.151
  950TIP3   OH2 2771   2.243   4.012   0.592
  950TIP3    H1 2772   2.174   3.951   0.558
  950TIP3    H2 2773   2.286   3.956   0.659
  951TIP3   OH2 2774   2.377   3.865   0.781
  951TIP3    H1 2775   2.364   3.791   0.842
  951TIP3    H2 2776   2.428   3.926   0.837
  952TIP3   OH2 2777   4.104   4.265   0.580
  952TIP3    H1 2778   4.131   4.295   0.668
  952TIP3    H2 2779   4.168   4.308   0.522
  953TIP3   OH2 2780   4.135   4.284   0.861
  953TIP3    H1 2781   4.089   4.197   0.857
  953TIP3    H2 2782   4.208   4.260   0.921
  954TIP3   OH2 2783   4.180   3.960   1.436
  954TIP3    H1 2784   4.107   3.968   1.500
  954TIP3    H2 2785   4.221   4.049   1.440
  955TIP3   OH2 2786   3.998   3.472   0.056
  955TIP3    H1 2787   4.067   3.537   0.033
  955TIP3    H2 2788   4.038   3.432   0.137
  956TIP3   OH2 2789   4.124   3.340   0.260
  956TIP3    H1 2790   4.058   3.298   0.319
  956TIP3    H2 2791   4.188   3.379   0.324
  957TIP3   OH2 2792   4.179   3.733   0.692
  957TIP3    H1 2793   4.231   3.667   0.643
  957TIP3    H2 2794   4.170   3.806   0.628
  958TIP3   OH2 2795   4.010   4.035   0.886
  958TIP3    H1 2796   3.938   4.075   0.938
  958TIP3    H2 2797   3.960   3.987   0.817
  959TIP3   OH2 2798   4.059   3.250  -0.098
  959TIP3    H1 2799   3.983   3.249  -0.159
  959TIP3    H2 2800   4.035   3.326  -0.041
  960TIP3   OH2 2801   3.941   2.925  -0.143
  960TIP3    H1 2802   3.880   2.959  -0.209
  960TIP3    H2 2803   3.914   2.830  -0.140
  961TIP3   OH2 2804   3.939   3.197   0.406
  961TIP3    H1 2805   3.945   3.100   0.399
  961TIP3    H2 2806   3.925   3.210   0.503
  962TIP3   OH2 2807   2.570   3.254   1.162
  962TIP3    H1 2808   2.569   3.233   1.065
  962TIP3    H2 2809   2.667   3.265   1.174
  963TIP3   OH2 2810   4.228   3.623   1.262
  963TIP3    H1 2811   4.300   3.556   1.254
  963TIP3    H2 2812   4.255   3.691   1.199
  964TIP3   OH2 2813   4.414   3.428   1.279
  964TIP3    H1 2814   4.339   3.378   1.318
  964TIP3    H2 2815   4.486   3.363   1.294
  965TIP3   OH2 2816   3.875   2.665  -0.136
  965TIP3    H1 2817   3.959   2.626  -0.102
  965TIP3    H2 2818   3.808   2.608  -0.096
  966TIP3   OH2 2819   3.935   2.913   0.301
  966TIP3    H1 2820   3.973   2.823   0.317
  966TIP3    H2 2821   3.994   2.944   0.231
  967TIP3   OH2 2822   4.096   3.088   0.796
  967TIP3    H1 2823   4.182   3.114   0.756
  967TIP3    H2 2824   4.110   3.124   0.886
  968TIP3   OH2 2825   4.165   3.231   1.027
  968TIP3    H1 2826   4.087   3.265   1.076
  968TIP3    H2 2827   4.198   3.313   0.983
  969TIP3   OH2 2828   2.777   2.965   1.824
  969TIP3    H1 2829   2.875   2.960   1.828
  969TIP3    H2 2830   2.754   2.879   1.865
  970TIP3   OH2 2831   4.619   2.824   1.584
  970TIP3    H1 2832   4.677   2.757   1.541
  970TIP3    H2 2833   4.589   2.877   1.507
  971TIP3   OH2 2834   4.044   2.663   0.338
  971TIP3    H1 2835   4.091   2.647   0.422
  971TIP3    H2 2836   3.983   2.587   0.336
  972TIP3   OH2 2837   2.580   2.917   1.240
  972TIP3    H1 2838   2.581   2.922   1.142
  972TIP3    H2 2839   2.585   3.010   1.262
  973TIP3   OH2 2840   4.488   2.962   1.389
  973TIP3    H1 2841   4.402   3.003   1.411
  973TIP3    H2 2842   4.458   2.890   1.331
  974TIP3   OH2 2843   4.133   2.600  -0.045
  974TIP3    H1 2844   4.195   2.535  -0.080
  974TIP3    H2 2845   4.191   2.679  -0.037
  975TIP3   OH2 2846   3.690   4.131   0.242
  975TIP3    H1 2847   3.737   4.115   0.158
  975TIP3    H2 2848   3.746   4.197   0.285
  976TIP3   OH2 2849   2.751   2.509   1.545
  976TIP3    H1 2850   2.701   2.500   1.627
  976TIP3    H2 2851   2.684   2.544   1.484
  977TIP3   OH2 2852   2.793   3.930   1.624
  977TIP3    H1 2853   2.699   3.910   1.608
  977TIP3    H2 2854   2.800   3.919   1.719
  978TIP3   OH2 2855   2.967   3.965   1.170
  978TIP3    H1 2856   2.919   4.041   1.131
  978TIP3    H2 2857   3.053   3.980   1.126
  979TIP3   OH2 2858   3.413   4.211   1.308
  979TIP3    H1 2859   3.454   4.212   1.397
  979TIP3    H2 2860   3.479   4.263   1.257
  980TIP3   OH2 2861   3.592   4.363   1.167
  980TIP3    H1 2862   3.663   4.311   1.127
  980TIP3    H2 2863   3.643   4.420   1.229
  981TIP3   OH2 2864   4.386   2.725   1.267
  981TIP3    H1 2865   4.295   2.717   1.234
  981TIP3    H2 2866   4.418   2.632   1.257
  982TIP3   OH2 2867   2.644   4.224   1.194
  982TIP3    H1 2868   2.554   4.257   1.172
  982TIP3    H2 2869   2.654   4.261   1.282
  983TIP3   OH2 2870   2.881   4.202   1.052
  983TIP3    H1 2871   2.794   4.215   1.097
  983TIP3    H2 2872   2.861   4.235   0.962
  984TIP3   OH2 2873   3.307   4.232   0.849
  984TIP3    H1 2874   3.236   4.251   0.785
  984TIP3    H2 2875   3.318   4.319   0.893
  985TIP3   OH2 2876   3.575   4.170   0.901
  985TIP3    H1 2877   3.481   4.187   0.881
  985TIP3    H2 2878   3.617   4.248   0.861
  986TIP3   OH2 2879   3.786   4.364   0.817
  986TIP3    H1 2880   3.770   4.447   0.769
  986TIP3    H2 2881   3.809   4.302   0.745
  987TIP3   OH2 2882   2.556   4.018   0.939
  987TIP3    H1 2883   2.582   3.993   1.030
  987TIP3    H2 2884   2.628   3.972   0.889
  988TIP3   OH2 2885   2.749   3.889   0.795
  988TIP3    H1 2886   2.765   3.805   0.846
  988TIP3    H2 2887   2.840   3.925   0.791
  989TIP3   OH2 2888   3.016   3.984   0.799
  989TIP3    H1 2889   3.047   3.892   0.787
  989TIP3    H2 2890   3.059   4.005   0.883
  990TIP3   OH2 2891   3.588   2.639   0.883
  990TIP3    H1 2892   3.547   2.569   0.937
  990TIP3    H2 2893   3.662   2.592   0.841
  991TIP3   OH2 2894   4.115   2.525   0.795
  991TIP3    H1 2895   4.150   2.574   0.717
  991TIP3    H2 2896   4.019   2.536   0.784
  992TIP3   OH2 2897   4.210   2.621   0.556
  992TIP3    H1 2898   4.283   2.570   0.516
  992TIP3    H2 2899   4.242   2.713   0.541
  993TIP3   OH2 2900   2.852   2.358   0.907
  993TIP3    H1 2901   2.767   2.311   0.916
  993TIP3    H2 2902   2.910   2.279   0.896
  994TIP3   OH2 2903   3.282   2.385   0.785
  994TIP3    H1 2904   3.341   2.431   0.722
  994TIP3    H2 2905   3.315   2.417   0.870
  995TIP3   OH2 2906   3.831   2.527   0.766
  995TIP3    H1 2907   3.830   2.487   0.678
  995TIP3    H2 2908   3.817   2.448   0.823
  996TIP3   OH2 2909   3.863   2.449   0.331
  996TIP3    H1 2910   3.773   2.483   0.329
  996TIP3    H2 2911   3.849   2.364   0.379
  997TIP3   OH2 2912   2.344   3.787   0.328
  997TIP3    H1 2913   2.260   3.751   0.296
  997TIP3    H2 2914   2.327   3.882   0.321
  998TIP3   OH2 2915   3.264   2.553   0.411
  998TIP3    H1 2916   3.321   2.505   0.473
  998TIP3    H2 2917   3.288   2.645   0.436
  999TIP3   OH2 2918   3.107   3.993  -0.097
  999TIP3    H1 2919   3.201   4.008  -0.124
  999TIP3    H2 2920   3.093   3.910  -0.147
 1000TIP3   OH2 2921   3.834   4.094   0.013
 1000TIP3    H1 2922   3.831   3.996  -0.004
 1000TIP3    H2 2923   3.787   4.127  -0.067
 1001TIP3   OH2 2924   3.048   2.631   1.793
 1001TIP3    H1 2925   3.013   2.560   1.849
 1001TIP3    H2 2926   3.142   2.629   1.821
 1002TIP3   OH2 2927   3.297   2.626   1.911
 1002TIP3    H1 2928   3.383   2.598   1.875
 1002TIP3    H2 2929   3.283   2.559   1.981
 1003TIP3   OH2 2930   2.435   3.844  -0.013
 1003TIP3    H1 2931   2.403   3.856   0.076
 1003TIP3    H2 2932   2.502   3.776  -0.004
 1004TIP3   OH2 2933   4.122   2.687   1.701
 1004TIP3    H1 2934   4.140   2.656   1.792
 1004TIP3    H2 2935   4.211   2.681   1.660
 1005TIP3   OH2 2936   4.062   4.241   1.191
 1005TIP3    H1 2937   3.983   4.208   1.144
 1005TIP3    H2 2938   4.041   4.336   1.197
 1006TIP3   OH2 2939   5.305   3.602   0.005
 1006TIP3    H1 2940   5.335   3.693  -0.006
 1006TIP3    H2 2941   5.272   3.584  -0.085
 1007TIP3   OH2 2942   5.334   3.620   0.340
 1007TIP3    H1 2943   5.351   3.571   0.422
 1007TIP3    H2 2944   5.291   3.553   0.285
 1008TIP3   OH2 2945   4.625   3.508   0.705
 1008TIP3    H1 2946   4.656   3.439   0.767
 1008TIP3    H2 2947   4.704   3.563   0.699
 1009TIP3   OH2 2948   5.528   3.901   0.040
 1009TIP3    H1 2949   5.540   3.830   0.105
 1009TIP3    H2 2950   5.586   3.970   0.077
 1010TIP3   OH2 2951   4.597   3.919   0.431
 1010TIP3    H1 2952   4.588   3.821   0.434
 1010TIP3    H2 2953   4.693   3.927   0.422
 1011TIP3   OH2 2954   4.305   3.122   0.215
 1011TIP3    H1 2955   4.255   3.204   0.231
 1011TIP3    H2 2956   4.234   3.066   0.181
 1012TIP3   OH2 2957   4.363   3.408   0.387
 1012TIP3    H1 2958   4.411   3.330   0.423
 1012TIP3    H2 2959   4.422   3.436   0.316
 1013TIP3   OH2 2960   5.241   4.404   0.074
 1013TIP3    H1 2961   5.242   4.341   0.001
 1013TIP3    H2 2962   5.185   4.359   0.137
 1014TIP3   OH2 2963   5.124   3.840   0.389
 1014TIP3    H1 2964   5.157   3.764   0.339
 1014TIP3    H2 2965   5.210   3.881   0.412
 1015TIP3   OH2 2966   6.140   3.161   0.384
 1015TIP3    H1 2967   6.169   3.244   0.429
 1015TIP3    H2 2968   6.165   3.181   0.292
 1016TIP3   OH2 2969   5.540   3.343   0.420
 1016TIP3    H1 2970   5.579   3.256   0.442
 1016TIP3    H2 2971   5.507   3.325   0.330
 1017TIP3   OH2 2972   4.875   2.999   0.386
 1017TIP3    H1 2973   4.854   3.071   0.323
 1017TIP3    H2 2974   4.828   2.925   0.342
 1018TIP3   OH2 2975   5.563   3.087   0.009
 1018TIP3    H1 2976   5.633   3.064   0.074
 1018TIP3    H2 2977   5.618   3.129  -0.059
 1019TIP3   OH2 2978   4.509   3.202   0.491
 1019TIP3    H1 2979   4.591   3.181   0.540
 1019TIP3    H2 2980   4.521   3.144   0.413
 1020TIP3   OH2 2981   4.949   3.399   0.287
 1020TIP3    H1 2982   5.043   3.375   0.299
 1020TIP3    H2 2983   4.910   3.315   0.255
 1021TIP3   OH2 2984   6.215   3.372   0.552
 1021TIP3    H1 2985   6.129   3.414   0.532
 1021TIP3    H2 2986   6.209   3.370   0.649
 1022TIP3   OH2 2987   4.872   2.983   0.820
 1022TIP3    H1 2988   4.811   3.019   0.754
 1022TIP3    H2 2989   4.820   2.999   0.902
 1023TIP3   OH2 2990   4.980   3.758   0.616
 1023TIP3    H1 2991   4.916   3.823   0.654
 1023TIP3    H2 2992   5.018   3.809   0.541
 1024TIP3   OH2 2993   5.778   3.099   0.178
 1024TIP3    H1 2994   5.771   3.037   0.252
 1024TIP3    H2 2995   5.830   3.172   0.217
 1025TIP3   OH2 2996   4.742   3.098   0.605
 1025TIP3    H1 2997   4.805   3.169   0.629
 1025TIP3    H2 2998   4.791   3.057   0.530
 1026TIP3   OH2 2999   4.806   3.951   0.715
 1026TIP3    H1 3000   4.779   4.035   0.675
 1026TIP3    H2 3001   4.727   3.934   0.771
 1027TIP3   OH2 3002   4.211   3.639  -0.032
 1027TIP3    H1 3003   4.156   3.654  -0.112
 1027TIP3    H2 3004   4.233   3.731  -0.004
 1028TIP3   OH2 3005   5.648   4.111   0.198
 1028TIP3    H1 3006   5.563   4.099   0.247
 1028TIP3    H2 3007   5.630   4.200   0.162
 1029TIP3   OH2 3008   5.927   3.074   0.552
 1029TIP3    H1 3009   5.838   3.092   0.518
 1029TIP3    H2 3010   5.985   3.098   0.478
 1030TIP3   OH2 3011   5.227   2.703   0.532
 1030TIP3    H1 3012   5.215   2.608   0.551
 1030TIP3    H2 3013   5.149   2.739   0.580
 1031TIP3   OH2 3014   5.867   4.072   0.532
 1031TIP3    H1 3015   5.853   3.992   0.477
 1031TIP3    H2 3016   5.850   4.144   0.468
 1032TIP3   OH2 3017   6.059   3.711   0.393
 1032TIP3    H1 3018   5.973   3.759   0.395
 1032TIP3    H2 3019   6.095   3.745   0.309
 1033TIP3   OH2 3020   5.741   3.589   0.671
 1033TIP3    H1 3021   5.734   3.672   0.722
 1033TIP3    H2 3022   5.653   3.587   0.629
 1034TIP3   OH2 3023   4.732   3.540   0.182
 1034TIP3    H1 3024   4.695   3.483   0.111
 1034TIP3    H2 3025   4.812   3.490   0.209
 1035TIP3   OH2 3026   4.866   3.956   0.327
 1035TIP3    H1 3027   4.842   3.919   0.240
 1035TIP3    H2 3028   4.954   3.917   0.342
 1036TIP3   OH2 3029   4.876   3.515   0.534
 1036TIP3    H1 3030   4.906   3.492   0.444
 1036TIP3    H2 3031   4.918   3.601   0.551
 1037TIP3   OH2 3032   5.404   4.149   0.308
 1037TIP3    H1 3033   5.390   4.231   0.359
 1037TIP3    H2 3034   5.382   4.079   0.372
 1038TIP3   OH2 3035   5.011   4.074   0.856
 1038TIP3    H1 3036   4.950   4.135   0.903
 1038TIP3    H2 3037   4.947   4.019   0.806
 1039TIP3   OH2 3038   4.766   3.630   0.957
 1039TIP3    H1 3039   4.769   3.716   1.003
 1039TIP3    H2 3040   4.671   3.608   0.968
 1040TIP3   OH2 3041   4.805   4.242   0.945
 1040TIP3    H1 3042   4.770   4.240   0.854
 1040TIP3    H2 3043   4.726   4.219   0.998
 1041TIP3   OH2 3044   4.606   3.384  -0.023
 1041TIP3    H1 3045   4.537   3.429  -0.076
 1041TIP3    H2 3046   4.561   3.302   0.002
 1042TIP3   OH2 3047   4.386   3.771   0.890
 1042TIP3    H1 3048   4.319   3.749   0.822
 1042TIP3    H2 3049   4.422   3.684   0.914
 1043TIP3   OH2 3050   4.238   3.965   0.522
 1043TIP3    H1 3051   4.334   3.958   0.514
 1043TIP3    H2 3052   4.229   4.043   0.577
 1044TIP3   OH2 3053   6.108   4.416   0.588
 1044TIP3    H1 3054   6.103   4.319   0.598
 1044TIP3    H2 3055   6.023   4.442   0.629
 1045TIP3   OH2 3056   5.208   4.201   0.714
 1045TIP3    H1 3057   5.208   4.293   0.747
 1045TIP3    H2 3058   5.136   4.161   0.767
 1046TIP3   OH2 3059   4.398   4.181   0.053
 1046TIP3    H1 3060   4.450   4.172   0.136
 1046TIP3    H2 3061   4.342   4.102   0.059
 1047TIP3   OH2 3062   5.995   3.550   0.849
 1047TIP3    H1 3063   5.910   3.558   0.803
 1047TIP3    H2 3064   6.012   3.454   0.840
 1048TIP3   OH2 3065   4.589   3.955   0.880
 1048TIP3    H1 3066   4.639   3.937   0.962
 1048TIP3    H2 3067   4.515   3.891   0.886
 1049TIP3   OH2 3068   4.989   2.778   0.662
 1049TIP3    H1 3069   4.900   2.747   0.635
 1049TIP3    H2 3070   4.963   2.859   0.710
 1050TIP3   OH2 3071   5.522   2.895   0.857
 1050TIP3    H1 3072   5.592   2.864   0.919
 1050TIP3    H2 3073   5.439   2.872   0.905
 1051TIP3   OH2 3074   5.767   3.326   0.781
 1051TIP3    H1 3075   5.713   3.319   0.863
 1051TIP3    H2 3076   5.735   3.409   0.742
 1052TIP3   OH2 3077   5.101   2.817  -0.375
 1052TIP3    H1 3078   5.078   2.824  -0.280
 1052TIP3    H2 3079   5.133   2.727  -0.382
 1053TIP3   OH2 3080   4.922   3.293   0.683
 1053TIP3    H1 3081   4.869   3.314   0.763
 1053TIP3    H2 3082   4.906   3.373   0.629
 1054TIP3   OH2 3083   4.804   3.179   0.196
 1054TIP3    H1 3084   4.712   3.152   0.214
 1054TIP3    H2 3085   4.817   3.138   0.107
 1055TIP3   OH2 3086   5.287   3.279  -0.082
 1055TIP3    H1 3087   5.218   3.339  -0.113
 1055TIP3    H2 3088   5.344   3.274  -0.161
 1056TIP3   OH2 3089   5.470   3.545   1.012
 1056TIP3    H1 3090   5.447   3.471   1.073
 1056TIP3    H2 3091   5.565   3.555   1.032
 1057TIP3   OH2 3092   5.455   3.299   0.161
 1057TIP3    H1 3093   5.395   3.334   0.093
 1057TIP3    H2 3094   5.481   3.215   0.118
 1058TIP3   OH2 3095   4.740   3.322   0.890
 1058TIP3    H1 3096   4.764   3.384   0.960
 1058TIP3    H2 3097   4.728   3.239   0.941
 1059TIP3   OH2 3098   4.781   2.778  -0.377
 1059TIP3    H1 3099   4.801   2.776  -0.282
 1059TIP3    H2 3100   4.685   2.772  -0.375
 1060TIP3   OH2 3101   4.332   2.846   0.470
 1060TIP3    H1 3102   4.409   2.875   0.523
 1060TIP3    H2 3103   4.372   2.809   0.389
 1061TIP3   OH2 3104   4.302   2.827  -0.012
 1061TIP3    H1 3105   4.358   2.862  -0.083
 1061TIP3    H2 3106   4.246   2.904   0.007
 1062TIP3   OH2 3107   5.472   3.540   0.590
 1062TIP3    H1 3108   5.501   3.468   0.529
 1062TIP3    H2 3109   5.437   3.486   0.664
 1063TIP3   OH2 3110   5.132   3.006   0.257
 1063TIP3    H1 3111   5.049   3.001   0.309
 1063TIP3    H2 3112   5.199   2.998   0.326
 1064TIP3   OH2 3113   4.567   3.057   0.264
 1064TIP3    H1 3114   4.472   3.064   0.238
 1064TIP3    H2 3115   4.588   2.964   0.244
 1065TIP3   OH2 3116   4.836   3.055  -0.047
 1065TIP3    H1 3117   4.932   3.068  -0.063
 1065TIP3    H2 3118   4.796   3.081  -0.133
 1066TIP3   OH2 3119   5.624   3.079   0.460
 1066TIP3    H1 3120   5.589   3.089   0.551
 1066TIP3    H2 3121   5.560   3.015   0.423
 1067TIP3   OH2 3122   4.677   3.091  -0.276
 1067TIP3    H1 3123   4.587   3.062  -0.257
 1067TIP3    H2 3124   4.687   3.070  -0.369
 1068TIP3   OH2 3125   5.793   4.765   0.679
 1068TIP3    H1 3126   5.790   4.783   0.583
 1068TIP3    H2 3127   5.869   4.819   0.707
 1069TIP3   OH2 3128   4.752   3.878   1.099
 1069TIP3    H1 3129   4.831   3.907   1.149
 1069TIP3    H2 3130   4.686   3.873   1.172
 1070TIP3   OH2 3131   5.213   3.329   0.359
 1070TIP3    H1 3132   5.285   3.289   0.307
 1070TIP3    H2 3133   5.221   3.284   0.445
 1071TIP3   OH2 3134   4.739   2.817   0.233
 1071TIP3    H1 3135   4.703   2.740   0.281
 1071TIP3    H2 3136   4.787   2.774   0.160
 1072TIP3   OH2 3137   5.192   3.227   0.641
 1072TIP3    H1 3138   5.102   3.261   0.657
 1072TIP3    H2 3139   5.248   3.287   0.694
 1073TIP3   OH2 3140   4.924   3.603  -0.232
 1073TIP3    H1 3141   4.860   3.532  -0.219
 1073TIP3    H2 3142   4.935   3.638  -0.141
 1074TIP3   OH2 3143   5.826   3.851   0.373
 1074TIP3    H1 3144   5.848   3.901   0.292
 1074TIP3    H2 3145   5.741   3.808   0.349
 1075TIP3   OH2 3146   5.337   3.941   0.734
 1075TIP3    H1 3147   5.346   3.908   0.824
 1075TIP3    H2 3148   5.288   4.024   0.746
 1076TIP3   OH2 3149   4.621   3.641   0.417
 1076TIP3    H1 3150   4.656   3.610   0.331
 1076TIP3    H2 3151   4.658   3.576   0.478
 1077TIP3   OH2 3152   4.501   3.559   1.028
 1077TIP3    H1 3153   4.519   3.545   1.123
 1077TIP3    H2 3154   4.432   3.493   1.011
 1078TIP3   OH2 3155   5.226   3.675   1.047
 1078TIP3    H1 3156   5.165   3.614   1.001
 1078TIP3    H2 3157   5.313   3.638   1.019
 1079TIP3   OH2 3158   5.490   4.201   0.627
 1079TIP3    H1 3159   5.395   4.191   0.642
 1079TIP3    H2 3160   5.516   4.250   0.709
 1080TIP3   OH2 3161   6.115   4.125   0.625
 1080TIP3    H1 3162   6.017   4.121   0.620
 1080TIP3    H2 3163   6.136   4.092   0.534
 1081TIP3   OH2 3164   5.594   3.717   0.282
 1081TIP3    H1 3165   5.502   3.691   0.303
 1081TIP3    H2 3166   5.627   3.634   0.243
 1082TIP3   OH2 3167   4.724   3.936   0.057
 1082TIP3    H1 3168   4.721   4.017   0.001
 1082TIP3    H2 3169   4.632   3.908   0.051
 1083TIP3   OH2 3170   4.289   3.249  -0.255
 1083TIP3    H1 3171   4.331   3.335  -0.235
 1083TIP3    H2 3172   4.209   3.252  -0.199
 1084TIP3   OH2 3173   4.875   3.710   0.014
 1084TIP3    H1 3174   4.832   3.797   0.017
 1084TIP3    H2 3175   4.823   3.660   0.080
 1085TIP3   OH2 3176   4.990   4.288   0.510
 1085TIP3    H1 3177   5.032   4.361   0.461
 1085TIP3    H2 3178   5.066   4.250   0.557
 1086TIP3   OH2 3179   4.642   4.162  -0.074
 1086TIP3    H1 3180   4.552   4.175  -0.040
 1086TIP3    H2 3181   4.674   4.254  -0.077
 1087TIP3   OH2 3182   5.381   3.921   0.467
 1087TIP3    H1 3183   5.372   3.921   0.565
 1087TIP3    H2 3184   5.453   3.858   0.455
 1088TIP3   OH2 3185   5.630   4.454   0.515
 1088TIP3    H1 3186   5.549   4.399   0.510
 1088TIP3    H2 3187   5.612   4.522   0.446
 1089TIP3   OH2 3188   4.712   3.065   1.036
 1089TIP3    H1 3189   4.615   3.069   1.049
 1089TIP3    H2 3190   4.740   3.005   1.107
 1090TIP3   OH2 3191   4.430   4.150   0.668
 1090TIP3    H1 3192   4.481   4.072   0.696
 1090TIP3    H2 3193   4.457   4.214   0.735
 1091TIP3   OH2 3194   4.402   3.494  -0.174
 1091TIP3    H1 3195   4.339   3.543  -0.117
 1091TIP3    H2 3196   4.433   3.562  -0.235
 1092TIP3   OH2 3197   5.549   3.131   0.720
 1092TIP3    H1 3198   5.632   3.162   0.760
 1092TIP3    H2 3199   5.532   3.049   0.772
 1093TIP3   OH2 3200   5.412   2.885  -0.129
 1093TIP3    H1 3201   5.413   2.894  -0.226
 1093TIP3    H2 3202   5.463   2.963  -0.098
 1094TIP3   OH2 3203   5.118   3.063  -0.015
 1094TIP3    H1 3204   5.182   3.135  -0.031
 1094TIP3    H2 3205   5.124   3.053   0.083
 1095TIP3   OH2 3206   5.388   3.379   0.792
 1095TIP3    H1 3207   5.408   3.430   0.873
 1095TIP3    H2 3208   5.442   3.299   0.805
 1096TIP3   OH2 3209   5.262   2.790   0.088
 1096TIP3    H1 3210   5.261   2.865   0.150
 1096TIP3    H2 3211   5.317   2.828   0.015
 1097TIP3   OH2 3212   4.779   2.784  -0.099
 1097TIP3    H1 3213   4.780   2.876  -0.066
 1097TIP3    H2 3214   4.875   2.764  -0.092
 1098TIP3   OH2 3215   6.031   3.281   0.760
 1098TIP3    H1 3216   5.935   3.284   0.780
 1098TIP3    H2 3217   6.029   3.217   0.688
 1099TIP3   OH2 3218   5.681   3.477   0.156
 1099TIP3    H1 3219   5.603   3.419   0.171
 1099TIP3    H2 3220   5.751   3.429   0.205
 1100TIP3   OH2 3221   4.363   2.989  -0.240
 1100TIP3    H1 3222   4.338   3.084  -0.248
 1100TIP3    H2 3223   4.289   2.946  -0.283
 1101TIP3   OH2 3224   5.586   4.374   0.151
 1101TIP3    H1 3225   5.546   4.398   0.066
 1101TIP3    H2 3226   5.674   4.416   0.143
 1102TIP3   OH2 3227   4.724   2.698   0.638
 1102TIP3    H1 3228   4.693   2.663   0.552
 1102TIP3    H2 3229   4.714   2.620   0.696
 1103TIP3   OH2 3230   4.264   3.913   0.024
 1103TIP3    H1 3231   4.188   3.943   0.076
 1103TIP3    H2 3232   4.241   3.951  -0.064
 1104TIP3   OH2 3233   4.418   4.457   1.088
 1104TIP3    H1 3234   4.504   4.454   1.135
 1104TIP3    H2 3235   4.395   4.362   1.088
 1105TIP3   OH2 3236   4.906   4.426   1.130
 1105TIP3    H1 3237   4.998   4.396   1.139
 1105TIP3    H2 3238   4.875   4.365   1.060
 1106TIP3   OH2 3239   5.540   4.329   0.868
 1106TIP3    H1 3240   5.530   4.259   0.936
 1106TIP3    H2 3241   5.618   4.379   0.900
 1107TIP3   OH2 3242   4.551   3.864   1.290
 1107TIP3    H1 3243   4.566   3.768   1.297
 1107TIP3    H2 3244   4.463   3.866   1.246
 1108TIP3   OH2 3245   5.159   3.949   1.063
 1108TIP3    H1 3246   5.114   3.964   0.977
 1108TIP3    H2 3247   5.188   3.856   1.057
 1109TIP3   OH2 3248   5.652   3.954   0.672
 1109TIP3    H1 3249   5.722   4.006   0.628
 1109TIP3    H2 3250   5.575   4.013   0.659
 1110TIP3   OH2 3251   4.671   3.600   1.271
 1110TIP3    H1 3252   4.742   3.538   1.253
 1110TIP3    H2 3253   4.696   3.632   1.361
 1111TIP3   OH2 3254   4.722   3.414  -0.286
 1111TIP3    H1 3255   4.695   3.376  -0.200
 1111TIP3    H2 3256   4.784   3.349  -0.320
 1112TIP3   OH2 3257   5.005   3.485   0.936
 1112TIP3    H1 3258   4.926   3.542   0.936
 1112TIP3    H2 3259   5.054   3.518   0.858
 1113TIP3   OH2 3260   5.524   3.887   1.070
 1113TIP3    H1 3261   5.600   3.856   1.019
 1113TIP3    H2 3262   5.516   3.818   1.138
 1114TIP3   OH2 3263   5.128   3.271   1.060
 1114TIP3    H1 3264   5.127   3.191   1.004
 1114TIP3    H2 3265   5.083   3.336   1.002
 1115TIP3   OH2 3266   5.130   3.059   0.868
 1115TIP3    H1 3267   5.157   3.097   0.782
 1115TIP3    H2 3268   5.036   3.035   0.850
 1116TIP3   OH2 3269   5.159   3.596   0.742
 1116TIP3    H1 3270   5.239   3.600   0.690
 1116TIP3    H2 3271   5.101   3.660   0.696
 1117TIP3   OH2 3272   5.740   3.559   1.123
 1117TIP3    H1 3273   5.784   3.473   1.133
 1117TIP3    H2 3274   5.811   3.614   1.087
 1118TIP3   OH2 3275   5.781   3.815   0.862
 1118TIP3    H1 3276   5.723   3.866   0.801
 1118TIP3    H2 3277   5.868   3.832   0.820
 1119TIP3   OH2 3278   5.006   3.384   1.290
 1119TIP3    H1 3279   4.937   3.315   1.306
 1119TIP3    H2 3280   5.040   3.357   1.203
 1120TIP3   OH2 3281   5.262   2.821   0.934
 1120TIP3    H1 3282   5.212   2.902   0.912
 1120TIP3    H2 3283   5.194   2.752   0.923
 1121TIP3   OH2 3284   5.387   3.327   1.151
 1121TIP3    H1 3285   5.375   3.312   1.246
 1121TIP3    H2 3286   5.298   3.301   1.119
 1122TIP3   OH2 3287   5.628   3.277   1.007
 1122TIP3    H1 3288   5.553   3.275   1.069
 1122TIP3    H2 3289   5.702   3.243   1.062
 1123TIP3   OH2 3290   5.858   3.217   1.155
 1123TIP3    H1 3291   5.870   3.121   1.170
 1123TIP3    H2 3292   5.856   3.252   1.246
 1124TIP3   OH2 3293   4.846   3.164   1.343
 1124TIP3    H1 3294   4.849   3.072   1.309
 1124TIP3    H2 3295   4.882   3.151   1.433
 1125TIP3   OH2 3296   5.357   2.832   1.192
 1125TIP3    H1 3297   5.425   2.761   1.187
 1125TIP3    H2 3298   5.318   2.824   1.103
 1126TIP3   OH2 3299   5.424   3.047   1.350
 1126TIP3    H1 3300   5.403   2.975   1.287
 1126TIP3    H2 3301   5.345   3.104   1.344
 1127TIP3   OH2 3302   4.102   3.625  -0.283
 1127TIP3    H1 3303   4.185   3.660  -0.319
 1127TIP3    H2 3304   4.080   3.562  -0.353
 1128TIP3   OH2 3305   4.035   4.271   0.076
 1128TIP3    H1 3306   3.967   4.206   0.046
 1128TIP3    H2 3307   4.082   4.217   0.143
 1129TIP3   OH2 3308   4.171   4.124   0.266
 1129TIP3    H1 3309   4.160   4.048   0.325
 1129TIP3    H2 3310   4.224   4.183   0.323
 1130TIP3   OH2 3311   5.935   4.538   0.356
 1130TIP3    H1 3312   5.891   4.451   0.348
 1130TIP3    H2 3313   6.016   4.511   0.403
 1131TIP3   OH2 3314   5.977   4.217   0.922
 1131TIP3    H1 3315   5.903   4.225   0.986
 1131TIP3    H2 3316   6.017   4.306   0.927
 1132TIP3   OH2 3317   5.964   3.993   0.181
 1132TIP3    H1 3318   6.044   3.965   0.132
 1132TIP3    H2 3319   5.911   4.038   0.114
 1133TIP3   OH2 3320   5.798   4.287   0.369
 1133TIP3    H1 3321   5.732   4.332   0.425
 1133TIP3    H2 3322   5.742   4.228   0.314
 1134TIP3   OH2 3323   5.722   3.384  -0.101
 1134TIP3    H1 3324   5.780   3.313  -0.073
 1134TIP3    H2 3325   5.689   3.420  -0.016
 1135TIP3   OH2 3326   4.360   3.528   0.639
 1135TIP3    H1 3327   4.359   3.497   0.546
 1135TIP3    H2 3328   4.457   3.529   0.656
 1136TIP3   OH2 3329   6.024   3.879   0.750
 1136TIP3    H1 3330   6.095   3.812   0.740
 1136TIP3    H2 3331   6.050   3.947   0.687
 1137TIP3   OH2 3332   6.213   3.686   0.762
 1137TIP3    H1 3333   6.136   3.637   0.800
 1137TIP3    H2 3334   6.283   3.619   0.779
 1138TIP3   OH2 3335   5.894   3.347   0.281
 1138TIP3    H1 3336   5.983   3.371   0.246
 1138TIP3    H2 3337   5.904   3.379   0.372
 1139TIP3   OH2 3338   5.959   3.485   0.513
 1139TIP3    H1 3339   5.882   3.517   0.565
 1139TIP3    H2 3340   5.993   3.569   0.474
 1140TIP3   OH2 3341   4.580   3.216   1.317
 1140TIP3    H1 3342   4.677   3.207   1.317
 1140TIP3    H2 3343   4.554   3.130   1.355
 1141TIP3   OH2 3344   6.442   3.095   1.062
 1141TIP3    H1 3345   6.434   3.000   1.045
 1141TIP3    H2 3346   6.384   3.135   0.994
 1142TIP3   OH2 3347   5.803   2.942  -0.155
 1142TIP3    H1 3348   5.871   2.922  -0.089
 1142TIP3    H2 3349   5.770   2.852  -0.174
 1143TIP3   OH2 3350   4.539   2.906   0.644
 1143TIP3    H1 3351   4.600   2.830   0.654
 1143TIP3    H2 3352   4.603   2.980   0.638
 1144TIP3   OH2 3353   4.343   3.180   0.718
 1144TIP3    H1 3354   4.392   3.174   0.633
 1144TIP3    H2 3355   4.373   3.266   0.750
 1145TIP3   OH2 3356   6.284   3.217   0.874
 1145TIP3    H1 3357   6.200   3.251   0.909
 1145TIP3    H2 3358   6.250   3.141   0.822
 1146TIP3   OH2 3359   4.327   2.689   0.221
 1146TIP3    H1 3360   4.234   2.680   0.247
 1146TIP3    H2 3361   4.321   2.744   0.140
 1147TIP3   OH2 3362   4.547   2.766   1.034
 1147TIP3    H1 3363   4.495   2.758   1.116
 1147TIP3    H2 3364   4.479   2.802   0.973
 1148TIP3   OH2 3365   4.586   4.193   1.113
 1148TIP3    H1 3366   4.495   4.164   1.092
 1148TIP3    H2 3367   4.594   4.169   1.206
 1149TIP3   OH2 3368   4.764   4.223   0.660
 1149TIP3    H1 3369   4.714   4.297   0.619
 1149TIP3    H2 3370   4.849   4.237   0.615
 1150TIP3   OH2 3371   5.209   4.469   0.797
 1150TIP3    H1 3372   5.252   4.468   0.885
 1150TIP3    H2 3373   5.275   4.520   0.745
 1151TIP3   OH2 3374   5.382   4.627   0.650
 1151TIP3    H1 3375   5.447   4.569   0.606
 1151TIP3    H2 3376   5.440   4.676   0.712
 1152TIP3   OH2 3377   6.185   2.978   0.746
 1152TIP3    H1 3378   6.090   2.968   0.729
 1152TIP3    H2 3379   6.213   2.884   0.742
 1153TIP3   OH2 3380   4.441   4.484   0.679
 1153TIP3    H1 3381   4.352   4.517   0.656
 1153TIP3    H2 3382   4.445   4.510   0.772
 1154TIP3   OH2 3383   4.679   4.461   0.542
 1154TIP3    H1 3384   4.592   4.473   0.586
 1154TIP3    H2 3385   4.658   4.491   0.451
 1155TIP3   OH2 3386   5.101   4.494   0.343
 1155TIP3    H1 3387   5.032   4.493   0.274
 1155TIP3    H2 3388   5.112   4.590   0.354
 1156TIP3   OH2 3389   5.369   4.431   0.398
 1156TIP3    H1 3390   5.276   4.442   0.371
 1156TIP3    H2 3391   5.414   4.489   0.335
 1157TIP3   OH2 3392   5.577   4.631   0.306
 1157TIP3    H1 3393   5.562   4.719   0.265
 1157TIP3    H2 3394   5.591   4.576   0.228
 1158TIP3   OH2 3395   4.352   4.274   0.427
 1158TIP3    H1 3396   4.379   4.247   0.518
 1158TIP3    H2 3397   4.422   4.229   0.375
 1159TIP3   OH2 3398   4.543   4.146   0.282
 1159TIP3    H1 3399   4.560   4.062   0.329
 1159TIP3    H2 3400   4.634   4.182   0.273
 1160TIP3   OH2 3401   4.813   4.243   0.286
 1160TIP3    H1 3402   4.841   4.152   0.265
 1160TIP3    H2 3403   4.856   4.255   0.372
 1161TIP3   OH2 3404   5.386   2.895   0.371
 1161TIP3    H1 3405   5.343   2.827   0.425
 1161TIP3    H2 3406   5.459   2.846   0.329
 1162TIP3   OH2 3407   5.913   2.786   0.281
 1162TIP3    H1 3408   5.945   2.836   0.203
 1162TIP3    H2 3409   5.816   2.794   0.272
 1163TIP3   OH2 3410   6.004   2.892   0.043
 1163TIP3    H1 3411   6.072   2.832   0.006
 1163TIP3    H2 3412   6.041   2.979   0.016
 1164TIP3   OH2 3413   4.636   2.606   0.389
 1164TIP3    H1 3414   4.543   2.573   0.392
 1164TIP3    H2 3415   4.684   2.521   0.386
 1165TIP3   OH2 3416   4.405   2.475   0.033
 1165TIP3    H1 3417   4.453   2.528  -0.034
 1165TIP3    H2 3418   4.392   2.541   0.103
 1166TIP3   OH2 3419   5.078   2.639   0.270
 1166TIP3    H1 3420   5.139   2.686   0.212
 1166TIP3    H2 3421   5.102   2.674   0.357
 1167TIP3   OH2 3422   5.630   2.784   0.252
 1167TIP3    H1 3423   5.629   2.742   0.165
 1167TIP3    H2 3424   5.615   2.706   0.311
 1168TIP3   OH2 3425   5.656   2.694  -0.180
 1168TIP3    H1 3426   5.565   2.725  -0.168
 1168TIP3    H2 3427   5.654   2.611  -0.128
 1169TIP3   OH2 3428   4.139   4.038  -0.174
 1169TIP3    H1 3429   4.049   4.018  -0.206
 1169TIP3    H2 3430   4.139   4.134  -0.180
 1170TIP3   OH2 3431   4.540   2.631  -0.157
 1170TIP3    H1 3432   4.570   2.566  -0.223
 1170TIP3    H2 3433   4.622   2.679  -0.136
 1171TIP3   OH2 3434   5.054   2.809  -0.097
 1171TIP3    H1 3435   5.113   2.761  -0.037
 1171TIP3    H2 3436   5.078   2.901  -0.072
 1172TIP3   OH2 3437   4.844   2.889   1.282
 1172TIP3    H1 3438   4.808   2.817   1.337
 1172TIP3    H2 3439   4.938   2.887   1.310
 1173TIP3   OH2 3440   5.094   2.884   1.401
 1173TIP3    H1 3441   5.178   2.856   1.360
 1173TIP3    H2 3442   5.081   2.814   1.468
 1174TIP3   OH2 3443   5.908   2.944   1.188
 1174TIP3    H1 3444   5.934   2.910   1.277
 1174TIP3    H2 3445   5.995   2.954   1.144
 1175TIP3   OH2 3446   5.858   4.497   0.680
 1175TIP3    H1 3447   5.780   4.465   0.629
 1175TIP3    H2 3448   5.838   4.593   0.682
 1176TIP3   OH2 3449   6.452   3.761   0.221
 1176TIP3    H1 3450   6.463   3.683   0.279
 1176TIP3    H2 3451   6.481   3.830   0.284
 1177TIP3   OH2 3452   6.665   3.237   0.311
 1177TIP3    H1 3453   6.606   3.273   0.242
 1177TIP3    H2 3454   6.613   3.256   0.392
 1178TIP3   OH2 3455   6.548   3.339   0.085
 1178TIP3    H1 3456   6.613   3.408   0.110
 1178TIP3    H2 3457   6.576   3.321  -0.006
 1179TIP3   OH2 3458   4.842   2.528   8.760
 1179TIP3    H1 3459   4.877   2.530   8.668
 1179TIP3    H2 3460   4.807   2.438   8.762
 1180TIP3   OH2 3461   7.004   2.941   0.046
 1180TIP3    H1 3462   6.974   2.850   0.067
 1180TIP3    H2 3463   6.927   2.993   0.077
 1181TIP3   OH2 3464   6.755   4.291   0.389
 1181TIP3    H1 3465   6.725   4.383   0.404
 1181TIP3    H2 3466   6.733   4.273   0.296
 1182TIP3   OH2 3467   6.547   3.907   0.427
 1182TIP3    H1 3468   6.566   3.982   0.487
 1182TIP3    H2 3469   6.465   3.873   0.469
 1183TIP3   OH2 3470   6.574   4.507   0.406
 1183TIP3    H1 3471   6.538   4.566   0.336
 1183TIP3    H2 3472   6.515   4.530   0.482
 1184TIP3   OH2 3473   6.172   4.020   0.385
 1184TIP3    H1 3474   6.116   3.998   0.309
 1184TIP3    H2 3475   6.210   3.933   0.406
 1185TIP3   OH2 3476   6.370   4.199   0.406
 1185TIP3    H1 3477   6.405   4.150   0.483
 1185TIP3    H2 3478   6.288   4.147   0.387
 1186TIP3   OH2 3479   6.767   3.031   0.157
 1186TIP3    H1 3480   6.681   3.002   0.122
 1186TIP3    H2 3481   6.741   3.112   0.206
 1187TIP3   OH2 3482   7.321   3.143   0.354
 1187TIP3    H1 3483   7.393   3.118   0.415
 1187TIP3    H2 3484   7.240   3.122   0.404
 1188TIP3   OH2 3485   7.586   3.653   0.305
 1188TIP3    H1 3486   7.530   3.614   0.376
 1188TIP3    H2 3487   7.520   3.672   0.237
 1189TIP3   OH2 3488   6.727   3.530   0.188
 1189TIP3    H1 3489   6.669   3.560   0.262
 1189TIP3    H2 3490   6.712   3.597   0.119
 1190TIP3   OH2 3491   7.256   3.806   0.519
 1190TIP3    H1 3492   7.241   3.723   0.570
 1190TIP3    H2 3493   7.353   3.810   0.518
 1191TIP3   OH2 3494   6.546   3.574   0.397
 1191TIP3    H1 3495   6.568   3.620   0.479
 1191TIP3    H2 3496   6.527   3.484   0.432
 1192TIP3   OH2 3497   6.145   3.111  -0.069
 1192TIP3    H1 3498   6.197   3.139   0.009
 1192TIP3    H2 3499   6.215   3.070  -0.121
 1193TIP3   OH2 3500   6.554   4.130   0.595
 1193TIP3    H1 3501   6.636   4.160   0.641
 1193TIP3    H2 3502   6.492   4.127   0.671
 1194TIP3   OH2 3503   6.992   3.493   0.136
 1194TIP3    H1 3504   6.900   3.501   0.169
 1194TIP3    H2 3505   7.047   3.530   0.209
 1195TIP3   OH2 3506   6.303   3.808   0.514
 1195TIP3    H1 3507   6.316   3.795   0.610
 1195TIP3    H2 3508   6.229   3.747   0.497
 1196TIP3   OH2 3509   7.014   3.928   0.534
 1196TIP3    H1 3510   6.961   3.853   0.502
 1196TIP3    H2 3511   7.105   3.896   0.516
 1197TIP3   OH2 3512   6.504   3.324   0.521
 1197TIP3    H1 3513   6.407   3.330   0.535
 1197TIP3    H2 3514   6.530   3.263   0.592
 1198TIP3   OH2 3515   6.210   4.413   0.212
 1198TIP3    H1 3516   6.244   4.337   0.165
 1198TIP3    H2 3517   6.272   4.484   0.187
 1199TIP3   OH2 3518   7.309   3.401   0.257
 1199TIP3    H1 3519   7.399   3.393   0.218
 1199TIP3    H2 3520   7.296   3.309   0.286
 1200TIP3   OH2 3521   7.144   3.619   0.320
 1200TIP3    H1 3522   7.198   3.689   0.361
 1200TIP3    H2 3523   7.212   3.550   0.301
 1201TIP3   OH2 3524   6.507   2.941   0.103
 1201TIP3    H1 3525   6.511   2.864   0.041
 1201TIP3    H2 3526   6.503   2.888   0.185
 1202TIP3   OH2 3527   6.211   4.714   0.590
 1202TIP3    H1 3528   6.299   4.707   0.631
 1202TIP3    H2 3529   6.187   4.621   0.575
 1203TIP3   OH2 3530   6.703   4.684   0.607
 1203TIP3    H1 3531   6.794   4.675   0.640
 1203TIP3    H2 3532   6.704   4.618   0.536
 1204TIP3   OH2 3533   6.347   4.122   0.776
 1204TIP3    H1 3534   6.359   4.027   0.791
 1204TIP3    H2 3535   6.258   4.124   0.735
 1205TIP3   OH2 3536   6.962   4.205   0.560
 1205TIP3    H1 3537   6.904   4.210   0.483
 1205TIP3    H2 3538   6.999   4.114   0.553
 1206TIP3   OH2 3539   6.476   3.856   0.753
 1206TIP3    H1 3540   6.539   3.784   0.749
 1206TIP3    H2 3541   6.494   3.891   0.842
 1207TIP3   OH2 3542   6.813   3.751   0.419
 1207TIP3    H1 3543   6.734   3.807   0.428
 1207TIP3    H2 3544   6.837   3.760   0.326
 1208TIP3   OH2 3545   7.300   4.138   0.590
 1208TIP3    H1 3546   7.376   4.131   0.531
 1208TIP3    H2 3547   7.313   4.062   0.650
 1209TIP3   OH2 3548   6.918   3.523   0.551
 1209TIP3    H1 3549   6.927   3.444   0.494
 1209TIP3    H2 3550   6.893   3.591   0.487
 1210TIP3   OH2 3551   6.925   3.316   0.355
 1210TIP3    H1 3552   6.961   3.340   0.268
 1210TIP3    H2 3553   6.832   3.294   0.334
 1211TIP3   OH2 3554   7.548   3.826   0.605
 1211TIP3    H1 3555   7.567   3.731   0.603
 1211TIP3    H2 3556   7.637   3.864   0.609
 1212TIP3   OH2 3557   6.794   3.644   0.771
 1212TIP3    H1 3558   6.730   3.573   0.793
 1212TIP3    H2 3559   6.834   3.609   0.689
 1213TIP3   OH2 3560   7.056   3.084   0.433
 1213TIP3    H1 3561   7.008   3.165   0.405
 1213TIP3    H2 3562   6.994   3.014   0.406
 1214TIP3   OH2 3563   7.183   3.574   0.642
 1214TIP3    H1 3564   7.167   3.563   0.737
 1214TIP3    H2 3565   7.094   3.550   0.608
 1215TIP3   OH2 3566   7.433   3.554   0.507
 1215TIP3    H1 3567   7.348   3.529   0.549
 1215TIP3    H2 3568   7.497   3.498   0.555
 1216TIP3   OH2 3569   7.667   3.476   0.642
 1216TIP3    H1 3570   7.669   3.380   0.662
 1216TIP3    H2 3571   7.657   3.515   0.732
 1217TIP3   OH2 3572   6.644   3.421   0.828
 1217TIP3    H1 3573   6.655   3.332   0.791
 1217TIP3    H2 3574   6.679   3.406   0.919
 1218TIP3   OH2 3575   7.151   3.083   0.686
 1218TIP3    H1 3576   7.222   3.016   0.675
 1218TIP3    H2 3577   7.112   3.083   0.596
 1219TIP3   OH2 3578   7.220   3.303   0.838
 1219TIP3    H1 3579   7.198   3.230   0.776
 1219TIP3    H2 3580   7.141   3.361   0.830
 1220TIP3   OH2 3581   6.192   3.823   0.184
 1220TIP3    H1 3582   6.171   3.768   0.104
 1220TIP3    H2 3583   6.289   3.812   0.190
 1221TIP3   OH2 3584   6.378   3.475   0.810
 1221TIP3    H1 3585   6.475   3.462   0.810
 1221TIP3    H2 3586   6.348   3.388   0.841
 1222TIP3   OH2 3587   6.328   3.169   0.135
 1222TIP3    H1 3588   6.381   3.088   0.142
 1222TIP3    H2 3589   6.398   3.236   0.123
 1223TIP3   OH2 3590   6.145   3.429   0.203
 1223TIP3    H1 3591   6.184   3.409   0.118
 1223TIP3    H2 3592   6.167   3.522   0.215
 1224TIP3   OH2 3593   8.076   3.478   0.410
 1224TIP3    H1 3594   7.993   3.512   0.371
 1224TIP3    H2 3595   8.132   3.474   0.331
 1225TIP3   OH2 3596   6.344   3.022   0.518
 1225TIP3    H1 3597   6.295   3.011   0.601
 1225TIP3    H2 3598   6.275   3.061   0.462
 1226TIP3   OH2 3599   6.384   4.445   0.590
 1226TIP3    H1 3600   6.289   4.424   0.577
 1226TIP3    H2 3601   6.395   4.423   0.684
 1227TIP3   OH2 3602   6.645   3.142   0.759
 1227TIP3    H1 3603   6.606   3.112   0.843
 1227TIP3    H2 3604   6.741   3.137   0.782
 1228TIP3   OH2 3605   6.892   3.143   0.882
 1228TIP3    H1 3606   6.978   3.115   0.847
 1228TIP3    H2 3607   6.877   3.076   0.953
 1229TIP3   OH2 3608   7.691   3.202   0.684
 1229TIP3    H1 3609   7.724   3.178   0.773
 1229TIP3    H2 3610   7.776   3.215   0.635
 1230TIP3   OH2 3611   0.385   4.200   1.572
 1230TIP3    H1 3612   0.422   4.288   1.593
 1230TIP3    H2 3613   0.376   4.206   1.475
 1231TIP3   OH2 3614  -0.142   4.374   1.671
 1231TIP3    H1 3615  -0.163   4.293   1.720
 1231TIP3    H2 3616  -0.190   4.360   1.588
 1232TIP3   OH2 3617   0.468   4.416   1.735
 1232TIP3    H1 3618   0.382   4.457   1.715
 1232TIP3    H2 3619   0.473   4.430   1.830
 1233TIP3   OH2 3620   0.184   4.105   1.735
 1233TIP3    H1 3621   0.103   4.146   1.703
 1233TIP3    H2 3622   0.247   4.130   1.664
 1234TIP3   OH2 3623   0.137   5.149   1.731
 1234TIP3    H1 3624   0.147   5.062   1.684
 1234TIP3    H2 3625   0.102   5.202   1.657
 1235TIP3   OH2 3626   0.317   4.742   1.555
 1235TIP3    H1 3627   0.242   4.804   1.564
 1235TIP3    H2 3628   0.348   4.764   1.464
 1236TIP3   OH2 3629  -0.010   4.641   1.847
 1236TIP3    H1 3630  -0.033   4.711   1.909
 1236TIP3    H2 3631  -0.096   4.628   1.802
 1237TIP3   OH2 3632   0.365   5.452   1.756
 1237TIP3    H1 3633   0.341   5.383   1.693
 1237TIP3    H2 3634   0.277   5.476   1.793
 1238TIP3   OH2 3635   0.229   4.590   2.025
 1238TIP3    H1 3636   0.151   4.587   1.967
 1238TIP3    H2 3637   0.256   4.496   2.023
 1239TIP3   OH2 3638  -0.226   3.974   2.064
 1239TIP3    H1 3639  -0.144   3.945   2.109
 1239TIP3    H2 3640  -0.272   3.888   2.058
 1240TIP3   OH2 3641   0.014   4.366   1.954
 1240TIP3    H1 3642  -0.038   4.360   2.038
 1240TIP3    H2 3643  -0.023   4.445   1.912
 1241TIP3   OH2 3644  -0.264   4.598   2.199
 1241TIP3    H1 3645  -0.295   4.523   2.256
 1241TIP3    H2 3646  -0.168   4.593   2.218
 1242TIP3   OH2 3647  -0.273   4.594   1.762
 1242TIP3    H1 3648  -0.232   4.519   1.714
 1242TIP3    H2 3649  -0.311   4.545   1.839
 1243TIP3   OH2 3650   0.115   4.925   1.585
 1243TIP3    H1 3651   0.120   4.966   1.495
 1243TIP3    H2 3652   0.030   4.881   1.578
 1244TIP3   OH2 3653  -0.390   4.913   1.940
 1244TIP3    H1 3654  -0.401   4.911   2.037
 1244TIP3    H2 3655  -0.374   5.008   1.922
 1245TIP3   OH2 3656  -0.466   4.777   2.159
 1245TIP3    H1 3657  -0.490   4.750   2.068
 1245TIP3    H2 3658  -0.382   4.728   2.172
 1246TIP3   OH2 3659  -0.201   4.184   1.890
 1246TIP3    H1 3660  -0.116   4.223   1.917
 1246TIP3    H2 3661  -0.215   4.118   1.962
 1247TIP3   OH2 3662  -0.357   4.448   1.971
 1247TIP3    H1 3663  -0.337   4.479   2.061
 1247TIP3    H2 3664  -0.331   4.354   1.976
 1248TIP3   OH2 3665   0.281   4.326   1.949
 1248TIP3    H1 3666   0.183   4.325   1.957
 1248TIP3    H2 3667   0.291   4.279   1.865
 1249TIP3   OH2 3668  -0.095   4.531   1.361
 1249TIP3    H1 3669  -0.130   4.452   1.316
 1249TIP3    H2 3670  -0.013   4.494   1.402
 1250TIP3   OH2 3671  -0.221   5.383   2.051
 1250TIP3    H1 3672  -0.218   5.310   2.116
 1250TIP3    H2 3673  -0.136   5.428   2.070
 1251TIP3   OH2 3674  -0.086   5.014   1.855
 1251TIP3    H1 3675  -0.075   5.063   1.772
 1251TIP3    H2 3676  -0.183   5.024   1.865
 1252TIP3   OH2 3677  -0.216   4.933   2.249
 1252TIP3    H1 3678  -0.136   4.901   2.206
 1252TIP3    H2 3679  -0.229   4.866   2.319
 1253TIP3   OH2 3680  -0.589   4.306   2.223
 1253TIP3    H1 3681  -0.625   4.218   2.247
 1253TIP3    H2 3682  -0.671   4.356   2.216
 1254TIP3   OH2 3683  -0.594   4.663   1.933
 1254TIP3    H1 3684  -0.525   4.599   1.911
 1254TIP3    H2 3685  -0.628   4.687   1.845
 1255TIP3   OH2 3686  -0.001   4.599   2.294
 1255TIP3    H1 3687   0.039   4.512   2.309
 1255TIP3    H2 3688   0.074   4.650   2.262
 1256TIP3   OH2 3689   0.042   4.871   2.042
 1256TIP3    H1 3690  -0.020   4.914   1.979
 1256TIP3    H2 3691   0.120   4.856   1.988
 1257TIP3   OH2 3692  -0.349   4.378   2.331
 1257TIP3    H1 3693  -0.369   4.351   2.423
 1257TIP3    H2 3694  -0.435   4.357   2.289
 1258TIP3   OH2 3695  -0.119   4.323   2.184
 1258TIP3    H1 3696  -0.195   4.323   2.245
 1258TIP3    H2 3697  -0.047   4.287   2.240
 1259TIP3   OH2 3698   0.109   4.260   2.333
 1259TIP3    H1 3699   0.120   4.164   2.351
 1259TIP3    H2 3700   0.104   4.299   2.423
 1260TIP3   OH2 3701  -0.404   3.864   2.365
 1260TIP3    H1 3702  -0.326   3.803   2.364
 1260TIP3    H2 3703  -0.429   3.857   2.272
 1261TIP3   OH2 3704  -0.316   4.079   2.522
 1261TIP3    H1 3705  -0.341   4.009   2.457
 1261TIP3    H2 3706  -0.393   4.140   2.515
 1262TIP3   OH2 3707   0.193   5.559   1.528
 1262TIP3    H1 3708   0.184   5.472   1.487
 1262TIP3    H2 3709   0.289   5.566   1.536
 1263TIP3   OH2 3710   0.265   5.051   1.350
 1263TIP3    H1 3711   0.310   4.970   1.318
 1263TIP3    H2 3712   0.257   5.099   1.267
 1264TIP3   OH2 3713   0.293   4.965   1.895
 1264TIP3    H1 3714   0.349   4.891   1.932
 1264TIP3    H2 3715   0.316   4.949   1.802
 1265TIP3   OH2 3716   0.442   4.744   1.968
 1265TIP3    H1 3717   0.371   4.678   1.986
 1265TIP3    H2 3718   0.520   4.685   1.969
 1266TIP3   OH2 3719   0.136   4.422   1.460
 1266TIP3    H1 3720   0.225   4.434   1.420
 1266TIP3    H2 3721   0.157   4.434   1.554
 1267TIP3   OH2 3722   0.217   4.532   1.704
 1267TIP3    H1 3723   0.132   4.566   1.739
 1267TIP3    H2 3724   0.248   4.606   1.649
 1268TIP3   OH2 3725   0.656   4.120   2.246
 1268TIP3    H1 3726   0.720   4.057   2.206
 1268TIP3    H2 3727   0.634   4.178   2.170
 1269TIP3   OH2 3728   0.534   4.268   2.049
 1269TIP3    H1 3729   0.446   4.304   2.068
 1269TIP3    H2 3730   0.509   4.192   1.994
 1270TIP3   OH2 3731   0.431   4.029   1.933
 1270TIP3    H1 3732   0.342   4.021   1.894
 1270TIP3    H2 3733   0.464   3.937   1.922
 1271TIP3   OH2 3734  -0.642   3.926   2.574
 1271TIP3    H1 3735  -0.571   3.910   2.511
 1271TIP3    H2 3736  -0.638   3.848   2.631
 1272TIP3   OH2 3737   0.166   3.989   2.365
 1272TIP3    H1 3738   0.185   3.957   2.456
 1272TIP3    H2 3739   0.255   3.985   2.324
 1273TIP3   OH2 3740   0.105   5.508   1.833
 1273TIP3    H1 3741   0.013   5.484   1.853
 1273TIP3    H2 3742   0.096   5.604   1.825
 1274TIP3   OH2 3743   1.373   4.902   0.628
 1274TIP3    H1 3744   1.350   4.996   0.610
 1274TIP3    H2 3745   1.292   4.859   0.598
 1275TIP3   OH2 3746   1.370   4.913   1.003
 1275TIP3    H1 3747   1.403   4.886   1.091
 1275TIP3    H2 3748   1.331   4.831   0.970
 1276TIP3   OH2 3749   0.671   4.816   1.380
 1276TIP3    H1 3750   0.705   4.743   1.435
 1276TIP3    H2 3751   0.753   4.858   1.350
 1277TIP3   OH2 3752   1.610   5.214   0.683
 1277TIP3    H1 3753   1.600   5.143   0.747
 1277TIP3    H2 3754   1.642   5.286   0.738
 1278TIP3   OH2 3755   0.655   5.201   1.148
 1278TIP3    H1 3756   0.651   5.103   1.139
 1278TIP3    H2 3757   0.745   5.216   1.113
 1279TIP3   OH2 3758   0.421   4.718   1.054
 1279TIP3    H1 3759   0.463   4.636   1.088
 1279TIP3    H2 3760   0.432   4.709   0.959
 1280TIP3   OH2 3761   1.242   5.642   0.710
 1280TIP3    H1 3762   1.305   5.580   0.668
 1280TIP3    H2 3763   1.268   5.639   0.802
 1281TIP3   OH2 3764   1.175   5.138   1.054
 1281TIP3    H1 3765   1.214   5.061   1.010
 1281TIP3    H2 3766   1.258   5.184   1.079
 1282TIP3   OH2 3767   2.182   4.461   1.050
 1282TIP3    H1 3768   2.212   4.542   1.094
 1282TIP3    H2 3769   2.203   4.481   0.957
 1283TIP3   OH2 3770   1.581   4.642   1.084
 1283TIP3    H1 3771   1.623   4.557   1.107
 1283TIP3    H2 3772   1.551   4.624   0.993
 1284TIP3   OH2 3773   0.916   4.290   1.054
 1284TIP3    H1 3774   0.896   4.360   0.988
 1284TIP3    H2 3775   0.895   4.208   1.006
 1285TIP3   OH2 3776   1.614   4.395   0.672
 1285TIP3    H1 3777   1.685   4.375   0.738
 1285TIP3    H2 3778   1.669   4.427   0.599
 1286TIP3   OH2 3779   0.554   4.501   1.161
 1286TIP3    H1 3780   0.637   4.480   1.208
 1286TIP3    H2 3781   0.567   4.451   1.078
 1287TIP3   OH2 3782   0.997   4.705   0.951
 1287TIP3    H1 3783   1.092   4.681   0.964
 1287TIP3    H2 3784   0.958   4.618   0.930
 1288TIP3   OH2 3785   2.256   4.668   1.219
 1288TIP3    H1 3786   2.172   4.715   1.201
 1288TIP3    H2 3787   2.270   4.692   1.312
 1289TIP3   OH2 3788   0.917   4.283   1.483
 1289TIP3    H1 3789   0.855   4.321   1.418
 1289TIP3    H2 3790   0.867   4.298   1.566
 1290TIP3   OH2 3791   1.270   5.124   0.512
 1290TIP3    H1 3792   1.211   5.094   0.441
 1290TIP3    H2 3793   1.259   5.219   0.511
 1291TIP3   OH2 3794   1.023   5.058   1.280
 1291TIP3    H1 3795   0.962   5.125   1.320
 1291TIP3    H2 3796   1.061   5.108   1.205
 1292TIP3   OH2 3797   1.825   4.394   0.843
 1292TIP3    H1 3798   1.814   4.345   0.926
 1292TIP3    H2 3799   1.877   4.471   0.872
 1293TIP3   OH2 3800   0.787   4.399   1.270
 1293TIP3    H1 3801   0.849   4.471   1.295
 1293TIP3    H2 3802   0.838   4.356   1.198
 1294TIP3   OH2 3803   0.853   5.250   1.388
 1294TIP3    H1 3804   0.821   5.315   1.324
 1294TIP3    H2 3805   0.771   5.239   1.440
 1295TIP3   OH2 3806   1.688   5.456   0.855
 1295TIP3    H1 3807   1.598   5.451   0.896
 1295TIP3    H2 3808   1.672   5.519   0.783
 1296TIP3   OH2 3809   1.975   4.359   1.215
 1296TIP3    H1 3810   1.888   4.390   1.185
 1296TIP3    H2 3811   2.035   4.392   1.145
 1297TIP3   OH2 3812   1.276   4.006   1.200
 1297TIP3    H1 3813   1.261   3.910   1.214
 1297TIP3    H2 3814   1.197   4.042   1.245
 1298TIP3   OH2 3815   1.394   5.489   0.544
 1298TIP3    H1 3816   1.440   5.409   0.511
 1298TIP3    H2 3817   1.449   5.557   0.499
 1299TIP3   OH2 3818   1.532   5.283   0.424
 1299TIP3    H1 3819   1.485   5.208   0.386
 1299TIP3    H2 3820   1.566   5.246   0.508
 1300TIP3   OH2 3821   1.910   5.371   1.197
 1300TIP3    H1 3822   1.900   5.294   1.137
 1300TIP3    H2 3823   1.895   5.446   1.136
 1301TIP3   OH2 3824   1.196   4.770   0.444
 1301TIP3    H1 3825   1.137   4.844   0.419
 1301TIP3    H2 3826   1.251   4.763   0.364
 1302TIP3   OH2 3827   1.163   4.507   0.184
 1302TIP3    H1 3828   1.226   4.556   0.239
 1302TIP3    H2 3829   1.208   4.423   0.169
 1303TIP3   OH2 3830   2.106   5.008   1.040
 1303TIP3    H1 3831   2.023   5.060   1.046
 1303TIP3    H2 3832   2.136   5.034   0.950
 1304TIP3   OH2 3833   1.550   4.845   0.426
 1304TIP3    H1 3834   1.495   4.869   0.505
 1304TIP3    H2 3835   1.634   4.822   0.470
 1305TIP3   OH2 3836   1.785   4.888   1.337
 1305TIP3    H1 3837   1.783   4.970   1.390
 1305TIP3    H2 3838   1.699   4.894   1.292
 1306TIP3   OH2 3839   0.780   4.844   0.852
 1306TIP3    H1 3840   0.746   4.787   0.782
 1306TIP3    H2 3841   0.862   4.797   0.880
 1307TIP3   OH2 3842   0.906   5.220   1.026
 1307TIP3    H1 3843   0.893   5.237   0.932
 1307TIP3    H2 3844   1.002   5.203   1.031
 1308TIP3   OH2 3845   0.916   4.817   1.200
 1308TIP3    H1 3846   0.949   4.797   1.110
 1308TIP3    H2 3847   0.958   4.904   1.219
 1309TIP3   OH2 3848   1.446   5.455   0.974
 1309TIP3    H1 3849   1.430   5.535   1.029
 1309TIP3    H2 3850   1.430   5.382   1.037
 1310TIP3   OH2 3851   1.059   5.378   1.521
 1310TIP3    H1 3852   0.999   5.439   1.567
 1310TIP3    H2 3853   0.994   5.323   1.473
 1311TIP3   OH2 3854   1.394   4.707   0.246
 1311TIP3    H1 3855   1.452   4.767   0.298
 1311TIP3    H2 3856   1.398   4.749   0.158
 1312TIP3   OH2 3857   0.814   4.930   1.629
 1312TIP3    H1 3858   0.815   5.018   1.671
 1312TIP3    H2 3859   0.719   4.917   1.614
 1313TIP3   OH2 3860   0.852   5.543   1.607
 1313TIP3    H1 3861   0.818   5.543   1.515
 1313TIP3    H2 3862   0.772   5.518   1.659
 1314TIP3   OH2 3863   1.908   3.950   0.297
 1314TIP3    H1 3864   1.823   3.960   0.345
 1314TIP3    H2 3865   1.908   4.031   0.244
 1315TIP3   OH2 3866   0.419   5.088   1.578
 1315TIP3    H1 3867   0.374   5.069   1.493
 1315TIP3    H2 3868   0.459   5.001   1.601
 1316TIP3   OH2 3869   2.148   5.716   1.243
 1316TIP3    H1 3870   2.146   5.620   1.258
 1316TIP3    H2 3871   2.065   5.742   1.289
 1317TIP3   OH2 3872   1.255   5.505   1.377
 1317TIP3    H1 3873   1.254   5.597   1.411
 1317TIP3    H2 3874   1.184   5.463   1.431
 1318TIP3   OH2 3875   2.039   4.848   1.516
 1318TIP3    H1 3876   1.956   4.859   1.468
 1318TIP3    H2 3877   2.054   4.752   1.508
 1319TIP3   OH2 3878   0.633   5.257   1.551
 1319TIP3    H1 3879   0.686   5.237   1.630
 1319TIP3    H2 3880   0.556   5.197   1.559
 1320TIP3   OH2 3881   1.032   4.079   1.324
 1320TIP3    H1 3882   0.944   4.047   1.297
 1320TIP3    H2 3883   1.006   4.158   1.375
 1321TIP3   OH2 3884   1.569   4.194   1.520
 1321TIP3    H1 3885   1.638   4.168   1.584
 1321TIP3    H2 3886   1.486   4.174   1.568
 1322TIP3   OH2 3887   1.806   4.623   1.439
 1322TIP3    H1 3888   1.758   4.618   1.525
 1322TIP3    H2 3889   1.783   4.711   1.406
 1323TIP3   OH2 3890   1.470   4.808  -0.033
 1323TIP3    H1 3891   1.444   4.724  -0.078
 1323TIP3    H2 3892   1.567   4.803  -0.035
 1324TIP3   OH2 3893   0.964   4.595   1.345
 1324TIP3    H1 3894   0.919   4.620   1.428
 1324TIP3    H2 3895   0.951   4.676   1.292
 1325TIP3   OH2 3896   0.847   4.486   0.876
 1325TIP3    H1 3897   0.750   4.478   0.875
 1325TIP3    H2 3898   0.868   4.478   0.780
 1326TIP3   OH2 3899   1.342   4.573   0.584
 1326TIP3    H1 3900   1.288   4.641   0.541
 1326TIP3    H2 3901   1.397   4.540   0.510
 1327TIP3   OH2 3902   1.515   4.846   1.673
 1327TIP3    H1 3903   1.494   4.772   1.735
 1327TIP3    H2 3904   1.609   4.860   1.694
 1328TIP3   OH2 3905   1.495   4.595   0.827
 1328TIP3    H1 3906   1.438   4.626   0.754
 1328TIP3    H2 3907   1.531   4.514   0.783
 1329TIP3   OH2 3908   0.782   4.625   1.557
 1329TIP3    H1 3909   0.830   4.680   1.620
 1329TIP3    H2 3910   0.773   4.541   1.605
 1330TIP3   OH2 3911   0.394   4.191   1.108
 1330TIP3    H1 3912   0.456   4.201   1.183
 1330TIP3    H2 3913   0.428   4.110   1.067
 1331TIP3   OH2 3914   1.504   4.841   1.249
 1331TIP3    H1 3915   1.539   4.769   1.191
 1331TIP3    H2 3916   1.478   4.788   1.327
 1332TIP3   OH2 3917   1.180   4.312   0.926
 1332TIP3    H1 3918   1.100   4.306   0.982
 1332TIP3    H2 3919   1.251   4.302   0.992
 1333TIP3   OH2 3920   0.592   4.374   0.920
 1333TIP3    H1 3921   0.501   4.341   0.917
 1333TIP3    H2 3922   0.642   4.292   0.927
 1334TIP3   OH2 3923   0.910   4.448   0.618
 1334TIP3    H1 3924   1.004   4.420   0.618
 1334TIP3    H2 3925   0.867   4.376   0.568
 1335TIP3   OH2 3926   1.667   4.380   1.121
 1335TIP3    H1 3927   1.635   4.391   1.213
 1335TIP3    H2 3928   1.602   4.316   1.087
 1336TIP3   OH2 3929   1.837   6.068   1.341
 1336TIP3    H1 3930   1.836   6.088   1.246
 1336TIP3    H2 3931   1.917   6.115   1.371
 1337TIP3   OH2 3932   0.793   5.177   1.768
 1337TIP3    H1 3933   0.881   5.205   1.802
 1337TIP3    H2 3934   0.740   5.187   1.848
 1338TIP3   OH2 3935   1.259   4.630   1.017
 1338TIP3    H1 3936   1.333   4.593   0.968
 1338TIP3    H2 3937   1.269   4.588   1.104
 1339TIP3   OH2 3938   1.237   4.528   1.307
 1339TIP3    H1 3939   1.148   4.565   1.323
 1339TIP3    H2 3940   1.296   4.587   1.358
 1340TIP3   OH2 3941   1.874   5.154   1.032
 1340TIP3    H1 3942   1.898   5.205   0.951
 1340TIP3    H2 3943   1.789   5.113   1.006
 1341TIP3   OH2 3944   1.427   4.230   0.279
 1341TIP3    H1 3945   1.349   4.231   0.224
 1341TIP3    H2 3946   1.454   4.324   0.285
 1342TIP3   OH2 3947   1.369   5.234   1.400
 1342TIP3    H1 3948   1.402   5.214   1.489
 1342TIP3    H2 3949   1.336   5.325   1.409
 1343TIP3   OH2 3950   1.502   4.480   0.365
 1343TIP3    H1 3951   1.598   4.483   0.386
 1343TIP3    H2 3952   1.488   4.563   0.315
 1344TIP3   OH2 3953   0.669   4.937   1.085
 1344TIP3    H1 3954   0.697   4.912   0.995
 1344TIP3    H2 3955   0.707   4.865   1.137
 1345TIP3   OH2 3956   0.526   4.873   1.707
 1345TIP3    H1 3957   0.570   4.847   1.790
 1345TIP3    H2 3958   0.489   4.790   1.675
 1346TIP3   OH2 3959   1.273   4.974   1.710
 1346TIP3    H1 3960   1.217   4.915   1.657
 1346TIP3    H2 3961   1.362   4.942   1.686
 1347TIP3   OH2 3962   1.533   5.495   1.297
 1347TIP3    H1 3963   1.436   5.495   1.310
 1347TIP3    H2 3964   1.561   5.548   1.374
 1348TIP3   OH2 3965   1.943   4.569   0.207
 1348TIP3    H1 3966   1.884   4.524   0.142
 1348TIP3    H2 3967   1.941   4.659   0.167
 1349TIP3   OH2 3968   2.161   5.424   1.286
 1349TIP3    H1 3969   2.063   5.420   1.278
 1349TIP3    H2 3970   2.186   5.395   1.195
 1350TIP3   OH2 3971   1.652   5.417   0.129
 1350TIP3    H1 3972   1.647   5.381   0.219
 1350TIP3    H2 3973   1.623   5.341   0.076
 1351TIP3   OH2 3974   1.638   5.017   0.950
 1351TIP3    H1 3975   1.545   4.991   0.964
 1351TIP3    H2 3976   1.673   4.937   0.906
 1352TIP3   OH2 3977   0.891   4.999   0.650
 1352TIP3    H1 3978   0.895   5.095   0.656
 1352TIP3    H2 3979   0.863   4.974   0.740
 1353TIP3   OH2 3980   1.045   5.592   1.186
 1353TIP3    H1 3981   1.083   5.660   1.126
 1353TIP3    H2 3982   1.125   5.558   1.229
 1354TIP3   OH2 3983   1.426   5.222   1.131
 1354TIP3    H1 3984   1.415   5.218   1.229
 1354TIP3    H2 3985   1.507   5.170   1.120
 1355TIP3   OH2 3986   1.669   5.762   1.175
 1355TIP3    H1 3987   1.590   5.706   1.167
 1355TIP3    H2 3988   1.659   5.821   1.097
 1356TIP3   OH2 3989   0.758   4.368   1.699
 1356TIP3    H1 3990   0.661   4.369   1.712
 1356TIP3    H2 3991   0.786   4.307   1.769
 1357TIP3   OH2 3992   1.577   5.030   0.207
 1357TIP3    H1 3993   1.558   4.976   0.286
 1357TIP3    H2 3994   1.675   5.033   0.209
 1358TIP3   OH2 3995   0.469   5.480   1.391
 1358TIP3    H1 3996   0.484   5.405   1.331
 1358TIP3    H2 3997   0.555   5.482   1.436
 1359TIP3   OH2 3998   1.594   4.430   1.381
 1359TIP3    H1 3999   1.673   4.469   1.421
 1359TIP3    H2 4000   1.581   4.350   1.435
 1360TIP3   OH2 4001   1.468   4.188   0.547
 1360TIP3    H1 4002   1.458   4.201   0.450
 1360TIP3    H2 4003   1.514   4.269   0.575
 1361TIP3   OH2 4004   1.173   4.369   0.655
 1361TIP3    H1 4005   1.240   4.440   0.637
 1361TIP3    H2 4006   1.180   4.360   0.753
 1362TIP3   OH2 4007   1.434   4.680   1.458
 1362TIP3    H1 4008   1.455   4.733   1.537
 1362TIP3    H2 4009   1.488   4.601   1.471
 1363TIP3   OH2 4010   1.325   4.103   0.766
 1363TIP3    H1 4011   1.316   4.183   0.820
 1363TIP3    H2 4012   1.377   4.138   0.689
 1364TIP3   OH2 4013   2.073   4.581   1.435
 1364TIP3    H1 4014   1.976   4.578   1.445
 1364TIP3    H2 4015   2.083   4.538   1.349
 1365TIP3   OH2 4016   1.724   4.775   0.825
 1365TIP3    H1 4017   1.649   4.715   0.838
 1365TIP3    H2 4018   1.797   4.729   0.872
 1366TIP3   OH2 4019   0.768   3.993   1.295
 1366TIP3    H1 4020   0.742   3.938   1.220
 1366TIP3    H2 4021   0.766   3.926   1.367
 1367TIP3   OH2 4022   0.467   5.751   1.766
 1367TIP3    H1 4023   0.553   5.759   1.813
 1367TIP3    H2 4024   0.456   5.655   1.763
 1368TIP3   OH2 4025   0.944   5.726   1.798
 1368TIP3    H1 4026   1.039   5.707   1.808
 1368TIP3    H2 4027   0.921   5.666   1.724
 1369TIP3   OH2 4028   1.583   5.631   1.534
 1369TIP3    H1 4029   1.576   5.560   1.602
 1369TIP3    H2 4030   1.662   5.679   1.562
 1370TIP3   OH2 4031   0.577   5.143   1.955
 1370TIP3    H1 4032   0.627   5.062   1.975
 1370TIP3    H2 4033   0.543   5.121   1.868
 1371TIP3   OH2 4034   1.199   5.248   1.730
 1371TIP3    H1 4035   1.165   5.267   1.640
 1371TIP3    H2 4036   1.234   5.157   1.721
 1372TIP3   OH2 4037   1.694   5.259   1.332
 1372TIP3    H1 4038   1.771   5.301   1.290
 1372TIP3    H2 4039   1.626   5.327   1.318
 1373TIP3   OH2 4040   0.713   4.894   1.936
 1373TIP3    H1 4041   0.791   4.845   1.905
 1373TIP3    H2 4042   0.744   4.924   2.025
 1374TIP3   OH2 4043   1.044   4.778   1.591
 1374TIP3    H1 4044   0.972   4.844   1.597
 1374TIP3    H2 4045   1.099   4.815   1.519
 1375TIP3   OH2 4046   1.566   5.186   1.732
 1375TIP3    H1 4047   1.647   5.162   1.685
 1375TIP3    H2 4048   1.564   5.120   1.803
 1376TIP3   OH2 4049   1.728   4.834  -0.141
 1376TIP3    H1 4050   1.705   4.777  -0.215
 1376TIP3    H2 4051   1.745   4.918  -0.189
 1377TIP3   OH2 4052   1.167   4.572   1.727
 1377TIP3    H1 4053   1.173   4.491   1.671
 1377TIP3    H2 4054   1.127   4.636   1.665
 1378TIP3   OH2 4055   1.175   4.360   1.532
 1378TIP3    H1 4056   1.204   4.399   1.448
 1378TIP3    H2 4057   1.082   4.335   1.512
 1379TIP3   OH2 4058   1.201   4.893   1.405
 1379TIP3    H1 4059   1.286   4.901   1.360
 1379TIP3    H2 4060   1.147   4.960   1.359
 1380TIP3   OH2 4061   1.780   4.861   1.782
 1380TIP3    H1 4062   1.827   4.781   1.813
 1380TIP3    H2 4063   1.854   4.916   1.751
 1381TIP3   OH2 4064   1.825   5.114   1.520
 1381TIP3    H1 4065   1.768   5.168   1.461
 1381TIP3    H2 4066   1.913   5.135   1.481
 1382TIP3   OH2 4067   1.040   4.689   1.951
 1382TIP3    H1 4068   0.978   4.615   1.967
 1382TIP3    H2 4069   1.083   4.661   1.868
 1383TIP3   OH2 4070   1.307   4.121   1.594
 1383TIP3    H1 4071   1.258   4.203   1.575
 1383TIP3    H2 4072   1.237   4.053   1.585
 1384TIP3   OH2 4073   1.435   4.629   1.815
 1384TIP3    H1 4074   1.437   4.612   1.910
 1384TIP3    H2 4075   1.343   4.601   1.795
 1385TIP3   OH2 4076   1.673   4.573   1.669
 1385TIP3    H1 4077   1.600   4.576   1.733
 1385TIP3    H2 4078   1.748   4.544   1.724
 1386TIP3   OH2 4079   1.901   4.513   1.818
 1386TIP3    H1 4080   1.912   4.418   1.840
 1386TIP3    H2 4081   1.895   4.555   1.906
 1387TIP3   OH2 4082   0.887   4.466   2.008
 1387TIP3    H1 4083   0.894   4.375   1.972
 1387TIP3    H2 4084   0.927   4.452   2.097
 1388TIP3   OH2 4085   1.396   4.129   1.854
 1388TIP3    H1 4086   1.469   4.063   1.852
 1388TIP3    H2 4087   1.362   4.121   1.763
 1389TIP3   OH2 4088   1.464   4.344   2.014
 1389TIP3    H1 4089   1.441   4.273   1.951
 1389TIP3    H2 4090   1.388   4.404   2.008
 1390TIP3   OH2 4091   1.979   5.794   0.728
 1390TIP3    H1 4092   1.965   5.836   0.814
 1390TIP3    H2 4093   1.915   5.844   0.673
 1391TIP3   OH2 4094   1.969   5.844   1.019
 1391TIP3    H1 4095   1.930   5.755   1.009
 1391TIP3    H2 4096   2.048   5.821   1.072
 1392TIP3   OH2 4097   2.020   5.518   1.585
 1392TIP3    H1 4098   1.948   5.528   1.651
 1392TIP3    H2 4099   2.064   5.606   1.590
 1393TIP3   OH2 4100   1.851   5.031   0.206
 1393TIP3    H1 4101   1.917   5.098   0.181
 1393TIP3    H2 4102   1.893   4.993   0.287
 1394TIP3   OH2 4103   1.967   4.897   0.412
 1394TIP3    H1 4104   1.899   4.856   0.471
 1394TIP3    H2 4105   2.030   4.936   0.475
 1395TIP3   OH2 4106   2.017   5.290   0.841
 1395TIP3    H1 4107   2.071   5.227   0.790
 1395TIP3    H2 4108   2.018   5.369   0.783
 1396TIP3   OH2 4109   1.851   5.590   1.039
 1396TIP3    H1 4110   1.779   5.634   1.088
 1396TIP3    H2 4111   1.801   5.542   0.969
 1397TIP3   OH2 4112   1.906   4.804   0.063
 1397TIP3    H1 4113   1.836   4.810  -0.006
 1397TIP3    H2 4114   1.882   4.883   0.117
 1398TIP3   OH2 4115   1.780   4.477   0.008
 1398TIP3    H1 4116   1.718   4.514  -0.055
 1398TIP3    H2 4117   1.749   4.384   0.015
 1399TIP3   OH2 4118   1.779   4.755   0.557
 1399TIP3    H1 4119   1.787   4.658   0.551
 1399TIP3    H2 4120   1.766   4.769   0.654
 1400TIP3   OH2 4121   0.407   4.823   1.308
 1400TIP3    H1 4122   0.403   4.796   1.213
 1400TIP3    H2 4123   0.504   4.828   1.320
 1401TIP3   OH2 4124   2.068   5.180   1.412
 1401TIP3    H1 4125   2.141   5.114   1.404
 1401TIP3    H2 4126   2.097   5.251   1.352
 1402TIP3   OH2 4127   2.254   4.985   1.428
 1402TIP3    H1 4128   2.180   4.935   1.468
 1402TIP3    H2 4129   2.327   4.922   1.443
 1403TIP3   OH2 4130   1.703   4.215   0.013
 1403TIP3    H1 4131   1.793   4.189   0.040
 1403TIP3    H2 4132   1.654   4.136   0.047
 1404TIP3   OH2 4133   1.775   4.471   0.451
 1404TIP3    H1 4134   1.815   4.382   0.467
 1404TIP3    H2 4135   1.835   4.503   0.383
 1405TIP3   OH2 4136   1.937   4.646   0.946
 1405TIP3    H1 4137   2.023   4.671   0.906
 1405TIP3    H2 4138   1.950   4.682   1.035
 1406TIP3   OH2 4139   2.005   4.788   1.177
 1406TIP3    H1 4140   1.928   4.823   1.227
 1406TIP3    H2 4141   2.038   4.870   1.133
 1407TIP3   OH2 4142   0.620   4.527   1.985
 1407TIP3    H1 4143   0.718   4.517   1.981
 1407TIP3    H2 4144   0.597   4.439   2.020
 1408TIP3   OH2 4145   2.460   4.382   1.734
 1408TIP3    H1 4146   2.518   4.316   1.691
 1408TIP3    H2 4147   2.430   4.436   1.658
 1409TIP3   OH2 4148   1.887   4.223   0.488
 1409TIP3    H1 4149   1.934   4.207   0.572
 1409TIP3    H2 4150   1.826   4.146   0.486
 1410TIP3   OH2 4151   0.584   4.204   1.305
 1410TIP3    H1 4152   0.643   4.127   1.315
 1410TIP3    H2 4153   0.647   4.278   1.307
 1411TIP3   OH2 4154   0.393   4.480   1.386
 1411TIP3    H1 4155   0.436   4.467   1.299
 1411TIP3    H2 4156   0.424   4.568   1.408
 1412TIP3   OH2 4157   2.329   4.520   1.540
 1412TIP3    H1 4158   2.245   4.561   1.567
 1412TIP3    H2 4159   2.295   4.449   1.482
 1413TIP3   OH2 4160   1.970   4.162   0.099
 1413TIP3    H1 4161   2.033   4.094   0.071
 1413TIP3    H2 4162   2.030   4.238   0.112
 1414TIP3   OH2 4163   1.536   5.671   0.403
 1414TIP3    H1 4164   1.612   5.659   0.345
 1414TIP3    H2 4165   1.567   5.740   0.464
 1415TIP3   OH2 4166   0.590   4.061   1.699
 1415TIP3    H1 4167   0.539   4.061   1.781
 1415TIP3    H2 4168   0.526   4.102   1.637
 1416TIP3   OH2 4169   0.636   5.491   1.779
 1416TIP3    H1 4170   0.543   5.462   1.770
 1416TIP3    H2 4171   0.650   5.486   1.874
 1417TIP3   OH2 4172   0.803   5.533   1.325
 1417TIP3    H1 4173   0.765   5.601   1.266
 1417TIP3    H2 4174   0.895   5.536   1.293
 1418TIP3   OH2 4175   1.253   5.772   1.461
 1418TIP3    H1 4176   1.297   5.770   1.549
 1418TIP3    H2 4177   1.320   5.820   1.408
 1419TIP3   OH2 4178   1.432   5.920   1.317
 1419TIP3    H1 4179   1.503   5.871   1.272
 1419TIP3    H2 4180   1.486   5.975   1.379
 1420TIP3   OH2 4181   2.228   4.284   1.416
 1420TIP3    H1 4182   2.136   4.278   1.385
 1420TIP3    H2 4183   2.257   4.191   1.406
 1421TIP3   OH2 4184   0.731   5.781   1.193
 1421TIP3    H1 4185   0.642   5.810   1.220
 1421TIP3    H2 4186   0.718   5.754   1.101
 1422TIP3   OH2 4187   1.146   5.783   0.994
 1422TIP3    H1 4188   1.120   5.804   0.902
 1422TIP3    H2 4189   1.156   5.872   1.033
 1423TIP3   OH2 4190   1.416   5.731   1.048
 1423TIP3    H1 4191   1.321   5.749   1.031
 1423TIP3    H2 4192   1.459   5.800   0.996
 1424TIP3   OH2 4193   1.628   5.914   0.940
 1424TIP3    H1 4194   1.594   6.004   0.922
 1424TIP3    H2 4195   1.650   5.890   0.847
 1425TIP3   OH2 4196   0.834   5.554   1.007
 1425TIP3    H1 4197   0.855   5.469   0.964
 1425TIP3    H2 4198   0.910   5.565   1.067
 1426TIP3   OH2 4199   1.429   4.199   1.036
 1426TIP3    H1 4200   1.388   4.130   1.091
 1426TIP3    H2 4201   1.501   4.150   0.992
 1427TIP3   OH2 4202   1.956   4.077   0.943
 1427TIP3    H1 4203   1.992   4.130   0.868
 1427TIP3    H2 4204   1.860   4.095   0.936
 1428TIP3   OH2 4205   2.051   4.179   0.706
 1428TIP3    H1 4206   2.125   4.128   0.666
 1428TIP3    H2 4207   2.083   4.271   0.692
 1429TIP3   OH2 4208   1.140   3.920   0.905
 1429TIP3    H1 4209   1.206   3.985   0.875
 1429TIP3    H2 4210   1.127   3.950   0.996
 1430TIP3   OH2 4211   1.672   4.086   0.916
 1430TIP3    H1 4212   1.668   4.047   0.827
 1430TIP3    H2 4213   1.658   4.006   0.972
 1431TIP3   OH2 4214   1.707   4.010   0.487
 1431TIP3    H1 4215   1.617   4.042   0.472
 1431TIP3    H2 4216   1.689   3.931   0.543
 1432TIP3   OH2 4217   1.134   4.114   0.571
 1432TIP3    H1 4218   1.191   4.075   0.638
 1432TIP3    H2 4219   1.149   4.209   0.591
 1433TIP3   OH2 4220   0.887   4.191   1.947
 1433TIP3    H1 4221   0.854   4.118   2.002
 1433TIP3    H2 4222   0.982   4.189   1.971
 1434TIP3   OH2 4223   1.137   4.184   2.063
 1434TIP3    H1 4224   1.225   4.167   2.025
 1434TIP3    H2 4225   1.131   4.112   2.128
 1435TIP3   OH2 4226   1.959   4.243   1.848
 1435TIP3    H1 4227   1.975   4.220   1.943
 1435TIP3    H2 4228   2.050   4.237   1.813
 1436TIP3   OH2 4229   1.900   5.799   1.344
 1436TIP3    H1 4230   1.823   5.768   1.292
 1436TIP3    H2 4231   1.882   5.895   1.347
 1437TIP3   OH2 4232   3.166   5.174   0.114
 1437TIP3    H1 4233   3.138   5.265   0.094
 1437TIP3    H2 4234   3.089   5.123   0.084
 1438TIP3   OH2 4235   3.167   5.168   0.489
 1438TIP3    H1 4236   3.199   5.144   0.578
 1438TIP3    H2 4237   3.124   5.086   0.461
 1439TIP3   OH2 4238   2.468   5.065   0.853
 1439TIP3    H1 4239   2.497   4.997   0.917
 1439TIP3    H2 4240   2.542   5.127   0.857
 1440TIP3   OH2 4241   3.414   5.478   0.182
 1440TIP3    H1 4242   3.401   5.406   0.245
 1440TIP3    H2 4243   3.446   5.550   0.239
 1441TIP3   OH2 4244   2.437   5.474   0.577
 1441TIP3    H1 4245   2.428   5.377   0.582
 1441TIP3    H2 4246   2.534   5.483   0.584
 1442TIP3   OH2 4247   2.147   4.679   0.365
 1442TIP3    H1 4248   2.099   4.762   0.382
 1442TIP3    H2 4249   2.074   4.624   0.330
 1443TIP3   OH2 4250   2.203   4.966   0.537
 1443TIP3    H1 4251   2.252   4.889   0.574
 1443TIP3    H2 4252   2.263   4.996   0.468
 1444TIP3   OH2 4253   3.048   5.920   0.191
 1444TIP3    H1 4254   3.110   5.856   0.151
 1444TIP3    H2 4255   3.051   5.896   0.285
 1445TIP3   OH2 4256   2.967   5.396   0.536
 1445TIP3    H1 4257   3.007   5.318   0.494
 1445TIP3    H2 4258   3.049   5.442   0.562
 1446TIP3   OH2 4259   3.978   4.717   0.537
 1446TIP3    H1 4260   4.008   4.800   0.579
 1446TIP3    H2 4261   3.998   4.735   0.443
 1447TIP3   OH2 4262   3.381   4.899   0.570
 1447TIP3    H1 4263   3.421   4.813   0.592
 1447TIP3    H2 4264   3.347   4.882   0.481
 1448TIP3   OH2 4265   2.716   4.557   0.536
 1448TIP3    H1 4266   2.695   4.630   0.474
 1448TIP3    H2 4267   2.667   4.483   0.492
 1449TIP3   OH2 4268   3.408   4.647   0.161
 1449TIP3    H1 4269   3.478   4.629   0.227
 1449TIP3    H2 4270   3.462   4.680   0.087
 1450TIP3   OH2 4271   2.350   4.760   0.642
 1450TIP3    H1 4272   2.432   4.740   0.691
 1450TIP3    H2 4273   2.363   4.702   0.564
 1451TIP3   OH2 4274   2.792   4.957   0.432
 1451TIP3    H1 4275   2.884   4.931   0.449
 1451TIP3    H2 4276   2.752   4.872   0.403
 1452TIP3   OH2 4277   4.053   4.927   0.704
 1452TIP3    H1 4278   3.968   4.972   0.685
 1452TIP3    H2 4279   4.061   4.944   0.799
 1453TIP3   OH2 4280   2.713   4.540   0.970
 1453TIP3    H1 4281   2.651   4.578   0.904
 1453TIP3    H2 4282   2.662   4.557   1.052
 1454TIP3   OH2 4283   3.075   5.398  -0.035
 1454TIP3    H1 4284   3.011   5.363  -0.098
 1454TIP3    H2 4285   3.027   5.478  -0.002
 1455TIP3   OH2 4286   2.819   5.316   0.766
 1455TIP3    H1 4287   2.756   5.380   0.806
 1455TIP3    H2 4288   2.860   5.370   0.696
 1456TIP3   OH2 4289   3.621   4.651   0.329
 1456TIP3    H1 4290   3.608   4.600   0.410
 1456TIP3    H2 4291   3.673   4.727   0.360
 1457TIP3   OH2 4292   2.583   4.656   0.755
 1457TIP3    H1 4293   2.645   4.728   0.780
 1457TIP3    H2 4294   2.633   4.615   0.681
 1458TIP3   OH2 4295   2.644   5.508   0.861
 1458TIP3    H1 4296   2.621   5.597   0.827
 1458TIP3    H2 4297   2.566   5.492   0.919
 1459TIP3   OH2 4298   2.052   5.198   0.113
 1459TIP3    H1 4299   2.015   5.216   0.024
 1459TIP3    H2 4300   2.077   5.288   0.144
 1460TIP3   OH2 4301   3.478   5.712   0.336
 1460TIP3    H1 4302   3.389   5.705   0.379
 1460TIP3    H2 4303   3.471   5.801   0.295
 1461TIP3   OH2 4304   3.771   4.619   0.704
 1461TIP3    H1 4305   3.683   4.645   0.673
 1461TIP3    H2 4306   3.830   4.649   0.631
 1462TIP3   OH2 4307   3.069   4.260   0.684
 1462TIP3    H1 4308   3.055   4.165   0.702
 1462TIP3    H2 4309   2.991   4.298   0.731
 1463TIP3   OH2 4310   3.196   5.767   0.019
 1463TIP3    H1 4311   3.246   5.684   0.004
 1463TIP3    H2 4312   3.242   5.827  -0.041
 1464TIP3   OH2 4313   3.326   5.536  -0.071
 1464TIP3    H1 4314   3.268   5.460  -0.061
 1464TIP3    H2 4315   3.378   5.527   0.012
 1465TIP3   OH2 4316   3.709   5.628   0.684
 1465TIP3    H1 4317   3.695   5.551   0.625
 1465TIP3    H2 4318   3.689   5.703   0.624
 1466TIP3   OH2 4319   2.996   5.025  -0.054
 1466TIP3    H1 4320   2.914   5.072  -0.077
 1466TIP3    H2 4321   3.041   5.016  -0.140
 1467TIP3   OH2 4322   2.954   4.802  -0.323
 1467TIP3    H1 4323   3.032   4.842  -0.282
 1467TIP3    H2 4324   2.994   4.745  -0.391
 1468TIP3   OH2 4325   3.901   5.265   0.532
 1468TIP3    H1 4326   3.816   5.315   0.539
 1468TIP3    H2 4327   3.933   5.299   0.446
 1469TIP3   OH2 4328   3.342   5.089  -0.076
 1469TIP3    H1 4329   3.292   5.122   0.002
 1469TIP3    H2 4330   3.431   5.078  -0.038
 1470TIP3   OH2 4331   3.581   5.145   0.823
 1470TIP3    H1 4332   3.578   5.227   0.875
 1470TIP3    H2 4333   3.493   5.149   0.779
 1471TIP3   OH2 4334   2.581   5.103   0.326
 1471TIP3    H1 4335   2.539   5.044   0.260
 1471TIP3    H2 4336   2.656   5.049   0.357
 1472TIP3   OH2 4337   2.714   5.520   0.474
 1472TIP3    H1 4338   2.688   5.467   0.397
 1472TIP3    H2 4339   2.802   5.483   0.495
 1473TIP3   OH2 4340   2.719   5.072   0.682
 1473TIP3    H1 4341   2.751   5.054   0.592
 1473TIP3    H2 4342   2.759   5.159   0.703
 1474TIP3   OH2 4343   3.239   5.710   0.459
 1474TIP3    H1 4344   3.227   5.791   0.511
 1474TIP3    H2 4345   3.224   5.639   0.525
 1475TIP3   OH2 4346   2.852   5.630   1.005
 1475TIP3    H1 4347   2.795   5.692   1.054
 1475TIP3    H2 4348   2.785   5.578   0.957
 1476TIP3   OH2 4349   3.182   4.970  -0.251
 1476TIP3    H1 4350   3.245   5.018  -0.191
 1476TIP3    H2 4351   3.195   5.017  -0.335
 1477TIP3   OH2 4352   2.606   5.188   1.105
 1477TIP3    H1 4353   2.612   5.274   1.151
 1477TIP3    H2 4354   2.511   5.167   1.121
 1478TIP3   OH2 4355   2.937   5.635   0.005
 1478TIP3    H1 4356   3.009   5.692   0.037
 1478TIP3    H2 4357   2.864   5.697  -0.003
 1479TIP3   OH2 4358   2.648   5.797   1.094
 1479TIP3    H1 4359   2.610   5.797   1.004
 1479TIP3    H2 4360   2.569   5.777   1.150
 1480TIP3   OH2 4361   3.702   4.215  -0.203
 1480TIP3    H1 4362   3.617   4.235  -0.160
 1480TIP3    H2 4363   3.695   4.259  -0.289
 1481TIP3   OH2 4364   2.449   4.944   0.127
 1481TIP3    H1 4365   2.378   4.990   0.076
 1481TIP3    H2 4366   2.405   4.862   0.151
 1482TIP3   OH2 4367   2.225   5.328   1.042
 1482TIP3    H1 4368   2.160   5.306   0.972
 1482TIP3    H2 4369   2.263   5.241   1.065
 1483TIP3   OH2 4370   2.074   5.524   0.683
 1483TIP3    H1 4371   2.170   5.534   0.676
 1483TIP3    H2 4372   2.049   5.612   0.716
 1484TIP3   OH2 4373   3.947   5.973   0.732
 1484TIP3    H1 4374   3.942   5.877   0.746
 1484TIP3    H2 4375   3.863   6.001   0.775
 1485TIP3   OH2 4376   3.049   5.759   0.863
 1485TIP3    H1 4377   3.049   5.851   0.897
 1485TIP3    H2 4378   2.978   5.719   0.918
 1486TIP3   OH2 4379   2.253   5.740   0.198
 1486TIP3    H1 4380   2.299   5.727   0.284
 1486TIP3    H2 4381   2.185   5.670   0.205
 1487TIP3   OH2 4382   3.836   5.105   1.002
 1487TIP3    H1 4383   3.752   5.118   0.957
 1487TIP3    H2 4384   3.849   5.009   0.992
 1488TIP3   OH2 4385   2.431   5.510   1.029
 1488TIP3    H1 4386   2.480   5.496   1.113
 1488TIP3    H2 4387   2.356   5.448   1.039
 1489TIP3   OH2 4388   2.830   4.336   0.812
 1489TIP3    H1 4389   2.741   4.305   0.786
 1489TIP3    H2 4390   2.805   4.417   0.860
 1490TIP3   OH2 4391   3.363   4.451   1.008
 1490TIP3    H1 4392   3.431   4.423   1.072
 1490TIP3    H2 4393   3.279   4.431   1.054
 1491TIP3   OH2 4394   3.606   4.882   0.929
 1491TIP3    H1 4395   3.554   4.876   1.012
 1491TIP3    H2 4396   3.577   4.968   0.893
 1492TIP3   OH2 4397   2.982   4.408  -0.217
 1492TIP3    H1 4398   2.949   4.398  -0.125
 1492TIP3    H2 4399   2.960   4.321  -0.253
 1493TIP3   OH2 4400   2.761   4.850   0.833
 1493TIP3    H1 4401   2.711   4.873   0.914
 1493TIP3    H2 4402   2.746   4.932   0.779
 1494TIP3   OH2 4403   2.644   4.738   0.346
 1494TIP3    H1 4404   2.552   4.711   0.365
 1494TIP3    H2 4405   2.658   4.695   0.259
 1495TIP3   OH2 4406   3.137   4.823   0.076
 1495TIP3    H1 4407   3.084   4.895   0.034
 1495TIP3    H2 4408   3.189   4.790   0.000
 1496TIP3   OH2 4409   3.310   5.100   1.158
 1496TIP3    H1 4410   3.288   5.029   1.222
 1496TIP3    H2 4411   3.403   5.118   1.182
 1497TIP3   OH2 4412   3.294   4.852   0.313
 1497TIP3    H1 4413   3.232   4.879   0.243
 1497TIP3    H2 4414   3.327   4.769   0.271
 1498TIP3   OH2 4415   2.580   4.879   1.040
 1498TIP3    H1 4416   2.606   4.944   1.108
 1498TIP3    H2 4417   2.569   4.798   1.093
 1499TIP3   OH2 4418   2.631   4.363  -0.258
 1499TIP3    H1 4419   2.642   4.361  -0.161
 1499TIP3    H2 4420   2.536   4.364  -0.266
 1500TIP3   OH2 4421   2.174   4.403   0.619
 1500TIP3    H1 4422   2.249   4.434   0.674
 1500TIP3    H2 4423   2.216   4.368   0.540
 1501TIP3   OH2 4424   2.144   4.385   0.138
 1501TIP3    H1 4425   2.199   4.421   0.066
 1501TIP3    H2 4426   2.087   4.462   0.159
 1502TIP3   OH2 4427   3.304   5.098   0.734
 1502TIP3    H1 4428   3.337   5.025   0.677
 1502TIP3    H2 4429   3.275   5.046   0.812
 1503TIP3   OH2 4430   2.972   4.562   0.407
 1503TIP3    H1 4431   2.890   4.559   0.459
 1503TIP3    H2 4432   3.040   4.557   0.477
 1504TIP3   OH2 4433   2.408   4.615   0.414
 1504TIP3    H1 4434   2.313   4.623   0.388
 1504TIP3    H2 4435   2.429   4.522   0.393
 1505TIP3   OH2 4436   2.678   4.609   0.107
 1505TIP3    H1 4437   2.772   4.624   0.087
 1505TIP3    H2 4438   2.632   4.633   0.023
 1506TIP3   OH2 4439   3.464   4.635   0.607
 1506TIP3    H1 4440   3.433   4.647   0.699
 1506TIP3    H2 4441   3.398   4.573   0.573
 1507TIP3   OH2 4442   2.522   4.649  -0.111
 1507TIP3    H1 4443   2.431   4.619  -0.128
 1507TIP3    H2 4444   2.556   4.674  -0.198
 1508TIP3   OH2 4445   3.635   6.324   0.826
 1508TIP3    H1 4446   3.633   6.348   0.732
 1508TIP3    H2 4447   3.711   6.377   0.857
 1509TIP3   OH2 4448   2.594   5.434   1.250
 1509TIP3    H1 4449   2.674   5.463   1.299
 1509TIP3    H2 4450   2.529   5.434   1.323
 1510TIP3   OH2 4451   3.055   4.888   0.506
 1510TIP3    H1 4452   3.127   4.845   0.458
 1510TIP3    H2 4453   3.061   4.847   0.594
 1511TIP3   OH2 4454   2.579   4.375   0.383
 1511TIP3    H1 4455   2.543   4.297   0.431
 1511TIP3    H2 4456   2.633   4.333   0.315
 1512TIP3   OH2 4457   3.033   4.786   0.792
 1512TIP3    H1 4458   2.943   4.821   0.808
 1512TIP3    H2 4459   3.089   4.846   0.844
 1513TIP3   OH2 4460   2.773   5.177  -0.114
 1513TIP3    H1 4461   2.700   5.112  -0.125
 1513TIP3    H2 4462   2.752   5.210  -0.022
 1514TIP3   OH2 4463   3.669   5.409   0.520
 1514TIP3    H1 4464   3.690   5.461   0.439
 1514TIP3    H2 4465   3.583   5.368   0.496
 1515TIP3   OH2 4466   3.244   4.486  -0.265
 1515TIP3    H1 4467   3.149   4.461  -0.259
 1515TIP3    H2 4468   3.244   4.579  -0.235
 1516TIP3   OH2 4469   3.171   5.495   0.886
 1516TIP3    H1 4470   3.191   5.470   0.977
 1516TIP3    H2 4471   3.128   5.582   0.896
 1517TIP3   OH2 4472   3.294   4.733  -0.144
 1517TIP3    H1 4473   3.389   4.736  -0.121
 1517TIP3    H2 4474   3.280   4.817  -0.191
 1518TIP3   OH2 4475   2.462   5.196   0.566
 1518TIP3    H1 4476   2.501   5.165   0.482
 1518TIP3    H2 4477   2.500   5.134   0.630
 1519TIP3   OH2 4478   2.929   5.336  -0.293
 1519TIP3    H1 4479   2.876   5.416  -0.275
 1519TIP3    H2 4480   2.876   5.270  -0.241
 1520TIP3   OH2 4481   2.343   5.116   1.178
 1520TIP3    H1 4482   2.364   5.104   1.273
 1520TIP3    H2 4483   2.273   5.050   1.165
 1521TIP3   OH2 4484   3.068   5.232   1.197
 1521TIP3    H1 4485   3.008   5.170   1.152
 1521TIP3    H2 4486   3.155   5.197   1.169
 1522TIP3   OH2 4487   3.328   5.752   0.780
 1522TIP3    H1 4488   3.232   5.751   0.796
 1522TIP3    H2 4489   3.358   5.803   0.859
 1523TIP3   OH2 4490   3.958   5.680   0.774
 1523TIP3    H1 4491   3.860   5.677   0.766
 1523TIP3    H2 4492   3.983   5.652   0.683
 1524TIP3   OH2 4493   3.434   5.274   0.434
 1524TIP3    H1 4494   3.341   5.249   0.451
 1524TIP3    H2 4495   3.468   5.193   0.392
 1525TIP3   OH2 4496   2.559   5.497   0.180
 1525TIP3    H1 4497   2.553   5.584   0.137
 1525TIP3    H2 4498   2.468   5.484   0.209
 1526TIP3   OH2 4499   2.130   4.808  -0.102
 1526TIP3    H1 4500   2.172   4.893  -0.083
 1526TIP3    H2 4501   2.051   4.811  -0.044
 1527TIP3   OH2 4502   2.704   5.268   0.132
 1527TIP3    H1 4503   2.663   5.354   0.150
 1527TIP3    H2 4504   2.670   5.214   0.206
 1528TIP3   OH2 4505   2.832   5.845   0.659
 1528TIP3    H1 4506   2.875   5.918   0.610
 1528TIP3    H2 4507   2.906   5.810   0.711
 1529TIP3   OH2 4508   2.485   5.741   0.047
 1529TIP3    H1 4509   2.398   5.744   0.092
 1529TIP3    H2 4510   2.511   5.836   0.052
 1530TIP3   OH2 4511   3.219   5.476   0.618
 1530TIP3    H1 4512   3.208   5.478   0.716
 1530TIP3    H2 4513   3.302   5.426   0.610
 1531TIP3   OH2 4514   3.470   6.010   0.667
 1531TIP3    H1 4515   3.389   5.955   0.661
 1531TIP3    H2 4516   3.453   6.077   0.596
 1532TIP3   OH2 4517   2.554   4.622   1.186
 1532TIP3    H1 4518   2.458   4.627   1.202
 1532TIP3    H2 4519   2.583   4.564   1.260
 1533TIP3   OH2 4520   2.284   5.703   0.814
 1533TIP3    H1 4521   2.328   5.628   0.856
 1533TIP3    H2 4522   2.297   5.772   0.880
 1534TIP3   OH2 4523   2.523   5.363  -0.242
 1534TIP3    H1 4524   2.566   5.332  -0.161
 1534TIP3    H2 4525   2.502   5.456  -0.220
 1535TIP3   OH2 4526   2.244   5.054  -0.022
 1535TIP3    H1 4527   2.180   5.096   0.039
 1535TIP3    H2 4528   2.255   5.126  -0.088
 1536TIP3   OH2 4529   3.393   4.684   0.866
 1536TIP3    H1 4530   3.469   4.724   0.912
 1536TIP3    H2 4531   3.376   4.605   0.921
 1537TIP3   OH2 4532   3.261   4.442   0.030
 1537TIP3    H1 4533   3.257   4.462  -0.066
 1537TIP3    H2 4534   3.304   4.522   0.066
 1538TIP3   OH2 4535   2.959   4.618   0.136
 1538TIP3    H1 4536   3.025   4.689   0.120
 1538TIP3    H2 4537   2.963   4.609   0.233
 1539TIP3   OH2 4538   3.231   4.938   0.942
 1539TIP3    H1 4539   3.248   4.993   1.021
 1539TIP3    H2 4540   3.283   4.858   0.961
 1540TIP3   OH2 4541   3.104   4.346   0.238
 1540TIP3    H1 4542   3.101   4.421   0.299
 1540TIP3    H2 4543   3.162   4.381   0.167
 1541TIP3   OH2 4544   2.479   5.625  -0.198
 1541TIP3    H1 4545   2.533   5.684  -0.253
 1541TIP3    H2 4546   2.479   5.669  -0.111
 1542TIP3   OH2 4547   2.620   4.344   0.022
 1542TIP3    H1 4548   2.615   4.432   0.064
 1542TIP3    H2 4549   2.715   4.325   0.036
 1543TIP3   OH2 4550   3.872   4.836   0.919
 1543TIP3    H1 4551   3.774   4.838   0.933
 1543TIP3    H2 4552   3.876   4.788   0.836
 1544TIP3   OH2 4553   3.519   5.031   0.313
 1544TIP3    H1 4554   3.443   4.972   0.327
 1544TIP3    H2 4555   3.591   4.984   0.361
 1545TIP3   OH2 4556   2.246   5.262  -0.210
 1545TIP3    H1 4557   2.292   5.347  -0.215
 1545TIP3    H2 4558   2.293   5.211  -0.279
 1546TIP3   OH2 4559   2.197   4.545  -0.093
 1546TIP3    H1 4560   2.179   4.642  -0.100
 1546TIP3    H2 4561   2.116   4.509  -0.128
 1547TIP3   OH2 4562   3.484   5.979   0.264
 1547TIP3    H1 4563   3.446   6.034   0.191
 1547TIP3    H2 4564   3.580   5.996   0.249
 1548TIP3   OH2 4565   2.565   4.256   0.788
 1548TIP3    H1 4566   2.534   4.221   0.702
 1548TIP3    H2 4567   2.555   4.178   0.847
 1549TIP3   OH2 4568   2.108   5.466   0.175
 1549TIP3    H1 4569   2.041   5.501   0.235
 1549TIP3    H2 4570   2.078   5.507   0.090
 1550TIP3   OH2 4571   2.260   6.016   1.242
 1550TIP3    H1 4572   2.347   6.014   1.287
 1550TIP3    H2 4573   2.239   5.921   1.239
 1551TIP3   OH2 4574   2.745   5.992   1.271
 1551TIP3    H1 4575   2.832   5.959   1.298
 1551TIP3    H2 4576   2.720   5.925   1.205
 1552TIP3   OH2 4577   3.385   5.883   1.015
 1552TIP3    H1 4578   3.373   5.816   1.086
 1552TIP3    H2 4579   3.458   5.937   1.050
 1553TIP3   OH2 4580   2.392   5.419   1.440
 1553TIP3    H1 4581   2.407   5.323   1.443
 1553TIP3    H2 4582   2.304   5.423   1.397
 1554TIP3   OH2 4583   2.384   5.079  -0.363
 1554TIP3    H1 4584   2.432   5.048  -0.285
 1554TIP3    H2 4585   2.455   5.095  -0.426
 1555TIP3   OH2 4586   3.002   5.509   1.212
 1555TIP3    H1 4587   2.956   5.523   1.127
 1555TIP3    H2 4588   3.030   5.415   1.207
 1556TIP3   OH2 4589   3.491   5.512   0.819
 1556TIP3    H1 4590   3.565   5.561   0.777
 1556TIP3    H2 4591   3.419   5.577   0.809
 1557TIP3   OH2 4592   2.511   5.153   1.420
 1557TIP3    H1 4593   2.587   5.096   1.403
 1557TIP3    H2 4594   2.533   5.186   1.510
 1558TIP3   OH2 4595   2.578   4.978  -0.146
 1558TIP3    H1 4596   2.547   4.942  -0.060
 1558TIP3    H2 4597   2.610   4.897  -0.191
 1559TIP3   OH2 4598   2.845   5.040   1.084
 1559TIP3    H1 4599   2.768   5.100   1.086
 1559TIP3    H2 4600   2.895   5.075   1.007
 1560TIP3   OH2 4601   2.679   4.766  -0.316
 1560TIP3    H1 4602   2.687   4.731  -0.405
 1560TIP3    H2 4603   2.774   4.783  -0.297
 1561TIP3   OH2 4604   3.361   5.442   1.217
 1561TIP3    H1 4605   3.444   5.418   1.175
 1561TIP3    H2 4606   3.356   5.378   1.290
 1562TIP3   OH2 4607   2.970   4.829   1.210
 1562TIP3    H1 4608   2.968   4.749   1.154
 1562TIP3    H2 4609   2.924   4.895   1.153
 1563TIP3   OH2 4610   2.971   4.615   1.016
 1563TIP3    H1 4611   2.998   4.656   0.932
 1563TIP3    H2 4612   2.877   4.592   0.999
 1564TIP3   OH2 4613   2.998   5.149   0.889
 1564TIP3    H1 4614   3.082   5.161   0.843
 1564TIP3    H2 4615   2.941   5.216   0.846
 1565TIP3   OH2 4616   3.579   5.116   1.270
 1565TIP3    H1 4617   3.629   5.035   1.287
 1565TIP3    H2 4618   3.648   5.177   1.240
 1566TIP3   OH2 4619   3.622   5.369   1.007
 1566TIP3    H1 4620   3.563   5.422   0.949
 1566TIP3    H2 4621   3.709   5.392   0.966
 1567TIP3   OH2 4622   2.844   4.941   1.439
 1567TIP3    H1 4623   2.777   4.872   1.455
 1567TIP3    H2 4624   2.880   4.914   1.352
 1568TIP3   OH2 4625   3.103   4.378   1.083
 1568TIP3    H1 4626   3.053   4.460   1.062
 1568TIP3    H2 4627   3.034   4.310   1.073
 1569TIP3   OH2 4628   3.230   4.883   1.301
 1569TIP3    H1 4629   3.219   4.872   1.397
 1569TIP3    H2 4630   3.140   4.859   1.271
 1570TIP3   OH2 4631   3.467   4.828   1.154
 1570TIP3    H1 4632   3.393   4.834   1.217
 1570TIP3    H2 4633   3.541   4.800   1.212
 1571TIP3   OH2 4634   3.702   4.773   1.304
 1571TIP3    H1 4635   3.711   4.677   1.324
 1571TIP3    H2 4636   3.694   4.813   1.394
 1572TIP3   OH2 4637   2.686   4.721   1.492
 1572TIP3    H1 4638   2.692   4.629   1.460
 1572TIP3    H2 4639   2.721   4.711   1.583
 1573TIP3   OH2 4640   3.199   4.389   1.341
 1573TIP3    H1 4641   3.265   4.317   1.336
 1573TIP3    H2 4642   3.158   4.382   1.252
 1574TIP3   OH2 4643   3.265   4.605   1.500
 1574TIP3    H1 4644   3.242   4.533   1.436
 1574TIP3    H2 4645   3.186   4.663   1.495
 1575TIP3   OH2 4646   1.989   5.197  -0.157
 1575TIP3    H1 4647   2.076   5.236  -0.180
 1575TIP3    H2 4648   1.984   5.125  -0.222
 1576TIP3   OH2 4649   1.890   5.820   0.199
 1576TIP3    H1 4650   1.796   5.837   0.220
 1576TIP3    H2 4651   1.919   5.767   0.276
 1577TIP3   OH2 4652   2.014   5.687   0.415
 1577TIP3    H1 4653   1.997   5.616   0.478
 1577TIP3    H2 4654   2.060   5.751   0.474
 1578TIP3   OH2 4655   3.743   6.054   0.233
 1578TIP3    H1 4656   3.767   6.105   0.313
 1578TIP3    H2 4657   3.784   6.107   0.163
 1579TIP3   OH2 4658   3.766   6.099   0.508
 1579TIP3    H1 4659   3.730   6.008   0.503
 1579TIP3    H2 4660   3.850   6.082   0.553
 1580TIP3   OH2 4661   3.818   5.773   1.074
 1580TIP3    H1 4662   3.744   5.782   1.137
 1580TIP3    H2 4663   3.857   5.863   1.077
 1581TIP3   OH2 4664   3.756   5.157  -0.075
 1581TIP3    H1 4665   3.688   5.112  -0.020
 1581TIP3    H2 4666   3.817   5.191  -0.006
 1582TIP3   OH2 4667   3.799   5.548   0.325
 1582TIP3    H1 4668   3.868   5.487   0.291
 1582TIP3    H2 4669   3.813   5.627   0.269
 1583TIP3   OH2 4670   3.646   5.844   0.525
 1583TIP3    H1 4671   3.576   5.892   0.575
 1583TIP3    H2 4672   3.594   5.799   0.455
 1584TIP3   OH2 4673   3.577   5.003   0.051
 1584TIP3    H1 4674   3.571   4.906   0.047
 1584TIP3    H2 4675   3.559   5.020   0.147
 1585TIP3   OH2 4676   2.202   5.085   0.790
 1585TIP3    H1 4677   2.200   5.055   0.697
 1585TIP3    H2 4678   2.299   5.086   0.807
 1586TIP3   OH2 4679   3.865   5.436   0.899
 1586TIP3    H1 4680   3.938   5.372   0.890
 1586TIP3    H2 4681   3.892   5.508   0.839
 1587TIP3   OH2 4682   4.052   5.242   0.913
 1587TIP3    H1 4683   3.976   5.194   0.954
 1587TIP3    H2 4684   4.123   5.177   0.930
 1588TIP3   OH2 4685   3.566   4.724  -0.055
 1588TIP3    H1 4686   3.603   4.634  -0.039
 1588TIP3    H2 4687   3.632   4.758  -0.116
 1589TIP3   OH2 4688   3.732   4.902   0.433
 1589TIP3    H1 4689   3.819   4.928   0.394
 1589TIP3    H2 4690   3.744   4.938   0.523
 1590TIP3   OH2 4691   3.801   5.044   0.664
 1590TIP3    H1 4692   3.724   5.077   0.715
 1590TIP3    H2 4693   3.833   5.126   0.622
 1591TIP3   OH2 4694   2.419   4.772   1.463
 1591TIP3    H1 4695   2.517   4.766   1.466
 1591TIP3    H2 4696   2.395   4.687   1.505
 1592TIP3   OH2 4697   4.257   4.639   1.221
 1592TIP3    H1 4698   4.314   4.572   1.178
 1592TIP3    H2 4699   4.226   4.691   1.144
 1593TIP3   OH2 4700   3.673   4.479  -0.020
 1593TIP3    H1 4701   3.725   4.462   0.062
 1593TIP3    H2 4702   3.617   4.399  -0.023
 1594TIP3   OH2 4703   2.380   4.463   0.792
 1594TIP3    H1 4704   2.442   4.389   0.804
 1594TIP3    H2 4705   2.442   4.538   0.789
 1595TIP3   OH2 4706   2.183   4.737   0.867
 1595TIP3    H1 4707   2.233   4.734   0.783
 1595TIP3    H2 4708   2.211   4.822   0.903
 1596TIP3   OH2 4709   4.126   4.777   1.026
 1596TIP3    H1 4710   4.041   4.818   1.051
 1596TIP3    H2 4711   4.093   4.705   0.968
 1597TIP3   OH2 4712   2.167   4.242   0.368
 1597TIP3    H1 4713   2.075   4.238   0.397
 1597TIP3    H2 4714   2.162   4.301   0.290
 1598TIP3   OH2 4715   2.387   4.320   1.182
 1598TIP3    H1 4716   2.338   4.316   1.265
 1598TIP3    H2 4717   2.320   4.359   1.123
 1599TIP3   OH2 4718   2.427   5.753   1.258
 1599TIP3    H1 4719   2.335   5.722   1.252
 1599TIP3    H2 4720   2.451   5.733   1.349
 1600TIP3   OH2 4721   2.606   5.778   0.807
 1600TIP3    H1 4722   2.553   5.850   0.770
 1600TIP3    H2 4723   2.691   5.797   0.763
 1601TIP3   OH2 4724   3.051   6.025   0.946
 1601TIP3    H1 4725   3.091   6.025   1.035
 1601TIP3    H2 4726   3.117   6.077   0.896
 1602TIP3   OH2 4727   3.230   6.178   0.804
 1602TIP3    H1 4728   3.302   6.127   0.764
 1602TIP3    H2 4729   3.280   6.236   0.865
 1603TIP3   OH2 4730   4.024   4.539   0.904
 1603TIP3    H1 4731   3.932   4.532   0.872
 1603TIP3    H2 4732   4.054   4.446   0.894
 1604TIP3   OH2 4733   2.289   6.042   0.829
 1604TIP3    H1 4734   2.198   6.070   0.806
 1604TIP3    H2 4735   2.289   6.065   0.923
 1605TIP3   OH2 4736   2.521   6.018   0.688
 1605TIP3    H1 4737   2.435   6.030   0.736
 1605TIP3    H2 4738   2.495   6.046   0.598
 1606TIP3   OH2 4739   2.945   6.047   0.484
 1606TIP3    H1 4740   2.874   6.068   0.421
 1606TIP3    H2 4741   2.957   6.134   0.529
 1607TIP3   OH2 4742   3.213   5.982   0.535
 1607TIP3    H1 4743   3.119   6.004   0.518
 1607TIP3    H2 4744   3.258   6.061   0.500
 1608TIP3   OH2 4745   3.415   6.175   0.454
 1608TIP3    H1 4746   3.404   6.260   0.407
 1608TIP3    H2 4747   3.444   6.116   0.382
 1609TIP3   OH2 4748   2.214   5.844   0.562
 1609TIP3    H1 4749   2.209   5.817   0.656
 1609TIP3    H2 4750   2.282   5.782   0.528
 1610TIP3   OH2 4751   2.394   5.693   0.424
 1610TIP3    H1 4752   2.406   5.613   0.480
 1610TIP3    H2 4753   2.483   5.734   0.428
 1611TIP3   OH2 4754   2.657   5.798   0.435
 1611TIP3    H1 4755   2.686   5.705   0.429
 1611TIP3    H2 4756   2.698   5.821   0.521
 1612TIP3   OH2 4757   3.227   4.453   0.521
 1612TIP3    H1 4758   3.184   4.385   0.576
 1612TIP3    H2 4759   3.300   4.404   0.480
 1613TIP3   OH2 4760   3.753   4.337   0.430
 1613TIP3    H1 4761   3.787   4.389   0.353
 1613TIP3    H2 4762   3.657   4.350   0.422
 1614TIP3   OH2 4763   3.847   4.439   0.192
 1614TIP3    H1 4764   3.921   4.387   0.154
 1614TIP3    H2 4765   3.879   4.531   0.179
 1615TIP3   OH2 4766   2.477   4.163   0.539
 1615TIP3    H1 4767   2.385   4.130   0.542
 1615TIP3    H2 4768   2.526   4.078   0.536
 1616TIP3   OH2 4769   2.245   4.032   0.182
 1616TIP3    H1 4770   2.293   4.086   0.116
 1616TIP3    H2 4771   2.231   4.098   0.253
 1617TIP3   OH2 4772   2.919   4.197   0.420
 1617TIP3    H1 4773   2.979   4.244   0.361
 1617TIP3    H2 4774   2.941   4.234   0.507
 1618TIP3   OH2 4775   3.470   4.341   0.402
 1618TIP3    H1 4776   3.467   4.301   0.314
 1618TIP3    H2 4777   3.456   4.262   0.460
 1619TIP3   OH2 4778   3.492   4.266  -0.029
 1619TIP3    H1 4779   3.401   4.299  -0.027
 1619TIP3    H2 4780   3.481   4.180   0.018
 1620TIP3   OH2 4781   1.979   5.588  -0.021
 1620TIP3    H1 4782   1.908   5.549  -0.073
 1620TIP3    H2 4783   1.951   5.681  -0.018
 1621TIP3   OH2 4784   2.383   4.184  -0.006
 1621TIP3    H1 4785   2.412   4.126  -0.077
 1621TIP3    H2 4786   2.461   4.243   0.006
 1622TIP3   OH2 4787   2.896   4.367   0.048
 1622TIP3    H1 4788   2.954   4.319   0.110
 1622TIP3    H2 4789   2.917   4.459   0.076
 1623TIP3   OH2 4790   2.686   4.444   1.429
 1623TIP3    H1 4791   2.649   4.375   1.487
 1623TIP3    H2 4792   2.779   4.444   1.459
 1624TIP3   OH2 4793   2.934   4.440   1.550
 1624TIP3    H1 4794   3.020   4.414   1.513
 1624TIP3    H2 4795   2.920   4.370   1.618
 1625TIP3   OH2 4796   3.759   4.501   1.338
 1625TIP3    H1 4797   3.776   4.470   1.430
 1625TIP3    H2 4798   3.848   4.495   1.298
 1626TIP3   OH2 4799   3.699   6.055   0.831
 1626TIP3    H1 4800   3.620   6.024   0.781
 1626TIP3    H2 4801   3.681   6.151   0.832
 1627TIP3   OH2 4802   4.264   5.318   0.338
 1627TIP3    H1 4803   4.292   5.251   0.403
 1627TIP3    H2 4804   4.334   5.384   0.350
 1628TIP3   OH2 4805   4.245   5.685   0.136
 1628TIP3    H1 4806   4.238   5.591   0.112
 1628TIP3    H2 4807   4.341   5.695   0.142
 1629TIP3   OH2 4808   3.930   4.945  -0.138
 1629TIP3    H1 4809   3.875   5.023  -0.119
 1629TIP3    H2 4810   3.892   4.877  -0.081
 1630TIP3   OH2 4811   3.972   5.217   0.080
 1630TIP3    H1 4812   4.023   5.137   0.105
 1630TIP3    H2 4813   4.030   5.248   0.007
 1631TIP3   OH2 4814   4.515   4.797   0.103
 1631TIP3    H1 4815   4.559   4.868   0.055
 1631TIP3    H2 4816   4.481   4.743   0.029
 1632TIP3   OH2 4817   4.143   5.018   0.137
 1632TIP3    H1 4818   4.222   4.996   0.191
 1632TIP3    H2 4819   4.160   4.960   0.058
 1633TIP3   OH2 4820   4.511   4.802   0.464
 1633TIP3    H1 4821   4.445   4.837   0.402
 1633TIP3    H2 4822   4.461   4.812   0.547
 1634TIP3   OH2 4823   4.620   5.577   0.273
 1634TIP3    H1 4824   4.554   5.636   0.315
 1634TIP3    H2 4825   4.657   5.638   0.208
 1635TIP3   OH2 4826   4.358   4.927   0.273
 1635TIP3    H1 4827   4.424   4.996   0.293
 1635TIP3    H2 4828   4.410   4.872   0.209
 1636TIP3   OH2 4829   4.440   5.760   0.352
 1636TIP3    H1 4830   4.420   5.852   0.323
 1636TIP3    H2 4831   4.361   5.746   0.409
 1637TIP3   OH2 4832   5.572   4.880   0.187
 1637TIP3    H1 4833   5.474   4.893   0.182
 1637TIP3    H2 4834   5.590   4.865   0.092
 1638TIP3   OH2 4835   4.865   4.508   0.191
 1638TIP3    H1 4836   4.844   4.413   0.201
 1638TIP3    H2 4837   4.783   4.547   0.229
 1639TIP3   OH2 4838   5.365   5.387   0.343
 1639TIP3    H1 4839   5.359   5.471   0.391
 1639TIP3    H2 4840   5.306   5.405   0.267
 1640TIP3   OH2 4841   4.519   5.339   0.200
 1640TIP3    H1 4842   4.517   5.358   0.105
 1640TIP3    H2 4843   4.549   5.426   0.235
 1641TIP3   OH2 4844   4.635   5.861   0.527
 1641TIP3    H1 4845   4.587   5.943   0.546
 1641TIP3    H2 4846   4.578   5.822   0.458
 1642TIP3   OH2 4847   4.401   5.442   0.589
 1642TIP3    H1 4848   4.409   5.529   0.635
 1642TIP3    H2 4849   4.308   5.422   0.609
 1643TIP3   OH2 4850   4.442   6.063   0.584
 1643TIP3    H1 4851   4.407   6.060   0.493
 1643TIP3    H2 4852   4.363   6.036   0.636
 1644TIP3   OH2 4853   4.023   5.583   0.531
 1644TIP3    H1 4854   3.961   5.562   0.460
 1644TIP3    H2 4855   4.060   5.496   0.554
 1645TIP3   OH2 4856   3.895   5.764   0.172
 1645TIP3    H1 4857   3.984   5.803   0.185
 1645TIP3    H2 4858   3.841   5.839   0.201
 1646TIP3   OH2 4859   5.604   5.348   0.493
 1646TIP3    H1 4860   5.539   5.365   0.422
 1646TIP3    H2 4861   5.636   5.259   0.468
 1647TIP3   OH2 4862   4.225   5.767   0.516
 1647TIP3    H1 4863   4.274   5.753   0.600
 1647TIP3    H2 4864   4.151   5.704   0.525
 1648TIP3   OH2 4865   4.626   4.588   0.300
 1648TIP3    H1 4866   4.535   4.556   0.278
 1648TIP3    H2 4867   4.602   4.676   0.333
 1649TIP3   OH2 4868   5.146   4.758   0.543
 1649TIP3    H1 4869   5.223   4.701   0.564
 1649TIP3    H2 4870   5.073   4.693   0.551
 1650TIP3   OH2 4871   5.369   5.133   0.444
 1650TIP3    H1 4872   5.406   5.173   0.523
 1650TIP3    H2 4873   5.364   5.211   0.385
 1651TIP3   OH2 4874   4.559   5.105   0.323
 1651TIP3    H1 4875   4.512   5.125   0.407
 1651TIP3    H2 4876   4.545   5.190   0.275
 1652TIP3   OH2 4877   5.116   5.309   0.652
 1652TIP3    H1 4878   5.076   5.309   0.740
 1652TIP3    H2 4879   5.201   5.353   0.669
 1653TIP3   OH2 4880   4.382   5.136   0.529
 1653TIP3    H1 4881   4.391   5.201   0.601
 1653TIP3    H2 4882   4.365   5.054   0.579
 1654TIP3   OH2 4883   3.960   4.673   0.111
 1654TIP3    H1 4884   4.044   4.691   0.159
 1654TIP3    H2 4885   3.989   4.647   0.022
 1655TIP3   OH2 4886   5.106   5.377   0.221
 1655TIP3    H1 4887   5.104   5.305   0.156
 1655TIP3    H2 4888   5.097   5.332   0.306
 1656TIP3   OH2 4889   4.191   4.867  -0.082
 1656TIP3    H1 4890   4.109   4.890  -0.132
 1656TIP3    H2 4891   4.210   4.779  -0.116
 1657TIP3   OH2 4892   5.302   4.877   0.148
 1657TIP3    H1 4893   5.214   4.871   0.186
 1657TIP3    H2 4894   5.283   4.862   0.054
 1658TIP3   OH2 4895   4.388   5.686   0.735
 1658TIP3    H1 4896   4.467   5.723   0.780
 1658TIP3    H2 4897   4.324   5.688   0.808
 1659TIP3   OH2 4898   4.826   5.045   0.314
 1659TIP3    H1 4899   4.730   5.054   0.298
 1659TIP3    H2 4900   4.854   5.137   0.304
 1660TIP3   OH2 4901   4.956   5.700   0.406
 1660TIP3    H1 4902   4.963   5.755   0.485
 1660TIP3    H2 4903   4.967   5.768   0.337
 1661TIP3   OH2 4904   4.283   5.426   0.056
 1661TIP3    H1 4905   4.235   5.371  -0.011
 1661TIP3    H2 4906   4.283   5.369   0.133
 1662TIP3   OH2 4907   4.142   5.367   0.663
 1662TIP3    H1 4908   4.158   5.359   0.759
 1662TIP3    H2 4909   4.067   5.306   0.651
 1663TIP3   OH2 4910   4.866   5.476   0.687
 1663TIP3    H1 4911   4.797   5.418   0.652
 1663TIP3    H2 4912   4.939   5.459   0.626
 1664TIP3   OH2 4913   4.348   4.879   0.675
 1664TIP3    H1 4914   4.252   4.884   0.689
 1664TIP3    H2 4915   4.375   4.819   0.747
 1665TIP3   OH2 4916   4.081   5.950   0.316
 1665TIP3    H1 4917   4.131   5.892   0.376
 1665TIP3    H2 4918   4.090   6.036   0.360
 1666TIP3   OH2 4919   5.653   5.097   0.393
 1666TIP3    H1 4920   5.558   5.075   0.400
 1666TIP3    H2 4921   5.676   5.047   0.313
 1667TIP3   OH2 4922   4.362   4.514   0.281
 1667TIP3    H1 4923   4.329   4.482   0.194
 1667TIP3    H2 4924   4.351   4.435   0.338
 1668TIP3   OH2 4925   4.055   6.269   0.735
 1668TIP3    H1 4926   4.144   6.266   0.776
 1668TIP3    H2 4927   4.034   6.175   0.724
 1669TIP3   OH2 4928   4.546   6.233   0.777
 1669TIP3    H1 4929   4.639   6.208   0.769
 1669TIP3    H2 4930   4.508   6.181   0.703
 1670TIP3   OH2 4931   5.162   6.168   0.513
 1670TIP3    H1 4932   5.158   6.079   0.555
 1670TIP3    H2 4933   5.249   6.201   0.541
 1671TIP3   OH2 4934   4.188   5.679   0.928
 1671TIP3    H1 4935   4.202   5.583   0.934
 1671TIP3    H2 4936   4.100   5.683   0.885
 1672TIP3   OH2 4937   4.803   5.762   0.708
 1672TIP3    H1 4938   4.750   5.786   0.628
 1672TIP3    H2 4939   4.828   5.669   0.688
 1673TIP3   OH2 4940   5.301   5.784   0.306
 1673TIP3    H1 4941   5.327   5.823   0.221
 1673TIP3    H2 4942   5.209   5.819   0.308
 1674TIP3   OH2 4943   4.308   5.413   0.908
 1674TIP3    H1 4944   4.379   5.350   0.894
 1674TIP3    H2 4945   4.331   5.447   0.997
 1675TIP3   OH2 4946   4.649   5.308   0.571
 1675TIP3    H1 4947   4.564   5.358   0.576
 1675TIP3    H2 4948   4.683   5.332   0.484
 1676TIP3   OH2 4949   5.155   5.694   0.712
 1676TIP3    H1 4950   5.235   5.679   0.660
 1676TIP3    H2 4951   5.163   5.629   0.784
 1677TIP3   OH2 4952   4.761   5.086   0.694
 1677TIP3    H1 4953   4.751   5.005   0.641
 1677TIP3    H2 4954   4.722   5.155   0.637
 1678TIP3   OH2 4955   4.771   4.863   0.512
 1678TIP3    H1 4956   4.790   4.917   0.432
 1678TIP3    H2 4957   4.676   4.839   0.497
 1679TIP3   OH2 4958   4.814   5.393   0.345
 1679TIP3    H1 4959   4.895   5.441   0.319
 1679TIP3    H2 4960   4.749   5.465   0.333
 1680TIP3   OH2 4961   5.385   5.369   0.762
 1680TIP3    H1 4962   5.439   5.291   0.779
 1680TIP3    H2 4963   5.448   5.426   0.715
 1681TIP3   OH2 4964   5.424   5.635   0.494
 1681TIP3    H1 4965   5.370   5.692   0.433
 1681TIP3    H2 4966   5.514   5.663   0.468
 1682TIP3   OH2 4967   4.647   5.198   0.925
 1682TIP3    H1 4968   4.579   5.129   0.940
 1682TIP3    H2 4969   4.684   5.169   0.839
 1683TIP3   OH2 4970   4.903   4.628   0.564
 1683TIP3    H1 4971   4.845   4.705   0.547
 1683TIP3    H2 4972   4.838   4.555   0.556
 1684TIP3   OH2 4973   5.518   5.034   0.792
 1684TIP3    H1 4974   5.512   4.938   0.806
 1684TIP3    H2 4975   5.496   5.070   0.880
 1685TIP3   OH2 4976   4.484   4.978   0.978
 1685TIP3    H1 4977   4.486   4.886   0.947
 1685TIP3    H2 4978   4.520   4.967   1.069
 1686TIP3   OH2 4979   4.998   4.650   0.822
 1686TIP3    H1 4980   5.063   4.577   0.823
 1686TIP3    H2 4981   4.952   4.633   0.737
 1687TIP3   OH2 4982   5.067   4.867   0.978
 1687TIP3    H1 4983   5.037   4.792   0.922
 1687TIP3    H2 4984   4.986   4.923   0.982
 1688TIP3   OH2 4985   5.605   6.039   0.555
 1688TIP3    H1 4986   5.537   6.041   0.626
 1688TIP3    H2 4987   5.650   6.125   0.568
 1689TIP3   OH2 4988   4.001   5.369   0.299
 1689TIP3    H1 4989   3.985   5.317   0.217
 1689TIP3    H2 4990   4.098   5.358   0.310
 1690TIP3   OH2 4991   5.676   5.710   0.416
 1690TIP3    H1 4992   5.741   5.635   0.417
 1690TIP3    H2 4993   5.721   5.766   0.349
 1691TIP3   OH2 4994   5.824   5.489   0.428
 1691TIP3    H1 4995   5.745   5.436   0.452
 1691TIP3    H2 4996   5.895   5.426   0.453
 1692TIP3   OH2 4997   4.218   5.030   0.953
 1692TIP3    H1 4998   4.315   5.021   0.954
 1692TIP3    H2 4999   4.192   4.944   0.992
 1693TIP3   OH2 5000   6.051   4.898   0.712
 1693TIP3    H1 5001   6.106   4.828   0.671
 1693TIP3    H2 5002   6.020   4.948   0.634
 1694TIP3   OH2 5003   4.174   4.718   0.282
 1694TIP3    H1 5004   4.239   4.645   0.290
 1694TIP3    H2 5005   4.231   4.796   0.291
 1695TIP3   OH2 5006   3.978   4.993   0.356
 1695TIP3    H1 5007   4.030   4.987   0.273
 1695TIP3    H2 5008   4.010   5.075   0.394
 1696TIP3   OH2 5009   5.914   5.030   0.517
 1696TIP3    H1 5010   5.826   5.071   0.527
 1696TIP3    H2 5011   5.892   4.957   0.457
 1697TIP3   OH2 5012   3.943   4.562  -0.151
 1697TIP3    H1 5013   3.872   4.500  -0.128
 1697TIP3    H2 5014   4.005   4.506  -0.202
 1698TIP3   OH2 5015   4.184   4.581   0.671
 1698TIP3    H1 5016   4.133   4.572   0.753
 1698TIP3    H2 5017   4.116   4.616   0.610
 1699TIP3   OH2 5018   4.225   5.999   0.750
 1699TIP3    H1 5019   4.132   5.978   0.728
 1699TIP3    H2 5020   4.225   5.987   0.846
 1700TIP3   OH2 5021   4.391   6.026   0.309
 1700TIP3    H1 5022   4.342   6.090   0.254
 1700TIP3    H2 5023   4.481   6.036   0.267
 1701TIP3   OH2 5024   4.867   6.334   0.460
 1701TIP3    H1 5025   4.892   6.301   0.547
 1701TIP3    H2 5026   4.953   6.338   0.416
 1702TIP3   OH2 5027   5.816   4.797   0.403
 1702TIP3    H1 5028   5.735   4.792   0.350
 1702TIP3    H2 5029   5.860   4.713   0.378
 1703TIP3   OH2 5030   4.068   6.256   0.349
 1703TIP3    H1 5031   3.994   6.301   0.304
 1703TIP3    H2 5032   4.105   6.331   0.399
 1704TIP3   OH2 5033   4.031   6.082   0.074
 1704TIP3    H1 5034   4.043   6.051   0.165
 1704TIP3    H2 5035   4.110   6.042   0.032
 1705TIP3   OH2 5036   5.050   4.698   0.073
 1705TIP3    H1 5037   4.978   4.649   0.116
 1705TIP3    H2 5038   5.063   4.638  -0.003
 1706TIP3   OH2 5039   4.270   4.424   0.042
 1706TIP3    H1 5040   4.179   4.388   0.035
 1706TIP3    H2 5041   4.322   4.342   0.027
 1707TIP3   OH2 5042   4.675   4.436  -0.057
 1707TIP3    H1 5043   4.665   4.498  -0.131
 1707TIP3    H2 5044   4.666   4.494   0.020
 1708TIP3   OH2 5045   4.481   4.704   0.919
 1708TIP3    H1 5046   4.444   4.633   0.973
 1708TIP3    H2 5047   4.575   4.702   0.948
 1709TIP3   OH2 5048   4.730   4.696   1.038
 1709TIP3    H1 5049   4.814   4.665   1.001
 1709TIP3    H2 5050   4.714   4.629   1.107
 1710TIP3   OH2 5051   5.553   4.757   0.823
 1710TIP3    H1 5052   5.573   4.727   0.914
 1710TIP3    H2 5053   5.642   4.754   0.782
 1711TIP3   OH2 5054   6.072   5.659   0.458
 1711TIP3    H1 5055   6.124   5.578   0.446
 1711TIP3    H2 5056   6.113   5.704   0.534
 1712TIP3   OH2 5057   6.271   5.257   0.490
 1712TIP3    H1 5058   6.258   5.172   0.444
 1712TIP3    H2 5059   6.303   5.228   0.576
 1713TIP3   OH2 5060   6.869   5.117   0.532
 1713TIP3    H1 5061   6.840   5.070   0.451
 1713TIP3    H2 5062   6.797   5.183   0.537
 1714TIP3   OH2 5063   6.000   5.297   0.489
 1714TIP3    H1 5064   6.094   5.292   0.463
 1714TIP3    H2 5065   5.977   5.202   0.495
 1715TIP3   OH2 5066   6.264   4.971   0.469
 1715TIP3    H1 5067   6.225   4.890   0.508
 1715TIP3    H2 5068   6.358   4.955   0.485
 1716TIP3   OH2 5069   6.532   4.950   0.526
 1716TIP3    H1 5070   6.616   4.910   0.501
 1716TIP3    H2 5071   6.504   4.888   0.597
 1717TIP3   OH2 5072   0.299   5.948   1.862
 1717TIP3    H1 5073   0.357   5.873   1.840
 1717TIP3    H2 5074   0.300   5.999   1.780
 1718TIP3   OH2 5075   1.851   6.269   0.692
 1718TIP3    H1 5076   1.866   6.359   0.726
 1718TIP3    H2 5077   1.809   6.281   0.606
 1719TIP3   OH2 5078   1.891   6.497   0.852
 1719TIP3    H1 5079   1.804   6.540   0.846
 1719TIP3    H2 5080   1.895   6.483   0.948
 1720TIP3   OH2 5081   1.646   6.193   0.871
 1720TIP3    H1 5082   1.557   6.167   0.840
 1720TIP3    H2 5083   1.697   6.187   0.788
 1721TIP3   OH2 5084   1.435   6.678   1.015
 1721TIP3    H1 5085   1.416   6.760   1.066
 1721TIP3    H2 5086   1.349   6.669   0.969
 1722TIP3   OH2 5087   1.680   6.660   1.156
 1722TIP3    H1 5088   1.591   6.667   1.116
 1722TIP3    H2 5089   1.698   6.565   1.142
 1723TIP3   OH2 5090   1.209   6.000   1.155
 1723TIP3    H1 5091   1.280   5.973   1.216
 1723TIP3    H2 5092   1.127   5.982   1.205
 1724TIP3   OH2 5093   1.448   6.417   1.094
 1724TIP3    H1 5094   1.406   6.424   1.182
 1724TIP3    H2 5095   1.428   6.505   1.058
 1725TIP3   OH2 5096   1.145   6.662   1.332
 1725TIP3    H1 5097   1.140   6.583   1.388
 1725TIP3    H2 5098   1.239   6.684   1.338
 1726TIP3   OH2 5099   1.403   6.085   0.815
 1726TIP3    H1 5100   1.312   6.108   0.843
 1726TIP3    H2 5101   1.390   6.060   0.723
 1727TIP3   OH2 5102   1.789   7.224   0.914
 1727TIP3    H1 5103   1.720   7.281   0.952
 1727TIP3    H2 5104   1.815   7.274   0.836
 1728TIP3   OH2 5105   1.210   6.272   1.108
 1728TIP3    H1 5106   1.302   6.297   1.087
 1728TIP3    H2 5107   1.217   6.174   1.114
 1729TIP3   OH2 5108   1.157   6.541   1.079
 1729TIP3    H1 5109   1.141   6.588   1.164
 1729TIP3    H2 5110   1.165   6.448   1.108
 1730TIP3   OH2 5111   1.712   6.392   1.056
 1730TIP3    H1 5112   1.617   6.391   1.080
 1730TIP3    H2 5113   1.708   6.323   0.987
 1731TIP3   OH2 5114   1.254   7.018   1.393
 1731TIP3    H1 5115   1.330   6.980   1.348
 1731TIP3    H2 5116   1.224   6.945   1.448
 1732TIP3   OH2 5117   1.424   6.690   1.430
 1732TIP3    H1 5118   1.453   6.597   1.420
 1732TIP3    H2 5119   1.501   6.739   1.400
 1733TIP3   OH2 5120   1.484   6.933   1.168
 1733TIP3    H1 5121   1.429   6.994   1.115
 1733TIP3    H2 5122   1.567   6.937   1.115
 1734TIP3   OH2 5123   7.533   3.072   8.459
 1734TIP3    H1 5124   7.446   3.028   8.455
 1734TIP3    H2 5125   7.551   3.085   8.365
 1735TIP3   OH2 5126   0.942   5.950   1.235
 1735TIP3    H1 5127   0.887   6.020   1.198
 1735TIP3    H2 5128   0.882   5.873   1.223
 1736TIP3   OH2 5129   1.074   6.429   1.463
 1736TIP3    H1 5130   1.106   6.448   1.552
 1736TIP3    H2 5131   1.015   6.355   1.483
 1737TIP3   OH2 5132   1.336   6.426   1.337
 1737TIP3    H1 5133   1.253   6.388   1.368
 1737TIP3    H2 5134   1.404   6.374   1.384
 1738TIP3   OH2 5135   1.555   6.326   1.464
 1738TIP3    H1 5136   1.562   6.230   1.483
 1738TIP3    H2 5137   1.545   6.366   1.553
 1739TIP3   OH2 5138   0.507   6.284   1.724
 1739TIP3    H1 5139   0.535   6.219   1.658
 1739TIP3    H2 5140   0.561   6.255   1.801
 1740TIP3   OH2 5141   1.037   5.946   1.495
 1740TIP3    H1 5142   1.105   5.876   1.488
 1740TIP3    H2 5143   0.998   5.942   1.405
 1741TIP3   OH2 5144   1.105   6.160   1.651
 1741TIP3    H1 5145   1.083   6.086   1.589
 1741TIP3    H2 5146   1.021   6.211   1.652
 1742TIP3   OH2 5147   1.642   7.326   1.223
 1742TIP3    H1 5148   1.574   7.331   1.294
 1742TIP3    H2 5149   1.688   7.411   1.236
 1743TIP3   OH2 5150   1.705   6.985   1.025
 1743TIP3    H1 5151   1.781   6.923   1.030
 1743TIP3    H2 5152   1.742   7.062   0.977
 1744TIP3   OH2 5153   1.891   6.796   1.055
 1744TIP3    H1 5154   1.819   6.748   1.101
 1744TIP3    H2 5155   1.966   6.737   1.078
 1745TIP3   OH2 5156   1.637   6.462   0.603
 1745TIP3    H1 5157   1.712   6.504   0.559
 1745TIP3    H2 5158   1.647   6.492   0.695
 1746TIP3   OH2 5159   1.640   6.621   0.826
 1746TIP3    H1 5160   1.567   6.611   0.891
 1746TIP3    H2 5161   1.624   6.711   0.798
 1747TIP3   OH2 5162   2.091   6.195   1.369
 1747TIP3    H1 5163   2.153   6.129   1.331
 1747TIP3    H2 5164   2.068   6.249   1.291
 1748TIP3   OH2 5165   1.968   6.338   1.171
 1748TIP3    H1 5166   1.881   6.375   1.198
 1748TIP3    H2 5167   1.937   6.262   1.117
 1749TIP3   OH2 5168   1.862   6.097   1.060
 1749TIP3    H1 5169   1.779   6.095   1.010
 1749TIP3    H2 5170   1.894   6.005   1.048
 1750TIP3   OH2 5171   0.548   5.989   1.606
 1750TIP3    H1 5172   0.516   5.908   1.649
 1750TIP3    H2 5173   0.640   5.993   1.637
 1751TIP3   OH2 5174   0.800   6.002   1.717
 1751TIP3    H1 5175   0.879   5.975   1.667
 1751TIP3    H2 5176   0.789   5.926   1.777
 1752TIP3   OH2 5177   1.600   6.055   1.489
 1752TIP3    H1 5178   1.621   6.024   1.580
 1752TIP3    H2 5179   1.688   6.053   1.447
 1753TIP3   OH2 5180   2.819   6.964   0.118
 1753TIP3    H1 5181   2.844   6.959   0.213
 1753TIP3    H2 5182   2.765   6.884   0.111
 1754TIP3   OH2 5183   2.629   7.173   0.231
 1754TIP3    H1 5184   2.607   7.161   0.138
 1754TIP3    H2 5185   2.712   7.224   0.226
 1755TIP3   OH2 5186   3.624   6.537   0.192
 1755TIP3    H1 5187   3.647   6.623   0.236
 1755TIP3    H2 5188   3.599   6.570   0.105
 1756TIP3   OH2 5189   3.008   6.711   0.205
 1756TIP3    H1 5190   3.051   6.626   0.225
 1756TIP3    H2 5191   3.052   6.738   0.123
 1757TIP3   OH2 5192   2.342   6.392   0.167
 1757TIP3    H1 5193   2.339   6.444   0.086
 1757TIP3    H2 5194   2.309   6.306   0.132
 1758TIP3   OH2 5195   2.035   6.624   0.300
 1758TIP3    H1 5196   2.098   6.556   0.331
 1758TIP3    H2 5197   2.017   6.598   0.208
 1759TIP3   OH2 5198   2.457   6.697   0.017
 1759TIP3    H1 5199   2.546   6.695   0.057
 1759TIP3    H2 5200   2.401   6.685   0.094
 1760TIP3   OH2 5201   2.359   6.347   0.618
 1760TIP3    H1 5202   2.295   6.380   0.552
 1760TIP3    H2 5203   2.309   6.364   0.701
 1761TIP3   OH2 5204   2.444   7.125   0.416
 1761TIP3    H1 5205   2.402   7.209   0.443
 1761TIP3    H2 5206   2.501   7.155   0.340
 1762TIP3   OH2 5207   3.261   6.422   0.010
 1762TIP3    H1 5208   3.228   6.384   0.092
 1762TIP3    H2 5209   3.294   6.508   0.041
 1763TIP3   OH2 5210   2.229   6.459   0.406
 1763TIP3    H1 5211   2.289   6.532   0.432
 1763TIP3    H2 5212   2.277   6.423   0.327
 1764TIP3   OH2 5213   2.290   7.341   0.498
 1764TIP3    H1 5214   2.251   7.367   0.414
 1764TIP3    H2 5215   2.211   7.324   0.555
 1765TIP3   OH2 5216   3.403   6.420   0.330
 1765TIP3    H1 5217   3.321   6.468   0.312
 1765TIP3    H2 5218   3.469   6.469   0.278
 1766TIP3   OH2 5219   2.702   6.073   0.319
 1766TIP3    H1 5220   2.692   5.978   0.343
 1766TIP3    H2 5221   2.626   6.111   0.368
 1767TIP3   OH2 5222   3.352   7.404   0.328
 1767TIP3    H1 5223   3.368   7.325   0.274
 1767TIP3    H2 5224   3.358   7.476   0.263
 1768TIP3   OH2 5225   3.213   6.961   0.479
 1768TIP3    H1 5226   3.206   7.045   0.529
 1768TIP3    H2 5227   3.131   6.965   0.426
 1769TIP3   OH2 5228   2.353   6.889   0.321
 1769TIP3    H1 5229   2.354   6.914   0.225
 1769TIP3    H2 5230   2.391   6.972   0.358
 1770TIP3   OH2 5231   2.859   7.574   0.240
 1770TIP3    H1 5232   2.820   7.611   0.160
 1770TIP3    H2 5233   2.858   7.477   0.227
 1771TIP3   OH2 5234   2.491   7.445   0.656
 1771TIP3    H1 5235   2.432   7.511   0.696
 1771TIP3    H2 5236   2.428   7.398   0.596
 1772TIP3   OH2 5237   2.277   7.620   0.721
 1772TIP3    H1 5238   2.229   7.570   0.654
 1772TIP3    H2 5239   2.224   7.596   0.801
 1773TIP3   OH2 5240   3.578   7.759   0.389
 1773TIP3    H1 5241   3.568   7.673   0.433
 1773TIP3    H2 5242   3.499   7.806   0.420
 1774TIP3   OH2 5243   2.680   7.555   0.493
 1774TIP3    H1 5244   2.693   7.648   0.522
 1774TIP3    H2 5245   2.611   7.523   0.555
 1775TIP3   OH2 5246   3.466   6.914   0.642
 1775TIP3    H1 5247   3.392   6.926   0.582
 1775TIP3    H2 5248   3.490   6.820   0.627
 1776TIP3   OH2 5249   2.083   7.318   0.668
 1776TIP3    H1 5250   2.138   7.307   0.750
 1776TIP3    H2 5251   2.000   7.280   0.697
 1777TIP3   OH2 5252   2.466   6.154   0.445
 1777TIP3    H1 5253   2.376   6.121   0.423
 1777TIP3    H2 5254   2.441   6.228   0.504
 1778TIP3   OH2 5255   3.002   6.265   0.645
 1778TIP3    H1 5256   3.070   6.237   0.709
 1778TIP3    H2 5257   2.918   6.245   0.691
 1779TIP3   OH2 5258   3.236   6.689   0.556
 1779TIP3    H1 5259   3.194   6.688   0.645
 1779TIP3    H2 5260   3.222   6.781   0.527
 1780TIP3   OH2 5261   2.400   6.671   0.472
 1780TIP3    H1 5262   2.414   6.721   0.556
 1780TIP3    H2 5263   2.381   6.745   0.411
 1781TIP3   OH2 5264   2.950   6.919   0.801
 1781TIP3    H1 5265   2.929   6.844   0.861
 1781TIP3    H2 5266   3.046   6.928   0.816
 1782TIP3   OH2 5267   1.827   6.203   0.231
 1782TIP3    H1 5268   1.890   6.207   0.306
 1782TIP3    H2 5269   1.852   6.122   0.187
 1783TIP3   OH2 5270   2.936   6.911   0.373
 1783TIP3    H1 5271   2.967   6.838   0.315
 1783TIP3    H2 5272   2.912   6.859   0.453
 1784TIP3   OH2 5273   2.614   6.395   0.087
 1784TIP3    H1 5274   2.530   6.393   0.137
 1784TIP3    H2 5275   2.681   6.383   0.156
 1785TIP3   OH2 5276   3.095   6.447   0.253
 1785TIP3    H1 5277   3.065   6.464   0.345
 1785TIP3    H2 5278   3.024   6.388   0.223
 1786TIP3   OH2 5279   2.231   7.259   0.889
 1786TIP3    H1 5280   2.312   7.282   0.938
 1786TIP3    H2 5281   2.167   7.254   0.963
 1787TIP3   OH2 5282   2.698   6.700   0.154
 1787TIP3    H1 5283   2.748   6.637   0.101
 1787TIP3    H2 5284   2.716   6.668   0.244
 1788TIP3   OH2 5285   2.261   6.172   0.028
 1788TIP3    H1 5286   2.220   6.104   0.085
 1788TIP3    H2 5287   2.341   6.128  -0.005
 1789TIP3   OH2 5288   2.675   6.595   0.429
 1789TIP3    H1 5289   2.587   6.635   0.441
 1789TIP3    H2 5290   2.734   6.652   0.482
 1790TIP3   OH2 5291   2.796   7.298   0.517
 1790TIP3    H1 5292   2.834   7.291   0.605
 1790TIP3    H2 5293   2.770   7.393   0.513
 1791TIP3   OH2 5294   1.997   6.886   0.785
 1791TIP3    H1 5295   2.049   6.925   0.858
 1791TIP3    H2 5296   1.932   6.838   0.841
 1792TIP3   OH2 5297   2.707   7.041   0.827
 1792TIP3    H1 5298   2.671   7.003   0.745
 1792TIP3    H2 5299   2.801   7.013   0.818
 1793TIP3   OH2 5300   2.990   7.532   0.472
 1793TIP3    H1 5301   2.924   7.552   0.402
 1793TIP3    H2 5302   2.980   7.609   0.532
 1794TIP3   OH2 5303   3.593   7.481   0.431
 1794TIP3    H1 5304   3.497   7.465   0.419
 1794TIP3    H2 5305   3.624   7.480   0.338
 1795TIP3   OH2 5306   3.059   7.092   0.101
 1795TIP3    H1 5307   2.974   7.043   0.099
 1795TIP3    H2 5308   3.118   7.020   0.072
 1796TIP3   OH2 5309   2.468   7.685   0.338
 1796TIP3    H1 5310   2.492   7.708   0.248
 1796TIP3    H2 5311   2.541   7.627   0.365
 1797TIP3   OH2 5312   2.887   7.289   0.258
 1797TIP3    H1 5313   2.861   7.284   0.353
 1797TIP3    H2 5314   2.955   7.219   0.255
 1798TIP3   OH2 5315   3.132   7.769   0.341
 1798TIP3    H1 5316   3.054   7.711   0.329
 1798TIP3    H2 5317   3.105   7.851   0.297
 1799TIP3   OH2 5318   2.199   6.421   0.828
 1799TIP3    H1 5319   2.105   6.441   0.838
 1799TIP3    H2 5320   2.216   6.360   0.902
 1800TIP3   OH2 5321   3.020   6.508   0.512
 1800TIP3    H1 5322   3.105   6.545   0.542
 1800TIP3    H2 5323   3.013   6.425   0.564
 1801TIP3   OH2 5324   2.864   6.751   0.582
 1801TIP3    H1 5325   2.891   6.800   0.663
 1801TIP3    H2 5326   2.920   6.671   0.588
 1802TIP3   OH2 5327   2.685   6.193  -0.079
 1802TIP3    H1 5328   2.658   6.272  -0.027
 1802TIP3    H2 5329   2.749   6.234  -0.140
 1803TIP3   OH2 5330   3.510   6.653   0.566
 1803TIP3    H1 5331   3.414   6.641   0.553
 1803TIP3    H2 5332   3.544   6.670   0.476
 1804TIP3   OH2 5333   2.204   6.076   0.424
 1804TIP3    H1 5334   2.170   6.035   0.342
 1804TIP3    H2 5335   2.200   5.999   0.486
 1805TIP3   OH2 5336   2.403   7.789   0.916
 1805TIP3    H1 5337   2.486   7.739   0.921
 1805TIP3    H2 5338   2.366   7.754   0.832
 1806TIP3   OH2 5339   3.000   7.721   0.675
 1806TIP3    H1 5340   2.994   7.641   0.732
 1806TIP3    H2 5341   3.093   7.748   0.691
 1807TIP3   OH2 5342   2.027   7.236   1.076
 1807TIP3    H1 5343   2.050   7.142   1.091
 1807TIP3    H2 5344   1.935   7.227   1.046
 1808TIP3   OH2 5345   2.639   7.320   0.854
 1808TIP3    H1 5346   2.600   7.341   0.767
 1808TIP3    H2 5347   2.669   7.227   0.842
 1809TIP3   OH2 5348   3.127   7.303   0.453
 1809TIP3    H1 5349   3.203   7.347   0.411
 1809TIP3    H2 5350   3.065   7.379   0.462
 1810TIP3   OH2 5351   2.150   6.971   1.048
 1810TIP3    H1 5352   2.215   6.900   1.041
 1810TIP3    H2 5353   2.170   7.004   1.138
 1811TIP3   OH2 5354   2.453   6.836   0.682
 1811TIP3    H1 5355   2.438   6.902   0.751
 1811TIP3    H2 5356   2.519   6.883   0.625
 1812TIP3   OH2 5357   3.003   7.257   0.857
 1812TIP3    H1 5358   3.078   7.229   0.802
 1812TIP3    H2 5359   3.001   7.187   0.925
 1813TIP3   OH2 5360   2.602   6.645   0.845
 1813TIP3    H1 5361   2.611   6.557   0.803
 1813TIP3    H2 5362   2.553   6.694   0.777
 1814TIP3   OH2 5363   2.612   6.432   0.659
 1814TIP3    H1 5364   2.639   6.466   0.572
 1814TIP3    H2 5365   2.519   6.405   0.644
 1815TIP3   OH2 5366   2.636   6.972   0.542
 1815TIP3    H1 5367   2.717   6.968   0.490
 1815TIP3    H2 5368   2.582   7.034   0.490
 1816TIP3   OH2 5369   3.222   6.933   0.909
 1816TIP3    H1 5370   3.265   6.846   0.918
 1816TIP3    H2 5371   3.292   6.984   0.865
 1817TIP3   OH2 5372   3.254   7.191   0.659
 1817TIP3    H1 5373   3.198   7.236   0.591
 1817TIP3    H2 5374   3.342   7.200   0.615
 1818TIP3   OH2 5375   2.477   6.759   1.070
 1818TIP3    H1 5376   2.411   6.689   1.090
 1818TIP3    H2 5377   2.518   6.722   0.989
 1819TIP3   OH2 5378   2.740   6.192   0.719
 1819TIP3    H1 5379   2.690   6.274   0.701
 1819TIP3    H2 5380   2.670   6.124   0.710
 1820TIP3   OH2 5381   2.866   6.700   0.940
 1820TIP3    H1 5382   2.858   6.684   1.035
 1820TIP3    H2 5383   2.776   6.675   0.911
 1821TIP3   OH2 5384   3.108   6.653   0.794
 1821TIP3    H1 5385   3.033   6.648   0.857
 1821TIP3    H2 5386   3.183   6.619   0.849
 1822TIP3   OH2 5387   3.330   6.586   0.945
 1822TIP3    H1 5388   3.345   6.491   0.962
 1822TIP3    H2 5389   3.331   6.625   1.035
 1823TIP3   OH2 5390   2.327   6.537   1.131
 1823TIP3    H1 5391   2.327   6.446   1.095
 1823TIP3    H2 5392   2.363   6.521   1.221
 1824TIP3   OH2 5393   2.838   6.207   0.975
 1824TIP3    H1 5394   2.902   6.132   0.974
 1824TIP3    H2 5395   2.797   6.196   0.888
 1825TIP3   OH2 5396   2.903   6.420   1.135
 1825TIP3    H1 5397   2.882   6.347   1.072
 1825TIP3    H2 5398   2.822   6.476   1.130
 1826TIP3   OH2 5399   3.460   7.583   0.699
 1826TIP3    H1 5400   3.370   7.598   0.729
 1826TIP3    H2 5401   3.501   7.671   0.714
 1827TIP3   OH2 5402   3.495   7.233   0.533
 1827TIP3    H1 5403   3.568   7.168   0.541
 1827TIP3    H2 5404   3.538   7.302   0.479
 1828TIP3   OH2 5405   3.686   7.066   0.617
 1828TIP3    H1 5406   3.616   6.998   0.623
 1828TIP3    H2 5407   3.757   7.015   0.575
 1829TIP3   OH2 5408   3.389   6.685   0.091
 1829TIP3    H1 5409   3.415   6.763   0.039
 1829TIP3    H2 5410   3.384   6.731   0.178
 1830TIP3   OH2 5411   3.394   6.877   0.279
 1830TIP3    H1 5412   3.351   6.924   0.352
 1830TIP3    H2 5413   3.489   6.876   0.305
 1831TIP3   OH2 5414   2.062   6.595   1.113
 1831TIP3    H1 5415   2.159   6.581   1.108
 1831TIP3    H2 5416   2.034   6.507   1.143
 1832TIP3   OH2 5417   3.896   6.454   0.861
 1832TIP3    H1 5418   3.953   6.388   0.814
 1832TIP3    H2 5419   3.861   6.506   0.785
 1833TIP3   OH2 5420   2.017   6.276   0.421
 1833TIP3    H1 5421   2.071   6.196   0.439
 1833TIP3    H2 5422   2.085   6.344   0.432
 1834TIP3   OH2 5423   1.872   6.642   0.538
 1834TIP3    H1 5424   1.901   6.557   0.503
 1834TIP3    H2 5425   1.835   6.679   0.457
 1835TIP3   OH2 5426   3.757   6.590   0.672
 1835TIP3    H1 5427   3.670   6.635   0.672
 1835TIP3    H2 5428   3.740   6.525   0.602
 1836TIP3   OH2 5429   2.036   6.135   0.834
 1836TIP3    H1 5430   1.976   6.124   0.909
 1836TIP3    H2 5431   1.975   6.172   0.767
 1837TIP3   OH2 5432   2.103   7.549   0.915
 1837TIP3    H1 5433   2.016   7.542   0.871
 1837TIP3    H2 5434   2.080   7.536   1.007
 1838TIP3   OH2 5435   2.719   7.823   0.563
 1838TIP3    H1 5436   2.722   7.819   0.661
 1838TIP3    H2 5437   2.788   7.888   0.548
 1839TIP3   OH2 5438   3.662   6.353   0.543
 1839TIP3    H1 5439   3.572   6.353   0.506
 1839TIP3    H2 5440   3.689   6.259   0.531
 1840TIP3   OH2 5441   2.867   6.279   0.184
 1840TIP3    H1 5442   2.815   6.206   0.221
 1840TIP3    H2 5443   2.933   6.231   0.130
 1841TIP3   OH2 5444   3.391   6.148   0.078
 1841TIP3    H1 5445   3.423   6.166  -0.011
 1841TIP3    H2 5446   3.298   6.173   0.069
 1842TIP3   OH2 5447   2.119   5.977   0.179
 1842TIP3    H1 5448   2.030   5.938   0.172
 1842TIP3    H2 5449   2.172   5.894   0.177
 1843TIP3   OH2 5450   2.542   6.011   0.063
 1843TIP3    H1 5451   2.595   6.066   0.001
 1843TIP3    H2 5452   2.580   6.039   0.148
 1844TIP3   OH2 5453   3.075   6.155   0.055
 1844TIP3    H1 5454   3.125   6.129  -0.026
 1844TIP3    H2 5455   3.063   6.068   0.100
 1845TIP3   OH2 5456   2.322   6.264   1.074
 1845TIP3    H1 5457   2.287   6.189   1.124
 1845TIP3    H2 5458   2.416   6.260   1.099
 1846TIP3   OH2 5459   2.574   6.255   1.190
 1846TIP3    H1 5460   2.657   6.224   1.152
 1846TIP3    H2 5461   2.559   6.187   1.259
 1847TIP3   OH2 5462   3.397   6.316   0.974
 1847TIP3    H1 5463   3.415   6.285   1.066
 1847TIP3    H2 5464   3.485   6.311   0.933
 1848TIP3   OH2 5465   3.341   7.885   0.471
 1848TIP3    H1 5466   3.271   7.830   0.429
 1848TIP3    H2 5467   3.330   7.967   0.420
 1849TIP3   OH2 5468   4.041   7.494   0.418
 1849TIP3    H1 5469   4.105   7.522   0.485
 1849TIP3    H2 5470   3.960   7.482   0.471
 1850TIP3   OH2 5471   4.002   6.723   0.372
 1850TIP3    H1 5472   3.917   6.748   0.332
 1850TIP3    H2 5473   3.999   6.626   0.371
 1851TIP3   OH2 5474   3.818   7.482   0.589
 1851TIP3    H1 5475   3.842   7.387   0.581
 1851TIP3    H2 5476   3.733   7.482   0.540
 1852TIP3   OH2 5477   3.938   7.238   0.551
 1852TIP3    H1 5478   3.966   7.150   0.525
 1852TIP3    H2 5479   3.975   7.248   0.641
 1853TIP3   OH2 5480   4.387   6.888   0.338
 1853TIP3    H1 5481   4.411   6.794   0.336
 1853TIP3    H2 5482   4.309   6.887   0.281
 1854TIP3   OH2 5483   4.291   7.022   0.557
 1854TIP3    H1 5484   4.224   6.957   0.587
 1854TIP3    H2 5485   4.315   6.979   0.472
 1855TIP3   OH2 5486   4.617   7.022   0.480
 1855TIP3    H1 5487   4.635   6.974   0.563
 1855TIP3    H2 5488   4.533   6.981   0.454
 1856TIP3   OH2 5489   5.097   6.827   0.449
 1856TIP3    H1 5490   5.135   6.740   0.471
 1856TIP3    H2 5491   5.098   6.872   0.536
 1857TIP3   OH2 5492   4.162   6.794   0.610
 1857TIP3    H1 5493   4.121   6.724   0.555
 1857TIP3    H2 5494   4.146   6.761   0.700
 1858TIP3   OH2 5495   4.622   6.468   0.463
 1858TIP3    H1 5496   4.703   6.414   0.471
 1858TIP3    H2 5497   4.596   6.448   0.373
 1859TIP3   OH2 5498   4.697   6.677   0.627
 1859TIP3    H1 5499   4.674   6.608   0.561
 1859TIP3    H2 5500   4.615   6.730   0.629
 1860TIP3   OH2 5501   3.883   6.861   0.646
 1860TIP3    H1 5502   3.940   6.841   0.570
 1860TIP3    H2 5503   3.830   6.779   0.650
 1861TIP3   OH2 5504   3.816   6.376   0.299
 1861TIP3    H1 5505   3.781   6.379   0.390
 1861TIP3    H2 5506   3.754   6.437   0.254
 1862TIP3   OH2 5507   3.848   7.783   0.436
 1862TIP3    H1 5508   3.757   7.773   0.403
 1862TIP3    H2 5509   3.834   7.780   0.531
 1863TIP3   OH2 5510   4.111   6.501   0.562
 1863TIP3    H1 5511   4.087   6.430   0.624
 1863TIP3    H2 5512   4.205   6.516   0.584
 1864TIP3   OH2 5513   4.370   6.517   0.679
 1864TIP3    H1 5514   4.446   6.485   0.628
 1864TIP3    H2 5515   4.354   6.443   0.740
 1865TIP3   OH2 5516   5.254   6.606   0.500
 1865TIP3    H1 5517   5.244   6.551   0.579
 1865TIP3    H2 5518   5.196   6.562   0.434
 1866TIP3   OH2 5519   1.986  -0.522   4.572
 1866TIP3    H1 5520   1.892  -0.496   4.568
 1866TIP3    H2 5521   1.984  -0.591   4.640
 1867TIP3   OH2 5522   1.425   0.213   4.253
 1867TIP3    H1 5523   1.332   0.189   4.273
 1867TIP3    H2 5524   1.414   0.290   4.195
 1868TIP3   OH2 5525   1.648   0.122   4.576
 1868TIP3    H1 5526   1.641   0.041   4.521
 1868TIP3    H2 5527   1.634   0.193   4.509
 1869TIP3   OH2 5528   1.844  -0.247   4.425
 1869TIP3    H1 5529   1.763  -0.192   4.429
 1869TIP3    H2 5530   1.869  -0.235   4.331
 1870TIP3   OH2 5531   1.171   0.190   4.364
 1870TIP3    H1 5532   1.164   0.285   4.384
 1870TIP3    H2 5533   1.183   0.153   4.452
 1871TIP3   OH2 5534   1.886   0.461   4.624
 1871TIP3    H1 5535   1.884   0.364   4.635
 1871TIP3    H2 5536   1.801   0.485   4.668
 1872TIP3   OH2 5537   1.575   0.812   4.721
 1872TIP3    H1 5538   1.572   0.836   4.626
 1872TIP3    H2 5539   1.655   0.861   4.750
 1873TIP3   OH2 5540   1.620  -0.095   4.412
 1873TIP3    H1 5541   1.640  -0.047   4.329
 1873TIP3    H2 5542   1.529  -0.123   4.402
 1874TIP3   OH2 5543   1.258   0.257   4.654
 1874TIP3    H1 5544   1.161   0.255   4.657
 1874TIP3    H2 5545   1.280   0.298   4.740
 1875TIP3   OH2 5546   1.900   0.177   4.661
 1875TIP3    H1 5547   1.802   0.171   4.652
 1875TIP3    H2 5548   1.927   0.144   4.572
 1876TIP3   OH2 5549   1.406   0.504   4.564
 1876TIP3    H1 5550   1.331   0.442   4.551
 1876TIP3    H2 5551   1.395   0.565   4.488
 1877TIP3   OH2 5552   1.429   0.477   4.152
 1877TIP3    H1 5553   1.387   0.526   4.078
 1877TIP3    H2 5554   1.524   0.494   4.132
 1878TIP3   OH2 5555   1.317   0.367   4.933
 1878TIP3    H1 5556   1.357   0.279   4.942
 1878TIP3    H2 5557   1.395   0.426   4.944
 1879TIP3   OH2 5558   1.449   0.068   4.765
 1879TIP3    H1 5559   1.523   0.085   4.704
 1879TIP3    H2 5560   1.374   0.101   4.713
 1880TIP3   OH2 5561   1.571  -0.120   4.916
 1880TIP3    H1 5562   1.515  -0.049   4.876
 1880TIP3    H2 5563   1.652  -0.109   4.862
 1881TIP3   OH2 5564   1.682   0.567   4.111
 1881TIP3    H1 5565   1.710   0.604   4.197
 1881TIP3    H2 5566   1.743   0.609   4.049
 1882TIP3   OH2 5567   1.710   0.590   4.395
 1882TIP3    H1 5568   1.670   0.500   4.389
 1882TIP3    H2 5569   1.791   0.568   4.444
 1883TIP3   OH2 5570   1.762   0.265   4.966
 1883TIP3    H1 5571   1.687   0.274   5.028
 1883TIP3    H2 5572   1.802   0.354   4.970
 1884TIP3   OH2 5573   1.757   0.036   4.217
 1884TIP3    H1 5574   1.810  -0.029   4.168
 1884TIP3    H2 5575   1.754   0.112   4.156
 1885TIP3   OH2 5576   1.592   0.342   4.420
 1885TIP3    H1 5577   1.519   0.383   4.471
 1885TIP3    H2 5578   1.543   0.293   4.351
 1886TIP3   OH2 5579   1.795  -0.056   4.780
 1886TIP3    H1 5580   1.864  -0.125   4.784
 1886TIP3    H2 5581   1.833   0.010   4.719
 1887TIP3   OH2 5582   1.956  -0.252   4.848
 1887TIP3    H1 5583   1.900  -0.328   4.829
 1887TIP3    H2 5584   2.043  -0.298   4.851
 1888TIP3   OH2 5585   1.716  -0.442   4.575
 1888TIP3    H1 5586   1.651  -0.383   4.616
 1888TIP3    H2 5587   1.757  -0.382   4.509
 1889TIP3   OH2 5588   1.011   0.574   4.850
 1889TIP3    H1 5589   1.070   0.554   4.925
 1889TIP3    H2 5590   1.075   0.594   4.778
 1890TIP3   OH2 5591   1.190   0.671   4.676
 1890TIP3    H1 5592   1.266   0.622   4.640
 1890TIP3    H2 5593   1.235   0.730   4.741
 1891TIP3   OH2 5594   0.890   0.546   4.363
 1891TIP3    H1 5595   0.843   0.592   4.293
 1891TIP3    H2 5596   0.906   0.617   4.427
 1892TIP3   OH2 5597   1.153   0.462   4.423
 1892TIP3    H1 5598   1.059   0.480   4.405
 1892TIP3    H2 5599   1.196   0.544   4.392
 1893TIP3   OH2 5600   1.359   0.662   4.347
 1893TIP3    H1 5601   1.347   0.748   4.300
 1893TIP3    H2 5602   1.387   0.603   4.274
 1894TIP3   OH2 5603   1.636   0.543   4.725
 1894TIP3    H1 5604   1.561   0.515   4.670
 1894TIP3    H2 5605   1.622   0.640   4.725
 1895TIP3   OH2 5606   2.902  -0.084   3.495
 1895TIP3    H1 5607   2.874   0.007   3.471
 1895TIP3    H2 5608   2.829  -0.134   3.454
 1896TIP3   OH2 5609   2.905  -0.084   3.867
 1896TIP3    H1 5610   2.932  -0.115   3.955
 1896TIP3    H2 5611   2.869  -0.164   3.826
 1897TIP3   OH2 5612   2.203  -0.184   4.238
 1897TIP3    H1 5613   2.238  -0.257   4.294
 1897TIP3    H2 5614   2.283  -0.131   4.228
 1898TIP3   OH2 5615   3.148   0.215   3.551
 1898TIP3    H1 5616   3.131   0.148   3.618
 1898TIP3    H2 5617   3.176   0.292   3.604
 1899TIP3   OH2 5618   2.174   0.217   3.961
 1899TIP3    H1 5619   2.168   0.119   3.965
 1899TIP3    H2 5620   2.271   0.228   3.950
 1900TIP3   OH2 5621   2.796   0.680   3.569
 1900TIP3    H1 5622   2.841   0.609   3.518
 1900TIP3    H2 5623   2.790   0.640   3.656
 1901TIP3   OH2 5624   2.702   0.140   3.922
 1901TIP3    H1 5625   2.739   0.067   3.869
 1901TIP3    H2 5626   2.786   0.185   3.945
 1902TIP3   OH2 5627   3.117  -0.370   3.960
 1902TIP3    H1 5628   3.148  -0.462   3.949
 1902TIP3    H2 5629   3.073  -0.360   3.873
 1903TIP3   OH2 5630   3.120  -0.559   3.540
 1903TIP3    H1 5631   3.211  -0.589   3.558
 1903TIP3    H2 5632   3.123  -0.551   3.443
 1904TIP3   OH2 5633   2.528  -0.299   3.814
 1904TIP3    H1 5634   2.625  -0.313   3.829
 1904TIP3    H2 5635   2.500  -0.390   3.800
 1905TIP3   OH2 5636   3.802  -0.246   4.053
 1905TIP3    H1 5637   3.707  -0.228   4.051
 1905TIP3    H2 5638   3.805  -0.328   4.107
 1906TIP3   OH2 5639   2.794   0.133   3.362
 1906TIP3    H1 5640   2.759   0.119   3.271
 1906TIP3    H2 5641   2.750   0.217   3.385
 1907TIP3   OH2 5642   2.557   0.059   4.148
 1907TIP3    H1 5643   2.495   0.127   4.185
 1907TIP3    H2 5644   2.599   0.108   4.075
 1908TIP3   OH2 5645   2.327  -0.576   4.089
 1908TIP3    H1 5646   2.398  -0.523   4.129
 1908TIP3    H2 5647   2.375  -0.653   4.053
 1909TIP3   OH2 5648   2.383   0.254   4.243
 1909TIP3    H1 5649   2.359   0.340   4.203
 1909TIP3    H2 5650   2.303   0.239   4.299
 1910TIP3   OH2 5651   3.219   0.460   3.720
 1910TIP3    H1 5652   3.129   0.452   3.759
 1910TIP3    H2 5653   3.210   0.545   3.673
 1911TIP3   OH2 5654   2.920   0.507   3.394
 1911TIP3    H1 5655   2.968   0.424   3.373
 1911TIP3    H2 5656   2.982   0.572   3.353
 1912TIP3   OH2 5657   3.059   0.292   3.300
 1912TIP3    H1 5658   3.028   0.213   3.254
 1912TIP3    H2 5659   3.096   0.254   3.383
 1913TIP3   OH2 5660   3.444   0.374   4.063
 1913TIP3    H1 5661   3.432   0.297   4.003
 1913TIP3    H2 5662   3.425   0.449   4.002
 1914TIP3   OH2 5663   2.741  -0.228   3.319
 1914TIP3    H1 5664   2.662  -0.171   3.313
 1914TIP3    H2 5665   2.782  -0.217   3.231
 1915TIP3   OH2 5666   3.633   0.009   3.906
 1915TIP3    H1 5667   3.552   0.064   3.911
 1915TIP3    H2 5668   3.666   0.034   3.817
 1916TIP3   OH2 5669   3.092  -0.136   3.304
 1916TIP3    H1 5670   3.035  -0.115   3.382
 1916TIP3    H2 5671   3.176  -0.161   3.348
 1917TIP3   OH2 5672   3.311  -0.096   4.199
 1917TIP3    H1 5673   3.309  -0.013   4.250
 1917TIP3    H2 5674   3.225  -0.091   4.154
 1918TIP3   OH2 5675   2.311  -0.162   3.708
 1918TIP3    H1 5676   2.285  -0.227   3.642
 1918TIP3    H2 5677   2.395  -0.200   3.741
 1919TIP3   OH2 5678   2.442   0.250   3.858
 1919TIP3    H1 5679   2.429   0.216   3.769
 1919TIP3    H2 5680   2.533   0.220   3.878
 1920TIP3   OH2 5681   2.450  -0.180   4.063
 1920TIP3    H1 5682   2.485  -0.201   3.975
 1920TIP3    H2 5683   2.494  -0.095   4.085
 1921TIP3   OH2 5684   2.977   0.456   3.840
 1921TIP3    H1 5685   2.963   0.537   3.892
 1921TIP3    H2 5686   2.961   0.384   3.904
 1922TIP3   OH2 5687   2.590   0.374   4.387
 1922TIP3    H1 5688   2.529   0.437   4.433
 1922TIP3    H2 5689   2.525   0.321   4.337
 1923TIP3   OH2 5690   2.949  -0.269   3.116
 1923TIP3    H1 5691   3.004  -0.216   3.179
 1923TIP3    H2 5692   2.956  -0.215   3.034
 1924TIP3   OH2 5693   2.345  -0.069   4.489
 1924TIP3    H1 5694   2.349   0.019   4.533
 1924TIP3    H2 5695   2.249  -0.087   4.495
 1925TIP3   OH2 5696   2.664   0.390   3.403
 1925TIP3    H1 5697   2.744   0.443   3.411
 1925TIP3    H2 5698   2.606   0.445   3.349
 1926TIP3   OH2 5699   2.384   0.542   4.472
 1926TIP3    H1 5700   2.349   0.544   4.381
 1926TIP3    H2 5701   2.304   0.521   4.525
 1927TIP3   OH2 5702   3.240   0.314   2.713
 1927TIP3    H1 5703   3.246   0.411   2.700
 1927TIP3    H2 5704   3.333   0.287   2.700
 1928TIP3   OH2 5705   1.962   0.073   4.421
 1928TIP3    H1 5706   1.897   0.050   4.351
 1928TIP3    H2 5707   1.998  -0.015   4.446
 1929TIP3   OH2 5708   1.819   0.264   4.057
 1929TIP3    H1 5709   1.915   0.263   4.046
 1929TIP3    H2 5710   1.806   0.346   4.107
 1930TIP3   OH2 5711   3.682   0.719   4.109
 1930TIP3    H1 5712   3.680   0.622   4.122
 1930TIP3    H2 5713   3.599   0.744   4.154
 1931TIP3   OH2 5714   2.788   0.503   4.244
 1931TIP3    H1 5715   2.787   0.596   4.276
 1931TIP3    H2 5716   2.716   0.464   4.299
 1932TIP3   OH2 5717   2.548   0.631   3.195
 1932TIP3    H1 5718   2.500   0.609   3.114
 1932TIP3    H2 5719   2.516   0.720   3.217
 1933TIP3   OH2 5720   1.981   0.480   3.575
 1933TIP3    H1 5721   2.024   0.465   3.662
 1933TIP3    H2 5722   1.917   0.408   3.571
 1934TIP3   OH2 5723   2.745   0.530   2.843
 1934TIP3    H1 5724   2.809   0.467   2.802
 1934TIP3    H2 5725   2.783   0.539   2.933
 1935TIP3   OH2 5726   2.801   0.583   3.109
 1935TIP3    H1 5727   2.712   0.593   3.149
 1935TIP3    H2 5728   2.849   0.538   3.180
 1936TIP3   OH2 5729   3.569  -0.167   4.377
 1936TIP3    H1 5730   3.494  -0.116   4.344
 1936TIP3    H2 5731   3.573  -0.239   4.313
 1937TIP3   OH2 5732   2.167   0.256   4.410
 1937TIP3    H1 5733   2.217   0.239   4.492
 1937TIP3    H2 5734   2.093   0.192   4.417
 1938TIP3   OH2 5735   3.324  -0.351   4.303
 1938TIP3    H1 5736   3.319  -0.325   4.395
 1938TIP3    H2 5737   3.315  -0.263   4.259
 1939TIP3   OH2 5738   2.514  -0.402   4.215
 1939TIP3    H1 5739   2.455  -0.387   4.292
 1939TIP3    H2 5740   2.493  -0.323   4.161
 1940TIP3   OH2 5741   2.858  -0.430   3.458
 1940TIP3    H1 5742   2.825  -0.351   3.409
 1940TIP3    H2 5743   2.917  -0.468   3.389
 1941TIP3   OH2 5744   3.049  -0.156   4.531
 1941TIP3    H1 5745   3.020  -0.215   4.605
 1941TIP3    H2 5746   3.141  -0.137   4.557
 1942TIP3   OH2 5747   3.013  -0.371   3.706
 1942TIP3    H1 5748   2.965  -0.343   3.626
 1942TIP3    H2 5749   3.045  -0.458   3.674
 1943TIP3   OH2 5750   2.316  -0.368   4.413
 1943TIP3    H1 5751   2.346  -0.311   4.485
 1943TIP3    H2 5752   2.264  -0.436   4.459
 1944TIP3   OH2 5753   3.039  -0.160   4.113
 1944TIP3    H1 5754   3.076  -0.233   4.057
 1944TIP3    H2 5755   3.014  -0.212   4.192
 1945TIP3   OH2 5756   3.372   1.067   4.207
 1945TIP3    H1 5757   3.368   1.092   4.113
 1945TIP3    H2 5758   3.448   1.120   4.238
 1946TIP3   OH2 5759   2.329   0.177   4.631
 1946TIP3    H1 5760   2.410   0.207   4.676
 1946TIP3    H2 5761   2.265   0.181   4.705
 1947TIP3   OH2 5762   2.787  -0.374   3.883
 1947TIP3    H1 5763   2.863  -0.405   3.831
 1947TIP3    H2 5764   2.800  -0.421   3.967
 1948TIP3   OH2 5765   2.786  -0.476   4.184
 1948TIP3    H1 5766   2.692  -0.451   4.192
 1948TIP3    H2 5767   2.831  -0.403   4.230
 1949TIP3   OH2 5768   2.508  -0.074   3.324
 1949TIP3    H1 5769   2.411  -0.084   3.338
 1949TIP3    H2 5770   2.528  -0.019   3.402
 1950TIP3   OH2 5771   3.404   0.157   3.899
 1950TIP3    H1 5772   3.429   0.207   3.818
 1950TIP3    H2 5773   3.320   0.114   3.873
 1951TIP3   OH2 5774   2.904   0.236   4.268
 1951TIP3    H1 5775   2.929   0.219   4.359
 1951TIP3    H2 5776   2.868   0.326   4.271
 1952TIP3   OH2 5777   3.010  -0.505   3.248
 1952TIP3    H1 5778   3.107  -0.514   3.246
 1952TIP3    H2 5779   2.995  -0.433   3.183
 1953TIP3   OH2 5780   2.190  -0.067   3.946
 1953TIP3    H1 5781   2.228  -0.095   3.860
 1953TIP3    H2 5782   2.240  -0.121   4.008
 1954TIP3   OH2 5783   2.682   0.083   3.115
 1954TIP3    H1 5784   2.630   0.165   3.102
 1954TIP3    H2 5785   2.611   0.018   3.117
 1955TIP3   OH2 5786   2.078  -0.137   4.559
 1955TIP3    H1 5787   2.107  -0.153   4.651
 1955TIP3    H2 5788   2.014  -0.208   4.543
 1956TIP3   OH2 5789   2.805  -0.025   4.576
 1956TIP3    H1 5790   2.743  -0.087   4.535
 1956TIP3    H2 5791   2.891  -0.058   4.542
 1957TIP3   OH2 5792   3.066   0.492   4.165
 1957TIP3    H1 5793   2.970   0.495   4.175
 1957TIP3    H2 5794   3.095   0.547   4.241
 1958TIP3   OH2 5795   3.441  -0.441   3.070
 1958TIP3    H1 5796   3.370  -0.455   3.008
 1958TIP3    H2 5797   3.457  -0.345   3.044
 1959TIP3   OH2 5798   3.694   0.431   4.149
 1959TIP3    H1 5799   3.596   0.427   4.139
 1959TIP3    H2 5800   3.721   0.398   4.060
 1960TIP3   OH2 5801   3.184   0.388   2.981
 1960TIP3    H1 5802   3.147   0.318   3.038
 1960TIP3    H2 5803   3.186   0.345   2.893
 1961TIP3   OH2 5804   3.171   0.018   3.822
 1961TIP3    H1 5805   3.077  -0.006   3.831
 1961TIP3    H2 5806   3.204  -0.059   3.772
 1962TIP3   OH2 5807   2.289   0.244   3.568
 1962TIP3    H1 5808   2.310   0.323   3.515
 1962TIP3    H2 5809   2.194   0.243   3.562
 1963TIP3   OH2 5810   2.466   0.036   3.575
 1963TIP3    H1 5811   2.409   0.115   3.564
 1963TIP3    H2 5812   2.406  -0.026   3.619
 1964TIP3   OH2 5813   2.568   0.589   4.039
 1964TIP3    H1 5814   2.608   0.662   3.988
 1964TIP3    H2 5815   2.645   0.555   4.086
 1965TIP3   OH2 5816   2.218   0.487   3.425
 1965TIP3    H1 5817   2.133   0.498   3.471
 1965TIP3    H2 5818   2.252   0.580   3.427
 1966TIP3   OH2 5819   2.956   0.222   3.998
 1966TIP3    H1 5820   2.948   0.220   4.096
 1966TIP3    H2 5821   3.037   0.172   3.984
 1967TIP3   OH2 5822   2.924   0.138   2.891
 1967TIP3    H1 5823   2.968   0.102   2.971
 1967TIP3    H2 5824   2.832   0.150   2.923
 1968TIP3   OH2 5825   3.205   0.757   4.047
 1968TIP3    H1 5826   3.124   0.703   4.037
 1968TIP3    H2 5827   3.191   0.823   3.975
 1969TIP3   OH2 5828   3.273   0.592   2.702
 1969TIP3    H1 5829   3.308   0.667   2.651
 1969TIP3    H2 5830   3.190   0.634   2.734
 1970TIP3   OH2 5831   3.091   0.054   3.101
 1970TIP3    H1 5832   3.085  -0.008   3.176
 1970TIP3    H2 5833   3.188   0.051   3.084
 1971TIP3   OH2 5834   2.006   0.451   4.200
 1971TIP3    H1 5835   2.062   0.379   4.233
 1971TIP3    H2 5836   2.037   0.525   4.254
 1972TIP3   OH2 5837   2.510   0.293   3.101
 1972TIP3    H1 5838   2.421   0.316   3.135
 1972TIP3    H2 5839   2.523   0.363   3.036
 1973TIP3   OH2 5840   2.802  -0.682   3.580
 1973TIP3    H1 5841   2.826  -0.598   3.538
 1973TIP3    H2 5842   2.722  -0.661   3.628
 1974TIP3   OH2 5843   2.977  -0.322   4.325
 1974TIP3    H1 5844   2.980  -0.253   4.394
 1974TIP3    H2 5845   3.019  -0.396   4.371
 1975TIP3   OH2 5846   2.260   0.389   3.170
 1975TIP3    H1 5847   2.226   0.459   3.111
 1975TIP3    H2 5848   2.248   0.428   3.259
 1976TIP3   OH2 5849   3.252  -0.215   3.690
 1976TIP3    H1 5850   3.176  -0.274   3.704
 1976TIP3    H2 5851   3.325  -0.263   3.736
 1977TIP3   OH2 5852   3.226   0.731   3.641
 1977TIP3    H1 5853   3.182   0.778   3.566
 1977TIP3    H2 5854   3.320   0.749   3.619
 1978TIP3   OH2 5855   1.997   0.759   4.624
 1978TIP3    H1 5856   2.085   0.759   4.669
 1978TIP3    H2 5857   1.980   0.663   4.618
 1979TIP3   OH2 5858   2.476   0.725   4.667
 1979TIP3    H1 5859   2.572   0.711   4.673
 1979TIP3    H2 5860   2.454   0.666   4.592
 1980TIP3   OH2 5861   3.119   0.631   4.398
 1980TIP3    H1 5862   3.110   0.562   4.467
 1980TIP3    H2 5863   3.195   0.682   4.429
 1981TIP3   OH2 5864   2.918   0.366   2.710
 1981TIP3    H1 5865   2.917   0.283   2.760
 1981TIP3    H2 5866   2.967   0.343   2.630
 1982TIP3   OH2 5867   2.126   0.167   4.821
 1982TIP3    H1 5868   2.141   0.071   4.827
 1982TIP3    H2 5869   2.041   0.171   4.773
 1983TIP3   OH2 5870   2.735   0.251   4.595
 1983TIP3    H1 5871   2.695   0.269   4.507
 1983TIP3    H2 5872   2.766   0.159   4.586
 1984TIP3   OH2 5873   3.227   0.259   4.201
 1984TIP3    H1 5874   3.303   0.302   4.157
 1984TIP3    H2 5875   3.158   0.327   4.186
 1985TIP3   OH2 5876   2.242  -0.113   4.802
 1985TIP3    H1 5877   2.325  -0.156   4.778
 1985TIP3    H2 5878   2.267  -0.066   4.884
 1986TIP3   OH2 5879   2.588  -0.213   4.465
 1986TIP3    H1 5880   2.508  -0.156   4.467
 1986TIP3    H2 5881   2.633  -0.182   4.384
 1987TIP3   OH2 5882   3.097   0.187   4.599
 1987TIP3    H1 5883   3.179   0.166   4.552
 1987TIP3    H2 5884   3.096   0.121   4.670
 1988TIP3   OH2 5885   3.254  -0.156   2.716
 1988TIP3    H1 5886   3.171  -0.204   2.710
 1988TIP3    H2 5887   3.218  -0.065   2.721
 1989TIP3   OH2 5888   2.708  -0.420   4.602
 1989TIP3    H1 5889   2.695  -0.504   4.557
 1989TIP3    H2 5890   2.664  -0.356   4.542
 1990TIP3   OH2 5891   2.742  -0.107   4.263
 1990TIP3    H1 5892   2.823  -0.089   4.214
 1990TIP3    H2 5893   2.681  -0.039   4.227
 1991TIP3   OH2 5894   3.313  -0.130   4.624
 1991TIP3    H1 5895   3.352  -0.191   4.690
 1991TIP3    H2 5896   3.385  -0.068   4.608
 1992TIP3   OH2 5897   3.356   0.116   4.387
 1992TIP3    H1 5898   3.294   0.169   4.332
 1992TIP3    H2 5899   3.440   0.145   4.345
 1993TIP3   OH2 5900   2.553  -0.296   4.807
 1993TIP3    H1 5901   2.521  -0.378   4.847
 1993TIP3    H2 5902   2.617  -0.330   4.742
 1994TIP3   OH2 5903   2.945  -0.326   4.711
 1994TIP3    H1 5904   2.946  -0.348   4.806
 1994TIP3    H2 5905   2.863  -0.370   4.680
 1995TIP3   OH2 5906   2.218   0.582   2.973
 1995TIP3    H1 5907   2.315   0.578   2.959
 1995TIP3    H2 5908   2.187   0.596   2.883
 1996TIP3   OH2 5909   1.608   0.558   3.607
 1996TIP3    H1 5910   1.561   0.475   3.591
 1996TIP3    H2 5911   1.669   0.527   3.678
 1997TIP3   OH2 5912   1.752   0.437   3.799
 1997TIP3    H1 5913   1.739   0.355   3.848
 1997TIP3    H2 5914   1.808   0.488   3.861
 1998TIP3   OH2 5915   3.479   0.820   3.598
 1998TIP3    H1 5916   3.506   0.856   3.684
 1998TIP3    H2 5917   3.537   0.868   3.537
 1999TIP3   OH2 5918   3.507   0.844   3.880
 1999TIP3    H1 5919   3.464   0.756   3.873
 1999TIP3    H2 5920   3.583   0.820   3.936
 2000TIP3   OH2 5921   3.555   0.518   4.455
 2000TIP3    H1 5922   3.481   0.528   4.517
 2000TIP3    H2 5923   3.595   0.607   4.456
 2001TIP3   OH2 5924   3.370   0.034   3.072
 2001TIP3    H1 5925   3.437   0.096   3.040
 2001TIP3    H2 5926   3.416  -0.002   3.152
 2002TIP3   OH2 5927   3.499  -0.099   3.277
 2002TIP3    H1 5928   3.433  -0.137   3.337
 2002TIP3    H2 5929   3.563  -0.057   3.338
 2003TIP3   OH2 5930   3.552   0.292   3.710
 2003TIP3    H1 5931   3.604   0.226   3.659
 2003TIP3    H2 5932   3.546   0.366   3.647
 2004TIP3   OH2 5933   3.384   0.593   3.904
 2004TIP3    H1 5934   3.312   0.636   3.953
 2004TIP3    H2 5935   3.335   0.546   3.833
 2005TIP3   OH2 5936   3.375  -0.216   2.958
 2005TIP3    H1 5937   3.352  -0.196   2.866
 2005TIP3    H2 5938   3.396  -0.123   2.989
 2006TIP3   OH2 5939   3.318  -0.235   3.427
 2006TIP3    H1 5940   3.295  -0.329   3.412
 2006TIP3    H2 5941   3.303  -0.225   3.524
 2007TIP3   OH2 5942   1.943  -0.169   4.164
 2007TIP3    H1 5943   1.956  -0.188   4.071
 2007TIP3    H2 5944   2.037  -0.166   4.194
 2008TIP3   OH2 5945   3.585   0.197   4.273
 2008TIP3    H1 5946   3.660   0.133   4.269
 2008TIP3    H2 5947   3.614   0.267   4.212
 2009TIP3   OH2 5948   3.767   0.015   4.321
 2009TIP3    H1 5949   3.700  -0.051   4.346
 2009TIP3    H2 5950   3.846  -0.044   4.324
 2010TIP3   OH2 5951   3.279  -0.485   3.302
 2010TIP3    H1 5952   3.332  -0.564   3.324
 2010TIP3    H2 5953   3.336  -0.447   3.232
 2011TIP3   OH2 5954   3.467  -0.338   3.809
 2011TIP3    H1 5955   3.553  -0.315   3.767
 2011TIP3    H2 5956   3.484  -0.305   3.900
 2012TIP3   OH2 5957   3.525  -0.200   4.047
 2012TIP3    H1 5958   3.444  -0.163   4.087
 2012TIP3    H2 5959   3.558  -0.123   3.995
 2013TIP3   OH2 5960   2.122  -0.455   4.861
 2013TIP3    H1 5961   2.210  -0.491   4.835
 2013TIP3    H2 5962   2.084  -0.534   4.898
 2014TIP3   OH2 5963   1.933  -0.502   4.225
 2014TIP3    H1 5964   2.004  -0.540   4.172
 2014TIP3    H2 5965   1.974  -0.425   4.266
 2015TIP3   OH2 5966   3.066   0.688   3.256
 2015TIP3    H1 5967   3.113   0.674   3.172
 2015TIP3    H2 5968   3.118   0.758   3.297
 2016TIP3   OH2 5969   2.164   0.493   4.639
 2016TIP3    H1 5970   2.072   0.465   4.623
 2016TIP3    H2 5971   2.175   0.477   4.733
 2017TIP3   OH2 5972   2.341   0.525   4.187
 2017TIP3    H1 5973   2.294   0.602   4.147
 2017TIP3    H2 5974   2.428   0.538   4.143
 2018TIP3   OH2 5975   2.786   0.770   4.325
 2018TIP3    H1 5976   2.828   0.772   4.414
 2018TIP3    H2 5977   2.852   0.821   4.273
 2019TIP3   OH2 5978   2.966   0.921   4.185
 2019TIP3    H1 5979   3.037   0.872   4.141
 2019TIP3    H2 5980   3.017   0.978   4.246
 2020TIP3   OH2 5981   2.016   0.778   4.214
 2020TIP3    H1 5982   1.928   0.814   4.188
 2020TIP3    H2 5983   2.030   0.826   4.297
 2021TIP3   OH2 5984   2.254   0.759   4.069
 2021TIP3    H1 5985   2.167   0.773   4.112
 2021TIP3    H2 5986   2.237   0.794   3.979
 2022TIP3   OH2 5987   2.679   0.789   3.868
 2022TIP3    H1 5988   2.613   0.809   3.800
 2022TIP3    H2 5989   2.693   0.877   3.909
 2023TIP3   OH2 5990   2.949   0.729   3.919
 2023TIP3    H1 5991   2.855   0.746   3.899
 2023TIP3    H2 5992   2.992   0.804   3.876
 2024TIP3   OH2 5993   3.158   0.922   3.834
 2024TIP3    H1 5994   3.143   1.006   3.786
 2024TIP3    H2 5995   3.183   0.862   3.760
 2025TIP3   OH2 5996   1.930   0.576   3.958
 2025TIP3    H1 5997   1.957   0.552   4.049
 2025TIP3    H2 5998   2.002   0.532   3.907
 2026TIP3   OH2 5999   2.119   0.445   3.811
 2026TIP3    H1 6000   2.140   0.363   3.862
 2026TIP3    H2 6001   2.208   0.485   3.804
 2027TIP3   OH2 6002   2.385   0.543   3.817
 2027TIP3    H1 6003   2.421   0.454   3.800
 2027TIP3    H2 6004   2.431   0.565   3.900
 2028TIP3   OH2 6005   2.486   0.531   2.926
 2028TIP3    H1 6006   2.580   0.544   2.900
 2028TIP3    H2 6007   2.452   0.495   2.843
 2029TIP3   OH2 6008   3.208   0.656   3.022
 2029TIP3    H1 6009   3.203   0.558   3.011
 2029TIP3    H2 6010   3.163   0.686   2.941
 2030TIP3   OH2 6011   3.435   0.799   4.210
 2030TIP3    H1 6012   3.357   0.768   4.160
 2030TIP3    H2 6013   3.416   0.895   4.213
 2031TIP3   OH2 6014   4.701   0.171   2.974
 2031TIP3    H1 6015   4.675   0.263   2.955
 2031TIP3    H2 6016   4.620   0.124   2.946
 2032TIP3   OH2 6017   4.703   0.170   3.352
 2032TIP3    H1 6018   4.728   0.143   3.442
 2032TIP3    H2 6019   4.660   0.090   3.318
 2033TIP3   OH2 6020   4.000   0.070   3.721
 2033TIP3    H1 6021   4.035  -0.000   3.779
 2033TIP3    H2 6022   4.078   0.127   3.713
 2034TIP3   OH2 6023   4.944   0.471   3.038
 2034TIP3    H1 6024   4.928   0.406   3.107
 2034TIP3    H2 6025   4.972   0.549   3.090
 2035TIP3   OH2 6026   3.971   0.477   3.449
 2035TIP3    H1 6027   3.962   0.379   3.450
 2035TIP3    H2 6028   4.067   0.486   3.440
 2036TIP3   OH2 6029   3.663  -0.320   3.226
 2036TIP3    H1 6030   3.618  -0.235   3.244
 2036TIP3    H2 6031   3.588  -0.380   3.224
 2037TIP3   OH2 6032   3.737  -0.032   3.405
 2037TIP3    H1 6033   3.786  -0.109   3.441
 2037TIP3    H2 6034   3.796  -0.004   3.333
 2038TIP3   OH2 6035   4.592   0.936   3.054
 2038TIP3    H1 6036   4.638   0.865   3.005
 2038TIP3    H2 6037   4.584   0.898   3.142
 2039TIP3   OH2 6038   4.498   0.397   3.406
 2039TIP3    H1 6039   4.535   0.323   3.356
 2039TIP3    H2 6040   4.582   0.442   3.430
 2040TIP3   OH2 6041   4.913  -0.108   3.446
 2040TIP3    H1 6042   4.946  -0.199   3.446
 2040TIP3    H2 6043   4.871  -0.105   3.358
 2041TIP3   OH2 6044   4.924  -0.307   3.034
 2041TIP3    H1 6045   5.018  -0.329   3.046
 2041TIP3    H2 6046   4.920  -0.293   2.938
 2042TIP3   OH2 6047   3.884  -0.238   3.509
 2042TIP3    H1 6048   3.972  -0.256   3.549
 2042TIP3    H2 6049   3.898  -0.283   3.423
 2043TIP3   OH2 6050   4.325  -0.037   3.303
 2043TIP3    H1 6051   4.418  -0.066   3.318
 2043TIP3    H2 6052   4.283  -0.123   3.278
 2044TIP3   OH2 6053   5.598   0.009   3.538
 2044TIP3    H1 6054   5.503   0.028   3.537
 2044TIP3    H2 6055   5.602  -0.071   3.593
 2045TIP3   OH2 6056   4.594   0.393   2.843
 2045TIP3    H1 6057   4.548   0.376   2.760
 2045TIP3    H2 6058   4.550   0.476   2.871
 2046TIP3   OH2 6059   4.355   0.317   3.636
 2046TIP3    H1 6060   4.291   0.381   3.673
 2046TIP3    H2 6061   4.393   0.367   3.562
 2047TIP3   OH2 6062   4.134  -0.319   3.584
 2047TIP3    H1 6063   4.203  -0.261   3.620
 2047TIP3    H2 6064   4.187  -0.389   3.542
 2048TIP3   OH2 6065   4.180   0.510   3.731
 2048TIP3    H1 6066   4.154   0.595   3.691
 2048TIP3    H2 6067   4.100   0.494   3.786
 2049TIP3   OH2 6068   3.567   0.203   2.972
 2049TIP3    H1 6069   3.537   0.220   2.882
 2049TIP3    H2 6070   3.605   0.288   2.999
 2050TIP3   OH2 6071   5.015   0.716   3.206
 2050TIP3    H1 6072   4.925   0.708   3.245
 2050TIP3    H2 6073   5.006   0.802   3.160
 2051TIP3   OH2 6074   4.718   0.763   2.882
 2051TIP3    H1 6075   4.767   0.680   2.860
 2051TIP3    H2 6076   4.779   0.828   2.841
 2052TIP3   OH2 6077   4.860   0.547   2.787
 2052TIP3    H1 6078   4.814   0.470   2.750
 2052TIP3    H2 6079   4.895   0.511   2.871
 2053TIP3   OH2 6080   5.240   0.631   3.549
 2053TIP3    H1 6081   5.228   0.553   3.491
 2053TIP3    H2 6082   5.221   0.705   3.488
 2054TIP3   OH2 6083   4.527   0.023   2.804
 2054TIP3    H1 6084   4.448   0.078   2.788
 2054TIP3    H2 6085   4.573   0.028   2.718
 2055TIP3   OH2 6086   4.505  -0.220   2.536
 2055TIP3    H1 6087   4.562  -0.156   2.585
 2055TIP3    H2 6088   4.571  -0.261   2.477
 2056TIP3   OH2 6089   5.430   0.265   3.392
 2056TIP3    H1 6090   5.349   0.321   3.398
 2056TIP3    H2 6091   5.462   0.291   3.303
 2057TIP3   OH2 6092   4.877   0.102   2.778
 2057TIP3    H1 6093   4.821   0.127   2.855
 2057TIP3    H2 6094   4.963   0.086   2.823
 2058TIP3   OH2 6095   5.108   0.158   3.687
 2058TIP3    H1 6096   5.106   0.242   3.738
 2058TIP3    H2 6097   5.021   0.164   3.643
 2059TIP3   OH2 6098   4.111   0.099   3.194
 2059TIP3    H1 6099   4.077   0.041   3.123
 2059TIP3    H2 6100   4.189   0.050   3.225
 2060TIP3   OH2 6101   4.240   0.514   3.345
 2060TIP3    H1 6102   4.218   0.476   3.259
 2060TIP3    H2 6103   4.330   0.479   3.361
 2061TIP3   OH2 6104   4.254   0.072   3.554
 2061TIP3    H1 6105   4.280   0.052   3.461
 2061TIP3    H2 6106   4.293   0.160   3.569
 2062TIP3   OH2 6107   4.774   0.712   3.327
 2062TIP3    H1 6108   4.759   0.793   3.379
 2062TIP3    H2 6109   4.757   0.640   3.391
 2063TIP3   OH2 6110   4.385   0.631   3.874
 2063TIP3    H1 6111   4.324   0.693   3.920
 2063TIP3    H2 6112   4.321   0.578   3.823
 2064TIP3   OH2 6113   4.713  -0.030   2.602
 2064TIP3    H1 6114   4.770   0.032   2.653
 2064TIP3    H2 6115   4.742  -0.007   2.510
 2065TIP3   OH2 6116   4.140   0.186   3.975
 2065TIP3    H1 6117   4.144   0.274   4.019
 2065TIP3    H2 6118   4.045   0.168   3.983
 2066TIP3   OH2 6119   4.463   0.642   2.882
 2066TIP3    H1 6120   4.541   0.699   2.897
 2066TIP3    H2 6121   4.401   0.702   2.839
 2067TIP3   OH2 6122   4.180   0.800   3.961
 2067TIP3    H1 6123   4.145   0.800   3.870
 2067TIP3    H2 6124   4.100   0.777   4.014
 2068TIP3   OH2 6125   3.993  -0.072   2.984
 2068TIP3    H1 6126   3.936   0.000   2.944
 2068TIP3    H2 6127   3.926  -0.123   3.031
 2069TIP3   OH2 6128   5.034   0.571   2.200
 2069TIP3    H1 6129   5.042   0.668   2.186
 2069TIP3    H2 6130   5.128   0.544   2.190
 2070TIP3   OH2 6131   3.759   0.329   3.908
 2070TIP3    H1 6132   3.693   0.309   3.838
 2070TIP3    H2 6133   3.794   0.240   3.931
 2071TIP3   OH2 6134   3.612   0.521   3.544
 2071TIP3    H1 6135   3.708   0.519   3.531
 2071TIP3    H2 6136   3.601   0.604   3.593
 2072TIP3   OH2 6137   5.478   0.975   3.596
 2072TIP3    H1 6138   5.476   0.879   3.609
 2072TIP3    H2 6139   5.395   1.001   3.642
 2073TIP3   OH2 6140   4.584   0.759   3.731
 2073TIP3    H1 6141   4.583   0.852   3.763
 2073TIP3    H2 6142   4.511   0.720   3.785
 2074TIP3   OH2 6143   4.345   0.889   2.682
 2074TIP3    H1 6144   4.299   0.871   2.599
 2074TIP3    H2 6145   4.312   0.978   2.706
 2075TIP3   OH2 6146   3.782   0.739   3.066
 2075TIP3    H1 6147   3.829   0.729   3.152
 2075TIP3    H2 6148   3.725   0.660   3.067
 2076TIP3   OH2 6149   4.545   0.791   2.322
 2076TIP3    H1 6150   4.604   0.722   2.286
 2076TIP3    H2 6151   4.579   0.801   2.413
 2077TIP3   OH2 6152   4.596   0.838   2.592
 2077TIP3    H1 6153   4.507   0.849   2.633
 2077TIP3    H2 6154   4.645   0.799   2.666
 2078TIP3   OH2 6155   5.366   0.090   3.864
 2078TIP3    H1 6156   5.289   0.141   3.833
 2078TIP3    H2 6157   5.368   0.018   3.800
 2079TIP3   OH2 6158   3.963   0.513   3.897
 2079TIP3    H1 6159   4.013   0.495   3.979
 2079TIP3    H2 6160   3.889   0.449   3.903
 2080TIP3   OH2 6161   5.117  -0.098   3.789
 2080TIP3    H1 6162   5.113  -0.071   3.881
 2080TIP3    H2 6163   5.109  -0.011   3.744
 2081TIP3   OH2 6164   4.808   0.004   2.353
 2081TIP3    H1 6165   4.766  -0.008   2.266
 2081TIP3    H2 6166   4.880   0.066   2.329
 2082TIP3   OH2 6167   4.315  -0.146   3.706
 2082TIP3    H1 6168   4.254  -0.131   3.781
 2082TIP3    H2 6169   4.295  -0.067   3.651
 2083TIP3   OH2 6170   4.193  -0.261   3.224
 2083TIP3    H1 6171   4.099  -0.280   3.245
 2083TIP3    H2 6172   4.197  -0.291   3.131
 2084TIP3   OH2 6173   4.665  -0.168   2.939
 2084TIP3    H1 6174   4.609  -0.097   2.900
 2084TIP3    H2 6175   4.718  -0.197   2.863
 2085TIP3   OH2 6176   4.844   0.099   4.018
 2085TIP3    H1 6177   4.817   0.041   4.094
 2085TIP3    H2 6178   4.937   0.119   4.042
 2086TIP3   OH2 6179   4.812  -0.115   3.192
 2086TIP3    H1 6180   4.760  -0.085   3.116
 2086TIP3    H2 6181   4.841  -0.202   3.157
 2087TIP3   OH2 6182   4.116  -0.113   3.902
 2087TIP3    H1 6183   4.135  -0.051   3.974
 2087TIP3    H2 6184   4.055  -0.176   3.945
 2088TIP3   OH2 6185   3.703  -0.541   3.020
 2088TIP3    H1 6186   3.734  -0.502   2.934
 2088TIP3    H2 6187   3.641  -0.470   3.047
 2089TIP3   OH2 6188   4.837   0.099   3.602
 2089TIP3    H1 6189   4.871   0.027   3.544
 2089TIP3    H2 6190   4.811   0.046   3.680
 2090TIP3   OH2 6191   3.934  -0.345   3.264
 2090TIP3    H1 6192   3.838  -0.348   3.240
 2090TIP3    H2 6193   3.956  -0.440   3.276
 2091TIP3   OH2 6194   4.241  -0.374   2.981
 2091TIP3    H1 6195   4.334  -0.386   2.954
 2091TIP3    H2 6196   4.192  -0.375   2.896
 2092TIP3   OH2 6197   4.113  -0.367   2.741
 2092TIP3    H1 6198   4.175  -0.318   2.685
 2092TIP3    H2 6199   4.030  -0.325   2.723
 2093TIP3   OH2 6200   5.167   1.325   3.694
 2093TIP3    H1 6201   5.165   1.348   3.599
 2093TIP3    H2 6202   5.246   1.374   3.724
 2094TIP3   OH2 6203   4.126   0.434   4.117
 2094TIP3    H1 6204   4.205   0.465   4.165
 2094TIP3    H2 6205   4.060   0.435   4.189
 2095TIP3   OH2 6206   4.586  -0.116   3.374
 2095TIP3    H1 6207   4.662  -0.151   3.324
 2095TIP3    H2 6208   4.594  -0.162   3.459
 2096TIP3   OH2 6209   4.584  -0.219   3.670
 2096TIP3    H1 6210   4.489  -0.196   3.679
 2096TIP3    H2 6211   4.627  -0.145   3.717
 2097TIP3   OH2 6212   4.304   0.177   2.759
 2097TIP3    H1 6213   4.227   0.118   2.744
 2097TIP3    H2 6214   4.284   0.212   2.849
 2098TIP3   OH2 6215   5.201   0.414   3.386
 2098TIP3    H1 6216   5.225   0.464   3.305
 2098TIP3    H2 6217   5.116   0.372   3.360
 2099TIP3   OH2 6218   4.732  -0.460   2.561
 2099TIP3    H1 6219   4.665  -0.507   2.614
 2099TIP3    H2 6220   4.766  -0.396   2.628
 2100TIP3   OH2 6221   4.704   0.495   3.753
 2100TIP3    H1 6222   4.722   0.473   3.845
 2100TIP3    H2 6223   4.663   0.583   3.759
 2101TIP3   OH2 6224   4.817  -0.254   2.721
 2101TIP3    H1 6225   4.913  -0.242   2.735
 2101TIP3    H2 6226   4.793  -0.172   2.673
 2102TIP3   OH2 6227   3.998   0.200   3.433
 2102TIP3    H1 6228   4.032   0.169   3.346
 2102TIP3    H2 6229   4.031   0.132   3.493
 2103TIP3   OH2 6230   4.449   0.327   2.581
 2103TIP3    H1 6231   4.401   0.413   2.583
 2103TIP3    H2 6232   4.393   0.273   2.641
 2104TIP3   OH2 6233   3.875   0.115   4.044
 2104TIP3    H1 6234   3.897   0.105   4.138
 2104TIP3    H2 6235   3.811   0.043   4.029
 2105TIP3   OH2 6236   4.601   0.232   4.063
 2105TIP3    H1 6237   4.537   0.170   4.024
 2105TIP3    H2 6238   4.685   0.198   4.028
 2106TIP3   OH2 6239   4.863   0.751   3.650
 2106TIP3    H1 6240   4.766   0.751   3.662
 2106TIP3    H2 6241   4.890   0.805   3.727
 2107TIP3   OH2 6242   5.252  -0.166   2.565
 2107TIP3    H1 6243   5.193  -0.207   2.498
 2107TIP3    H2 6244   5.257  -0.076   2.525
 2108TIP3   OH2 6245   5.490   0.687   3.637
 2108TIP3    H1 6246   5.392   0.684   3.626
 2108TIP3    H2 6247   5.517   0.654   3.548
 2109TIP3   OH2 6248   4.972   0.645   2.465
 2109TIP3    H1 6249   4.946   0.575   2.525
 2109TIP3    H2 6250   4.986   0.599   2.380
 2110TIP3   OH2 6251   4.967   0.275   3.307
 2110TIP3    H1 6252   4.873   0.250   3.318
 2110TIP3    H2 6253   5.001   0.198   3.257
 2111TIP3   OH2 6254   4.096   0.503   3.057
 2111TIP3    H1 6255   4.094   0.583   3.003
 2111TIP3    H2 6256   4.002   0.481   3.064
 2112TIP3   OH2 6257   3.659  -0.078   2.794
 2112TIP3    H1 6258   3.627  -0.171   2.779
 2112TIP3    H2 6259   3.579  -0.048   2.817
 2113TIP3   OH2 6260   4.237   0.268   3.003
 2113TIP3    H1 6261   4.199   0.357   3.018
 2113TIP3    H2 6262   4.195   0.218   3.075
 2114TIP3   OH2 6263   4.364   0.847   3.526
 2114TIP3    H1 6264   4.405   0.919   3.474
 2114TIP3    H2 6265   4.441   0.811   3.573
 2115TIP3   OH2 6266   4.016   0.740   2.910
 2115TIP3    H1 6267   3.930   0.749   2.955
 2115TIP3    H2 6268   4.048   0.833   2.911
 2116TIP3   OH2 6269   4.753   0.478   3.484
 2116TIP3    H1 6270   4.744   0.477   3.582
 2116TIP3    H2 6271   4.834   0.428   3.472
 2117TIP3   OH2 6272   4.726   0.367   2.366
 2117TIP3    H1 6273   4.776   0.344   2.448
 2117TIP3    H2 6274   4.636   0.348   2.394
 2118TIP3   OH2 6275   5.001   1.014   3.534
 2118TIP3    H1 6276   4.921   0.959   3.525
 2118TIP3    H2 6277   4.987   1.079   3.462
 2119TIP3   OH2 6278   5.066   0.847   2.186
 2119TIP3    H1 6279   5.104   0.919   2.134
 2119TIP3    H2 6280   4.986   0.893   2.220
 2120TIP3   OH2 6281   4.887   0.302   2.583
 2120TIP3    H1 6282   4.879   0.239   2.657
 2120TIP3    H2 6283   4.984   0.303   2.571
 2121TIP3   OH2 6284   3.803   0.709   3.685
 2121TIP3    H1 6285   3.855   0.633   3.716
 2121TIP3    H2 6286   3.832   0.777   3.746
 2122TIP3   OH2 6287   4.094   0.359   2.369
 2122TIP3    H1 6288   4.100   0.266   2.339
 2122TIP3    H2 6289   4.075   0.347   2.464
 2123TIP3   OH2 6290   4.040   0.358   2.638
 2123TIP3    H1 6291   4.105   0.333   2.706
 2123TIP3    H2 6292   4.042   0.456   2.645
 2124TIP3   OH2 6293   3.851   0.151   2.883
 2124TIP3    H1 6294   3.760   0.135   2.918
 2124TIP3    H2 6295   3.830   0.180   2.796
 2125TIP3   OH2 6296   4.307   0.555   2.589
 2125TIP3    H1 6297   4.219   0.581   2.624
 2125TIP3    H2 6298   4.320   0.624   2.522
 2126TIP3   OH2 6299   4.524  -0.391   3.006
 2126TIP3    H1 6300   4.572  -0.310   2.978
 2126TIP3    H2 6301   4.514  -0.375   3.101
 2127TIP3   OH2 6302   4.776  -0.068   3.812
 2127TIP3    H1 6303   4.774   0.005   3.877
 2127TIP3    H2 6304   4.811  -0.139   3.866
 2128TIP3   OH2 6305   4.050   0.630   2.655
 2128TIP3    H1 6306   4.018   0.699   2.592
 2128TIP3    H2 6307   4.032   0.674   2.741
 2129TIP3   OH2 6308   5.050   0.041   3.176
 2129TIP3    H1 6309   4.972  -0.015   3.192
 2129TIP3    H2 6310   5.122  -0.007   3.224
 2130TIP3   OH2 6311   3.761   0.269   2.642
 2130TIP3    H1 6312   3.829   0.338   2.651
 2130TIP3    H2 6313   3.808   0.206   2.584
 2131TIP3   OH2 6314   3.651  -0.408   2.771
 2131TIP3    H1 6315   3.736  -0.412   2.729
 2131TIP3    H2 6316   3.606  -0.480   2.745
 2132TIP3   OH2 6317   5.022   0.987   3.128
 2132TIP3    H1 6318   4.979   1.034   3.053
 2132TIP3    H2 6319   5.116   1.006   3.106
 2133TIP3   OH2 6320   3.640   0.479   3.037
 2133TIP3    H1 6321   3.564   0.505   3.090
 2133TIP3    H2 6322   3.613   0.514   2.950
 2134TIP3   OH2 6323   3.793   1.016   4.108
 2134TIP3    H1 6324   3.879   1.014   4.153
 2134TIP3    H2 6325   3.771   0.921   4.105
 2135TIP3   OH2 6326   4.278   0.982   4.151
 2135TIP3    H1 6327   4.371   0.959   4.157
 2135TIP3    H2 6328   4.249   0.924   4.078
 2136TIP3   OH2 6329   4.260   0.558   2.281
 2136TIP3    H1 6330   4.201   0.487   2.317
 2136TIP3    H2 6331   4.332   0.504   2.245
 2137TIP3   OH2 6332   4.914   0.888   3.885
 2137TIP3    H1 6333   4.905   0.818   3.954
 2137TIP3    H2 6334   4.992   0.938   3.916
 2138TIP3   OH2 6335   4.694   0.599   2.191
 2138TIP3    H1 6336   4.744   0.538   2.248
 2138TIP3    H2 6337   4.746   0.599   2.109
 2139TIP3   OH2 6338   3.923   0.423   4.305
 2139TIP3    H1 6339   3.936   0.327   4.314
 2139TIP3    H2 6340   3.836   0.427   4.261
 2140TIP3   OH2 6341   3.900   0.070   2.509
 2140TIP3    H1 6342   3.962   0.054   2.584
 2140TIP3    H2 6343   3.964   0.083   2.436
 2141TIP3   OH2 6344   4.533   0.508   4.080
 2141TIP3    H1 6345   4.489   0.525   3.994
 2141TIP3    H2 6346   4.562   0.415   4.072
 2142TIP3   OH2 6347   4.414   0.280   2.309
 2142TIP3    H1 6348   4.411   0.290   2.406
 2142TIP3    H2 6349   4.419   0.182   2.301
 2143TIP3   OH2 6350   5.023   0.514   3.687
 2143TIP3    H1 6351   5.098   0.559   3.644
 2143TIP3    H2 6352   4.953   0.581   3.674
 2144TIP3   OH2 6353   4.045   0.149   4.287
 2144TIP3    H1 6354   4.127   0.102   4.267
 2144TIP3    H2 6355   4.067   0.194   4.371
 2145TIP3   OH2 6356   4.107  -0.012   2.714
 2145TIP3    H1 6357   4.087  -0.055   2.801
 2145TIP3    H2 6358   4.153  -0.081   2.665
 2146TIP3   OH2 6359   4.386   0.047   3.955
 2146TIP3    H1 6360   4.303   0.099   3.956
 2146TIP3    H2 6361   4.427   0.076   3.870
 2147TIP3   OH2 6362   4.231  -0.208   2.558
 2147TIP3    H1 6363   4.202  -0.248   2.476
 2147TIP3    H2 6364   4.328  -0.200   2.543
 2148TIP3   OH2 6365   4.895   0.444   4.086
 2148TIP3    H1 6366   4.975   0.421   4.039
 2148TIP3    H2 6367   4.891   0.377   4.156
 2149TIP3   OH2 6368   5.039   0.100   2.224
 2149TIP3    H1 6369   5.015   0.059   2.139
 2149TIP3    H2 6370   5.006   0.192   2.206
 2150TIP3   OH2 6371   4.509  -0.162   4.085
 2150TIP3    H1 6372   4.483  -0.247   4.049
 2150TIP3    H2 6373   4.460  -0.098   4.028
 2151TIP3   OH2 6374   4.541   0.151   3.750
 2151TIP3    H1 6375   4.618   0.170   3.696
 2151TIP3    H2 6376   4.476   0.216   3.715
 2152TIP3   OH2 6377   5.108   0.126   4.107
 2152TIP3    H1 6378   5.139   0.069   4.181
 2152TIP3    H2 6379   5.181   0.187   4.095
 2153TIP3   OH2 6380   5.153   0.372   3.874
 2153TIP3    H1 6381   5.090   0.425   3.819
 2153TIP3    H2 6382   5.237   0.402   3.831
 2154TIP3   OH2 6383   4.351  -0.040   4.295
 2154TIP3    H1 6384   4.315  -0.120   4.335
 2154TIP3    H2 6385   4.414  -0.076   4.229
 2155TIP3   OH2 6386   4.743  -0.073   4.204
 2155TIP3    H1 6387   4.727  -0.102   4.294
 2155TIP3    H2 6388   4.663  -0.109   4.160
 2156TIP3   OH2 6389   4.017   0.833   2.468
 2156TIP3    H1 6390   4.113   0.829   2.449
 2156TIP3    H2 6391   3.987   0.882   2.389
 2157TIP3   OH2 6392   3.495   0.216   2.678
 2157TIP3    H1 6393   3.592   0.237   2.673
 2157TIP3    H2 6394   3.493   0.126   2.646
 2158TIP3   OH2 6395   3.412   0.828   3.096
 2158TIP3    H1 6396   3.345   0.767   3.059
 2158TIP3    H2 6397   3.456   0.770   3.162
 2159TIP3   OH2 6398   3.547   0.681   3.285
 2159TIP3    H1 6399   3.534   0.606   3.344
 2159TIP3    H2 6400   3.599   0.741   3.341
 2160TIP3   OH2 6401   5.275   1.078   3.085
 2160TIP3    H1 6402   5.303   1.114   3.170
 2160TIP3    H2 6403   5.335   1.121   3.022
 2161TIP3   OH2 6404   5.303   1.101   3.368
 2161TIP3    H1 6405   5.260   1.013   3.360
 2161TIP3    H2 6406   5.380   1.077   3.421
 2162TIP3   OH2 6407   5.352   0.774   3.941
 2162TIP3    H1 6408   5.277   0.785   4.004
 2162TIP3    H2 6409   5.392   0.864   3.943
 2163TIP3   OH2 6410   5.167   0.287   2.557
 2163TIP3    H1 6411   5.231   0.355   2.527
 2163TIP3    H2 6412   5.213   0.253   2.637
 2164TIP3   OH2 6413   5.297   0.158   2.762
 2164TIP3    H1 6414   5.229   0.122   2.824
 2164TIP3    H2 6415   5.362   0.198   2.822
 2165TIP3   OH2 6416   5.349   0.548   3.196
 2165TIP3    H1 6417   5.400   0.484   3.145
 2165TIP3    H2 6418   5.343   0.624   3.135
 2166TIP3   OH2 6419   5.180   0.849   3.391
 2166TIP3    H1 6420   5.108   0.893   3.440
 2166TIP3    H2 6421   5.131   0.803   3.320
 2167TIP3   OH2 6422   5.229   0.060   2.413
 2167TIP3    H1 6423   5.161   0.069   2.341
 2167TIP3    H2 6424   5.204   0.139   2.467
 2168TIP3   OH2 6425   5.104  -0.279   2.356
 2168TIP3    H1 6426   5.070  -0.201   2.310
 2168TIP3    H2 6427   5.047  -0.348   2.321
 2169TIP3   OH2 6428   5.109   0.027   2.911
 2169TIP3    H1 6429   5.096  -0.069   2.898
 2169TIP3    H2 6430   5.094   0.037   3.008
 2170TIP3   OH2 6431   3.734   0.086   3.658
 2170TIP3    H1 6432   3.732   0.056   3.564
 2170TIP3    H2 6433   3.832   0.088   3.674
 2171TIP3   OH2 6434   5.381   0.454   3.760
 2171TIP3    H1 6435   5.456   0.390   3.756
 2171TIP3    H2 6436   5.410   0.524   3.699
 2172TIP3   OH2 6437   5.564   0.272   3.806
 2172TIP3    H1 6438   5.496   0.206   3.833
 2172TIP3    H2 6439   5.642   0.212   3.810
 2173TIP3   OH2 6440   5.080  -0.227   2.788
 2173TIP3    H1 6441   5.124  -0.314   2.797
 2173TIP3    H2 6442   5.136  -0.188   2.719
 2174TIP3   OH2 6443   5.263  -0.083   3.298
 2174TIP3    H1 6444   5.349  -0.060   3.255
 2174TIP3    H2 6445   5.279  -0.047   3.387
 2175TIP3   OH2 6446   5.321   0.056   3.533
 2175TIP3    H1 6447   5.240   0.093   3.574
 2175TIP3    H2 6448   5.354   0.134   3.482
 2176TIP3   OH2 6449   3.916  -0.200   4.360
 2176TIP3    H1 6450   4.003  -0.233   4.328
 2176TIP3    H2 6451   3.877  -0.284   4.385
 2177TIP3   OH2 6452   3.712  -0.248   3.723
 2177TIP3    H1 6453   3.769  -0.249   3.643
 2177TIP3    H2 6454   3.744  -0.170   3.768
 2178TIP3   OH2 6455   4.861   0.945   2.743
 2178TIP3    H1 6456   4.908   0.931   2.658
 2178TIP3    H2 6457   4.914   1.014   2.784
 2179TIP3   OH2 6458   3.960   0.750   4.128
 2179TIP3    H1 6459   3.869   0.723   4.109
 2179TIP3    H2 6460   3.968   0.730   4.222
 2180TIP3   OH2 6461   4.138   0.782   3.675
 2180TIP3    H1 6462   4.089   0.856   3.635
 2180TIP3    H2 6463   4.224   0.797   3.630
 2181TIP3   OH2 6464   4.584   1.026   3.813
 2181TIP3    H1 6465   4.626   1.028   3.902
 2181TIP3    H2 6466   4.649   1.077   3.760
 2182TIP3   OH2 6467   4.762   1.178   3.672
 2182TIP3    H1 6468   4.832   1.128   3.628
 2182TIP3    H2 6469   4.814   1.235   3.732
 2183TIP3   OH2 6470   3.815   1.040   3.698
 2183TIP3    H1 6471   3.726   1.073   3.672
 2183TIP3    H2 6472   3.820   1.074   3.787
 2184TIP3   OH2 6473   4.052   1.018   3.556
 2184TIP3    H1 6474   3.965   1.031   3.600
 2184TIP3    H2 6475   4.032   1.050   3.466
 2185TIP3   OH2 6476   4.477   1.047   3.354
 2185TIP3    H1 6477   4.407   1.065   3.288
 2185TIP3    H2 6478   4.488   1.135   3.394
 2186TIP3   OH2 6479   4.745   0.986   3.406
 2186TIP3    H1 6480   4.651   1.003   3.386
 2186TIP3    H2 6481   4.788   1.060   3.362
 2187TIP3   OH2 6482   4.954   1.179   3.320
 2187TIP3    H1 6483   4.939   1.263   3.272
 2187TIP3    H2 6484   4.979   1.118   3.247
 2188TIP3   OH2 6485   3.726   0.833   3.443
 2188TIP3    H1 6486   3.753   0.807   3.534
 2188TIP3    H2 6487   3.797   0.789   3.392
 2189TIP3   OH2 6488   3.919   0.704   3.300
 2189TIP3    H1 6489   3.935   0.620   3.349
 2189TIP3    H2 6490   4.009   0.741   3.293
 2190TIP3   OH2 6491   4.185   0.800   3.302
 2190TIP3    H1 6492   4.217   0.708   3.289
 2190TIP3    H2 6493   4.229   0.820   3.387
 2191TIP3   OH2 6494   3.515   0.604   2.835
 2191TIP3    H1 6495   3.431   0.570   2.800
 2191TIP3    H2 6496   3.501   0.699   2.818
 2192TIP3   OH2 6497   4.286   0.795   2.417
 2192TIP3    H1 6498   4.374   0.817   2.380
 2192TIP3    H2 6499   4.264   0.720   2.357
 2193TIP3   OH2 6500   5.003   0.912   2.509
 2193TIP3    H1 6501   4.995   0.814   2.496
 2193TIP3    H2 6502   4.958   0.944   2.428
 2194TIP3   OH2 6503   3.590   0.635   2.470
 2194TIP3    H1 6504   3.588   0.654   2.565
 2194TIP3    H2 6505   3.677   0.590   2.460
 2195TIP3   OH2 6506   5.231   1.056   3.697
 2195TIP3    H1 6507   5.153   1.024   3.647
 2195TIP3    H2 6508   5.211   1.152   3.700
 2196TIP3   OH2 6509   6.492   0.430   2.470
 2196TIP3    H1 6510   6.462   0.519   2.444
 2196TIP3    H2 6511   6.420   0.376   2.430
 2197TIP3   OH2 6512   6.506   0.428   2.831
 2197TIP3    H1 6513   6.494   0.398   2.922
 2197TIP3    H2 6514   6.463   0.357   2.781
 2198TIP3   OH2 6515   5.796   0.326   3.208
 2198TIP3    H1 6516   5.833   0.257   3.266
 2198TIP3    H2 6517   5.872   0.385   3.200
 2199TIP3   OH2 6518   6.742   0.730   2.524
 2199TIP3    H1 6519   6.719   0.665   2.592
 2199TIP3    H2 6520   6.769   0.807   2.577
 2200TIP3   OH2 6521   5.767   0.732   2.938
 2200TIP3    H1 6522   5.760   0.635   2.939
 2200TIP3    H2 6523   5.863   0.742   2.924
 2201TIP3   OH2 6524   5.460  -0.067   2.720
 2201TIP3    H1 6525   5.421   0.020   2.738
 2201TIP3    H2 6526   5.381  -0.117   2.694
 2202TIP3   OH2 6527   5.533   0.223   2.888
 2202TIP3    H1 6528   5.582   0.147   2.926
 2202TIP3    H2 6529   5.596   0.257   2.823
 2203TIP3   OH2 6530   6.390   1.194   2.542
 2203TIP3    H1 6531   6.436   1.123   2.492
 2203TIP3    H2 6532   6.379   1.154   2.628
 2204TIP3   OH2 6533   6.294   0.652   2.895
 2204TIP3    H1 6534   6.328   0.587   2.833
 2204TIP3    H2 6535   6.379   0.696   2.920
 2205TIP3   OH2 6536   6.751  -0.084   2.508
 2205TIP3    H1 6537   6.846  -0.072   2.506
 2205TIP3    H2 6538   6.731  -0.086   2.413
 2206TIP3   OH2 6539   5.681   0.021   2.996
 2206TIP3    H1 6540   5.767   0.000   3.038
 2206TIP3    H2 6541   5.696  -0.024   2.910
 2207TIP3   OH2 6542   6.120   0.216   2.791
 2207TIP3    H1 6543   6.214   0.191   2.799
 2207TIP3    H2 6544   6.080   0.130   2.762
 2208TIP3   OH2 6545   7.390   0.267   3.025
 2208TIP3    H1 6546   7.294   0.282   3.020
 2208TIP3    H2 6547   7.394   0.187   3.081
 2209TIP3   OH2 6548   6.392   0.650   2.332
 2209TIP3    H1 6549   6.343   0.629   2.251
 2209TIP3    H2 6550   6.348   0.734   2.359
 2210TIP3   OH2 6551   6.151   0.572   3.125
 2210TIP3    H1 6552   6.087   0.638   3.161
 2210TIP3    H2 6553   6.190   0.621   3.050
 2211TIP3   OH2 6554   5.930  -0.064   3.072
 2211TIP3    H1 6555   5.998  -0.005   3.109
 2211TIP3    H2 6556   5.984  -0.131   3.027
 2212TIP3   OH2 6557   5.977   0.766   3.218
 2212TIP3    H1 6558   5.951   0.850   3.176
 2212TIP3    H2 6559   5.897   0.752   3.273
 2213TIP3   OH2 6560   5.369   0.457   2.453
 2213TIP3    H1 6561   5.333   0.486   2.367
 2213TIP3    H2 6562   5.401   0.542   2.491
 2214TIP3   OH2 6563   6.811   0.973   2.693
 2214TIP3    H1 6564   6.722   0.965   2.733
 2214TIP3    H2 6565   6.803   1.058   2.646
 2215TIP3   OH2 6566   6.517   1.020   2.371
 2215TIP3    H1 6567   6.564   0.937   2.348
 2215TIP3    H2 6568   6.577   1.085   2.327
 2216TIP3   OH2 6569   6.655   0.804   2.273
 2216TIP3    H1 6570   6.609   0.727   2.238
 2216TIP3    H2 6571   6.693   0.767   2.356
 2217TIP3   OH2 6572   7.035   0.888   3.037
 2217TIP3    H1 6573   7.024   0.810   2.977
 2217TIP3    H2 6574   7.017   0.963   2.976
 2218TIP3   OH2 6575   6.323   0.279   2.309
 2218TIP3    H1 6576   6.250   0.334   2.272
 2218TIP3    H2 6577   6.378   0.261   2.230
 2219TIP3   OH2 6578   7.222   0.510   2.875
 2219TIP3    H1 6579   7.145   0.570   2.886
 2219TIP3    H2 6580   7.258   0.543   2.791
 2220TIP3   OH2 6581   6.687   0.397   2.278
 2220TIP3    H1 6582   6.628   0.412   2.356
 2220TIP3    H2 6583   6.770   0.370   2.322
 2221TIP3   OH2 6584   6.905   0.412   3.180
 2221TIP3    H1 6585   6.909   0.495   3.232
 2221TIP3    H2 6586   6.818   0.423   3.136
 2222TIP3   OH2 6587   5.904   0.358   2.684
 2222TIP3    H1 6588   5.866   0.304   2.612
 2222TIP3    H2 6589   5.983   0.307   2.710
 2223TIP3   OH2 6590   6.031   0.766   2.833
 2223TIP3    H1 6591   6.011   0.737   2.743
 2223TIP3    H2 6592   6.122   0.732   2.847
 2224TIP3   OH2 6593   6.050   0.328   3.041
 2224TIP3    H1 6594   6.074   0.309   2.948
 2224TIP3    H2 6595   6.088   0.417   3.055
 2225TIP3   OH2 6596   6.571   0.968   2.814
 2225TIP3    H1 6597   6.555   1.050   2.864
 2225TIP3    H2 6598   6.552   0.898   2.879
 2226TIP3   OH2 6599   6.182   0.887   3.362
 2226TIP3    H1 6600   6.121   0.949   3.407
 2226TIP3    H2 6601   6.117   0.834   3.311
 2227TIP3   OH2 6602   6.535   0.201   2.154
 2227TIP3    H1 6603   6.600   0.270   2.179
 2227TIP3    H2 6604   6.532   0.207   2.058
 2228TIP3   OH2 6605   5.937   0.441   3.463
 2228TIP3    H1 6606   5.942   0.529   3.506
 2228TIP3    H2 6607   5.841   0.424   3.471
 2229TIP3   OH2 6608   6.262   0.896   2.370
 2229TIP3    H1 6609   6.334   0.959   2.384
 2229TIP3    H2 6610   6.195   0.950   2.325
 2230TIP3   OH2 6611   5.977   1.056   3.447
 2230TIP3    H1 6612   5.942   1.057   3.356
 2230TIP3    H2 6613   5.897   1.034   3.500
 2231TIP3   OH2 6614   5.778   0.203   2.479
 2231TIP3    H1 6615   5.709   0.249   2.427
 2231TIP3    H2 6616   5.733   0.123   2.507
 2232TIP3   OH2 6617   6.825   0.838   1.707
 2232TIP3    H1 6618   6.835   0.933   1.682
 2232TIP3    H2 6619   6.860   0.793   1.629
 2233TIP3   OH2 6620   5.555   0.585   3.395
 2233TIP3    H1 6621   5.490   0.566   3.325
 2233TIP3    H2 6622   5.590   0.497   3.418
 2234TIP3   OH2 6623   5.409   0.777   3.032
 2234TIP3    H1 6624   5.505   0.775   3.017
 2234TIP3    H2 6625   5.398   0.860   3.081
 2235TIP3   OH2 6626   7.274   1.232   3.083
 2235TIP3    H1 6627   7.272   1.136   3.096
 2235TIP3    H2 6628   7.191   1.258   3.128
 2236TIP3   OH2 6629   6.381   1.015   3.218
 2236TIP3    H1 6630   6.380   1.108   3.250
 2236TIP3    H2 6631   6.308   0.976   3.272
 2237TIP3   OH2 6632   6.144   1.149   2.168
 2237TIP3    H1 6633   6.090   1.126   2.091
 2237TIP3    H2 6634   6.107   1.236   2.194
 2238TIP3   OH2 6635   5.569   0.996   2.554
 2238TIP3    H1 6636   5.625   0.987   2.634
 2238TIP3    H2 6637   5.515   0.915   2.561
 2239TIP3   OH2 6638   6.343   1.046   1.808
 2239TIP3    H1 6639   6.404   0.977   1.775
 2239TIP3    H2 6640   6.374   1.057   1.900
 2240TIP3   OH2 6641   6.393   1.095   2.077
 2240TIP3    H1 6642   6.303   1.108   2.115
 2240TIP3    H2 6643   6.438   1.051   2.150
 2241TIP3   OH2 6644   7.164   0.342   3.354
 2241TIP3    H1 6645   7.090   0.396   3.325
 2241TIP3    H2 6646   7.177   0.284   3.277
 2242TIP3   OH2 6647   5.760   0.769   3.383
 2242TIP3    H1 6648   5.809   0.752   3.466
 2242TIP3    H2 6649   5.685   0.705   3.390
 2243TIP3   OH2 6650   6.908   0.159   3.289
 2243TIP3    H1 6651   6.910   0.193   3.379
 2243TIP3    H2 6652   6.905   0.244   3.239
 2244TIP3   OH2 6653   6.112   0.110   3.192
 2244TIP3    H1 6654   6.051   0.125   3.268
 2244TIP3    H2 6655   6.092   0.189   3.137
 2245TIP3   OH2 6656   5.993  -0.009   2.703
 2245TIP3    H1 6657   5.899  -0.026   2.727
 2245TIP3    H2 6658   5.993  -0.037   2.609
 2246TIP3   OH2 6659   6.467   0.086   2.438
 2246TIP3    H1 6660   6.414   0.158   2.398
 2246TIP3    H2 6661   6.501   0.043   2.357
 2247TIP3   OH2 6662   6.640   0.354   3.504
 2247TIP3    H1 6663   6.614   0.299   3.581
 2247TIP3    H2 6664   6.732   0.377   3.527
 2248TIP3   OH2 6665   6.626   0.133   2.660
 2248TIP3    H1 6666   6.567   0.153   2.585
 2248TIP3    H2 6667   6.652   0.043   2.635
 2249TIP3   OH2 6668   5.913   0.142   3.390
 2249TIP3    H1 6669   5.930   0.207   3.460
 2249TIP3    H2 6670   5.850   0.082   3.432
 2250TIP3   OH2 6671   5.511  -0.278   2.487
 2250TIP3    H1 6672   5.533  -0.232   2.402
 2250TIP3    H2 6673   5.447  -0.215   2.525
 2251TIP3   OH2 6674   6.640   0.354   3.094
 2251TIP3    H1 6675   6.643   0.285   3.028
 2251TIP3    H2 6676   6.613   0.304   3.174
 2252TIP3   OH2 6677   5.732  -0.088   2.751
 2252TIP3    H1 6678   5.635  -0.091   2.731
 2252TIP3    H2 6679   5.754  -0.182   2.764
 2253TIP3   OH2 6680   6.018  -0.116   2.455
 2253TIP3    H1 6681   6.112  -0.114   2.428
 2253TIP3    H2 6682   5.968  -0.115   2.371
 2254TIP3   OH2 6683   5.845  -0.116   2.236
 2254TIP3    H1 6684   5.753  -0.118   2.204
 2254TIP3    H2 6685   5.891  -0.074   2.161
 2255TIP3   OH2 6686   6.964   1.581   3.181
 2255TIP3    H1 6687   6.962   1.606   3.087
 2255TIP3    H2 6688   7.042   1.630   3.213
 2256TIP3   OH2 6689   5.922   0.689   3.604
 2256TIP3    H1 6690   6.002   0.721   3.651
 2256TIP3    H2 6691   5.857   0.691   3.676
 2257TIP3   OH2 6692   6.395   0.144   2.865
 2257TIP3    H1 6693   6.470   0.111   2.813
 2257TIP3    H2 6694   6.393   0.085   2.942
 2258TIP3   OH2 6695   6.380   0.036   3.159
 2258TIP3    H1 6696   6.284   0.058   3.165
 2258TIP3    H2 6697   6.420   0.112   3.205
 2259TIP3   OH2 6698   6.103   0.433   2.242
 2259TIP3    H1 6699   6.019   0.386   2.226
 2259TIP3    H2 6700   6.084   0.473   2.331
 2260TIP3   OH2 6701   6.999   0.669   2.873
 2260TIP3    H1 6702   7.023   0.720   2.793
 2260TIP3    H2 6703   6.913   0.629   2.848
 2261TIP3   OH2 6704   6.497   0.749   3.241
 2261TIP3    H1 6705   6.520   0.734   3.334
 2261TIP3    H2 6706   6.460   0.839   3.243
 2262TIP3   OH2 6707   5.790   0.453   2.920
 2262TIP3    H1 6708   5.827   0.426   2.833
 2262TIP3    H2 6709   5.829   0.387   2.979
 2263TIP3   OH2 6710   6.241   0.586   2.056
 2263TIP3    H1 6711   6.194   0.673   2.065
 2263TIP3    H2 6712   6.189   0.532   2.119
 2264TIP3   OH2 6713   5.672   0.370   3.530
 2264TIP3    H1 6714   5.693   0.362   3.625
 2264TIP3    H2 6715   5.607   0.299   3.517
 2265TIP3   OH2 6716   6.396   0.488   3.551
 2265TIP3    H1 6717   6.333   0.426   3.511
 2265TIP3    H2 6718   6.481   0.456   3.514
 2266TIP3   OH2 6719   6.659   1.003   3.139
 2266TIP3    H1 6720   6.562   1.008   3.150
 2266TIP3    H2 6721   6.688   1.059   3.215
 2267TIP3   OH2 6722   7.286   0.943   3.124
 2267TIP3    H1 6723   7.188   0.941   3.113
 2267TIP3    H2 6724   7.313   0.911   3.035
 2268TIP3   OH2 6725   6.760   0.906   1.964
 2268TIP3    H1 6726   6.740   0.830   2.020
 2268TIP3    H2 6727   6.780   0.866   1.877
 2269TIP3   OH2 6728   6.764   0.531   2.798
 2269TIP3    H1 6729   6.670   0.507   2.808
 2269TIP3    H2 6730   6.796   0.457   2.744
 2270TIP3   OH2 6731   5.895   0.756   2.554
 2270TIP3    H1 6732   5.895   0.840   2.504
 2270TIP3    H2 6733   5.802   0.733   2.546
 2271TIP3   OH2 6734   5.449   0.081   2.240
 2271TIP3    H1 6735   5.497   0.163   2.262
 2271TIP3    H2 6736   5.374   0.086   2.303
 2272TIP3   OH2 6737   6.035   0.524   2.491
 2272TIP3    H1 6738   5.999   0.614   2.503
 2272TIP3    H2 6739   5.993   0.477   2.565
 2273TIP3   OH2 6740   6.160   1.102   3.013
 2273TIP3    H1 6741   6.200   1.175   2.961
 2273TIP3    H2 6742   6.238   1.069   3.061
 2274TIP3   OH2 6743   5.830   0.997   2.436
 2274TIP3    H1 6744   5.733   1.003   2.443
 2274TIP3    H2 6745   5.852   1.085   2.400
 2275TIP3   OH2 6746   6.548   0.732   2.972
 2275TIP3    H1 6747   6.541   0.733   3.070
 2275TIP3    H2 6748   6.633   0.688   2.959
 2276TIP3   OH2 6749   6.498   0.613   1.861
 2276TIP3    H1 6750   6.567   0.599   1.930
 2276TIP3    H2 6751   6.418   0.611   1.916
 2277TIP3   OH2 6752   6.797   1.270   3.020
 2277TIP3    H1 6753   6.716   1.216   3.010
 2277TIP3    H2 6754   6.784   1.336   2.949
 2278TIP3   OH2 6755   6.865   1.109   1.672
 2278TIP3    H1 6756   6.905   1.186   1.627
 2278TIP3    H2 6757   6.784   1.152   1.705
 2279TIP3   OH2 6758   6.679   0.564   2.062
 2279TIP3    H1 6759   6.665   0.508   2.141
 2279TIP3    H2 6760   6.777   0.562   2.059
 2280TIP3   OH2 6761   5.599   0.966   3.172
 2280TIP3    H1 6762   5.652   0.890   3.201
 2280TIP3    H2 6763   5.630   1.034   3.232
 2281TIP3   OH2 6764   5.571   0.311   2.330
 2281TIP3    H1 6765   5.506   0.359   2.386
 2281TIP3    H2 6766   5.587   0.380   2.262
 2282TIP3   OH2 6767   6.098   0.816   2.073
 2282TIP3    H1 6768   6.004   0.808   2.094
 2282TIP3    H2 6769   6.100   0.898   2.021
 2283TIP3   OH2 6770   6.299  -0.136   2.489
 2283TIP3    H1 6771   6.362  -0.082   2.438
 2283TIP3    H2 6772   6.315  -0.102   2.577
 2284TIP3   OH2 6773   6.575   0.185   3.301
 2284TIP3    H1 6774   6.572   0.263   3.361
 2284TIP3    H2 6775   6.595   0.116   3.366
 2285TIP3   OH2 6776   6.850   0.293   2.671
 2285TIP3    H1 6777   6.767   0.240   2.677
 2285TIP3    H2 6778   6.911   0.244   2.726
 2286TIP3   OH2 6779   5.560   0.520   2.142
 2286TIP3    H1 6780   5.608   0.606   2.127
 2286TIP3    H2 6781   5.607   0.470   2.072
 2287TIP3   OH2 6782   5.517  -0.179   2.241
 2287TIP3    H1 6783   5.503  -0.082   2.238
 2287TIP3    H2 6784   5.447  -0.208   2.181
 2288TIP3   OH2 6785   6.818   1.244   2.615
 2288TIP3    H1 6786   6.775   1.291   2.540
 2288TIP3    H2 6787   6.912   1.264   2.593
 2289TIP3   OH2 6788   5.434   0.727   2.526
 2289TIP3    H1 6789   5.357   0.764   2.569
 2289TIP3    H2 6790   5.423   0.765   2.436
 2290TIP3   OH2 6791   5.589   1.273   3.595
 2290TIP3    H1 6792   5.676   1.272   3.641
 2290TIP3    H2 6793   5.568   1.178   3.592
 2291TIP3   OH2 6794   6.071   1.238   3.639
 2291TIP3    H1 6795   6.166   1.221   3.645
 2291TIP3    H2 6796   6.046   1.179   3.565
 2292TIP3   OH2 6797   6.040   0.814   1.772
 2292TIP3    H1 6798   5.977   0.767   1.830
 2292TIP3    H2 6799   6.106   0.747   1.751
 2293TIP3   OH2 6800   6.712   1.144   3.371
 2293TIP3    H1 6801   6.703   1.075   3.441
 2293TIP3    H2 6802   6.788   1.196   3.402
 2294TIP3   OH2 6803   6.499   0.852   1.691
 2294TIP3    H1 6804   6.550   0.787   1.742
 2294TIP3    H2 6805   6.556   0.864   1.612
 2295TIP3   OH2 6806   5.719   0.679   3.792
 2295TIP3    H1 6807   5.732   0.583   3.800
 2295TIP3    H2 6808   5.632   0.684   3.748
 2296TIP3   OH2 6809   5.691   0.327   2.002
 2296TIP3    H1 6810   5.751   0.307   2.075
 2296TIP3    H2 6811   5.756   0.352   1.933
 2297TIP3   OH2 6812   6.329   0.765   3.568
 2297TIP3    H1 6813   6.286   0.784   3.482
 2297TIP3    H2 6814   6.358   0.672   3.558
 2298TIP3   OH2 6815   6.214   0.515   1.787
 2298TIP3    H1 6816   6.223   0.538   1.882
 2298TIP3    H2 6817   6.143   0.449   1.791
 2299TIP3   OH2 6818   6.819   0.771   3.173
 2299TIP3    H1 6819   6.895   0.815   3.130
 2299TIP3    H2 6820   6.750   0.840   3.161
 2300TIP3   OH2 6821   5.840   0.406   3.774
 2300TIP3    H1 6822   5.923   0.359   3.755
 2300TIP3    H2 6823   5.863   0.451   3.858
 2301TIP3   OH2 6824   5.895   0.237   2.216
 2301TIP3    H1 6825   5.874   0.215   2.308
 2301TIP3    H2 6826   5.938   0.155   2.184
 2302TIP3   OH2 6827   6.183   0.304   3.441
 2302TIP3    H1 6828   6.099   0.355   3.445
 2302TIP3    H2 6829   6.221   0.332   3.356
 2303TIP3   OH2 6830   5.993   0.034   2.047
 2303TIP3    H1 6831   5.943   0.086   1.982
 2303TIP3    H2 6832   6.082   0.073   2.042
 2304TIP3   OH2 6833   6.688   0.698   3.573
 2304TIP3    H1 6834   6.772   0.683   3.529
 2304TIP3    H2 6835   6.690   0.633   3.645
 2305TIP3   OH2 6836   6.307   0.094   3.568
 2305TIP3    H1 6837   6.271   0.010   3.539
 2305TIP3    H2 6838   6.257   0.160   3.515
 2306TIP3   OH2 6839   6.339   0.407   3.233
 2306TIP3    H1 6840   6.415   0.438   3.181
 2306TIP3    H2 6841   6.271   0.471   3.204
 2307TIP3   OH2 6842   6.904   0.378   3.595
 2307TIP3    H1 6843   6.934   0.326   3.673
 2307TIP3    H2 6844   6.976   0.442   3.584
 2308TIP3   OH2 6845   6.950   0.626   3.357
 2308TIP3    H1 6846   6.886   0.680   3.303
 2308TIP3    H2 6847   7.034   0.659   3.315
 2309TIP3   OH2 6848   6.148   0.216   3.780
 2309TIP3    H1 6849   6.110   0.138   3.822
 2309TIP3    H2 6850   6.211   0.178   3.717
 2310TIP3   OH2 6851   6.539   0.180   3.690
 2310TIP3    H1 6852   6.518   0.152   3.780
 2310TIP3    H2 6853   6.460   0.147   3.643
 2311TIP3   OH2 6854   5.817   1.136   1.961
 2311TIP3    H1 6855   5.900   1.089   1.949
 2311TIP3    H2 6856   5.794   1.157   1.869
 2312TIP3   OH2 6857   5.295   0.472   2.176
 2312TIP3    H1 6858   5.389   0.496   2.161
 2312TIP3    H2 6859   5.290   0.384   2.134
 2313TIP3   OH2 6860   5.206   1.085   2.584
 2313TIP3    H1 6861   5.141   1.023   2.547
 2313TIP3    H2 6862   5.252   1.028   2.649
 2314TIP3   OH2 6863   5.341   0.938   2.771
 2314TIP3    H1 6864   5.332   0.862   2.831
 2314TIP3    H2 6865   5.396   0.997   2.826
 2315TIP3   OH2 6866   7.071   1.335   2.571
 2315TIP3    H1 6867   7.099   1.370   2.658
 2315TIP3    H2 6868   7.133   1.378   2.511
 2316TIP3   OH2 6869   7.099   1.357   2.853
 2316TIP3    H1 6870   7.057   1.269   2.848
 2316TIP3    H2 6871   7.177   1.335   2.908
 2317TIP3   OH2 6872   7.148   1.030   3.428
 2317TIP3    H1 6873   7.073   1.041   3.491
 2317TIP3    H2 6874   7.188   1.119   3.430
 2318TIP3   OH2 6875   6.946   0.540   2.042
 2318TIP3    H1 6876   7.004   0.618   2.025
 2318TIP3    H2 6877   6.999   0.491   2.108
 2319TIP3   OH2 6878   7.088   0.412   2.240
 2319TIP3    H1 6879   7.020   0.381   2.303
 2319TIP3    H2 6880   7.161   0.440   2.298
 2320TIP3   OH2 6881   7.145   0.805   2.684
 2320TIP3    H1 6882   7.195   0.741   2.630
 2320TIP3    H2 6883   7.137   0.881   2.623
 2321TIP3   OH2 6884   6.976   1.106   2.878
 2321TIP3    H1 6885   6.905   1.150   2.927
 2321TIP3    H2 6886   6.926   1.060   2.807
 2322TIP3   OH2 6887   6.907   0.287   2.405
 2322TIP3    H1 6888   6.908   0.192   2.391
 2322TIP3    H2 6889   6.886   0.296   2.501
 2323TIP3   OH2 6890   5.531   0.341   3.144
 2323TIP3    H1 6891   5.529   0.313   3.050
 2323TIP3    H2 6892   5.628   0.344   3.160
 2324TIP3   OH2 6893   7.178   0.710   3.245
 2324TIP3    H1 6894   7.254   0.648   3.242
 2324TIP3    H2 6895   7.207   0.781   3.186
 2325TIP3   OH2 6896   7.360   0.528   3.297
 2325TIP3    H1 6897   7.294   0.462   3.327
 2325TIP3    H2 6898   7.438   0.469   3.296
 2326TIP3   OH2 6899   7.111   0.303   3.022
 2326TIP3    H1 6900   7.034   0.349   3.060
 2326TIP3    H2 6901   7.143   0.369   2.957
 2327TIP3   OH2 6902   5.712   0.056   3.845
 2327TIP3    H1 6903   5.799   0.022   3.814
 2327TIP3    H2 6904   5.673  -0.027   3.873
 2328TIP3   OH2 6905   5.507   0.007   3.209
 2328TIP3    H1 6906   5.564   0.009   3.130
 2328TIP3    H2 6907   5.537   0.086   3.256
 2329TIP3   OH2 6908   6.658   1.202   2.229
 2329TIP3    H1 6909   6.705   1.187   2.144
 2329TIP3    H2 6910   6.712   1.271   2.270
 2330TIP3   OH2 6911   5.757   1.006   3.614
 2330TIP3    H1 6912   5.665   0.979   3.596
 2330TIP3    H2 6913   5.764   0.989   3.709
 2331TIP3   OH2 6914   5.934   1.038   3.162
 2331TIP3    H1 6915   5.885   1.113   3.121
 2331TIP3    H2 6916   6.020   1.053   3.117
 2332TIP3   OH2 6917   6.379   1.282   3.298
 2332TIP3    H1 6918   6.421   1.285   3.387
 2332TIP3    H2 6919   6.445   1.334   3.246
 2333TIP3   OH2 6920   6.558   1.435   3.158
 2333TIP3    H1 6921   6.630   1.385   3.116
 2333TIP3    H2 6922   6.610   1.492   3.219
 2334TIP3   OH2 6923   5.610   1.296   3.185
 2334TIP3    H1 6924   5.522   1.330   3.159
 2334TIP3    H2 6925   5.618   1.332   3.274
 2335TIP3   OH2 6926   5.848   1.274   3.043
 2335TIP3    H1 6927   5.761   1.288   3.087
 2335TIP3    H2 6928   5.829   1.305   2.952
 2336TIP3   OH2 6929   6.273   1.302   2.841
 2336TIP3    H1 6930   6.204   1.320   2.775
 2336TIP3    H2 6931   6.284   1.391   2.881
 2337TIP3   OH2 6932   6.541   1.241   2.892
 2337TIP3    H1 6933   6.447   1.259   2.873
 2337TIP3    H2 6934   6.585   1.316   2.849
 2338TIP3   OH2 6935   6.750   1.435   2.807
 2338TIP3    H1 6936   6.735   1.519   2.760
 2338TIP3    H2 6937   6.775   1.375   2.734
 2339TIP3   OH2 6938   5.520   1.089   2.930
 2339TIP3    H1 6939   5.549   1.064   3.021
 2339TIP3    H2 6940   5.592   1.046   2.878
 2340TIP3   OH2 6941   5.713   0.962   2.786
 2340TIP3    H1 6942   5.733   0.878   2.834
 2340TIP3    H2 6943   5.803   1.000   2.775
 2341TIP3   OH2 6944   5.981   1.060   2.790
 2341TIP3    H1 6945   6.011   0.971   2.768
 2341TIP3    H2 6946   6.026   1.074   2.875
 2342TIP3   OH2 6947   5.305   0.861   2.328
 2342TIP3    H1 6948   5.220   0.831   2.290
 2342TIP3    H2 6949   5.301   0.955   2.304
 2343TIP3   OH2 6950   6.081   1.048   1.905
 2343TIP3    H1 6951   6.169   1.071   1.867
 2343TIP3    H2 6952   6.055   0.977   1.843
 2344TIP3   OH2 6953   6.801   1.171   1.995
 2344TIP3    H1 6954   6.789   1.073   1.988
 2344TIP3    H2 6955   6.754   1.200   1.915
 2345TIP3   OH2 6956   5.407   0.879   1.962
 2345TIP3    H1 6957   5.393   0.917   2.050
 2345TIP3    H2 6958   5.494   0.835   1.974
 2346TIP3   OH2 6959   7.027   1.312   3.183
 2346TIP3    H1 6960   6.948   1.281   3.134
 2346TIP3    H2 6961   7.008   1.409   3.186
 2347TIP3   OH2 6962   7.594   0.584   2.692
 2347TIP3    H1 6963   7.624   0.514   2.754
 2347TIP3    H2 6964   7.667   0.646   2.700
 2348TIP3   OH2 6965   7.548   0.982   2.428
 2348TIP3    H1 6966   7.535   0.886   2.436
 2348TIP3    H2 6967   7.643   0.984   2.402
 2349TIP3   OH2 6968   7.328   0.474   2.377
 2349TIP3    H1 6969   7.390   0.405   2.410
 2349TIP3    H2 6970   7.385   0.528   2.320
 2350TIP3   OH2 6971   4.063   7.117   9.326
 2350TIP3    H1 6972   4.127   7.093   9.395
 2350TIP3    H2 6973   4.070   7.040   9.267
 2351TIP3   OH2 6974   7.932   0.836   2.598
 2351TIP3    H1 6975   7.863   0.887   2.647
 2351TIP3    H2 6976   7.954   0.903   2.531
 2352TIP3   OH2 6977   7.754   1.019   2.695
 2352TIP3    H1 6978   7.736   1.107   2.655
 2352TIP3    H2 6979   7.677   1.012   2.755
 2353TIP3   OH2 6980   7.112   0.738   1.957
 2353TIP3    H1 6981   7.160   0.731   1.874
 2353TIP3    H2 6982   7.157   0.814   1.998
 2354TIP3   OH2 6983   7.799   0.955   2.320
 2354TIP3    H1 6984   7.808   0.938   2.224
 2354TIP3    H2 6985   7.872   1.020   2.332
 2355TIP3   OH2 6986   7.840   0.594   2.512
 2355TIP3    H1 6987   7.900   0.582   2.437
 2355TIP3    H2 6988   7.871   0.681   2.546
 2356TIP3   OH2 6989   7.946   1.104   2.882
 2356TIP3    H1 6990   7.907   1.190   2.904
 2356TIP3    H2 6991   7.883   1.070   2.817
 2357TIP3   OH2 6992   7.726   0.705   2.944
 2357TIP3    H1 6993   7.734   0.791   2.991
 2357TIP3    H2 6994   7.632   0.685   2.958
 2358TIP3   OH2 6995   7.768   1.325   2.933
 2358TIP3    H1 6996   7.735   1.319   2.841
 2358TIP3    H2 6997   7.690   1.297   2.986
 2359TIP3   OH2 6998   7.351   0.842   2.882
 2359TIP3    H1 6999   7.285   0.822   2.812
 2359TIP3    H2 7000   7.386   0.754   2.905
 2360TIP3   OH2 7001   7.207   1.034   2.518
 2360TIP3    H1 7002   7.302   1.033   2.504
 2360TIP3    H2 7003   7.196   1.116   2.569
 2361TIP3   OH2 7004   7.888   1.380   1.675
 2361TIP3    H1 7005   7.851   1.375   1.586
 2361TIP3    H2 7006   7.891   1.475   1.692
 2362TIP3   OH2 7007   7.375   1.253   2.035
 2362TIP3    H1 7008   7.421   1.241   2.121
 2362TIP3    H2 7009   7.314   1.177   2.038
 2363TIP3   OH2 7010   7.552   1.028   2.873
 2363TIP3    H1 7011   7.604   1.010   2.954
 2363TIP3    H2 7012   7.479   0.963   2.881
 2364TIP3   OH2 7013   7.882   0.359   2.672
 2364TIP3    H1 7014   7.815   0.371   2.741
 2364TIP3    H2 7015   7.861   0.431   2.609
 2365TIP3   OH2 7016   7.700   0.405   2.875
 2365TIP3    H1 7017   7.733   0.465   2.944
 2365TIP3    H2 7018   7.650   0.340   2.926
 2366TIP3   OH2 7019   7.714   0.945   3.091
 2366TIP3    H1 7020   7.795   0.978   3.133
 2366TIP3    H2 7021   7.651   0.949   3.166
 2367TIP3   OH2 7022   7.574   0.688   2.406
 2367TIP3    H1 7023   7.645   0.714   2.347
 2367TIP3    H2 7024   7.622   0.641   2.476
 2368TIP3   OH2 7025   7.465   0.628   3.018
 2368TIP3    H1 7026   7.491   0.621   3.112
 2368TIP3    H2 7027   7.405   0.552   3.007
 2369TIP3   OH2 7028   7.679   1.028   2.030
 2369TIP3    H1 7029   7.667   1.114   1.985
 2369TIP3    H2 7030   7.589   0.997   2.038
 2370TIP3   OH2 7031   7.955   1.379   2.521
 2370TIP3    H1 7032   7.985   1.434   2.447
 2370TIP3    H2 7033   8.037   1.337   2.549
 2371TIP3   OH2 7034   7.614   1.259   1.892
 2371TIP3    H1 7035   7.527   1.271   1.935
 2371TIP3    H2 7036   7.649   1.351   1.895
 2372TIP3   OH2 7037   7.394   1.223   2.659
 2372TIP3    H1 7038   7.449   1.147   2.687
 2372TIP3    H2 7039   7.426   1.292   2.719
 2373TIP3   OH2 7040   7.606   1.174   1.633
 2373TIP3    H1 7041   7.588   1.253   1.581
 2373TIP3    H2 7042   7.597   1.208   1.724
 2374TIP3   OH2 7043   7.234   0.987   2.005
 2374TIP3    H1 7044   7.164   1.015   2.065
 2374TIP3    H2 7045   7.204   1.027   1.921
 2375TIP3   OH2 7046   7.386   1.530   3.081
 2375TIP3    H1 7047   7.472   1.529   3.127
 2375TIP3    H2 7048   7.365   1.435   3.079
 2376TIP3   OH2 7049   7.876   1.503   3.122
 2376TIP3    H1 7050   7.968   1.470   3.131
 2376TIP3    H2 7051   7.844   1.442   3.052
 2377TIP3   OH2 7052   7.513   0.936   3.281
 2377TIP3    H1 7053   7.527   0.840   3.287
 2377TIP3    H2 7054   7.427   0.941   3.236
 2378TIP3   OH2 7055   7.635   0.660   3.261
 2378TIP3    H1 7056   7.720   0.620   3.241
 2378TIP3    H2 7057   7.656   0.707   3.344
 2379TIP3   OH2 7058   7.964   0.568   2.935
 2379TIP3    H1 7059   7.888   0.629   2.934
 2379TIP3    H2 7060   7.972   0.542   2.843
 2380TIP3   OH2 7061   7.945   0.472   3.266
 2380TIP3    H1 7062   7.909   0.384   3.283
 2380TIP3    H2 7063   7.990   0.462   3.181
 2381TIP3   OH2 7064   7.004   1.341   2.071
 2381TIP3    H1 7065   6.937   1.280   2.034
 2381TIP3    H2 7066   7.048   1.283   2.136
 2382TIP3   OH2 7067   7.141   1.192   2.256
 2382TIP3    H1 7068   7.127   1.119   2.319
 2382TIP3    H2 7069   7.193   1.253   2.311
 2383TIP3   OH2 7070   7.327   0.596   2.633
 2383TIP3    H1 7071   7.324   0.569   2.539
 2383TIP3    H2 7072   7.425   0.599   2.647
 2384TIP3   OH2 7073   7.502   0.307   3.327
 2384TIP3    H1 7074   7.590   0.279   3.294
 2384TIP3    H2 7075   7.475   0.225   3.369
 2385TIP3   OH2 7076   7.313   0.252   2.694
 2385TIP3    H1 7077   7.367   0.272   2.616
 2385TIP3    H2 7078   7.319   0.334   2.745
 2386TIP3   OH2 7079   7.553   1.262   3.103
 2386TIP3    H1 7080   7.461   1.234   3.084
 2386TIP3    H2 7081   7.560   1.245   3.198
 2387TIP3   OH2 7082   7.726   1.295   2.650
 2387TIP3    H1 7083   7.677   1.367   2.606
 2387TIP3    H2 7084   7.815   1.314   2.611
 2388TIP3   OH2 7085   7.404   1.552   2.673
 2388TIP3    H1 7086   7.315   1.587   2.649
 2388TIP3    H2 7087   7.414   1.590   2.761
 2389TIP3   OH2 7088   7.636   1.525   2.528
 2389TIP3    H1 7089   7.549   1.540   2.572
 2389TIP3    H2 7090   7.617   1.558   2.438
 2390TIP3   OH2 7091   8.083   1.657   2.295
 2390TIP3    H1 7092   7.993   1.673   2.262
 2390TIP3    H2 7093   8.086   1.705   2.380
 2391TIP3   OH2 7094   7.315   1.348   2.419
 2391TIP3    H1 7095   7.344   1.323   2.509
 2391TIP3    H2 7096   7.383   1.300   2.366
 2392TIP3   OH2 7097   7.491   1.203   2.275
 2392TIP3    H1 7098   7.509   1.121   2.325
 2392TIP3    H2 7099   7.581   1.243   2.275
 2393TIP3   OH2 7100   7.739   1.298   2.294
 2393TIP3    H1 7101   7.807   1.254   2.242
 2393TIP3    H2 7102   7.794   1.346   2.358
 2394TIP3   OH2 7103   7.108   1.118   1.805
 2394TIP3    H1 7104   7.020   1.085   1.778
 2394TIP3    H2 7105   7.096   1.213   1.789
 2395TIP3   OH2 7106   7.238   1.215   1.492
 2395TIP3    H1 7107   7.180   1.199   1.567
 2395TIP3    H2 7108   7.262   1.125   1.465
 2396TIP3   OH2 7109   0.716   1.482   3.654
 2396TIP3    H1 7110   0.739   1.576   3.636
 2396TIP3    H2 7111   0.622   1.492   3.640
 2397TIP3   OH2 7112   0.742   1.467   4.020
 2397TIP3    H1 7113   0.777   1.452   4.109
 2397TIP3    H2 7114   0.700   1.381   4.001
 2398TIP3   OH2 7115   0.037   1.395   4.405
 2398TIP3    H1 7116   0.082   1.327   4.457
 2398TIP3    H2 7117   0.104   1.415   4.339
 2399TIP3   OH2 7118   0.982   1.763   3.705
 2399TIP3    H1 7119   0.981   1.708   3.784
 2399TIP3    H2 7120   1.012   1.848   3.741
 2400TIP3   OH2 7121   0.018   1.777   4.107
 2400TIP3    H1 7122   0.014   1.688   4.143
 2400TIP3    H2 7123   0.115   1.790   4.096
 2401TIP3   OH2 7124   0.639   2.240   3.723
 2401TIP3    H1 7125   0.680   2.171   3.667
 2401TIP3    H2 7126   0.636   2.196   3.809
 2402TIP3   OH2 7127   0.546   1.695   4.070
 2402TIP3    H1 7128   0.591   1.621   4.025
 2402TIP3    H2 7129   0.627   1.745   4.095
 2403TIP3   OH2 7130   1.554   1.018   4.066
 2403TIP3    H1 7131   1.584   1.100   4.109
 2403TIP3    H2 7132   1.581   1.035   3.973
 2404TIP3   OH2 7133   0.960   1.201   4.107
 2404TIP3    H1 7134   1.009   1.119   4.121
 2404TIP3    H2 7135   0.924   1.188   4.017
 2405TIP3   OH2 7136   0.976   0.954   3.722
 2405TIP3    H1 7137   1.066   0.942   3.761
 2405TIP3    H2 7138   0.992   0.948   3.627
 2406TIP3   OH2 7139   1.626   1.221   4.243
 2406TIP3    H1 7140   1.547   1.274   4.220
 2406TIP3    H2 7141   1.655   1.266   4.324
 2407TIP3   OH2 7142   0.633   1.702   3.516
 2407TIP3    H1 7143   0.610   1.678   3.424
 2407TIP3    H2 7144   0.588   1.789   3.527
 2408TIP3   OH2 7145   0.395   1.617   4.299
 2408TIP3    H1 7146   0.334   1.685   4.335
 2408TIP3    H2 7147   0.440   1.667   4.227
 2409TIP3   OH2 7148   1.208   0.951   3.867
 2409TIP3    H1 7149   1.226   0.908   3.951
 2409TIP3    H2 7150   1.257   1.034   3.878
 2410TIP3   OH2 7151   0.220   1.812   4.391
 2410TIP3    H1 7152   0.201   1.900   4.354
 2410TIP3    H2 7153   0.142   1.802   4.450
 2411TIP3   OH2 7154   1.057   2.016   3.868
 2411TIP3    H1 7155   0.967   2.010   3.907
 2411TIP3    H2 7156   1.051   2.102   3.822
 2412TIP3   OH2 7157   1.350   0.914   4.231
 2412TIP3    H1 7158   1.265   0.951   4.201
 2412TIP3    H2 7159   1.413   0.950   4.163
 2413TIP3   OH2 7160   0.765   2.062   3.556
 2413TIP3    H1 7161   0.811   1.981   3.528
 2413TIP3    H2 7162   0.823   2.129   3.513
 2414TIP3   OH2 7163   0.902   1.847   3.446
 2414TIP3    H1 7164   0.880   1.770   3.392
 2414TIP3    H2 7165   0.933   1.806   3.529
 2415TIP3   OH2 7166   1.283   1.930   4.215
 2415TIP3    H1 7167   1.275   1.854   4.153
 2415TIP3    H2 7168   1.267   2.006   4.156
 2416TIP3   OH2 7169   1.478   1.562   4.055
 2416TIP3    H1 7170   1.398   1.618   4.061
 2416TIP3    H2 7171   1.512   1.590   3.968
 2417TIP3   OH2 7172   0.936   1.432   3.466
 2417TIP3    H1 7173   0.895   1.474   3.544
 2417TIP3    H2 7174   1.024   1.406   3.500
 2418TIP3   OH2 7175   1.158   1.446   4.355
 2418TIP3    H1 7176   1.159   1.530   4.405
 2418TIP3    H2 7177   1.074   1.455   4.307
 2419TIP3   OH2 7178   0.284   1.797   4.013
 2419TIP3    H1 7179   0.284   1.765   3.922
 2419TIP3    H2 7180   0.377   1.781   4.038
 2420TIP3   OH2 7181   0.297   1.375   4.217
 2420TIP3    H1 7182   0.334   1.373   4.128
 2420TIP3    H2 7183   0.335   1.458   4.252
 2421TIP3   OH2 7184   0.816   2.013   3.991
 2421TIP3    H1 7185   0.804   2.096   4.040
 2421TIP3    H2 7186   0.800   1.944   4.058
 2422TIP3   OH2 7187   0.430   1.930   4.539
 2422TIP3    H1 7188   0.371   1.994   4.584
 2422TIP3    H2 7189   0.365   1.878   4.489
 2423TIP3   OH2 7190   0.195   1.496   4.649
 2423TIP3    H1 7191   0.201   1.585   4.690
 2423TIP3    H2 7192   0.115   1.505   4.595
 2424TIP3   OH2 7193   0.507   1.947   3.555
 2424TIP3    H1 7194   0.589   1.998   3.559
 2424TIP3    H2 7195   0.456   1.995   3.488
 2425TIP3   OH2 7196   0.225   2.099   4.623
 2425TIP3    H1 7197   0.191   2.104   4.532
 2425TIP3    H2 7198   0.143   2.085   4.675
 2426TIP3   OH2 7199   1.080   1.864   2.799
 2426TIP3    H1 7200   1.067   1.954   2.835
 2426TIP3    H2 7201   1.167   1.841   2.839
 2427TIP3   OH2 7202  -0.175   1.624   4.567
 2427TIP3    H1 7203  -0.227   1.606   4.488
 2427TIP3    H2 7204  -0.209   1.562   4.634
 2428TIP3   OH2 7205  -0.327   1.804   4.236
 2428TIP3    H1 7206  -0.245   1.818   4.187
 2428TIP3    H2 7207  -0.350   1.894   4.262
 2429TIP3   OH2 7208   1.522   2.276   4.261
 2429TIP3    H1 7209   1.520   2.179   4.273
 2429TIP3    H2 7210   1.439   2.302   4.306
 2430TIP3   OH2 7211   0.628   2.061   4.394
 2430TIP3    H1 7212   0.628   2.154   4.426
 2430TIP3    H2 7213   0.557   2.022   4.450
 2431TIP3   OH2 7214   0.268   2.224   3.375
 2431TIP3    H1 7215   0.313   2.158   3.318
 2431TIP3    H2 7216   0.338   2.291   3.385
 2432TIP3   OH2 7217   0.643   2.186   3.300
 2432TIP3    H1 7218   0.570   2.131   3.263
 2432TIP3    H2 7219   0.711   2.119   3.313
 2433TIP3   OH2 7220   1.409   1.402   4.539
 2433TIP3    H1 7221   1.334   1.420   4.481
 2433TIP3    H2 7222   1.425   1.307   4.523
 2434TIP3   OH2 7223   0.007   1.824   4.563
 2434TIP3    H1 7224   0.066   1.803   4.639
 2434TIP3    H2 7225  -0.061   1.754   4.570
 2435TIP3   OH2 7226   0.953   0.748   4.533
 2435TIP3    H1 7227   1.023   0.721   4.596
 2435TIP3    H2 7228   0.870   0.741   4.586
 2436TIP3   OH2 7229   1.175   1.179   4.450
 2436TIP3    H1 7230   1.130   1.179   4.537
 2436TIP3    H2 7231   1.160   1.270   4.417
 2437TIP3   OH2 7232   0.353   1.153   4.369
 2437TIP3    H1 7233   0.295   1.179   4.443
 2437TIP3    H2 7234   0.330   1.222   4.304
 2438TIP3   OH2 7235   0.890   1.404   4.686
 2438TIP3    H1 7236   0.871   1.332   4.749
 2438TIP3    H2 7237   0.983   1.422   4.707
 2439TIP3   OH2 7238   0.870   1.162   3.852
 2439TIP3    H1 7239   0.832   1.208   3.775
 2439TIP3    H2 7240   0.902   1.080   3.809
 2440TIP3   OH2 7241   0.176   1.223   4.563
 2440TIP3    H1 7242   0.173   1.271   4.647
 2440TIP3    H2 7243   0.134   1.136   4.582
 2441TIP3   OH2 7244   0.873   1.400   4.266
 2441TIP3    H1 7245   0.910   1.329   4.209
 2441TIP3    H2 7246   0.847   1.347   4.344
 2442TIP3   OH2 7247   1.053   0.941   4.142
 2442TIP3    H1 7248   1.017   0.954   4.233
 2442TIP3    H2 7249   0.985   0.886   4.102
 2443TIP3   OH2 7250   1.212   2.625   4.358
 2443TIP3    H1 7251   1.211   2.651   4.264
 2443TIP3    H2 7252   1.292   2.673   4.389
 2444TIP3   OH2 7253   0.191   1.748   4.762
 2444TIP3    H1 7254   0.267   1.776   4.817
 2444TIP3    H2 7255   0.121   1.745   4.831
 2445TIP3   OH2 7256   0.647   1.200   4.039
 2445TIP3    H1 7257   0.717   1.157   3.988
 2445TIP3    H2 7258   0.646   1.150   4.122
 2446TIP3   OH2 7259   0.617   1.092   4.317
 2446TIP3    H1 7260   0.527   1.128   4.330
 2446TIP3    H2 7261   0.673   1.155   4.366
 2447TIP3   OH2 7262   1.249   1.713   4.048
 2447TIP3    H1 7263   1.275   1.764   3.969
 2447TIP3    H2 7264   1.163   1.674   4.021
 2448TIP3   OH2 7265   0.738   1.791   4.420
 2448TIP3    H1 7266   0.775   1.781   4.508
 2448TIP3    H2 7267   0.710   1.884   4.419
 2449TIP3   OH2 7268   0.647   1.531   4.736
 2449TIP3    H1 7269   0.583   1.476   4.687
 2449TIP3    H2 7270   0.732   1.500   4.699
 2450TIP3   OH2 7271   0.905   2.044   4.319
 2450TIP3    H1 7272   0.809   2.055   4.327
 2450TIP3    H2 7273   0.936   2.102   4.391
 2451TIP3   OH2 7274   1.534   1.981   4.304
 2451TIP3    H1 7275   1.436   1.979   4.293
 2451TIP3    H2 7276   1.561   1.954   4.214
 2452TIP3   OH2 7277   1.052   1.918   3.127
 2452TIP3    H1 7278   0.999   1.886   3.201
 2452TIP3    H2 7279   0.984   1.940   3.061
 2453TIP3   OH2 7280   1.011   1.577   3.968
 2453TIP3    H1 7281   0.917   1.551   3.980
 2453TIP3    H2 7282   1.046   1.497   3.924
 2454TIP3   OH2 7283   0.410   2.144   4.189
 2454TIP3    H1 7284   0.448   2.219   4.138
 2454TIP3    H2 7285   0.488   2.114   4.238
 2455TIP3   OH2 7286   0.074   2.047   3.601
 2455TIP3    H1 7287  -0.015   2.061   3.633
 2455TIP3    H2 7288   0.105   2.138   3.586
 2456TIP3   OH2 7289   0.796   1.777   4.150
 2456TIP3    H1 7290   0.788   1.776   4.248
 2456TIP3    H2 7291   0.882   1.736   4.136
 2457TIP3   OH2 7292   1.045   2.314   4.196
 2457TIP3    H1 7293   0.962   2.263   4.183
 2457TIP3    H2 7294   1.035   2.382   4.126
 2458TIP3   OH2 7295   1.122   2.147   2.850
 2458TIP3    H1 7296   1.135   2.235   2.810
 2458TIP3    H2 7297   1.029   2.152   2.881
 2459TIP3   OH2 7298   0.930   1.611   3.255
 2459TIP3    H1 7299   0.930   1.540   3.323
 2459TIP3    H2 7300   1.025   1.618   3.235
 2460TIP3   OH2 7301  -0.151   2.013   4.351
 2460TIP3    H1 7302  -0.099   1.940   4.386
 2460TIP3    H2 7303  -0.119   2.088   4.404
 2461TIP3   OH2 7304   0.968   0.986   4.396
 2461TIP3    H1 7305   1.047   1.032   4.431
 2461TIP3    H2 7306   0.962   0.907   4.454
 2462TIP3   OH2 7307   0.806   1.237   4.475
 2462TIP3    H1 7308   0.827   1.296   4.551
 2462TIP3    H2 7309   0.866   1.162   4.490
 2463TIP3   OH2 7310   1.445   1.138   4.460
 2463TIP3    H1 7311   1.347   1.132   4.457
 2463TIP3    H2 7312   1.468   1.114   4.369
 2464TIP3   OH2 7313   1.098   1.335   3.845
 2464TIP3    H1 7314   1.026   1.272   3.864
 2464TIP3    H2 7315   1.174   1.292   3.890
 2465TIP3   OH2 7316   1.067   2.287   3.791
 2465TIP3    H1 7317   1.022   2.336   3.719
 2465TIP3    H2 7318   1.161   2.309   3.769
 2466TIP3   OH2 7319  -0.143   2.331   4.750
 2466TIP3    H1 7320  -0.065   2.336   4.810
 2466TIP3    H2 7321  -0.168   2.239   4.763
 2467TIP3   OH2 7322   0.319   2.281   4.819
 2467TIP3    H1 7323   0.415   2.271   4.822
 2467TIP3    H2 7324   0.297   2.224   4.742
 2468TIP3   OH2 7325   0.958   2.189   4.549
 2468TIP3    H1 7326   0.952   2.120   4.619
 2468TIP3    H2 7327   1.036   2.241   4.577
 2469TIP3   OH2 7328  -0.013   1.727   4.940
 2469TIP3    H1 7329   0.011   1.632   4.943
 2469TIP3    H2 7330  -0.101   1.723   4.984
 2470TIP3   OH2 7331   0.576   1.808   4.745
 2470TIP3    H1 7332   0.537   1.829   4.658
 2470TIP3    H2 7333   0.607   1.715   4.733
 2471TIP3   OH2 7334   1.067   1.817   4.350
 2471TIP3    H1 7335   1.145   1.858   4.306
 2471TIP3    H2 7336   1.002   1.889   4.337
 2472TIP3   OH2 7337   0.090   1.464   4.958
 2472TIP3    H1 7338   0.159   1.400   4.941
 2472TIP3    H2 7339   0.109   1.491   5.050
 2473TIP3   OH2 7340   0.442   1.354   4.628
 2473TIP3    H1 7341   0.356   1.400   4.622
 2473TIP3    H2 7342   0.483   1.379   4.542
 2474TIP3   OH2 7343   0.938   1.743   4.749
 2474TIP3    H1 7344   1.019   1.728   4.699
 2474TIP3    H2 7345   0.942   1.676   4.818
 2475TIP3   OH2 7346   0.545   1.127   4.736
 2475TIP3    H1 7347   0.553   1.060   4.665
 2475TIP3    H2 7348   0.507   1.202   4.685
 2476TIP3   OH2 7349   0.538   0.937   4.532
 2476TIP3    H1 7350   0.578   0.982   4.455
 2476TIP3    H2 7351   0.459   0.898   4.492
 2477TIP3   OH2 7352   0.580   1.451   4.415
 2477TIP3    H1 7353   0.663   1.466   4.369
 2477TIP3    H2 7354   0.523   1.520   4.377
 2478TIP3   OH2 7355   1.160   1.421   4.805
 2478TIP3    H1 7356   1.213   1.339   4.803
 2478TIP3    H2 7357   1.223   1.485   4.769
 2479TIP3   OH2 7358   1.199   1.672   4.536
 2479TIP3    H1 7359   1.141   1.726   4.477
 2479TIP3    H2 7360   1.287   1.695   4.498
 2480TIP3   OH2 7361   0.422   1.252   4.965
 2480TIP3    H1 7362   0.334   1.218   4.947
 2480TIP3    H2 7363   0.466   1.237   4.879
 2481TIP3   OH2 7364   0.692   0.724   4.621
 2481TIP3    H1 7365   0.630   0.799   4.604
 2481TIP3    H2 7366   0.633   0.648   4.611
 2482TIP3   OH2 7367   0.810   1.185   4.828
 2482TIP3    H1 7368   0.808   1.169   4.924
 2482TIP3    H2 7369   0.719   1.159   4.803
 2483TIP3   OH2 7370   1.047   1.134   4.684
 2483TIP3    H1 7371   0.973   1.138   4.747
 2483TIP3    H2 7372   1.122   1.105   4.741
 2484TIP3   OH2 7373   1.269   1.074   4.839
 2484TIP3    H1 7374   1.285   0.979   4.856
 2484TIP3    H2 7375   1.271   1.113   4.929
 2485TIP3   OH2 7376   0.780   0.702   4.877
 2485TIP3    H1 7377   0.860   0.648   4.858
 2485TIP3    H2 7378   0.738   0.700   4.789
 2486TIP3   OH2 7379   0.844   0.918   5.022
 2486TIP3    H1 7380   0.824   0.840   4.964
 2486TIP3    H2 7381   0.762   0.970   5.014
 2487TIP3   OH2 7382   1.319   2.382   3.748
 2487TIP3    H1 7383   1.347   2.416   3.834
 2487TIP3    H2 7384   1.382   2.423   3.688
 2488TIP3   OH2 7385   1.346   2.402   4.031
 2488TIP3    H1 7386   1.308   2.312   4.025
 2488TIP3    H2 7387   1.427   2.383   4.082
 2489TIP3   OH2 7388   1.396   2.076   4.605
 2489TIP3    H1 7389   1.322   2.088   4.667
 2489TIP3    H2 7390   1.437   2.164   4.605
 2490TIP3   OH2 7391   1.209   1.599   3.231
 2490TIP3    H1 7392   1.271   1.667   3.200
 2490TIP3    H2 7393   1.256   1.564   3.309
 2491TIP3   OH2 7394   1.343   1.460   3.424
 2491TIP3    H1 7395   1.280   1.419   3.488
 2491TIP3    H2 7396   1.412   1.496   3.484
 2492TIP3   OH2 7397   1.390   1.847   3.857
 2492TIP3    H1 7398   1.445   1.785   3.805
 2492TIP3    H2 7399   1.388   1.926   3.798
 2493TIP3   OH2 7400   1.225   2.148   4.056
 2493TIP3    H1 7401   1.154   2.195   4.103
 2493TIP3    H2 7402   1.175   2.104   3.984
 2494TIP3   OH2 7403   1.274   1.379   3.079
 2494TIP3    H1 7404   1.186   1.400   3.048
 2494TIP3    H2 7405   1.281   1.445   3.150
 2495TIP3   OH2 7406   1.164   1.324   3.581
 2495TIP3    H1 7407   1.155   1.229   3.572
 2495TIP3    H2 7408   1.147   1.337   3.677
 2496TIP3   OH2 7409   1.441   1.739   4.429
 2496TIP3    H1 7410   1.515   1.675   4.420
 2496TIP3    H2 7411   1.468   1.810   4.369
 2497TIP3   OH2 7412   1.623   1.542   4.449
 2497TIP3    H1 7413   1.552   1.490   4.492
 2497TIP3    H2 7414   1.699   1.481   4.462
 2498TIP3   OH2 7415   1.311   1.207   3.962
 2498TIP3    H1 7416   1.398   1.231   3.921
 2498TIP3    H2 7417   1.326   1.243   4.051
 2499TIP3   OH2 7418   1.379   1.348   4.196
 2499TIP3    H1 7419   1.301   1.385   4.241
 2499TIP3    H2 7420   1.413   1.427   4.148
 2500TIP3   OH2 7421   1.829   0.935   4.752
 2500TIP3    H1 7422   1.891   0.873   4.709
 2500TIP3    H2 7423   1.801   0.991   4.677
 2501TIP3   OH2 7424   1.701   1.077   4.560
 2501TIP3    H1 7425   1.615   1.120   4.576
 2501TIP3    H2 7426   1.673   1.008   4.498
 2502TIP3   OH2 7427   0.928   2.237   3.419
 2502TIP3    H1 7428   0.968   2.220   3.331
 2502TIP3    H2 7429   0.973   2.317   3.446
 2503TIP3   OH2 7430  -0.005   2.053   4.793
 2503TIP3    H1 7431  -0.060   1.977   4.772
 2503TIP3    H2 7432   0.019   2.038   4.885
 2504TIP3   OH2 7433   0.184   2.081   4.337
 2504TIP3    H1 7434   0.134   2.156   4.297
 2504TIP3    H2 7435   0.270   2.098   4.293
 2505TIP3   OH2 7436   0.628   2.327   4.475
 2505TIP3    H1 7437   0.670   2.330   4.564
 2505TIP3    H2 7438   0.693   2.379   4.423
 2506TIP3   OH2 7439   0.807   2.479   4.335
 2506TIP3    H1 7440   0.879   2.432   4.291
 2506TIP3    H2 7441   0.858   2.537   4.396
 2507TIP3   OH2 7442   1.600   0.842   4.437
 2507TIP3    H1 7443   1.511   0.838   4.398
 2507TIP3    H2 7444   1.632   0.750   4.423
 2508TIP3   OH2 7445  -0.128   2.335   4.368
 2508TIP3    H1 7446  -0.219   2.362   4.341
 2508TIP3    H2 7447  -0.123   2.376   4.455
 2509TIP3   OH2 7448   0.101   2.317   4.219
 2509TIP3    H1 7449   0.015   2.330   4.264
 2509TIP3    H2 7450   0.080   2.348   4.128
 2510TIP3   OH2 7451   0.519   2.346   4.021
 2510TIP3    H1 7452   0.455   2.366   3.950
 2510TIP3    H2 7453   0.533   2.434   4.061
 2511TIP3   OH2 7454   0.790   2.284   4.069
 2511TIP3    H1 7455   0.697   2.304   4.049
 2511TIP3    H2 7456   0.836   2.358   4.025
 2512TIP3   OH2 7457   0.995   2.478   3.983
 2512TIP3    H1 7458   0.982   2.563   3.937
 2512TIP3    H2 7459   1.023   2.419   3.910
 2513TIP3   OH2 7460  -0.225   2.146   4.113
 2513TIP3    H1 7461  -0.204   2.112   4.203
 2513TIP3    H2 7462  -0.164   2.091   4.059
 2514TIP3   OH2 7463  -0.041   2.010   3.967
 2514TIP3    H1 7464  -0.018   1.926   4.012
 2514TIP3    H2 7465   0.047   2.050   3.952
 2515TIP3   OH2 7466   0.230   2.111   3.966
 2515TIP3    H1 7467   0.266   2.026   3.938
 2515TIP3    H2 7468   0.275   2.124   4.051
 2516TIP3   OH2 7469   1.325   0.644   3.964
 2516TIP3    H1 7470   1.381   0.676   3.890
 2516TIP3    H2 7471   1.238   0.664   3.929
 2517TIP3   OH2 7472   1.427   0.733   3.729
 2517TIP3    H1 7473   1.499   0.686   3.682
 2517TIP3    H2 7474   1.452   0.826   3.712
 2518TIP3   OH2 7475   1.052   2.204   3.176
 2518TIP3    H1 7476   1.049   2.109   3.153
 2518TIP3    H2 7477   1.006   2.243   3.099
 2519TIP3   OH2 7478   1.338   0.804   4.867
 2519TIP3    H1 7479   1.358   0.773   4.958
 2519TIP3    H2 7480   1.427   0.803   4.825
 2520TIP3   OH2 7481   1.274   2.357   4.361
 2520TIP3    H1 7482   1.196   2.328   4.310
 2520TIP3    H2 7483   1.259   2.454   4.363
 2521TIP3   OH2 7484   2.531   1.725   3.127
 2521TIP3    H1 7485   2.531   1.820   3.107
 2521TIP3    H2 7486   2.438   1.705   3.102
 2522TIP3   OH2 7487   2.553   1.724   3.497
 2522TIP3    H1 7488   2.568   1.697   3.589
 2522TIP3    H2 7489   2.495   1.654   3.464
 2523TIP3   OH2 7490   1.839   1.628   3.878
 2523TIP3    H1 7491   1.876   1.560   3.937
 2523TIP3    H2 7492   1.918   1.681   3.858
 2524TIP3   OH2 7493   2.786   2.031   3.189
 2524TIP3    H1 7494   2.766   1.964   3.256
 2524TIP3    H2 7495   2.811   2.107   3.243
 2525TIP3   OH2 7496   1.807   2.032   3.597
 2525TIP3    H1 7497   1.803   1.934   3.600
 2525TIP3    H2 7498   1.903   2.045   3.591
 2526TIP3   OH2 7499   1.520   1.237   3.381
 2526TIP3    H1 7500   1.479   1.325   3.390
 2526TIP3    H2 7501   1.443   1.180   3.375
 2527TIP3   OH2 7502   1.579   1.524   3.550
 2527TIP3    H1 7503   1.629   1.449   3.587
 2527TIP3    H2 7504   1.645   1.567   3.494
 2528TIP3   OH2 7505   2.432   2.494   3.204
 2528TIP3    H1 7506   2.481   2.422   3.158
 2528TIP3    H2 7507   2.425   2.459   3.293
 2529TIP3   OH2 7508   2.337   1.953   3.552
 2529TIP3    H1 7509   2.379   1.885   3.498
 2529TIP3    H2 7510   2.416   2.002   3.580
 2530TIP3   OH2 7511   3.354   1.275   3.554
 2530TIP3    H1 7512   3.382   1.359   3.595
 2530TIP3    H2 7513   3.372   1.293   3.460
 2531TIP3   OH2 7514   2.750   1.455   3.591
 2531TIP3    H1 7515   2.794   1.370   3.607
 2531TIP3    H2 7516   2.721   1.444   3.498
 2532TIP3   OH2 7517   2.090   1.113   3.555
 2532TIP3    H1 7518   2.072   1.188   3.494
 2532TIP3    H2 7519   2.041   1.042   3.508
 2533TIP3   OH2 7520   2.783   1.208   3.177
 2533TIP3    H1 7521   2.857   1.192   3.240
 2533TIP3    H2 7522   2.834   1.243   3.101
 2534TIP3   OH2 7523   1.722   1.317   3.661
 2534TIP3    H1 7524   1.806   1.302   3.708
 2534TIP3    H2 7525   1.738   1.263   3.580
 2535TIP3   OH2 7526   2.169   1.517   3.461
 2535TIP3    H1 7527   2.262   1.489   3.468
 2535TIP3    H2 7528   2.126   1.439   3.421
 2536TIP3   OH2 7529   3.427   1.484   3.724
 2536TIP3    H1 7530   3.345   1.531   3.700
 2536TIP3    H2 7531   3.436   1.509   3.817
 2537TIP3   OH2 7532   2.085   1.099   3.988
 2537TIP3    H1 7533   2.028   1.138   3.919
 2537TIP3    H2 7534   2.034   1.120   4.068
 2538TIP3   OH2 7535   2.450   1.961   2.992
 2538TIP3    H1 7536   2.382   1.891   2.984
 2538TIP3    H2 7537   2.394   2.041   3.002
 2539TIP3   OH2 7538   2.193   1.874   3.786
 2539TIP3    H1 7539   2.129   1.939   3.822
 2539TIP3    H2 7540   2.241   1.929   3.722
 2540TIP3   OH2 7541   2.996   1.208   3.347
 2540TIP3    H1 7542   2.982   1.163   3.431
 2540TIP3    H2 7543   3.047   1.286   3.374
 2541TIP3   OH2 7544   1.957   1.214   3.772
 2541TIP3    H1 7545   2.018   1.288   3.795
 2541TIP3    H2 7546   2.006   1.175   3.697
 2542TIP3   OH2 7547   2.009   2.062   3.866
 2542TIP3    H1 7548   1.993   2.152   3.833
 2542TIP3    H2 7549   1.936   2.054   3.931
 2543TIP3   OH2 7550   1.414   1.761   3.118
 2543TIP3    H1 7551   1.367   1.794   3.040
 2543TIP3    H2 7552   1.446   1.844   3.158
 2544TIP3   OH2 7553   2.858   2.275   3.357
 2544TIP3    H1 7554   2.770   2.265   3.399
 2544TIP3    H2 7555   2.847   2.361   3.311
 2545TIP3   OH2 7556   3.146   1.176   3.720
 2545TIP3    H1 7557   3.058   1.202   3.689
 2545TIP3    H2 7558   3.204   1.208   3.648
 2546TIP3   OH2 7559   2.444   0.819   3.701
 2546TIP3    H1 7560   2.428   0.724   3.717
 2546TIP3    H2 7561   2.366   0.858   3.748
 2547TIP3   OH2 7562   2.562   2.321   3.034
 2547TIP3    H1 7563   2.611   2.238   3.013
 2547TIP3    H2 7564   2.622   2.385   2.990
 2548TIP3   OH2 7565   2.703   2.106   2.935
 2548TIP3    H1 7566   2.636   2.039   2.914
 2548TIP3    H2 7567   2.742   2.069   3.017
 2549TIP3   OH2 7568   3.082   2.188   3.702
 2549TIP3    H1 7569   3.069   2.111   3.642
 2549TIP3    H2 7570   3.062   2.263   3.641
 2550TIP3   OH2 7571   3.277   1.826   3.546
 2550TIP3    H1 7572   3.193   1.876   3.550
 2550TIP3    H2 7573   3.306   1.850   3.455
 2551TIP3   OH2 7574   2.719   1.672   2.932
 2551TIP3    H1 7575   2.658   1.687   3.007
 2551TIP3    H2 7576   2.801   1.645   2.978
 2552TIP3   OH2 7577   2.956   1.703   3.840
 2552TIP3    H1 7578   2.951   1.789   3.886
 2552TIP3    H2 7579   2.869   1.703   3.796
 2553TIP3   OH2 7580   1.929   1.644   3.361
 2553TIP3    H1 7581   1.907   1.604   3.275
 2553TIP3    H2 7582   2.024   1.625   3.369
 2554TIP3   OH2 7583   2.076   2.074   3.495
 2554TIP3    H1 7584   2.053   2.039   3.407
 2554TIP3    H2 7585   2.164   2.034   3.511
 2555TIP3   OH2 7586   2.084   1.634   3.702
 2555TIP3    H1 7587   2.117   1.610   3.613
 2555TIP3    H2 7588   2.130   1.719   3.719
 2556TIP3   OH2 7589   2.617   2.272   3.473
 2556TIP3    H1 7590   2.598   2.347   3.532
 2556TIP3    H2 7591   2.598   2.194   3.529
 2557TIP3   OH2 7592   2.184   2.151   4.079
 2557TIP3    H1 7593   2.166   2.246   4.075
 2557TIP3    H2 7594   2.160   2.123   3.989
 2558TIP3   OH2 7595   2.585   1.507   2.755
 2558TIP3    H1 7596   2.614   1.584   2.808
 2558TIP3    H2 7597   2.593   1.542   2.664
 2559TIP3   OH2 7598   1.983   1.739   4.132
 2559TIP3    H1 7599   1.989   1.830   4.169
 2559TIP3    H2 7600   1.886   1.728   4.132
 2560TIP3   OH2 7601   2.303   2.203   3.028
 2560TIP3    H1 7602   2.381   2.257   3.051
 2560TIP3    H2 7603   2.241   2.269   2.993
 2561TIP3   OH2 7604   2.009   2.384   4.107
 2561TIP3    H1 7605   1.982   2.364   4.016
 2561TIP3    H2 7606   1.937   2.344   4.161
 2562TIP3   OH2 7607   3.076   0.763   2.802
 2562TIP3    H1 7608   2.994   0.781   2.853
 2562TIP3    H2 7609   3.089   0.849   2.757
 2563TIP3   OH2 7610   1.820   1.501   3.139
 2563TIP3    H1 7611   1.753   1.547   3.086
 2563TIP3    H2 7612   1.772   1.422   3.167
 2564TIP3   OH2 7613   2.875   2.129   2.350
 2564TIP3    H1 7614   2.886   2.226   2.337
 2564TIP3    H2 7615   2.968   2.098   2.340
 2565TIP3   OH2 7616   1.597   1.889   4.059
 2565TIP3    H1 7617   1.538   1.867   3.986
 2565TIP3    H2 7618   1.637   1.802   4.082
 2566TIP3   OH2 7619   1.456   2.076   3.698
 2566TIP3    H1 7620   1.550   2.072   3.680
 2566TIP3    H2 7621   1.450   2.160   3.747
 2567TIP3   OH2 7622   2.183   2.449   2.831
 2567TIP3    H1 7623   2.137   2.431   2.747
 2567TIP3    H2 7624   2.151   2.538   2.855
 2568TIP3   OH2 7625   1.623   2.297   3.218
 2568TIP3    H1 7626   1.674   2.287   3.302
 2568TIP3    H2 7627   1.570   2.215   3.222
 2569TIP3   OH2 7628   2.385   2.348   2.472
 2569TIP3    H1 7629   2.445   2.279   2.437
 2569TIP3    H2 7630   2.419   2.358   2.564
 2570TIP3   OH2 7631   2.435   2.396   2.743
 2570TIP3    H1 7632   2.347   2.405   2.786
 2570TIP3    H2 7633   2.485   2.352   2.812
 2571TIP3   OH2 7634   3.209   1.663   4.019
 2571TIP3    H1 7635   3.127   1.679   3.969
 2571TIP3    H2 7636   3.221   1.567   4.008
 2572TIP3   OH2 7637   1.804   2.072   4.047
 2572TIP3    H1 7638   1.857   2.056   4.128
 2572TIP3    H2 7639   1.731   2.008   4.057
 2573TIP3   OH2 7640   2.205   0.893   3.831
 2573TIP3    H1 7641   2.115   0.864   3.804
 2573TIP3    H2 7642   2.182   0.977   3.874
 2574TIP3   OH2 7643   2.738   1.009   4.024
 2574TIP3    H1 7644   2.806   0.982   4.089
 2574TIP3    H2 7645   2.654   0.990   4.070
 2575TIP3   OH2 7646   2.980   1.440   3.945
 2575TIP3    H1 7647   2.927   1.436   4.028
 2575TIP3    H2 7648   2.953   1.526   3.907
 2576TIP3   OH2 7649   2.626   1.574   2.495
 2576TIP3    H1 7650   2.604   1.539   2.407
 2576TIP3    H2 7651   2.710   1.620   2.475
 2577TIP3   OH2 7652   2.330   0.979   2.775
 2577TIP3    H1 7653   2.306   0.969   2.870
 2577TIP3    H2 7654   2.357   0.887   2.757
 2578TIP3   OH2 7655   2.135   1.410   3.847
 2578TIP3    H1 7656   2.087   1.435   3.929
 2578TIP3    H2 7657   2.121   1.491   3.793
 2579TIP3   OH2 7658   2.024   1.294   3.366
 2579TIP3    H1 7659   1.929   1.277   3.382
 2579TIP3    H2 7660   2.034   1.255   3.277
 2580TIP3   OH2 7661   2.500   1.390   3.082
 2580TIP3    H1 7662   2.454   1.471   3.054
 2580TIP3    H2 7663   2.552   1.368   3.003
 2581TIP3   OH2 7664   2.690   1.661   4.175
 2581TIP3    H1 7665   2.664   1.590   4.238
 2581TIP3    H2 7666   2.784   1.673   4.199
 2582TIP3   OH2 7667   2.666   1.411   3.331
 2582TIP3    H1 7668   2.608   1.449   3.262
 2582TIP3    H2 7669   2.697   1.331   3.283
 2583TIP3   OH2 7670   1.954   1.440   4.058
 2583TIP3    H1 7671   1.985   1.508   4.119
 2583TIP3    H2 7672   1.949   1.361   4.115
 2584TIP3   OH2 7673   2.052   0.970   2.785
 2584TIP3    H1 7674   2.036   0.970   2.882
 2584TIP3    H2 7675   1.968   0.930   2.756
 2585TIP3   OH2 7676   1.540   0.965   3.650
 2585TIP3    H1 7677   1.621   0.997   3.696
 2585TIP3    H2 7678   1.571   0.945   3.560
 2586TIP3   OH2 7679   2.686   1.656   3.758
 2586TIP3    H1 7680   2.714   1.585   3.695
 2586TIP3    H2 7681   2.650   1.602   3.831
 2587TIP3   OH2 7682   2.346   1.114   3.423
 2587TIP3    H1 7683   2.263   1.116   3.474
 2587TIP3    H2 7684   2.413   1.124   3.493
 2588TIP3   OH2 7685   1.781   1.173   3.436
 2588TIP3    H1 7686   1.688   1.182   3.404
 2588TIP3    H2 7687   1.805   1.083   3.409
 2589TIP3   OH2 7688   2.050   1.169   3.123
 2589TIP3    H1 7689   2.145   1.188   3.108
 2589TIP3    H2 7690   2.008   1.194   3.038
 2590TIP3   OH2 7691   2.841   1.192   3.625
 2590TIP3    H1 7692   2.806   1.206   3.716
 2590TIP3    H2 7693   2.772   1.133   3.589
 2591TIP3   OH2 7694   1.884   1.193   2.892
 2591TIP3    H1 7695   1.790   1.198   2.909
 2591TIP3    H2 7696   1.896   1.262   2.825
 2592TIP3   OH2 7697   3.018   2.890   3.844
 2592TIP3    H1 7698   3.002   2.914   3.750
 2592TIP3    H2 7699   3.038   2.977   3.883
 2593TIP3   OH2 7700   1.961   1.985   4.266
 2593TIP3    H1 7701   2.045   2.025   4.297
 2593TIP3    H2 7702   1.905   1.999   4.344
 2594TIP3   OH2 7703   2.431   1.439   3.521
 2594TIP3    H1 7704   2.509   1.410   3.471
 2594TIP3    H2 7705   2.446   1.400   3.608
 2595TIP3   OH2 7706   1.954   0.935   3.398
 2595TIP3    H1 7707   1.922   0.855   3.444
 2595TIP3    H2 7708   2.000   0.898   3.321
 2596TIP3   OH2 7709   2.406   1.339   3.819
 2596TIP3    H1 7710   2.318   1.380   3.824
 2596TIP3    H2 7711   2.464   1.405   3.863
 2597TIP3   OH2 7712   3.044   1.969   3.537
 2597TIP3    H1 7713   3.065   2.020   3.456
 2597TIP3    H2 7714   2.959   1.926   3.513
 2598TIP3   OH2 7715   2.602   1.040   2.776
 2598TIP3    H1 7716   2.506   1.046   2.771
 2598TIP3    H2 7717   2.627   1.135   2.789
 2599TIP3   OH2 7718   2.676   1.284   2.869
 2599TIP3    H1 7719   2.770   1.305   2.887
 2599TIP3    H2 7720   2.646   1.365   2.819
 2600TIP3   OH2 7721   1.826   1.749   3.589
 2600TIP3    H1 7722   1.859   1.723   3.500
 2600TIP3    H2 7723   1.884   1.695   3.645
 2601TIP3   OH2 7724   2.270   1.871   2.714
 2601TIP3    H1 7725   2.233   1.957   2.741
 2601TIP3    H2 7726   2.269   1.820   2.799
 2602TIP3   OH2 7727   1.713   1.678   4.197
 2602TIP3    H1 7728   1.740   1.666   4.291
 2602TIP3    H2 7729   1.647   1.608   4.185
 2603TIP3   OH2 7730   2.444   1.781   4.220
 2603TIP3    H1 7731   2.382   1.738   4.160
 2603TIP3    H2 7732   2.530   1.751   4.184
 2604TIP3   OH2 7733   2.726   2.334   3.794
 2604TIP3    H1 7734   2.643   2.281   3.800
 2604TIP3    H2 7735   2.712   2.393   3.870
 2605TIP3   OH2 7736   3.114   1.384   2.707
 2605TIP3    H1 7737   3.053   1.339   2.644
 2605TIP3    H2 7738   3.110   1.474   2.667
 2606TIP3   OH2 7739   3.338   2.225   3.792
 2606TIP3    H1 7740   3.242   2.241   3.784
 2606TIP3    H2 7741   3.359   2.204   3.699
 2607TIP3   OH2 7742   2.813   2.203   2.616
 2607TIP3    H1 7743   2.786   2.134   2.680
 2607TIP3    H2 7744   2.825   2.153   2.534
 2608TIP3   OH2 7745   2.816   1.829   3.458
 2608TIP3    H1 7746   2.721   1.811   3.472
 2608TIP3    H2 7747   2.843   1.748   3.409
 2609TIP3   OH2 7748   1.925   2.074   3.235
 2609TIP3    H1 7749   1.943   2.134   3.161
 2609TIP3    H2 7750   1.839   2.037   3.211
 2610TIP3   OH2 7751   1.491   1.379   2.902
 2610TIP3    H1 7752   1.545   1.457   2.927
 2610TIP3    H2 7753   1.429   1.372   2.977
 2611TIP3   OH2 7754   2.202   2.399   3.677
 2611TIP3    H1 7755   2.251   2.473   3.635
 2611TIP3    H2 7756   2.273   2.355   3.727
 2612TIP3   OH2 7757   1.850   2.303   3.049
 2612TIP3    H1 7758   1.770   2.306   3.105
 2612TIP3    H2 7759   1.883   2.395   3.059
 2613TIP3   OH2 7760   2.603   2.028   3.613
 2613TIP3    H1 7761   2.565   2.064   3.698
 2613TIP3    H2 7762   2.675   1.973   3.646
 2614TIP3   OH2 7763   2.565   1.932   2.517
 2614TIP3    H1 7764   2.622   1.905   2.593
 2614TIP3    H2 7765   2.479   1.905   2.551
 2615TIP3   OH2 7766   2.848   2.573   3.685
 2615TIP3    H1 7767   2.774   2.509   3.686
 2615TIP3    H2 7768   2.822   2.633   3.612
 2616TIP3   OH2 7769   2.909   2.406   2.338
 2616TIP3    H1 7770   2.949   2.480   2.290
 2616TIP3    H2 7771   2.828   2.450   2.370
 2617TIP3   OH2 7772   1.929   1.181   4.206
 2617TIP3    H1 7773   1.833   1.184   4.219
 2617TIP3    H2 7774   1.957   1.121   4.277
 2618TIP3   OH2 7775   2.730   1.859   2.723
 2618TIP3    H1 7776   2.714   1.802   2.801
 2618TIP3    H2 7777   2.828   1.858   2.720
 2619TIP3   OH2 7778   1.642   2.267   3.837
 2619TIP3    H1 7779   1.700   2.193   3.863
 2619TIP3    H2 7780   1.677   2.337   3.893
 2620TIP3   OH2 7781   1.928   1.911   2.517
 2620TIP3    H1 7782   1.957   1.820   2.494
 2620TIP3    H2 7783   1.915   1.901   2.613
 2621TIP3   OH2 7784   1.880   1.916   2.793
 2621TIP3    H1 7785   1.952   1.885   2.850
 2621TIP3    H2 7786   1.889   2.013   2.800
 2622TIP3   OH2 7787   1.617   1.615   2.996
 2622TIP3    H1 7788   1.551   1.663   3.051
 2622TIP3    H2 7789   1.634   1.681   2.926
 2623TIP3   OH2 7790   2.766   1.245   3.884
 2623TIP3    H1 7791   2.845   1.284   3.925
 2623TIP3    H2 7792   2.751   1.165   3.938
 2624TIP3   OH2 7793   2.643   0.999   3.052
 2624TIP3    H1 7794   2.632   1.022   2.958
 2624TIP3    H2 7795   2.681   1.082   3.088
 2625TIP3   OH2 7796   2.144   2.115   2.737
 2625TIP3    H1 7797   2.058   2.141   2.774
 2625TIP3    H2 7798   2.164   2.190   2.680
 2626TIP3   OH2 7799   2.333   1.178   3.151
 2626TIP3    H1 7800   2.394   1.252   3.130
 2626TIP3    H2 7801   2.340   1.173   3.248
 2627TIP3   OH2 7802   2.601   1.495   3.961
 2627TIP3    H1 7803   2.622   1.552   4.037
 2627TIP3    H2 7804   2.658   1.418   3.976
 2628TIP3   OH2 7805   2.478   0.904   3.256
 2628TIP3    H1 7806   2.468   0.982   3.314
 2628TIP3    H2 7807   2.538   0.941   3.187
 2629TIP3   OH2 7808   1.887   2.189   2.803
 2629TIP3    H1 7809   1.857   2.260   2.743
 2629TIP3    H2 7810   1.871   2.231   2.891
 2630TIP3   OH2 7811   2.004   0.907   3.052
 2630TIP3    H1 7812   2.002   0.995   3.093
 2630TIP3    H2 7813   2.098   0.883   3.061
 2631TIP3   OH2 7814   3.246   1.395   3.940
 2631TIP3    H1 7815   3.148   1.395   3.949
 2631TIP3    H2 7816   3.253   1.356   3.852
 2632TIP3   OH2 7817   2.895   1.588   3.328
 2632TIP3    H1 7818   2.818   1.530   3.341
 2632TIP3    H2 7819   2.966   1.541   3.376
 2633TIP3   OH2 7820   1.608   1.826   2.795
 2633TIP3    H1 7821   1.680   1.891   2.806
 2633TIP3    H2 7822   1.655   1.763   2.735
 2634TIP3   OH2 7823   2.864   2.546   3.277
 2634TIP3    H1 7824   2.820   2.592   3.202
 2634TIP3    H2 7825   2.958   2.565   3.255
 2635TIP3   OH2 7826   1.939   0.815   3.807
 2635TIP3    H1 7827   1.910   0.783   3.719
 2635TIP3    H2 7828   1.928   0.736   3.863
 2636TIP3   OH2 7829   1.478   2.034   3.189
 2636TIP3    H1 7830   1.400   2.062   3.239
 2636TIP3    H2 7831   1.455   2.072   3.100
 2637TIP3   OH2 7832   1.635   2.574   4.259
 2637TIP3    H1 7833   1.722   2.577   4.304
 2637TIP3    H2 7834   1.618   2.478   4.256
 2638TIP3   OH2 7835   2.113   2.540   4.310
 2638TIP3    H1 7836   2.209   2.529   4.306
 2638TIP3    H2 7837   2.085   2.489   4.231
 2639TIP3   OH2 7838   2.095   2.115   2.427
 2639TIP3    H1 7839   2.042   2.043   2.468
 2639TIP3    H2 7840   2.173   2.065   2.398
 2640TIP3   OH2 7841   2.746   2.448   4.056
 2640TIP3    H1 7842   2.764   2.353   4.060
 2640TIP3    H2 7843   2.832   2.489   4.071
 2641TIP3   OH2 7844   2.536   2.157   2.342
 2641TIP3    H1 7845   2.577   2.092   2.402
 2641TIP3    H2 7846   2.594   2.153   2.264
 2642TIP3   OH2 7847   1.762   1.979   4.463
 2642TIP3    H1 7848   1.781   1.884   4.458
 2642TIP3    H2 7849   1.677   1.984   4.414
 2643TIP3   OH2 7850   1.754   1.641   2.668
 2643TIP3    H1 7851   1.811   1.595   2.733
 2643TIP3    H2 7852   1.815   1.646   2.592
 2644TIP3   OH2 7853   2.380   2.065   4.241
 2644TIP3    H1 7854   2.331   2.091   4.160
 2644TIP3    H2 7855   2.410   1.976   4.218
 2645TIP3   OH2 7856   2.248   1.822   2.453
 2645TIP3    H1 7857   2.252   1.838   2.550
 2645TIP3    H2 7858   2.231   1.726   2.452
 2646TIP3   OH2 7859   2.866   2.072   3.843
 2646TIP3    H1 7860   2.935   2.121   3.794
 2646TIP3    H2 7861   2.789   2.129   3.829
 2647TIP3   OH2 7862   1.881   1.705   4.443
 2647TIP3    H1 7863   1.966   1.672   4.410
 2647TIP3    H2 7864   1.908   1.746   4.528
 2648TIP3   OH2 7865   1.924   1.496   2.848
 2648TIP3    H1 7866   1.912   1.529   2.938
 2648TIP3    H2 7867   2.020   1.498   2.841
 2649TIP3   OH2 7868   2.216   1.594   4.097
 2649TIP3    H1 7869   2.142   1.657   4.102
 2649TIP3    H2 7870   2.269   1.631   4.023
 2650TIP3   OH2 7871   2.790   2.014   4.262
 2650TIP3    H1 7872   2.802   1.977   4.175
 2650TIP3    H2 7873   2.734   1.949   4.306
 2651TIP3   OH2 7874   2.869   1.657   2.379
 2651TIP3    H1 7875   2.854   1.615   2.292
 2651TIP3    H2 7876   2.841   1.748   2.357
 2652TIP3   OH2 7877   2.342   1.388   4.226
 2652TIP3    H1 7878   2.343   1.309   4.168
 2652TIP3    H2 7879   2.299   1.455   4.169
 2653TIP3   OH2 7880   2.345   1.171   4.036
 2653TIP3    H1 7881   2.373   1.217   3.954
 2653TIP3    H2 7882   2.251   1.151   4.015
 2654TIP3   OH2 7883   2.372   1.709   3.909
 2654TIP3    H1 7884   2.453   1.725   3.860
 2654TIP3    H2 7885   2.313   1.778   3.870
 2655TIP3   OH2 7886   2.955   1.674   4.289
 2655TIP3    H1 7887   3.005   1.592   4.301
 2655TIP3    H2 7888   3.020   1.732   4.247
 2656TIP3   OH2 7889   2.996   1.931   4.031
 2656TIP3    H1 7890   2.938   1.983   3.972
 2656TIP3    H2 7891   3.083   1.950   3.990
 2657TIP3   OH2 7892   2.221   1.499   4.460
 2657TIP3    H1 7893   2.151   1.431   4.470
 2657TIP3    H2 7894   2.255   1.479   4.371
 2658TIP3   OH2 7895   2.477   0.937   4.102
 2658TIP3    H1 7896   2.429   1.019   4.078
 2658TIP3    H2 7897   2.408   0.869   4.089
 2659TIP3   OH2 7898   2.604   1.443   4.316
 2659TIP3    H1 7899   2.592   1.433   4.412
 2659TIP3    H2 7900   2.514   1.419   4.285
 2660TIP3   OH2 7901   2.842   1.389   4.172
 2660TIP3    H1 7902   2.767   1.395   4.234
 2660TIP3    H2 7903   2.915   1.360   4.230
 2661TIP3   OH2 7904   3.076   1.332   4.323
 2661TIP3    H1 7905   3.085   1.237   4.342
 2661TIP3    H2 7906   3.069   1.372   4.413
 2662TIP3   OH2 7907   2.055   1.281   4.511
 2662TIP3    H1 7908   2.067   1.191   4.474
 2662TIP3    H2 7909   2.093   1.270   4.600
 2663TIP3   OH2 7910   2.570   0.945   4.360
 2663TIP3    H1 7911   2.638   0.876   4.353
 2663TIP3    H2 7912   2.531   0.942   4.270
 2664TIP3   OH2 7913   2.637   1.162   4.520
 2664TIP3    H1 7914   2.615   1.092   4.454
 2664TIP3    H2 7915   2.560   1.222   4.512
 2665TIP3   OH2 7916   1.857   2.395   2.616
 2665TIP3    H1 7917   1.953   2.385   2.600
 2665TIP3    H2 7918   1.832   2.443   2.536
 2666TIP3   OH2 7919   1.345   1.772   2.831
 2666TIP3    H1 7920   1.438   1.802   2.821
 2666TIP3    H2 7921   1.353   1.679   2.807
 2667TIP3   OH2 7922   1.251   2.387   3.236
 2667TIP3    H1 7923   1.183   2.321   3.209
 2667TIP3    H2 7924   1.295   2.337   3.308
 2668TIP3   OH2 7925   1.384   2.247   3.432
 2668TIP3    H1 7926   1.373   2.169   3.487
 2668TIP3    H2 7927   1.441   2.302   3.490
 2669TIP3   OH2 7928   3.119   2.640   3.241
 2669TIP3    H1 7929   3.156   2.694   3.312
 2669TIP3    H2 7930   3.167   2.673   3.164
 2670TIP3   OH2 7931   3.165   2.645   3.535
 2670TIP3    H1 7932   3.091   2.604   3.488
 2670TIP3    H2 7933   3.194   2.567   3.583
 2671TIP3   OH2 7934   3.205   2.332   4.094
 2671TIP3    H1 7935   3.112   2.356   4.099
 2671TIP3    H2 7936   3.246   2.420   4.084
 2672TIP3   OH2 7937   3.010   1.846   2.709
 2672TIP3    H1 7938   3.077   1.910   2.679
 2672TIP3    H2 7939   3.053   1.808   2.788
 2673TIP3   OH2 7940   3.138   1.713   2.913
 2673TIP3    H1 7941   3.068   1.672   2.970
 2673TIP3    H2 7942   3.197   1.754   2.979
 2674TIP3   OH2 7943   3.194   2.108   3.350
 2674TIP3    H1 7944   3.240   2.042   3.296
 2674TIP3    H2 7945   3.180   2.181   3.287
 2675TIP3   OH2 7946   3.020   2.403   3.542
 2675TIP3    H1 7947   2.948   2.447   3.592
 2675TIP3    H2 7948   2.970   2.358   3.471
 2676TIP3   OH2 7949   3.072   1.620   2.559
 2676TIP3    H1 7950   3.002   1.624   2.491
 2676TIP3    H2 7951   3.045   1.696   2.614
 2677TIP3   OH2 7952   2.954   1.286   2.508
 2677TIP3    H1 7953   2.900   1.341   2.450
 2677TIP3    H2 7954   2.916   1.197   2.491
 2678TIP3   OH2 7955   2.952   1.572   3.061
 2678TIP3    H1 7956   2.956   1.475   3.053
 2678TIP3    H2 7957   2.937   1.584   3.157
 2679TIP3   OH2 7958   1.576   1.640   3.808
 2679TIP3    H1 7959   1.576   1.615   3.713
 2679TIP3    H2 7960   1.673   1.646   3.825
 2680TIP3   OH2 7961   3.237   1.993   3.917
 2680TIP3    H1 7962   3.311   1.930   3.906
 2680TIP3    H2 7963   3.260   2.064   3.855
 2681TIP3   OH2 7964   3.426   1.801   3.935
 2681TIP3    H1 7965   3.349   1.752   3.972
 2681TIP3    H2 7966   3.497   1.735   3.950
 2682TIP3   OH2 7967   2.904   1.013   2.483
 2682TIP3    H1 7968   2.966   0.998   2.557
 2682TIP3    H2 7969   2.821   0.972   2.512
 2683TIP3   OH2 7970   2.949   1.288   2.959
 2683TIP3    H1 7971   2.988   1.199   2.971
 2683TIP3    H2 7972   3.004   1.322   2.887
 2684TIP3   OH2 7973   3.108   1.459   3.451
 2684TIP3    H1 7974   3.194   1.486   3.410
 2684TIP3    H2 7975   3.121   1.498   3.540
 2685TIP3   OH2 7976   3.177   1.605   3.682
 2685TIP3    H1 7977   3.098   1.639   3.729
 2685TIP3    H2 7978   3.209   1.686   3.636
 2686TIP3   OH2 7979   1.788   1.326   4.474
 2686TIP3    H1 7980   1.886   1.326   4.478
 2686TIP3    H2 7981   1.768   1.243   4.521
 2687TIP3   OH2 7982   3.632   1.198   4.238
 2687TIP3    H1 7983   3.688   1.131   4.194
 2687TIP3    H2 7984   3.599   1.250   4.161
 2688TIP3   OH2 7985   3.057   1.036   2.991
 2688TIP3    H1 7986   3.103   1.021   3.076
 2688TIP3    H2 7987   2.995   0.960   2.990
 2689TIP3   OH2 7988   1.755   1.024   3.819
 2689TIP3    H1 7989   1.819   0.950   3.824
 2689TIP3    H2 7990   1.816   1.099   3.806
 2690TIP3   OH2 7991   1.557   1.296   3.886
 2690TIP3    H1 7992   1.607   1.291   3.802
 2690TIP3    H2 7993   1.582   1.384   3.917
 2691TIP3   OH2 7994   3.499   1.335   4.045
 2691TIP3    H1 7995   3.413   1.377   4.064
 2691TIP3    H2 7996   3.468   1.264   3.984
 2692TIP3   OH2 7997   3.141   0.978   2.629
 2692TIP3    H1 7998   3.187   0.905   2.582
 2692TIP3    H2 7999   3.207   1.050   2.626
 2693TIP3   OH2 8000   1.542   0.850   3.389
 2693TIP3    H1 8001   1.448   0.847   3.370
 2693TIP3    H2 8002   1.579   0.800   3.315
 2694TIP3   OH2 8003   2.698   2.505   2.889
 2694TIP3    H1 8004   2.751   2.491   2.808
 2694TIP3    H2 8005   2.752   2.570   2.937
 2695TIP3   OH2 8006   1.760   0.878   4.200
 2695TIP3    H1 8007   1.709   0.878   4.283
 2695TIP3    H2 8008   1.696   0.918   4.138
 2696TIP3   OH2 8009   1.801   2.302   4.278
 2696TIP3    H1 8010   1.708   2.277   4.263
 2696TIP3    H2 8011   1.809   2.294   4.374
 2697TIP3   OH2 8012   1.977   2.337   3.824
 2697TIP3    H1 8013   1.934   2.416   3.786
 2697TIP3    H2 8014   2.064   2.348   3.781
 2698TIP3   OH2 8015   2.412   2.608   3.964
 2698TIP3    H1 8016   2.457   2.588   4.048
 2698TIP3    H2 8017   2.486   2.639   3.908
 2699TIP3   OH2 8018   2.605   2.735   3.815
 2699TIP3    H1 8019   2.679   2.686   3.777
 2699TIP3    H2 8020   2.652   2.794   3.878
 2700TIP3   OH2 8021   3.397   1.099   3.922
 2700TIP3    H1 8022   3.307   1.095   3.886
 2700TIP3    H2 8023   3.426   1.006   3.910
 2701TIP3   OH2 8024   1.653   2.596   3.847
 2701TIP3    H1 8025   1.564   2.632   3.828
 2701TIP3    H2 8026   1.670   2.636   3.933
 2702TIP3   OH2 8027   1.891   2.575   3.707
 2702TIP3    H1 8028   1.804   2.588   3.751
 2702TIP3    H2 8029   1.873   2.607   3.616
 2703TIP3   OH2 8030   2.321   2.606   3.500
 2703TIP3    H1 8031   2.248   2.626   3.440
 2703TIP3    H2 8032   2.331   2.691   3.548
 2704TIP3   OH2 8033   2.588   2.548   3.551
 2704TIP3    H1 8034   2.492   2.560   3.536
 2704TIP3    H2 8035   2.624   2.630   3.515
 2705TIP3   OH2 8036   2.805   2.737   3.470
 2705TIP3    H1 8037   2.786   2.820   3.422
 2705TIP3    H2 8038   2.819   2.674   3.397
 2706TIP3   OH2 8039   1.566   2.390   3.594
 2706TIP3    H1 8040   1.593   2.368   3.685
 2706TIP3    H2 8041   1.639   2.346   3.544
 2707TIP3   OH2 8042   1.760   2.264   3.451
 2707TIP3    H1 8043   1.777   2.177   3.494
 2707TIP3    H2 8044   1.852   2.298   3.443
 2708TIP3   OH2 8045   2.028   2.358   3.452
 2708TIP3    H1 8046   2.055   2.265   3.440
 2708TIP3    H2 8047   2.074   2.377   3.536
 2709TIP3   OH2 8048   2.606   1.015   3.543
 2709TIP3    H1 8049   2.559   0.945   3.592
 2709TIP3    H2 8050   2.676   0.965   3.496
 2710TIP3   OH2 8051   3.127   0.895   3.448
 2710TIP3    H1 8052   3.162   0.946   3.372
 2710TIP3    H2 8053   3.031   0.911   3.440
 2711TIP3   OH2 8054   3.221   0.992   3.210
 2711TIP3    H1 8055   3.294   0.942   3.169
 2711TIP3    H2 8056   3.253   1.084   3.195
 2712TIP3   OH2 8057   1.852   0.722   3.559
 2712TIP3    H1 8058   1.760   0.692   3.555
 2712TIP3    H2 8059   1.901   0.637   3.553
 2713TIP3   OH2 8060   2.295   0.754   3.438
 2713TIP3    H1 8061   2.351   0.803   3.376
 2713TIP3    H2 8062   2.316   0.797   3.522
 2714TIP3   OH2 8063   2.844   0.900   3.420
 2714TIP3    H1 8064   2.840   0.864   3.331
 2714TIP3    H2 8065   2.829   0.820   3.475
 2715TIP3   OH2 8066   2.872   0.823   2.983
 2715TIP3    H1 8067   2.784   0.864   2.992
 2715TIP3    H2 8068   2.857   0.738   3.030
 2716TIP3   OH2 8069   1.358   2.156   2.983
 2716TIP3    H1 8070   1.274   2.123   2.947
 2716TIP3    H2 8071   1.346   2.250   2.965
 2717TIP3   OH2 8072   2.282   0.929   3.056
 2717TIP3    H1 8073   2.334   0.880   3.122
 2717TIP3    H2 8074   2.298   1.020   3.089
 2718TIP3   OH2 8075   2.125   2.353   2.564
 2718TIP3    H1 8076   2.215   2.372   2.531
 2718TIP3    H2 8077   2.104   2.276   2.506
 2719TIP3   OH2 8078   2.845   2.469   2.659
 2719TIP3    H1 8079   2.837   2.371   2.648
 2719TIP3    H2 8080   2.801   2.500   2.577
 2720TIP3   OH2 8081   2.058   0.999   4.445
 2720TIP3    H1 8082   2.025   0.931   4.505
 2720TIP3    H2 8083   2.153   1.001   4.472
 2721TIP3   OH2 8084   2.307   0.999   4.566
 2721TIP3    H1 8085   2.392   0.980   4.525
 2721TIP3    H2 8086   2.300   0.927   4.631
 2722TIP3   OH2 8087   1.429   2.191   2.621
 2722TIP3    H1 8088   1.421   2.207   2.717
 2722TIP3    H2 8089   1.519   2.151   2.614
 2723TIP3   OH2 8090   3.133   1.060   4.355
 2723TIP3    H1 8091   3.152   1.029   4.446
 2723TIP3    H2 8092   3.222   1.055   4.314
 2724TIP3   OH2 8093   3.060   2.617   3.862
 2724TIP3    H1 8094   2.997   2.585   3.795
 2724TIP3    H2 8095   3.051   2.714   3.850
 2725TIP3   OH2 8096   4.337   1.986   2.614
 2725TIP3    H1 8097   4.309   2.078   2.592
 2725TIP3    H2 8098   4.262   1.936   2.578
 2726TIP3   OH2 8099   4.342   1.986   2.991
 2726TIP3    H1 8100   4.367   1.953   3.079
 2726TIP3    H2 8101   4.296   1.910   2.953
 2727TIP3   OH2 8102   3.638   1.882   3.358
 2727TIP3    H1 8103   3.670   1.814   3.420
 2727TIP3    H2 8104   3.717   1.937   3.349
 2728TIP3   OH2 8105   4.582   2.286   2.674
 2728TIP3    H1 8106   4.563   2.219   2.740
 2728TIP3    H2 8107   4.607   2.363   2.729
 2729TIP3   OH2 8108   3.610   2.293   3.091
 2729TIP3    H1 8109   3.601   2.195   3.091
 2729TIP3    H2 8110   3.705   2.301   3.075
 2730TIP3   OH2 8111   3.315   1.493   2.870
 2730TIP3    H1 8112   3.267   1.577   2.885
 2730TIP3    H2 8113   3.244   1.440   2.829
 2731TIP3   OH2 8114   3.376   1.784   3.042
 2731TIP3    H1 8115   3.424   1.705   3.076
 2731TIP3    H2 8116   3.429   1.809   2.966
 2732TIP3   OH2 8117   4.228   2.753   2.689
 2732TIP3    H1 8118   4.276   2.679   2.646
 2732TIP3    H2 8119   4.214   2.719   2.778
 2733TIP3   OH2 8120   4.135   2.211   3.044
 2733TIP3    H1 8121   4.172   2.137   2.993
 2733TIP3    H2 8122   4.219   2.256   3.068
 2734TIP3   OH2 8123   5.149   1.531   3.040
 2734TIP3    H1 8124   5.179   1.615   3.080
 2734TIP3    H2 8125   5.171   1.547   2.947
 2735TIP3   OH2 8126   4.548   1.713   3.076
 2735TIP3    H1 8127   4.590   1.627   3.094
 2735TIP3    H2 8128   4.517   1.699   2.984
 2736TIP3   OH2 8129   3.887   1.372   3.040
 2736TIP3    H1 8130   3.865   1.445   2.978
 2736TIP3    H2 8131   3.839   1.299   2.996
 2737TIP3   OH2 8132   4.580   1.465   2.663
 2737TIP3    H1 8133   4.652   1.448   2.727
 2737TIP3    H2 8134   4.631   1.499   2.587
 2738TIP3   OH2 8135   3.519   1.574   3.147
 2738TIP3    H1 8136   3.602   1.554   3.194
 2738TIP3    H2 8137   3.532   1.518   3.067
 2739TIP3   OH2 8138   3.960   1.772   2.941
 2739TIP3    H1 8139   4.054   1.746   2.952
 2739TIP3    H2 8140   3.921   1.688   2.907
 2740TIP3   OH2 8141   5.224   1.740   3.210
 2740TIP3    H1 8142   5.140   1.787   3.188
 2740TIP3    H2 8143   5.233   1.764   3.303
 2741TIP3   OH2 8144   3.883   1.357   3.475
 2741TIP3    H1 8145   3.823   1.393   3.407
 2741TIP3    H2 8146   3.830   1.375   3.556
 2742TIP3   OH2 8147   4.232   2.208   2.482
 2742TIP3    H1 8148   4.186   2.187   2.399
 2742TIP3    H2 8149   4.188   2.292   2.506
 2743TIP3   OH2 8150   3.990   2.133   3.272
 2743TIP3    H1 8151   3.926   2.198   3.308
 2743TIP3    H2 8152   4.028   2.182   3.197
 2744TIP3   OH2 8153   4.791   1.465   2.833
 2744TIP3    H1 8154   4.782   1.416   2.916
 2744TIP3    H2 8155   4.844   1.542   2.861
 2745TIP3   OH2 8156   3.754   1.471   3.259
 2745TIP3    H1 8157   3.816   1.543   3.282
 2745TIP3    H2 8158   3.802   1.430   3.183
 2746TIP3   OH2 8159   3.814   2.325   3.372
 2746TIP3    H1 8160   3.790   2.408   3.326
 2746TIP3    H2 8161   3.734   2.313   3.427
 2747TIP3   OH2 8162   3.212   2.014   2.602
 2747TIP3    H1 8163   3.172   2.039   2.517
 2747TIP3    H2 8164   3.242   2.101   2.637
 2748TIP3   OH2 8165   4.656   2.532   2.845
 2748TIP3    H1 8166   4.566   2.522   2.885
 2748TIP3    H2 8167   4.645   2.617   2.797
 2749TIP3   OH2 8168   4.941   1.434   3.208
 2749TIP3    H1 8169   4.853   1.459   3.174
 2749TIP3    H2 8170   5.000   1.464   3.136
 2750TIP3   OH2 8171   4.241   1.076   3.190
 2750TIP3    H1 8172   4.224   0.980   3.204
 2750TIP3    H2 8173   4.162   1.114   3.235
 2751TIP3   OH2 8174   4.358   2.576   2.522
 2751TIP3    H1 8175   4.406   2.494   2.498
 2751TIP3    H2 8176   4.418   2.642   2.479
 2752TIP3   OH2 8177   4.498   2.362   2.422
 2752TIP3    H1 8178   4.454   2.285   2.384
 2752TIP3    H2 8179   4.533   2.325   2.506
 2753TIP3   OH2 8180   4.878   2.444   3.187
 2753TIP3    H1 8181   4.865   2.366   3.128
 2753TIP3    H2 8182   4.856   2.518   3.127
 2754TIP3   OH2 8183   4.170   1.838   2.445
 2754TIP3    H1 8184   4.089   1.889   2.425
 2754TIP3    H2 8185   4.212   1.835   2.357
 2755TIP3   OH2 8186   4.128   1.620   2.162
 2755TIP3    H1 8187   4.195   1.674   2.208
 2755TIP3    H2 8188   4.187   1.558   2.114
 2756TIP3   OH2 8189   5.072   2.083   3.033
 2756TIP3    H1 8190   4.988   2.133   3.035
 2756TIP3    H2 8191   5.102   2.105   2.942
 2757TIP3   OH2 8192   4.516   1.920   2.416
 2757TIP3    H1 8193   4.461   1.945   2.494
 2757TIP3    H2 8194   4.600   1.896   2.460
 2758TIP3   OH2 8195   4.751   1.961   3.326
 2758TIP3    H1 8196   4.744   2.045   3.374
 2758TIP3    H2 8197   4.664   1.959   3.281
 2759TIP3   OH2 8198   3.747   1.918   2.833
 2759TIP3    H1 8199   3.704   1.861   2.765
 2759TIP3    H2 8200   3.824   1.864   2.860
 2760TIP3   OH2 8201   3.874   2.323   2.984
 2760TIP3    H1 8202   3.854   2.289   2.896
 2760TIP3    H2 8203   3.965   2.292   2.999
 2761TIP3   OH2 8204   3.889   1.888   3.189
 2761TIP3    H1 8205   3.917   1.867   3.098
 2761TIP3    H2 8206   3.929   1.976   3.205
 2762TIP3   OH2 8207   4.415   2.526   2.964
 2762TIP3    H1 8208   4.394   2.608   3.012
 2762TIP3    H2 8209   4.394   2.456   3.028
 2763TIP3   OH2 8210   4.022   2.440   3.515
 2763TIP3    H1 8211   3.963   2.506   3.557
 2763TIP3    H2 8212   3.958   2.389   3.462
 2764TIP3   OH2 8213   4.358   1.776   2.241
 2764TIP3    H1 8214   4.415   1.838   2.292
 2764TIP3    H2 8215   4.384   1.800   2.148
 2765TIP3   OH2 8216   3.778   2.001   3.613
 2765TIP3    H1 8217   3.781   2.087   3.658
 2765TIP3    H2 8218   3.682   1.980   3.621
 2766TIP3   OH2 8219   4.101   2.457   2.519
 2766TIP3    H1 8220   4.177   2.515   2.537
 2766TIP3    H2 8221   4.038   2.517   2.476
 2767TIP3   OH2 8222   3.816   2.614   3.592
 2767TIP3    H1 8223   3.795   2.619   3.497
 2767TIP3    H2 8224   3.731   2.590   3.631
 2768TIP3   OH2 8225   4.873   1.019   2.290
 2768TIP3    H1 8226   4.791   1.040   2.339
 2768TIP3    H2 8227   4.887   1.102   2.240
 2769TIP3   OH2 8228   3.613   1.760   2.641
 2769TIP3    H1 8229   3.551   1.809   2.582
 2769TIP3    H2 8230   3.568   1.675   2.647
 2770TIP3   OH2 8231   4.671   2.386   1.837
 2770TIP3    H1 8232   4.679   2.483   1.823
 2770TIP3    H2 8233   4.763   2.357   1.826
 2771TIP3   OH2 8234   3.402   2.147   3.539
 2771TIP3    H1 8235   3.330   2.128   3.475
 2771TIP3    H2 8236   3.433   2.058   3.564
 2772TIP3   OH2 8237   3.249   2.338   3.178
 2772TIP3    H1 8238   3.344   2.333   3.165
 2772TIP3    H2 8239   3.239   2.418   3.232
 2773TIP3   OH2 8240   5.115   2.790   3.234
 2773TIP3    H1 8241   5.110   2.693   3.236
 2773TIP3    H2 8242   5.028   2.814   3.274
 2774TIP3   OH2 8243   4.225   2.558   3.366
 2774TIP3    H1 8244   4.233   2.652   3.397
 2774TIP3    H2 8245   4.149   2.528   3.421
 2775TIP3   OH2 8246   3.983   2.706   2.318
 2775TIP3    H1 8247   3.934   2.687   2.236
 2775TIP3    H2 8248   3.948   2.792   2.345
 2776TIP3   OH2 8249   3.418   2.553   2.703
 2776TIP3    H1 8250   3.467   2.545   2.788
 2776TIP3    H2 8251   3.362   2.474   2.707
 2777TIP3   OH2 8252   4.182   2.606   1.959
 2777TIP3    H1 8253   4.242   2.536   1.923
 2777TIP3    H2 8254   4.215   2.615   2.051
 2778TIP3   OH2 8255   4.233   2.653   2.229
 2778TIP3    H1 8256   4.144   2.664   2.268
 2778TIP3    H2 8257   4.281   2.611   2.302
 2779TIP3   OH2 8258   5.002   1.920   3.506
 2779TIP3    H1 8259   4.921   1.930   3.454
 2779TIP3    H2 8260   5.018   1.824   3.495
 2780TIP3   OH2 8261   3.598   2.337   3.547
 2780TIP3    H1 8262   3.654   2.301   3.619
 2780TIP3    H2 8263   3.526   2.270   3.543
 2781TIP3   OH2 8264   4.001   1.151   3.316
 2781TIP3    H1 8265   3.912   1.120   3.289
 2781TIP3    H2 8266   3.975   1.233   3.362
 2782TIP3   OH2 8267   4.534   1.267   3.511
 2782TIP3    H1 8268   4.601   1.237   3.576
 2782TIP3    H2 8269   4.449   1.247   3.556
 2783TIP3   OH2 8270   4.776   1.697   3.432
 2783TIP3    H1 8271   4.722   1.693   3.514
 2783TIP3    H2 8272   4.748   1.782   3.393
 2784TIP3   OH2 8273   4.434   1.825   1.986
 2784TIP3    H1 8274   4.399   1.799   1.899
 2784TIP3    H2 8275   4.513   1.875   1.960
 2785TIP3   OH2 8276   4.146   1.199   2.288
 2785TIP3    H1 8277   4.111   1.196   2.379
 2785TIP3    H2 8278   4.106   1.117   2.253
 2786TIP3   OH2 8279   3.934   1.666   3.337
 2786TIP3    H1 8280   3.880   1.687   3.416
 2786TIP3    H2 8281   3.919   1.746   3.282
 2787TIP3   OH2 8282   3.817   1.552   2.850
 2787TIP3    H1 8283   3.723   1.529   2.866
 2787TIP3    H2 8284   3.829   1.512   2.761
 2788TIP3   OH2 8285   4.307   1.639   2.578
 2788TIP3    H1 8286   4.254   1.710   2.535
 2788TIP3    H2 8287   4.361   1.607   2.502
 2789TIP3   OH2 8288   4.481   1.918   3.665
 2789TIP3    H1 8289   4.458   1.844   3.726
 2789TIP3    H2 8290   4.576   1.929   3.685
 2790TIP3   OH2 8291   4.464   1.668   2.816
 2790TIP3    H1 8292   4.403   1.698   2.745
 2790TIP3    H2 8293   4.497   1.587   2.773
 2791TIP3   OH2 8294   3.753   1.696   3.544
 2791TIP3    H1 8295   3.772   1.761   3.613
 2791TIP3    H2 8296   3.740   1.614   3.595
 2792TIP3   OH2 8297   3.804   1.171   2.256
 2792TIP3    H1 8298   3.792   1.170   2.353
 2792TIP3    H2 8299   3.726   1.224   2.229
 2793TIP3   OH2 8300   3.345   1.215   3.126
 2793TIP3    H1 8301   3.420   1.249   3.179
 2793TIP3    H2 8302   3.386   1.187   3.043
 2794TIP3   OH2 8303   3.316   1.199   2.644
 2794TIP3    H1 8304   3.360   1.238   2.565
 2794TIP3    H2 8305   3.255   1.272   2.665
 2795TIP3   OH2 8306   4.480   1.913   3.242
 2795TIP3    H1 8307   4.509   1.841   3.181
 2795TIP3    H2 8308   4.445   1.859   3.317
 2796TIP3   OH2 8309   4.144   1.374   2.911
 2796TIP3    H1 8310   4.059   1.373   2.961
 2796TIP3    H2 8311   4.209   1.376   2.983
 2797TIP3   OH2 8312   3.577   1.431   2.920
 2797TIP3    H1 8313   3.482   1.440   2.892
 2797TIP3    H2 8314   3.598   1.339   2.895
 2798TIP3   OH2 8315   3.848   1.427   2.608
 2798TIP3    H1 8316   3.941   1.443   2.583
 2798TIP3    H2 8317   3.798   1.449   2.525
 2799TIP3   OH2 8318   4.635   1.450   3.114
 2799TIP3    H1 8319   4.599   1.463   3.204
 2799TIP3    H2 8320   4.570   1.389   3.076
 2800TIP3   OH2 8321   3.690   1.459   2.389
 2800TIP3    H1 8322   3.620   1.413   2.341
 2800TIP3    H2 8323   3.741   1.496   2.314
 2801TIP3   OH2 8324   4.808   3.132   3.333
 2801TIP3    H1 8325   4.798   3.157   3.239
 2801TIP3    H2 8326   4.881   3.190   3.360
 2802TIP3   OH2 8327   3.763   2.250   3.754
 2802TIP3    H1 8328   3.843   2.279   3.803
 2802TIP3    H2 8329   3.700   2.243   3.829
 2803TIP3   OH2 8330   4.226   1.702   3.009
 2803TIP3    H1 8331   4.299   1.664   2.957
 2803TIP3    H2 8332   4.236   1.658   3.095
 2804TIP3   OH2 8333   3.752   1.191   2.887
 2804TIP3    H1 8334   3.716   1.112   2.932
 2804TIP3    H2 8335   3.797   1.152   2.810
 2805TIP3   OH2 8336   4.203   1.598   3.300
 2805TIP3    H1 8337   4.113   1.634   3.311
 2805TIP3    H2 8338   4.259   1.661   3.349
 2806TIP3   OH2 8339   3.942   1.992   2.395
 2806TIP3    H1 8340   3.871   1.924   2.383
 2806TIP3    H2 8341   3.921   2.025   2.486
 2807TIP3   OH2 8342   4.839   2.227   3.024
 2807TIP3    H1 8343   4.862   2.277   2.943
 2807TIP3    H2 8344   4.755   2.183   2.998
 2808TIP3   OH2 8345   4.398   1.301   2.257
 2808TIP3    H1 8346   4.301   1.285   2.262
 2808TIP3    H2 8347   4.406   1.396   2.279
 2809TIP3   OH2 8348   4.348   2.310   3.390
 2809TIP3    H1 8349   4.352   2.289   3.484
 2809TIP3    H2 8350   4.301   2.396   3.389
 2810TIP3   OH2 8351   4.467   1.550   2.360
 2810TIP3    H1 8352   4.564   1.558   2.373
 2810TIP3    H2 8353   4.447   1.630   2.307
 2811TIP3   OH2 8354   3.635   2.016   3.070
 2811TIP3    H1 8355   3.668   1.986   2.983
 2811TIP3    H2 8356   3.668   1.947   3.129
 2812TIP3   OH2 8357   4.085   2.141   2.216
 2812TIP3    H1 8358   4.037   2.227   2.220
 2812TIP3    H2 8359   4.030   2.086   2.276
 2813TIP3   OH2 8360   3.513   1.930   3.680
 2813TIP3    H1 8361   3.526   1.917   3.776
 2813TIP3    H2 8362   3.440   1.868   3.661
 2814TIP3   OH2 8363   4.237   2.046   3.703
 2814TIP3    H1 8364   4.175   1.989   3.654
 2814TIP3    H2 8365   4.323   2.011   3.672
 2815TIP3   OH2 8366   4.502   2.566   3.287
 2815TIP3    H1 8367   4.405   2.561   3.293
 2815TIP3    H2 8368   4.521   2.623   3.364
 2816TIP3   OH2 8369   4.910   1.641   2.195
 2816TIP3    H1 8370   4.848   1.596   2.133
 2816TIP3    H2 8371   4.906   1.730   2.154
 2817TIP3   OH2 8372   5.125   2.502   3.275
 2817TIP3    H1 8373   5.029   2.490   3.259
 2817TIP3    H2 8374   5.158   2.471   3.187
 2818TIP3   OH2 8375   4.614   2.459   2.104
 2818TIP3    H1 8376   4.581   2.391   2.164
 2818TIP3    H2 8377   4.621   2.412   2.019
 2819TIP3   OH2 8378   4.607   2.087   2.946
 2819TIP3    H1 8379   4.513   2.063   2.956
 2819TIP3    H2 8380   4.639   2.009   2.897
 2820TIP3   OH2 8381   3.733   2.317   2.695
 2820TIP3    H1 8382   3.733   2.398   2.641
 2820TIP3    H2 8383   3.638   2.299   2.701
 2821TIP3   OH2 8384   3.300   1.620   2.396
 2821TIP3    H1 8385   3.342   1.707   2.412
 2821TIP3    H2 8386   3.220   1.627   2.453
 2822TIP3   OH2 8387   3.873   2.083   2.641
 2822TIP3    H1 8388   3.837   2.172   2.657
 2822TIP3    H2 8389   3.833   2.032   2.714
 2823TIP3   OH2 8390   3.998   2.656   3.167
 2823TIP3    H1 8391   4.030   2.736   3.121
 2823TIP3    H2 8392   4.078   2.629   3.214
 2824TIP3   OH2 8393   3.653   2.555   2.548
 2824TIP3    H1 8394   3.567   2.565   2.593
 2824TIP3    H2 8395   3.685   2.648   2.550
 2825TIP3   OH2 8396   4.390   2.292   3.122
 2825TIP3    H1 8397   4.382   2.291   3.220
 2825TIP3    H2 8398   4.468   2.237   3.108
 2826TIP3   OH2 8399   4.364   2.188   2.003
 2826TIP3    H1 8400   4.415   2.162   2.083
 2826TIP3    H2 8401   4.275   2.160   2.028
 2827TIP3   OH2 8402   4.641   2.827   3.172
 2827TIP3    H1 8403   4.560   2.775   3.162
 2827TIP3    H2 8404   4.628   2.894   3.101
 2828TIP3   OH2 8405   4.704   2.662   1.824
 2828TIP3    H1 8406   4.740   2.734   1.770
 2828TIP3    H2 8407   4.624   2.706   1.858
 2829TIP3   OH2 8408   3.722   1.439   3.691
 2829TIP3    H1 8409   3.626   1.443   3.702
 2829TIP3    H2 8410   3.748   1.377   3.761
 2830TIP3   OH2 8411   4.524   2.121   2.220
 2830TIP3    H1 8412   4.514   2.055   2.292
 2830TIP3    H2 8413   4.621   2.118   2.208
 2831TIP3   OH2 8414   3.441   2.528   3.332
 2831TIP3    H1 8415   3.486   2.447   3.359
 2831TIP3    H2 8416   3.508   2.595   3.346
 2832TIP3   OH2 8417   3.733   2.163   2.005
 2832TIP3    H1 8418   3.742   2.071   1.974
 2832TIP3    H2 8419   3.707   2.149   2.098
 2833TIP3   OH2 8420   3.674   2.179   2.280
 2833TIP3    H1 8421   3.746   2.148   2.335
 2833TIP3    H2 8422   3.683   2.277   2.286
 2834TIP3   OH2 8423   3.416   1.869   2.480
 2834TIP3    H1 8424   3.347   1.914   2.533
 2834TIP3    H2 8425   3.428   1.935   2.409
 2835TIP3   OH2 8426   4.560   1.505   3.374
 2835TIP3    H1 8427   4.642   1.538   3.411
 2835TIP3    H2 8428   4.545   1.423   3.426
 2836TIP3   OH2 8429   4.441   1.253   2.537
 2836TIP3    H1 8430   4.426   1.275   2.443
 2836TIP3    H2 8431   4.478   1.337   2.571
 2837TIP3   OH2 8432   3.944   2.372   2.226
 2837TIP3    H1 8433   3.856   2.397   2.262
 2837TIP3    H2 8434   3.957   2.442   2.161
 2838TIP3   OH2 8435   4.133   1.432   2.638
 2838TIP3    H1 8436   4.196   1.506   2.621
 2838TIP3    H2 8437   4.136   1.427   2.736
 2839TIP3   OH2 8438   4.398   1.753   3.446
 2839TIP3    H1 8439   4.419   1.805   3.526
 2839TIP3    H2 8440   4.453   1.673   3.458
 2840TIP3   OH2 8441   4.275   1.162   2.742
 2840TIP3    H1 8442   4.263   1.241   2.797
 2840TIP3    H2 8443   4.335   1.197   2.672
 2841TIP3   OH2 8444   3.690   2.450   2.293
 2841TIP3    H1 8445   3.656   2.518   2.230
 2841TIP3    H2 8446   3.670   2.492   2.380
 2842TIP3   OH2 8447   3.785   1.160   2.532
 2842TIP3    H1 8448   3.784   1.251   2.566
 2842TIP3    H2 8449   3.881   1.141   2.539
 2843TIP3   OH2 8450   5.042   1.653   3.427
 2843TIP3    H1 8451   4.944   1.652   3.435
 2843TIP3    H2 8452   5.051   1.610   3.341
 2844TIP3   OH2 8453   4.691   1.847   2.816
 2844TIP3    H1 8454   4.614   1.787   2.826
 2844TIP3    H2 8455   4.762   1.798   2.863
 2845TIP3   OH2 8456   3.401   2.083   2.288
 2845TIP3    H1 8457   3.471   2.150   2.295
 2845TIP3    H2 8458   3.447   2.022   2.226
 2846TIP3   OH2 8459   3.345   1.349   2.419
 2846TIP3    H1 8460   3.360   1.446   2.415
 2846TIP3    H2 8461   3.265   1.344   2.366
 2847TIP3   OH2 8462   4.660   2.802   2.765
 2847TIP3    H1 8463   4.616   2.848   2.691
 2847TIP3    H2 8464   4.754   2.820   2.742
 2848TIP3   OH2 8465   3.736   1.072   3.292
 2848TIP3    H1 8466   3.705   1.038   3.205
 2848TIP3    H2 8467   3.725   0.993   3.349
 2849TIP3   OH2 8468   3.276   2.290   2.674
 2849TIP3    H1 8469   3.201   2.320   2.727
 2849TIP3    H2 8470   3.253   2.328   2.587
 2850TIP3   OH2 8471   3.912   2.788   3.796
 2850TIP3    H1 8472   4.009   2.787   3.797
 2850TIP3    H2 8473   3.893   2.741   3.713
 2851TIP3   OH2 8474   3.894   2.370   1.918
 2851TIP3    H1 8475   3.836   2.298   1.955
 2851TIP3    H2 8476   3.968   2.316   1.886
 2852TIP3   OH2 8477   4.553   2.698   3.524
 2852TIP3    H1 8478   4.529   2.627   3.589
 2852TIP3    H2 8479   4.642   2.719   3.550
 2853TIP3   OH2 8480   4.331   2.413   1.829
 2853TIP3    H1 8481   4.373   2.347   1.887
 2853TIP3    H2 8482   4.387   2.410   1.749
 2854TIP3   OH2 8483   3.563   2.236   3.945
 2854TIP3    H1 8484   3.578   2.140   3.950
 2854TIP3    H2 8485   3.475   2.237   3.900
 2855TIP3   OH2 8486   3.547   1.909   2.151
 2855TIP3    H1 8487   3.602   1.848   2.202
 2855TIP3    H2 8488   3.579   1.891   2.061
 2856TIP3   OH2 8489   4.170   2.323   3.718
 2856TIP3    H1 8490   4.126   2.342   3.633
 2856TIP3    H2 8491   4.197   2.229   3.708
 2857TIP3   OH2 8492   4.053   2.089   1.944
 2857TIP3    H1 8493   4.050   2.099   2.042
 2857TIP3    H2 8494   4.047   1.991   1.936
 2858TIP3   OH2 8495   4.664   2.330   3.329
 2858TIP3    H1 8496   4.731   2.376   3.277
 2858TIP3    H2 8497   4.587   2.389   3.315
 2859TIP3   OH2 8498   3.681   1.975   3.927
 2859TIP3    H1 8499   3.753   1.915   3.905
 2859TIP3    H2 8500   3.708   2.006   4.016
 2860TIP3   OH2 8501   3.760   1.788   2.370
 2860TIP3    H1 8502   3.720   1.744   2.446
 2860TIP3    H2 8503   3.788   1.712   2.314
 2861TIP3   OH2 8504   4.018   1.859   3.591
 2861TIP3    H1 8505   3.937   1.914   3.590
 2861TIP3    H2 8506   4.065   1.891   3.511
 2862TIP3   OH2 8507   3.846   1.582   2.202
 2862TIP3    H1 8508   3.819   1.590   2.108
 2862TIP3    H2 8509   3.943   1.589   2.194
 2863TIP3   OH2 8510   4.534   2.258   3.725
 2863TIP3    H1 8511   4.608   2.228   3.670
 2863TIP3    H2 8512   4.528   2.188   3.792
 2864TIP3   OH2 8513   4.671   1.917   1.863
 2864TIP3    H1 8514   4.649   1.871   1.779
 2864TIP3    H2 8515   4.637   2.006   1.840
 2865TIP3   OH2 8516   4.141   1.645   3.713
 2865TIP3    H1 8517   4.138   1.565   3.657
 2865TIP3    H2 8518   4.096   1.711   3.656
 2866TIP3   OH2 8519   4.141   1.430   3.522
 2866TIP3    H1 8520   4.168   1.472   3.438
 2866TIP3    H2 8521   4.047   1.408   3.504
 2867TIP3   OH2 8522   4.170   1.969   3.396
 2867TIP3    H1 8523   4.251   1.977   3.344
 2867TIP3    H2 8524   4.111   2.034   3.352
 2868TIP3   OH2 8525   4.753   1.933   3.778
 2868TIP3    H1 8526   4.799   1.848   3.782
 2868TIP3    H2 8527   4.820   1.990   3.740
 2869TIP3   OH2 8528   4.793   2.189   3.517
 2869TIP3    H1 8529   4.734   2.239   3.456
 2869TIP3    H2 8530   4.880   2.206   3.473
 2870TIP3   OH2 8531   4.020   1.755   3.947
 2870TIP3    H1 8532   3.950   1.688   3.959
 2870TIP3    H2 8533   4.051   1.734   3.857
 2871TIP3   OH2 8534   4.274   1.194   3.588
 2871TIP3    H1 8535   4.224   1.276   3.565
 2871TIP3    H2 8536   4.205   1.126   3.576
 2872TIP3   OH2 8537   4.399   1.699   3.805
 2872TIP3    H1 8538   4.384   1.686   3.900
 2872TIP3    H2 8539   4.310   1.675   3.771
 2873TIP3   OH2 8540   4.639   1.651   3.661
 2873TIP3    H1 8541   4.563   1.650   3.722
 2873TIP3    H2 8542   4.712   1.618   3.717
 2874TIP3   OH2 8543   4.870   1.589   3.811
 2874TIP3    H1 8544   4.881   1.493   3.828
 2874TIP3    H2 8545   4.866   1.627   3.902
 2875TIP3   OH2 8546   3.857   1.537   3.996
 2875TIP3    H1 8547   3.860   1.446   3.961
 2875TIP3    H2 8548   3.892   1.523   4.087
 2876TIP3   OH2 8549   4.369   1.204   3.845
 2876TIP3    H1 8550   4.435   1.132   3.839
 2876TIP3    H2 8551   4.328   1.199   3.757
 2877TIP3   OH2 8552   4.435   1.419   4.005
 2877TIP3    H1 8553   4.413   1.348   3.940
 2877TIP3    H2 8554   4.356   1.478   3.998
 2878TIP3   OH2 8555   3.654   2.651   2.105
 2878TIP3    H1 8556   3.749   2.644   2.086
 2878TIP3    H2 8557   3.625   2.698   2.025
 2879TIP3   OH2 8558   3.134   2.029   2.329
 2879TIP3    H1 8559   3.228   2.051   2.308
 2879TIP3    H2 8560   3.125   1.941   2.286
 2880TIP3   OH2 8561   3.049   2.642   2.733
 2880TIP3    H1 8562   2.981   2.580   2.697
 2880TIP3    H2 8563   3.093   2.585   2.799
 2881TIP3   OH2 8564   3.183   2.495   2.921
 2881TIP3    H1 8565   3.171   2.420   2.981
 2881TIP3    H2 8566   3.240   2.553   2.974
 2882TIP3   OH2 8567   4.915   2.889   2.722
 2882TIP3    H1 8568   4.937   2.930   2.807
 2882TIP3    H2 8569   4.968   2.940   2.660
 2883TIP3   OH2 8570   4.939   2.915   3.004
 2883TIP3    H1 8571   4.896   2.827   2.997
 2883TIP3    H2 8572   5.020   2.891   3.050
 2884TIP3   OH2 8573   4.804   2.103   2.197
 2884TIP3    H1 8574   4.871   2.167   2.167
 2884TIP3    H2 8575   4.848   2.065   2.276
 2885TIP3   OH2 8576   4.932   1.971   2.401
 2885TIP3    H1 8577   4.865   1.929   2.458
 2885TIP3    H2 8578   4.994   2.010   2.465
 2886TIP3   OH2 8579   4.989   2.364   2.836
 2886TIP3    H1 8580   5.037   2.298   2.784
 2886TIP3    H2 8581   4.979   2.437   2.773
 2887TIP3   OH2 8582   4.818   2.663   3.030
 2887TIP3    H1 8583   4.744   2.709   3.075
 2887TIP3    H2 8584   4.770   2.617   2.957
 2888TIP3   OH2 8585   4.870   1.879   2.047
 2888TIP3    H1 8586   4.799   1.880   1.978
 2888TIP3    H2 8587   4.840   1.954   2.101
 2889TIP3   OH2 8588   4.742   1.552   2.001
 2889TIP3    H1 8589   4.698   1.591   1.925
 2889TIP3    H2 8590   4.716   1.457   1.992
 2890TIP3   OH2 8591   4.747   1.828   2.547
 2890TIP3    H1 8592   4.753   1.731   2.539
 2890TIP3    H2 8593   4.732   1.840   2.644
 2891TIP3   OH2 8594   3.372   1.896   3.295
 2891TIP3    H1 8595   3.369   1.868   3.201
 2891TIP3    H2 8596   3.469   1.900   3.310
 2892TIP3   OH2 8597   5.038   2.254   3.407
 2892TIP3    H1 8598   5.107   2.185   3.398
 2892TIP3    H2 8599   5.056   2.309   3.329
 2893TIP3   OH2 8600   5.220   2.057   3.426
 2893TIP3    H1 8601   5.145   2.004   3.460
 2893TIP3    H2 8602   5.293   1.993   3.438
 2894TIP3   OH2 8603   4.684   1.286   1.988
 2894TIP3    H1 8604   4.758   1.254   2.043
 2894TIP3    H2 8605   4.610   1.227   2.010
 2895TIP3   OH2 8606   4.743   1.545   2.443
 2895TIP3    H1 8607   4.783   1.455   2.458
 2895TIP3    H2 8608   4.801   1.576   2.371
 2896TIP3   OH2 8609   4.904   1.717   2.937
 2896TIP3    H1 8610   4.990   1.743   2.896
 2896TIP3    H2 8611   4.918   1.754   3.027
 2897TIP3   OH2 8612   4.974   1.862   3.169
 2897TIP3    H1 8613   4.894   1.896   3.215
 2897TIP3    H2 8614   5.005   1.942   3.122
 2898TIP3   OH2 8615   3.590   1.588   3.972
 2898TIP3    H1 8616   3.688   1.580   3.970
 2898TIP3    H2 8617   3.565   1.501   4.010
 2899TIP3   OH2 8618   5.423   1.452   3.725
 2899TIP3    H1 8619   5.484   1.387   3.682
 2899TIP3    H2 8620   5.395   1.506   3.648
 2900TIP3   OH2 8621   4.851   1.294   2.479
 2900TIP3    H1 8622   4.899   1.277   2.563
 2900TIP3    H2 8623   4.790   1.217   2.478
 2901TIP3   OH2 8624   3.551   1.280   3.300
 2901TIP3    H1 8625   3.613   1.205   3.308
 2901TIP3    H2 8626   3.613   1.354   3.292
 2902TIP3   OH2 8627   3.355   1.553   3.374
 2902TIP3    H1 8628   3.402   1.547   3.288
 2902TIP3    H2 8629   3.378   1.642   3.402
 2903TIP3   OH2 8630   5.295   1.593   3.530
 2903TIP3    H1 8631   5.208   1.633   3.547
 2903TIP3    H2 8632   5.267   1.520   3.471
 2904TIP3   OH2 8633   4.933   1.228   2.113
 2904TIP3    H1 8634   4.972   1.156   2.059
 2904TIP3    H2 8635   4.999   1.299   2.106
 2905TIP3   OH2 8636   3.337   1.057   2.873
 2905TIP3    H1 8637   3.244   1.053   2.900
 2905TIP3    H2 8638   3.333   1.116   2.795
 2906TIP3   OH2 8639   4.498   2.758   2.379
 2906TIP3    H1 8640   4.548   2.746   2.295
 2906TIP3    H2 8641   4.548   2.829   2.422
 2907TIP3   OH2 8642   3.558   1.137   3.688
 2907TIP3    H1 8643   3.506   1.132   3.769
 2907TIP3    H2 8644   3.493   1.176   3.626
 2908TIP3   OH2 8645   3.535   2.594   3.733
 2908TIP3    H1 8646   3.519   2.498   3.735
 2908TIP3    H2 8647   3.578   2.606   3.820
 2909TIP3   OH2 8648   3.772   2.596   3.315
 2909TIP3    H1 8649   3.724   2.664   3.263
 2909TIP3    H2 8650   3.860   2.609   3.273
 2910TIP3   OH2 8651   4.251   2.813   3.446
 2910TIP3    H1 8652   4.247   2.856   3.532
 2910TIP3    H2 8653   4.281   2.886   3.389
 2911TIP3   OH2 8654   4.396   3.000   3.305
 2911TIP3    H1 8655   4.464   2.945   3.264
 2911TIP3    H2 8656   4.448   3.053   3.369
 2912TIP3   OH2 8657   5.193   1.355   3.409
 2912TIP3    H1 8658   5.103   1.349   3.373
 2912TIP3    H2 8659   5.224   1.262   3.398
 2913TIP3   OH2 8660   3.444   2.833   3.400
 2913TIP3    H1 8661   3.370   2.852   3.339
 2913TIP3    H2 8662   3.470   2.926   3.419
 2914TIP3   OH2 8663   3.653   2.790   3.174
 2914TIP3    H1 8664   3.608   2.854   3.230
 2914TIP3    H2 8665   3.673   2.847   3.096
 2915TIP3   OH2 8666   4.115   2.864   2.991
 2915TIP3    H1 8667   4.045   2.884   2.925
 2915TIP3    H2 8668   4.117   2.948   3.042
 2916TIP3   OH2 8669   4.382   2.800   3.042
 2916TIP3    H1 8670   4.287   2.817   3.026
 2916TIP3    H2 8671   4.422   2.879   3.002
 2917TIP3   OH2 8672   4.597   2.994   2.960
 2917TIP3    H1 8673   4.578   3.078   2.913
 2917TIP3    H2 8674   4.616   2.933   2.885
 2918TIP3   OH2 8675   3.360   2.645   3.080
 2918TIP3    H1 8676   3.388   2.624   3.171
 2918TIP3    H2 8677   3.435   2.607   3.030
 2919TIP3   OH2 8678   3.555   2.519   2.937
 2919TIP3    H1 8679   3.576   2.436   2.986
 2919TIP3    H2 8680   3.644   2.560   2.929
 2920TIP3   OH2 8681   3.820   2.612   2.936
 2920TIP3    H1 8682   3.856   2.522   2.928
 2920TIP3    H2 8683   3.857   2.639   3.022
 2921TIP3   OH2 8684   4.402   1.272   3.032
 2921TIP3    H1 8685   4.355   1.202   3.081
 2921TIP3    H2 8686   4.469   1.222   2.983
 2922TIP3   OH2 8687   4.923   1.152   2.936
 2922TIP3    H1 8688   4.959   1.202   2.859
 2922TIP3    H2 8689   4.827   1.167   2.926
 2923TIP3   OH2 8690   5.016   1.250   2.698
 2923TIP3    H1 8691   5.089   1.199   2.656
 2923TIP3    H2 8692   5.049   1.342   2.682
 2924TIP3   OH2 8693   3.647   0.979   3.044
 2924TIP3    H1 8694   3.554   0.947   3.046
 2924TIP3    H2 8695   3.695   0.893   3.040
 2925TIP3   OH2 8696   3.433   0.850   2.694
 2925TIP3    H1 8697   3.462   0.907   2.621
 2925TIP3    H2 8698   3.405   0.916   2.761
 2926TIP3   OH2 8699   4.092   1.009   2.924
 2926TIP3    H1 8700   4.149   1.060   2.864
 2926TIP3    H2 8701   4.109   1.052   3.009
 2927TIP3   OH2 8702   4.641   1.158   2.907
 2927TIP3    H1 8703   4.634   1.122   2.817
 2927TIP3    H2 8704   4.625   1.077   2.962
 2928TIP3   OH2 8705   4.667   1.080   2.470
 2928TIP3    H1 8706   4.580   1.123   2.481
 2928TIP3    H2 8707   4.651   0.995   2.516
 2929TIP3   OH2 8708   3.152   2.419   2.472
 2929TIP3    H1 8709   3.068   2.384   2.438
 2929TIP3    H2 8710   3.138   2.513   2.457
 2930TIP3   OH2 8711   3.552   1.011   2.452
 2930TIP3    H1 8712   3.602   0.946   2.399
 2930TIP3    H2 8713   3.625   1.065   2.490
 2931TIP3   OH2 8714   4.062   1.183   2.554
 2931TIP3    H1 8715   4.123   1.135   2.613
 2931TIP3    H2 8716   4.085   1.275   2.578
 2932TIP3   OH2 8717   3.922   2.608   2.051
 2932TIP3    H1 8718   4.010   2.630   2.016
 2932TIP3    H2 8719   3.900   2.533   1.992
 2933TIP3   OH2 8720   4.643   2.727   2.146
 2933TIP3    H1 8721   4.635   2.629   2.135
 2933TIP3    H2 8722   4.596   2.757   2.066
 2934TIP3   OH2 8723   3.855   1.261   3.936
 2934TIP3    H1 8724   3.819   1.190   3.991
 2934TIP3    H2 8725   3.949   1.260   3.963
 2935TIP3   OH2 8726   4.105   1.258   4.056
 2935TIP3    H1 8727   4.188   1.230   4.014
 2935TIP3    H2 8728   4.092   1.187   4.122
 2936TIP3   OH2 8729   3.229   2.451   2.110
 2936TIP3    H1 8730   3.227   2.466   2.206
 2936TIP3    H2 8731   3.315   2.405   2.098
 2937TIP3   OH2 8732   4.930   1.318   3.842
 2937TIP3    H1 8733   4.949   1.286   3.932
 2937TIP3    H2 8734   5.018   1.313   3.800
 2938TIP3   OH2 8735   4.866   2.860   3.351
 2938TIP3    H1 8736   4.791   2.834   3.293
 2938TIP3    H2 8737   4.852   2.957   3.350
 2939TIP3   OH2 8738   6.135   2.244   2.100
 2939TIP3    H1 8739   6.104   2.334   2.078
 2939TIP3    H2 8740   6.059   2.192   2.066
 2940TIP3   OH2 8741   6.137   2.243   2.479
 2940TIP3    H1 8742   6.164   2.211   2.567
 2940TIP3    H2 8743   6.093   2.165   2.442
 2941TIP3   OH2 8744   5.433   2.140   2.848
 2941TIP3    H1 8745   5.465   2.070   2.908
 2941TIP3    H2 8746   5.514   2.191   2.834
 2942TIP3   OH2 8747   6.385   2.540   2.162
 2942TIP3    H1 8748   6.356   2.474   2.226
 2942TIP3    H2 8749   6.401   2.618   2.217
 2943TIP3   OH2 8750   5.405   2.548   2.573
 2943TIP3    H1 8751   5.396   2.450   2.575
 2943TIP3    H2 8752   5.501   2.557   2.564
 2944TIP3   OH2 8753   5.111   1.751   2.357
 2944TIP3    H1 8754   5.061   1.834   2.371
 2944TIP3    H2 8755   5.042   1.696   2.317
 2945TIP3   OH2 8756   5.172   2.039   2.529
 2945TIP3    H1 8757   5.219   1.960   2.563
 2945TIP3    H2 8758   5.225   2.064   2.453
 2946TIP3   OH2 8759   6.026   3.009   2.179
 2946TIP3    H1 8760   6.072   2.938   2.130
 2946TIP3    H2 8761   6.016   2.969   2.266
 2947TIP3   OH2 8762   5.931   2.469   2.530
 2947TIP3    H1 8763   5.968   2.393   2.481
 2947TIP3    H2 8764   6.016   2.513   2.554
 2948TIP3   OH2 8765   6.944   1.787   2.528
 2948TIP3    H1 8766   6.975   1.871   2.569
 2948TIP3    H2 8767   6.970   1.801   2.435
 2949TIP3   OH2 8768   6.346   1.971   2.561
 2949TIP3    H1 8769   6.387   1.884   2.581
 2949TIP3    H2 8770   6.313   1.955   2.471
 2950TIP3   OH2 8771   5.682   1.629   2.527
 2950TIP3    H1 8772   5.662   1.701   2.464
 2950TIP3    H2 8773   5.636   1.554   2.482
 2951TIP3   OH2 8774   6.376   1.723   2.149
 2951TIP3    H1 8775   6.449   1.704   2.214
 2951TIP3    H2 8776   6.428   1.756   2.074
 2952TIP3   OH2 8777   5.315   1.831   2.633
 2952TIP3    H1 8778   5.398   1.810   2.680
 2952TIP3    H2 8779   5.328   1.775   2.554
 2953TIP3   OH2 8780   5.756   2.029   2.428
 2953TIP3    H1 8781   5.850   2.003   2.440
 2953TIP3    H2 8782   5.717   1.945   2.395
 2954TIP3   OH2 8783   7.018   1.999   2.694
 2954TIP3    H1 8784   6.932   2.042   2.679
 2954TIP3    H2 8785   7.032   2.020   2.787
 2955TIP3   OH2 8786   5.679   1.614   2.962
 2955TIP3    H1 8787   5.619   1.649   2.893
 2955TIP3    H2 8788   5.627   1.632   3.042
 2956TIP3   OH2 8789   6.026   2.464   1.970
 2956TIP3    H1 8790   5.985   2.443   1.885
 2956TIP3    H2 8791   5.981   2.548   1.994
 2957TIP3   OH2 8792   5.786   2.388   2.757
 2957TIP3    H1 8793   5.724   2.454   2.795
 2957TIP3    H2 8794   5.826   2.439   2.683
 2958TIP3   OH2 8795   6.588   1.722   2.320
 2958TIP3    H1 8796   6.576   1.670   2.401
 2958TIP3    H2 8797   6.640   1.798   2.350
 2959TIP3   OH2 8798   5.550   1.727   2.745
 2959TIP3    H1 8799   5.613   1.799   2.768
 2959TIP3    H2 8800   5.597   1.686   2.669
 2960TIP3   OH2 8801   5.613   2.582   2.855
 2960TIP3    H1 8802   5.587   2.667   2.814
 2960TIP3    H2 8803   5.533   2.566   2.910
 2961TIP3   OH2 8804   5.008   2.271   2.089
 2961TIP3    H1 8805   4.966   2.298   2.006
 2961TIP3    H2 8806   5.038   2.357   2.126
 2962TIP3   OH2 8807   6.451   2.787   2.329
 2962TIP3    H1 8808   6.363   2.777   2.371
 2962TIP3    H2 8809   6.440   2.873   2.283
 2963TIP3   OH2 8810   6.737   1.690   2.695
 2963TIP3    H1 8811   6.649   1.715   2.662
 2963TIP3    H2 8812   6.796   1.721   2.623
 2964TIP3   OH2 8813   6.036   1.331   2.676
 2964TIP3    H1 8814   6.020   1.236   2.691
 2964TIP3    H2 8815   5.958   1.370   2.721
 2965TIP3   OH2 8816   6.152   2.835   2.007
 2965TIP3    H1 8817   6.199   2.751   1.985
 2965TIP3    H2 8818   6.213   2.899   1.964
 2966TIP3   OH2 8819   6.292   2.620   1.913
 2966TIP3    H1 8820   6.258   2.542   1.865
 2966TIP3    H2 8821   6.328   2.579   1.994
 2967TIP3   OH2 8822   6.674   2.701   2.674
 2967TIP3    H1 8823   6.658   2.623   2.616
 2967TIP3    H2 8824   6.653   2.776   2.614
 2968TIP3   OH2 8825   5.967   2.096   1.931
 2968TIP3    H1 8826   5.885   2.146   1.910
 2968TIP3    H2 8827   6.010   2.090   1.844
 2969TIP3   OH2 8828   5.924   1.877   1.649
 2969TIP3    H1 8829   5.992   1.930   1.694
 2969TIP3    H2 8830   5.981   1.814   1.601
 2970TIP3   OH2 8831   6.863   2.339   2.527
 2970TIP3    H1 8832   6.783   2.396   2.537
 2970TIP3    H2 8833   6.865   2.327   2.432
 2971TIP3   OH2 8834   6.313   2.178   1.902
 2971TIP3    H1 8835   6.257   2.201   1.980
 2971TIP3    H2 8836   6.396   2.151   1.948
 2972TIP3   OH2 8837   6.548   2.217   2.813
 2972TIP3    H1 8838   6.544   2.300   2.864
 2972TIP3    H2 8839   6.460   2.219   2.770
 2973TIP3   OH2 8840   5.544   2.176   2.320
 2973TIP3    H1 8841   5.501   2.118   2.253
 2973TIP3    H2 8842   5.620   2.121   2.348
 2974TIP3   OH2 8843   5.673   2.585   2.469
 2974TIP3    H1 8844   5.651   2.546   2.383
 2974TIP3    H2 8845   5.763   2.550   2.485
 2975TIP3   OH2 8846   5.682   2.145   2.676
 2975TIP3    H1 8847   5.712   2.122   2.585
 2975TIP3    H2 8848   5.725   2.231   2.692
 2976TIP3   OH2 8849   6.212   2.782   2.451
 2976TIP3    H1 8850   6.194   2.863   2.502
 2976TIP3    H2 8851   6.192   2.710   2.514
 2977TIP3   OH2 8852   5.819   2.702   2.997
 2977TIP3    H1 8853   5.759   2.765   3.043
 2977TIP3    H2 8854   5.754   2.649   2.947
 2978TIP3   OH2 8855   6.153   2.034   1.728
 2978TIP3    H1 8856   6.211   2.095   1.778
 2978TIP3    H2 8857   6.179   2.056   1.635
 2979TIP3   OH2 8858   5.574   2.258   3.101
 2979TIP3    H1 8859   5.577   2.346   3.145
 2979TIP3    H2 8860   5.479   2.239   3.105
 2980TIP3   OH2 8861   5.896   2.715   2.007
 2980TIP3    H1 8862   5.973   2.771   2.022
 2980TIP3    H2 8863   5.834   2.773   1.961
 2981TIP3   OH2 8864   5.614   2.870   3.083
 2981TIP3    H1 8865   5.579   2.871   2.992
 2981TIP3    H2 8866   5.534   2.848   3.136
 2982TIP3   OH2 8867   6.668   1.276   1.776
 2982TIP3    H1 8868   6.586   1.295   1.826
 2982TIP3    H2 8869   6.682   1.360   1.729
 2983TIP3   OH2 8870   5.409   2.018   2.128
 2983TIP3    H1 8871   5.344   2.063   2.069
 2983TIP3    H2 8872   5.371   1.930   2.134
 2984TIP3   OH2 8873   6.470   2.646   1.336
 2984TIP3    H1 8874   6.475   2.738   1.303
 2984TIP3    H2 8875   6.561   2.614   1.318
 2985TIP3   OH2 8876   5.191   2.403   3.034
 2985TIP3    H1 8877   5.125   2.385   2.964
 2985TIP3    H2 8878   5.227   2.314   3.054
 2986TIP3   OH2 8879   5.045   2.593   2.667
 2986TIP3    H1 8880   5.141   2.591   2.655
 2986TIP3    H2 8881   5.033   2.676   2.716
 2987TIP3   OH2 8882   6.911   3.044   2.719
 2987TIP3    H1 8883   6.909   2.948   2.737
 2987TIP3    H2 8884   6.828   3.072   2.765
 2988TIP3   OH2 8885   6.017   2.831   2.855
 2988TIP3    H1 8886   6.016   2.923   2.887
 2988TIP3    H2 8887   5.945   2.792   2.909
 2989TIP3   OH2 8888   5.778   2.960   1.805
 2989TIP3    H1 8889   5.732   2.940   1.722
 2989TIP3    H2 8890   5.743   3.048   1.828
 2990TIP3   OH2 8891   5.215   2.810   2.190
 2990TIP3    H1 8892   5.262   2.800   2.276
 2990TIP3    H2 8893   5.158   2.732   2.192
 2991TIP3   OH2 8894   5.981   2.862   1.445
 2991TIP3    H1 8895   6.040   2.793   1.406
 2991TIP3    H2 8896   6.015   2.868   1.537
 2992TIP3   OH2 8897   6.030   2.910   1.718
 2992TIP3    H1 8898   5.940   2.921   1.757
 2992TIP3    H2 8899   6.076   2.864   1.789
 2993TIP3   OH2 8900   6.801   2.176   2.994
 2993TIP3    H1 8901   6.718   2.188   2.945
 2993TIP3    H2 8902   6.816   2.080   2.983
 2994TIP3   OH2 8903   5.396   2.584   3.021
 2994TIP3    H1 8904   5.446   2.566   3.103
 2994TIP3    H2 8905   5.323   2.520   3.027
 2995TIP3   OH2 8906   5.797   1.407   2.804
 2995TIP3    H1 8907   5.709   1.376   2.775
 2995TIP3    H2 8908   5.771   1.490   2.849
 2996TIP3   OH2 8909   6.330   1.524   2.998
 2996TIP3    H1 8910   6.397   1.495   3.063
 2996TIP3    H2 8911   6.245   1.503   3.043
 2997TIP3   OH2 8912   6.571   1.954   2.918
 2997TIP3    H1 8913   6.519   1.948   3.002
 2997TIP3    H2 8914   6.544   2.040   2.882
 2998TIP3   OH2 8915   6.231   2.083   1.474
 2998TIP3    H1 8916   6.194   2.057   1.388
 2998TIP3    H2 8917   6.310   2.133   1.446
 2999TIP3   OH2 8918   5.944   1.456   1.775
 2999TIP3    H1 8919   5.907   1.452   1.866
 2999TIP3    H2 8920   5.904   1.374   1.738
 3000TIP3   OH2 8921   5.729   1.923   2.824
 3000TIP3    H1 8922   5.677   1.945   2.904
 3000TIP3    H2 8923   5.714   2.003   2.769
 3001TIP3   OH2 8924   5.612   1.810   2.337
 3001TIP3    H1 8925   5.519   1.784   2.354
 3001TIP3    H2 8926   5.625   1.770   2.248
 3002TIP3   OH2 8927   6.105   1.898   2.065
 3002TIP3    H1 8928   6.051   1.967   2.022
 3002TIP3    H2 8929   6.157   1.864   1.990
 3003TIP3   OH2 8930   6.277   2.174   3.150
 3003TIP3    H1 8931   6.256   2.101   3.212
 3003TIP3    H2 8932   6.371   2.188   3.172
 3004TIP3   OH2 8933   6.260   1.926   2.302
 3004TIP3    H1 8934   6.199   1.953   2.231
 3004TIP3    H2 8935   6.294   1.844   2.260
 3005TIP3   OH2 8936   5.547   1.953   3.031
 3005TIP3    H1 8937   5.577   2.015   3.099
 3005TIP3    H2 8938   5.536   1.870   3.082
 3006TIP3   OH2 8939   5.596   1.428   1.740
 3006TIP3    H1 8940   5.589   1.426   1.838
 3006TIP3    H2 8941   5.518   1.482   1.717
 3007TIP3   OH2 8942   5.140   1.474   2.614
 3007TIP3    H1 8943   5.217   1.505   2.664
 3007TIP3    H2 8944   5.177   1.442   2.530
 3008TIP3   OH2 8945   5.114   1.455   2.132
 3008TIP3    H1 8946   5.159   1.492   2.054
 3008TIP3    H2 8947   5.052   1.529   2.151
 3009TIP3   OH2 8948   6.274   2.170   2.727
 3009TIP3    H1 8949   6.305   2.098   2.668
 3009TIP3    H2 8950   6.242   2.116   2.803
 3010TIP3   OH2 8951   5.942   1.636   2.399
 3010TIP3    H1 8952   5.857   1.629   2.447
 3010TIP3    H2 8953   6.006   1.630   2.471
 3011TIP3   OH2 8954   5.373   1.686   2.407
 3011TIP3    H1 8955   5.279   1.694   2.378
 3011TIP3    H2 8956   5.396   1.595   2.382
 3012TIP3   OH2 8957   5.643   1.687   2.094
 3012TIP3    H1 8958   5.737   1.696   2.069
 3012TIP3    H2 8959   5.595   1.706   2.010
 3013TIP3   OH2 8960   6.431   1.707   2.600
 3013TIP3    H1 8961   6.396   1.720   2.691
 3013TIP3    H2 8962   6.365   1.645   2.564
 3014TIP3   OH2 8963   5.484   1.718   1.874
 3014TIP3    H1 8964   5.412   1.673   1.826
 3014TIP3    H2 8965   5.536   1.753   1.798
 3015TIP3   OH2 8966   6.601   3.396   2.819
 3015TIP3    H1 8967   6.600   3.420   2.724
 3015TIP3    H2 8968   6.680   3.444   2.851
 3016TIP3   OH2 8969   5.556   2.506   3.243
 3016TIP3    H1 8970   5.639   2.536   3.286
 3016TIP3    H2 8971   5.495   2.508   3.318
 3017TIP3   OH2 8972   6.023   1.961   2.497
 3017TIP3    H1 8973   6.092   1.919   2.444
 3017TIP3    H2 8974   6.031   1.916   2.583
 3018TIP3   OH2 8975   5.548   1.448   2.372
 3018TIP3    H1 8976   5.513   1.369   2.419
 3018TIP3    H2 8977   5.598   1.408   2.299
 3019TIP3   OH2 8978   5.999   1.855   2.786
 3019TIP3    H1 8979   5.909   1.891   2.798
 3019TIP3    H2 8980   6.056   1.918   2.835
 3020TIP3   OH2 8981   5.735   2.248   1.881
 3020TIP3    H1 8982   5.664   2.181   1.869
 3020TIP3    H2 8983   5.716   2.281   1.972
 3021TIP3   OH2 8984   6.633   2.485   2.508
 3021TIP3    H1 8985   6.654   2.527   2.423
 3021TIP3    H2 8986   6.548   2.439   2.489
 3022TIP3   OH2 8987   6.194   1.559   1.743
 3022TIP3    H1 8988   6.097   1.540   1.750
 3022TIP3    H2 8989   6.200   1.654   1.766
 3023TIP3   OH2 8990   6.138   2.567   2.876
 3023TIP3    H1 8991   6.158   2.543   2.967
 3023TIP3    H2 8992   6.096   2.655   2.885
 3024TIP3   OH2 8993   6.263   1.808   1.847
 3024TIP3    H1 8994   6.360   1.814   1.859
 3024TIP3    H2 8995   6.243   1.886   1.792
 3025TIP3   OH2 8996   5.430   2.271   2.556
 3025TIP3    H1 8997   5.464   2.242   2.469
 3025TIP3    H2 8998   5.467   2.204   2.616
 3026TIP3   OH2 8999   5.882   2.397   1.703
 3026TIP3    H1 9000   5.834   2.483   1.708
 3026TIP3    H2 9001   5.827   2.342   1.763
 3027TIP3   OH2 9002   5.306   2.191   3.172
 3027TIP3    H1 9003   5.326   2.172   3.265
 3027TIP3    H2 9004   5.240   2.123   3.151
 3028TIP3   OH2 9005   6.034   2.303   3.189
 3028TIP3    H1 9006   5.975   2.245   3.139
 3028TIP3    H2 9007   6.122   2.269   3.160
 3029TIP3   OH2 9008   6.296   2.826   2.772
 3029TIP3    H1 9009   6.200   2.823   2.785
 3029TIP3    H2 9010   6.324   2.876   2.851
 3030TIP3   OH2 9011   6.705   1.897   1.684
 3030TIP3    H1 9012   6.643   1.852   1.621
 3030TIP3    H2 9013   6.705   1.985   1.640
 3031TIP3   OH2 9014   6.924   2.754   2.763
 3031TIP3    H1 9015   6.826   2.749   2.755
 3031TIP3    H2 9016   6.950   2.725   2.673
 3032TIP3   OH2 9017   6.409   2.716   1.595
 3032TIP3    H1 9018   6.376   2.642   1.647
 3032TIP3    H2 9019   6.422   2.676   1.506
 3033TIP3   OH2 9020   6.403   2.344   2.430
 3033TIP3    H1 9021   6.309   2.320   2.444
 3033TIP3    H2 9022   6.434   2.264   2.383
 3034TIP3   OH2 9023   5.529   2.574   2.182
 3034TIP3    H1 9024   5.528   2.654   2.127
 3034TIP3    H2 9025   5.435   2.554   2.188
 3035TIP3   OH2 9026   5.093   1.877   1.884
 3035TIP3    H1 9027   5.137   1.961   1.904
 3035TIP3    H2 9028   5.015   1.881   1.944
 3036TIP3   OH2 9029   5.668   2.339   2.127
 3036TIP3    H1 9030   5.633   2.428   2.144
 3036TIP3    H2 9031   5.630   2.288   2.200
 3037TIP3   OH2 9032   5.797   2.917   2.651
 3037TIP3    H1 9033   5.838   2.989   2.600
 3037TIP3    H2 9034   5.874   2.882   2.698
 3038TIP3   OH2 9035   5.449   2.812   2.033
 3038TIP3    H1 9036   5.363   2.820   2.079
 3038TIP3    H2 9037   5.480   2.905   2.035
 3039TIP3   OH2 9038   6.186   2.549   2.608
 3039TIP3    H1 9039   6.176   2.549   2.706
 3039TIP3    H2 9040   6.265   2.494   2.597
 3040TIP3   OH2 9041   6.155   2.444   1.491
 3040TIP3    H1 9042   6.208   2.420   1.570
 3040TIP3    H2 9043   6.066   2.418   1.520
 3041TIP3   OH2 9044   6.436   3.083   2.657
 3041TIP3    H1 9045   6.356   3.027   2.651
 3041TIP3    H2 9046   6.419   3.148   2.585
 3042TIP3   OH2 9047   6.503   2.925   1.306
 3042TIP3    H1 9048   6.542   3.002   1.261
 3042TIP3    H2 9049   6.422   2.965   1.342
 3043TIP3   OH2 9050   5.519   1.696   3.178
 3043TIP3    H1 9051   5.422   1.698   3.189
 3043TIP3    H2 9052   5.546   1.635   3.248
 3044TIP3   OH2 9053   6.319   2.383   1.711
 3044TIP3    H1 9054   6.309   2.314   1.779
 3044TIP3    H2 9055   6.415   2.377   1.694
 3045TIP3   OH2 9056   5.237   2.780   2.809
 3045TIP3    H1 9057   5.289   2.704   2.838
 3045TIP3    H2 9058   5.270   2.850   2.867
 3046TIP3   OH2 9059   5.527   2.425   1.491
 3046TIP3    H1 9060   5.540   2.333   1.460
 3046TIP3    H2 9061   5.506   2.411   1.585
 3047TIP3   OH2 9062   5.472   2.429   1.764
 3047TIP3    H1 9063   5.545   2.402   1.821
 3047TIP3    H2 9064   5.477   2.527   1.770
 3048TIP3   OH2 9065   5.209   2.124   1.966
 3048TIP3    H1 9066   5.142   2.168   2.022
 3048TIP3    H2 9067   5.222   2.192   1.898
 3049TIP3   OH2 9068   6.356   1.760   2.859
 3049TIP3    H1 9069   6.437   1.796   2.900
 3049TIP3    H2 9070   6.341   1.679   2.912
 3050TIP3   OH2 9071   6.237   1.511   2.024
 3050TIP3    H1 9072   6.221   1.531   1.930
 3050TIP3    H2 9073   6.273   1.595   2.058
 3051TIP3   OH2 9074   5.740   2.627   1.714
 3051TIP3    H1 9075   5.652   2.654   1.748
 3051TIP3    H2 9076   5.752   2.690   1.642
 3052TIP3   OH2 9077   5.930   1.691   2.128
 3052TIP3    H1 9078   5.993   1.764   2.110
 3052TIP3    H2 9079   5.932   1.686   2.225
 3053TIP3   OH2 9080   6.195   2.010   2.933
 3053TIP3    H1 9081   6.216   2.063   3.012
 3053TIP3    H2 9082   6.249   1.930   2.946
 3054TIP3   OH2 9083   6.073   1.421   2.233
 3054TIP3    H1 9084   6.059   1.502   2.284
 3054TIP3    H2 9085   6.131   1.453   2.160
 3055TIP3   OH2 9086   5.483   2.702   1.778
 3055TIP3    H1 9087   5.451   2.771   1.716
 3055TIP3    H2 9088   5.465   2.745   1.865
 3056TIP3   OH2 9089   5.579   1.416   2.017
 3056TIP3    H1 9090   5.584   1.506   2.054
 3056TIP3    H2 9091   5.673   1.389   2.023
 3057TIP3   OH2 9092   6.837   1.908   2.911
 3057TIP3    H1 9093   6.740   1.909   2.922
 3057TIP3    H2 9094   6.844   1.862   2.827
 3058TIP3   OH2 9095   6.487   2.103   2.301
 3058TIP3    H1 9096   6.409   2.046   2.312
 3058TIP3    H2 9097   6.556   2.054   2.350
 3059TIP3   OH2 9098   5.199   2.332   1.772
 3059TIP3    H1 9099   5.265   2.403   1.780
 3059TIP3    H2 9100   5.244   2.277   1.704
 3060TIP3   OH2 9101   5.143   1.608   1.907
 3060TIP3    H1 9102   5.143   1.705   1.902
 3060TIP3    H2 9103   5.062   1.585   1.860
 3061TIP3   OH2 9104   6.456   3.058   2.251
 3061TIP3    H1 9105   6.412   3.105   2.177
 3061TIP3    H2 9106   6.549   3.078   2.229
 3062TIP3   OH2 9107   5.531   1.329   2.779
 3062TIP3    H1 9108   5.501   1.296   2.692
 3062TIP3    H2 9109   5.520   1.250   2.836
 3063TIP3   OH2 9110   5.072   2.548   2.160
 3063TIP3    H1 9111   4.998   2.577   2.215
 3063TIP3    H2 9112   5.046   2.586   2.073
 3064TIP3   OH2 9113   5.228   3.086   3.233
 3064TIP3    H1 9114   5.315   3.087   3.278
 3064TIP3    H2 9115   5.210   2.991   3.228
 3065TIP3   OH2 9116   5.707   3.053   3.276
 3065TIP3    H1 9117   5.802   3.036   3.283
 3065TIP3    H2 9118   5.683   2.994   3.202
 3066TIP3   OH2 9119   5.693   2.629   1.407
 3066TIP3    H1 9120   5.638   2.554   1.440
 3066TIP3    H2 9121   5.766   2.581   1.365
 3067TIP3   OH2 9122   6.349   2.957   3.008
 3067TIP3    H1 9123   6.339   2.889   3.078
 3067TIP3    H2 9124   6.426   3.009   3.040
 3068TIP3   OH2 9125   6.128   2.672   1.298
 3068TIP3    H1 9126   6.178   2.613   1.357
 3068TIP3    H2 9127   6.183   2.674   1.218
 3069TIP3   OH2 9128   5.350   2.487   3.435
 3069TIP3    H1 9129   5.377   2.393   3.431
 3069TIP3    H2 9130   5.273   2.489   3.375
 3070TIP3   OH2 9131   5.334   2.146   1.624
 3070TIP3    H1 9132   5.389   2.112   1.696
 3070TIP3    H2 9133   5.400   2.150   1.551
 3071TIP3   OH2 9134   5.964   2.578   3.205
 3071TIP3    H1 9135   5.924   2.596   3.118
 3071TIP3    H2 9136   5.995   2.486   3.197
 3072TIP3   OH2 9137   5.844   2.343   1.432
 3072TIP3    H1 9138   5.846   2.354   1.529
 3072TIP3    H2 9139   5.844   2.245   1.426
 3073TIP3   OH2 9140   6.458   2.586   2.810
 3073TIP3    H1 9141   6.532   2.634   2.769
 3073TIP3    H2 9142   6.385   2.649   2.798
 3074TIP3   OH2 9143   5.475   2.231   3.414
 3074TIP3    H1 9144   5.550   2.175   3.388
 3074TIP3    H2 9145   5.504   2.261   3.502
 3075TIP3   OH2 9146   5.546   2.048   1.849
 3075TIP3    H1 9147   5.516   2.003   1.929
 3075TIP3    H2 9148   5.581   1.973   1.795
 3076TIP3   OH2 9149   5.812   2.112   3.075
 3076TIP3    H1 9150   5.734   2.172   3.076
 3076TIP3    H2 9151   5.862   2.146   2.998
 3077TIP3   OH2 9152   5.642   1.842   1.687
 3077TIP3    H1 9153   5.617   1.846   1.593
 3077TIP3    H2 9154   5.740   1.845   1.680
 3078TIP3   OH2 9155   6.328   2.515   3.210
 3078TIP3    H1 9156   6.409   2.492   3.163
 3078TIP3    H2 9157   6.325   2.448   3.280
 3079TIP3   OH2 9158   6.474   2.166   1.349
 3079TIP3    H1 9159   6.448   2.123   1.265
 3079TIP3    H2 9160   6.439   2.257   1.331
 3080TIP3   OH2 9161   5.935   1.901   3.201
 3080TIP3    H1 9162   5.935   1.821   3.144
 3080TIP3    H2 9163   5.891   1.967   3.143
 3081TIP3   OH2 9164   5.938   1.688   3.009
 3081TIP3    H1 9165   5.965   1.728   2.924
 3081TIP3    H2 9166   5.844   1.665   2.990
 3082TIP3   OH2 9167   5.965   2.224   2.883
 3082TIP3    H1 9168   6.047   2.231   2.833
 3082TIP3    H2 9169   5.908   2.290   2.838
 3083TIP3   OH2 9170   6.546   2.190   3.262
 3083TIP3    H1 9171   6.596   2.107   3.274
 3083TIP3    H2 9172   6.614   2.250   3.230
 3084TIP3   OH2 9173   6.588   2.442   2.998
 3084TIP3    H1 9174   6.530   2.495   2.939
 3084TIP3    H2 9175   6.676   2.463   2.958
 3085TIP3   OH2 9176   5.812   2.014   3.432
 3085TIP3    H1 9177   5.744   1.944   3.445
 3085TIP3    H2 9178   5.847   1.989   3.344
 3086TIP3   OH2 9179   6.070   1.451   3.075
 3086TIP3    H1 9180   6.020   1.533   3.052
 3086TIP3    H2 9181   6.001   1.382   3.063
 3087TIP3   OH2 9182   6.196   1.955   3.291
 3087TIP3    H1 9183   6.184   1.943   3.387
 3087TIP3    H2 9184   6.106   1.931   3.261
 3088TIP3   OH2 9185   6.434   1.904   3.146
 3088TIP3    H1 9186   6.360   1.906   3.209
 3088TIP3    H2 9187   6.508   1.874   3.203
 3089TIP3   OH2 9188   6.664   1.845   3.296
 3089TIP3    H1 9189   6.676   1.749   3.315
 3089TIP3    H2 9190   6.660   1.884   3.386
 3090TIP3   OH2 9191   5.652   1.794   3.484
 3090TIP3    H1 9192   5.657   1.703   3.448
 3090TIP3    H2 9193   5.689   1.780   3.574
 3091TIP3   OH2 9194   6.164   1.460   3.332
 3091TIP3    H1 9195   6.231   1.389   3.326
 3091TIP3    H2 9196   6.124   1.455   3.243
 3092TIP3   OH2 9197   6.230   1.675   3.492
 3092TIP3    H1 9198   6.209   1.605   3.427
 3092TIP3    H2 9199   6.152   1.734   3.485
 3093TIP3   OH2 9200   5.451   2.907   1.593
 3093TIP3    H1 9201   5.546   2.901   1.572
 3093TIP3    H2 9202   5.420   2.953   1.513
 3094TIP3   OH2 9203   4.931   2.286   1.809
 3094TIP3    H1 9204   5.025   2.307   1.794
 3094TIP3    H2 9205   4.924   2.197   1.768
 3095TIP3   OH2 9206   4.847   2.900   2.219
 3095TIP3    H1 9207   4.779   2.838   2.183
 3095TIP3    H2 9208   4.890   2.842   2.286
 3096TIP3   OH2 9209   4.981   2.752   2.408
 3096TIP3    H1 9210   4.966   2.677   2.468
 3096TIP3    H2 9211   5.032   2.812   2.465
 3097TIP3   OH2 9212   6.710   3.145   2.209
 3097TIP3    H1 9213   6.734   3.181   2.296
 3097TIP3    H2 9214   6.767   3.196   2.149
 3098TIP3   OH2 9215   6.737   3.171   2.489
 3098TIP3    H1 9216   6.694   3.083   2.486
 3098TIP3    H2 9217   6.812   3.150   2.548
 3099TIP3   OH2 9218   6.783   2.846   3.062
 3099TIP3    H1 9219   6.710   2.856   3.127
 3099TIP3    H2 9220   6.825   2.935   3.067
 3100TIP3   OH2 9221   6.598   2.360   1.685
 3100TIP3    H1 9222   6.664   2.424   1.651
 3100TIP3    H2 9223   6.646   2.322   1.761
 3101TIP3   OH2 9224   6.729   2.232   1.896
 3101TIP3    H1 9225   6.656   2.178   1.934
 3101TIP3    H2 9226   6.750   2.288   1.971
 3102TIP3   OH2 9227   6.792   2.607   2.310
 3102TIP3    H1 9228   6.822   2.582   2.222
 3102TIP3    H2 9229   6.759   2.696   2.291
 3103TIP3   OH2 9230   6.613   2.920   2.514
 3103TIP3    H1 9231   6.544   2.965   2.567
 3103TIP3    H2 9232   6.558   2.876   2.445
 3104TIP3   OH2 9233   6.668   2.135   1.537
 3104TIP3    H1 9234   6.600   2.132   1.466
 3104TIP3    H2 9235   6.634   2.212   1.587
 3105TIP3   OH2 9236   6.535   1.807   1.493
 3105TIP3    H1 9237   6.499   1.849   1.414
 3105TIP3    H2 9238   6.511   1.713   1.476
 3106TIP3   OH2 9239   6.544   2.084   2.032
 3106TIP3    H1 9240   6.549   1.987   2.022
 3106TIP3    H2 9241   6.529   2.094   2.129
 3107TIP3   OH2 9242   5.168   2.154   2.782
 3107TIP3    H1 9243   5.166   2.125   2.688
 3107TIP3    H2 9244   5.265   2.158   2.797
 3108TIP3   OH2 9245   6.831   2.509   2.889
 3108TIP3    H1 9246   6.904   2.443   2.881
 3108TIP3    H2 9247   6.861   2.580   2.830
 3109TIP3   OH2 9248   7.016   2.314   2.905
 3109TIP3    H1 9249   6.942   2.263   2.945
 3109TIP3    H2 9250   7.089   2.251   2.920
 3110TIP3   OH2 9251   6.483   1.538   1.469
 3110TIP3    H1 9252   6.553   1.512   1.532
 3110TIP3    H2 9253   6.406   1.484   1.495
 3111TIP3   OH2 9254   6.541   1.803   1.929
 3111TIP3    H1 9255   6.579   1.713   1.945
 3111TIP3    H2 9256   6.598   1.831   1.855
 3112TIP3   OH2 9257   6.699   1.973   2.425
 3112TIP3    H1 9258   6.783   2.002   2.383
 3112TIP3    H2 9259   6.712   2.009   2.515
 3113TIP3   OH2 9260   6.766   2.116   2.657
 3113TIP3    H1 9261   6.688   2.148   2.706
 3113TIP3    H2 9262   6.800   2.199   2.618
 3114TIP3   OH2 9263   5.386   1.846   3.459
 3114TIP3    H1 9264   5.483   1.838   3.457
 3114TIP3    H2 9265   5.362   1.759   3.496
 3115TIP3   OH2 9266   7.219   1.708   3.211
 3115TIP3    H1 9267   7.279   1.643   3.169
 3115TIP3    H2 9268   7.191   1.763   3.135
 3116TIP3   OH2 9269   6.645   1.551   1.967
 3116TIP3    H1 9270   6.694   1.534   2.050
 3116TIP3    H2 9271   6.584   1.474   1.965
 3117TIP3   OH2 9272   5.347   1.537   2.789
 3117TIP3    H1 9273   5.408   1.461   2.795
 3117TIP3    H2 9274   5.410   1.610   2.779
 3118TIP3   OH2 9275   5.151   1.811   2.860
 3118TIP3    H1 9276   5.198   1.801   2.775
 3118TIP3    H2 9277   5.179   1.899   2.887
 3119TIP3   OH2 9278   7.092   1.849   3.017
 3119TIP3    H1 9279   7.006   1.891   3.039
 3119TIP3    H2 9280   7.060   1.777   2.958
 3120TIP3   OH2 9281   6.728   1.487   1.603
 3120TIP3    H1 9282   6.768   1.415   1.549
 3120TIP3    H2 9283   6.794   1.558   1.594
 3121TIP3   OH2 9284   5.133   1.318   2.363
 3121TIP3    H1 9285   5.039   1.311   2.385
 3121TIP3    H2 9286   5.131   1.374   2.282
 3122TIP3   OH2 9287   6.295   3.016   1.867
 3122TIP3    H1 9288   6.342   3.001   1.782
 3122TIP3    H2 9289   6.349   3.085   1.907
 3123TIP3   OH2 9290   5.354   1.395   3.175
 3123TIP3    H1 9291   5.301   1.389   3.256
 3123TIP3    H2 9292   5.288   1.432   3.113
 3124TIP3   OH2 9293   5.394   2.820   3.250
 3124TIP3    H1 9294   5.302   2.793   3.236
 3124TIP3    H2 9295   5.404   2.809   3.346
 3125TIP3   OH2 9296   5.570   2.853   2.798
 3125TIP3    H1 9297   5.522   2.929   2.758
 3125TIP3    H2 9298   5.657   2.867   2.754
 3126TIP3   OH2 9299   6.016   3.098   2.936
 3126TIP3    H1 9300   6.058   3.099   3.025
 3126TIP3    H2 9301   6.082   3.149   2.884
 3127TIP3   OH2 9302   6.195   3.250   2.795
 3127TIP3    H1 9303   6.267   3.199   2.754
 3127TIP3    H2 9304   6.246   3.307   2.856
 3128TIP3   OH2 9305   6.989   1.612   2.895
 3128TIP3    H1 9306   6.899   1.605   2.861
 3128TIP3    H2 9307   7.020   1.519   2.884
 3129TIP3   OH2 9308   5.248   3.111   2.822
 3129TIP3    H1 9309   5.158   3.142   2.797
 3129TIP3    H2 9310   5.255   3.150   2.910
 3130TIP3   OH2 9311   5.484   3.089   2.680
 3130TIP3    H1 9312   5.397   3.102   2.724
 3130TIP3    H2 9313   5.465   3.121   2.590
 3131TIP3   OH2 9314   5.910   3.118   2.477
 3131TIP3    H1 9315   5.840   3.136   2.412
 3131TIP3    H2 9316   5.922   3.206   2.519
 3132TIP3   OH2 9317   6.178   3.056   2.528
 3132TIP3    H1 9318   6.084   3.074   2.509
 3132TIP3    H2 9319   6.221   3.133   2.487
 3133TIP3   OH2 9320   6.388   3.250   2.444
 3133TIP3    H1 9321   6.372   3.334   2.396
 3133TIP3    H2 9322   6.412   3.189   2.371
 3134TIP3   OH2 9323   5.160   2.905   2.566
 3134TIP3    H1 9324   5.185   2.879   2.658
 3134TIP3    H2 9325   5.231   2.859   2.516
 3135TIP3   OH2 9326   5.353   2.775   2.424
 3135TIP3    H1 9327   5.369   2.691   2.473
 3135TIP3    H2 9328   5.443   2.812   2.417
 3136TIP3   OH2 9329   5.619   2.871   2.426
 3136TIP3    H1 9330   5.650   2.780   2.412
 3136TIP3    H2 9331   5.663   2.891   2.511
 3137TIP3   OH2 9332   6.197   1.529   2.520
 3137TIP3    H1 9333   6.151   1.459   2.569
 3137TIP3    H2 9334   6.262   1.478   2.468
 3138TIP3   OH2 9335   6.720   1.409   2.422
 3138TIP3    H1 9336   6.755   1.460   2.346
 3138TIP3    H2 9337   6.624   1.422   2.412
 3139TIP3   OH2 9338   6.813   1.507   2.183
 3139TIP3    H1 9339   6.886   1.457   2.142
 3139TIP3    H2 9340   6.846   1.599   2.168
 3140TIP3   OH2 9341   5.442   1.238   2.532
 3140TIP3    H1 9342   5.350   1.206   2.532
 3140TIP3    H2 9343   5.490   1.152   2.527
 3141TIP3   OH2 9344   5.229   1.103   2.176
 3141TIP3    H1 9345   5.261   1.161   2.105
 3141TIP3    H2 9346   5.202   1.168   2.244
 3142TIP3   OH2 9347   5.883   1.277   2.405
 3142TIP3    H1 9348   5.947   1.323   2.349
 3142TIP3    H2 9349   5.909   1.304   2.493
 3143TIP3   OH2 9350   6.439   1.414   2.392
 3143TIP3    H1 9351   6.428   1.378   2.304
 3143TIP3    H2 9352   6.423   1.335   2.449
 3144TIP3   OH2 9353   6.464   1.337   1.957
 3144TIP3    H1 9354   6.376   1.379   1.968
 3144TIP3    H2 9355   6.449   1.251   2.003
 3145TIP3   OH2 9356   4.948   2.675   1.958
 3145TIP3    H1 9357   4.863   2.641   1.925
 3145TIP3    H2 9358   4.935   2.770   1.939
 3146TIP3   OH2 9359   5.347   1.263   1.942
 3146TIP3    H1 9360   5.396   1.200   1.885
 3146TIP3    H2 9361   5.420   1.317   1.978
 3147TIP3   OH2 9362   5.856   1.445   2.036
 3147TIP3    H1 9363   5.906   1.384   2.092
 3147TIP3    H2 9364   5.888   1.532   2.069
 3148TIP3   OH2 9365   5.719   2.867   1.539
 3148TIP3    H1 9366   5.808   2.888   1.503
 3148TIP3    H2 9367   5.697   2.791   1.480
 3149TIP3   OH2 9368   6.438   2.983   1.633
 3149TIP3    H1 9369   6.432   2.885   1.623
 3149TIP3    H2 9370   6.392   3.012   1.552
 3150TIP3   OH2 9371   5.651   1.517   3.422
 3150TIP3    H1 9372   5.616   1.446   3.478
 3150TIP3    H2 9373   5.745   1.517   3.449
 3151TIP3   OH2 9374   5.900   1.514   3.541
 3151TIP3    H1 9375   5.985   1.489   3.501
 3151TIP3    H2 9376   5.889   1.443   3.608
 3152TIP3   OH2 9377   5.024   2.704   1.596
 3152TIP3    H1 9378   5.022   2.726   1.690
 3152TIP3    H2 9379   5.112   2.661   1.586
 3153TIP3   OH2 9380   6.726   1.574   3.328
 3153TIP3    H1 9381   6.744   1.543   3.420
 3153TIP3    H2 9382   6.815   1.569   3.287
 3154TIP3   OH2 9383   6.665   3.128   2.818
 3154TIP3    H1 9384   6.586   3.096   2.771
 3154TIP3    H2 9385   6.645   3.223   2.824
 3155TIP3   OH2 9386   7.928   2.515   1.601
 3155TIP3    H1 9387   7.898   2.596   1.558
 3155TIP3    H2 9388   7.873   2.449   1.555
 3156TIP3   OH2 9389   7.925   2.507   1.960
 3156TIP3    H1 9390   7.932   2.464   2.047
 3156TIP3    H2 9391   7.910   2.431   1.900
 3157TIP3   OH2 9392   8.189   2.793   1.663
 3157TIP3    H1 9393   8.128   2.740   1.717
 3157TIP3    H2 9394   8.194   2.876   1.714
 3158TIP3   OH2 9395   7.203   2.817   2.056
 3158TIP3    H1 9396   7.192   2.722   2.054
 3158TIP3    H2 9397   7.300   2.826   2.049
 3159TIP3   OH2 9398   6.904   2.014   1.848
 3159TIP3    H1 9399   6.847   2.093   1.854
 3159TIP3    H2 9400   6.843   1.950   1.809
 3160TIP3   OH2 9401   7.083   2.329   2.009
 3160TIP3    H1 9402   7.062   2.245   2.057
 3160TIP3    H2 9403   7.025   2.320   1.932
 3161TIP3   OH2 9404   7.817   3.270   1.673
 3161TIP3    H1 9405   7.861   3.200   1.620
 3161TIP3    H2 9406   7.813   3.230   1.760
 3162TIP3   OH2 9407   7.726   2.724   2.015
 3162TIP3    H1 9408   7.766   2.648   1.969
 3162TIP3    H2 9409   7.809   2.769   2.041
 3163TIP3   OH2 9410   7.471   1.891   2.015
 3163TIP3    H1 9411   7.460   1.959   1.945
 3163TIP3    H2 9412   7.430   1.815   1.969
 3164TIP3   OH2 9413   7.118   2.086   2.125
 3164TIP3    H1 9414   7.198   2.053   2.172
 3164TIP3    H2 9415   7.125   2.031   2.044
 3165TIP3   OH2 9416   7.551   2.281   1.925
 3165TIP3    H1 9417   7.646   2.261   1.938
 3165TIP3    H2 9418   7.520   2.198   1.883
 3166TIP3   OH2 9419   7.473   1.870   2.450
 3166TIP3    H1 9420   7.412   1.906   2.383
 3166TIP3    H2 9421   7.423   1.889   2.531
 3167TIP3   OH2 9422   7.829   2.727   1.451
 3167TIP3    H1 9423   7.775   2.689   1.380
 3167TIP3    H2 9424   7.778   2.807   1.474
 3168TIP3   OH2 9425   7.568   2.631   2.237
 3168TIP3    H1 9426   7.516   2.701   2.281
 3168TIP3    H2 9427   7.620   2.683   2.173
 3169TIP3   OH2 9428   7.347   1.984   2.235
 3169TIP3    H1 9429   7.412   2.053   2.259
 3169TIP3    H2 9430   7.393   1.945   2.157
 3170TIP3   OH2 9431   7.408   2.837   2.338
 3170TIP3    H1 9432   7.385   2.925   2.303
 3170TIP3    H2 9433   7.331   2.822   2.397
 3171TIP3   OH2 9434   6.802   2.527   1.579
 3171TIP3    H1 9435   6.763   2.546   1.491
 3171TIP3    H2 9436   6.830   2.615   1.609
 3172TIP3   OH2 9437   8.220   3.042   1.801
 3172TIP3    H1 9438   8.134   3.039   1.849
 3172TIP3    H2 9439   8.218   3.133   1.767
 3173TIP3   OH2 9440   7.817   1.615   2.158
 3173TIP3    H1 9441   7.838   1.523   2.184
 3173TIP3    H2 9442   7.734   1.632   2.209
 3174TIP3   OH2 9443   7.939   3.103   1.496
 3174TIP3    H1 9444   7.990   3.019   1.484
 3174TIP3    H2 9445   8.000   3.163   1.448
 3175TIP3   OH2 9446   8.088   2.893   1.426
 3175TIP3    H1 9447   8.058   2.828   1.361
 3175TIP3    H2 9448   8.113   2.837   1.502
 3176TIP3   OH2 9449   7.763   2.367   1.423
 3176TIP3    H1 9450   7.677   2.400   1.391
 3176TIP3    H2 9451   7.808   2.344   1.339
 3177TIP3   OH2 9452   7.724   2.147   1.163
 3177TIP3    H1 9453   7.811   2.186   1.185
 3177TIP3    H2 9454   7.747   2.057   1.140
 3178TIP3   OH2 9455   7.326   2.413   1.835
 3178TIP3    H1 9456   7.282   2.373   1.757
 3178TIP3    H2 9457   7.416   2.372   1.832
 3179TIP3   OH2 9458   7.466   2.831   1.958
 3179TIP3    H1 9459   7.455   2.804   1.866
 3179TIP3    H2 9460   7.557   2.801   1.977
 3180TIP3   OH2 9461   7.420   2.414   2.124
 3180TIP3    H1 9462   7.493   2.379   2.067
 3180TIP3    H2 9463   7.467   2.487   2.171
 3181TIP3   OH2 9464   7.990   3.037   1.939
 3181TIP3    H1 9465   7.981   3.121   1.989
 3181TIP3    H2 9466   7.979   2.969   2.008
 3182TIP3   OH2 9467   7.615   2.962   2.481
 3182TIP3    H1 9468   7.555   3.022   2.531
 3182TIP3    H2 9469   7.550   2.906   2.434
 3183TIP3   OH2 9470   7.953   2.283   1.230
 3183TIP3    H1 9471   8.025   2.315   1.286
 3183TIP3    H2 9472   7.971   2.335   1.150
 3184TIP3   OH2 9473   7.369   2.515   2.585
 3184TIP3    H1 9474   7.374   2.603   2.628
 3184TIP3    H2 9475   7.274   2.495   2.598
 3185TIP3   OH2 9476   7.691   2.973   1.493
 3185TIP3    H1 9477   7.768   3.029   1.510
 3185TIP3    H2 9478   7.630   3.033   1.448
 3186TIP3   OH2 9479   7.409   3.127   2.571
 3186TIP3    H1 9480   7.372   3.127   2.481
 3186TIP3    H2 9481   7.329   3.106   2.625
 3187TIP3   OH2 9482   7.190   2.284   1.636
 3187TIP3    H1 9483   7.137   2.319   1.562
 3187TIP3    H2 9484   7.187   2.189   1.618
 3188TIP3   OH2 9485   6.986   2.657   2.518
 3188TIP3    H1 9486   6.919   2.631   2.452
 3188TIP3    H2 9487   7.022   2.571   2.548
 3189TIP3   OH2 9488   6.847   2.852   2.154
 3189TIP3    H1 9489   6.943   2.865   2.149
 3189TIP3    H2 9490   6.820   2.931   2.203
 3190TIP3   OH2 9491   7.811   3.090   2.337
 3190TIP3    H1 9492   7.813   3.181   2.373
 3190TIP3    H2 9493   7.742   3.049   2.393
 3191TIP3   OH2 9494   7.573   3.217   1.292
 3191TIP3    H1 9495   7.527   3.198   1.209
 3191TIP3    H2 9496   7.540   3.306   1.315
 3192TIP3   OH2 9497   7.011   3.067   1.675
 3192TIP3    H1 9498   7.058   3.058   1.761
 3192TIP3    H2 9499   6.954   2.989   1.678
 3193TIP3   OH2 9500   7.765   3.152   0.946
 3193TIP3    H1 9501   7.803   3.069   0.908
 3193TIP3    H2 9502   7.801   3.149   1.037
 3194TIP3   OH2 9503   7.824   3.162   1.212
 3194TIP3    H1 9504   7.734   3.175   1.249
 3194TIP3    H2 9505   7.870   3.123   1.288
 3195TIP3   OH2 9506   7.193   2.840   2.506
 3195TIP3    H1 9507   7.243   2.826   2.589
 3195TIP3    H2 9508   7.119   2.777   2.516
 3196TIP3   OH2 9509   7.585   1.663   2.295
 3196TIP3    H1 9510   7.495   1.635   2.266
 3196TIP3    H2 9511   7.561   1.747   2.340
 3197TIP3   OH2 9512   8.109   1.747   2.556
 3197TIP3    H1 9513   8.133   1.753   2.650
 3197TIP3    H2 9514   8.012   1.735   2.562
 3198TIP3   OH2 9515   7.693   1.746   1.243
 3198TIP3    H1 9516   7.679   1.741   1.339
 3198TIP3    H2 9517   7.742   1.665   1.226
 3199TIP3   OH2 9518   7.522   2.188   2.305
 3199TIP3    H1 9519   7.471   2.197   2.389
 3199TIP3    H2 9520   7.505   2.274   2.264
 3200TIP3   OH2 9521   7.408   2.075   1.822
 3200TIP3    H1 9522   7.320   2.032   1.821
 3200TIP3    H2 9523   7.443   2.040   1.736
 3201TIP3   OH2 9524   7.936   2.167   1.523
 3201TIP3    H1 9525   7.856   2.222   1.521
 3201TIP3    H2 9526   7.931   2.127   1.436
 3202TIP3   OH2 9527   8.057   2.434   2.634
 3202TIP3    H1 9528   8.041   2.364   2.700
 3202TIP3    H2 9529   8.153   2.443   2.636
 3203TIP3   OH2 9530   7.988   2.232   1.795
 3203TIP3    H1 9531   7.969   2.208   1.702
 3203TIP3    H2 9532   8.064   2.172   1.814
 3204TIP3   OH2 9533   7.350   2.194   2.515
 3204TIP3    H1 9534   7.361   2.271   2.572
 3204TIP3    H2 9535   7.339   2.120   2.578
 3205TIP3   OH2 9536   7.363   1.675   1.220
 3205TIP3    H1 9537   7.391   1.664   1.312
 3205TIP3    H2 9538   7.301   1.750   1.228
 3206TIP3   OH2 9539   6.937   1.732   2.100
 3206TIP3    H1 9540   7.016   1.761   2.149
 3206TIP3    H2 9541   6.972   1.698   2.016
 3207TIP3   OH2 9542   6.909   1.711   1.624
 3207TIP3    H1 9543   6.952   1.747   1.543
 3207TIP3    H2 9544   6.846   1.783   1.641
 3208TIP3   OH2 9545   8.026   2.412   2.211
 3208TIP3    H1 9546   8.062   2.335   2.166
 3208TIP3    H2 9547   8.015   2.374   2.301
 3209TIP3   OH2 9548   7.724   1.871   1.889
 3209TIP3    H1 9549   7.650   1.881   1.951
 3209TIP3    H2 9550   7.802   1.866   1.946
 3210TIP3   OH2 9551   7.169   1.942   1.898
 3210TIP3    H1 9552   7.076   1.947   1.865
 3210TIP3    H2 9553   7.198   1.853   1.872
 3211TIP3   OH2 9554   8.374   3.709   2.319
 3211TIP3    H1 9555   8.355   3.710   2.223
 3211TIP3    H2 9556   8.455   3.656   2.319
 3212TIP3   OH2 9557   7.355   2.764   2.726
 3212TIP3    H1 9558   7.435   2.792   2.774
 3212TIP3    H2 9559   7.291   2.762   2.800
 3213TIP3   OH2 9560   7.810   2.224   1.998
 3213TIP3    H1 9561   7.875   2.213   1.924
 3213TIP3    H2 9562   7.835   2.153   2.058
 3214TIP3   OH2 9563   7.338   1.710   1.860
 3214TIP3    H1 9564   7.314   1.624   1.899
 3214TIP3    H2 9565   7.388   1.684   1.781
 3215TIP3   OH2 9566   7.797   2.108   2.285
 3215TIP3    H1 9567   7.709   2.151   2.283
 3215TIP3    H2 9568   7.854   2.174   2.329
 3216TIP3   OH2 9569   7.520   2.511   1.363
 3216TIP3    H1 9570   7.453   2.439   1.355
 3216TIP3    H2 9571   7.507   2.538   1.457
 3217TIP3   OH2 9572   7.907   2.820   2.366
 3217TIP3    H1 9573   7.961   2.800   2.443
 3217TIP3    H2 9574   7.884   2.913   2.378
 3218TIP3   OH2 9575   7.679   2.654   1.187
 3218TIP3    H1 9576   7.630   2.739   1.194
 3218TIP3    H2 9577   7.623   2.596   1.244
 3219TIP3   OH2 9578   7.104   2.449   2.657
 3219TIP3    H1 9579   7.130   2.438   2.751
 3219TIP3    H2 9580   7.036   2.380   2.647
 3220TIP3   OH2 9581   7.823   2.563   2.677
 3220TIP3    H1 9582   7.766   2.500   2.630
 3220TIP3    H2 9583   7.912   2.530   2.651
 3221TIP3   OH2 9584   8.096   3.077   2.253
 3221TIP3    H1 9585   7.999   3.076   2.257
 3221TIP3    H2 9586   8.114   3.129   2.335
 3222TIP3   OH2 9587   8.188   2.560   1.918
 3222TIP3    H1 9588   8.092   2.564   1.939
 3222TIP3    H2 9589   8.184   2.509   1.836
 3223TIP3   OH2 9590   7.323   2.830   1.671
 3223TIP3    H1 9591   7.328   2.911   1.617
 3223TIP3    H2 9592   7.228   2.813   1.670
 3224TIP3   OH2 9593   6.886   2.136   1.367
 3224TIP3    H1 9594   6.933   2.218   1.390
 3224TIP3    H2 9595   6.812   2.137   1.431
 3225TIP3   OH2 9596   7.461   2.594   1.616
 3225TIP3    H1 9597   7.427   2.685   1.631
 3225TIP3    H2 9598   7.428   2.547   1.693
 3226TIP3   OH2 9599   7.594   3.172   2.136
 3226TIP3    H1 9600   7.636   3.246   2.087
 3226TIP3    H2 9601   7.669   3.138   2.187
 3227TIP3   OH2 9602   7.245   3.068   1.521
 3227TIP3    H1 9603   7.159   3.077   1.565
 3227TIP3    H2 9604   7.276   3.162   1.522
 3228TIP3   OH2 9605   7.979   2.803   2.099
 3228TIP3    H1 9606   7.964   2.808   2.196
 3228TIP3    H2 9607   8.053   2.741   2.098
 3229TIP3   OH2 9608   7.885   2.718   0.992
 3229TIP3    H1 9609   7.965   2.711   1.047
 3229TIP3    H2 9610   7.817   2.687   1.055
 3230TIP3   OH2 9611   8.202   3.357   2.161
 3230TIP3    H1 9612   8.143   3.285   2.133
 3230TIP3    H2 9613   8.204   3.411   2.080
 3231TIP3   OH2 9614   7.316   1.950   2.667
 3231TIP3    H1 9615   7.220   1.954   2.681
 3231TIP3    H2 9616   7.345   1.891   2.738
 3232TIP3   OH2 9617   7.036   3.034   2.296
 3232TIP3    H1 9618   7.090   2.964   2.335
 3232TIP3    H2 9619   7.058   3.108   2.354
 3233TIP3   OH2 9620   7.313   2.682   0.975
 3233TIP3    H1 9621   7.340   2.591   0.949
 3233TIP3    H2 9622   7.300   2.670   1.071
 3234TIP3   OH2 9623   7.269   2.686   1.249
 3234TIP3    H1 9624   7.344   2.653   1.301
 3234TIP3    H2 9625   7.276   2.783   1.260
 3235TIP3   OH2 9626   7.003   2.380   1.451
 3235TIP3    H1 9627   6.936   2.424   1.507
 3235TIP3    H2 9628   7.018   2.449   1.383
 3236TIP3   OH2 9629   7.535   2.882   1.200
 3236TIP3    H1 9630   7.448   2.911   1.235
 3236TIP3    H2 9631   7.549   2.949   1.132
 3237TIP3   OH2 9632   8.004   2.257   2.431
 3237TIP3    H1 9633   8.006   2.321   2.505
 3237TIP3    H2 9634   8.069   2.192   2.462
 3238TIP3   OH2 9635   7.861   1.681   1.712
 3238TIP3    H1 9636   7.845   1.743   1.786
 3238TIP3    H2 9637   7.941   1.720   1.675
 3239TIP3   OH2 9638   7.280   2.960   1.266
 3239TIP3    H1 9639   7.247   3.028   1.203
 3239TIP3    H2 9640   7.261   3.003   1.352
 3240TIP3   OH2 9641   7.381   1.656   1.498
 3240TIP3    H1 9642   7.382   1.753   1.516
 3240TIP3    H2 9643   7.475   1.638   1.515
 3241TIP3   OH2 9644   6.999   2.590   1.256
 3241TIP3    H1 9645   7.067   2.659   1.265
 3241TIP3    H2 9646   7.044   2.531   1.192
 3242TIP3   OH2 9647   6.928   1.864   1.403
 3242TIP3    H1 9648   6.936   1.960   1.387
 3242TIP3    H2 9649   6.866   1.835   1.336
 3243TIP3   OH2 9650   8.262   3.318   1.727
 3243TIP3    H1 9651   8.215   3.357   1.650
 3243TIP3    H2 9652   8.348   3.301   1.687
 3244TIP3   OH2 9653   7.321   1.586   2.267
 3244TIP3    H1 9654   7.295   1.551   2.179
 3244TIP3    H2 9655   7.314   1.507   2.324
 3245TIP3   OH2 9656   6.869   2.805   1.649
 3245TIP3    H1 9657   6.792   2.834   1.700
 3245TIP3    H2 9658   6.845   2.842   1.561
 3246TIP3   OH2 9659   7.023   3.345   2.718
 3246TIP3    H1 9660   7.109   3.345   2.765
 3246TIP3    H2 9661   7.003   3.250   2.717
 3247TIP3   OH2 9662   7.505   3.311   2.761
 3247TIP3    H1 9663   7.599   3.290   2.770
 3247TIP3    H2 9664   7.480   3.251   2.688
 3248TIP3   OH2 9665   7.487   2.883   0.894
 3248TIP3    H1 9666   7.429   2.811   0.928
 3248TIP3    H2 9667   7.563   2.830   0.863
 3249TIP3   OH2 9668   8.124   3.200   2.489
 3249TIP3    H1 9669   8.117   3.136   2.563
 3249TIP3    H2 9670   8.191   3.264   2.522
 3250TIP3   OH2 9671   7.851   2.929   0.834
 3250TIP3    H1 9672   7.879   2.853   0.890
 3250TIP3    H2 9673   7.918   2.926   0.762
 3251TIP3   OH2 9674   7.155   2.751   2.918
 3251TIP3    H1 9675   7.170   2.655   2.926
 3251TIP3    H2 9676   7.067   2.753   2.875
 3252TIP3   OH2 9677   7.131   2.400   1.111
 3252TIP3    H1 9678   7.181   2.360   1.184
 3252TIP3    H2 9679   7.202   2.408   1.044
 3253TIP3   OH2 9680   7.759   2.837   2.692
 3253TIP3    H1 9681   7.724   2.853   2.603
 3253TIP3    H2 9682   7.793   2.745   2.685
 3254TIP3   OH2 9683   7.617   2.598   0.921
 3254TIP3    H1 9684   7.635   2.608   1.016
 3254TIP3    H2 9685   7.633   2.501   0.911
 3255TIP3   OH2 9686   8.197   2.799   2.297
 3255TIP3    H1 9687   8.282   2.812   2.253
 3255TIP3    H2 9688   8.166   2.890   2.309
 3256TIP3   OH2 9689   7.273   2.483   2.898
 3256TIP3    H1 9690   7.348   2.427   2.878
 3256TIP3    H2 9691   7.298   2.518   2.986
 3257TIP3   OH2 9692   7.338   2.304   1.348
 3257TIP3    H1 9693   7.341   2.243   1.423
 3257TIP3    H2 9694   7.375   2.244   1.278
 3258TIP3   OH2 9695   7.610   2.371   2.560
 3258TIP3    H1 9696   7.530   2.428   2.561
 3258TIP3    H2 9697   7.659   2.404   2.482
 3259TIP3   OH2 9698   7.442   2.134   1.171
 3259TIP3    H1 9699   7.415   2.065   1.109
 3259TIP3    H2 9700   7.539   2.127   1.171
 3260TIP3   OH2 9701   8.119   2.770   2.697
 3260TIP3    H1 9702   8.199   2.736   2.654
 3260TIP3    H2 9703   8.111   2.707   2.770
 3261TIP3   OH2 9704   7.720   2.154   2.689
 3261TIP3    H1 9705   7.727   2.076   2.630
 3261TIP3    H2 9706   7.681   2.221   2.629
 3262TIP3   OH2 9707   7.731   1.943   2.497
 3262TIP3    H1 9708   7.762   1.986   2.415
 3262TIP3    H2 9709   7.637   1.923   2.475
 3263TIP3   OH2 9710   7.763   2.473   2.361
 3263TIP3    H1 9711   7.846   2.485   2.314
 3263TIP3    H2 9712   7.706   2.542   2.321
 3264TIP3   OH2 9713   7.607   2.271   2.918
 3264TIP3    H1 9714   7.539   2.202   2.934
 3264TIP3    H2 9715   7.641   2.244   2.830
 3265TIP3   OH2 9716   7.843   1.703   2.577
 3265TIP3    H1 9717   7.796   1.785   2.550
 3265TIP3    H2 9718   7.775   1.634   2.559
 3266TIP3   OH2 9719   7.974   2.221   2.783
 3266TIP3    H1 9720   7.980   2.203   2.879
 3266TIP3    H2 9721   7.883   2.189   2.765
 3267TIP3   OH2 9722   8.224   2.203   2.680
 3267TIP3    H1 9723   8.137   2.202   2.724
 3267TIP3    H2 9724   8.263   2.122   2.716
 3268TIP3   OH2 9725   7.447   2.050   2.971
 3268TIP3    H1 9726   7.455   1.960   2.936
 3268TIP3    H2 9727   7.484   2.039   3.061
 3269TIP3   OH2 9728   7.976   1.716   2.818
 3269TIP3    H1 9729   8.024   1.632   2.826
 3269TIP3    H2 9730   7.919   1.700   2.740
 3270TIP3   OH2 9731   8.028   1.930   2.981
 3270TIP3    H1 9732   8.007   1.861   2.914
 3270TIP3    H2 9733   7.949   1.988   2.976
 3271TIP3   OH2 9734   7.245   3.163   1.078
 3271TIP3    H1 9735   7.340   3.155   1.060
 3271TIP3    H2 9736   7.218   3.212   0.998
 3272TIP3   OH2 9737   6.730   2.537   1.307
 3272TIP3    H1 9738   6.821   2.565   1.280
 3272TIP3    H2 9739   6.721   2.453   1.258
 3273TIP3   OH2 9740   6.641   3.157   1.707
 3273TIP3    H1 9741   6.574   3.095   1.670
 3273TIP3    H2 9742   6.686   3.099   1.772
 3274TIP3   OH2 9743   6.776   3.010   1.895
 3274TIP3    H1 9744   6.762   2.936   1.955
 3274TIP3    H2 9745   6.829   3.070   1.951
 3275TIP3   OH2 9746   7.181   2.101   2.941
 3275TIP3    H1 9747   7.279   2.095   2.943
 3275TIP3    H2 9748   7.158   2.016   2.982
 3276TIP3   OH2 9749   7.142   1.797   2.279
 3276TIP3    H1 9750   7.199   1.717   2.284
 3276TIP3    H2 9751   7.211   1.865   2.268
 3277TIP3   OH2 9752   6.941   2.080   2.342
 3277TIP3    H1 9753   6.989   2.057   2.261
 3277TIP3    H2 9754   7.008   2.129   2.391
 3278TIP3   OH2 9755   6.929   1.574   1.854
 3278TIP3    H1 9756   6.834   1.567   1.873
 3278TIP3    H2 9757   6.928   1.630   1.773
 3279TIP3   OH2 9758   8.090   3.262   1.339
 3279TIP3    H1 9759   8.166   3.243   1.283
 3279TIP3    H2 9760   8.123   3.335   1.396
 3280TIP3   OH2 9761   7.149   1.651   2.662
 3280TIP3    H1 9762   7.098   1.645   2.744
 3280TIP3    H2 9763   7.082   1.687   2.601
 3281TIP3   OH2 9764   7.189   3.078   2.738
 3281TIP3    H1 9765   7.097   3.050   2.722
 3281TIP3    H2 9766   7.200   3.058   2.831
 3282TIP3   OH2 9767   7.367   3.108   2.284
 3282TIP3    H1 9768   7.319   3.184   2.245
 3282TIP3    H2 9769   7.454   3.122   2.241
 3283TIP3   OH2 9770   7.813   3.355   2.424
 3283TIP3    H1 9771   7.856   3.355   2.512
 3283TIP3    H2 9772   7.879   3.405   2.371
 3284TIP3   OH2 9773   7.989   3.506   2.278
 3284TIP3    H1 9774   8.063   3.454   2.241
 3284TIP3    H2 9775   8.037   3.562   2.342
 3285TIP3   OH2 9776   7.043   3.365   2.309
 3285TIP3    H1 9777   6.954   3.400   2.286
 3285TIP3    H2 9778   7.054   3.403   2.397
 3286TIP3   OH2 9779   7.280   3.345   2.167
 3286TIP3    H1 9780   7.193   3.357   2.211
 3286TIP3    H2 9781   7.261   3.378   2.077
 3287TIP3   OH2 9782   7.704   3.376   1.965
 3287TIP3    H1 9783   7.635   3.397   1.899
 3287TIP3    H2 9784   7.716   3.463   2.008
 3288TIP3   OH2 9785   7.969   3.308   2.005
 3288TIP3    H1 9786   7.876   3.331   1.990
 3288TIP3    H2 9787   8.014   3.390   1.979
 3289TIP3   OH2 9788   8.169   3.497   1.918
 3289TIP3    H1 9789   8.163   3.586   1.877
 3289TIP3    H2 9790   8.189   3.441   1.840
 3290TIP3   OH2 9791   6.956   3.161   2.054
 3290TIP3    H1 9792   6.983   3.136   2.145
 3290TIP3    H2 9793   7.028   3.118   2.003
 3291TIP3   OH2 9794   7.149   3.038   1.908
 3291TIP3    H1 9795   7.167   2.956   1.960
 3291TIP3    H2 9796   7.239   3.076   1.902
 3292TIP3   OH2 9797   7.415   3.129   1.914
 3292TIP3    H1 9798   7.449   3.040   1.898
 3292TIP3    H2 9799   7.459   3.150   1.998
 3293TIP3   OH2 9800   7.962   1.758   1.973
 3293TIP3    H1 9801   7.920   1.708   2.046
 3293TIP3    H2 9802   8.051   1.719   1.973
 3294TIP3   OH2 9803   7.240   1.491   2.020
 3294TIP3    H1 9804   7.147   1.458   2.020
 3294TIP3    H2 9805   7.289   1.406   2.013
 3295TIP3   OH2 9806   7.021   1.360   1.669
 3295TIP3    H1 9807   7.057   1.414   1.596
 3295TIP3    H2 9808   6.996   1.428   1.734
 3296TIP3   OH2 9809   7.680   1.524   1.904
 3296TIP3    H1 9810   7.732   1.571   1.837
 3296TIP3    H2 9811   7.712   1.566   1.985
 3297TIP3   OH2 9812   6.744   2.931   1.447
 3297TIP3    H1 9813   6.661   2.895   1.411
 3297TIP3    H2 9814   6.730   3.025   1.425
 3298TIP3   OH2 9815   7.145   1.513   1.441
 3298TIP3    H1 9816   7.201   1.434   1.430
 3298TIP3    H2 9817   7.211   1.579   1.468
 3299TIP3   OH2 9818   7.657   1.695   1.528
 3299TIP3    H1 9819   7.723   1.695   1.600
 3299TIP3    H2 9820   7.614   1.782   1.544
 3300TIP3   OH2 9821   7.510   3.121   1.029
 3300TIP3    H1 9822   7.596   3.152   0.993
 3300TIP3    H2 9823   7.492   3.047   0.966
 3301TIP3   OH2 9824   7.447   1.773   2.907
 3301TIP3    H1 9825   7.412   1.703   2.964
 3301TIP3    H2 9826   7.541   1.773   2.936
 3302TIP3   OH2 9827   7.695   1.769   3.029
 3302TIP3    H1 9828   7.779   1.742   2.990
 3302TIP3    H2 9829   7.681   1.698   3.096
 3303TIP3   OH2 9830   6.831   2.975   1.085
 3303TIP3    H1 9831   6.814   2.980   1.180
 3303TIP3    H2 9832   6.914   2.924   1.079
 3304TIP3   OH2 9833   8.404   3.336   2.347
 3304TIP3    H1 9834   8.327   3.326   2.288
 3304TIP3    H2 9835   8.437   3.423   2.319
 3305TIP3   OH2 9836   0.385   3.287   3.274
 3305TIP3    H1 9837   0.357   3.379   3.257
 3305TIP3    H2 9838   0.305   3.239   3.248
 3306TIP3   OH2 9839   0.381   3.286   3.657
 3306TIP3    H1 9840   0.414   3.261   3.745
 3306TIP3    H2 9841   0.339   3.203   3.628
 3307TIP3   OH2 9842  -0.300   3.136   4.006
 3307TIP3    H1 9843  -0.261   3.087   4.082
 3307TIP3    H2 9844  -0.255   3.221   4.012
 3308TIP3   OH2 9845   0.624   3.588   3.340
 3308TIP3    H1 9846   0.611   3.521   3.408
 3308TIP3    H2 9847   0.656   3.664   3.393
 3309TIP3   OH2 9848  -0.317   3.590   3.774
 3309TIP3    H1 9849  -0.334   3.495   3.784
 3309TIP3    H2 9850  -0.222   3.590   3.751
 3310TIP3   OH2 9851   7.921   1.083   1.828
 3310TIP3    H1 9852   7.900   1.177   1.833
 3310TIP3    H2 9853   7.850   1.043   1.881
 3311TIP3   OH2 9854  -0.568   3.071   3.678
 3311TIP3    H1 9855  -0.514   2.993   3.703
 3311TIP3    H2 9856  -0.540   3.091   3.588
 3312TIP3   OH2 9857   0.274   4.051   3.357
 3312TIP3    H1 9858   0.320   3.982   3.305
 3312TIP3    H2 9859   0.273   4.011   3.445
 3313TIP3   OH2 9860   0.183   3.513   3.704
 3313TIP3    H1 9861   0.221   3.435   3.660
 3313TIP3    H2 9862   0.267   3.558   3.729
 3314TIP3   OH2 9863   1.192   2.834   3.703
 3314TIP3    H1 9864   1.222   2.915   3.749
 3314TIP3    H2 9865   1.217   2.853   3.611
 3315TIP3   OH2 9866   0.595   3.017   3.738
 3315TIP3    H1 9867   0.636   2.931   3.760
 3315TIP3    H2 9868   0.562   2.999   3.648
 3316TIP3   OH2 9869  -0.075   2.664   3.706
 3316TIP3    H1 9870  -0.091   2.743   3.649
 3316TIP3    H2 9871  -0.128   2.597   3.659
 3317TIP3   OH2 9872   0.614   2.760   3.337
 3317TIP3    H1 9873   0.688   2.741   3.400
 3317TIP3    H2 9874   0.661   2.810   3.270
 3318TIP3   OH2 9875  -0.429   2.868   3.796
 3318TIP3    H1 9876  -0.346   2.861   3.846
 3318TIP3    H2 9877  -0.410   2.810   3.720
 3319TIP3   OH2 9878   0.015   3.081   3.594
 3319TIP3    H1 9879   0.107   3.050   3.612
 3319TIP3    H2 9880  -0.031   2.996   3.577
 3320TIP3   OH2 9881   1.265   3.039   3.874
 3320TIP3    H1 9882   1.181   3.087   3.858
 3320TIP3    H2 9883   1.287   3.070   3.964
 3321TIP3   OH2 9884  -0.074   2.656   4.136
 3321TIP3    H1 9885  -0.132   2.698   4.070
 3321TIP3    H2 9886  -0.125   2.673   4.218
 3322TIP3   OH2 9887   0.278   3.511   3.145
 3322TIP3    H1 9888   0.227   3.487   3.066
 3322TIP3    H2 9889   0.232   3.594   3.171
 3323TIP3   OH2 9890   0.042   3.431   3.930
 3323TIP3    H1 9891  -0.022   3.496   3.966
 3323TIP3    H2 9892   0.084   3.482   3.858
 3324TIP3   OH2 9893   0.834   2.777   3.492
 3324TIP3    H1 9894   0.837   2.710   3.561
 3324TIP3    H2 9895   0.890   2.848   3.530
 3325TIP3   OH2 9896  -0.203   2.773   3.923
 3325TIP3    H1 9897  -0.143   2.848   3.946
 3325TIP3    H2 9898  -0.151   2.732   3.850
 3326TIP3   OH2 9899  -0.127   3.627   4.018
 3326TIP3    H1 9900  -0.158   3.700   3.962
 3326TIP3    H2 9901  -0.198   3.630   4.085
 3327TIP3   OH2 9902   0.694   3.832   3.505
 3327TIP3    H1 9903   0.604   3.823   3.545
 3327TIP3    H2 9904   0.687   3.919   3.461
 3328TIP3   OH2 9905   0.987   2.733   3.872
 3328TIP3    H1 9906   0.900   2.761   3.839
 3328TIP3    H2 9907   1.047   2.763   3.800
 3329TIP3   OH2 9908   0.283   2.376   3.847
 3329TIP3    H1 9909   0.270   2.281   3.870
 3329TIP3    H2 9910   0.207   2.415   3.895
 3330TIP3   OH2 9911   0.397   3.879   3.180
 3330TIP3    H1 9912   0.447   3.796   3.161
 3330TIP3    H2 9913   0.460   3.944   3.139
 3331TIP3   OH2 9914   0.542   3.664   3.088
 3331TIP3    H1 9915   0.497   3.586   3.052
 3331TIP3    H2 9916   0.577   3.629   3.173
 3332TIP3   OH2 9917   0.920   3.746   3.850
 3332TIP3    H1 9918   0.911   3.668   3.791
 3332TIP3    H2 9919   0.906   3.820   3.787
 3333TIP3   OH2 9920   0.213   3.137   3.108
 3333TIP3    H1 9921   0.132   3.189   3.090
 3333TIP3    H2 9922   0.256   3.135   3.020
 3334TIP3   OH2 9923   0.160   2.922   2.822
 3334TIP3    H1 9924   0.229   2.973   2.867
 3334TIP3    H2 9925   0.215   2.850   2.785
 3335TIP3   OH2 9926   1.116   3.379   3.692
 3335TIP3    H1 9927   1.034   3.433   3.699
 3335TIP3    H2 9928   1.147   3.406   3.603
 3336TIP3   OH2 9929   0.562   3.218   3.078
 3336TIP3    H1 9930   0.505   3.245   3.155
 3336TIP3    H2 9931   0.643   3.190   3.125
 3337TIP3   OH2 9932   0.796   3.261   3.992
 3337TIP3    H1 9933   0.795   3.343   4.045
 3337TIP3    H2 9934   0.710   3.268   3.946
 3338TIP3   OH2 9935  -0.199   3.228   3.502
 3338TIP3    H1 9936  -0.246   3.168   3.439
 3338TIP3    H2 9937  -0.122   3.172   3.526
 3339TIP3   OH2 9938  -0.068   3.630   3.642
 3339TIP3    H1 9939  -0.091   3.588   3.558
 3339TIP3    H2 9940   0.021   3.594   3.660
 3340TIP3   OH2 9941  -0.048   3.187   3.843
 3340TIP3    H1 9942  -0.021   3.173   3.750
 3340TIP3    H2 9943  -0.012   3.276   3.863
 3341TIP3   OH2 9944   0.452   3.828   3.626
 3341TIP3    H1 9945   0.443   3.907   3.682
 3341TIP3    H2 9946   0.439   3.755   3.690
 3342TIP3   OH2 9947   0.075   3.740   4.171
 3342TIP3    H1 9948   0.016   3.808   4.213
 3342TIP3    H2 9949   0.010   3.691   4.117
 3343TIP3   OH2 9950   0.395   3.081   2.906
 3343TIP3    H1 9951   0.454   3.141   2.957
 3343TIP3    H2 9952   0.424   3.102   2.813
 3344TIP3   OH2 9953  -0.179   3.306   4.269
 3344TIP3    H1 9954  -0.174   3.381   4.331
 3344TIP3    H2 9955  -0.271   3.313   4.241
 3345TIP3   OH2 9956   0.144   3.759   3.181
 3345TIP3    H1 9957   0.224   3.812   3.197
 3345TIP3    H2 9958   0.084   3.824   3.141
 3346TIP3   OH2 9959  -0.115   3.934   4.234
 3346TIP3    H1 9960  -0.146   3.921   4.142
 3346TIP3    H2 9961  -0.200   3.930   4.282
 3347TIP3   OH2 9962   0.940   2.363   2.971
 3347TIP3    H1 9963   0.860   2.330   3.017
 3347TIP3    H2 9964   0.902   2.382   2.885
 3348TIP3   OH2 9965  -0.342   3.077   3.326
 3348TIP3    H1 9966  -0.394   3.139   3.271
 3348TIP3    H2 9967  -0.392   2.996   3.313
 3349TIP3   OH2 9968   0.716   3.687   2.501
 3349TIP3    H1 9969   0.725   3.784   2.487
 3349TIP3    H2 9970   0.809   3.658   2.490
 3350TIP3   OH2 9971   1.158   4.088   3.894
 3350TIP3    H1 9972   1.158   3.992   3.911
 3350TIP3    H2 9973   1.076   4.114   3.942
 3351TIP3   OH2 9974   0.263   3.879   4.028
 3351TIP3    H1 9975   0.263   3.970   4.064
 3351TIP3    H2 9976   0.196   3.835   4.085
 3352TIP3   OH2 9977   0.026   4.005   2.983
 3352TIP3    H1 9978  -0.019   3.988   2.898
 3352TIP3    H2 9979  -0.007   4.093   3.008
 3353TIP3   OH2 9980   0.227   3.905   2.623
 3353TIP3    H1 9981   0.289   3.838   2.587
 3353TIP3    H2 9982   0.260   3.916   2.714
 3354TIP3   OH2 9983   0.277   3.954   2.893
 3354TIP3    H1 9984   0.189   3.963   2.935
 3354TIP3    H2 9985   0.328   3.914   2.965
 3355TIP3   OH2 9986   1.049   3.220   4.172
 3355TIP3    H1 9987   0.968   3.231   4.120
 3355TIP3    H2 9988   1.066   3.124   4.162
 3356TIP3   OH2 9989  -0.306   3.682   4.213
 3356TIP3    H1 9990  -0.261   3.647   4.293
 3356TIP3    H2 9991  -0.379   3.618   4.207
 3357TIP3   OH2 9992   0.045   2.451   3.982
 3357TIP3    H1 9993  -0.043   2.420   3.955
 3357TIP3    H2 9994   0.020   2.534   4.027
 3358TIP3   OH2 9995   0.580   2.567   4.174
 3358TIP3    H1 9996   0.648   2.541   4.239
 3358TIP3    H2 9997   0.496   2.548   4.221
 3359TIP3   OH2 9998   0.815   2.995   4.091
 3359TIP3    H1 9999   0.767   2.992   4.177
 3359TIP3    H210000   0.794   3.085   4.058
 3360TIP3   OH210001   0.481   3.135   2.658
 3360TIP3    H110002   0.457   3.091   2.574
 3360TIP3    H210003   0.558   3.186   2.629
 3361TIP3   OH210004  -0.028   2.968   4.000
 3361TIP3    H110005  -0.069   2.999   4.082
 3361TIP3    H210006  -0.038   3.048   3.942
 3362TIP3   OH210007  -0.142   2.864   3.539
 3362TIP3    H110008  -0.236   2.837   3.539
 3362TIP3    H210009  -0.120   2.853   3.443
 3363TIP3   OH210010   0.357   2.944   3.242
 3363TIP3    H110011   0.301   3.014   3.202
 3363TIP3    H210012   0.412   2.917   3.166
 3364TIP3   OH210013   0.526   3.218   4.326
 3364TIP3    H110014   0.505   3.145   4.389
 3364TIP3    H210015   0.619   3.235   4.348
 3365TIP3   OH210016   0.506   2.970   3.482
 3365TIP3    H110017   0.447   2.998   3.409
 3365TIP3    H210018   0.536   2.884   3.446
 3366TIP3   OH210019  -0.205   2.994   4.228
 3366TIP3    H110020  -0.161   3.052   4.292
 3366TIP3    H210021  -0.205   2.908   4.273
 3367TIP3   OH210022  -0.616   2.540   3.796
 3367TIP3    H110023  -0.539   2.557   3.855
 3367TIP3    H210024  -0.584   2.472   3.737
 3368TIP3   OH210025   0.515   3.215   3.902
 3368TIP3    H110026   0.550   3.143   3.844
 3368TIP3    H210027   0.488   3.162   3.980
 3369TIP3   OH210028   0.190   2.693   3.578
 3369TIP3    H110029   0.108   2.677   3.630
 3369TIP3    H210030   0.259   2.674   3.644
 3370TIP3   OH210031  -0.380   2.725   3.569
 3370TIP3    H110032  -0.476   2.738   3.547
 3370TIP3    H210033  -0.367   2.630   3.554
 3371TIP3   OH210034  -0.075   2.806   3.286
 3371TIP3    H110035   0.019   2.782   3.279
 3371TIP3    H210036  -0.117   2.751   3.218
 3372TIP3   OH210037   0.676   2.754   3.775
 3372TIP3    H110038   0.643   2.765   3.867
 3372TIP3    H210039   0.613   2.689   3.740
 3373TIP3   OH210040   0.848   4.442   3.995
 3373TIP3    H110041   0.850   4.464   3.900
 3373TIP3    H210042   0.930   4.487   4.027
 3374TIP3   OH210043  -0.208   3.552   4.439
 3374TIP3    H110044  -0.121   3.578   4.474
 3374TIP3    H210045  -0.248   3.514   4.519
 3375TIP3   OH210046   0.272   3.006   3.674
 3375TIP3    H110047   0.342   2.963   3.623
 3375TIP3    H210048   0.279   2.962   3.761
 3376TIP3   OH210049  -0.207   2.473   3.529
 3376TIP3    H110050  -0.199   2.386   3.569
 3376TIP3    H210051  -0.123   2.479   3.481
 3377TIP3   OH210052   0.246   2.900   3.964
 3377TIP3    H110053   0.158   2.940   3.976
 3377TIP3    H210054   0.305   2.961   4.012
 3378TIP3   OH210055  -0.009   3.297   3.057
 3378TIP3    H110056  -0.072   3.221   3.051
 3378TIP3    H210057  -0.029   3.329   3.148
 3379TIP3   OH210058   0.885   3.529   3.685
 3379TIP3    H110059   0.909   3.579   3.604
 3379TIP3    H210060   0.800   3.487   3.660
 3380TIP3   OH210061   0.425   2.617   2.947
 3380TIP3    H110062   0.332   2.626   2.920
 3380TIP3    H210063   0.456   2.709   2.947
 3381TIP3   OH210064   0.383   3.609   4.053
 3381TIP3    H110065   0.411   3.586   4.142
 3381TIP3    H210066   0.345   3.698   4.064
 3382TIP3   OH210067   0.530   2.872   3.014
 3382TIP3    H110068   0.614   2.917   3.004
 3382TIP3    H210069   0.471   2.932   2.963
 3383TIP3   OH210070  -0.333   3.315   3.727
 3383TIP3    H110071  -0.288   3.283   3.646
 3383TIP3    H210072  -0.303   3.250   3.793
 3384TIP3   OH210073   0.129   3.442   2.872
 3384TIP3    H110074   0.082   3.529   2.880
 3384TIP3    H210075   0.078   3.388   2.936
 3385TIP3   OH210076   0.284   3.347   4.364
 3385TIP3    H110077   0.228   3.290   4.310
 3385TIP3    H210078   0.373   3.315   4.339
 3386TIP3   OH210079   0.543   3.872   3.948
 3386TIP3    H110080   0.447   3.869   3.963
 3386TIP3    H210081   0.572   3.921   4.027
 3387TIP3   OH210082   1.171   3.798   3.940
 3387TIP3    H110083   1.073   3.793   3.932
 3387TIP3    H210084   1.197   3.768   3.849
 3388TIP3   OH210085   0.649   3.761   2.764
 3388TIP3    H110086   0.631   3.691   2.828
 3388TIP3    H210087   0.667   3.712   2.682
 3389TIP3   OH210088   0.648   3.392   3.603
 3389TIP3    H110089   0.556   3.366   3.617
 3389TIP3    H210090   0.683   3.311   3.560
 3390TIP3   OH210091  -0.220   3.615   3.349
 3390TIP3    H110092  -0.222   3.699   3.300
 3390TIP3    H210093  -0.309   3.612   3.386
 3391TIP3   OH210094  -0.079   3.383   3.301
 3391TIP3    H110095  -0.120   3.470   3.318
 3391TIP3    H210096  -0.115   3.331   3.376
 3392TIP3   OH210097   0.053   3.963   3.825
 3392TIP3    H110098   0.097   4.034   3.776
 3392TIP3    H210099   0.127   3.926   3.876
 3393TIP3   OH210100  -0.310   3.858   3.210
 3393TIP3    H110101  -0.396   3.874   3.252
 3393TIP3    H210102  -0.271   3.949   3.211
 3394TIP3   OH210103   0.435   3.595   3.785
 3394TIP3    H110104   0.425   3.593   3.883
 3394TIP3    H210105   0.517   3.544   3.774
 3395TIP3   OH210106   0.407   3.486   2.669
 3395TIP3    H110107   0.465   3.462   2.745
 3395TIP3    H210108   0.321   3.463   2.708
 3396TIP3   OH210109   0.682   4.130   3.837
 3396TIP3    H110110   0.604   4.072   3.829
 3396TIP3    H210111   0.666   4.193   3.763
 3397TIP3   OH210112   0.749   3.963   2.487
 3397TIP3    H110113   0.791   4.036   2.439
 3397TIP3    H210114   0.669   4.009   2.519
 3398TIP3   OH210115  -0.222   2.738   4.362
 3398TIP3    H110116  -0.309   2.756   4.401
 3398TIP3    H210117  -0.186   2.673   4.425
 3399TIP3   OH210118   0.570   3.420   2.882
 3399TIP3    H110119   0.559   3.357   2.955
 3399TIP3    H210120   0.668   3.419   2.873
 3400TIP3   OH210121  -0.227   3.463   2.657
 3400TIP3    H110122  -0.150   3.406   2.646
 3400TIP3    H210123  -0.241   3.460   2.755
 3401TIP3   OH210124  -0.256   3.476   2.926
 3401TIP3    H110125  -0.210   3.441   3.003
 3401TIP3    H210126  -0.260   3.572   2.946
 3402TIP3   OH210127  -0.518   3.266   3.193
 3402TIP3    H110128  -0.614   3.271   3.199
 3402TIP3    H210129  -0.504   3.326   3.116
 3403TIP3   OH210130   0.604   2.804   4.035
 3403TIP3    H110131   0.685   2.844   4.072
 3403TIP3    H210132   0.593   2.724   4.090
 3404TIP3   OH210133   0.471   2.560   3.211
 3404TIP3    H110134   0.464   2.580   3.116
 3404TIP3    H210135   0.522   2.636   3.246
 3405TIP3   OH210136  -0.010   3.673   2.886
 3405TIP3    H110137  -0.097   3.696   2.925
 3405TIP3    H210138   0.003   3.749   2.828
 3406TIP3   OH210139   0.189   2.734   3.304
 3406TIP3    H110140   0.253   2.807   3.288
 3406TIP3    H210141   0.192   2.728   3.403
 3407TIP3   OH210142   0.444   3.054   4.110
 3407TIP3    H110143   0.466   3.107   4.189
 3407TIP3    H210144   0.500   2.975   4.123
 3408TIP3   OH210145   0.334   2.483   3.428
 3408TIP3    H110146   0.331   2.563   3.483
 3408TIP3    H210147   0.387   2.514   3.350
 3409TIP3   OH210148  -0.269   3.747   2.957
 3409TIP3    H110149  -0.302   3.815   2.895
 3409TIP3    H210150  -0.287   3.788   3.044
 3410TIP3   OH210151   1.083   2.954   4.092
 3410TIP3    H110152   0.985   2.951   4.096
 3410TIP3    H210153   1.098   2.914   4.005
 3411TIP3   OH210154   0.734   3.153   3.479
 3411TIP3    H110155   0.659   3.092   3.495
 3411TIP3    H210156   0.807   3.107   3.526
 3412TIP3   OH210157  -0.538   3.401   2.963
 3412TIP3    H110158  -0.485   3.477   2.934
 3412TIP3    H210159  -0.561   3.358   2.880
 3413TIP3   OH210160   0.703   4.104   3.428
 3413TIP3    H110161   0.662   4.151   3.353
 3413TIP3    H210162   0.798   4.123   3.408
 3414TIP3   OH210163  -0.219   2.365   3.955
 3414TIP3    H110164  -0.247   2.309   3.882
 3414TIP3    H210165  -0.222   2.299   4.029
 3415TIP3   OH210166  -0.037   4.116   4.432
 3415TIP3    H110167   0.049   4.086   4.462
 3415TIP3    H210168  -0.055   4.052   4.361
 3416TIP3   OH210169  -0.060   3.677   2.584
 3416TIP3    H110170  -0.115   3.603   2.617
 3416TIP3    H210171   0.016   3.628   2.547
 3417TIP3   OH210172   0.596   4.003   4.185
 3417TIP3    H110173   0.587   3.933   4.255
 3417TIP3    H210174   0.675   4.052   4.216
 3418TIP3   OH210175   0.382   3.717   2.495
 3418TIP3    H110176   0.429   3.656   2.554
 3418TIP3    H210177   0.437   3.717   2.415
 3419TIP3   OH210178   0.214   3.622   4.382
 3419TIP3    H110179   0.177   3.640   4.294
 3419TIP3    H210180   0.247   3.530   4.374
 3420TIP3   OH210181   0.060   3.383   2.616
 3420TIP3    H110182   0.088   3.398   2.709
 3420TIP3    H210183   0.083   3.288   2.607
 3421TIP3   OH210184   0.705   3.632   3.985
 3421TIP3    H110185   0.782   3.675   3.943
 3421TIP3    H210186   0.636   3.699   3.972
 3422TIP3   OH210187  -0.289   3.277   4.578
 3422TIP3    H110188  -0.232   3.200   4.571
 3422TIP3    H210189  -0.270   3.306   4.669
 3423TIP3   OH210190  -0.177   3.082   3.042
 3423TIP3    H110191  -0.244   3.068   3.111
 3423TIP3    H210192  -0.197   3.010   2.982
 3424TIP3   OH210193   0.055   3.150   4.246
 3424TIP3    H110194  -0.018   3.215   4.249
 3424TIP3    H210195   0.111   3.187   4.174
 3425TIP3   OH210196   0.577   3.559   4.385
 3425TIP3    H110197   0.661   3.539   4.342
 3425TIP3    H210198   0.575   3.494   4.457
 3426TIP3   OH210199   0.710   3.217   2.523
 3426TIP3    H110200   0.689   3.172   2.439
 3426TIP3    H210201   0.678   3.308   2.501
 3427TIP3   OH210202   0.183   2.945   4.378
 3427TIP3    H110203   0.185   2.865   4.321
 3427TIP3    H210204   0.140   3.010   4.319
 3428TIP3   OH210205   0.186   2.731   4.185
 3428TIP3    H110206   0.214   2.774   4.102
 3428TIP3    H210207   0.092   2.709   4.165
 3429TIP3   OH210208   0.215   3.267   4.063
 3429TIP3    H110209   0.298   3.273   4.014
 3429TIP3    H210210   0.158   3.331   4.015
 3430TIP3   OH210211   0.794   3.234   4.438
 3430TIP3    H110212   0.845   3.153   4.453
 3430TIP3    H210213   0.863   3.295   4.408
 3431TIP3   OH210214   0.837   3.486   4.172
 3431TIP3    H110215   0.779   3.540   4.113
 3431TIP3    H210216   0.925   3.507   4.133
 3432TIP3   OH210217   0.062   3.061   4.606
 3432TIP3    H110218  -0.004   2.991   4.624
 3432TIP3    H210219   0.097   3.033   4.520
 3433TIP3   OH210220   0.319   2.496   4.253
 3433TIP3    H110221   0.269   2.578   4.229
 3433TIP3    H210222   0.250   2.428   4.240
 3434TIP3   OH210223   0.445   3.000   4.468
 3434TIP3    H110224   0.437   2.989   4.565
 3434TIP3    H210225   0.354   2.975   4.441
 3435TIP3   OH210226   0.682   2.947   4.321
 3435TIP3    H110227   0.609   2.951   4.386
 3435TIP3    H210228   0.757   2.919   4.377
 3436TIP3   OH210229   0.906   2.887   4.472
 3436TIP3    H110230   0.922   2.793   4.492
 3436TIP3    H210231   0.906   2.929   4.561
 3437TIP3   OH210232  -0.082   2.831   4.659
 3437TIP3    H110233  -0.075   2.738   4.630
 3437TIP3    H210234  -0.050   2.824   4.751
 3438TIP3   OH210235   0.411   2.503   4.510
 3438TIP3    H110236   0.480   2.434   4.503
 3438TIP3    H210237   0.372   2.499   4.421
 3439TIP3   OH210238   0.477   2.719   4.671
 3439TIP3    H110239   0.456   2.649   4.605
 3439TIP3    H210240   0.400   2.779   4.663
 3440TIP3   OH210241  -0.303   3.947   2.767
 3440TIP3    H110242  -0.207   3.945   2.753
 3440TIP3    H210243  -0.329   3.996   2.686
 3441TIP3   OH210244   0.954   4.200   3.384
 3441TIP3    H110245   0.985   4.228   3.473
 3441TIP3    H210246   1.022   4.236   3.326
 3442TIP3   OH210247   0.986   4.216   3.667
 3442TIP3    H110248   0.943   4.127   3.663
 3442TIP3    H210249   1.062   4.194   3.723
 3443TIP3   OH210250   1.029   3.893   4.238
 3443TIP3    H110251   0.959   3.901   4.305
 3443TIP3    H210252   1.073   3.980   4.244
 3444TIP3   OH210253   0.848   3.406   2.862
 3444TIP3    H110254   0.916   3.470   2.832
 3444TIP3    H210255   0.892   3.367   2.940
 3445TIP3   OH210256   0.974   3.273   3.065
 3445TIP3    H110257   0.912   3.232   3.129
 3445TIP3    H210258   1.044   3.309   3.123
 3446TIP3   OH210259   1.027   3.663   3.492
 3446TIP3    H110260   1.084   3.599   3.445
 3446TIP3    H210261   1.024   3.738   3.430
 3447TIP3   OH210262   0.862   3.965   3.689
 3447TIP3    H110263   0.791   4.005   3.743
 3447TIP3    H210264   0.811   3.917   3.620
 3448TIP3   OH210265   0.913   3.188   2.700
 3448TIP3    H110266   0.839   3.195   2.636
 3448TIP3    H210267   0.887   3.257   2.764
 3449TIP3   OH210268   0.803   2.835   2.719
 3449TIP3    H110269   0.785   2.914   2.667
 3449TIP3    H210270   0.753   2.766   2.669
 3450TIP3   OH210271   0.791   3.113   3.219
 3450TIP3    H110272   0.831   3.031   3.252
 3450TIP3    H210273   0.766   3.153   3.305
 3451TIP3   OH210274  -0.571   3.112   3.948
 3451TIP3    H110275  -0.568   3.099   3.851
 3451TIP3    H210276  -0.485   3.159   3.960
 3452TIP3   OH210277   1.080   3.554   4.065
 3452TIP3    H110278   1.152   3.487   4.058
 3452TIP3    H210279   1.111   3.624   4.006
 3453TIP3   OH210280   1.264   3.358   4.083
 3453TIP3    H110281   1.191   3.307   4.124
 3453TIP3    H210282   1.338   3.296   4.096
 3454TIP3   OH210283   0.734   2.585   2.647
 3454TIP3    H110284   0.805   2.530   2.684
 3454TIP3    H210285   0.654   2.535   2.672
 3455TIP3   OH210286   0.947   3.023   3.598
 3455TIP3    H110287   1.035   3.047   3.560
 3455TIP3    H210288   0.961   3.056   3.689
 3456TIP3   OH210289   1.016   3.162   3.832
 3456TIP3    H110290   0.938   3.197   3.880
 3456TIP3    H210291   1.049   3.242   3.787
 3457TIP3   OH210292  -0.344   2.899   4.646
 3457TIP3    H110293  -0.250   2.873   4.644
 3457TIP3    H210294  -0.392   2.819   4.623
 3458TIP3   OH210295   1.464   2.748   4.388
 3458TIP3    H110296   1.528   2.686   4.346
 3458TIP3    H210297   1.440   2.806   4.313
 3459TIP3   OH210298  -0.398   2.573   3.956
 3459TIP3    H110299  -0.332   2.503   3.971
 3459TIP3    H210300  -0.343   2.653   3.957
 3460TIP3   OH210301  -0.562   2.851   4.040
 3460TIP3    H110302  -0.514   2.838   3.956
 3460TIP3    H210303  -0.559   2.949   4.043
 3461TIP3   OH210304   1.340   2.894   4.194
 3461TIP3    H110305   1.255   2.935   4.218
 3461TIP3    H210306   1.309   2.822   4.136
 3462TIP3   OH210307   0.987   2.560   2.762
 3462TIP3    H110308   1.010   2.469   2.728
 3462TIP3    H210309   1.070   2.606   2.739
 3463TIP3   OH210310   0.539   4.064   3.041
 3463TIP3    H110311   0.591   4.049   2.959
 3463TIP3    H210312   0.596   4.126   3.089
 3464TIP3   OH210313  -0.385   2.430   4.367
 3464TIP3    H110314  -0.416   2.426   4.458
 3464TIP3    H210315  -0.463   2.468   4.323
 3465TIP3   OH210316  -0.175   3.902   3.963
 3465TIP3    H110317  -0.222   3.976   3.922
 3465TIP3    H210318  -0.087   3.913   3.921
 3466TIP3   OH210319   0.265   4.144   4.113
 3466TIP3    H110320   0.307   4.143   4.202
 3466TIP3    H210321   0.333   4.194   4.062
 3467TIP3   OH210322   0.445   4.295   3.970
 3467TIP3    H110323   0.517   4.243   3.931
 3467TIP3    H210324   0.496   4.351   4.032
 3468TIP3   OH210325   1.238   2.657   4.072
 3468TIP3    H110326   1.148   2.651   4.036
 3468TIP3    H210327   1.269   2.564   4.061
 3469TIP3   OH210328  -0.260   4.152   3.855
 3469TIP3    H110329  -0.332   4.178   3.914
 3469TIP3    H210330  -0.294   4.186   3.769
 3470TIP3   OH210331   0.161   4.162   3.656
 3470TIP3    H110332   0.101   4.183   3.583
 3470TIP3    H210333   0.173   4.250   3.698
 3471TIP3   OH210334   0.428   4.101   3.705
 3471TIP3    H110335   0.334   4.119   3.686
 3471TIP3    H210336   0.473   4.177   3.665
 3472TIP3   OH210337   0.632   4.293   3.621
 3472TIP3    H110338   0.621   4.378   3.572
 3472TIP3    H210339   0.661   4.233   3.549
 3473TIP3   OH210340  -0.373   3.784   3.586
 3473TIP3    H110341  -0.369   3.714   3.655
 3473TIP3    H210342  -0.289   3.831   3.602
 3474TIP3   OH210343  -0.117   3.928   3.604
 3474TIP3    H110344  -0.090   3.838   3.579
 3474TIP3    H210345  -0.070   3.937   3.689
 3475TIP3   OH210346   0.444   2.573   3.690
 3475TIP3    H110347   0.399   2.502   3.739
 3475TIP3    H210348   0.511   2.524   3.640
 3476TIP3   OH210349   0.964   2.465   3.609
 3476TIP3    H110350   1.005   2.509   3.531
 3476TIP3    H210351   0.869   2.468   3.588
 3477TIP3   OH210352   1.073   2.555   3.376
 3477TIP3    H110353   1.135   2.505   3.320
 3477TIP3    H210354   1.090   2.647   3.347
 3478TIP3   OH210355   0.107   2.336   3.592
 3478TIP3    H110356   0.170   2.337   3.517
 3478TIP3    H210357   0.166   2.357   3.666
 3479TIP3   OH210358   0.685   2.452   3.560
 3479TIP3    H110359   0.681   2.406   3.475
 3479TIP3    H210360   0.669   2.378   3.623
 3480TIP3   OH210361   0.701   2.381   3.123
 3480TIP3    H110362   0.609   2.407   3.139
 3480TIP3    H210363   0.706   2.308   3.188
 3481TIP3   OH210364   0.116   2.473   3.244
 3481TIP3    H110365   0.184   2.421   3.290
 3481TIP3    H210366   0.148   2.563   3.266
 3482TIP3   OH210367  -0.033   3.913   2.718
 3482TIP3    H110368   0.056   3.934   2.682
 3482TIP3    H210369  -0.055   3.837   2.659
 3483TIP3   OH210370   0.684   4.027   2.810
 3483TIP3    H110371   0.676   3.929   2.798
 3483TIP3    H210372   0.641   4.059   2.728
 3484TIP3   OH210373  -0.102   2.559   4.595
 3484TIP3    H110374  -0.138   2.488   4.653
 3484TIP3    H210375  -0.008   2.557   4.625
 3485TIP3   OH210376   0.148   2.556   4.716
 3485TIP3    H110377   0.234   2.535   4.676
 3485TIP3    H210378   0.138   2.483   4.781
 3486TIP3   OH210379   0.974   2.618   4.504
 3486TIP3    H110380   0.994   2.587   4.596
 3486TIP3    H210381   1.063   2.616   4.463
 3487TIP3   OH210382   0.913   4.173   3.997
 3487TIP3    H110383   0.834   4.141   3.949
 3487TIP3    H210384   0.893   4.269   4.001
 3488TIP3   OH210385   2.179   3.542   2.762
 3488TIP3    H110386   2.154   3.635   2.745
 3488TIP3    H210387   2.098   3.496   2.736
 3489TIP3   OH210388   2.176   3.542   3.144
 3489TIP3    H110389   2.210   3.519   3.233
 3489TIP3    H210390   2.136   3.458   3.116
 3490TIP3   OH210391   1.476   3.439   3.511
 3490TIP3    H110392   1.506   3.371   3.574
 3490TIP3    H210393   1.554   3.496   3.508
 3491TIP3   OH210394   2.419   3.845   2.827
 3491TIP3    H110395   2.409   3.777   2.895
 3491TIP3    H210396   2.450   3.921   2.879
 3492TIP3   OH210397   1.446   3.846   3.233
 3492TIP3    H110398   1.440   3.749   3.237
 3492TIP3    H210399   1.543   3.858   3.230
 3493TIP3   OH210400   1.151   3.044   3.002
 3493TIP3    H110401   1.124   3.137   3.007
 3493TIP3    H210402   1.090   3.004   3.065
 3494TIP3   OH210403   1.214   3.334   3.184
 3494TIP3    H110404   1.266   3.262   3.226
 3494TIP3    H210405   1.282   3.379   3.132
 3495TIP3   OH210406   2.068   4.307   2.841
 3495TIP3    H110407   2.116   4.237   2.791
 3495TIP3    H210408   2.068   4.271   2.930
 3496TIP3   OH210409   1.977   3.770   3.192
 3496TIP3    H110410   2.018   3.692   3.149
 3496TIP3    H210411   2.060   3.816   3.217
 3497TIP3   OH210412   2.991   3.089   3.188
 3497TIP3    H110413   3.017   3.171   3.234
 3497TIP3    H210414   3.015   3.111   3.096
 3498TIP3   OH210415   2.388   3.272   3.225
 3498TIP3    H110416   2.431   3.187   3.248
 3498TIP3    H210417   2.359   3.254   3.134
 3499TIP3   OH210418   1.724   2.929   3.190
 3499TIP3    H110419   1.708   3.003   3.128
 3499TIP3    H210420   1.676   2.857   3.145
 3500TIP3   OH210421   2.421   3.020   2.811
 3500TIP3    H110422   2.491   3.004   2.879
 3500TIP3    H210423   2.476   3.057   2.740
 3501TIP3   OH210424   1.362   3.134   3.294
 3501TIP3    H110425   1.443   3.117   3.347
 3501TIP3    H210426   1.381   3.076   3.217
 3502TIP3   OH210427   1.803   3.330   3.089
 3502TIP3    H110428   1.897   3.306   3.103
 3502TIP3    H210429   1.765   3.245   3.058
 3503TIP3   OH210430   3.060   3.294   3.364
 3503TIP3    H110431   2.979   3.345   3.344
 3503TIP3    H210432   3.088   3.336   3.447
 3504TIP3   OH210433   1.723   2.913   3.623
 3504TIP3    H110434   1.662   2.952   3.558
 3504TIP3    H210435   1.674   2.930   3.706
 3505TIP3   OH210436   2.073   3.765   2.630
 3505TIP3    H110437   2.026   3.750   2.547
 3505TIP3    H210438   2.031   3.849   2.660
 3506TIP3   OH210439   1.829   3.689   3.419
 3506TIP3    H110440   1.768   3.755   3.458
 3506TIP3    H210441   1.872   3.741   3.349
 3507TIP3   OH210442   2.631   3.024   2.984
 3507TIP3    H110443   2.619   2.978   3.068
 3507TIP3    H210444   2.684   3.101   3.010
 3508TIP3   OH210445   1.592   3.030   3.409
 3508TIP3    H110446   1.655   3.101   3.435
 3508TIP3    H210447   1.643   2.989   3.336
 3509TIP3   OH210448   1.655   3.882   3.516
 3509TIP3    H110449   1.631   3.970   3.480
 3509TIP3    H210450   1.577   3.867   3.574
 3510TIP3   OH210451   1.052   3.573   2.754
 3510TIP3    H110452   1.013   3.603   2.669
 3510TIP3    H210453   1.084   3.657   2.792
 3511TIP3   OH210454   2.491   4.088   2.992
 3511TIP3    H110455   2.401   4.080   3.032
 3511TIP3    H210456   2.483   4.175   2.948
 3512TIP3   OH210457   2.783   2.986   3.353
 3512TIP3    H110458   2.696   3.021   3.327
 3512TIP3    H210459   2.842   3.022   3.284
 3513TIP3   OH210460   2.078   2.632   3.335
 3513TIP3    H110461   2.068   2.537   3.359
 3513TIP3    H210462   2.002   2.670   3.385
 3514TIP3   OH210463   2.193   4.134   2.665
 3514TIP3    H110464   2.245   4.053   2.644
 3514TIP3    H210465   2.254   4.200   2.625
 3515TIP3   OH210466   2.340   3.917   2.573
 3515TIP3    H110467   2.290   3.841   2.543
 3515TIP3    H210468   2.375   3.885   2.659
 3516TIP3   OH210469   2.718   4.002   3.337
 3516TIP3    H110470   2.708   3.924   3.279
 3516TIP3    H210471   2.702   4.076   3.275
 3517TIP3   OH210472   2.006   3.391   2.592
 3517TIP3    H110473   1.928   3.448   2.573
 3517TIP3    H210474   2.056   3.397   2.509
 3518TIP3   OH210475   1.967   3.181   2.307
 3518TIP3    H110476   2.030   3.231   2.362
 3518TIP3    H210477   2.026   3.117   2.265
 3519TIP3   OH210478   2.911   3.634   3.179
 3519TIP3    H110479   2.831   3.689   3.186
 3519TIP3    H210480   2.944   3.661   3.090
 3520TIP3   OH210481   2.357   3.475   2.567
 3520TIP3    H110482   2.303   3.501   2.645
 3520TIP3    H210483   2.442   3.452   2.611
 3521TIP3   OH210484   2.592   3.518   3.478
 3521TIP3    H110485   2.590   3.599   3.532
 3521TIP3    H210486   2.506   3.526   3.433
 3522TIP3   OH210487   1.590   3.476   2.984
 3522TIP3    H110488   1.551   3.418   2.915
 3522TIP3    H210489   1.667   3.423   3.013
 3523TIP3   OH210490   1.718   3.885   3.133
 3523TIP3    H110491   1.701   3.845   3.047
 3523TIP3    H210492   1.809   3.853   3.152
 3524TIP3   OH210493   1.722   3.449   3.334
 3524TIP3    H110494   1.760   3.426   3.247
 3524TIP3    H210495   1.769   3.532   3.357
 3525TIP3   OH210496   2.250   4.084   3.114
 3525TIP3    H110497   2.238   4.165   3.167
 3525TIP3    H210498   2.235   4.012   3.178
 3526TIP3   OH210499   1.864   4.005   3.658
 3526TIP3    H110500   1.805   4.066   3.708
 3526TIP3    H210501   1.798   3.951   3.611
 3527TIP3   OH210502   2.199   3.336   2.393
 3527TIP3    H110503   2.256   3.395   2.447
 3527TIP3    H210504   2.224   3.364   2.302
 3528TIP3   OH210505   1.616   3.564   3.759
 3528TIP3    H110506   1.622   3.649   3.806
 3528TIP3    H210507   1.522   3.542   3.774
 3529TIP3   OH210508   1.944   4.010   2.673
 3529TIP3    H110509   2.023   4.065   2.685
 3529TIP3    H210510   1.879   4.073   2.639
 3530TIP3   OH210511   1.657   4.172   3.747
 3530TIP3    H110512   1.621   4.171   3.657
 3530TIP3    H210513   1.578   4.151   3.802
 3531TIP3   OH210514   2.713   2.578   2.439
 3531TIP3    H110515   2.632   2.596   2.491
 3531TIP3    H210516   2.725   2.663   2.392
 3532TIP3   OH210517   1.457   3.318   2.784
 3532TIP3    H110518   1.390   3.363   2.729
 3532TIP3    H210519   1.416   3.233   2.800
 3533TIP3   OH210520   2.509   3.941   1.983
 3533TIP3    H110521   2.517   4.039   1.974
 3533TIP3    H210522   2.603   3.915   1.975
 3534TIP3   OH210523   1.236   3.702   3.695
 3534TIP3    H110524   1.173   3.676   3.626
 3534TIP3    H210525   1.275   3.616   3.723
 3535TIP3   OH210526   1.092   3.895   3.327
 3535TIP3    H110527   1.187   3.886   3.317
 3535TIP3    H210528   1.086   3.973   3.385
 3536TIP3   OH210529   2.955   4.346   3.381
 3536TIP3    H110530   2.955   4.250   3.396
 3536TIP3    H210531   2.873   4.371   3.428
 3537TIP3   OH210532   2.060   4.134   3.516
 3537TIP3    H110533   2.060   4.226   3.550
 3537TIP3    H210534   1.990   4.093   3.571
 3538TIP3   OH210535   1.257   4.111   2.855
 3538TIP3    H110536   1.310   4.103   2.938
 3538TIP3    H210537   1.202   4.032   2.862
 3539TIP3   OH210538   2.057   4.181   2.088
 3539TIP3    H110539   2.095   4.092   2.076
 3539TIP3    H210540   2.042   4.186   2.184
 3540TIP3   OH210541   2.079   4.205   2.372
 3540TIP3    H110542   1.983   4.229   2.375
 3540TIP3    H210543   2.096   4.170   2.460
 3541TIP3   OH210544   2.848   3.475   3.655
 3541TIP3    H110545   2.762   3.489   3.613
 3541TIP3    H210546   2.857   3.378   3.652
 3542TIP3   OH210547   1.441   3.886   3.685
 3542TIP3    H110548   1.492   3.869   3.766
 3542TIP3    H210549   1.367   3.822   3.693
 3543TIP3   OH210550   1.840   2.709   3.466
 3543TIP3    H110551   1.750   2.679   3.441
 3543TIP3    H210552   1.816   2.790   3.515
 3544TIP3   OH210553   2.375   2.823   3.661
 3544TIP3    H110554   2.443   2.796   3.726
 3544TIP3    H210555   2.291   2.803   3.708
 3545TIP3   OH210556   2.616   3.255   3.582
 3545TIP3    H110557   2.568   3.249   3.668
 3545TIP3    H210558   2.591   3.343   3.549
 3546TIP3   OH210559   2.261   3.386   2.134
 3546TIP3    H110560   2.253   3.340   2.050
 3546TIP3    H210561   2.344   3.436   2.120
 3547TIP3   OH210562   1.986   2.761   2.439
 3547TIP3    H110563   1.954   2.756   2.531
 3547TIP3    H210564   1.950   2.676   2.405
 3548TIP3   OH210565   1.769   3.225   3.484
 3548TIP3    H110566   1.726   3.250   3.568
 3548TIP3    H210567   1.755   3.307   3.431
 3549TIP3   OH210568   1.658   3.110   2.999
 3549TIP3    H110569   1.565   3.085   3.017
 3549TIP3    H210570   1.671   3.069   2.911
 3550TIP3   OH210571   2.147   3.195   2.727
 3550TIP3    H110572   2.094   3.267   2.685
 3550TIP3    H210573   2.203   3.166   2.652
 3551TIP3   OH210574   2.323   3.477   3.811
 3551TIP3    H110575   2.300   3.404   3.874
 3551TIP3    H210576   2.416   3.492   3.836
 3552TIP3   OH210577   2.304   3.224   2.967
 3552TIP3    H110578   2.244   3.255   2.896
 3552TIP3    H210579   2.337   3.142   2.924
 3553TIP3   OH210580   1.588   3.254   3.696
 3553TIP3    H110581   1.627   3.315   3.760
 3553TIP3    H210582   1.582   3.171   3.748
 3554TIP3   OH210583   1.638   2.729   2.403
 3554TIP3    H110584   1.636   2.729   2.500
 3554TIP3    H210585   1.561   2.785   2.383
 3555TIP3   OH210586   1.175   2.799   3.276
 3555TIP3    H110587   1.256   2.813   3.330
 3555TIP3    H210588   1.206   2.750   3.198
 3556TIP3   OH210589   1.139   2.782   2.794
 3556TIP3    H110590   1.187   2.788   2.708
 3556TIP3    H210591   1.159   2.872   2.825
 3557TIP3   OH210592   2.309   3.471   3.388
 3557TIP3    H110593   2.345   3.399   3.331
 3557TIP3    H210594   2.285   3.419   3.468
 3558TIP3   OH210595   1.982   2.936   3.061
 3558TIP3    H110596   1.902   2.932   3.117
 3558TIP3    H210597   2.053   2.930   3.126
 3559TIP3   OH210598   1.419   2.988   3.068
 3559TIP3    H110599   1.327   2.989   3.035
 3559TIP3    H210600   1.448   2.896   3.051
 3560TIP3   OH210601   1.687   2.983   2.758
 3560TIP3    H110602   1.782   2.998   2.741
 3560TIP3    H210603   1.644   3.007   2.673
 3561TIP3   OH210604   2.476   3.009   3.260
 3561TIP3    H110605   2.446   3.021   3.353
 3561TIP3    H210606   2.409   2.947   3.227
 3562TIP3   OH210607   1.527   3.017   2.535
 3562TIP3    H110608   1.455   2.976   2.484
 3562TIP3    H210609   1.580   3.055   2.462
 3563TIP3   OH210610   2.645   4.697   3.482
 3563TIP3    H110611   2.644   4.722   3.387
 3563TIP3    H210612   2.723   4.747   3.513
 3564TIP3   OH210613   1.604   3.809   3.904
 3564TIP3    H110614   1.685   3.837   3.951
 3564TIP3    H210615   1.540   3.807   3.978
 3565TIP3   OH210616   2.066   3.260   3.158
 3565TIP3    H110617   2.141   3.222   3.110
 3565TIP3    H210618   2.075   3.220   3.246
 3566TIP3   OH210619   1.584   2.749   3.034
 3566TIP3    H110620   1.556   2.670   3.085
 3566TIP3    H210621   1.649   2.712   2.974
 3567TIP3   OH210622   2.044   3.159   3.447
 3567TIP3    H110623   1.955   3.196   3.463
 3567TIP3    H210624   2.103   3.217   3.499
 3568TIP3   OH210625   1.781   3.548   2.543
 3568TIP3    H110626   1.707   3.484   2.532
 3568TIP3    H210627   1.762   3.583   2.633
 3569TIP3   OH210628   2.682   3.786   3.173
 3569TIP3    H110629   2.706   3.835   3.092
 3569TIP3    H210630   2.597   3.744   3.147
 3570TIP3   OH210631   2.234   2.867   2.391
 3570TIP3    H110632   2.141   2.846   2.413
 3570TIP3    H210633   2.247   2.957   2.430
 3571TIP3   OH210634   2.177   3.865   3.541
 3571TIP3    H110635   2.208   3.843   3.630
 3571TIP3    H210636   2.142   3.955   3.551
 3572TIP3   OH210637   2.309   3.106   2.507
 3572TIP3    H110638   2.405   3.111   2.528
 3572TIP3    H210639   2.293   3.190   2.460
 3573TIP3   OH210640   1.466   3.562   3.219
 3573TIP3    H110641   1.510   3.539   3.134
 3573TIP3    H210642   1.519   3.511   3.282
 3574TIP3   OH210643   1.921   3.700   2.361
 3574TIP3    H110644   1.876   3.788   2.364
 3574TIP3    H210645   1.868   3.649   2.425
 3575TIP3   OH210646   1.352   3.494   3.834
 3575TIP3    H110647   1.379   3.482   3.928
 3575TIP3    H210648   1.288   3.422   3.823
 3576TIP3   OH210649   2.081   3.606   3.849
 3576TIP3    H110650   2.025   3.542   3.802
 3576TIP3    H210651   2.171   3.573   3.826
 3577TIP3   OH210652   2.339   4.126   3.435
 3577TIP3    H110653   2.243   4.126   3.449
 3577TIP3    H210654   2.368   4.177   3.514
 3578TIP3   OH210655   2.748   3.197   2.346
 3578TIP3    H110656   2.684   3.154   2.285
 3578TIP3    H210657   2.747   3.287   2.306
 3579TIP3   OH210658   2.969   4.058   3.425
 3579TIP3    H110659   2.871   4.051   3.418
 3579TIP3    H210660   2.994   4.026   3.335
 3580TIP3   OH210661   2.457   4.017   2.252
 3580TIP3    H110662   2.424   3.954   2.318
 3580TIP3    H210663   2.464   3.964   2.171
 3581TIP3   OH210664   2.446   3.648   3.090
 3581TIP3    H110665   2.353   3.622   3.104
 3581TIP3    H210666   2.480   3.567   3.046
 3582TIP3   OH210667   1.574   3.873   2.842
 3582TIP3    H110668   1.575   3.956   2.790
 3582TIP3    H210669   1.480   3.860   2.853
 3583TIP3   OH210670   1.137   3.178   2.546
 3583TIP3    H110671   1.182   3.262   2.567
 3583TIP3    H210672   1.060   3.183   2.607
 3584TIP3   OH210673   1.711   3.639   2.786
 3584TIP3    H110674   1.677   3.729   2.805
 3584TIP3    H210675   1.677   3.589   2.863
 3585TIP3   OH210676   1.842   4.218   3.313
 3585TIP3    H110677   1.884   4.290   3.263
 3585TIP3    H210678   1.918   4.183   3.362
 3586TIP3   OH210679   1.495   4.115   2.699
 3586TIP3    H110680   1.409   4.126   2.743
 3586TIP3    H210681   1.528   4.208   2.698
 3587TIP3   OH210682   2.230   3.851   3.272
 3587TIP3    H110683   2.220   3.849   3.370
 3587TIP3    H210684   2.313   3.802   3.261
 3588TIP3   OH210685   2.208   3.728   2.154
 3588TIP3    H110686   2.259   3.708   2.236
 3588TIP3    H210687   2.118   3.723   2.187
 3589TIP3   OH210688   2.479   4.386   3.322
 3589TIP3    H110689   2.400   4.329   3.315
 3589TIP3    H210690   2.463   4.450   3.250
 3590TIP3   OH210691   2.543   4.218   1.975
 3590TIP3    H110692   2.580   4.293   1.924
 3590TIP3    H210693   2.464   4.263   2.011
 3591TIP3   OH210694   1.567   2.995   3.840
 3591TIP3    H110695   1.471   3.000   3.858
 3591TIP3    H210696   1.598   2.940   3.913
 3592TIP3   OH210697   2.367   3.670   2.369
 3592TIP3    H110698   2.358   3.611   2.446
 3592TIP3    H210699   2.464   3.675   2.361
 3593TIP3   OH210700   1.279   4.080   3.474
 3593TIP3    H110701   1.334   4.006   3.504
 3593TIP3    H210702   1.310   4.150   3.533
 3594TIP3   OH210703   1.571   3.718   2.155
 3594TIP3    H110704   1.586   3.625   2.131
 3594TIP3    H210705   1.552   3.713   2.250
 3595TIP3   OH210706   1.518   3.729   2.427
 3595TIP3    H110707   1.591   3.708   2.487
 3595TIP3    H210708   1.518   3.827   2.430
 3596TIP3   OH210709   1.251   3.423   2.629
 3596TIP3    H110710   1.186   3.469   2.687
 3596TIP3    H210711   1.267   3.493   2.563
 3597TIP3   OH210712   2.405   3.056   3.519
 3597TIP3    H110713   2.478   3.100   3.567
 3597TIP3    H210714   2.388   2.978   3.575
 3598TIP3   OH210715   2.282   2.814   2.685
 3598TIP3    H110716   2.272   2.841   2.593
 3598TIP3    H210717   2.322   2.894   2.726
 3599TIP3   OH210718   1.783   3.935   2.361
 3599TIP3    H110719   1.698   3.963   2.400
 3599TIP3    H210720   1.799   4.009   2.302
 3600TIP3   OH210721   1.968   2.993   2.789
 3600TIP3    H110722   2.034   3.064   2.773
 3600TIP3    H210723   1.975   2.982   2.887
 3601TIP3   OH210724   2.242   3.311   3.598
 3601TIP3    H110725   2.260   3.366   3.677
 3601TIP3    H210726   2.295   3.232   3.618
 3602TIP3   OH210727   2.114   2.719   2.890
 3602TIP3    H110728   2.117   2.791   2.956
 3602TIP3    H210729   2.175   2.755   2.822
 3603TIP3   OH210730   1.521   4.000   2.440
 3603TIP3    H110731   1.506   4.071   2.373
 3603TIP3    H210732   1.511   4.050   2.524
 3604TIP3   OH210733   1.626   2.718   2.679
 3604TIP3    H110734   1.628   2.808   2.718
 3604TIP3    H210735   1.721   2.695   2.689
 3605TIP3   OH210736   2.881   3.199   3.581
 3605TIP3    H110737   2.783   3.200   3.586
 3605TIP3    H210738   2.894   3.186   3.487
 3606TIP3   OH210739   2.532   3.405   2.965
 3606TIP3    H110740   2.457   3.345   2.981
 3606TIP3    H210741   2.605   3.360   3.013
 3607TIP3   OH210742   1.243   3.634   2.435
 3607TIP3    H110743   1.306   3.707   2.446
 3607TIP3    H210744   1.291   3.582   2.367
 3608TIP3   OH210745   1.190   2.909   2.562
 3608TIP3    H110746   1.189   3.008   2.561
 3608TIP3    H210747   1.116   2.889   2.503
 3609TIP3   OH210748   2.500   4.359   2.915
 3609TIP3    H110749   2.457   4.408   2.840
 3609TIP3    H210750   2.594   4.378   2.894
 3610TIP3   OH210751   1.573   2.629   3.443
 3610TIP3    H110752   1.545   2.592   3.357
 3610TIP3    H210753   1.566   2.551   3.502
 3611TIP3   OH210754   1.115   3.843   2.824
 3611TIP3    H110755   1.042   3.878   2.877
 3611TIP3    H210756   1.095   3.884   2.737
 3612TIP3   OH210757   1.271   4.389   3.896
 3612TIP3    H110758   1.358   4.389   3.942
 3612TIP3    H210759   1.253   4.294   3.893
 3613TIP3   OH210760   1.752   4.357   3.936
 3613TIP3    H110761   1.846   4.336   3.949
 3613TIP3    H210762   1.729   4.295   3.864
 3614TIP3   OH210763   1.729   3.923   2.058
 3614TIP3    H110764   1.675   3.856   2.105
 3614TIP3    H210765   1.813   3.877   2.047
 3615TIP3   OH210766   2.393   4.259   3.671
 3615TIP3    H110767   2.383   4.189   3.741
 3615TIP3    H210768   2.470   4.309   3.704
 3616TIP3   OH210769   2.171   3.952   1.973
 3616TIP3    H110770   2.230   3.908   2.036
 3616TIP3    H210771   2.229   3.967   1.896
 3617TIP3   OH210772   1.402   3.795   4.094
 3617TIP3    H110773   1.419   3.700   4.104
 3617TIP3    H210774   1.315   3.796   4.050
 3618TIP3   OH210775   1.379   3.445   2.287
 3618TIP3    H110776   1.435   3.416   2.362
 3618TIP3    H210777   1.448   3.452   2.217
 3619TIP3   OH210778   2.009   3.880   3.868
 3619TIP3    H110779   1.971   3.895   3.780
 3619TIP3    H210780   2.043   3.788   3.863
 3620TIP3   OH210781   1.891   3.641   2.094
 3620TIP3    H110782   1.892   3.658   2.190
 3620TIP3    H210783   1.878   3.545   2.091
 3621TIP3   OH210784   2.501   3.888   3.472
 3621TIP3    H110785   2.577   3.932   3.430
 3621TIP3    H210786   2.432   3.956   3.459
 3622TIP3   OH210787   1.523   3.526   4.074
 3622TIP3    H110788   1.600   3.471   4.056
 3622TIP3    H210789   1.546   3.561   4.163
 3623TIP3   OH210790   1.585   3.350   2.509
 3623TIP3    H110791   1.561   3.312   2.595
 3623TIP3    H210792   1.622   3.273   2.461
 3624TIP3   OH210793   1.851   3.409   3.731
 3624TIP3    H110794   1.779   3.475   3.737
 3624TIP3    H210795   1.907   3.446   3.659
 3625TIP3   OH210796   1.687   3.141   2.351
 3625TIP3    H110797   1.662   3.148   2.257
 3625TIP3    H210798   1.784   3.148   2.345
 3626TIP3   OH210799   2.373   3.815   3.872
 3626TIP3    H110800   2.456   3.790   3.828
 3626TIP3    H210801   2.370   3.751   3.946
 3627TIP3   OH210802   2.498   3.458   1.998
 3627TIP3    H110803   2.551   3.438   1.920
 3627TIP3    H210804   2.468   3.550   1.979
 3628TIP3   OH210805   1.971   3.200   3.868
 3628TIP3    H110806   1.981   3.121   3.811
 3628TIP3    H210807   1.933   3.266   3.806
 3629TIP3   OH210808   1.981   2.989   3.671
 3629TIP3    H110809   2.010   3.030   3.587
 3629TIP3    H210810   1.888   2.967   3.652
 3630TIP3   OH210811   2.008   3.520   3.542
 3630TIP3    H110812   2.094   3.532   3.501
 3630TIP3    H210813   1.955   3.590   3.499
 3631TIP3   OH210814   2.586   3.486   3.920
 3631TIP3    H110815   2.631   3.408   3.958
 3631TIP3    H210816   2.660   3.546   3.905
 3632TIP3   OH210817   2.634   3.744   3.659
 3632TIP3    H110818   2.575   3.797   3.600
 3632TIP3    H210819   2.722   3.766   3.619
 3633TIP3   OH210820   1.848   3.319   4.090
 3633TIP3    H110821   1.786   3.247   4.109
 3633TIP3    H210822   1.891   3.286   4.008
 3634TIP3   OH210823   2.114   2.751   3.731
 3634TIP3    H110824   2.063   2.833   3.715
 3634TIP3    H210825   2.045   2.682   3.726
 3635TIP3   OH210826   2.243   3.260   3.950
 3635TIP3    H110827   2.267   3.244   4.044
 3635TIP3    H210828   2.150   3.230   3.948
 3636TIP3   OH210829   2.480   3.198   3.809
 3636TIP3    H110830   2.404   3.208   3.870
 3636TIP3    H210831   2.553   3.181   3.872
 3637TIP3   OH210832   2.696   3.157   3.977
 3637TIP3    H110833   2.708   3.062   3.990
 3637TIP3    H210834   2.708   3.189   4.070
 3638TIP3   OH210835   1.695   3.095   4.148
 3638TIP3    H110836   1.707   3.004   4.114
 3638TIP3    H210837   1.733   3.086   4.238
 3639TIP3   OH210838   2.193   2.763   3.994
 3639TIP3    H110839   2.269   2.700   3.993
 3639TIP3    H210840   2.162   2.754   3.902
 3640TIP3   OH210841   2.266   2.966   4.162
 3640TIP3    H110842   2.243   2.900   4.093
 3640TIP3    H210843   2.194   3.031   4.152
 3641TIP3   OH210844   1.508   4.197   2.250
 3641TIP3    H110845   1.599   4.230   2.270
 3641TIP3    H210846   1.493   4.245   2.166
 3642TIP3   OH210847   0.975   3.588   2.472
 3642TIP3    H110848   1.070   3.611   2.458
 3642TIP3    H210849   0.972   3.499   2.432
 3643TIP3   OH210850   0.888   4.200   2.886
 3643TIP3    H110851   0.823   4.137   2.849
 3643TIP3    H210852   0.934   4.143   2.952
 3644TIP3   OH210853   1.025   4.052   3.072
 3644TIP3    H110854   1.016   3.978   3.134
 3644TIP3    H210855   1.078   4.113   3.126
 3645TIP3   OH210856   2.753   4.451   2.871
 3645TIP3    H110857   2.778   4.483   2.960
 3645TIP3    H210858   2.814   4.499   2.814
 3646TIP3   OH210859   2.783   4.471   3.153
 3646TIP3    H110860   2.738   4.384   3.149
 3646TIP3    H210861   2.857   4.449   3.211
 3647TIP3   OH210862   2.827   4.149   3.726
 3647TIP3    H110863   2.755   4.157   3.791
 3647TIP3    H210864   2.869   4.237   3.731
 3648TIP3   OH210865   2.646   3.660   2.345
 3648TIP3    H110866   2.713   3.726   2.319
 3648TIP3    H210867   2.688   3.623   2.427
 3649TIP3   OH210868   2.770   3.529   2.550
 3649TIP3    H110869   2.707   3.488   2.613
 3649TIP3    H210870   2.840   3.565   2.609
 3650TIP3   OH210871   2.824   3.919   2.980
 3650TIP3    H110872   2.880   3.854   2.933
 3650TIP3    H210873   2.820   3.993   2.916
 3651TIP3   OH210874   2.658   4.222   3.177
 3651TIP3    H110875   2.587   4.263   3.229
 3651TIP3    H210876   2.608   4.174   3.107
 3652TIP3   OH210877   2.708   3.436   2.195
 3652TIP3    H110878   2.631   3.438   2.135
 3652TIP3    H210879   2.686   3.512   2.253
 3653TIP3   OH210880   2.576   3.111   2.153
 3653TIP3    H110881   2.546   3.144   2.068
 3653TIP3    H210882   2.554   3.016   2.146
 3654TIP3   OH210883   2.585   3.385   2.698
 3654TIP3    H110884   2.597   3.289   2.695
 3654TIP3    H210885   2.572   3.401   2.794
 3655TIP3   OH210886   1.213   3.461   3.442
 3655TIP3    H110887   1.214   3.432   3.348
 3655TIP3    H210888   1.310   3.461   3.461
 3656TIP3   OH210889   2.878   3.811   3.552
 3656TIP3    H110890   2.950   3.745   3.544
 3656TIP3    H210891   2.906   3.879   3.489
 3657TIP3   OH210892   3.063   3.617   3.574
 3657TIP3    H110893   2.987   3.566   3.611
 3657TIP3    H210894   3.134   3.551   3.586
 3658TIP3   OH210895   2.525   2.844   2.132
 3658TIP3    H110896   2.603   2.817   2.185
 3658TIP3    H210897   2.456   2.784   2.163
 3659TIP3   OH210898   2.581   3.099   2.591
 3659TIP3    H110899   2.621   3.010   2.607
 3659TIP3    H210900   2.642   3.133   2.524
 3660TIP3   OH210901   2.744   3.276   3.086
 3660TIP3    H110902   2.830   3.302   3.046
 3660TIP3    H210903   2.757   3.313   3.175
 3661TIP3   OH210904   2.812   3.417   3.318
 3661TIP3    H110905   2.736   3.453   3.368
 3661TIP3    H210906   2.846   3.498   3.273
 3662TIP3   OH210907   1.429   3.144   4.112
 3662TIP3    H110908   1.527   3.141   4.119
 3662TIP3    H210909   1.406   3.060   4.157
 3663TIP3   OH210910   3.302   3.025   3.863
 3663TIP3    H110911   3.259   2.939   3.859
 3663TIP3    H210912   3.247   3.078   3.802
 3664TIP3   OH210913   2.691   2.851   2.629
 3664TIP3    H110914   2.741   2.837   2.712
 3664TIP3    H210915   2.632   2.773   2.630
 3665TIP3   OH210916   1.390   2.837   3.446
 3665TIP3    H110917   1.451   2.761   3.459
 3665TIP3    H210918   1.453   2.911   3.442
 3666TIP3   OH210919   1.193   3.113   3.518
 3666TIP3    H110920   1.247   3.109   3.437
 3666TIP3    H210921   1.225   3.194   3.560
 3667TIP3   OH210922   3.131   3.147   3.695
 3667TIP3    H110923   3.052   3.195   3.727
 3667TIP3    H210924   3.090   3.093   3.625
 3668TIP3   OH210925   2.770   2.790   2.256
 3668TIP3    H110926   2.814   2.714   2.212
 3668TIP3    H210927   2.842   2.857   2.258
 3669TIP3   OH210928   1.147   2.644   3.037
 3669TIP3    H110929   1.113   2.553   3.032
 3669TIP3    H210930   1.163   2.671   2.946
 3670TIP3   OH210931   2.345   4.315   2.534
 3670TIP3    H110932   2.390   4.303   2.449
 3670TIP3    H210933   2.395   4.388   2.573
 3671TIP3   OH210934   1.396   2.693   3.837
 3671TIP3    H110935   1.348   2.691   3.921
 3671TIP3    H210936   1.329   2.731   3.777
 3672TIP3   OH210937   1.436   4.126   3.915
 3672TIP3    H110938   1.346   4.093   3.900
 3672TIP3    H210939   1.452   4.101   4.007
 3673TIP3   OH210940   1.614   4.153   3.460
 3673TIP3    H110941   1.569   4.231   3.421
 3673TIP3    H210942   1.702   4.166   3.418
 3674TIP3   OH210943   2.060   4.400   3.600
 3674TIP3    H110944   2.103   4.399   3.689
 3674TIP3    H210945   2.127   4.450   3.549
 3675TIP3   OH210946   2.240   4.551   3.458
 3675TIP3    H110947   2.312   4.500   3.417
 3675TIP3    H210948   2.292   4.608   3.519
 3676TIP3   OH210949   3.030   2.917   3.556
 3676TIP3    H110950   2.938   2.921   3.524
 3676TIP3    H210951   3.049   2.821   3.550
 3677TIP3   OH210952   1.290   4.411   3.484
 3677TIP3    H110953   1.202   4.448   3.463
 3677TIP3    H210954   1.304   4.446   3.573
 3678TIP3   OH210955   1.529   4.389   3.344
 3678TIP3    H110956   1.441   4.403   3.387
 3678TIP3    H210957   1.511   4.422   3.253
 3679TIP3   OH210958   1.954   4.419   3.142
 3679TIP3    H110959   1.888   4.440   3.073
 3679TIP3    H210960   1.967   4.507   3.183
 3680TIP3   OH210961   2.223   4.358   3.192
 3680TIP3    H110962   2.129   4.376   3.172
 3680TIP3    H210963   2.267   4.434   3.150
 3681TIP3   OH210964   2.431   4.550   3.108
 3681TIP3    H110965   2.417   4.635   3.060
 3681TIP3    H210966   2.457   4.490   3.035
 3682TIP3   OH210967   1.203   4.204   3.231
 3682TIP3    H110968   1.231   4.180   3.322
 3682TIP3    H210969   1.275   4.160   3.180
 3683TIP3   OH210970   1.397   4.076   3.087
 3683TIP3    H110971   1.414   3.992   3.136
 3683TIP3    H210972   1.487   4.114   3.082
 3684TIP3   OH210973   1.661   4.170   3.092
 3684TIP3    H110974   1.696   4.080   3.079
 3684TIP3    H210975   1.708   4.194   3.174
 3685TIP3   OH210976   2.233   2.824   3.168
 3685TIP3    H110977   2.194   2.758   3.228
 3685TIP3    H210978   2.312   2.778   3.135
 3686TIP3   OH210979   2.764   2.705   3.081
 3686TIP3    H110980   2.799   2.760   3.008
 3686TIP3    H210981   2.668   2.726   3.077
 3687TIP3   OH210982   2.858   2.809   2.845
 3687TIP3    H110983   2.931   2.757   2.806
 3687TIP3    H210984   2.892   2.900   2.832
 3688TIP3   OH210985   1.487   2.534   3.191
 3688TIP3    H110986   1.397   2.497   3.202
 3688TIP3    H210987   1.540   2.451   3.190
 3689TIP3   OH210988   1.279   2.399   2.830
 3689TIP3    H110989   1.315   2.457   2.761
 3689TIP3    H210990   1.259   2.459   2.902
 3690TIP3   OH210991   1.927   2.575   3.076
 3690TIP3    H110992   1.989   2.621   3.017
 3690TIP3    H210993   1.957   2.605   3.163
 3691TIP3   OH210994   2.479   2.715   3.058
 3691TIP3    H110995   2.480   2.675   2.971
 3691TIP3    H210996   2.465   2.635   3.115
 3692TIP3   OH210997   2.508   2.637   2.620
 3692TIP3    H110998   2.421   2.678   2.635
 3692TIP3    H210999   2.496   2.552   2.668
 3693TIP3   OH211000   0.991   3.976   2.624
 3693TIP3    H111001   0.906   3.945   2.588
 3693TIP3    H211002   0.982   4.071   2.606
 3694TIP3   OH211003   1.392   2.569   2.612
 3694TIP3    H111004   1.436   2.503   2.555
 3694TIP3    H211005   1.469   2.622   2.642
 3695TIP3   OH211006   1.904   2.741   2.703
 3695TIP3    H111007   1.963   2.693   2.764
 3695TIP3    H211008   1.927   2.833   2.730
 3696TIP3   OH211009   2.483   4.285   2.297
 3696TIP3    H111010   2.475   4.187   2.285
 3696TIP3    H211011   2.434   4.317   2.218
 3697TIP3   OH211012   1.696   2.816   4.081
 3697TIP3    H111013   1.661   2.747   4.140
 3697TIP3    H211014   1.790   2.817   4.109
 3698TIP3   OH211015   1.943   2.813   4.202
 3698TIP3    H111016   2.029   2.796   4.161
 3698TIP3    H211017   1.938   2.740   4.267
 3699TIP3   OH211018   1.065   3.999   2.261
 3699TIP3    H111019   1.074   4.028   2.353
 3699TIP3    H211020   1.154   3.959   2.244
 3700TIP3   OH211021   2.769   2.875   3.989
 3700TIP3    H111022   2.783   2.852   4.083
 3700TIP3    H211023   2.860   2.874   3.955
 3701TIP3   OH211024   2.710   4.429   3.484
 3701TIP3    H111025   2.631   4.397   3.435
 3701TIP3    H211026   2.689   4.525   3.488
 3702TIP3   OH211027   3.978   3.802   2.247
 3702TIP3    H111028   3.948   3.893   2.229
 3702TIP3    H211029   3.898   3.752   2.224
 3703TIP3   OH211030   3.976   3.799   2.629
 3703TIP3    H111031   4.009   3.777   2.718
 3703TIP3    H211032   3.931   3.717   2.604
 3704TIP3   OH211033   3.271   3.700   3.002
 3704TIP3    H111034   3.295   3.631   3.067
 3704TIP3    H211035   3.358   3.724   2.966
 3705TIP3   OH211036   4.219   4.102   2.312
 3705TIP3    H111037   4.200   4.032   2.376
 3705TIP3    H211038   4.244   4.176   2.370
 3706TIP3   OH211039   3.242   4.103   2.719
 3706TIP3    H111040   3.231   4.005   2.722
 3706TIP3    H211041   3.339   4.110   2.722
 3707TIP3   OH211042   2.953   3.306   2.503
 3707TIP3    H111043   2.910   3.391   2.524
 3707TIP3    H211044   2.877   3.255   2.470
 3708TIP3   OH211045   3.009   3.592   2.673
 3708TIP3    H111046   3.058   3.517   2.714
 3708TIP3    H211047   3.079   3.634   2.622
 3709TIP3   OH211048   3.867   4.566   2.328
 3709TIP3    H111049   3.914   4.494   2.282
 3709TIP3    H211050   3.856   4.530   2.416
 3710TIP3   OH211051   3.772   4.028   2.678
 3710TIP3    H111052   3.807   3.949   2.634
 3710TIP3    H211053   3.858   4.071   2.702
 3711TIP3   OH211054   4.790   3.346   2.678
 3711TIP3    H111055   4.816   3.430   2.720
 3711TIP3    H211056   4.803   3.367   2.584
 3712TIP3   OH211057   4.195   3.528   2.709
 3712TIP3    H111058   4.230   3.440   2.730
 3712TIP3    H211059   4.156   3.512   2.620
 3713TIP3   OH211060   3.524   3.180   2.671
 3713TIP3    H111061   3.501   3.260   2.620
 3713TIP3    H211062   3.466   3.114   2.627
 3714TIP3   OH211063   4.218   3.276   2.299
 3714TIP3    H111064   4.289   3.259   2.365
 3714TIP3    H211065   4.271   3.314   2.226
 3715TIP3   OH211066   3.157   3.391   2.783
 3715TIP3    H111067   3.241   3.379   2.831
 3715TIP3    H211068   3.175   3.333   2.705
 3716TIP3   OH211069   3.597   3.587   2.574
 3716TIP3    H111070   3.690   3.562   2.593
 3716TIP3    H211071   3.558   3.502   2.547
 3717TIP3   OH211072   4.861   3.557   2.846
 3717TIP3    H111073   4.777   3.602   2.824
 3717TIP3    H211074   4.867   3.577   2.940
 3718TIP3   OH211075   3.491   3.139   3.120
 3718TIP3    H111076   3.508   3.209   3.055
 3718TIP3    H211077   3.458   3.191   3.195
 3719TIP3   OH211078   3.873   4.027   2.116
 3719TIP3    H111079   3.821   4.000   2.039
 3719TIP3    H211080   3.826   4.109   2.142
 3720TIP3   OH211081   3.635   3.943   2.915
 3720TIP3    H111082   3.567   4.003   2.951
 3720TIP3    H211083   3.668   3.994   2.838
 3721TIP3   OH211084   4.430   3.278   2.471
 3721TIP3    H111085   4.405   3.236   2.555
 3721TIP3    H211086   4.478   3.357   2.501
 3722TIP3   OH211087   3.392   3.300   2.888
 3722TIP3    H111088   3.464   3.357   2.924
 3722TIP3    H211089   3.445   3.251   2.823
 3723TIP3   OH211090   3.454   4.139   3.003
 3723TIP3    H111091   3.427   4.226   2.968
 3723TIP3    H211092   3.376   4.119   3.060
 3724TIP3   OH211093   2.849   3.830   2.240
 3724TIP3    H111094   2.807   3.862   2.158
 3724TIP3    H211095   2.881   3.914   2.280
 3725TIP3   OH211096   4.291   4.346   2.481
 3725TIP3    H111097   4.202   4.335   2.522
 3725TIP3    H211098   4.278   4.432   2.436
 3726TIP3   OH211099   4.579   3.247   2.845
 3726TIP3    H111100   4.490   3.272   2.817
 3726TIP3    H211101   4.635   3.278   2.771
 3727TIP3   OH211102   3.880   2.892   2.825
 3727TIP3    H111103   3.859   2.798   2.840
 3727TIP3    H211104   3.803   2.934   2.871
 3728TIP3   OH211105   3.994   4.392   2.157
 3728TIP3    H111106   4.042   4.309   2.136
 3728TIP3    H211107   4.054   4.456   2.114
 3729TIP3   OH211108   4.137   4.176   2.059
 3729TIP3    H111109   4.084   4.101   2.029
 3729TIP3    H211110   4.172   4.142   2.144
 3730TIP3   OH211111   4.517   4.260   2.822
 3730TIP3    H111112   4.501   4.180   2.767
 3730TIP3    H211113   4.496   4.333   2.760
 3731TIP3   OH211114   3.804   3.650   2.080
 3731TIP3    H111115   3.724   3.703   2.060
 3731TIP3    H211116   3.850   3.650   1.994
 3732TIP3   OH211117   3.764   3.437   1.795
 3732TIP3    H111118   3.829   3.487   1.846
 3732TIP3    H211119   3.822   3.374   1.749
 3733TIP3   OH211120   4.711   3.898   2.669
 3733TIP3    H111121   4.626   3.947   2.676
 3733TIP3    H211122   4.738   3.922   2.578
 3734TIP3   OH211123   4.155   3.734   2.051
 3734TIP3    H111124   4.099   3.758   2.129
 3734TIP3    H211125   4.238   3.710   2.097
 3735TIP3   OH211126   4.390   3.778   2.958
 3735TIP3    H111127   4.381   3.860   3.010
 3735TIP3    H211128   4.301   3.776   2.916
 3736TIP3   OH211129   3.390   3.736   2.464
 3736TIP3    H111130   3.350   3.673   2.401
 3736TIP3    H211131   3.464   3.683   2.502
 3737TIP3   OH211132   3.519   4.149   2.616
 3737TIP3    H111133   3.494   4.098   2.537
 3737TIP3    H211134   3.608   4.112   2.636
 3738TIP3   OH211135   3.489   3.730   2.807
 3738TIP3    H111136   3.541   3.672   2.748
 3738TIP3    H211137   3.558   3.789   2.844
 3739TIP3   OH211138   4.050   4.340   2.601
 3739TIP3    H111139   4.036   4.419   2.655
 3739TIP3    H211140   4.033   4.267   2.663
 3740TIP3   OH211141   3.660   4.261   3.146
 3740TIP3    H111142   3.598   4.322   3.193
 3740TIP3    H211143   3.595   4.206   3.097
 3741TIP3   OH211144   3.995   3.592   1.878
 3741TIP3    H111145   4.053   3.653   1.930
 3741TIP3    H211146   4.022   3.616   1.786
 3742TIP3   OH211147   3.419   3.824   3.250
 3742TIP3    H111148   3.413   3.908   3.298
 3742TIP3    H211149   3.325   3.797   3.247
 3743TIP3   OH211150   3.738   4.271   2.150
 3743TIP3    H111151   3.814   4.327   2.174
 3743TIP3    H211152   3.674   4.335   2.116
 3744TIP3   OH211153   3.454   4.429   3.235
 3744TIP3    H111154   3.417   4.428   3.145
 3744TIP3    H211155   3.375   4.407   3.289
 3745TIP3   OH211156   4.510   2.834   1.927
 3745TIP3    H111157   4.428   2.853   1.977
 3745TIP3    H211158   4.522   2.917   1.878
 3746TIP3   OH211159   3.256   3.573   2.266
 3746TIP3    H111160   3.184   3.616   2.215
 3746TIP3    H211161   3.214   3.491   2.294
 3747TIP3   OH211162   4.307   4.201   1.473
 3747TIP3    H111163   4.316   4.298   1.461
 3747TIP3    H211164   4.400   4.171   1.462
 3748TIP3   OH211165   3.032   3.963   3.180
 3748TIP3    H111166   2.969   3.935   3.111
 3748TIP3    H211167   3.071   3.877   3.210
 3749TIP3   OH211168   2.886   4.153   2.812
 3749TIP3    H111169   2.982   4.145   2.806
 3749TIP3    H211170   2.877   4.230   2.869
 3750TIP3   OH211171   4.752   4.604   2.868
 3750TIP3    H111172   4.751   4.507   2.882
 3750TIP3    H211173   4.669   4.629   2.915
 3751TIP3   OH211174   3.854   4.390   3.002
 3751TIP3    H111175   3.855   4.482   3.036
 3751TIP3    H211176   3.783   4.350   3.058
 3752TIP3   OH211177   3.620   4.520   1.955
 3752TIP3    H111178   3.570   4.502   1.873
 3752TIP3    H211179   3.585   4.608   1.982
 3753TIP3   OH211180   3.057   4.367   2.341
 3753TIP3    H111181   3.105   4.358   2.426
 3753TIP3    H211182   2.997   4.291   2.347
 3754TIP3   OH211183   3.820   4.420   1.596
 3754TIP3    H111184   3.879   4.350   1.561
 3754TIP3    H211185   3.852   4.429   1.688
 3755TIP3   OH211186   3.870   4.466   1.866
 3755TIP3    H111187   3.781   4.478   1.906
 3755TIP3    H211188   3.917   4.424   1.940
 3756TIP3   OH211189   4.642   3.736   3.141
 3756TIP3    H111190   4.557   3.749   3.096
 3756TIP3    H211191   4.653   3.639   3.133
 3757TIP3   OH211192   3.237   4.144   3.170
 3757TIP3    H111193   3.287   4.125   3.252
 3757TIP3    H211194   3.164   4.079   3.176
 3758TIP3   OH211195   3.647   2.963   2.952
 3758TIP3    H111196   3.551   2.944   2.938
 3758TIP3    H211197   3.639   3.053   2.990
 3759TIP3   OH211198   4.141   3.078   3.163
 3759TIP3    H111199   4.216   3.057   3.221
 3759TIP3    H211200   4.068   3.084   3.229
 3760TIP3   OH211201   4.421   3.520   3.077
 3760TIP3    H111202   4.361   3.507   3.154
 3760TIP3    H211203   4.378   3.594   3.031
 3761TIP3   OH211204   4.070   3.640   1.623
 3761TIP3    H111205   4.036   3.614   1.535
 3761TIP3    H211206   4.150   3.690   1.598
 3762TIP3   OH211207   3.782   3.015   1.925
 3762TIP3    H111208   3.750   3.012   2.017
 3762TIP3    H211209   3.744   2.932   1.891
 3763TIP3   OH211210   3.452   3.368   2.486
 3763TIP3    H111211   3.360   3.341   2.507
 3763TIP3    H211212   3.463   3.324   2.398
 3764TIP3   OH211213   3.944   3.453   2.214
 3764TIP3    H111214   3.890   3.524   2.173
 3764TIP3    H211215   3.997   3.422   2.138
 3765TIP3   OH211216   4.118   3.744   3.319
 3765TIP3    H111217   4.094   3.665   3.373
 3765TIP3    H211218   4.215   3.743   3.328
 3766TIP3   OH211219   4.106   3.482   2.451
 3766TIP3    H111220   4.040   3.512   2.385
 3766TIP3    H211221   4.135   3.400   2.407
 3767TIP3   OH211222   3.351   3.524   3.204
 3767TIP3    H111223   3.427   3.575   3.236
 3767TIP3    H211224   3.377   3.434   3.228
 3768TIP3   OH211225   3.436   2.987   1.890
 3768TIP3    H111226   3.432   2.984   1.988
 3768TIP3    H211227   3.357   3.041   1.870
 3769TIP3   OH211228   2.986   3.031   2.763
 3769TIP3    H111229   3.058   3.067   2.818
 3769TIP3    H211230   3.031   3.001   2.683
 3770TIP3   OH211231   2.953   3.012   2.279
 3770TIP3    H111232   3.004   3.049   2.204
 3770TIP3    H211233   2.895   3.087   2.301
 3771TIP3   OH211234   4.124   3.737   2.863
 3771TIP3    H111235   4.152   3.660   2.809
 3771TIP3    H211236   4.102   3.692   2.948
 3772TIP3   OH211237   3.778   3.189   2.550
 3772TIP3    H111238   3.693   3.188   2.598
 3772TIP3    H211239   3.841   3.192   2.625
 3773TIP3   OH211240   3.215   3.245   2.554
 3773TIP3    H111241   3.120   3.252   2.528
 3773TIP3    H211242   3.238   3.153   2.533
 3774TIP3   OH211243   3.484   3.238   2.244
 3774TIP3    H111244   3.578   3.256   2.225
 3774TIP3    H211245   3.438   3.263   2.161
 3775TIP3   OH211246   4.274   3.261   2.741
 3775TIP3    H111247   4.248   3.272   2.836
 3775TIP3    H211248   4.202   3.202   2.711
 3776TIP3   OH211249   3.324   3.275   2.022
 3776TIP3    H111250   3.250   3.233   1.975
 3776TIP3    H211251   3.375   3.311   1.948
 3777TIP3   OH211252   4.442   4.952   2.969
 3777TIP3    H111253   4.438   4.977   2.874
 3777TIP3    H211254   4.515   5.007   3.001
 3778TIP3   OH211255   3.398   4.069   3.391
 3778TIP3    H111256   3.478   4.096   3.440
 3778TIP3    H211257   3.333   4.063   3.464
 3779TIP3   OH211258   3.862   3.526   2.646
 3779TIP3    H111259   3.931   3.469   2.608
 3779TIP3    H211260   3.847   3.487   2.733
 3780TIP3   OH211261   3.377   3.005   2.518
 3780TIP3    H111262   3.347   2.927   2.569
 3780TIP3    H211263   3.440   2.966   2.456
 3781TIP3   OH211264   3.577   3.805   2.029
 3781TIP3    H111265   3.504   3.739   2.019
 3781TIP3    H211266   3.558   3.839   2.120
 3782TIP3   OH211267   4.477   4.040   2.660
 3782TIP3    H111268   4.497   4.091   2.579
 3782TIP3    H211269   4.392   3.997   2.637
 3783TIP3   OH211270   4.033   3.119   1.887
 3783TIP3    H111271   3.937   3.100   1.899
 3783TIP3    H211272   4.042   3.212   1.916
 3784TIP3   OH211273   3.997   4.139   3.024
 3784TIP3    H111274   3.985   4.084   3.103
 3784TIP3    H211275   3.936   4.213   3.039
 3785TIP3   OH211276   4.104   3.364   1.995
 3785TIP3    H111277   4.200   3.371   2.012
 3785TIP3    H211278   4.086   3.445   1.944
 3786TIP3   OH211279   3.254   3.821   2.698
 3786TIP3    H111280   3.299   3.799   2.614
 3786TIP3    H211281   3.319   3.782   2.761
 3787TIP3   OH211282   3.720   3.953   1.849
 3787TIP3    H111283   3.673   4.040   1.855
 3787TIP3    H211284   3.666   3.899   1.911
 3788TIP3   OH211285   3.142   3.758   3.323
 3788TIP3    H111286   3.172   3.739   3.414
 3788TIP3    H211287   3.089   3.679   3.303
 3789TIP3   OH211288   3.868   3.863   3.343
 3789TIP3    H111289   3.807   3.808   3.290
 3789TIP3    H211290   3.954   3.828   3.312
 3790TIP3   OH211291   4.138   4.397   2.914
 3790TIP3    H111292   4.044   4.377   2.932
 3790TIP3    H211293   4.164   4.439   2.999
 3791TIP3   OH211294   4.548   3.454   1.831
 3791TIP3    H111295   4.485   3.410   1.769
 3791TIP3    H211296   4.544   3.544   1.792
 3792TIP3   OH211297   4.767   4.315   2.911
 3792TIP3    H111298   4.669   4.308   2.904
 3792TIP3    H211299   4.791   4.282   2.821
 3793TIP3   OH211300   4.251   4.274   1.741
 3793TIP3    H111301   4.219   4.207   1.804
 3793TIP3    H211302   4.257   4.224   1.658
 3794TIP3   OH211303   4.243   3.903   2.577
 3794TIP3    H111304   4.151   3.878   2.594
 3794TIP3    H211305   4.276   3.823   2.533
 3795TIP3   OH211306   3.368   4.129   2.326
 3795TIP3    H111307   3.365   4.212   2.275
 3795TIP3    H211308   3.275   4.114   2.344
 3796TIP3   OH211309   2.931   3.435   2.031
 3796TIP3    H111310   2.979   3.518   2.053
 3796TIP3    H211311   2.856   3.440   2.095
 3797TIP3   OH211312   3.511   3.898   2.272
 3797TIP3    H111313   3.472   3.985   2.293
 3797TIP3    H211314   3.477   3.844   2.346
 3798TIP3   OH211315   3.638   4.475   2.801
 3798TIP3    H111316   3.681   4.547   2.751
 3798TIP3    H211317   3.713   4.438   2.850
 3799TIP3   OH211318   3.288   4.370   2.181
 3799TIP3    H111319   3.203   4.378   2.229
 3799TIP3    H211320   3.320   4.463   2.185
 3800TIP3   OH211321   4.029   4.107   2.757
 3800TIP3    H111322   4.020   4.111   2.855
 3800TIP3    H211323   4.104   4.047   2.747
 3801TIP3   OH211324   4.001   4.002   1.640
 3801TIP3    H111325   4.054   3.976   1.719
 3801TIP3    H211326   3.913   3.975   1.670
 3802TIP3   OH211327   4.278   4.642   2.810
 3802TIP3    H111328   4.201   4.582   2.809
 3802TIP3    H211329   4.256   4.704   2.737
 3803TIP3   OH211330   4.342   4.476   1.461
 3803TIP3    H111331   4.377   4.550   1.408
 3803TIP3    H211332   4.261   4.520   1.496
 3804TIP3   OH211333   3.365   3.260   3.338
 3804TIP3    H111334   3.270   3.281   3.338
 3804TIP3    H211335   3.366   3.182   3.395
 3805TIP3   OH211336   4.162   3.932   1.854
 3805TIP3    H111337   4.150   3.870   1.928
 3805TIP3    H211338   4.259   3.931   1.845
 3806TIP3   OH211339   3.078   4.336   2.959
 3806TIP3    H111340   3.129   4.260   2.992
 3806TIP3    H211341   3.104   4.404   3.022
 3807TIP3   OH211342   3.368   3.982   1.640
 3807TIP3    H111343   3.382   3.889   1.614
 3807TIP3    H211344   3.350   3.972   1.736
 3808TIP3   OH211345   3.314   3.987   1.912
 3808TIP3    H111346   3.382   3.959   1.974
 3808TIP3    H211347   3.318   4.085   1.920
 3809TIP3   OH211348   3.046   3.679   2.116
 3809TIP3    H111349   2.982   3.724   2.174
 3809TIP3    H211350   3.062   3.750   2.050
 3810TIP3   OH211351   4.210   3.296   3.001
 3810TIP3    H111352   4.259   3.351   3.064
 3810TIP3    H211353   4.171   3.228   3.060
 3811TIP3   OH211354   4.080   3.067   2.172
 3811TIP3    H111355   4.065   3.092   2.080
 3811TIP3    H211356   4.117   3.150   2.211
 3812TIP3   OH211357   3.579   4.184   1.860
 3812TIP3    H111358   3.493   4.209   1.899
 3812TIP3    H211359   3.594   4.260   1.802
 3813TIP3   OH211360   3.768   3.247   2.278
 3813TIP3    H111361   3.831   3.321   2.262
 3813TIP3    H211362   3.770   3.240   2.376
 3814TIP3   OH211363   4.081   3.587   3.081
 3814TIP3    H111364   4.055   3.631   3.163
 3814TIP3    H211365   4.056   3.495   3.096
 3815TIP3   OH211366   3.911   2.976   2.380
 3815TIP3    H111367   3.902   3.054   2.439
 3815TIP3    H211368   3.971   3.013   2.311
 3816TIP3   OH211369   3.323   4.259   1.929
 3816TIP3    H111370   3.292   4.329   1.867
 3816TIP3    H211371   3.306   4.302   2.016
 3817TIP3   OH211372   3.424   2.973   2.165
 3817TIP3    H111373   3.421   3.062   2.205
 3817TIP3    H211374   3.519   2.953   2.176
 3818TIP3   OH211375   4.682   3.463   3.062
 3818TIP3    H111376   4.585   3.468   3.077
 3818TIP3    H211377   4.682   3.421   2.975
 3819TIP3   OH211378   4.330   3.661   2.451
 3819TIP3    H111379   4.251   3.604   2.465
 3819TIP3    H211380   4.399   3.612   2.501
 3820TIP3   OH211381   3.039   3.890   1.921
 3820TIP3    H111382   3.103   3.963   1.933
 3820TIP3    H211383   3.088   3.837   1.854
 3821TIP3   OH211384   2.987   3.167   2.053
 3821TIP3    H111385   2.987   3.264   2.049
 3821TIP3    H211386   2.899   3.145   2.020
 3822TIP3   OH211387   4.296   4.618   2.402
 3822TIP3    H111388   4.253   4.664   2.327
 3822TIP3    H211389   4.390   4.635   2.379
 3823TIP3   OH211390   3.373   2.884   2.928
 3823TIP3    H111391   3.342   2.853   2.840
 3823TIP3    H211392   3.362   2.805   2.983
 3824TIP3   OH211393   2.910   4.101   2.308
 3824TIP3    H111394   2.841   4.134   2.368
 3824TIP3    H211395   2.883   4.143   2.224
 3825TIP3   OH211396   3.067   4.644   3.381
 3825TIP3    H111397   3.153   4.643   3.427
 3825TIP3    H211398   3.046   4.550   3.379
 3826TIP3   OH211399   3.551   4.611   3.424
 3826TIP3    H111400   3.645   4.588   3.431
 3826TIP3    H211401   3.523   4.552   3.352
 3827TIP3   OH211402   3.531   4.186   1.553
 3827TIP3    H111403   3.473   4.116   1.592
 3827TIP3    H211404   3.606   4.132   1.523
 3828TIP3   OH211405   4.191   4.516   3.157
 3828TIP3    H111406   4.179   4.447   3.227
 3828TIP3    H211407   4.266   4.567   3.192
 3829TIP3   OH211408   3.968   4.227   1.466
 3829TIP3    H111409   4.009   4.161   1.525
 3829TIP3    H211410   4.025   4.224   1.387
 3830TIP3   OH211411   3.198   4.052   3.582
 3830TIP3    H111412   3.215   3.956   3.587
 3830TIP3    H211413   3.111   4.053   3.537
 3831TIP3   OH211414   3.175   3.702   1.774
 3831TIP3    H111415   3.230   3.670   1.848
 3831TIP3    H211416   3.244   3.707   1.704
 3832TIP3   OH211417   3.807   4.137   3.354
 3832TIP3    H111418   3.762   4.150   3.268
 3832TIP3    H211419   3.834   4.042   3.349
 3833TIP3   OH211420   3.685   3.902   1.580
 3833TIP3    H111421   3.687   3.914   1.677
 3833TIP3    H211422   3.684   3.804   1.575
 3834TIP3   OH211423   4.302   4.140   2.963
 3834TIP3    H111424   4.368   4.196   2.918
 3834TIP3    H211425   4.221   4.193   2.954
 3835TIP3   OH211426   3.317   3.790   3.562
 3835TIP3    H111427   3.389   3.731   3.538
 3835TIP3    H211428   3.344   3.819   3.652
 3836TIP3   OH211429   3.383   3.607   1.996
 3836TIP3    H111430   3.356   3.570   2.082
 3836TIP3    H211431   3.418   3.529   1.950
 3837TIP3   OH211432   3.646   3.671   3.236
 3837TIP3    H111433   3.572   3.736   3.232
 3837TIP3    H211434   3.677   3.671   3.144
 3838TIP3   OH211435   3.483   3.398   1.837
 3838TIP3    H111436   3.459   3.404   1.743
 3838TIP3    H211437   3.581   3.403   1.831
 3839TIP3   OH211438   4.176   4.078   3.365
 3839TIP3    H111439   4.244   4.042   3.307
 3839TIP3    H211440   4.160   4.003   3.425
 3840TIP3   OH211441   4.308   3.732   1.499
 3840TIP3    H111442   4.285   3.685   1.416
 3840TIP3    H211443   4.273   3.821   1.477
 3841TIP3   OH211444   3.779   3.456   3.350
 3841TIP3    H111445   3.777   3.371   3.303
 3841TIP3    H211446   3.734   3.515   3.287
 3842TIP3   OH211447   3.832   3.806   3.049
 3842TIP3    H111448   3.879   3.764   2.976
 3842TIP3    H211449   3.762   3.857   3.001
 3843TIP3   OH211450   4.389   3.748   3.415
 3843TIP3    H111451   4.437   3.664   3.419
 3843TIP3    H211452   4.456   3.808   3.377
 3844TIP3   OH211453   4.431   4.002   3.154
 3844TIP3    H111454   4.371   4.053   3.094
 3844TIP3    H211455   4.517   4.021   3.111
 3845TIP3   OH211456   3.661   3.568   3.585
 3845TIP3    H111457   3.583   3.511   3.595
 3845TIP3    H211458   3.688   3.550   3.492
 3846TIP3   OH211459   4.037   3.513   3.438
 3846TIP3    H111460   4.019   3.499   3.533
 3846TIP3    H211461   3.949   3.486   3.403
 3847TIP3   OH211462   4.277   3.458   3.298
 3847TIP3    H111463   4.197   3.463   3.354
 3847TIP3    H211464   4.345   3.427   3.360
 3848TIP3   OH211465   4.521   3.404   3.450
 3848TIP3    H111466   4.519   3.308   3.470
 3848TIP3    H211467   4.507   3.445   3.537
 3849TIP3   OH211468   3.486   3.353   3.637
 3849TIP3    H111469   3.538   3.295   3.581
 3849TIP3    H211470   3.526   3.339   3.726
 3850TIP3   OH211471   4.063   3.225   3.634
 3850TIP3    H111472   4.035   3.172   3.555
 3850TIP3    H211473   3.989   3.290   3.635
 3851TIP3   OH211474   3.291   4.462   1.741
 3851TIP3    H111475   3.386   4.458   1.722
 3851TIP3    H211476   3.261   4.512   1.663
 3852TIP3   OH211477   2.770   3.845   1.955
 3852TIP3    H111478   2.866   3.867   1.944
 3852TIP3    H211479   2.767   3.755   1.916
 3853TIP3   OH211480   2.689   4.456   2.370
 3853TIP3    H111481   2.619   4.396   2.335
 3853TIP3    H211482   2.731   4.399   2.438
 3854TIP3   OH211483   2.824   4.307   2.558
 3854TIP3    H111484   2.810   4.235   2.621
 3854TIP3    H211485   2.874   4.369   2.614
 3855TIP3   OH211486   4.551   4.705   2.358
 3855TIP3    H111487   4.574   4.736   2.447
 3855TIP3    H211488   4.608   4.759   2.302
 3856TIP3   OH211489   4.581   4.727   2.638
 3856TIP3    H111490   4.532   4.642   2.634
 3856TIP3    H211491   4.650   4.703   2.701
 3857TIP3   OH211492   4.626   4.404   3.214
 3857TIP3    H111493   4.551   4.412   3.277
 3857TIP3    H211494   4.665   4.493   3.218
 3858TIP3   OH211495   4.442   3.917   1.834
 3858TIP3    H111496   4.510   3.981   1.806
 3858TIP3    H211497   4.484   3.878   1.914
 3859TIP3   OH211498   4.569   3.785   2.038
 3859TIP3    H111499   4.501   3.742   2.095
 3859TIP3    H211500   4.630   3.825   2.104
 3860TIP3   OH211501   4.626   4.179   2.472
 3860TIP3    H111502   4.675   4.112   2.421
 3860TIP3    H211503   4.611   4.249   2.406
 3861TIP3   OH211504   4.454   4.480   2.663
 3861TIP3    H111505   4.382   4.520   2.716
 3861TIP3    H211506   4.403   4.432   2.594
 3862TIP3   OH211507   4.507   3.694   1.683
 3862TIP3    H111508   4.436   3.695   1.616
 3862TIP3    H211509   4.478   3.768   1.739
 3863TIP3   OH211510   4.380   3.366   1.636
 3863TIP3    H111511   4.333   3.403   1.561
 3863TIP3    H211512   4.354   3.271   1.629
 3864TIP3   OH211513   4.385   3.642   2.184
 3864TIP3    H111514   4.389   3.545   2.177
 3864TIP3    H211515   4.369   3.655   2.280
 3865TIP3   OH211516   3.009   3.719   2.929
 3865TIP3    H111517   3.011   3.688   2.837
 3865TIP3    H211518   3.105   3.721   2.950
 3866TIP3   OH211519   4.673   4.067   3.041
 3866TIP3    H111520   4.745   4.001   3.031
 3866TIP3    H211521   4.697   4.135   2.976
 3867TIP3   OH211522   4.860   3.872   3.055
 3867TIP3    H111523   4.783   3.824   3.093
 3867TIP3    H211524   4.930   3.806   3.071
 3868TIP3   OH211525   4.321   3.100   1.624
 3868TIP3    H111526   4.395   3.069   1.680
 3868TIP3    H211527   4.247   3.042   1.648
 3869TIP3   OH211528   4.379   3.358   2.079
 3869TIP3    H111529   4.418   3.269   2.095
 3869TIP3    H211530   4.438   3.389   2.008
 3870TIP3   OH211531   4.542   3.529   2.574
 3870TIP3    H111532   4.628   3.557   2.535
 3870TIP3    H211533   4.552   3.567   2.664
 3871TIP3   OH211534   4.610   3.675   2.805
 3871TIP3    H111535   4.532   3.707   2.855
 3871TIP3    H211536   4.640   3.758   2.762
 3872TIP3   OH211537   3.218   3.395   3.597
 3872TIP3    H111538   3.316   3.393   3.602
 3872TIP3    H211539   3.197   3.316   3.651
 3873TIP3   OH211540   5.063   3.264   3.363
 3873TIP3    H111541   5.122   3.201   3.317
 3873TIP3    H211542   5.031   3.320   3.289
 3874TIP3   OH211543   4.488   3.108   2.115
 3874TIP3    H111544   4.535   3.093   2.200
 3874TIP3    H211545   4.427   3.032   2.115
 3875TIP3   OH211546   3.194   3.100   2.935
 3875TIP3    H111547   3.258   3.027   2.948
 3875TIP3    H211548   3.255   3.176   2.933
 3876TIP3   OH211549   2.990   3.367   3.008
 3876TIP3    H111550   3.042   3.363   2.925
 3876TIP3    H211551   3.024   3.448   3.048
 3877TIP3   OH211552   4.933   3.405   3.171
 3877TIP3    H111553   4.848   3.449   3.191
 3877TIP3    H211554   4.900   3.336   3.110
 3878TIP3   OH211555   4.570   3.043   1.749
 3878TIP3    H111556   4.608   2.970   1.696
 3878TIP3    H211557   4.638   3.112   1.742
 3879TIP3   OH211558   2.973   2.866   2.506
 3879TIP3    H111559   2.881   2.868   2.537
 3879TIP3    H211560   2.970   2.929   2.430
 3880TIP3   OH211561   4.135   4.574   2.015
 3880TIP3    H111562   4.186   4.562   1.932
 3880TIP3    H211563   4.186   4.642   2.061
 3881TIP3   OH211564   3.191   2.945   3.325
 3881TIP3    H111565   3.137   2.953   3.406
 3881TIP3    H211566   3.132   2.990   3.261
 3882TIP3   OH211567   3.234   4.382   3.403
 3882TIP3    H111568   3.144   4.351   3.383
 3882TIP3    H211569   3.243   4.357   3.495
 3883TIP3   OH211570   3.411   4.411   2.949
 3883TIP3    H111571   3.363   4.486   2.910
 3883TIP3    H211572   3.497   4.424   2.905
 3884TIP3   OH211573   3.857   4.656   3.087
 3884TIP3    H111574   3.899   4.657   3.176
 3884TIP3    H211575   3.923   4.707   3.035
 3885TIP3   OH211576   4.036   4.808   2.945
 3885TIP3    H111577   4.106   4.754   2.905
 3885TIP3    H211578   4.088   4.864   3.006
 3886TIP3   OH211579   4.830   3.171   3.046
 3886TIP3    H111580   4.740   3.170   3.010
 3886TIP3    H211581   4.857   3.077   3.033
 3887TIP3   OH211582   3.089   4.670   2.970
 3887TIP3    H111583   2.999   4.703   2.948
 3887TIP3    H211584   3.097   4.702   3.061
 3888TIP3   OH211585   3.326   4.648   2.830
 3888TIP3    H111586   3.239   4.660   2.875
 3888TIP3    H211587   3.305   4.680   2.740
 3889TIP3   OH211588   3.752   4.677   2.626
 3889TIP3    H111589   3.680   4.695   2.563
 3889TIP3    H211590   3.763   4.764   2.670
 3890TIP3   OH211591   4.020   4.617   2.677
 3890TIP3    H111592   3.925   4.631   2.659
 3890TIP3    H211593   4.059   4.696   2.638
 3891TIP3   OH211594   4.233   4.809   2.595
 3891TIP3    H111595   4.215   4.892   2.546
 3891TIP3    H211596   4.253   4.746   2.523
 3892TIP3   OH211597   3.001   4.462   2.717
 3892TIP3    H111598   3.026   4.436   2.808
 3892TIP3    H211599   3.072   4.416   2.667
 3893TIP3   OH211600   3.194   4.332   2.573
 3893TIP3    H111601   3.209   4.248   2.623
 3893TIP3    H211602   3.285   4.368   2.569
 3894TIP3   OH211603   3.461   4.427   2.576
 3894TIP3    H111604   3.491   4.334   2.566
 3894TIP3    H211605   3.504   4.449   2.661
 3895TIP3   OH211606   4.040   3.086   2.666
 3895TIP3    H111607   3.991   3.022   2.721
 3895TIP3    H211608   4.106   3.030   2.623
 3896TIP3   OH211609   4.562   2.963   2.570
 3896TIP3    H111610   4.596   3.017   2.496
 3896TIP3    H211611   4.466   2.980   2.565
 3897TIP3   OH211612   4.655   3.065   2.333
 3897TIP3    H111613   4.728   3.015   2.291
 3897TIP3    H211614   4.685   3.158   2.319
 3898TIP3   OH211615   3.284   2.792   2.677
 3898TIP3    H111616   3.192   2.760   2.681
 3898TIP3    H211617   3.333   2.707   2.675
 3899TIP3   OH211618   3.063   2.663   2.327
 3899TIP3    H111619   3.099   2.721   2.257
 3899TIP3    H211620   3.041   2.728   2.397
 3900TIP3   OH211621   3.727   2.824   2.562
 3900TIP3    H111622   3.786   2.876   2.506
 3900TIP3    H211623   3.738   2.867   2.647
 3901TIP3   OH211624   4.283   2.971   2.542
 3901TIP3    H111625   4.268   2.935   2.454
 3901TIP3    H211626   4.265   2.891   2.598
 3902TIP3   OH211627   4.304   2.895   2.107
 3902TIP3    H111628   4.218   2.938   2.120
 3902TIP3    H211629   4.289   2.810   2.153
 3903TIP3   OH211630   2.789   4.232   2.106
 3903TIP3    H111631   2.702   4.201   2.074
 3903TIP3    H211632   2.777   4.327   2.093
 3904TIP3   OH211633   3.188   2.826   2.088
 3904TIP3    H111634   3.237   2.760   2.035
 3904TIP3    H211635   3.261   2.878   2.126
 3905TIP3   OH211636   3.702   2.997   2.190
 3905TIP3    H111637   3.760   2.950   2.252
 3905TIP3    H211638   3.723   3.090   2.217
 3906TIP3   OH211639   3.559   4.423   1.689
 3906TIP3    H111640   3.648   4.445   1.654
 3906TIP3    H211641   3.537   4.348   1.630
 3907TIP3   OH211642   4.282   4.541   1.782
 3907TIP3    H111643   4.273   4.443   1.772
 3907TIP3    H211644   4.233   4.572   1.703
 3908TIP3   OH211645   3.498   3.003   3.595
 3908TIP3    H111646   3.489   3.054   3.677
 3908TIP3    H211647   3.583   3.038   3.564
 3909TIP3   OH211648   3.744   3.086   3.691
 3909TIP3    H111649   3.813   3.071   3.623
 3909TIP3    H211650   3.750   3.006   3.746
 3910TIP3   OH211651   2.863   4.259   1.747
 3910TIP3    H111652   2.860   4.285   1.840
 3910TIP3    H211653   2.952   4.220   1.738
 3911TIP3   OH211654   4.571   3.129   3.483
 3911TIP3    H111655   4.600   3.103   3.572
 3911TIP3    H211656   4.655   3.130   3.433
 3912TIP3   OH211657   4.507   4.685   2.969
 3912TIP3    H111658   4.428   4.651   2.922
 3912TIP3    H211659   4.484   4.780   2.975
 3913TIP3   OH211660   5.772   4.059   1.737
 3913TIP3    H111661   5.742   4.149   1.716
 3913TIP3    H211662   5.696   4.007   1.704
 3914TIP3   OH211663   5.771   4.058   2.118
 3914TIP3    H111664   5.802   4.027   2.205
 3914TIP3    H211665   5.729   3.978   2.082
 3915TIP3   OH211666   5.071   3.952   2.480
 3915TIP3    H111667   5.099   3.883   2.543
 3915TIP3    H211668   5.148   4.011   2.481
 3916TIP3   OH211669   6.014   4.361   1.799
 3916TIP3    H111670   5.998   4.287   1.859
 3916TIP3    H211671   6.043   4.431   1.858
 3917TIP3   OH211672   5.041   4.364   2.207
 3917TIP3    H111673   5.031   4.266   2.210
 3917TIP3    H211674   5.138   4.371   2.206
 3918TIP3   OH211675   4.750   3.568   1.993
 3918TIP3    H111676   4.698   3.649   2.008
 3918TIP3    H211677   4.680   3.510   1.958
 3919TIP3   OH211678   4.810   3.854   2.165
 3919TIP3    H111679   4.856   3.775   2.201
 3919TIP3    H211680   4.863   3.875   2.088
 3920TIP3   OH211681   5.672   4.832   1.817
 3920TIP3    H111682   5.714   4.759   1.767
 3920TIP3    H211683   5.650   4.788   1.900
 3921TIP3   OH211684   5.569   4.284   2.165
 3921TIP3    H111685   5.605   4.206   2.120
 3921TIP3    H211686   5.654   4.327   2.189
 3922TIP3   OH211687   6.582   3.603   2.164
 3922TIP3    H111688   6.612   3.686   2.207
 3922TIP3    H211689   6.603   3.622   2.071
 3923TIP3   OH211690   5.983   3.786   2.198
 3923TIP3    H111691   6.024   3.700   2.219
 3923TIP3    H211692   5.951   3.769   2.108
 3924TIP3   OH211693   5.320   3.444   2.163
 3924TIP3    H111694   5.298   3.516   2.101
 3924TIP3    H211695   5.273   3.370   2.120
 3925TIP3   OH211696   6.013   3.536   1.786
 3925TIP3    H111697   6.085   3.518   1.851
 3925TIP3    H211698   6.066   3.570   1.712
 3926TIP3   OH211699   4.953   3.646   2.270
 3926TIP3    H111700   5.035   3.626   2.318
 3926TIP3    H211701   4.965   3.589   2.191
 3927TIP3   OH211702   5.394   3.844   2.062
 3927TIP3    H111703   5.487   3.817   2.076
 3927TIP3    H211704   5.354   3.759   2.031
 3928TIP3   OH211705   6.657   3.812   2.333
 3928TIP3    H111706   6.572   3.858   2.314
 3928TIP3    H211707   6.666   3.833   2.427
 3929TIP3   OH211708   5.316   3.428   2.599
 3929TIP3    H111709   5.255   3.464   2.531
 3929TIP3    H211710   5.264   3.445   2.680
 3930TIP3   OH211711   5.667   4.281   1.604
 3930TIP3    H111712   5.619   4.254   1.525
 3930TIP3    H211713   5.619   4.363   1.628
 3931TIP3   OH211714   5.424   4.203   2.394
 3931TIP3    H111715   5.360   4.266   2.433
 3931TIP3    H211716   5.462   4.255   2.321
 3932TIP3   OH211717   6.225   3.537   1.957
 3932TIP3    H111718   6.213   3.487   2.039
 3932TIP3    H211719   6.277   3.613   1.986
 3933TIP3   OH211720   5.187   3.542   2.382
 3933TIP3    H111721   5.250   3.614   2.406
 3933TIP3    H211722   5.235   3.501   2.307
 3934TIP3   OH211723   5.250   4.395   2.492
 3934TIP3    H111724   5.223   4.481   2.454
 3934TIP3    H211725   5.171   4.377   2.548
 3935TIP3   OH211726   4.647   4.086   1.726
 3935TIP3    H111727   4.602   4.113   1.645
 3935TIP3    H211728   4.676   4.171   1.763
 3936TIP3   OH211729   6.086   4.604   1.969
 3936TIP3    H111730   5.996   4.591   2.009
 3936TIP3    H211731   6.073   4.688   1.922
 3937TIP3   OH211732   6.374   3.505   2.331
 3937TIP3    H111733   6.286   3.531   2.299
 3937TIP3    H211734   6.433   3.536   2.259
 3938TIP3   OH211735   5.673   3.147   2.313
 3938TIP3    H111736   5.658   3.052   2.329
 3938TIP3    H211737   5.595   3.185   2.359
 3939TIP3   OH211738   5.788   4.652   1.643
 3939TIP3    H111739   5.835   4.568   1.624
 3939TIP3    H211740   5.850   4.715   1.599
 3940TIP3   OH211741   5.929   4.437   1.548
 3940TIP3    H111742   5.887   4.358   1.510
 3940TIP3    H211743   5.966   4.400   1.631
 3941TIP3   OH211744   6.310   4.517   2.309
 3941TIP3    H111745   6.299   4.437   2.253
 3941TIP3    H211746   6.296   4.589   2.245
 3942TIP3   OH211747   5.603   3.910   1.568
 3942TIP3    H111748   5.522   3.960   1.546
 3942TIP3    H211749   5.647   3.904   1.481
 3943TIP3   OH211750   5.560   3.693   1.285
 3943TIP3    H111751   5.629   3.744   1.331
 3943TIP3    H211752   5.616   3.628   1.237
 3944TIP3   OH211753   6.506   4.153   2.155
 3944TIP3    H111754   6.422   4.204   2.161
 3944TIP3    H211755   6.534   4.176   2.065
 3945TIP3   OH211756   5.950   3.993   1.539
 3945TIP3    H111757   5.895   4.016   1.617
 3945TIP3    H211758   6.034   3.966   1.583
 3946TIP3   OH211759   6.185   4.032   2.450
 3946TIP3    H111760   6.180   4.114   2.501
 3946TIP3    H211761   6.097   4.033   2.406
 3947TIP3   OH211762   5.183   3.990   1.955
 3947TIP3    H111763   5.139   3.932   1.889
 3947TIP3    H211764   5.258   3.935   1.984
 3948TIP3   OH211765   5.315   4.406   2.102
 3948TIP3    H111766   5.289   4.359   2.022
 3948TIP3    H211767   5.403   4.367   2.120
 3949TIP3   OH211768   5.324   3.958   2.312
 3949TIP3    H111769   5.352   3.938   2.220
 3949TIP3    H211770   5.363   4.046   2.329
 3950TIP3   OH211771   5.844   4.598   2.088
 3950TIP3    H111772   5.831   4.675   2.146
 3950TIP3    H211773   5.829   4.522   2.148
 3951TIP3   OH211774   5.455   4.519   2.632
 3951TIP3    H111775   5.395   4.579   2.681
 3951TIP3    H211776   5.390   4.464   2.584
 3952TIP3   OH211777   5.790   3.850   1.365
 3952TIP3    H111778   5.848   3.910   1.417
 3952TIP3    H211779   5.817   3.872   1.273
 3953TIP3   OH211780   5.209   4.074   2.733
 3953TIP3    H111781   5.213   4.160   2.780
 3953TIP3    H211782   5.115   4.052   2.747
 3954TIP3   OH211783   5.534   4.527   1.640
 3954TIP3    H111784   5.610   4.585   1.659
 3954TIP3    H211785   5.470   4.587   1.600
 3955TIP3   OH211786   5.250   4.687   2.723
 3955TIP3    H111787   5.214   4.684   2.633
 3955TIP3    H211788   5.171   4.663   2.777
 3956TIP3   OH211789   6.307   3.091   1.414
 3956TIP3    H111790   6.224   3.109   1.463
 3956TIP3    H211791   6.318   3.174   1.364
 3957TIP3   OH211792   5.048   3.832   1.762
 3957TIP3    H111793   4.981   3.876   1.705
 3957TIP3    H211794   5.009   3.745   1.775
 3958TIP3   OH211795   6.104   4.458   0.962
 3958TIP3    H111796   6.113   4.554   0.947
 3958TIP3    H211797   6.197   4.428   0.949
 3959TIP3   OH211798   4.831   4.216   2.667
 3959TIP3    H111799   4.761   4.195   2.601
 3959TIP3    H211800   4.865   4.127   2.690
 3960TIP3   OH211801   4.682   4.411   2.295
 3960TIP3    H111802   4.779   4.406   2.295
 3960TIP3    H211803   4.667   4.488   2.353
 3961TIP3   OH211804   6.546   4.859   2.353
 3961TIP3    H111805   6.547   4.762   2.369
 3961TIP3    H211806   6.464   4.883   2.402
 3962TIP3   OH211807   5.652   4.646   2.490
 3962TIP3    H111808   5.651   4.738   2.525
 3962TIP3    H211809   5.580   4.606   2.544
 3963TIP3   OH211810   5.417   4.778   1.440
 3963TIP3    H111811   5.367   4.754   1.361
 3963TIP3    H211812   5.378   4.864   1.466
 3964TIP3   OH211813   4.853   4.625   1.827
 3964TIP3    H111814   4.898   4.614   1.914
 3964TIP3    H211815   4.796   4.546   1.828
 3965TIP3   OH211816   5.617   4.679   1.083
 3965TIP3    H111817   5.675   4.608   1.046
 3965TIP3    H211818   5.650   4.684   1.175
 3966TIP3   OH211819   5.668   4.724   1.355
 3966TIP3    H111820   5.577   4.736   1.392
 3966TIP3    H211821   5.709   4.672   1.426
 3967TIP3   OH211822   6.438   3.992   2.630
 3967TIP3    H111823   6.355   4.002   2.581
 3967TIP3    H211824   6.453   3.895   2.621
 3968TIP3   OH211825   5.034   4.399   2.658
 3968TIP3    H111826   5.083   4.381   2.740
 3968TIP3    H211827   4.960   4.335   2.664
 3969TIP3   OH211828   5.434   3.222   2.440
 3969TIP3    H111829   5.346   3.191   2.413
 3969TIP3    H211830   5.408   3.304   2.487
 3970TIP3   OH211831   5.967   3.338   2.635
 3970TIP3    H111832   6.035   3.309   2.700
 3970TIP3    H211833   5.883   3.318   2.681
 3971TIP3   OH211834   6.208   3.768   2.556
 3971TIP3    H111835   6.157   3.762   2.639
 3971TIP3    H211836   6.181   3.854   2.519
 3972TIP3   OH211837   5.868   3.900   1.112
 3972TIP3    H111838   5.832   3.871   1.025
 3972TIP3    H211839   5.949   3.947   1.083
 3973TIP3   OH211840   5.579   3.272   1.412
 3973TIP3    H111841   5.544   3.267   1.503
 3973TIP3    H211842   5.541   3.189   1.376
 3974TIP3   OH211843   5.367   3.737   2.462
 3974TIP3    H111844   5.314   3.758   2.541
 3974TIP3    H211845   5.351   3.817   2.407
 3975TIP3   OH211846   5.248   3.625   1.974
 3975TIP3    H111847   5.156   3.598   1.992
 3975TIP3    H211848   5.261   3.584   1.885
 3976TIP3   OH211849   5.741   3.711   1.702
 3976TIP3    H111850   5.688   3.781   1.659
 3976TIP3    H211851   5.794   3.678   1.627
 3977TIP3   OH211852   5.914   3.989   2.788
 3977TIP3    H111853   5.892   3.916   2.850
 3977TIP3    H211854   6.008   4.002   2.810
 3978TIP3   OH211855   5.898   3.739   1.939
 3978TIP3    H111856   5.836   3.766   1.869
 3978TIP3    H211857   5.932   3.657   1.898
 3979TIP3   OH211858   5.185   3.766   2.668
 3979TIP3    H111859   5.205   3.830   2.738
 3979TIP3    H211860   5.171   3.684   2.718
 3980TIP3   OH211861   5.234   3.245   1.377
 3980TIP3    H111862   5.226   3.241   1.475
 3980TIP3    H211863   5.154   3.296   1.354
 3981TIP3   OH211864   4.777   3.290   2.247
 3981TIP3    H111865   4.854   3.319   2.300
 3981TIP3    H211866   4.816   3.254   2.166
 3982TIP3   OH211867   4.752   3.270   1.768
 3982TIP3    H111868   4.797   3.308   1.690
 3982TIP3    H211869   4.690   3.343   1.788
 3983TIP3   OH211870   5.910   3.985   2.363
 3983TIP3    H111871   5.942   3.913   2.305
 3983TIP3    H211872   5.879   3.932   2.440
 3984TIP3   OH211873   5.577   3.449   2.035
 3984TIP3    H111874   5.493   3.445   2.085
 3984TIP3    H211875   5.643   3.444   2.107
 3985TIP3   OH211876   5.011   3.502   2.042
 3985TIP3    H111877   4.916   3.510   2.015
 3985TIP3    H211878   5.031   3.409   2.020
 3986TIP3   OH211879   5.280   3.500   1.731
 3986TIP3    H111880   5.374   3.512   1.708
 3986TIP3    H211881   5.232   3.520   1.648
 3987TIP3   OH211882   6.068   3.522   2.236
 3987TIP3    H111883   6.034   3.534   2.327
 3987TIP3    H211884   6.002   3.460   2.201
 3988TIP3   OH211885   5.121   3.533   1.511
 3988TIP3    H111886   5.048   3.488   1.466
 3988TIP3    H211887   5.172   3.566   1.435
 3989TIP3   OH211888   6.239   5.212   2.455
 3989TIP3    H111889   6.241   5.236   2.361
 3989TIP3    H211890   6.319   5.256   2.489
 3990TIP3   OH211891   5.197   4.322   2.877
 3990TIP3    H111892   5.275   4.351   2.928
 3990TIP3    H211893   5.131   4.317   2.949
 3991TIP3   OH211894   5.659   3.775   2.134
 3991TIP3    H111895   5.730   3.732   2.083
 3991TIP3    H211896   5.666   3.731   2.221
 3992TIP3   OH211897   5.185   3.261   2.011
 3992TIP3    H111898   5.148   3.184   2.058
 3992TIP3    H211899   5.231   3.220   1.937
 3993TIP3   OH211900   5.636   3.672   2.420
 3993TIP3    H111901   5.546   3.706   2.435
 3993TIP3    H211902   5.692   3.732   2.472
 3994TIP3   OH211903   5.372   4.063   1.517
 3994TIP3    H111904   5.302   3.995   1.506
 3994TIP3    H211905   5.353   4.096   1.608
 3995TIP3   OH211906   6.273   4.299   2.147
 3995TIP3    H111907   6.295   4.347   2.065
 3995TIP3    H211908   6.189   4.254   2.122
 3996TIP3   OH211909   5.831   3.373   1.381
 3996TIP3    H111910   5.734   3.354   1.388
 3996TIP3    H211911   5.837   3.468   1.405
 3997TIP3   OH211912   5.782   4.387   2.512
 3997TIP3    H111913   5.792   4.352   2.601
 3997TIP3    H211914   5.730   4.468   2.526
 3998TIP3   OH211915   5.900   3.622   1.485
 3998TIP3    H111916   5.996   3.627   1.499
 3998TIP3    H211917   5.882   3.702   1.431
 3999TIP3   OH211918   5.070   4.089   2.194
 3999TIP3    H111919   5.104   4.054   2.109
 3999TIP3    H211920   5.098   4.020   2.256
 4000TIP3   OH211921   5.517   4.212   1.338
 4000TIP3    H111922   5.470   4.298   1.345
 4000TIP3    H211923   5.462   4.156   1.398
 4001TIP3   OH211924   4.947   4.002   2.805
 4001TIP3    H111925   4.961   3.987   2.900
 4001TIP3    H211926   4.875   3.939   2.787
 4002TIP3   OH211927   5.671   4.119   2.824
 4002TIP3    H111928   5.609   4.058   2.780
 4002TIP3    H211929   5.757   4.082   2.796
 4003TIP3   OH211930   5.932   4.654   2.402
 4003TIP3    H111931   5.838   4.636   2.420
 4003TIP3    H211932   5.959   4.695   2.487
 4004TIP3   OH211933   6.343   3.711   1.318
 4004TIP3    H111934   6.281   3.666   1.256
 4004TIP3    H211935   6.340   3.800   1.278
 4005TIP3   OH211936   6.561   4.571   2.398
 4005TIP3    H111937   6.463   4.564   2.391
 4005TIP3    H211938   6.587   4.539   2.309
 4006TIP3   OH211939   6.046   4.529   1.228
 4006TIP3    H111940   6.016   4.459   1.289
 4006TIP3    H211941   6.054   4.482   1.143
 4007TIP3   OH211942   6.039   4.160   2.065
 4007TIP3    H111943   5.946   4.134   2.079
 4007TIP3    H211944   6.073   4.080   2.020
 4008TIP3   OH211945   5.165   4.387   1.816
 4008TIP3    H111946   5.160   4.469   1.762
 4008TIP3    H211947   5.071   4.368   1.829
 4009TIP3   OH211948   4.729   3.691   1.521
 4009TIP3    H111949   4.774   3.776   1.542
 4009TIP3    H211950   4.652   3.695   1.582
 4010TIP3   OH211951   5.307   4.154   1.762
 4010TIP3    H111952   5.269   4.243   1.781
 4010TIP3    H211953   5.270   4.101   1.835
 4011TIP3   OH211954   5.434   4.732   2.288
 4011TIP3    H111955   5.478   4.803   2.237
 4011TIP3    H211956   5.509   4.694   2.336
 4012TIP3   OH211957   5.085   4.626   1.669
 4012TIP3    H111958   4.999   4.633   1.717
 4012TIP3    H211959   5.114   4.720   1.671
 4013TIP3   OH211960   5.826   4.366   2.244
 4013TIP3    H111961   5.816   4.365   2.342
 4013TIP3    H211962   5.902   4.307   2.232
 4014TIP3   OH211963   5.798   4.260   1.127
 4014TIP3    H111964   5.850   4.233   1.206
 4014TIP3    H211965   5.709   4.230   1.153
 4015TIP3   OH211966   6.071   4.902   2.298
 4015TIP3    H111967   5.996   4.838   2.297
 4015TIP3    H211968   6.048   4.961   2.224
 4016TIP3   OH211969   6.137   4.733   0.948
 4016TIP3    H111970   6.168   4.804   0.889
 4016TIP3    H211971   6.057   4.777   0.983
 4017TIP3   OH211972   5.155   3.509   2.814
 4017TIP3    H111973   5.059   3.515   2.827
 4017TIP3    H211974   5.182   3.450   2.886
 4018TIP3   OH211975   5.958   4.194   1.344
 4018TIP3    H111976   5.946   4.128   1.415
 4018TIP3    H211977   6.056   4.189   1.333
 4019TIP3   OH211978   4.877   4.594   2.444
 4019TIP3    H111979   4.925   4.516   2.477
 4019TIP3    H211980   4.897   4.658   2.513
 4020TIP3   OH211981   5.164   4.239   1.127
 4020TIP3    H111982   5.177   4.147   1.098
 4020TIP3    H211983   5.145   4.226   1.222
 4021TIP3   OH211984   5.110   4.244   1.399
 4021TIP3    H111985   5.179   4.214   1.460
 4021TIP3    H211986   5.115   4.342   1.408
 4022TIP3   OH211987   4.846   3.938   1.603
 4022TIP3    H111988   4.779   3.981   1.660
 4022TIP3    H211989   4.858   4.008   1.535
 4023TIP3   OH211990   5.994   3.574   2.496
 4023TIP3    H111991   6.074   3.610   2.537
 4023TIP3    H211992   5.978   3.493   2.549
 4024TIP3   OH211993   5.872   3.326   1.661
 4024TIP3    H111994   5.859   3.346   1.567
 4024TIP3    H211995   5.911   3.409   1.696
 4025TIP3   OH211996   5.377   4.443   1.350
 4025TIP3    H111997   5.289   4.467   1.386
 4025TIP3    H211998   5.387   4.510   1.281
 4026TIP3   OH211999   5.565   3.505   1.763
 4026TIP3    H112000   5.629   3.577   1.747
 4026TIP3    H212001   5.568   3.498   1.861
 4027TIP3   OH212002   5.834   3.825   2.569
 4027TIP3    H112003   5.852   3.877   2.650
 4027TIP3    H212004   5.886   3.745   2.584
 4028TIP3   OH212005   5.708   3.233   1.867
 4028TIP3    H112006   5.699   3.312   1.923
 4028TIP3    H212007   5.768   3.267   1.796
 4029TIP3   OH212008   5.121   4.518   1.416
 4029TIP3    H112009   5.088   4.586   1.354
 4029TIP3    H212010   5.102   4.559   1.503
 4030TIP3   OH212011   5.219   3.230   1.654
 4030TIP3    H112012   5.217   3.320   1.692
 4030TIP3    H212013   5.315   3.211   1.662
 4031TIP3   OH212014   6.474   3.724   2.549
 4031TIP3    H112015   6.377   3.723   2.560
 4031TIP3    H212016   6.482   3.678   2.464
 4032TIP3   OH212017   6.124   3.919   1.939
 4032TIP3    H112018   6.048   3.859   1.950
 4032TIP3    H212019   6.195   3.871   1.986
 4033TIP3   OH212020   4.836   4.146   1.408
 4033TIP3    H112021   4.902   4.217   1.418
 4033TIP3    H212022   4.882   4.091   1.341
 4034TIP3   OH212023   4.782   3.423   1.542
 4034TIP3    H112024   4.778   3.520   1.538
 4034TIP3    H212025   4.698   3.398   1.501
 4035TIP3   OH212026   6.091   4.880   1.892
 4035TIP3    H112027   6.048   4.928   1.818
 4035TIP3    H212028   6.185   4.897   1.870
 4036TIP3   OH212029   5.170   3.142   2.415
 4036TIP3    H112030   5.138   3.109   2.329
 4036TIP3    H212031   5.159   3.064   2.473
 4037TIP3   OH212032   4.709   4.363   1.796
 4037TIP3    H112033   4.639   4.391   1.855
 4037TIP3    H212034   4.678   4.402   1.711
 4038TIP3   OH212035   4.863   4.901   2.865
 4038TIP3    H112036   4.948   4.896   2.912
 4038TIP3    H212037   4.837   4.807   2.865
 4039TIP3   OH212038   5.354   4.873   2.904
 4039TIP3    H112039   5.443   4.837   2.916
 4039TIP3    H212040   5.320   4.811   2.836
 4040TIP3   OH212041   5.328   4.442   1.042
 4040TIP3    H112042   5.270   4.371   1.078
 4040TIP3    H212043   5.403   4.388   1.010
 4041TIP3   OH212044   5.986   4.773   2.645
 4041TIP3    H112045   5.974   4.703   2.714
 4041TIP3    H212046   6.063   4.822   2.678
 4042TIP3   OH212047   5.764   4.485   0.953
 4042TIP3    H112048   5.806   4.417   1.010
 4042TIP3    H212049   5.819   4.482   0.872
 4043TIP3   OH212050   4.996   4.309   3.067
 4043TIP3    H112051   5.010   4.213   3.076
 4043TIP3    H212052   4.907   4.312   3.024
 4044TIP3   OH212053   4.972   3.961   1.260
 4044TIP3    H112054   5.025   3.925   1.333
 4044TIP3    H212055   5.040   3.965   1.190
 4045TIP3   OH212056   5.604   4.394   2.840
 4045TIP3    H112057   5.558   4.407   2.755
 4045TIP3    H212058   5.633   4.301   2.835
 4046TIP3   OH212059   5.483   4.160   1.068
 4046TIP3    H112060   5.484   4.170   1.166
 4046TIP3    H212061   5.483   4.062   1.061
 4047TIP3   OH212062   6.097   4.399   2.449
 4047TIP3    H112063   6.168   4.448   2.404
 4047TIP3    H212064   6.021   4.458   2.435
 4048TIP3   OH212065   5.116   4.046   3.049
 4048TIP3    H112066   5.186   3.981   3.032
 4048TIP3    H212067   5.141   4.077   3.139
 4049TIP3   OH212068   5.184   3.863   1.486
 4049TIP3    H112069   5.152   3.821   1.567
 4049TIP3    H212070   5.217   3.787   1.435
 4050TIP3   OH212071   5.451   3.930   2.715
 4050TIP3    H112072   5.370   3.986   2.714
 4050TIP3    H212073   5.499   3.963   2.635
 4051TIP3   OH212074   5.279   3.657   1.324
 4051TIP3    H112075   5.254   3.659   1.229
 4051TIP3    H212076   5.377   3.660   1.317
 4052TIP3   OH212077   5.968   4.331   2.847
 4052TIP3    H112078   6.046   4.302   2.799
 4052TIP3    H212079   5.960   4.264   2.917
 4053TIP3   OH212080   6.106   3.989   0.985
 4053TIP3    H112081   6.081   3.941   0.903
 4053TIP3    H212082   6.070   4.078   0.962
 4054TIP3   OH212083   5.573   3.716   2.837
 4054TIP3    H112084   5.571   3.635   2.781
 4054TIP3    H212085   5.528   3.782   2.780
 4055TIP3   OH212086   5.575   3.502   2.645
 4055TIP3    H112087   5.601   3.542   2.560
 4055TIP3    H212088   5.481   3.479   2.627
 4056TIP3   OH212089   5.604   4.039   2.519
 4056TIP3    H112090   5.684   4.044   2.467
 4056TIP3    H212091   5.545   4.104   2.474
 4057TIP3   OH212092   6.183   4.004   2.898
 4057TIP3    H112093   6.230   3.921   2.915
 4057TIP3    H212094   6.254   4.060   2.864
 4058TIP3   OH212095   6.226   4.258   2.638
 4058TIP3    H112096   6.168   4.310   2.578
 4058TIP3    H212097   6.314   4.277   2.597
 4059TIP3   OH212098   5.451   3.828   3.068
 4059TIP3    H112099   5.382   3.760   3.083
 4059TIP3    H212100   5.484   3.801   2.980
 4060TIP3   OH212101   5.707   3.265   2.711
 4060TIP3    H112102   5.657   3.347   2.689
 4060TIP3    H212103   5.638   3.197   2.700
 4061TIP3   OH212104   5.833   3.771   2.928
 4061TIP3    H112105   5.821   3.757   3.024
 4061TIP3    H212106   5.743   3.745   2.898
 4062TIP3   OH212107   6.071   3.718   2.783
 4062TIP3    H112108   5.997   3.720   2.846
 4062TIP3    H212109   6.145   3.688   2.840
 4063TIP3   OH212110   6.302   3.659   2.932
 4063TIP3    H112111   6.314   3.563   2.952
 4063TIP3    H212112   6.297   3.699   3.021
 4064TIP3   OH212113   5.291   3.608   3.120
 4064TIP3    H112114   5.295   3.516   3.086
 4064TIP3    H212115   5.325   3.595   3.211
 4065TIP3   OH212116   5.801   3.275   2.969
 4065TIP3    H112117   5.868   3.204   2.963
 4065TIP3    H212118   5.761   3.269   2.880
 4066TIP3   OH212119   5.868   3.491   3.128
 4066TIP3    H112120   5.846   3.420   3.064
 4066TIP3    H212121   5.789   3.549   3.122
 4067TIP3   OH212122   5.088   4.723   1.229
 4067TIP3    H112123   5.183   4.718   1.206
 4067TIP3    H212124   5.055   4.769   1.151
 4068TIP3   OH212125   4.567   4.101   1.444
 4068TIP3    H112126   4.662   4.122   1.430
 4068TIP3    H212127   4.561   4.012   1.404
 4069TIP3   OH212128   4.485   4.714   1.857
 4069TIP3    H112129   4.416   4.653   1.821
 4069TIP3    H212130   4.527   4.656   1.924
 4070TIP3   OH212131   4.619   4.566   2.046
 4070TIP3    H112132   4.605   4.491   2.107
 4070TIP3    H212133   4.667   4.626   2.104
 4071TIP3   OH212134   6.341   4.980   1.843
 4071TIP3    H112135   6.375   4.997   1.932
 4071TIP3    H212136   6.416   5.001   1.787
 4072TIP3   OH212137   6.378   4.985   2.126
 4072TIP3    H112138   6.331   4.898   2.124
 4072TIP3    H212139   6.452   4.960   2.184
 4073TIP3   OH212140   6.420   4.662   2.699
 4073TIP3    H112141   6.347   4.670   2.765
 4073TIP3    H212142   6.462   4.750   2.705
 4074TIP3   OH212143   6.237   4.175   1.321
 4074TIP3    H112144   6.307   4.237   1.293
 4074TIP3    H212145   6.279   4.135   1.401
 4075TIP3   OH212146   6.364   4.043   1.525
 4075TIP3    H112147   6.298   3.999   1.583
 4075TIP3    H212148   6.429   4.079   1.589
 4076TIP3   OH212149   6.419   4.435   1.956
 4076TIP3    H112150   6.472   4.367   1.909
 4076TIP3    H212151   6.409   4.504   1.888
 4077TIP3   OH212152   6.251   4.738   2.148
 4077TIP3    H112153   6.178   4.771   2.205
 4077TIP3    H212154   6.201   4.687   2.081
 4078TIP3   OH212155   6.304   3.951   1.171
 4078TIP3    H112156   6.232   3.952   1.103
 4078TIP3    H212157   6.274   4.025   1.227
 4079TIP3   OH212158   6.176   3.624   1.122
 4079TIP3    H112159   6.127   3.657   1.046
 4079TIP3    H212160   6.152   3.529   1.120
 4080TIP3   OH212161   6.180   3.898   1.671
 4080TIP3    H112162   6.186   3.801   1.663
 4080TIP3    H212163   6.165   3.910   1.767
 4081TIP3   OH212164   4.805   3.971   2.417
 4081TIP3    H112165   4.803   3.941   2.323
 4081TIP3    H212166   4.902   3.972   2.433
 4082TIP3   OH212167   6.469   4.324   2.527
 4082TIP3    H112168   6.541   4.257   2.519
 4082TIP3    H212169   6.497   4.392   2.463
 4083TIP3   OH212170   6.654   4.129   2.545
 4083TIP3    H112171   6.579   4.078   2.582
 4083TIP3    H212172   6.727   4.065   2.559
 4084TIP3   OH212173   6.116   3.360   1.114
 4084TIP3    H112174   6.190   3.322   1.166
 4084TIP3    H212175   6.044   3.295   1.127
 4085TIP3   OH212176   6.176   3.615   1.566
 4085TIP3    H112177   6.214   3.525   1.582
 4085TIP3    H212178   6.235   3.645   1.495
 4086TIP3   OH212179   6.337   3.789   2.060
 4086TIP3    H112180   6.423   3.815   2.020
 4086TIP3    H212181   6.350   3.825   2.150
 4087TIP3   OH212182   6.406   3.932   2.292
 4087TIP3    H112183   6.328   3.965   2.341
 4087TIP3    H212184   6.438   4.013   2.248
 4088TIP3   OH212185   5.024   3.659   3.094
 4088TIP3    H112186   5.121   3.651   3.095
 4088TIP3    H212187   4.998   3.574   3.134
 4089TIP3   OH212188   6.855   3.523   2.848
 4089TIP3    H112189   6.916   3.458   2.806
 4089TIP3    H212190   6.829   3.578   2.771
 4090TIP3   OH212191   6.284   3.365   1.603
 4090TIP3    H112192   6.331   3.348   1.687
 4090TIP3    H212193   6.223   3.288   1.601
 4091TIP3   OH212194   4.985   3.350   2.420
 4091TIP3    H112195   5.046   3.275   2.431
 4091TIP3    H212196   5.047   3.425   2.416
 4092TIP3   OH212197   4.789   3.624   2.497
 4092TIP3    H112198   4.836   3.619   2.412
 4092TIP3    H212199   4.814   3.711   2.529
 4093TIP3   OH212200   6.729   3.665   2.652
 4093TIP3    H112201   6.643   3.705   2.676
 4093TIP3    H212202   6.698   3.592   2.595
 4094TIP3   OH212203   6.369   3.299   1.235
 4094TIP3    H112204   6.411   3.230   1.180
 4094TIP3    H212205   6.434   3.372   1.229
 4095TIP3   OH212206   4.771   3.131   1.999
 4095TIP3    H112207   4.677   3.124   2.024
 4095TIP3    H212208   4.766   3.188   1.919
 4096TIP3   OH212209   5.934   4.836   1.504
 4096TIP3    H112210   5.971   4.813   1.417
 4096TIP3    H212211   6.006   4.887   1.542
 4097TIP3   OH212212   4.990   3.205   2.811
 4097TIP3    H112213   4.939   3.203   2.894
 4097TIP3    H212214   4.925   3.246   2.750
 4098TIP3   OH212215   5.031   4.638   2.891
 4098TIP3    H112216   4.940   4.609   2.870
 4098TIP3    H212217   5.038   4.611   2.984
 4099TIP3   OH212218   5.209   4.667   2.438
 4099TIP3    H112219   5.156   4.739   2.398
 4099TIP3    H212220   5.293   4.683   2.392
 4100TIP3   OH212221   5.655   4.913   2.574
 4100TIP3    H112222   5.697   4.911   2.663
 4100TIP3    H212223   5.722   4.964   2.523
 4101TIP3   OH212224   5.834   5.067   2.430
 4101TIP3    H112225   5.902   5.008   2.394
 4101TIP3    H212226   5.887   5.120   2.493
 4102TIP3   OH212227   6.627   3.427   2.532
 4102TIP3    H112228   6.536   3.420   2.499
 4102TIP3    H212229   6.658   3.333   2.522
 4103TIP3   OH212230   4.887   4.930   2.457
 4103TIP3    H112231   4.797   4.961   2.433
 4103TIP3    H212232   4.888   4.952   2.550
 4104TIP3   OH212233   5.123   4.907   2.317
 4104TIP3    H112234   5.037   4.918   2.363
 4104TIP3    H212235   5.101   4.936   2.227
 4105TIP3   OH212236   5.550   4.936   2.113
 4105TIP3    H112237   5.475   4.949   2.051
 4105TIP3    H212238   5.557   5.024   2.154
 4106TIP3   OH212239   5.816   4.877   2.166
 4106TIP3    H112240   5.720   4.885   2.147
 4106TIP3    H212241   5.851   4.954   2.120
 4107TIP3   OH212242   6.033   5.081   2.071
 4107TIP3    H112243   5.992   5.134   2.001
 4107TIP3    H212244   6.059   5.002   2.018
 4108TIP3   OH212245   4.799   4.721   2.204
 4108TIP3    H112246   4.823   4.692   2.295
 4108TIP3    H212247   4.868   4.673   2.153
 4109TIP3   OH212248   4.990   4.589   2.060
 4109TIP3    H112249   5.004   4.505   2.111
 4109TIP3    H212250   5.081   4.624   2.055
 4110TIP3   OH212251   5.260   4.686   2.061
 4110TIP3    H112252   5.288   4.593   2.050
 4110TIP3    H212253   5.300   4.704   2.148
 4111TIP3   OH212254   5.833   3.342   2.153
 4111TIP3    H112255   5.788   3.273   2.205
 4111TIP3    H212256   5.902   3.291   2.107
 4112TIP3   OH212257   6.357   3.223   2.059
 4112TIP3    H112258   6.392   3.274   1.982
 4112TIP3    H212259   6.261   3.237   2.050
 4113TIP3   OH212260   6.450   3.322   1.821
 4113TIP3    H112261   6.523   3.271   1.779
 4113TIP3    H212262   6.482   3.414   1.805
 4114TIP3   OH212263   5.081   3.051   2.167
 4114TIP3    H112264   4.988   3.018   2.169
 4114TIP3    H212265   5.128   2.965   2.163
 4115TIP3   OH212266   4.868   2.919   1.816
 4115TIP3    H112267   4.896   2.977   1.743
 4115TIP3    H212268   4.839   2.984   1.883
 4116TIP3   OH212269   5.524   3.081   2.047
 4116TIP3    H112270   5.583   3.131   1.988
 4116TIP3    H212271   5.544   3.121   2.133
 4117TIP3   OH212272   6.075   3.228   2.030
 4117TIP3    H112273   6.068   3.190   1.941
 4117TIP3    H212274   6.060   3.149   2.086
 4118TIP3   OH212275   6.102   3.151   1.595
 4118TIP3    H112276   6.013   3.190   1.602
 4118TIP3    H212277   6.087   3.065   1.641
 4119TIP3   OH212278   4.586   4.489   1.593
 4119TIP3    H112279   4.500   4.455   1.561
 4119TIP3    H212280   4.572   4.584   1.577
 4120TIP3   OH212281   4.984   3.079   1.577
 4120TIP3    H112282   5.031   3.015   1.521
 4120TIP3    H212283   5.057   3.132   1.614
 4121TIP3   OH212284   5.496   3.255   1.677
 4121TIP3    H112285   5.554   3.205   1.736
 4121TIP3    H212286   5.521   3.346   1.703
 4122TIP3   OH212287   5.356   4.680   1.174
 4122TIP3    H112288   5.445   4.701   1.139
 4122TIP3    H212289   5.334   4.605   1.116
 4123TIP3   OH212290   6.073   4.795   1.271
 4123TIP3    H112291   6.068   4.697   1.259
 4123TIP3    H212292   6.029   4.826   1.189
 4124TIP3   OH212293   5.289   3.332   3.058
 4124TIP3    H112294   5.252   3.263   3.115
 4124TIP3    H212295   5.383   3.331   3.086
 4125TIP3   OH212296   5.538   3.327   3.178
 4125TIP3    H112297   5.623   3.303   3.138
 4125TIP3    H212298   5.527   3.255   3.244
 4126TIP3   OH212299   4.661   4.520   1.234
 4126TIP3    H112300   4.655   4.540   1.328
 4126TIP3    H212301   4.749   4.477   1.227
 4127TIP3   OH212302   6.363   3.388   2.966
 4127TIP3    H112303   6.380   3.357   3.057
 4127TIP3    H212304   6.452   3.383   2.925
 4128TIP3   OH212305   6.302   4.943   2.457
 4128TIP3    H112306   6.223   4.910   2.411
 4128TIP3    H212307   6.280   5.038   2.463
 4129TIP3   OH212308   7.568   4.314   1.224
 4129TIP3    H112309   7.539   4.406   1.203
 4129TIP3    H212310   7.491   4.264   1.190
 4130TIP3   OH212311   7.565   4.314   1.605
 4130TIP3    H112312   7.599   4.286   1.692
 4130TIP3    H212313   7.525   4.232   1.572
 4131TIP3   OH212314   6.865   4.210   1.970
 4131TIP3    H112315   6.895   4.140   2.032
 4131TIP3    H212316   6.945   4.264   1.964
 4132TIP3   OH212317   7.810   4.618   1.284
 4132TIP3    H112318   7.794   4.547   1.348
 4132TIP3    H212319   7.838   4.691   1.342
 4133TIP3   OH212320   6.835   4.619   1.695
 4133TIP3    H112321   6.828   4.521   1.696
 4133TIP3    H212322   6.932   4.629   1.691
 4134TIP3   OH212323   6.545   3.824   1.479
 4134TIP3    H112324   6.495   3.905   1.494
 4134TIP3    H212325   6.475   3.766   1.444
 4135TIP3   OH212326   6.604   4.109   1.652
 4135TIP3    H112327   6.651   4.031   1.688
 4135TIP3    H212328   6.662   4.135   1.580
 4136TIP3   OH212329   7.459   5.078   1.303
 4136TIP3    H112330   7.504   5.006   1.254
 4136TIP3    H212331   7.453   5.041   1.392
 4137TIP3   OH212332   7.366   4.540   1.653
 4137TIP3    H112333   7.403   4.463   1.608
 4137TIP3    H212334   7.450   4.585   1.677
 4138TIP3   OH212335   8.350   3.877   1.653
 4138TIP3    H112336   8.393   3.949   1.703
 4138TIP3    H212337   8.403   3.877   1.572
 4139TIP3   OH212338   7.778   4.043   1.685
 4139TIP3    H112339   7.819   3.957   1.707
 4139TIP3    H212340   7.747   4.025   1.594
 4140TIP3   OH212341   7.115   3.700   1.651
 4140TIP3    H112342   7.095   3.773   1.588
 4140TIP3    H212343   7.068   3.627   1.606
 4141TIP3   OH212344   7.814   3.793   1.276
 4141TIP3    H112345   7.887   3.771   1.337
 4141TIP3    H212346   7.865   3.826   1.199
 4142TIP3   OH212347   6.749   3.903   1.756
 4142TIP3    H112348   6.832   3.883   1.805
 4142TIP3    H212349   6.762   3.846   1.678
 4143TIP3   OH212350   7.190   4.100   1.551
 4143TIP3    H112351   7.284   4.075   1.563
 4143TIP3    H212352   7.151   4.016   1.518
 4144TIP3   OH212353   8.448   4.068   1.826
 4144TIP3    H112354   8.362   4.114   1.813
 4144TIP3    H212355   8.455   4.069   1.922
 4145TIP3   OH212356   7.112   3.684   2.085
 4145TIP3    H112357   7.051   3.721   2.018
 4145TIP3    H212358   7.061   3.701   2.166
 4146TIP3   OH212359   7.463   4.538   1.091
 4146TIP3    H112360   7.418   4.514   1.008
 4146TIP3    H212361   7.415   4.619   1.116
 4147TIP3   OH212362   7.219   4.459   1.880
 4147TIP3    H112363   7.157   4.525   1.919
 4147TIP3    H212364   7.261   4.511   1.808
 4148TIP3   OH212365   8.027   3.783   1.450
 4148TIP3    H112366   7.995   3.754   1.537
 4148TIP3    H212367   8.077   3.863   1.473
 4149TIP3   OH212368   6.982   3.799   1.869
 4149TIP3    H112369   7.045   3.870   1.893
 4149TIP3    H212370   7.031   3.758   1.794
 4150TIP3   OH212371   7.045   4.653   1.978
 4150TIP3    H112372   7.019   4.739   1.940
 4150TIP3    H212373   6.966   4.636   2.035
 4151TIP3   OH212374   6.442   4.343   1.213
 4151TIP3    H112375   6.398   4.371   1.131
 4151TIP3    H212376   6.473   4.427   1.251
 4152TIP3   OH212377   7.881   4.859   1.453
 4152TIP3    H112378   7.792   4.849   1.494
 4152TIP3    H212379   7.871   4.945   1.409
 4153TIP3   OH212380   8.169   3.757   1.819
 4153TIP3    H112381   8.085   3.793   1.788
 4153TIP3    H212382   8.231   3.791   1.751
 4154TIP3   OH212383   7.468   3.404   1.798
 4154TIP3    H112384   7.455   3.309   1.816
 4154TIP3    H212385   7.391   3.442   1.845
 4155TIP3   OH212386   7.581   4.902   1.128
 4155TIP3    H112387   7.631   4.820   1.108
 4155TIP3    H212388   7.645   4.968   1.092
 4156TIP3   OH212389   7.728   4.690   1.031
 4156TIP3    H112390   7.681   4.613   0.998
 4156TIP3    H212391   7.765   4.656   1.115
 4157TIP3   OH212392   8.101   4.772   1.796
 4157TIP3    H112393   8.090   4.693   1.739
 4157TIP3    H212394   8.086   4.845   1.733
 4158TIP3   OH212395   7.396   4.167   1.057
 4158TIP3    H112396   7.317   4.218   1.031
 4158TIP3    H212397   7.443   4.158   0.972
 4159TIP3   OH212398   7.360   3.942   0.781
 4159TIP3    H112399   7.431   3.993   0.824
 4159TIP3    H212400   7.414   3.881   0.726
 4160TIP3   OH212401   8.297   4.408   1.632
 4160TIP3    H112402   8.214   4.458   1.645
 4160TIP3    H212403   8.323   4.440   1.543
 4161TIP3   OH212404   7.746   4.249   1.027
 4161TIP3    H112405   7.691   4.272   1.106
 4161TIP3    H212406   7.830   4.222   1.071
 4162TIP3   OH212407   7.980   4.288   1.939
 4162TIP3    H112408   7.979   4.369   1.993
 4162TIP3    H212409   7.893   4.295   1.895
 4163TIP3   OH212410   6.978   4.246   1.443
 4163TIP3    H112411   6.937   4.188   1.376
 4163TIP3    H212412   7.055   4.192   1.473
 4164TIP3   OH212413   7.108   4.658   1.592
 4164TIP3    H112414   7.087   4.614   1.508
 4164TIP3    H212415   7.198   4.624   1.610
 4165TIP3   OH212416   7.114   4.217   1.798
 4165TIP3    H112417   7.147   4.194   1.709
 4165TIP3    H212418   7.159   4.302   1.817
 4166TIP3   OH212419   7.640   4.854   1.574
 4166TIP3    H112420   7.628   4.934   1.628
 4166TIP3    H212421   7.625   4.781   1.637
 4167TIP3   OH212422   7.252   4.775   2.120
 4167TIP3    H112423   7.192   4.836   2.168
 4167TIP3    H212424   7.187   4.720   2.072
 4168TIP3   OH212425   7.583   4.102   0.859
 4168TIP3    H112426   7.644   4.164   0.906
 4168TIP3    H212427   7.599   4.127   0.765
 4169TIP3   OH212428   7.006   4.332   2.221
 4169TIP3    H112429   7.010   4.418   2.267
 4169TIP3    H212430   6.911   4.310   2.233
 4170TIP3   OH212431   7.327   4.785   1.132
 4170TIP3    H112432   7.407   4.838   1.146
 4170TIP3    H212433   7.268   4.847   1.087
 4171TIP3   OH212434   7.045   4.942   2.208
 4171TIP3    H112435   7.010   4.941   2.117
 4171TIP3    H212436   6.966   4.921   2.262
 4172TIP3   OH212437   8.129   3.380   0.914
 4172TIP3    H112438   8.060   3.362   0.980
 4172TIP3    H212439   8.074   3.391   0.835
 4173TIP3   OH212440   6.844   4.089   1.249
 4173TIP3    H112441   6.777   4.130   1.191
 4173TIP3    H212442   6.806   4.001   1.263
 4174TIP3   OH212443   6.625   4.472   2.155
 4174TIP3    H112444   6.560   4.448   2.086
 4174TIP3    H212445   6.663   4.385   2.180
 4175TIP3   OH212446   6.480   4.670   1.782
 4175TIP3    H112447   6.575   4.652   1.775
 4175TIP3    H212448   6.479   4.741   1.847
 4176TIP3   OH212449   8.337   5.116   1.839
 4176TIP3    H112450   8.337   5.019   1.855
 4176TIP3    H212451   8.256   5.141   1.889
 4177TIP3   OH212452   7.449   4.904   1.977
 4177TIP3    H112453   7.448   4.996   2.011
 4177TIP3    H212454   7.378   4.863   2.032
 4178TIP3   OH212455   7.208   5.032   0.933
 4178TIP3    H112456   7.166   5.009   0.849
 4178TIP3    H212457   7.176   5.122   0.951
 4179TIP3   OH212458   6.647   4.881   1.316
 4179TIP3    H112459   6.696   4.872   1.400
 4179TIP3    H212460   6.595   4.798   1.316
 4180TIP3   OH212461   7.433   4.881   0.610
 4180TIP3    H112462   7.428   4.787   0.629
 4180TIP3    H212463   7.440   4.918   0.701
 4181TIP3   OH212464   7.462   4.975   0.864
 4181TIP3    H112465   7.372   4.988   0.900
 4181TIP3    H212466   7.509   4.940   0.941
 4182TIP3   OH212467   8.236   4.242   2.112
 4182TIP3    H112468   8.154   4.260   2.065
 4182TIP3    H212469   8.249   4.147   2.095
 4183TIP3   OH212470   6.828   4.657   2.145
 4183TIP3    H112471   6.880   4.638   2.226
 4183TIP3    H212472   6.756   4.591   2.152
 4184TIP3   OH212473   7.230   3.478   1.927
 4184TIP3    H112474   7.141   3.448   1.900
 4184TIP3    H212475   7.205   3.560   1.974
 4185TIP3   OH212476   7.764   3.594   2.122
 4185TIP3    H112477   7.834   3.566   2.186
 4185TIP3    H212478   7.681   3.574   2.170
 4186TIP3   OH212479   7.988   4.020   2.035
 4186TIP3    H112480   7.945   4.019   2.123
 4186TIP3    H212481   7.973   4.112   2.005
 4187TIP3   OH212482   7.627   4.155   0.597
 4187TIP3    H112483   7.632   4.096   0.521
 4187TIP3    H212484   7.705   4.211   0.580
 4188TIP3   OH212485   7.375   3.529   0.901
 4188TIP3    H112486   7.341   3.523   0.992
 4188TIP3    H212487   7.337   3.446   0.864
 4189TIP3   OH212488   7.161   3.994   1.947
 4189TIP3    H112489   7.111   4.017   2.028
 4189TIP3    H212490   7.146   4.075   1.893
 4190TIP3   OH212491   7.045   3.881   1.460
 4190TIP3    H112492   6.952   3.853   1.478
 4190TIP3    H212493   7.058   3.840   1.372
 4191TIP3   OH212494   7.537   3.966   1.188
 4191TIP3    H112495   7.484   4.037   1.146
 4191TIP3    H212496   7.591   3.935   1.113
 4192TIP3   OH212497   7.710   4.245   2.274
 4192TIP3    H112498   7.690   4.172   2.337
 4192TIP3    H212499   7.805   4.261   2.294
 4193TIP3   OH212500   7.692   3.995   1.427
 4193TIP3    H112501   7.631   4.023   1.355
 4193TIP3    H212502   7.727   3.914   1.384
 4194TIP3   OH212503   6.979   4.023   2.155
 4194TIP3    H112504   7.010   4.085   2.223
 4194TIP3    H212505   6.969   3.940   2.206
 4195TIP3   OH212506   7.028   3.501   0.865
 4195TIP3    H112507   7.023   3.497   0.963
 4195TIP3    H212508   6.948   3.552   0.845
 4196TIP3   OH212509   6.573   3.547   1.735
 4196TIP3    H112510   6.650   3.576   1.787
 4196TIP3    H212511   6.612   3.511   1.654
 4197TIP3   OH212512   6.548   3.527   1.255
 4197TIP3    H112513   6.595   3.564   1.177
 4197TIP3    H212514   6.487   3.600   1.274
 4198TIP3   OH212515   7.701   4.241   1.849
 4198TIP3    H112516   7.736   4.170   1.791
 4198TIP3    H212517   7.674   4.188   1.927
 4199TIP3   OH212518   7.372   3.705   1.522
 4199TIP3    H112519   7.290   3.702   1.574
 4199TIP3    H212520   7.440   3.701   1.591
 4200TIP3   OH212521   6.807   3.758   1.530
 4200TIP3    H112522   6.712   3.765   1.502
 4200TIP3    H212523   6.829   3.666   1.507
 4201TIP3   OH212524   7.076   3.756   1.218
 4201TIP3    H112525   7.170   3.768   1.197
 4201TIP3    H212526   7.030   3.776   1.133
 4202TIP3   OH212527   7.862   3.778   1.718
 4202TIP3    H112528   7.832   3.790   1.811
 4202TIP3    H212529   7.793   3.716   1.686
 4203TIP3   OH212530   6.916   3.789   0.996
 4203TIP3    H112531   6.842   3.747   0.949
 4203TIP3    H212532   6.968   3.824   0.921
 4204TIP3   OH212533   8.033   5.469   1.942
 4204TIP3    H112534   8.033   5.493   1.848
 4204TIP3    H212535   8.112   5.517   1.974
 4205TIP3   OH212536   6.992   4.579   2.363
 4205TIP3    H112537   7.072   4.607   2.412
 4205TIP3    H212538   6.928   4.575   2.437
 4206TIP3   OH212539   7.455   4.031   1.619
 4206TIP3    H112540   7.527   3.991   1.569
 4206TIP3    H212541   7.463   3.988   1.707
 4207TIP3   OH212542   6.980   3.519   1.497
 4207TIP3    H112543   6.944   3.440   1.544
 4207TIP3    H212544   7.030   3.478   1.426
 4208TIP3   OH212545   7.432   3.927   1.908
 4208TIP3    H112546   7.343   3.964   1.923
 4208TIP3    H212547   7.490   3.988   1.959
 4209TIP3   OH212548   7.164   4.320   1.003
 4209TIP3    H112549   7.094   4.252   0.993
 4209TIP3    H212550   7.148   4.351   1.095
 4210TIP3   OH212551   8.068   4.554   1.633
 4210TIP3    H112552   8.090   4.602   1.550
 4210TIP3    H212553   7.983   4.510   1.610
 4211TIP3   OH212554   7.626   3.630   0.866
 4211TIP3    H112555   7.529   3.613   0.874
 4211TIP3    H212556   7.635   3.724   0.891
 4212TIP3   OH212557   7.567   4.636   2.000
 4212TIP3    H112558   7.595   4.613   2.089
 4212TIP3    H212559   7.530   4.725   2.011
 4213TIP3   OH212560   7.699   3.876   0.972
 4213TIP3    H112561   7.796   3.882   0.984
 4213TIP3    H212562   7.680   3.956   0.918
 4214TIP3   OH212563   6.861   4.342   1.680
 4214TIP3    H112564   6.899   4.311   1.594
 4214TIP3    H212565   6.901   4.279   1.742
 4215TIP3   OH212566   7.322   4.471   0.839
 4215TIP3    H112567   7.272   4.556   0.841
 4215TIP3    H212568   7.263   4.414   0.893
 4216TIP3   OH212569   6.741   4.262   2.294
 4216TIP3    H112570   6.762   4.247   2.388
 4216TIP3    H212571   6.674   4.194   2.277
 4217TIP3   OH212572   7.468   4.375   2.312
 4217TIP3    H112573   7.409   4.314   2.263
 4217TIP3    H212574   7.556   4.340   2.285
 4218TIP3   OH212575   7.728   4.899   1.895
 4218TIP3    H112576   7.632   4.895   1.910
 4218TIP3    H212577   7.757   4.948   1.974
 4219TIP3   OH212578   8.121   3.958   0.812
 4219TIP3    H112579   8.103   3.895   0.741
 4219TIP3    H212580   8.117   4.042   0.761
 4220TIP3   OH212581   8.352   4.837   1.875
 4220TIP3    H112582   8.255   4.821   1.871
 4220TIP3    H212583   8.378   4.805   1.785
 4221TIP3   OH212584   7.858   4.779   0.697
 4221TIP3    H112585   7.836   4.741   0.784
 4221TIP3    H212586   7.812   4.718   0.637
 4222TIP3   OH212587   7.835   4.417   1.552
 4222TIP3    H112588   7.741   4.393   1.566
 4222TIP3    H212589   7.867   4.337   1.506
 4223TIP3   OH212590   6.962   4.644   1.305
 4223TIP3    H112591   6.962   4.725   1.251
 4223TIP3    H212592   6.868   4.626   1.313
 4224TIP3   OH212593   6.522   3.949   1.004
 4224TIP3    H112594   6.570   4.031   1.028
 4224TIP3    H212595   6.447   3.952   1.068
 4225TIP3   OH212596   7.101   4.409   1.248
 4225TIP3    H112597   7.066   4.498   1.268
 4225TIP3    H212598   7.066   4.358   1.324
 4226TIP3   OH212599   7.230   4.988   1.774
 4226TIP3    H112600   7.274   5.060   1.724
 4226TIP3    H212601   7.306   4.951   1.823
 4227TIP3   OH212602   6.881   4.884   1.161
 4227TIP3    H112603   6.795   4.894   1.206
 4227TIP3    H212604   6.913   4.977   1.160
 4228TIP3   OH212605   7.620   4.621   1.732
 4228TIP3    H112606   7.609   4.620   1.830
 4228TIP3    H212607   7.700   4.569   1.721
 4229TIP3   OH212608   7.581   4.521   0.629
 4229TIP3    H112609   7.634   4.490   0.706
 4229TIP3    H212610   7.495   4.482   0.650
 4230TIP3   OH212611   7.868   5.155   1.783
 4230TIP3    H112612   7.789   5.098   1.777
 4230TIP3    H212613   7.851   5.219   1.710
 4231TIP3   OH212614   6.953   3.766   2.301
 4231TIP3    H112615   6.857   3.770   2.315
 4231TIP3    H212616   6.982   3.707   2.373
 4232TIP3   OH212617   7.748   4.445   0.833
 4232TIP3    H112618   7.741   4.379   0.905
 4232TIP3    H212619   7.845   4.443   0.817
 4233TIP3   OH212620   6.667   4.850   1.935
 4233TIP3    H112621   6.720   4.774   1.962
 4233TIP3    H212622   6.700   4.917   1.996
 4234TIP3   OH212623   6.942   4.492   0.610
 4234TIP3    H112624   6.989   4.409   0.587
 4234TIP3    H212625   6.932   4.479   0.706
 4235TIP3   OH212626   6.906   4.491   0.886
 4235TIP3    H112627   6.981   4.461   0.940
 4235TIP3    H212628   6.910   4.589   0.901
 4236TIP3   OH212629   6.641   4.192   1.089
 4236TIP3    H112630   6.575   4.237   1.147
 4236TIP3    H212631   6.657   4.263   1.024
 4237TIP3   OH212632   7.790   3.827   1.977
 4237TIP3    H112633   7.867   3.872   2.016
 4237TIP3    H212634   7.779   3.749   2.036
 4238TIP3   OH212635   7.668   3.583   1.148
 4238TIP3    H112636   7.656   3.603   1.053
 4238TIP3    H212637   7.708   3.666   1.182
 4239TIP3   OH212638   7.175   4.696   0.847
 4239TIP3    H112639   7.089   4.726   0.882
 4239TIP3    H212640   7.176   4.739   0.760
 4240TIP3   OH212641   7.359   3.762   1.250
 4240TIP3    H112642   7.424   3.833   1.232
 4240TIP3    H212643   7.365   3.754   1.347
 4241TIP3   OH212644   7.630   4.081   2.058
 4241TIP3    H112645   7.650   4.134   2.137
 4241TIP3    H212646   7.685   4.002   2.072
 4242TIP3   OH212647   7.504   3.489   1.352
 4242TIP3    H112648   7.499   3.566   1.412
 4242TIP3    H212649   7.563   3.524   1.282
 4243TIP3   OH212650   6.912   4.757   0.921
 4243TIP3    H112651   6.884   4.829   0.860
 4243TIP3    H212652   6.901   4.802   1.007
 4244TIP3   OH212653   7.015   3.487   1.142
 4244TIP3    H112654   7.014   3.577   1.179
 4244TIP3    H212655   7.111   3.467   1.150
 4245TIP3   OH212656   8.254   3.982   2.032
 4245TIP3    H112657   8.156   3.980   2.033
 4245TIP3    H212658   8.272   3.929   1.952
 4246TIP3   OH212659   7.915   4.178   1.423
 4246TIP3    H112660   7.839   4.118   1.436
 4246TIP3    H212661   7.986   4.132   1.473
 4247TIP3   OH212662   6.633   4.406   0.892
 4247TIP3    H112663   6.704   4.471   0.907
 4247TIP3    H212664   6.681   4.348   0.828
 4248TIP3   OH212665   6.577   3.680   1.027
 4248TIP3    H112666   6.573   3.777   1.023
 4248TIP3    H212667   6.491   3.654   0.992
 4249TIP3   OH212668   7.889   5.130   1.375
 4249TIP3    H112669   7.846   5.178   1.300
 4249TIP3    H212670   7.983   5.148   1.354
 4250TIP3   OH212671   6.964   3.399   1.903
 4250TIP3    H112672   6.934   3.365   1.816
 4250TIP3    H212673   6.954   3.321   1.960
 4251TIP3   OH212674   6.507   4.622   1.284
 4251TIP3    H112675   6.431   4.648   1.338
 4251TIP3    H212676   6.480   4.659   1.197
 4252TIP3   OH212677   6.660   5.158   2.355
 4252TIP3    H112678   6.746   5.158   2.401
 4252TIP3    H212679   6.640   5.063   2.353
 4253TIP3   OH212680   7.141   5.125   2.398
 4253TIP3    H112681   7.235   5.104   2.407
 4253TIP3    H212682   7.117   5.065   2.325
 4254TIP3   OH212683   7.135   4.687   0.555
 4254TIP3    H112684   7.068   4.619   0.574
 4254TIP3    H212685   7.190   4.636   0.493
 4255TIP3   OH212686   7.781   5.029   2.133
 4255TIP3    H112687   7.772   4.960   2.202
 4255TIP3    H212688   7.859   5.079   2.163
 4256TIP3   OH212689   6.791   4.565   2.555
 4256TIP3    H112690   6.808   4.469   2.562
 4256TIP3    H212691   6.703   4.566   2.510
 4257TIP3   OH212692   6.769   4.217   0.749
 4257TIP3    H112693   6.823   4.181   0.822
 4257TIP3    H212694   6.839   4.224   0.680
 4258TIP3   OH212695   7.397   4.649   2.329
 4258TIP3    H112696   7.358   4.665   2.241
 4258TIP3    H212697   7.430   4.557   2.322
 4259TIP3   OH212698   7.246   4.406   0.581
 4259TIP3    H112699   7.277   4.423   0.672
 4259TIP3    H212700   7.256   4.309   0.576
 4260TIP3   OH212701   7.889   4.657   1.933
 4260TIP3    H112702   7.965   4.701   1.893
 4260TIP3    H212703   7.820   4.724   1.920
 4261TIP3   OH212704   6.911   4.301   2.535
 4261TIP3    H112705   6.984   4.240   2.516
 4261TIP3    H212706   6.936   4.333   2.624
 4262TIP3   OH212707   6.974   4.120   0.970
 4262TIP3    H112708   6.950   4.076   1.054
 4262TIP3    H212709   7.013   4.046   0.919
 4263TIP3   OH212710   7.244   4.183   2.198
 4263TIP3    H112711   7.167   4.244   2.199
 4263TIP3    H212712   7.295   4.217   2.121
 4264TIP3   OH212713   7.076   3.914   0.812
 4264TIP3    H112714   7.052   3.918   0.717
 4264TIP3    H212715   7.174   3.915   0.807
 4265TIP3   OH212716   7.762   4.586   2.332
 4265TIP3    H112717   7.846   4.565   2.288
 4265TIP3    H212718   7.760   4.519   2.403
 4266TIP3   OH212719   7.367   3.972   2.325
 4266TIP3    H112720   7.368   3.892   2.269
 4266TIP3    H212721   7.324   4.037   2.267
 4267TIP3   OH212722   7.371   3.759   2.132
 4267TIP3    H112723   7.399   3.799   2.048
 4267TIP3    H212724   7.277   3.736   2.113
 4268TIP3   OH212725   7.398   4.293   2.005
 4268TIP3    H112726   7.482   4.301   1.958
 4268TIP3    H212727   7.343   4.360   1.960
 4269TIP3   OH212728   7.984   4.262   2.386
 4269TIP3    H112729   8.031   4.179   2.398
 4269TIP3    H212730   8.056   4.321   2.360
 4270TIP3   OH212731   8.020   4.512   2.120
 4270TIP3    H112732   7.963   4.566   2.062
 4270TIP3    H212733   8.109   4.534   2.082
 4271TIP3   OH212734   7.244   4.085   2.555
 4271TIP3    H112735   7.177   4.016   2.570
 4271TIP3    H212736   7.280   4.059   2.468
 4272TIP3   OH212737   7.503   3.521   2.198
 4272TIP3    H112738   7.453   3.603   2.176
 4272TIP3    H212739   7.433   3.453   2.187
 4273TIP3   OH212740   7.629   4.027   2.416
 4273TIP3    H112741   7.619   4.013   2.512
 4273TIP3    H212742   7.539   4.002   2.387
 4274TIP3   OH212743   7.868   3.975   2.272
 4274TIP3    H112744   7.793   3.977   2.336
 4274TIP3    H212745   7.942   3.946   2.328
 4275TIP3   OH212746   8.099   3.921   2.419
 4275TIP3    H112747   8.106   3.825   2.437
 4275TIP3    H212748   8.097   3.959   2.510
 4276TIP3   OH212749   7.086   3.864   2.607
 4276TIP3    H112750   7.092   3.773   2.573
 4276TIP3    H212751   7.123   3.852   2.697
 4277TIP3   OH212752   7.598   3.532   2.456
 4277TIP3    H112753   7.665   3.461   2.451
 4277TIP3    H212754   7.558   3.525   2.366
 4278TIP3   OH212755   7.664   3.747   2.615
 4278TIP3    H112756   7.642   3.676   2.551
 4278TIP3    H212757   7.585   3.805   2.608
 4279TIP3   OH212758   6.882   4.959   0.749
 4279TIP3    H112759   6.976   4.947   0.726
 4279TIP3    H212760   6.859   5.023   0.679
 4280TIP3   OH212761   6.364   4.360   0.930
 4280TIP3    H112762   6.459   4.380   0.916
 4280TIP3    H212763   6.358   4.270   0.891
 4281TIP3   OH212764   6.271   4.971   1.352
 4281TIP3    H112765   6.209   4.906   1.311
 4281TIP3    H212766   6.320   4.914   1.414
 4282TIP3   OH212767   6.411   4.824   1.534
 4282TIP3    H112768   6.406   4.746   1.593
 4282TIP3    H212769   6.467   4.882   1.589
 4283TIP3   OH212770   8.145   5.215   1.332
 4283TIP3    H112771   8.167   5.255   1.418
 4283TIP3    H212772   8.201   5.266   1.271
 4284TIP3   OH212773   8.171   5.241   1.613
 4284TIP3    H112774   8.126   5.153   1.609
 4284TIP3    H212775   8.240   5.220   1.678
 4285TIP3   OH212776   8.217   4.919   2.183
 4285TIP3    H112777   8.145   4.925   2.249
 4285TIP3    H212778   8.259   5.007   2.191
 4286TIP3   OH212779   8.018   4.426   0.803
 4286TIP3    H112780   8.088   4.488   0.771
 4286TIP3    H212781   8.062   4.393   0.884
 4287TIP3   OH212782   8.144   4.316   1.019
 4287TIP3    H112783   8.077   4.265   1.070
 4287TIP3    H212784   8.186   4.369   1.087
 4288TIP3   OH212785   8.213   4.682   1.436
 4288TIP3    H112786   8.262   4.627   1.373
 4288TIP3    H212787   8.202   4.765   1.385
 4289TIP3   OH212788   8.046   4.993   1.636
 4289TIP3    H112789   7.976   5.033   1.691
 4289TIP3    H212790   7.994   4.945   1.567
 4290TIP3   OH212791   8.101   4.191   0.674
 4290TIP3    H112792   8.055   4.200   0.590
 4290TIP3    H212793   8.079   4.276   0.716
 4291TIP3   OH212794   7.892   3.899   0.608
 4291TIP3    H112795   7.967   3.916   0.549
 4291TIP3    H212796   7.904   3.803   0.624
 4292TIP3   OH212797   7.975   4.156   1.156
 4292TIP3    H112798   7.981   4.059   1.144
 4292TIP3    H212799   7.959   4.164   1.253
 4293TIP3   OH212800   6.601   4.231   1.903
 4293TIP3    H112801   6.600   4.198   1.811
 4293TIP3    H212802   6.698   4.231   1.921
 4294TIP3   OH212803   8.261   4.583   2.009
 4294TIP3    H112804   8.333   4.516   2.014
 4294TIP3    H212805   8.297   4.646   1.945
 4295TIP3   OH212806   8.450   4.404   2.065
 4295TIP3    H112807   8.386   4.335   2.095
 4295TIP3    H212808   8.532   4.354   2.057
 4296TIP3   OH212809   7.917   3.616   0.630
 4296TIP3    H112810   7.974   3.539   0.622
 4296TIP3    H212811   7.829   3.575   0.618
 4297TIP3   OH212812   7.973   3.879   1.052
 4297TIP3    H112813   8.010   3.788   1.069
 4297TIP3    H212814   8.028   3.904   0.974
 4298TIP3   OH212815   8.114   4.045   1.555
 4298TIP3    H112816   8.206   4.065   1.527
 4298TIP3    H212817   8.122   4.074   1.648
 4299TIP3   OH212818   8.198   4.188   1.784
 4299TIP3    H112819   8.121   4.226   1.831
 4299TIP3    H212820   8.231   4.265   1.733
 4300TIP3   OH212821   6.820   3.917   2.581
 4300TIP3    H112822   6.918   3.909   2.582
 4300TIP3    H212823   6.795   3.831   2.619
 4301TIP3   OH212824   8.062   3.628   1.098
 4301TIP3    H112825   8.130   3.607   1.163
 4301TIP3    H212826   8.013   3.544   1.090
 4302TIP3   OH212827   6.780   3.607   1.909
 4302TIP3    H112828   6.841   3.532   1.919
 4302TIP3    H212829   6.843   3.681   1.903
 4303TIP3   OH212830   6.583   3.881   1.982
 4303TIP3    H112831   6.632   3.874   1.898
 4303TIP3    H212832   6.615   3.965   2.016
 4304TIP3   OH212833   8.509   3.963   2.133
 4304TIP3    H112834   8.412   3.962   2.126
 4304TIP3    H212835   8.529   3.869   2.146
 4305TIP3   OH212836   6.566   3.390   1.487
 4305TIP3    H112837   6.472   3.381   1.510
 4305TIP3    H212838   6.563   3.445   1.406
 4306TIP3   OH212839   7.723   5.092   1.000
 4306TIP3    H112840   7.773   5.080   0.917
 4306TIP3    H212841   7.775   5.159   1.046
 4307TIP3   OH212842   6.786   3.464   2.297
 4307TIP3    H112843   6.736   3.459   2.380
 4307TIP3    H212844   6.720   3.503   2.237
 4308TIP3   OH212845   6.825   4.897   2.375
 4308TIP3    H112846   6.735   4.863   2.358
 4308TIP3    H212847   6.838   4.870   2.467
 4309TIP3   OH212848   7.003   4.924   1.921
 4309TIP3    H112849   6.958   5.001   1.881
 4309TIP3    H212850   7.090   4.936   1.879
 4310TIP3   OH212851   7.449   5.170   2.061
 4310TIP3    H112852   7.492   5.169   2.149
 4310TIP3    H212853   7.516   5.220   2.009
 4311TIP3   OH212854   7.629   5.321   1.918
 4311TIP3    H112855   7.700   5.269   1.878
 4311TIP3    H212856   7.680   5.378   1.980
 4312TIP3   OH212857   8.375   3.695   2.032
 4312TIP3    H112858   8.292   3.699   1.980
 4312TIP3    H212859   8.401   3.602   2.016
 4313TIP3   OH212860   6.680   5.182   1.944
 4313TIP3    H112861   6.592   5.219   1.924
 4313TIP3    H212862   6.693   5.214   2.034
 4314TIP3   OH212863   6.918   5.160   1.804
 4314TIP3    H112864   6.831   5.173   1.847
 4314TIP3    H212865   6.899   5.192   1.713
 4315TIP3   OH212866   7.343   5.189   1.601
 4315TIP3    H112867   7.274   5.210   1.535
 4315TIP3    H212868   7.356   5.276   1.644
 4316TIP3   OH212869   7.612   5.128   1.652
 4316TIP3    H112870   7.518   5.146   1.632
 4316TIP3    H212871   7.656   5.204   1.612
 4317TIP3   OH212872   7.818   5.319   1.568
 4317TIP3    H112873   7.805   5.404   1.520
 4317TIP3    H212874   7.845   5.259   1.495
 4318TIP3   OH212875   6.591   4.974   1.694
 4318TIP3    H112876   6.621   4.949   1.784
 4318TIP3    H212877   6.662   4.930   1.641
 4319TIP3   OH212878   6.785   4.847   1.549
 4319TIP3    H112879   6.801   4.763   1.597
 4319TIP3    H212880   6.876   4.883   1.543
 4320TIP3   OH212881   7.052   4.941   1.551
 4320TIP3    H112882   7.083   4.850   1.538
 4320TIP3    H212883   7.097   4.962   1.635
 4321TIP3   OH212884   7.626   3.598   1.637
 4321TIP3    H112885   7.583   3.528   1.690
 4321TIP3    H212886   7.700   3.550   1.595
 4322TIP3   OH212887   8.151   3.457   1.518
 4322TIP3    H112888   8.213   3.531   1.537
 4322TIP3    H212889   8.064   3.499   1.524
 4323TIP3   OH212890   6.876   3.307   1.654
 4323TIP3    H112891   6.784   3.275   1.655
 4323TIP3    H212892   6.924   3.222   1.649
 4324TIP3   OH212893   6.666   3.175   1.307
 4324TIP3    H112894   6.690   3.230   1.231
 4324TIP3    H212895   6.635   3.242   1.371
 4325TIP3   OH212896   7.320   3.338   1.535
 4325TIP3    H112897   7.378   3.388   1.475
 4325TIP3    H212898   7.343   3.378   1.620
 4326TIP3   OH212899   7.864   3.487   1.520
 4326TIP3    H112900   7.859   3.450   1.432
 4326TIP3    H212901   7.849   3.408   1.577
 4327TIP3   OH212902   7.902   3.401   1.086
 4327TIP3    H112903   7.813   3.443   1.086
 4327TIP3    H212904   7.882   3.317   1.131
 4328TIP3   OH212905   6.380   4.747   1.081
 4328TIP3    H112906   6.294   4.713   1.049
 4328TIP3    H212907   6.371   4.841   1.058
 4329TIP3   OH212908   6.780   3.340   1.060
 4329TIP3    H112909   6.829   3.272   1.009
 4329TIP3    H212910   6.853   3.391   1.100
 4330TIP3   OH212911   7.292   3.511   1.165
 4330TIP3    H112912   7.352   3.463   1.224
 4330TIP3    H212913   7.316   3.603   1.190
 4331TIP3   OH212914   7.142   4.935   0.669
 4331TIP3    H112915   7.210   4.983   0.618
 4331TIP3    H212916   7.134   4.854   0.613
 4332TIP3   OH212917   7.867   5.051   0.771
 4332TIP3    H112918   7.871   4.955   0.757
 4332TIP3    H212919   7.828   5.080   0.687
 4333TIP3   OH212920   7.085   3.588   2.544
 4333TIP3    H112921   7.049   3.518   2.601
 4333TIP3    H212922   7.179   3.587   2.573
 4334TIP3   OH212923   7.334   3.584   2.665
 4334TIP3    H112924   7.419   3.558   2.626
 4334TIP3    H212925   7.321   3.514   2.732
 4335TIP3   OH212926   6.458   4.780   0.720
 4335TIP3    H112927   6.449   4.802   0.814
 4335TIP3    H212928   6.547   4.740   0.716
 4336TIP3   OH212929   8.143   3.648   2.456
 4336TIP3    H112930   8.168   3.622   2.547
 4336TIP3    H212931   8.231   3.663   2.415
 4337TIP3   OH212932   8.098   5.201   1.942
 4337TIP3    H112933   8.019   5.168   1.896
 4337TIP3    H212934   8.077   5.296   1.948
 4338TIP3   OH212935   8.282   4.081   0.988
 4338TIP3    H112936   8.239   4.169   0.990
 4338TIP3    H212937   8.225   4.035   0.923
 4339TIP3   OH212938   8.230   4.574   0.724
 4339TIP3    H112939   8.238   4.606   0.634
 4339TIP3    H212940   8.280   4.640   0.775
 4340TIP3   OH212941   8.410   4.745   1.627
 4340TIP3    H112942   8.341   4.710   1.568
 4340TIP3    H212943   8.449   4.665   1.668
 4341TIP3   OH212944   8.269   4.924   1.282
 4341TIP3    H112945   8.364   4.934   1.270
 4341TIP3    H212946   8.245   5.007   1.324
 4342TIP3   OH212947   8.493   4.537   1.782
 4342TIP3    H112948   8.558   4.481   1.830
 4342TIP3    H212949   8.426   4.470   1.756
 4343TIP3   OH212950   8.477   5.105   1.412
 4343TIP3    H112951   8.486   5.031   1.473
 4343TIP3    H212952   8.477   5.183   1.470
 4344TIP3   OH212953   8.283   4.864   0.758
 4344TIP3    H112954   8.236   4.907   0.831
 4344TIP3    H212955   8.358   4.924   0.745
 4345TIP3   OH212956   8.454   5.410   1.845
 4345TIP3    H112957   8.519   5.398   1.919
 4345TIP3    H212958   8.425   5.318   1.834
 4346TIP3   OH212959   8.565   4.820   2.051
 4346TIP3    H112960   8.567   4.723   2.048
 4346TIP3    H212961   8.482   4.838   2.003
 4347TIP3   OH212962   8.068   5.229   0.843
 4347TIP3    H112963   8.004   5.170   0.797
 4347TIP3    H212964   8.115   5.164   0.900
 4348TIP3   OH212965   8.208   5.073   1.019
 4348TIP3    H112966   8.190   5.007   1.087
 4348TIP3    H212967   8.264   5.136   1.067
 4349TIP3   OH212968   8.412   4.473   1.378
 4349TIP3    H112969   8.431   4.442   1.287
 4349TIP3    H212970   8.500   4.504   1.402
 4350TIP3   OH212971   8.357   4.148   1.499
 4350TIP3    H112972   8.393   4.131   1.410
 4350TIP3    H212973   8.365   4.244   1.505
 4351TIP3   OH212974   8.610   5.123   1.861
 4351TIP3    H112975   8.512   5.120   1.862
 4351TIP3    H212976   8.629   5.125   1.956
 4352TIP3   OH212977   8.466   5.418   1.435
 4352TIP3    H112978   8.381   5.462   1.409
 4352TIP3    H212979   8.490   5.472   1.511
 4353TIP3   OH212980   8.390   5.232   1.176
 4353TIP3    H112981   8.420   5.214   1.268
 4353TIP3    H212982   8.456   5.177   1.128
 4354TIP3   OH212983   0.018   5.096   2.914
 4354TIP3    H112984  -0.007   5.189   2.897
 4354TIP3    H212985  -0.058   5.051   2.874
 4355TIP3   OH212986   0.021   5.094   3.296
 4355TIP3    H112987   0.061   5.071   3.382
 4355TIP3    H212988  -0.011   5.006   3.268
 4356TIP3   OH212989   0.260   5.405   2.977
 4356TIP3    H112990   0.251   5.332   3.040
 4356TIP3    H212991   0.292   5.477   3.033
 4357TIP3   OH212992  -0.060   5.856   2.984
 4357TIP3    H112993  -0.042   5.789   2.915
 4357TIP3    H212994   0.009   5.833   3.049
 4358TIP3   OH212995  -0.168   5.291   3.328
 4358TIP3    H112996  -0.099   5.227   3.303
 4358TIP3    H212997  -0.113   5.364   3.361
 4359TIP3   OH212998   0.827   4.648   3.339
 4359TIP3    H112999   0.860   4.730   3.383
 4359TIP3    H213000   0.856   4.664   3.248
 4360TIP3   OH213001   0.237   4.832   3.375
 4360TIP3    H113002   0.277   4.746   3.396
 4360TIP3    H213003   0.200   4.814   3.286
 4361TIP3   OH213004   0.262   4.580   2.962
 4361TIP3    H113005   0.332   4.563   3.029
 4361TIP3    H213006   0.317   4.614   2.889
 4362TIP3   OH213007   0.904   4.854   3.510
 4362TIP3    H113008   0.820   4.901   3.493
 4362TIP3    H213009   0.920   4.880   3.602
 4363TIP3   OH213010  -0.091   5.313   2.790
 4363TIP3    H113011  -0.120   5.300   2.698
 4363TIP3    H213012  -0.135   5.397   2.814
 4364TIP3   OH213013   0.470   4.583   3.134
 4364TIP3    H113014   0.466   4.531   3.216
 4364TIP3    H213015   0.527   4.657   3.160
 4365TIP3   OH213016   0.326   5.647   3.148
 4365TIP3    H113017   0.235   5.638   3.183
 4365TIP3    H213018   0.320   5.734   3.102
 4366TIP3   OH213019   0.623   4.548   3.506
 4366TIP3    H113020   0.537   4.578   3.474
 4366TIP3    H213021   0.684   4.580   3.437
 4367TIP3   OH213022  -0.071   4.189   3.482
 4367TIP3    H113023  -0.082   4.094   3.502
 4367TIP3    H213024  -0.127   4.229   3.549
 4368TIP3   OH213025   0.039   5.681   2.806
 4368TIP3    H113026   0.090   5.599   2.785
 4368TIP3    H213027   0.103   5.749   2.772
 4369TIP3   OH213028   0.181   5.470   2.721
 4369TIP3    H113029   0.158   5.388   2.675
 4369TIP3    H213030   0.214   5.436   2.807
 4370TIP3   OH213031   0.560   5.565   3.485
 4370TIP3    H113032   0.548   5.484   3.431
 4370TIP3    H213033   0.546   5.636   3.419
 4371TIP3   OH213034  -0.162   4.958   2.740
 4371TIP3    H113035  -0.249   4.979   2.701
 4371TIP3    H213036  -0.106   4.952   2.660
 4372TIP3   OH213037  -0.163   4.740   2.464
 4372TIP3    H113038  -0.092   4.792   2.506
 4372TIP3    H213039  -0.111   4.675   2.413
 4373TIP3   OH213040   0.753   5.196   3.332
 4373TIP3    H113041   0.671   5.249   3.337
 4373TIP3    H213042   0.783   5.219   3.241
 4374TIP3   OH213043   0.201   5.038   2.720
 4374TIP3    H113044   0.147   5.059   2.799
 4374TIP3    H213045   0.285   5.009   2.762
 4375TIP3   OH213046   0.432   5.076   3.629
 4375TIP3    H113047   0.432   5.160   3.678
 4375TIP3    H213048   0.348   5.084   3.579
 4376TIP3   OH213049   0.077   5.639   3.259
 4376TIP3    H113050   0.083   5.720   3.312
 4376TIP3    H213051   0.078   5.568   3.327
 4377TIP3   OH213052   0.040   4.899   2.551
 4377TIP3    H113053   0.100   4.958   2.601
 4377TIP3    H213054   0.065   4.921   2.458
 4378TIP3   OH213055  -0.208   5.558   2.835
 4378TIP3    H113056  -0.119   5.596   2.841
 4378TIP3    H213057  -0.257   5.635   2.801
 4379TIP3   OH213058   0.554   4.135   2.589
 4379TIP3    H113059   0.473   4.155   2.640
 4379TIP3    H213060   0.567   4.219   2.540
 4380TIP3   OH213061   0.349   5.501   2.128
 4380TIP3    H113062   0.361   5.598   2.118
 4380TIP3    H213063   0.440   5.469   2.119
 4381TIP3   OH213064   0.793   5.903   3.526
 4381TIP3    H113065   0.795   5.807   3.544
 4381TIP3    H213066   0.713   5.928   3.577
 4382TIP3   OH213067  -0.041   5.737   2.267
 4382TIP3    H113068  -0.062   5.653   2.224
 4382TIP3    H213069  -0.063   5.721   2.360
 4383TIP3   OH213070  -0.063   5.759   2.541
 4383TIP3    H113071  -0.137   5.773   2.604
 4383TIP3    H213072   0.003   5.719   2.601
 4384TIP3   OH213073   0.685   5.035   3.809
 4384TIP3    H113074   0.605   5.045   3.755
 4384TIP3    H213075   0.703   4.939   3.799
 4385TIP3   OH213076   0.220   4.383   3.811
 4385TIP3    H113077   0.290   4.355   3.874
 4385TIP3    H213078   0.138   4.361   3.860
 4386TIP3   OH213079   0.453   4.810   3.729
 4386TIP3    H113080   0.405   4.806   3.815
 4386TIP3    H213081   0.431   4.899   3.696
 4387TIP3   OH213082   0.113   4.939   2.296
 4387TIP3    H113083   0.080   4.911   2.209
 4387TIP3    H213084   0.193   4.988   2.271
 4388TIP3   OH213085  -0.169   4.315   2.588
 4388TIP3    H113086  -0.200   4.309   2.681
 4388TIP3    H213087  -0.206   4.231   2.553
 4389TIP3   OH213088  -0.012   4.759   2.875
 4389TIP3    H113089  -0.065   4.829   2.832
 4389TIP3    H213090   0.042   4.725   2.802
 4390TIP3   OH213091   0.177   5.039   3.970
 4390TIP3    H113092   0.146   4.965   4.028
 4390TIP3    H213093   0.272   5.039   3.992
 4391TIP3   OH213094   0.146   4.783   3.115
 4391TIP3    H113095   0.087   4.810   3.043
 4391TIP3    H213096   0.182   4.701   3.074
 4392TIP3   OH213097  -0.503   4.272   2.547
 4392TIP3    H113098  -0.512   4.254   2.643
 4392TIP3    H213099  -0.585   4.321   2.533
 4393TIP3   OH213100   0.147   5.028   3.536
 4393TIP3    H113101   0.186   4.957   3.480
 4393TIP3    H213102   0.129   4.977   3.618
 4394TIP3   OH213103  -0.155   4.491   3.203
 4394TIP3    H113104  -0.237   4.497   3.256
 4394TIP3    H213105  -0.087   4.483   3.272
 4395TIP3   OH213106  -0.459   4.519   2.863
 4395TIP3    H113107  -0.366   4.536   2.887
 4395TIP3    H213108  -0.483   4.602   2.820
 4396TIP3   OH213109   0.314   4.568   3.414
 4396TIP3    H113110   0.281   4.580   3.506
 4396TIP3    H213111   0.250   4.505   3.379
 4397TIP3   OH213112   0.488   6.253   3.631
 4397TIP3    H113113   0.485   6.285   3.540
 4397TIP3    H213114   0.562   6.305   3.669
 4398TIP3   OH213115  -0.071   4.830   3.326
 4398TIP3    H113116  -0.025   4.781   3.257
 4398TIP3    H213117  -0.066   4.769   3.401
 4399TIP3   OH213118  -0.086   4.700   3.599
 4399TIP3    H113119  -0.174   4.737   3.577
 4399TIP3    H213120  -0.039   4.773   3.644
 4400TIP3   OH213121   0.522   5.345   3.323
 4400TIP3    H113122   0.546   5.393   3.241
 4400TIP3    H213123   0.438   5.301   3.298
 4401TIP3   OH213124   0.079   4.420   2.554
 4401TIP3    H113125  -0.017   4.400   2.563
 4401TIP3    H213126   0.087   4.513   2.582
 4402TIP3   OH213127   0.080   5.437   3.695
 4402TIP3    H113128   0.092   5.378   3.771
 4402TIP3    H213129  -0.017   5.450   3.697
 4403TIP3   OH213130   0.150   4.666   2.661
 4403TIP3    H113131   0.246   4.668   2.678
 4403TIP3    H213132   0.136   4.747   2.609
 4404TIP3   OH213133  -0.238   5.259   2.540
 4404TIP3    H113134  -0.281   5.344   2.554
 4404TIP3    H213135  -0.301   5.197   2.581
 4405TIP3   OH213136  -0.009   5.238   3.915
 4405TIP3    H113137  -0.043   5.188   3.838
 4405TIP3    H213138   0.068   5.182   3.940
 4406TIP3   OH213139   0.190   5.712   3.565
 4406TIP3    H113140   0.097   5.693   3.580
 4406TIP3    H213141   0.217   5.741   3.655
 4407TIP3   OH213142   0.588   4.754   2.499
 4407TIP3    H113143   0.526   4.711   2.435
 4407TIP3    H213144   0.591   4.842   2.457
 4408TIP3   OH213145   0.810   5.615   3.575
 4408TIP3    H113146   0.712   5.609   3.568
 4408TIP3    H213147   0.835   5.583   3.486
 4409TIP3   OH213148   0.300   5.571   2.399
 4409TIP3    H113149   0.265   5.506   2.462
 4409TIP3    H213150   0.300   5.522   2.315
 4410TIP3   OH213151   0.286   5.205   3.241
 4410TIP3    H113152   0.193   5.176   3.251
 4410TIP3    H213153   0.324   5.126   3.197
 4411TIP3   OH213154   0.085   5.412   3.420
 4411TIP3    H113155   0.095   5.415   3.518
 4411TIP3    H213156   0.159   5.355   3.395
 4412TIP3   OH213157   0.055   5.303   2.305
 4412TIP3    H113158   0.095   5.274   2.390
 4412TIP3    H213159  -0.035   5.266   2.309
 4413TIP3   OH213160   0.329   5.940   3.472
 4413TIP3    H113161   0.256   5.874   3.472
 4413TIP3    H213162   0.302   6.001   3.400
 4414TIP3   OH213163   0.385   5.777   2.121
 4414TIP3    H113164   0.427   5.853   2.078
 4414TIP3    H213165   0.305   5.823   2.156
 4415TIP3   OH213166   0.206   5.238   2.532
 4415TIP3    H113167   0.199   5.168   2.600
 4415TIP3    H213168   0.302   5.235   2.513
 4416TIP3   OH213169   0.241   4.621   3.675
 4416TIP3    H113170   0.324   4.658   3.710
 4416TIP3    H213171   0.231   4.539   3.728
 4417TIP3   OH213172   0.121   4.370   2.838
 4417TIP3    H113173   0.110   4.392   2.743
 4417TIP3    H213174   0.162   4.453   2.873
 4418TIP3   OH213175  -0.191   4.551   2.937
 4418TIP3    H113176  -0.125   4.622   2.921
 4418TIP3    H213177  -0.182   4.541   3.035
 4419TIP3   OH213178   0.083   4.876   3.751
 4419TIP3    H113179   0.104   4.924   3.834
 4419TIP3    H213180   0.137   4.796   3.761
 4420TIP3   OH213181  -0.042   4.276   3.043
 4420TIP3    H113182  -0.055   4.355   3.099
 4420TIP3    H213183   0.019   4.312   2.975
 4421TIP3   OH213184  -0.502   4.238   2.837
 4421TIP3    H113185  -0.512   4.316   2.893
 4421TIP3    H213186  -0.404   4.235   2.833
 4422TIP3   OH213187   0.721   4.771   3.728
 4422TIP3    H113188   0.623   4.766   3.733
 4422TIP3    H213189   0.735   4.725   3.644
 4423TIP3   OH213190   0.372   4.965   3.116
 4423TIP3    H113191   0.298   4.903   3.129
 4423TIP3    H213192   0.445   4.919   3.163
 4424TIP3   OH213193   0.337   5.916   3.062
 4424TIP3    H113194   0.296   5.970   2.991
 4424TIP3    H213195   0.431   5.936   3.043
 4425TIP3   OH213196  -0.416   5.483   2.225
 4425TIP3    H113197  -0.466   5.401   2.230
 4425TIP3    H213198  -0.344   5.457   2.164
 4426TIP3   OH213199   0.241   5.812   3.817
 4426TIP3    H113200   0.227   5.748   3.891
 4426TIP3    H213201   0.314   5.866   3.853
 4427TIP3   OH213202   0.019   5.497   2.117
 4427TIP3    H113203   0.052   5.440   2.190
 4427TIP3    H213204   0.100   5.541   2.088
 4428TIP3   OH213205  -0.211   5.209   2.260
 4428TIP3    H113206  -0.233   5.220   2.355
 4428TIP3    H213207  -0.237   5.115   2.246
 4429TIP3   OH213208   0.353   5.431   3.619
 4429TIP3    H113209   0.413   5.497   3.578
 4429TIP3    H213210   0.271   5.482   3.629
 4430TIP3   OH213211  -0.432   4.718   2.487
 4430TIP3    H113212  -0.442   4.653   2.416
 4430TIP3    H213213  -0.334   4.728   2.491
 4431TIP3   OH213214   0.235   5.381   4.032
 4431TIP3    H113215   0.308   5.349   3.978
 4431TIP3    H213216   0.226   5.310   4.098
 4432TIP3   OH213217   0.335   5.047   2.167
 4432TIP3    H113218   0.357   4.997   2.088
 4432TIP3    H213219   0.392   5.124   2.161
 4433TIP3   OH213220  -0.150   4.741   4.011
 4433TIP3    H113221  -0.145   4.672   3.942
 4433TIP3    H213222  -0.231   4.788   3.988
 4434TIP3   OH213223  -0.177   4.538   3.802
 4434TIP3    H113224  -0.126   4.586   3.733
 4434TIP3    H213225  -0.253   4.508   3.750
 4435TIP3   OH213226  -0.113   5.144   3.682
 4435TIP3    H113227  -0.048   5.089   3.637
 4435TIP3    H213228  -0.196   5.119   3.638
 4436TIP3   OH213229   0.441   5.043   4.071
 4436TIP3    H113230   0.489   4.960   4.087
 4436TIP3    H213231   0.512   5.099   4.035
 4437TIP3   OH213232   0.476   5.303   3.817
 4437TIP3    H113233   0.421   5.352   3.752
 4437TIP3    H213234   0.564   5.320   3.778
 4438TIP3   OH213235  -0.038   4.311   3.885
 4438TIP3    H113236  -0.091   4.390   3.862
 4438TIP3    H213237  -0.105   4.240   3.877
 4439TIP3   OH213238   0.093   4.822   4.110
 4439TIP3    H113239   0.083   4.794   4.202
 4439TIP3    H213240   0.002   4.801   4.078
 4440TIP3   OH213241   0.321   4.763   3.959
 4440TIP3    H113242   0.249   4.766   4.025
 4440TIP3    H213243   0.396   4.732   4.015
 4441TIP3   OH213244   0.547   4.703   4.110
 4441TIP3    H113245   0.562   4.608   4.128
 4441TIP3    H213246   0.545   4.742   4.200
 4442TIP3   OH213247   0.048   4.317   4.145
 4442TIP3    H113248   0.116   4.246   4.143
 4442TIP3    H213249   0.012   4.309   4.054
 4443TIP3   OH213250   0.131   4.525   4.301
 4443TIP3    H113251   0.105   4.453   4.240
 4443TIP3    H213252   0.054   4.585   4.295
 4444TIP3   OH213253   0.588   6.015   3.020
 4444TIP3    H113254   0.621   6.031   3.110
 4444TIP3    H213255   0.660   6.045   2.963
 4445TIP3   OH213256   0.636   6.026   3.296
 4445TIP3    H113257   0.583   5.943   3.295
 4445TIP3    H213258   0.699   6.002   3.367
 4446TIP3   OH213259   0.670   5.707   3.873
 4446TIP3    H113260   0.599   5.715   3.939
 4446TIP3    H213261   0.713   5.795   3.880
 4447TIP3   OH213262   0.486   5.218   2.495
 4447TIP3    H113263   0.553   5.284   2.468
 4447TIP3    H213264   0.527   5.182   2.577
 4448TIP3   OH213265   0.611   5.089   2.701
 4448TIP3    H113266   0.548   5.045   2.762
 4448TIP3    H213267   0.680   5.123   2.762
 4449TIP3   OH213268   0.665   5.478   3.129
 4449TIP3    H113269   0.721   5.410   3.085
 4449TIP3    H213270   0.659   5.547   3.061
 4450TIP3   OH213271   0.501   5.783   3.321
 4450TIP3    H113272   0.433   5.821   3.380
 4450TIP3    H213273   0.447   5.732   3.257
 4451TIP3   OH213274   0.553   4.994   2.350
 4451TIP3    H113275   0.470   4.985   2.300
 4451TIP3    H213276   0.531   5.069   2.408
 4452TIP3   OH213277   0.417   4.673   2.302
 4452TIP3    H113278   0.384   4.696   2.215
 4452TIP3    H213279   0.397   4.576   2.303
 4453TIP3   OH213280   0.427   4.942   2.848
 4453TIP3    H113281   0.437   4.846   2.841
 4453TIP3    H213282   0.414   4.955   2.945
 4454TIP3   OH213283   0.717   5.368   3.704
 4454TIP3    H113284   0.789   5.301   3.696
 4454TIP3    H213285   0.746   5.436   3.641
 4455TIP3   OH213286   0.901   5.173   3.723
 4455TIP3    H113287   0.828   5.121   3.762
 4455TIP3    H213288   0.975   5.110   3.736
 4456TIP3   OH213289   0.364   4.407   2.291
 4456TIP3    H113290   0.442   4.372   2.340
 4456TIP3    H213291   0.294   4.343   2.311
 4457TIP3   OH213292   0.423   4.658   2.741
 4457TIP3    H113293   0.463   4.569   2.758
 4457TIP3    H213294   0.484   4.690   2.671
 4458TIP3   OH213295   0.584   4.836   3.236
 4458TIP3    H113296   0.671   4.861   3.196
 4458TIP3    H213297   0.600   4.869   3.326
 4459TIP3   OH213298   0.654   4.976   3.470
 4459TIP3    H113299   0.576   5.011   3.517
 4459TIP3    H213300   0.688   5.057   3.424
 4460TIP3   OH213301   1.101   4.565   4.024
 4460TIP3    H113302   1.164   4.501   3.985
 4460TIP3    H213303   1.079   4.621   3.947
 4461TIP3   OH213304   0.530   4.410   2.780
 4461TIP3    H113305   0.582   4.394   2.863
 4461TIP3    H213306   0.472   4.331   2.780
 4462TIP3   OH213307   0.978   4.710   3.828
 4462TIP3    H113308   0.890   4.748   3.849
 4462TIP3    H213309   0.950   4.635   3.772
 4463TIP3   OH213310   0.613   4.345   2.409
 4463TIP3    H113311   0.655   4.271   2.361
 4463TIP3    H213312   0.683   4.413   2.408
 4464TIP3   OH213313   0.187   5.873   2.686
 4464TIP3    H113314   0.226   5.859   2.597
 4464TIP3    H213315   0.243   5.945   2.719
 4465TIP3   OH213316   0.120   6.082   3.607
 4465TIP3    H113317   0.195   6.023   3.591
 4465TIP3    H213318   0.159   6.141   3.676
 4466TIP3   OH213319   0.876   4.470   3.709
 4466TIP3    H113320   0.785   4.460   3.676
 4466TIP3    H213321   0.909   4.378   3.699
 4467TIP3   OH213322   0.075   5.915   3.320
 4467TIP3    H113323  -0.013   5.907   3.358
 4467TIP3    H213324   0.095   6.009   3.330
 4468TIP3   OH213325   0.286   6.115   3.258
 4468TIP3    H113326   0.265   6.194   3.203
 4468TIP3    H213327   0.296   6.045   3.190
 4469TIP3   OH213328   0.084   4.386   3.329
 4469TIP3    H113329   0.041   4.311   3.375
 4469TIP3    H213330   0.157   4.341   3.282
 4470TIP3   OH213331   0.603   4.265   3.232
 4470TIP3    H113332   0.641   4.317   3.158
 4470TIP3    H213333   0.508   4.284   3.225
 4471TIP3   OH213334   0.698   4.368   2.996
 4471TIP3    H113335   0.771   4.315   2.958
 4471TIP3    H213336   0.733   4.459   2.981
 4472TIP3   OH213337  -0.218   4.119   3.220
 4472TIP3    H113338  -0.165   4.172   3.159
 4472TIP3    H213339  -0.197   4.160   3.305
 4473TIP3   OH213340   0.317   4.273   3.207
 4473TIP3    H113341   0.321   4.233   3.120
 4473TIP3    H213342   0.305   4.193   3.265
 4474TIP3   OH213343   0.349   4.195   2.770
 4474TIP3    H113344   0.261   4.236   2.782
 4474TIP3    H213345   0.336   4.110   2.818
 4475TIP3   OH213346  -0.238   4.294   2.852
 4475TIP3    H113347  -0.177   4.257   2.919
 4475TIP3    H213348  -0.227   4.389   2.873
 4476TIP3   OH213349   0.320   5.839   2.448
 4476TIP3    H113350   0.315   5.742   2.431
 4476TIP3    H213351   0.277   5.874   2.367
 4477TIP3   OH213352  -0.198   4.349   4.362
 4477TIP3    H113353  -0.135   4.355   4.288
 4477TIP3    H213354  -0.154   4.279   4.414
 4478TIP3   OH213355   0.611   4.434   4.142
 4478TIP3    H113356   0.630   4.401   4.233
 4478TIP3    H213357   0.700   4.429   4.101
 4479TIP3   OH213358   0.554   5.987   3.632
 4479TIP3    H113359   0.475   5.953   3.586
 4479TIP3    H213360   0.531   6.082   3.639
 4480TIP3   OH213361   1.817   5.358   2.401
 4480TIP3    H113362   1.787   5.449   2.382
 4480TIP3    H213363   1.740   5.307   2.369
 4481TIP3   OH213364   1.808   5.360   2.784
 4481TIP3    H113365   1.845   5.332   2.870
 4481TIP3    H213366   1.775   5.276   2.749
 4482TIP3   OH213367   1.112   5.256   3.150
 4482TIP3    H113368   1.142   5.186   3.212
 4482TIP3    H213369   1.195   5.303   3.135
 4483TIP3   OH213370   2.056   5.662   2.464
 4483TIP3    H113371   2.047   5.589   2.527
 4483TIP3    H213372   2.090   5.733   2.520
 4484TIP3   OH213373   1.083   5.663   2.875
 4484TIP3    H113374   1.077   5.565   2.874
 4484TIP3    H213375   1.179   5.673   2.867
 4485TIP3   OH213376   0.792   4.866   2.655
 4485TIP3    H113377   0.744   4.950   2.670
 4485TIP3    H213378   0.720   4.810   2.621
 4486TIP3   OH213379   0.851   5.151   2.826
 4486TIP3    H113380   0.898   5.074   2.864
 4486TIP3    H213381   0.914   5.182   2.760
 4487TIP3   OH213382   1.706   6.122   2.482
 4487TIP3    H113383   1.750   6.053   2.427
 4487TIP3    H213384   1.708   6.081   2.569
 4488TIP3   OH213385   1.614   5.585   2.830
 4488TIP3    H113386   1.653   5.506   2.789
 4488TIP3    H213387   1.698   5.630   2.853
 4489TIP3   OH213388   2.627   4.904   2.828
 4489TIP3    H113389   2.655   4.987   2.872
 4489TIP3    H213390   2.647   4.925   2.735
 4490TIP3   OH213391   2.025   5.087   2.862
 4490TIP3    H113392   2.068   5.002   2.884
 4490TIP3    H213393   1.994   5.069   2.771
 4491TIP3   OH213394   1.360   4.744   2.829
 4491TIP3    H113395   1.345   4.817   2.765
 4491TIP3    H213396   1.315   4.671   2.782
 4492TIP3   OH213397   2.064   4.842   2.451
 4492TIP3    H113398   2.135   4.823   2.516
 4492TIP3    H213399   2.117   4.874   2.377
 4493TIP3   OH213400   0.998   4.947   2.933
 4493TIP3    H113401   1.080   4.929   2.981
 4493TIP3    H213402   1.013   4.891   2.854
 4494TIP3   OH213403   1.438   5.145   2.730
 4494TIP3    H113404   1.533   5.121   2.741
 4494TIP3    H213405   1.401   5.060   2.697
 4495TIP3   OH213406   2.700   5.111   2.998
 4495TIP3    H113407   2.617   5.160   2.978
 4495TIP3    H213408   2.717   5.142   3.088
 4496TIP3   OH213409   1.360   4.729   3.261
 4496TIP3    H113410   1.300   4.766   3.194
 4496TIP3    H213411   1.310   4.746   3.343
 4497TIP3   OH213412   1.703   5.577   2.274
 4497TIP3    H113413   1.668   5.559   2.185
 4497TIP3    H213414   1.661   5.662   2.295
 4498TIP3   OH213415   1.467   5.503   3.056
 4498TIP3    H113416   1.407   5.570   3.095
 4498TIP3    H213417   1.512   5.554   2.985
 4499TIP3   OH213418   2.274   4.838   2.622
 4499TIP3    H113419   2.261   4.787   2.703
 4499TIP3    H213420   2.325   4.915   2.653
 4500TIP3   OH213421   1.229   4.844   3.046
 4500TIP3    H113422   1.293   4.915   3.070
 4500TIP3    H213423   1.278   4.803   2.971
 4501TIP3   OH213424   1.292   5.697   3.156
 4501TIP3    H113425   1.267   5.782   3.117
 4501TIP3    H213426   1.214   5.680   3.213
 4502TIP3   OH213427   0.690   5.389   2.391
 4502TIP3    H113428   0.650   5.421   2.308
 4502TIP3    H213429   0.723   5.471   2.431
 4503TIP3   OH213430   2.127   5.904   2.632
 4503TIP3    H113431   2.037   5.894   2.670
 4503TIP3    H213432   2.119   5.989   2.586
 4504TIP3   OH213433   2.419   4.804   2.994
 4504TIP3    H113434   2.332   4.833   2.962
 4504TIP3    H213435   2.479   4.836   2.923
 4505TIP3   OH213436   1.715   4.448   2.973
 4505TIP3    H113437   1.704   4.353   2.991
 4505TIP3    H213438   1.638   4.484   3.021
 4506TIP3   OH213439   1.827   5.952   2.302
 4506TIP3    H113440   1.876   5.868   2.285
 4506TIP3    H213441   1.892   6.015   2.264
 4507TIP3   OH213442   1.969   5.736   2.213
 4507TIP3    H113443   1.947   5.655   2.165
 4507TIP3    H213444   2.006   5.700   2.297
 4508TIP3   OH213445   2.343   5.819   2.973
 4508TIP3    H113446   2.346   5.737   2.920
 4508TIP3    H213447   2.344   5.888   2.904
 4509TIP3   OH213448   1.646   5.211   2.230
 4509TIP3    H113449   1.568   5.263   2.204
 4509TIP3    H213450   1.696   5.206   2.146
 4510TIP3   OH213451   1.603   4.995   1.947
 4510TIP3    H113452   1.671   5.045   1.996
 4510TIP3    H213453   1.660   4.929   1.901
 4511TIP3   OH213454   2.550   5.450   2.816
 4511TIP3    H113455   2.470   5.505   2.828
 4511TIP3    H213456   2.578   5.479   2.727
 4512TIP3   OH213457   1.994   5.292   2.203
 4512TIP3    H113458   1.941   5.315   2.282
 4512TIP3    H213459   2.079   5.266   2.246
 4513TIP3   OH213460   2.230   5.330   3.115
 4513TIP3    H113461   2.234   5.413   3.167
 4513TIP3    H213462   2.144   5.341   3.070
 4514TIP3   OH213463   1.228   5.292   2.622
 4514TIP3    H113464   1.186   5.233   2.555
 4514TIP3    H213465   1.304   5.238   2.652
 4515TIP3   OH213466   1.355   5.701   2.770
 4515TIP3    H113467   1.337   5.659   2.685
 4515TIP3    H213468   1.446   5.668   2.789
 4516TIP3   OH213469   1.356   5.263   2.974
 4516TIP3    H113470   1.394   5.236   2.887
 4516TIP3    H213471   1.406   5.346   2.993
 4517TIP3   OH213472   1.883   5.899   2.750
 4517TIP3    H113473   1.878   5.977   2.809
 4517TIP3    H213474   1.873   5.824   2.813
 4518TIP3   OH213475   1.501   5.823   3.295
 4518TIP3    H113476   1.442   5.881   3.346
 4518TIP3    H213477   1.436   5.765   3.250
 4519TIP3   OH213478   1.832   5.154   2.028
 4519TIP3    H113479   1.893   5.211   2.081
 4519TIP3    H213480   1.860   5.176   1.936
 4520TIP3   OH213481   1.255   5.378   3.399
 4520TIP3    H113482   1.258   5.464   3.445
 4520TIP3    H213483   1.161   5.356   3.408
 4521TIP3   OH213484   1.574   5.834   2.306
 4521TIP3    H113485   1.658   5.881   2.320
 4521TIP3    H213486   1.518   5.900   2.263
 4522TIP3   OH213487   1.292   5.989   3.384
 4522TIP3    H113488   1.259   5.982   3.293
 4522TIP3    H213489   1.213   5.966   3.438
 4523TIP3   OH213490   2.350   4.392   2.079
 4523TIP3    H113491   2.264   4.404   2.124
 4523TIP3    H213492   2.360   4.477   2.032
 4524TIP3   OH213493   1.090   5.136   2.430
 4524TIP3    H113494   1.024   5.173   2.368
 4524TIP3    H213495   1.062   5.044   2.437
 4525TIP3   OH213496   2.150   5.757   1.626
 4525TIP3    H113497   2.160   5.854   1.610
 4525TIP3    H213498   2.244   5.727   1.618
 4526TIP3   OH213499   0.874   5.518   3.330
 4526TIP3    H113500   0.810   5.490   3.262
 4526TIP3    H213501   0.913   5.432   3.360
 4527TIP3   OH213502   0.728   5.712   2.959
 4527TIP3    H113503   0.823   5.693   2.951
 4527TIP3    H213504   0.725   5.782   3.025
 4528TIP3   OH213505   2.592   6.165   3.012
 4528TIP3    H113506   2.595   6.068   3.027
 4528TIP3    H213507   2.510   6.187   3.062
 4529TIP3   OH213508   1.696   5.952   3.151
 4529TIP3    H113509   1.696   6.043   3.188
 4529TIP3    H213510   1.628   5.909   3.207
 4530TIP3   OH213511   1.456   6.074   2.108
 4530TIP3    H113512   1.415   6.058   2.021
 4530TIP3    H213513   1.428   6.165   2.129
 4531TIP3   OH213514   0.896   5.925   2.493
 4531TIP3    H113515   0.946   5.915   2.576
 4531TIP3    H213516   0.842   5.844   2.493
 4532TIP3   OH213517   1.660   5.975   1.748
 4532TIP3    H113518   1.720   5.907   1.711
 4532TIP3    H213519   1.696   5.986   1.838
 4533TIP3   OH213520   1.709   6.026   2.018
 4533TIP3    H113521   1.622   6.034   2.063
 4533TIP3    H213522   1.762   5.983   2.087
 4534TIP3   OH213523   2.484   5.290   3.299
 4534TIP3    H113524   2.407   5.309   3.244
 4534TIP3    H213525   2.499   5.195   3.283
 4535TIP3   OH213526   1.075   5.705   3.324
 4535TIP3    H113527   1.129   5.685   3.403
 4535TIP3    H213528   1.005   5.637   3.329
 4536TIP3   OH213529   1.477   4.522   3.105
 4536TIP3    H113530   1.388   4.493   3.077
 4536TIP3    H213531   1.454   4.605   3.150
 4537TIP3   OH213532   2.013   4.639   3.298
 4537TIP3    H113533   2.082   4.610   3.362
 4537TIP3    H213534   1.930   4.618   3.345
 4538TIP3   OH213535   2.250   5.066   3.215
 4538TIP3    H113536   2.201   5.064   3.301
 4538TIP3    H213537   2.231   5.155   3.181
 4539TIP3   OH213538   1.910   5.199   1.773
 4539TIP3    H113539   1.877   5.172   1.685
 4539TIP3    H213540   1.992   5.246   1.749
 4540TIP3   OH213541   1.623   4.578   2.074
 4540TIP3    H113542   1.602   4.573   2.169
 4540TIP3    H213543   1.601   4.486   2.048
 4541TIP3   OH213544   1.407   5.040   3.122
 4541TIP3    H113545   1.361   5.065   3.205
 4541TIP3    H213546   1.392   5.121   3.068
 4542TIP3   OH213547   1.293   4.927   2.638
 4542TIP3    H113548   1.201   4.897   2.655
 4542TIP3    H213549   1.308   4.887   2.550
 4543TIP3   OH213550   1.787   5.012   2.366
 4543TIP3    H113551   1.734   5.082   2.322
 4543TIP3    H213552   1.840   4.977   2.292
 4544TIP3   OH213553   1.958   5.290   3.452
 4544TIP3    H113554   1.939   5.216   3.513
 4544TIP3    H213555   2.053   5.306   3.471
 4545TIP3   OH213556   1.940   5.040   2.604
 4545TIP3    H113557   1.880   5.066   2.530
 4545TIP3    H213558   1.977   4.959   2.563
 4546TIP3   OH213559   1.224   5.069   3.334
 4546TIP3    H113560   1.267   5.128   3.398
 4546TIP3    H213561   1.218   4.985   3.383
 4547TIP3   OH213562   1.272   4.542   2.039
 4547TIP3    H113563   1.278   4.541   2.136
 4547TIP3    H213564   1.194   4.597   2.024
 4548TIP3   OH213565   0.823   4.591   2.911
 4548TIP3    H113566   0.898   4.622   2.966
 4548TIP3    H213567   0.866   4.557   2.832
 4549TIP3   OH213568   0.794   4.568   2.433
 4549TIP3    H113569   0.843   4.604   2.356
 4549TIP3    H213570   0.736   4.644   2.452
 4550TIP3   OH213571   1.944   5.285   3.025
 4550TIP3    H113572   1.982   5.214   2.967
 4550TIP3    H213573   1.921   5.232   3.104
 4551TIP3   OH213574   1.622   4.765   2.703
 4551TIP3    H113575   1.541   4.748   2.755
 4551TIP3    H213576   1.692   4.746   2.768
 4552TIP3   OH213577   1.055   4.801   2.708
 4552TIP3    H113578   0.962   4.806   2.678
 4552TIP3    H213579   1.083   4.710   2.684
 4553TIP3   OH213580   1.322   4.802   2.396
 4553TIP3    H113581   1.420   4.806   2.382
 4553TIP3    H213582   1.285   4.822   2.308
 4554TIP3   OH213583   2.111   4.824   2.901
 4554TIP3    H113584   2.076   4.836   2.992
 4554TIP3    H213585   2.046   4.759   2.866
 4555TIP3   OH213586   1.160   4.838   2.170
 4555TIP3    H113587   1.092   4.790   2.118
 4555TIP3    H213588   1.216   4.873   2.098
 4556TIP3   OH213589   2.279   6.517   3.122
 4556TIP3    H113590   2.284   6.532   3.025
 4556TIP3    H213591   2.362   6.558   3.152
 4557TIP3   OH213592   1.239   5.626   3.540
 4557TIP3    H113593   1.321   5.651   3.587
 4557TIP3    H213594   1.177   5.621   3.615
 4558TIP3   OH213595   1.704   5.077   2.795
 4558TIP3    H113596   1.773   5.036   2.741
 4558TIP3    H213597   1.715   5.031   2.880
 4559TIP3   OH213598   1.226   4.565   2.670
 4559TIP3    H113599   1.197   4.485   2.717
 4559TIP3    H213600   1.288   4.529   2.604
 4560TIP3   OH213601   1.680   4.970   3.089
 4560TIP3    H113602   1.592   5.010   3.100
 4560TIP3    H213603   1.740   5.031   3.136
 4561TIP3   OH213604   1.412   5.365   2.177
 4561TIP3    H113605   1.342   5.297   2.169
 4561TIP3    H213606   1.397   5.398   2.269
 4562TIP3   OH213607   2.319   5.599   2.809
 4562TIP3    H113608   2.343   5.649   2.728
 4562TIP3    H213609   2.235   5.557   2.784
 4563TIP3   OH213610   1.871   4.685   2.027
 4563TIP3    H113611   1.779   4.659   2.051
 4563TIP3    H213612   1.883   4.771   2.073
 4564TIP3   OH213613   1.809   5.678   3.179
 4564TIP3    H113614   1.851   5.657   3.263
 4564TIP3    H213615   1.780   5.769   3.190
 4565TIP3   OH213616   1.946   4.924   2.146
 4565TIP3    H113617   2.042   4.928   2.164
 4565TIP3    H213618   1.930   5.005   2.093
 4566TIP3   OH213619   1.107   5.384   2.855
 4566TIP3    H113620   1.146   5.357   2.770
 4566TIP3    H213621   1.155   5.327   2.917
 4567TIP3   OH213622   1.562   5.512   1.999
 4567TIP3    H113623   1.514   5.598   2.006
 4567TIP3    H213624   1.509   5.457   2.061
 4568TIP3   OH213625   0.987   5.311   3.472
 4568TIP3    H113626   1.014   5.295   3.565
 4568TIP3    H213627   0.925   5.238   3.456
 4569TIP3   OH213628   1.717   5.419   3.489
 4569TIP3    H113629   1.661   5.360   3.436
 4569TIP3    H213630   1.807   5.386   3.464
 4570TIP3   OH213631   1.975   5.948   3.071
 4570TIP3    H113632   1.879   5.944   3.087
 4570TIP3    H213633   2.005   5.995   3.151
 4571TIP3   OH213634   2.388   5.012   1.982
 4571TIP3    H113635   2.325   4.968   1.919
 4571TIP3    H213636   2.384   5.102   1.943
 4572TIP3   OH213637   2.595   5.893   3.055
 4572TIP3    H113638   2.502   5.861   3.053
 4572TIP3    H213639   2.630   5.843   2.978
 4573TIP3   OH213640   2.076   5.833   1.886
 4573TIP3    H113641   2.071   5.761   1.951
 4573TIP3    H213642   2.102   5.787   1.804
 4574TIP3   OH213643   2.082   5.462   2.727
 4574TIP3    H113644   1.989   5.436   2.740
 4574TIP3    H213645   2.118   5.382   2.684
 4575TIP3   OH213646   1.210   5.691   2.486
 4575TIP3    H113647   1.214   5.769   2.428
 4575TIP3    H213648   1.116   5.670   2.484
 4576TIP3   OH213649   0.770   4.997   2.179
 4576TIP3    H113650   0.823   5.076   2.205
 4576TIP3    H213651   0.701   4.997   2.249
 4577TIP3   OH213652   1.346   5.454   2.423
 4577TIP3    H113653   1.315   5.543   2.446
 4577TIP3    H213654   1.316   5.402   2.500
 4578TIP3   OH213655   1.479   6.033   2.951
 4578TIP3    H113656   1.524   6.103   2.900
 4578TIP3    H213657   1.554   5.995   3.000
 4579TIP3   OH213658   1.129   5.929   2.332
 4579TIP3    H113659   1.044   5.939   2.379
 4579TIP3    H213660   1.163   6.021   2.335
 4580TIP3   OH213661   1.869   5.667   2.909
 4580TIP3    H113662   1.858   5.662   3.006
 4580TIP3    H213663   1.949   5.615   2.895
 4581TIP3   OH213664   1.842   5.557   1.793
 4581TIP3    H113665   1.898   5.535   1.871
 4581TIP3    H213666   1.755   5.531   1.826
 4582TIP3   OH213667   2.110   6.205   2.965
 4582TIP3    H113668   2.037   6.142   2.955
 4582TIP3    H213669   2.096   6.265   2.888
 4583TIP3   OH213670   2.178   6.034   1.608
 4583TIP3    H113671   2.221   6.107   1.560
 4583TIP3    H213672   2.099   6.080   1.642
 4584TIP3   OH213673   1.203   4.812   3.478
 4584TIP3    H113674   1.107   4.813   3.492
 4584TIP3    H213675   1.233   4.752   3.548
 4585TIP3   OH213676   2.000   5.496   2.013
 4585TIP3    H113677   1.991   5.428   2.082
 4585TIP3    H213678   2.097   5.490   1.997
 4586TIP3   OH213679   0.923   5.908   3.119
 4586TIP3    H113680   0.966   5.822   3.115
 4586TIP3    H213681   0.958   5.938   3.205
 4587TIP3   OH213682   1.205   5.541   1.793
 4587TIP3    H113683   1.225   5.451   1.762
 4587TIP3    H213684   1.188   5.526   1.888
 4588TIP3   OH213685   1.151   5.544   2.068
 4588TIP3    H113686   1.230   5.515   2.117
 4588TIP3    H213687   1.159   5.641   2.073
 4589TIP3   OH213688   0.887   5.235   2.265
 4589TIP3    H113689   0.825   5.283   2.323
 4589TIP3    H213690   0.910   5.305   2.201
 4590TIP3   OH213691   2.035   4.878   3.161
 4590TIP3    H113692   2.119   4.915   3.196
 4590TIP3    H213693   2.025   4.796   3.214
 4591TIP3   OH213694   1.879   4.662   2.333
 4591TIP3    H113695   1.902   4.651   2.240
 4591TIP3    H213696   1.944   4.728   2.365
 4592TIP3   OH213697   1.418   5.740   2.012
 4592TIP3    H113698   1.332   5.771   2.048
 4592TIP3    H213699   1.438   5.811   1.950
 4593TIP3   OH213700   1.601   4.807   2.430
 4593TIP3    H113701   1.674   4.868   2.407
 4593TIP3    H213702   1.610   4.802   2.527
 4594TIP3   OH213703   1.877   5.125   3.235
 4594TIP3    H113704   1.902   5.176   3.315
 4594TIP3    H213705   1.933   5.045   3.244
 4595TIP3   OH213706   1.759   4.547   2.565
 4595TIP3    H113707   1.751   4.641   2.583
 4595TIP3    H213708   1.803   4.547   2.477
 4596TIP3   OH213709   1.161   5.817   2.079
 4596TIP3    H113710   1.132   5.888   2.016
 4596TIP3    H213711   1.147   5.862   2.166
 4597TIP3   OH213712   1.264   4.533   2.316
 4597TIP3    H113713   1.264   4.622   2.356
 4597TIP3    H213714   1.359   4.510   2.327
 4598TIP3   OH213715   2.518   5.024   3.215
 4598TIP3    H113716   2.420   5.021   3.221
 4598TIP3    H213717   2.529   4.986   3.127
 4599TIP3   OH213718   2.168   5.220   2.603
 4599TIP3    H113719   2.093   5.159   2.615
 4599TIP3    H213720   2.241   5.173   2.650
 4600TIP3   OH213721   0.880   5.451   2.069
 4600TIP3    H113722   0.950   5.518   2.082
 4600TIP3    H213723   0.927   5.394   2.004
 4601TIP3   OH213724   0.823   4.725   2.211
 4601TIP3    H113725   0.826   4.821   2.200
 4601TIP3    H213726   0.747   4.699   2.158
 4602TIP3   OH213727   2.138   6.180   2.550
 4602TIP3    H113728   2.093   6.230   2.478
 4602TIP3    H213729   2.231   6.204   2.529
 4603TIP3   OH213730   1.209   4.445   3.081
 4603TIP3    H113731   1.183   4.410   2.994
 4603TIP3    H213732   1.203   4.366   3.138
 4604TIP3   OH213733   0.754   5.665   2.461
 4604TIP3    H113734   0.677   5.694   2.511
 4604TIP3    H213735   0.732   5.701   2.373
 4605TIP3   OH213736   0.909   6.203   3.527
 4605TIP3    H113737   0.995   6.204   3.576
 4605TIP3    H213738   0.889   6.108   3.531
 4606TIP3   OH213739   1.389   6.172   3.574
 4606TIP3    H113740   1.483   6.150   3.586
 4606TIP3    H213741   1.367   6.111   3.501
 4607TIP3   OH213742   1.372   5.744   1.705
 4607TIP3    H113743   1.317   5.671   1.742
 4607TIP3    H213744   1.448   5.693   1.671
 4608TIP3   OH213745   2.029   6.074   3.313
 4608TIP3    H113746   2.022   6.004   3.381
 4608TIP3    H213747   2.111   6.120   3.340
 4609TIP3   OH213748   1.807   5.784   1.615
 4609TIP3    H113749   1.855   5.725   1.675
 4609TIP3    H213750   1.864   5.784   1.535
 4610TIP3   OH213751   1.039   5.610   3.732
 4610TIP3    H113752   1.057   5.514   3.740
 4610TIP3    H213753   0.952   5.610   3.687
 4611TIP3   OH213754   1.015   5.259   1.927
 4611TIP3    H113755   1.071   5.226   1.998
 4611TIP3    H213756   1.081   5.265   1.855
 4612TIP3   OH213757   1.643   5.691   3.506
 4612TIP3    H113758   1.612   5.708   3.416
 4612TIP3    H213759   1.679   5.601   3.500
 4613TIP3   OH213760   1.519   5.457   1.731
 4613TIP3    H113761   1.529   5.470   1.828
 4613TIP3    H213762   1.524   5.359   1.726
 4614TIP3   OH213763   2.135   5.703   3.111
 4614TIP3    H113764   2.214   5.741   3.068
 4614TIP3    H213765   2.071   5.774   3.094
 4615TIP3   OH213766   1.159   5.343   3.711
 4615TIP3    H113767   1.235   5.287   3.690
 4615TIP3    H213768   1.185   5.376   3.800
 4616TIP3   OH213769   1.220   5.164   2.146
 4616TIP3    H113770   1.203   5.119   2.230
 4616TIP3    H213771   1.260   5.091   2.093
 4617TIP3   OH213772   1.488   5.224   3.371
 4617TIP3    H113773   1.416   5.290   3.373
 4617TIP3    H213774   1.544   5.259   3.298
 4618TIP3   OH213775   1.325   4.959   1.988
 4618TIP3    H113776   1.302   4.961   1.893
 4618TIP3    H213777   1.423   4.961   1.984
 4619TIP3   OH213778   2.012   5.631   3.507
 4619TIP3    H113779   2.098   5.616   3.467
 4619TIP3    H213780   2.011   5.564   3.578
 4620TIP3   OH213781   2.146   5.289   1.650
 4620TIP3    H113782   2.125   5.244   1.566
 4620TIP3    H213783   2.114   5.379   1.628
 4621TIP3   OH213784   1.614   5.016   3.503
 4621TIP3    H113785   1.618   4.936   3.447
 4621TIP3    H213786   1.572   5.081   3.442
 4622TIP3   OH213787   1.619   4.804   3.311
 4622TIP3    H113788   1.649   4.844   3.227
 4622TIP3    H213789   1.526   4.780   3.290
 4623TIP3   OH213790   1.645   5.336   3.183
 4623TIP3    H113791   1.731   5.341   3.139
 4623TIP3    H213792   1.594   5.405   3.136
 4624TIP3   OH213793   2.228   5.308   3.563
 4624TIP3    H113794   2.280   5.226   3.570
 4624TIP3    H213795   2.294   5.369   3.528
 4625TIP3   OH213796   2.274   5.554   3.291
 4625TIP3    H113797   2.216   5.610   3.235
 4625TIP3    H213798   2.362   5.574   3.250
 4626TIP3   OH213799   1.489   5.131   3.730
 4626TIP3    H113800   1.424   5.060   3.745
 4626TIP3    H213801   1.528   5.104   3.645
 4627TIP3   OH213802   1.752   4.566   3.375
 4627TIP3    H113803   1.702   4.648   3.353
 4627TIP3    H213804   1.683   4.498   3.363
 4628TIP3   OH213805   1.877   5.072   3.593
 4628TIP3    H113806   1.870   5.058   3.689
 4628TIP3    H213807   1.787   5.046   3.565
 4629TIP3   OH213808   2.117   5.022   3.447
 4629TIP3    H113809   2.043   5.021   3.511
 4629TIP3    H213810   2.192   4.991   3.502
 4630TIP3   OH213811   2.343   4.960   3.598
 4630TIP3    H113812   2.357   4.865   3.616
 4630TIP3    H213813   2.341   4.999   3.688
 4631TIP3   OH213814   1.333   4.909   3.785
 4631TIP3    H113815   1.341   4.818   3.750
 4631TIP3    H213816   1.372   4.897   3.875
 4632TIP3   OH213817   1.845   4.577   3.633
 4632TIP3    H113818   1.913   4.506   3.629
 4632TIP3    H213819   1.807   4.570   3.543
 4633TIP3   OH213820   1.912   4.792   3.792
 4633TIP3    H113821   1.891   4.720   3.728
 4633TIP3    H213822   1.834   4.850   3.784
 4634TIP3   OH213823   1.132   6.020   1.892
 4634TIP3    H113824   1.228   6.014   1.875
 4634TIP3    H213825   1.104   6.069   1.813
 4635TIP3   OH213826   0.613   5.400   2.107
 4635TIP3    H113827   0.708   5.426   2.095
 4635TIP3    H213828   0.612   5.311   2.068
 4636TIP3   OH213829   0.524   6.013   2.524
 4636TIP3    H113830   0.459   5.950   2.486
 4636TIP3    H213831   0.570   5.955   2.589
 4637TIP3   OH213832   0.662   5.867   2.711
 4637TIP3    H113833   0.654   5.789   2.768
 4637TIP3    H213834   0.713   5.926   2.769
 4638TIP3   OH213835   2.385   6.304   2.508
 4638TIP3    H113836   2.420   6.297   2.598
 4638TIP3    H213837   2.463   6.290   2.452
 4639TIP3   OH213838   2.431   6.283   2.783
 4639TIP3    H113839   2.379   6.199   2.784
 4639TIP3    H213840   2.497   6.260   2.851
 4640TIP3   OH213841   2.274   5.473   1.985
 4640TIP3    H113842   2.333   5.546   1.956
 4640TIP3    H213843   2.324   5.438   2.062
 4641TIP3   OH213844   2.410   5.342   2.187
 4641TIP3    H113845   2.344   5.301   2.247
 4641TIP3    H213846   2.475   5.381   2.249
 4642TIP3   OH213847   2.460   5.734   2.616
 4642TIP3    H113848   2.517   5.668   2.571
 4642TIP3    H213849   2.456   5.806   2.551
 4643TIP3   OH213850   2.296   6.043   2.808
 4643TIP3    H113851   2.227   6.069   2.871
 4643TIP3    H213852   2.245   5.989   2.743
 4644TIP3   OH213853   2.347   5.251   1.834
 4644TIP3    H113854   2.275   5.255   1.767
 4644TIP3    H213855   2.319   5.326   1.891
 4645TIP3   OH213856   2.220   4.923   1.787
 4645TIP3    H113857   2.174   4.960   1.711
 4645TIP3    H213858   2.194   4.828   1.779
 4646TIP3   OH213859   2.222   5.200   2.334
 4646TIP3    H113860   2.231   5.103   2.328
 4646TIP3    H213861   2.209   5.213   2.431
 4647TIP3   OH213862   0.849   5.278   3.078
 4647TIP3    H113863   0.850   5.244   2.987
 4647TIP3    H213864   0.946   5.278   3.098
 4648TIP3   OH213865   2.505   5.617   3.161
 4648TIP3    H113866   2.582   5.559   3.182
 4648TIP3    H213867   2.537   5.700   3.201
 4649TIP3   OH213868   2.699   5.428   3.205
 4649TIP3    H113869   2.626   5.385   3.253
 4649TIP3    H213870   2.771   5.364   3.222
 4650TIP3   OH213871   2.162   4.656   1.771
 4650TIP3    H113872   2.236   4.628   1.829
 4650TIP3    H213873   2.088   4.600   1.800
 4651TIP3   OH213874   2.220   4.915   2.228
 4651TIP3    H113875   2.259   4.825   2.244
 4651TIP3    H213876   2.280   4.946   2.159
 4652TIP3   OH213877   2.381   5.091   2.724
 4652TIP3    H113878   2.468   5.116   2.684
 4652TIP3    H213879   2.395   5.128   2.813
 4653TIP3   OH213880   2.450   5.233   2.956
 4653TIP3    H113881   2.373   5.268   3.005
 4653TIP3    H213882   2.484   5.314   2.913
 4654TIP3   OH213883   1.068   4.962   3.756
 4654TIP3    H113884   1.165   4.955   3.757
 4654TIP3    H213885   1.044   4.876   3.795
 4655TIP3   OH213886   2.904   4.825   3.513
 4655TIP3    H113887   2.962   4.759   3.469
 4655TIP3    H213888   2.873   4.878   3.436
 4656TIP3   OH213889   2.326   4.663   2.266
 4656TIP3    H113890   2.374   4.647   2.350
 4656TIP3    H213891   2.262   4.589   2.267
 4657TIP3   OH213892   1.026   4.653   3.089
 4657TIP3    H113893   1.087   4.577   3.097
 4657TIP3    H213894   1.091   4.726   3.080
 4658TIP3   OH213895   0.830   4.928   3.156
 4658TIP3    H113896   0.881   4.919   3.073
 4658TIP3    H213897   0.868   5.008   3.194
 4659TIP3   OH213898   2.773   4.963   3.319
 4659TIP3    H113899   2.688   5.006   3.342
 4659TIP3    H213900   2.741   4.893   3.259
 4660TIP3   OH213901   2.409   4.603   1.898
 4660TIP3    H113902   2.450   4.529   1.848
 4660TIP3    H213903   2.479   4.672   1.894
 4661TIP3   OH213904   0.814   4.429   2.661
 4661TIP3    H113905   0.721   4.426   2.686
 4661TIP3    H213906   0.813   4.487   2.582
 4662TIP3   OH213907   1.976   6.136   2.167
 4662TIP3    H113908   2.020   6.115   2.082
 4662TIP3    H213909   2.041   6.196   2.206
 4663TIP3   OH213910   1.035   4.513   3.475
 4663TIP3    H113911   0.984   4.504   3.558
 4663TIP3    H213912   0.967   4.546   3.414
 4664TIP3   OH213913   1.072   5.943   3.551
 4664TIP3    H113914   0.983   5.905   3.537
 4664TIP3    H213915   1.091   5.915   3.641
 4665TIP3   OH213916   1.251   5.968   3.098
 4665TIP3    H113917   1.211   6.046   3.053
 4665TIP3    H213918   1.341   5.975   3.059
 4666TIP3   OH213919   1.698   6.218   3.239
 4666TIP3    H113920   1.742   6.214   3.326
 4666TIP3    H213921   1.766   6.265   3.186
 4667TIP3   OH213922   1.879   6.366   3.094
 4667TIP3    H113923   1.950   6.312   3.055
 4667TIP3    H213924   1.930   6.422   3.156
 4668TIP3   OH213925   2.672   4.727   3.195
 4668TIP3    H113926   2.581   4.722   3.161
 4668TIP3    H213927   2.702   4.634   3.184
 4669TIP3   OH213928   0.926   6.265   3.113
 4669TIP3    H113929   0.865   6.190   3.104
 4669TIP3    H213930   0.972   6.245   3.198
 4670TIP3   OH213931   1.164   6.204   2.979
 4670TIP3    H113932   1.078   6.229   3.016
 4670TIP3    H213933   1.156   6.238   2.888
 4671TIP3   OH213934   1.589   6.234   2.781
 4671TIP3    H113935   1.530   6.257   2.708
 4671TIP3    H213936   1.605   6.321   2.822
 4672TIP3   OH213937   1.859   6.174   2.829
 4672TIP3    H113938   1.765   6.190   2.808
 4672TIP3    H213939   1.902   6.250   2.787
 4673TIP3   OH213940   2.068   6.370   2.740
 4673TIP3    H113941   2.061   6.449   2.684
 4673TIP3    H213942   2.097   6.303   2.675
 4674TIP3   OH213943   0.845   6.020   2.879
 4674TIP3    H113944   0.875   5.982   2.964
 4674TIP3    H213945   0.911   5.979   2.819
 4675TIP3   OH213946   1.032   5.893   2.728
 4675TIP3    H113947   1.049   5.806   2.772
 4675TIP3    H213948   1.124   5.928   2.720
 4676TIP3   OH213949   1.300   5.986   2.731
 4676TIP3    H113950   1.331   5.896   2.712
 4676TIP3    H213951   1.351   6.004   2.812
 4677TIP3   OH213952   1.880   4.649   2.827
 4677TIP3    H113953   1.831   4.577   2.870
 4677TIP3    H213954   1.931   4.601   2.760
 4678TIP3   OH213955   2.403   4.526   2.723
 4678TIP3    H113956   2.436   4.577   2.646
 4678TIP3    H213957   2.306   4.536   2.713
 4679TIP3   OH213958   2.495   4.622   2.482
 4679TIP3    H113959   2.569   4.572   2.442
 4679TIP3    H213960   2.526   4.714   2.469
 4680TIP3   OH213961   1.125   4.351   2.832
 4680TIP3    H113962   1.033   4.317   2.834
 4680TIP3    H213963   1.175   4.267   2.828
 4681TIP3   OH213964   0.905   4.221   2.476
 4681TIP3    H113965   0.943   4.277   2.406
 4681TIP3    H213966   0.884   4.286   2.546
 4682TIP3   OH213967   1.569   4.386   2.712
 4682TIP3    H113968   1.626   4.425   2.642
 4682TIP3    H213969   1.609   4.426   2.790
 4683TIP3   OH213970   2.125   4.528   2.692
 4683TIP3    H113971   2.103   4.495   2.604
 4683TIP3    H213972   2.102   4.450   2.748
 4684TIP3   OH213973   2.138   4.449   2.258
 4684TIP3    H113974   2.041   4.456   2.250
 4684TIP3    H213975   2.141   4.362   2.303
 4685TIP3   OH213976   0.626   5.790   2.260
 4685TIP3    H113977   0.541   5.757   2.226
 4685TIP3    H213978   0.616   5.884   2.239
 4686TIP3   OH213979   1.030   4.381   2.241
 4686TIP3    H113980   1.078   4.318   2.185
 4686TIP3    H213981   1.104   4.435   2.277
 4687TIP3   OH213982   1.542   4.546   2.341
 4687TIP3    H113983   1.613   4.481   2.358
 4687TIP3    H213984   1.579   4.627   2.381
 4688TIP3   OH213985   1.400   5.982   1.840
 4688TIP3    H113986   1.490   6.002   1.806
 4688TIP3    H213987   1.379   5.906   1.781
 4689TIP3   OH213988   2.115   6.097   1.933
 4689TIP3    H113989   2.108   5.999   1.921
 4689TIP3    H213990   2.073   6.128   1.851
 4690TIP3   OH213991   1.333   4.632   3.722
 4690TIP3    H113992   1.299   4.561   3.778
 4690TIP3    H213993   1.427   4.632   3.749
 4691TIP3   OH213994   1.582   4.629   3.841
 4691TIP3    H113995   1.668   4.604   3.802
 4691TIP3    H213996   1.571   4.559   3.909
 4692TIP3   OH213997   0.703   5.811   1.897
 4692TIP3    H113998   0.708   5.844   1.988
 4692TIP3    H213999   0.792   5.771   1.885
 4693TIP3   OH214000   2.407   4.690   3.629
 4693TIP3    H114001   2.426   4.658   3.720
 4693TIP3    H214002   2.496   4.685   3.588
 4694TIP3   OH214003   2.349   6.248   3.112
 4694TIP3    H114004   2.266   6.213   3.073
 4694TIP3    H214005   2.324   6.341   3.126
 4695TIP3   OH214006   3.614   5.616   1.885
 4695TIP3    H114007   3.585   5.708   1.867
 4695TIP3    H214008   3.534   5.567   1.857
 4696TIP3   OH214009   3.617   5.612   2.265
 4696TIP3    H114010   3.643   5.586   2.355
 4696TIP3    H214011   3.568   5.534   2.235
 4697TIP3   OH214012   2.910   5.508   2.630
 4697TIP3    H114013   2.940   5.442   2.695
 4697TIP3    H214014   2.986   5.569   2.630
 4698TIP3   OH214015   3.858   5.917   1.948
 4698TIP3    H114016   3.838   5.850   2.015
 4698TIP3    H214017   3.882   5.994   2.003
 4699TIP3   OH214018   2.879   5.920   2.364
 4699TIP3    H114019   2.873   5.822   2.363
 4699TIP3    H214020   2.975   5.930   2.352
 4700TIP3   OH214021   2.591   5.123   2.142
 4700TIP3    H114022   2.543   5.206   2.159
 4700TIP3    H214023   2.518   5.068   2.106
 4701TIP3   OH214024   2.647   5.411   2.315
 4701TIP3    H114025   2.697   5.334   2.350
 4701TIP3    H214026   2.708   5.446   2.248
 4702TIP3   OH214027   3.505   6.381   1.967
 4702TIP3    H114028   3.552   6.310   1.918
 4702TIP3    H214029   3.496   6.341   2.054
 4703TIP3   OH214030   3.409   5.842   2.317
 4703TIP3    H114031   3.444   5.767   2.266
 4703TIP3    H214032   3.494   5.884   2.341
 4704TIP3   OH214033   4.426   5.162   2.315
 4704TIP3    H114034   4.453   5.245   2.358
 4704TIP3    H214035   4.438   5.184   2.221
 4705TIP3   OH214036   3.826   5.343   2.349
 4705TIP3    H114037   3.865   5.256   2.369
 4705TIP3    H214038   3.792   5.328   2.259
 4706TIP3   OH214039   3.162   5.001   2.313
 4706TIP3    H114040   3.139   5.074   2.252
 4706TIP3    H214041   3.112   4.928   2.271
 4707TIP3   OH214042   3.855   5.092   1.937
 4707TIP3    H114043   3.926   5.075   2.002
 4707TIP3    H214044   3.907   5.128   1.863
 4708TIP3   OH214045   2.794   5.205   2.420
 4708TIP3    H114046   2.876   5.185   2.469
 4708TIP3    H214047   2.808   5.147   2.341
 4709TIP3   OH214048   3.237   5.400   2.212
 4709TIP3    H114049   3.330   5.373   2.227
 4709TIP3    H214050   3.197   5.316   2.181
 4710TIP3   OH214051   4.498   5.372   2.482
 4710TIP3    H114052   4.414   5.417   2.461
 4710TIP3    H214053   4.503   5.389   2.577
 4711TIP3   OH214054   3.157   4.985   2.748
 4711TIP3    H114055   3.097   5.022   2.682
 4711TIP3    H214056   3.106   5.001   2.830
 4712TIP3   OH214057   3.512   5.842   1.751
 4712TIP3    H114058   3.456   5.811   1.679
 4712TIP3    H214059   3.464   5.923   1.778
 4713TIP3   OH214060   3.265   5.760   2.545
 4713TIP3    H114061   3.201   5.825   2.584
 4713TIP3    H214062   3.303   5.812   2.471
 4714TIP3   OH214063   4.067   5.093   2.107
 4714TIP3    H114064   4.048   5.048   2.190
 4714TIP3    H214065   4.116   5.172   2.138
 4715TIP3   OH214066   3.028   5.100   2.533
 4715TIP3    H114067   3.090   5.172   2.557
 4715TIP3    H214068   3.077   5.060   2.458
 4716TIP3   OH214069   3.091   5.952   2.644
 4716TIP3    H114070   3.063   6.036   2.603
 4716TIP3    H214071   3.013   5.935   2.700
 4717TIP3   OH214072   2.462   5.654   1.891
 4717TIP3    H114073   2.460   5.665   1.794
 4717TIP3    H214074   2.551   5.686   1.912
 4718TIP3   OH214075   3.915   6.153   2.103
 4718TIP3    H114076   3.828   6.146   2.149
 4718TIP3    H214077   3.909   6.243   2.067
 4719TIP3   OH214078   4.216   5.064   2.481
 4719TIP3    H114079   4.127   5.089   2.451
 4719TIP3    H214080   4.273   5.094   2.408
 4720TIP3   OH214081   3.514   4.704   2.463
 4720TIP3    H114082   3.499   4.609   2.480
 4720TIP3    H214083   3.436   4.743   2.509
 4721TIP3   OH214084   3.632   6.208   1.795
 4721TIP3    H114085   3.679   6.124   1.775
 4721TIP3    H214086   3.692   6.272   1.750
 4722TIP3   OH214087   3.773   5.991   1.697
 4722TIP3    H114088   3.715   5.918   1.670
 4722TIP3    H214089   3.810   5.956   1.781
 4723TIP3   OH214090   4.151   6.072   2.466
 4723TIP3    H114091   4.142   5.998   2.404
 4723TIP3    H214092   4.139   6.149   2.407
 4724TIP3   OH214093   3.444   5.463   1.719
 4724TIP3    H114094   3.362   5.514   1.706
 4724TIP3    H214095   3.484   5.466   1.631
 4725TIP3   OH214096   3.401   5.252   1.432
 4725TIP3    H114097   3.466   5.302   1.484
 4725TIP3    H214098   3.460   5.189   1.386
 4726TIP3   OH214099   4.349   5.710   2.305
 4726TIP3    H114100   4.264   5.760   2.313
 4726TIP3    H214101   4.376   5.738   2.215
 4727TIP3   OH214102   3.792   5.549   1.689
 4727TIP3    H114103   3.734   5.574   1.766
 4727TIP3    H214104   3.874   5.525   1.736
 4728TIP3   OH214105   4.026   5.589   2.600
 4728TIP3    H114106   4.022   5.673   2.649
 4728TIP3    H214107   3.938   5.592   2.556
 4729TIP3   OH214108   3.022   5.546   2.111
 4729TIP3    H114109   2.986   5.494   2.036
 4729TIP3    H214110   3.101   5.493   2.136
 4730TIP3   OH214111   3.148   5.961   2.256
 4730TIP3    H114112   3.122   5.926   2.169
 4730TIP3    H214113   3.236   5.921   2.269
 4731TIP3   OH214114   3.164   5.516   2.461
 4731TIP3    H114115   3.192   5.498   2.369
 4731TIP3    H214116   3.203   5.604   2.480
 4732TIP3   OH214117   3.683   6.155   2.239
 4732TIP3    H114118   3.672   6.235   2.294
 4732TIP3    H214119   3.668   6.082   2.302
 4733TIP3   OH214120   3.297   6.077   2.784
 4733TIP3    H114121   3.236   6.137   2.832
 4733TIP3    H214122   3.232   6.021   2.736
 4734TIP3   OH214123   3.635   5.404   1.515
 4734TIP3    H114124   3.690   5.467   1.567
 4734TIP3    H214125   3.661   5.429   1.423
 4735TIP3   OH214126   3.051   5.631   2.883
 4735TIP3    H114127   3.056   5.717   2.929
 4735TIP3    H214128   2.957   5.608   2.900
 4736TIP3   OH214129   3.377   6.083   1.791
 4736TIP3    H114130   3.450   6.144   1.811
 4736TIP3    H214131   3.310   6.140   1.751
 4737TIP3   OH214132   3.090   6.245   2.873
 4737TIP3    H114133   3.054   6.240   2.782
 4737TIP3    H214134   3.011   6.222   2.928
 4738TIP3   OH214135   4.146   4.648   1.564
 4738TIP3    H114136   4.065   4.666   1.615
 4738TIP3    H214137   4.159   4.732   1.516
 4739TIP3   OH214138   2.899   5.403   1.898
 4739TIP3    H114139   2.858   5.489   1.873
 4739TIP3    H214140   2.823   5.346   1.913
 4740TIP3   OH214141   3.944   6.015   1.111
 4740TIP3    H114142   3.952   6.112   1.098
 4740TIP3    H214143   4.037   5.986   1.100
 4741TIP3   OH214144   2.673   5.771   2.820
 4741TIP3    H114145   2.607   5.745   2.753
 4741TIP3    H214146   2.710   5.685   2.849
 4742TIP3   OH214147   2.528   5.967   2.455
 4742TIP3    H114148   2.620   5.945   2.432
 4742TIP3    H214149   2.539   6.036   2.521
 4743TIP3   OH214150   3.493   6.204   2.641
 4743TIP3    H114151   3.492   6.296   2.675
 4743TIP3    H214152   3.422   6.164   2.695
 4744TIP3   OH214153   3.258   6.337   1.591
 4744TIP3    H114154   3.206   6.312   1.512
 4744TIP3    H214155   3.221   6.424   1.615
 4745TIP3   OH214156   2.698   6.190   1.978
 4745TIP3    H114157   2.744   6.173   2.063
 4745TIP3    H214158   2.644   6.107   1.973
 4746TIP3   OH214159   3.456   6.236   1.234
 4746TIP3    H114160   3.515   6.165   1.198
 4746TIP3    H214161   3.489   6.243   1.326
 4747TIP3   OH214162   3.508   6.281   1.504
 4747TIP3    H114163   3.418   6.292   1.543
 4747TIP3    H214164   3.553   6.235   1.577
 4748TIP3   OH214165   4.282   5.550   2.781
 4748TIP3    H114166   4.198   5.566   2.734
 4748TIP3    H214167   4.293   5.453   2.769
 4749TIP3   OH214168   2.873   5.959   2.809
 4749TIP3    H114169   2.924   5.940   2.890
 4749TIP3    H214170   2.799   5.895   2.817
 4750TIP3   OH214171   3.275   4.781   2.589
 4750TIP3    H114172   3.186   4.750   2.563
 4750TIP3    H214173   3.249   4.862   2.637
 4751TIP3   OH214174   3.807   4.896   2.786
 4751TIP3    H114175   3.875   4.867   2.850
 4751TIP3    H214176   3.723   4.876   2.831
 4752TIP3   OH214177   4.052   5.328   2.708
 4752TIP3    H114178   3.998   5.322   2.790
 4752TIP3    H214179   4.023   5.413   2.670
 4753TIP3   OH214180   3.708   5.452   1.259
 4753TIP3    H114181   3.674   5.427   1.170
 4753TIP3    H214182   3.785   5.506   1.235
 4754TIP3   OH214183   3.421   4.828   1.563
 4754TIP3    H114184   3.387   4.826   1.654
 4754TIP3    H214185   3.381   4.746   1.528
 4755TIP3   OH214186   3.208   5.295   2.611
 4755TIP3    H114187   3.155   5.316   2.691
 4755TIP3    H214188   3.192   5.375   2.557
 4756TIP3   OH214189   3.091   5.180   2.123
 4756TIP3    H114190   2.997   5.158   2.141
 4756TIP3    H214191   3.102   5.141   2.034
 4757TIP3   OH214192   3.582   5.267   1.852
 4757TIP3    H114193   3.528   5.339   1.811
 4757TIP3    H214194   3.634   5.236   1.776
 4758TIP3   OH214195   3.755   5.546   2.937
 4758TIP3    H114196   3.732   5.474   3.000
 4758TIP3    H214197   3.848   5.560   2.960
 4759TIP3   OH214198   3.739   5.296   2.091
 4759TIP3    H114199   3.677   5.327   2.021
 4759TIP3    H214200   3.770   5.214   2.047
 4760TIP3   OH214201   3.027   5.324   2.818
 4760TIP3    H114202   3.043   5.390   2.887
 4760TIP3    H214203   3.014   5.242   2.871
 4761TIP3   OH214204   3.074   4.801   1.528
 4761TIP3    H114205   3.067   4.799   1.625
 4761TIP3    H214206   2.997   4.856   1.505
 4762TIP3   OH214207   2.618   4.846   2.398
 4762TIP3    H114208   2.693   4.878   2.452
 4762TIP3    H214209   2.660   4.814   2.317
 4763TIP3   OH214210   2.592   4.827   1.918
 4763TIP3    H114211   2.639   4.865   1.840
 4763TIP3    H214212   2.531   4.901   1.938
 4764TIP3   OH214213   3.751   5.542   2.514
 4764TIP3    H114214   3.783   5.470   2.455
 4764TIP3    H214215   3.719   5.490   2.590
 4765TIP3   OH214216   3.418   5.003   2.185
 4765TIP3    H114217   3.333   5.002   2.234
 4765TIP3    H214218   3.482   5.004   2.257
 4766TIP3   OH214219   2.852   5.059   2.195
 4766TIP3    H114220   2.758   5.068   2.166
 4766TIP3    H214221   2.874   4.968   2.170
 4767TIP3   OH214222   3.122   5.053   1.881
 4767TIP3    H114223   3.214   5.073   1.857
 4767TIP3    H214224   3.071   5.078   1.800
 4768TIP3   OH214225   3.909   5.078   2.384
 4768TIP3    H114226   3.878   5.091   2.476
 4768TIP3    H214227   3.841   5.017   2.351
 4769TIP3   OH214228   2.963   5.083   1.660
 4769TIP3    H114229   2.888   5.044   1.612
 4769TIP3    H214230   3.014   5.121   1.586
 4770TIP3   OH214231   4.076   6.778   2.604
 4770TIP3    H114232   4.080   6.800   2.509
 4770TIP3    H214233   4.159   6.817   2.638
 4771TIP3   OH214234   3.040   5.880   3.023
 4771TIP3    H114235   3.116   5.909   3.077
 4771TIP3    H214236   2.971   5.872   3.092
 4772TIP3   OH214237   3.501   5.331   2.284
 4772TIP3    H114238   3.573   5.289   2.236
 4772TIP3    H214239   3.507   5.289   2.372
 4773TIP3   OH214240   3.024   4.819   2.161
 4773TIP3    H114241   2.988   4.741   2.208
 4773TIP3    H214242   3.073   4.779   2.089
 4774TIP3   OH214243   3.478   5.230   2.570
 4774TIP3    H114244   3.387   5.264   2.585
 4774TIP3    H214245   3.533   5.291   2.622
 4775TIP3   OH214246   3.221   5.614   1.677
 4775TIP3    H114247   3.140   5.564   1.655
 4775TIP3    H214248   3.195   5.656   1.762
 4776TIP3   OH214249   4.116   5.852   2.298
 4776TIP3    H114250   4.137   5.905   2.219
 4776TIP3    H214251   4.029   5.813   2.275
 4777TIP3   OH214252   3.671   4.933   1.524
 4777TIP3    H114253   3.575   4.914   1.536
 4777TIP3    H214254   3.679   5.026   1.554
 4778TIP3   OH214255   3.616   5.940   2.663
 4778TIP3    H114256   3.634   5.914   2.754
 4778TIP3    H214257   3.573   6.026   2.673
 4779TIP3   OH214258   3.742   5.177   1.632
 4779TIP3    H114259   3.837   5.186   1.650
 4779TIP3    H214260   3.721   5.259   1.583
 4780TIP3   OH214261   2.905   5.643   2.345
 4780TIP3    H114262   2.941   5.615   2.258
 4780TIP3    H214263   2.944   5.578   2.405
 4781TIP3   OH214264   3.353   5.767   1.488
 4781TIP3    H114265   3.309   5.855   1.495
 4781TIP3    H214266   3.298   5.714   1.550
 4782TIP3   OH214267   2.789   5.558   2.954
 4782TIP3    H114268   2.804   5.554   3.051
 4782TIP3    H214269   2.712   5.499   2.945
 4783TIP3   OH214270   3.512   5.676   2.975
 4783TIP3    H114271   3.450   5.616   2.930
 4783TIP3    H214272   3.598   5.640   2.946
 4784TIP3   OH214273   3.772   6.202   2.558
 4784TIP3    H114274   3.676   6.196   2.574
 4784TIP3    H214275   3.801   6.251   2.637
 4785TIP3   OH214276   4.186   5.268   1.467
 4785TIP3    H114277   4.123   5.224   1.406
 4785TIP3    H214278   4.181   5.358   1.429
 4786TIP3   OH214279   4.409   6.106   2.559
 4786TIP3    H114280   4.314   6.131   2.559
 4786TIP3    H214281   4.430   6.123   2.465
 4787TIP3   OH214282   3.891   6.087   1.380
 4787TIP3    H114283   3.854   6.022   1.441
 4787TIP3    H214284   3.895   6.039   1.295
 4788TIP3   OH214285   3.879   5.717   2.215
 4788TIP3    H114286   3.786   5.693   2.229
 4788TIP3    H214287   3.912   5.638   2.170
 4789TIP3   OH214288   3.002   5.941   1.977
 4789TIP3    H114289   2.986   6.017   1.919
 4789TIP3    H214290   2.934   5.878   1.945
 4790TIP3   OH214291   2.566   5.245   1.670
 4790TIP3    H114292   2.606   5.332   1.680
 4790TIP3    H214293   2.490   5.250   1.732
 4791TIP3   OH214294   3.158   5.716   1.923
 4791TIP3    H114295   3.116   5.803   1.932
 4791TIP3    H214296   3.104   5.664   1.986
 4792TIP3   OH214297   3.276   6.289   2.438
 4792TIP3    H114298   3.319   6.360   2.387
 4792TIP3    H214299   3.351   6.252   2.487
 4793TIP3   OH214300   2.924   6.186   1.815
 4793TIP3    H114301   2.840   6.187   1.865
 4793TIP3    H214302   2.950   6.280   1.820
 4794TIP3   OH214303   3.665   5.921   2.395
 4794TIP3    H114304   3.655   5.922   2.493
 4794TIP3    H214305   3.746   5.869   2.385
 4795TIP3   OH214306   3.638   5.815   1.277
 4795TIP3    H114307   3.689   5.789   1.356
 4795TIP3    H214308   3.548   5.791   1.305
 4796TIP3   OH214309   3.915   6.459   2.446
 4796TIP3    H114310   3.841   6.396   2.443
 4796TIP3    H214311   3.893   6.520   2.372
 4797TIP3   OH214312   3.979   6.290   1.099
 4797TIP3    H114313   4.006   6.356   1.034
 4797TIP3    H214314   3.900   6.335   1.135
 4798TIP3   OH214315   2.998   5.066   2.964
 4798TIP3    H114316   2.902   5.072   2.979
 4798TIP3    H214317   3.026   5.007   3.037
 4799TIP3   OH214318   3.799   5.745   1.489
 4799TIP3    H114319   3.786   5.685   1.565
 4799TIP3    H214320   3.896   5.745   1.482
 4800TIP3   OH214321   2.712   6.153   2.601
 4800TIP3    H114322   2.764   6.073   2.617
 4800TIP3    H214323   2.744   6.209   2.672
 4801TIP3   OH214324   3.007   5.795   1.274
 4801TIP3    H114325   3.018   5.701   1.251
 4801TIP3    H214326   2.998   5.789   1.372
 4802TIP3   OH214327   2.972   5.795   1.545
 4802TIP3    H114328   2.941   5.760   1.631
 4802TIP3    H214329   2.962   5.891   1.560
 4803TIP3   OH214330   3.839   5.129   2.643
 4803TIP3    H114331   3.914   5.168   2.690
 4803TIP3    H214332   3.819   5.049   2.698
 4804TIP3   OH214333   3.718   4.881   1.809
 4804TIP3    H114334   3.701   4.907   1.717
 4804TIP3    H214335   3.754   4.965   1.847
 4805TIP3   OH214336   3.224   6.005   1.498
 4805TIP3    H114337   3.135   6.014   1.536
 4805TIP3    H214338   3.224   6.078   1.434
 4806TIP3   OH214339   3.408   5.061   1.913
 4806TIP3    H114340   3.470   5.135   1.897
 4806TIP3    H214341   3.409   5.055   2.011
 4807TIP3   OH214342   3.675   5.382   2.720
 4807TIP3    H114343   3.691   5.437   2.799
 4807TIP3    H214344   3.727   5.303   2.739
 4808TIP3   OH214345   3.549   4.791   2.017
 4808TIP3    H114346   3.538   4.869   2.074
 4808TIP3    H214347   3.609   4.826   1.948
 4809TIP3   OH214348   2.963   6.073   1.563
 4809TIP3    H114349   2.929   6.145   1.505
 4809TIP3    H214350   2.944   6.110   1.652
 4810TIP3   OH214351   3.061   4.788   1.804
 4810TIP3    H114352   3.058   4.879   1.840
 4810TIP3    H214353   3.156   4.770   1.813
 4811TIP3   OH214354   4.317   5.280   2.697
 4811TIP3    H114355   4.220   5.281   2.712
 4811TIP3    H214356   4.319   5.234   2.612
 4812TIP3   OH214357   3.966   5.474   2.087
 4812TIP3    H114358   3.888   5.418   2.102
 4812TIP3    H214359   4.036   5.427   2.137
 4813TIP3   OH214360   2.659   5.728   1.532
 4813TIP3    H114361   2.708   5.747   1.614
 4813TIP3    H214362   2.724   5.672   1.486
 4814TIP3   OH214363   2.622   4.978   1.690
 4814TIP3    H114364   2.622   5.075   1.688
 4814TIP3    H214365   2.535   4.957   1.655
 4815TIP3   OH214366   3.931   6.430   2.039
 4815TIP3    H114367   3.890   6.479   1.964
 4815TIP3    H214368   4.026   6.446   2.019
 4816TIP3   OH214369   3.011   4.700   2.566
 4816TIP3    H114370   2.978   4.666   2.480
 4816TIP3    H214371   3.000   4.622   2.624
 4817TIP3   OH214372   2.556   5.957   1.976
 4817TIP3    H114373   2.461   5.954   1.964
 4817TIP3    H214374   2.586   5.926   1.890
 4818TIP3   OH214375   2.704   6.459   3.016
 4818TIP3    H114376   2.790   6.456   3.063
 4818TIP3    H214377   2.680   6.364   3.016
 4819TIP3   OH214378   3.189   6.428   3.059
 4819TIP3    H114379   3.282   6.402   3.068
 4819TIP3    H214380   3.160   6.367   2.988
 4820TIP3   OH214381   3.167   6.000   1.190
 4820TIP3    H114382   3.108   5.931   1.228
 4820TIP3    H214383   3.243   5.945   1.165
 4821TIP3   OH214384   3.824   6.332   2.797
 4821TIP3    H114385   3.816   6.262   2.865
 4821TIP3    H214386   3.903   6.381   2.827
 4822TIP3   OH214387   3.604   6.042   1.103
 4822TIP3    H114388   3.647   5.976   1.160
 4822TIP3    H214389   3.659   6.040   1.022
 4823TIP3   OH214390   2.842   5.869   3.212
 4823TIP3    H114391   2.849   5.774   3.233
 4823TIP3    H214392   2.744   5.875   3.210
 4824TIP3   OH214393   2.814   5.514   1.413
 4824TIP3    H114394   2.870   5.495   1.491
 4824TIP3    H214395   2.884   5.520   1.344
 4825TIP3   OH214396   3.445   5.951   2.991
 4825TIP3    H114397   3.400   5.966   2.905
 4825TIP3    H214398   3.473   5.858   2.984
 4826TIP3   OH214399   3.326   5.717   1.218
 4826TIP3    H114400   3.323   5.729   1.315
 4826TIP3    H214401   3.320   5.619   1.213
 4827TIP3   OH214402   3.936   5.958   2.598
 4827TIP3    H114403   4.011   6.003   2.555
 4827TIP3    H214404   3.865   6.023   2.584
 4828TIP3   OH214405   2.961   5.599   3.198
 4828TIP3    H114406   3.033   5.536   3.190
 4828TIP3    H214407   2.970   5.628   3.291
 4829TIP3   OH214408   3.018   5.421   1.629
 4829TIP3    H114409   2.989   5.393   1.718
 4829TIP3    H214410   3.054   5.339   1.590
 4830TIP3   OH214411   3.292   5.488   2.865
 4830TIP3    H114412   3.211   5.543   2.865
 4830TIP3    H214413   3.339   5.521   2.785
 4831TIP3   OH214414   3.121   5.206   1.474
 4831TIP3    H114415   3.094   5.218   1.381
 4831TIP3    H214416   3.218   5.217   1.467
 4832TIP3   OH214417   3.808   5.888   2.998
 4832TIP3    H114418   3.885   5.861   2.947
 4832TIP3    H214419   3.803   5.820   3.067
 4833TIP3   OH214420   3.947   5.546   1.135
 4833TIP3    H114421   3.922   5.500   1.052
 4833TIP3    H214422   3.912   5.635   1.114
 4834TIP3   OH214423   3.416   5.274   2.986
 4834TIP3    H114424   3.412   5.194   2.931
 4834TIP3    H214425   3.369   5.340   2.930
 4835TIP3   OH214426   3.416   5.059   2.795
 4835TIP3    H114427   3.442   5.101   2.710
 4835TIP3    H214428   3.321   5.037   2.778
 4836TIP3   OH214429   3.445   5.596   2.668
 4836TIP3    H114430   3.526   5.607   2.618
 4836TIP3    H214431   3.385   5.661   2.625
 4837TIP3   OH214432   4.024   5.562   3.049
 4837TIP3    H114433   4.074   5.480   3.062
 4837TIP3    H214434   4.091   5.622   3.015
 4838TIP3   OH214435   4.063   5.814   2.788
 4838TIP3    H114436   4.005   5.867   2.728
 4838TIP3    H214437   4.150   5.834   2.747
 4839TIP3   OH214438   3.293   5.384   3.220
 4839TIP3    H114439   3.223   5.318   3.234
 4839TIP3    H214440   3.325   5.360   3.131
 4840TIP3   OH214441   3.548   4.822   2.861
 4840TIP3    H114442   3.497   4.904   2.840
 4840TIP3    H214443   3.479   4.754   2.851
 4841TIP3   OH214444   3.675   5.327   3.079
 4841TIP3    H114445   3.660   5.314   3.174
 4841TIP3    H214446   3.585   5.304   3.046
 4842TIP3   OH214447   3.912   5.274   2.933
 4842TIP3    H114448   3.837   5.279   2.995
 4842TIP3    H214449   3.985   5.244   2.991
 4843TIP3   OH214450   4.149   5.218   3.083
 4843TIP3    H114451   4.156   5.122   3.102
 4843TIP3    H214452   4.140   5.257   3.173
 4844TIP3   OH214453   3.131   5.166   3.271
 4844TIP3    H114454   3.135   5.074   3.237
 4844TIP3    H214455   3.167   5.153   3.361
 4845TIP3   OH214456   3.644   4.834   3.118
 4845TIP3    H114457   3.709   4.762   3.113
 4845TIP3    H214458   3.602   4.827   3.030
 4846TIP3   OH214459   3.710   5.049   3.278
 4846TIP3    H114460   3.687   4.978   3.214
 4846TIP3    H214461   3.631   5.107   3.273
 4847TIP3   OH214462   2.929   6.286   1.382
 4847TIP3    H114463   3.024   6.274   1.361
 4847TIP3    H214464   2.899   6.328   1.299
 4848TIP3   OH214465   2.406   5.657   1.594
 4848TIP3    H114466   2.497   5.689   1.573
 4848TIP3    H214467   2.407   5.569   1.551
 4849TIP3   OH214468   2.320   6.273   2.005
 4849TIP3    H114469   2.257   6.206   1.971
 4849TIP3    H214470   2.364   6.220   2.076
 4850TIP3   OH214471   2.443   6.142   2.208
 4850TIP3    H114472   2.453   6.049   2.232
 4850TIP3    H214473   2.511   6.183   2.263
 4851TIP3   OH214474   4.186   6.524   1.993
 4851TIP3    H114475   4.221   6.544   2.080
 4851TIP3    H214476   4.237   6.582   1.936
 4852TIP3   OH214477   4.264   6.214   2.857
 4852TIP3    H114478   4.189   6.227   2.917
 4852TIP3    H214479   4.300   6.305   2.849
 4853TIP3   OH214480   4.080   5.730   1.471
 4853TIP3    H114481   4.147   5.795   1.444
 4853TIP3    H214482   4.121   5.692   1.552
 4854TIP3   OH214483   4.208   5.599   1.676
 4854TIP3    H114484   4.138   5.556   1.731
 4854TIP3    H214485   4.265   5.641   1.743
 4855TIP3   OH214486   4.258   5.990   2.108
 4855TIP3    H114487   4.311   5.929   2.054
 4855TIP3    H214488   4.234   6.061   2.046
 4856TIP3   OH214489   4.085   6.270   2.295
 4856TIP3    H114490   4.032   6.335   2.344
 4856TIP3    H214491   4.022   6.232   2.231
 4857TIP3   OH214492   4.145   5.508   1.320
 4857TIP3    H114493   4.074   5.510   1.252
 4857TIP3    H214494   4.115   5.582   1.376
 4858TIP3   OH214495   4.020   5.179   1.272
 4858TIP3    H114496   3.968   5.219   1.201
 4858TIP3    H214497   3.993   5.085   1.264
 4859TIP3   OH214498   4.023   5.456   1.821
 4859TIP3    H114499   4.026   5.359   1.815
 4859TIP3    H214500   4.007   5.470   1.917
 4860TIP3   OH214501   2.645   5.534   2.566
 4860TIP3    H114502   2.644   5.501   2.474
 4860TIP3    H214503   2.742   5.533   2.584
 4861TIP3   OH214504   4.305   5.875   2.678
 4861TIP3    H114505   4.382   5.814   2.668
 4861TIP3    H214506   4.329   5.949   2.618
 4862TIP3   OH214507   4.498   5.686   2.692
 4862TIP3    H114508   4.422   5.639   2.733
 4862TIP3    H214509   4.569   5.619   2.708
 4863TIP3   OH214510   3.959   4.913   1.259
 4863TIP3    H114511   4.031   4.883   1.318
 4863TIP3    H214512   3.883   4.857   1.284
 4864TIP3   OH214513   4.017   5.172   1.717
 4864TIP3    H114514   4.056   5.083   1.732
 4864TIP3    H214515   4.075   5.204   1.646
 4865TIP3   OH214516   4.179   5.344   2.212
 4865TIP3    H114517   4.265   5.371   2.172
 4865TIP3    H214518   4.189   5.383   2.301
 4866TIP3   OH214519   4.246   5.490   2.442
 4866TIP3    H114520   4.169   5.522   2.491
 4866TIP3    H214521   4.278   5.572   2.399
 4867TIP3   OH214522   2.864   5.213   3.239
 4867TIP3    H114523   2.962   5.208   3.243
 4867TIP3    H214524   2.839   5.129   3.282
 4868TIP3   OH214525   4.707   5.087   2.999
 4868TIP3    H114526   4.759   5.017   2.954
 4868TIP3    H214527   4.670   5.136   2.922
 4869TIP3   OH214528   4.126   4.921   1.752
 4869TIP3    H114529   4.172   4.906   1.837
 4869TIP3    H214530   4.064   4.846   1.751
 4870TIP3   OH214531   2.825   4.908   2.571
 4870TIP3    H114532   2.887   4.833   2.582
 4870TIP3    H214533   2.887   4.983   2.566
 4871TIP3   OH214534   2.628   5.181   2.645
 4871TIP3    H114535   2.678   5.179   2.561
 4871TIP3    H214536   2.654   5.266   2.682
 4872TIP3   OH214537   4.570   5.220   2.805
 4872TIP3    H114538   4.485   5.263   2.830
 4872TIP3    H214539   4.535   5.150   2.746
 4873TIP3   OH214540   4.207   4.857   1.386
 4873TIP3    H114541   4.245   4.785   1.333
 4873TIP3    H214542   4.275   4.927   1.379
 4874TIP3   OH214543   2.611   4.685   2.146
 4874TIP3    H114544   2.518   4.681   2.174
 4874TIP3    H214545   2.607   4.744   2.069
 4875TIP3   OH214546   3.772   6.390   1.652
 4875TIP3    H114547   3.821   6.377   1.569
 4875TIP3    H214548   3.826   6.457   1.697
 4876TIP3   OH214549   2.832   4.765   2.961
 4876TIP3    H114550   2.781   4.760   3.044
 4876TIP3    H214551   2.765   4.804   2.901
 4877TIP3   OH214552   2.871   6.198   3.043
 4877TIP3    H114553   2.782   6.163   3.021
 4877TIP3    H214554   2.880   6.167   3.134
 4878TIP3   OH214555   3.048   6.225   2.586
 4878TIP3    H114556   3.003   6.302   2.545
 4878TIP3    H214557   3.135   6.236   2.544
 4879TIP3   OH214558   3.495   6.472   2.724
 4879TIP3    H114559   3.537   6.471   2.813
 4879TIP3    H214560   3.562   6.521   2.672
 4880TIP3   OH214561   3.676   6.622   2.580
 4880TIP3    H114562   3.747   6.568   2.543
 4880TIP3    H214563   3.726   6.678   2.642
 4881TIP3   OH214564   4.469   4.984   2.681
 4881TIP3    H114565   4.377   4.979   2.649
 4881TIP3    H214566   4.497   4.890   2.671
 4882TIP3   OH214567   2.738   6.486   2.609
 4882TIP3    H114568   2.646   6.501   2.587
 4882TIP3    H214569   2.741   6.507   2.704
 4883TIP3   OH214570   2.970   6.464   2.465
 4883TIP3    H114571   2.884   6.476   2.512
 4883TIP3    H214572   2.946   6.491   2.374
 4884TIP3   OH214573   3.388   6.491   2.264
 4884TIP3    H114574   3.317   6.510   2.200
 4884TIP3    H214575   3.399   6.578   2.308
 4885TIP3   OH214576   3.656   6.430   2.314
 4885TIP3    H114577   3.561   6.445   2.295
 4885TIP3    H214578   3.696   6.509   2.276
 4886TIP3   OH214579   3.872   6.624   2.230
 4886TIP3    H114580   3.855   6.705   2.179
 4886TIP3    H214581   3.891   6.558   2.159
 4887TIP3   OH214582   2.637   6.275   2.365
 4887TIP3    H114583   2.670   6.245   2.452
 4887TIP3    H214584   2.706   6.233   2.308
 4888TIP3   OH214585   2.828   6.153   2.216
 4888TIP3    H114586   2.843   6.063   2.254
 4888TIP3    H214587   2.920   6.184   2.205
 4889TIP3   OH214588   3.100   6.246   2.211
 4889TIP3    H114589   3.125   6.154   2.194
 4889TIP3    H214590   3.143   6.259   2.297
 4890TIP3   OH214591   3.675   4.899   2.304
 4890TIP3    H114592   3.628   4.832   2.356
 4890TIP3    H214593   3.743   4.847   2.259
 4891TIP3   OH214594   4.198   4.778   2.205
 4891TIP3    H114595   4.232   4.832   2.131
 4891TIP3    H214596   4.102   4.794   2.201
 4892TIP3   OH214597   4.292   4.880   1.969
 4892TIP3    H114598   4.366   4.830   1.929
 4892TIP3    H214599   4.323   4.973   1.955
 4893TIP3   OH214600   2.922   4.607   2.317
 4893TIP3    H114601   2.829   4.575   2.320
 4893TIP3    H214602   2.970   4.522   2.314
 4894TIP3   OH214603   2.706   4.477   1.964
 4894TIP3    H114604   2.736   4.537   1.893
 4894TIP3    H214605   2.678   4.541   2.033
 4895TIP3   OH214606   3.366   4.638   2.198
 4895TIP3    H114607   3.424   4.691   2.141
 4895TIP3    H214608   3.382   4.678   2.284
 4896TIP3   OH214609   3.918   4.786   2.181
 4896TIP3    H114610   3.907   4.748   2.093
 4896TIP3    H214611   3.902   4.707   2.238
 4897TIP3   OH214612   3.942   4.709   1.744
 4897TIP3    H114613   3.855   4.752   1.757
 4897TIP3    H214614   3.927   4.624   1.791
 4898TIP3   OH214615   2.419   6.044   1.742
 4898TIP3    H114616   2.333   6.011   1.708
 4898TIP3    H214617   2.409   6.139   1.728
 4899TIP3   OH214618   2.824   4.638   1.727
 4899TIP3    H114619   2.874   4.575   1.672
 4899TIP3    H214620   2.897   4.692   1.765
 4900TIP3   OH214621   3.339   4.811   1.827
 4900TIP3    H114622   3.396   4.764   1.889
 4900TIP3    H214623   3.359   4.904   1.853
 4901TIP3   OH214624   3.195   6.238   1.324
 4901TIP3    H114625   3.284   6.259   1.290
 4901TIP3    H214626   3.173   6.163   1.265
 4902TIP3   OH214627   3.919   6.356   1.421
 4902TIP3    H114628   3.912   6.258   1.410
 4902TIP3    H214629   3.871   6.386   1.341
 4903TIP3   OH214630   3.130   4.890   3.209
 4903TIP3    H114631   3.093   4.819   3.265
 4903TIP3    H214632   3.224   4.889   3.238
 4904TIP3   OH214633   3.379   4.886   3.329
 4904TIP3    H114634   3.463   4.857   3.290
 4904TIP3    H214635   3.365   4.816   3.396
 4905TIP3   OH214636   2.503   6.077   1.387
 4905TIP3    H114637   2.501   6.089   1.483
 4905TIP3    H214638   2.589   6.031   1.374
 4906TIP3   OH214639   4.203   4.946   3.116
 4906TIP3    H114640   4.220   4.915   3.208
 4906TIP3    H214641   4.292   4.939   3.076
 4907TIP3   OH214642   4.124   6.505   2.637
 4907TIP3    H114643   4.073   6.463   2.566
 4907TIP3    H214644   4.114   6.599   2.616
 4908TIP3   OH214645   5.409   5.870   1.375
 4908TIP3    H114646   5.381   5.961   1.355
 4908TIP3    H214647   5.333   5.820   1.340
 4909TIP3   OH214648   5.412   5.869   1.751
 4909TIP3    H114649   5.438   5.846   1.841
 4909TIP3    H214650   5.366   5.788   1.722
 4910TIP3   OH214651   4.712   5.767   2.109
 4910TIP3    H114652   4.737   5.698   2.174
 4910TIP3    H214653   4.773   5.838   2.134
 4911TIP3   OH214654   5.651   6.174   1.437
 4911TIP3    H114655   5.634   6.107   1.504
 4911TIP3    H214656   5.681   6.249   1.490
 4912TIP3   OH214657   4.686   6.177   1.827
 4912TIP3    H114658   4.665   6.081   1.835
 4912TIP3    H214659   4.753   6.185   1.896
 4913TIP3   OH214660   4.388   5.384   1.630
 4913TIP3    H114661   4.335   5.464   1.646
 4913TIP3    H214662   4.319   5.324   1.596
 4914TIP3   OH214663   4.450   5.671   1.802
 4914TIP3    H114664   4.494   5.591   1.839
 4914TIP3    H214665   4.498   5.683   1.719
 4915TIP3   OH214666   5.298   6.636   1.453
 4915TIP3    H114667   5.339   6.562   1.403
 4915TIP3    H214668   5.301   6.603   1.544
 4916TIP3   OH214669   5.206   6.100   1.801
 4916TIP3    H114670   5.243   6.023   1.754
 4916TIP3    H214671   5.290   6.143   1.828
 4917TIP3   OH214672   6.207   5.422   1.788
 4917TIP3    H114673   6.243   5.496   1.842
 4917TIP3    H214674   6.262   5.432   1.708
 4918TIP3   OH214675   5.640   5.586   1.842
 4918TIP3    H114676   5.606   5.514   1.896
 4918TIP3    H214677   5.592   5.576   1.758
 4919TIP3   OH214678   4.959   5.259   1.800
 4919TIP3    H114679   4.934   5.330   1.738
 4919TIP3    H214680   4.911   5.183   1.758
 4920TIP3   OH214681   5.662   5.357   1.427
 4920TIP3    H114682   5.711   5.275   1.436
 4920TIP3    H214683   5.699   5.395   1.345
 4921TIP3   OH214684   4.590   5.461   1.906
 4921TIP3    H114685   4.671   5.440   1.956
 4921TIP3    H214686   4.601   5.402   1.829
 4922TIP3   OH214687   5.031   5.659   1.692
 4922TIP3    H114688   5.122   5.631   1.713
 4922TIP3    H214689   4.989   5.574   1.665
 4923TIP3   OH214690   6.278   5.615   1.982
 4923TIP3    H114691   6.209   5.679   1.955
 4923TIP3    H214692   6.320   5.661   2.057
 4924TIP3   OH214693   4.955   5.242   2.236
 4924TIP3    H114694   4.893   5.279   2.170
 4924TIP3    H214695   4.903   5.257   2.318
 4925TIP3   OH214696   5.298   6.089   1.243
 4925TIP3    H114697   5.259   6.072   1.156
 4925TIP3    H214698   5.255   6.172   1.268
 4926TIP3   OH214699   5.064   6.015   2.032
 4926TIP3    H114700   4.998   6.078   2.070
 4926TIP3    H214701   5.105   6.069   1.963
 4927TIP3   OH214702   4.824   5.357   2.020
 4927TIP3    H114703   4.887   5.428   2.044
 4927TIP3    H214704   4.873   5.316   1.945
 4928TIP3   OH214705   4.888   6.207   2.110
 4928TIP3    H114706   4.867   6.302   2.093
 4928TIP3    H214707   4.816   6.187   2.175
 4929TIP3   OH214708   4.284   5.899   1.363
 4929TIP3    H114709   4.238   5.923   1.280
 4929TIP3    H214710   4.311   5.985   1.398
 4930TIP3   OH214711   5.721   6.416   1.603
 4930TIP3    H114712   5.632   6.408   1.644
 4930TIP3    H214713   5.713   6.502   1.559
 4931TIP3   OH214714   5.976   5.343   1.910
 4931TIP3    H114715   5.948   5.381   1.995
 4931TIP3    H214716   6.072   5.347   1.914
 4932TIP3   OH214717   5.312   4.960   1.955
 4932TIP3    H114718   5.294   4.865   1.969
 4932TIP3    H214719   5.232   4.999   1.998
 4933TIP3   OH214720   5.415   6.459   1.272
 4933TIP3    H114721   5.468   6.378   1.254
 4933TIP3    H214722   5.479   6.526   1.237
 4934TIP3   OH214723   5.565   6.247   1.185
 4934TIP3    H114724   5.533   6.167   1.142
 4934TIP3    H214725   5.602   6.211   1.269
 4935TIP3   OH214726   5.948   6.329   1.948
 4935TIP3    H114727   5.936   6.252   1.888
 4935TIP3    H214728   5.929   6.405   1.888
 4936TIP3   OH214729   5.240   5.723   1.205
 4936TIP3    H114730   5.158   5.773   1.184
 4936TIP3    H214731   5.285   5.721   1.119
 4937TIP3   OH214732   5.202   5.504   0.916
 4937TIP3    H114733   5.263   5.559   0.968
 4937TIP3    H214734   5.265   5.443   0.873
 4938TIP3   OH214735   6.141   5.959   1.790
 4938TIP3    H114736   6.061   6.015   1.797
 4938TIP3    H214737   6.175   5.989   1.703
 4939TIP3   OH214738   5.586   5.806   1.175
 4939TIP3    H114739   5.531   5.829   1.254
 4939TIP3    H214740   5.671   5.783   1.219
 4940TIP3   OH214741   5.823   5.845   2.088
 4940TIP3    H114742   5.822   5.928   2.139
 4940TIP3    H214743   5.735   5.851   2.045
 4941TIP3   OH214744   4.822   5.807   1.588
 4941TIP3    H114745   4.775   5.748   1.524
 4941TIP3    H214746   4.895   5.749   1.618
 4942TIP3   OH214747   4.942   6.223   1.669
 4942TIP3    H114748   4.924   6.130   1.691
 4942TIP3    H214749   5.024   6.236   1.721
 4943TIP3   OH214750   4.974   5.767   1.948
 4943TIP3    H114751   4.993   5.756   1.853
 4943TIP3    H214752   5.003   5.858   1.967
 4944TIP3   OH214753   5.480   6.411   1.724
 4944TIP3    H114754   5.468   6.493   1.776
 4944TIP3    H214755   5.464   6.340   1.789
 4945TIP3   OH214756   5.091   6.329   2.273
 4945TIP3    H114757   5.032   6.393   2.318
 4945TIP3    H214758   5.026   6.278   2.221
 4946TIP3   OH214759   5.428   5.662   1.002
 4946TIP3    H114760   5.485   5.723   1.053
 4946TIP3    H214761   5.454   5.685   0.910
 4947TIP3   OH214762   4.845   5.888   2.366
 4947TIP3    H114763   4.851   5.974   2.413
 4947TIP3    H214764   4.751   5.867   2.385
 4948TIP3   OH214765   5.153   6.361   1.296
 4948TIP3    H114766   5.243   6.399   1.299
 4948TIP3    H214767   5.112   6.412   1.225
 4949TIP3   OH214768   4.891   6.499   2.359
 4949TIP3    H114769   4.845   6.497   2.274
 4949TIP3    H214770   4.819   6.475   2.422
 4950TIP3   OH214771   5.945   4.905   1.053
 4950TIP3    H114772   5.860   4.924   1.098
 4950TIP3    H214773   5.956   4.986   0.999
 4951TIP3   OH214774   4.684   5.648   1.401
 4951TIP3    H114775   4.618   5.691   1.343
 4951TIP3    H214776   4.644   5.561   1.414
 4952TIP3   OH214777   5.737   6.276   0.603
 4952TIP3    H114778   5.750   6.372   0.621
 4952TIP3    H214779   5.829   6.242   0.607
 4953TIP3   OH214780   4.474   6.031   2.293
 4953TIP3    H114781   4.395   6.009   2.240
 4953TIP3    H214782   4.501   5.945   2.330
 4954TIP3   OH214783   4.321   6.231   1.928
 4954TIP3    H114784   4.416   6.221   1.943
 4954TIP3    H214785   4.297   6.289   2.002
 4955TIP3   OH214786   6.186   6.674   1.994
 4955TIP3    H114787   6.183   6.578   2.009
 4955TIP3    H214788   6.103   6.701   2.039
 4956TIP3   OH214789   5.290   6.458   2.130
 4956TIP3    H114790   5.291   6.551   2.163
 4956TIP3    H214791   5.217   6.420   2.184
 4957TIP3   OH214792   5.054   6.584   1.081
 4957TIP3    H114793   5.008   6.566   0.997
 4957TIP3    H214794   5.019   6.672   1.106
 4958TIP3   OH214795   4.507   6.426   1.498
 4958TIP3    H114796   4.453   6.408   1.576
 4958TIP3    H214797   4.464   6.367   1.434
 4959TIP3   OH214798   5.250   6.471   0.740
 4959TIP3    H114799   5.312   6.409   0.698
 4959TIP3    H214800   5.289   6.484   0.829
 4960TIP3   OH214801   5.308   6.541   1.001
 4960TIP3    H114802   5.217   6.550   1.036
 4960TIP3    H214803   5.354   6.502   1.077
 4961TIP3   OH214804   6.076   5.805   2.269
 4961TIP3    H114805   5.992   5.818   2.222
 4961TIP3    H214806   6.087   5.708   2.266
 4962TIP3   OH214807   4.691   6.198   2.288
 4962TIP3    H114808   4.724   6.192   2.380
 4962TIP3    H214809   4.602   6.158   2.297
 4963TIP3   OH214810   5.071   5.039   2.076
 4963TIP3    H114811   4.983   5.006   2.049
 4963TIP3    H214812   5.043   5.118   2.125
 4964TIP3   OH214813   5.604   5.160   2.271
 4964TIP3    H114814   5.670   5.124   2.333
 4964TIP3    H214815   5.519   5.136   2.314
 4965TIP3   OH214816   5.848   5.582   2.188
 4965TIP3    H114817   5.796   5.579   2.271
 4965TIP3    H214818   5.820   5.668   2.151
 4966TIP3   OH214819   5.503   5.713   0.749
 4966TIP3    H114820   5.472   5.686   0.661
 4966TIP3    H214821   5.585   5.762   0.726
 4967TIP3   OH214822   5.220   5.086   1.050
 4967TIP3    H114823   5.182   5.082   1.140
 4967TIP3    H214824   5.176   5.009   1.010
 4968TIP3   OH214825   5.006   5.549   2.101
 4968TIP3    H114826   4.951   5.570   2.180
 4968TIP3    H214827   4.991   5.630   2.046
 4969TIP3   OH214828   4.885   5.440   1.610
 4969TIP3    H114829   4.792   5.412   1.629
 4969TIP3    H214830   4.897   5.399   1.522
 4970TIP3   OH214831   5.379   5.525   1.339
 4970TIP3    H114832   5.324   5.596   1.298
 4970TIP3    H214833   5.432   5.496   1.262
 4971TIP3   OH214834   5.548   5.790   2.425
 4971TIP3    H114835   5.528   5.740   2.505
 4971TIP3    H214836   5.642   5.810   2.437
 4972TIP3   OH214837   5.538   5.559   1.579
 4972TIP3    H114838   5.473   5.591   1.513
 4972TIP3    H214839   5.569   5.479   1.532
 4973TIP3   OH214840   4.825   5.581   2.305
 4973TIP3    H114841   4.826   5.648   2.375
 4973TIP3    H214842   4.810   5.499   2.357
 4974TIP3   OH214843   4.864   5.042   1.019
 4974TIP3    H114844   4.853   5.050   1.115
 4974TIP3    H214845   4.797   5.106   0.987
 4975TIP3   OH214846   4.414   5.106   1.883
 4975TIP3    H114847   4.490   5.133   1.937
 4975TIP3    H214848   4.453   5.068   1.803
 4976TIP3   OH214849   4.390   5.085   1.405
 4976TIP3    H114850   4.435   5.124   1.327
 4976TIP3    H214851   4.327   5.157   1.425
 4977TIP3   OH214852   5.551   5.797   1.994
 4977TIP3    H114853   5.589   5.724   1.940
 4977TIP3    H214854   5.515   5.746   2.070
 4978TIP3   OH214855   5.213   5.275   1.673
 4978TIP3    H114856   5.129   5.264   1.723
 4978TIP3    H214857   5.279   5.246   1.738
 4979TIP3   OH214858   4.649   5.316   1.678
 4979TIP3    H114859   4.554   5.326   1.652
 4979TIP3    H214860   4.667   5.223   1.658
 4980TIP3   OH214861   4.918   5.315   1.368
 4980TIP3    H114862   5.011   5.327   1.341
 4980TIP3    H214863   4.867   5.334   1.286
 4981TIP3   OH214864   4.760   5.345   1.150
 4981TIP3    H114865   4.684   5.302   1.107
 4981TIP3    H214866   4.808   5.378   1.072
 4982TIP3   OH214867   5.876   7.024   2.093
 4982TIP3    H114868   5.873   7.050   1.999
 4982TIP3    H214869   5.952   7.075   2.125
 4983TIP3   OH214870   4.840   6.128   2.520
 4983TIP3    H114871   4.913   6.168   2.571
 4983TIP3    H214872   4.768   6.132   2.587
 4984TIP3   OH214873   5.302   5.592   1.779
 4984TIP3    H114874   5.349   5.528   1.725
 4984TIP3    H214875   5.294   5.546   1.865
 4985TIP3   OH214876   4.824   5.074   1.649
 4985TIP3    H114877   4.784   4.998   1.697
 4985TIP3    H214878   4.865   5.031   1.573
 4986TIP3   OH214879   5.273   5.492   2.048
 4986TIP3    H114880   5.181   5.519   2.068
 4986TIP3    H214881   5.326   5.550   2.107
 4987TIP3   OH214882   5.011   5.874   1.153
 4987TIP3    H114883   4.940   5.807   1.140
 4987TIP3    H214884   4.990   5.906   1.244
 4988TIP3   OH214885   5.912   6.110   1.783
 4988TIP3    H114886   5.936   6.162   1.703
 4988TIP3    H214887   5.826   6.072   1.759
 4989TIP3   OH214888   5.469   5.188   1.019
 4989TIP3    H114889   5.372   5.167   1.024
 4989TIP3    H214890   5.473   5.283   1.041
 4990TIP3   OH214891   5.414   6.199   2.150
 4990TIP3    H114892   5.425   6.173   2.242
 4990TIP3    H214893   5.369   6.285   2.157
 4991TIP3   OH214894   5.539   5.439   1.124
 4991TIP3    H114895   5.636   5.444   1.128
 4991TIP3    H214896   5.516   5.515   1.068
 4992TIP3   OH214897   4.716   5.903   1.834
 4992TIP3    H114898   4.742   5.859   1.751
 4992TIP3    H214899   4.729   5.834   1.901
 4993TIP3   OH214900   5.158   6.029   0.982
 4993TIP3    H114901   5.109   6.114   0.986
 4993TIP3    H214902   5.100   5.972   1.038
 4994TIP3   OH214903   4.588   5.808   2.438
 4994TIP3    H114904   4.598   5.803   2.535
 4994TIP3    H214905   4.510   5.752   2.423
 4995TIP3   OH214906   5.303   5.930   2.466
 4995TIP3    H114907   5.235   5.872   2.426
 4995TIP3    H214908   5.384   5.897   2.422
 4996TIP3   OH214909   5.569   6.453   2.045
 4996TIP3    H114910   5.473   6.451   2.061
 4996TIP3    H214911   5.599   6.504   2.123
 4997TIP3   OH214912   5.980   5.525   0.957
 4997TIP3    H114913   5.915   5.482   0.895
 4997TIP3    H214914   5.977   5.615   0.917
 4998TIP3   OH214915   6.198   6.381   2.038
 4998TIP3    H114916   6.100   6.378   2.029
 4998TIP3    H214917   6.224   6.352   1.947
 4999TIP3   OH214918   5.684   6.342   0.872
 4999TIP3    H114919   5.652   6.277   0.936
 4999TIP3    H214920   5.684   6.292   0.789
 5000TIP3   OH214921   5.675   5.975   1.704
 5000TIP3    H114922   5.581   5.950   1.717
 5000TIP3    H214923   5.707   5.897   1.653
 5001TIP3   OH214924   4.367   5.506   1.158
 5001TIP3    H114925   4.410   5.591   1.178
 5001TIP3    H214926   4.289   5.510   1.218
 5002TIP3   OH214927   4.944   5.965   1.397
 5002TIP3    H114928   4.929   6.054   1.428
 5002TIP3    H214929   4.906   5.909   1.467
 5003TIP3   OH214930   5.080   6.541   1.926
 5003TIP3    H114931   5.116   6.618   1.878
 5003TIP3    H214932   5.157   6.513   1.979
 5004TIP3   OH214933   5.459   6.177   1.883
 5004TIP3    H114934   5.450   6.180   1.981
 5004TIP3    H214935   5.542   6.128   1.873
 5005TIP3   OH214936   5.438   6.073   0.763
 5005TIP3    H114937   5.483   6.047   0.846
 5005TIP3    H214938   5.346   6.045   0.782
 5006TIP3   OH214939   5.710   6.712   1.931
 5006TIP3    H114940   5.629   6.656   1.926
 5006TIP3    H214941   5.693   6.777   1.860
 5007TIP3   OH214942   5.764   6.544   0.620
 5007TIP3    H114943   5.793   6.570   0.530
 5007TIP3    H214944   5.694   6.610   0.638
 5008TIP3   OH214945   4.792   5.322   2.451
 5008TIP3    H114946   4.696   5.329   2.464
 5008TIP3    H214947   4.817   5.261   2.522
 5009TIP3   OH214948   5.595   6.010   0.985
 5009TIP3    H114949   5.584   5.941   1.053
 5009TIP3    H214950   5.692   6.004   0.970
 5010TIP3   OH214951   4.519   6.413   2.077
 5010TIP3    H114952   4.567   6.338   2.115
 5010TIP3    H214953   4.487   6.449   2.164
 5011TIP3   OH214954   4.805   6.052   0.766
 5011TIP3    H114955   4.808   5.963   0.728
 5011TIP3    H214956   4.778   6.034   0.858
 5012TIP3   OH214957   4.747   6.059   1.039
 5012TIP3    H114958   4.821   6.030   1.093
 5012TIP3    H214959   4.753   6.157   1.045
 5013TIP3   OH214960   4.485   5.753   1.240
 5013TIP3    H114961   4.417   5.796   1.297
 5013TIP3    H214962   4.494   5.822   1.171
 5014TIP3   OH214963   5.628   5.402   2.129
 5014TIP3    H114964   5.715   5.423   2.164
 5014TIP3    H214965   5.611   5.313   2.168
 5015TIP3   OH214966   5.513   5.143   1.295
 5015TIP3    H114967   5.493   5.151   1.200
 5015TIP3    H214968   5.531   5.235   1.319
 5016TIP3   OH214969   5.017   6.258   0.997
 5016TIP3    H114970   4.929   6.291   1.024
 5016TIP3    H214971   5.026   6.300   0.910
 5017TIP3   OH214972   5.206   5.317   1.400
 5017TIP3    H114973   5.267   5.393   1.385
 5017TIP3    H214974   5.205   5.313   1.498
 5018TIP3   OH214975   5.472   5.640   2.199
 5018TIP3    H114976   5.488   5.691   2.281
 5018TIP3    H214977   5.525   5.560   2.212
 5019TIP3   OH214978   5.344   5.048   1.502
 5019TIP3    H114979   5.342   5.124   1.564
 5019TIP3    H214980   5.403   5.083   1.432
 5020TIP3   OH214981   4.755   6.337   1.053
 5020TIP3    H114982   4.732   6.388   0.971
 5020TIP3    H214983   4.717   6.396   1.118
 5021TIP3   OH214984   4.855   5.045   1.296
 5021TIP3    H114985   4.853   5.135   1.332
 5021TIP3    H214986   4.951   5.027   1.300
 5022TIP3   OH214987   6.111   5.531   2.199
 5022TIP3    H114988   6.013   5.537   2.193
 5022TIP3    H214989   6.140   5.538   2.107
 5023TIP3   OH214990   5.761   5.732   1.576
 5023TIP3    H114991   5.679   5.680   1.586
 5023TIP3    H214992   5.822   5.685   1.635
 5024TIP3   OH214993   4.472   5.959   1.046
 5024TIP3    H114994   4.534   6.034   1.050
 5024TIP3    H214995   4.517   5.905   0.978
 5025TIP3   OH214996   4.420   5.237   1.178
 5025TIP3    H114997   4.415   5.335   1.175
 5025TIP3    H214998   4.334   5.213   1.140
 5026TIP3   OH214999   5.730   6.686   1.525
 5026TIP3    H115000   5.687   6.734   1.450
 5026TIP3    H215001   5.824   6.706   1.504
 5027TIP3   OH215002   4.809   4.956   2.052
 5027TIP3    H115003   4.775   4.922   1.967
 5027TIP3    H215004   4.797   4.879   2.111
 5028TIP3   OH215005   4.347   6.178   1.429
 5028TIP3    H115006   4.283   6.207   1.495
 5028TIP3    H215007   4.309   6.217   1.347
 5029TIP3   OH215008   4.497   6.728   2.500
 5029TIP3    H115009   4.577   6.700   2.546
 5029TIP3    H215010   4.467   6.641   2.462
 5030TIP3   OH215011   4.989   6.682   2.547
 5030TIP3    H115012   5.082   6.655   2.550
 5030TIP3    H215013   4.955   6.623   2.477
 5031TIP3   OH215014   4.977   6.254   0.702
 5031TIP3    H115015   4.920   6.176   0.723
 5031TIP3    H215016   5.046   6.212   0.647
 5032TIP3   OH215017   5.627   6.585   2.279
 5032TIP3    H115018   5.615   6.518   2.351
 5032TIP3    H215019   5.700   6.639   2.313
 5033TIP3   OH215020   5.405   6.297   0.594
 5033TIP3    H115021   5.445   6.225   0.646
 5033TIP3    H215022   5.457   6.298   0.512
 5034TIP3   OH215023   4.634   6.123   2.707
 5034TIP3    H115024   4.647   6.026   2.709
 5034TIP3    H215025   4.546   6.127   2.662
 5035TIP3   OH215026   4.608   5.777   0.895
 5035TIP3    H115027   4.661   5.740   0.967
 5035TIP3    H215028   4.675   5.781   0.824
 5036TIP3   OH215029   5.243   6.209   2.476
 5036TIP3    H115030   5.192   6.227   2.394
 5036TIP3    H215031   5.265   6.114   2.468
 5037TIP3   OH215032   5.131   5.969   0.703
 5037TIP3    H115033   5.122   5.982   0.799
 5037TIP3    H215034   5.115   5.872   0.697
 5038TIP3   OH215035   5.732   6.213   2.084
 5038TIP3    H115036   5.805   6.262   2.041
 5038TIP3    H215037   5.660   6.278   2.074
 5039TIP3   OH215038   4.752   5.859   2.688
 5039TIP3    H115039   4.818   5.791   2.675
 5039TIP3    H215040   4.776   5.894   2.776
 5040TIP3   OH215041   4.825   5.675   1.128
 5040TIP3    H115042   4.787   5.633   1.206
 5040TIP3    H215043   4.854   5.599   1.075
 5041TIP3   OH215044   5.092   5.752   2.358
 5041TIP3    H115045   5.006   5.800   2.357
 5041TIP3    H215046   5.132   5.780   2.273
 5042TIP3   OH215047   4.916   5.472   0.961
 5042TIP3    H115048   4.889   5.477   0.867
 5042TIP3    H215049   5.013   5.479   0.953
 5043TIP3   OH215050   5.601   6.141   2.482
 5043TIP3    H115051   5.684   6.130   2.434
 5043TIP3    H215052   5.607   6.075   2.551
 5044TIP3   OH215053   5.743   5.826   0.649
 5044TIP3    H115054   5.733   5.776   0.566
 5044TIP3    H215055   5.705   5.911   0.619
 5045TIP3   OH215056   5.206   5.527   2.477
 5045TIP3    H115057   5.208   5.450   2.417
 5045TIP3    H215058   5.167   5.597   2.420
 5046TIP3   OH215059   5.213   5.317   2.279
 5046TIP3    H115060   5.235   5.355   2.192
 5046TIP3    H215061   5.119   5.294   2.266
 5047TIP3   OH215062   5.247   5.857   2.155
 5047TIP3    H115063   5.322   5.866   2.096
 5047TIP3    H215064   5.183   5.919   2.115
 5048TIP3   OH215065   5.826   5.821   2.533
 5048TIP3    H115066   5.877   5.739   2.538
 5048TIP3    H215067   5.892   5.884   2.500
 5049TIP3   OH215068   5.863   6.068   2.269
 5049TIP3    H115069   5.804   6.122   2.212
 5049TIP3    H215070   5.950   6.092   2.230
 5050TIP3   OH215071   5.099   5.637   2.708
 5050TIP3    H115072   5.024   5.576   2.724
 5050TIP3    H215073   5.123   5.613   2.616
 5051TIP3   OH215074   5.345   5.080   2.347
 5051TIP3    H115075   5.293   5.160   2.325
 5051TIP3    H215076   5.277   5.010   2.337
 5052TIP3   OH215077   5.714   5.532   2.421
 5052TIP3    H115078   5.649   5.472   2.458
 5052TIP3    H215079   5.794   5.509   2.474
 5053TIP3   OH215080   5.932   5.470   2.571
 5053TIP3    H115081   5.950   5.375   2.588
 5053TIP3    H215082   5.932   5.509   2.661
 5054TIP3   OH215083   4.929   5.423   2.756
 5054TIP3    H115084   4.928   5.331   2.723
 5054TIP3    H215085   4.961   5.409   2.847
 5055TIP3   OH215086   5.445   5.093   2.603
 5055TIP3    H115087   5.507   5.018   2.600
 5055TIP3    H215088   5.400   5.083   2.517
 5056TIP3   OH215089   5.496   5.312   2.757
 5056TIP3    H115090   5.490   5.234   2.698
 5056TIP3    H215091   5.412   5.356   2.738
 5057TIP3   OH215092   4.724   6.529   0.864
 5057TIP3    H115093   4.819   6.534   0.842
 5057TIP3    H215094   4.687   6.577   0.788
 5058TIP3   OH215095   4.204   5.914   1.084
 5058TIP3    H115096   4.299   5.936   1.068
 5058TIP3    H215097   4.197   5.826   1.041
 5059TIP3   OH215098   4.124   6.526   1.497
 5059TIP3    H115099   4.055   6.467   1.458
 5059TIP3    H215100   4.165   6.466   1.563
 5060TIP3   OH215101   4.270   6.379   1.684
 5060TIP3    H115102   4.249   6.304   1.742
 5060TIP3    H215103   4.300   6.442   1.752
 5061TIP3   OH215104   5.982   6.779   1.482
 5061TIP3    H115105   6.008   6.812   1.570
 5061TIP3    H215106   6.045   6.825   1.424
 5062TIP3   OH215107   6.011   6.799   1.763
 5062TIP3    H115108   5.968   6.711   1.760
 5062TIP3    H215109   6.086   6.779   1.820
 5063TIP3   OH215110   6.058   6.474   2.338
 5063TIP3    H115111   5.985   6.484   2.402
 5063TIP3    H215112   6.099   6.563   2.341
 5064TIP3   OH215113   5.874   5.991   0.961
 5064TIP3    H115114   5.944   6.054   0.933
 5064TIP3    H215115   5.917   5.951   1.040
 5065TIP3   OH215116   6.004   5.856   1.160
 5065TIP3    H115117   5.937   5.816   1.219
 5065TIP3    H215118   6.068   5.895   1.222
 5066TIP3   OH215119   6.056   6.248   1.593
 5066TIP3    H115120   6.108   6.184   1.541
 5066TIP3    H215121   6.049   6.323   1.532
 5067TIP3   OH215122   5.887   6.548   1.789
 5067TIP3    H115123   5.817   6.593   1.840
 5067TIP3    H215124   5.836   6.502   1.719
 5068TIP3   OH215125   5.948   5.764   0.820
 5068TIP3    H115126   5.876   5.769   0.752
 5068TIP3    H215127   5.919   5.841   0.874
 5069TIP3   OH215128   5.806   5.442   0.768
 5069TIP3    H115129   5.782   5.473   0.680
 5069TIP3    H215130   5.783   5.347   0.760
 5070TIP3   OH215131   5.816   5.715   1.306
 5070TIP3    H115132   5.820   5.618   1.294
 5070TIP3    H215133   5.801   5.725   1.402
 5071TIP3   OH215134   4.444   5.783   2.054
 5071TIP3    H115135   4.441   5.753   1.961
 5071TIP3    H215136   4.541   5.785   2.070
 5072TIP3   OH215137   6.105   6.137   2.163
 5072TIP3    H115138   6.179   6.073   2.154
 5072TIP3    H215139   6.131   6.209   2.103
 5073TIP3   OH215140   6.290   5.942   2.178
 5073TIP3    H115141   6.217   5.893   2.222
 5073TIP3    H215142   6.364   5.880   2.194
 5074TIP3   OH215143   5.754   5.177   0.756
 5074TIP3    H115144   5.827   5.136   0.805
 5074TIP3    H215145   5.679   5.115   0.769
 5075TIP3   OH215146   5.817   5.433   1.203
 5075TIP3    H115147   5.854   5.342   1.215
 5075TIP3    H215148   5.873   5.464   1.130
 5076TIP3   OH215149   5.973   5.583   1.706
 5076TIP3    H115150   6.051   5.620   1.657
 5076TIP3    H215151   5.979   5.641   1.786
 5077TIP3   OH215152   6.033   5.744   1.922
 5077TIP3    H115153   5.959   5.782   1.974
 5077TIP3    H215154   6.070   5.824   1.879
 5078TIP3   OH215155   4.662   5.473   2.731
 5078TIP3    H115156   4.760   5.463   2.731
 5078TIP3    H215157   4.636   5.387   2.770
 5079TIP3   OH215158   6.491   5.334   2.486
 5079TIP3    H115159   6.554   5.270   2.446
 5079TIP3    H215160   6.468   5.390   2.410
 5080TIP3   OH215161   5.911   5.180   1.250
 5080TIP3    H115162   5.970   5.153   1.322
 5080TIP3    H215163   5.854   5.100   1.240
 5081TIP3   OH215164   4.622   5.163   2.054
 5081TIP3    H115165   4.684   5.089   2.067
 5081TIP3    H215166   4.684   5.239   2.053
 5082TIP3   OH215167   4.426   5.437   2.134
 5082TIP3    H115168   4.474   5.437   2.049
 5082TIP3    H215169   4.445   5.525   2.168
 5083TIP3   OH215170   6.367   5.477   2.291
 5083TIP3    H115171   6.280   5.515   2.314
 5083TIP3    H215172   6.338   5.405   2.232
 5084TIP3   OH215173   6.006   5.112   0.878
 5084TIP3    H115174   6.038   5.041   0.818
 5084TIP3    H215175   6.068   5.184   0.859
 5085TIP3   OH215176   4.408   4.945   1.636
 5085TIP3    H115177   4.314   4.938   1.661
 5085TIP3    H215178   4.403   5.002   1.556
 5086TIP3   OH215179   5.568   6.642   1.146
 5086TIP3    H115180   5.617   6.630   1.062
 5086TIP3    H215181   5.619   6.712   1.189
 5087TIP3   OH215182   4.629   5.023   2.448
 5087TIP3    H115183   4.578   5.015   2.530
 5087TIP3    H215184   4.562   5.061   2.388
 5088TIP3   OH215185   4.695   6.435   2.542
 5088TIP3    H115186   4.619   6.431   2.481
 5088TIP3    H215187   4.651   6.421   2.627
 5089TIP3   OH215188   4.852   6.472   2.068
 5089TIP3    H115189   4.789   6.542   2.042
 5089TIP3    H215190   4.932   6.504   2.020
 5090TIP3   OH215191   5.292   6.724   2.208
 5090TIP3    H115192   5.331   6.727   2.298
 5090TIP3    H215193   5.358   6.778   2.158
 5091TIP3   OH215194   5.471   6.878   2.068
 5091TIP3    H115195   5.544   6.827   2.031
 5091TIP3    H215196   5.520   6.936   2.131
 5092TIP3   OH215197   6.262   5.231   2.166
 5092TIP3    H115198   6.171   5.200   2.150
 5092TIP3    H215199   6.309   5.145   2.159
 5093TIP3   OH215200   4.525   6.754   2.087
 5093TIP3    H115201   4.433   6.786   2.076
 5093TIP3    H215202   4.527   6.735   2.181
 5094TIP3   OH215203   4.758   6.719   1.950
 5094TIP3    H115204   4.675   6.732   2.002
 5094TIP3    H215205   4.733   6.760   1.866
 5095TIP3   OH215206   5.186   6.753   1.747
 5095TIP3    H115207   5.127   6.788   1.679
 5095TIP3    H215208   5.201   6.834   1.801
 5096TIP3   OH215209   5.452   6.684   1.799
 5096TIP3    H115210   5.358   6.704   1.781
 5096TIP3    H215211   5.495   6.763   1.764
 5097TIP3   OH215212   5.661   6.878   1.719
 5097TIP3    H115213   5.646   6.962   1.671
 5097TIP3    H215214   5.686   6.818   1.646
 5098TIP3   OH215215   4.446   6.536   1.846
 5098TIP3    H115216   4.453   6.522   1.943
 5098TIP3    H215217   4.519   6.479   1.821
 5099TIP3   OH215218   5.443   5.148   1.776
 5099TIP3    H115219   5.414   5.085   1.844
 5099TIP3    H215220   5.529   5.113   1.750
 5100TIP3   OH215221   5.993   5.061   1.706
 5100TIP3    H115222   6.030   5.087   1.619
 5100TIP3    H215223   5.898   5.050   1.684
 5101TIP3   OH215224   6.085   5.139   1.462
 5101TIP3    H115225   6.154   5.080   1.424
 5101TIP3    H215226   6.125   5.226   1.438
 5102TIP3   OH215227   4.718   4.865   1.803
 5102TIP3    H115228   4.625   4.832   1.806
 5102TIP3    H215229   4.765   4.779   1.800
 5103TIP3   OH215230   4.506   4.734   1.453
 5103TIP3    H115231   4.532   4.792   1.380
 5103TIP3    H215232   4.475   4.798   1.520
 5104TIP3   OH215233   5.163   4.895   1.683
 5104TIP3    H115234   5.224   4.947   1.628
 5104TIP3    H215235   5.175   4.935   1.770
 5105TIP3   OH215236   5.720   5.041   1.655
 5105TIP3    H115237   5.699   4.992   1.574
 5105TIP3    H215238   5.703   4.971   1.722
 5106TIP3   OH215239   5.738   4.964   1.233
 5106TIP3    H115240   5.648   5.002   1.238
 5106TIP3    H215241   5.724   4.878   1.279
 5107TIP3   OH215242   4.223   6.310   1.232
 5107TIP3    H115243   4.139   6.271   1.199
 5107TIP3    H215244   4.208   6.402   1.203
 5108TIP3   OH215245   4.620   4.894   1.215
 5108TIP3    H115246   4.669   4.831   1.157
 5108TIP3    H215247   4.693   4.947   1.252
 5109TIP3   OH215248   5.132   5.069   1.313
 5109TIP3    H115249   5.186   5.017   1.374
 5109TIP3    H215250   5.158   5.160   1.341
 5110TIP3   OH215251   4.991   6.503   0.814
 5110TIP3    H115252   5.084   6.515   0.785
 5110TIP3    H215253   4.970   6.424   0.760
 5111TIP3   OH215254   5.713   6.612   0.914
 5111TIP3    H115255   5.706   6.515   0.900
 5111TIP3    H215256   5.664   6.645   0.836
 5112TIP3   OH215257   4.928   5.150   2.700
 5112TIP3    H115258   4.889   5.077   2.752
 5112TIP3    H215259   5.021   5.145   2.728
 5113TIP3   OH215260   5.182   5.144   2.818
 5113TIP3    H115261   5.259   5.102   2.777
 5113TIP3    H215262   5.160   5.078   2.887
 5114TIP3   OH215263   4.298   6.327   0.868
 5114TIP3    H115264   4.293   6.362   0.958
 5114TIP3    H215265   4.388   6.289   0.864
 5115TIP3   OH215266   6.001   5.203   2.603
 5115TIP3    H115267   6.019   5.170   2.694
 5115TIP3    H215268   6.091   5.196   2.563
 5116TIP3   OH215269   5.940   6.756   2.093
 5116TIP3    H115270   5.860   6.724   2.046
 5116TIP3    H215271   5.920   6.852   2.098
 5117TIP3   OH215272   7.176   6.113   0.908
 5117TIP3    H115273   7.228   6.194   0.905
 5117TIP3    H215274   7.148   6.107   0.814
 5118TIP3   OH215275   7.204   6.136   1.243
 5118TIP3    H115276   7.230   6.092   1.326
 5118TIP3    H215277   7.167   6.064   1.191
 5119TIP3   OH215278   6.503   6.024   1.609
 5119TIP3    H115279   6.535   5.957   1.672
 5119TIP3    H215280   6.583   6.078   1.597
 5120TIP3   OH215281   7.432   6.426   0.940
 5120TIP3    H115282   7.443   6.354   1.004
 5120TIP3    H215283   7.473   6.501   0.985
 5121TIP3   OH215284   6.474   6.432   1.332
 5121TIP3    H115285   6.466   6.335   1.335
 5121TIP3    H215286   6.571   6.442   1.323
 5122TIP3   OH215287   6.179   5.633   1.118
 5122TIP3    H115288   6.133   5.717   1.133
 5122TIP3    H215289   6.109   5.582   1.074
 5123TIP3   OH215290   6.240   5.923   1.289
 5123TIP3    H115291   6.289   5.845   1.324
 5123TIP3    H215292   6.301   5.957   1.223
 5124TIP3   OH215293   7.088   6.866   0.932
 5124TIP3    H115294   7.172   6.823   0.915
 5124TIP3    H215295   7.084   6.869   1.028
 5125TIP3   OH215296   7.002   6.354   1.291
 5125TIP3    H115297   7.039   6.277   1.245
 5125TIP3    H215298   7.087   6.399   1.315
 5126TIP3   OH215299   8.013   5.672   1.288
 5126TIP3    H115300   8.042   5.753   1.335
 5126TIP3    H215301   8.036   5.694   1.196
 5127TIP3   OH215302   7.411   5.856   1.325
 5127TIP3    H115303   7.456   5.771   1.345
 5127TIP3    H215304   7.385   5.840   1.232
 5128TIP3   OH215305   6.751   5.514   1.289
 5128TIP3    H115306   6.733   5.587   1.226
 5128TIP3    H215307   6.705   5.441   1.243
 5129TIP3   OH215308   7.443   5.602   0.912
 5129TIP3    H115309   7.510   5.580   0.980
 5129TIP3    H215310   7.501   5.637   0.844
 5130TIP3   OH215311   6.382   5.713   1.397
 5130TIP3    H115312   6.467   5.698   1.443
 5130TIP3    H215313   6.398   5.661   1.316
 5131TIP3   OH215314   6.826   5.914   1.190
 5131TIP3    H115315   6.921   5.891   1.200
 5131TIP3    H215316   6.789   5.830   1.156
 5132TIP3   OH215317   8.084   5.876   1.460
 5132TIP3    H115318   8.003   5.928   1.443
 5132TIP3    H215319   8.113   5.915   1.545
 5133TIP3   OH215320   6.749   5.498   1.721
 5133TIP3    H115321   6.689   5.536   1.654
 5133TIP3    H215322   6.699   5.515   1.803
 5134TIP3   OH215323   6.856   6.273   1.517
 5134TIP3    H115324   6.795   6.340   1.555
 5134TIP3    H215325   6.898   6.323   1.444
 5135TIP3   OH215326   7.655   5.612   1.083
 5135TIP3    H115327   7.650   5.559   1.164
 5135TIP3    H215328   7.708   5.688   1.112
 5136TIP3   OH215329   6.618   5.612   1.507
 5136TIP3    H115330   6.680   5.685   1.531
 5136TIP3    H215331   6.668   5.572   1.432
 5137TIP3   OH215332   6.684   6.467   1.616
 5137TIP3    H115333   6.658   6.553   1.576
 5137TIP3    H215334   6.604   6.452   1.672
 5138TIP3   OH215335   6.087   6.155   0.870
 5138TIP3    H115336   6.036   6.168   0.787
 5138TIP3    H215337   6.110   6.246   0.896
 5139TIP3   OH215338   7.519   6.672   1.091
 5139TIP3    H115339   7.431   6.656   1.133
 5139TIP3    H215340   7.504   6.758   1.050
 5140TIP3   OH215341   7.807   5.572   1.453
 5140TIP3    H115342   7.721   5.604   1.422
 5140TIP3    H215343   7.868   5.606   1.384
 5141TIP3   OH215344   7.105   5.217   1.434
 5141TIP3    H115345   7.093   5.122   1.453
 5141TIP3    H215346   7.028   5.254   1.482
 5142TIP3   OH215347   7.739   6.589   1.437
 5142TIP3    H115348   7.734   6.510   1.379
 5142TIP3    H215349   7.733   6.662   1.372
 5143TIP3   OH215350   7.932   6.212   1.272
 5143TIP3    H115351   7.855   6.272   1.284
 5143TIP3    H215352   7.966   6.243   1.186
 5144TIP3   OH215353   7.618   6.102   1.576
 5144TIP3    H115354   7.617   6.185   1.625
 5144TIP3    H215355   7.531   6.107   1.531
 5145TIP3   OH215356   6.609   6.055   1.085
 5145TIP3    H115357   6.573   5.998   1.014
 5145TIP3    H215358   6.690   6.006   1.112
 5146TIP3   OH215359   6.743   6.468   1.230
 5146TIP3    H115360   6.723   6.433   1.142
 5146TIP3    H215361   6.833   6.433   1.246
 5147TIP3   OH215362   6.749   6.032   1.435
 5147TIP3    H115363   6.783   6.008   1.346
 5147TIP3    H215364   6.795   6.117   1.454
 5148TIP3   OH215365   7.279   6.669   1.209
 5148TIP3    H115366   7.262   6.749   1.263
 5148TIP3    H215367   7.262   6.596   1.272
 5149TIP3   OH215368   6.889   6.590   1.760
 5149TIP3    H115369   6.826   6.651   1.804
 5149TIP3    H215370   6.826   6.535   1.709
 5150TIP3   OH215371   6.645   6.144   1.860
 5150TIP3    H115372   6.648   6.232   1.904
 5150TIP3    H215373   6.549   6.125   1.868
 5151TIP3   OH215374   6.957   6.676   0.778
 5151TIP3    H115375   6.988   6.752   0.831
 5151TIP3    H215376   6.903   6.719   0.709
 5152TIP3   OH215377   6.683   6.757   1.846
 5152TIP3    H115378   6.647   6.758   1.755
 5152TIP3    H215379   6.603   6.734   1.899
 5153TIP3   OH215380   6.485   5.898   0.880
 5153TIP3    H115381   6.419   5.948   0.826
 5153TIP3    H215382   6.436   5.818   0.900
 5154TIP3   OH215383   6.262   6.288   1.792
 5154TIP3    H115384   6.197   6.265   1.723
 5154TIP3    H215385   6.300   6.200   1.816
 5155TIP3   OH215386   6.117   6.479   1.427
 5155TIP3    H115387   6.213   6.474   1.416
 5155TIP3    H215388   6.107   6.559   1.480
 5156TIP3   OH215389   7.959   6.928   1.466
 5156TIP3    H115390   7.990   6.839   1.489
 5156TIP3    H215391   7.887   6.943   1.530
 5157TIP3   OH215392   7.088   6.717   1.616
 5157TIP3    H115393   7.086   6.809   1.648
 5157TIP3    H215394   7.015   6.677   1.669
 5158TIP3   OH215395   6.279   6.696   0.956
 5158TIP3    H115396   6.331   6.686   1.039
 5158TIP3    H215397   6.227   6.613   0.959
 5159TIP3   OH215398   7.868   6.059   1.757
 5159TIP3    H115399   7.791   6.072   1.701
 5159TIP3    H215400   7.885   5.963   1.746
 5160TIP3   OH215401   6.467   6.470   1.781
 5160TIP3    H115402   6.516   6.453   1.864
 5160TIP3    H215403   6.392   6.407   1.789
 5161TIP3   OH215404   6.866   5.292   1.564
 5161TIP3    H115405   6.776   5.263   1.537
 5161TIP3    H215406   6.842   5.375   1.610
 5162TIP3   OH215407   7.402   5.408   1.759
 5162TIP3    H115408   7.470   5.380   1.823
 5162TIP3    H215409   7.318   5.388   1.806
 5163TIP3   OH215410   7.637   5.835   1.675
 5163TIP3    H115411   7.589   5.834   1.761
 5163TIP3    H215412   7.617   5.925   1.641
 5164TIP3   OH215413   6.989   5.362   0.536
 5164TIP3    H115414   6.976   5.366   0.632
 5164TIP3    H215415   6.970   5.268   0.522
 5165TIP3   OH215416   6.795   5.809   1.583
 5165TIP3    H115417   6.748   5.833   1.665
 5165TIP3    H215418   6.782   5.889   1.528
 5166TIP3   OH215419   6.682   5.694   1.098
 5166TIP3    H115420   6.589   5.668   1.115
 5166TIP3    H215421   6.696   5.653   1.009
 5167TIP3   OH215422   7.164   5.792   0.818
 5167TIP3    H115423   7.099   5.859   0.792
 5167TIP3    H215424   7.220   5.789   0.739
 5168TIP3   OH215425   7.348   6.061   1.913
 5168TIP3    H115426   7.327   5.986   1.974
 5168TIP3    H215427   7.443   6.073   1.932
 5169TIP3   OH215428   7.329   5.811   1.066
 5169TIP3    H115429   7.273   5.850   0.996
 5169TIP3    H215430   7.356   5.729   1.020
 5170TIP3   OH215431   6.615   5.838   1.794
 5170TIP3    H115432   6.650   5.902   1.858
 5170TIP3    H215433   6.612   5.756   1.847
 5171TIP3   OH215434   6.653   5.293   0.530
 5171TIP3    H115435   6.663   5.301   0.627
 5171TIP3    H215436   6.557   5.302   0.521
 5172TIP3   OH215437   6.208   5.362   1.381
 5172TIP3    H115438   6.289   5.394   1.425
 5172TIP3    H215439   6.240   5.335   1.293
 5173TIP3   OH215440   6.187   5.343   0.892
 5173TIP3    H115441   6.233   5.383   0.816
 5173TIP3    H215442   6.122   5.414   0.912
 5174TIP3   OH215443   7.340   6.055   1.490
 5174TIP3    H115444   7.373   5.983   1.430
 5174TIP3    H215445   7.311   6.001   1.566
 5175TIP3   OH215446   7.008   5.518   1.158
 5175TIP3    H115447   6.928   5.515   1.214
 5175TIP3    H215448   7.079   5.517   1.224
 5176TIP3   OH215449   6.442   5.572   1.168
 5176TIP3    H115450   6.348   5.578   1.140
 5176TIP3    H215451   6.467   5.481   1.144
 5177TIP3   OH215452   6.714   5.570   0.855
 5177TIP3    H115453   6.810   5.583   0.841
 5177TIP3    H215454   6.675   5.594   0.768
 5178TIP3   OH215455   7.501   5.594   1.361
 5178TIP3    H115456   7.466   5.605   1.453
 5178TIP3    H215457   7.436   5.532   1.324
 5179TIP3   OH215458   6.556   5.595   0.625
 5179TIP3    H115459   6.463   5.572   0.641
 5179TIP3    H215460   6.559   5.603   0.530
 5180TIP3   OH215461   7.661   7.275   1.571
 5180TIP3    H115462   7.652   7.287   1.473
 5180TIP3    H215463   7.713   7.354   1.591
 5181TIP3   OH215464   6.629   6.391   2.001
 5181TIP3    H115465   6.708   6.423   2.049
 5181TIP3    H215466   6.564   6.391   2.074
 5182TIP3   OH215467   7.090   5.840   1.256
 5182TIP3    H115468   7.167   5.810   1.205
 5182TIP3    H215469   7.105   5.799   1.343
 5183TIP3   OH215470   6.615   5.334   1.133
 5183TIP3    H115471   6.582   5.255   1.180
 5183TIP3    H215472   6.669   5.294   1.063
 5184TIP3   OH215473   7.069   5.739   1.550
 5184TIP3    H115474   6.981   5.779   1.560
 5184TIP3    H215475   7.128   5.801   1.597
 5185TIP3   OH215476   6.801   6.112   0.671
 5185TIP3    H115477   6.732   6.047   0.689
 5185TIP3    H215478   6.814   6.152   0.760
 5186TIP3   OH215479   7.705   6.369   1.275
 5186TIP3    H115480   7.732   6.415   1.192
 5186TIP3    H215481   7.622   6.325   1.248
 5187TIP3   OH215482   7.203   6.450   1.637
 5187TIP3    H115483   7.230   6.429   1.727
 5187TIP3    H215484   7.167   6.540   1.645
 5188TIP3   OH215485   6.495   6.152   1.318
 5188TIP3    H115486   6.532   6.125   1.232
 5188TIP3    H215487   6.544   6.093   1.379
 5189TIP3   OH215488   6.378   6.077   1.930
 5189TIP3    H115489   6.402   6.065   2.024
 5189TIP3    H215490   6.311   6.008   1.919
 5190TIP3   OH215491   7.105   6.189   1.949
 5190TIP3    H115492   7.047   6.131   1.897
 5190TIP3    H215493   7.193   6.155   1.923
 5191TIP3   OH215494   7.365   6.713   1.534
 5191TIP3    H115495   7.269   6.709   1.547
 5191TIP3    H215496   7.392   6.765   1.612
 5192TIP3   OH215497   7.991   6.641   1.527
 5192TIP3    H115498   7.893   6.639   1.521
 5192TIP3    H215499   8.015   6.611   1.437
 5193TIP3   OH215500   7.471   6.233   1.187
 5193TIP3    H115501   7.378   6.207   1.204
 5193TIP3    H215502   7.505   6.152   1.145
 5194TIP3   OH215503   6.601   6.457   0.953
 5194TIP3    H115504   6.599   6.538   0.898
 5194TIP3    H215505   6.508   6.430   0.947
 5195TIP3   OH215506   6.181   5.769   0.677
 5195TIP3    H115507   6.219   5.859   0.689
 5195TIP3    H215508   6.099   5.777   0.732
 5196TIP3   OH215509   6.750   6.226   0.915
 5196TIP3    H115510   6.706   6.313   0.917
 5196TIP3    H215511   6.699   6.177   0.982
 5197TIP3   OH215512   6.868   6.803   1.411
 5197TIP3    H115513   6.909   6.875   1.360
 5197TIP3    H215514   6.945   6.766   1.457
 5198TIP3   OH215515   6.523   6.691   0.820
 5198TIP3    H115516   6.437   6.706   0.862
 5198TIP3    H215517   6.563   6.781   0.824
 5199TIP3   OH215518   7.258   6.438   1.368
 5199TIP3    H115519   7.248   6.433   1.466
 5199TIP3    H215520   7.335   6.381   1.354
 5200TIP3   OH215521   7.504   6.967   1.422
 5200TIP3    H115522   7.425   6.910   1.414
 5200TIP3    H215523   7.488   7.033   1.352
 5201TIP3   OH215524   6.594   5.580   1.940
 5201TIP3    H115525   6.499   5.579   1.959
 5201TIP3    H215526   6.628   5.521   2.009
 5202TIP3   OH215527   6.306   6.664   1.569
 5202TIP3    H115528   6.360   6.591   1.601
 5202TIP3    H215529   6.334   6.735   1.629
 5203TIP3   OH215530   6.285   6.018   0.732
 5203TIP3    H115531   6.219   6.068   0.785
 5203TIP3    H215532   6.311   6.083   0.665
 5204TIP3   OH215533   7.425   5.646   1.621
 5204TIP3    H115534   7.507   5.684   1.656
 5204TIP3    H215535   7.414   5.565   1.675
 5205TIP3   OH215536   7.291   5.400   0.772
 5205TIP3    H115537   7.294   5.410   0.675
 5205TIP3    H215538   7.341   5.478   0.804
 5206TIP3   OH215539   6.995   5.578   0.887
 5206TIP3    H115540   7.058   5.651   0.869
 5206TIP3    H215541   7.003   5.569   0.984
 5207TIP3   OH215542   7.265   5.894   1.696
 5207TIP3    H115543   7.288   5.946   1.775
 5207TIP3    H215544   7.321   5.815   1.706
 5208TIP3   OH215545   7.141   5.304   0.988
 5208TIP3    H115546   7.141   5.377   1.052
 5208TIP3    H215547   7.196   5.343   0.916
 5209TIP3   OH215548   6.656   5.301   0.804
 5209TIP3    H115549   6.655   5.393   0.835
 5209TIP3    H215550   6.752   5.283   0.811
 5210TIP3   OH215551   7.905   5.794   1.680
 5210TIP3    H115552   7.807   5.789   1.681
 5210TIP3    H215553   7.924   5.762   1.591
 5211TIP3   OH215554   7.556   5.994   1.063
 5211TIP3    H115555   7.483   5.930   1.072
 5211TIP3    H215556   7.630   5.946   1.107
 5212TIP3   OH215557   6.238   5.502   0.673
 5212TIP3    H115558   6.208   5.595   0.679
 5212TIP3    H215559   6.171   5.461   0.618
 5213TIP3   OH215560   7.530   6.952   1.010
 5213TIP3    H115561   7.500   6.964   0.919
 5213TIP3    H215562   7.626   6.954   1.001
 5214TIP3   OH215563   6.596   5.215   1.541
 5214TIP3    H115564   6.571   5.179   1.454
 5214TIP3    H215565   6.591   5.136   1.599
 5215TIP3   OH215566   6.143   6.431   0.926
 5215TIP3    H115567   6.067   6.460   0.976
 5215TIP3    H215568   6.121   6.465   0.837
 5216TIP3   OH215569   6.297   6.972   1.991
 5216TIP3    H115570   6.383   6.972   2.038
 5216TIP3    H215571   6.275   6.877   1.991
 5217TIP3   OH215572   6.783   6.933   2.039
 5217TIP3    H115573   6.877   6.914   2.033
 5217TIP3    H215574   6.749   6.876   1.967
 5218TIP3   OH215575   7.412   6.848   1.775
 5218TIP3    H115576   7.408   6.775   1.840
 5218TIP3    H215577   7.494   6.894   1.799
 5219TIP3   OH215578   6.428   6.379   2.192
 5219TIP3    H115579   6.443   6.283   2.199
 5219TIP3    H215580   6.340   6.382   2.148
 5220TIP3   OH215581   7.036   6.464   1.965
 5220TIP3    H115582   6.994   6.480   1.878
 5220TIP3    H215583   7.066   6.371   1.958
 5221TIP3   OH215584   7.527   6.473   1.573
 5221TIP3    H115585   7.604   6.514   1.529
 5221TIP3    H215586   7.458   6.540   1.555
 5222TIP3   OH215587   6.547   6.110   2.174
 5222TIP3    H115588   6.625   6.058   2.152
 5222TIP3    H215589   6.572   6.146   2.262
 5223TIP3   OH215590   6.594   5.925   0.612
 5223TIP3    H115591   6.576   5.889   0.700
 5223TIP3    H215592   6.670   5.875   0.581
 5224TIP3   OH215593   6.879   5.995   1.833
 5224TIP3    H115594   6.804   6.058   1.835
 5224TIP3    H215595   6.932   6.031   1.758
 5225TIP3   OH215596   7.402   6.401   1.972
 5225TIP3    H115597   7.479   6.375   1.919
 5225TIP3    H215598   7.398   6.331   2.039
 5226TIP3   OH215599   7.003   5.786   1.963
 5226TIP3    H115600   7.006   5.706   1.906
 5226TIP3    H215601   6.961   5.851   1.903
 5227TIP3   OH215602   7.007   5.573   1.771
 5227TIP3    H115603   7.037   5.614   1.688
 5227TIP3    H215604   6.914   5.550   1.750
 5228TIP3   OH215605   7.035   6.108   1.643
 5228TIP3    H115606   7.119   6.116   1.596
 5228TIP3    H215607   6.980   6.175   1.597
 5229TIP3   OH215608   7.618   6.076   2.024
 5229TIP3    H115609   7.665   5.992   2.034
 5229TIP3    H215610   7.687   6.132   1.986
 5230TIP3   OH215611   7.659   6.330   1.761
 5230TIP3    H115612   7.602   6.383   1.700
 5230TIP3    H215613   7.748   6.349   1.722
 5231TIP3   OH215614   6.881   5.900   2.192
 5231TIP3    H115615   6.813   5.831   2.207
 5231TIP3    H215616   6.917   5.873   2.105
 5232TIP3   OH215617   7.140   5.336   1.835
 5232TIP3    H115618   7.090   5.418   1.814
 5232TIP3    H215619   7.072   5.267   1.824
 5233TIP3   OH215620   7.265   5.842   2.053
 5233TIP3    H115621   7.257   5.828   2.149
 5233TIP3    H215622   7.175   5.816   2.024
 5234TIP3   OH215623   7.505   5.793   1.908
 5234TIP3    H115624   7.431   5.791   1.971
 5234TIP3    H215625   7.580   5.761   1.963
 5235TIP3   OH215626   7.730   5.729   2.058
 5235TIP3    H115627   7.746   5.634   2.076
 5235TIP3    H215628   7.730   5.769   2.148
 5236TIP3   OH215629   6.720   5.680   2.246
 5236TIP3    H115630   6.729   5.589   2.212
 5236TIP3    H215631   6.759   5.669   2.335
 5237TIP3   OH215632   7.234   5.346   2.093
 5237TIP3    H115633   7.302   5.276   2.089
 5237TIP3    H215634   7.196   5.339   2.004
 5238TIP3   OH215635   7.301   5.561   2.252
 5238TIP3    H115636   7.280   5.490   2.189
 5238TIP3    H215637   7.222   5.619   2.245
 5239TIP3   OH215638   5.980   6.143   0.620
 5239TIP3    H115639   6.061   6.175   0.574
 5239TIP3    H215640   5.953   6.075   0.557
 5240TIP3   OH215641   5.918   6.786   0.975
 5240TIP3    H115642   5.847   6.723   0.948
 5240TIP3    H215643   5.961   6.732   1.045
 5241TIP3   OH215644   6.049   6.640   1.168
 5241TIP3    H115645   6.038   6.564   1.228
 5241TIP3    H215646   6.103   6.698   1.225
 5242TIP3   OH215647   7.828   7.045   1.260
 5242TIP3    H115648   7.778   6.963   1.240
 5242TIP3    H215649   7.877   7.013   1.339
 5243TIP3   OH215650   7.849   6.733   1.822
 5243TIP3    H115651   7.780   6.742   1.890
 5243TIP3    H215652   7.893   6.820   1.826
 5244TIP3   OH215653   7.843   6.492   1.076
 5244TIP3    H115654   7.904   6.436   1.025
 5244TIP3    H215655   7.819   6.561   1.013
 5245TIP3   OH215656   7.682   6.806   1.270
 5245TIP3    H115657   7.615   6.846   1.330
 5245TIP3    H215658   7.627   6.751   1.210
 5246TIP3   OH215659   7.638   5.965   0.782
 5246TIP3    H115660   7.657   5.876   0.812
 5246TIP3    H215661   7.602   6.006   0.863
 5247TIP3   OH215662   6.239   6.040   1.543
 5247TIP3    H115663   6.237   6.012   1.449
 5247TIP3    H215664   6.336   6.043   1.559
 5248TIP3   OH215665   7.902   6.394   1.649
 5248TIP3    H115666   7.977   6.330   1.643
 5248TIP3    H215667   7.934   6.465   1.591
 5249TIP3   OH215668   8.086   6.200   1.685
 5249TIP3    H115669   8.010   6.147   1.717
 5249TIP3    H215670   8.157   6.133   1.689
 5250TIP3   OH215671   7.771   5.861   1.183
 5250TIP3    H115672   7.856   5.889   1.143
 5250TIP3    H215673   7.784   5.896   1.273
 5251TIP3   OH215674   7.837   6.001   1.418
 5251TIP3    H115675   7.759   6.038   1.464
 5251TIP3    H215676   7.870   6.080   1.369
 5252TIP3   OH215677   6.453   5.725   2.204
 5252TIP3    H115678   6.551   5.724   2.213
 5252TIP3    H215679   6.432   5.643   2.253
 5253TIP3   OH215680   8.293   5.594   1.972
 5253TIP3    H115681   8.352   5.530   1.927
 5253TIP3    H215682   8.263   5.649   1.897
 5254TIP3   OH215683   7.678   5.458   0.744
 5254TIP3    H115684   7.748   5.441   0.810
 5254TIP3    H215685   7.649   5.366   0.727
 5255TIP3   OH215686   6.414   5.424   1.563
 5255TIP3    H115687   6.476   5.347   1.562
 5255TIP3    H215688   6.477   5.496   1.544
 5256TIP3   OH215689   6.205   5.690   1.616
 5256TIP3    H115690   6.259   5.687   1.535
 5256TIP3    H215691   6.231   5.776   1.652
 5257TIP3   OH215692   8.160   5.733   1.781
 5257TIP3    H115693   8.073   5.775   1.798
 5257TIP3    H215694   8.133   5.663   1.720
 5258TIP3   OH215695   6.201   5.213   1.129
 5258TIP3    H115696   6.106   5.197   1.137
 5258TIP3    H215697   6.205   5.263   1.044
 5259TIP3   OH215698   6.426   5.288   1.938
 5259TIP3    H115699   6.374   5.272   2.019
 5259TIP3    H215700   6.358   5.311   1.874
 5260TIP3   OH215701   6.464   6.705   2.014
 5260TIP3    H115702   6.372   6.679   1.995
 5260TIP3    H215703   6.470   6.688   2.108
 5261TIP3   OH215704   6.641   6.739   1.560
 5261TIP3    H115705   6.593   6.814   1.520
 5261TIP3    H215706   6.728   6.753   1.516
 5262TIP3   OH215707   7.090   6.983   1.701
 5262TIP3    H115708   7.133   6.989   1.788
 5262TIP3    H215709   7.153   7.033   1.645
 5263TIP3   OH215710   7.267   7.132   1.557
 5263TIP3    H115711   7.340   7.085   1.515
 5263TIP3    H215712   7.317   7.194   1.615
 5264TIP3   OH215713   8.060   5.497   1.656
 5264TIP3    H115714   7.968   5.491   1.623
 5264TIP3    H215715   8.090   5.404   1.645
 5265TIP3   OH215716   6.317   6.995   1.583
 5265TIP3    H115717   6.228   7.029   1.560
 5265TIP3    H215718   6.327   7.033   1.671
 5266TIP3   OH215719   6.554   6.973   1.441
 5266TIP3    H115720   6.468   6.987   1.485
 5266TIP3    H215721   6.536   7.007   1.351
 5267TIP3   OH215722   6.980   7.005   1.234
 5267TIP3    H115723   6.910   7.027   1.169
 5267TIP3    H215724   6.993   7.092   1.278
 5268TIP3   OH215725   7.245   6.937   1.288
 5268TIP3    H115726   7.152   6.962   1.270
 5268TIP3    H215727   7.293   7.016   1.257
 5269TIP3   OH215728   7.434   7.123   1.204
 5269TIP3    H115729   7.412   7.205   1.154
 5269TIP3    H215730   7.469   7.064   1.133
 5270TIP3   OH215731   6.229   6.789   1.327
 5270TIP3    H115732   6.256   6.764   1.418
 5270TIP3    H215733   6.301   6.745   1.277
 5271TIP3   OH215734   6.423   6.661   1.183
 5271TIP3    H115735   6.440   6.577   1.231
 5271TIP3    H215736   6.513   6.698   1.177
 5272TIP3   OH215737   6.689   6.758   1.188
 5272TIP3    H115738   6.720   6.667   1.171
 5272TIP3    H215739   6.733   6.775   1.273
 5273TIP3   OH215740   7.262   5.410   1.270
 5273TIP3    H115741   7.221   5.341   1.325
 5273TIP3    H215742   7.338   5.364   1.230
 5274TIP3   OH215743   7.789   5.294   1.182
 5274TIP3    H115744   7.824   5.347   1.106
 5274TIP3    H215745   7.693   5.312   1.175
 5275TIP3   OH215746   7.880   5.400   0.945
 5275TIP3    H115747   7.949   5.342   0.907
 5275TIP3    H215748   7.917   5.488   0.923
 5276TIP3   OH215749   6.514   5.121   1.292
 5276TIP3    H115750   6.421   5.089   1.293
 5276TIP3    H215751   6.562   5.035   1.288
 5277TIP3   OH215752   6.308   4.989   0.938
 5277TIP3    H115753   6.332   5.047   0.864
 5277TIP3    H215754   6.272   5.052   1.002
 5278TIP3   OH215755   6.955   5.156   1.173
 5278TIP3    H115756   7.014   5.202   1.112
 5278TIP3    H215757   6.983   5.191   1.259
 5279TIP3   OH215758   7.503   5.300   1.156
 5279TIP3    H115759   7.508   5.261   1.067
 5279TIP3    H215760   7.490   5.219   1.211
 5280TIP3   OH215761   7.533   5.208   0.722
 5280TIP3    H115762   7.444   5.243   0.735
 5280TIP3    H215763   7.530   5.126   0.774
 5281TIP3   OH215764   6.014   6.553   0.729
 5281TIP3    H115765   5.926   6.532   0.694
 5281TIP3    H215766   6.009   6.649   0.735
 5282TIP3   OH215767   6.421   5.151   0.715
 5282TIP3    H115768   6.469   5.093   0.653
 5282TIP3    H215769   6.493   5.199   0.758
 5283TIP3   OH215770   6.929   5.325   0.810
 5283TIP3    H115771   6.993   5.278   0.866
 5283TIP3    H215772   6.952   5.417   0.835
 5284TIP3   OH215773   6.721   5.402   2.182
 5284TIP3    H115774   6.687   5.331   2.239
 5284TIP3    H215775   6.816   5.402   2.209
 5285TIP3   OH215776   6.970   5.399   2.300
 5285TIP3    H115777   7.056   5.374   2.262
 5285TIP3    H215778   6.959   5.329   2.369
 5286TIP3   OH215779   7.796   5.459   2.090
 5286TIP3    H115780   7.815   5.427   2.180
 5286TIP3    H215781   7.885   5.455   2.048
 5287TIP3   OH215782   7.726   7.011   1.593
 5287TIP3    H115783   7.654   6.979   1.536
 5287TIP3    H215784   7.713   7.108   1.584
 5288TIP3   OH215785   8.302   6.273   1.092
 5288TIP3    H115786   8.327   6.210   1.163
 5288TIP3    H215787   8.388   6.316   1.078
 5289TIP3   OH215788   8.040   6.542   1.280
 5289TIP3    H115789   7.979   6.510   1.212
 5289TIP3    H215790   8.078   6.459   1.318
 5290TIP3   OH215791   8.306   6.614   1.236
 5290TIP3    H115792   8.329   6.651   1.323
 5290TIP3    H215793   8.211   6.598   1.247
 5291TIP3   OH215794   8.384   6.100   1.295
 5291TIP3    H115795   8.439   6.151   1.355
 5291TIP3    H215796   8.397   6.009   1.329
 5292TIP3   OH215797   8.018   5.616   0.847
 5292TIP3    H115798   8.078   5.653   0.915
 5292TIP3    H215799   8.082   5.585   0.782
 5293TIP3   OH215800   8.148   6.345   1.429
 5293TIP3    H115801   8.205   6.334   1.508
 5293TIP3    H215802   8.114   6.256   1.414
 5294TIP3   OH215803   8.386   5.852   1.427
 5294TIP3    H115804   8.290   5.847   1.440
 5294TIP3    H215805   8.419   5.781   1.484
 5295TIP3   OH215806   8.386   5.484   1.060
 5295TIP3    H115807   8.368   5.451   0.970
 5295TIP3    H215808   8.394   5.400   1.109
 5296TIP3   OH215809   8.203   6.639   1.704
 5296TIP3    H115810   8.260   6.572   1.665
 5296TIP3    H215811   8.128   6.640   1.640
 5297TIP3   OH215812   8.350   6.365   1.651
 5297TIP3    H115813   8.407   6.288   1.657
 5297TIP3    H215814   8.363   6.406   1.739
 5298TIP3   OH215815   8.508   5.935   1.732
 5298TIP3    H115816   8.521   5.846   1.697
 5298TIP3    H215817   8.555   5.929   1.817
 5299TIP3   OH215818   8.041   6.300   1.023
 5299TIP3    H115819   8.055   6.272   0.931
 5299TIP3    H215820   8.136   6.302   1.053
 5300TIP3   OH215821   8.245   5.983   1.697
 5300TIP3    H115822   8.344   5.980   1.698
 5300TIP3    H215823   8.226   5.899   1.743
 5301TIP3   OH215824   8.212   5.691   1.031
 5301TIP3    H115825   8.266   5.610   1.045
 5301TIP3    H215826   8.280   5.758   1.045
 5302TIP3   OH215827   8.018   5.949   1.099
 5302TIP3    H115828   8.074   5.931   1.023
 5302TIP3    H215829   8.055   6.031   1.134
 5303TIP3   OH215830   8.218   5.535   1.421
 5303TIP3    H115831   8.169   5.533   1.505
 5303TIP3    H215832   8.151   5.574   1.362
 5304TIP3   OH215833   8.293   5.374   0.829
 5304TIP3    H115834   8.202   5.338   0.831
 5304TIP3    H215835   8.343   5.292   0.813
 5305TIP3   OH215836   8.529   5.652   1.668
 5305TIP3    H115837   8.508   5.585   1.736
 5305TIP3    H215838   8.624   5.641   1.656
 5306TIP3   OH215839   0.457   6.465   2.970
 5306TIP3    H115840   0.484   6.548   3.014
 5306TIP3    H215841   0.485   6.482   2.878
 5307TIP3   OH215842  -0.104   6.378   2.619
 5307TIP3    H115843  -0.030   6.380   2.683
 5307TIP3    H215844  -0.062   6.415   2.540
 5308TIP3   OH215845   0.531   6.664   3.149
 5308TIP3    H115846   0.453   6.721   3.134
 5308TIP3    H215847   0.567   6.703   3.231
 5309TIP3   OH215848   0.113   6.400   2.788
 5309TIP3    H115849   0.158   6.330   2.837
 5309TIP3    H215850   0.170   6.477   2.803
 5310TIP3   OH215851   0.254   6.359   3.129
 5310TIP3    H115852   0.189   6.430   3.127
 5310TIP3    H215853   0.321   6.390   3.064
 5311TIP3   OH215854   0.195   7.385   3.127
 5311TIP3    H115855   0.185   7.297   3.084
 5311TIP3    H215856   0.149   7.442   3.063
 5312TIP3   OH215857   0.394   7.007   2.967
 5312TIP3    H115858   0.312   7.061   2.972
 5312TIP3    H215859   0.426   7.034   2.878
 5313TIP3   OH215860   0.201   5.954   2.226
 5313TIP3    H115861   0.112   5.956   2.266
 5313TIP3    H215862   0.200   6.036   2.173
 5314TIP3   OH215863   0.460   7.706   3.195
 5314TIP3    H115864   0.456   7.610   3.213
 5314TIP3    H215865   0.366   7.728   3.190
 5315TIP3   OH215866   0.333   6.848   3.439
 5315TIP3    H115867   0.238   6.859   3.452
 5315TIP3    H215868   0.342   6.751   3.447
 5316TIP3   OH215869   0.102   6.644   3.371
 5316TIP3    H115870   0.084   6.603   3.456
 5316TIP3    H215871   0.046   6.722   3.379
 5317TIP3   OH215872   0.166   7.160   2.970
 5317TIP3    H115873   0.187   7.205   2.885
 5317TIP3    H215874   0.070   7.147   2.965
 5318TIP3   OH215875   0.238   6.550   2.183
 5318TIP3    H115876   0.232   6.482   2.116
 5318TIP3    H215877   0.234   6.635   2.134
 5319TIP3   OH215878   0.449   7.424   3.213
 5319TIP3    H115879   0.352   7.425   3.201
 5319TIP3    H215880   0.476   7.393   3.123
 5320TIP3   OH215881   0.361   6.566   3.369
 5320TIP3    H115882   0.265   6.581   3.364
 5320TIP3    H215883   0.384   6.556   3.276
 5321TIP3   OH215884  -0.009   6.765   2.776
 5321TIP3    H115885  -0.042   6.684   2.736
 5321TIP3    H215886   0.082   6.737   2.800
 5322TIP3   OH215887   0.271   6.519   3.814
 5322TIP3    H115888   0.272   6.422   3.807
 5322TIP3    H215889   0.175   6.535   3.808
 5323TIP3   OH215890   0.228   7.807   2.710
 5323TIP3    H115891   0.234   7.902   2.728
 5323TIP3    H215892   0.263   7.806   2.619
 5324TIP3   OH215893   0.260   7.792   2.995
 5324TIP3    H115894   0.221   7.772   2.908
 5324TIP3    H215895   0.352   7.765   2.981
 5325TIP3   OH215896   0.331   7.526   3.483
 5325TIP3    H115897   0.243   7.531   3.524
 5325TIP3    H215898   0.368   7.614   3.507
 5326TIP3   OH215899   0.261   6.898   2.335
 5326TIP3    H115900   0.204   6.848   2.398
 5326TIP3    H215901   0.316   6.951   2.395
 5327TIP3   OH215902   0.296   7.288   2.767
 5327TIP3    H115903   0.352   7.225   2.718
 5327TIP3    H215904   0.313   7.372   2.717
 5328TIP3   OH215905   0.113   6.739   2.498
 5328TIP3    H115906   0.088   6.648   2.475
 5328TIP3    H215907   0.032   6.776   2.535
 5329TIP3   OH215908   0.347   7.186   3.351
 5329TIP3    H115909   0.415   7.116   3.337
 5329TIP3    H215910   0.370   7.250   3.282
 5330TIP3   OH215911   0.541   6.993   3.352
 5330TIP3    H115912   0.468   6.938   3.388
 5330TIP3    H215913   0.617   6.934   3.368
 5331TIP3   OH215914   0.062   6.478   2.401
 5331TIP3    H115915   0.095   6.386   2.405
 5331TIP3    H215916   0.117   6.512   2.328
 5332TIP3   OH215917   0.226   6.650   2.872
 5332TIP3    H115918   0.312   6.673   2.830
 5332TIP3    H215919   0.241   6.691   2.960
 5333TIP3   OH215920   0.291   6.794   3.101
 5333TIP3    H115921   0.216   6.837   3.144
 5333TIP3    H215922   0.331   6.870   3.053
 5334TIP3   OH215923   0.746   6.384   3.664
 5334TIP3    H115924   0.803   6.316   3.622
 5334TIP3    H215925   0.715   6.435   3.586
 5335TIP3   OH215926   0.173   6.224   2.415
 5335TIP3    H115927   0.218   6.207   2.500
 5335TIP3    H215928   0.112   6.147   2.412
 5336TIP3   OH215929   0.619   6.520   3.466
 5336TIP3    H115930   0.540   6.564   3.503
 5336TIP3    H215931   0.576   6.454   3.409
 5337TIP3   OH215932   0.255   6.163   2.045
 5337TIP3    H115933   0.282   6.089   1.987
 5337TIP3    H215934   0.332   6.222   2.043
 5338TIP3   OH215935   0.520   6.283   3.335
 5338TIP3    H115936   0.425   6.274   3.315
 5338TIP3    H215937   0.548   6.189   3.331
 5339TIP3   OH215938   0.242   6.092   2.878
 5339TIP3    H115939   0.280   6.132   2.796
 5339TIP3    H215940   0.146   6.097   2.861
 5340TIP3   OH215941   0.335   6.179   2.638
 5340TIP3    H115942   0.406   6.126   2.595
 5340TIP3    H215943   0.370   6.270   2.621
 5341TIP3   OH215944  -0.037   6.094   2.851
 5341TIP3    H115945  -0.052   6.084   2.756
 5341TIP3    H215946  -0.052   6.003   2.884
 5342TIP3   OH215947  -0.008   6.008   2.413
 5342TIP3    H115948  -0.102   6.029   2.404
 5342TIP3    H215949  -0.013   5.915   2.443
 5343TIP3   OH215950   0.249   6.247   3.778
 5343TIP3    H115951   0.261   6.221   3.873
 5343TIP3    H215952   0.339   6.237   3.744
 5344TIP3   OH215953   1.400   7.171   2.440
 5344TIP3    H115954   1.475   7.139   2.492
 5344TIP3    H215955   1.432   7.156   2.348
 5345TIP3   OH215956   0.752   7.073   2.786
 5345TIP3    H115957   0.790   7.006   2.845
 5345TIP3    H215958   0.830   7.125   2.763
 5346TIP3   OH215959   1.701   7.474   2.086
 5346TIP3    H115960   1.655   7.399   2.126
 5346TIP3    H215961   1.722   7.531   2.162
 5347TIP3   OH215962   0.725   7.478   2.510
 5347TIP3    H115963   0.718   7.380   2.514
 5347TIP3    H215964   0.822   7.487   2.498
 5348TIP3   OH215965   0.441   6.690   2.302
 5348TIP3    H115966   0.393   6.775   2.314
 5348TIP3    H215967   0.364   6.632   2.286
 5349TIP3   OH215968   0.494   6.973   2.471
 5349TIP3    H115969   0.540   6.892   2.503
 5349TIP3    H215970   0.548   6.998   2.395
 5350TIP3   OH215971   1.355   7.924   2.152
 5350TIP3    H115972   1.386   7.873   2.075
 5350TIP3    H215973   1.357   7.855   2.220
 5351TIP3   OH215974   1.246   7.401   2.471
 5351TIP3    H115975   1.282   7.314   2.443
 5351TIP3    H215976   1.331   7.447   2.485
 5352TIP3   OH215977   1.665   6.899   2.503
 5352TIP3    H115978   1.703   6.812   2.522
 5352TIP3    H215979   1.629   6.882   2.413
 5353TIP3   OH215980   1.000   6.555   2.471
 5353TIP3    H115981   0.984   6.630   2.410
 5353TIP3    H215982   0.952   6.485   2.420
 5354TIP3   OH215983   1.694   6.647   2.083
 5354TIP3    H115984   1.765   6.635   2.150
 5354TIP3    H215985   1.745   6.687   2.010
 5355TIP3   OH215986   0.635   6.759   2.573
 5355TIP3    H115987   0.719   6.741   2.619
 5355TIP3    H215988   0.648   6.705   2.493
 5356TIP3   OH215989   1.075   6.958   2.369
 5356TIP3    H115990   1.170   6.936   2.375
 5356TIP3    H215991   1.040   6.873   2.333
 5357TIP3   OH215992   2.324   6.897   2.594
 5357TIP3    H115993   2.240   6.949   2.595
 5357TIP3    H215994   2.345   6.906   2.689
 5358TIP3   OH215995   1.373   7.430   1.884
 5358TIP3    H115996   1.323   7.366   1.830
 5358TIP3    H215997   1.301   7.486   1.920
 5359TIP3   OH215998   1.106   7.317   2.694
 5359TIP3    H115999   1.044   7.385   2.731
 5359TIP3    H216000   1.147   7.366   2.620
 5360TIP3   OH216001   1.906   6.652   2.257
 5360TIP3    H116002   1.884   6.602   2.337
 5360TIP3    H216003   1.954   6.728   2.293
 5361TIP3   OH216004   0.867   6.652   2.689
 5361TIP3    H116005   0.929   6.722   2.719
 5361TIP3    H216006   0.916   6.617   2.612
 5362TIP3   OH216007   0.932   7.509   2.794
 5362TIP3    H116008   0.907   7.593   2.752
 5362TIP3    H216009   0.852   7.494   2.849
 5363TIP3   OH216010   1.760   7.703   2.272
 5363TIP3    H116011   1.668   7.701   2.307
 5363TIP3    H216012   1.758   7.788   2.222
 5364TIP3   OH216013   2.047   6.636   2.619
 5364TIP3    H116014   1.953   6.647   2.638
 5364TIP3    H216015   2.047   6.650   2.523
 5365TIP3   OH216016   1.351   6.258   2.608
 5365TIP3    H116017   1.346   6.163   2.626
 5365TIP3    H216018   1.279   6.292   2.665
 5366TIP3   OH216019   1.472   7.747   1.961
 5366TIP3    H116020   1.508   7.657   1.954
 5366TIP3    H216021   1.548   7.796   1.926
 5367TIP3   OH216022   1.623   7.545   1.835
 5367TIP3    H116023   1.546   7.485   1.830
 5367TIP3    H216024   1.664   7.514   1.918
 5368TIP3   OH216025   1.994   7.625   2.615
 5368TIP3    H116026   1.983   7.546   2.557
 5368TIP3    H216027   1.976   7.697   2.551
 5369TIP3   OH216028   1.268   6.996   1.851
 5369TIP3    H116029   1.206   7.071   1.845
 5369TIP3    H216030   1.333   7.019   1.783
 5370TIP3   OH216031   1.239   6.800   1.598
 5370TIP3    H116032   1.298   6.854   1.653
 5370TIP3    H216033   1.304   6.750   1.544
 5371TIP3   OH216034   2.188   7.262   2.451
 5371TIP3    H116035   2.105   7.316   2.460
 5371TIP3    H216036   2.219   7.295   2.364
 5372TIP3   OH216037   1.620   7.115   1.854
 5372TIP3    H116038   1.574   7.134   1.938
 5372TIP3    H216039   1.706   7.086   1.890
 5373TIP3   OH216040   1.871   7.146   2.751
 5373TIP3    H116041   1.865   7.229   2.801
 5373TIP3    H216042   1.784   7.147   2.706
 5374TIP3   OH216043   0.862   7.101   2.262
 5374TIP3    H116044   0.824   7.042   2.193
 5374TIP3    H216045   0.941   7.051   2.292
 5375TIP3   OH216046   0.994   7.510   2.414
 5375TIP3    H116047   0.970   7.475   2.326
 5375TIP3    H216048   1.085   7.474   2.425
 5376TIP3   OH216049   0.999   7.074   2.614
 5376TIP3    H116050   1.033   7.050   2.525
 5376TIP3    H216051   1.045   7.159   2.630
 5377TIP3   OH216052   1.514   7.713   2.385
 5377TIP3    H116053   1.510   7.793   2.440
 5377TIP3    H216054   1.507   7.640   2.450
 5378TIP3   OH216055   1.137   7.632   2.937
 5378TIP3    H116056   1.077   7.694   2.984
 5378TIP3    H216057   1.072   7.579   2.887
 5379TIP3   OH216058   1.479   6.963   1.671
 5379TIP3    H116059   1.531   7.028   1.722
 5379TIP3    H216060   1.507   6.983   1.579
 5380TIP3   OH216061   0.894   7.183   3.041
 5380TIP3    H116062   0.900   7.271   3.082
 5380TIP3    H216063   0.797   7.169   3.046
 5381TIP3   OH216064   1.203   7.644   1.944
 5381TIP3    H116065   1.288   7.688   1.963
 5381TIP3    H216066   1.151   7.719   1.909
 5382TIP3   OH216067   0.933   7.806   3.025
 5382TIP3    H116068   0.898   7.799   2.934
 5382TIP3    H216069   0.861   7.768   3.079
 5383TIP3   OH216070   1.987   6.207   1.713
 5383TIP3    H116071   1.906   6.227   1.765
 5383TIP3    H216072   2.000   6.290   1.663
 5384TIP3   OH216073   0.725   6.946   2.066
 5384TIP3    H116074   0.670   7.001   2.008
 5384TIP3    H216075   0.675   6.863   2.069
 5385TIP3   OH216076   1.786   7.559   1.247
 5385TIP3    H116077   1.790   7.655   1.267
 5385TIP3    H216078   1.881   7.534   1.250
 5386TIP3   OH216079   0.511   7.329   2.969
 5386TIP3    H116080   0.452   7.308   2.895
 5386TIP3    H216081   0.551   7.242   2.991
 5387TIP3   OH216082   0.372   7.519   2.638
 5387TIP3    H116083   0.447   7.527   2.579
 5387TIP3    H216084   0.336   7.609   2.636
 5388TIP3   OH216085   2.249   7.965   2.666
 5388TIP3    H116086   2.242   7.869   2.685
 5388TIP3    H216087   2.167   7.997   2.711
 5389TIP3   OH216088   1.339   7.743   2.788
 5389TIP3    H116089   1.345   7.837   2.815
 5389TIP3    H216090   1.263   7.712   2.842
 5390TIP3   OH216091   1.303   7.778   1.671
 5390TIP3    H116092   1.292   7.845   1.740
 5390TIP3    H216093   1.372   7.722   1.708
 5391TIP3   OH216094   2.119   7.108   2.934
 5391TIP3    H116095   2.038   7.121   2.883
 5391TIP3    H216096   2.136   7.013   2.921
 5392TIP3   OH216097   0.713   7.516   2.957
 5392TIP3    H116098   0.762   7.505   3.041
 5392TIP3    H216099   0.643   7.448   2.966
 5393TIP3   OH216100   1.109   6.349   2.745
 5393TIP3    H116101   1.019   6.314   2.729
 5393TIP3    H216102   1.106   6.431   2.695
 5394TIP3   OH216103   1.653   6.453   2.937
 5394TIP3    H116104   1.723   6.424   2.998
 5394TIP3    H216105   1.571   6.431   2.985
 5395TIP3   OH216106   1.885   6.880   2.852
 5395TIP3    H116107   1.837   6.878   2.937
 5395TIP3    H216108   1.864   6.969   2.817
 5396TIP3   OH216109   1.568   6.999   1.419
 5396TIP3    H116110   1.537   6.979   1.329
 5396TIP3    H216111   1.614   7.084   1.406
 5397TIP3   OH216112   1.245   6.392   1.706
 5397TIP3    H116113   1.226   6.388   1.801
 5397TIP3    H216114   1.219   6.301   1.680
 5398TIP3   OH216115   1.044   6.849   2.761
 5398TIP3    H116116   0.998   6.878   2.842
 5398TIP3    H216117   1.032   6.928   2.704
 5399TIP3   OH216118   0.934   6.735   2.277
 5399TIP3    H116119   0.841   6.712   2.292
 5399TIP3    H216120   0.947   6.696   2.187
 5400TIP3   OH216121   1.413   6.812   1.994
 5400TIP3    H116122   1.363   6.891   1.964
 5400TIP3    H216123   1.473   6.798   1.919
 5401TIP3   OH216124   1.596   7.104   3.087
 5401TIP3    H116125   1.576   7.030   3.149
 5401TIP3    H216126   1.690   7.119   3.108
 5402TIP3   OH216127   1.568   6.838   2.260
 5402TIP3    H116128   1.546   6.919   2.209
 5402TIP3    H216129   1.585   6.774   2.188
 5403TIP3   OH216130   0.865   6.892   2.972
 5403TIP3    H116131   0.902   6.963   3.026
 5403TIP3    H216132   0.806   6.847   3.033
 5404TIP3   OH216133   0.904   6.345   1.674
 5404TIP3    H116134   0.906   6.350   1.772
 5404TIP3    H216135   0.827   6.402   1.655
 5405TIP3   OH216136   0.460   6.403   2.559
 5405TIP3    H116137   0.539   6.440   2.603
 5405TIP3    H216138   0.493   6.372   2.473
 5406TIP3   OH216139   0.439   6.375   2.087
 5406TIP3    H116140   0.480   6.412   2.006
 5406TIP3    H216141   0.418   6.458   2.132
 5407TIP3   OH216142   1.600   7.099   2.671
 5407TIP3    H116143   1.627   7.028   2.608
 5407TIP3    H216144   1.562   7.045   2.744
 5408TIP3   OH216145   1.259   6.547   2.335
 5408TIP3    H116146   1.178   6.559   2.388
 5408TIP3    H216147   1.326   6.584   2.394
 5409TIP3   OH216148   0.695   6.614   2.349
 5409TIP3    H116149   0.602   6.629   2.319
 5409TIP3    H216150   0.715   6.524   2.318
 5410TIP3   OH216151   0.962   6.612   2.032
 5410TIP3    H116152   1.057   6.628   2.017
 5410TIP3    H216153   0.919   6.640   1.948
 5411TIP3   OH216154   1.754   6.635   2.539
 5411TIP3    H116155   1.715   6.648   2.628
 5411TIP3    H216156   1.687   6.576   2.499
 5412TIP3   OH216157   0.808   6.656   1.808
 5412TIP3    H116158   0.743   6.599   1.764
 5412TIP3    H216159   0.859   6.690   1.732
 5413TIP3   OH216160   0.882   7.428   3.177
 5413TIP3    H116161   0.960   7.463   3.223
 5413TIP3    H216162   0.814   7.443   3.246
 5414TIP3   OH216163   1.330   6.846   2.425
 5414TIP3    H116164   1.406   6.857   2.365
 5414TIP3    H216165   1.373   6.844   2.511
 5415TIP3   OH216166   0.866   6.379   2.308
 5415TIP3    H116167   0.835   6.297   2.352
 5415TIP3    H216168   0.921   6.345   2.237
 5416TIP3   OH216169   1.321   6.777   2.747
 5416TIP3    H116170   1.237   6.825   2.734
 5416TIP3    H216171   1.381   6.847   2.779
 5417TIP3   OH216172   1.066   7.178   1.819
 5417TIP3    H116173   0.998   7.108   1.812
 5417TIP3    H216174   1.043   7.216   1.907
 5418TIP3   OH216175   1.958   7.409   2.451
 5418TIP3    H116176   1.976   7.461   2.369
 5418TIP3    H216177   1.872   7.366   2.429
 5419TIP3   OH216178   1.508   6.486   1.681
 5419TIP3    H116179   1.411   6.480   1.683
 5419TIP3    H216180   1.526   6.581   1.701
 5420TIP3   OH216181   1.459   7.492   2.815
 5420TIP3    H116182   1.480   7.476   2.907
 5420TIP3    H216183   1.413   7.578   2.817
 5421TIP3   OH216184   1.586   6.732   1.775
 5421TIP3    H116185   1.681   6.746   1.797
 5421TIP3    H216186   1.562   6.816   1.730
 5422TIP3   OH216187   0.747   7.198   2.495
 5422TIP3    H116188   0.783   7.173   2.407
 5422TIP3    H216189   0.793   7.135   2.552
 5423TIP3   OH216190   1.231   7.334   1.650
 5423TIP3    H116191   1.185   7.418   1.658
 5423TIP3    H216192   1.166   7.271   1.685
 5424TIP3   OH216193   0.628   7.118   3.106
 5424TIP3    H116194   0.648   7.109   3.202
 5424TIP3    H216195   0.555   7.054   3.096
 5425TIP3   OH216196   1.355   7.233   3.126
 5425TIP3    H116197   1.299   7.178   3.070
 5425TIP3    H216198   1.444   7.200   3.100
 5426TIP3   OH216199   1.614   7.768   2.702
 5426TIP3    H116200   1.519   7.747   2.714
 5426TIP3    H216201   1.634   7.807   2.790
 5427TIP3   OH216202   2.027   6.827   1.619
 5427TIP3    H116203   1.966   6.782   1.557
 5427TIP3    H216204   2.021   6.917   1.579
 5428TIP3   OH216205   2.243   7.685   2.700
 5428TIP3    H116206   2.145   7.678   2.692
 5428TIP3    H216207   2.269   7.654   2.610
 5429TIP3   OH216208   1.737   7.625   1.526
 5429TIP3    H116209   1.695   7.577   1.599
 5429TIP3    H216210   1.712   7.572   1.449
 5430TIP3   OH216211   1.730   7.271   2.382
 5430TIP3    H116212   1.639   7.262   2.349
 5430TIP3    H216213   1.770   7.204   2.325
 5431TIP3   OH216214   0.859   7.483   2.170
 5431TIP3    H116215   0.877   7.553   2.104
 5431TIP3    H216216   0.769   7.505   2.200
 5432TIP3   OH216217   0.984   7.260   2.062
 5432TIP3    H116218   0.955   7.348   2.090
 5432TIP3    H216219   0.956   7.207   2.139
 5433TIP3   OH216220   1.105   7.840   2.600
 5433TIP3    H116221   1.121   7.927   2.558
 5433TIP3    H216222   1.194   7.811   2.626
 5434TIP3   OH216223   1.510   7.480   2.546
 5434TIP3    H116224   1.498   7.473   2.643
 5434TIP3    H216225   1.585   7.420   2.532
 5435TIP3   OH216226   1.477   7.327   1.436
 5435TIP3    H116227   1.533   7.318   1.517
 5435TIP3    H216228   1.389   7.337   1.477
 5436TIP3   OH216229   1.774   7.986   2.599
 5436TIP3    H116230   1.708   7.918   2.623
 5436TIP3    H216231   1.716   8.061   2.575
 5437TIP3   OH216232   1.798   7.832   1.267
 5437TIP3    H116233   1.866   7.903   1.264
 5437TIP3    H216234   1.717   7.882   1.281
 5438TIP3   OH216235   1.646   7.298   1.644
 5438TIP3    H116236   1.629   7.248   1.726
 5438TIP3    H216237   1.743   7.301   1.643
 5439TIP3   OH216238   0.580   7.734   2.766
 5439TIP3    H116239   0.595   7.639   2.769
 5439TIP3    H216240   0.616   7.760   2.852
 5440TIP3   OH216241   1.676   6.689   2.796
 5440TIP3    H116242   1.753   6.731   2.837
 5440TIP3    H216243   1.664   6.608   2.851
 5441TIP3   OH216244   1.554   6.440   1.960
 5441TIP3    H116245   1.541   6.464   1.867
 5441TIP3    H216246   1.592   6.522   1.997
 5442TIP3   OH216247   1.239   6.618   2.063
 5442TIP3    H116248   1.304   6.689   2.039
 5442TIP3    H216249   1.252   6.614   2.160
 5443TIP3   OH216250   1.513   6.938   2.873
 5443TIP3    H116251   1.535   6.994   2.950
 5443TIP3    H216252   1.571   6.861   2.887
 5444TIP3   OH216253   1.389   6.347   2.165
 5444TIP3    H116254   1.375   6.424   2.223
 5444TIP3    H216255   1.450   6.384   2.098
 5445TIP3   OH216256   0.905   6.349   1.954
 5445TIP3    H116257   0.904   6.440   1.989
 5445TIP3    H216258   1.001   6.329   1.962
 5446TIP3   OH216259   2.155   6.846   2.845
 5446TIP3    H116260   2.058   6.841   2.860
 5446TIP3    H216261   2.162   6.791   2.766
 5447TIP3   OH216262   1.842   7.025   2.240
 5447TIP3    H116263   1.744   7.023   2.238
 5447TIP3    H216264   1.864   6.954   2.303
 5448TIP3   OH216265   0.489   6.523   1.873
 5448TIP3    H116266   0.476   6.607   1.826
 5448TIP3    H216267   0.479   6.460   1.799
 5449TIP3   OH216268   1.771   7.958   2.179
 5449TIP3    H116269   1.736   8.042   2.145
 5449TIP3    H216270   1.866   7.981   2.184
 5450TIP3   OH216271   0.849   6.257   2.721
 5450TIP3    H116272   0.820   6.228   2.631
 5450TIP3    H216273   0.839   6.175   2.772
 5451TIP3   OH216274   0.619   7.951   3.144
 5451TIP3    H116275   0.688   7.971   3.211
 5451TIP3    H216276   0.583   7.868   3.179
 5452TIP3   OH216277   1.042   7.987   3.209
 5452TIP3    H116278   1.129   7.947   3.220
 5452TIP3    H216279   1.006   7.932   3.136
 5453TIP3   OH216280   1.654   7.884   2.945
 5453TIP3    H116281   1.649   7.815   3.015
 5453TIP3    H216282   1.737   7.931   2.969
 5454TIP3   OH216283   0.678   7.425   3.369
 5454TIP3    H116284   0.696   7.329   3.374
 5454TIP3    H216285   0.592   7.426   3.322
 5455TIP3   OH216286   1.284   7.508   3.143
 5455TIP3    H116287   1.244   7.526   3.056
 5455TIP3    H216288   1.316   7.416   3.134
 5456TIP3   OH216289   1.777   7.518   2.753
 5456TIP3    H116290   1.852   7.561   2.707
 5456TIP3    H216291   1.705   7.578   2.731
 5457TIP3   OH216292   0.798   7.153   3.352
 5457TIP3    H116293   0.881   7.109   3.328
 5457TIP3    H216294   0.822   7.191   3.439
 5458TIP3   OH216295   0.861   6.984   1.792
 5458TIP3    H116296   0.847   6.933   1.873
 5458TIP3    H216297   0.899   6.917   1.732
 5459TIP3   OH216298   1.131   7.040   3.008
 5459TIP3    H116299   1.057   7.104   3.012
 5459TIP3    H216300   1.184   7.075   2.933
 5460TIP3   OH216301   0.966   6.771   1.613
 5460TIP3    H116302   0.975   6.765   1.517
 5460TIP3    H216303   1.061   6.781   1.635
 5461TIP3   OH216304   1.647   7.444   3.148
 5461TIP3    H116305   1.727   7.422   3.098
 5461TIP3    H216306   1.647   7.377   3.218
 5462TIP3   OH216307   1.799   7.110   1.268
 5462TIP3    H116308   1.756   7.054   1.201
 5462TIP3    H216309   1.750   7.194   1.256
 5463TIP3   OH216310   1.249   6.830   3.140
 5463TIP3    H116311   1.253   6.752   3.082
 5463TIP3    H216312   1.210   6.898   3.080
 5464TIP3   OH216313   1.240   6.609   2.943
 5464TIP3    H116314   1.295   6.658   2.878
 5464TIP3    H216315   1.156   6.611   2.896
 5465TIP3   OH216316   1.285   7.153   2.819
 5465TIP3    H116317   1.366   7.160   2.766
 5465TIP3    H216318   1.227   7.219   2.774
 5466TIP3   OH216319   1.865   7.120   3.200
 5466TIP3    H116320   1.915   7.038   3.213
 5466TIP3    H216321   1.933   7.180   3.166
 5467TIP3   OH216322   1.908   7.372   2.937
 5467TIP3    H116323   1.849   7.425   2.879
 5467TIP3    H216324   1.995   7.393   2.897
 5468TIP3   OH216325   1.128   6.944   3.370
 5468TIP3    H116326   1.061   6.874   3.382
 5468TIP3    H216327   1.165   6.920   3.283
 5469TIP3   OH216328   1.390   6.381   3.013
 5469TIP3    H116329   1.336   6.460   2.988
 5469TIP3    H216330   1.326   6.309   3.000
 5470TIP3   OH216331   1.515   6.886   3.230
 5470TIP3    H116332   1.512   6.874   3.326
 5470TIP3    H216333   1.424   6.861   3.206
 5471TIP3   OH216334   1.753   6.833   3.082
 5471TIP3    H116335   1.680   6.836   3.147
 5471TIP3    H216336   1.828   6.804   3.138
 5472TIP3   OH216337   1.978   6.774   3.233
 5472TIP3    H116338   1.995   6.679   3.251
 5472TIP3    H216339   1.978   6.813   3.323
 5473TIP3   OH216340   0.969   6.720   3.420
 5473TIP3    H116341   0.982   6.628   3.391
 5473TIP3    H216342   1.008   6.715   3.510
 5474TIP3   OH216343   1.481   6.390   3.272
 5474TIP3    H116344   1.551   6.322   3.269
 5474TIP3    H216345   1.447   6.383   3.180
 5475TIP3   OH216346   1.548   6.606   3.430
 5475TIP3    H116347   1.528   6.534   3.366
 5475TIP3    H216348   1.470   6.664   3.422
 5476TIP3   OH216349   2.019   8.063   2.172
 5476TIP3    H116350   2.053   8.122   2.241
 5476TIP3    H216351   2.062   8.102   2.093
 5477TIP3   OH216352   2.085   8.070   2.457
 5477TIP3    H116353   2.027   7.994   2.436
 5477TIP3    H216354   2.150   8.027   2.514
 5478TIP3   OH216355   2.097   7.771   2.998
 5478TIP3    H116356   2.026   7.781   3.064
 5478TIP3    H216357   2.144   7.857   3.006
 5479TIP3   OH216358   1.923   7.288   1.621
 5479TIP3    H116359   1.990   7.354   1.594
 5479TIP3    H216360   1.965   7.250   1.701
 5480TIP3   OH216361   2.049   7.156   1.824
 5480TIP3    H116362   1.979   7.114   1.879
 5480TIP3    H216363   2.107   7.199   1.891
 5481TIP3   OH216364   2.102   7.547   2.262
 5481TIP3    H116365   2.150   7.485   2.205
 5481TIP3    H216366   2.099   7.627   2.205
 5482TIP3   OH216367   1.938   7.831   2.445
 5482TIP3    H116368   1.867   7.882   2.491
 5482TIP3    H216369   1.886   7.785   2.375
 5483TIP3   OH216370   1.986   7.065   1.470
 5483TIP3    H116371   1.916   7.069   1.401
 5483TIP3    H216372   1.957   7.140   1.527
 5484TIP3   OH216373   1.862   6.737   1.423
 5484TIP3    H116374   1.806   6.776   1.355
 5484TIP3    H216375   1.836   6.642   1.416
 5485TIP3   OH216376   1.862   7.016   1.967
 5485TIP3    H116377   1.863   6.919   1.963
 5485TIP3    H216378   1.852   7.031   2.064
 5486TIP3   OH216379   0.487   7.087   2.722
 5486TIP3    H116380   0.485   7.058   2.629
 5486TIP3    H216381   0.584   7.091   2.737
 5487TIP3   OH216382   2.151   7.438   2.828
 5487TIP3    H116383   2.224   7.373   2.819
 5487TIP3    H216384   2.176   7.508   2.765
 5488TIP3   OH216385   2.336   7.242   2.842
 5488TIP3    H116386   2.262   7.193   2.884
 5488TIP3    H216387   2.409   7.178   2.854
 5489TIP3   OH216388   1.799   6.472   1.410
 5489TIP3    H116389   1.873   6.440   1.466
 5489TIP3    H216390   1.725   6.413   1.434
 5490TIP3   OH216391   1.859   6.731   1.869
 5490TIP3    H116392   1.897   6.641   1.883
 5490TIP3    H216393   1.917   6.763   1.798
 5491TIP3   OH216394   2.045   6.866   2.382
 5491TIP3    H116395   2.101   6.919   2.323
 5491TIP3    H216396   2.038   6.927   2.460
 5492TIP3   OH216397   2.088   7.047   2.588
 5492TIP3    H116398   2.012   7.078   2.640
 5492TIP3    H216399   2.120   7.131   2.549
 5493TIP3   OH216400   0.704   6.772   3.382
 5493TIP3    H116401   0.801   6.768   3.394
 5493TIP3    H216402   0.677   6.691   3.429
 5494TIP3   OH216403   2.537   6.639   3.148
 5494TIP3    H116404   2.597   6.571   3.110
 5494TIP3    H216405   2.512   6.691   3.069
 5495TIP3   OH216406   1.967   6.479   1.904
 5495TIP3    H116407   2.013   6.461   1.988
 5495TIP3    H216408   1.905   6.403   1.901
 5496TIP3   OH216409   0.668   6.468   2.739
 5496TIP3    H116410   0.728   6.392   2.733
 5496TIP3    H216411   0.730   6.542   2.725
 5497TIP3   OH216412   0.473   6.739   2.800
 5497TIP3    H116413   0.520   6.732   2.714
 5497TIP3    H216414   0.492   6.831   2.823
 5498TIP3   OH216415   2.411   6.779   2.948
 5498TIP3    H116416   2.326   6.817   2.978
 5498TIP3    H216417   2.378   6.701   2.900
 5499TIP3   OH216418   2.048   6.415   1.536
 5499TIP3    H116419   2.085   6.342   1.484
 5499TIP3    H216420   2.116   6.484   1.527
 5500TIP3   OH216421   0.451   6.241   2.319
 5500TIP3    H116422   0.356   6.231   2.338
 5500TIP3    H216423   0.450   6.289   2.234
 5501TIP3   OH216424   1.671   7.927   1.834
 5501TIP3    H116425   1.718   7.879   1.762
 5501TIP3    H216426   1.740   7.988   1.863
 5502TIP3   OH216427   0.663   6.369   3.117
 5502TIP3    H116428   0.610   6.336   3.193
 5502TIP3    H216429   0.589   6.383   3.052
 5503TIP3   OH216430   0.740   7.699   3.200
 5503TIP3    H116431   0.645   7.689   3.183
 5503TIP3    H216432   0.742   7.723   3.294
 5504TIP3   OH216433   0.885   7.783   2.748
 5504TIP3    H116434   0.818   7.815   2.686
 5504TIP3    H216435   0.968   7.797   2.696
 5505TIP3   OH216436   1.369   8.009   2.852
 5505TIP3    H116437   1.367   8.012   2.949
 5505TIP3    H216438   1.448   8.062   2.835
 5506TIP3   OH216439   2.310   6.541   2.842
 5506TIP3    H116440   2.223   6.529   2.802
 5506TIP3    H216441   2.354   6.458   2.816
 5507TIP3   OH216442   1.472   7.989   2.463
 5507TIP3    H116443   1.388   8.027   2.433
 5507TIP3    H216444   1.527   8.068   2.472
 5508TIP3   OH216445   0.439   7.783   2.523
 5508TIP3    H116446   0.494   7.779   2.604
 5508TIP3    H216447   0.505   7.809   2.457
 5509TIP3   OH216448   0.671   7.697   2.347
 5509TIP3    H116449   0.679   7.622   2.411
 5509TIP3    H216450   0.764   7.729   2.346
 5510TIP3   OH216451   0.928   7.783   2.373
 5510TIP3    H116452   0.970   7.695   2.371
 5510TIP3    H216453   0.989   7.830   2.431
 5511TIP3   OH216454   1.524   6.458   2.460
 5511TIP3    H116455   1.471   6.387   2.499
 5511TIP3    H216456   1.589   6.409   2.406
 5512TIP3   OH216457   2.035   6.354   2.367
 5512TIP3    H116458   2.071   6.394   2.285
 5512TIP3    H216459   1.939   6.359   2.352
 5513TIP3   OH216460   2.131   6.435   2.122
 5513TIP3    H116461   2.203   6.381   2.083
 5513TIP3    H216462   2.167   6.525   2.107
 5514TIP3   OH216463   0.762   6.166   2.474
 5514TIP3    H116464   0.669   6.136   2.472
 5514TIP3    H216465   0.809   6.080   2.468
 5515TIP3   OH216466   0.547   6.029   2.115
 5515TIP3    H116467   0.586   6.086   2.045
 5515TIP3    H216468   0.519   6.094   2.181
 5516TIP3   OH216469   1.205   6.200   2.352
 5516TIP3    H116470   1.257   6.248   2.285
 5516TIP3    H216471   1.243   6.235   2.434
 5517TIP3   OH216472   1.755   6.342   2.331
 5517TIP3    H116473   1.754   6.304   2.242
 5517TIP3    H216474   1.741   6.263   2.387
 5518TIP3   OH216475   1.782   6.268   1.894
 5518TIP3    H116476   1.695   6.310   1.906
 5518TIP3    H216477   1.768   6.183   1.941
 5519TIP3   OH216478   0.685   6.179   1.909
 5519TIP3    H116479   0.730   6.123   1.843
 5519TIP3    H216480   0.757   6.240   1.935
 5520TIP3   OH216481   1.181   6.368   1.977
 5520TIP3    H116482   1.242   6.322   2.037
 5520TIP3    H216483   1.200   6.461   2.003
 5521TIP3   OH216484   1.766   7.890   1.571
 5521TIP3    H116485   1.765   7.792   1.561
 5521TIP3    H216486   1.801   7.917   1.485
 5522TIP3   OH216487   0.972   6.434   3.344
 5522TIP3    H116488   0.936   6.376   3.414
 5522TIP3    H216489   1.065   6.441   3.377
 5523TIP3   OH216490   1.217   6.441   3.474
 5523TIP3    H116491   1.306   6.420   3.440
 5523TIP3    H216492   1.208   6.373   3.544
 5524TIP3   OH216493   2.044   6.505   3.267
 5524TIP3    H116494   2.064   6.469   3.357
 5524TIP3    H216495   2.132   6.500   3.225
 5525TIP3   OH216496   2.001   8.063   2.750
 5525TIP3    H116497   1.931   8.015   2.702
 5525TIP3    H216498   1.965   8.152   2.747
 5526TIP3   OH216499   3.253   7.431   1.526
 5526TIP3    H116500   3.221   7.522   1.533
 5526TIP3    H216501   3.175   7.384   1.489
 5527TIP3   OH216502   3.245   7.428   1.905
 5527TIP3    H116503   3.280   7.403   1.992
 5527TIP3    H216504   3.206   7.345   1.875
 5528TIP3   OH216505   2.550   7.324   2.267
 5528TIP3    H116506   2.580   7.258   2.333
 5528TIP3    H216507   2.625   7.385   2.267
 5529TIP3   OH216508   3.474   7.742   1.591
 5529TIP3    H116509   3.481   7.664   1.646
 5529TIP3    H216510   3.520   7.809   1.645
 5530TIP3   OH216511   2.519   7.736   1.997
 5530TIP3    H116512   2.509   7.639   1.999
 5530TIP3    H216513   2.615   7.744   1.990
 5531TIP3   OH216514   2.226   6.937   1.783
 5531TIP3    H116515   2.176   7.020   1.797
 5531TIP3    H216516   2.157   6.883   1.741
 5532TIP3   OH216517   2.288   7.226   1.954
 5532TIP3    H116518   2.335   7.146   1.986
 5532TIP3    H216519   2.342   7.252   1.878
 5533TIP3   OH216520   3.138   8.173   1.630
 5533TIP3    H116521   3.188   8.119   1.567
 5533TIP3    H216522   3.148   8.122   1.712
 5534TIP3   OH216523   3.049   7.655   1.951
 5534TIP3    H116524   3.089   7.575   1.912
 5534TIP3    H216525   3.132   7.701   1.976
 5535TIP3   OH216526   4.061   6.977   1.951
 5535TIP3    H116527   4.091   7.059   1.995
 5535TIP3    H216528   4.078   6.997   1.858
 5536TIP3   OH216529   3.460   7.158   1.986
 5536TIP3    H116530   3.502   7.072   2.007
 5536TIP3    H216531   3.429   7.141   1.895
 5537TIP3   OH216532   2.794   6.815   1.952
 5537TIP3    H116533   2.777   6.887   1.888
 5537TIP3    H216534   2.751   6.740   1.906
 5538TIP3   OH216535   3.492   6.909   1.573
 5538TIP3    H116536   3.563   6.891   1.638
 5538TIP3    H216537   3.545   6.942   1.499
 5539TIP3   OH216538   2.427   7.013   2.058
 5539TIP3    H116539   2.514   7.000   2.101
 5539TIP3    H216540   2.442   6.962   1.975
 5540TIP3   OH216541   2.873   7.215   1.849
 5540TIP3    H116542   2.966   7.190   1.864
 5540TIP3    H216543   2.834   7.131   1.818
 5541TIP3   OH216544   4.135   7.185   2.120
 5541TIP3    H116545   4.051   7.231   2.101
 5541TIP3    H216546   4.143   7.202   2.215
 5542TIP3   OH216547   2.795   6.799   2.384
 5542TIP3    H116548   2.735   6.837   2.317
 5542TIP3    H216549   2.742   6.812   2.466
 5543TIP3   OH216550   3.152   7.655   1.371
 5543TIP3    H116551   3.067   7.612   1.343
 5543TIP3    H216552   3.127   7.731   1.385
 5544TIP3   OH216553   2.902   7.574   2.180
 5544TIP3    H116554   2.838   7.638   2.220
 5544TIP3    H216555   2.941   7.628   2.109
 5545TIP3   OH216556   3.703   6.908   1.745
 5545TIP3    H116557   3.691   6.858   1.826
 5545TIP3    H216558   3.755   6.985   1.774
 5546TIP3   OH216559   2.658   6.910   2.171
 5546TIP3    H116560   2.721   6.983   2.194
 5546TIP3    H216561   2.708   6.870   2.096
 5547TIP3   OH216562   2.728   7.764   2.280
 5547TIP3    H116563   2.703   7.851   2.243
 5547TIP3    H216564   2.650   7.747   2.336
 5548TIP3   OH216565   2.126   7.456   1.516
 5548TIP3    H116566   2.082   7.492   1.437
 5548TIP3    H216567   2.156   7.537   1.562
 5549TIP3   OH216568   3.556   7.959   1.750
 5549TIP3    H116569   3.466   7.957   1.790
 5549TIP3    H216570   3.553   8.047   1.706
 5550TIP3   OH216571   3.853   6.880   2.118
 5550TIP3    H116572   3.764   6.905   2.087
 5550TIP3    H216573   3.911   6.909   2.045
 5551TIP3   OH216574   3.149   6.517   2.098
 5551TIP3    H116575   3.139   6.421   2.118
 5551TIP3    H216576   3.072   6.553   2.145
 5552TIP3   OH216577   3.289   7.995   1.450
 5552TIP3    H116578   3.343   7.927   1.493
 5552TIP3    H216579   3.356   8.054   1.412
 5553TIP3   OH216580   3.789   7.882   2.102
 5553TIP3    H116581   3.778   7.803   2.045
 5553TIP3    H216582   3.773   7.954   2.037
 5554TIP3   OH216583   3.085   7.290   1.355
 5554TIP3    H116584   2.999   7.328   1.328
 5554TIP3    H216585   3.128   7.272   1.269
 5555TIP3   OH216586   3.040   7.064   1.072
 5555TIP3    H116587   3.110   7.116   1.116
 5555TIP3    H216588   3.096   7.000   1.023
 5556TIP3   OH216589   3.984   7.525   1.943
 5556TIP3    H116590   3.900   7.576   1.948
 5556TIP3    H216591   4.013   7.550   1.852
 5557TIP3   OH216592   3.424   7.358   1.327
 5557TIP3    H116593   3.375   7.380   1.409
 5557TIP3    H216594   3.513   7.338   1.364
 5558TIP3   OH216595   3.663   7.404   2.238
 5558TIP3    H116596   3.659   7.486   2.290
 5558TIP3    H216597   3.576   7.408   2.193
 5559TIP3   OH216598   2.663   7.363   1.741
 5559TIP3    H116599   2.619   7.304   1.676
 5559TIP3    H216600   2.737   7.307   1.772
 5560TIP3   OH216601   2.794   7.770   1.892
 5560TIP3    H116602   2.770   7.726   1.810
 5560TIP3    H216603   2.884   7.734   1.909
 5561TIP3   OH216604   2.801   7.330   2.098
 5561TIP3    H116605   2.832   7.310   2.007
 5561TIP3    H216606   2.841   7.417   2.117
 5562TIP3   OH216607   3.314   7.967   1.870
 5562TIP3    H116608   3.307   8.049   1.923
 5562TIP3    H216609   3.304   7.896   1.936
 5563TIP3   OH216610   2.932   7.890   2.422
 5563TIP3    H116611   2.874   7.951   2.471
 5563TIP3    H216612   2.866   7.837   2.373
 5564TIP3   OH216613   3.263   7.227   1.150
 5564TIP3    H116614   3.328   7.279   1.203
 5564TIP3    H216615   3.294   7.248   1.059
 5565TIP3   OH216616   2.687   7.445   2.520
 5565TIP3    H116617   2.693   7.532   2.567
 5565TIP3    H216618   2.592   7.426   2.535
 5566TIP3   OH216619   3.014   7.913   1.427
 5566TIP3    H116620   3.086   7.978   1.468
 5566TIP3    H216621   2.928   7.964   1.394
 5567TIP3   OH216622   2.729   8.063   2.513
 5567TIP3    H116623   2.692   8.055   2.423
 5567TIP3    H216624   2.656   8.026   2.569
 5568TIP3   OH216625   3.786   6.462   1.203
 5568TIP3    H116626   3.702   6.482   1.251
 5568TIP3    H216627   3.799   6.544   1.152
 5569TIP3   OH216628   2.526   7.205   1.549
 5569TIP3    H116629   2.459   7.249   1.492
 5569TIP3    H216630   2.487   7.118   1.560
 5570TIP3   OH216631   3.573   7.823   0.754
 5570TIP3    H116632   3.580   7.919   0.737
 5570TIP3    H216633   3.666   7.794   0.748
 5571TIP3   OH216634   2.307   7.588   2.456
 5571TIP3    H116635   2.239   7.569   2.388
 5571TIP3    H216636   2.343   7.500   2.477
 5572TIP3   OH216637   2.162   7.774   2.106
 5572TIP3    H116638   2.250   7.787   2.069
 5572TIP3    H216639   2.135   7.866   2.127
 5573TIP3   OH216640   4.045   8.222   2.152
 5573TIP3    H116641   4.039   8.126   2.172
 5573TIP3    H216642   3.964   8.254   2.197
 5574TIP3   OH216643   3.133   8.001   2.272
 5574TIP3    H116644   3.141   8.095   2.302
 5574TIP3    H216645   3.058   7.969   2.327
 5575TIP3   OH216646   2.333   7.969   1.610
 5575TIP3    H116647   2.380   7.975   1.696
 5575TIP3    H216648   2.271   7.897   1.630
 5576TIP3   OH216649   3.292   8.002   0.925
 5576TIP3    H116650   3.224   7.981   0.859
 5576TIP3    H216651   3.237   8.018   1.004
 5577TIP3   OH216652   3.133   8.030   1.153
 5577TIP3    H116653   3.047   8.074   1.156
 5577TIP3    H216654   3.163   8.043   1.244
 5578TIP3   OH216655   3.917   7.364   2.417
 5578TIP3    H116656   3.833   7.374   2.369
 5578TIP3    H216657   3.932   7.268   2.408
 5579TIP3   OH216658   2.511   7.770   2.443
 5579TIP3    H116659   2.558   7.761   2.528
 5579TIP3    H216660   2.438   7.705   2.451
 5580TIP3   OH216661   2.909   6.593   2.225
 5580TIP3    H116662   2.820   6.563   2.197
 5580TIP3    H216663   2.884   6.674   2.274
 5581TIP3   OH216664   3.446   6.711   2.423
 5581TIP3    H116665   3.515   6.681   2.486
 5581TIP3    H216666   3.363   6.689   2.470
 5582TIP3   OH216667   3.686   7.140   2.343
 5582TIP3    H116668   3.635   7.135   2.427
 5582TIP3    H216669   3.659   7.227   2.307
 5583TIP3   OH216670   3.345   7.286   0.901
 5583TIP3    H116671   3.307   7.252   0.817
 5583TIP3    H216672   3.434   7.311   0.870
 5584TIP3   OH216673   3.055   6.646   1.199
 5584TIP3    H116674   3.023   6.640   1.291
 5584TIP3    H216675   3.019   6.562   1.164
 5585TIP3   OH216676   2.838   7.106   2.246
 5585TIP3    H116677   2.792   7.133   2.328
 5585TIP3    H216678   2.827   7.188   2.192
 5586TIP3   OH216679   2.726   6.996   1.762
 5586TIP3    H116680   2.633   6.968   1.778
 5586TIP3    H216681   2.740   6.957   1.673
 5587TIP3   OH216682   3.219   7.084   1.489
 5587TIP3    H116683   3.168   7.155   1.445
 5587TIP3    H216684   3.274   7.051   1.415
 5588TIP3   OH216685   3.392   7.361   2.575
 5588TIP3    H116686   3.370   7.288   2.637
 5588TIP3    H216687   3.486   7.375   2.597
 5589TIP3   OH216688   3.375   7.111   1.727
 5589TIP3    H116689   3.314   7.137   1.655
 5589TIP3    H216690   3.411   7.029   1.685
 5590TIP3   OH216691   2.658   7.139   2.457
 5590TIP3    H116692   2.691   7.206   2.520
 5590TIP3    H216693   2.655   7.059   2.511
 5591TIP3   OH216694   2.710   6.616   1.164
 5591TIP3    H116695   2.707   6.611   1.262
 5591TIP3    H216696   2.628   6.665   1.146
 5592TIP3   OH216697   2.264   6.660   2.042
 5592TIP3    H116698   2.352   6.694   2.060
 5592TIP3    H216699   2.273   6.623   1.952
 5593TIP3   OH216700   2.231   6.641   1.555
 5593TIP3    H116701   2.277   6.678   1.477
 5593TIP3    H216702   2.169   6.714   1.574
 5594TIP3   OH216703   3.384   7.357   2.149
 5594TIP3    H116704   3.418   7.285   2.092
 5594TIP3    H216705   3.356   7.305   2.227
 5595TIP3   OH216706   3.055   6.826   1.823
 5595TIP3    H116707   2.974   6.816   1.876
 5595TIP3    H216708   3.124   6.813   1.891
 5596TIP3   OH216709   2.487   6.870   1.832
 5596TIP3    H116710   2.394   6.878   1.802
 5596TIP3    H216711   2.512   6.780   1.804
 5597TIP3   OH216712   2.757   6.873   1.520
 5597TIP3    H116713   2.852   6.882   1.498
 5597TIP3    H216714   2.712   6.892   1.435
 5598TIP3   OH216715   3.546   6.895   2.024
 5598TIP3    H116716   3.512   6.906   2.115
 5598TIP3    H216717   3.482   6.832   1.988
 5599TIP3   OH216718   2.598   6.905   1.298
 5599TIP3    H116719   2.523   6.862   1.253
 5599TIP3    H216720   2.649   6.938   1.221
 5600TIP3   OH216721   2.677   7.686   2.665
 5600TIP3    H116722   2.755   7.721   2.713
 5600TIP3    H216723   2.609   7.696   2.735
 5601TIP3   OH216724   3.138   7.149   1.921
 5601TIP3    H116725   3.207   7.104   1.869
 5601TIP3    H216726   3.145   7.104   2.007
 5602TIP3   OH216727   2.662   6.634   1.796
 5602TIP3    H116728   2.627   6.555   1.843
 5602TIP3    H216729   2.716   6.593   1.728
 5603TIP3   OH216730   3.114   7.044   2.208
 5603TIP3    H116731   3.025   7.080   2.223
 5603TIP3    H216732   3.172   7.103   2.259
 5604TIP3   OH216733   2.851   7.437   1.303
 5604TIP3    H116734   2.780   7.369   1.290
 5604TIP3    H216735   2.830   7.467   1.395
 5605TIP3   OH216736   3.751   7.669   1.935
 5605TIP3    H116737   3.775   7.719   1.854
 5605TIP3    H216738   3.666   7.627   1.908
 5606TIP3   OH216739   3.309   6.745   1.170
 5606TIP3    H116740   3.212   6.728   1.175
 5606TIP3    H216741   3.317   6.840   1.190
 5607TIP3   OH216742   3.259   7.752   2.300
 5607TIP3    H116743   3.273   7.727   2.392
 5607TIP3    H216744   3.208   7.836   2.307
 5608TIP3   OH216745   3.378   6.997   1.271
 5608TIP3    H116746   3.474   6.997   1.285
 5608TIP3    H216747   3.365   7.073   1.212
 5609TIP3   OH216748   2.546   7.458   1.981
 5609TIP3    H116749   2.582   7.427   1.895
 5609TIP3    H216750   2.583   7.394   2.043
 5610TIP3   OH216751   3.009   7.590   1.135
 5610TIP3    H116752   2.953   7.671   1.132
 5610TIP3    H216753   2.948   7.530   1.182
 5611TIP3   OH216754   2.424   7.375   2.593
 5611TIP3    H116755   2.446   7.364   2.688
 5611TIP3    H216756   2.353   7.310   2.581
 5612TIP3   OH216757   3.150   7.491   2.611
 5612TIP3    H116758   3.091   7.430   2.564
 5612TIP3    H216759   3.238   7.456   2.586
 5613TIP3   OH216760   3.407   8.028   2.186
 5613TIP3    H116761   3.314   8.004   2.201
 5613TIP3    H216762   3.430   8.064   2.274
 5614TIP3   OH216763   3.820   7.083   1.104
 5614TIP3    H116764   3.754   7.040   1.044
 5614TIP3    H216765   3.818   7.172   1.063
 5615TIP3   OH216766   4.040   7.942   2.186
 5615TIP3    H116767   3.942   7.935   2.179
 5615TIP3    H216768   4.065   7.911   2.097
 5616TIP3   OH216769   3.517   7.532   1.851
 5616TIP3    H116770   3.424   7.506   1.865
 5616TIP3    H216771   3.551   7.451   1.808
 5617TIP3   OH216772   2.643   7.750   1.605
 5617TIP3    H116773   2.638   7.835   1.557
 5617TIP3    H216774   2.550   7.736   1.626
 5618TIP3   OH216775   2.203   7.065   1.301
 5618TIP3    H116776   2.251   7.147   1.326
 5618TIP3    H216777   2.129   7.067   1.366
 5619TIP3   OH216778   2.791   7.527   1.550
 5619TIP3    H116779   2.747   7.613   1.567
 5619TIP3    H216780   2.753   7.473   1.622
 5620TIP3   OH216781   2.901   8.095   2.081
 5620TIP3    H116782   2.915   8.184   2.043
 5620TIP3    H216783   2.988   8.070   2.115
 5621TIP3   OH216784   2.571   7.984   1.474
 5621TIP3    H116785   2.480   7.978   1.512
 5621TIP3    H216786   2.579   8.080   1.464
 5622TIP3   OH216787   3.304   7.737   2.033
 5622TIP3    H116788   3.293   7.734   2.131
 5622TIP3    H216789   3.383   7.682   2.021
 5623TIP3   OH216790   3.570   8.242   2.086
 5623TIP3    H116791   3.506   8.174   2.113
 5623TIP3    H216792   3.511   8.317   2.063
 5624TIP3   OH216793   3.598   8.095   0.733
 5624TIP3    H116794   3.673   8.153   0.712
 5624TIP3    H216795   3.522   8.154   0.718
 5625TIP3   OH216796   2.634   6.870   2.605
 5625TIP3    H116797   2.552   6.897   2.648
 5625TIP3    H216798   2.678   6.822   2.678
 5626TIP3   OH216799   2.380   7.984   2.248
 5626TIP3    H116800   2.400   7.891   2.264
 5626TIP3    H216801   2.389   8.020   2.338
 5627TIP3   OH216802   2.636   7.611   0.914
 5627TIP3    H116803   2.655   7.520   0.885
 5627TIP3    H216804   2.623   7.598   1.010
 5628TIP3   OH216805   2.592   7.614   1.184
 5628TIP3    H116806   2.655   7.585   1.252
 5628TIP3    H216807   2.593   7.712   1.196
 5629TIP3   OH216808   2.324   7.309   1.390
 5629TIP3    H116809   2.257   7.353   1.448
 5629TIP3    H216810   2.336   7.379   1.323
 5630TIP3   OH216811   3.472   6.946   2.283
 5630TIP3    H116812   3.552   6.982   2.324
 5630TIP3    H216813   3.456   6.865   2.337
 5631TIP3   OH216814   3.350   6.699   1.449
 5631TIP3    H116815   3.338   6.719   1.354
 5631TIP3    H216816   3.389   6.782   1.483
 5632TIP3   OH216817   2.856   7.814   1.140
 5632TIP3    H116818   2.769   7.836   1.180
 5632TIP3    H216819   2.861   7.886   1.076
 5633TIP3   OH216820   3.041   6.879   1.551
 5633TIP3    H116821   3.107   6.949   1.534
 5633TIP3    H216822   3.046   6.870   1.649
 5634TIP3   OH216823   3.312   7.197   2.357
 5634TIP3    H116824   3.332   7.249   2.438
 5634TIP3    H216825   3.365   7.116   2.371
 5635TIP3   OH216826   3.185   6.606   1.653
 5635TIP3    H116827   3.184   6.683   1.713
 5635TIP3    H216828   3.245   6.639   1.583
 5636TIP3   OH216829   2.600   7.884   1.210
 5636TIP3    H116830   2.555   7.943   1.147
 5636TIP3    H216831   2.582   7.929   1.296
 5637TIP3   OH216832   2.697   6.603   1.440
 5637TIP3    H116833   2.697   6.692   1.480
 5637TIP3    H216834   2.792   6.580   1.450
 5638TIP3   OH216835   3.952   7.095   2.334
 5638TIP3    H116836   3.855   7.096   2.347
 5638TIP3    H216837   3.957   7.049   2.250
 5639TIP3   OH216838   3.602   7.291   1.727
 5639TIP3    H116839   3.526   7.230   1.738
 5639TIP3    H216840   3.674   7.243   1.774
 5640TIP3   OH216841   2.314   7.518   1.199
 5640TIP3    H116842   2.371   7.596   1.206
 5640TIP3    H216843   2.363   7.467   1.131
 5641TIP3   OH216844   2.260   6.797   1.330
 5641TIP3    H116845   2.254   6.894   1.323
 5641TIP3    H216846   2.177   6.768   1.291
 5642TIP3   OH216847   3.567   8.214   1.659
 5642TIP3    H116848   3.535   8.302   1.634
 5642TIP3    H216849   3.663   8.234   1.666
 5643TIP3   OH216850   2.636   6.516   2.206
 5643TIP3    H116851   2.612   6.480   2.117
 5643TIP3    H216852   2.633   6.435   2.261
 5644TIP3   OH216853   2.199   7.709   1.622
 5644TIP3    H116854   2.130   7.752   1.674
 5644TIP3    H216855   2.174   7.738   1.531
 5645TIP3   OH216856   2.418   8.212   2.626
 5645TIP3    H116857   2.485   8.230   2.696
 5645TIP3    H216858   2.383   8.127   2.654
 5646TIP3   OH216859   2.843   8.247   2.692
 5646TIP3    H116860   2.926   8.199   2.707
 5646TIP3    H216861   2.802   8.190   2.623
 5647TIP3   OH216862   2.795   7.818   0.829
 5647TIP3    H116863   2.752   7.737   0.864
 5647TIP3    H216864   2.874   7.780   0.785
 5648TIP3   OH216865   3.454   8.138   2.429
 5648TIP3    H116866   3.446   8.071   2.501
 5648TIP3    H216867   3.535   8.186   2.455
 5649TIP3   OH216868   3.262   7.802   0.723
 5649TIP3    H116869   3.335   7.840   0.775
 5649TIP3    H216870   3.293   7.823   0.633
 5650TIP3   OH216871   2.472   7.680   2.856
 5650TIP3    H116872   2.490   7.584   2.861
 5650TIP3    H216873   2.385   7.682   2.812
 5651TIP3   OH216874   2.451   7.334   1.049
 5651TIP3    H116875   2.505   7.299   1.122
 5651TIP3    H216876   2.519   7.336   0.978
 5652TIP3   OH216877   3.082   7.766   2.628
 5652TIP3    H116878   3.038   7.780   2.543
 5652TIP3    H216879   3.112   7.673   2.622
 5653TIP3   OH216880   2.955   7.528   0.858
 5653TIP3    H116881   2.971   7.539   0.953
 5653TIP3    H216882   2.959   7.430   0.850
 5654TIP3   OH216883   3.573   7.771   2.236
 5654TIP3    H116884   3.647   7.818   2.193
 5654TIP3    H216885   3.500   7.833   2.221
 5655TIP3   OH216886   2.593   7.411   2.837
 5655TIP3    H116887   2.671   7.358   2.819
 5655TIP3    H216888   2.616   7.448   2.925
 5656TIP3   OH216889   2.663   7.236   1.274
 5656TIP3    H116890   2.630   7.193   1.355
 5656TIP3    H216891   2.696   7.159   1.222
 5657TIP3   OH216892   2.924   7.297   2.496
 5657TIP3    H116893   2.849   7.360   2.500
 5657TIP3    H216894   2.977   7.333   2.422
 5658TIP3   OH216895   2.758   7.029   1.111
 5658TIP3    H116896   2.732   7.028   1.017
 5658TIP3    H216897   2.855   7.030   1.105
 5659TIP3   OH216898   3.445   7.701   2.633
 5659TIP3    H116899   3.526   7.676   2.588
 5659TIP3    H216900   3.440   7.635   2.705
 5660TIP3   OH216901   3.580   7.352   0.775
 5660TIP3    H116902   3.575   7.297   0.695
 5660TIP3    H216903   3.549   7.438   0.739
 5661TIP3   OH216904   3.048   7.087   2.626
 5661TIP3    H116905   3.051   7.007   2.569
 5661TIP3    H216906   3.005   7.152   2.566
 5662TIP3   OH216907   3.052   6.876   2.433
 5662TIP3    H116908   3.081   6.914   2.348
 5662TIP3    H216909   2.959   6.850   2.413
 5663TIP3   OH216910   3.079   7.409   2.307
 5663TIP3    H116911   3.163   7.416   2.259
 5663TIP3    H216912   3.023   7.475   2.260
 5664TIP3   OH216913   3.661   7.376   2.686
 5664TIP3    H116914   3.708   7.293   2.701
 5664TIP3    H216915   3.731   7.434   2.654
 5665TIP3   OH216916   3.704   7.629   2.423
 5665TIP3    H116917   3.645   7.681   2.364
 5665TIP3    H216918   3.791   7.650   2.383
 5666TIP3   OH216919   2.925   7.201   2.854
 5666TIP3    H116920   2.858   7.132   2.870
 5666TIP3    H216921   2.962   7.172   2.768
 5667TIP3   OH216922   3.187   6.638   2.497
 5667TIP3    H116923   3.134   6.719   2.478
 5667TIP3    H216924   3.119   6.568   2.487
 5668TIP3   OH216925   3.310   7.143   2.716
 5668TIP3    H116926   3.302   7.129   2.812
 5668TIP3    H216927   3.220   7.117   2.688
 5669TIP3   OH216928   3.550   7.091   2.570
 5669TIP3    H116929   3.475   7.092   2.634
 5669TIP3    H216930   3.624   7.060   2.626
 5670TIP3   OH216931   3.780   7.032   2.719
 5670TIP3    H116932   3.792   6.936   2.737
 5670TIP3    H216933   3.776   7.070   2.809
 5671TIP3   OH216934   2.768   6.979   2.908
 5671TIP3    H116935   2.777   6.886   2.880
 5671TIP3    H216936   2.804   6.973   2.999
 5672TIP3   OH216937   3.281   6.649   2.756
 5672TIP3    H116938   3.347   6.577   2.752
 5672TIP3    H216939   3.241   6.640   2.667
 5673TIP3   OH216940   3.347   6.864   2.914
 5673TIP3    H116941   3.325   6.792   2.852
 5673TIP3    H216942   3.267   6.920   2.909
 5674TIP3   OH216943   2.047   7.475   1.228
 5674TIP3    H116944   2.143   7.496   1.221
 5674TIP3    H216945   2.044   7.385   1.190
 5675TIP3   OH216946   2.096   7.930   1.812
 5675TIP3    H116947   2.068   7.863   1.875
 5675TIP3    H216948   2.144   7.992   1.872
 5676TIP3   OH216949   3.815   8.319   1.659
 5676TIP3    H116950   3.849   8.376   1.729
 5676TIP3    H216951   3.855   8.361   1.581
 5677TIP3   OH216952   3.882   8.325   1.942
 5677TIP3    H116953   3.825   8.249   1.922
 5677TIP3    H216954   3.946   8.283   2.003
 5678TIP3   OH216955   3.892   8.028   2.484
 5678TIP3    H116956   3.822   8.037   2.551
 5678TIP3    H216957   3.939   8.114   2.493
 5679TIP3   OH216958   3.721   7.551   1.106
 5679TIP3    H116959   3.794   7.609   1.078
 5679TIP3    H216960   3.758   7.509   1.186
 5680TIP3   OH216961   3.843   7.415   1.312
 5680TIP3    H116962   3.776   7.372   1.369
 5680TIP3    H216963   3.905   7.453   1.378
 5681TIP3   OH216964   3.894   7.803   1.744
 5681TIP3    H116965   3.949   7.740   1.694
 5681TIP3    H216966   3.897   7.883   1.687
 5682TIP3   OH216967   3.732   8.086   1.929
 5682TIP3    H116968   3.663   8.137   1.976
 5682TIP3    H216969   3.681   8.040   1.860
 5683TIP3   OH216970   3.780   7.323   0.959
 5683TIP3    H116971   3.709   7.320   0.891
 5683TIP3    H216972   3.749   7.401   1.011
 5684TIP3   OH216973   3.643   7.003   0.915
 5684TIP3    H116974   3.644   7.030   0.822
 5684TIP3    H216975   3.618   6.908   0.908
 5685TIP3   OH216976   3.658   7.271   1.458
 5685TIP3    H116977   3.664   7.175   1.448
 5685TIP3    H216978   3.644   7.282   1.554
 5686TIP3   OH216979   2.285   7.336   2.207
 5686TIP3    H116980   2.282   7.312   2.111
 5686TIP3    H216981   2.382   7.342   2.221
 5687TIP3   OH216982   3.947   7.696   2.315
 5687TIP3    H116983   4.019   7.629   2.306
 5687TIP3    H216984   3.974   7.764   2.252
 5688TIP3   OH216985   4.132   7.501   2.329
 5688TIP3    H116986   4.058   7.451   2.369
 5688TIP3    H216987   4.205   7.437   2.345
 5689TIP3   OH216988   3.593   6.736   0.913
 5689TIP3    H116989   3.671   6.697   0.956
 5689TIP3    H216990   3.524   6.668   0.922
 5690TIP3   OH216991   3.654   6.987   1.353
 5690TIP3    H116992   3.693   6.898   1.368
 5690TIP3    H216993   3.711   7.017   1.280
 5691TIP3   OH216994   3.815   7.161   1.848
 5691TIP3    H116995   3.901   7.186   1.808
 5691TIP3    H216996   3.828   7.197   1.938
 5692TIP3   OH216997   3.884   7.304   2.079
 5692TIP3    H116998   3.806   7.337   2.128
 5692TIP3    H216999   3.916   7.386   2.035
 5693TIP3   OH217000   2.503   7.025   2.861
 5693TIP3    H117001   2.600   7.022   2.880
 5693TIP3    H217002   2.474   6.945   2.909
 5694TIP3   OH217003   4.337   6.897   2.638
 5694TIP3    H117004   4.395   6.829   2.596
 5694TIP3    H217005   4.310   6.949   2.559
 5695TIP3   OH217006   3.760   6.737   1.391
 5695TIP3    H117007   3.809   6.720   1.475
 5695TIP3    H217008   3.700   6.660   1.389
 5696TIP3   OH217009   2.469   6.731   2.283
 5696TIP3    H117010   2.516   6.647   2.259
 5696TIP3    H217011   2.525   6.794   2.231
 5697TIP3   OH217012   2.294   6.980   2.299
 5697TIP3    H117013   2.319   6.992   2.204
 5697TIP3    H217014   2.281   7.073   2.325
 5698TIP3   OH217015   4.208   7.037   2.440
 5698TIP3    H117016   4.123   7.075   2.467
 5698TIP3    H217017   4.177   6.964   2.384
 5699TIP3   OH217018   3.847   6.668   1.026
 5699TIP3    H117019   3.881   6.598   0.966
 5699TIP3    H217020   3.907   6.742   1.006
 5700TIP3   OH217021   2.245   6.523   1.797
 5700TIP3    H117022   2.152   6.498   1.809
 5700TIP3    H217023   2.244   6.566   1.709
 5701TIP3   OH217024   3.474   8.174   1.319
 5701TIP3    H117025   3.520   8.139   1.240
 5701TIP3    H217026   3.539   8.235   1.354
 5702TIP3   OH217027   2.533   7.958   2.687
 5702TIP3    H117028   2.439   7.942   2.666
 5702TIP3    H217029   2.531   7.972   2.782
 5703TIP3   OH217030   2.684   8.037   2.235
 5703TIP3    H117031   2.612   8.068   2.178
 5703TIP3    H217032   2.763   8.053   2.178
 5704TIP3   OH217033   3.168   8.268   2.335
 5704TIP3    H117034   3.162   8.265   2.433
 5704TIP3    H217035   3.244   8.326   2.327
 5705TIP3   OH217036   4.101   6.802   2.318
 5705TIP3    H117037   4.008   6.807   2.288
 5705TIP3    H217038   4.114   6.706   2.320
 5706TIP3   OH217039   3.270   8.250   1.933
 5706TIP3    H117040   3.182   8.287   1.936
 5706TIP3    H217041   3.324   8.326   1.959
 5707TIP3   OH217042   2.250   8.050   2.012
 5707TIP3    H117043   2.296   8.036   2.097
 5707TIP3    H217044   2.323   8.082   1.956
 5708TIP3   OH217045   2.470   7.959   1.841
 5708TIP3    H117046   2.474   7.879   1.898
 5708TIP3    H217047   2.565   7.985   1.840
 5709TIP3   OH217048   2.727   8.039   1.858
 5709TIP3    H117049   2.764   7.949   1.857
 5709TIP3    H217050   2.788   8.083   1.918
 5710TIP3   OH217051   3.306   6.712   1.936
 5710TIP3    H117052   3.265   6.643   1.991
 5710TIP3    H217053   3.380   6.663   1.894
 5711TIP3   OH217054   3.835   6.595   1.844
 5711TIP3    H117055   3.868   6.647   1.767
 5711TIP3    H217056   3.738   6.609   1.837
 5712TIP3   OH217057   3.929   6.694   1.607
 5712TIP3    H117058   4.003   6.644   1.565
 5712TIP3    H217059   3.960   6.786   1.592
 5713TIP3   OH217060   2.557   6.423   1.956
 5713TIP3    H117061   2.465   6.387   1.958
 5713TIP3    H217062   2.607   6.338   1.953
 5714TIP3   OH217063   2.338   6.292   1.600
 5714TIP3    H117064   2.375   6.347   1.528
 5714TIP3    H217065   2.318   6.357   1.669
 5715TIP3   OH217066   2.997   6.463   1.836
 5715TIP3    H117067   3.060   6.506   1.776
 5715TIP3    H217068   3.030   6.489   1.923
 5716TIP3   OH217069   3.552   6.601   1.819
 5716TIP3    H117070   3.546   6.561   1.731
 5716TIP3    H217071   3.537   6.522   1.876
 5717TIP3   OH217072   3.579   6.523   1.382
 5717TIP3    H117073   3.490   6.562   1.391
 5717TIP3    H217074   3.565   6.437   1.429
 5718TIP3   OH217075   2.072   7.785   1.401
 5718TIP3    H117076   1.985   7.756   1.372
 5718TIP3    H217077   2.071   7.878   1.368
 5719TIP3   OH217078   2.462   6.453   1.365
 5719TIP3    H117079   2.509   6.386   1.310
 5719TIP3    H217080   2.538   6.504   1.401
 5720TIP3   OH217081   2.974   6.628   1.464
 5720TIP3    H117082   3.030   6.576   1.523
 5720TIP3    H217083   3.000   6.719   1.491
 5721TIP3   OH217084   4.490  -0.517   2.685
 5721TIP3    H117085   4.456  -0.440   2.637
 5721TIP3    H217086   4.475  -0.590   2.623
 5722TIP3   OH217087   3.550   8.128   1.044
 5722TIP3    H117088   3.537   8.041   1.002
 5722TIP3    H217089   3.598   8.174   0.975
 5723TIP3   OH217090   2.766   6.705   2.844
 5723TIP3    H117091   2.730   6.635   2.901
 5723TIP3    H217092   2.860   6.701   2.871
 5724TIP3   OH217093   3.015   6.700   2.963
 5724TIP3    H117094   3.100   6.671   2.926
 5724TIP3    H217095   3.001   6.633   3.033
 5725TIP3   OH217096   2.177   7.896   1.058
 5725TIP3    H117097   2.102   7.836   1.050
 5725TIP3    H217098   2.253   7.843   1.027
 5726TIP3   OH217099   3.839   6.761   2.753
 5726TIP3    H117100   3.858   6.729   2.844
 5726TIP3    H217101   3.928   6.756   2.711
 5727TIP3   OH217102   3.798   8.321   2.236
 5727TIP3    H117103   3.728   8.272   2.188
 5727TIP3    H217104   3.759   8.409   2.239
 5728TIP3   OH217105   5.045   7.691   1.013
 5728TIP3    H117106   5.014   7.781   0.989
 5728TIP3    H217107   4.972   7.638   0.978
 5729TIP3   OH217108   5.047   7.686   1.393
 5729TIP3    H117109   5.077   7.655   1.480
 5729TIP3    H217110   5.002   7.607   1.358
 5730TIP3   OH217111   4.346   7.580   1.754
 5730TIP3    H117112   4.374   7.512   1.817
 5730TIP3    H217113   4.420   7.642   1.758
 5731TIP3   OH217114   5.291   7.986   1.090
 5731TIP3    H117115   5.280   7.910   1.149
 5731TIP3    H217116   5.332   8.051   1.149
 5732TIP3   OH217117   4.315   7.994   1.485
 5732TIP3    H117118   4.305   7.896   1.486
 5732TIP3    H217119   4.412   8.001   1.476
 5733TIP3   OH217120   4.023   7.196   1.268
 5733TIP3    H117121   3.970   7.277   1.280
 5733TIP3    H217122   3.955   7.138   1.228
 5734TIP3   OH217123   4.083   7.484   1.441
 5734TIP3    H117124   4.130   7.404   1.476
 5734TIP3    H217125   4.135   7.504   1.362
 5735TIP3   OH217126   4.958   8.433   1.134
 5735TIP3    H117127   5.002   8.383   1.063
 5735TIP3    H217128   4.911   8.365   1.181
 5736TIP3   OH217129   4.845   7.913   1.438
 5736TIP3    H117130   4.879   7.834   1.393
 5736TIP3    H217131   4.931   7.954   1.463
 5737TIP3   OH217132   5.856   7.232   1.438
 5737TIP3    H117133   5.885   7.315   1.482
 5737TIP3    H217134   5.878   7.252   1.345
 5738TIP3   OH217135   5.259   7.415   1.472
 5738TIP3    H117136   5.298   7.329   1.494
 5738TIP3    H217137   5.225   7.398   1.382
 5739TIP3   OH217138   4.597   7.073   1.437
 5739TIP3    H117139   4.572   7.145   1.376
 5739TIP3    H217140   4.549   6.998   1.394
 5740TIP3   OH217141   5.286   7.164   1.064
 5740TIP3    H117142   5.358   7.146   1.129
 5740TIP3    H217143   5.339   7.196   0.989
 5741TIP3   OH217144   4.227   7.275   1.544
 5741TIP3    H117145   4.309   7.254   1.592
 5741TIP3    H217146   4.238   7.217   1.465
 5742TIP3   OH217147   4.669   7.473   1.334
 5742TIP3    H117148   4.761   7.445   1.351
 5742TIP3    H217149   4.628   7.388   1.305
 5743TIP3   OH217150   5.930   7.440   1.608
 5743TIP3    H117151   5.845   7.486   1.589
 5743TIP3    H217152   5.945   7.466   1.700
 5744TIP3   OH217153   4.592   7.055   1.870
 5744TIP3    H117154   4.529   7.093   1.806
 5744TIP3    H217155   4.541   7.067   1.953
 5745TIP3   OH217156   4.942   7.909   0.873
 5745TIP3    H117157   4.879   7.880   0.805
 5745TIP3    H217158   4.899   7.993   0.901
 5746TIP3   OH217159   4.700   7.832   1.668
 5746TIP3    H117160   4.634   7.893   1.709
 5746TIP3    H217161   4.735   7.886   1.595
 5747TIP3   OH217162   5.501   7.166   1.231
 5747TIP3    H117163   5.483   7.119   1.314
 5747TIP3    H217164   5.552   7.243   1.261
 5748TIP3   OH217165   4.461   7.172   1.656
 5748TIP3    H117166   4.523   7.243   1.681
 5748TIP3    H217167   4.510   7.131   1.581
 5749TIP3   OH217168   4.525   8.021   1.767
 5749TIP3    H117169   4.497   8.107   1.730
 5749TIP3    H217170   4.447   8.002   1.823
 5750TIP3   OH217171   3.924   7.712   1.000
 5750TIP3    H117172   3.879   7.744   0.920
 5750TIP3    H217173   3.951   7.795   1.045
 5751TIP3   OH217174   5.353   8.224   1.248
 5751TIP3    H117175   5.260   8.211   1.277
 5751TIP3    H217176   5.348   8.273   1.165
 5752TIP3   OH217177   5.649   7.131   1.604
 5752TIP3    H117178   5.562   7.161   1.574
 5752TIP3    H217179   5.708   7.164   1.533
 5753TIP3   OH217180   4.953   6.800   1.589
 5753TIP3    H117181   4.957   6.710   1.622
 5753TIP3    H217182   4.868   6.830   1.629
 5754TIP3   OH217183   5.094   8.270   0.963
 5754TIP3    H117184   5.132   8.189   0.924
 5754TIP3    H217185   5.061   8.316   0.883
 5755TIP3   OH217186   5.201   8.042   0.838
 5755TIP3    H117187   5.149   7.960   0.834
 5755TIP3    H217188   5.249   8.026   0.922
 5756TIP3   OH217189   5.584   8.140   1.589
 5756TIP3    H117190   5.575   8.060   1.533
 5756TIP3    H217191   5.575   8.211   1.521
 5757TIP3   OH217192   4.878   7.542   0.842
 5757TIP3    H117193   4.792   7.588   0.834
 5757TIP3    H217194   4.899   7.528   0.749
 5758TIP3   OH217195   4.830   7.314   0.592
 5758TIP3    H117196   4.920   7.349   0.602
 5758TIP3    H217197   4.841   7.239   0.533
 5759TIP3   OH217198   5.779   7.780   1.428
 5759TIP3    H117199   5.696   7.832   1.435
 5759TIP3    H217200   5.809   7.806   1.338
 5760TIP3   OH217201   5.224   7.604   0.824
 5760TIP3    H117202   5.169   7.640   0.898
 5760TIP3    H217203   5.310   7.593   0.869
 5761TIP3   OH217204   5.459   7.660   1.725
 5761TIP3    H117205   5.456   7.742   1.778
 5761TIP3    H217206   5.371   7.664   1.682
 5762TIP3   OH217207   4.456   7.618   1.229
 5762TIP3    H117208   4.412   7.560   1.163
 5762TIP3    H217209   4.532   7.563   1.258
 5763TIP3   OH217210   4.590   8.028   1.378
 5763TIP3    H117211   4.563   7.985   1.295
 5763TIP3    H217212   4.679   7.989   1.393
 5764TIP3   OH217213   4.601   7.586   1.586
 5764TIP3    H117214   4.626   7.568   1.493
 5764TIP3    H217215   4.637   7.675   1.603
 5765TIP3   OH217216   5.120   8.244   1.379
 5765TIP3    H117217   5.109   8.278   1.469
 5765TIP3    H217218   5.104   8.149   1.400
 5766TIP3   OH217219   4.729   8.147   1.907
 5766TIP3    H117220   4.671   8.208   1.957
 5766TIP3    H217221   4.662   8.094   1.860
 5767TIP3   OH217222   5.083   7.488   0.627
 5767TIP3    H117223   5.131   7.539   0.697
 5767TIP3    H217224   5.037   7.559   0.580
 5768TIP3   OH217225   4.483   7.703   2.006
 5768TIP3    H117226   4.489   7.788   2.054
 5768TIP3    H217227   4.389   7.681   2.022
 5769TIP3   OH217228   4.819   8.152   0.920
 5769TIP3    H117229   4.855   8.233   0.956
 5769TIP3    H217230   4.752   8.183   0.858
 5770TIP3   OH217231   4.526   8.319   2.001
 5770TIP3    H117232   4.488   8.311   1.911
 5770TIP3    H217233   4.453   8.283   2.057
 5771TIP3   OH217234   5.579   6.729   0.699
 5771TIP3    H117235   5.494   6.747   0.743
 5771TIP3    H217236   5.568   6.774   0.613
 5772TIP3   OH217237   4.322   7.460   1.036
 5772TIP3    H117238   4.256   7.506   0.979
 5772TIP3    H217239   4.279   7.374   1.048
 5773TIP3   OH217240   4.103   7.844   1.943
 5773TIP3    H117241   4.037   7.822   1.874
 5773TIP3    H217242   4.140   7.756   1.966
 5774TIP3   OH217243   3.956   8.031   1.591
 5774TIP3    H117244   4.046   8.041   1.557
 5774TIP3    H217245   3.932   8.122   1.614
 5775TIP3   OH217246   5.840   8.479   1.638
 5775TIP3    H117247   5.835   8.383   1.659
 5775TIP3    H217248   5.759   8.511   1.684
 5776TIP3   OH217249   4.925   8.261   1.754
 5776TIP3    H117250   4.938   8.352   1.788
 5776TIP3    H217251   4.852   8.228   1.812
 5777TIP3   OH217252   4.127   8.227   1.097
 5777TIP3    H117253   4.178   8.231   1.180
 5777TIP3    H217254   4.065   8.155   1.121
 5778TIP3   OH217255   5.713   7.619   1.905
 5778TIP3    H117256   5.629   7.631   1.857
 5778TIP3    H217257   5.727   7.523   1.896
 5779TIP3   OH217258   4.307   8.027   1.929
 5779TIP3    H117259   4.354   8.017   2.015
 5779TIP3    H217260   4.235   7.961   1.938
 5780TIP3   OH217261   4.708   6.852   1.710
 5780TIP3    H117262   4.617   6.823   1.686
 5780TIP3    H217263   4.684   6.934   1.758
 5781TIP3   OH217264   5.242   6.964   1.910
 5781TIP3    H117265   5.309   6.940   1.977
 5781TIP3    H217266   5.157   6.948   1.957
 5782TIP3   OH217267   5.482   7.396   1.829
 5782TIP3    H117268   5.431   7.391   1.913
 5782TIP3    H217269   5.455   7.483   1.794
 5783TIP3   OH217270   4.853   6.906   0.690
 5783TIP3    H117271   4.816   6.892   0.779
 5783TIP3    H217272   4.822   6.824   0.646
 5784TIP3   OH217273   4.641   7.365   1.736
 5784TIP3    H117274   4.588   7.386   1.816
 5784TIP3    H217275   4.626   7.446   1.682
 5785TIP3   OH217276   4.523   7.253   1.248
 5785TIP3    H117277   4.430   7.227   1.266
 5785TIP3    H217278   4.535   7.213   1.159
 5786TIP3   OH217279   5.014   7.342   0.978
 5786TIP3    H117280   4.961   7.412   0.935
 5786TIP3    H217281   5.065   7.307   0.903
 5787TIP3   OH217282   5.188   7.617   2.061
 5787TIP3    H117283   5.166   7.545   2.124
 5787TIP3    H217284   5.281   7.632   2.084
 5788TIP3   OH217285   5.172   7.369   1.214
 5788TIP3    H117286   5.109   7.396   1.144
 5788TIP3    H217287   5.204   7.286   1.173
 5789TIP3   OH217288   4.459   7.394   1.942
 5789TIP3    H117289   4.480   7.458   2.012
 5789TIP3    H217290   4.447   7.312   1.993
 5790TIP3   OH217291   4.494   6.855   0.665
 5790TIP3    H117292   4.486   6.853   0.762
 5790TIP3    H217293   4.413   6.903   0.641
 5791TIP3   OH217294   4.049   6.920   1.524
 5791TIP3    H117295   4.129   6.948   1.574
 5791TIP3    H217296   4.084   6.886   1.440
 5792TIP3   OH217297   4.031   6.905   1.048
 5792TIP3    H117298   4.069   6.939   0.964
 5792TIP3    H217299   3.963   6.973   1.064
 5793TIP3   OH217300   5.182   7.615   1.636
 5793TIP3    H117301   5.216   7.542   1.579
 5793TIP3    H217302   5.153   7.562   1.714
 5794TIP3   OH217303   4.851   7.073   1.310
 5794TIP3    H117304   4.765   7.073   1.357
 5794TIP3    H217305   4.914   7.078   1.383
 5795TIP3   OH217306   4.284   7.131   1.316
 5795TIP3    H117307   4.189   7.142   1.290
 5795TIP3    H217308   4.301   7.038   1.293
 5796TIP3   OH217309   4.555   7.129   1.006
 5796TIP3    H117310   4.648   7.143   0.979
 5796TIP3    H217311   4.505   7.149   0.923
 5797TIP3   OH217312   5.341   7.150   1.507
 5797TIP3    H117313   5.311   7.162   1.600
 5797TIP3    H217314   5.272   7.089   1.475
 5798TIP3   OH217315   4.401   7.164   0.786
 5798TIP3    H117316   4.322   7.120   0.753
 5798TIP3    H217317   4.440   7.196   0.702
 5799TIP3   OH217318   4.474   7.944   2.151
 5799TIP3    H117319   4.551   7.978   2.201
 5799TIP3    H217320   4.405   7.951   2.221
 5800TIP3   OH217321   4.934   7.404   1.408
 5800TIP3    H117322   5.006   7.361   1.360
 5800TIP3    H217323   4.939   7.361   1.496
 5801TIP3   OH217324   4.464   6.888   1.284
 5801TIP3    H117325   4.424   6.811   1.329
 5801TIP3    H217326   4.493   6.851   1.200
 5802TIP3   OH217327   4.911   7.302   1.692
 5802TIP3    H117328   4.820   7.335   1.709
 5802TIP3    H217329   4.966   7.361   1.747
 5803TIP3   OH217330   4.640   7.680   0.804
 5803TIP3    H117331   4.567   7.615   0.793
 5803TIP3    H217332   4.621   7.717   0.894
 5804TIP3   OH217333   5.547   7.926   1.422
 5804TIP3    H117334   5.573   7.974   1.340
 5804TIP3    H217335   5.463   7.883   1.395
 5805TIP3   OH217336   5.105   7.006   0.665
 5805TIP3    H117337   5.008   6.986   0.667
 5805TIP3    H217338   5.110   7.100   0.687
 5806TIP3   OH217339   5.063   8.017   1.783
 5806TIP3    H117340   5.070   7.980   1.872
 5806TIP3    H217341   5.002   8.092   1.796
 5807TIP3   OH217342   5.173   7.257   0.761
 5807TIP3    H117343   5.267   7.259   0.785
 5807TIP3    H217344   5.161   7.341   0.713
 5808TIP3   OH217345   4.345   7.718   1.469
 5808TIP3    H117346   4.377   7.683   1.383
 5808TIP3    H217347   4.372   7.649   1.531
 5809TIP3   OH217348   4.772   7.851   0.640
 5809TIP3    H117349   4.717   7.933   0.638
 5809TIP3    H217350   4.712   7.786   0.681
 5810TIP3   OH217351   4.221   7.631   2.079
 5810TIP3    H117352   4.240   7.618   2.175
 5810TIP3    H217353   4.151   7.566   2.064
 5811TIP3   OH217354   4.945   7.748   2.098
 5811TIP3    H117355   4.884   7.686   2.056
 5811TIP3    H217356   5.032   7.711   2.070
 5812TIP3   OH217357   5.191   8.302   1.664
 5812TIP3    H117358   5.105   8.264   1.690
 5812TIP3    H217359   5.222   8.330   1.753
 5813TIP3   OH217360   5.834   8.198   1.675
 5813TIP3    H117361   5.737   8.191   1.668
 5813TIP3    H217362   5.860   8.167   1.585
 5814TIP3   OH217363   5.310   7.791   1.334
 5814TIP3    H117364   5.218   7.762   1.352
 5814TIP3    H217365   5.347   7.710   1.294
 5815TIP3   OH217366   4.440   8.011   1.095
 5815TIP3    H117367   4.435   8.094   1.043
 5815TIP3    H217368   4.347   7.994   1.110
 5816TIP3   OH217369   4.010   7.314   0.807
 5816TIP3    H117370   4.048   7.402   0.821
 5816TIP3    H217371   3.927   7.321   0.860
 5817TIP3   OH217372   4.585   7.784   1.045
 5817TIP3    H117373   4.542   7.871   1.059
 5817TIP3    H217374   4.542   7.731   1.116
 5818TIP3   OH217375   4.697   8.350   1.563
 5818TIP3    H117376   4.707   8.442   1.532
 5818TIP3    H217377   4.780   8.330   1.608
 5819TIP3   OH217378   4.366   8.243   0.959
 5819TIP3    H117379   4.275   8.242   0.997
 5819TIP3    H217380   4.379   8.338   0.945
 5820TIP3   OH217381   5.105   7.997   1.514
 5820TIP3    H117382   5.091   7.996   1.612
 5820TIP3    H217383   5.178   7.933   1.506
 5821TIP3   OH217384   5.357   8.496   1.559
 5821TIP3    H117385   5.301   8.433   1.609
 5821TIP3    H217386   5.304   8.578   1.565
 5822TIP3   OH217387   4.432   7.136   2.088
 5822TIP3    H117388   4.336   7.142   2.104
 5822TIP3    H217389   4.461   7.078   2.160
 5823TIP3   OH217390   4.177   8.241   1.735
 5823TIP3    H117391   4.198   8.148   1.753
 5823TIP3    H217392   4.180   8.278   1.824
 5824TIP3   OH217393   4.369   7.876   0.690
 5824TIP3    H117394   4.451   7.845   0.729
 5824TIP3    H217395   4.380   7.974   0.691
 5825TIP3   OH217396   4.124   7.570   0.878
 5825TIP3    H117397   4.055   7.610   0.935
 5825TIP3    H217398   4.133   7.640   0.811
 5826TIP3   OH217399   5.272   7.199   1.767
 5826TIP3    H117400   5.347   7.240   1.813
 5826TIP3    H217401   5.254   7.120   1.822
 5827TIP3   OH217402   5.147   6.951   0.938
 5827TIP3    H117403   5.131   6.971   0.843
 5827TIP3    H217404   5.183   7.036   0.971
 5828TIP3   OH217405   4.650   8.096   0.657
 5828TIP3    H117406   4.562   8.127   0.687
 5828TIP3    H217407   4.668   8.160   0.587
 5829TIP3   OH217408   4.842   7.132   1.037
 5829TIP3    H117409   4.904   7.207   1.023
 5829TIP3    H217410   4.842   7.125   1.135
 5830TIP3   OH217411   5.109   7.454   1.843
 5830TIP3    H117412   5.125   7.509   1.923
 5830TIP3    H217413   5.161   7.374   1.863
 5831TIP3   OH217414   4.982   6.860   1.142
 5831TIP3    H117415   4.969   6.940   1.196
 5831TIP3    H217416   5.042   6.895   1.072
 5832TIP3   OH217417   4.382   8.149   0.701
 5832TIP3    H117418   4.369   8.226   0.644
 5832TIP3    H217419   4.368   8.187   0.790
 5833TIP3   OH217420   4.493   6.859   0.940
 5833TIP3    H117421   4.491   6.952   0.970
 5833TIP3    H217422   4.590   6.843   0.943
 5834TIP3   OH217423   5.748   7.352   1.825
 5834TIP3    H117424   5.650   7.350   1.834
 5834TIP3    H217425   5.757   7.311   1.738
 5835TIP3   OH217426   5.398   7.549   1.214
 5835TIP3    H117427   5.322   7.489   1.226
 5835TIP3    H217428   5.469   7.501   1.261
 5836TIP3   OH217429   4.111   7.777   0.687
 5836TIP3    H117430   4.187   7.837   0.702
 5836TIP3    H217431   4.151   7.722   0.616
 5837TIP3   OH217432   4.060   7.043   0.813
 5837TIP3    H117433   4.041   7.139   0.812
 5837TIP3    H217434   3.989   7.005   0.758
 5838TIP3   OH217435   5.359   8.492   1.142
 5838TIP3    H117436   5.369   8.490   1.045
 5838TIP3    H217437   5.449   8.531   1.160
 5839TIP3   OH217438   4.445   6.771   1.689
 5839TIP3    H117439   4.410   6.736   1.604
 5839TIP3    H217440   4.434   6.694   1.749
 5840TIP3   OH217441   3.997   7.966   1.109
 5840TIP3    H117442   3.921   8.008   1.153
 5840TIP3    H217443   3.980   7.995   1.017
 5841TIP3   OH217444   4.215   8.469   2.112
 5841TIP3    H117445   4.281   8.487   2.182
 5841TIP3    H217446   4.180   8.384   2.141
 5842TIP3   OH217447   4.642   8.505   2.176
 5842TIP3    H117448   4.723   8.454   2.194
 5842TIP3    H217449   4.599   8.447   2.110
 5843TIP3   OH217450   5.258   8.386   1.910
 5843TIP3    H117451   5.244   8.324   1.986
 5843TIP3    H217452   5.335   8.438   1.941
 5844TIP3   OH217453   4.269   7.937   2.342
 5844TIP3    H117454   4.287   7.841   2.348
 5844TIP3    H217455   4.181   7.938   2.299
 5845TIP3   OH217456   4.263   7.599   0.544
 5845TIP3    H117457   4.316   7.564   0.617
 5845TIP3    H217458   4.328   7.604   0.472
 5846TIP3   OH217459   4.880   8.023   2.114
 5846TIP3    H117460   4.832   8.035   2.030
 5846TIP3    H217461   4.908   7.929   2.109
 5847TIP3   OH217462   5.371   8.021   1.721
 5847TIP3    H117463   5.442   8.075   1.680
 5847TIP3    H217464   5.294   8.079   1.713
 5848TIP3   OH217465   4.389   7.671   2.324
 5848TIP3    H117466   4.461   7.609   2.308
 5848TIP3    H217467   4.414   7.706   2.412
 5849TIP3   OH217468   4.451   7.488   0.756
 5849TIP3    H117469   4.420   7.443   0.836
 5849TIP3    H217470   4.485   7.413   0.703
 5850TIP3   OH217471   4.725   7.559   1.988
 5850TIP3    H117472   4.644   7.615   1.989
 5850TIP3    H217473   4.772   7.592   1.909
 5851TIP3   OH217474   4.554   7.282   0.587
 5851TIP3    H117475   4.565   7.207   0.525
 5851TIP3    H217476   4.647   7.309   0.597
 5852TIP3   OH217477   5.241   7.958   2.119
 5852TIP3    H117478   5.324   7.934   2.078
 5852TIP3    H217479   5.234   7.893   2.191
 5853TIP3   OH217480   4.849   7.346   2.111
 5853TIP3    H117481   4.844   7.264   2.057
 5853TIP3    H217482   4.802   7.411   2.055
 5854TIP3   OH217483   4.850   7.130   1.918
 5854TIP3    H117484   4.875   7.171   1.833
 5854TIP3    H217485   4.755   7.107   1.902
 5855TIP3   OH217486   4.878   7.668   1.793
 5855TIP3    H117487   4.959   7.674   1.740
 5855TIP3    H217488   4.819   7.731   1.747
 5856TIP3   OH217489   5.457   7.632   2.172
 5856TIP3    H117490   5.507   7.551   2.188
 5856TIP3    H217491   5.526   7.693   2.142
 5857TIP3   OH217492   5.502   7.883   1.910
 5857TIP3    H117493   5.443   7.935   1.851
 5857TIP3    H217494   5.589   7.905   1.869
 5858TIP3   OH217495   4.725   7.457   2.342
 5858TIP3    H117496   4.656   7.388   2.358
 5858TIP3    H217497   4.758   7.429   2.254
 5859TIP3   OH217498   4.980   6.892   1.983
 5859TIP3    H117499   4.930   6.974   1.964
 5859TIP3    H217500   4.910   6.824   1.976
 5860TIP3   OH217501   5.108   7.399   2.203
 5860TIP3    H117502   5.095   7.386   2.299
 5860TIP3    H217503   5.018   7.375   2.172
 5861TIP3   OH217504   5.345   7.344   2.056
 5861TIP3    H117505   5.270   7.349   2.119
 5861TIP3    H217506   5.419   7.316   2.114
 5862TIP3   OH217507   5.577   7.288   2.206
 5862TIP3    H117508   5.587   7.192   2.227
 5862TIP3    H217509   5.571   7.328   2.296
 5863TIP3   OH217510   4.565   7.237   2.394
 5863TIP3    H117511   4.566   7.144   2.363
 5863TIP3    H217512   4.601   7.226   2.485
 5864TIP3   OH217513   5.081   6.907   2.239
 5864TIP3    H117514   5.143   6.831   2.236
 5864TIP3    H217515   5.036   6.897   2.153
 5865TIP3   OH217516   5.144   7.121   2.401
 5865TIP3    H117517   5.121   7.049   2.338
 5865TIP3    H217518   5.064   7.178   2.397
 5866TIP3   OH217519   3.838   7.733   0.719
 5866TIP3    H117520   3.933   7.752   0.704
 5866TIP3    H217521   3.831   7.640   0.686
 5867TIP3   OH217522   3.887   8.186   1.301
 5867TIP3    H117523   3.872   8.115   1.365
 5867TIP3    H217524   3.935   8.250   1.357
 5868TIP3   OH217525   5.618   8.578   1.134
 5868TIP3    H117526   5.658   8.628   1.207
 5868TIP3    H217527   5.637   8.639   1.060
 5869TIP3   OH217528   5.675   8.581   1.427
 5869TIP3    H117529   5.625   8.499   1.409
 5869TIP3    H217530   5.744   8.547   1.487
 5870TIP3   OH217531   5.688   8.284   1.971
 5870TIP3    H117532   5.618   8.295   2.038
 5870TIP3    H217533   5.736   8.369   1.979
 5871TIP3   OH217534   5.641   7.667   0.794
 5871TIP3    H117535   5.569   7.635   0.851
 5871TIP3    H217536   5.700   7.712   0.857
 5872TIP3   OH217537   5.686   8.056   1.227
 5872TIP3    H117538   5.745   7.995   1.180
 5872TIP3    H217539   5.699   8.139   1.176
 5873TIP3   OH217540   5.532   8.343   1.416
 5873TIP3    H117541   5.463   8.391   1.466
 5873TIP3    H217542   5.480   8.290   1.352
 5874TIP3   OH217543   5.460   7.525   0.950
 5874TIP3    H117544   5.453   7.428   0.950
 5874TIP3    H217545   5.443   7.545   1.045
 5875TIP3   OH217546   4.080   7.601   1.692
 5875TIP3    H117547   4.077   7.570   1.599
 5875TIP3    H217548   4.177   7.601   1.708
 5876TIP3   OH217549   5.743   7.953   1.800
 5876TIP3    H117550   5.815   7.886   1.792
 5876TIP3    H217551   5.774   8.024   1.741
 5877TIP3   OH217552   5.927   7.757   1.815
 5877TIP3    H117553   5.853   7.707   1.857
 5877TIP3    H217554   6.001   7.694   1.831
 5878TIP3   OH217555   5.444   7.238   0.845
 5878TIP3    H117556   5.479   7.146   0.859
 5878TIP3    H217557   5.520   7.277   0.800
 5879TIP3   OH217558   5.610   7.418   1.334
 5879TIP3    H117559   5.697   7.443   1.295
 5879TIP3    H217560   5.623   7.453   1.424
 5880TIP3   OH217561   5.679   7.560   1.566
 5880TIP3    H117562   5.602   7.594   1.616
 5880TIP3    H217563   5.712   7.641   1.522
 5881TIP3   OH217564   4.299   7.290   2.368
 5881TIP3    H117565   4.397   7.281   2.369
 5881TIP3    H217566   4.273   7.203   2.406
 5882TIP3   OH217567   6.133   7.153   2.123
 5882TIP3    H117568   6.192   7.087   2.079
 5882TIP3    H217569   6.103   7.207   2.047
 5883TIP3   OH217570   5.555   6.993   0.879
 5883TIP3    H117571   5.603   6.977   0.962
 5883TIP3    H217572   5.496   6.914   0.876
 5884TIP3   OH217573   4.261   6.978   1.694
 5884TIP3    H117574   4.323   6.905   1.706
 5884TIP3    H217575   4.322   7.054   1.690
 5885TIP3   OH217576   4.062   7.252   1.770
 5885TIP3    H117577   4.110   7.248   1.685
 5885TIP3    H217578   4.090   7.338   1.804
 5886TIP3   OH217579   6.003   7.292   1.929
 5886TIP3    H117580   5.918   7.334   1.954
 5886TIP3    H217581   5.970   7.221   1.870
 5887TIP3   OH217582   4.045   6.765   1.278
 5887TIP3    H117583   3.950   6.754   1.296
 5887TIP3    H217584   4.044   6.819   1.196
 5888TIP3   OH217585   4.261   6.831   2.083
 5888TIP3    H117586   4.214   6.832   2.168
 5888TIP3    H217587   4.195   6.872   2.024
 5889TIP3   OH217588   4.329   8.216   2.173
 5889TIP3    H117589   4.236   8.199   2.152
 5889TIP3    H217590   4.326   8.227   2.269
 5890TIP3   OH217591   4.481   8.295   1.721
 5890TIP3    H117592   4.407   8.323   1.667
 5890TIP3    H217593   4.558   8.309   1.661
 5891TIP3   OH217594   4.969   8.530   1.818
 5891TIP3    H117595   4.959   8.515   1.914
 5891TIP3    H217596   5.030   8.604   1.823
 5892TIP3   OH217597   5.901   7.055   1.806
 5892TIP3    H117598   5.810   7.050   1.773
 5892TIP3    H217599   5.931   6.962   1.795
 5893TIP3   OH217600   5.091   8.542   1.392
 5893TIP3    H117601   4.996   8.528   1.399
 5893TIP3    H217602   5.104   8.612   1.461
 5894TIP3   OH217603   4.046   8.306   1.497
 5894TIP3    H117604   4.092   8.292   1.582
 5894TIP3    H217605   4.118   8.343   1.443
 5895TIP3   OH217606   4.268   8.214   1.324
 5895TIP3    H117607   4.270   8.136   1.384
 5895TIP3    H217608   4.363   8.241   1.326
 5896TIP3   OH217609   4.525   8.296   1.343
 5896TIP3    H117610   4.558   8.204   1.341
 5896TIP3    H217611   4.584   8.334   1.410
 5897TIP3   OH217612   5.113   6.975   1.428
 5897TIP3    H117613   5.061   6.908   1.475
 5897TIP3    H217614   5.178   6.921   1.379
 5898TIP3   OH217615   5.631   6.849   1.329
 5898TIP3    H117616   5.665   6.904   1.255
 5898TIP3    H217617   5.535   6.866   1.324
 5899TIP3   OH217618   5.726   6.953   1.092
 5899TIP3    H117619   5.801   6.903   1.054
 5899TIP3    H217620   5.757   7.045   1.082
 5900TIP3   OH217621   4.357   6.675   1.442
 5900TIP3    H117622   4.264   6.644   1.442
 5900TIP3    H217623   4.405   6.592   1.438
 5901TIP3   OH217624   4.155   6.547   1.094
 5901TIP3    H117625   4.178   6.601   1.016
 5901TIP3    H217626   4.112   6.613   1.152
 5902TIP3   OH217627   4.814   6.709   1.334
 5902TIP3    H117628   4.862   6.755   1.264
 5902TIP3    H217629   4.813   6.774   1.405
 5903TIP3   OH217630   5.349   6.855   1.304
 5903TIP3    H117631   5.340   6.818   1.215
 5903TIP3    H217632   5.332   6.776   1.360
 5904TIP3   OH217633   5.370   6.782   0.873
 5904TIP3    H117634   5.282   6.822   0.880
 5904TIP3    H217635   5.356   6.696   0.919
 5905TIP3   OH217636   3.855   8.052   0.898
 5905TIP3    H117637   3.793   8.009   0.837
 5905TIP3    H217638   3.851   8.144   0.865
 5906TIP3   OH217639   4.258   6.693   0.871
 5906TIP3    H117640   4.300   6.644   0.797
 5906TIP3    H217641   4.330   6.753   0.898
 5907TIP3   OH217642   4.770   6.882   0.953
 5907TIP3    H117643   4.831   6.834   1.012
 5907TIP3    H217644   4.794   6.975   0.977
 5908TIP3   OH217645   4.561   6.967   2.338
 5908TIP3    H117646   4.525   6.889   2.385
 5908TIP3    H217647   4.655   6.960   2.365
 5909TIP3   OH217648   4.813   6.958   2.453
 5909TIP3    H117649   4.897   6.923   2.417
 5909TIP3    H217650   4.793   6.891   2.522
 5910TIP3   OH217651   3.950   8.115   0.530
 5910TIP3    H117652   3.937   8.191   0.589
 5910TIP3    H217653   4.040   8.087   0.548
 5911TIP3   OH217654   5.637   7.016   2.239
 5911TIP3    H117655   5.654   6.986   2.331
 5911TIP3    H217656   5.726   7.012   2.200
 5912TIP3   OH217657   5.596   8.581   1.724
 5912TIP3    H117658   5.525   8.533   1.677
 5912TIP3    H217659   5.557   8.669   1.729
 5913TIP3   OH217660   6.145   7.837   1.238
 5913TIP3    H117661   6.169   7.768   1.302
 5913TIP3    H217662   6.210   7.905   1.261
 5914TIP3   OH217663   6.089   8.233   1.003
 5914TIP3    H117664   6.092   8.136   0.991
 5914TIP3    H217665   6.180   8.257   0.985
 5915TIP3   OH217666   5.785   7.437   0.752
 5915TIP3    H117667   5.756   7.529   0.766
 5915TIP3    H217668   5.772   7.398   0.839
 5916TIP3   OH217669   5.878   7.739   0.924
 5916TIP3    H117670   5.931   7.664   0.959
 5916TIP3    H217671   5.925   7.762   0.843
 5917TIP3   OH217672   6.370   7.336   0.922
 5917TIP3    H117673   6.343   7.407   0.862
 5917TIP3    H217674   6.323   7.260   0.882
 5918TIP3   OH217675   6.025   7.534   1.032
 5918TIP3    H117676   6.105   7.515   1.085
 5918TIP3    H217677   6.040   7.473   0.957
 5919TIP3   OH217678   6.384   7.311   1.360
 5919TIP3    H117679   6.324   7.349   1.293
 5919TIP3    H217680   6.334   7.329   1.441
 5920TIP3   OH217681   6.492   8.087   1.154
 5920TIP3    H117682   6.423   8.140   1.201
 5920TIP3    H217683   6.537   8.157   1.106
 5921TIP3   OH217684   6.255   7.429   1.148
 5921TIP3    H117685   6.319   7.500   1.171
 5921TIP3    H217686   6.302   7.388   1.072
 5922TIP3   OH217687   6.315   8.274   1.245
 5922TIP3    H117688   6.292   8.365   1.214
 5922TIP3    H217689   6.238   8.259   1.304
 5923TIP3   OH217690   7.402   7.356   1.066
 5923TIP3    H117691   7.311   7.372   1.033
 5923TIP3    H217692   7.456   7.399   1.000
 5924TIP3   OH217693   6.738   7.028   1.068
 5924TIP3    H117694   6.726   6.934   1.094
 5924TIP3    H217695   6.664   7.069   1.118
 5925TIP3   OH217696   6.399   7.847   1.061
 5925TIP3    H117697   6.448   7.846   0.978
 5925TIP3    H217698   6.427   7.933   1.099
 5926TIP3   OH217699   6.523   8.382   1.397
 5926TIP3    H117700   6.482   8.458   1.444
 5926TIP3    H217701   6.445   8.342   1.357
 5927TIP3   OH217702   6.277   7.961   1.488
 5927TIP3    H117703   6.286   8.046   1.537
 5927TIP3    H217704   6.184   7.940   1.510
 5928TIP3   OH217705   6.319   8.560   1.476
 5928TIP3    H117706   6.274   8.561   1.391
 5928TIP3    H217707   6.249   8.537   1.539
 5929TIP3   OH217708   5.898   8.100   1.432
 5929TIP3    H117709   5.837   8.077   1.359
 5929TIP3    H217710   5.937   8.013   1.456
 5930TIP3   OH217711   5.757   8.284   1.092
 5930TIP3    H117712   5.843   8.290   1.049
 5930TIP3    H217713   5.735   8.378   1.107
 5931TIP3   OH217714   6.105   8.281   1.415
 5931TIP3    H117715   6.151   8.276   1.502
 5931TIP3    H217716   6.031   8.218   1.427
 5932TIP3   OH217717   6.505   7.106   1.202
 5932TIP3    H117718   6.414   7.077   1.177
 5932TIP3    H217719   6.482   7.190   1.246
 5933TIP3   OH217720   7.039   7.221   1.395
 5933TIP3    H117721   7.107   7.196   1.461
 5933TIP3    H217722   6.955   7.204   1.441
 5934TIP3   OH217723   7.256   7.629   1.311
 5934TIP3    H117724   7.224   7.625   1.403
 5934TIP3    H217725   7.290   7.719   1.303
 5935TIP3   OH217726   6.429   7.627   1.218
 5935TIP3    H117727   6.382   7.649   1.302
 5935TIP3    H217728   6.414   7.708   1.165
 5936TIP3   OH217729   6.992   7.874   1.553
 5936TIP3    H117730   6.951   7.806   1.611
 5936TIP3    H217731   7.084   7.866   1.586
 5937TIP3   OH217732   6.251   7.653   1.430
 5937TIP3    H117733   6.281   7.715   1.498
 5937TIP3    H217734   6.243   7.570   1.481
 5938TIP3   OH217735   5.839   7.189   1.017
 5938TIP3    H117736   5.922   7.211   1.063
 5938TIP3    H217737   5.867   7.166   0.927
 5939TIP3   OH217738   6.926   7.824   1.122
 5939TIP3    H117739   6.987   7.778   1.063
 5939TIP3    H217740   6.917   7.760   1.196
 5940TIP3   OH217741   6.068   7.374   0.818
 5940TIP3    H117742   5.996   7.388   0.753
 5940TIP3    H217743   6.113   7.296   0.782
 5941TIP3   OH217744   7.140   7.396   1.000
 5941TIP3    H117745   7.102   7.426   1.085
 5941TIP3    H217746   7.066   7.343   0.966
 5942TIP3   OH217747   6.268   8.197   1.639
 5942TIP3    H117748   6.345   8.233   1.686
 5942TIP3    H217749   6.200   8.210   1.708
 5943TIP3   OH217750   6.243   7.154   0.766
 5943TIP3    H117751   6.213   7.074   0.814
 5943TIP3    H217752   6.317   7.122   0.713
 5944TIP3   OH217753   6.700   7.540   1.208
 5944TIP3    H117754   6.616   7.589   1.200
 5944TIP3    H217755   6.763   7.606   1.242
 5945TIP3   OH217756   6.136   7.965   0.962
 5945TIP3    H117757   6.177   7.927   0.884
 5945TIP3    H217758   6.162   7.903   1.033
 5946TIP3   OH217759   6.018   7.889   1.567
 5946TIP3    H117760   6.039   7.878   1.661
 5946TIP3    H217761   5.948   7.822   1.555
 5947TIP3   OH217762   6.744   7.998   1.589
 5947TIP3    H117763   6.683   7.942   1.538
 5947TIP3    H217764   6.831   7.967   1.557
 5948TIP3   OH217765   6.227   7.395   1.575
 5948TIP3    H117766   6.131   7.400   1.591
 5948TIP3    H217767   6.256   7.337   1.647
 5949TIP3   OH217768   5.958   8.497   1.210
 5949TIP3    H117769   5.990   8.406   1.223
 5949TIP3    H217770   5.974   8.535   1.297
 5950TIP3   OH217771   7.051   7.460   1.254
 5950TIP3    H117772   7.134   7.505   1.280
 5950TIP3    H217773   7.051   7.380   1.309
 5951TIP3   OH217774   6.900   7.690   1.352
 5951TIP3    H117775   6.931   7.750   1.423
 5951TIP3    H217776   6.959   7.614   1.363
 5952TIP3   OH217777   6.238   7.028   1.177
 5952TIP3    H117778   6.209   6.993   1.090
 5952TIP3    H217779   6.229   6.949   1.235
 5953TIP3   OH217780   6.010   8.725   1.602
 5953TIP3    H117781   6.076   8.744   1.672
 5953TIP3    H217782   5.975   8.640   1.631
 5954TIP3   OH217783   6.064   8.192   1.831
 5954TIP3    H117784   6.083   8.097   1.834
 5954TIP3    H217785   5.977   8.195   1.787
 5955TIP3   OH217786   6.651   8.268   1.613
 5955TIP3    H117787   6.628   8.299   1.523
 5955TIP3    H217788   6.702   8.187   1.595
 5956TIP3   OH217789   6.184   7.924   1.811
 5956TIP3    H117790   6.262   7.870   1.793
 5956TIP3    H217791   6.208   7.962   1.898
 5957TIP3   OH217792   6.518   7.813   1.472
 5957TIP3    H117793   6.442   7.874   1.475
 5957TIP3    H217794   6.570   7.848   1.396
 5958TIP3   OH217795   6.640   7.599   1.600
 5958TIP3    H117796   6.642   7.519   1.544
 5958TIP3    H217797   6.599   7.665   1.539
 5959TIP3   OH217798   6.642   7.380   1.418
 5959TIP3    H117799   6.673   7.427   1.337
 5959TIP3    H217800   6.549   7.360   1.394
 5960TIP3   OH217801   6.677   7.920   1.278
 5960TIP3    H117802   6.753   7.904   1.220
 5960TIP3    H217803   6.625   7.987   1.230
 5961TIP3   OH217804   7.237   7.854   1.683
 5961TIP3    H117805   7.277   7.766   1.670
 5961TIP3    H217806   7.305   7.912   1.644
 5962TIP3   OH217807   6.520   7.712   1.829
 5962TIP3    H117808   6.451   7.645   1.844
 5962TIP3    H217809   6.554   7.686   1.741
 5963TIP3   OH217810   6.779   7.148   1.474
 5963TIP3    H117811   6.729   7.230   1.454
 5963TIP3    H217812   6.709   7.080   1.462
 5964TIP3   OH217813   6.897   7.662   1.690
 5964TIP3    H117814   6.887   7.648   1.786
 5964TIP3    H217815   6.807   7.633   1.660
 5965TIP3   OH217816   7.135   7.604   1.552
 5965TIP3    H117817   7.060   7.609   1.614
 5965TIP3    H217818   7.207   7.573   1.611
 5966TIP3   OH217819   7.345   7.548   1.710
 5966TIP3    H117820   7.379   7.456   1.708
 5966TIP3    H217821   7.378   7.579   1.797
 5967TIP3   OH217822   6.359   7.493   1.881
 5967TIP3    H117823   6.365   7.402   1.848
 5967TIP3    H217824   6.394   7.482   1.972
 5968TIP3   OH217825   6.872   7.159   1.732
 5968TIP3    H117826   6.939   7.088   1.724
 5968TIP3    H217827   6.831   7.155   1.642
 5969TIP3   OH217828   6.937   7.372   1.895
 5969TIP3    H117829   6.915   7.303   1.828
 5969TIP3    H217830   6.860   7.433   1.886
 5970TIP3   OH217831   5.877   7.857   1.178
 5970TIP3    H117832   5.873   7.827   1.085
 5970TIP3    H217833   5.974   7.858   1.194
 5971TIP3   OH217834   6.092   7.544   1.851
 5971TIP3    H117835   6.190   7.538   1.854
 5971TIP3    H217836   6.068   7.459   1.893
 5972TIP3   OH217837   6.055   7.236   1.185
 5972TIP3    H117838   6.117   7.161   1.195
 5972TIP3    H217839   6.118   7.310   1.178
 5973TIP3   OH217840   5.856   7.510   1.255
 5973TIP3    H117841   5.908   7.506   1.173
 5973TIP3    H217842   5.885   7.594   1.293
 5974TIP3   OH217843   5.818   7.070   0.760
 5974TIP3    H117844   5.741   7.018   0.786
 5974TIP3    H217845   5.865   7.013   0.698
 5975TIP3   OH217846   6.061   7.093   1.571
 5975TIP3    H117847   6.011   7.088   1.654
 5975TIP3    H217848   5.994   7.131   1.511
 5976TIP3   OH217849   6.121   8.467   1.660
 5976TIP3    H117850   6.027   8.457   1.641
 5976TIP3    H217851   6.122   8.486   1.755
 5977TIP3   OH217852   6.277   8.543   1.190
 5977TIP3    H117853   6.211   8.602   1.152
 5977TIP3    H217854   6.359   8.581   1.158
 5978TIP3   OH217855   7.649   7.280   1.286
 5978TIP3    H117856   7.574   7.235   1.243
 5978TIP3    H217857   7.724   7.226   1.257
 5979TIP3   OH217858   5.878   8.617   0.967
 5979TIP3    H117859   5.895   8.583   1.057
 5979TIP3    H217860   5.945   8.570   0.916
 5980TIP3   OH217861   6.932   7.218   0.921
 5980TIP3    H117862   6.861   7.174   0.970
 5980TIP3    H217863   6.956   7.152   0.855
 5981TIP3   OH217864   6.153   6.936   0.923
 5981TIP3    H117865   6.061   6.904   0.932
 5981TIP3    H217866   6.201   6.850   0.926
 5982TIP3   OH217867   6.586   6.957   0.833
 5982TIP3    H117868   6.617   7.015   0.763
 5982TIP3    H217869   6.632   6.992   0.911
 5983TIP3   OH217870   6.359   7.216   1.818
 5983TIP3    H117871   6.323   7.147   1.876
 5983TIP3    H217872   6.453   7.216   1.847
 5984TIP3   OH217873   6.607   7.215   1.939
 5984TIP3    H117874   6.692   7.188   1.898
 5984TIP3    H217875   6.595   7.144   2.005
 5985TIP3   OH217876   7.432   7.278   1.724
 5985TIP3    H117877   7.455   7.247   1.814
 5985TIP3    H217878   7.518   7.272   1.678
 5986TIP3   OH217879   1.434   0.845   5.853
 5986TIP3    H117880   1.524   0.812   5.843
 5986TIP3    H217881   1.430   0.864   5.949
 5987TIP3   OH217882   2.421  -0.086   6.343
 5987TIP3    H117883   2.327  -0.061   6.349
 5987TIP3    H217884   2.434  -0.139   6.424
 5988TIP3   OH217885   1.803   0.644   5.946
 5988TIP3    H117886   1.757   0.641   6.035
 5988TIP3    H217887   1.842   0.736   5.950
 5989TIP3   OH217888   2.090   0.571   6.356
 5989TIP3    H117889   2.089   0.488   6.304
 5989TIP3    H217890   2.090   0.639   6.286
 5990TIP3   OH217891   2.283   0.188   6.196
 5990TIP3    H117892   2.212   0.254   6.206
 5990TIP3    H217893   2.318   0.210   6.108
 5991TIP3   OH217894   1.628   0.632   6.157
 5991TIP3    H117895   1.610   0.729   6.160
 5991TIP3    H217896   1.640   0.618   6.252
 5992TIP3   OH217897   1.376   0.616   5.689
 5992TIP3    H117898   1.350   0.698   5.733
 5992TIP3    H217899   1.293   0.584   5.649
 5993TIP3   OH217900   1.887   0.507   5.011
 5993TIP3    H117901   1.897   0.602   4.988
 5993TIP3    H217902   1.979   0.475   4.996
 5994TIP3   OH217903   2.329   0.904   6.398
 5994TIP3    H117904   2.331   0.808   6.416
 5994TIP3    H217905   2.247   0.930   6.446
 5995TIP3   OH217906   1.215   0.828   5.485
 5995TIP3    H117907   1.161   0.800   5.409
 5995TIP3    H217908   1.180   0.918   5.502
 5996TIP3   OH217909   1.398   0.718   5.125
 5996TIP3    H117910   1.457   0.651   5.085
 5996TIP3    H217911   1.438   0.729   5.214
 5997TIP3   OH217912   1.462   0.768   5.390
 5997TIP3    H117913   1.373   0.781   5.431
 5997TIP3    H217914   1.514   0.741   5.467
 5998TIP3   OH217915   1.648  -0.026   5.164
 5998TIP3    H117916   1.610  -0.072   5.086
 5998TIP3    H217917   1.734   0.001   5.125
 5999TIP3   OH217918   2.020   1.256   6.499
 5999TIP3    H117919   2.020   1.284   6.405
 5999TIP3    H217920   2.099   1.303   6.532
 6000TIP3   OH217921   2.071   0.358   6.191
 6000TIP3    H117922   2.085   0.392   6.099
 6000TIP3    H217923   1.990   0.305   6.186
 6001TIP3   OH217924   1.699   0.705   6.422
 6001TIP3    H117925   1.605   0.696   6.447
 6001TIP3    H217926   1.737   0.734   6.506
 6002TIP3   OH217927   2.124  -0.230   5.350
 6002TIP3    H117928   2.050  -0.272   5.302
 6002TIP3    H217929   2.118  -0.140   5.311
 6003TIP3   OH217930   2.344   0.623   6.440
 6003TIP3    H117931   2.246   0.615   6.436
 6003TIP3    H217932   2.368   0.589   6.351
 6004TIP3   OH217933   1.819   0.565   5.272
 6004TIP3    H117934   1.813   0.477   5.310
 6004TIP3    H217935   1.839   0.545   5.179
 6005TIP3   OH217936   1.580   0.303   5.172
 6005TIP3    H117937   1.637   0.280   5.249
 6005TIP3    H217938   1.497   0.261   5.198
 6006TIP3   OH217939   1.855   0.942   6.339
 6006TIP3    H117940   1.776   0.884   6.335
 6006TIP3    H217941   1.837   1.006   6.266
 6007TIP3   OH217942   1.918   0.779   4.992
 6007TIP3    H117943   1.958   0.848   4.936
 6007TIP3    H217944   1.838   0.829   5.022
 6008TIP3   OH217945   1.743   0.240   5.389
 6008TIP3    H117946   1.734   0.161   5.443
 6008TIP3    H217947   1.841   0.239   5.373
 6009TIP3   OH217948   1.876   0.905   5.922
 6009TIP3    H117949   1.835   0.961   5.852
 6009TIP3    H217950   1.970   0.934   5.911
 6010TIP3   OH217951   1.127   0.494   5.079
 6010TIP3    H117952   1.086   0.418   5.123
 6010TIP3    H217953   1.195   0.448   5.024
 6011TIP3   OH217954   1.763   0.814   6.703
 6011TIP3    H117955   1.800   0.728   6.727
 6011TIP3    H217956   1.839   0.873   6.720
 6012TIP3   OH217957   1.543   0.527   4.990
 6012TIP3    H117958   1.597   0.472   5.048
 6012TIP3    H217959   1.597   0.531   4.908
 6013TIP3   OH217960   1.896   0.521   6.552
 6013TIP3    H117961   1.969   0.537   6.489
 6013TIP3    H217962   1.818   0.529   6.495
 6014TIP3   OH217963   1.882   0.031   5.027
 6014TIP3    H117964   1.864  -0.014   4.942
 6014TIP3    H217965   1.851   0.122   5.002
 6015TIP3   OH217966   2.016   0.319   6.686
 6015TIP3    H117967   1.962   0.395   6.655
 6015TIP3    H217968   2.098   0.335   6.634
 6016TIP3   OH217969   0.868   0.762   5.246
 6016TIP3    H117970   0.962   0.788   5.239
 6016TIP3    H217971   0.832   0.811   5.170
 6017TIP3   OH217972   2.120   1.014   5.891
 6017TIP3    H117973   2.153   1.050   5.976
 6017TIP3    H217974   2.184   1.051   5.828
 6018TIP3   OH217975   2.154   1.034   6.172
 6018TIP3    H117976   2.120   0.942   6.168
 6018TIP3    H217977   2.235   1.019   6.224
 6019TIP3   OH217978   2.203   0.708   6.741
 6019TIP3    H117979   2.130   0.717   6.805
 6019TIP3    H217980   2.246   0.796   6.746
 6020TIP3   OH217981   2.014   0.228   5.365
 6020TIP3    H117982   2.085   0.286   5.331
 6020TIP3    H217983   2.061   0.187   5.442
 6021TIP3   OH217984   2.142   0.098   5.566
 6021TIP3    H117985   2.085   0.046   5.627
 6021TIP3    H217986   2.217   0.123   5.625
 6022TIP3   OH217987   2.175   0.473   5.967
 6022TIP3    H117988   2.247   0.410   5.945
 6022TIP3    H217989   2.205   0.555   5.921
 6023TIP3   OH217990   2.034   0.785   6.192
 6023TIP3    H117991   1.970   0.829   6.252
 6023TIP3    H217992   1.976   0.738   6.130
 6024TIP3   OH217993   2.082   0.003   5.212
 6024TIP3    H117994   2.011   0.005   5.144
 6024TIP3    H217995   2.053   0.078   5.268
 6025TIP3   OH217996   1.948  -0.334   5.170
 6025TIP3    H117997   1.924  -0.274   5.098
 6025TIP3    H217998   1.909  -0.417   5.141
 6026TIP3   OH217999   1.978  -0.057   5.726
 6026TIP3    H118000   1.984  -0.151   5.706
 6026TIP3    H218001   1.978  -0.056   5.822
 6027TIP3   OH218002   2.241   0.387   6.552
 6027TIP3    H118003   2.309   0.317   6.561
 6027TIP3    H218004   2.287   0.453   6.498
 6028TIP3   OH218005   2.397   0.192   6.638
 6028TIP3    H118006   2.347   0.112   6.618
 6028TIP3    H218007   2.487   0.155   6.631
 6029TIP3   OH218008   2.110  -0.131   6.083
 6029TIP3    H118009   2.198  -0.115   6.042
 6029TIP3    H218010   2.135  -0.130   6.176
 6030TIP3   OH218011   2.157  -0.007   6.341
 6030TIP3    H118012   2.103   0.050   6.398
 6030TIP3    H218013   2.202   0.060   6.284
 6031TIP3   OH218014   1.713   0.838   5.567
 6031TIP3    H118015   1.754   0.842   5.478
 6031TIP3    H218016   1.749   0.920   5.606
 6032TIP3   OH218017   1.447   1.002   6.609
 6032TIP3    H118018   1.495   0.983   6.693
 6032TIP3    H218019   1.519   1.031   6.551
 6033TIP3   OH218020   1.637   1.113   6.454
 6033TIP3    H118021   1.718   1.064   6.430
 6033TIP3    H218022   1.674   1.175   6.521
 6034TIP3   OH218023   1.360   0.995   6.127
 6034TIP3    H118024   1.286   1.035   6.079
 6034TIP3    H218025   1.367   1.058   6.202
 6035TIP3   OH218026   1.607   0.900   6.178
 6035TIP3    H118027   1.513   0.929   6.177
 6035TIP3    H218028   1.652   0.986   6.167
 6036TIP3   OH218029   1.798   1.104   6.124
 6036TIP3    H118030   1.786   1.193   6.083
 6036TIP3    H218031   1.834   1.053   6.049
 6037TIP3   OH218032   1.140   0.741   5.215
 6037TIP3    H118033   1.231   0.755   5.182
 6037TIP3    H218034   1.117   0.663   5.161
 6038TIP3   OH218035   1.844   0.838   5.319
 6038TIP3    H118036   1.839   0.742   5.300
 6038TIP3    H218037   1.809   0.876   5.236
 6039TIP3   OH218038   2.084   0.989   6.500
 6039TIP3    H118039   2.005   0.961   6.450
 6039TIP3    H218040   2.069   1.086   6.504
 6040TIP3   OH218041   3.351   0.359   5.265
 6040TIP3    H118042   3.324   0.451   5.247
 6040TIP3    H218043   3.270   0.312   5.239
 6041TIP3   OH218044   3.346   0.360   5.645
 6041TIP3    H118045   3.381   0.336   5.733
 6041TIP3    H218046   3.309   0.276   5.614
 6042TIP3   OH218047   2.641   0.265   6.021
 6042TIP3    H118048   2.666   0.197   6.087
 6042TIP3    H218049   2.728   0.282   5.980
 6043TIP3   OH218050   3.591   0.662   5.329
 6043TIP3    H118051   3.577   0.592   5.394
 6043TIP3    H218052   3.620   0.736   5.384
 6044TIP3   OH218053   2.614   0.660   5.737
 6044TIP3    H118054   2.608   0.562   5.738
 6044TIP3    H218055   2.711   0.671   5.736
 6045TIP3   OH218056   2.309  -0.136   5.530
 6045TIP3    H118057   2.267  -0.049   5.536
 6045TIP3    H218058   2.237  -0.188   5.490
 6046TIP3   OH218059   2.382   0.150   5.692
 6046TIP3    H118060   2.431   0.074   5.732
 6046TIP3    H218061   2.452   0.191   5.639
 6047TIP3   OH218062   3.238   1.123   5.344
 6047TIP3    H118063   3.286   1.051   5.298
 6047TIP3    H218064   3.234   1.089   5.434
 6048TIP3   OH218065   3.146   0.586   5.696
 6048TIP3    H118066   3.184   0.509   5.651
 6048TIP3    H218067   3.231   0.631   5.720
 6049TIP3   OH218068   3.562   0.078   5.736
 6049TIP3    H118069   3.596  -0.013   5.736
 6049TIP3    H218070   3.520   0.080   5.648
 6050TIP3   OH218071   3.571  -0.110   5.323
 6050TIP3    H118072   3.663  -0.138   5.338
 6050TIP3    H218073   3.563  -0.126   5.228
 6051TIP3   OH218074   2.539  -0.047   5.801
 6051TIP3    H118075   2.627  -0.060   5.843
 6051TIP3    H218076   2.555  -0.093   5.716
 6052TIP3   OH218077   2.970   0.147   5.595
 6052TIP3    H118078   3.064   0.123   5.607
 6052TIP3    H218079   2.932   0.060   5.567
 6053TIP3   OH218080   4.245   0.197   5.826
 6053TIP3    H118081   4.150   0.215   5.828
 6053TIP3    H218082   4.251   0.118   5.883
 6054TIP3   OH218083   3.244   0.583   5.134
 6054TIP3    H118084   3.196   0.561   5.054
 6054TIP3    H218085   3.199   0.667   5.160
 6055TIP3   OH218086   3.009   0.501   5.932
 6055TIP3    H118087   2.943   0.564   5.968
 6055TIP3    H218088   3.046   0.551   5.857
 6056TIP3   OH218089   2.792  -0.116   5.889
 6056TIP3    H118090   2.857  -0.074   5.949
 6056TIP3    H218091   2.850  -0.176   5.842
 6057TIP3   OH218092   2.828   0.698   6.020
 6057TIP3    H118093   2.803   0.785   5.983
 6057TIP3    H218094   2.749   0.681   6.076
 6058TIP3   OH218095   2.217   0.389   5.257
 6058TIP3    H118096   2.185   0.418   5.170
 6058TIP3    H218097   2.253   0.472   5.294
 6059TIP3   OH218098   3.662   0.905   5.496
 6059TIP3    H118099   3.573   0.895   5.537
 6059TIP3    H218100   3.653   0.991   5.452
 6060TIP3   OH218101   3.366   0.949   5.171
 6060TIP3    H118102   3.416   0.867   5.151
 6060TIP3    H218103   3.427   1.015   5.131
 6061TIP3   OH218104   3.510   0.735   5.076
 6061TIP3    H118105   3.461   0.658   5.044
 6061TIP3    H218106   3.546   0.701   5.161
 6062TIP3   OH218107   3.888   0.820   5.839
 6062TIP3    H118108   3.876   0.741   5.783
 6062TIP3    H218109   3.870   0.893   5.776
 6063TIP3   OH218110   3.175   0.213   5.095
 6063TIP3    H118111   3.096   0.266   5.075
 6063TIP3    H218112   3.223   0.214   5.010
 6064TIP3   OH218113   3.145  -0.012   4.813
 6064TIP3    H118114   3.205   0.048   4.862
 6064TIP3    H218115   3.208  -0.061   4.758
 6065TIP3   OH218116   4.078   0.454   5.684
 6065TIP3    H118117   3.997   0.509   5.690
 6065TIP3    H218118   4.109   0.478   5.594
 6066TIP3   OH218119   3.525   0.291   5.066
 6066TIP3    H118120   3.470   0.314   5.145
 6066TIP3    H218121   3.610   0.270   5.110
 6067TIP3   OH218122   3.755   0.346   5.977
 6067TIP3    H118123   3.753   0.429   6.029
 6067TIP3    H218124   3.668   0.351   5.933
 6068TIP3   OH218125   2.762   0.295   5.484
 6068TIP3    H118126   2.723   0.234   5.418
 6068TIP3    H218127   2.837   0.242   5.519
 6069TIP3   OH218128   2.889   0.703   5.636
 6069TIP3    H118129   2.870   0.657   5.553
 6069TIP3    H218130   2.979   0.671   5.656
 6070TIP3   OH218131   2.863   0.286   5.829
 6070TIP3    H118132   2.911   0.235   5.761
 6070TIP3    H218133   2.930   0.349   5.860
 6071TIP3   OH218134   3.422   0.900   5.617
 6071TIP3    H118135   3.409   0.980   5.671
 6071TIP3    H218136   3.406   0.827   5.681
 6072TIP3   OH218137   3.034   0.820   6.163
 6072TIP3    H118138   2.974   0.881   6.210
 6072TIP3    H218139   2.970   0.765   6.114
 6073TIP3   OH218140   3.357   0.167   4.888
 6073TIP3    H118141   3.418   0.223   4.942
 6073TIP3    H218142   3.388   0.187   4.797
 6074TIP3   OH218143   2.795   0.386   6.266
 6074TIP3    H118144   2.787   0.471   6.314
 6074TIP3    H218145   2.703   0.359   6.257
 6075TIP3   OH218146   3.110   0.832   5.170
 6075TIP3    H118147   3.189   0.884   5.189
 6075TIP3    H218148   3.050   0.897   5.132
 6076TIP3   OH218149   2.828   0.987   6.250
 6076TIP3    H118150   2.792   0.988   6.160
 6076TIP3    H218151   2.748   0.967   6.304
 6077TIP3   OH218152   2.629   0.134   5.288
 6077TIP3    H118153   2.558   0.172   5.232
 6077TIP3    H218154   2.594   0.048   5.312
 6078TIP3   OH218155   3.681   0.759   4.491
 6078TIP3    H118156   3.690   0.856   4.477
 6078TIP3    H218157   3.774   0.730   4.479
 6079TIP3   OH218158   2.403   0.517   6.199
 6079TIP3    H118159   2.363   0.480   6.119
 6079TIP3    H218160   2.443   0.436   6.240
 6080TIP3   OH218161   2.262   0.709   5.838
 6080TIP3    H118162   2.356   0.695   5.819
 6080TIP3    H218163   2.266   0.791   5.891
 6081TIP3   OH218164   4.125   1.162   5.885
 6081TIP3    H118165   4.125   1.066   5.900
 6081TIP3    H218166   4.043   1.187   5.932
 6082TIP3   OH218167   3.229   0.949   6.020
 6082TIP3    H118168   3.230   1.042   6.053
 6082TIP3    H218169   3.159   0.910   6.075
 6083TIP3   OH218170   2.991   1.077   4.973
 6083TIP3    H118171   2.947   1.062   4.888
 6083TIP3    H218172   2.961   1.166   4.998
 6084TIP3   OH218173   2.429   0.925   5.359
 6084TIP3    H118174   2.481   0.918   5.441
 6084TIP3    H218175   2.372   0.847   5.367
 6085TIP3   OH218176   3.193   0.978   4.613
 6085TIP3    H118177   3.253   0.909   4.577
 6085TIP3    H218178   3.227   0.988   4.705
 6086TIP3   OH218179   3.243   1.026   4.883
 6086TIP3    H118180   3.155   1.036   4.925
 6086TIP3    H218181   3.294   0.988   4.957
 6087TIP3   OH218182   4.015   0.281   6.153
 6087TIP3    H118183   3.935   0.328   6.124
 6087TIP3    H218184   4.012   0.203   6.096
 6088TIP3   OH218185   2.610   0.701   6.187
 6088TIP3    H118186   2.662   0.686   6.268
 6088TIP3    H218187   2.538   0.636   6.196
 6089TIP3   OH218188   3.777   0.092   6.080
 6089TIP3    H118189   3.753   0.115   6.170
 6089TIP3    H218190   3.760   0.177   6.034
 6090TIP3   OH218191   3.446   0.196   4.635
 6090TIP3    H118192   3.412   0.174   4.547
 6090TIP3    H218193   3.525   0.249   4.612
 6091TIP3   OH218194   2.843  -0.078   5.504
 6091TIP3    H118195   2.750  -0.095   5.529
 6091TIP3    H218196   2.842  -0.106   5.410
 6092TIP3   OH218197   3.308   0.018   5.229
 6092TIP3    H118198   3.256   0.091   5.189
 6092TIP3    H218199   3.368  -0.006   5.156
 6093TIP3   OH218200   3.493   0.297   6.317
 6093TIP3    H118201   3.465   0.234   6.388
 6093TIP3    H218202   3.588   0.308   6.337
 6094TIP3   OH218203   3.460   0.076   5.484
 6094TIP3    H118204   3.406   0.105   5.408
 6094TIP3    H218205   3.493  -0.009   5.447
 6095TIP3   OH218206   2.724   0.096   6.223
 6095TIP3    H118207   2.807   0.136   6.254
 6095TIP3    H218208   2.751   0.004   6.211
 6096TIP3   OH218209   2.369  -0.350   5.290
 6096TIP3    H118210   2.383  -0.307   5.203
 6096TIP3    H218211   2.298  -0.293   5.326
 6097TIP3   OH218212   3.488   0.290   5.884
 6097TIP3    H118213   3.523   0.215   5.830
 6097TIP3    H218214   3.470   0.242   5.967
 6098TIP3   OH218215   2.582  -0.158   5.554
 6098TIP3    H118216   2.485  -0.162   5.538
 6098TIP3    H218217   2.605  -0.252   5.566
 6099TIP3   OH218218   2.872  -0.179   5.253
 6099TIP3    H118219   2.963  -0.187   5.221
 6099TIP3    H218220   2.817  -0.181   5.172
 6100TIP3   OH218221   2.693  -0.172   5.034
 6100TIP3    H118222   2.623  -0.209   4.977
 6100TIP3    H218223   2.749  -0.130   4.966
 6101TIP3   OH218224   3.816   1.512   5.985
 6101TIP3    H118225   3.813   1.538   5.892
 6101TIP3    H218226   3.892   1.564   6.018
 6102TIP3   OH218227   2.770   0.627   6.409
 6102TIP3    H118228   2.853   0.653   6.453
 6102TIP3    H218229   2.709   0.627   6.485
 6103TIP3   OH218230   3.233   0.078   5.657
 6103TIP3    H118231   3.310   0.040   5.611
 6103TIP3    H218232   3.238   0.037   5.744
 6104TIP3   OH218233   2.948   0.365   5.045
 6104TIP3    H118234   2.876   0.299   5.035
 6104TIP3    H218235   2.931   0.399   5.136
 6105TIP3   OH218236   3.849   0.602   5.677
 6105TIP3    H118237   3.872   0.652   5.595
 6105TIP3    H218238   3.764   0.559   5.651
 6106TIP3   OH218239   3.364  -0.272   4.844
 6106TIP3    H118240   3.274  -0.289   4.868
 6106TIP3    H218241   3.403  -0.227   4.922
 6107TIP3   OH218242   3.362   0.691   6.040
 6107TIP3    H118243   3.366   0.649   6.126
 6107TIP3    H218244   3.312   0.773   6.056
 6108TIP3   OH218245   3.460  -0.064   5.010
 6108TIP3    H118246   3.557  -0.063   5.024
 6108TIP3    H218247   3.447   0.017   4.958
 6109TIP3   OH218248   2.629   0.379   5.715
 6109TIP3    H118249   2.671   0.357   5.630
 6109TIP3    H218250   2.694   0.340   5.776
 6110TIP3   OH218251   3.094   0.512   4.866
 6110TIP3    H118252   3.047   0.599   4.871
 6110TIP3    H218253   3.040   0.459   4.927
 6111TIP3   OH218254   2.509   0.318   6.348
 6111TIP3    H118255   2.562   0.298   6.427
 6111TIP3    H218256   2.479   0.229   6.321
 6112TIP3   OH218257   3.245   0.420   6.359
 6112TIP3    H118258   3.180   0.363   6.313
 6112TIP3    H218259   3.328   0.387   6.320
 6113TIP3   OH218260   3.511   0.949   5.935
 6113TIP3    H118261   3.416   0.938   5.951
 6113TIP3    H218262   3.539   0.996   6.016
 6114TIP3   OH218263   3.899   0.021   4.852
 6114TIP3    H118264   3.836  -0.017   4.786
 6114TIP3    H218265   3.906   0.111   4.814
 6115TIP3   OH218266   4.138   0.876   5.926
 6115TIP3    H118267   4.040   0.872   5.917
 6115TIP3    H218268   4.165   0.842   5.838
 6116TIP3   OH218269   3.622   0.834   4.757
 6116TIP3    H118270   3.594   0.766   4.820
 6116TIP3    H218271   3.632   0.784   4.674
 6117TIP3   OH218272   3.616   0.464   5.595
 6117TIP3    H118273   3.523   0.438   5.608
 6117TIP3    H218274   3.650   0.386   5.547
 6118TIP3   OH218275   2.744   0.689   5.345
 6118TIP3    H118276   2.746   0.771   5.293
 6118TIP3    H218277   2.649   0.676   5.357
 6119TIP3   OH218278   2.300   0.006   5.042
 6119TIP3    H118279   2.352   0.085   5.067
 6119TIP3    H218280   2.228   0.009   5.109
 6120TIP3   OH218281   2.884   0.456   5.289
 6120TIP3    H118282   2.847   0.544   5.310
 6120TIP3    H218283   2.850   0.403   5.364
 6121TIP3   OH218284   3.012   1.033   5.817
 6121TIP3    H118285   3.054   1.106   5.767
 6121TIP3    H218286   3.088   0.998   5.866
 6122TIP3   OH218287   2.663   0.930   5.199
 6122TIP3    H118288   2.578   0.941   5.245
 6122TIP3    H218289   2.698   1.022   5.202
 6123TIP3   OH218290   3.401   0.665   5.773
 6123TIP3    H118291   3.393   0.669   5.872
 6123TIP3    H218292   3.482   0.612   5.763
 6124TIP3   OH218293   3.375   0.558   4.658
 6124TIP3    H118294   3.428   0.533   4.737
 6124TIP3    H218295   3.286   0.536   4.689
 6125TIP3   OH218296   3.651   1.201   5.826
 6125TIP3    H118297   3.572   1.143   5.821
 6125TIP3    H218298   3.632   1.264   5.753
 6126TIP3   OH218299   3.715   1.035   4.478
 6126TIP3    H118300   3.749   1.106   4.422
 6126TIP3    H218301   3.635   1.080   4.513
 6127TIP3   OH218302   3.535   0.490   4.872
 6127TIP3    H118303   3.526   0.427   4.946
 6127TIP3    H218304   3.633   0.490   4.862
 6128TIP3   OH218305   2.446   0.893   5.979
 6128TIP3    H118306   2.506   0.823   6.010
 6128TIP3    H218307   2.478   0.968   6.031
 6129TIP3   OH218308   2.742   0.541   4.658
 6129TIP3    H118309   2.756   0.449   4.630
 6129TIP3    H218310   2.723   0.529   4.753
 6130TIP3   OH218311   2.686   0.546   4.932
 6130TIP3    H118312   2.760   0.519   4.988
 6130TIP3    H218313   2.691   0.644   4.937
 6131TIP3   OH218314   2.420   0.239   5.134
 6131TIP3    H118315   2.357   0.286   5.192
 6131TIP3    H218316   2.439   0.308   5.068
 6132TIP3   OH218317   2.952   0.742   4.877
 6132TIP3    H118318   2.866   0.770   4.915
 6132TIP3    H218319   2.970   0.817   4.819
 6133TIP3   OH218320   3.167  -0.204   5.288
 6133TIP3    H118321   3.216  -0.122   5.267
 6133TIP3    H218322   3.153  -0.193   5.383
 6134TIP3   OH218323   3.452   0.124   6.100
 6134TIP3    H118324   3.428   0.197   6.160
 6134TIP3    H218325   3.439   0.048   6.158
 6135TIP3   OH218326   2.695   0.818   4.946
 6135TIP3    H118327   2.666   0.888   4.883
 6135TIP3    H218328   2.681   0.863   5.032
 6136TIP3   OH218329   3.699   0.230   5.467
 6136TIP3    H118330   3.621   0.173   5.482
 6136TIP3    H218331   3.771   0.181   5.513
 6137TIP3   OH218332   2.413   0.451   4.938
 6137TIP3    H118333   2.480   0.521   4.948
 6137TIP3    H218334   2.459   0.395   4.872
 6138TIP3   OH218335   2.348  -0.261   5.040
 6138TIP3    H118336   2.351  -0.163   5.036
 6138TIP3    H218337   2.265  -0.281   4.995
 6139TIP3   OH218338   3.670   1.175   5.418
 6139TIP3    H118339   3.627   1.222   5.343
 6139TIP3    H218340   3.764   1.193   5.396
 6140TIP3   OH218341   2.285   0.659   5.330
 6140TIP3    H118342   2.208   0.698   5.372
 6140TIP3    H218343   2.275   0.697   5.240
 6141TIP3   OH218344   2.442   1.203   6.400
 6141TIP3    H118345   2.529   1.207   6.446
 6141TIP3    H218346   2.427   1.108   6.396
 6142TIP3   OH218347   2.921   1.169   6.443
 6142TIP3    H118348   3.017   1.153   6.451
 6142TIP3    H218349   2.899   1.111   6.369
 6143TIP3   OH218350   2.905   0.745   4.570
 6143TIP3    H118351   2.849   0.674   4.608
 6143TIP3    H218352   2.980   0.693   4.537
 6144TIP3   OH218353   3.564   1.074   6.175
 6144TIP3    H118354   3.553   1.006   6.244
 6144TIP3    H218355   3.640   1.125   6.207
 6145TIP3   OH218356   3.341   0.786   4.482
 6145TIP3    H118357   3.388   0.723   4.540
 6145TIP3    H218358   3.397   0.785   4.401
 6146TIP3   OH218359   2.571   0.610   6.599
 6146TIP3    H118360   2.586   0.514   6.606
 6146TIP3    H218361   2.485   0.613   6.552
 6147TIP3   OH218362   2.549   0.262   4.792
 6147TIP3    H118363   2.605   0.229   4.865
 6147TIP3    H218364   2.616   0.267   4.721
 6148TIP3   OH218365   3.179   0.694   6.372
 6148TIP3    H118366   3.139   0.709   6.284
 6148TIP3    H218367   3.210   0.601   6.366
 6149TIP3   OH218368   3.058   0.460   4.597
 6149TIP3    H118369   3.062   0.472   4.694
 6149TIP3    H218370   3.056   0.362   4.592
 6150TIP3   OH218371   3.673   0.701   5.977
 6150TIP3    H118372   3.745   0.750   5.935
 6150TIP3    H218373   3.598   0.763   5.966
 6151TIP3   OH218374   2.685   0.332   6.578
 6151TIP3    H118375   2.768   0.291   6.550
 6151TIP3    H218376   2.713   0.377   6.660
 6152TIP3   OH218377   2.754   0.167   5.014
 6152TIP3    H118378   2.733   0.127   5.100
 6152TIP3    H218379   2.792   0.091   4.965
 6153TIP3   OH218380   3.025   0.236   6.258
 6153TIP3    H118381   2.951   0.300   6.250
 6153TIP3    H218382   3.050   0.222   6.165
 6154TIP3   OH218383   2.857  -0.040   4.856
 6154TIP3    H118384   2.832  -0.041   4.762
 6154TIP3    H218385   2.954  -0.043   4.850
 6155TIP3   OH218386   3.546   0.635   6.379
 6155TIP3    H118387   3.623   0.607   6.328
 6155TIP3    H218388   3.537   0.563   6.444
 6156TIP3   OH218389   3.683   0.289   4.514
 6156TIP3    H118390   3.662   0.246   4.429
 6156TIP3    H218391   3.649   0.379   4.494
 6157TIP3   OH218392   3.153   0.023   6.371
 6157TIP3    H118393   3.135  -0.051   6.310
 6157TIP3    H218394   3.109   0.094   6.320
 6158TIP3   OH218395   3.209   0.357   6.057
 6158TIP3    H118396   3.263   0.339   5.979
 6158TIP3    H218397   3.139   0.414   6.021
 6159TIP3   OH218398   3.756   0.314   6.400
 6159TIP3    H118399   3.787   0.258   6.474
 6159TIP3    H218400   3.831   0.373   6.386
 6160TIP3   OH218401   3.802   0.560   6.165
 6160TIP3    H118402   3.739   0.612   6.110
 6160TIP3    H218403   3.886   0.589   6.123
 6161TIP3   OH218404   3.004   0.147   6.589
 6161TIP3    H118405   2.966   0.063   6.617
 6161TIP3    H218406   3.060   0.120   6.515
 6162TIP3   OH218407   3.388   0.112   6.489
 6162TIP3    H118408   3.375   0.084   6.581
 6162TIP3    H218409   3.307   0.075   6.447
 6163TIP3   OH218410   2.664   1.019   4.757
 6163TIP3    H118411   2.760   1.016   4.740
 6163TIP3    H218412   2.636   1.071   4.680
 6164TIP3   OH218413   2.145   0.402   4.978
 6164TIP3    H118414   2.239   0.426   4.961
 6164TIP3    H218415   2.140   0.314   4.936
 6165TIP3   OH218416   2.056   1.013   5.390
 6165TIP3    H118417   1.991   0.950   5.353
 6165TIP3    H218418   2.102   0.957   5.456
 6166TIP3   OH218419   2.192   0.867   5.578
 6166TIP3    H118420   2.198   0.791   5.638
 6166TIP3    H218421   2.247   0.931   5.627
 6167TIP3   OH218422   3.924   1.265   5.375
 6167TIP3    H118423   3.947   1.295   5.465
 6167TIP3    H218424   3.982   1.319   5.320
 6168TIP3   OH218425   3.954   1.286   5.654
 6168TIP3    H118426   3.908   1.199   5.652
 6168TIP3    H218427   4.025   1.264   5.717
 6169TIP3   OH218428   3.999   0.963   6.230
 6169TIP3    H118429   3.925   0.972   6.294
 6169TIP3    H218430   4.040   1.052   6.235
 6170TIP3   OH218431   3.815   0.477   4.850
 6170TIP3    H118432   3.883   0.541   4.821
 6170TIP3    H218433   3.858   0.439   4.930
 6171TIP3   OH218434   3.943   0.348   5.054
 6171TIP3    H118435   3.877   0.308   5.115
 6171TIP3    H218436   4.009   0.385   5.116
 6172TIP3   OH218437   3.997   0.737   5.486
 6172TIP3    H118438   4.050   0.670   5.439
 6172TIP3    H218439   3.987   0.808   5.420
 6173TIP3   OH218440   3.828   1.039   5.679
 6173TIP3    H118441   3.757   1.079   5.733
 6173TIP3    H218442   3.777   0.990   5.611
 6174TIP3   OH218443   3.878   0.252   4.702
 6174TIP3    H118444   3.808   0.257   4.632
 6174TIP3    H218445   3.851   0.328   4.757
 6175TIP3   OH218446   3.745  -0.080   4.651
 6175TIP3    H118447   3.717  -0.018   4.582
 6175TIP3    H218448   3.706  -0.163   4.620
 6176TIP3   OH218449   3.756   0.213   5.201
 6176TIP3    H118450   3.742   0.118   5.186
 6176TIP3    H218451   3.743   0.221   5.298
 6177TIP3   OH218452   2.381   0.292   5.946
 6177TIP3    H118453   2.383   0.252   5.856
 6177TIP3    H218454   2.477   0.289   5.968
 6178TIP3   OH218455   4.030   0.642   6.050
 6178TIP3    H118456   4.104   0.577   6.047
 6178TIP3    H218457   4.061   0.711   5.990
 6179TIP3   OH218458   4.213   0.460   6.096
 6179TIP3    H118459   4.145   0.395   6.121
 6179TIP3    H218460   4.291   0.400   6.100
 6180TIP3   OH218461   3.726  -0.037   5.077
 6180TIP3    H118462   3.772  -0.120   5.102
 6180TIP3    H218463   3.787  -0.006   5.008
 6181TIP3   OH218464   3.910   0.105   5.588
 6181TIP3    H118465   3.997   0.128   5.546
 6181TIP3    H218466   3.927   0.139   5.678
 6182TIP3   OH218467   3.969   0.244   5.823
 6182TIP3    H118468   3.889   0.280   5.866
 6182TIP3    H218469   4.002   0.322   5.774
 6183TIP3   OH218470   2.559  -0.015   6.628
 6183TIP3    H118471   2.649  -0.044   6.600
 6183TIP3    H218472   2.536  -0.092   6.682
 6184TIP3   OH218473   2.365  -0.060   6.013
 6184TIP3    H118474   2.423  -0.063   5.935
 6184TIP3    H218475   2.413  -0.001   6.072
 6185TIP3   OH218476   3.508   1.132   5.031
 6185TIP3    H118477   3.560   1.122   4.950
 6185TIP3    H218478   3.557   1.201   5.079
 6186TIP3   OH218479   2.607   0.940   6.416
 6186TIP3    H118480   2.516   0.908   6.401
 6186TIP3    H218481   2.620   0.921   6.510
 6187TIP3   OH218482   2.783   0.969   5.963
 6187TIP3    H118483   2.740   1.048   5.924
 6187TIP3    H218484   2.871   0.981   5.922
 6188TIP3   OH218485   3.231   1.215   6.104
 6188TIP3    H118486   3.273   1.216   6.192
 6188TIP3    H218487   3.297   1.266   6.051
 6189TIP3   OH218488   3.411   1.365   5.962
 6189TIP3    H118489   3.483   1.315   5.922
 6189TIP3    H218490   3.461   1.423   6.023
 6190TIP3   OH218491   2.460   1.221   5.991
 6190TIP3    H118492   2.372   1.258   5.968
 6190TIP3    H218493   2.478   1.269   6.073
 6191TIP3   OH218494   2.697   1.203   5.846
 6191TIP3    H118495   2.610   1.218   5.890
 6191TIP3    H218496   2.681   1.239   5.757
 6192TIP3   OH218497   3.124   1.234   5.644
 6192TIP3    H118498   3.056   1.257   5.578
 6192TIP3    H218499   3.138   1.321   5.688
 6193TIP3   OH218500   3.393   1.174   5.693
 6193TIP3    H118501   3.298   1.191   5.676
 6193TIP3    H218502   3.435   1.253   5.656
 6194TIP3   OH218503   3.604   1.367   5.612
 6194TIP3    H118504   3.588   1.451   5.564
 6194TIP3    H218505   3.627   1.306   5.539
 6195TIP3   OH218506   2.370   1.016   5.733
 6195TIP3    H118507   2.400   0.998   5.825
 6195TIP3    H218508   2.445   0.975   5.684
 6196TIP3   OH218509   2.567   0.891   5.591
 6196TIP3    H118510   2.585   0.807   5.639
 6196TIP3    H218511   2.657   0.929   5.585
 6197TIP3   OH218512   2.831   0.985   5.595
 6197TIP3    H118513   2.865   0.894   5.584
 6197TIP3    H218514   2.877   1.009   5.677
 6198TIP3   OH218515   2.157   0.795   5.131
 6198TIP3    H118516   2.074   0.764   5.091
 6198TIP3    H218517   2.153   0.889   5.107
 6199TIP3   OH218518   2.934   0.982   4.707
 6199TIP3    H118519   3.022   1.005   4.672
 6199TIP3    H218520   2.912   0.907   4.647
 6200TIP3   OH218521   3.656   1.101   4.799
 6200TIP3    H118522   3.647   1.003   4.789
 6200TIP3    H218523   3.607   1.132   4.720
 6201TIP3   OH218524   2.236   0.814   4.764
 6201TIP3    H118525   2.244   0.850   4.853
 6201TIP3    H218526   2.326   0.774   4.750
 6202TIP3   OH218527   3.880   1.244   5.986
 6202TIP3    H118528   3.801   1.212   5.939
 6202TIP3    H218529   3.859   1.340   5.991
 6203TIP3   OH218530   5.147   0.616   4.752
 6203TIP3    H118531   5.119   0.708   4.734
 6203TIP3    H218532   5.067   0.568   4.724
 6204TIP3   OH218533   5.143   0.616   5.132
 6204TIP3    H118534   5.173   0.588   5.221
 6204TIP3    H218535   5.105   0.534   5.097
 6205TIP3   OH218536   4.443   0.514   5.498
 6205TIP3    H118537   4.475   0.443   5.557
 6205TIP3    H218538   4.522   0.570   5.493
 6206TIP3   OH218539   5.387   0.920   4.816
 6206TIP3    H118540   5.373   0.849   4.880
 6206TIP3    H218541   5.417   0.993   4.872
 6207TIP3   OH218542   4.413   0.921   5.223
 6207TIP3    H118543   4.405   0.823   5.225
 6207TIP3    H218544   4.510   0.930   5.224
 6208TIP3   OH218545   4.110   0.125   5.008
 6208TIP3    H118546   4.062   0.208   5.024
 6208TIP3    H218547   4.036   0.064   4.995
 6209TIP3   OH218548   4.182   0.411   5.179
 6209TIP3    H118549   4.228   0.334   5.219
 6209TIP3    H218550   4.244   0.436   5.110
 6210TIP3   OH218551   5.036   1.380   4.833
 6210TIP3    H118552   5.082   1.309   4.784
 6210TIP3    H218553   5.032   1.342   4.922
 6211TIP3   OH218554   4.943   0.843   5.182
 6211TIP3    H118555   4.980   0.765   5.138
 6211TIP3    H218556   5.027   0.887   5.206
 6212TIP3   OH218557   5.358   0.335   5.225
 6212TIP3    H118558   5.392   0.244   5.222
 6212TIP3    H218559   5.314   0.339   5.137
 6213TIP3   OH218560   5.368   0.149   4.811
 6213TIP3    H118561   5.460   0.119   4.824
 6213TIP3    H218562   5.355   0.125   4.719
 6214TIP3   OH218563   4.329   0.208   5.286
 6214TIP3    H118564   4.416   0.189   5.328
 6214TIP3    H218565   4.343   0.162   5.201
 6215TIP3   OH218566   4.768   0.405   5.080
 6215TIP3    H118567   4.861   0.378   5.096
 6215TIP3    H218568   4.729   0.318   5.053
 6216TIP3   OH218569   6.043   0.455   5.314
 6216TIP3    H118570   5.947   0.472   5.314
 6216TIP3    H218571   6.047   0.375   5.370
 6217TIP3   OH218572   5.040   0.839   4.621
 6217TIP3    H118573   4.992   0.816   4.541
 6217TIP3    H218574   4.994   0.922   4.647
 6218TIP3   OH218575   4.799   0.761   5.413
 6218TIP3    H118576   4.735   0.825   5.451
 6218TIP3    H218577   4.839   0.813   5.341
 6219TIP3   OH218578   4.579   0.126   5.359
 6219TIP3    H118579   4.648   0.183   5.398
 6219TIP3    H218580   4.632   0.055   5.321
 6220TIP3   OH218581   4.623   0.954   5.507
 6220TIP3    H118582   4.597   1.041   5.471
 6220TIP3    H218583   4.545   0.936   5.564
 6221TIP3   OH218584   4.019   0.645   4.743
 6221TIP3    H118585   3.977   0.674   4.660
 6221TIP3    H218586   4.051   0.730   4.781
 6222TIP3   OH218587   5.458   1.161   4.984
 6222TIP3    H118588   5.368   1.152   5.024
 6222TIP3    H218589   5.449   1.248   4.939
 6223TIP3   OH218590   5.160   1.208   4.657
 6223TIP3    H118591   5.210   1.125   4.639
 6223TIP3    H218592   5.223   1.272   4.616
 6224TIP3   OH218593   5.304   0.993   4.564
 6224TIP3    H118594   5.259   0.915   4.529
 6224TIP3    H218595   5.340   0.959   4.649
 6225TIP3   OH218596   5.683   1.077   5.326
 6225TIP3    H118597   5.671   0.998   5.268
 6225TIP3    H218598   5.667   1.150   5.263
 6226TIP3   OH218599   4.973   0.471   4.582
 6226TIP3    H118600   4.892   0.523   4.562
 6226TIP3    H218601   5.019   0.470   4.497
 6227TIP3   OH218602   4.940   0.243   4.300
 6227TIP3    H118603   5.000   0.302   4.349
 6227TIP3    H218604   5.003   0.191   4.248
 6228TIP3   OH218605   5.874   0.711   5.171
 6228TIP3    H118606   5.793   0.765   5.177
 6228TIP3    H218607   5.905   0.734   5.081
 6229TIP3   OH218608   5.321   0.548   4.553
 6229TIP3    H118609   5.266   0.571   4.632
 6229TIP3    H218610   5.406   0.526   4.597
 6230TIP3   OH218611   5.552   0.603   5.465
 6230TIP3    H118612   5.551   0.685   5.517
 6230TIP3    H218613   5.465   0.609   5.421
 6231TIP3   OH218614   4.557   0.549   4.972
 6231TIP3    H118615   4.516   0.491   4.905
 6231TIP3    H218616   4.633   0.494   5.002
 6232TIP3   OH218617   4.689   0.965   5.119
 6232TIP3    H118618   4.664   0.916   5.039
 6232TIP3    H218619   4.777   0.928   5.139
 6233TIP3   OH218620   4.696   0.517   5.330
 6233TIP3    H118621   4.725   0.495   5.239
 6233TIP3    H218622   4.738   0.604   5.346
 6234TIP3   OH218623   5.216   1.157   5.104
 6234TIP3    H118624   5.206   1.236   5.160
 6234TIP3    H218625   5.202   1.083   5.167
 6235TIP3   OH218626   4.830   1.077   5.650
 6235TIP3    H118627   4.771   1.138   5.698
 6235TIP3    H218628   4.764   1.022   5.602
 6236TIP3   OH218629   5.153   0.423   4.375
 6236TIP3    H118630   5.214   0.479   4.429
 6236TIP3    H218631   5.184   0.444   4.284
 6237TIP3   OH218632   4.584   0.634   5.750
 6237TIP3    H118633   4.588   0.719   5.798
 6237TIP3    H218634   4.489   0.612   5.762
 6238TIP3   OH218635   4.907   1.087   4.658
 6238TIP3    H118636   4.986   1.141   4.675
 6238TIP3    H218637   4.846   1.150   4.617
 6239TIP3   OH218638   4.624   1.244   5.739
 6239TIP3    H118639   4.587   1.241   5.648
 6239TIP3    H218640   4.545   1.223   5.794
 6240TIP3   OH218641   4.425   0.392   4.776
 6240TIP3    H118642   4.354   0.431   4.721
 6240TIP3    H218643   4.389   0.306   4.799
 6241TIP3   OH218644   5.478   1.016   3.978
 6241TIP3    H118645   5.487   1.113   3.964
 6241TIP3    H218646   5.571   0.987   3.966
 6242TIP3   OH218647   4.204   0.773   5.685
 6242TIP3    H118648   4.137   0.750   5.617
 6242TIP3    H218649   4.240   0.686   5.711
 6243TIP3   OH218650   4.056   0.970   5.313
 6243TIP3    H118651   4.153   0.962   5.311
 6243TIP3    H218652   4.044   1.046   5.371
 6244TIP3   OH218653   5.927   1.418   5.368
 6244TIP3    H118654   5.924   1.322   5.385
 6244TIP3    H218655   5.842   1.444   5.411
 6245TIP3   OH218656   5.025   1.206   5.505
 6245TIP3    H118657   5.027   1.298   5.540
 6245TIP3    H218658   4.955   1.165   5.562
 6246TIP3   OH218659   4.784   1.334   4.460
 6246TIP3    H118660   4.743   1.311   4.375
 6246TIP3    H218661   4.754   1.426   4.474
 6247TIP3   OH218662   4.226   1.187   4.845
 6247TIP3    H118663   4.272   1.175   4.931
 6247TIP3    H218664   4.169   1.108   4.845
 6248TIP3   OH218665   4.990   1.235   4.100
 6248TIP3    H118666   5.049   1.166   4.063
 6248TIP3    H218667   5.024   1.244   4.192
 6249TIP3   OH218668   5.038   1.283   4.372
 6249TIP3    H118669   4.950   1.290   4.415
 6249TIP3    H218670   5.090   1.241   4.442
 6250TIP3   OH218671   5.810   0.535   5.642
 6250TIP3    H118672   5.734   0.584   5.610
 6250TIP3    H218673   5.816   0.463   5.577
 6251TIP3   OH218674   4.407   0.958   5.674
 6251TIP3    H118675   4.457   0.941   5.756
 6251TIP3    H218676   4.334   0.893   5.681
 6252TIP3   OH218677   5.561   0.347   5.566
 6252TIP3    H118678   5.560   0.373   5.659
 6252TIP3    H218679   5.553   0.435   5.523
 6253TIP3   OH218680   5.243   0.453   4.122
 6253TIP3    H118681   5.208   0.430   4.034
 6253TIP3    H218682   5.322   0.505   4.098
 6254TIP3   OH218683   4.758   0.299   5.484
 6254TIP3    H118684   4.698   0.315   5.560
 6254TIP3    H218685   4.737   0.378   5.428
 6255TIP3   OH218686   4.640   0.181   4.992
 6255TIP3    H118687   4.547   0.161   5.017
 6255TIP3    H218688   4.639   0.153   4.897
 6256TIP3   OH218689   5.106   0.277   4.718
 6256TIP3    H118690   5.053   0.348   4.676
 6256TIP3    H218691   5.164   0.249   4.644
 6257TIP3   OH218692   5.288   0.544   5.796
 6257TIP3    H118693   5.261   0.486   5.871
 6257TIP3    H218694   5.381   0.564   5.820
 6258TIP3   OH218695   5.253   0.333   4.972
 6258TIP3    H118696   5.202   0.360   4.894
 6258TIP3    H218697   5.288   0.248   4.936
 6259TIP3   OH218698   4.558   0.332   5.680
 6259TIP3    H118699   4.582   0.391   5.752
 6259TIP3    H218700   4.500   0.268   5.724
 6260TIP3   OH218701   4.154  -0.093   4.779
 6260TIP3    H118702   4.172  -0.051   4.692
 6260TIP3    H218703   4.091  -0.030   4.818
 6261TIP3   OH218704   5.280   0.543   5.378
 6261TIP3    H118705   5.316   0.471   5.321
 6261TIP3    H218706   5.255   0.491   5.457
 6262TIP3   OH218707   4.380   0.099   5.041
 6262TIP3    H118708   4.284   0.096   5.020
 6262TIP3    H218709   4.401   0.005   5.055
 6263TIP3   OH218710   4.670   0.079   4.741
 6263TIP3    H118711   4.760   0.068   4.707
 6263TIP3    H218712   4.613   0.076   4.661
 6264TIP3   OH218713   4.492   0.083   4.522
 6264TIP3    H118714   4.419   0.047   4.469
 6264TIP3    H218715   4.545   0.126   4.452
 6265TIP3   OH218716   5.624   1.759   5.452
 6265TIP3    H118717   5.617   1.798   5.364
 6265TIP3    H218718   5.638   1.834   5.510
 6266TIP3   OH218719   4.570   0.881   5.893
 6266TIP3    H118720   4.650   0.909   5.943
 6266TIP3    H218721   4.505   0.878   5.966
 6267TIP3   OH218722   5.029   0.328   5.152
 6267TIP3    H118723   5.105   0.296   5.101
 6267TIP3    H218724   5.039   0.281   5.236
 6268TIP3   OH218725   5.028   0.226   5.448
 6268TIP3    H118726   4.933   0.249   5.457
 6268TIP3    H218727   5.071   0.299   5.495
 6269TIP3   OH218728   4.745   0.622   4.533
 6269TIP3    H118729   4.674   0.555   4.523
 6269TIP3    H218730   4.727   0.655   4.624
 6270TIP3   OH218731   5.645   0.859   5.163
 6270TIP3    H118732   5.669   0.908   5.082
 6270TIP3    H218733   5.561   0.815   5.138
 6271TIP3   OH218734   5.152  -0.007   4.338
 6271TIP3    H118735   5.102  -0.068   4.392
 6271TIP3    H218736   5.205   0.040   4.406
 6272TIP3   OH218737   5.148   0.940   5.530
 6272TIP3    H118738   5.170   0.916   5.621
 6272TIP3    H218739   5.107   1.027   5.540
 6273TIP3   OH218740   5.258   0.195   4.498
 6273TIP3    H118741   5.355   0.197   4.513
 6273TIP3    H218742   5.244   0.275   4.445
 6274TIP3   OH218743   4.441   0.645   5.209
 6274TIP3    H118744   4.478   0.612   5.125
 6274TIP3    H218745   4.475   0.580   5.273
 6275TIP3   OH218746   4.890   0.769   4.354
 6275TIP3    H118747   4.844   0.856   4.360
 6275TIP3    H218748   4.836   0.715   4.415
 6276TIP3   OH218749   4.319   0.561   5.822
 6276TIP3    H118750   4.342   0.551   5.916
 6276TIP3    H218751   4.256   0.488   5.808
 6277TIP3   OH218752   5.045   0.677   5.840
 6277TIP3    H118753   4.982   0.613   5.802
 6277TIP3    H218754   5.130   0.642   5.806
 6278TIP3   OH218755   5.305   1.199   5.422
 6278TIP3    H118756   5.209   1.196   5.438
 6278TIP3    H218757   5.334   1.249   5.502
 6279TIP3   OH218758   5.695   0.277   4.338
 6279TIP3    H118759   5.633   0.240   4.272
 6279TIP3    H218760   5.703   0.368   4.301
 6280TIP3   OH218761   5.933   1.132   5.413
 6280TIP3    H118762   5.835   1.129   5.404
 6280TIP3    H218763   5.960   1.098   5.324
 6281TIP3   OH218764   5.416   1.089   4.243
 6281TIP3    H118765   5.391   1.019   4.305
 6281TIP3    H218766   5.429   1.042   4.159
 6282TIP3   OH218767   5.411   0.720   5.083
 6282TIP3    H118768   5.318   0.695   5.095
 6282TIP3    H218769   5.445   0.642   5.035
 6283TIP3   OH218770   4.539   0.945   4.833
 6283TIP3    H118771   4.536   1.026   4.779
 6283TIP3    H218772   4.445   0.926   4.846
 6284TIP3   OH218773   4.096   0.263   4.531
 6284TIP3    H118774   4.146   0.344   4.557
 6284TIP3    H218775   4.023   0.265   4.596
 6285TIP3   OH218776   4.680   0.712   4.778
 6285TIP3    H118777   4.643   0.801   4.798
 6285TIP3    H218778   4.645   0.659   4.852
 6286TIP3   OH218779   4.808   1.291   5.304
 6286TIP3    H118780   4.854   1.362   5.255
 6286TIP3    H218781   4.882   1.253   5.354
 6287TIP3   OH218782   4.455   1.186   4.686
 6287TIP3    H118783   4.370   1.189   4.734
 6287TIP3    H218784   4.483   1.279   4.691
 6288TIP3   OH218785   5.198   0.923   5.261
 6288TIP3    H118786   5.188   0.923   5.359
 6288TIP3    H218787   5.279   0.872   5.250
 6289TIP3   OH218788   5.171   0.815   4.145
 6289TIP3    H118789   5.224   0.790   4.224
 6289TIP3    H218790   5.082   0.791   4.174
 6290TIP3   OH218791   5.443   1.454   5.312
 6290TIP3    H118792   5.364   1.397   5.304
 6290TIP3    H218793   5.427   1.520   5.240
 6291TIP3   OH218794   5.512   1.291   3.965
 6291TIP3    H118795   5.549   1.364   3.912
 6291TIP3    H218796   5.431   1.337   3.998
 6292TIP3   OH218797   5.332   0.748   4.360
 6292TIP3    H118798   5.321   0.684   4.433
 6292TIP3    H218799   5.429   0.747   4.349
 6293TIP3   OH218800   4.250   1.153   5.461
 6293TIP3    H118801   4.300   1.076   5.493
 6293TIP3    H218802   4.271   1.217   5.530
 6294TIP3   OH218803   4.539   0.798   4.144
 6294TIP3    H118804   4.551   0.706   4.115
 6294TIP3    H218805   4.519   0.785   4.239
 6295TIP3   OH218806   4.484   0.802   4.417
 6295TIP3    H118807   4.554   0.774   4.476
 6295TIP3    H218808   4.489   0.900   4.424
 6296TIP3   OH218809   4.218   0.497   4.620
 6296TIP3    H118810   4.153   0.542   4.678
 6296TIP3    H218811   4.233   0.566   4.553
 6297TIP3   OH218812   4.751   1.000   4.366
 6297TIP3    H118813   4.663   1.026   4.402
 6297TIP3    H218814   4.764   1.069   4.300
 6298TIP3   OH218815   4.964   0.053   4.778
 6298TIP3    H118816   5.013   0.135   4.755
 6298TIP3    H218817   4.951   0.066   4.873
 6299TIP3   OH218818   5.220   0.378   5.589
 6299TIP3    H118819   5.220   0.449   5.656
 6299TIP3    H218820   5.256   0.306   5.641
 6300TIP3   OH218821   4.494   1.075   4.432
 6300TIP3    H118822   4.462   1.144   4.369
 6300TIP3    H218823   4.475   1.117   4.519
 6301TIP3   OH218824   5.494   0.487   4.954
 6301TIP3    H118825   5.417   0.429   4.969
 6301TIP3    H218826   5.566   0.438   5.000
 6302TIP3   OH218827   4.210   0.706   4.425
 6302TIP3    H118828   4.276   0.777   4.435
 6302TIP3    H218829   4.256   0.651   4.358
 6303TIP3   OH218830   4.145  -0.003   4.528
 6303TIP3    H118831   4.143   0.094   4.524
 6303TIP3    H218832   4.065  -0.027   4.479
 6304TIP3   OH218833   5.465   1.433   4.905
 6304TIP3    H118834   5.423   1.481   4.830
 6304TIP3    H218835   5.560   1.452   4.885
 6305TIP3   OH218836   4.084   0.923   4.812
 6305TIP3    H118837   4.013   0.951   4.872
 6305TIP3    H218838   4.053   0.961   4.727
 6306TIP3   OH218839   4.237   1.460   5.883
 6306TIP3    H118840   4.323   1.460   5.930
 6306TIP3    H218841   4.216   1.366   5.883
 6307TIP3   OH218842   4.721   1.429   5.926
 6307TIP3    H118843   4.815   1.407   5.936
 6307TIP3    H218844   4.695   1.367   5.855
 6308TIP3   OH218845   4.702   1.002   4.059
 6308TIP3    H118846   4.645   0.930   4.095
 6308TIP3    H218847   4.777   0.950   4.024
 6309TIP3   OH218848   5.348   1.328   5.658
 6309TIP3    H118849   5.344   1.261   5.730
 6309TIP3    H218850   5.430   1.377   5.681
 6310TIP3   OH218851   5.138   1.043   3.969
 6310TIP3    H118852   5.184   0.980   4.027
 6310TIP3    H218853   5.193   1.042   3.888
 6311TIP3   OH218854   4.368   0.868   6.083
 6311TIP3    H118855   4.382   0.772   6.094
 6311TIP3    H218856   4.280   0.870   6.039
 6312TIP3   OH218857   4.346   0.519   4.278
 6312TIP3    H118858   4.400   0.485   4.351
 6312TIP3    H218859   4.414   0.524   4.207
 6313TIP3   OH218860   4.977   0.952   5.858
 6313TIP3    H118861   4.935   0.967   5.772
 6313TIP3    H218862   5.007   0.859   5.852
 6314TIP3   OH218863   4.856   0.717   4.084
 6314TIP3    H118864   4.858   0.729   4.182
 6314TIP3    H218865   4.853   0.619   4.078
 6315TIP3   OH218866   5.467   0.959   5.463
 6315TIP3    H118867   5.543   1.004   5.422
 6315TIP3    H218868   5.397   1.026   5.451
 6316TIP3   OH218869   4.491   0.597   6.062
 6316TIP3    H118870   4.570   0.543   6.048
 6316TIP3    H218871   4.512   0.638   6.148
 6317TIP3   OH218872   4.554   0.423   4.502
 6317TIP3    H118873   4.528   0.383   4.587
 6317TIP3    H218874   4.589   0.345   4.453
 6318TIP3   OH218875   4.829   0.490   5.731
 6318TIP3    H118876   4.747   0.544   5.733
 6318TIP3    H218877   4.872   0.520   5.648
 6319TIP3   OH218878   4.653   0.215   4.342
 6319TIP3    H118879   4.627   0.216   4.248
 6319TIP3    H218880   4.751   0.217   4.334
 6320TIP3   OH218881   5.338   0.888   5.863
 6320TIP3    H118882   5.422   0.868   5.820
 6320TIP3    H218883   5.336   0.822   5.934
 6321TIP3   OH218884   5.479   0.545   4.001
 6321TIP3    H118885   5.458   0.503   3.915
 6321TIP3    H218886   5.446   0.636   3.981
 6322TIP3   OH218887   4.954   0.282   5.863
 6322TIP3    H118888   4.928   0.196   5.827
 6322TIP3    H218889   4.904   0.345   5.806
 6323TIP3   OH218890   4.984   0.594   5.528
 6323TIP3    H118891   5.063   0.612   5.475
 6323TIP3    H218892   4.921   0.660   5.491
 6324TIP3   OH218893   5.553   0.571   5.884
 6324TIP3    H118894   5.586   0.514   5.957
 6324TIP3    H218895   5.626   0.634   5.873
 6325TIP3   OH218896   5.597   0.816   5.650
 6325TIP3    H118897   5.534   0.869   5.596
 6325TIP3    H218898   5.681   0.846   5.608
 6326TIP3   OH218899   4.795   0.405   6.070
 6326TIP3    H118900   4.760   0.327   6.116
 6326TIP3    H218901   4.858   0.365   6.008
 6327TIP3   OH218902   5.188   0.372   5.980
 6327TIP3    H118903   5.176   0.346   6.072
 6327TIP3    H218904   5.107   0.334   5.940
 6328TIP3   OH218905   4.462   1.282   4.248
 6328TIP3    H118906   4.557   1.275   4.226
 6328TIP3    H218907   4.431   1.326   4.167
 6329TIP3   OH218908   3.941   0.660   4.462
 6329TIP3    H118909   4.036   0.681   4.447
 6329TIP3    H218910   3.936   0.571   4.421
 6330TIP3   OH218911   3.861   1.274   4.873
 6330TIP3    H118912   3.792   1.214   4.837
 6330TIP3    H218913   3.903   1.216   4.941
 6331TIP3   OH218914   3.993   1.125   5.063
 6331TIP3    H118915   3.980   1.050   5.124
 6331TIP3    H218916   4.041   1.186   5.123
 6332TIP3   OH218917   5.717   1.528   4.861
 6332TIP3    H118918   5.747   1.554   4.950
 6332TIP3    H218919   5.784   1.567   4.804
 6333TIP3   OH218920   5.750   1.544   5.142
 6333TIP3    H118921   5.704   1.458   5.138
 6333TIP3    H218922   5.821   1.521   5.204
 6334TIP3   OH218923   5.795   1.220   5.717
 6334TIP3    H118924   5.718   1.229   5.776
 6334TIP3    H218925   5.831   1.310   5.717
 6335TIP3   OH218926   5.611   0.733   4.336
 6335TIP3    H118927   5.679   0.798   4.308
 6335TIP3    H218928   5.654   0.696   4.417
 6336TIP3   OH218929   5.739   0.604   4.541
 6336TIP3    H118930   5.673   0.565   4.602
 6336TIP3    H218931   5.805   0.641   4.602
 6337TIP3   OH218932   5.792   0.993   4.972
 6337TIP3    H118933   5.846   0.927   4.925
 6337TIP3    H218934   5.785   1.065   4.907
 6338TIP3   OH218935   5.624   1.296   5.166
 6338TIP3    H118936   5.554   1.336   5.222
 6338TIP3    H218937   5.573   1.247   5.099
 6339TIP3   OH218938   5.674   0.509   4.188
 6339TIP3    H118939   5.605   0.514   4.119
 6339TIP3    H218940   5.648   0.585   4.244
 6340TIP3   OH218941   5.542   0.176   4.137
 6340TIP3    H118942   5.512   0.239   4.070
 6340TIP3    H218943   5.500   0.095   4.108
 6341TIP3   OH218944   5.553   0.470   4.688
 6341TIP3    H118945   5.538   0.374   4.672
 6341TIP3    H218946   5.538   0.478   4.785
 6342TIP3   OH218947   4.178   0.535   5.432
 6342TIP3    H118948   4.178   0.501   5.340
 6342TIP3    H218949   4.275   0.534   5.451
 6343TIP3   OH218950   5.825   0.899   5.535
 6343TIP3    H118951   5.900   0.835   5.533
 6343TIP3    H218952   5.857   0.970   5.478
 6344TIP3   OH218953   6.008   0.716   5.581
 6344TIP3    H118954   5.940   0.653   5.611
 6344TIP3    H218955   6.085   0.656   5.586
 6345TIP3   OH218956   5.523   0.221   4.564
 6345TIP3    H118957   5.567   0.138   4.590
 6345TIP3    H218958   5.585   0.250   4.494
 6346TIP3   OH218959   5.706   0.362   5.074
 6346TIP3    H118960   5.793   0.385   5.032
 6346TIP3    H218961   5.723   0.395   5.165
 6347TIP3   OH218962   5.765   0.501   5.311
 6347TIP3    H118963   5.685   0.537   5.352
 6347TIP3    H218964   5.799   0.578   5.261
 6348TIP3   OH218965   4.361   0.245   6.132
 6348TIP3    H118966   4.448   0.209   6.104
 6348TIP3    H218967   4.322   0.164   6.168
 6349TIP3   OH218968   4.154   0.197   5.499
 6349TIP3    H118969   4.213   0.197   5.420
 6349TIP3    H218970   4.191   0.269   5.551
 6350TIP3   OH218971   5.302   1.393   4.518
 6350TIP3    H118972   5.352   1.378   4.436
 6350TIP3    H218973   5.360   1.455   4.565
 6351TIP3   OH218974   4.404   1.196   5.905
 6351TIP3    H118975   4.313   1.166   5.888
 6351TIP3    H218976   4.415   1.173   5.998
 6352TIP3   OH218977   4.582   1.225   5.452
 6352TIP3    H118978   4.533   1.300   5.413
 6352TIP3    H218979   4.668   1.240   5.408
 6353TIP3   OH218980   5.029   1.474   5.589
 6353TIP3    H118981   5.069   1.471   5.678
 6353TIP3    H218982   5.099   1.522   5.540
 6354TIP3   OH218983   5.217   1.623   5.450
 6354TIP3    H118984   5.283   1.564   5.410
 6354TIP3    H218985   5.273   1.676   5.508
 6355TIP3   OH218986   4.260   1.490   5.471
 6355TIP3    H118987   4.168   1.520   5.453
 6355TIP3    H218988   4.269   1.515   5.564
 6356TIP3   OH218989   4.495   1.467   5.332
 6356TIP3    H118990   4.410   1.478   5.380
 6356TIP3    H218991   4.469   1.487   5.241
 6357TIP3   OH218992   4.922   1.493   5.129
 6357TIP3    H118993   4.852   1.513   5.066
 6357TIP3    H218994   4.933   1.579   5.175
 6358TIP3   OH218995   5.189   1.431   5.182
 6358TIP3    H118996   5.095   1.448   5.161
 6358TIP3    H218997   5.233   1.507   5.142
 6359TIP3   OH218998   5.397   1.624   5.098
 6359TIP3    H118999   5.384   1.707   5.048
 6359TIP3    H219000   5.424   1.562   5.026
 6360TIP3   OH219001   4.175   1.281   5.221
 6360TIP3    H119002   4.197   1.252   5.312
 6360TIP3    H219003   4.243   1.231   5.171
 6361TIP3   OH219004   4.365   1.148   5.077
 6361TIP3    H119005   4.378   1.063   5.127
 6361TIP3    H219006   4.456   1.182   5.074
 6362TIP3   OH219007   4.633   1.246   5.080
 6362TIP3    H119008   4.662   1.153   5.067
 6362TIP3    H219009   4.678   1.264   5.165
 6363TIP3   OH219010   3.959   1.049   4.610
 6363TIP3    H119011   3.874   1.015   4.577
 6363TIP3    H219012   3.946   1.143   4.592
 6364TIP3   OH219013   4.731   1.239   4.194
 6364TIP3    H119014   4.819   1.261   4.158
 6364TIP3    H219015   4.708   1.165   4.135
 6365TIP3   OH219016   5.448   1.356   4.287
 6365TIP3    H119017   5.440   1.258   4.275
 6365TIP3    H219018   5.404   1.387   4.206
 6366TIP3   OH219019   4.035   1.076   4.250
 6366TIP3    H119020   4.032   1.099   4.344
 6366TIP3    H219021   4.123   1.034   4.241
 6367TIP3   OH219022   5.687   1.498   5.463
 6367TIP3    H119023   5.602   1.461   5.432
 6367TIP3    H219024   5.663   1.593   5.465
 6368TIP3   OH219025   6.942   0.872   4.239
 6368TIP3    H119026   6.916   0.964   4.221
 6368TIP3    H219027   6.862   0.825   4.211
 6369TIP3   OH219028   6.941   0.872   4.618
 6369TIP3    H119029   6.969   0.845   4.707
 6369TIP3    H219030   6.901   0.790   4.584
 6370TIP3   OH219031   6.240   0.771   4.985
 6370TIP3    H119032   6.273   0.700   5.043
 6370TIP3    H219033   6.318   0.827   4.979
 6371TIP3   OH219034   7.182   1.176   4.303
 6371TIP3    H119035   7.170   1.107   4.369
 6371TIP3    H219036   7.214   1.251   4.356
 6372TIP3   OH219037   6.210   1.178   4.711
 6372TIP3    H119038   6.202   1.080   4.714
 6372TIP3    H219039   6.307   1.187   4.707
 6373TIP3   OH219040   5.906   0.381   4.495
 6373TIP3    H119041   5.858   0.465   4.511
 6373TIP3    H219042   5.832   0.320   4.482
 6374TIP3   OH219043   5.978   0.668   4.666
 6374TIP3    H119044   6.024   0.590   4.706
 6374TIP3    H219045   6.040   0.694   4.598
 6375TIP3   OH219046   6.832   1.637   4.319
 6375TIP3    H119047   6.879   1.565   4.270
 6375TIP3    H219048   6.827   1.600   4.408
 6376TIP3   OH219049   6.739   1.098   4.670
 6376TIP3    H119050   6.777   1.022   4.623
 6376TIP3    H219051   6.823   1.144   4.694
 6377TIP3   OH219052   7.154   0.589   4.712
 6377TIP3    H119053   7.188   0.499   4.703
 6377TIP3    H219054   7.110   0.598   4.625
 6378TIP3   OH219055   7.162   0.400   4.297
 6378TIP3    H119056   7.256   0.375   4.310
 6378TIP3    H219057   7.154   0.392   4.201
 6379TIP3   OH219058   6.126   0.465   4.773
 6379TIP3    H119059   6.213   0.445   4.814
 6379TIP3    H219060   6.140   0.419   4.687
 6380TIP3   OH219061   6.564   0.661   4.567
 6380TIP3    H119062   6.657   0.634   4.582
 6380TIP3    H219063   6.525   0.575   4.540
 6381TIP3   OH219064   7.838   0.709   4.802
 6381TIP3    H119065   7.742   0.728   4.801
 6381TIP3    H219066   7.840   0.629   4.859
 6382TIP3   OH219067   6.835   1.095   4.108
 6382TIP3    H119068   6.788   1.075   4.026
 6382TIP3    H219069   6.792   1.179   4.135
 6383TIP3   OH219070   6.595   1.017   4.901
 6383TIP3    H119071   6.531   1.082   4.938
 6383TIP3    H219072   6.635   1.068   4.827
 6384TIP3   OH219073   6.376   0.385   4.844
 6384TIP3    H119074   6.446   0.440   4.884
 6384TIP3    H219075   6.427   0.310   4.810
 6385TIP3   OH219076   6.419   1.211   4.995
 6385TIP3    H119077   6.394   1.297   4.957
 6385TIP3    H219078   6.341   1.195   5.052
 6386TIP3   OH219079   5.815   0.902   4.230
 6386TIP3    H119080   5.774   0.931   4.147
 6386TIP3    H219081   5.847   0.986   4.268
 6387TIP3   OH219082   7.254   1.417   4.469
 6387TIP3    H119083   7.164   1.409   4.509
 6387TIP3    H219084   7.246   1.504   4.425
 6388TIP3   OH219085   6.957   1.463   4.144
 6388TIP3    H119086   7.008   1.381   4.124
 6388TIP3    H219087   7.019   1.529   4.104
 6389TIP3   OH219088   7.101   1.248   4.050
 6389TIP3    H119089   7.054   1.170   4.017
 6389TIP3    H219090   7.137   1.214   4.135
 6390TIP3   OH219091   7.479   1.332   4.814
 6390TIP3    H119092   7.469   1.255   4.755
 6390TIP3    H219093   7.462   1.407   4.752
 6391TIP3   OH219094   6.768   0.725   4.069
 6391TIP3    H119095   6.689   0.779   4.050
 6391TIP3    H219096   6.815   0.728   3.984
 6392TIP3   OH219097   6.735   0.500   3.786
 6392TIP3    H119098   6.795   0.557   3.838
 6392TIP3    H219099   6.800   0.445   3.738
 6393TIP3   OH219100   7.669   0.963   4.655
 6393TIP3    H119101   7.590   1.021   4.661
 6393TIP3    H219102   7.703   0.990   4.567
 6394TIP3   OH219103   7.117   0.804   4.041
 6394TIP3    H119104   7.063   0.827   4.120
 6394TIP3    H219105   7.203   0.784   4.085
 6395TIP3   OH219106   7.348   0.860   4.951
 6395TIP3    H119107   7.348   0.944   5.000
 6395TIP3    H219108   7.261   0.865   4.906
 6396TIP3   OH219109   6.353   0.805   4.459
 6396TIP3    H119110   6.312   0.747   4.391
 6396TIP3    H219111   6.429   0.751   4.489
 6397TIP3   OH219112   6.482   1.217   4.609
 6397TIP3    H119113   6.461   1.173   4.525
 6397TIP3    H219114   6.572   1.182   4.627
 6398TIP3   OH219115   6.492   0.773   4.817
 6398TIP3    H119116   6.520   0.752   4.726
 6398TIP3    H219117   6.533   0.861   4.833
 6399TIP3   OH219118   7.012   1.413   4.591
 6399TIP3    H119119   7.000   1.494   4.643
 6399TIP3    H219120   6.997   1.341   4.655
 6400TIP3   OH219121   6.626   1.332   5.138
 6400TIP3    H119122   6.566   1.394   5.185
 6400TIP3    H219123   6.561   1.279   5.089
 6401TIP3   OH219124   6.951   0.678   3.862
 6401TIP3    H119125   7.011   0.736   3.915
 6401TIP3    H219126   6.981   0.699   3.771
 6402TIP3   OH219127   6.381   0.888   5.239
 6402TIP3    H119128   6.386   0.975   5.285
 6402TIP3    H219129   6.285   0.869   5.249
 6403TIP3   OH219130   6.703   1.344   4.144
 6403TIP3    H119131   6.782   1.398   4.161
 6403TIP3    H219132   6.642   1.408   4.106
 6404TIP3   OH219133   6.420   1.500   5.224
 6404TIP3    H119134   6.384   1.500   5.134
 6404TIP3    H219135   6.341   1.480   5.279
 6405TIP3   OH219136   6.222   0.648   4.261
 6405TIP3    H119137   6.150   0.688   4.207
 6405TIP3    H219138   6.184   0.563   4.286
 6406TIP3   OH219139   7.274   1.272   3.464
 6406TIP3    H119140   7.283   1.369   3.451
 6406TIP3    H219141   7.367   1.244   3.453
 6407TIP3   OH219142   6.001   1.029   5.172
 6407TIP3    H119143   5.935   1.007   5.104
 6407TIP3    H219144   6.037   0.942   5.197
 6408TIP3   OH219145   5.853   1.225   4.802
 6408TIP3    H119146   5.949   1.216   4.795
 6408TIP3    H219147   5.845   1.302   4.861
 6409TIP3   OH219148   7.714   1.674   4.858
 6409TIP3    H119149   7.715   1.578   4.874
 6409TIP3    H219150   7.632   1.700   4.906
 6410TIP3   OH219151   6.824   1.461   4.995
 6410TIP3    H119152   6.823   1.554   5.027
 6410TIP3    H219153   6.752   1.421   5.049
 6411TIP3   OH219154   6.584   1.590   3.947
 6411TIP3    H119155   6.539   1.574   3.862
 6411TIP3    H219156   6.552   1.679   3.971
 6412TIP3   OH219157   6.022   1.440   4.331
 6412TIP3    H119158   6.071   1.431   4.416
 6412TIP3    H219159   5.965   1.361   4.335
 6413TIP3   OH219160   6.785   1.491   3.587
 6413TIP3    H119161   6.845   1.422   3.551
 6413TIP3    H219162   6.820   1.502   3.678
 6414TIP3   OH219163   6.835   1.539   3.857
 6414TIP3    H119164   6.747   1.549   3.899
 6414TIP3    H219165   6.887   1.501   3.930
 6415TIP3   OH219166   7.602   0.784   5.131
 6415TIP3    H119167   7.532   0.841   5.095
 6415TIP3    H219168   7.613   0.720   5.059
 6416TIP3   OH219169   6.203   1.215   5.163
 6416TIP3    H119170   6.255   1.196   5.244
 6416TIP3    H219171   6.130   1.151   5.169
 6417TIP3   OH219172   7.356   0.604   5.052
 6417TIP3    H119173   7.358   0.632   5.144
 6417TIP3    H219174   7.350   0.691   5.007
 6418TIP3   OH219175   7.037   0.707   3.607
 6418TIP3    H119176   7.004   0.686   3.518
 6418TIP3    H219177   7.115   0.762   3.586
 6419TIP3   OH219178   6.555   0.556   4.971
 6419TIP3    H119179   6.493   0.571   5.046
 6419TIP3    H219180   6.534   0.634   4.915
 6420TIP3   OH219181   6.436   0.437   4.478
 6420TIP3    H119182   6.344   0.418   4.504
 6420TIP3    H219183   6.436   0.408   4.384
 6421TIP3   OH219184   6.903   0.532   4.204
 6421TIP3    H119185   6.850   0.603   4.162
 6421TIP3    H219186   6.959   0.504   4.129
 6422TIP3   OH219187   7.088   0.801   5.280
 6422TIP3    H119188   7.058   0.742   5.353
 6422TIP3    H219189   7.176   0.827   5.311
 6423TIP3   OH219190   7.051   0.588   4.458
 6423TIP3    H119191   7.000   0.617   4.381
 6423TIP3    H219192   7.084   0.502   4.423
 6424TIP3   OH219193   6.356   0.587   5.167
 6424TIP3    H119194   6.371   0.651   5.238
 6424TIP3    H219195   6.296   0.523   5.208
 6425TIP3   OH219196   5.950   0.164   4.265
 6425TIP3    H119197   5.968   0.207   4.179
 6425TIP3    H219198   5.887   0.226   4.305
 6426TIP3   OH219199   7.077   0.799   4.864
 6426TIP3    H119200   7.112   0.726   4.808
 6426TIP3    H219201   7.050   0.748   4.943
 6427TIP3   OH219202   6.177   0.356   4.527
 6427TIP3    H119203   6.080   0.353   4.507
 6427TIP3    H219204   6.198   0.261   4.542
 6428TIP3   OH219205   6.466   0.334   4.228
 6428TIP3    H119206   6.556   0.326   4.194
 6428TIP3    H219207   6.409   0.333   4.147
 6429TIP3   OH219208   6.289   0.338   4.009
 6429TIP3    H119209   6.214   0.305   3.957
 6429TIP3    H219210   6.341   0.382   3.938
 6430TIP3   OH219211   7.408   2.026   4.959
 6430TIP3    H119212   7.407   2.050   4.864
 6430TIP3    H219213   7.488   2.074   4.990
 6431TIP3   OH219214   6.367   1.136   5.380
 6431TIP3    H119215   6.446   1.167   5.429
 6431TIP3    H219216   6.302   1.133   5.453
 6432TIP3   OH219217   6.826   0.585   4.638
 6432TIP3    H119218   6.901   0.551   4.588
 6432TIP3    H219219   6.835   0.538   4.723
 6433TIP3   OH219220   6.825   0.484   4.933
 6433TIP3    H119221   6.729   0.506   4.943
 6433TIP3    H219222   6.867   0.558   4.981
 6434TIP3   OH219223   6.542   0.878   4.020
 6434TIP3    H119224   6.470   0.812   4.010
 6434TIP3    H219225   6.524   0.912   4.111
 6435TIP3   OH219226   7.442   1.115   4.650
 6435TIP3    H119227   7.467   1.165   4.569
 6435TIP3    H219228   7.357   1.073   4.623
 6436TIP3   OH219229   6.951   0.252   3.830
 6436TIP3    H119230   6.908   0.193   3.893
 6436TIP3    H219231   7.007   0.304   3.890
 6437TIP3   OH219232   6.943   1.195   5.018
 6437TIP3    H119233   6.964   1.175   5.110
 6437TIP3    H219234   6.904   1.284   5.024
 6438TIP3   OH219235   7.056   0.452   3.984
 6438TIP3    H119236   7.154   0.456   3.998
 6438TIP3    H219237   7.039   0.533   3.933
 6439TIP3   OH219238   6.237   0.900   4.696
 6439TIP3    H119239   6.274   0.869   4.611
 6439TIP3    H219240   6.272   0.835   4.759
 6440TIP3   OH219241   6.686   1.025   3.840
 6440TIP3    H119242   6.640   1.112   3.844
 6440TIP3    H219243   6.632   0.972   3.902
 6441TIP3   OH219244   6.117   0.816   5.308
 6441TIP3    H119245   6.137   0.809   5.403
 6441TIP3    H219246   6.052   0.744   5.296
 6442TIP3   OH219247   6.842   0.932   5.328
 6442TIP3    H119248   6.777   0.872   5.288
 6442TIP3    H219249   6.925   0.901   5.289
 6443TIP3   OH219250   7.102   1.452   4.914
 6443TIP3    H119251   7.006   1.453   4.927
 6443TIP3    H219252   7.131   1.505   4.991
 6444TIP3   OH219253   7.490   0.534   3.828
 6444TIP3    H119254   7.429   0.496   3.760
 6444TIP3    H219255   7.499   0.624   3.789
 6445TIP3   OH219256   7.729   1.386   4.901
 6445TIP3    H119257   7.631   1.384   4.890
 6445TIP3    H219258   7.757   1.355   4.812
 6446TIP3   OH219259   7.210   1.347   3.729
 6446TIP3    H119260   7.188   1.277   3.793
 6446TIP3    H219261   7.225   1.297   3.646
 6447TIP3   OH219262   7.207   0.976   4.572
 6447TIP3    H119263   7.114   0.951   4.582
 6447TIP3    H219264   7.241   0.899   4.522
 6448TIP3   OH219265   6.336   1.202   4.319
 6448TIP3    H119266   6.335   1.284   4.266
 6448TIP3    H219267   6.242   1.187   4.332
 6449TIP3   OH219268   5.893   0.520   4.018
 6449TIP3    H119269   5.942   0.600   4.043
 6449TIP3    H219270   5.819   0.522   4.083
 6450TIP3   OH219271   6.476   0.969   4.264
 6450TIP3    H119272   6.439   1.057   4.283
 6450TIP3    H219273   6.440   0.917   4.339
 6451TIP3   OH219274   6.605   1.547   4.790
 6451TIP3    H119275   6.647   1.619   4.740
 6451TIP3    H219276   6.681   1.512   4.839
 6452TIP3   OH219277   6.255   1.442   4.173
 6452TIP3    H119278   6.170   1.451   4.220
 6452TIP3    H219279   6.288   1.535   4.176
 6453TIP3   OH219280   6.993   1.179   4.749
 6453TIP3    H119281   6.984   1.179   4.847
 6453TIP3    H219282   7.075   1.130   4.736
 6454TIP3   OH219283   6.967   1.069   3.632
 6454TIP3    H119284   7.020   1.045   3.711
 6454TIP3    H219285   6.878   1.049   3.663
 6455TIP3   OH219286   7.241   1.714   4.799
 6455TIP3    H119287   7.161   1.659   4.790
 6455TIP3    H219288   7.227   1.780   4.727
 6456TIP3   OH219289   7.308   1.548   3.452
 6456TIP3    H119290   7.346   1.622   3.401
 6456TIP3    H219291   7.227   1.593   3.485
 6457TIP3   OH219292   7.128   1.002   3.846
 6457TIP3    H119293   7.119   0.940   3.920
 6457TIP3    H219294   7.226   1.003   3.836
 6458TIP3   OH219295   6.043   1.409   4.950
 6458TIP3    H119296   6.096   1.332   4.979
 6458TIP3    H219297   6.072   1.475   5.013
 6459TIP3   OH219298   6.336   1.054   3.631
 6459TIP3    H119299   6.348   0.961   3.603
 6459TIP3    H219300   6.316   1.043   3.726
 6460TIP3   OH219301   6.280   1.059   3.903
 6460TIP3    H119302   6.351   1.033   3.964
 6460TIP3    H219303   6.284   1.157   3.910
 6461TIP3   OH219304   6.015   0.754   4.107
 6461TIP3    H119305   5.949   0.799   4.165
 6461TIP3    H219306   6.029   0.823   4.040
 6462TIP3   OH219307   6.546   1.256   3.851
 6462TIP3    H119308   6.459   1.282   3.888
 6462TIP3    H219309   6.562   1.330   3.792
 6463TIP3   OH219310   6.759   0.310   4.268
 6463TIP3    H119311   6.809   0.390   4.242
 6463TIP3    H219312   6.747   0.325   4.361
 6464TIP3   OH219313   7.014   0.636   5.075
 6464TIP3    H119314   7.016   0.707   5.142
 6464TIP3    H219315   7.056   0.564   5.123
 6465TIP3   OH219316   6.289   1.331   3.920
 6465TIP3    H119317   6.258   1.401   3.857
 6465TIP3    H219318   6.273   1.375   4.006
 6466TIP3   OH219319   7.291   0.743   4.442
 6466TIP3    H119320   7.213   0.685   4.455
 6466TIP3    H219321   7.363   0.694   4.487
 6467TIP3   OH219322   6.006   0.962   3.913
 6467TIP3    H119323   6.070   1.035   3.922
 6467TIP3    H219324   6.053   0.909   3.845
 6468TIP3   OH219325   5.942   0.254   4.014
 6468TIP3    H119326   5.940   0.351   4.011
 6468TIP3    H219327   5.861   0.230   3.967
 6469TIP3   OH219328   7.262   1.688   4.392
 6469TIP3    H119329   7.220   1.735   4.317
 6469TIP3    H219330   7.357   1.708   4.372
 6470TIP3   OH219331   5.878   1.175   4.300
 6470TIP3    H119332   5.807   1.207   4.356
 6470TIP3    H219333   5.853   1.215   4.214
 6471TIP3   OH219334   6.034   1.706   5.373
 6471TIP3    H119335   6.123   1.696   5.412
 6471TIP3    H219336   6.007   1.612   5.368
 6472TIP3   OH219337   6.509   1.685   5.414
 6472TIP3    H119338   6.603   1.668   5.427
 6472TIP3    H219339   6.488   1.624   5.341
 6473TIP3   OH219340   6.498   1.259   3.543
 6473TIP3    H119341   6.442   1.187   3.581
 6473TIP3    H219342   6.573   1.207   3.510
 6474TIP3   OH219343   7.155   1.588   5.149
 6474TIP3    H119344   7.147   1.519   5.219
 6474TIP3    H219345   7.233   1.639   5.180
 6475TIP3   OH219346   6.933   1.299   3.455
 6475TIP3    H119347   6.982   1.239   3.514
 6475TIP3    H219348   6.989   1.299   3.374
 6476TIP3   OH219349   6.164   1.127   5.568
 6476TIP3    H119350   6.176   1.033   5.587
 6476TIP3    H219351   6.076   1.128   5.525
 6477TIP3   OH219352   6.142   0.776   3.765
 6477TIP3    H119353   6.197   0.743   3.838
 6477TIP3    H219354   6.210   0.781   3.694
 6478TIP3   OH219355   6.775   1.209   5.345
 6478TIP3    H119356   6.730   1.225   5.259
 6478TIP3    H219357   6.803   1.116   5.338
 6479TIP3   OH219358   6.652   0.972   3.571
 6479TIP3    H119359   6.654   0.985   3.668
 6479TIP3    H219360   6.646   0.875   3.566
 6480TIP3   OH219361   7.264   1.215   4.952
 6480TIP3    H119362   7.340   1.259   4.909
 6480TIP3    H219363   7.195   1.283   4.938
 6481TIP3   OH219364   6.284   0.853   5.551
 6481TIP3    H119365   6.365   0.802   5.539
 6481TIP3    H219366   6.303   0.897   5.637
 6482TIP3   OH219367   6.350   0.679   3.988
 6482TIP3    H119368   6.323   0.642   4.074
 6482TIP3    H219369   6.385   0.600   3.941
 6483TIP3   OH219370   6.627   0.748   5.221
 6483TIP3    H119371   6.544   0.800   5.222
 6483TIP3    H219372   6.668   0.776   5.136
 6484TIP3   OH219373   6.450   0.469   3.829
 6484TIP3    H119374   6.423   0.474   3.735
 6484TIP3    H219375   6.547   0.476   3.819
 6485TIP3   OH219376   7.132   1.143   5.348
 6485TIP3    H119377   7.218   1.128   5.306
 6485TIP3    H219378   7.133   1.082   5.423
 6486TIP3   OH219379   7.274   0.801   3.488
 6486TIP3    H119380   7.254   0.760   3.402
 6486TIP3    H219381   7.242   0.892   3.469
 6487TIP3   OH219382   6.746   0.536   5.352
 6487TIP3    H119383   6.723   0.452   5.311
 6487TIP3    H219384   6.702   0.601   5.293
 6488TIP3   OH219385   6.781   0.852   5.016
 6488TIP3    H119386   6.859   0.870   4.962
 6488TIP3    H219387   6.717   0.917   4.980
 6489TIP3   OH219388   7.356   0.823   5.392
 6489TIP3    H119389   7.419   0.756   5.425
 6489TIP3    H219390   7.416   0.894   5.364
 6490TIP3   OH219391   7.394   1.071   5.138
 6490TIP3    H119392   7.331   1.125   5.084
 6490TIP3    H219393   7.478   1.102   5.096
 6491TIP3   OH219394   6.601   0.654   5.562
 6491TIP3    H119395   6.538   0.583   5.579
 6491TIP3    H219396   6.654   0.619   5.488
 6492TIP3   OH219397   6.990   0.623   5.455
 6492TIP3    H119398   6.984   0.624   5.553
 6492TIP3    H219399   6.901   0.590   5.428
 6493TIP3   OH219400   6.257   1.534   3.732
 6493TIP3    H119401   6.353   1.530   3.714
 6493TIP3    H219402   6.228   1.583   3.653
 6494TIP3   OH219403   5.738   0.916   3.949
 6494TIP3    H119404   5.832   0.938   3.935
 6494TIP3    H219405   5.732   0.827   3.908
 6495TIP3   OH219406   5.652   1.529   4.363
 6495TIP3    H119407   5.585   1.466   4.326
 6495TIP3    H219408   5.697   1.471   4.429
 6496TIP3   OH219409   5.788   1.380   4.549
 6496TIP3    H119410   5.778   1.306   4.611
 6496TIP3    H219411   5.840   1.442   4.605
 6497TIP3   OH219412   7.513   1.784   4.349
 6497TIP3    H119413   7.543   1.815   4.436
 6497TIP3    H219414   7.579   1.822   4.290
 6498TIP3   OH219415   7.544   1.801   4.631
 6498TIP3    H119416   7.502   1.712   4.627
 6498TIP3    H219417   7.621   1.779   4.685
 6499TIP3   OH219418   7.592   1.476   5.206
 6499TIP3    H119419   7.518   1.487   5.269
 6499TIP3    H219420   7.633   1.564   5.208
 6500TIP3   OH219421   7.407   0.990   3.823
 6500TIP3    H119422   7.474   1.055   3.793
 6500TIP3    H219423   7.451   0.953   3.903
 6501TIP3   OH219424   7.535   0.859   4.026
 6501TIP3    H119425   7.470   0.821   4.089
 6501TIP3    H219426   7.604   0.896   4.085
 6502TIP3   OH219427   7.587   1.248   4.458
 6502TIP3    H119428   7.641   1.184   4.409
 6502TIP3    H219429   7.583   1.324   4.396
 6503TIP3   OH219430   7.420   1.550   4.654
 6503TIP3    H119431   7.349   1.593   4.705
 6503TIP3    H219432   7.370   1.503   4.584
 6504TIP3   OH219433   7.469   0.764   3.676
 6504TIP3    H119434   7.400   0.771   3.606
 6504TIP3    H219435   7.445   0.841   3.731
 6505TIP3   OH219436   7.339   0.432   3.624
 6505TIP3    H119437   7.310   0.500   3.561
 6505TIP3    H219438   7.294   0.354   3.590
 6506TIP3   OH219439   7.349   0.727   4.175
 6506TIP3    H119440   7.334   0.631   4.161
 6506TIP3    H219441   7.334   0.736   4.272
 6507TIP3   OH219442   5.975   0.791   4.919
 6507TIP3    H119443   5.974   0.758   4.827
 6507TIP3    H219444   6.071   0.791   4.938
 6508TIP3   OH219445   7.620   1.154   5.022
 6508TIP3    H119446   7.696   1.091   5.021
 6508TIP3    H219447   7.653   1.226   4.965
 6509TIP3   OH219448   7.800   0.971   5.078
 6509TIP3    H119449   7.736   0.902   5.103
 6509TIP3    H219450   7.881   0.916   5.077
 6510TIP3   OH219451   7.319   0.477   4.053
 6510TIP3    H119452   7.367   0.394   4.075
 6510TIP3    H219453   7.378   0.510   3.983
 6511TIP3   OH219454   7.503   0.619   4.562
 6511TIP3    H119455   7.589   0.642   4.519
 6511TIP3    H219456   7.520   0.653   4.652
 6512TIP3   OH219457   7.562   0.757   4.799
 6512TIP3    H119458   7.480   0.795   4.838
 6512TIP3    H219459   7.595   0.833   4.746
 6513TIP3   OH219460   6.152   0.497   5.621
 6513TIP3    H119461   6.241   0.465   5.594
 6513TIP3    H219462   6.115   0.414   5.653
 6514TIP3   OH219463   5.950   0.455   4.985
 6514TIP3    H119464   6.009   0.454   4.907
 6514TIP3    H219465   5.987   0.528   5.036
 6515TIP3   OH219466   7.099   1.647   4.005
 6515TIP3    H119467   7.151   1.635   3.923
 6515TIP3    H219468   7.152   1.713   4.053
 6516TIP3   OH219469   6.201   1.458   5.396
 6516TIP3    H119470   6.111   1.425   5.376
 6516TIP3    H219471   6.215   1.425   5.486
 6517TIP3   OH219472   6.378   1.482   4.938
 6517TIP3    H119473   6.331   1.558   4.899
 6517TIP3    H219474   6.464   1.496   4.895
 6518TIP3   OH219475   6.824   1.728   5.077
 6518TIP3    H119476   6.865   1.729   5.166
 6518TIP3    H219477   6.890   1.779   5.025
 6519TIP3   OH219478   7.003   1.879   4.935
 6519TIP3    H119479   7.075   1.829   4.894
 6519TIP3    H219480   7.054   1.937   4.997
 6520TIP3   OH219481   6.054   1.742   4.959
 6520TIP3    H119482   5.966   1.779   4.937
 6520TIP3    H219483   6.061   1.768   5.051
 6521TIP3   OH219484   6.292   1.719   4.820
 6521TIP3    H119485   6.205   1.732   4.864
 6521TIP3    H219486   6.273   1.751   4.730
 6522TIP3   OH219487   6.718   1.748   4.618
 6522TIP3    H119488   6.648   1.768   4.552
 6522TIP3    H219489   6.730   1.835   4.661
 6523TIP3   OH219490   6.986   1.686   4.669
 6523TIP3    H119491   6.892   1.705   4.649
 6523TIP3    H219492   7.031   1.762   4.628
 6524TIP3   OH219493   7.192   1.878   4.585
 6524TIP3    H119494   7.179   1.963   4.537
 6524TIP3    H219495   7.220   1.819   4.512
 6525TIP3   OH219496   5.966   1.534   4.708
 6525TIP3    H119497   5.994   1.508   4.799
 6525TIP3    H219498   6.037   1.489   4.657
 6526TIP3   OH219499   6.159   1.405   4.564
 6526TIP3    H119500   6.175   1.321   4.614
 6526TIP3    H219501   6.250   1.442   4.559
 6527TIP3   OH219502   6.426   1.500   4.567
 6527TIP3    H119503   6.458   1.408   4.556
 6527TIP3    H219504   6.470   1.522   4.651
 6528TIP3   OH219505   5.754   1.306   4.099
 6528TIP3    H119506   5.669   1.273   4.065
 6528TIP3    H219507   5.744   1.400   4.080
 6529TIP3   OH219508   6.526   1.495   3.681
 6529TIP3    H119509   6.615   1.517   3.645
 6529TIP3    H219510   6.504   1.421   3.621
 6530TIP3   OH219511   7.245   1.613   3.773
 6530TIP3    H119512   7.235   1.515   3.761
 6530TIP3    H219513   7.200   1.645   3.693
 6531TIP3   OH219514   5.830   1.331   3.737
 6531TIP3    H119515   5.831   1.358   3.830
 6531TIP3    H219516   5.919   1.290   3.726
 6532TIP3   OH219517   7.470   1.757   4.963
 6532TIP3    H119518   7.392   1.727   4.912
 6532TIP3    H219519   7.452   1.853   4.965
 6533TIP3   OH219520   8.036   1.028   4.471
 6533TIP3    H119521   8.070   0.959   4.532
 6533TIP3    H219522   8.109   1.091   4.473
 6534TIP3   OH219523   7.990   1.426   4.204
 6534TIP3    H119524   7.983   1.328   4.209
 6534TIP3    H219525   8.086   1.431   4.181
 6535TIP3   OH219526   7.704   0.634   3.982
 6535TIP3    H119527   7.662   0.721   3.998
 6535TIP3    H219528   7.625   0.579   3.967
 6536TIP3   OH219529   7.772   0.924   4.151
 6536TIP3    H119530   7.821   0.848   4.189
 6536TIP3    H219531   7.839   0.963   4.093
 6537TIP3   OH219532   7.920   0.722   4.260
 6537TIP3    H119533   8.005   0.701   4.302
 6537TIP3    H219534   7.935   0.677   4.174
 6538TIP3   OH219535   8.377   1.283   4.377
 6538TIP3    H119536   8.306   1.332   4.424
 6538TIP3    H219537   8.403   1.351   4.314
 6539TIP3   OH219538   8.163   0.627   4.341
 6539TIP3    H119539   8.229   0.691   4.377
 6539TIP3    H219540   8.220   0.570   4.287
 6540TIP3   OH219541   8.191   1.460   4.472
 6540TIP3    H119542   8.175   1.548   4.433
 6540TIP3    H219543   8.116   1.455   4.534
 6541TIP3   OH219544   7.610   1.159   3.718
 6541TIP3    H119545   7.571   1.190   3.634
 6541TIP3    H219546   7.643   1.243   3.757
 6542TIP3   OH219547   8.152   1.042   3.949
 6542TIP3    H119548   8.096   0.997   3.882
 6542TIP3    H219549   8.225   0.980   3.954
 6543TIP3   OH219550   8.244   1.413   4.101
 6543TIP3    H119551   8.265   1.382   4.011
 6543TIP3    H219552   8.320   1.473   4.116
 6544TIP3   OH219553   8.292   1.037   4.299
 6544TIP3    H119554   8.325   1.035   4.208
 6544TIP3    H219555   8.320   1.126   4.327
 6545TIP3   OH219556   8.397   1.565   4.628
 6545TIP3    H119557   8.351   1.637   4.674
 6545TIP3    H219558   8.325   1.522   4.580
 6546TIP3   OH219559   8.173   1.149   4.725
 6546TIP3    H119560   8.181   1.236   4.772
 6546TIP3    H219561   8.078   1.132   4.737
 6547TIP3   OH219562   8.213   1.770   4.711
 6547TIP3    H119563   8.178   1.761   4.620
 6547TIP3    H219564   8.136   1.743   4.765
 6548TIP3   OH219565   8.012   0.912   3.753
 6548TIP3    H119566   7.945   0.947   3.691
 6548TIP3    H219567   7.982   0.821   3.767
 6549TIP3   OH219568   7.795   1.286   4.660
 6549TIP3    H119569   7.732   1.264   4.589
 6549TIP3    H219570   7.831   1.199   4.685
 6550TIP3   OH219571   7.652   1.479   4.293
 6550TIP3    H119572   7.747   1.471   4.280
 6550TIP3    H219573   7.647   1.559   4.348
 6551TIP3   OH219574   8.363   1.854   3.451
 6551TIP3    H119575   8.298   1.829   3.385
 6551TIP3    H219576   8.335   1.943   3.479
 6552TIP3   OH219577   7.818   1.696   3.813
 6552TIP3    H119578   7.865   1.686   3.899
 6552TIP3    H219579   7.758   1.620   3.819
 6553TIP3   OH219580   7.996   1.474   4.657
 6553TIP3    H119581   8.050   1.453   4.735
 6553TIP3    H219582   7.924   1.407   4.663
 6554TIP3   OH219583   8.332   0.809   4.452
 6554TIP3    H119584   8.276   0.831   4.529
 6554TIP3    H219585   8.324   0.890   4.397
 6555TIP3   OH219586   8.219   0.713   3.926
 6555TIP3    H119587   8.138   0.697   3.978
 6555TIP3    H219588   8.220   0.633   3.872
 6556TIP3   OH219589   8.147   0.850   4.654
 6556TIP3    H119590   8.180   0.911   4.722
 6556TIP3    H219591   8.094   0.787   4.705
 6557TIP3   OH219592   7.744   0.419   3.751
 6557TIP3    H119593   7.765   0.465   3.667
 6557TIP3    H219594   7.685   0.484   3.793
 6558TIP3   OH219595   7.976   0.611   4.018
 6558TIP3    H119596   7.880   0.606   3.996
 6558TIP3    H219597   7.999   0.517   4.030
 6559TIP3   OH219598   8.062   0.581   3.496
 6559TIP3    H119599   7.994   0.551   3.434
 6559TIP3    H219600   8.120   0.629   3.437
 6560TIP3   OH219601   8.161   1.390   4.867
 6560TIP3    H119602   8.241   1.436   4.902
 6560TIP3    H219603   8.106   1.398   4.947
 6561TIP3   OH219604   8.020   1.143   4.183
 6561TIP3    H119605   8.069   1.126   4.100
 6561TIP3    H219606   8.069   1.089   4.247
 6562TIP3   OH219607   7.910   1.075   4.798
 6562TIP3    H119608   7.937   1.066   4.891
 6562TIP3    H219609   7.850   0.999   4.786
 6563TIP3   OH219610   8.130   1.472   3.793
 6563TIP3    H119611   8.115   1.564   3.762
 6563TIP3    H219612   8.045   1.451   3.832
 6564TIP3   OH219613   7.688   0.776   3.503
 6564TIP3    H119614   7.741   0.855   3.528
 6564TIP3    H219615   7.616   0.780   3.570
 6565TIP3   OH219616   8.185   1.210   3.709
 6565TIP3    H119617   8.198   1.300   3.745
 6565TIP3    H219618   8.177   1.160   3.792
 6566TIP3   OH219619   8.396   1.822   4.298
 6566TIP3    H119620   8.433   1.872   4.224
 6566TIP3    H219621   8.472   1.775   4.333
 6567TIP3   OH219622   8.056   1.706   3.661
 6567TIP3    H119623   7.968   1.713   3.703
 6567TIP3    H219624   8.086   1.799   3.666
 6568TIP3   OH219625   7.838   1.667   4.437
 6568TIP3    H119626   7.893   1.591   4.461
 6568TIP3    H219627   7.871   1.734   4.498
 6569TIP3   OH219628   8.116   1.354   3.123
 6569TIP3    H119629   8.141   1.288   3.054
 6569TIP3    H219630   8.114   1.303   3.206
 6570TIP3   OH219631   8.096   1.307   3.405
 6570TIP3    H119632   8.112   1.284   3.498
 6570TIP3    H219633   8.087   1.405   3.408
 6571TIP3   OH219634   7.808   1.008   3.595
 6571TIP3    H119635   7.745   1.056   3.652
 6571TIP3    H219636   7.827   1.077   3.528
 6572TIP3   OH219637   8.061   1.577   3.411
 6572TIP3    H119638   8.062   1.647   3.343
 6572TIP3    H219639   8.063   1.628   3.494
 6573TIP3   OH219640   7.802   1.221   3.400
 6573TIP3    H119641   7.860   1.299   3.405
 6573TIP3    H219642   7.852   1.166   3.336
 6574TIP3   OH219643   7.737   0.509   3.500
 6574TIP3    H119644   7.742   0.607   3.497
 6574TIP3    H219645   7.653   0.493   3.455
 6575TIP3   OH219646   7.672   1.427   3.786
 6575TIP3    H119647   7.602   1.463   3.843
 6575TIP3    H219648   7.649   1.470   3.700
 6576TIP3   OH219649   7.830   1.974   4.860
 6576TIP3    H119650   7.918   1.973   4.904
 6576TIP3    H219651   7.812   1.879   4.855
 6577TIP3   OH219652   8.320   1.958   4.891
 6577TIP3    H119653   8.402   1.917   4.925
 6577TIP3    H219654   8.291   1.889   4.827
 6578TIP3   OH219655   7.954   1.381   5.061
 6578TIP3    H119656   7.975   1.286   5.061
 6578TIP3    H219657   7.869   1.383   5.012
 6579TIP3   OH219658   7.938   1.031   3.254
 6579TIP3    H119659   7.993   0.991   3.324
 6579TIP3    H219660   8.001   1.038   3.181
 6580TIP3   OH219661   8.078   1.102   5.039
 6580TIP3    H119662   8.166   1.070   5.014
 6580TIP3    H219663   8.099   1.150   5.121
 6581TIP3   OH219664   8.111   0.907   3.447
 6581TIP3    H119665   8.111   0.923   3.542
 6581TIP3    H219666   8.203   0.881   3.432
 6582TIP3   OH219667   8.406   1.005   4.714
 6582TIP3    H119668   8.334   1.072   4.717
 6582TIP3    H219669   8.424   0.998   4.620
 6583TIP3   OH219670   8.394   0.913   5.047
 6583TIP3    H119671   8.351   0.827   5.057
 6583TIP3    H219672   8.433   0.909   4.958
 6584TIP3   OH219673   8.097   1.786   3.215
 6584TIP3    H119674   8.138   1.863   3.175
 6584TIP3    H219675   8.017   1.784   3.160
 6585TIP3   OH219676   7.534   1.174   3.434
 6585TIP3    H119677   7.629   1.195   3.422
 6585TIP3    H219678   7.529   1.084   3.395
 6586TIP3   OH219679   7.449   1.785   3.848
 6586TIP3    H119680   7.382   1.723   3.813
 6586TIP3    H219681   7.493   1.728   3.915
 6587TIP3   OH219682   7.585   1.637   4.035
 6587TIP3    H119683   7.575   1.563   4.098
 6587TIP3    H219684   7.637   1.699   4.090
 6588TIP3   OH219685   7.771   1.044   4.407
 6588TIP3    H119686   7.770   1.016   4.314
 6588TIP3    H219687   7.868   1.046   4.424
 6589TIP3   OH219688   7.948   0.754   5.108
 6589TIP3    H119689   8.036   0.728   5.075
 6589TIP3    H219690   7.919   0.668   5.140
 6590TIP3   OH219691   7.749   0.707   4.475
 6590TIP3    H119692   7.804   0.710   4.393
 6590TIP3    H219693   7.779   0.785   4.522
 6591TIP3   OH219694   7.992   1.718   4.876
 6591TIP3    H119695   7.903   1.680   4.863
 6591TIP3    H219696   8.018   1.680   4.961
 6592TIP3   OH219697   8.167   1.736   4.427
 6592TIP3    H119698   8.122   1.811   4.383
 6592TIP3    H219699   8.257   1.754   4.392
 6593TIP3   OH219700   7.848   1.997   4.448
 6593TIP3    H119701   7.759   2.033   4.427
 6593TIP3    H219702   7.860   2.030   4.538
 6594TIP3   OH219703   8.080   1.969   4.305
 6594TIP3    H119704   7.993   1.984   4.350
 6594TIP3    H219705   8.061   2.003   4.216
 6595TIP3   OH219706   8.530   2.123   4.061
 6595TIP3    H119707   8.436   2.111   4.044
 6595TIP3    H219708   8.534   2.150   4.154
 6596TIP3   OH219709   7.759   1.791   4.197
 6596TIP3    H119710   7.788   1.768   4.287
 6596TIP3    H219711   7.827   1.743   4.145
 6597TIP3   OH219712   7.936   1.647   4.051
 6597TIP3    H119713   7.953   1.565   4.103
 6597TIP3    H219714   8.026   1.687   4.054
 6598TIP3   OH219715   8.184   1.745   4.068
 6598TIP3    H119716   8.251   1.690   4.025
 6598TIP3    H219717   8.238   1.789   4.135
 6599TIP3   OH219718   7.551   1.562   3.585
 6599TIP3    H119719   7.466   1.530   3.551
 6599TIP3    H219720   7.540   1.657   3.570
 6600TIP3   OH219721   7.628   1.587   3.224
 6600TIP3    H119722   7.625   1.613   3.317
 6600TIP3    H219723   7.717   1.547   3.216
 6601TIP3   OH219724   1.186   1.911   5.422
 6601TIP3    H119725   1.164   2.005   5.405
 6601TIP3    H219726   1.109   1.869   5.380
 6602TIP3   OH219727   1.192   1.923   5.794
 6602TIP3    H119728   1.221   1.894   5.883
 6602TIP3    H219729   1.153   1.844   5.755
 6603TIP3   OH219730   0.475   1.834   6.168
 6603TIP3    H119731   0.523   1.772   6.227
 6603TIP3    H219732   0.547   1.892   6.142
 6604TIP3   OH219733   1.431   2.217   5.481
 6604TIP3    H119734   1.422   2.154   5.554
 6604TIP3    H219735   1.461   2.297   5.527
 6605TIP3   OH219736   0.460   2.223   5.888
 6605TIP3    H119737   0.455   2.126   5.893
 6605TIP3    H219738   0.557   2.235   5.881
 6606TIP3   OH219739   0.267   1.734   5.868
 6606TIP3    H119740   0.288   1.644   5.896
 6606TIP3    H219741   0.257   1.727   5.773
 6607TIP3   OH219742   1.077   2.679   5.494
 6607TIP3    H119743   1.126   2.608   5.447
 6607TIP3    H219744   1.078   2.647   5.585
 6608TIP3   OH219745   0.988   2.141   5.847
 6608TIP3    H119746   1.032   2.071   5.797
 6608TIP3    H219747   1.069   2.190   5.875
 6609TIP3   OH219748   1.998   1.462   5.844
 6609TIP3    H119749   2.027   1.544   5.889
 6609TIP3    H219750   2.026   1.482   5.752
 6610TIP3   OH219751   1.386   1.639   5.882
 6610TIP3    H119752   1.438   1.560   5.904
 6610TIP3    H219753   1.371   1.625   5.787
 6611TIP3   OH219754   0.765   1.294   5.822
 6611TIP3    H119755   0.724   1.376   5.784
 6611TIP3    H219756   0.683   1.249   5.850
 6612TIP3   OH219757   1.433   1.398   5.469
 6612TIP3    H119758   1.506   1.383   5.533
 6612TIP3    H219759   1.484   1.432   5.393
 6613TIP3   OH219760   0.815   1.700   5.737
 6613TIP3    H119761   0.906   1.669   5.750
 6613TIP3    H219762   0.768   1.618   5.713
 6614TIP3   OH219763   2.068   1.664   6.023
 6614TIP3    H119764   1.991   1.720   6.000
 6614TIP3    H219765   2.101   1.709   6.102
 6615TIP3   OH219766   1.077   2.132   5.289
 6615TIP3    H119767   1.042   2.125   5.199
 6615TIP3    H219768   1.040   2.219   5.316
 6616TIP3   OH219769   0.838   2.061   6.075
 6616TIP3    H119770   0.777   2.128   6.113
 6616TIP3    H219771   0.881   2.112   6.004
 6617TIP3   OH219772   1.643   1.394   5.643
 6617TIP3    H119773   1.636   1.363   5.734
 6617TIP3    H219774   1.699   1.474   5.655
 6618TIP3   OH219775   0.623   1.466   5.990
 6618TIP3    H119776   0.676   1.528   6.044
 6618TIP3    H219777   0.657   1.382   6.023
 6619TIP3   OH219778   0.666   2.255   6.171
 6619TIP3    H119779   0.645   2.342   6.131
 6619TIP3    H219780   0.587   2.245   6.228
 6620TIP3   OH219781   0.073   1.944   5.406
 6620TIP3    H119782   0.033   1.969   5.320
 6620TIP3    H219783   0.096   2.032   5.444
 6621TIP3   OH219784   1.501   2.460   5.644
 6621TIP3    H119785   1.412   2.454   5.684
 6621TIP3    H219786   1.497   2.547   5.600
 6622TIP3   OH219787   1.794   1.353   6.004
 6622TIP3    H119788   1.711   1.398   5.980
 6622TIP3    H219789   1.858   1.393   5.941
 6623TIP3   OH219790   1.125   0.991   5.987
 6623TIP3    H119791   1.161   0.903   6.003
 6623TIP3    H219792   1.080   1.003   6.073
 6624TIP3   OH219793   1.205   2.507   5.322
 6624TIP3    H119794   1.255   2.425   5.298
 6624TIP3    H219795   1.266   2.574   5.282
 6625TIP3   OH219796   1.345   2.291   5.229
 6625TIP3    H119797   1.319   2.211   5.182
 6625TIP3    H219798   1.381   2.255   5.313
 6626TIP3   OH219799   1.727   2.374   5.993
 6626TIP3    H119800   1.720   2.299   5.931
 6626TIP3    H219801   1.711   2.450   5.934
 6627TIP3   OH219802   1.020   1.766   5.247
 6627TIP3    H119803   0.942   1.823   5.228
 6627TIP3    H219804   1.068   1.769   5.163
 6628TIP3   OH219805   0.980   1.548   4.969
 6628TIP3    H119806   1.045   1.605   5.014
 6628TIP3    H219807   1.041   1.490   4.919
 6629TIP3   OH219808   1.922   2.005   5.832
 6629TIP3    H119809   1.842   2.062   5.838
 6629TIP3    H219810   1.957   2.034   5.745
 6630TIP3   OH219811   1.365   1.848   5.221
 6630TIP3    H119812   1.314   1.875   5.301
 6630TIP3    H219813   1.452   1.827   5.262
 6631TIP3   OH219814   1.603   1.891   6.134
 6631TIP3    H119815   1.605   1.972   6.188
 6631TIP3    H219816   1.521   1.907   6.083
 6632TIP3   OH219817   0.598   1.846   5.636
 6632TIP3    H119818   0.561   1.790   5.565
 6632TIP3    H219819   0.680   1.798   5.661
 6633TIP3   OH219820   0.729   2.257   5.788
 6633TIP3    H119821   0.711   2.221   5.699
 6633TIP3    H219822   0.820   2.225   5.805
 6634TIP3   OH219823   0.746   1.815   5.995
 6634TIP3    H119824   0.768   1.808   5.901
 6634TIP3    H219825   0.780   1.904   6.018
 6635TIP3   OH219826   1.261   2.457   5.768
 6635TIP3    H119827   1.248   2.541   5.817
 6635TIP3    H219828   1.244   2.389   5.835
 6636TIP3   OH219829   0.875   2.375   6.317
 6636TIP3    H119830   0.815   2.438   6.362
 6636TIP3    H219831   0.809   2.322   6.267
 6637TIP3   OH219832   1.208   1.708   5.045
 6637TIP3    H119833   1.266   1.769   5.096
 6637TIP3    H219834   1.234   1.731   4.952
 6638TIP3   OH219835   0.635   1.943   6.416
 6638TIP3    H119836   0.651   2.028   6.464
 6638TIP3    H219837   0.542   1.954   6.393
 6639TIP3   OH219838   0.951   2.390   5.323
 6639TIP3    H119839   1.031   2.443   5.338
 6639TIP3    H219840   0.891   2.454   5.283
 6640TIP3   OH219841   0.671   2.544   6.402
 6640TIP3    H119842   0.634   2.549   6.311
 6640TIP3    H219843   0.590   2.528   6.455
 6641TIP3   OH219844   1.725   0.952   5.094
 6641TIP3    H119845   1.645   0.977   5.143
 6641TIP3    H219846   1.742   1.033   5.042
 6642TIP3   OH219847   0.467   1.681   5.439
 6642TIP3    H119848   0.413   1.740   5.382
 6642TIP3    H219849   0.400   1.617   5.464
 6643TIP3   OH219850   1.524   2.317   4.643
 6643TIP3    H119851   1.532   2.414   4.627
 6643TIP3    H219852   1.617   2.289   4.631
 6644TIP3   OH219853   0.271   2.056   6.339
 6644TIP3    H119854   0.227   2.029   6.258
 6644TIP3    H219855   0.222   2.010   6.409
 6645TIP3   OH219856   0.099   2.290   5.967
 6645TIP3    H119857   0.182   2.241   5.965
 6645TIP3    H219858   0.118   2.355   6.036
 6646TIP3   OH219859   1.967   2.720   6.039
 6646TIP3    H119860   1.964   2.623   6.052
 6646TIP3    H219861   1.883   2.746   6.083
 6647TIP3   OH219862   1.073   2.505   6.172
 6647TIP3    H119863   1.072   2.597   6.204
 6647TIP3    H219864   1.001   2.466   6.227
 6648TIP3   OH219865   0.831   2.633   5.125
 6648TIP3    H119866   0.789   2.619   5.038
 6648TIP3    H219867   0.802   2.723   5.149
 6649TIP3   OH219868   0.271   2.486   5.507
 6649TIP3    H119869   0.322   2.477   5.591
 6649TIP3    H219870   0.202   2.419   5.522
 6650TIP3   OH219871   1.033   2.534   4.763
 6650TIP3    H119872   1.094   2.466   4.727
 6650TIP3    H219873   1.069   2.546   4.854
 6651TIP3   OH219874   1.083   2.583   5.034
 6651TIP3    H119875   0.996   2.593   5.078
 6651TIP3    H219876   1.138   2.550   5.107
 6652TIP3   OH219877   1.857   1.847   6.316
 6652TIP3    H119878   1.779   1.863   6.261
 6652TIP3    H219879   1.870   1.751   6.305
 6653TIP3   OH219880   0.450   2.264   6.339
 6653TIP3    H119881   0.506   2.247   6.417
 6653TIP3    H219882   0.382   2.193   6.347
 6654TIP3   OH219883   1.393   1.189   6.314
 6654TIP3    H119884   1.466   1.167   6.376
 6654TIP3    H219885   1.313   1.173   6.368
 6655TIP3   OH219886   1.616   1.622   6.225
 6655TIP3    H119887   1.575   1.621   6.314
 6655TIP3    H219888   1.603   1.715   6.197
 6656TIP3   OH219889   1.283   1.753   4.789
 6656TIP3    H119890   1.251   1.731   4.699
 6656TIP3    H219891   1.363   1.804   4.768
 6657TIP3   OH219892   0.994   1.136   5.089
 6657TIP3    H119893   0.963   1.127   5.181
 6657TIP3    H219894   0.959   1.052   5.052
 6658TIP3   OH219895   0.798   1.605   6.153
 6658TIP3    H119896   0.745   1.632   6.231
 6658TIP3    H219897   0.783   1.685   6.096
 6659TIP3   OH219898   0.665   1.480   5.651
 6659TIP3    H119899   0.572   1.503   5.650
 6659TIP3    H219900   0.677   1.443   5.560
 6660TIP3   OH219901   1.154   1.564   5.375
 6660TIP3    H119902   1.106   1.640   5.336
 6660TIP3    H219903   1.215   1.540   5.303
 6661TIP3   OH219904   1.333   1.846   6.459
 6661TIP3    H119905   1.314   1.776   6.524
 6661TIP3    H219906   1.425   1.869   6.483
 6662TIP3   OH219907   1.309   1.599   5.621
 6662TIP3    H119908   1.258   1.636   5.546
 6662TIP3    H219909   1.345   1.519   5.576
 6663TIP3   OH219910   0.614   1.670   6.340
 6663TIP3    H119911   0.612   1.723   6.421
 6663TIP3    H219912   0.573   1.585   6.365
 6664TIP3   OH219913   0.651   1.114   5.060
 6664TIP3    H119914   0.652   1.114   5.158
 6664TIP3    H219915   0.608   1.199   5.041
 6665TIP3   OH219916   1.311   1.842   6.042
 6665TIP3    H119917   1.350   1.770   5.988
 6665TIP3    H219918   1.291   1.793   6.124
 6666TIP3   OH219919   1.019   1.328   5.732
 6666TIP3    H119920   0.931   1.355   5.703
 6666TIP3    H219921   1.062   1.416   5.748
 6667TIP3   OH219922   0.702   1.363   5.408
 6667TIP3    H119923   0.796   1.376   5.387
 6667TIP3    H219924   0.656   1.388   5.325
 6668TIP3   OH219925   1.488   1.382   5.915
 6668TIP3    H119926   1.460   1.395   6.008
 6668TIP3    H219927   1.419   1.321   5.884
 6669TIP3   OH219928   0.538   1.381   5.185
 6669TIP3    H119929   0.470   1.351   5.123
 6669TIP3    H219930   0.595   1.432   5.122
 6670TIP3   OH219931   1.657   3.070   6.135
 6670TIP3    H119932   1.654   3.095   6.041
 6670TIP3    H219933   1.735   3.120   6.165
 6671TIP3   OH219934   0.637   2.189   6.540
 6671TIP3    H119935   0.712   2.219   6.596
 6671TIP3    H219936   0.566   2.187   6.607
 6672TIP3   OH219937   1.081   1.583   5.794
 6672TIP3    H119938   1.168   1.600   5.753
 6672TIP3    H219939   1.101   1.585   5.889
 6673TIP3   OH219940   1.055   1.529   6.090
 6673TIP3    H119941   0.972   1.576   6.110
 6673TIP3    H219942   1.122   1.583   6.138
 6674TIP3   OH219943   0.794   1.920   5.198
 6674TIP3    H119944   0.718   1.860   5.186
 6674TIP3    H219945   0.774   1.957   5.289
 6675TIP3   OH219946   1.694   2.158   5.826
 6675TIP3    H119947   1.720   2.209   5.746
 6675TIP3    H219948   1.608   2.119   5.800
 6676TIP3   OH219949   1.251   1.230   5.067
 6676TIP3    H119950   1.154   1.220   5.064
 6676TIP3    H219951   1.264   1.326   5.081
 6677TIP3   OH219952   1.183   2.235   6.198
 6677TIP3    H119953   1.219   2.226   6.287
 6677TIP3    H219954   1.152   2.327   6.197
 6678TIP3   OH219955   1.320   1.482   5.163
 6678TIP3    H119956   1.417   1.489   5.177
 6678TIP3    H219957   1.301   1.561   5.109
 6679TIP3   OH219958   0.502   1.948   5.878
 6679TIP3    H119959   0.524   1.923   5.786
 6679TIP3    H219960   0.525   1.866   5.926
 6680TIP3   OH219961   0.937   2.071   5.017
 6680TIP3    H119962   0.889   2.157   5.021
 6680TIP3    H219963   0.883   2.018   5.080
 6681TIP3   OH219964   1.092   1.977   6.511
 6681TIP3    H119965   1.029   1.918   6.466
 6681TIP3    H219966   1.178   1.945   6.477
 6682TIP3   OH219967   1.349   2.488   6.096
 6682TIP3    H119968   1.253   2.499   6.106
 6682TIP3    H219969   1.381   2.546   6.169
 6683TIP3   OH219970   1.758   1.573   5.001
 6683TIP3    H119971   1.697   1.529   4.938
 6683TIP3    H219972   1.758   1.662   4.959
 6684TIP3   OH219973   1.978   2.425   6.082
 6684TIP3    H119974   1.881   2.423   6.072
 6684TIP3    H219975   2.005   2.398   5.991
 6685TIP3   OH219976   1.454   2.391   4.904
 6685TIP3    H119977   1.440   2.318   4.965
 6685TIP3    H219978   1.475   2.346   4.820
 6686TIP3   OH219979   1.458   2.021   5.748
 6686TIP3    H119980   1.364   1.999   5.758
 6686TIP3    H219981   1.491   1.942   5.700
 6687TIP3   OH219982   0.586   2.245   5.494
 6687TIP3    H119983   0.588   2.328   5.443
 6687TIP3    H219984   0.491   2.237   5.511
 6688TIP3   OH219985   0.141   1.562   5.208
 6688TIP3    H119986   0.188   1.647   5.218
 6688TIP3    H219987   0.089   1.560   5.290
 6689TIP3   OH219988   0.722   2.010   5.442
 6689TIP3    H119989   0.690   2.102   5.455
 6689TIP3    H219990   0.683   1.967   5.520
 6690TIP3   OH219991   0.854   2.591   5.966
 6690TIP3    H119992   0.893   2.665   5.916
 6690TIP3    H219993   0.931   2.559   6.015
 6691TIP3   OH219994   0.506   2.486   5.351
 6691TIP3    H119995   0.420   2.496   5.396
 6691TIP3    H219996   0.539   2.578   5.353
 6692TIP3   OH219997   1.240   2.222   5.928
 6692TIP3    H119998   1.232   2.221   6.026
 6692TIP3    H219999   1.327   2.182   5.915
 6693TIP3   OH220000   1.216   2.112   4.810
 6693TIP3    H120001   1.269   2.090   4.890
 6693TIP3    H220002   1.127   2.094   4.843
 6694TIP3   OH220003   1.489   2.759   5.973
 6694TIP3    H120004   1.407   2.708   5.961
 6694TIP3    H220005   1.479   2.827   5.903
 6695TIP3   OH220006   1.556   2.592   4.629
 6695TIP3    H120007   1.597   2.664   4.578
 6695TIP3    H220008   1.476   2.640   4.660
 6696TIP3   OH220009   1.377   2.052   5.029
 6696TIP3    H120010   1.369   1.984   5.098
 6696TIP3    H220011   1.473   2.050   5.013
 6697TIP3   OH220012   0.286   2.448   6.131
 6697TIP3    H120013   0.351   2.383   6.163
 6697TIP3    H220014   0.313   2.528   6.178
 6698TIP3   OH220015   0.582   2.099   4.808
 6698TIP3    H120016   0.599   2.008   4.780
 6698TIP3    H220017   0.564   2.088   4.903
 6699TIP3   OH220018   0.531   2.103   5.081
 6699TIP3    H120019   0.603   2.084   5.142
 6699TIP3    H220020   0.530   2.202   5.084
 6700TIP3   OH220021   0.271   1.801   5.285
 6700TIP3    H120022   0.202   1.843   5.341
 6700TIP3    H220023   0.281   1.869   5.216
 6701TIP3   OH220024   1.413   1.428   6.172
 6701TIP3    H120025   1.488   1.478   6.208
 6701TIP3    H220026   1.408   1.350   6.231
 6702TIP3   OH220027   1.289   1.189   5.343
 6702TIP3    H120028   1.277   1.207   5.247
 6702TIP3    H220029   1.331   1.273   5.373
 6703TIP3   OH220030   0.793   2.299   5.028
 6703TIP3    H120031   0.707   2.328   5.064
 6703TIP3    H220032   0.813   2.374   4.970
 6704TIP3   OH220033   0.985   1.362   5.441
 6704TIP3    H120034   1.040   1.435   5.403
 6704TIP3    H220035   1.022   1.359   5.530
 6705TIP3   OH220036   1.249   1.674   6.253
 6705TIP3    H120037   1.264   1.737   6.326
 6705TIP3    H220038   1.313   1.605   6.273
 6706TIP3   OH220039   1.133   1.099   5.546
 6706TIP3    H120040   1.142   1.173   5.609
 6706TIP3    H220041   1.192   1.131   5.473
 6707TIP3   OH220042   0.535   2.375   5.096
 6707TIP3    H120043   0.507   2.445   5.033
 6707TIP3    H220044   0.521   2.420   5.182
 6708TIP3   OH220045   0.639   1.105   5.336
 6708TIP3    H120046   0.649   1.197   5.368
 6708TIP3    H220047   0.733   1.076   5.344
 6709TIP3   OH220048   1.887   1.581   6.238
 6709TIP3    H120049   1.789   1.575   6.232
 6709TIP3    H220050   1.913   1.565   6.146
 6710TIP3   OH220051   1.542   1.778   5.620
 6710TIP3    H120052   1.470   1.715   5.634
 6710TIP3    H220053   1.617   1.735   5.667
 6711TIP3   OH220054   0.258   2.008   5.088
 6711TIP3    H120055   0.320   2.082   5.098
 6711TIP3    H220056   0.306   1.956   5.021
 6712TIP3   OH220057   1.512   2.730   5.568
 6712TIP3    H120058   1.469   2.777   5.493
 6712TIP3    H220059   1.606   2.751   5.548
 6713TIP3   OH220060   0.122   2.211   5.479
 6713TIP3    H120061   0.057   2.258   5.533
 6713TIP3    H220062   0.111   2.256   5.393
 6714TIP3   OH220063   0.304   2.774   6.522
 6714TIP3    H120064   0.381   2.778   6.584
 6714TIP3    H220065   0.266   2.690   6.546
 6715TIP3   OH220066   0.766   2.726   6.596
 6715TIP3    H120067   0.861   2.710   6.598
 6715TIP3    H220068   0.740   2.669   6.521
 6716TIP3   OH220069   0.746   2.304   4.719
 6716TIP3    H120070   0.691   2.231   4.757
 6716TIP3    H220071   0.822   2.254   4.685
 6717TIP3   OH220072   1.404   2.633   6.326
 6717TIP3    H120073   1.396   2.564   6.396
 6717TIP3    H220074   1.481   2.685   6.356
 6718TIP3   OH220075   1.181   2.342   4.630
 6718TIP3    H120076   1.235   2.287   4.689
 6718TIP3    H220077   1.235   2.346   4.549
 6719TIP3   OH220078   0.431   2.171   6.715
 6719TIP3    H120079   0.456   2.077   6.720
 6719TIP3    H220080   0.344   2.168   6.760
 6720TIP3   OH220081   0.395   1.821   4.943
 6720TIP3    H120082   0.452   1.794   5.017
 6720TIP3    H220083   0.461   1.826   4.871
 6721TIP3   OH220084   1.022   2.254   6.522
 6721TIP3    H120085   0.980   2.273   6.436
 6721TIP3    H220086   1.052   2.161   6.511
 6722TIP3   OH220087   0.897   2.016   4.749
 6722TIP3    H120088   0.903   2.031   4.845
 6722TIP3    H220089   0.896   1.919   4.744
 6723TIP3   OH220090   1.511   2.261   6.126
 6723TIP3    H120091   1.589   2.302   6.083
 6723TIP3    H220092   1.446   2.333   6.114
 6724TIP3   OH220093   0.542   1.909   6.732
 6724TIP3    H120094   0.602   1.835   6.727
 6724TIP3    H220095   0.554   1.938   6.825
 6725TIP3   OH220096   0.597   1.724   5.164
 6725TIP3    H120097   0.570   1.682   5.247
 6725TIP3    H220098   0.635   1.649   5.113
 6726TIP3   OH220099   0.888   1.798   6.400
 6726TIP3    H120100   0.803   1.846   6.397
 6726TIP3    H220101   0.930   1.826   6.315
 6727TIP3   OH220102   0.699   1.510   5.010
 6727TIP3    H120103   0.673   1.522   4.916
 6727TIP3    H220104   0.797   1.518   5.001
 6728TIP3   OH220105   1.381   2.186   6.526
 6728TIP3    H120106   1.466   2.172   6.481
 6728TIP3    H220107   1.385   2.122   6.599
 6729TIP3   OH220108   1.519   1.845   4.669
 6729TIP3    H120109   1.501   1.803   4.583
 6729TIP3    H220110   1.489   1.937   4.647
 6730TIP3   OH220111   0.986   1.571   6.516
 6730TIP3    H120112   0.998   1.504   6.446
 6730TIP3    H220113   0.951   1.647   6.464
 6731TIP3   OH220114   0.977   1.380   6.308
 6731TIP3    H120115   1.014   1.427   6.231
 6731TIP3    H220116   0.889   1.357   6.276
 6732TIP3   OH220117   1.025   1.892   6.184
 6732TIP3    H120118   1.110   1.918   6.147
 6732TIP3    H220119   0.965   1.961   6.149
 6733TIP3   OH220120   1.601   1.864   6.578
 6733TIP3    H120121   1.656   1.786   6.595
 6733TIP3    H220122   1.668   1.928   6.547
 6734TIP3   OH220123   1.644   2.114   6.310
 6734TIP3    H120124   1.585   2.170   6.253
 6734TIP3    H220125   1.732   2.139   6.273
 6735TIP3   OH220126   0.863   1.705   6.740
 6735TIP3    H120127   0.781   1.654   6.736
 6735TIP3    H220128   0.907   1.678   6.657
 6736TIP3   OH220129   1.109   1.157   6.395
 6736TIP3    H120130   1.078   1.244   6.364
 6736TIP3    H220131   1.039   1.139   6.462
 6737TIP3   OH220132   1.255   1.631   6.606
 6737TIP3    H120133   1.264   1.614   6.702
 6737TIP3    H220134   1.162   1.604   6.591
 6738TIP3   OH220135   1.489   1.572   6.459
 6738TIP3    H120136   1.417   1.582   6.524
 6738TIP3    H220137   1.565   1.547   6.516
 6739TIP3   OH220138   1.710   1.516   6.613
 6739TIP3    H120139   1.728   1.422   6.635
 6739TIP3    H220140   1.711   1.559   6.702
 6740TIP3   OH220141   1.228   1.147   6.638
 6740TIP3    H120142   1.311   1.094   6.633
 6740TIP3    H220143   1.196   1.135   6.547
 6741TIP3   OH220144   1.285   1.363   6.791
 6741TIP3    H120145   1.262   1.285   6.736
 6741TIP3    H220146   1.202   1.414   6.791
 6742TIP3   OH220147   0.505   2.574   4.907
 6742TIP3    H120148   0.601   2.573   4.891
 6742TIP3    H220149   0.477   2.627   4.830
 6743TIP3   OH220150  -0.001   1.947   5.139
 6743TIP3    H120151   0.090   1.978   5.117
 6743TIP3    H220152  -0.009   1.868   5.083
 6744TIP3   OH220153  -0.103   2.564   5.537
 6744TIP3    H120154  -0.193   2.530   5.549
 6744TIP3    H220155  -0.055   2.512   5.605
 6745TIP3   OH220156   0.039   2.425   5.727
 6745TIP3    H120157   0.037   2.357   5.797
 6745TIP3    H220158   0.089   2.494   5.776
 6746TIP3   OH220159   1.763   2.824   5.527
 6746TIP3    H120160   1.791   2.864   5.611
 6746TIP3    H220161   1.822   2.867   5.463
 6747TIP3   OH220162   1.790   2.846   5.810
 6747TIP3    H120163   1.753   2.756   5.803
 6747TIP3    H220164   1.871   2.827   5.859
 6748TIP3   OH220165   1.839   2.521   6.381
 6748TIP3    H120166   1.766   2.532   6.445
 6748TIP3    H220167   1.881   2.609   6.383
 6749TIP3   OH220168   1.654   2.035   5.000
 6749TIP3    H120169   1.720   2.100   4.968
 6749TIP3    H220170   1.701   1.998   5.078
 6750TIP3   OH220171   1.784   1.901   5.202
 6750TIP3    H120172   1.719   1.864   5.265
 6750TIP3    H220173   1.852   1.939   5.261
 6751TIP3   OH220174   1.835   2.292   5.634
 6751TIP3    H120175   1.890   2.230   5.582
 6751TIP3    H220176   1.833   2.371   5.576
 6752TIP3   OH220177   1.669   2.591   5.834
 6752TIP3    H120178   1.598   2.640   5.881
 6752TIP3    H220179   1.619   2.548   5.761
 6753TIP3   OH220180   1.720   1.808   4.852
 6753TIP3    H120181   1.650   1.812   4.783
 6753TIP3    H220182   1.695   1.886   4.906
 6754TIP3   OH220183   1.590   1.483   4.809
 6754TIP3    H120184   1.555   1.527   4.731
 6754TIP3    H220185   1.564   1.390   4.793
 6755TIP3   OH220186   1.595   1.760   5.352
 6755TIP3    H120187   1.610   1.665   5.346
 6755TIP3    H220188   1.584   1.775   5.448
 6756TIP3   OH220189   0.233   1.944   6.043
 6756TIP3    H120190   0.238   1.883   5.966
 6756TIP3    H220191   0.327   1.946   6.065
 6757TIP3   OH220192   1.886   2.183   6.206
 6757TIP3    H120193   1.960   2.119   6.197
 6757TIP3    H220194   1.914   2.255   6.147
 6758TIP3   OH220195   2.069   1.987   6.224
 6758TIP3    H120196   1.998   1.936   6.268
 6758TIP3    H220197   2.145   1.926   6.237
 6759TIP3   OH220198   1.536   1.216   4.792
 6759TIP3    H120199   1.613   1.187   4.844
 6759TIP3    H220200   1.466   1.154   4.816
 6760TIP3   OH220201   1.593   1.474   5.247
 6760TIP3    H120202   1.636   1.386   5.259
 6760TIP3    H220203   1.650   1.511   5.177
 6761TIP3   OH220204   1.754   1.650   5.740
 6761TIP3    H120205   1.840   1.674   5.699
 6761TIP3    H220206   1.770   1.688   5.829
 6762TIP3   OH220207   1.822   1.792   5.973
 6762TIP3    H120208   1.745   1.830   6.020
 6762TIP3    H220209   1.857   1.871   5.926
 6763TIP3   OH220210   2.271   1.377   6.529
 6763TIP3    H120211   2.335   1.316   6.487
 6763TIP3    H220212   2.246   1.436   6.455
 6764TIP3   OH220213   1.703   1.226   5.285
 6764TIP3    H120214   1.755   1.210   5.366
 6764TIP3    H220215   1.644   1.148   5.284
 6765TIP3   OH220216   2.147   1.524   6.336
 6765TIP3    H120217   2.062   1.565   6.362
 6765TIP3    H220218   2.115   1.454   6.277
 6766TIP3   OH220219   1.784   1.158   4.917
 6766TIP3    H120220   1.826   1.089   4.862
 6766TIP3    H220221   1.849   1.231   4.913
 6767TIP3   OH220222   1.347   2.690   5.183
 6767TIP3    H120223   1.398   2.679   5.100
 6767TIP3    H220224   1.398   2.759   5.228
 6768TIP3   OH220225   0.448   2.493   6.570
 6768TIP3    H120226   0.383   2.426   6.550
 6768TIP3    H220227   0.463   2.481   6.665
 6769TIP3   OH220228   0.627   2.525   6.113
 6769TIP3    H120229   0.579   2.602   6.076
 6769TIP3    H220230   0.713   2.541   6.070
 6770TIP3   OH220231   1.073   2.771   6.253
 6770TIP3    H120232   1.114   2.775   6.342
 6770TIP3    H220233   1.138   2.822   6.201
 6771TIP3   OH220234   1.252   2.922   6.113
 6771TIP3    H120235   1.325   2.876   6.069
 6771TIP3    H220236   1.302   2.981   6.174
 6772TIP3   OH220237   2.046   1.288   6.214
 6772TIP3    H120238   1.956   1.284   6.178
 6772TIP3    H220239   2.078   1.196   6.201
 6773TIP3   OH220240   0.314   2.776   6.144
 6773TIP3    H120241   0.223   2.805   6.120
 6773TIP3    H220242   0.324   2.818   6.231
 6774TIP3   OH220243   0.543   2.760   5.995
 6774TIP3    H120244   0.458   2.773   6.042
 6774TIP3    H220245   0.523   2.796   5.906
 6775TIP3   OH220246   0.966   2.792   5.795
 6775TIP3    H120247   0.897   2.812   5.728
 6775TIP3    H220248   0.979   2.879   5.837
 6776TIP3   OH220249   1.235   2.728   5.845
 6776TIP3    H120250   1.141   2.750   5.827
 6776TIP3    H220251   1.280   2.804   5.805
 6777TIP3   OH220252   1.438   2.921   5.761
 6777TIP3    H120253   1.426   3.008   5.716
 6777TIP3    H220254   1.468   2.864   5.687
 6778TIP3   OH220255   0.215   2.577   5.879
 6778TIP3    H120256   0.231   2.556   5.973
 6778TIP3    H220257   0.288   2.529   5.836
 6779TIP3   OH220258   0.409   2.447   5.738
 6779TIP3    H120259   0.426   2.366   5.791
 6779TIP3    H220260   0.499   2.487   5.735
 6780TIP3   OH220261   0.672   2.544   5.745
 6780TIP3    H120262   0.708   2.455   5.734
 6780TIP3    H220263   0.716   2.570   5.828
 6781TIP3   OH220264   1.273   1.202   5.847
 6781TIP3    H120265   1.225   1.123   5.877
 6781TIP3    H220266   1.343   1.163   5.790
 6782TIP3   OH220267   1.767   1.068   5.731
 6782TIP3    H120268   1.815   1.121   5.663
 6782TIP3    H220269   1.682   1.114   5.734
 6783TIP3   OH220270   1.868   1.178   5.503
 6783TIP3    H120271   1.941   1.128   5.461
 6783TIP3    H220272   1.902   1.270   5.488
 6784TIP3   OH220273   0.962   1.026   5.743
 6784TIP3    H120274   0.996   1.049   5.655
 6784TIP3    H220275   1.001   0.939   5.749
 6785TIP3   OH220276   1.474   1.082   5.710
 6785TIP3    H120277   1.488   1.066   5.616
 6785TIP3    H220278   1.463   0.992   5.746
 6786TIP3   OH220279   1.520   1.013   5.275
 6786TIP3    H120280   1.432   1.053   5.281
 6786TIP3    H220281   1.505   0.925   5.314
 6787TIP3   OH220282  -0.001   2.354   5.280
 6787TIP3    H120283  -0.068   2.312   5.224
 6787TIP3    H220284  -0.018   2.448   5.258
 6788TIP3   OH220285   0.913   1.110   5.354
 6788TIP3    H120286   0.965   1.050   5.410
 6788TIP3    H220287   0.948   1.198   5.383
 6789TIP3   OH220288   0.775   2.539   4.859
 6789TIP3    H120289   0.863   2.562   4.823
 6789TIP3    H220290   0.753   2.465   4.798
 6790TIP3   OH220291   1.490   2.657   4.950
 6790TIP3    H120292   1.481   2.560   4.936
 6790TIP3    H220293   1.449   2.691   4.868
 6791TIP3   OH220294   0.078   2.372   4.916
 6791TIP3    H120295   0.081   2.414   5.003
 6791TIP3    H220296   0.169   2.334   4.906
 6792TIP3   OH220297   1.781   1.246   6.645
 6792TIP3    H120298   1.799   1.217   6.737
 6792TIP3    H220299   1.871   1.246   6.606
 6793TIP3   OH220300   1.718   2.801   6.139
 6793TIP3    H120301   1.641   2.772   6.088
 6793TIP3    H220302   1.703   2.898   6.140
 6794TIP3   OH220303   2.992   2.175   4.896
 6794TIP3    H120304   2.962   2.267   4.903
 6794TIP3    H220305   2.910   2.128   4.874
 6795TIP3   OH220306   3.004   2.161   5.277
 6795TIP3    H120307   2.984   2.186   5.370
 6795TIP3    H220308   2.945   2.085   5.265
 6796TIP3   OH220309   2.285   2.074   5.655
 6796TIP3    H120310   2.321   2.006   5.715
 6796TIP3    H220311   2.363   2.129   5.639
 6797TIP3   OH220312   3.226   2.477   4.967
 6797TIP3    H120313   3.214   2.410   5.035
 6797TIP3    H220314   3.253   2.554   5.020
 6798TIP3   OH220315   2.255   2.475   5.376
 6798TIP3    H120316   2.250   2.377   5.379
 6798TIP3    H220317   2.352   2.487   5.370
 6799TIP3   OH220318   1.961   1.675   5.161
 6799TIP3    H120319   1.921   1.762   5.177
 6799TIP3    H220320   1.887   1.630   5.115
 6800TIP3   OH220321   2.020   1.967   5.328
 6800TIP3    H120322   2.072   1.892   5.365
 6800TIP3    H220323   2.086   2.011   5.273
 6801TIP3   OH220324   2.871   2.933   4.977
 6801TIP3    H120325   2.925   2.862   4.938
 6801TIP3    H220326   2.867   2.907   5.070
 6802TIP3   OH220327   2.776   2.408   5.299
 6802TIP3    H120328   2.814   2.324   5.271
 6802TIP3    H220329   2.833   2.427   5.375
 6803TIP3   OH220330   3.801   1.721   5.332
 6803TIP3    H120331   3.828   1.803   5.378
 6803TIP3    H220332   3.800   1.751   5.239
 6804TIP3   OH220333   3.226   1.906   5.360
 6804TIP3    H120334   3.247   1.814   5.383
 6804TIP3    H220335   3.170   1.895   5.282
 6805TIP3   OH220336   2.532   1.559   5.332
 6805TIP3    H120337   2.515   1.633   5.270
 6805TIP3    H220338   2.484   1.488   5.285
 6806TIP3   OH220339   3.229   1.650   4.954
 6806TIP3    H120340   3.301   1.634   5.019
 6806TIP3    H220341   3.281   1.688   4.881
 6807TIP3   OH220342   2.166   1.761   5.438
 6807TIP3    H120343   2.250   1.746   5.485
 6807TIP3    H220344   2.183   1.708   5.358
 6808TIP3   OH220345   2.611   1.959   5.223
 6808TIP3    H120346   2.704   1.932   5.240
 6808TIP3    H220347   2.571   1.874   5.194
 6809TIP3   OH220348   3.871   1.930   5.499
 6809TIP3    H120349   3.787   1.976   5.479
 6809TIP3    H220350   3.879   1.950   5.594
 6810TIP3   OH220351   2.529   1.542   5.764
 6810TIP3    H120352   2.471   1.583   5.697
 6810TIP3    H220353   2.479   1.563   5.846
 6811TIP3   OH220354   2.872   2.403   4.721
 6811TIP3    H120355   2.788   2.360   4.744
 6811TIP3    H220356   2.852   2.490   4.763
 6812TIP3   OH220357   2.603   2.301   5.566
 6812TIP3    H120358   2.568   2.387   5.594
 6812TIP3    H220359   2.700   2.314   5.567
 6813TIP3   OH220360   3.442   1.650   5.126
 6813TIP3    H120361   3.416   1.612   5.211
 6813TIP3    H220362   3.487   1.732   5.154
 6814TIP3   OH220363   2.400   1.659   5.550
 6814TIP3    H120364   2.462   1.731   5.574
 6814TIP3    H220365   2.450   1.619   5.475
 6815TIP3   OH220366   2.464   2.522   5.664
 6815TIP3    H120367   2.441   2.607   5.623
 6815TIP3    H220368   2.383   2.507   5.718
 6816TIP3   OH220369   1.857   2.202   4.894
 6816TIP3    H120370   1.822   2.231   4.808
 6816TIP3    H220371   1.890   2.287   4.932
 6817TIP3   OH220372   3.300   2.717   5.129
 6817TIP3    H120373   3.212   2.710   5.173
 6817TIP3    H220374   3.292   2.805   5.088
 6818TIP3   OH220375   3.590   1.620   5.497
 6818TIP3    H120376   3.501   1.647   5.469
 6818TIP3    H220377   3.646   1.652   5.424
 6819TIP3   OH220378   2.887   1.263   5.477
 6819TIP3    H120379   2.873   1.169   5.496
 6819TIP3    H220380   2.811   1.302   5.525
 6820TIP3   OH220381   3.010   2.760   4.809
 6820TIP3    H120382   3.063   2.682   4.785
 6820TIP3    H220383   3.067   2.830   4.771
 6821TIP3   OH220384   3.151   2.534   4.709
 6821TIP3    H120385   3.076   2.475   4.712
 6821TIP3    H220386   3.194   2.514   4.796
 6822TIP3   OH220387   3.530   2.631   5.477
 6822TIP3    H120388   3.512   2.554   5.419
 6822TIP3    H220389   3.506   2.706   5.419
 6823TIP3   OH220390   2.820   2.023   4.735
 6823TIP3    H120391   2.736   2.072   4.718
 6823TIP3    H220392   2.855   2.011   4.645
 6824TIP3   OH220393   2.776   1.797   4.462
 6824TIP3    H120394   2.842   1.859   4.497
 6824TIP3    H220395   2.834   1.743   4.404
 6825TIP3   OH220396   3.722   2.269   5.321
 6825TIP3    H120397   3.637   2.319   5.328
 6825TIP3    H220398   3.750   2.297   5.231
 6826TIP3   OH220399   3.167   2.112   4.701
 6826TIP3    H120400   3.111   2.132   4.780
 6826TIP3    H220401   3.250   2.086   4.745
 6827TIP3   OH220402   3.401   2.146   5.616
 6827TIP3    H120403   3.390   2.229   5.666
 6827TIP3    H220404   3.321   2.149   5.560
 6828TIP3   OH220405   2.397   2.107   5.123
 6828TIP3    H120406   2.357   2.048   5.055
 6828TIP3    H220407   2.475   2.054   5.152
 6829TIP3   OH220408   2.522   2.518   5.272
 6829TIP3    H120409   2.508   2.475   5.186
 6829TIP3    H220410   2.612   2.486   5.294
 6830TIP3   OH220411   2.523   2.065   5.469
 6830TIP3    H120412   2.566   2.050   5.383
 6830TIP3    H220413   2.561   2.153   5.495
 6831TIP3   OH220414   3.062   2.717   5.253
 6831TIP3    H120415   3.044   2.799   5.302
 6831TIP3    H220416   3.053   2.648   5.322
 6832TIP3   OH220417   2.674   2.635   5.805
 6832TIP3    H120418   2.613   2.699   5.847
 6832TIP3    H220419   2.610   2.582   5.753
 6833TIP3   OH220420   3.007   1.966   4.529
 6833TIP3    H120421   3.068   2.023   4.582
 6833TIP3    H220422   3.033   1.992   4.437
 6834TIP3   OH220423   2.427   2.184   5.911
 6834TIP3    H120424   2.433   2.274   5.948
 6834TIP3    H220425   2.331   2.171   5.912
 6835TIP3   OH220426   2.754   2.641   4.808
 6835TIP3    H120427   2.822   2.705   4.834
 6835TIP3    H220428   2.687   2.698   4.768
 6836TIP3   OH220429   2.464   2.804   5.888
 6836TIP3    H120430   2.431   2.806   5.796
 6836TIP3    H220431   2.384   2.781   5.939
 6837TIP3   OH220432   3.521   1.207   4.581
 6837TIP3    H120433   3.439   1.227   4.631
 6837TIP3    H220434   3.534   1.290   4.532
 6838TIP3   OH220435   2.264   1.946   4.927
 6838TIP3    H120436   2.200   1.996   4.870
 6838TIP3    H220437   2.217   1.863   4.938
 6839TIP3   OH220438   3.322   2.581   4.130
 6839TIP3    H120439   3.332   2.677   4.112
 6839TIP3    H220440   3.414   2.550   4.117
 6840TIP3   OH220441   2.041   2.332   5.837
 6840TIP3    H120442   1.981   2.310   5.764
 6840TIP3    H220443   2.081   2.246   5.860
 6841TIP3   OH220444   1.899   2.522   5.475
 6841TIP3    H120445   1.994   2.519   5.458
 6841TIP3    H220446   1.891   2.605   5.524
 6842TIP3   OH220447   3.765   2.977   5.527
 6842TIP3    H120448   3.760   2.881   5.539
 6842TIP3    H220449   3.681   3.005   5.570
 6843TIP3   OH220450   2.858   2.777   5.637
 6843TIP3    H120451   2.858   2.863   5.683
 6843TIP3    H220452   2.811   2.720   5.701
 6844TIP3   OH220453   2.632   2.895   4.611
 6844TIP3    H120454   2.584   2.878   4.528
 6844TIP3    H220455   2.602   2.985   4.635
 6845TIP3   OH220456   2.066   2.740   4.995
 6845TIP3    H120457   2.118   2.732   5.078
 6845TIP3    H220458   2.005   2.666   5.005
 6846TIP3   OH220459   2.838   2.789   4.244
 6846TIP3    H120460   2.895   2.713   4.225
 6846TIP3    H220461   2.860   2.807   4.338
 6847TIP3   OH220462   2.876   2.828   4.517
 6847TIP3    H120463   2.788   2.844   4.557
 6847TIP3    H220464   2.929   2.812   4.597
 6848TIP3   OH220465   3.655   2.109   5.797
 6848TIP3    H120466   3.570   2.125   5.752
 6848TIP3    H220467   3.665   2.012   5.785
 6849TIP3   OH220468   2.245   2.517   5.827
 6849TIP3    H120469   2.297   2.499   5.908
 6849TIP3    H220470   2.172   2.453   5.835
 6850TIP3   OH220471   2.649   1.337   5.608
 6850TIP3    H120472   2.558   1.310   5.582
 6850TIP3    H220473   2.628   1.422   5.652
 6851TIP3   OH220474   3.182   1.452   5.802
 6851TIP3    H120475   3.250   1.427   5.867
 6851TIP3    H220476   3.098   1.435   5.849
 6852TIP3   OH220477   3.427   1.886   5.724
 6852TIP3    H120478   3.374   1.880   5.806
 6852TIP3    H220479   3.396   1.969   5.684
 6853TIP3   OH220480   3.090   2.034   4.283
 6853TIP3    H120481   3.038   2.007   4.205
 6853TIP3    H220482   3.174   2.062   4.242
 6854TIP3   OH220483   2.795   1.386   4.580
 6854TIP3    H120484   2.761   1.385   4.671
 6854TIP3    H220485   2.754   1.305   4.545
 6855TIP3   OH220486   2.578   1.853   5.627
 6855TIP3    H120487   2.528   1.879   5.707
 6855TIP3    H220488   2.562   1.930   5.569
 6856TIP3   OH220489   2.465   1.737   5.141
 6856TIP3    H120490   2.371   1.716   5.157
 6856TIP3    H220491   2.477   1.698   5.051
 6857TIP3   OH220492   2.955   1.824   4.867
 6857TIP3    H120493   2.902   1.897   4.827
 6857TIP3    H220494   3.008   1.794   4.791
 6858TIP3   OH220495   3.134   2.111   5.958
 6858TIP3    H120496   3.108   2.033   6.011
 6858TIP3    H220497   3.229   2.117   5.981
 6859TIP3   OH220498   3.106   1.853   5.112
 6859TIP3    H120499   3.048   1.886   5.040
 6859TIP3    H220500   3.140   1.773   5.067
 6860TIP3   OH220501   2.400   1.886   5.837
 6860TIP3    H120502   2.427   1.953   5.901
 6860TIP3    H220503   2.395   1.805   5.891
 6861TIP3   OH220504   2.447   1.359   4.545
 6861TIP3    H120505   2.439   1.360   4.642
 6861TIP3    H220506   2.372   1.416   4.520
 6862TIP3   OH220507   1.992   1.400   5.420
 6862TIP3    H120508   2.065   1.439   5.473
 6862TIP3    H220509   2.035   1.382   5.335
 6863TIP3   OH220510   1.964   1.386   4.937
 6863TIP3    H120511   2.009   1.423   4.858
 6863TIP3    H220512   1.904   1.461   4.956
 6864TIP3   OH220513   2.789   1.555   5.201
 6864TIP3    H120514   2.708   1.559   5.255
 6864TIP3    H220515   2.857   1.573   5.268
 6865TIP3   OH220516   2.224   1.618   5.212
 6865TIP3    H120517   2.130   1.625   5.183
 6865TIP3    H220518   2.249   1.528   5.184
 6866TIP3   OH220519   2.495   1.612   4.898
 6866TIP3    H120520   2.589   1.631   4.877
 6866TIP3    H220521   2.448   1.637   4.815
 6867TIP3   OH220522   3.285   1.631   5.397
 6867TIP3    H120523   3.257   1.648   5.490
 6867TIP3    H220524   3.212   1.575   5.367
 6868TIP3   OH220525   2.337   1.644   4.677
 6868TIP3    H120526   2.266   1.603   4.625
 6868TIP3    H220527   2.389   1.685   4.605
 6869TIP3   OH220528   3.453   3.325   5.622
 6869TIP3    H120529   3.448   3.350   5.527
 6869TIP3    H220530   3.526   3.382   5.652
 6870TIP3   OH220531   2.409   2.435   6.044
 6870TIP3    H120532   2.491   2.467   6.088
 6870TIP3    H220533   2.347   2.440   6.119
 6871TIP3   OH220534   2.870   1.881   5.292
 6871TIP3    H120535   2.953   1.858   5.247
 6871TIP3    H220536   2.888   1.860   5.385
 6872TIP3   OH220537   2.395   1.381   5.175
 6872TIP3    H120538   2.366   1.300   5.221
 6872TIP3    H220539   2.450   1.346   5.103
 6873TIP3   OH220540   2.848   1.778   5.594
 6873TIP3    H120541   2.762   1.822   5.602
 6873TIP3    H220542   2.906   1.836   5.649
 6874TIP3   OH220543   2.598   2.173   4.692
 6874TIP3    H120544   2.521   2.117   4.669
 6874TIP3    H220545   2.569   2.211   4.778
 6875TIP3   OH220546   3.489   2.411   5.314
 6875TIP3    H120547   3.510   2.464   5.234
 6875TIP3    H220548   3.401   2.373   5.291
 6876TIP3   OH220549   3.046   1.491   4.545
 6876TIP3    H120550   2.949   1.474   4.553
 6876TIP3    H220551   3.054   1.585   4.569
 6877TIP3   OH220552   3.115   1.738   4.649
 6877TIP3    H120553   3.212   1.745   4.666
 6877TIP3    H220554   3.097   1.817   4.595
 6878TIP3   OH220555   2.272   2.188   5.360
 6878TIP3    H120556   2.314   2.170   5.273
 6878TIP3    H220557   2.332   2.139   5.419
 6879TIP3   OH220558   2.159   2.123   5.975
 6879TIP3    H120559   2.186   2.112   6.068
 6879TIP3    H220560   2.092   2.052   5.965
 6880TIP3   OH220561   2.886   2.231   5.998
 6880TIP3    H120562   2.826   2.175   5.945
 6880TIP3    H220563   2.974   2.203   5.964
 6881TIP3   OH220564   3.150   2.767   5.574
 6881TIP3    H120565   3.055   2.750   5.583
 6881TIP3    H220566   3.169   2.813   5.658
 6882TIP3   OH220567   3.561   1.827   4.484
 6882TIP3    H120568   3.496   1.784   4.423
 6882TIP3    H220569   3.557   1.917   4.446
 6883TIP3   OH220570   3.778   2.684   5.567
 6883TIP3    H120571   3.680   2.681   5.559
 6883TIP3    H220572   3.803   2.655   5.476
 6884TIP3   OH220573   3.226   2.642   4.387
 6884TIP3    H120574   3.246   2.590   4.466
 6884TIP3    H220575   3.275   2.598   4.316
 6885TIP3   OH220576   3.254   2.274   5.231
 6885TIP3    H120577   3.164   2.241   5.250
 6885TIP3    H220578   3.291   2.195   5.187
 6886TIP3   OH220579   2.380   2.502   4.979
 6886TIP3    H120580   2.382   2.586   4.929
 6886TIP3    H220581   2.285   2.491   4.993
 6887TIP3   OH220582   1.946   1.808   4.687
 6887TIP3    H120583   1.991   1.893   4.705
 6887TIP3    H220584   1.869   1.815   4.748
 6888TIP3   OH220585   2.525   2.273   4.931
 6888TIP3    H120586   2.484   2.361   4.946
 6888TIP3    H220587   2.486   2.222   5.005
 6889TIP3   OH220588   2.649   2.848   5.454
 6889TIP3    H120589   2.693   2.919   5.404
 6889TIP3    H220590   2.724   2.813   5.505
 6890TIP3   OH220591   2.303   2.742   4.838
 6890TIP3    H120592   2.216   2.754   4.882
 6890TIP3    H220593   2.337   2.835   4.840
 6891TIP3   OH220594   3.071   2.496   5.424
 6891TIP3    H120595   3.022   2.442   5.489
 6891TIP3    H220596   3.126   2.428   5.384
 6892TIP3   OH220597   3.290   3.015   5.461
 6892TIP3    H120598   3.211   2.958   5.459
 6892TIP3    H220599   3.270   3.079   5.389
 6893TIP3   OH220600   3.352   2.855   4.110
 6893TIP3    H120601   3.396   2.931   4.068
 6893TIP3    H220602   3.274   2.901   4.148
 6894TIP3   OH220603   2.374   1.624   5.983
 6894TIP3    H120604   2.279   1.630   6.001
 6894TIP3    H220605   2.406   1.569   6.056
 6895TIP3   OH220606   3.123   2.297   4.506
 6895TIP3    H120607   3.145   2.235   4.579
 6895TIP3    H220608   3.214   2.314   4.475
 6896TIP3   OH220609   2.086   2.710   5.615
 6896TIP3    H120610   2.143   2.638   5.646
 6896TIP3    H220611   2.120   2.785   5.666
 6897TIP3   OH220612   2.391   2.353   4.295
 6897TIP3    H120613   2.391   2.262   4.260
 6897TIP3    H220614   2.367   2.337   4.389
 6898TIP3   OH220615   2.322   2.359   4.570
 6898TIP3    H120616   2.401   2.339   4.622
 6898TIP3    H220617   2.323   2.458   4.571
 6899TIP3   OH220618   2.059   2.054   4.771
 6899TIP3    H120619   1.994   2.101   4.826
 6899TIP3    H220620   2.075   2.121   4.702
 6900TIP3   OH220621   3.217   1.685   5.655
 6900TIP3    H120622   3.286   1.729   5.707
 6900TIP3    H220623   3.194   1.609   5.713
 6901TIP3   OH220624   3.092   1.440   4.827
 6901TIP3    H120625   3.076   1.465   4.734
 6901TIP3    H220626   3.128   1.523   4.864
 6902TIP3   OH220627   2.602   2.560   4.514
 6902TIP3    H120628   2.514   2.576   4.553
 6902TIP3    H220629   2.604   2.631   4.448
 6903TIP3   OH220630   2.779   1.620   4.930
 6903TIP3    H120631   2.842   1.693   4.913
 6903TIP3    H220632   2.783   1.613   5.027
 6904TIP3   OH220633   3.013   1.915   5.764
 6904TIP3    H120634   3.042   2.004   5.790
 6904TIP3    H220635   3.097   1.870   5.745
 6905TIP3   OH220636   2.922   1.348   5.032
 6905TIP3    H120637   2.913   1.424   5.092
 6905TIP3    H220638   2.983   1.385   4.964
 6906TIP3   OH220639   2.337   2.630   4.584
 6906TIP3    H120640   2.307   2.698   4.519
 6906TIP3    H220641   2.321   2.676   4.669
 6907TIP3   OH220642   2.433   1.347   4.822
 6907TIP3    H120643   2.432   1.439   4.856
 6907TIP3    H220644   2.529   1.329   4.830
 6908TIP3   OH220645   3.691   1.838   5.715
 6908TIP3    H120646   3.594   1.840   5.729
 6908TIP3    H220647   3.693   1.795   5.628
 6909TIP3   OH220648   3.342   2.030   5.102
 6909TIP3    H120649   3.261   1.982   5.127
 6909TIP3    H220650   3.409   1.984   5.156
 6910TIP3   OH220651   2.049   2.263   4.577
 6910TIP3    H120652   2.114   2.335   4.585
 6910TIP3    H220653   2.095   2.209   4.509
 6911TIP3   OH220654   1.992   1.538   4.713
 6911TIP3    H120655   2.000   1.635   4.708
 6911TIP3    H220656   1.914   1.522   4.659
 6912TIP3   OH220657   3.310   2.986   5.054
 6912TIP3    H120658   3.265   3.033   4.980
 6912TIP3    H220659   3.403   3.007   5.033
 6913TIP3   OH220660   2.381   1.259   5.585
 6913TIP3    H120661   2.353   1.227   5.497
 6913TIP3    H220662   2.372   1.180   5.641
 6914TIP3   OH220663   1.920   2.468   4.965
 6914TIP3    H120664   1.848   2.508   5.016
 6914TIP3    H220665   1.905   2.511   4.878
 6915TIP3   OH220666   2.078   3.018   6.039
 6915TIP3    H120667   2.166   3.018   6.083
 6915TIP3    H220668   2.061   2.923   6.033
 6916TIP3   OH220669   2.560   2.983   6.082
 6916TIP3    H120670   2.655   2.966   6.085
 6916TIP3    H220671   2.534   2.926   6.007
 6917TIP3   OH220672   2.544   2.563   4.204
 6917TIP3    H120673   2.492   2.488   4.241
 6917TIP3    H220674   2.613   2.515   4.154
 6918TIP3   OH220675   3.197   2.894   5.817
 6918TIP3    H120676   3.189   2.822   5.883
 6918TIP3    H220677   3.276   2.943   5.846
 6919TIP3   OH220678   3.008   2.569   4.127
 6919TIP3    H120679   3.092   2.601   4.163
 6919TIP3    H220680   3.022   2.588   4.032
 6920TIP3   OH220681   2.209   2.425   6.237
 6920TIP3    H120682   2.225   2.329   6.241
 6920TIP3    H220683   2.122   2.428   6.191
 6921TIP3   OH220684   2.183   2.076   4.429
 6921TIP3    H120685   2.246   2.049   4.497
 6921TIP3    H220686   2.244   2.082   4.352
 6922TIP3   OH220687   2.815   2.510   6.012
 6922TIP3    H120688   2.785   2.533   5.921
 6922TIP3    H220689   2.852   2.421   5.999
 6923TIP3   OH220690   3.314   2.517   5.620
 6923TIP3    H120691   3.384   2.570   5.576
 6923TIP3    H220692   3.235   2.565   5.589
 6924TIP3   OH220693   2.326   2.153   6.218
 6924TIP3    H120694   2.409   2.110   6.192
 6924TIP3    H220695   2.352   2.190   6.305
 6925TIP3   OH220696   2.397   1.981   4.651
 6925TIP3    H120697   2.369   1.939   4.734
 6925TIP3    H220698   2.430   1.905   4.599
 6926TIP3   OH220699   2.668   2.053   5.868
 6926TIP3    H120700   2.588   2.108   5.884
 6926TIP3    H220701   2.695   2.083   5.780
 6927TIP3   OH220702   2.494   1.771   4.494
 6927TIP3    H120703   2.467   1.777   4.400
 6927TIP3    H220704   2.591   1.775   4.487
 6928TIP3   OH220705   3.191   2.452   6.029
 6928TIP3    H120706   3.247   2.418   5.958
 6928TIP3    H220707   3.178   2.374   6.085
 6929TIP3   OH220708   3.323   2.097   4.153
 6929TIP3    H120709   3.298   2.054   4.069
 6929TIP3    H220710   3.292   2.188   4.134
 6930TIP3   OH220711   2.782   1.834   6.006
 6930TIP3    H120712   2.791   1.755   5.948
 6930TIP3    H220713   2.752   1.902   5.942
 6931TIP3   OH220714   2.789   1.614   5.814
 6931TIP3    H120715   2.819   1.662   5.734
 6931TIP3    H220716   2.695   1.596   5.792
 6932TIP3   OH220717   3.399   2.121   6.068
 6932TIP3    H120718   3.452   2.039   6.075
 6932TIP3    H220719   3.464   2.184   6.032
 6933TIP3   OH220720   3.441   2.372   5.806
 6933TIP3    H120721   3.382   2.426   5.749
 6933TIP3    H220722   3.528   2.394   5.764
 6934TIP3   OH220723   2.663   1.944   6.235
 6934TIP3    H120724   2.594   1.877   6.249
 6934TIP3    H220725   2.699   1.918   6.148
 6935TIP3   OH220726   2.922   1.381   5.879
 6935TIP3    H120727   2.874   1.463   5.857
 6935TIP3    H220728   2.852   1.313   5.867
 6936TIP3   OH220729   3.052   1.886   6.095
 6936TIP3    H120730   3.034   1.876   6.190
 6936TIP3    H220731   2.964   1.864   6.059
 6937TIP3   OH220732   3.288   1.833   5.948
 6937TIP3    H120733   3.209   1.840   6.006
 6937TIP3    H220734   3.357   1.804   6.010
 6938TIP3   OH220735   3.524   1.777   6.102
 6938TIP3    H120736   3.531   1.681   6.121
 6938TIP3    H220737   3.515   1.816   6.192
 6939TIP3   OH220738   2.500   1.725   6.288
 6939TIP3    H120739   2.515   1.636   6.253
 6939TIP3    H220740   2.537   1.716   6.378
 6940TIP3   OH220741   3.015   1.390   6.137
 6940TIP3    H120742   3.083   1.321   6.131
 6940TIP3    H220743   2.976   1.386   6.047
 6941TIP3   OH220744   3.081   1.606   6.297
 6941TIP3    H120745   3.060   1.537   6.231
 6941TIP3    H220746   3.005   1.667   6.289
 6942TIP3   OH220747   2.301   2.829   4.398
 6942TIP3    H120748   2.396   2.830   4.381
 6942TIP3    H220749   2.270   2.880   4.320
 6943TIP3   OH220750   1.782   2.216   4.616
 6943TIP3    H120751   1.876   2.240   4.599
 6943TIP3    H220752   1.778   2.128   4.573
 6944TIP3   OH220753   1.696   2.828   5.025
 6944TIP3    H120754   1.630   2.767   4.988
 6944TIP3    H220755   1.741   2.771   5.091
 6945TIP3   OH220756   1.834   2.680   5.211
 6945TIP3    H120757   1.823   2.608   5.275
 6945TIP3    H220758   1.887   2.743   5.264
 6946TIP3   OH220759   3.565   3.073   5.013
 6946TIP3    H120760   3.582   3.113   5.100
 6946TIP3    H220761   3.609   3.136   4.954
 6947TIP3   OH220762   3.587   3.100   5.293
 6947TIP3    H120763   3.544   3.012   5.290
 6947TIP3    H220764   3.662   3.081   5.351
 6948TIP3   OH220765   3.639   2.776   5.869
 6948TIP3    H120766   3.563   2.786   5.930
 6948TIP3    H220767   3.677   2.866   5.871
 6949TIP3   OH220768   3.448   2.293   4.486
 6949TIP3    H120769   3.518   2.356   4.458
 6949TIP3    H220770   3.489   2.254   4.566
 6950TIP3   OH220771   3.580   2.156   4.688
 6950TIP3    H120772   3.512   2.115   4.747
 6950TIP3    H220773   3.640   2.200   4.752
 6951TIP3   OH220774   3.636   2.551   5.126
 6951TIP3    H120775   3.685   2.490   5.069
 6951TIP3    H220776   3.624   2.629   5.068
 6952TIP3   OH220777   3.464   2.849   5.320
 6952TIP3    H120778   3.394   2.896   5.370
 6952TIP3    H220779   3.412   2.805   5.249
 6953TIP3   OH220780   3.520   2.067   4.339
 6953TIP3    H120781   3.449   2.066   4.271
 6953TIP3    H220782   3.490   2.143   4.393
 6954TIP3   OH220783   3.390   1.740   4.291
 6954TIP3    H120784   3.348   1.777   4.213
 6954TIP3    H220785   3.363   1.645   4.283
 6955TIP3   OH220786   3.393   2.015   4.835
 6955TIP3    H120787   3.399   1.918   4.830
 6955TIP3    H220788   3.378   2.029   4.932
 6956TIP3   OH220789   2.021   2.085   5.586
 6956TIP3    H120790   2.021   2.060   5.491
 6956TIP3    H220791   2.119   2.091   5.602
 6957TIP3   OH220792   3.684   2.440   5.695
 6957TIP3    H120793   3.757   2.376   5.684
 6957TIP3    H220794   3.706   2.510   5.632
 6958TIP3   OH220795   3.871   2.245   5.707
 6958TIP3    H120796   3.795   2.198   5.748
 6958TIP3    H220797   3.942   2.179   5.723
 6959TIP3   OH220798   3.333   1.474   4.279
 6959TIP3    H120799   3.405   1.441   4.336
 6959TIP3    H220800   3.258   1.416   4.301
 6960TIP3   OH220801   3.390   1.731   4.733
 6960TIP3    H120802   3.430   1.641   4.748
 6960TIP3    H220803   3.449   1.763   4.663
 6961TIP3   OH220804   3.555   1.900   5.228
 6961TIP3    H120805   3.641   1.930   5.191
 6961TIP3    H220806   3.561   1.940   5.317
 6962TIP3   OH220807   3.621   2.048   5.458
 6962TIP3    H120808   3.543   2.079   5.509
 6962TIP3    H220809   3.651   2.132   5.416
 6963TIP3   OH220810   2.234   1.771   6.247
 6963TIP3    H120811   2.331   1.771   6.256
 6963TIP3    H220812   2.213   1.689   6.296
 6964TIP3   OH220813   4.075   1.642   6.016
 6964TIP3    H120814   4.132   1.575   5.973
 6964TIP3    H220815   4.043   1.694   5.939
 6965TIP3   OH220816   3.501   1.480   4.768
 6965TIP3    H120817   3.546   1.466   4.854
 6965TIP3    H220818   3.438   1.405   4.768
 6966TIP3   OH220819   2.197   1.468   5.595
 6966TIP3    H120820   2.261   1.394   5.602
 6966TIP3    H220821   2.258   1.544   5.584
 6967TIP3   OH220822   2.000   1.740   5.662
 6967TIP3    H120823   2.051   1.737   5.579
 6967TIP3    H220824   2.025   1.827   5.696
 6968TIP3   OH220825   3.944   1.780   5.821
 6968TIP3    H120826   3.860   1.822   5.846
 6968TIP3    H220827   3.910   1.709   5.763
 6969TIP3   OH220828   3.583   1.415   4.405
 6969TIP3    H120829   3.618   1.343   4.348
 6969TIP3    H220830   3.648   1.486   4.393
 6970TIP3   OH220831   1.984   1.240   5.160
 6970TIP3    H120832   1.891   1.244   5.187
 6970TIP3    H220833   1.986   1.302   5.084
 6971TIP3   OH220834   3.153   2.939   4.672
 6971TIP3    H120835   3.199   2.941   4.586
 6971TIP3    H220836   3.187   3.019   4.715
 6972TIP3   OH220837   2.203   1.319   5.976
 6972TIP3    H120838   2.156   1.324   6.061
 6972TIP3    H220839   2.139   1.362   5.916
 6973TIP3   OH220840   2.245   2.752   6.055
 6973TIP3    H120841   2.153   2.724   6.038
 6973TIP3    H220842   2.254   2.736   6.150
 6974TIP3   OH220843   2.421   2.788   5.602
 6974TIP3    H120844   2.378   2.866   5.560
 6974TIP3    H220845   2.509   2.798   5.559
 6975TIP3   OH220846   2.867   3.035   5.746
 6975TIP3    H120847   2.913   3.035   5.833
 6975TIP3    H220848   2.933   3.081   5.690
 6976TIP3   OH220849   3.046   3.180   5.600
 6976TIP3    H120850   3.116   3.130   5.556
 6976TIP3    H220851   3.100   3.237   5.660
 6977TIP3   OH220852   3.844   1.543   5.698
 6977TIP3    H120853   3.752   1.540   5.665
 6977TIP3    H220854   3.871   1.449   5.688
 6978TIP3   OH220855   2.097   3.036   5.629
 6978TIP3    H120856   2.010   3.072   5.602
 6978TIP3    H220857   2.110   3.083   5.712
 6979TIP3   OH220858   2.335   3.020   5.483
 6979TIP3    H120859   2.247   3.033   5.526
 6979TIP3    H220860   2.318   3.054   5.393
 6980TIP3   OH220861   2.763   3.049   5.280
 6980TIP3    H120862   2.694   3.069   5.214
 6980TIP3    H220863   2.775   3.137   5.321
 6981TIP3   OH220864   3.031   2.990   5.330
 6981TIP3    H120865   2.936   3.006   5.314
 6981TIP3    H220866   3.071   3.069   5.290
 6982TIP3   OH220867   3.240   3.181   5.248
 6982TIP3    H120868   3.224   3.267   5.202
 6982TIP3    H220869   3.263   3.123   5.173
 6983TIP3   OH220870   2.009   2.832   5.370
 6983TIP3    H120871   2.037   2.810   5.461
 6983TIP3    H220872   2.083   2.790   5.320
 6984TIP3   OH220873   2.205   2.705   5.228
 6984TIP3    H120874   2.224   2.622   5.277
 6984TIP3    H220875   2.295   2.744   5.222
 6985TIP3   OH220876   2.469   2.799   5.233
 6985TIP3    H120877   2.502   2.708   5.223
 6985TIP3    H220878   2.516   2.824   5.315
 6986TIP3   OH220879   3.051   1.458   5.318
 6986TIP3    H120880   3.003   1.391   5.369
 6986TIP3    H220881   3.122   1.407   5.275
 6987TIP3   OH220882   3.571   1.334   5.221
 6987TIP3    H120883   3.606   1.390   5.148
 6987TIP3    H220884   3.476   1.355   5.219
 6988TIP3   OH220885   3.666   1.438   4.986
 6988TIP3    H120886   3.741   1.389   4.946
 6988TIP3    H220887   3.695   1.531   4.972
 6989TIP3   OH220888   2.296   1.166   5.336
 6989TIP3    H120889   2.203   1.135   5.335
 6989TIP3    H220890   2.344   1.080   5.331
 6990TIP3   OH220891   2.082   1.035   4.982
 6990TIP3    H120892   2.114   1.092   4.909
 6990TIP3    H220893   2.054   1.102   5.048
 6991TIP3   OH220894   2.739   1.198   5.217
 6991TIP3    H120895   2.794   1.249   5.156
 6991TIP3    H220896   2.762   1.239   5.302
 6992TIP3   OH220897   3.289   1.344   5.198
 6992TIP3    H120898   3.282   1.308   5.109
 6992TIP3    H220899   3.274   1.264   5.254
 6993TIP3   OH220900   3.315   1.268   4.761
 6993TIP3    H120901   3.229   1.312   4.774
 6993TIP3    H220902   3.300   1.184   4.808
 6994TIP3   OH220903   1.797   2.608   4.767
 6994TIP3    H120904   1.713   2.577   4.729
 6994TIP3    H220905   1.790   2.702   4.747
 6995TIP3   OH220906   2.199   1.191   4.750
 6995TIP3    H120907   2.249   1.133   4.689
 6995TIP3    H220908   2.270   1.249   4.783
 6996TIP3   OH220909   2.711   1.370   4.846
 6996TIP3    H120910   2.773   1.325   4.905
 6996TIP3    H220911   2.732   1.463   4.869
 6997TIP3   OH220912   2.571   2.797   4.345
 6997TIP3    H120913   2.653   2.829   4.305
 6997TIP3    H220914   2.550   2.723   4.283
 6998TIP3   OH220915   3.290   2.910   4.431
 6998TIP3    H120916   3.264   2.817   4.419
 6998TIP3    H220917   3.241   2.953   4.359
 6999TIP3   OH220918   2.503   1.442   6.220
 6999TIP3    H120919   2.469   1.375   6.282
 6999TIP3    H220920   2.597   1.445   6.249
 7000TIP3   OH220921   2.751   1.443   6.343
 7000TIP3    H120922   2.837   1.423   6.304
 7000TIP3    H220923   2.742   1.373   6.410
 7001TIP3   OH220924   1.872   2.627   4.401
 7001TIP3    H120925   1.880   2.663   4.491
 7001TIP3    H220926   1.962   2.589   4.387
 7002TIP3   OH220927   3.577   1.504   6.133
 7002TIP3    H120928   3.595   1.473   6.224
 7002TIP3    H220929   3.666   1.499   6.092
 7003TIP3   OH220930   3.517   3.058   5.624
 7003TIP3    H120931   3.439   3.026   5.574
 7003TIP3    H220932   3.498   3.154   5.627
 7004TIP3   OH220933   4.781   2.429   4.392
 7004TIP3    H120934   4.755   2.522   4.373
 7004TIP3    H220935   4.704   2.382   4.354
 7005TIP3   OH220936   4.785   2.431   4.768
 7005TIP3    H120937   4.813   2.403   4.857
 7005TIP3    H220938   4.743   2.351   4.733
 7006TIP3   OH220939   4.088   2.324   5.128
 7006TIP3    H120940   4.114   2.259   5.196
 7006TIP3    H220941   4.150   2.396   5.146
 7007TIP3   OH220942   5.025   2.733   4.452
 7007TIP3    H120943   5.010   2.666   4.520
 7007TIP3    H220944   5.053   2.810   4.505
 7008TIP3   OH220945   4.053   2.736   4.860
 7008TIP3    H120946   4.044   2.639   4.865
 7008TIP3    H220947   4.149   2.746   4.856
 7009TIP3   OH220948   3.773   1.943   4.650
 7009TIP3    H120949   3.720   2.024   4.664
 7009TIP3    H220950   3.704   1.885   4.615
 7010TIP3   OH220951   3.816   2.231   4.816
 7010TIP3    H120952   3.865   2.154   4.852
 7010TIP3    H220953   3.874   2.259   4.744
 7011TIP3   OH220954   4.670   3.195   4.466
 7011TIP3    H120955   4.720   3.122   4.424
 7011TIP3    H220956   4.660   3.164   4.557
 7012TIP3   OH220957   4.581   2.654   4.820
 7012TIP3    H120958   4.623   2.582   4.771
 7012TIP3    H220959   4.663   2.702   4.846
 7013TIP3   OH220960   5.591   1.977   4.816
 7013TIP3    H120961   5.622   2.059   4.859
 7013TIP3    H220962   5.616   1.994   4.723
 7014TIP3   OH220963   4.987   2.156   4.854
 7014TIP3    H120964   5.034   2.073   4.875
 7014TIP3    H220965   4.962   2.140   4.761
 7015TIP3   OH220966   5.024   1.911   4.440
 7015TIP3    H120967   5.095   1.894   4.506
 7015TIP3    H220968   5.077   1.944   4.366
 7016TIP3   OH220969   3.960   2.024   4.922
 7016TIP3    H120970   4.041   2.006   4.974
 7016TIP3    H220971   3.970   1.956   4.852
 7017TIP3   OH220972   4.413   2.221   4.707
 7017TIP3    H120973   4.507   2.204   4.729
 7017TIP3    H220974   4.386   2.136   4.672
 7018TIP3   OH220975   5.667   2.184   4.987
 7018TIP3    H120976   5.584   2.231   4.965
 7018TIP3    H220977   5.679   2.213   5.079
 7019TIP3   OH220978   4.321   1.801   5.252
 7019TIP3    H120979   4.251   1.851   5.207
 7019TIP3    H220980   4.285   1.806   5.343
 7020TIP3   OH220981   4.679   2.654   4.256
 7020TIP3    H120982   4.628   2.633   4.176
 7020TIP3    H220983   4.635   2.737   4.284
 7021TIP3   OH220984   4.433   2.576   5.049
 7021TIP3    H120985   4.370   2.641   5.087
 7021TIP3    H220986   4.472   2.627   4.976
 7022TIP3   OH220987   5.234   1.911   4.612
 7022TIP3    H120988   5.231   1.861   4.694
 7022TIP3    H220989   5.289   1.987   4.636
 7023TIP3   OH220990   4.195   1.920   5.033
 7023TIP3    H120991   4.244   2.000   5.064
 7023TIP3    H220992   4.268   1.859   5.022
 7024TIP3   OH220993   4.261   2.769   5.144
 7024TIP3    H120994   4.237   2.856   5.106
 7024TIP3    H220995   4.182   2.754   5.200
 7025TIP3   OH220996   3.658   2.458   4.381
 7025TIP3    H120997   3.617   2.488   4.298
 7025TIP3    H220998   3.687   2.544   4.419
 7026TIP3   OH220999   5.097   2.974   4.619
 7026TIP3    H121000   5.008   2.967   4.660
 7026TIP3    H221001   5.088   3.062   4.575
 7027TIP3   OH221002   5.385   1.879   4.983
 7027TIP3    H121003   5.298   1.907   4.950
 7027TIP3    H221004   5.446   1.910   4.913
 7028TIP3   OH221005   4.681   1.515   4.962
 7028TIP3    H121006   4.670   1.422   4.991
 7028TIP3    H221007   4.605   1.557   5.009
 7029TIP3   OH221008   4.802   3.020   4.299
 7029TIP3    H121009   4.851   2.939   4.275
 7029TIP3    H221010   4.862   3.087   4.258
 7030TIP3   OH221011   4.944   2.806   4.200
 7030TIP3    H121012   4.892   2.731   4.170
 7030TIP3    H221013   4.979   2.773   4.285
 7031TIP3   OH221014   5.322   2.888   4.966
 7031TIP3    H121015   5.310   2.811   4.905
 7031TIP3    H221016   5.303   2.963   4.906
 7032TIP3   OH221017   4.613   2.282   4.222
 7032TIP3    H121018   4.533   2.334   4.202
 7032TIP3    H221019   4.657   2.279   4.135
 7033TIP3   OH221020   4.573   2.064   3.941
 7033TIP3    H121021   4.640   2.118   3.985
 7033TIP3    H221022   4.631   2.002   3.892
 7034TIP3   OH221023   5.517   2.524   4.809
 7034TIP3    H121024   5.434   2.577   4.813
 7034TIP3    H221025   5.547   2.549   4.719
 7035TIP3   OH221026   4.960   2.366   4.193
 7035TIP3    H121027   4.906   2.390   4.272
 7035TIP3    H221028   5.044   2.341   4.237
 7036TIP3   OH221029   5.195   2.404   5.105
 7036TIP3    H121030   5.193   2.488   5.154
 7036TIP3    H221031   5.108   2.409   5.059
 7037TIP3   OH221032   4.190   2.363   4.612
 7037TIP3    H121033   4.149   2.308   4.542
 7037TIP3    H221034   4.272   2.315   4.633
 7038TIP3   OH221035   4.323   2.772   4.760
 7038TIP3    H121036   4.302   2.734   4.674
 7038TIP3    H221037   4.413   2.738   4.776
 7039TIP3   OH221038   4.346   2.330   4.963
 7039TIP3    H121039   4.368   2.327   4.868
 7039TIP3    H221040   4.375   2.420   4.989
 7040TIP3   OH221041   4.858   2.970   4.742
 7040TIP3    H121042   4.840   3.053   4.791
 7040TIP3    H221043   4.838   2.900   4.807
 7041TIP3   OH221044   4.467   2.888   5.290
 7041TIP3    H121045   4.406   2.952   5.335
 7041TIP3    H221046   4.401   2.837   5.238
 7042TIP3   OH221047   4.802   2.222   4.020
 7042TIP3    H121048   4.859   2.283   4.071
 7042TIP3    H221049   4.827   2.246   3.927
 7043TIP3   OH221050   4.218   2.444   5.385
 7043TIP3    H121051   4.226   2.532   5.429
 7043TIP3    H221052   4.124   2.425   5.405
 7044TIP3   OH221053   4.546   2.900   4.294
 7044TIP3    H121054   4.620   2.959   4.316
 7044TIP3    H221055   4.481   2.960   4.256
 7045TIP3   OH221056   4.263   3.057   5.376
 7045TIP3    H121057   4.226   3.061   5.286
 7045TIP3    H221058   4.183   3.035   5.429
 7046TIP3   OH221059   5.318   1.464   4.067
 7046TIP3    H121060   5.236   1.484   4.117
 7046TIP3    H221061   5.331   1.547   4.017
 7047TIP3   OH221062   4.061   2.203   4.417
 7047TIP3    H121063   3.997   2.253   4.361
 7047TIP3    H221064   4.014   2.120   4.427
 7048TIP3   OH221065   3.841   2.588   5.322
 7048TIP3    H121066   3.771   2.571   5.256
 7048TIP3    H221067   3.874   2.498   5.343
 7049TIP3   OH221068   3.694   2.782   4.957
 7049TIP3    H121069   3.790   2.789   4.951
 7049TIP3    H221070   3.672   2.864   5.004
 7050TIP3   OH221071   5.560   3.233   5.013
 7050TIP3    H121072   5.556   3.137   5.023
 7050TIP3    H221073   5.475   3.259   5.056
 7051TIP3   OH221074   4.667   3.016   5.147
 7051TIP3    H121075   4.665   3.109   5.178
 7051TIP3    H221076   4.593   2.978   5.200
 7052TIP3   OH221077   4.431   3.153   4.096
 7052TIP3    H121078   4.378   3.134   4.017
 7052TIP3    H221079   4.396   3.239   4.127
 7053TIP3   OH221080   3.864   2.996   4.480
 7053TIP3    H121081   3.913   2.988   4.565
 7053TIP3    H221082   3.792   2.933   4.496
 7054TIP3   OH221083   4.650   3.038   3.735
 7054TIP3    H121084   4.632   2.946   3.753
 7054TIP3    H221085   4.664   3.072   3.827
 7055TIP3   OH221086   4.676   3.091   4.004
 7055TIP3    H121087   4.586   3.106   4.042
 7055TIP3    H221088   4.723   3.060   4.083
 7056TIP3   OH221089   5.447   2.361   5.289
 7056TIP3    H121090   5.369   2.380   5.234
 7056TIP3    H221091   5.463   2.267   5.269
 7057TIP3   OH221092   4.046   2.769   5.309
 7057TIP3    H121093   4.093   2.757   5.394
 7057TIP3    H221094   3.970   2.708   5.318
 7058TIP3   OH221095   4.439   1.612   5.083
 7058TIP3    H121096   4.352   1.570   5.066
 7058TIP3    H221097   4.413   1.678   5.150
 7059TIP3   OH221098   4.980   1.711   5.290
 7059TIP3    H121099   5.047   1.681   5.354
 7059TIP3    H221100   4.896   1.690   5.336
 7060TIP3   OH221101   5.219   2.139   5.209
 7060TIP3    H121102   5.169   2.137   5.294
 7060TIP3    H221103   5.194   2.226   5.172
 7061TIP3   OH221104   4.877   2.274   3.766
 7061TIP3    H121105   4.840   2.245   3.680
 7061TIP3    H221106   4.959   2.319   3.737
 7062TIP3   OH221107   4.591   1.643   4.066
 7062TIP3    H121108   4.554   1.639   4.157
 7062TIP3    H221109   4.551   1.562   4.028
 7063TIP3   OH221110   4.373   2.108   5.112
 7063TIP3    H121111   4.327   2.134   5.195
 7063TIP3    H221112   4.363   2.191   5.060
 7064TIP3   OH221113   4.751   2.082   4.350
 7064TIP3    H121114   4.700   2.156   4.309
 7064TIP3    H221115   4.809   2.054   4.276
 7065TIP3   OH221116   4.922   2.359   5.439
 7065TIP3    H121117   4.900   2.288   5.503
 7065TIP3    H221118   5.016   2.373   5.458
 7066TIP3   OH221119   4.904   2.111   4.595
 7066TIP3    H121120   4.848   2.144   4.522
 7066TIP3    H221121   4.940   2.031   4.551
 7067TIP3   OH221122   4.199   2.136   5.323
 7067TIP3    H121123   4.213   2.206   5.388
 7067TIP3    H221124   4.183   2.059   5.379
 7068TIP3   OH221125   4.246   1.618   4.034
 7068TIP3    H121126   4.232   1.615   4.130
 7068TIP3    H221127   4.168   1.670   4.005
 7069TIP3   OH221128   3.783   1.665   4.897
 7069TIP3    H121129   3.861   1.690   4.950
 7069TIP3    H221130   3.820   1.627   4.816
 7070TIP3   OH221131   3.767   1.647   4.425
 7070TIP3    H121132   3.807   1.684   4.343
 7070TIP3    H221133   3.701   1.717   4.443
 7071TIP3   OH221134   4.917   2.358   5.017
 7071TIP3    H121135   4.950   2.285   4.959
 7071TIP3    H221136   4.887   2.305   5.094
 7072TIP3   OH221137   4.033   1.855   4.703
 7072TIP3    H121138   3.945   1.896   4.685
 7072TIP3    H221139   4.020   1.773   4.653
 7073TIP3   OH221140   4.291   1.861   4.395
 7073TIP3    H121141   4.381   1.887   4.368
 7073TIP3    H221142   4.237   1.890   4.317
 7074TIP3   OH221143   5.082   1.898   4.891
 7074TIP3    H121144   5.046   1.907   4.982
 7074TIP3    H221145   5.020   1.835   4.851
 7075TIP3   OH221146   4.136   1.902   4.170
 7075TIP3    H121147   4.062   1.860   4.122
 7075TIP3    H221148   4.186   1.939   4.094
 7076TIP3   OH221149   5.250   3.582   5.108
 7076TIP3    H121150   5.244   3.606   5.014
 7076TIP3    H221151   5.323   3.638   5.138
 7077TIP3   OH221152   4.209   2.690   5.531
 7077TIP3    H121153   4.286   2.725   5.580
 7077TIP3    H221154   4.142   2.692   5.602
 7078TIP3   OH221155   4.665   2.131   4.778
 7078TIP3    H121156   4.750   2.111   4.735
 7078TIP3    H221157   4.680   2.099   4.869
 7079TIP3   OH221158   4.221   1.620   4.657
 7079TIP3    H121159   4.176   1.549   4.711
 7079TIP3    H221160   4.232   1.574   4.573
 7080TIP3   OH221161   4.646   2.044   5.079
 7080TIP3    H121162   4.559   2.085   5.093
 7080TIP3    H221163   4.707   2.104   5.127
 7081TIP3   OH221164   4.386   2.434   4.173
 7081TIP3    H121165   4.313   2.370   4.160
 7081TIP3    H221166   4.365   2.469   4.263
 7082TIP3   OH221167   5.285   2.671   4.800
 7082TIP3    H121168   5.309   2.722   4.720
 7082TIP3    H221169   5.200   2.630   4.775
 7083TIP3   OH221170   4.843   1.745   4.037
 7083TIP3    H121171   4.746   1.728   4.041
 7083TIP3    H221172   4.851   1.840   4.056
 7084TIP3   OH221173   4.784   2.753   5.169
 7084TIP3    H121174   4.803   2.735   5.261
 7084TIP3    H221175   4.744   2.842   5.172
 7085TIP3   OH221176   4.912   1.995   4.138
 7085TIP3    H121177   5.008   2.001   4.152
 7085TIP3    H221178   4.893   2.075   4.084
 7086TIP3   OH221179   4.078   2.458   4.851
 7086TIP3    H121180   4.113   2.427   4.766
 7086TIP3    H221181   4.110   2.392   4.914
 7087TIP3   OH221182   4.529   2.587   3.995
 7087TIP3    H121183   4.480   2.673   4.000
 7087TIP3    H221184   4.474   2.532   4.054
 7088TIP3   OH221185   3.960   2.370   5.457
 7088TIP3    H121186   3.973   2.360   5.553
 7088TIP3    H221187   3.884   2.310   5.442
 7089TIP3   OH221188   4.680   2.491   5.479
 7089TIP3    H121189   4.619   2.431   5.434
 7089TIP3    H221190   4.767   2.457   5.449
 7090TIP3   OH221191   4.944   3.007   5.066
 7090TIP3    H121192   4.848   3.010   5.077
 7090TIP3    H221193   4.972   3.062   5.142
 7091TIP3   OH221194   5.353   2.084   3.973
 7091TIP3    H121195   5.290   2.040   3.911
 7091TIP3    H221196   5.351   2.173   3.932
 7092TIP3   OH221197   5.573   2.942   5.054
 7092TIP3    H121198   5.475   2.937   5.044
 7092TIP3    H221199   5.599   2.912   4.964
 7093TIP3   OH221200   5.051   2.533   4.721
 7093TIP3    H121201   4.957   2.510   4.733
 7093TIP3    H221202   5.083   2.454   4.673
 7094TIP3   OH221203   4.177   2.759   4.467
 7094TIP3    H121204   4.175   2.843   4.416
 7094TIP3    H221205   4.083   2.748   4.486
 7095TIP3   OH221206   3.743   2.064   4.177
 7095TIP3    H121207   3.785   2.151   4.196
 7095TIP3    H221208   3.664   2.069   4.236
 7096TIP3   OH221209   4.316   2.526   4.417
 7096TIP3    H121210   4.282   2.617   4.429
 7096TIP3    H221211   4.274   2.481   4.492
 7097TIP3   OH221212   4.446   3.105   4.940
 7097TIP3    H121213   4.484   3.179   4.890
 7097TIP3    H221214   4.523   3.073   4.989
 7098TIP3   OH221215   4.099   2.997   4.324
 7098TIP3    H121216   4.013   3.007   4.369
 7098TIP3    H221217   4.132   3.090   4.327
 7099TIP3   OH221218   4.833   2.736   4.900
 7099TIP3    H121219   4.824   2.736   4.998
 7099TIP3    H221220   4.917   2.689   4.889
 7100TIP3   OH221221   4.827   2.667   3.782
 7100TIP3    H121222   4.867   2.624   3.862
 7100TIP3    H221223   4.738   2.630   3.790
 7101TIP3   OH221224   5.083   3.271   4.948
 7101TIP3    H121225   5.002   3.218   4.939
 7101TIP3    H221226   5.070   3.338   4.876
 7102TIP3   OH221227   5.135   3.097   3.616
 7102TIP3    H121228   5.176   3.151   3.546
 7102TIP3    H221229   5.062   3.158   3.640
 7103TIP3   OH221230   4.168   1.878   5.469
 7103TIP3    H121231   4.072   1.887   5.485
 7103TIP3    H221232   4.195   1.822   5.545
 7104TIP3   OH221233   4.969   2.558   3.988
 7104TIP3    H121234   4.954   2.497   4.064
 7104TIP3    H221235   5.067   2.561   3.988
 7105TIP3   OH221236   3.889   2.965   5.097
 7105TIP3    H121237   3.940   2.896   5.141
 7105TIP3    H221238   3.905   3.041   5.154
 7106TIP3   OH221239   4.183   2.611   3.781
 7106TIP3    H121240   4.187   2.518   3.752
 7106TIP3    H221241   4.159   2.601   3.876
 7107TIP3   OH221242   4.123   2.617   4.052
 7107TIP3    H121243   4.190   2.594   4.118
 7107TIP3    H221244   4.121   2.715   4.058
 7108TIP3   OH221245   3.859   2.313   4.260
 7108TIP3    H121246   3.791   2.356   4.315
 7108TIP3    H221247   3.869   2.381   4.190
 7109TIP3   OH221248   5.005   1.946   5.150
 7109TIP3    H121249   5.087   1.982   5.187
 7109TIP3    H221250   4.991   1.865   5.205
 7110TIP3   OH221251   4.881   1.701   4.315
 7110TIP3    H121252   4.871   1.719   4.220
 7110TIP3    H221253   4.923   1.783   4.348
 7111TIP3   OH221254   4.388   2.817   4.007
 7111TIP3    H121255   4.300   2.840   4.044
 7111TIP3    H221256   4.395   2.884   3.938
 7112TIP3   OH221257   4.578   1.883   4.418
 7112TIP3    H121258   4.636   1.949   4.373
 7112TIP3    H221259   4.617   1.887   4.506
 7113TIP3   OH221260   4.844   2.195   5.223
 7113TIP3    H121261   4.859   2.249   5.302
 7113TIP3    H221262   4.898   2.117   5.239
 7114TIP3   OH221263   4.724   1.612   4.523
 7114TIP3    H121264   4.768   1.656   4.598
 7114TIP3    H221265   4.777   1.647   4.448
 7115TIP3   OH221266   4.130   2.889   4.070
 7115TIP3    H121267   4.100   2.958   4.006
 7115TIP3    H221268   4.113   2.932   4.156
 7116TIP3   OH221269   4.229   1.601   4.315
 7116TIP3    H121270   4.232   1.696   4.339
 7116TIP3    H221271   4.325   1.581   4.317
 7117TIP3   OH221272   5.487   2.098   5.207
 7117TIP3    H121273   5.389   2.095   5.213
 7117TIP3    H221274   5.500   2.053   5.122
 7118TIP3   OH221275   5.135   2.291   4.593
 7118TIP3    H121276   5.060   2.230   4.606
 7118TIP3    H221277   5.208   2.245   4.640
 7119TIP3   OH221278   3.845   2.518   4.063
 7119TIP3    H121279   3.902   2.596   4.071
 7119TIP3    H221280   3.897   2.468   3.996
 7120TIP3   OH221281   3.792   1.795   4.197
 7120TIP3    H121282   3.790   1.893   4.194
 7120TIP3    H221283   3.710   1.773   4.151
 7121TIP3   OH221284   5.104   3.245   4.542
 7121TIP3    H121285   5.061   3.291   4.467
 7121TIP3    H221286   5.198   3.265   4.521
 7122TIP3   OH221287   4.184   1.514   5.070
 7122TIP3    H121288   4.147   1.478   4.987
 7122TIP3    H221289   4.174   1.438   5.131
 7123TIP3   OH221290   3.714   2.721   4.449
 7123TIP3    H121291   3.653   2.763   4.512
 7123TIP3    H221292   3.691   2.769   4.367
 7124TIP3   OH221293   3.875   3.273   5.523
 7124TIP3    H121294   3.961   3.273   5.570
 7124TIP3    H221295   3.852   3.179   5.521
 7125TIP3   OH221296   4.359   3.238   5.570
 7125TIP3    H121297   4.454   3.221   5.570
 7125TIP3    H221298   4.330   3.182   5.495
 7126TIP3   OH221299   4.351   2.817   3.709
 7126TIP3    H121300   4.288   2.747   3.739
 7126TIP3    H221301   4.400   2.767   3.641
 7127TIP3   OH221302   4.999   3.145   5.298
 7127TIP3    H121303   4.989   3.077   5.369
 7127TIP3    H221304   5.073   3.199   5.331
 7128TIP3   OH221305   4.007   2.682   5.722
 7128TIP3    H121306   4.020   2.586   5.728
 7128TIP3    H221307   3.919   2.687   5.679
 7129TIP3   OH221308   3.983   2.333   3.913
 7129TIP3    H121309   4.038   2.301   3.987
 7129TIP3    H221310   4.050   2.338   3.842
 7130TIP3   OH221311   4.615   2.768   5.494
 7130TIP3    H121312   4.569   2.787   5.410
 7130TIP3    H221313   4.642   2.674   5.485
 7131TIP3   OH221314   4.506   2.530   3.723
 7131TIP3    H121315   4.495   2.544   3.819
 7131TIP3    H221316   4.498   2.432   3.719
 7132TIP3   OH221317   5.106   2.774   5.102
 7132TIP3    H121318   5.180   2.820   5.057
 7132TIP3    H221319   5.035   2.840   5.090
 7133TIP3   OH221320   4.127   2.416   5.704
 7133TIP3    H121321   4.199   2.354   5.688
 7133TIP3    H221322   4.150   2.451   5.792
 7134TIP3   OH221323   4.195   2.236   4.140
 7134TIP3    H121324   4.161   2.192   4.219
 7134TIP3    H221325   4.228   2.160   4.087
 7135TIP3   OH221326   4.462   2.302   5.364
 7135TIP3    H121327   4.382   2.359   5.367
 7135TIP3    H221328   4.510   2.338   5.286
 7136TIP3   OH221329   4.290   2.028   3.979
 7136TIP3    H121330   4.263   2.033   3.885
 7136TIP3    H221331   4.388   2.033   3.971
 7137TIP3   OH221332   4.975   2.704   5.498
 7137TIP3    H121333   5.057   2.682   5.452
 7137TIP3    H221334   4.969   2.634   5.566
 7138TIP3   OH221335   5.106   2.373   3.640
 7138TIP3    H121336   5.082   2.314   3.564
 7138TIP3    H221337   5.142   2.448   3.592
 7139TIP3   OH221338   4.585   2.091   5.491
 7139TIP3    H121339   4.582   2.010   5.436
 7139TIP3    H221340   4.539   2.156   5.434
 7140TIP3   OH221341   4.583   1.874   5.299
 7140TIP3    H121342   4.613   1.917   5.217
 7140TIP3    H221343   4.490   1.854   5.280
 7141TIP3   OH221344   4.615   2.410   5.167
 7141TIP3    H121345   4.698   2.428   5.123
 7141TIP3    H221346   4.555   2.476   5.127
 7142TIP3   OH221347   5.211   2.374   5.574
 7142TIP3    H121348   5.245   2.290   5.539
 7142TIP3    H221349   5.265   2.439   5.526
 7143TIP3   OH221350   5.236   2.628   5.287
 7143TIP3    H121351   5.177   2.682   5.229
 7143TIP3    H221352   5.323   2.652   5.248
 7144TIP3   OH221353   4.462   2.201   5.722
 7144TIP3    H121354   4.393   2.134   5.738
 7144TIP3    H221355   4.496   2.174   5.635
 7145TIP3   OH221356   4.719   1.637   5.363
 7145TIP3    H121357   4.668   1.719   5.344
 7145TIP3    H221358   4.649   1.569   5.355
 7146TIP3   OH221359   4.844   2.143   5.583
 7146TIP3    H121360   4.831   2.128   5.678
 7146TIP3    H221361   4.754   2.120   5.552
 7147TIP3   OH221362   5.091   2.100   5.446
 7147TIP3    H121363   5.011   2.095   5.502
 7147TIP3    H221364   5.159   2.056   5.502
 7148TIP3   OH221365   5.313   2.033   5.603
 7148TIP3    H121366   5.353   1.950   5.640
 7148TIP3    H221367   5.309   2.079   5.689
 7149TIP3   OH221368   4.302   1.981   5.774
 7149TIP3    H121369   4.306   1.888   5.742
 7149TIP3    H221370   4.338   1.970   5.864
 7150TIP3   OH221371   4.814   1.651   5.621
 7150TIP3    H121372   4.881   1.579   5.619
 7150TIP3    H221373   4.774   1.640   5.533
 7151TIP3   OH221374   4.882   1.867   5.780
 7151TIP3    H121375   4.858   1.794   5.718
 7151TIP3    H221376   4.802   1.923   5.776
 7152TIP3   OH221377   4.096   3.085   3.876
 7152TIP3    H121378   4.191   3.094   3.858
 7152TIP3    H221379   4.060   3.130   3.796
 7153TIP3   OH221380   3.577   2.472   4.103
 7153TIP3    H121381   3.671   2.496   4.085
 7153TIP3    H221382   3.571   2.385   4.059
 7154TIP3   OH221383   3.500   3.082   4.506
 7154TIP3    H121384   3.429   3.024   4.472
 7154TIP3    H221385   3.538   3.026   4.576
 7155TIP3   OH221386   3.635   2.933   4.696
 7155TIP3    H121387   3.614   2.867   4.763
 7155TIP3    H221388   3.682   2.999   4.750
 7156TIP3   OH221389   5.357   3.336   4.499
 7156TIP3    H121390   5.382   3.372   4.586
 7156TIP3    H221391   5.416   3.385   4.439
 7157TIP3   OH221392   5.384   3.359   4.781
 7157TIP3    H121393   5.342   3.270   4.776
 7157TIP3    H221394   5.462   3.336   4.834
 7158TIP3   OH221395   5.435   3.033   5.356
 7158TIP3    H121396   5.358   3.043   5.416
 7158TIP3    H221397   5.473   3.123   5.358
 7159TIP3   OH221398   5.249   2.550   3.972
 7159TIP3    H121399   5.319   2.613   3.945
 7159TIP3    H221400   5.291   2.511   4.053
 7160TIP3   OH221401   5.374   2.416   4.176
 7160TIP3    H121402   5.309   2.374   4.237
 7160TIP3    H221403   5.441   2.453   4.238
 7161TIP3   OH221404   5.431   2.807   4.611
 7161TIP3    H121405   5.482   2.743   4.559
 7161TIP3    H221406   5.423   2.882   4.549
 7162TIP3   OH221407   5.261   3.107   4.807
 7162TIP3    H121408   5.189   3.152   4.855
 7162TIP3    H221409   5.212   3.061   4.735
 7163TIP3   OH221410   5.312   2.324   3.824
 7163TIP3    H121411   5.236   2.324   3.762
 7163TIP3    H221412   5.288   2.399   3.881
 7164TIP3   OH221413   5.183   1.998   3.778
 7164TIP3    H121414   5.143   2.030   3.697
 7164TIP3    H221415   5.160   1.903   3.774
 7165TIP3   OH221416   5.189   2.272   4.324
 7165TIP3    H121417   5.199   2.176   4.318
 7165TIP3    H221418   5.176   2.286   4.421
 7166TIP3   OH221419   3.819   2.338   5.072
 7166TIP3    H121420   3.814   2.315   4.977
 7166TIP3    H221421   3.917   2.342   5.085
 7167TIP3   OH221422   5.479   2.697   5.183
 7167TIP3    H121423   5.552   2.632   5.172
 7167TIP3    H221424   5.503   2.766   5.118
 7168TIP3   OH221425   5.662   2.500   5.201
 7168TIP3    H121426   5.588   2.450   5.241
 7168TIP3    H221427   5.735   2.437   5.214
 7169TIP3   OH221428   5.127   1.733   3.768
 7169TIP3    H121429   5.203   1.699   3.820
 7169TIP3    H221430   5.055   1.671   3.788
 7170TIP3   OH221431   5.187   1.988   4.220
 7170TIP3    H121432   5.227   1.898   4.235
 7170TIP3    H221433   5.245   2.020   4.149
 7171TIP3   OH221434   5.348   2.164   4.714
 7171TIP3    H121435   5.434   2.188   4.674
 7171TIP3    H221436   5.363   2.200   4.804
 7172TIP3   OH221437   5.417   2.306   4.947
 7172TIP3    H121438   5.338   2.341   4.993
 7172TIP3    H221439   5.450   2.386   4.901
 7173TIP3   OH221440   4.036   2.031   5.745
 7173TIP3    H121441   4.134   2.024   5.749
 7173TIP3    H221442   4.010   1.947   5.786
 7174TIP3   OH221443   5.894   1.898   5.497
 7174TIP3    H121444   5.944   1.826   5.451
 7174TIP3    H221445   5.847   1.938   5.421
 7175TIP3   OH221446   5.294   1.738   4.258
 7175TIP3    H121447   5.344   1.722   4.340
 7175TIP3    H221448   5.235   1.660   4.257
 7176TIP3   OH221449   3.994   1.717   5.062
 7176TIP3    H121450   4.057   1.647   5.087
 7176TIP3    H221451   4.043   1.798   5.080
 7177TIP3   OH221452   3.804   1.995   5.154
 7177TIP3    H121453   3.844   2.002   5.065
 7177TIP3    H221454   3.816   2.084   5.188
 7178TIP3   OH221455   5.737   2.032   5.318
 7178TIP3    H121456   5.649   2.073   5.327
 7178TIP3    H221457   5.716   1.963   5.252
 7179TIP3   OH221458   5.377   1.673   3.889
 7179TIP3    H121459   5.416   1.600   3.836
 7179TIP3    H221460   5.445   1.742   3.883
 7180TIP3   OH221461   3.783   1.507   4.654
 7180TIP3    H121462   3.690   1.497   4.679
 7180TIP3    H221463   3.777   1.562   4.573
 7181TIP3   OH221464   4.943   3.201   4.157
 7181TIP3    H121465   4.997   3.197   4.076
 7181TIP3    H221466   4.984   3.274   4.206
 7182TIP3   OH221467   4.002   1.579   5.462
 7182TIP3    H121468   3.953   1.574   5.546
 7182TIP3    H221469   3.934   1.620   5.405
 7183TIP3   OH221470   4.044   3.001   5.542
 7183TIP3    H121471   3.950   2.981   5.523
 7183TIP3    H221472   4.046   2.993   5.638
 7184TIP3   OH221473   4.221   3.039   5.089
 7184TIP3    H121474   4.168   3.112   5.052
 7184TIP3    H221475   4.305   3.058   5.043
 7185TIP3   OH221476   4.666   3.282   5.226
 7185TIP3    H121477   4.706   3.288   5.316
 7185TIP3    H221478   4.730   3.335   5.174
 7186TIP3   OH221479   4.844   3.435   5.087
 7186TIP3    H121480   4.916   3.388   5.044
 7186TIP3    H221481   4.894   3.494   5.148
 7187TIP3   OH221482   5.638   1.802   5.176
 7187TIP3    H121483   5.546   1.790   5.148
 7187TIP3    H221484   5.670   1.709   5.174
 7188TIP3   OH221485   3.899   3.294   5.117
 7188TIP3    H121486   3.810   3.324   5.089
 7188TIP3    H221487   3.907   3.343   5.200
 7189TIP3   OH221488   4.132   3.274   4.970
 7189TIP3    H121489   4.046   3.288   5.016
 7189TIP3    H221490   4.112   3.311   4.882
 7190TIP3   OH221491   4.560   3.305   4.767
 7190TIP3    H121492   4.488   3.324   4.703
 7190TIP3    H221493   4.570   3.393   4.808
 7191TIP3   OH221494   4.827   3.243   4.819
 7191TIP3    H121495   4.732   3.261   4.801
 7191TIP3    H221496   4.868   3.321   4.779
 7192TIP3   OH221497   5.038   3.438   4.736
 7192TIP3    H121498   5.020   3.522   4.689
 7192TIP3    H221499   5.060   3.378   4.662
 7193TIP3   OH221500   3.809   3.093   4.853
 7193TIP3    H121501   3.831   3.068   4.946
 7193TIP3    H221502   3.881   3.047   4.806
 7194TIP3   OH221503   4.002   2.961   4.712
 7194TIP3    H121504   4.017   2.880   4.765
 7194TIP3    H221505   4.091   3.001   4.709
 7195TIP3   OH221506   4.266   3.057   4.716
 7195TIP3    H121507   4.299   2.966   4.709
 7195TIP3    H221508   4.307   3.083   4.801
 7196TIP3   OH221509   4.834   1.699   4.771
 7196TIP3    H121510   4.797   1.645   4.843
 7196TIP3    H221511   4.922   1.660   4.758
 7197TIP3   OH221512   5.366   1.596   4.711
 7197TIP3    H121513   5.403   1.646   4.635
 7197TIP3    H221514   5.270   1.614   4.702
 7198TIP3   OH221515   5.461   1.695   4.474
 7198TIP3    H121516   5.534   1.643   4.435
 7198TIP3    H221517   5.495   1.786   4.459
 7199TIP3   OH221518   4.096   1.430   4.815
 7199TIP3    H121519   4.002   1.399   4.819
 7199TIP3    H221520   4.141   1.342   4.815
 7200TIP3   OH221521   3.883   1.293   4.470
 7200TIP3    H121522   3.907   1.350   4.395
 7200TIP3    H221523   3.849   1.357   4.535
 7201TIP3   OH221524   4.530   1.488   4.710
 7201TIP3    H121525   4.596   1.516   4.645
 7201TIP3    H221526   4.580   1.493   4.793
 7202TIP3   OH221527   5.081   1.601   4.687
 7202TIP3    H121528   5.087   1.562   4.598
 7202TIP3    H221529   5.068   1.520   4.742
 7203TIP3   OH221530   5.112   1.523   4.248
 7203TIP3    H121531   5.024   1.563   4.255
 7203TIP3    H221532   5.099   1.439   4.295
 7204TIP3   OH221533   3.595   2.862   4.251
 7204TIP3    H121534   3.510   2.834   4.213
 7204TIP3    H221535   3.587   2.958   4.238
 7205TIP3   OH221536   3.994   1.451   4.233
 7205TIP3    H121537   4.041   1.388   4.175
 7205TIP3    H221538   4.068   1.504   4.269
 7206TIP3   OH221539   4.507   1.631   4.333
 7206TIP3    H121540   4.569   1.582   4.390
 7206TIP3    H221541   4.532   1.723   4.357
 7207TIP3   OH221542   4.370   3.057   3.831
 7207TIP3    H121543   4.443   3.096   3.781
 7207TIP3    H221544   4.349   2.979   3.775
 7208TIP3   OH221545   5.086   3.174   3.921
 7208TIP3    H121546   5.087   3.083   3.889
 7208TIP3    H221547   5.039   3.220   3.847
 7209TIP3   OH221548   4.301   1.706   5.711
 7209TIP3    H121549   4.263   1.636   5.767
 7209TIP3    H221550   4.394   1.704   5.741
 7210TIP3   OH221551   4.550   1.700   5.832
 7210TIP3    H121552   4.635   1.672   5.795
 7210TIP3    H221553   4.535   1.632   5.900
 7211TIP3   OH221554   3.671   2.884   3.886
 7211TIP3    H121555   3.664   2.922   3.974
 7211TIP3    H221556   3.763   2.851   3.882
 7212TIP3   OH221557   5.312   3.314   5.113
 7212TIP3    H121558   5.234   3.282   5.062
 7212TIP3    H221559   5.293   3.410   5.114
 7213TIP3   OH221560   6.579   2.685   3.878
 7213TIP3    H121561   6.552   2.778   3.860
 7213TIP3    H221562   6.500   2.638   3.845
 7214TIP3   OH221563   6.577   2.686   4.257
 7214TIP3    H121564   6.609   2.660   4.345
 7214TIP3    H221565   6.536   2.604   4.226
 7215TIP3   OH221566   5.877   2.584   4.626
 7215TIP3    H121567   5.909   2.515   4.686
 7215TIP3    H221568   5.957   2.638   4.614
 7216TIP3   OH221569   6.820   2.990   3.939
 7216TIP3    H121570   6.808   2.924   4.008
 7216TIP3    H221571   6.850   3.068   3.991
 7217TIP3   OH221572   5.848   2.991   4.349
 7217TIP3    H121573   5.840   2.893   4.351
 7217TIP3    H221574   5.944   3.001   4.342
 7218TIP3   OH221575   5.555   2.194   4.134
 7218TIP3    H121576   5.508   2.278   4.149
 7218TIP3    H221577   5.483   2.141   4.095
 7219TIP3   OH221578   5.613   2.481   4.303
 7219TIP3    H121579   5.662   2.404   4.340
 7219TIP3    H221580   5.675   2.515   4.238
 7220TIP3   OH221581   6.468   3.451   3.955
 7220TIP3    H121582   6.515   3.379   3.908
 7220TIP3    H221583   6.466   3.418   4.046
 7221TIP3   OH221584   6.377   2.912   4.308
 7221TIP3    H121585   6.417   2.836   4.262
 7221TIP3    H221586   6.459   2.959   4.332
 7222TIP3   OH221587   7.388   2.233   4.304
 7222TIP3    H121588   7.418   2.315   4.348
 7222TIP3    H221589   7.411   2.252   4.212
 7223TIP3   OH221590   6.787   2.414   4.340
 7223TIP3    H121591   6.831   2.329   4.360
 7223TIP3    H221592   6.758   2.398   4.248
 7224TIP3   OH221593   6.126   2.073   4.305
 7224TIP3    H121594   6.107   2.146   4.242
 7224TIP3    H221595   6.078   2.000   4.260
 7225TIP3   OH221596   6.821   2.165   3.927
 7225TIP3    H121597   6.892   2.149   3.993
 7225TIP3    H221598   6.874   2.200   3.853
 7226TIP3   OH221599   5.760   2.276   4.411
 7226TIP3    H121600   5.843   2.257   4.459
 7226TIP3    H221601   5.774   2.220   4.331
 7227TIP3   OH221602   6.201   2.473   4.205
 7227TIP3    H121603   6.295   2.448   4.217
 7227TIP3    H221604   6.163   2.389   4.172
 7228TIP3   OH221605   7.462   2.439   4.476
 7228TIP3    H121606   7.380   2.488   4.455
 7228TIP3    H221607   7.479   2.470   4.566
 7229TIP3   OH221608   6.123   2.058   4.739
 7229TIP3    H121609   6.063   2.095   4.671
 7229TIP3    H221610   6.072   2.076   4.820
 7230TIP3   OH221611   6.471   2.908   3.746
 7230TIP3    H121612   6.427   2.890   3.663
 7230TIP3    H221613   6.429   2.992   3.773
 7231TIP3   OH221614   6.230   2.832   4.535
 7231TIP3    H121615   6.168   2.899   4.572
 7231TIP3    H221616   6.273   2.882   4.462
 7232TIP3   OH221617   7.031   2.167   4.098
 7232TIP3    H121618   7.021   2.120   4.182
 7232TIP3    H221619   7.085   2.244   4.124
 7233TIP3   OH221620   5.993   2.172   4.523
 7233TIP3    H121621   6.056   2.244   4.547
 7233TIP3    H221622   6.042   2.132   4.448
 7234TIP3   OH221623   6.057   3.026   4.632
 7234TIP3    H121624   6.033   3.113   4.592
 7234TIP3    H221625   5.977   3.012   4.687
 7235TIP3   OH221626   5.453   2.716   3.870
 7235TIP3    H121627   5.419   2.741   3.782
 7235TIP3    H221628   5.485   2.802   3.905
 7236TIP3   OH221629   6.886   3.227   4.093
 7236TIP3    H121630   6.799   3.225   4.139
 7236TIP3    H221631   6.886   3.318   4.057
 7237TIP3   OH221632   7.182   2.132   4.470
 7237TIP3    H121633   7.095   2.163   4.439
 7237TIP3    H221634   7.242   2.165   4.400
 7238TIP3   OH221635   6.480   1.776   4.452
 7238TIP3    H121636   6.466   1.681   4.470
 7238TIP3    H221637   6.402   1.814   4.499
 7239TIP3   OH221638   6.593   3.277   3.780
 7239TIP3    H121639   6.645   3.195   3.760
 7239TIP3    H221640   6.654   3.343   3.741
 7240TIP3   OH221641   6.738   3.062   3.687
 7240TIP3    H121642   6.695   2.983   3.652
 7240TIP3    H221643   6.774   3.029   3.772
 7241TIP3   OH221644   7.121   3.133   4.462
 7241TIP3    H121645   7.109   3.060   4.397
 7241TIP3    H221646   7.094   3.211   4.407
 7242TIP3   OH221647   6.408   2.538   3.708
 7242TIP3    H121648   6.329   2.591   3.686
 7242TIP3    H221649   6.455   2.536   3.623
 7243TIP3   OH221650   6.368   2.323   3.425
 7243TIP3    H121651   6.434   2.374   3.474
 7243TIP3    H221652   6.426   2.260   3.378
 7244TIP3   OH221653   7.313   2.780   4.295
 7244TIP3    H121654   7.230   2.832   4.300
 7244TIP3    H221655   7.344   2.806   4.206
 7245TIP3   OH221656   6.757   2.620   3.680
 7245TIP3    H121657   6.702   2.645   3.759
 7245TIP3    H221658   6.841   2.596   3.724
 7246TIP3   OH221659   6.991   2.661   4.592
 7246TIP3    H121660   6.990   2.745   4.642
 7246TIP3    H221661   6.906   2.666   4.546
 7247TIP3   OH221662   5.989   2.619   4.098
 7247TIP3    H121663   5.948   2.562   4.030
 7247TIP3    H221664   6.066   2.566   4.127
 7248TIP3   OH221665   6.117   3.027   4.248
 7248TIP3    H121666   6.099   2.988   4.161
 7248TIP3    H221667   6.208   2.995   4.266
 7249TIP3   OH221668   6.124   2.591   4.452
 7249TIP3    H121669   6.158   2.568   4.362
 7249TIP3    H221670   6.169   2.676   4.471
 7250TIP3   OH221671   6.649   3.228   4.227
 7250TIP3    H121672   6.638   3.310   4.278
 7250TIP3    H221673   6.635   3.158   4.293
 7251TIP3   OH221674   6.263   3.146   4.778
 7251TIP3    H121675   6.202   3.209   4.821
 7251TIP3    H221676   6.199   3.093   4.726
 7252TIP3   OH221677   6.597   2.479   3.506
 7252TIP3    H121678   6.656   2.539   3.558
 7252TIP3    H221679   6.624   2.502   3.414
 7253TIP3   OH221680   6.018   2.702   4.879
 7253TIP3    H121681   6.022   2.790   4.921
 7253TIP3    H221682   5.923   2.684   4.885
 7254TIP3   OH221683   6.339   3.159   3.782
 7254TIP3    H121684   6.420   3.211   3.798
 7254TIP3    H221685   6.279   3.225   3.744
 7255TIP3   OH221686   6.057   3.316   4.861
 7255TIP3    H121687   6.023   3.318   4.770
 7255TIP3    H221688   5.977   3.292   4.913
 7256TIP3   OH221689   7.113   1.720   3.554
 7256TIP3    H121690   7.032   1.741   3.605
 7256TIP3    H221691   7.127   1.804   3.505
 7257TIP3   OH221692   5.856   2.461   3.902
 7257TIP3    H121693   5.790   2.506   3.845
 7257TIP3    H221694   5.815   2.375   3.914
 7258TIP3   OH221695   6.911   3.087   3.100
 7258TIP3    H121696   6.920   3.184   3.088
 7258TIP3    H221697   7.005   3.058   3.090
 7259TIP3   OH221698   5.636   2.846   4.810
 7259TIP3    H121699   5.571   2.825   4.740
 7259TIP3    H221700   5.673   2.758   4.832
 7260TIP3   OH221701   5.490   3.038   4.442
 7260TIP3    H121702   5.586   3.034   4.433
 7260TIP3    H221703   5.479   3.119   4.495
 7261TIP3   OH221704   7.366   3.488   4.515
 7261TIP3    H121705   7.354   3.392   4.515
 7261TIP3    H221706   7.276   3.517   4.541
 7262TIP3   OH221707   6.461   3.274   4.632
 7262TIP3    H121708   6.461   3.368   4.664
 7262TIP3    H221709   6.390   3.236   4.687
 7263TIP3   OH221710   6.221   3.405   3.584
 7263TIP3    H121711   6.175   3.390   3.499
 7263TIP3    H221712   6.190   3.493   3.609
 7264TIP3   OH221713   5.659   3.254   3.969
 7264TIP3    H121714   5.711   3.246   4.052
 7264TIP3    H221715   5.596   3.181   3.980
 7265TIP3   OH221716   6.422   3.306   3.224
 7265TIP3    H121717   6.482   3.237   3.188
 7265TIP3    H221718   6.456   3.316   3.315
 7266TIP3   OH221719   6.472   3.353   3.493
 7266TIP3    H121720   6.385   3.363   3.536
 7266TIP3    H221721   6.525   3.318   3.567
 7267TIP3   OH221722   7.245   2.620   4.773
 7267TIP3    H121723   7.165   2.634   4.720
 7267TIP3    H221724   7.260   2.524   4.761
 7268TIP3   OH221725   5.840   3.029   4.798
 7268TIP3    H121726   5.891   3.011   4.880
 7268TIP3    H221727   5.766   2.965   4.805
 7269TIP3   OH221728   6.241   1.852   4.581
 7269TIP3    H121729   6.151   1.822   4.554
 7269TIP3    H221730   6.217   1.934   4.627
 7270TIP3   OH221731   6.775   1.967   4.776
 7270TIP3    H121732   6.844   1.939   4.840
 7270TIP3    H221733   6.691   1.947   4.822
 7271TIP3   OH221734   7.012   2.396   4.693
 7271TIP3    H121735   6.963   2.393   4.778
 7271TIP3    H221736   6.991   2.484   4.658
 7272TIP3   OH221737   6.673   2.525   3.250
 7272TIP3    H121738   6.640   2.500   3.162
 7272TIP3    H221739   6.753   2.576   3.227
 7273TIP3   OH221740   6.386   1.901   3.553
 7273TIP3    H121741   6.353   1.898   3.645
 7273TIP3    H221742   6.347   1.819   3.518
 7274TIP3   OH221743   6.171   2.368   4.600
 7274TIP3    H121744   6.122   2.391   4.681
 7274TIP3    H221745   6.157   2.449   4.545
 7275TIP3   OH221746   6.057   2.253   4.114
 7275TIP3    H121747   5.964   2.228   4.131
 7275TIP3    H221748   6.070   2.213   4.025
 7276TIP3   OH221749   6.547   2.339   3.841
 7276TIP3    H121750   6.494   2.411   3.800
 7276TIP3    H221751   6.602   2.309   3.766
 7277TIP3   OH221752   6.722   2.618   4.928
 7277TIP3    H121753   6.701   2.545   4.990
 7277TIP3    H221754   6.816   2.633   4.948
 7278TIP3   OH221755   6.703   2.368   4.082
 7278TIP3    H121756   6.644   2.399   4.010
 7278TIP3    H221757   6.736   2.287   4.038
 7279TIP3   OH221758   5.991   2.397   4.809
 7279TIP3    H121759   6.022   2.462   4.874
 7279TIP3    H221760   5.982   2.316   4.862
 7280TIP3   OH221761   6.041   1.874   3.518
 7280TIP3    H121762   6.033   1.872   3.615
 7280TIP3    H221763   5.962   1.927   3.494
 7281TIP3   OH221764   5.584   1.919   4.390
 7281TIP3    H121765   5.660   1.951   4.443
 7281TIP3    H221766   5.625   1.887   4.308
 7282TIP3   OH221767   5.558   1.899   3.910
 7282TIP3    H121768   5.604   1.936   3.831
 7282TIP3    H221769   5.497   1.973   3.929
 7283TIP3   OH221770   6.711   2.614   4.504
 7283TIP3    H121771   6.746   2.542   4.445
 7283TIP3    H221772   6.683   2.560   4.581
 7284TIP3   OH221773   6.383   2.076   4.175
 7284TIP3    H121774   6.301   2.074   4.229
 7284TIP3    H221775   6.452   2.075   4.244
 7285TIP3   OH221776   5.817   2.131   4.184
 7285TIP3    H121777   5.723   2.138   4.156
 7285TIP3    H221778   5.841   2.040   4.160
 7286TIP3   OH221779   6.087   2.128   3.872
 7286TIP3    H121780   6.181   2.143   3.851
 7286TIP3    H221781   6.041   2.150   3.788
 7287TIP3   OH221782   6.875   2.152   4.377
 7287TIP3    H121783   6.841   2.164   4.468
 7287TIP3    H221784   6.809   2.090   4.341
 7288TIP3   OH221785   5.928   2.161   3.651
 7288TIP3    H121786   5.857   2.117   3.602
 7288TIP3    H221787   5.980   2.198   3.576
 7289TIP3   OH221788   7.044   3.840   4.595
 7289TIP3    H121789   7.044   3.851   4.497
 7289TIP3    H221790   7.124   3.889   4.620
 7290TIP3   OH221791   6.002   2.949   5.019
 7290TIP3    H121792   6.083   2.980   5.064
 7290TIP3    H221793   5.938   2.952   5.092
 7291TIP3   OH221794   6.466   2.402   4.271
 7291TIP3    H121795   6.541   2.366   4.221
 7291TIP3    H221796   6.478   2.361   4.359
 7292TIP3   OH221797   5.990   1.893   4.150
 7292TIP3    H121798   5.956   1.813   4.197
 7292TIP3    H221799   6.041   1.854   4.079
 7293TIP3   OH221800   6.444   2.299   4.566
 7293TIP3    H121801   6.355   2.337   4.577
 7293TIP3    H221802   6.501   2.361   4.614
 7294TIP3   OH221803   6.180   2.692   3.657
 7294TIP3    H121804   6.107   2.626   3.646
 7294TIP3    H221805   6.161   2.726   3.748
 7295TIP3   OH221806   7.081   2.925   4.286
 7295TIP3    H121807   7.105   2.978   4.207
 7295TIP3    H221808   6.995   2.886   4.260
 7296TIP3   OH221809   6.638   2.004   3.518
 7296TIP3    H121810   6.541   1.987   3.527
 7296TIP3    H221811   6.648   2.098   3.544
 7297TIP3   OH221812   6.572   3.006   4.657
 7297TIP3    H121813   6.606   2.992   4.746
 7297TIP3    H221814   6.543   3.099   4.658
 7298TIP3   OH221815   6.708   2.251   3.623
 7298TIP3    H121816   6.804   2.257   3.640
 7298TIP3    H221817   6.690   2.332   3.571
 7299TIP3   OH221818   5.870   2.710   4.334
 7299TIP3    H121819   5.909   2.685   4.248
 7299TIP3    H221820   5.916   2.651   4.394
 7300TIP3   OH221821   6.324   2.840   3.477
 7300TIP3    H121822   6.277   2.927   3.482
 7300TIP3    H221823   6.271   2.786   3.539
 7301TIP3   OH221824   5.752   2.635   4.948
 7301TIP3    H121825   5.772   2.619   5.042
 7301TIP3    H221826   5.684   2.567   4.931
 7302TIP3   OH221827   6.479   2.746   4.968
 7302TIP3    H121828   6.421   2.690   4.914
 7302TIP3    H221829   6.567   2.714   4.939
 7303TIP3   OH221830   6.739   3.260   4.558
 7303TIP3    H121831   6.642   3.268   4.564
 7303TIP3    H221832   6.767   3.319   4.630
 7304TIP3   OH221833   7.149   2.341   3.460
 7304TIP3    H121834   7.087   2.297   3.397
 7304TIP3    H221835   7.147   2.431   3.420
 7305TIP3   OH221836   7.371   3.194   4.541
 7305TIP3    H121837   7.273   3.190   4.533
 7305TIP3    H221838   7.396   3.167   4.450
 7306TIP3   OH221839   6.848   3.161   3.366
 7306TIP3    H121840   6.824   3.094   3.431
 7306TIP3    H221841   6.861   3.110   3.284
 7307TIP3   OH221842   6.845   2.789   4.207
 7307TIP3    H121843   6.751   2.765   4.219
 7307TIP3    H221844   6.879   2.710   4.161
 7308TIP3   OH221845   5.974   3.017   3.957
 7308TIP3    H121846   5.975   3.098   3.904
 7308TIP3    H221847   5.879   3.004   3.969
 7309TIP3   OH221848   5.537   2.322   3.662
 7309TIP3    H121849   5.584   2.405   3.683
 7309TIP3    H221850   5.461   2.326   3.724
 7310TIP3   OH221851   6.111   2.782   3.901
 7310TIP3    H121852   6.077   2.872   3.919
 7310TIP3    H221853   6.076   2.732   3.978
 7311TIP3   OH221854   6.242   3.361   4.427
 7311TIP3    H121855   6.281   3.435   4.377
 7311TIP3    H221856   6.319   3.327   4.474
 7312TIP3   OH221857   5.893   3.257   3.810
 7312TIP3    H121858   5.808   3.266   3.856
 7312TIP3    H221859   5.926   3.349   3.813
 7313TIP3   OH221860   6.629   2.993   4.387
 7313TIP3    H121861   6.621   2.991   4.485
 7313TIP3    H221862   6.713   2.947   4.373
 7314TIP3   OH221863   6.605   2.887   3.268
 7314TIP3    H121864   6.659   2.861   3.347
 7314TIP3    H221865   6.517   2.862   3.299
 7315TIP3   OH221866   6.877   3.540   4.439
 7315TIP3    H121867   6.807   3.475   4.423
 7315TIP3    H221868   6.863   3.601   4.364
 7316TIP3   OH221869   6.945   3.363   3.089
 7316TIP3    H121870   6.984   3.438   3.040
 7316TIP3    H221871   6.864   3.407   3.122
 7317TIP3   OH221872   5.963   2.140   4.956
 7317TIP3    H121873   5.866   2.141   4.965
 7317TIP3    H221874   5.989   2.075   5.023
 7318TIP3   OH221875   6.765   2.819   3.483
 7318TIP3    H121876   6.755   2.755   3.557
 7318TIP3    H221877   6.863   2.818   3.473
 7319TIP3   OH221878   5.679   3.223   4.587
 7319TIP3    H121879   5.735   3.150   4.619
 7319TIP3    H221880   5.710   3.296   4.641
 7320TIP3   OH221881   5.971   2.869   3.269
 7320TIP3    H121882   5.986   2.777   3.240
 7320TIP3    H221883   5.952   2.857   3.364
 7321TIP3   OH221884   5.916   2.873   3.542
 7321TIP3    H121885   5.989   2.848   3.599
 7321TIP3    H221886   5.920   2.971   3.548
 7322TIP3   OH221887   5.652   2.567   3.744
 7322TIP3    H121888   5.587   2.612   3.802
 7322TIP3    H221889   5.667   2.636   3.677
 7323TIP3   OH221890   6.801   2.204   4.636
 7323TIP3    H121891   6.881   2.243   4.674
 7323TIP3    H221892   6.788   2.123   4.691
 7324TIP3   OH221893   6.682   1.955   3.801
 7324TIP3    H121894   6.669   1.978   3.707
 7324TIP3    H221895   6.720   2.038   3.837
 7325TIP3   OH221896   6.181   3.070   3.488
 7325TIP3    H121897   6.095   3.097   3.526
 7325TIP3    H221898   6.200   3.145   3.431
 7326TIP3   OH221899   6.370   2.135   3.903
 7326TIP3    H121900   6.435   2.207   3.886
 7326TIP3    H221901   6.376   2.127   4.001
 7327TIP3   OH221902   6.639   2.453   4.712
 7327TIP3    H121903   6.661   2.507   4.791
 7327TIP3    H221904   6.695   2.374   4.725
 7328TIP3   OH221905   6.515   1.862   4.005
 7328TIP3    H121906   6.510   1.938   4.066
 7328TIP3    H221907   6.575   1.897   3.936
 7329TIP3   OH221908   5.925   3.146   3.557
 7329TIP3    H121909   5.895   3.216   3.494
 7329TIP3    H221910   5.910   3.190   3.643
 7330TIP3   OH221911   6.026   1.860   3.795
 7330TIP3    H121912   6.025   1.951   3.832
 7330TIP3    H221913   6.122   1.841   3.803
 7331TIP3   OH221914   7.280   2.354   4.693
 7331TIP3    H121915   7.182   2.351   4.698
 7331TIP3    H221916   7.294   2.316   4.606
 7332TIP3   OH221917   6.931   2.548   4.079
 7332TIP3    H121918   6.856   2.488   4.093
 7332TIP3    H221919   7.004   2.502   4.127
 7333TIP3   OH221920   5.641   2.778   3.548
 7333TIP3    H121921   5.707   2.849   3.559
 7333TIP3    H221922   5.689   2.724   3.481
 7334TIP3   OH221923   5.587   2.052   3.685
 7334TIP3    H121924   5.588   2.150   3.679
 7334TIP3    H221925   5.508   2.029   3.636
 7335TIP3   OH221926   6.919   3.504   4.031
 7335TIP3    H121927   6.880   3.549   3.954
 7335TIP3    H221928   7.007   3.547   4.036
 7336TIP3   OH221929   5.975   1.773   4.557
 7336TIP3    H121930   5.945   1.738   4.470
 7336TIP3    H221931   5.965   1.694   4.615
 7337TIP3   OH221932   5.514   2.983   3.937
 7337TIP3    H121933   5.448   3.023   3.995
 7337TIP3    H221934   5.494   3.027   3.852
 7338TIP3   OH221935   5.670   3.530   5.013
 7338TIP3    H121936   5.758   3.528   5.056
 7338TIP3    H221937   5.650   3.435   5.006
 7339TIP3   OH221938   6.151   3.494   5.059
 7339TIP3    H121939   6.247   3.482   5.060
 7339TIP3    H221940   6.126   3.439   4.982
 7340TIP3   OH221941   6.134   3.073   3.180
 7340TIP3    H121942   6.078   3.002   3.219
 7340TIP3    H221943   6.210   3.020   3.150
 7341TIP3   OH221944   6.788   3.406   4.790
 7341TIP3    H121945   6.783   3.334   4.857
 7341TIP3    H221946   6.868   3.454   4.817
 7342TIP3   OH221947   6.571   3.113   3.092
 7342TIP3    H121948   6.616   3.051   3.153
 7342TIP3    H221949   6.629   3.112   3.014
 7343TIP3   OH221950   5.801   2.938   5.211
 7343TIP3    H121951   5.817   2.842   5.213
 7343TIP3    H221952   5.714   2.942   5.165
 7344TIP3   OH221953   5.778   2.589   3.402
 7344TIP3    H121954   5.834   2.557   3.475
 7344TIP3    H221955   5.845   2.595   3.331
 7345TIP3   OH221956   6.407   3.022   4.984
 7345TIP3    H121957   6.369   3.042   4.896
 7345TIP3    H221958   6.440   2.931   4.974
 7346TIP3   OH221959   6.287   2.788   3.208
 7346TIP3    H121960   6.291   2.800   3.305
 7346TIP3    H221961   6.288   2.690   3.203
 7347TIP3   OH221962   6.899   3.031   4.590
 7347TIP3    H121963   6.977   3.070   4.547
 7347TIP3    H221964   6.833   3.102   4.574
 7348TIP3   OH221965   5.920   2.669   5.193
 7348TIP3    H121966   6.000   2.624   5.164
 7348TIP3    H221967   5.948   2.705   5.279
 7349TIP3   OH221968   5.986   2.493   3.624
 7349TIP3    H121969   5.961   2.451   3.708
 7349TIP3    H221970   6.023   2.418   3.573
 7350TIP3   OH221971   6.255   2.556   4.851
 7350TIP3    H121972   6.178   2.617   4.852
 7350TIP3    H221973   6.307   2.590   4.775
 7351TIP3   OH221974   6.087   2.286   3.465
 7351TIP3    H121975   6.062   2.291   3.371
 7351TIP3    H221976   6.185   2.290   3.458
 7352TIP3   OH221977   6.773   2.959   4.988
 7352TIP3    H121978   6.851   2.936   4.937
 7352TIP3    H221979   6.772   2.890   5.057
 7353TIP3   OH221980   6.910   2.618   3.127
 7353TIP3    H121981   6.888   2.572   3.043
 7353TIP3    H221982   6.877   2.708   3.105
 7354TIP3   OH221983   6.378   2.346   4.980
 7354TIP3    H121984   6.380   2.266   4.924
 7354TIP3    H221985   6.335   2.411   4.920
 7355TIP3   OH221986   6.382   2.132   4.788
 7355TIP3    H121987   6.410   2.174   4.704
 7355TIP3    H221988   6.288   2.109   4.767
 7356TIP3   OH221989   6.409   2.666   4.660
 7356TIP3    H121990   6.493   2.677   4.614
 7356TIP3    H221991   6.353   2.734   4.615
 7357TIP3   OH221992   6.991   2.635   5.041
 7357TIP3    H121993   7.041   2.552   5.050
 7357TIP3    H221994   7.059   2.694   5.005
 7358TIP3   OH221995   7.031   2.888   4.777
 7358TIP3    H121996   6.973   2.941   4.717
 7358TIP3    H221997   7.119   2.908   4.737
 7359TIP3   OH221998   6.256   2.459   5.210
 7359TIP3    H121999   6.186   2.391   5.216
 7359TIP3    H222000   6.295   2.437   5.123
 7360TIP3   OH222001   6.514   1.895   4.852
 7360TIP3    H122002   6.464   1.977   4.831
 7360TIP3    H222003   6.445   1.826   4.841
 7361TIP3   OH222004   6.640   2.400   5.070
 7361TIP3    H122005   6.631   2.386   5.166
 7361TIP3    H222006   6.550   2.375   5.041
 7362TIP3   OH222007   6.879   2.350   4.924
 7362TIP3    H122008   6.805   2.351   4.987
 7362TIP3    H222009   6.954   2.319   4.980
 7363TIP3   OH222010   7.106   2.289   5.075
 7363TIP3    H122011   7.120   2.194   5.093
 7363TIP3    H222012   7.104   2.328   5.164
 7364TIP3   OH222013   6.094   2.238   5.251
 7364TIP3    H122014   6.100   2.148   5.214
 7364TIP3    H222015   6.147   2.228   5.331
 7365TIP3   OH222016   6.609   1.905   5.110
 7365TIP3    H122017   6.676   1.834   5.104
 7365TIP3    H222018   6.569   1.899   5.021
 7366TIP3   OH222019   6.676   2.120   5.269
 7366TIP3    H122020   6.654   2.049   5.205
 7366TIP3    H222021   6.597   2.178   5.264
 7367TIP3   OH222022   5.894   3.347   3.368
 7367TIP3    H122023   5.990   3.343   3.350
 7367TIP3    H222024   5.865   3.398   3.290
 7368TIP3   OH222025   5.378   2.718   3.598
 7368TIP3    H122026   5.469   2.749   3.577
 7368TIP3    H222027   5.374   2.634   3.549
 7369TIP3   OH222028   5.293   3.341   3.998
 7369TIP3    H122029   5.224   3.281   3.964
 7369TIP3    H222030   5.336   3.285   4.066
 7370TIP3   OH222031   5.428   3.192   4.184
 7370TIP3    H122032   5.415   3.121   4.250
 7370TIP3    H222033   5.478   3.256   4.238
 7371TIP3   OH222034   7.229   3.290   4.843
 7371TIP3    H122035   7.155   3.301   4.906
 7371TIP3    H222036   7.269   3.379   4.844
 7372TIP3   OH222037   7.045   2.805   3.461
 7372TIP3    H122038   7.113   2.869   3.432
 7372TIP3    H222039   7.088   2.766   3.540
 7373TIP3   OH222040   7.172   2.672   3.664
 7373TIP3    H122041   7.106   2.631   3.724
 7373TIP3    H222042   7.237   2.710   3.726
 7374TIP3   OH222043   7.226   3.064   4.098
 7374TIP3    H122044   7.278   3.002   4.044
 7374TIP3    H222045   7.217   3.140   4.038
 7375TIP3   OH222046   7.048   3.337   4.305
 7375TIP3    H122047   7.008   3.424   4.321
 7375TIP3    H222048   7.006   3.310   4.221
 7376TIP3   OH222049   7.110   2.579   3.311
 7376TIP3    H122050   7.039   2.583   3.244
 7376TIP3    H222051   7.083   2.655   3.367
 7377TIP3   OH222052   6.982   2.252   3.265
 7377TIP3    H122053   6.937   2.291   3.189
 7377TIP3    H222054   6.957   2.158   3.256
 7378TIP3   OH222055   6.986   2.529   3.812
 7378TIP3    H122056   6.995   2.432   3.806
 7378TIP3    H222057   6.972   2.543   3.908
 7379TIP3   OH222058   5.613   2.599   4.559
 7379TIP3    H122059   5.611   2.571   4.465
 7379TIP3    H222060   5.710   2.603   4.575
 7380TIP3   OH222061   7.275   2.952   4.670
 7380TIP3    H122062   7.349   2.888   4.659
 7380TIP3    H222063   7.297   3.021   4.606
 7381TIP3   OH222064   7.461   2.758   4.685
 7381TIP3    H122065   7.386   2.708   4.725
 7381TIP3    H222066   7.534   2.694   4.699
 7382TIP3   OH222067   6.925   1.986   3.250
 7382TIP3    H122068   7.000   1.957   3.305
 7382TIP3    H222069   6.852   1.928   3.276
 7383TIP3   OH222070   6.982   2.244   3.706
 7383TIP3    H122071   7.022   2.155   3.721
 7383TIP3    H222072   7.041   2.277   3.637
 7384TIP3   OH222073   7.144   2.419   4.201
 7384TIP3    H122074   7.230   2.444   4.161
 7384TIP3    H222075   7.158   2.456   4.290
 7385TIP3   OH222076   7.213   2.562   4.433
 7385TIP3    H122077   7.134   2.597   4.480
 7385TIP3    H222078   7.246   2.643   4.387
 7386TIP3   OH222079   5.825   2.285   5.238
 7386TIP3    H122080   5.923   2.280   5.231
 7386TIP3    H222081   5.805   2.198   5.275
 7387TIP3   OH222082   7.663   2.152   4.989
 7387TIP3    H122083   7.724   2.087   4.948
 7387TIP3    H222084   7.636   2.206   4.913
 7388TIP3   OH222085   7.091   1.994   3.743
 7388TIP3    H122086   7.141   1.979   3.827
 7388TIP3    H222087   7.031   1.917   3.743
 7389TIP3   OH222088   5.790   1.981   4.566
 7389TIP3    H122089   5.852   1.906   4.574
 7389TIP3    H222090   5.853   2.055   4.557
 7390TIP3   OH222091   5.594   2.255   4.637
 7390TIP3    H122092   5.644   2.248   4.552
 7390TIP3    H222093   5.622   2.341   4.668
 7391TIP3   OH222094   7.536   2.293   4.794
 7391TIP3    H122095   7.449   2.334   4.814
 7391TIP3    H222096   7.507   2.221   4.736
 7392TIP3   OH222097   7.172   1.930   3.376
 7392TIP3    H122098   7.213   1.858   3.324
 7392TIP3    H222099   7.240   2.000   3.372
 7393TIP3   OH222100   5.577   1.760   4.139
 7393TIP3    H122101   5.483   1.755   4.163
 7393TIP3    H222102   5.576   1.817   4.059
 7394TIP3   OH222103   6.733   3.461   3.640
 7394TIP3    H122104   6.791   3.451   3.562
 7394TIP3    H222105   6.783   3.524   3.695
 7395TIP3   OH222106   5.800   1.846   4.952
 7395TIP3    H122107   5.747   1.832   5.031
 7395TIP3    H222108   5.733   1.877   4.889
 7396TIP3   OH222109   5.837   3.265   5.028
 7396TIP3    H122110   5.745   3.237   5.010
 7396TIP3    H222111   5.845   3.248   5.123
 7397TIP3   OH222112   6.016   3.297   4.576
 7397TIP3    H122113   5.968   3.373   4.535
 7397TIP3    H222114   6.102   3.311   4.532
 7398TIP3   OH222115   6.463   3.540   4.714
 7398TIP3    H122116   6.505   3.546   4.802
 7398TIP3    H222117   6.527   3.591   4.660
 7399TIP3   OH222118   6.641   3.692   4.573
 7399TIP3    H122119   6.712   3.644   4.527
 7399TIP3    H222120   6.693   3.748   4.633
 7400TIP3   OH222121   7.434   2.056   4.673
 7400TIP3    H122122   7.344   2.049   4.638
 7400TIP3    H222123   7.466   1.963   4.662
 7401TIP3   OH222124   5.690   3.551   4.601
 7401TIP3    H122125   5.602   3.587   4.576
 7401TIP3    H222126   5.701   3.594   4.687
 7402TIP3   OH222127   5.927   3.527   4.456
 7402TIP3    H122128   5.840   3.544   4.499
 7402TIP3    H222129   5.912   3.565   4.367
 7403TIP3   OH222130   6.353   3.562   4.255
 7403TIP3    H122131   6.285   3.584   4.189
 7403TIP3    H222132   6.367   3.648   4.299
 7404TIP3   OH222133   6.623   3.498   4.305
 7404TIP3    H122134   6.530   3.522   4.286
 7404TIP3    H222135   6.672   3.572   4.265
 7405TIP3   OH222136   6.817   3.692   4.220
 7405TIP3    H122137   6.812   3.781   4.180
 7405TIP3    H222138   6.868   3.643   4.153
 7406TIP3   OH222139   5.603   3.348   4.343
 7406TIP3    H122140   5.629   3.324   4.434
 7406TIP3    H222141   5.676   3.304   4.293
 7407TIP3   OH222142   5.797   3.219   4.200
 7407TIP3    H122143   5.814   3.136   4.250
 7407TIP3    H222144   5.887   3.257   4.196
 7408TIP3   OH222145   6.061   3.314   4.205
 7408TIP3    H122146   6.096   3.223   4.193
 7408TIP3    H222147   6.106   3.338   4.288
 7409TIP3   OH222148   6.638   1.971   4.290
 7409TIP3    H122149   6.595   1.901   4.343
 7409TIP3    H222150   6.712   1.923   4.248
 7410TIP3   OH222151   7.162   1.848   4.196
 7410TIP3    H122152   7.199   1.902   4.122
 7410TIP3    H222153   7.067   1.870   4.190
 7411TIP3   OH222154   7.257   1.951   3.960
 7411TIP3    H122155   7.331   1.900   3.921
 7411TIP3    H222156   7.290   2.043   3.946
 7412TIP3   OH222157   5.888   1.680   4.308
 7412TIP3    H122158   5.795   1.647   4.310
 7412TIP3    H222159   5.936   1.594   4.304
 7413TIP3   OH222160   5.674   1.549   3.955
 7413TIP3    H122161   5.705   1.606   3.883
 7413TIP3    H222162   5.647   1.614   4.022
 7414TIP3   OH222163   6.331   1.712   4.189
 7414TIP3    H122164   6.388   1.761   4.129
 7414TIP3    H222165   6.354   1.751   4.275
 7415TIP3   OH222166   6.877   1.859   4.173
 7415TIP3    H122167   6.877   1.822   4.084
 7415TIP3    H222168   6.864   1.778   4.228
 7416TIP3   OH222169   6.908   1.781   3.734
 7416TIP3    H122170   6.821   1.824   3.747
 7416TIP3    H222171   6.893   1.696   3.781
 7417TIP3   OH222172   5.387   3.121   3.740
 7417TIP3    H122173   5.304   3.089   3.700
 7417TIP3    H222174   5.380   3.216   3.718
 7418TIP3   OH222175   5.791   1.708   3.720
 7418TIP3    H122176   5.839   1.646   3.662
 7418TIP3    H222177   5.864   1.762   3.755
 7419TIP3   OH222178   6.304   1.884   3.818
 7419TIP3    H122179   6.364   1.837   3.878
 7419TIP3    H222180   6.326   1.976   3.843
 7420TIP3   OH222181   6.163   3.310   3.317
 7420TIP3    H122182   6.252   3.331   3.282
 7420TIP3    H222183   6.141   3.234   3.258
 7421TIP3   OH222184   6.884   3.428   3.410
 7421TIP3    H122185   6.875   3.330   3.400
 7421TIP3    H222186   6.837   3.459   3.330
 7422TIP3   OH222187   6.090   1.962   5.202
 7422TIP3    H122188   6.059   1.886   5.254
 7422TIP3    H222189   6.186   1.959   5.224
 7423TIP3   OH222190   6.341   1.944   5.301
 7423TIP3    H122191   6.432   1.928   5.270
 7423TIP3    H222192   6.340   1.899   5.387
 7424TIP3   OH222193   5.466   3.142   3.375
 7424TIP3    H122194   5.471   3.178   3.465
 7424TIP3    H222195   5.556   3.103   3.362
 7425TIP3   OH222196   7.170   2.018   5.106
 7425TIP3    H122197   7.189   1.987   5.197
 7425TIP3    H222198   7.259   2.014   5.065
 7426TIP3   OH222199   7.107   3.571   4.601
 7426TIP3    H122200   7.032   3.539   4.547
 7426TIP3    H222201   7.088   3.667   4.600
 7427TIP3   OH222202   8.374   2.950   3.372
 7427TIP3    H122203   8.347   3.036   3.335
 7427TIP3    H222204   8.308   2.892   3.332
 7428TIP3   OH222205   8.371   2.950   3.738
 7428TIP3    H122206   8.379   2.911   3.828
 7428TIP3    H222207   8.348   2.872   3.685
 7429TIP3   OH222208   7.674   2.839   4.110
 7429TIP3    H122209   7.705   2.771   4.173
 7429TIP3    H222210   7.752   2.896   4.105
 7430TIP3   OH222211   8.632   3.238   3.441
 7430TIP3    H122212   8.575   3.185   3.498
 7430TIP3    H222213   8.639   3.322   3.490
 7431TIP3   OH222214   7.645   3.246   3.832
 7431TIP3    H122215   7.636   3.148   3.837
 7431TIP3    H222216   7.742   3.255   3.834
 7432TIP3   OH222217   7.352   2.451   3.620
 7432TIP3    H122218   7.306   2.535   3.637
 7432TIP3    H222219   7.279   2.398   3.582
 7433TIP3   OH222220   7.410   2.738   3.790
 7433TIP3    H122221   7.459   2.661   3.828
 7433TIP3    H222222   7.472   2.771   3.724
 7434TIP3   OH222223   8.261   3.716   3.450
 7434TIP3    H122224   8.307   3.645   3.399
 7434TIP3    H222225   8.253   3.675   3.537
 7435TIP3   OH222226   8.171   3.170   3.792
 7435TIP3    H122227   8.208   3.093   3.746
 7435TIP3    H222228   8.255   3.213   3.818
 7436TIP3   OH222229   7.918   2.330   3.794
 7436TIP3    H122230   7.903   2.403   3.730
 7436TIP3    H222231   7.871   2.257   3.747
 7437TIP3   OH222232   7.556   2.533   3.897
 7437TIP3    H122233   7.639   2.514   3.946
 7437TIP3    H222234   7.571   2.477   3.818
 7438TIP3   OH222235   7.996   2.731   3.690
 7438TIP3    H122236   8.089   2.708   3.710
 7438TIP3    H222237   7.961   2.645   3.659
 7439TIP3   OH222238   7.917   2.315   4.226
 7439TIP3    H122239   7.857   2.353   4.159
 7439TIP3    H222240   7.866   2.333   4.308
 7440TIP3   OH222241   8.272   3.168   3.230
 7440TIP3    H122242   8.219   3.139   3.155
 7440TIP3    H222243   8.225   3.250   3.255
 7441TIP3   OH222244   8.027   3.088   4.023
 7441TIP3    H122245   7.964   3.153   4.061
 7441TIP3    H222246   8.068   3.140   3.951
 7442TIP3   OH222247   7.788   2.430   4.011
 7442TIP3    H122248   7.852   2.501   4.034
 7442TIP3    H222249   7.837   2.389   3.936
 7443TIP3   OH222250   7.853   3.281   4.118
 7443TIP3    H122251   7.830   3.369   4.082
 7443TIP3    H222252   7.774   3.266   4.174
 7444TIP3   OH222253   7.249   2.973   3.354
 7444TIP3    H122254   7.207   3.003   3.272
 7444TIP3    H222255   7.281   3.057   3.393
 7445TIP3   OH222256   8.665   3.486   3.579
 7445TIP3    H122257   8.579   3.483   3.627
 7445TIP3    H222258   8.662   3.577   3.544
 7446TIP3   OH222259   8.256   2.057   3.931
 7446TIP3    H122260   8.285   1.969   3.964
 7446TIP3    H222261   8.177   2.075   3.987
 7447TIP3   OH222262   8.386   3.549   3.276
 7447TIP3    H122263   8.435   3.464   3.262
 7447TIP3    H222264   8.446   3.608   3.226
 7448TIP3   OH222265   8.532   3.337   3.204
 7448TIP3    H122266   8.505   3.272   3.137
 7448TIP3    H222267   8.557   3.281   3.279
 7449TIP3   OH222268   8.203   2.801   3.201
 7449TIP3    H122269   8.123   2.851   3.175
 7449TIP3    H222270   8.251   2.794   3.117
 7450TIP3   OH222271   8.163   2.575   2.915
 7450TIP3    H122272   8.240   2.626   2.947
 7450TIP3    H222273   8.200   2.485   2.913
 7451TIP3   OH222274   7.786   2.876   3.583
 7451TIP3    H122275   7.745   2.818   3.516
 7451TIP3    H222276   7.863   2.822   3.613
 7452TIP3   OH222277   7.918   3.291   3.730
 7452TIP3    H122278   7.894   3.244   3.649
 7452TIP3    H222279   8.006   3.253   3.750
 7453TIP3   OH222280   7.922   2.846   3.938
 7453TIP3    H122281   7.956   2.823   3.849
 7453TIP3    H222282   7.966   2.932   3.957
 7454TIP3   OH222283   8.436   3.482   3.717
 7454TIP3    H122284   8.425   3.565   3.767
 7454TIP3    H222285   8.424   3.413   3.785
 7455TIP3   OH222286   8.059   3.406   4.260
 7455TIP3    H122287   7.998   3.467   4.307
 7455TIP3    H222288   7.995   3.351   4.211
 7456TIP3   OH222289   8.391   2.728   3.008
 7456TIP3    H122290   8.469   2.760   3.055
 7456TIP3    H222291   8.408   2.772   2.923
 7457TIP3   OH222292   7.814   2.960   4.363
 7457TIP3    H122293   7.818   3.047   4.407
 7457TIP3    H222294   7.719   2.940   4.373
 7458TIP3   OH222295   8.139   3.415   3.266
 7458TIP3    H122296   8.212   3.474   3.289
 7458TIP3    H222297   8.073   3.475   3.229
 7459TIP3   OH222298   7.854   3.573   4.350
 7459TIP3    H122299   7.819   3.572   4.259
 7459TIP3    H222300   7.775   3.549   4.403
 7460TIP3   OH222301   7.653   2.718   3.386
 7460TIP3    H122302   7.585   2.762   3.331
 7460TIP3    H222303   7.611   2.633   3.403
 7461TIP3   OH222304   7.433   3.102   4.295
 7461TIP3    H122305   7.366   3.082   4.227
 7461TIP3    H222306   7.469   3.014   4.318
 7462TIP3   OH222307   7.286   3.302   3.931
 7462TIP3    H122308   7.383   3.301   3.925
 7462TIP3    H222309   7.272   3.376   3.991
 7463TIP3   OH222310   8.256   3.534   4.116
 7463TIP3    H122311   8.257   3.625   4.152
 7463TIP3    H222312   8.185   3.494   4.171
 7464TIP3   OH222313   8.018   3.663   3.069
 7464TIP3    H122314   7.970   3.643   2.987
 7464TIP3    H222315   7.984   3.751   3.093
 7465TIP3   OH222316   7.456   3.513   3.456
 7465TIP3    H122317   7.506   3.502   3.540
 7465TIP3    H222318   7.394   3.438   3.465
 7466TIP3   OH222319   8.209   3.593   2.721
 7466TIP3    H122320   8.248   3.511   2.684
 7466TIP3    H222321   8.245   3.591   2.812
 7467TIP3   OH222322   8.269   3.606   2.989
 7467TIP3    H122323   8.178   3.619   3.025
 7467TIP3    H222324   8.314   3.568   3.065
 7468TIP3   OH222325   7.638   3.284   4.284
 7468TIP3    H122326   7.686   3.268   4.368
 7468TIP3    H222327   7.563   3.221   4.292
 7469TIP3   OH222328   8.028   2.109   4.074
 7469TIP3    H122329   7.939   2.080   4.045
 7469TIP3    H222330   8.005   2.192   4.119
 7470TIP3   OH222331   8.553   2.188   4.331
 7470TIP3    H122332   8.577   2.194   4.425
 7470TIP3    H222333   8.456   2.179   4.338
 7471TIP3   OH222334   8.142   2.178   3.021
 7471TIP3    H122335   8.157   2.174   3.116
 7471TIP3    H222336   8.128   2.083   3.001
 7472TIP3   OH222337   7.969   2.624   4.087
 7472TIP3    H122338   7.918   2.647   4.168
 7472TIP3    H222339   7.954   2.705   4.033
 7473TIP3   OH222340   7.852   2.510   3.601
 7473TIP3    H122341   7.760   2.483   3.619
 7473TIP3    H222342   7.866   2.468   3.513
 7474TIP3   OH222343   8.352   2.593   3.300
 7474TIP3    H122344   8.286   2.665   3.285
 7474TIP3    H222345   8.386   2.584   3.210
 7475TIP3   OH222346   8.502   2.879   4.413
 7475TIP3    H122347   8.484   2.808   4.479
 7475TIP3    H222348   8.599   2.881   4.413
 7476TIP3   OH222349   8.428   2.670   3.571
 7476TIP3    H122350   8.410   2.649   3.477
 7476TIP3    H222351   8.506   2.613   3.591
 7477TIP3   OH222352   7.788   2.653   4.296
 7477TIP3    H122353   7.814   2.718   4.363
 7477TIP3    H222354   7.778   2.571   4.348
 7478TIP3   OH222355   7.826   2.118   3.006
 7478TIP3    H122356   7.827   2.125   3.104
 7478TIP3    H222357   7.754   2.180   2.984
 7479TIP3   OH222358   7.381   2.174   3.876
 7479TIP3    H122359   7.455   2.208   3.930
 7479TIP3    H222360   7.425   2.144   3.795
 7480TIP3   OH222361   7.354   2.156   3.395
 7480TIP3    H122362   7.400   2.194   3.318
 7480TIP3    H222363   7.293   2.230   3.416
 7481TIP3   OH222364   8.471   2.857   3.988
 7481TIP3    H122365   8.506   2.778   3.945
 7481TIP3    H222366   8.458   2.821   4.079
 7482TIP3   OH222367   8.168   2.347   3.658
 7482TIP3    H122368   8.095   2.336   3.721
 7482TIP3    H222369   8.245   2.317   3.709
 7483TIP3   OH222370   7.614   2.388   3.670
 7483TIP3    H122371   7.519   2.395   3.643
 7483TIP3    H222372   7.637   2.296   3.647
 7484TIP3   OH222373   7.884   2.382   3.359
 7484TIP3    H122374   7.978   2.400   3.340
 7484TIP3    H222375   7.839   2.406   3.275
 7485TIP3   OH222376   7.725   2.417   3.137
 7485TIP3    H122377   7.652   2.375   3.089
 7485TIP3    H222378   7.777   2.454   3.062
 7486TIP3   OH222379   8.818   4.153   4.096
 7486TIP3    H122380   8.799   4.154   4.000
 7486TIP3    H222381   8.900   4.100   4.096
 7487TIP3   OH222382   7.800   3.206   4.506
 7487TIP3    H122383   7.879   3.237   4.554
 7487TIP3    H222384   7.734   3.207   4.578
 7488TIP3   OH222385   8.251   2.669   3.776
 7488TIP3    H122386   8.318   2.655   3.704
 7488TIP3    H222387   8.275   2.601   3.841
 7489TIP3   OH222388   7.784   2.150   3.637
 7489TIP3    H122389   7.752   2.070   3.685
 7489TIP3    H222390   7.843   2.111   3.571
 7490TIP3   OH222391   8.242   2.554   4.058
 7490TIP3    H122392   8.153   2.593   4.060
 7490TIP3    H222393   8.296   2.619   4.106
 7491TIP3   OH222394   7.974   2.952   3.142
 7491TIP3    H122395   7.903   2.884   3.132
 7491TIP3    H222396   7.956   2.983   3.235
 7492TIP3   OH222397   8.358   3.268   4.139
 7492TIP3    H122398   8.402   3.244   4.222
 7492TIP3    H222399   8.327   3.359   4.156
 7493TIP3   OH222400   7.668   2.967   3.820
 7493TIP3    H122401   7.707   2.939   3.735
 7493TIP3    H222402   7.711   2.907   3.883
 7494TIP3   OH222403   8.123   3.098   2.963
 7494TIP3    H122404   8.074   3.184   2.970
 7494TIP3    H222405   8.068   3.042   3.023
 7495TIP3   OH222406   7.550   2.889   4.433
 7495TIP3    H122407   7.569   2.877   4.528
 7495TIP3    H222408   7.480   2.824   4.418
 7496TIP3   OH222409   8.267   3.007   4.455
 7496TIP3    H122410   8.210   2.946   4.406
 7496TIP3    H222411   8.356   2.974   4.428
 7497TIP3   OH222412   8.543   3.522   4.031
 7497TIP3    H122413   8.446   3.517   4.034
 7497TIP3    H222414   8.558   3.575   4.113
 7498TIP3   OH222415   8.634   3.007   3.697
 7498TIP3    H122416   8.538   3.007   3.717
 7498TIP3    H222417   8.632   2.956   3.615
 7499TIP3   OH222418   7.769   3.273   3.441
 7499TIP3    H122419   7.766   3.355   3.389
 7499TIP3    H222420   7.676   3.259   3.462
 7500TIP3   OH222421   7.332   2.578   3.146
 7500TIP3    H122422   7.378   2.662   3.168
 7500TIP3    H222423   7.256   2.582   3.209
 7501TIP3   OH222424   7.909   3.040   3.388
 7501TIP3    H122425   7.871   3.128   3.407
 7501TIP3    H222426   7.874   2.988   3.463
 7502TIP3   OH222427   8.039   3.619   3.914
 7502TIP3    H122428   8.082   3.691   3.864
 7502TIP3    H222429   8.113   3.583   3.964
 7503TIP3   OH222430   7.688   3.513   3.296
 7503TIP3    H122431   7.603   3.520   3.344
 7503TIP3    H222432   7.718   3.607   3.299
 7504TIP3   OH222433   8.427   3.248   3.876
 7504TIP3    H122434   8.409   3.254   3.973
 7504TIP3    H222435   8.497   3.182   3.877
 7505TIP3   OH222436   8.329   3.165   2.770
 7505TIP3    H122437   8.410   3.161   2.824
 7505TIP3    H222438   8.262   3.132   2.833
 7506TIP3   OH222439   8.648   3.801   3.938
 7506TIP3    H122440   8.588   3.729   3.912
 7506TIP3    H222441   8.648   3.855   3.857
 7507TIP3   OH222442   7.761   2.396   4.443
 7507TIP3    H122443   7.664   2.399   4.456
 7507TIP3    H222444   7.789   2.336   4.514
 7508TIP3   OH222445   7.491   3.474   4.066
 7508TIP3    H122446   7.542   3.405   4.111
 7508TIP3    H222447   7.473   3.536   4.137
 7509TIP3   OH222448   7.765   3.127   2.755
 7509TIP3    H122449   7.784   3.035   2.727
 7509TIP3    H222450   7.747   3.114   2.850
 7510TIP3   OH222451   7.713   3.130   3.028
 7510TIP3    H122452   7.784   3.102   3.087
 7510TIP3    H222453   7.717   3.228   3.035
 7511TIP3   OH222454   7.448   2.823   3.231
 7511TIP3    H122455   7.382   2.868   3.288
 7511TIP3    H222456   7.462   2.893   3.164
 7512TIP3   OH222457   7.979   3.326   2.976
 7512TIP3    H122458   7.893   3.353   3.012
 7512TIP3    H222459   7.993   3.397   2.912
 7513TIP3   OH222460   8.166   2.392   3.384
 7513TIP3    H122461   8.234   2.460   3.368
 7513TIP3    H222462   8.169   2.383   3.482
 7514TIP3   OH222463   8.448   2.702   4.209
 7514TIP3    H122464   8.449   2.766   4.283
 7514TIP3    H222465   8.513   2.637   4.240
 7515TIP3   OH222466   8.312   2.122   3.490
 7515TIP3    H122467   8.331   2.157   3.580
 7515TIP3    H222468   8.372   2.178   3.439
 7516TIP3   OH222469   7.723   3.403   3.043
 7516TIP3    H122470   7.691   3.473   2.981
 7516TIP3    H222471   7.706   3.445   3.130
 7517TIP3   OH222472   7.825   2.116   3.282
 7517TIP3    H122473   7.820   2.206   3.320
 7517TIP3    H222474   7.922   2.101   3.292
 7518TIP3   OH222475   7.439   3.034   3.036
 7518TIP3    H122476   7.505   3.105   3.047
 7518TIP3    H222477   7.486   2.979   2.969
 7519TIP3   OH222478   7.384   2.309   3.170
 7519TIP3    H122479   7.385   2.407   3.165
 7519TIP3    H222480   7.300   2.288   3.129
 7520TIP3   OH222481   8.708   3.763   3.506
 7520TIP3    H122482   8.660   3.802   3.429
 7520TIP3    H222483   8.793   3.743   3.464
 7521TIP3   OH222484   7.767   2.029   4.044
 7521TIP3    H122485   7.740   1.994   3.957
 7521TIP3    H222486   7.760   1.950   4.102
 7522TIP3   OH222487   7.309   3.241   3.423
 7522TIP3    H122488   7.243   3.276   3.484
 7522TIP3    H222489   7.283   3.284   3.339
 7523TIP3   OH222490   7.464   3.789   4.496
 7523TIP3    H122491   7.551   3.779   4.540
 7523TIP3    H222492   7.436   3.696   4.488
 7524TIP3   OH222493   7.952   3.754   4.539
 7524TIP3    H122494   8.045   3.730   4.544
 7524TIP3    H222495   7.922   3.695   4.467
 7525TIP3   OH222496   7.931   3.329   2.669
 7525TIP3    H122497   7.873   3.258   2.705
 7525TIP3    H222498   8.006   3.276   2.638
 7526TIP3   OH222499   8.569   3.645   4.267
 7526TIP3    H122500   8.560   3.581   4.341
 7526TIP3    H222501   8.634   3.709   4.301
 7527TIP3   OH222502   8.300   3.373   2.605
 7527TIP3    H122503   8.324   3.297   2.663
 7527TIP3    H222504   8.376   3.376   2.543
 7528TIP3   OH222505   7.598   3.195   4.697
 7528TIP3    H122506   7.614   3.099   4.700
 7528TIP3    H222507   7.512   3.199   4.651
 7529TIP3   OH222508   7.574   2.846   2.889
 7529TIP3    H122509   7.630   2.813   2.962
 7529TIP3    H222510   7.641   2.851   2.817
 7530TIP3   OH222511   8.203   3.281   4.470
 7530TIP3    H122512   8.165   3.298   4.382
 7530TIP3    H222513   8.235   3.189   4.462
 7531TIP3   OH222514   8.065   3.039   2.696
 7531TIP3    H122515   8.079   3.053   2.791
 7531TIP3    H222516   8.076   2.942   2.690
 7532TIP3   OH222517   8.649   3.243   4.081
 7532TIP3    H122518   8.724   3.258   4.022
 7532TIP3    H222519   8.609   3.331   4.087
 7533TIP3   OH222520   7.717   2.928   4.678
 7533TIP3    H122521   7.793   2.873   4.656
 7533TIP3    H222522   7.743   2.963   4.766
 7534TIP3   OH222523   7.784   2.750   3.112
 7534TIP3    H122524   7.756   2.709   3.196
 7534TIP3    H222525   7.819   2.673   3.062
 7535TIP3   OH222526   8.053   2.815   4.339
 7535TIP3    H122527   7.974   2.874   4.340
 7535TIP3    H222528   8.102   2.848   4.260
 7536TIP3   OH222529   7.882   2.544   2.951
 7536TIP3    H122530   7.854   2.547   2.857
 7536TIP3    H222531   7.979   2.551   2.942
 7537TIP3   OH222532   8.564   3.215   4.476
 7537TIP3    H122533   8.644   3.181   4.432
 7537TIP3    H222534   8.555   3.150   4.547
 7538TIP3   OH222535   8.164   2.598   4.467
 7538TIP3    H122536   8.171   2.521   4.408
 7538TIP3    H222537   8.126   2.666   4.407
 7539TIP3   OH222538   8.175   2.389   4.274
 7539TIP3    H122539   8.205   2.431   4.191
 7539TIP3    H222540   8.081   2.369   4.252
 7540TIP3   OH222541   8.210   2.921   4.143
 7540TIP3    H122542   8.289   2.933   4.090
 7540TIP3    H222543   8.150   2.989   4.104
 7541TIP3   OH222544   8.052   2.715   4.697
 7541TIP3    H122545   7.984   2.646   4.712
 7541TIP3    H222546   8.086   2.689   4.609
 7542TIP3   OH222547   8.287   2.148   4.354
 7542TIP3    H122548   8.239   2.229   4.327
 7542TIP3    H222549   8.219   2.078   4.337
 7543TIP3   OH222550   8.418   2.665   4.561
 7543TIP3    H122551   8.422   2.646   4.657
 7543TIP3    H222552   8.328   2.634   4.540
 7544TIP3   OH222553   8.669   2.647   4.459
 7544TIP3    H122554   8.582   2.646   4.503
 7544TIP3    H222555   8.705   2.563   4.488
 7545TIP3   OH222556   7.892   2.495   4.749
 7545TIP3    H122557   7.899   2.404   4.714
 7545TIP3    H222558   7.929   2.482   4.839
 7546TIP3   OH222559   8.424   2.162   4.592
 7546TIP3    H122560   8.466   2.076   4.607
 7546TIP3    H222561   8.365   2.145   4.516
 7547TIP3   OH222562   8.475   2.378   4.753
 7547TIP3    H122563   8.454   2.307   4.688
 7547TIP3    H222564   8.394   2.433   4.751
 7548TIP3   OH222565   7.689   3.607   2.857
 7548TIP3    H122566   7.785   3.599   2.838
 7548TIP3    H222567   7.662   3.656   2.776
 7549TIP3   OH222568   7.170   2.989   3.071
 7549TIP3    H122569   7.266   3.010   3.058
 7549TIP3    H222570   7.166   2.899   3.032
 7550TIP3   OH222571   7.088   3.601   3.484
 7550TIP3    H122572   7.020   3.539   3.450
 7550TIP3    H222573   7.131   3.545   3.553
 7551TIP3   OH222574   7.221   3.455   3.674
 7551TIP3    H122575   7.213   3.385   3.740
 7551TIP3    H222576   7.271   3.522   3.726
 7552TIP3   OH222577   7.409   2.855   4.045
 7552TIP3    H122578   7.408   2.827   3.951
 7552TIP3    H222579   7.506   2.858   4.062
 7553TIP3   OH222580   7.626   2.545   4.719
 7553TIP3    H122581   7.724   2.539   4.720
 7553TIP3    H222582   7.602   2.459   4.760
 7554TIP3   OH222583   7.586   2.238   4.051
 7554TIP3    H122584   7.647   2.163   4.060
 7554TIP3    H222585   7.649   2.312   4.044
 7555TIP3   OH222586   7.390   2.511   4.123
 7555TIP3    H122587   7.440   2.506   4.039
 7555TIP3    H222588   7.416   2.597   4.156
 7556TIP3   OH222589   7.373   2.012   3.622
 7556TIP3    H122590   7.280   2.011   3.650
 7556TIP3    H222591   7.371   2.073   3.545
 7557TIP3   OH222592   8.535   3.707   3.116
 7557TIP3    H122593   8.611   3.687   3.061
 7557TIP3    H222594   8.568   3.779   3.174
 7558TIP3   OH222595   7.594   2.096   4.439
 7558TIP3    H122596   7.542   2.090   4.521
 7558TIP3    H222597   7.527   2.133   4.378
 7559TIP3   OH222598   7.638   3.522   4.518
 7559TIP3    H122599   7.544   3.500   4.500
 7559TIP3    H222600   7.644   3.502   4.612
 7560TIP3   OH222601   7.816   3.551   4.066
 7560TIP3    H122602   7.758   3.619   4.027
 7560TIP3    H222603   7.899   3.574   4.018
 7561TIP3   OH222604   8.258   3.799   4.202
 7561TIP3    H122605   8.301   3.800   4.290
 7561TIP3    H222606   8.323   3.850   4.149
 7562TIP3   OH222607   8.433   3.950   4.056
 7562TIP3    H122608   8.507   3.898   4.019
 7562TIP3    H222609   8.482   4.006   4.120
 7563TIP3   OH222610   7.481   3.817   4.074
 7563TIP3    H122611   7.391   3.790   4.048
 7563TIP3    H222612   7.470   3.822   4.170
 7564TIP3   OH222613   7.726   3.794   3.945
 7564TIP3    H122614   7.640   3.808   3.991
 7564TIP3    H222615   7.704   3.820   3.854
 7565TIP3   OH222616   8.150   3.821   3.741
 7565TIP3    H122617   8.078   3.839   3.677
 7565TIP3    H222618   8.160   3.908   3.785
 7566TIP3   OH222619   8.414   3.753   3.784
 7566TIP3    H122620   8.320   3.775   3.768
 7566TIP3    H222621   8.458   3.836   3.757
 7567TIP3   OH222622   8.614   3.943   3.696
 7567TIP3    H122623   8.608   4.031   3.653
 7567TIP3    H222624   8.634   3.886   3.619
 7568TIP3   OH222625   7.406   3.609   3.817
 7568TIP3    H122626   7.408   3.589   3.913
 7568TIP3    H222627   7.480   3.554   3.786
 7569TIP3   OH222628   7.601   3.468   3.681
 7569TIP3    H122629   7.614   3.386   3.734
 7569TIP3    H222630   7.691   3.506   3.681
 7570TIP3   OH222631   7.864   3.572   3.690
 7570TIP3    H122632   7.893   3.480   3.680
 7570TIP3    H222633   7.905   3.593   3.776
 7571TIP3   OH222634   8.397   2.193   3.736
 7571TIP3    H122635   8.360   2.151   3.817
 7571TIP3    H222636   8.492   2.177   3.751
 7572TIP3   OH222637   7.685   1.936   3.794
 7572TIP3    H122638   7.593   1.903   3.797
 7572TIP3    H222639   7.734   1.851   3.790
 7573TIP3   OH222640   7.468   1.806   3.441
 7573TIP3    H122641   7.499   1.865   3.370
 7573TIP3    H222642   7.441   1.871   3.509
 7574TIP3   OH222643   8.123   1.973   3.680
 7574TIP3    H122644   8.186   2.019   3.623
 7574TIP3    H222645   8.152   2.003   3.768
 7575TIP3   OH222646   7.190   3.375   3.222
 7575TIP3    H122647   7.104   3.343   3.188
 7575TIP3    H222648   7.177   3.471   3.210
 7576TIP3   OH222649   7.587   1.965   3.207
 7576TIP3    H122650   7.636   1.905   3.148
 7576TIP3    H222651   7.660   2.021   3.242
 7577TIP3   OH222652   8.103   2.135   3.310
 7577TIP3    H122653   8.165   2.103   3.379
 7577TIP3    H222654   8.116   2.231   3.325
 7578TIP3   OH222655   7.954   3.566   2.806
 7578TIP3    H122656   8.041   3.595   2.771
 7578TIP3    H222657   7.936   3.492   2.744
 7579TIP3   OH222658   7.892   2.218   4.687
 7579TIP3    H122659   7.857   2.147   4.743
 7579TIP3    H222660   7.986   2.217   4.714
 7580TIP3   OH222661   8.141   2.213   4.808
 7580TIP3    H122662   8.224   2.182   4.769
 7580TIP3    H222663   8.125   2.144   4.875
 7581TIP3   OH222664   7.264   3.404   2.861
 7581TIP3    H122665   7.262   3.425   2.955
 7581TIP3    H222666   7.352   3.362   2.850
 7582TIP3   OH222667   8.849   3.785   4.128
 7582TIP3    H122668   8.774   3.768   4.068
 7582TIP3    H222669   8.879   3.871   4.095
 7583TIP3   OH222670   0.822   3.725   5.060
 7583TIP3    H122671   0.803   3.820   5.046
 7583TIP3    H222672   0.744   3.684   5.020
 7584TIP3   OH222673   0.803   3.736   5.443
 7584TIP3    H122674   0.855   3.707   5.519
 7584TIP3    H222675   0.786   3.653   5.396
 7585TIP3   OH222676   0.140   3.586   5.791
 7585TIP3    H122677   0.182   3.531   5.860
 7585TIP3    H222678   0.196   3.664   5.788
 7586TIP3   OH222679   1.050   4.039   5.120
 7586TIP3    H122680   1.107   3.960   5.125
 7586TIP3    H222681   1.100   4.101   5.175
 7587TIP3   OH222682   0.123   4.031   5.543
 7587TIP3    H122683   0.112   3.936   5.562
 7587TIP3    H222684   0.219   4.037   5.528
 7588TIP3   OH222685   8.363   1.533   3.590
 7588TIP3    H122686   8.345   1.626   3.611
 7588TIP3    H222687   8.286   1.489   3.629
 7589TIP3   OH222688  -0.128   3.514   5.455
 7589TIP3    H122689  -0.072   3.438   5.481
 7589TIP3    H222690  -0.095   3.536   5.367
 7590TIP3   OH222691   0.720   4.495   5.138
 7590TIP3    H122692   0.761   4.427   5.080
 7590TIP3    H222693   0.722   4.450   5.223
 7591TIP3   OH222694   0.627   3.959   5.483
 7591TIP3    H122695   0.667   3.878   5.446
 7591TIP3    H222696   0.710   4.006   5.504
 7592TIP3   OH222697   1.639   3.275   5.482
 7592TIP3    H122698   1.666   3.359   5.524
 7592TIP3    H222699   1.660   3.294   5.388
 7593TIP3   OH222700   1.025   3.453   5.524
 7593TIP3    H122701   1.078   3.373   5.538
 7593TIP3    H222702   1.009   3.449   5.428
 7594TIP3   OH222703   0.374   3.119   5.482
 7594TIP3    H122704   0.356   3.192   5.419
 7594TIP3    H222705   0.326   3.046   5.436
 7595TIP3   OH222706   1.070   3.208   5.103
 7595TIP3    H122707   1.142   3.195   5.169
 7595TIP3    H222708   1.121   3.245   5.029
 7596TIP3   OH222709   0.015   3.316   5.574
 7596TIP3    H122710   0.099   3.305   5.622
 7596TIP3    H222711   0.030   3.255   5.498
 7597TIP3   OH222712   0.453   3.518   5.372
 7597TIP3    H122713   0.547   3.492   5.387
 7597TIP3    H222714   0.414   3.433   5.343
 7598TIP3   OH222715   1.709   3.480   5.658
 7598TIP3    H122716   1.631   3.532   5.630
 7598TIP3    H222717   1.733   3.525   5.741
 7599TIP3   OH222718   0.370   3.101   5.915
 7599TIP3    H122719   0.314   3.143   5.848
 7599TIP3    H222720   0.317   3.116   5.995
 7600TIP3   OH222721   0.714   3.948   4.924
 7600TIP3    H122722   0.677   3.934   4.837
 7600TIP3    H222723   0.673   4.033   4.950
 7601TIP3   OH222724   0.486   3.875   5.708
 7601TIP3    H122725   0.423   3.942   5.743
 7601TIP3    H222726   0.530   3.925   5.635
 7602TIP3   OH222727   1.280   3.211   5.276
 7602TIP3    H122728   1.271   3.169   5.363
 7602TIP3    H222729   1.332   3.291   5.298
 7603TIP3   OH222730   0.243   3.219   5.700
 7603TIP3    H122731   0.304   3.293   5.722
 7603TIP3    H222732   0.293   3.179   5.625
 7604TIP3   OH222733   0.317   4.072   5.795
 7604TIP3    H122734   0.287   4.150   5.744
 7604TIP3    H222735   0.245   4.071   5.861
 7605TIP3   OH222736   1.141   4.282   5.293
 7605TIP3    H122737   1.049   4.265   5.323
 7605TIP3    H222738   1.129   4.365   5.243
 7606TIP3   OH222739   1.432   3.173   5.646
 7606TIP3    H122740   1.345   3.206   5.615
 7606TIP3    H222741   1.493   3.209   5.578
 7607TIP3   OH222742   0.730   2.821   5.630
 7607TIP3    H122743   0.713   2.726   5.646
 7607TIP3    H222744   0.653   2.861   5.676
 7608TIP3   OH222745   0.836   4.325   4.954
 7608TIP3    H122746   0.885   4.241   4.941
 7608TIP3    H222747   0.901   4.388   4.915
 7609TIP3   OH222748   0.979   4.110   4.866
 7609TIP3    H122749   0.957   4.026   4.823
 7609TIP3    H222750   1.011   4.078   4.954
 7610TIP3   OH222751   1.365   4.189   5.625
 7610TIP3    H122752   1.357   4.111   5.565
 7610TIP3    H222753   1.354   4.263   5.562
 7611TIP3   OH222754   0.655   3.582   4.883
 7611TIP3    H122755   0.578   3.637   4.859
 7611TIP3    H222756   0.707   3.582   4.801
 7612TIP3   OH222757   0.616   3.368   4.600
 7612TIP3    H122758   0.681   3.419   4.651
 7612TIP3    H222759   0.676   3.306   4.554
 7613TIP3   OH222760   1.559   3.824   5.475
 7613TIP3    H122761   1.475   3.876   5.473
 7613TIP3    H222762   1.593   3.846   5.385
 7614TIP3   OH222763   0.998   3.668   4.856
 7614TIP3    H122764   0.949   3.692   4.938
 7614TIP3    H222765   1.083   3.637   4.897
 7615TIP3   OH222766   1.239   3.704   5.769
 7615TIP3    H122767   1.237   3.790   5.815
 7615TIP3    H222768   1.157   3.710   5.717
 7616TIP3   OH222769   0.238   3.663   5.273
 7616TIP3    H122770   0.200   3.604   5.205
 7616TIP3    H222771   0.317   3.611   5.302
 7617TIP3   OH222772   0.377   4.076   5.421
 7617TIP3    H122773   0.356   4.031   5.338
 7617TIP3    H222774   0.466   4.040   5.440
 7618TIP3   OH222775   0.391   3.633   5.621
 7618TIP3    H122776   0.422   3.614   5.530
 7618TIP3    H222777   0.432   3.720   5.640
 7619TIP3   OH222778   0.889   4.276   5.402
 7619TIP3    H122779   0.890   4.350   5.465
 7619TIP3    H222780   0.883   4.197   5.460
 7620TIP3   OH222781   0.518   4.185   5.950
 7620TIP3    H122782   0.459   4.252   5.990
 7620TIP3    H222783   0.454   4.135   5.895
 7621TIP3   OH222784   0.844   3.526   4.683
 7621TIP3    H122785   0.903   3.584   4.736
 7621TIP3    H222786   0.872   3.549   4.591
 7622TIP3   OH222787   0.268   3.751   6.046
 7622TIP3    H122788   0.271   3.825   6.109
 7622TIP3    H222789   0.174   3.753   6.022
 7623TIP3   OH222790   0.583   4.208   4.961
 7623TIP3    H122791   0.670   4.252   4.972
 7623TIP3    H222792   0.531   4.276   4.917
 7624TIP3   OH222793   0.329   4.380   6.012
 7624TIP3    H122794   0.298   4.366   5.920
 7624TIP3    H222795   0.244   4.375   6.060
 7625TIP3   OH222796   1.361   2.765   4.730
 7625TIP3    H122797   1.281   2.788   4.781
 7625TIP3    H222798   1.377   2.849   4.682
 7626TIP3   OH222799   0.106   3.506   5.073
 7626TIP3    H122800   0.041   3.540   5.009
 7626TIP3    H222801   0.061   3.427   5.105
 7627TIP3   OH222802   1.161   4.131   4.278
 7627TIP3    H122803   1.171   4.228   4.265
 7627TIP3    H222804   1.254   4.101   4.266
 7628TIP3   OH222805   1.597   4.536   5.668
 7628TIP3    H122806   1.603   4.439   5.679
 7628TIP3    H222807   1.516   4.555   5.720
 7629TIP3   OH222808   0.708   4.323   5.806
 7629TIP3    H122809   0.707   4.414   5.842
 7629TIP3    H222810   0.640   4.279   5.863
 7630TIP3   OH222811   0.467   4.447   4.761
 7630TIP3    H122812   0.425   4.430   4.675
 7630TIP3    H222813   0.438   4.538   4.783
 7631TIP3   OH222814   0.670   4.350   4.401
 7631TIP3    H122815   0.730   4.281   4.364
 7631TIP3    H222816   0.706   4.359   4.492
 7632TIP3   OH222817   0.721   4.399   4.672
 7632TIP3    H122818   0.633   4.405   4.716
 7632TIP3    H222819   0.774   4.358   4.741
 7633TIP3   OH222820   1.490   3.662   5.951
 7633TIP3    H122821   1.414   3.677   5.893
 7633TIP3    H222822   1.506   3.566   5.938
 7634TIP3   OH222823   0.138   4.126   5.992
 7634TIP3    H122824   0.183   4.090   6.071
 7634TIP3    H222825   0.065   4.062   5.984
 7635TIP3   OH222826   0.493   2.896   5.758
 7635TIP3    H122827   0.404   2.864   5.733
 7635TIP3    H222828   0.467   2.980   5.802
 7636TIP3   OH222829   1.024   3.011   5.952
 7636TIP3    H122830   1.091   2.985   6.018
 7636TIP3    H222831   0.940   2.993   5.998
 7637TIP3   OH222832   1.260   3.439   5.868
 7637TIP3    H122833   1.211   3.439   5.953
 7637TIP3    H222834   1.240   3.527   5.832
 7638TIP3   OH222835   0.919   3.571   4.426
 7638TIP3    H122836   0.889   3.545   4.337
 7638TIP3    H222837   1.002   3.618   4.405
 7639TIP3   OH222838   0.632   2.948   4.729
 7639TIP3    H122839   0.601   2.944   4.822
 7639TIP3    H222840   0.596   2.863   4.696
 7640TIP3   OH222841   0.416   3.414   5.777
 7640TIP3    H122842   0.375   3.443   5.860
 7640TIP3    H222843   0.406   3.495   5.721
 7641TIP3   OH222844   0.304   3.297   5.290
 7641TIP3    H122845   0.211   3.270   5.306
 7641TIP3    H222846   0.319   3.257   5.202
 7642TIP3   OH222847   0.792   3.379   5.014
 7642TIP3    H122848   0.743   3.455   4.975
 7642TIP3    H222849   0.852   3.355   4.941
 7643TIP3   OH222850   0.970   3.664   6.107
 7643TIP3    H122851   0.949   3.590   6.168
 7643TIP3    H222852   1.064   3.676   6.125
 7644TIP3   OH222853   0.947   3.407   5.261
 7644TIP3    H122854   0.896   3.448   5.188
 7644TIP3    H222855   0.979   3.327   5.214
 7645TIP3   OH222856   0.243   3.437   6.003
 7645TIP3    H122857   0.280   3.493   6.072
 7645TIP3    H222858   0.236   3.351   6.048
 7646TIP3   OH222859   0.287   2.916   4.695
 7646TIP3    H122860   0.282   2.916   4.793
 7646TIP3    H222861   0.211   2.972   4.672
 7647TIP3   OH222862  -0.145   3.004   5.581
 7647TIP3    H122863  -0.076   3.015   5.650
 7647TIP3    H222864  -0.105   2.939   5.523
 7648TIP3   OH222865  -0.169   2.973   5.097
 7648TIP3    H122866  -0.131   2.998   5.011
 7648TIP3    H222867  -0.253   3.021   5.094
 7649TIP3   OH222868   0.955   3.659   5.681
 7649TIP3    H122869   0.990   3.588   5.622
 7649TIP3    H222870   0.930   3.605   5.758
 7650TIP3   OH222871   0.630   3.115   5.351
 7650TIP3    H122872   0.550   3.118   5.407
 7650TIP3    H222873   0.700   3.125   5.417
 7651TIP3   OH222874   0.065   3.172   5.349
 7651TIP3    H122875  -0.029   3.176   5.320
 7651TIP3    H222876   0.090   3.080   5.330
 7652TIP3   OH222877   0.336   3.171   5.049
 7652TIP3    H122878   0.430   3.187   5.030
 7652TIP3    H222879   0.291   3.195   4.965
 7653TIP3   OH222880   1.127   3.194   5.555
 7653TIP3    H122881   1.089   3.209   5.645
 7653TIP3    H222882   1.058   3.137   5.516
 7654TIP3   OH222883   0.176   3.206   4.826
 7654TIP3    H122884   0.104   3.163   4.776
 7654TIP3    H222885   0.229   3.244   4.752
 7655TIP3   OH222886   1.293   4.888   5.772
 7655TIP3    H122887   1.294   4.906   5.676
 7655TIP3    H222888   1.376   4.931   5.801
 7656TIP3   OH222889   0.235   3.996   6.217
 7656TIP3    H122890   0.322   4.024   6.254
 7656TIP3    H222891   0.197   3.952   6.294
 7657TIP3   OH222892   0.713   3.439   5.443
 7657TIP3    H122893   0.793   3.414   5.394
 7657TIP3    H222894   0.733   3.405   5.532
 7658TIP3   OH222895   0.239   2.937   5.328
 7658TIP3    H122896   0.205   2.857   5.372
 7658TIP3    H222897   0.290   2.900   5.255
 7659TIP3   OH222898   0.690   3.340   5.748
 7659TIP3    H122899   0.603   3.383   5.753
 7659TIP3    H222900   0.750   3.405   5.791
 7660TIP3   OH222901   0.426   3.738   4.830
 7660TIP3    H122902   0.355   3.671   4.822
 7660TIP3    H222903   0.411   3.769   4.923
 7661TIP3   OH222904   1.329   3.974   5.462
 7661TIP3    H122905   1.352   4.011   5.375
 7661TIP3    H222906   1.247   3.924   5.439
 7662TIP3   OH222907   0.887   3.049   4.692
 7662TIP3    H122908   0.790   3.035   4.703
 7662TIP3    H222909   0.900   3.142   4.720
 7663TIP3   OH222910   0.827   4.053   5.831
 7663TIP3    H122911   0.853   4.031   5.921
 7663TIP3    H222912   0.789   4.142   5.839
 7664TIP3   OH222913   0.956   3.294   4.796
 7664TIP3    H122914   1.052   3.299   4.818
 7664TIP3    H222915   0.942   3.378   4.748
 7665TIP3   OH222916   0.111   3.758   5.502
 7665TIP3    H122917   0.156   3.723   5.422
 7665TIP3    H222918   0.142   3.696   5.570
 7666TIP3   OH222919   0.572   3.885   4.651
 7666TIP3    H122920   0.525   3.971   4.658
 7666TIP3    H222921   0.520   3.830   4.713
 7667TIP3   OH222922   0.727   3.792   6.142
 7667TIP3    H122923   0.669   3.734   6.091
 7667TIP3    H222924   0.815   3.758   6.115
 7668TIP3   OH222925   0.987   4.321   5.724
 7668TIP3    H122926   0.891   4.313   5.738
 7668TIP3    H222927   1.014   4.369   5.805
 7669TIP3   OH222928   1.398   3.385   4.636
 7669TIP3    H122929   1.334   3.343   4.575
 7669TIP3    H222930   1.396   3.475   4.598
 7670TIP3   OH222931   1.617   4.244   5.715
 7670TIP3    H122932   1.520   4.237   5.703
 7670TIP3    H222933   1.647   4.215   5.626
 7671TIP3   OH222934   1.092   4.206   4.542
 7671TIP3    H122935   1.078   4.136   4.608
 7671TIP3    H222936   1.110   4.156   4.460
 7672TIP3   OH222937   1.096   3.832   5.407
 7672TIP3    H122938   1.004   3.811   5.389
 7672TIP3    H222939   1.140   3.770   5.345
 7673TIP3   OH222940   0.224   4.057   5.129
 7673TIP3    H122941   0.232   4.138   5.076
 7673TIP3    H222942   0.136   4.066   5.166
 7674TIP3   OH222943  -0.225   3.365   4.832
 7674TIP3    H122944  -0.172   3.445   4.852
 7674TIP3    H222945  -0.305   3.381   4.884
 7675TIP3   OH222946   0.360   3.823   5.076
 7675TIP3    H122947   0.324   3.912   5.094
 7675TIP3    H222948   0.329   3.773   5.153
 7676TIP3   OH222949   0.497   4.408   5.603
 7676TIP3    H122950   0.542   4.478   5.553
 7676TIP3    H222951   0.571   4.369   5.651
 7677TIP3   OH222952   0.135   4.306   4.984
 7677TIP3    H122953   0.062   4.321   5.044
 7677TIP3    H222954   0.178   4.394   4.985
 7678TIP3   OH222955   0.882   4.043   5.560
 7678TIP3    H122956   0.876   4.032   5.657
 7678TIP3    H222957   0.958   3.986   5.538
 7679TIP3   OH222958   0.854   3.932   4.447
 7679TIP3    H122959   0.910   3.907   4.525
 7679TIP3    H222960   0.767   3.905   4.481
 7680TIP3   OH222961   1.124   4.579   5.619
 7680TIP3    H122962   1.049   4.518   5.610
 7680TIP3    H222963   1.110   4.639   5.543
 7681TIP3   OH222964   1.194   4.408   4.265
 7681TIP3    H122965   1.235   4.482   4.218
 7681TIP3    H222966   1.112   4.453   4.297
 7682TIP3   OH222967   0.218   3.182   6.140
 7682TIP3    H122968   0.138   3.210   6.186
 7682TIP3    H222969   0.257   3.120   6.205
 7683TIP3   OH222970   1.015   3.867   4.663
 7683TIP3    H122971   1.003   3.802   4.735
 7683TIP3    H222972   1.113   3.863   4.653
 7684TIP3   OH222973   0.218   3.913   4.442
 7684TIP3    H122974   0.237   3.821   4.417
 7684TIP3    H222975   0.205   3.904   4.538
 7685TIP3   OH222976   0.177   3.919   4.714
 7685TIP3    H122977   0.247   3.890   4.773
 7685TIP3    H222978   0.180   4.017   4.724
 7686TIP3   OH222979  -0.104   3.606   4.899
 7686TIP3    H122980  -0.110   3.658   4.980
 7686TIP3    H222981  -0.098   3.678   4.832
 7687TIP3   OH222982   1.048   3.250   5.814
 7687TIP3    H122983   1.130   3.289   5.848
 7687TIP3    H222984   1.038   3.169   5.869
 7688TIP3   OH222985   0.931   3.000   4.977
 7688TIP3    H122986   0.919   3.025   4.884
 7688TIP3    H222987   0.971   3.082   5.015
 7689TIP3   OH222988   0.431   4.115   4.665
 7689TIP3    H122989   0.345   4.143   4.702
 7689TIP3    H222990   0.449   4.188   4.604
 7690TIP3   OH222991   0.616   3.178   5.079
 7690TIP3    H122992   0.681   3.250   5.060
 7690TIP3    H222993   0.625   3.171   5.177
 7691TIP3   OH222994   0.887   3.497   5.889
 7691TIP3    H122995   0.910   3.550   5.968
 7691TIP3    H222996   0.944   3.419   5.899
 7692TIP3   OH222997   0.764   2.905   5.181
 7692TIP3    H122998   0.758   2.980   5.243
 7692TIP3    H222999   0.824   2.943   5.113
 7693TIP3   OH223000   0.174   4.192   4.733
 7693TIP3    H123001   0.142   4.261   4.671
 7693TIP3    H223002   0.158   4.235   4.820
 7694TIP3   OH223003   0.276   2.905   4.972
 7694TIP3    H123004   0.273   2.996   5.008
 7694TIP3    H223005   0.372   2.887   4.981
 7695TIP3   OH223006   1.529   3.397   5.875
 7695TIP3    H123007   1.431   3.392   5.874
 7695TIP3    H223008   1.549   3.374   5.783
 7696TIP3   OH223009   1.166   3.590   5.283
 7696TIP3    H123010   1.106   3.516   5.266
 7696TIP3    H223011   1.250   3.548   5.308
 7697TIP3   OH223012  -0.092   3.822   4.736
 7697TIP3    H123013  -0.035   3.900   4.737
 7697TIP3    H223014  -0.052   3.772   4.663
 7698TIP3   OH223015  -0.165   3.097   4.850
 7698TIP3    H123016  -0.157   3.194   4.850
 7698TIP3    H223017  -0.259   3.088   4.829
 7699TIP3   OH223018   1.146   4.553   5.206
 7699TIP3    H123019   1.105   4.601   5.131
 7699TIP3    H223020   1.241   4.571   5.187
 7700TIP3   OH223021   0.232   2.811   5.733
 7700TIP3    H123022   0.196   2.780   5.648
 7700TIP3    H223023   0.216   2.734   5.791
 7701TIP3   OH223024   0.409   4.560   6.210
 7701TIP3    H123025   0.496   4.527   6.238
 7701TIP3    H223026   0.388   4.497   6.138
 7702TIP3   OH223027   0.383   4.117   4.358
 7702TIP3    H123028   0.326   4.045   4.394
 7702TIP3    H223029   0.459   4.065   4.328
 7703TIP3   OH223030   1.036   4.451   5.967
 7703TIP3    H123031   1.030   4.378   6.033
 7703TIP3    H223032   1.117   4.497   5.993
 7704TIP3   OH223033   0.819   4.158   4.269
 7704TIP3    H123034   0.863   4.096   4.330
 7704TIP3    H223035   0.878   4.156   4.191
 7705TIP3   OH223036   0.023   3.629   4.574
 7705TIP3    H123037   0.077   3.599   4.649
 7705TIP3    H223038   0.093   3.634   4.504
 7706TIP3   OH223039   0.659   4.067   6.160
 7706TIP3    H123040   0.621   4.085   6.072
 7706TIP3    H223041   0.690   3.974   6.151
 7707TIP3   OH223042   0.532   3.831   4.384
 7707TIP3    H123043   0.539   3.844   4.481
 7707TIP3    H223044   0.534   3.733   4.379
 7708TIP3   OH223045   1.152   4.079   5.770
 7708TIP3    H123046   1.227   4.116   5.720
 7708TIP3    H223047   1.082   4.143   5.747
 7709TIP3   OH223048   0.159   3.724   6.354
 7709TIP3    H123049   0.204   3.638   6.352
 7709TIP3    H223050   0.177   3.752   6.446
 7710TIP3   OH223051   0.233   3.537   4.801
 7710TIP3    H123052   0.212   3.496   4.886
 7710TIP3    H223053   0.271   3.463   4.750
 7711TIP3   OH223054   0.503   3.597   6.026
 7711TIP3    H123055   0.427   3.659   6.027
 7711TIP3    H223056   0.557   3.633   5.951
 7712TIP3   OH223057   0.336   3.331   4.642
 7712TIP3    H123058   0.312   3.335   4.548
 7712TIP3    H223059   0.434   3.335   4.636
 7713TIP3   OH223060   1.024   4.006   6.164
 7713TIP3    H123061   1.100   3.979   6.111
 7713TIP3    H223062   1.020   3.936   6.232
 7714TIP3   OH223063   1.155   3.663   4.304
 7714TIP3    H123064   1.136   3.617   4.220
 7714TIP3    H223065   1.123   3.753   4.281
 7715TIP3   OH223066   0.630   3.389   6.154
 7715TIP3    H123067   0.629   3.309   6.098
 7715TIP3    H223068   0.586   3.456   6.096
 7716TIP3   OH223069   0.630   3.173   5.965
 7716TIP3    H123070   0.659   3.219   5.883
 7716TIP3    H223071   0.536   3.153   5.944
 7717TIP3   OH223072   0.661   3.712   5.839
 7717TIP3    H123073   0.744   3.718   5.789
 7717TIP3    H223074   0.605   3.777   5.791
 7718TIP3   OH223075   1.243   3.679   6.219
 7718TIP3    H123076   1.291   3.595   6.221
 7718TIP3    H223077   1.308   3.739   6.179
 7719TIP3   OH223078   1.281   3.934   5.957
 7719TIP3    H123079   1.224   3.987   5.896
 7719TIP3    H223080   1.369   3.953   5.916
 7720TIP3   OH223081   0.512   3.504   6.385
 7720TIP3    H123082   0.441   3.438   6.404
 7720TIP3    H223083   0.541   3.476   6.297
 7721TIP3   OH223084   0.763   2.939   6.030
 7721TIP3    H123085   0.714   3.022   6.007
 7721TIP3    H223086   0.693   2.872   6.017
 7722TIP3   OH223087   0.889   3.444   6.247
 7722TIP3    H123088   0.874   3.432   6.342
 7722TIP3    H223089   0.799   3.420   6.214
 7723TIP3   OH223090   1.128   3.397   6.102
 7723TIP3    H123091   1.053   3.397   6.164
 7723TIP3    H223092   1.202   3.365   6.158
 7724TIP3   OH223093   1.355   3.334   6.253
 7724TIP3    H123094   1.368   3.239   6.271
 7724TIP3    H223095   1.354   3.373   6.343
 7725TIP3   OH223096   0.363   3.275   6.438
 7725TIP3    H123097   0.367   3.182   6.409
 7725TIP3    H223098   0.395   3.267   6.530
 7726TIP3   OH223099   0.858   2.948   6.287
 7726TIP3    H123100   0.925   2.877   6.280
 7726TIP3    H223101   0.817   2.944   6.198
 7727TIP3   OH223102   0.923   3.164   6.448
 7727TIP3    H123103   0.900   3.094   6.382
 7727TIP3    H223104   0.846   3.224   6.441
 7728TIP3   OH223105   0.143   4.399   4.551
 7728TIP3    H123106   0.238   4.390   4.534
 7728TIP3    H223107   0.116   4.440   4.466
 7729TIP3   OH223108   1.395   4.658   5.162
 7729TIP3    H123109   1.433   4.674   5.250
 7729TIP3    H223110   1.470   4.673   5.103
 7730TIP3   OH223111   1.432   4.661   5.446
 7730TIP3    H123112   1.386   4.574   5.442
 7730TIP3    H223113   1.510   4.634   5.498
 7731TIP3   OH223114   1.476   4.337   6.020
 7731TIP3    H123115   1.403   4.346   6.084
 7731TIP3    H223116   1.518   4.425   6.022
 7732TIP3   OH223117   1.293   3.848   4.640
 7732TIP3    H123118   1.363   3.911   4.612
 7732TIP3    H223119   1.334   3.810   4.720
 7733TIP3   OH223120   1.423   3.716   4.842
 7733TIP3    H123121   1.348   3.693   4.900
 7733TIP3    H223122   1.473   3.773   4.904
 7734TIP3   OH223123   1.485   4.113   5.273
 7734TIP3    H123124   1.489   4.027   5.226
 7734TIP3    H223125   1.449   4.170   5.204
 7735TIP3   OH223126   1.308   4.413   5.468
 7735TIP3    H123127   1.234   4.444   5.522
 7735TIP3    H223128   1.262   4.361   5.398
 7736TIP3   OH223129   1.359   3.623   4.488
 7736TIP3    H123130   1.286   3.630   4.422
 7736TIP3    H223131   1.334   3.697   4.547
 7737TIP3   OH223132   1.227   3.298   4.443
 7737TIP3    H123133   1.188   3.336   4.364
 7737TIP3    H223134   1.203   3.203   4.432
 7738TIP3   OH223135   1.219   3.574   4.986
 7738TIP3    H123136   1.257   3.491   5.016
 7738TIP3    H223137   1.237   3.635   5.061
 7739TIP3   OH223138  -0.123   3.566   5.727
 7739TIP3    H123139  -0.123   3.549   5.630
 7739TIP3    H223140  -0.031   3.599   5.738
 7740TIP3   OH223141   1.524   3.999   5.846
 7740TIP3    H123142   1.596   3.933   5.837
 7740TIP3    H223143   1.549   4.065   5.779
 7741TIP3   OH223144   1.707   3.803   5.871
 7741TIP3    H123145   1.632   3.750   5.907
 7741TIP3    H223146   1.780   3.739   5.881
 7742TIP3   OH223147   1.175   3.030   4.425
 7742TIP3    H123148   1.252   3.004   4.479
 7742TIP3    H223149   1.104   2.972   4.456
 7743TIP3   OH223150   1.224   3.277   4.879
 7743TIP3    H123151   1.272   3.192   4.891
 7743TIP3    H223152   1.285   3.324   4.821
 7744TIP3   OH223153   1.395   3.458   5.375
 7744TIP3    H123154   1.479   3.488   5.334
 7744TIP3    H223155   1.406   3.501   5.462
 7745TIP3   OH223156   1.463   3.607   5.610
 7745TIP3    H123157   1.383   3.644   5.653
 7745TIP3    H223158   1.495   3.686   5.561
 7746TIP3   OH223159   0.105   3.356   6.408
 7746TIP3    H123160   0.195   3.321   6.422
 7746TIP3    H223161   0.047   3.278   6.406
 7747TIP3   OH223162   1.913   3.197   6.167
 7747TIP3    H123163   1.973   3.132   6.124
 7747TIP3    H223164   1.883   3.251   6.091
 7748TIP3   OH223165   1.345   3.035   4.919
 7748TIP3    H123166   1.392   3.022   5.004
 7748TIP3    H223167   1.282   2.960   4.921
 7749TIP3   OH223168   0.057   3.021   5.762
 7749TIP3    H123169   0.123   2.949   5.766
 7749TIP3    H223170   0.115   3.099   5.749
 7750TIP3   OH223171  -0.117   3.303   5.816
 7750TIP3    H123172  -0.068   3.284   5.734
 7750TIP3    H223173  -0.110   3.400   5.816
 7751TIP3   OH223174   1.783   3.337   5.975
 7751TIP3    H123175   1.695   3.379   5.988
 7751TIP3    H223176   1.757   3.267   5.912
 7752TIP3   OH223177   1.420   2.975   4.551
 7752TIP3    H123178   1.465   2.904   4.502
 7752TIP3    H223179   1.487   3.046   4.551
 7753TIP3   OH223180  -0.176   2.785   5.288
 7753TIP3    H123181  -0.245   2.828   5.343
 7753TIP3    H223182  -0.163   2.854   5.219
 7754TIP3   OH223183   0.983   4.511   4.819
 7754TIP3    H123184   1.033   4.492   4.737
 7754TIP3    H223185   1.045   4.567   4.867
 7755TIP3   OH223186   0.058   2.868   6.144
 7755TIP3    H123187   0.029   2.880   6.235
 7755TIP3    H223188  -0.016   2.909   6.095
 7756TIP3   OH223189   0.270   4.346   5.741
 7756TIP3    H123190   0.224   4.421   5.700
 7756TIP3    H223191   0.358   4.357   5.699
 7757TIP3   OH223192   0.710   4.589   5.892
 7757TIP3    H123193   0.753   4.588   5.980
 7757TIP3    H223194   0.777   4.637   5.839
 7758TIP3   OH223195   0.888   4.740   5.748
 7758TIP3    H123196   0.957   4.687   5.705
 7758TIP3    H223197   0.942   4.795   5.809
 7759TIP3   OH223198   1.682   3.102   5.851
 7759TIP3    H123199   1.593   3.100   5.812
 7759TIP3    H223200   1.711   3.008   5.838
 7760TIP3   OH223201   0.184   4.596   5.633
 7760TIP3    H123202   0.112   4.622   5.692
 7760TIP3    H223203   0.151   4.632   5.548
 7761TIP3   OH223204   0.603   4.607   5.435
 7761TIP3    H123205   0.549   4.629   5.358
 7761TIP3    H223206   0.618   4.694   5.476
 7762TIP3   OH223207   0.873   4.550   5.489
 7762TIP3    H123208   0.779   4.563   5.463
 7762TIP3    H223209   0.918   4.620   5.440
 7763TIP3   OH223210   1.078   4.739   5.399
 7763TIP3    H123211   1.066   4.822   5.348
 7763TIP3    H223212   1.107   4.677   5.328
 7764TIP3   OH223213   0.074   4.229   5.359
 7764TIP3    H123214   0.078   4.158   5.427
 7764TIP3    H223215   0.157   4.276   5.376
 7765TIP3   OH223216   0.327   4.372   5.382
 7765TIP3    H123217   0.357   4.282   5.359
 7765TIP3    H223218   0.374   4.383   5.467
 7766TIP3   OH223219   0.887   3.016   5.466
 7766TIP3    H123220   0.844   2.946   5.518
 7766TIP3    H223221   0.963   2.969   5.425
 7767TIP3   OH223222   1.410   2.891   5.374
 7767TIP3    H123223   1.449   2.945   5.302
 7767TIP3    H223224   1.316   2.917   5.370
 7768TIP3   OH223225   1.506   2.993   5.139
 7768TIP3    H123226   1.579   2.943   5.097
 7768TIP3    H223227   1.539   3.085   5.125
 7769TIP3   OH223228   0.132   2.723   5.485
 7769TIP3    H123229   0.041   2.687   5.482
 7769TIP3    H223230   0.184   2.640   5.480
 7770TIP3   OH223231  -0.073   2.585   5.135
 7770TIP3    H123232  -0.051   2.642   5.060
 7770TIP3    H223233  -0.105   2.651   5.200
 7771TIP3   OH223234   0.581   2.754   5.367
 7771TIP3    H123235   0.635   2.806   5.305
 7771TIP3    H223236   0.601   2.798   5.450
 7772TIP3   OH223237   1.124   2.903   5.351
 7772TIP3    H123238   1.126   2.870   5.261
 7772TIP3    H223239   1.110   2.821   5.403
 7773TIP3   OH223240   1.156   2.825   4.911
 7773TIP3    H123241   1.070   2.871   4.924
 7773TIP3    H223242   1.140   2.741   4.958
 7774TIP3   OH223243   0.043   2.752   4.897
 7774TIP3    H123244   0.093   2.691   4.839
 7774TIP3    H223245   0.113   2.808   4.934
 7775TIP3   OH223246   0.554   2.927   4.996
 7775TIP3    H123247   0.616   2.883   5.056
 7775TIP3    H223248   0.573   3.021   5.020
 7776TIP3   OH223249   0.411   4.354   4.495
 7776TIP3    H123250   0.500   4.375   4.460
 7776TIP3    H223251   0.388   4.280   4.435
 7777TIP3   OH223252   1.128   4.471   4.587
 7777TIP3    H123253   1.120   4.373   4.576
 7777TIP3    H223254   1.086   4.502   4.505
 7778TIP3   OH223255   0.344   3.005   6.371
 7778TIP3    H123256   0.308   2.934   6.428
 7778TIP3    H223257   0.437   3.003   6.403
 7779TIP3   OH223258   0.593   3.000   6.495
 7779TIP3    H123259   0.679   2.976   6.456
 7779TIP3    H223260   0.580   2.928   6.560
 7780TIP3   OH223261   1.419   3.063   6.282
 7780TIP3    H123262   1.439   3.032   6.373
 7780TIP3    H223263   1.507   3.060   6.240
 7781TIP3   OH223264   1.353   4.617   5.781
 7781TIP3    H123265   1.277   4.585   5.727
 7781TIP3    H223266   1.335   4.713   5.779
 7782TIP3   OH223267   1.930   3.890   5.283
 7782TIP3    H123268   1.967   3.827   5.347
 7782TIP3    H223269   2.005   3.949   5.263
 7783TIP3   OH223270   1.919   4.287   5.008
 7783TIP3    H123271   1.889   4.196   5.008
 7783TIP3    H223272   2.014   4.271   5.025
 7784TIP3   OH223273   1.600   3.494   4.797
 7784TIP3    H123274   1.557   3.578   4.822
 7784TIP3    H223275   1.525   3.447   4.758
 7785TIP3   OH223276   1.680   3.792   4.965
 7785TIP3    H123277   1.716   3.712   5.008
 7785TIP3    H223278   1.741   3.805   4.892
 7786TIP3   OH223279   2.510   4.754   4.616
 7786TIP3    H123280   2.563   4.682   4.575
 7786TIP3    H223281   2.501   4.724   4.707
 7787TIP3   OH223282   3.448   3.519   4.974
 7787TIP3    H123283   3.467   3.606   5.016
 7787TIP3    H223284   3.457   3.539   4.880
 7788TIP3   OH223285   2.851   3.734   5.000
 7788TIP3    H123286   2.874   3.641   5.015
 7788TIP3    H223287   2.789   3.726   4.925
 7789TIP3   OH223288   2.170   3.375   4.967
 7789TIP3    H123289   2.155   3.452   4.908
 7789TIP3    H223290   2.119   3.307   4.918
 7790TIP3   OH223291   2.859   3.459   4.619
 7790TIP3    H123292   2.947   3.447   4.662
 7790TIP3    H223293   2.882   3.463   4.526
 7791TIP3   OH223294   1.802   3.572   5.076
 7791TIP3    H123295   1.886   3.557   5.123
 7791TIP3    H223296   1.818   3.519   4.995
 7792TIP3   OH223297   3.493   3.739   5.137
 7792TIP3    H123298   3.416   3.796   5.122
 7792TIP3    H223299   3.535   3.782   5.214
 7793TIP3   OH223300   2.168   3.359   5.404
 7793TIP3    H123301   2.111   3.395   5.334
 7793TIP3    H223302   2.115   3.382   5.483
 7794TIP3   OH223303   2.542   4.223   4.414
 7794TIP3    H123304   2.484   4.164   4.365
 7794TIP3    H223305   2.482   4.298   4.433
 7795TIP3   OH223306   3.089   3.452   4.769
 7795TIP3    H123307   3.046   3.420   4.850
 7795TIP3    H223308   3.128   3.535   4.801
 7796TIP3   OH223309   2.033   3.464   5.187
 7796TIP3    H123310   2.091   3.540   5.211
 7796TIP3    H223311   2.084   3.429   5.110
 7797TIP3   OH223312   1.496   4.017   4.532
 7797TIP3    H123313   1.457   4.050   4.449
 7797TIP3    H223314   1.532   4.099   4.572
 7798TIP3   OH223315   3.223   3.433   5.133
 7798TIP3    H123316   3.135   3.458   5.101
 7798TIP3    H223317   3.281   3.465   5.062
 7799TIP3   OH223318   2.526   3.076   5.118
 7799TIP3    H123319   2.508   2.981   5.133
 7799TIP3    H223320   2.448   3.116   5.162
 7800TIP3   OH223321   2.651   4.580   4.456
 7800TIP3    H123322   2.691   4.498   4.420
 7800TIP3    H223323   2.707   4.647   4.410
 7801TIP3   OH223324   2.785   4.365   4.343
 7801TIP3    H123325   2.736   4.303   4.287
 7801TIP3    H223326   2.795   4.312   4.422
 7802TIP3   OH223327   2.460   3.845   4.369
 7802TIP3    H123328   2.379   3.897   4.350
 7802TIP3    H223329   2.501   3.838   4.281
 7803TIP3   OH223330   2.409   3.625   4.087
 7803TIP3    H123331   2.479   3.674   4.135
 7803TIP3    H223332   2.462   3.552   4.050
 7804TIP3   OH223333   2.798   3.924   4.345
 7804TIP3    H123334   2.730   3.913   4.413
 7804TIP3    H223335   2.878   3.893   4.392
 7805TIP3   OH223336   3.039   3.956   5.258
 7805TIP3    H123337   3.032   4.039   5.310
 7805TIP3    H223338   2.951   3.954   5.215
 7806TIP3   OH223339   2.042   3.917   4.726
 7806TIP3    H123340   2.003   3.843   4.676
 7806TIP3    H223341   2.084   3.875   4.801
 7807TIP3   OH223342   2.303   4.438   5.449
 7807TIP3    H123343   2.235   4.501   5.482
 7807TIP3    H223344   2.258   4.395   5.376
 7808TIP3   OH223345   2.634   3.780   4.165
 7808TIP3    H123346   2.706   3.822   4.216
 7808TIP3    H223347   2.665   3.797   4.073
 7809TIP3   OH223348   2.065   4.000   5.549
 7809TIP3    H123349   2.067   4.090   5.586
 7809TIP3    H223350   1.968   3.985   5.544
 7810TIP3   OH223351   2.390   4.459   4.437
 7810TIP3    H123352   2.456   4.520   4.472
 7810TIP3    H223353   2.320   4.517   4.405
 7811TIP3   OH223354   2.101   4.621   5.528
 7811TIP3    H123355   2.072   4.620   5.435
 7811TIP3    H223356   2.019   4.597   5.576
 7812TIP3   OH223357   3.159   3.020   4.212
 7812TIP3    H123358   3.082   3.038   4.271
 7812TIP3    H223359   3.170   3.109   4.172
 7813TIP3   OH223360   1.901   3.747   4.549
 7813TIP3    H123361   1.832   3.797   4.501
 7813TIP3    H223362   1.852   3.669   4.578
 7814TIP3   OH223363   2.956   4.389   3.766
 7814TIP3    H123364   2.966   4.486   3.751
 7814TIP3    H223365   3.049   4.359   3.754
 7815TIP3   OH223366   1.682   4.150   5.470
 7815TIP3    H123367   1.618   4.130   5.397
 7815TIP3    H223368   1.717   4.061   5.491
 7816TIP3   OH223369   1.535   4.361   5.088
 7816TIP3    H123370   1.621   4.317   5.093
 7816TIP3    H223371   1.539   4.419   5.165
 7817TIP3   OH223372   3.397   4.792   5.158
 7817TIP3    H123373   3.396   4.696   5.177
 7817TIP3    H223374   3.314   4.818   5.204
 7818TIP3   OH223375   2.439   4.619   5.280
 7818TIP3    H123376   2.471   4.696   5.330
 7818TIP3    H223377   2.421   4.554   5.350
 7819TIP3   OH223378   2.265   4.708   4.246
 7819TIP3    H123379   2.219   4.689   4.162
 7819TIP3    H223380   2.233   4.797   4.269
 7820TIP3   OH223381   1.704   4.555   4.635
 7820TIP3    H123382   1.754   4.545   4.719
 7820TIP3    H223383   1.655   4.471   4.634
 7821TIP3   OH223384   2.467   4.607   3.887
 7821TIP3    H123385   2.526   4.538   3.851
 7821TIP3    H223386   2.501   4.617   3.979
 7822TIP3   OH223387   2.516   4.656   4.158
 7822TIP3    H123388   2.428   4.665   4.199
 7822TIP3    H223389   2.565   4.611   4.228
 7823TIP3   OH223390   3.285   3.916   5.429
 7823TIP3    H123391   3.204   3.925   5.377
 7823TIP3    H223392   3.302   3.820   5.424
 7824TIP3   OH223393   1.868   4.354   5.480
 7824TIP3    H123394   1.943   4.317   5.531
 7824TIP3    H223395   1.811   4.276   5.467
 7825TIP3   OH223396   2.286   3.151   5.245
 7825TIP3    H123397   2.196   3.123   5.219
 7825TIP3    H223398   2.265   3.237   5.285
 7826TIP3   OH223399   2.820   3.267   5.440
 7826TIP3    H123400   2.887   3.239   5.505
 7826TIP3    H223401   2.735   3.249   5.485
 7827TIP3   OH223402   3.061   3.695   5.360
 7827TIP3    H123403   3.009   3.693   5.443
 7827TIP3    H223404   3.030   3.778   5.319
 7828TIP3   OH223405   2.718   3.826   3.912
 7828TIP3    H123406   2.685   3.799   3.824
 7828TIP3    H223407   2.799   3.874   3.888
 7829TIP3   OH223408   2.390   3.213   4.183
 7829TIP3    H123409   2.444   3.229   4.261
 7829TIP3    H223410   2.375   3.117   4.188
 7830TIP3   OH223411   2.197   3.661   5.260
 7830TIP3    H123412   2.160   3.701   5.340
 7830TIP3    H223413   2.235   3.736   5.212
 7831TIP3   OH223414   2.094   3.550   4.776
 7831TIP3    H123415   2.002   3.522   4.793
 7831TIP3    H223416   2.111   3.513   4.688
 7832TIP3   OH223417   2.582   3.641   4.501
 7832TIP3    H123418   2.531   3.717   4.465
 7832TIP3    H223419   2.634   3.613   4.425
 7833TIP3   OH223420   2.773   3.923   5.600
 7833TIP3    H123421   2.748   3.849   5.660
 7833TIP3    H223422   2.868   3.932   5.620
 7834TIP3   OH223423   2.769   3.703   4.719
 7834TIP3    H123424   2.677   3.694   4.691
 7834TIP3    H223425   2.804   3.616   4.693
 7835TIP3   OH223426   2.031   3.704   5.479
 7835TIP3    H123427   2.067   3.767   5.544
 7835TIP3    H223428   2.028   3.621   5.529
 7836TIP3   OH223429   2.072   3.162   4.179
 7836TIP3    H123430   2.082   3.169   4.276
 7836TIP3    H223431   2.004   3.230   4.163
 7837TIP3   OH223432   1.630   3.215   5.054
 7837TIP3    H123433   1.701   3.253   5.111
 7837TIP3    H223434   1.676   3.196   4.972
 7838TIP3   OH223435   1.601   3.199   4.571
 7838TIP3    H123436   1.650   3.237   4.495
 7838TIP3    H223437   1.543   3.275   4.592
 7839TIP3   OH223438   2.770   3.925   5.174
 7839TIP3    H123439   2.791   3.856   5.106
 7839TIP3    H223440   2.732   3.867   5.244
 7840TIP3   OH223441   2.431   3.364   4.841
 7840TIP3    H123442   2.347   3.372   4.890
 7840TIP3    H223443   2.491   3.413   4.899
 7841TIP3   OH223444   1.859   3.429   4.850
 7841TIP3    H123445   1.765   3.438   4.820
 7841TIP3    H223446   1.884   3.339   4.821
 7842TIP3   OH223447   2.132   3.424   4.534
 7842TIP3    H123448   2.227   3.442   4.518
 7842TIP3    H223449   2.089   3.452   4.450
 7843TIP3   OH223450   2.922   3.448   5.040
 7843TIP3    H123451   2.886   3.466   5.130
 7843TIP3    H223452   2.849   3.393   5.004
 7844TIP3   OH223453   1.971   3.460   4.311
 7844TIP3    H123454   1.899   3.420   4.259
 7844TIP3    H223455   2.025   3.500   4.239
 7845TIP3   OH223456   3.089   5.142   5.259
 7845TIP3    H123457   3.088   5.164   5.164
 7845TIP3    H223458   3.169   5.189   5.290
 7846TIP3   OH223459   2.049   4.249   5.679
 7846TIP3    H123460   2.129   4.281   5.726
 7846TIP3    H223461   1.983   4.252   5.751
 7847TIP3   OH223462   2.032   3.196   4.811
 7847TIP3    H123463   2.004   3.114   4.856
 7847TIP3    H223464   2.088   3.163   4.739
 7848TIP3   OH223465   2.224   3.995   4.319
 7848TIP3    H123466   2.153   3.928   4.311
 7848TIP3    H223467   2.207   4.029   4.410
 7849TIP3   OH223468   2.366   4.140   4.135
 7849TIP3    H123469   2.323   4.228   4.147
 7849TIP3    H223470   2.316   4.086   4.200
 7850TIP3   OH223471   1.793   3.937   5.612
 7850TIP3    H123472   1.814   3.918   5.706
 7850TIP3    H223473   1.727   3.869   5.591
 7851TIP3   OH223474   2.525   4.045   5.636
 7851TIP3    H123475   2.470   4.008   5.565
 7851TIP3    H223476   2.614   4.015   5.606
 7852TIP3   OH223477   3.197   3.641   4.115
 7852TIP3    H123478   3.134   3.596   4.055
 7852TIP3    H223479   3.191   3.731   4.078
 7853TIP3   OH223480   3.400   4.509   5.202
 7853TIP3    H123481   3.304   4.501   5.188
 7853TIP3    H223482   3.437   4.460   5.128
 7854TIP3   OH223483   2.897   4.460   4.031
 7854TIP3    H123484   2.869   4.389   4.090
 7854TIP3    H223485   2.908   4.415   3.946
 7855TIP3   OH223486   2.017   4.325   4.604
 7855TIP3    H123487   2.001   4.407   4.556
 7855TIP3    H223488   1.930   4.301   4.638
 7856TIP3   OH223489   1.579   3.623   4.321
 7856TIP3    H123490   1.627   3.705   4.345
 7856TIP3    H223491   1.505   3.626   4.386
 7857TIP3   OH223492   2.166   4.094   4.561
 7857TIP3    H123493   2.129   4.179   4.590
 7857TIP3    H223494   2.130   4.034   4.630
 7858TIP3   OH223495   2.274   4.667   5.074
 7858TIP3    H123496   2.333   4.733   5.034
 7858TIP3    H223497   2.333   4.631   5.143
 7859TIP3   OH223498   1.932   4.563   4.469
 7859TIP3    H123499   1.849   4.568   4.520
 7859TIP3    H223500   1.965   4.655   4.475
 7860TIP3   OH223501   2.649   4.190   3.932
 7860TIP3    H123502   2.703   4.165   4.011
 7860TIP3    H223503   2.561   4.161   3.962
 7861TIP3   OH223504   2.919   4.828   5.097
 7861TIP3    H123505   2.832   4.787   5.080
 7861TIP3    H223506   2.916   4.899   5.029
 7862TIP3   OH223507   2.990   4.664   3.752
 7862TIP3    H123508   3.026   4.737   3.699
 7862TIP3    H223509   2.910   4.709   3.786
 7863TIP3   OH223510   2.009   3.441   5.622
 7863TIP3    H123511   1.912   3.443   5.630
 7863TIP3    H223512   2.035   3.378   5.691
 7864TIP3   OH223513   2.811   4.130   4.150
 7864TIP3    H123514   2.797   4.063   4.219
 7864TIP3    H223515   2.908   4.121   4.136
 7865TIP3   OH223516   1.726   4.526   5.255
 7865TIP3    H123517   1.781   4.448   5.272
 7865TIP3    H223518   1.770   4.588   5.315
 7866TIP3   OH223519   2.014   4.170   3.932
 7866TIP3    H123520   2.032   4.078   3.905
 7866TIP3    H223521   1.997   4.159   4.028
 7867TIP3   OH223522   1.960   4.174   4.205
 7867TIP3    H123523   2.030   4.143   4.264
 7867TIP3    H223524   1.967   4.272   4.214
 7868TIP3   OH223525   1.693   3.866   4.406
 7868TIP3    H123526   1.630   3.911   4.465
 7868TIP3    H223527   1.714   3.937   4.343
 7869TIP3   OH223528   2.845   3.506   5.301
 7869TIP3    H123529   2.926   3.543   5.340
 7869TIP3    H223530   2.832   3.424   5.354
 7870TIP3   OH223531   2.227   4.373   4.152
 7870TIP3    H123532   2.141   4.398   4.190
 7870TIP3    H223533   2.242   4.446   4.091
 7871TIP3   OH223534   2.415   3.433   4.567
 7871TIP3    H123535   2.479   3.506   4.548
 7871TIP3    H223536   2.420   3.429   4.664
 7872TIP3   OH223537   2.684   3.776   5.382
 7872TIP3    H123538   2.720   3.814   5.464
 7872TIP3    H223539   2.721   3.686   5.381
 7873TIP3   OH223540   2.569   3.173   4.672
 7873TIP3    H123541   2.540   3.243   4.735
 7873TIP3    H223542   2.626   3.226   4.614
 7874TIP3   OH223543   1.970   4.448   4.219
 7874TIP3    H123544   1.940   4.519   4.158
 7874TIP3    H223545   1.954   4.490   4.307
 7875TIP3   OH223546   2.072   3.161   4.458
 7875TIP3    H123547   2.072   3.253   4.493
 7875TIP3    H223548   2.168   3.142   4.468
 7876TIP3   OH223549   3.327   3.648   5.363
 7876TIP3    H123550   3.229   3.646   5.364
 7876TIP3    H223551   3.344   3.621   5.271
 7877TIP3   OH223552   1.688   4.081   4.210
 7877TIP3    H123553   1.758   4.147   4.224
 7877TIP3    H223554   1.734   4.024   4.145
 7878TIP3   OH223555   1.632   3.353   4.346
 7878TIP3    H123556   1.637   3.451   4.341
 7878TIP3    H223557   1.545   3.336   4.310
 7879TIP3   OH223558   2.943   4.815   4.700
 7879TIP3    H123559   2.899   4.855   4.622
 7879TIP3    H223560   3.036   4.832   4.676
 7880TIP3   OH223561   2.020   3.073   5.221
 7880TIP3    H123562   1.990   3.042   5.133
 7880TIP3    H223563   2.009   2.994   5.276
 7881TIP3   OH223564   1.563   4.298   4.601
 7881TIP3    H123565   1.490   4.324   4.658
 7881TIP3    H223566   1.534   4.334   4.515
 7882TIP3   OH223567   1.714   4.831   5.676
 7882TIP3    H123568   1.803   4.827   5.717
 7882TIP3    H223569   1.695   4.736   5.669
 7883TIP3   OH223570   2.198   4.800   5.716
 7883TIP3    H123571   2.292   4.776   5.721
 7883TIP3    H223572   2.169   4.741   5.644
 7884TIP3   OH223573   2.179   4.373   3.845
 7884TIP3    H123574   2.122   4.302   3.883
 7884TIP3    H223575   2.255   4.320   3.816
 7885TIP3   OH223576   2.820   4.732   5.462
 7885TIP3    H123577   2.814   4.641   5.498
 7885TIP3    H223578   2.911   4.757   5.482
 7886TIP3   OH223579   2.616   4.415   3.756
 7886TIP3    H123580   2.657   4.349   3.815
 7886TIP3    H223581   2.673   4.412   3.677
 7887TIP3   OH223582   1.846   4.239   5.872
 7887TIP3    H123583   1.863   4.143   5.873
 7887TIP3    H223584   1.760   4.242   5.824
 7888TIP3   OH223585   1.824   3.890   4.067
 7888TIP3    H123586   1.878   3.857   4.140
 7888TIP3    H223587   1.892   3.895   3.996
 7889TIP3   OH223588   2.452   4.324   5.651
 7889TIP3    H123589   2.411   4.346   5.564
 7889TIP3    H223590   2.485   4.233   5.636
 7890TIP3   OH223591   2.331   4.088   3.870
 7890TIP3    H123592   2.335   4.101   3.967
 7890TIP3    H223593   2.332   3.990   3.866
 7891TIP3   OH223594   1.963   3.971   5.858
 7891TIP3    H123595   2.043   3.929   5.824
 7891TIP3    H223596   1.993   4.005   5.944
 7892TIP3   OH223597   2.027   3.796   4.286
 7892TIP3    H123598   2.003   3.759   4.373
 7892TIP3    H223599   2.066   3.719   4.241
 7893TIP3   OH223600   2.293   3.851   5.515
 7893TIP3    H123601   2.217   3.913   5.523
 7893TIP3    H223602   2.348   3.899   5.451
 7894TIP3   OH223603   2.131   3.587   4.129
 7894TIP3    H123604   2.108   3.591   4.034
 7894TIP3    H223605   2.229   3.591   4.125
 7895TIP3   OH223606   2.824   4.256   5.646
 7895TIP3    H123607   2.918   4.244   5.629
 7895TIP3    H223608   2.809   4.191   5.717
 7896TIP3   OH223609   2.954   3.919   3.790
 7896TIP3    H123610   2.934   3.873   3.707
 7896TIP3    H223611   2.920   4.009   3.767
 7897TIP3   OH223612   2.425   3.647   5.642
 7897TIP3    H123613   2.426   3.569   5.583
 7897TIP3    H223614   2.381   3.713   5.584
 7898TIP3   OH223615   2.425   3.438   5.444
 7898TIP3    H123616   2.446   3.488   5.363
 7898TIP3    H223617   2.331   3.414   5.428
 7899TIP3   OH223618   2.450   4.000   5.357
 7899TIP3    H123619   2.508   3.936   5.312
 7899TIP3    H223620   2.418   4.057   5.284
 7900TIP3   OH223621   3.040   3.936   5.706
 7900TIP3    H123622   3.085   3.850   5.708
 7900TIP3    H223623   3.110   3.994   5.673
 7901TIP3   OH223624   3.080   4.197   5.424
 7901TIP3    H123625   3.040   4.271   5.377
 7901TIP3    H223626   3.172   4.203   5.390
 7902TIP3   OH223627   2.303   3.758   5.876
 7902TIP3    H123628   2.234   3.689   5.886
 7902TIP3    H223629   2.336   3.739   5.786
 7903TIP3   OH223630   2.557   3.200   5.517
 7903TIP3    H123631   2.509   3.281   5.490
 7903TIP3    H223632   2.490   3.131   5.503
 7904TIP3   OH223633   2.685   3.701   5.732
 7904TIP3    H123634   2.669   3.689   5.827
 7904TIP3    H223635   2.596   3.678   5.698
 7905TIP3   OH223636   2.926   3.654   5.589
 7905TIP3    H123637   2.849   3.653   5.649
 7905TIP3    H223638   2.998   3.620   5.647
 7906TIP3   OH223639   3.156   3.591   5.740
 7906TIP3    H123640   3.166   3.496   5.758
 7906TIP3    H223641   3.151   3.629   5.831
 7907TIP3   OH223642   2.138   3.540   5.926
 7907TIP3    H123643   2.148   3.451   5.887
 7907TIP3    H223644   2.176   3.525   6.015
 7908TIP3   OH223645   2.649   3.206   5.776
 7908TIP3    H123646   2.719   3.137   5.769
 7908TIP3    H223647   2.612   3.202   5.685
 7909TIP3   OH223648   2.719   3.420   5.935
 7909TIP3    H123649   2.697   3.350   5.869
 7909TIP3    H223650   2.642   3.480   5.926
 7910TIP3   OH223651   1.939   4.654   4.033
 7910TIP3    H123652   2.035   4.645   4.015
 7910TIP3    H223653   1.912   4.701   3.952
 7911TIP3   OH223654   1.419   4.035   4.245
 7911TIP3    H123655   1.514   4.056   4.234
 7911TIP3    H223656   1.416   3.944   4.208
 7912TIP3   OH223657   1.332   4.645   4.664
 7912TIP3    H123658   1.267   4.580   4.629
 7912TIP3    H223659   1.378   4.589   4.731
 7913TIP3   OH223660   1.466   4.499   4.852
 7913TIP3    H123661   1.464   4.423   4.913
 7913TIP3    H223662   1.523   4.558   4.905
 7914TIP3   OH223663   3.191   4.910   4.645
 7914TIP3    H123664   3.223   4.927   4.735
 7914TIP3    H223665   3.266   4.938   4.591
 7915TIP3   OH223666   3.236   4.925   4.927
 7915TIP3    H123667   3.187   4.840   4.926
 7915TIP3    H223668   3.307   4.900   4.988
 7916TIP3   OH223669   3.266   4.594   5.499
 7916TIP3    H123670   3.201   4.600   5.572
 7916TIP3    H223671   3.313   4.680   5.507
 7917TIP3   OH223672   3.087   4.109   4.123
 7917TIP3    H123673   3.159   4.169   4.095
 7917TIP3    H223674   3.128   4.067   4.202
 7918TIP3   OH223675   3.206   3.975   4.325
 7918TIP3    H123676   3.154   3.926   4.392
 7918TIP3    H223677   3.286   4.004   4.374
 7919TIP3   OH223678   3.118   4.687   4.963
 7919TIP3    H123679   3.040   4.716   5.014
 7919TIP3    H223680   3.080   4.632   4.893
 7920TIP3   OH223681   3.155   3.882   3.973
 7920TIP3    H123682   3.083   3.885   3.906
 7920TIP3    H223683   3.126   3.956   4.031
 7921TIP3   OH223684   3.034   3.545   3.920
 7921TIP3    H123685   2.982   3.591   3.854
 7921TIP3    H223686   3.002   3.453   3.910
 7922TIP3   OH223687   3.025   3.815   4.481
 7922TIP3    H123688   3.031   3.723   4.446
 7922TIP3    H223689   3.018   3.797   4.575
 7923TIP3   OH223690   1.662   3.886   5.233
 7923TIP3    H123691   1.645   3.868   5.138
 7923TIP3    H223692   1.760   3.894   5.235
 7924TIP3   OH223693   3.326   4.254   5.318
 7924TIP3    H123694   3.398   4.188   5.332
 7924TIP3    H223695   3.373   4.325   5.274
 7925TIP3   OH223696   3.505   4.072   5.404
 7925TIP3    H123697   3.436   4.003   5.411
 7925TIP3    H223698   3.578   4.024   5.362
 7926TIP3   OH223699   2.973   3.272   3.911
 7926TIP3    H123700   3.043   3.263   3.978
 7926TIP3    H223701   2.892   3.247   3.960
 7927TIP3   OH223702   3.045   3.557   4.387
 7927TIP3    H123703   3.074   3.464   4.399
 7927TIP3    H223704   3.068   3.569   4.294
 7928TIP3   OH223705   3.198   3.670   4.890
 7928TIP3    H123706   3.261   3.720   4.837
 7928TIP3    H223707   3.185   3.730   4.966
 7929TIP3   OH223708   3.252   3.880   5.087
 7929TIP3    H123709   3.173   3.889   5.144
 7929TIP3    H223710   3.265   3.972   5.062
 7930TIP3   OH223711   1.871   3.588   5.894
 7930TIP3    H123712   1.969   3.583   5.894
 7930TIP3    H223713   1.849   3.503   5.937
 7931TIP3   OH223714   3.718   3.456   5.656
 7931TIP3    H123715   3.772   3.390   5.608
 7931TIP3    H223716   3.680   3.508   5.582
 7932TIP3   OH223717   3.146   3.295   4.401
 7932TIP3    H123718   3.183   3.280   4.490
 7932TIP3    H223719   3.075   3.227   4.400
 7933TIP3   OH223720   1.832   3.279   5.232
 7933TIP3    H123721   1.898   3.207   5.238
 7933TIP3    H223722   1.892   3.355   5.220
 7934TIP3   OH223723   1.642   3.554   5.305
 7934TIP3    H123724   1.690   3.549   5.219
 7934TIP3    H223725   1.653   3.647   5.326
 7935TIP3   OH223726   3.579   3.589   5.467
 7935TIP3    H123727   3.494   3.636   5.482
 7935TIP3    H223728   3.548   3.524   5.401
 7936TIP3   OH223729   3.223   3.233   4.039
 7936TIP3    H123730   3.276   3.168   3.989
 7936TIP3    H223731   3.284   3.310   4.041
 7937TIP3   OH223732   1.621   3.051   4.795
 7937TIP3    H123733   1.530   3.056   4.827
 7937TIP3    H223734   1.620   3.115   4.720
 7938TIP3   OH223735   2.781   4.763   4.306
 7938TIP3    H123736   2.832   4.751   4.223
 7938TIP3    H223737   2.833   4.829   4.353
 7939TIP3   OH223738   1.842   3.137   5.615
 7939TIP3    H123739   1.790   3.138   5.697
 7939TIP3    H223740   1.779   3.177   5.552
 7940TIP3   OH223741   1.878   4.583   5.701
 7940TIP3    H123742   1.804   4.533   5.663
 7940TIP3    H223743   1.890   4.541   5.787
 7941TIP3   OH223744   2.056   4.613   5.257
 7941TIP3    H123745   2.024   4.687   5.202
 7941TIP3    H223746   2.136   4.590   5.207
 7942TIP3   OH223747   2.508   4.867   5.394
 7942TIP3    H123748   2.559   4.857   5.477
 7942TIP3    H223749   2.577   4.903   5.334
 7943TIP3   OH223750   2.686   5.000   5.231
 7943TIP3    H123751   2.755   4.940   5.198
 7943TIP3    H223752   2.738   5.054   5.294
 7944TIP3   OH223753   3.478   3.358   5.337
 7944TIP3    H123754   3.388   3.359   5.299
 7944TIP3    H223755   3.504   3.264   5.322
 7945TIP3   OH223756   1.736   4.863   5.255
 7945TIP3    H123757   1.646   4.899   5.240
 7945TIP3    H223758   1.745   4.876   5.350
 7946TIP3   OH223759   1.975   4.842   5.120
 7946TIP3    H123760   1.887   4.851   5.164
 7946TIP3    H223761   1.955   4.866   5.028
 7947TIP3   OH223762   2.408   4.868   4.909
 7947TIP3    H123763   2.330   4.887   4.854
 7947TIP3    H223764   2.418   4.952   4.959
 7948TIP3   OH223765   2.678   4.807   4.968
 7948TIP3    H123766   2.582   4.810   4.952
 7948TIP3    H223767   2.708   4.888   4.924
 7949TIP3   OH223768   2.887   5.004   4.889
 7949TIP3    H123769   2.867   5.083   4.835
 7949TIP3    H223770   2.905   4.937   4.820
 7950TIP3   OH223771   1.648   4.649   5.011
 7950TIP3    H123772   1.677   4.622   5.102
 7950TIP3    H223773   1.718   4.602   4.960
 7951TIP3   OH223774   1.844   4.518   4.869
 7951TIP3    H123775   1.865   4.433   4.915
 7951TIP3    H223776   1.933   4.558   4.864
 7952TIP3   OH223777   2.107   4.622   4.865
 7952TIP3    H123778   2.150   4.539   4.838
 7952TIP3    H223779   2.155   4.638   4.950
 7953TIP3   OH223780   2.700   3.272   4.969
 7953TIP3    H123781   2.641   3.206   5.007
 7953TIP3    H223782   2.759   3.220   4.913
 7954TIP3   OH223783   3.211   3.145   4.859
 7954TIP3    H123784   3.245   3.204   4.788
 7954TIP3    H223785   3.116   3.169   4.858
 7955TIP3   OH223786   3.306   3.248   4.624
 7955TIP3    H123787   3.381   3.206   4.578
 7955TIP3    H223788   3.331   3.343   4.613
 7956TIP3   OH223789   1.933   2.980   4.973
 7956TIP3    H123790   1.840   2.949   4.973
 7956TIP3    H223791   1.981   2.895   4.967
 7957TIP3   OH223792   1.715   2.850   4.618
 7957TIP3    H123793   1.750   2.908   4.547
 7957TIP3    H223794   1.689   2.916   4.686
 7958TIP3   OH223795   2.377   3.010   4.856
 7958TIP3    H123796   2.426   3.065   4.793
 7958TIP3    H223797   2.394   3.056   4.939
 7959TIP3   OH223798   2.934   3.156   4.837
 7959TIP3    H123799   2.911   3.135   4.746
 7959TIP3    H223800   2.910   3.074   4.886
 7960TIP3   OH223801   2.973   3.073   4.404
 7960TIP3    H123802   2.900   3.125   4.361
 7960TIP3    H223803   2.923   3.002   4.447
 7961TIP3   OH223804   1.436   4.419   4.398
 7961TIP3    H123805   1.351   4.387   4.363
 7961TIP3    H223806   1.424   4.514   4.385
 7962TIP3   OH223807   1.837   3.009   4.384
 7962TIP3    H123808   1.887   2.949   4.325
 7962TIP3    H223809   1.909   3.066   4.418
 7963TIP3   OH223810   2.345   3.178   4.498
 7963TIP3    H123811   2.419   3.142   4.549
 7963TIP3    H223812   2.365   3.273   4.507
 7964TIP3   OH223813   2.207   4.611   3.980
 7964TIP3    H123814   2.296   4.632   3.945
 7964TIP3    H223815   2.185   4.535   3.921
 7965TIP3   OH223816   2.927   4.728   4.074
 7965TIP3    H123817   2.919   4.630   4.063
 7965TIP3    H223818   2.882   4.759   3.994
 7966TIP3   OH223819   2.139   3.259   5.862
 7966TIP3    H123820   2.106   3.189   5.921
 7966TIP3    H223821   2.234   3.261   5.888
 7967TIP3   OH223822   2.389   3.260   5.982
 7967TIP3    H123823   2.473   3.238   5.938
 7967TIP3    H223824   2.381   3.187   6.046
 7968TIP3   OH223825   1.513   4.449   4.039
 7968TIP3    H123826   1.515   4.467   4.134
 7968TIP3    H223827   1.600   4.406   4.024
 7969TIP3   OH223828   3.215   3.319   5.769
 7969TIP3    H123829   3.234   3.288   5.860
 7969TIP3    H223830   3.303   3.314   5.727
 7970TIP3   OH223831   3.152   4.874   5.260
 7970TIP3    H123832   3.073   4.840   5.214
 7970TIP3    H223833   3.131   4.969   5.266
 7971TIP3   OH223834   4.419   4.244   4.027
 7971TIP3    H123835   4.390   4.336   4.011
 7971TIP3    H223836   4.344   4.195   3.988
 7972TIP3   OH223837   3.396   3.745   4.283
 7972TIP3    H123838   3.359   3.834   4.298
 7972TIP3    H223839   3.318   3.698   4.249
 7973TIP3   OH223840   3.460   4.030   4.413
 7973TIP3    H123841   3.502   3.974   4.482
 7973TIP3    H223842   3.535   4.082   4.383
 7974TIP3   OH223843   4.304   5.010   4.104
 7974TIP3    H123844   4.353   4.937   4.062
 7974TIP3    H223845   4.318   4.992   4.198
 7975TIP3   OH223846   5.234   3.788   4.457
 7975TIP3    H123847   5.260   3.873   4.498
 7975TIP3    H223848   5.246   3.808   4.363
 7976TIP3   OH223849   4.637   3.976   4.490
 7976TIP3    H123850   4.672   3.887   4.507
 7976TIP3    H223851   4.596   3.964   4.403
 7977TIP3   OH223852   3.971   3.631   4.454
 7977TIP3    H123853   3.951   3.707   4.395
 7977TIP3    H223854   3.919   3.561   4.409
 7978TIP3   OH223855   4.663   3.719   4.078
 7978TIP3    H123856   4.736   3.705   4.143
 7978TIP3    H223857   4.713   3.761   4.006
 7979TIP3   OH223858   3.598   3.847   4.562
 7979TIP3    H123859   3.673   3.820   4.618
 7979TIP3    H223860   3.609   3.786   4.487
 7980TIP3   OH223861   5.305   4.001   4.623
 7980TIP3    H123862   5.220   4.046   4.604
 7980TIP3    H223863   5.317   4.027   4.716
 7981TIP3   OH223864   3.968   3.613   4.886
 7981TIP3    H123865   3.905   3.652   4.823
 7981TIP3    H223866   3.917   3.626   4.970
 7982TIP3   OH223867   4.311   4.466   3.894
 7982TIP3    H123868   4.268   4.450   3.809
 7982TIP3    H223869   4.269   4.550   3.921
 7983TIP3   OH223870   4.877   3.720   4.250
 7983TIP3    H123871   4.848   3.684   4.335
 7983TIP3    H223872   4.920   3.803   4.277
 7984TIP3   OH223873   3.834   3.729   4.674
 7984TIP3    H123874   3.893   3.804   4.694
 7984TIP3    H223875   3.881   3.690   4.597
 7985TIP3   OH223876   3.292   4.275   4.017
 7985TIP3    H123877   3.250   4.302   3.934
 7985TIP3    H223878   3.323   4.359   4.054
 7986TIP3   OH223879   5.023   3.691   4.622
 7986TIP3    H123880   4.934   3.716   4.592
 7986TIP3    H223881   5.079   3.723   4.549
 7987TIP3   OH223882   4.325   3.336   4.608
 7987TIP3    H123883   4.303   3.241   4.619
 7987TIP3    H223884   4.246   3.376   4.651
 7988TIP3   OH223885   4.432   4.838   3.924
 7988TIP3    H123886   4.475   4.757   3.888
 7988TIP3    H223887   4.493   4.906   3.887
 7989TIP3   OH223888   4.550   4.618   3.796
 7989TIP3    H123889   4.515   4.538   3.755
 7989TIP3    H223890   4.585   4.582   3.878
 7990TIP3   OH223891   4.250   4.099   3.857
 7990TIP3    H123892   4.168   4.144   3.829
 7990TIP3    H223893   4.298   4.090   3.772
 7991TIP3   OH223894   4.210   3.880   3.582
 7991TIP3    H123895   4.281   3.932   3.623
 7991TIP3    H223896   4.262   3.817   3.529
 7992TIP3   OH223897   5.132   4.347   4.441
 7992TIP3    H123898   5.071   4.418   4.465
 7992TIP3    H223899   5.127   4.350   4.345
 7993TIP3   OH223900   4.600   4.181   3.831
 7993TIP3    H123901   4.544   4.202   3.910
 7993TIP3    H223902   4.683   4.153   3.875
 7994TIP3   OH223903   4.842   4.220   4.745
 7994TIP3    H123904   4.828   4.300   4.799
 7994TIP3    H223905   4.752   4.214   4.703
 7995TIP3   OH223906   4.097   4.703   4.941
 7995TIP3    H123907   4.036   4.767   4.984
 7995TIP3    H223908   4.035   4.652   4.889
 7996TIP3   OH223909   4.440   4.036   3.658
 7996TIP3    H123910   4.498   4.098   3.708
 7996TIP3    H223911   4.466   4.059   3.565
 7997TIP3   OH223912   4.180   4.712   3.928
 7997TIP3    H123913   4.256   4.767   3.955
 7997TIP3    H223914   4.118   4.778   3.893
 7998TIP3   OH223915   3.898   4.882   5.015
 7998TIP3    H123916   3.867   4.877   4.923
 7998TIP3    H223917   3.818   4.854   5.066
 7999TIP3   OH223918   4.951   3.280   3.708
 7999TIP3    H123919   4.869   3.303   3.755
 7999TIP3    H223920   4.967   3.363   3.657
 8000TIP3   OH223921   3.703   4.003   4.015
 8000TIP3    H123922   3.627   4.053   3.980
 8000TIP3    H223923   3.662   3.941   4.075
 8001TIP3   OH223924   4.751   4.645   3.250
 8001TIP3    H123925   4.760   4.742   3.239
 8001TIP3    H223926   4.844   4.616   3.239
 8002TIP3   OH223927   5.196   5.045   4.644
 8002TIP3    H123928   5.192   4.950   4.663
 8002TIP3    H223929   5.112   5.074   4.688
 8003TIP3   OH223930   4.263   4.835   4.764
 8003TIP3    H123931   4.298   4.916   4.805
 8003TIP3    H223932   4.215   4.794   4.839
 8004TIP3   OH223933   4.064   4.965   3.732
 8004TIP3    H123934   4.014   4.946   3.650
 8004TIP3    H223935   4.029   5.052   3.759
 8005TIP3   OH223936   3.501   4.814   4.113
 8005TIP3    H123937   3.547   4.811   4.200
 8005TIP3    H223938   3.444   4.735   4.120
 8006TIP3   OH223939   4.264   4.865   3.374
 8006TIP3    H123940   4.324   4.795   3.339
 8006TIP3    H223941   4.296   4.874   3.466
 8007TIP3   OH223942   4.314   4.911   3.644
 8007TIP3    H123943   4.225   4.923   3.683
 8007TIP3    H223944   4.361   4.870   3.719
 8008TIP3   OH223945   5.084   4.177   4.919
 8008TIP3    H123946   5.003   4.192   4.868
 8008TIP3    H223947   5.097   4.081   4.908
 8009TIP3   OH223948   4.084   3.409   4.731
 8009TIP3    H123949   3.994   3.380   4.705
 8009TIP3    H223950   4.059   3.493   4.776
 8010TIP3   OH223951   4.614   3.525   4.926
 8010TIP3    H123952   4.679   3.498   4.993
 8010TIP3    H223953   4.528   3.507   4.970
 8011TIP3   OH223954   4.861   3.957   4.850
 8011TIP3    H123955   4.805   3.951   4.931
 8011TIP3    H223956   4.828   4.038   4.807
 8012TIP3   OH223957   4.519   4.084   3.404
 8012TIP3    H123958   4.479   4.058   3.318
 8012TIP3    H223959   4.596   4.135   3.375
 8013TIP3   OH223960   4.231   3.451   3.703
 8013TIP3    H123961   4.193   3.451   3.793
 8013TIP3    H223962   4.183   3.375   3.665
 8014TIP3   OH223963   4.005   3.937   4.750
 8014TIP3    H123964   3.974   3.965   4.838
 8014TIP3    H223965   3.993   4.019   4.699
 8015TIP3   OH223966   3.895   3.801   4.262
 8015TIP3    H123967   3.801   3.783   4.282
 8015TIP3    H223968   3.903   3.765   4.172
 8016TIP3   OH223969   4.388   3.897   3.990
 8016TIP3    H123970   4.334   3.969   3.950
 8016TIP3    H223971   4.440   3.867   3.913
 8017TIP3   OH223972   4.564   4.174   5.077
 8017TIP3    H123973   4.538   4.104   5.141
 8017TIP3    H223974   4.656   4.188   5.102
 8018TIP3   OH223975   4.540   3.922   4.238
 8018TIP3    H123976   4.481   3.959   4.170
 8018TIP3    H223977   4.573   3.845   4.189
 8019TIP3   OH223978   3.891   3.436   3.670
 8019TIP3    H123979   3.875   3.432   3.766
 8019TIP3    H223980   3.812   3.486   3.641
 8020TIP3   OH223981   3.427   3.474   4.541
 8020TIP3    H123982   3.501   3.509   4.594
 8020TIP3    H223983   3.468   3.451   4.457
 8021TIP3   OH223984   3.400   3.458   4.059
 8021TIP3    H123985   3.445   3.497   3.981
 8021TIP3    H223986   3.339   3.531   4.082
 8022TIP3   OH223987   4.583   4.178   4.667
 8022TIP3    H123988   4.593   4.114   4.593
 8022TIP3    H223989   4.534   4.123   4.731
 8023TIP3   OH223990   4.225   3.619   4.326
 8023TIP3    H123991   4.137   3.628   4.368
 8023TIP3    H223992   4.283   3.648   4.398
 8024TIP3   OH223993   3.654   3.689   4.339
 8024TIP3    H123994   3.560   3.700   4.311
 8024TIP3    H223995   3.675   3.598   4.312
 8025TIP3   OH223996   3.930   3.678   4.017
 8025TIP3    H123997   4.021   3.706   3.995
 8025TIP3    H223998   3.878   3.706   3.939
 8026TIP3   OH223999   4.717   3.705   4.523
 8026TIP3    H124000   4.686   3.721   4.615
 8026TIP3    H224001   4.646   3.646   4.492
 8027TIP3   OH224002   3.771   3.717   3.801
 8027TIP3    H124003   3.698   3.673   3.754
 8027TIP3    H224004   3.821   3.754   3.726
 8028TIP3   OH224005   4.883   5.391   4.738
 8028TIP3    H124006   4.872   5.410   4.643
 8028TIP3    H224007   4.928   5.471   4.768
 8029TIP3   OH224008   3.845   4.557   5.161
 8029TIP3    H124009   3.919   4.557   5.224
 8029TIP3    H224010   3.785   4.492   5.201
 8030TIP3   OH224011   4.316   3.956   4.431
 8030TIP3    H124012   4.391   3.929   4.378
 8030TIP3    H224013   4.330   3.914   4.517
 8031TIP3   OH224014   3.833   3.450   4.302
 8031TIP3    H124015   3.796   3.371   4.347
 8031TIP3    H224016   3.873   3.412   4.223
 8032TIP3   OH224017   4.283   3.853   4.723
 8032TIP3    H124018   4.195   3.895   4.720
 8032TIP3    H224019   4.339   3.922   4.764
 8033TIP3   OH224020   4.015   4.252   3.807
 8033TIP3    H124021   3.950   4.181   3.787
 8033TIP3    H224022   3.998   4.268   3.900
 8034TIP3   OH224023   4.479   3.561   3.669
 8034TIP3    H124024   4.382   3.543   3.677
 8034TIP3    H224025   4.487   3.655   3.692
 8035TIP3   OH224026   4.409   4.545   4.824
 8035TIP3    H124027   4.434   4.569   4.914
 8035TIP3    H224028   4.392   4.632   4.784
 8036TIP3   OH224029   4.549   3.808   3.772
 8036TIP3    H124030   4.645   3.817   3.789
 8036TIP3    H224031   4.529   3.889   3.721
 8037TIP3   OH224032   4.169   4.401   3.631
 8037TIP3    H124033   4.120   4.487   3.634
 8037TIP3    H224034   4.112   4.345   3.688
 8038TIP3   OH224035   4.317   4.302   5.119
 8038TIP3    H124036   4.253   4.244   5.075
 8038TIP3    H224037   4.402   4.271   5.082
 8039TIP3   OH224038   4.991   3.899   3.609
 8039TIP3    H124039   4.929   3.855   3.546
 8039TIP3    H224040   4.987   3.989   3.569
 8040TIP3   OH224041   5.189   4.747   4.672
 8040TIP3    H124042   5.094   4.761   4.690
 8040TIP3    H224043   5.189   4.719   4.580
 8041TIP3   OH224044   4.699   4.718   3.520
 8041TIP3    H124045   4.657   4.659   3.584
 8041TIP3    H224046   4.700   4.666   3.437
 8042TIP3   OH224047   3.773   4.623   4.136
 8042TIP3    H124048   3.793   4.686   4.064
 8042TIP3    H224049   3.702   4.571   4.098
 8043TIP3   OH224050   3.378   3.878   3.812
 8043TIP3    H124051   3.424   3.962   3.834
 8043TIP3    H224052   3.301   3.883   3.873
 8044TIP3   OH224053   4.077   4.913   4.571
 8044TIP3    H124054   4.127   4.986   4.530
 8044TIP3    H224055   4.148   4.873   4.627
 8045TIP3   OH224056   3.727   4.826   3.946
 8045TIP3    H124057   3.645   4.830   3.998
 8045TIP3    H224058   3.759   4.918   3.953
 8046TIP3   OH224059   4.446   4.448   3.418
 8046TIP3    H124060   4.497   4.419   3.497
 8046TIP3    H224061   4.357   4.418   3.442
 8047TIP3   OH224062   4.786   4.921   3.238
 8047TIP3    H124063   4.818   4.995   3.183
 8047TIP3    H224064   4.706   4.963   3.275
 8048TIP3   OH224065   3.820   3.666   5.109
 8048TIP3    H124066   3.741   3.721   5.122
 8048TIP3    H224067   3.828   3.620   5.193
 8049TIP3   OH224068   4.604   4.376   3.635
 8049TIP3    H124069   4.596   4.308   3.706
 8049TIP3    H224070   4.701   4.374   3.621
 8050TIP3   OH224071   3.524   4.798   4.730
 8050TIP3    H124072   3.525   4.709   4.767
 8050TIP3    H224073   3.564   4.852   4.799
 8051TIP3   OH224074   3.814   4.426   3.418
 8051TIP3    H124075   3.824   4.333   3.388
 8051TIP3    H224076   3.792   4.413   3.512
 8052TIP3   OH224077   3.755   4.433   3.689
 8052TIP3    H124078   3.829   4.404   3.745
 8052TIP3    H224079   3.761   4.531   3.696
 8053TIP3   OH224080   3.490   4.128   3.893
 8053TIP3    H124081   3.423   4.170   3.952
 8053TIP3    H224082   3.501   4.198   3.826
 8054TIP3   OH224083   4.648   3.758   4.783
 8054TIP3    H124084   4.721   3.797   4.832
 8054TIP3    H224085   4.626   3.679   4.836
 8055TIP3   OH224086   4.532   3.508   3.949
 8055TIP3    H124087   4.509   3.534   3.858
 8055TIP3    H224088   4.564   3.592   3.987
 8056TIP3   OH224089   4.023   4.628   3.639
 8056TIP3    H124090   3.936   4.655   3.676
 8056TIP3    H224091   4.038   4.701   3.577
 8057TIP3   OH224092   4.219   3.688   4.053
 8057TIP3    H124093   4.278   3.765   4.038
 8057TIP3    H224094   4.214   3.686   4.151
 8058TIP3   OH224095   4.477   4.015   4.859
 8058TIP3    H124096   4.496   4.070   4.937
 8058TIP3    H224097   4.529   3.936   4.876
 8059TIP3   OH224098   4.358   3.421   4.160
 8059TIP3    H124099   4.335   3.500   4.213
 8059TIP3    H224100   4.416   3.461   4.091
 8060TIP3   OH224101   3.768   4.704   3.705
 8060TIP3    H124102   3.736   4.773   3.641
 8060TIP3    H224103   3.750   4.749   3.791
 8061TIP3   OH224104   3.867   3.416   3.948
 8061TIP3    H124105   3.865   3.508   3.980
 8061TIP3    H224106   3.963   3.399   3.954
 8062TIP3   OH224107   5.126   3.909   4.842
 8062TIP3    H124108   5.028   3.910   4.854
 8062TIP3    H224109   5.130   3.870   4.753
 8063TIP3   OH224110   4.784   4.084   4.211
 8063TIP3    H124111   4.696   4.062   4.247
 8063TIP3    H224112   4.844   4.048   4.279
 8064TIP3   OH224113   3.484   4.335   3.699
 8064TIP3    H124114   3.550   4.406   3.706
 8064TIP3    H224115   3.530   4.279   3.633
 8065TIP3   OH224116   3.430   3.610   3.831
 8065TIP3    H124117   3.430   3.707   3.830
 8065TIP3    H224118   3.342   3.590   3.797
 8066TIP3   OH224119   4.750   5.040   4.152
 8066TIP3    H124120   4.698   5.106   4.101
 8066TIP3    H224121   4.838   5.082   4.152
 8067TIP3   OH224122   3.820   3.331   4.705
 8067TIP3    H124123   3.786   3.299   4.619
 8067TIP3    H224124   3.806   3.253   4.763
 8068TIP3   OH224125   3.358   4.552   4.088
 8068TIP3    H124126   3.283   4.580   4.142
 8068TIP3    H224127   3.333   4.589   4.001
 8069TIP3   OH224128   3.511   5.090   5.160
 8069TIP3    H124129   3.598   5.087   5.204
 8069TIP3    H224130   3.491   4.995   5.156
 8070TIP3   OH224131   3.998   5.057   5.203
 8070TIP3    H124132   4.090   5.027   5.207
 8070TIP3    H224133   3.965   5.000   5.131
 8071TIP3   OH224134   3.976   4.630   3.332
 8071TIP3    H124135   3.918   4.559   3.369
 8071TIP3    H224136   4.050   4.575   3.300
 8072TIP3   OH224137   4.414   4.672   3.244
 8072TIP3    H124138   4.453   4.604   3.302
 8072TIP3    H224139   4.470   4.668   3.165
 8073TIP3   OH224140   3.639   4.479   5.358
 8073TIP3    H124141   3.660   4.390   5.322
 8073TIP3    H224142   3.553   4.495   5.315
 8074TIP3   OH224143   3.620   4.150   3.551
 8074TIP3    H124144   3.671   4.111   3.623
 8074TIP3    H224145   3.687   4.152   3.480
 8075TIP3   OH224146   4.254   4.581   5.134
 8075TIP3    H124147   4.206   4.601   5.051
 8075TIP3    H224148   4.278   4.487   5.122
 8076TIP3   OH224149   4.133   4.350   3.360
 8076TIP3    H124150   4.132   4.359   3.457
 8076TIP3    H224151   4.133   4.252   3.352
 8077TIP3   OH224152   3.836   4.051   3.778
 8077TIP3    H124153   3.795   4.017   3.861
 8077TIP3    H224154   3.863   3.969   3.733
 8078TIP3   OH224155   4.102   4.110   5.002
 8078TIP3    H124156   4.011   4.145   5.013
 8078TIP3    H224157   4.133   4.157   4.922
 8079TIP3   OH224158   3.927   3.843   3.615
 8079TIP3    H124159   3.900   3.847   3.521
 8079TIP3    H224160   4.024   3.847   3.607
 8080TIP3   OH224161   4.615   4.523   5.145
 8080TIP3    H124162   4.689   4.494   5.091
 8080TIP3    H224163   4.606   4.450   5.209
 8081TIP3   OH224164   4.755   4.177   3.276
 8081TIP3    H124165   4.730   4.130   3.194
 8081TIP3    H224166   4.719   4.266   3.254
 8082TIP3   OH224167   4.232   3.902   5.122
 8082TIP3    H124168   4.219   3.822   5.068
 8082TIP3    H224169   4.182   3.969   5.070
 8083TIP3   OH224170   4.224   3.683   4.937
 8083TIP3    H124171   4.249   3.731   4.855
 8083TIP3    H224172   4.130   3.663   4.919
 8084TIP3   OH224173   4.238   4.236   4.793
 8084TIP3    H124174   4.326   4.227   4.755
 8084TIP3    H224175   4.212   4.323   4.761
 8085TIP3   OH224176   4.834   4.191   5.192
 8085TIP3    H124177   4.883   4.108   5.195
 8085TIP3    H224178   4.900   4.253   5.158
 8086TIP3   OH224179   4.868   4.457   4.917
 8086TIP3    H124180   4.812   4.521   4.871
 8086TIP3    H224181   4.955   4.473   4.875
 8087TIP3   OH224182   4.114   4.009   5.365
 8087TIP3    H124183   4.026   3.968   5.376
 8087TIP3    H224184   4.132   3.992   5.271
 8088TIP3   OH224185   4.355   3.451   5.003
 8088TIP3    H124186   4.307   3.533   4.980
 8088TIP3    H224187   4.285   3.384   4.992
 8089TIP3   OH224188   4.483   3.956   5.220
 8089TIP3    H124189   4.461   3.946   5.314
 8089TIP3    H224190   4.395   3.934   5.182
 8090TIP3   OH224191   4.719   3.904   5.074
 8090TIP3    H124192   4.642   3.911   5.134
 8090TIP3    H224193   4.789   3.874   5.135
 8091TIP3   OH224194   4.962   3.849   5.227
 8091TIP3    H124195   4.964   3.753   5.245
 8091TIP3    H224196   4.950   3.888   5.316
 8092TIP3   OH224197   3.926   3.796   5.414
 8092TIP3    H124198   3.939   3.708   5.375
 8092TIP3    H224199   3.966   3.785   5.502
 8093TIP3   OH224200   4.451   3.462   5.260
 8093TIP3    H124201   4.516   3.389   5.251
 8093TIP3    H224202   4.408   3.459   5.172
 8094TIP3   OH224203   4.517   3.677   5.420
 8094TIP3    H124204   4.493   3.608   5.355
 8094TIP3    H224205   4.440   3.738   5.415
 8095TIP3   OH224206   3.736   4.908   3.519
 8095TIP3    H124207   3.831   4.903   3.499
 8095TIP3    H224208   3.705   4.956   3.441
 8096TIP3   OH224209   3.215   4.289   3.735
 8096TIP3    H124210   3.310   4.310   3.721
 8096TIP3    H224211   3.209   4.199   3.696
 8097TIP3   OH224212   3.130   4.903   4.147
 8097TIP3    H124213   3.063   4.840   4.112
 8097TIP3    H224214   3.175   4.846   4.214
 8098TIP3   OH224215   3.269   4.757   4.333
 8098TIP3    H124216   3.252   4.683   4.391
 8098TIP3    H224217   3.316   4.818   4.393
 8099TIP3   OH224218   4.995   5.157   4.131
 8099TIP3    H124219   5.014   5.180   4.223
 8099TIP3    H224220   5.049   5.220   4.081
 8100TIP3   OH224221   5.037   5.168   4.410
 8100TIP3    H124222   4.966   5.099   4.408
 8100TIP3    H224223   5.088   5.133   4.485
 8101TIP3   OH224224   5.072   4.847   4.987
 8101TIP3    H124225   4.996   4.856   5.048
 8101TIP3    H224226   5.112   4.936   4.996
 8102TIP3   OH224227   4.883   4.364   3.610
 8102TIP3    H124228   4.954   4.426   3.582
 8102TIP3    H224229   4.925   4.323   3.689
 8103TIP3   OH224230   5.008   4.234   3.811
 8103TIP3    H124231   4.948   4.186   3.871
 8103TIP3    H224232   5.083   4.258   3.869
 8104TIP3   OH224233   4.892   4.941   4.464
 8104TIP3    H124234   4.829   4.915   4.535
 8104TIP3    H224235   4.894   4.856   4.418
 8105TIP3   OH224236   4.952   4.138   3.462
 8105TIP3    H124237   4.881   4.140   3.393
 8105TIP3    H224238   4.922   4.213   3.517
 8106TIP3   OH224239   4.827   3.809   3.412
 8106TIP3    H124240   4.776   3.850   3.341
 8106TIP3    H224241   4.800   3.715   3.403
 8107TIP3   OH224242   4.832   4.083   3.950
 8107TIP3    H124243   4.834   3.986   3.945
 8107TIP3    H224244   4.816   4.095   4.047
 8108TIP3   OH224245   5.117   4.512   4.813
 8108TIP3    H124246   5.190   4.446   4.814
 8108TIP3    H224247   5.155   4.584   4.759
 8109TIP3   OH224248   5.304   4.323   4.861
 8109TIP3    H124249   5.227   4.268   4.887
 8109TIP3    H224250   5.374   4.255   4.856
 8110TIP3   OH224251   4.767   3.543   3.400
 8110TIP3    H124252   4.836   3.512   3.461
 8110TIP3    H224253   4.689   3.489   3.422
 8111TIP3   OH224254   4.824   3.803   3.856
 8111TIP3    H124255   4.864   3.714   3.871
 8111TIP3    H224256   4.883   3.835   3.785
 8112TIP3   OH224257   4.988   3.966   4.360
 8112TIP3    H124258   5.069   3.998   4.315
 8112TIP3    H224259   4.997   4.010   4.446
 8113TIP3   OH224260   5.057   4.121   4.584
 8113TIP3    H124261   4.977   4.150   4.633
 8113TIP3    H224262   5.084   4.204   4.540
 8114TIP3   OH224263   3.659   3.835   5.359
 8114TIP3    H124264   3.756   3.844   5.370
 8114TIP3    H224265   3.642   3.759   5.418
 8115TIP3   OH224266   5.514   3.715   5.141
 8115TIP3    H124267   5.569   3.647   5.096
 8115TIP3    H224268   5.478   3.766   5.065
 8116TIP3   OH224269   4.934   3.551   3.892
 8116TIP3    H124270   4.980   3.538   3.978
 8116TIP3    H224271   4.870   3.478   3.894
 8117TIP3   OH224272   3.632   3.539   4.715
 8117TIP3    H124273   3.697   3.466   4.725
 8117TIP3    H224274   3.693   3.615   4.706
 8118TIP3   OH224275   5.376   3.850   4.949
 8118TIP3    H124276   5.290   3.892   4.966
 8118TIP3    H224277   5.347   3.780   4.887
 8119TIP3   OH224278   5.015   3.484   3.530
 8119TIP3    H124279   5.055   3.415   3.474
 8119TIP3    H224280   5.079   3.558   3.523
 8120TIP3   OH224281   3.417   3.308   4.284
 8120TIP3    H124282   3.325   3.309   4.318
 8120TIP3    H224283   3.412   3.372   4.210
 8121TIP3   OH224284   4.577   5.023   3.791
 8121TIP3    H124285   4.632   5.007   3.712
 8121TIP3    H224286   4.629   5.089   3.840
 8122TIP3   OH224287   3.641   3.378   5.102
 8122TIP3    H124288   3.592   3.387   5.186
 8122TIP3    H224289   3.580   3.427   5.042
 8123TIP3   OH224290   3.672   4.837   5.177
 8123TIP3    H124291   3.582   4.800   5.167
 8123TIP3    H224292   3.703   4.790   5.255
 8124TIP3   OH224293   3.855   4.859   4.739
 8124TIP3    H124294   3.813   4.933   4.691
 8124TIP3    H224295   3.940   4.857   4.692
 8125TIP3   OH224296   4.300   5.106   4.872
 8125TIP3    H124297   4.351   5.099   4.955
 8125TIP3    H224298   4.366   5.145   4.811
 8126TIP3   OH224299   4.478   5.239   4.707
 8126TIP3    H124300   4.535   5.162   4.688
 8126TIP3    H224301   4.535   5.292   4.766
 8127TIP3   OH224302   5.275   3.614   4.823
 8127TIP3    H124303   5.185   3.612   4.787
 8127TIP3    H224304   5.303   3.521   4.811
 8128TIP3   OH224305   3.534   5.121   4.746
 8128TIP3    H124306   3.443   5.153   4.726
 8128TIP3    H224307   3.540   5.143   4.839
 8129TIP3   OH224308   3.771   5.093   4.608
 8129TIP3    H124309   3.684   5.104   4.653
 8129TIP3    H224310   3.750   5.123   4.518
 8130TIP3   OH224311   4.185   5.121   4.411
 8130TIP3    H124312   4.120   5.145   4.343
 8130TIP3    H224313   4.204   5.208   4.452
 8131TIP3   OH224314   4.463   5.090   4.374
 8131TIP3    H124315   4.375   5.072   4.411
 8131TIP3    H224316   4.501   5.150   4.439
 8132TIP3   OH224317   4.709   5.270   4.368
 8132TIP3    H124318   4.664   5.338   4.315
 8132TIP3    H224319   4.680   5.187   4.326
 8133TIP3   OH224320   3.438   4.910   4.497
 8133TIP3    H124321   3.465   4.883   4.588
 8133TIP3    H224322   3.512   4.870   4.447
 8134TIP3   OH224323   3.635   4.791   4.352
 8134TIP3    H124324   3.653   4.696   4.350
 8134TIP3    H224325   3.726   4.828   4.346
 8135TIP3   OH224326   3.903   4.874   4.358
 8135TIP3    H124327   3.962   4.807   4.320
 8135TIP3    H224328   3.950   4.892   4.442
 8136TIP3   OH224329   4.493   3.532   4.455
 8136TIP3    H124330   4.435   3.468   4.500
 8136TIP3    H224331   4.548   3.476   4.398
 8137TIP3   OH224332   5.007   3.402   4.344
 8137TIP3    H124333   5.041   3.460   4.272
 8137TIP3    H224334   4.911   3.424   4.342
 8138TIP3   OH224335   5.099   3.508   4.109
 8138TIP3    H124336   5.175   3.461   4.068
 8138TIP3    H224337   5.129   3.601   4.097
 8139TIP3   OH224338   3.730   3.237   4.457
 8139TIP3    H124339   3.637   3.206   4.459
 8139TIP3    H224340   3.777   3.152   4.452
 8140TIP3   OH224341   3.515   3.105   4.109
 8140TIP3    H124342   3.540   3.162   4.035
 8140TIP3    H224343   3.484   3.171   4.175
 8141TIP3   OH224344   4.178   3.263   4.339
 8141TIP3    H124345   4.230   3.322   4.282
 8141TIP3    H224346   4.177   3.313   4.422
 8142TIP3   OH224347   4.730   3.414   4.321
 8142TIP3    H124348   4.704   3.385   4.233
 8142TIP3    H224349   4.708   3.335   4.376
 8143TIP3   OH224350   4.746   3.339   3.885
 8143TIP3    H124351   4.664   3.390   3.901
 8143TIP3    H224352   4.728   3.258   3.936
 8144TIP3   OH224353   3.233   4.677   3.886
 8144TIP3    H124354   3.148   4.644   3.852
 8144TIP3    H224355   3.221   4.772   3.868
 8145TIP3   OH224356   3.631   3.267   3.868
 8145TIP3    H124357   3.683   3.205   3.813
 8145TIP3    H224358   3.701   3.322   3.907
 8146TIP3   OH224359   4.146   3.440   3.969
 8146TIP3    H124360   4.205   3.396   4.033
 8146TIP3    H224361   4.163   3.534   3.992
 8147TIP3   OH224362   4.004   4.867   3.467
 8147TIP3    H124363   4.092   4.889   3.431
 8147TIP3    H224364   3.982   4.792   3.407
 8148TIP3   OH224365   4.728   4.986   3.560
 8148TIP3    H124366   4.720   4.888   3.551
 8148TIP3    H224367   4.677   5.016   3.483
 8149TIP3   OH224368   3.936   3.513   5.349
 8149TIP3    H124369   3.900   3.445   5.409
 8149TIP3    H224370   4.029   3.517   5.378
 8150TIP3   OH224371   4.186   3.516   5.471
 8150TIP3    H124372   4.269   3.489   5.429
 8150TIP3    H224373   4.171   3.444   5.536
 8151TIP3   OH224374   3.309   4.706   3.524
 8151TIP3    H124375   3.306   4.729   3.618
 8151TIP3    H224376   3.397   4.664   3.515
 8152TIP3   OH224377   5.011   3.575   5.256
 8152TIP3    H124378   5.029   3.545   5.348
 8152TIP3    H224379   5.099   3.571   5.215
 8153TIP3   OH224380   4.953   5.121   4.744
 8153TIP3    H124381   4.873   5.069   4.724
 8153TIP3    H224382   4.918   5.213   4.745
 8154TIP3   OH224383   6.220   4.510   3.507
 8154TIP3    H124384   6.179   4.597   3.485
 8154TIP3    H224385   6.144   4.451   3.495
 8155TIP3   OH224386   6.493   4.773   3.615
 8155TIP3    H124387   6.408   4.727   3.628
 8155TIP3    H224388   6.473   4.865   3.639
 8156TIP3   OH224389   5.192   4.005   3.770
 8156TIP3    H124390   5.150   4.091   3.786
 8156TIP3    H224391   5.117   3.956   3.732
 8157TIP3   OH224392   5.251   4.282   3.919
 8157TIP3    H124393   5.303   4.218   3.972
 8157TIP3    H224394   5.321   4.329   3.871
 8158TIP3   OH224395   6.104   5.268   3.588
 8158TIP3    H124396   6.157   5.195   3.551
 8158TIP3    H224397   6.086   5.238   3.678
 8159TIP3   OH224398   6.986   4.076   3.927
 8159TIP3    H124399   7.049   4.126   3.981
 8159TIP3    H224400   7.042   4.050   3.852
 8160TIP3   OH224401   5.761   3.887   3.944
 8160TIP3    H124402   5.743   3.958   3.880
 8160TIP3    H224403   5.715   3.813   3.899
 8161TIP3   OH224404   6.457   3.978   3.563
 8161TIP3    H124405   6.526   3.959   3.631
 8161TIP3    H224406   6.512   4.016   3.493
 8162TIP3   OH224407   5.399   4.094   4.053
 8162TIP3    H124408   5.483   4.068   4.095
 8162TIP3    H224409   5.406   4.040   3.971
 8163TIP3   OH224410   5.831   4.267   3.839
 8163TIP3    H124411   5.922   4.236   3.856
 8163TIP3    H224412   5.789   4.187   3.803
 8164TIP3   OH224413   7.114   4.255   4.112
 8164TIP3    H124414   7.028   4.294   4.087
 8164TIP3    H224415   7.100   4.249   4.208
 8165TIP3   OH224416   5.750   3.871   4.378
 8165TIP3    H124417   5.689   3.906   4.310
 8165TIP3    H224418   5.699   3.891   4.459
 8166TIP3   OH224419   6.114   4.732   3.384
 8166TIP3    H124420   6.062   4.698   3.309
 8166TIP3    H224421   6.065   4.815   3.403
 8167TIP3   OH224422   6.667   3.973   3.735
 8167TIP3    H124423   6.645   3.935   3.821
 8167TIP3    H224424   6.723   4.048   3.759
 8168TIP3   OH224425   5.632   3.990   4.160
 8168TIP3    H124426   5.700   4.058   4.182
 8168TIP3    H224427   5.678   3.945   4.085
 8169TIP3   OH224428   5.090   4.530   3.504
 8169TIP3    H124429   5.045   4.557   3.422
 8169TIP3    H224430   5.120   4.615   3.541
 8170TIP3   OH224431   6.536   5.043   3.750
 8170TIP3    H124432   6.448   5.035   3.794
 8170TIP3    H224433   6.525   5.127   3.701
 8171TIP3   OH224434   6.818   3.959   4.119
 8171TIP3    H124435   6.728   3.959   4.080
 8171TIP3    H224436   6.873   3.986   4.043
 8172TIP3   OH224437   6.117   3.591   4.088
 8172TIP3    H124438   6.103   3.497   4.106
 8172TIP3    H224439   6.040   3.630   4.136
 8173TIP3   OH224440   6.244   5.093   3.431
 8173TIP3    H124441   6.286   5.010   3.399
 8173TIP3    H224442   6.300   5.158   3.383
 8174TIP3   OH224443   6.377   4.876   3.327
 8174TIP3    H124444   6.328   4.808   3.278
 8174TIP3    H224445   6.423   4.823   3.392
 8175TIP3   OH224446   6.761   4.976   4.084
 8175TIP3    H124447   6.745   4.910   4.016
 8175TIP3    H224448   6.739   5.058   4.037
 8176TIP3   OH224449   6.046   4.353   3.344
 8176TIP3    H124450   5.965   4.404   3.325
 8176TIP3    H224451   6.089   4.350   3.257
 8177TIP3   OH224452   6.004   4.138   3.060
 8177TIP3    H124453   6.072   4.188   3.110
 8177TIP3    H224454   6.061   4.074   3.014
 8178TIP3   OH224455   6.929   4.611   3.934
 8178TIP3    H124456   6.969   4.691   3.971
 8178TIP3    H224457   6.976   4.605   3.848
 8179TIP3   OH224458   6.397   4.437   3.315
 8179TIP3    H124459   6.338   4.460   3.390
 8179TIP3    H224460   6.477   4.407   3.363
 8180TIP3   OH224461   5.644   4.431   3.704
 8180TIP3    H124462   5.594   4.364   3.655
 8180TIP3    H224463   5.699   4.378   3.765
 8181TIP3   OH224464   6.299   5.030   3.874
 8181TIP3    H124465   6.277   5.118   3.912
 8181TIP3    H224466   6.249   4.969   3.930
 8182TIP3   OH224467   5.884   4.993   4.365
 8182TIP3    H124468   5.853   5.044   4.442
 8182TIP3    H224469   5.839   4.909   4.381
 8183TIP3   OH224470   6.236   4.293   3.142
 8183TIP3    H124471   6.293   4.354   3.194
 8183TIP3    H224472   6.262   4.317   3.050
 8184TIP3   OH224473   5.983   4.973   3.409
 8184TIP3    H124474   6.048   5.034   3.446
 8184TIP3    H224475   5.911   5.030   3.382
 8185TIP3   OH224476   5.678   5.130   4.499
 8185TIP3    H124477   5.620   5.137   4.423
 8185TIP3    H224478   5.612   5.117   4.571
 8186TIP3   OH224479   6.750   3.535   3.191
 8186TIP3    H124480   6.668   3.554   3.242
 8186TIP3    H224481   6.762   3.619   3.143
 8187TIP3   OH224482   5.492   4.266   3.529
 8187TIP3    H124483   5.425   4.315   3.478
 8187TIP3    H224484   5.445   4.185   3.551
 8188TIP3   OH224485   6.549   4.902   2.739
 8188TIP3    H124486   6.559   4.999   2.725
 8188TIP3    H224487   6.642   4.872   2.727
 8189TIP3   OH224488   6.992   5.304   4.135
 8189TIP3    H124489   6.990   5.208   4.152
 8189TIP3    H224490   6.909   5.331   4.179
 8190TIP3   OH224491   5.860   5.224   3.218
 8190TIP3    H124492   5.808   5.202   3.138
 8190TIP3    H224493   5.822   5.310   3.245
 8191TIP3   OH224494   5.299   5.067   3.605
 8191TIP3    H124495   5.339   5.048   3.691
 8191TIP3    H224496   5.237   4.992   3.597
 8192TIP3   OH224497   6.059   5.121   2.861
 8192TIP3    H124498   6.119   5.051   2.826
 8192TIP3    H224499   6.093   5.130   2.953
 8193TIP3   OH224500   6.110   5.168   3.130
 8193TIP3    H124501   6.022   5.179   3.171
 8193TIP3    H224502   6.158   5.123   3.202
 8194TIP3   OH224503   6.886   4.436   4.414
 8194TIP3    H124504   6.792   4.434   4.392
 8194TIP3    H224505   6.909   4.342   4.403
 8195TIP3   OH224506   5.879   3.662   4.219
 8195TIP3    H124507   5.786   3.640   4.196
 8195TIP3    H224508   5.865   3.747   4.265
 8196TIP3   OH224509   6.409   3.782   4.408
 8196TIP3    H124510   6.478   3.759   4.473
 8196TIP3    H224511   6.326   3.767   4.459
 8197TIP3   OH224512   6.662   4.262   4.342
 8197TIP3    H124513   6.633   4.223   4.428
 8197TIP3    H224514   6.577   4.263   4.297
 8198TIP3   OH224515   6.312   4.345   2.888
 8198TIP3    H124516   6.276   4.316   2.802
 8198TIP3    H224517   6.394   4.389   2.860
 8199TIP3   OH224518   6.024   3.716   3.190
 8199TIP3    H124519   5.991   3.713   3.283
 8199TIP3    H224520   5.985   3.634   3.156
 8200TIP3   OH224521   5.810   4.196   4.239
 8200TIP3    H124522   5.750   4.207   4.316
 8200TIP3    H224523   5.785   4.269   4.180
 8201TIP3   OH224524   5.689   4.057   3.748
 8201TIP3    H124525   5.595   4.034   3.766
 8201TIP3    H224526   5.701   4.017   3.659
 8202TIP3   OH224527   6.184   4.155   3.474
 8202TIP3    H124528   6.130   4.225   3.432
 8202TIP3    H224529   6.237   4.122   3.399
 8203TIP3   OH224530   6.356   4.442   4.595
 8203TIP3    H124531   6.311   4.354   4.605
 8203TIP3    H224532   6.448   4.415   4.604
 8204TIP3   OH224533   6.313   4.173   3.725
 8204TIP3    H124534   6.268   4.202   3.643
 8204TIP3    H224535   6.366   4.100   3.690
 8205TIP3   OH224536   5.646   4.207   4.457
 8205TIP3    H124537   5.628   4.261   4.534
 8205TIP3    H224538   5.628   4.118   4.492
 8206TIP3   OH224539   5.678   3.688   3.155
 8206TIP3    H124540   5.671   3.687   3.252
 8206TIP3    H224541   5.600   3.742   3.132
 8207TIP3   OH224542   5.224   3.732   4.026
 8207TIP3    H124543   5.298   3.765   4.080
 8207TIP3    H224544   5.266   3.703   3.944
 8208TIP3   OH224545   5.195   3.715   3.546
 8208TIP3    H124546   5.241   3.753   3.468
 8208TIP3    H224547   5.134   3.788   3.567
 8209TIP3   OH224548   6.015   3.885   3.809
 8209TIP3    H124549   5.937   3.887   3.868
 8209TIP3    H224550   6.088   3.892   3.873
 8210TIP3   OH224551   5.451   3.945   3.825
 8210TIP3    H124552   5.357   3.953   3.795
 8210TIP3    H224553   5.475   3.855   3.799
 8211TIP3   OH224554   5.725   3.938   3.507
 8211TIP3    H124555   5.818   3.958   3.488
 8211TIP3    H224556   5.678   3.964   3.424
 8212TIP3   OH224557   6.540   3.949   4.011
 8212TIP3    H124558   6.502   3.979   4.097
 8212TIP3    H224559   6.461   3.909   3.971
 8213TIP3   OH224560   5.566   3.975   3.288
 8213TIP3    H124561   5.492   3.932   3.241
 8213TIP3    H224562   5.616   4.011   3.212
 8214TIP3   OH224563   6.682   5.653   4.232
 8214TIP3    H124564   6.679   5.677   4.138
 8214TIP3    H224565   6.756   5.708   4.264
 8215TIP3   OH224566   6.091   4.193   3.901
 8215TIP3    H124567   6.175   4.179   3.852
 8215TIP3    H224568   6.109   4.150   3.986
 8216TIP3   OH224569   5.627   3.707   3.787
 8216TIP3    H124570   5.593   3.628   3.834
 8216TIP3    H224571   5.680   3.669   3.717
 8217TIP3   OH224572   6.073   4.105   4.202
 8217TIP3    H124573   5.985   4.146   4.215
 8217TIP3    H224574   6.126   4.142   4.274
 8218TIP3   OH224575   5.817   4.507   3.294
 8218TIP3    H124576   5.746   4.440   3.286
 8218TIP3    H224577   5.800   4.542   3.385
 8219TIP3   OH224578   6.274   3.821   3.150
 8219TIP3    H124579   6.178   3.801   3.164
 8219TIP3    H224580   6.283   3.913   3.181
 8220TIP3   OH224581   6.251   4.863   4.320
 8220TIP3    H124582   6.255   4.789   4.382
 8220TIP3    H224583   6.157   4.872   4.304
 8221TIP3   OH224584   6.346   4.065   3.258
 8221TIP3    H124585   6.442   4.071   3.276
 8221TIP3    H224586   6.328   4.146   3.207
 8222TIP3   OH224587   5.961   4.655   3.114
 8222TIP3    H124588   5.914   4.741   3.122
 8222TIP3    H224589   5.907   4.600   3.176
 8223TIP3   OH224590   6.115   4.568   4.601
 8223TIP3    H124591   6.050   4.504   4.563
 8223TIP3    H224592   6.200   4.520   4.587
 8224TIP3   OH224593   6.391   5.102   4.174
 8224TIP3    H124594   6.310   5.056   4.199
 8224TIP3    H224595   6.416   5.142   4.260
 8225TIP3   OH224596   6.786   4.155   3.097
 8225TIP3    H124597   6.724   4.111   3.034
 8225TIP3    H224598   6.784   4.244   3.056
 8226TIP3   OH224599   7.010   5.010   4.179
 8226TIP3    H124600   6.912   5.011   4.179
 8226TIP3    H224601   7.026   4.980   4.087
 8227TIP3   OH224602   6.487   4.974   3.004
 8227TIP3    H124603   6.462   4.902   3.064
 8227TIP3    H224604   6.500   4.928   2.919
 8228TIP3   OH224605   5.609   4.830   3.580
 8228TIP3    H124606   5.601   4.917   3.539
 8228TIP3    H224607   5.519   4.810   3.606
 8229TIP3   OH224608   5.174   4.135   3.299
 8229TIP3    H124609   5.219   4.220   3.320
 8229TIP3    H224610   5.096   4.139   3.360
 8230TIP3   OH224611   5.763   4.606   3.537
 8230TIP3    H124612   5.718   4.690   3.560
 8230TIP3    H224613   5.723   4.545   3.603
 8231TIP3   OH224614   5.526   5.074   3.442
 8231TIP3    H124615   5.442   5.080   3.491
 8231TIP3    H224616   5.559   5.167   3.449
 8232TIP3   OH224617   6.241   4.705   2.906
 8232TIP3    H124618   6.294   4.679   2.985
 8232TIP3    H224619   6.154   4.674   2.932
 8233TIP3   OH224620   6.519   5.345   4.073
 8233TIP3    H124621   6.442   5.284   4.070
 8233TIP3    H224622   6.498   5.408   3.999
 8234TIP3   OH224623   6.583   5.178   2.726
 8234TIP3    H124624   6.623   5.252   2.678
 8234TIP3    H224625   6.502   5.222   2.758
 8235TIP3   OH224626   5.596   3.957   4.592
 8235TIP3    H124627   5.500   3.958   4.608
 8235TIP3    H224628   5.627   3.895   4.661
 8236TIP3   OH224629   6.403   4.641   3.124
 8236TIP3    H124630   6.391   4.572   3.192
 8236TIP3    H224631   6.500   4.634   3.109
 8237TIP3   OH224632   5.349   5.047   4.222
 8237TIP3    H124633   5.317   4.956   4.219
 8237TIP3    H224634   5.315   5.080   4.306
 8238TIP3   OH224635   5.608   4.684   2.905
 8238TIP3    H124636   5.621   4.591   2.877
 8238TIP3    H224637   5.590   4.671   3.001
 8239TIP3   OH224638   5.554   4.689   3.177
 8239TIP3    H124639   5.620   4.657   3.240
 8239TIP3    H224640   5.561   4.787   3.187
 8240TIP3   OH224641   5.289   4.382   3.381
 8240TIP3    H124642   5.223   4.425   3.439
 8240TIP3    H224643   5.302   4.452   3.314
 8241TIP3   OH224644   6.446   4.018   4.264
 8241TIP3    H124645   6.489   4.055   4.342
 8241TIP3    H224646   6.407   3.938   4.304
 8242TIP3   OH224647   6.321   3.768   3.437
 8242TIP3    H124648   6.307   3.795   3.345
 8242TIP3    H224649   6.358   3.850   3.477
 8243TIP3   OH224650   5.821   4.886   3.126
 8243TIP3    H124651   5.734   4.910   3.164
 8243TIP3    H224652   5.833   4.957   3.062
 8244TIP3   OH224653   6.008   3.950   3.540
 8244TIP3    H124654   6.073   4.022   3.526
 8244TIP3    H224655   6.012   3.939   3.638
 8245TIP3   OH224656   6.152   3.674   3.642
 8245TIP3    H124657   6.150   3.747   3.707
 8245TIP3    H224658   6.212   3.712   3.574
 8246TIP3   OH224659   5.566   4.964   3.192
 8246TIP3    H124660   5.531   5.034   3.134
 8246TIP3    H224661   5.548   5.002   3.281
 8247TIP3   OH224662   5.664   3.674   3.431
 8247TIP3    H124663   5.662   3.765   3.468
 8247TIP3    H224664   5.760   3.656   3.440
 8248TIP3   OH224665   6.921   4.167   4.318
 8248TIP3    H124666   6.825   4.183   4.329
 8248TIP3    H224667   6.917   4.099   4.249
 8249TIP3   OH224668   5.281   4.592   3.186
 8249TIP3    H124669   5.349   4.661   3.197
 8249TIP3    H224670   5.327   4.536   3.119
 8250TIP3   OH224671   5.225   3.866   3.319
 8250TIP3    H124672   5.224   3.964   3.316
 8250TIP3    H224673   5.139   3.845   3.281
 8251TIP3   OH224674   6.538   5.314   3.666
 8251TIP3    H124675   6.494   5.361   3.591
 8251TIP3    H224676   6.632   5.335   3.645
 8252TIP3   OH224677   5.610   3.588   4.195
 8252TIP3    H124678   5.582   3.554   4.107
 8252TIP3    H224679   5.603   3.509   4.252
 8253TIP3   OH224680   5.153   4.814   3.575
 8253TIP3    H124681   5.078   4.836   3.630
 8253TIP3    H224682   5.122   4.847   3.487
 8254TIP3   OH224683   5.344   5.351   4.656
 8254TIP3    H124684   5.406   5.278   4.676
 8254TIP3    H224685   5.261   5.302   4.656
 8255TIP3   OH224686   5.787   5.333   4.665
 8255TIP3    H124687   5.873   5.310   4.702
 8255TIP3    H224688   5.770   5.258   4.605
 8256TIP3   OH224689   5.772   4.886   2.819
 8256TIP3    H124690   5.714   4.816   2.857
 8256TIP3    H224691   5.847   4.832   2.790
 8257TIP3   OH224692   6.435   5.212   4.420
 8257TIP3    H124693   6.420   5.146   4.492
 8257TIP3    H224694   6.507   5.267   4.457
 8258TIP3   OH224695   6.209   4.929   2.731
 8258TIP3    H124696   6.249   4.863   2.791
 8258TIP3    H224697   6.268   4.924   2.653
 8259TIP3   OH224698   5.435   4.763   4.841
 8259TIP3    H124699   5.479   4.677   4.828
 8259TIP3    H224700   5.349   4.748   4.800
 8260TIP3   OH224701   5.417   4.406   3.039
 8260TIP3    H124702   5.470   4.370   3.112
 8260TIP3    H224703   5.486   4.409   2.968
 8261TIP3   OH224704   6.044   4.835   4.613
 8261TIP3    H124705   6.017   4.832   4.521
 8261TIP3    H224706   6.082   4.745   4.624
 8262TIP3   OH224707   5.926   4.604   2.845
 8262TIP3    H124708   5.928   4.614   2.943
 8262TIP3    H224709   5.926   4.506   2.838
 8263TIP3   OH224710   6.549   4.835   4.214
 8263TIP3    H124711   6.600   4.915   4.193
 8263TIP3    H224712   6.459   4.871   4.223
 8264TIP3   OH224713   5.574   4.505   4.817
 8264TIP3    H124714   5.622   4.422   4.814
 8264TIP3    H224715   5.589   4.532   4.910
 8265TIP3   OH224716   5.626   4.308   3.263
 8265TIP3    H124717   5.595   4.270   3.347
 8265TIP3    H224718   5.660   4.230   3.215
 8266TIP3   OH224719   5.911   4.425   4.483
 8266TIP3    H124720   5.819   4.433   4.507
 8266TIP3    H224721   5.909   4.377   4.399
 8267TIP3   OH224722   5.724   4.100   3.102
 8267TIP3    H124723   5.698   4.104   3.007
 8267TIP3    H224724   5.821   4.104   3.095
 8268TIP3   OH224725   6.414   4.776   4.626
 8268TIP3    H124726   6.488   4.741   4.575
 8268TIP3    H224727   6.397   4.704   4.688
 8269TIP3   OH224728   6.547   4.433   2.764
 8269TIP3    H124729   6.526   4.386   2.681
 8269TIP3    H224730   6.513   4.522   2.740
 8270TIP3   OH224731   6.019   3.899   4.384
 8270TIP3    H124732   6.043   3.970   4.321
 8270TIP3    H224733   5.923   3.910   4.392
 8271TIP3   OH224734   6.638   4.449   4.688
 8271TIP3    H124735   6.671   4.358   4.685
 8271TIP3    H224736   6.708   4.498   4.643
 8272TIP3   OH224737   6.674   4.708   4.422
 8272TIP3    H124738   6.613   4.744   4.355
 8272TIP3    H224739   6.759   4.721   4.373
 8273TIP3   OH224740   5.893   4.278   4.837
 8273TIP3    H124741   5.834   4.201   4.844
 8273TIP3    H224742   5.937   4.263   4.751
 8274TIP3   OH224743   6.157   3.700   4.496
 8274TIP3    H124744   6.111   3.781   4.461
 8274TIP3    H224745   6.087   3.634   4.483
 8275TIP3   OH224746   6.534   4.165   4.554
 8275TIP3    H124747   6.438   4.156   4.577
 8275TIP3    H224748   6.578   4.124   4.630
 8276TIP3   OH224749   6.768   4.107   4.717
 8276TIP3    H124750   6.768   4.010   4.731
 8276TIP3    H224751   6.754   4.142   4.807
 8277TIP3   OH224752   5.736   4.053   4.895
 8277TIP3    H124753   5.741   3.961   4.861
 8277TIP3    H224754   5.770   4.041   4.986
 8278TIP3   OH224755   6.242   3.710   4.754
 8278TIP3    H124756   6.312   3.643   4.742
 8278TIP3    H224757   6.206   3.714   4.663
 8279TIP3   OH224758   6.306   3.932   4.907
 8279TIP3    H124759   6.284   3.866   4.838
 8279TIP3    H224760   6.249   4.008   4.882
 8280TIP3   OH224761   5.535   5.182   3.010
 8280TIP3    H124762   5.627   5.163   2.986
 8280TIP3    H224763   5.499   5.208   2.923
 8281TIP3   OH224764   5.012   4.546   3.221
 8281TIP3    H124765   5.107   4.566   3.208
 8281TIP3    H224766   5.005   4.457   3.182
 8282TIP3   OH224767   4.930   5.160   3.632
 8282TIP3    H124768   4.861   5.099   3.598
 8282TIP3    H224769   4.973   5.103   3.700
 8283TIP3   OH224770   5.067   5.014   3.820
 8283TIP3    H124771   5.040   4.937   3.871
 8283TIP3    H224772   5.111   5.068   3.889
 8284TIP3   OH224773   6.787   5.413   3.623
 8284TIP3    H124774   6.817   5.445   3.710
 8284TIP3    H224775   6.852   5.453   3.563
 8285TIP3   OH224776   6.820   5.431   3.905
 8285TIP3    H124777   6.776   5.344   3.900
 8285TIP3    H224778   6.896   5.408   3.961
 8286TIP3   OH224779   6.866   5.103   4.477
 8286TIP3    H124780   6.792   5.112   4.540
 8286TIP3    H224781   6.906   5.192   4.482
 8287TIP3   OH224782   6.681   4.621   3.099
 8287TIP3    H124783   6.750   4.683   3.068
 8287TIP3    H224784   6.724   4.581   3.178
 8288TIP3   OH224785   6.806   4.487   3.304
 8288TIP3    H124786   6.744   4.441   3.364
 8288TIP3    H224787   6.876   4.520   3.365
 8289TIP3   OH224788   6.693   5.186   3.930
 8289TIP3    H124789   6.622   5.231   3.980
 8289TIP3    H224790   6.642   5.141   3.860
 8290TIP3   OH224791   6.747   4.395   2.948
 8290TIP3    H124792   6.676   4.396   2.880
 8290TIP3    H224793   6.718   4.471   3.003
 8291TIP3   OH224794   6.619   4.068   2.902
 8291TIP3    H124795   6.575   4.103   2.824
 8291TIP3    H224796   6.595   3.973   2.896
 8292TIP3   OH224797   6.624   4.335   3.459
 8292TIP3    H124798   6.632   4.243   3.430
 8292TIP3    H224799   6.604   4.324   3.553
 8293TIP3   OH224800   6.913   4.766   4.294
 8293TIP3    H124801   6.985   4.699   4.293
 8293TIP3    H224802   6.952   4.840   4.246
 8294TIP3   OH224803   7.100   4.576   4.326
 8294TIP3    H124804   7.025   4.523   4.362
 8294TIP3    H224805   7.173   4.512   4.342
 8295TIP3   OH224806   6.562   3.803   2.889
 8295TIP3    H124807   6.637   3.771   2.943
 8295TIP3    H224808   6.489   3.743   2.913
 8296TIP3   OH224809   6.623   4.063   3.342
 8296TIP3    H124810   6.658   3.973   3.361
 8296TIP3    H224811   6.682   4.087   3.268
 8297TIP3   OH224812   6.771   4.288   3.824
 8297TIP3    H124813   6.862   4.292   3.789
 8297TIP3    H224814   6.789   4.252   3.912
 8298TIP3   OH224815   6.869   4.375   4.079
 8298TIP3    H124816   6.790   4.396   4.130
 8298TIP3    H224817   6.882   4.452   4.022
 8299TIP3   OH224818   5.467   4.103   4.867
 8299TIP3    H124819   5.565   4.094   4.868
 8299TIP3    H224820   5.442   4.019   4.910
 8300TIP3   OH224821   7.303   3.971   4.626
 8300TIP3    H124822   7.361   3.903   4.584
 8300TIP3    H224823   7.274   4.021   4.547
 8301TIP3   OH224824   6.727   3.811   3.380
 8301TIP3    H124825   6.776   3.795   3.463
 8301TIP3    H224826   6.667   3.733   3.380
 8302TIP3   OH224827   5.429   3.798   4.200
 8302TIP3    H124828   5.489   3.721   4.210
 8302TIP3    H224829   5.493   3.870   4.192
 8303TIP3   OH224830   5.228   4.071   4.274
 8303TIP3    H124831   5.275   4.062   4.188
 8303TIP3    H224832   5.281   4.136   4.320
 8304TIP3   OH224833   7.175   4.108   4.426
 8304TIP3    H124834   7.085   4.142   4.443
 8304TIP3    H224835   7.151   4.029   4.373
 8305TIP3   OH224836   6.809   3.745   3.012
 8305TIP3    H124837   6.850   3.671   2.962
 8305TIP3    H224838   6.879   3.813   3.008
 8306TIP3   OH224839   5.214   3.568   3.772
 8306TIP3    H124840   5.121   3.568   3.801
 8306TIP3    H224841   5.211   3.629   3.695
 8307TIP3   OH224842   6.372   5.276   3.278
 8307TIP3    H124843   6.425   5.263   3.197
 8307TIP3    H224844   6.426   5.342   3.326
 8308TIP3   OH224845   5.435   3.652   4.590
 8308TIP3    H124846   5.383   3.647   4.671
 8308TIP3    H224847   5.369   3.691   4.528
 8309TIP3   OH224848   5.468   5.092   4.671
 8309TIP3    H124849   5.375   5.063   4.660
 8309TIP3    H224850   5.493   5.042   4.751
 8310TIP3   OH224851   6.082   5.359   4.343
 8310TIP3    H124852   6.125   5.345   4.429
 8310TIP3    H224853   6.155   5.402   4.294
 8311TIP3   OH224854   6.276   5.505   4.210
 8311TIP3    H124855   6.349   5.455   4.170
 8311TIP3    H224856   6.325   5.562   4.273
 8312TIP3   OH224857   7.069   3.876   4.317
 8312TIP3    H124858   6.983   3.871   4.274
 8312TIP3    H224859   7.119   3.816   4.255
 8313TIP3   OH224860   5.330   5.384   4.236
 8313TIP3    H124861   5.243   5.416   4.204
 8313TIP3    H224862   5.307   5.362   4.326
 8314TIP3   OH224863   5.579   5.366   4.108
 8314TIP3    H124864   5.489   5.367   4.146
 8314TIP3    H224865   5.560   5.361   4.013
 8315TIP3   OH224866   6.009   5.392   3.871
 8315TIP3    H124867   5.922   5.396   3.826
 8315TIP3    H224868   6.009   5.475   3.922
 8316TIP3   OH224869   6.261   5.308   3.937
 8316TIP3    H124870   6.167   5.331   3.916
 8316TIP3    H224871   6.306   5.386   3.903
 8317TIP3   OH224872   6.468   5.507   3.859
 8317TIP3    H124873   6.453   5.592   3.812
 8317TIP3    H224874   6.494   5.448   3.785
 8318TIP3   OH224875   5.257   5.161   3.982
 8318TIP3    H124876   5.268   5.138   4.077
 8318TIP3    H224877   5.342   5.127   3.950
 8319TIP3   OH224878   6.271   3.783   3.919
 8319TIP3    H124879   6.231   3.716   3.978
 8319TIP3    H224880   6.351   3.739   3.887
 8320TIP3   OH224881   6.801   3.656   3.829
 8320TIP3    H124882   6.837   3.714   3.760
 8320TIP3    H224883   6.707   3.682   3.831
 8321TIP3   OH224884   6.895   3.769   3.594
 8321TIP3    H124885   6.970   3.717   3.558
 8321TIP3    H224886   6.928   3.861   3.582
 8322TIP3   OH224887   5.526   3.495   3.945
 8322TIP3    H124888   5.433   3.462   3.946
 8322TIP3    H224889   5.574   3.409   3.941
 8323TIP3   OH224890   5.315   3.361   3.596
 8323TIP3    H124891   5.341   3.418   3.522
 8323TIP3    H224892   5.282   3.427   3.661
 8324TIP3   OH224893   5.969   3.525   3.827
 8324TIP3    H124894   6.024   3.577   3.767
 8324TIP3    H224895   5.991   3.566   3.913
 8325TIP3   OH224896   6.512   3.673   3.809
 8325TIP3    H124897   6.514   3.634   3.721
 8325TIP3    H224898   6.499   3.593   3.866
 8326TIP3   OH224899   6.544   3.595   3.370
 8326TIP3    H124900   6.458   3.638   3.386
 8326TIP3    H224901   6.531   3.511   3.419
 8327TIP3   OH224902   5.031   4.934   3.369
 8327TIP3    H124903   4.945   4.899   3.338
 8327TIP3    H224904   5.015   5.028   3.354
 8328TIP3   OH224905   5.428   3.521   3.357
 8328TIP3    H124906   5.478   3.461   3.299
 8328TIP3    H224907   5.500   3.576   3.394
 8329TIP3   OH224908   5.942   3.699   3.455
 8329TIP3    H124909   6.003   3.653   3.517
 8329TIP3    H224910   5.962   3.792   3.481
 8330TIP3   OH224911   5.798   5.125   2.949
 8330TIP3    H124912   5.889   5.144   2.918
 8330TIP3    H224913   5.778   5.047   2.892
 8331TIP3   OH224914   6.519   5.241   3.047
 8331TIP3    H124915   6.511   5.143   3.036
 8331TIP3    H224916   6.475   5.272   2.966
 8332TIP3   OH224917   5.732   3.776   4.836
 8332TIP3    H124918   5.698   3.705   4.893
 8332TIP3    H224919   5.827   3.775   4.861
 8333TIP3   OH224920   5.981   3.776   4.957
 8333TIP3    H124921   6.066   3.763   4.912
 8333TIP3    H224922   5.979   3.699   5.017
 8334TIP3   OH224923   5.107   4.970   3.012
 8334TIP3    H124924   5.095   4.983   3.107
 8334TIP3    H224925   5.193   4.923   3.007
 8335TIP3   OH224926   6.806   3.833   4.743
 8335TIP3    H124927   6.827   3.800   4.833
 8335TIP3    H224928   6.894   3.829   4.699
 8336TIP3   OH224929   6.747   5.385   4.234
 8336TIP3    H124930   6.667   5.354   4.186
 8336TIP3    H224931   6.727   5.481   4.239
 8337TIP3   OH224932   8.012   4.758   3.003
 8337TIP3    H124933   7.982   4.849   2.981
 8337TIP3    H224934   7.937   4.707   2.969
 8338TIP3   OH224935   8.012   4.759   3.383
 8338TIP3    H124936   8.043   4.730   3.470
 8338TIP3    H224937   7.971   4.678   3.348
 8339TIP3   OH224938   7.307   4.660   3.759
 8339TIP3    H124939   7.341   4.587   3.815
 8339TIP3    H224940   7.389   4.702   3.731
 8340TIP3   OH224941   8.260   5.057   3.064
 8340TIP3    H124942   8.233   4.990   3.128
 8340TIP3    H224943   8.278   5.134   3.120
 8341TIP3   OH224944   7.281   5.062   3.476
 8341TIP3    H124945   7.274   4.964   3.475
 8341TIP3    H224946   7.378   5.072   3.467
 8342TIP3   OH224947   6.989   4.269   3.257
 8342TIP3    H124948   6.937   4.350   3.267
 8342TIP3    H224949   6.920   4.208   3.224
 8343TIP3   OH224950   7.042   4.554   3.436
 8343TIP3    H124951   7.093   4.477   3.470
 8343TIP3    H224952   7.100   4.585   3.365
 8344TIP3   OH224953   7.902   5.523   3.081
 8344TIP3    H124954   7.948   5.452   3.031
 8344TIP3    H224955   7.898   5.485   3.169
 8345TIP3   OH224956   7.810   4.984   3.431
 8345TIP3    H124957   7.847   4.907   3.385
 8345TIP3    H224958   7.894   5.029   3.455
 8346TIP3   OH224959   8.793   4.330   3.429
 8346TIP3    H124960   8.843   4.399   3.477
 8346TIP3    H224961   8.855   4.309   3.357
 8347TIP3   OH224962   8.224   4.487   3.463
 8347TIP3    H124963   8.263   4.401   3.484
 8347TIP3    H224964   8.192   4.471   3.372
 8348TIP3   OH224965   7.560   4.145   3.428
 8348TIP3    H124966   7.539   4.217   3.365
 8348TIP3    H224967   7.512   4.071   3.385
 8349TIP3   OH224968   8.258   4.238   3.053
 8349TIP3    H124969   8.332   4.215   3.114
 8349TIP3    H224970   8.309   4.271   2.976
 8350TIP3   OH224971   7.198   4.350   3.531
 8350TIP3    H124972   7.279   4.325   3.580
 8350TIP3    H224973   7.208   4.292   3.452
 8351TIP3   OH224974   7.633   4.544   3.332
 8351TIP3    H124975   7.727   4.520   3.342
 8351TIP3    H224976   7.595   4.461   3.298
 8352TIP3   OH224977   8.892   4.524   3.602
 8352TIP3    H124978   8.803   4.563   3.591
 8352TIP3    H224979   8.891   4.504   3.697
 8353TIP3   OH224980   7.560   4.130   3.861
 8353TIP3    H124981   7.495   4.163   3.796
 8353TIP3    H224982   7.508   4.139   3.944
 8354TIP3   OH224983   7.901   4.978   2.875
 8354TIP3    H124984   7.864   4.959   2.788
 8354TIP3    H224985   7.858   5.063   2.896
 8355TIP3   OH224986   7.663   4.903   3.658
 8355TIP3    H124987   7.602   4.970   3.696
 8355TIP3    H224988   7.706   4.954   3.586
 8356TIP3   OH224989   8.471   4.226   3.228
 8356TIP3    H124990   8.438   4.197   3.314
 8356TIP3    H224991   8.521   4.306   3.251
 8357TIP3   OH224992   7.427   4.243   3.646
 8357TIP3    H124993   7.492   4.313   3.671
 8357TIP3    H224994   7.475   4.201   3.572
 8358TIP3   OH224995   7.490   5.097   3.756
 8358TIP3    H124996   7.465   5.183   3.716
 8358TIP3    H224997   7.410   5.082   3.811
 8359TIP3   OH224998   6.885   4.787   2.991
 8359TIP3    H124999   6.845   4.815   2.907
 8359TIP3    H225000   6.917   4.872   3.028
 8360TIP3   OH225001   8.327   5.299   3.233
 8360TIP3    H125002   8.237   5.293   3.273
 8360TIP3    H225003   8.318   5.384   3.186
 8361TIP3   OH225004   8.614   4.205   3.598
 8361TIP3    H125005   8.528   4.235   3.565
 8361TIP3    H225006   8.675   4.238   3.528
 8362TIP3   OH225007   7.912   3.847   3.577
 8362TIP3    H125008   7.899   3.752   3.595
 8362TIP3    H225009   7.835   3.885   3.623
 8363TIP3   OH225010   8.027   5.350   2.907
 8363TIP3    H125011   8.075   5.266   2.886
 8363TIP3    H225012   8.089   5.414   2.866
 8364TIP3   OH225013   8.168   5.135   2.814
 8364TIP3    H125014   8.142   5.056   2.764
 8364TIP3    H225015   8.206   5.095   2.896
 8365TIP3   OH225016   8.546   5.207   3.572
 8365TIP3    H125017   8.533   5.135   3.507
 8365TIP3    H225018   8.526   5.287   3.519
 8366TIP3   OH225019   7.844   4.611   2.833
 8366TIP3    H125020   7.764   4.662   2.809
 8366TIP3    H225021   7.891   4.606   2.747
 8367TIP3   OH225022   7.802   4.393   2.548
 8367TIP3    H125023   7.869   4.446   2.595
 8367TIP3    H225024   7.861   4.331   2.500
 8368TIP3   OH225025   8.189   4.692   2.804
 8368TIP3    H125026   8.136   4.715   2.883
 8368TIP3    H225027   8.274   4.666   2.846
 8369TIP3   OH225028   8.422   4.731   3.717
 8369TIP3    H125029   8.420   4.812   3.772
 8369TIP3    H225030   8.334   4.737   3.675
 8370TIP3   OH225031   7.422   4.692   3.222
 8370TIP3    H125032   7.380   4.633   3.155
 8370TIP3    H225033   7.498   4.637   3.251
 8371TIP3   OH225034   7.551   5.100   3.371
 8371TIP3    H125035   7.531   5.060   3.285
 8371TIP3    H225036   7.641   5.066   3.389
 8372TIP3   OH225037   7.550   4.663   3.577
 8372TIP3    H125038   7.586   4.636   3.490
 8372TIP3    H225039   7.599   4.746   3.596
 8373TIP3   OH225040   8.086   5.298   3.352
 8373TIP3    H125041   8.071   5.379   3.404
 8373TIP3    H225042   8.069   5.226   3.417
 8374TIP3   OH225043   7.698   5.219   3.898
 8374TIP3    H125044   7.638   5.280   3.945
 8374TIP3    H225045   7.632   5.165   3.849
 8375TIP3   OH225046   8.028   4.552   2.628
 8375TIP3    H125047   8.089   4.609   2.680
 8375TIP3    H225048   8.055   4.575   2.536
 8376TIP3   OH225049   7.456   4.777   4.003
 8376TIP3    H125050   7.456   4.864   4.049
 8376TIP3    H225051   7.361   4.757   4.002
 8377TIP3   OH225052   7.772   5.232   2.907
 8377TIP3    H125053   7.853   5.284   2.923
 8377TIP3    H225054   7.713   5.295   2.865
 8378TIP3   OH225055   7.491   5.385   3.985
 8378TIP3    H125056   7.456   5.387   3.894
 8378TIP3    H225057   7.411   5.365   4.038
 8379TIP3   OH225058   8.574   3.824   2.692
 8379TIP3    H125059   8.505   3.807   2.758
 8379TIP3    H225060   8.521   3.831   2.612
 8380TIP3   OH225061   7.288   4.534   3.028
 8380TIP3    H125062   7.221   4.576   2.969
 8380TIP3    H225063   7.252   4.445   3.039
 8381TIP3   OH225064   8.342   5.161   2.226
 8381TIP3    H125065   8.352   5.258   2.216
 8381TIP3    H225066   8.434   5.131   2.208
 8382TIP3   OH225067   7.060   4.900   3.930
 8382TIP3    H125068   7.066   4.884   3.835
 8382TIP3    H225069   7.115   4.828   3.967
 8383TIP3   OH225070   6.928   5.121   3.552
 8383TIP3    H125071   7.023   5.102   3.553
 8383TIP3    H225072   6.920   5.189   3.620
 8384TIP3   OH225073   8.784   5.588   3.611
 8384TIP3    H125074   8.782   5.490   3.614
 8384TIP3    H225075   8.703   5.605   3.666
 8385TIP3   OH225076   7.894   5.348   3.755
 8385TIP3    H125077   7.893   5.441   3.788
 8385TIP3    H225078   7.823   5.308   3.810
 8386TIP3   OH225079   7.653   5.475   2.708
 8386TIP3    H125080   7.609   5.458   2.623
 8386TIP3    H225081   7.622   5.565   2.731
 8387TIP3   OH225082   7.092   5.325   3.093
 8387TIP3    H125083   7.141   5.317   3.178
 8387TIP3    H225084   7.037   5.245   3.096
 8388TIP3   OH225085   7.856   5.376   2.348
 8388TIP3    H125086   7.915   5.307   2.311
 8388TIP3    H225087   7.891   5.386   2.439
 8389TIP3   OH225088   7.905   5.426   2.618
 8389TIP3    H125089   7.818   5.434   2.662
 8389TIP3    H225090   7.958   5.384   2.688
 8390TIP3   OH225091   8.647   4.668   3.907
 8390TIP3    H125092   8.582   4.700   3.843
 8390TIP3    H225093   8.665   4.578   3.874
 8391TIP3   OH225094   7.271   5.094   3.923
 8391TIP3    H125095   7.326   5.084   4.004
 8391TIP3    H225096   7.195   5.037   3.942
 8392TIP3   OH225097   7.673   3.924   3.702
 8392TIP3    H125098   7.584   3.892   3.677
 8392TIP3    H225099   7.647   4.004   3.752
 8393TIP3   OH225100   8.208   4.039   3.900
 8393TIP3    H125101   8.277   4.010   3.964
 8393TIP3    H225102   8.124   4.018   3.947
 8394TIP3   OH225103   8.431   4.463   3.812
 8394TIP3    H125104   8.391   4.460   3.902
 8394TIP3    H225105   8.414   4.555   3.786
 8395TIP3   OH225106   8.100   4.605   2.374
 8395TIP3    H125107   8.074   4.571   2.286
 8395TIP3    H225108   8.190   4.639   2.353
 8396TIP3   OH225109   7.818   3.973   2.676
 8396TIP3    H125110   7.786   3.969   2.768
 8396TIP3    H225111   7.781   3.890   2.642
 8397TIP3   OH225112   7.606   4.440   3.724
 8397TIP3    H125113   7.558   4.462   3.806
 8397TIP3    H225114   7.589   4.520   3.671
 8398TIP3   OH225115   7.489   4.326   3.238
 8398TIP3    H125116   7.396   4.298   3.255
 8398TIP3    H225117   7.502   4.285   3.149
 8399TIP3   OH225118   7.982   4.411   2.965
 8399TIP3    H125119   7.929   4.482   2.923
 8399TIP3    H225120   8.037   4.380   2.891
 8400TIP3   OH225121   8.155   4.689   4.051
 8400TIP3    H125122   8.136   4.617   4.115
 8400TIP3    H225123   8.249   4.707   4.072
 8401TIP3   OH225124   8.137   4.440   3.204
 8401TIP3    H125125   8.076   4.468   3.133
 8401TIP3    H225126   8.172   4.359   3.161
 8402TIP3   OH225127   7.420   4.469   3.934
 8402TIP3    H125128   7.466   4.523   4.000
 8402TIP3    H225129   7.411   4.384   3.981
 8403TIP3   OH225130   7.473   3.945   2.642
 8403TIP3    H125131   7.467   3.942   2.739
 8403TIP3    H225132   7.394   3.997   2.619
 8404TIP3   OH225133   7.019   3.995   3.509
 8404TIP3    H125134   7.094   4.021   3.565
 8404TIP3    H225135   7.060   3.952   3.432
 8405TIP3   OH225136   6.991   3.971   3.033
 8405TIP3    H125137   7.038   4.008   2.955
 8405TIP3    H225138   6.930   4.044   3.052
 8406TIP3   OH225139   8.148   4.686   3.628
 8406TIP3    H125140   8.181   4.614   3.569
 8406TIP3    H225141   8.119   4.632   3.705
 8407TIP3   OH225142   7.817   4.150   3.300
 8407TIP3    H125143   7.734   4.146   3.352
 8407TIP3    H225144   7.885   4.144   3.369
 8408TIP3   OH225145   7.252   4.201   3.307
 8408TIP3    H125146   7.157   4.207   3.280
 8408TIP3    H225147   7.275   4.109   3.286
 8409TIP3   OH225148   7.520   4.201   2.996
 8409TIP3    H125149   7.615   4.213   2.975
 8409TIP3    H225150   7.475   4.221   2.911
 8410TIP3   OH225151   8.307   4.222   3.496
 8410TIP3    H125152   8.277   4.234   3.589
 8410TIP3    H225153   8.239   4.160   3.464
 8411TIP3   OH225154   7.361   4.234   2.775
 8411TIP3    H125155   7.289   4.189   2.728
 8411TIP3    H225156   7.413   4.269   2.699
 8412TIP3   OH225157   8.478   5.914   3.720
 8412TIP3    H125158   8.478   5.939   3.626
 8412TIP3    H225159   8.556   5.961   3.754
 8413TIP3   OH225160   7.435   5.024   4.142
 8413TIP3    H125161   7.517   5.051   4.187
 8413TIP3    H225162   7.373   5.023   4.218
 8414TIP3   OH225163   7.899   4.476   3.398
 8414TIP3    H125164   7.970   4.434   3.348
 8414TIP3    H225165   7.906   4.432   3.485
 8415TIP3   OH225166   7.423   3.963   3.276
 8415TIP3    H125167   7.387   3.885   3.324
 8415TIP3    H225168   7.475   3.921   3.207
 8416TIP3   OH225169   7.878   4.374   3.682
 8416TIP3    H125170   7.788   4.407   3.700
 8416TIP3    H225171   7.935   4.432   3.736
 8417TIP3   OH225172   7.612   4.764   2.780
 8417TIP3    H125173   7.541   4.697   2.771
 8417TIP3    H225174   7.594   4.797   2.872
 8418TIP3   OH225175   8.533   5.007   3.380
 8418TIP3    H125176   8.491   5.042   3.299
 8418TIP3    H225177   8.463   4.945   3.407
 8419TIP3   OH225178   8.071   4.075   2.645
 8419TIP3    H125179   7.974   4.059   2.652
 8419TIP3    H225180   8.081   4.169   2.668
 8420TIP3   OH225181   8.010   5.080   3.778
 8420TIP3    H125182   8.042   5.058   3.867
 8420TIP3    H225183   7.975   5.170   3.789
 8421TIP3   OH225184   8.142   4.324   2.748
 8421TIP3    H125185   8.239   4.328   2.759
 8421TIP3    H225186   8.125   4.401   2.689
 8422TIP3   OH225187   7.304   4.783   3.457
 8422TIP3    H125188   7.340   4.758   3.369
 8422TIP3    H225189   7.353   4.722   3.515
 8423TIP3   OH225190   7.757   4.911   2.601
 8423TIP3    H125191   7.710   4.998   2.607
 8423TIP3    H225192   7.704   4.857   2.662
 8424TIP3   OH225193   7.177   4.704   4.076
 8424TIP3    H125194   7.218   4.709   4.165
 8424TIP3    H225195   7.144   4.613   4.079
 8425TIP3   OH225196   7.913   4.818   4.090
 8425TIP3    H125197   7.856   4.759   4.039
 8425TIP3    H225198   8.002   4.785   4.064
 8426TIP3   OH225199   8.173   5.339   3.675
 8426TIP3    H125200   8.076   5.340   3.688
 8426TIP3    H225201   8.202   5.391   3.753
 8427TIP3   OH225202   8.569   4.409   2.585
 8427TIP3    H125203   8.532   4.350   2.518
 8427TIP3    H225204   8.566   4.493   2.533
 8428TIP3   OH225205   8.781   5.324   3.641
 8428TIP3    H125206   8.695   5.282   3.637
 8428TIP3    H225207   8.841   5.245   3.651
 8429TIP3   OH225208   8.276   5.231   2.490
 8429TIP3    H125209   8.263   5.157   2.551
 8429TIP3    H225210   8.297   5.186   2.406
 8430TIP3   OH225211   8.283   4.859   3.337
 8430TIP3    H125212   8.188   4.837   3.348
 8430TIP3    H225213   8.312   4.781   3.285
 8431TIP3   OH225214   7.406   5.089   3.084
 8431TIP3    H125215   7.407   5.169   3.028
 8431TIP3    H225216   7.312   5.071   3.090
 8432TIP3   OH225217   6.969   4.393   2.784
 8432TIP3    H125218   7.015   4.476   2.806
 8432TIP3    H225219   6.893   4.397   2.846
 8433TIP3   OH225220   7.545   4.854   3.026
 8433TIP3    H125221   7.510   4.943   3.046
 8433TIP3    H225222   7.510   4.803   3.101
 8434TIP3   OH225223   7.675   5.432   3.552
 8434TIP3    H125224   7.717   5.504   3.502
 8434TIP3    H225225   7.751   5.397   3.601
 8435TIP3   OH225226   7.325   5.328   2.934
 8435TIP3    H125227   7.240   5.337   2.981
 8435TIP3    H225228   7.357   5.421   2.937
 8436TIP3   OH225229   8.064   5.065   3.511
 8436TIP3    H125230   8.051   5.064   3.608
 8436TIP3    H225231   8.144   5.012   3.501
 8437TIP3   OH225232   8.038   4.960   2.393
 8437TIP3    H125233   8.093   4.936   2.471
 8437TIP3    H225234   7.952   4.930   2.423
 8438TIP3   OH225235   8.313   5.597   3.558
 8438TIP3    H125236   8.232   5.543   3.551
 8438TIP3    H225237   8.297   5.664   3.487
 8439TIP3   OH225238   8.374   5.434   2.222
 8439TIP3    H125239   8.411   5.499   2.160
 8439TIP3    H225240   8.295   5.483   2.251
 8440TIP3   OH225241   7.397   4.213   4.078
 8440TIP3    H125242   7.300   4.217   4.093
 8440TIP3    H225243   7.425   4.151   4.148
 8441TIP3   OH225244   8.191   4.899   2.616
 8441TIP3    H125245   8.183   4.827   2.682
 8441TIP3    H225246   8.287   4.891   2.595
 8442TIP3   OH225247   7.113   5.295   3.712
 8442TIP3    H125248   7.172   5.223   3.738
 8442TIP3    H225249   7.145   5.366   3.769
 8443TIP3   OH225250   7.402   4.940   2.392
 8443TIP3    H125251   7.420   4.849   2.364
 8443TIP3    H225252   7.384   4.927   2.488
 8444TIP3   OH225253   7.349   4.945   2.666
 8444TIP3    H125254   7.423   4.916   2.721
 8444TIP3    H225255   7.355   5.042   2.673
 8445TIP3   OH225256   7.085   4.638   2.867
 8445TIP3    H125257   7.019   4.683   2.925
 8445TIP3    H225258   7.101   4.707   2.801
 8446TIP3   OH225259   8.234   4.271   3.755
 8446TIP3    H125260   8.310   4.316   3.794
 8446TIP3    H225261   8.222   4.193   3.813
 8447TIP3   OH225262   8.113   4.028   2.926
 8447TIP3    H125263   8.101   4.048   2.831
 8447TIP3    H225264   8.153   4.111   2.960
 8448TIP3   OH225265   7.615   5.141   2.614
 8448TIP3    H125266   7.529   5.170   2.649
 8448TIP3    H225267   7.633   5.213   2.551
 8449TIP3   OH225268   7.804   4.206   3.027
 8449TIP3    H125269   7.869   4.277   3.010
 8449TIP3    H225270   7.809   4.199   3.125
 8450TIP3   OH225271   8.074   4.526   3.836
 8450TIP3    H125272   8.095   4.579   3.915
 8450TIP3    H225273   8.128   4.446   3.850
 8451TIP3   OH225274   7.949   3.934   3.130
 8451TIP3    H125275   7.943   4.011   3.189
 8451TIP3    H225276   8.008   3.969   3.060
 8452TIP3   OH225277   7.359   5.218   2.680
 8452TIP3    H125278   7.328   5.288   2.618
 8452TIP3    H225279   7.343   5.261   2.767
 8453TIP3   OH225280   7.460   3.931   2.918
 8453TIP3    H125281   7.458   4.021   2.957
 8453TIP3    H225282   7.555   3.911   2.927
 8454TIP3   OH225283   8.696   4.423   3.796
 8454TIP3    H125284   8.598   4.420   3.803
 8454TIP3    H225285   8.711   4.356   3.728
 8455TIP3   OH225286   8.358   4.623   3.201
 8455TIP3    H125287   8.282   4.563   3.212
 8455TIP3    H225288   8.428   4.575   3.251
 8456TIP3   OH225289   7.077   4.849   2.672
 8456TIP3    H125290   7.145   4.917   2.683
 8456TIP3    H225291   7.122   4.792   2.606
 8457TIP3   OH225292   7.022   4.124   2.807
 8457TIP3    H125293   7.020   4.221   2.802
 8457TIP3    H225294   6.939   4.100   2.765
 8458TIP3   OH225295   8.335   5.572   3.152
 8458TIP3    H125296   8.291   5.619   3.078
 8458TIP3    H225297   8.429   5.591   3.131
 8459TIP3   OH225298   7.407   3.848   3.679
 8459TIP3    H125299   7.377   3.810   3.594
 8459TIP3    H225300   7.398   3.770   3.739
 8460TIP3   OH225301   6.950   5.062   3.062
 8460TIP3    H125302   6.877   5.093   3.116
 8460TIP3    H225303   6.925   5.101   2.975
 8461TIP3   OH225304   7.104   5.603   4.136
 8461TIP3    H125305   7.191   5.601   4.180
 8461TIP3    H225306   7.084   5.508   4.131
 8462TIP3   OH225307   7.583   5.569   4.177
 8462TIP3    H125308   7.678   5.553   4.187
 8462TIP3    H225309   7.562   5.509   4.103
 8463TIP3   OH225310   7.568   5.143   2.305
 8463TIP3    H125311   7.512   5.071   2.343
 8463TIP3    H225312   7.644   5.091   2.274
 8464TIP3   OH225313   8.227   5.473   3.910
 8464TIP3    H125314   8.217   5.404   3.980
 8464TIP3    H225315   8.304   5.523   3.940
 8465TIP3   OH225316   8.004   5.184   2.216
 8465TIP3    H125317   8.047   5.121   2.277
 8465TIP3    H225318   8.065   5.183   2.139
 8466TIP3   OH225319   7.238   5.010   4.336
 8466TIP3    H125320   7.254   4.914   4.342
 8466TIP3    H225321   7.150   5.012   4.292
 8467TIP3   OH225322   7.212   4.661   2.526
 8467TIP3    H125323   7.267   4.626   2.599
 8467TIP3    H225324   7.279   4.666   2.455
 8468TIP3   OH225325   7.840   5.093   4.108
 8468TIP3    H125326   7.804   5.110   4.019
 8468TIP3    H225327   7.874   5.001   4.100
 8469TIP3   OH225328   7.718   4.858   2.332
 8469TIP3    H125329   7.725   4.870   2.429
 8469TIP3    H225330   7.721   4.760   2.326
 8470TIP3   OH225331   8.330   5.098   3.708
 8470TIP3    H125332   8.408   5.144   3.672
 8470TIP3    H225333   8.262   5.167   3.697
 8471TIP3   OH225334   7.354   4.746   4.307
 8471TIP3    H125335   7.428   4.687   4.287
 8471TIP3    H225336   7.379   4.776   4.397
 8472TIP3   OH225337   7.420   4.564   2.748
 8472TIP3    H125338   7.395   4.520   2.831
 8472TIP3    H225339   7.458   4.489   2.697
 8473TIP3   OH225340   7.685   4.624   3.973
 8473TIP3    H125341   7.612   4.689   3.977
 8473TIP3    H225342   7.739   4.660   3.899
 8474TIP3   OH225343   7.521   4.358   2.589
 8474TIP3    H125344   7.496   4.361   2.494
 8474TIP3    H225345   7.619   4.360   2.582
 8475TIP3   OH225346   8.207   5.030   4.108
 8475TIP3    H125347   8.291   5.010   4.065
 8475TIP3    H225348   8.206   4.964   4.180
 8476TIP3   OH225349   8.340   4.687   2.253
 8476TIP3    H125350   8.322   4.638   2.171
 8476TIP3    H225351   8.308   4.776   2.228
 8477TIP3   OH225352   7.812   4.417   4.105
 8477TIP3    H125353   7.813   4.336   4.050
 8477TIP3    H225354   7.768   4.481   4.044
 8478TIP3   OH225355   7.816   4.206   3.911
 8478TIP3    H125356   7.844   4.242   3.825
 8478TIP3    H225357   7.723   4.180   3.892
 8479TIP3   OH225358   7.841   4.737   3.784
 8479TIP3    H125359   7.926   4.744   3.739
 8479TIP3    H225360   7.787   4.805   3.739
 8480TIP3   OH225361   8.428   4.707   4.165
 8480TIP3    H125362   8.477   4.624   4.170
 8480TIP3    H225363   8.497   4.766   4.132
 8481TIP3   OH225364   8.451   4.954   3.904
 8481TIP3    H125365   8.399   5.009   3.842
 8481TIP3    H225366   8.541   4.963   3.864
 8482TIP3   OH225367   7.685   4.532   4.332
 8482TIP3    H125368   7.622   4.458   4.346
 8482TIP3    H225369   7.724   4.506   4.246
 8483TIP3   OH225370   7.947   3.966   3.975
 8483TIP3    H125371   7.897   4.048   3.955
 8483TIP3    H225372   7.878   3.897   3.966
 8484TIP3   OH225373   8.074   4.472   4.193
 8484TIP3    H125374   8.064   4.458   4.289
 8484TIP3    H225375   7.984   4.446   4.164
 8485TIP3   OH225376   8.313   4.419   4.050
 8485TIP3    H125377   8.238   4.421   4.113
 8485TIP3    H225378   8.387   4.390   4.106
 8486TIP3   OH225379   8.545   4.365   4.197
 8486TIP3    H125380   8.550   4.269   4.216
 8486TIP3    H225381   8.540   4.403   4.288
 8487TIP3   OH225382   7.533   4.311   4.387
 8487TIP3    H125383   7.532   4.218   4.352
 8487TIP3    H225384   7.569   4.295   4.476
 8488TIP3   OH225385   8.043   3.977   4.233
 8488TIP3    H125386   8.109   3.905   4.228
 8488TIP3    H225387   8.002   3.969   4.144
 8489TIP3   OH225388   8.109   4.191   4.393
 8489TIP3    H125389   8.087   4.119   4.329
 8489TIP3    H225390   8.030   4.249   4.386
 8490TIP3   OH225391   7.328   5.422   2.493
 8490TIP3    H125392   7.424   5.415   2.475
 8490TIP3    H225393   7.300   5.470   2.413
 8491TIP3   OH225394   6.808   4.802   2.710
 8491TIP3    H125395   6.903   4.824   2.695
 8491TIP3    H225396   6.803   4.713   2.670
 8492TIP3   OH225397   6.723   5.414   3.123
 8492TIP3    H125398   6.656   5.352   3.087
 8492TIP3    H225399   6.767   5.357   3.190
 8493TIP3   OH225400   6.857   5.267   3.311
 8493TIP3    H125401   6.850   5.192   3.373
 8493TIP3    H225402   6.910   5.327   3.366
 8494TIP3   OH225403   8.592   5.656   3.111
 8494TIP3    H125404   8.611   5.697   3.197
 8494TIP3    H225405   8.638   5.715   3.050
 8495TIP3   OH225406   8.615   5.684   3.391
 8495TIP3    H125407   8.574   5.595   3.389
 8495TIP3    H225408   8.684   5.668   3.459
 8496TIP3   OH225409   8.662   5.361   3.957
 8496TIP3    H125410   8.590   5.368   4.023
 8496TIP3    H225411   8.702   5.450   3.963
 8497TIP3   OH225412   8.460   4.873   2.584
 8497TIP3    H125413   8.523   4.941   2.550
 8497TIP3    H225414   8.510   4.838   2.660
 8498TIP3   OH225415   8.594   4.759   2.797
 8498TIP3    H125416   8.525   4.708   2.846
 8498TIP3    H225417   8.632   4.814   2.866
 8499TIP3   OH225418   8.491   5.433   3.419
 8499TIP3    H125419   8.423   5.480   3.471
 8499TIP3    H225420   8.438   5.390   3.348
 8500TIP3   OH225421   8.538   4.643   2.446
 8500TIP3    H125422   8.479   4.645   2.369
 8500TIP3    H225423   8.512   4.725   2.490
 8501TIP3   OH225424   8.349   4.341   2.412
 8501TIP3    H125425   8.399   4.374   2.336
 8501TIP3    H225426   8.354   4.244   2.399
 8502TIP3   OH225427   8.419   4.600   2.934
 8502TIP3    H125428   8.425   4.504   2.920
 8502TIP3    H225429   8.404   4.608   3.031
 8503TIP3   OH225430   7.042   4.673   3.696
 8503TIP3    H125431   7.035   4.649   3.601
 8503TIP3    H225432   7.140   4.673   3.706
 8504TIP3   OH225433   8.688   4.981   3.774
 8504TIP3    H125434   8.765   4.924   3.798
 8504TIP3    H225435   8.734   5.060   3.743
 8505TIP3   OH225436   8.877   4.810   3.864
 8505TIP3    H125437   8.814   4.743   3.896
 8505TIP3    H225438   8.964   4.770   3.875
 8506TIP3   OH225439   8.362   4.058   2.396
 8506TIP3    H125440   8.419   3.986   2.423
 8506TIP3    H225441   8.277   4.013   2.385
 8507TIP3   OH225442   8.418   4.324   2.830
 8507TIP3    H125443   8.455   4.234   2.846
 8507TIP3    H225444   8.470   4.350   2.751
 8508TIP3   OH225445   8.557   4.491   3.333
 8508TIP3    H125446   8.645   4.524   3.304
 8508TIP3    H225447   8.566   4.511   3.428
 8509TIP3   OH225448   8.638   4.643   3.564
 8509TIP3    H125449   8.559   4.660   3.620
 8509TIP3    H225450   8.643   4.725   3.514
 8510TIP3   OH225451   7.269   4.369   4.372
 8510TIP3    H125452   7.365   4.353   4.364
 8510TIP3    H225453   7.239   4.280   4.399
 8511TIP3   OH225454   8.506   4.072   2.876
 8511TIP3    H125455   8.575   4.051   2.939
 8511TIP3    H225456   8.457   3.988   2.869
 8512TIP3   OH225457   7.221   4.054   3.688
 8512TIP3    H125458   7.278   3.975   3.701
 8512TIP3    H225459   7.289   4.123   3.680
 8513TIP3   OH225460   7.029   4.347   3.752
 8513TIP3    H125461   7.071   4.308   3.673
 8513TIP3    H225462   7.095   4.412   3.777
 8514TIP3   OH225463   8.955   4.408   3.908
 8514TIP3    H125464   8.858   4.410   3.918
 8514TIP3    H225465   8.974   4.314   3.921
 8515TIP3   OH225466   7.011   3.830   3.262
 8515TIP3    H125467   6.917   3.825   3.289
 8515TIP3    H225468   7.007   3.888   3.183
 8516TIP3   OH225469   8.169   5.533   2.767
 8516TIP3    H125470   8.218   5.518   2.684
 8516TIP3    H225471   8.224   5.599   2.811
 8517TIP3   OH225472   7.270   5.337   4.150
 8517TIP3    H125473   7.177   5.310   4.137
 8517TIP3    H225474   7.283   5.319   4.244
 8518TIP3   OH225475   7.447   5.368   3.699
 8518TIP3    H125476   7.402   5.446   3.659
 8518TIP3    H225477   7.534   5.381   3.657
 8519TIP3   OH225478   7.894   5.615   3.838
 8519TIP3    H125479   7.936   5.614   3.926
 8519TIP3    H225480   7.960   5.665   3.786
 8520TIP3   OH225481   8.074   5.765   3.696
 8520TIP3    H125482   8.146   5.714   3.657
 8520TIP3    H225483   8.124   5.823   3.758
 8521TIP3   OH225484   8.818   4.138   3.809
 8521TIP3    H125485   8.735   4.140   3.759
 8521TIP3    H225486   8.847   4.046   3.794
 8522TIP3   OH225487   7.124   5.625   3.723
 8522TIP3    H125488   7.035   5.660   3.699
 8522TIP3    H225489   7.133   5.662   3.812
 8523TIP3   OH225490   7.361   5.604   3.581
 8523TIP3    H125491   7.274   5.617   3.625
 8523TIP3    H225492   7.343   5.636   3.491
 8524TIP3   OH225493   7.787   5.633   3.379
 8524TIP3    H125494   7.719   5.654   3.313
 8524TIP3    H225495   7.800   5.720   3.423
 8525TIP3   OH225496   8.056   5.571   3.429
 8525TIP3    H125497   7.962   5.590   3.410
 8525TIP3    H225498   8.100   5.648   3.390
 8526TIP3   OH225499   8.262   5.763   3.346
 8526TIP3    H125500   8.249   5.849   3.299
 8526TIP3    H225501   8.289   5.704   3.272
 8527TIP3   OH225502   7.037   5.420   3.469
 8527TIP3    H125503   7.062   5.394   3.560
 8527TIP3    H225504   7.108   5.375   3.418
 8528TIP3   OH225505   7.230   5.290   3.326
 8528TIP3    H125506   7.247   5.206   3.374
 8528TIP3    H225507   7.321   5.327   3.320
 8529TIP3   OH225508   7.496   5.386   3.329
 8529TIP3    H125509   7.528   5.295   3.315
 8529TIP3    H225510   7.541   5.407   3.412
 8530TIP3   OH225511   8.070   4.042   3.416
 8530TIP3    H125512   8.027   3.973   3.469
 8530TIP3    H225513   8.143   3.994   3.373
 8531TIP3   OH225514   8.596   3.901   3.297
 8531TIP3    H125515   8.656   3.977   3.312
 8531TIP3    H225516   8.508   3.941   3.300
 8532TIP3   OH225517   7.321   3.752   3.429
 8532TIP3    H125518   7.230   3.717   3.435
 8532TIP3    H225519   7.371   3.667   3.428
 8533TIP3   OH225520   7.102   3.621   3.077
 8533TIP3    H125521   7.136   3.679   3.007
 8533TIP3    H225522   7.079   3.685   3.147
 8534TIP3   OH225523   7.763   3.784   3.312
 8534TIP3    H125524   7.824   3.834   3.254
 8534TIP3    H225525   7.784   3.820   3.399
 8535TIP3   OH225526   8.311   3.932   3.298
 8535TIP3    H125527   8.303   3.894   3.209
 8535TIP3    H225528   8.294   3.854   3.355
 8536TIP3   OH225529   8.345   3.845   2.862
 8536TIP3    H125530   8.258   3.888   2.865
 8536TIP3    H225531   8.326   3.761   2.909
 8537TIP3   OH225532   6.825   5.190   2.860
 8537TIP3    H125533   6.740   5.157   2.826
 8537TIP3    H225534   6.813   5.285   2.845
 8538TIP3   OH225535   7.225   3.781   2.841
 8538TIP3    H125536   7.273   3.717   2.786
 8538TIP3    H225537   7.298   3.834   2.878
 8539TIP3   OH225538   7.737   3.956   2.942
 8539TIP3    H125539   7.795   3.907   3.002
 8539TIP3    H225540   7.761   4.047   2.968
 8540TIP3   OH225541   7.596   5.381   2.441
 8540TIP3    H125542   7.686   5.402   2.406
 8540TIP3    H225543   7.574   5.306   2.382
 8541TIP3   OH225544   8.312   5.496   2.535
 8541TIP3    H125545   8.304   5.398   2.522
 8541TIP3    H225546   8.269   5.528   2.453
 8542TIP3   OH225547   7.527   4.043   4.330
 8542TIP3    H125548   7.491   3.964   4.374
 8542TIP3    H225549   7.622   4.035   4.355
 8543TIP3   OH225550   7.780   4.031   4.445
 8543TIP3    H125551   7.863   4.001   4.404
 8543TIP3    H225552   7.765   3.960   4.511
 8544TIP3   OH225553   6.901   5.219   2.498
 8544TIP3    H125554   6.903   5.239   2.593
 8544TIP3    H225555   6.989   5.176   2.485
 8545TIP3   OH225556   8.588   4.093   4.234
 8545TIP3    H125557   8.612   4.066   4.325
 8545TIP3    H225558   8.676   4.108   4.193
 8546TIP3   OH225559   8.540   5.646   3.720
 8546TIP3    H125560   8.461   5.614   3.674
 8546TIP3    H225561   8.520   5.742   3.726
 8547TIP3   OH225562   8.735   4.526   2.758
 8547TIP3    H125563   8.691   4.613   2.764
 8547TIP3    H225564   8.675   4.480   2.694
 8548TIP3   OH225565   8.647   5.049   2.494
 8548TIP3    H125566   8.671   5.075   2.404
 8548TIP3    H225567   8.717   5.091   2.545
 8549TIP3   OH225568   8.740   5.357   3.090
 8549TIP3    H125569   8.815   5.392   3.041
 8549TIP3    H225570   8.690   5.436   3.112
 8550TIP3   OH225571   8.928   4.883   3.456
 8550TIP3    H125572   8.990   4.940   3.510
 8550TIP3    H225573   8.902   4.824   3.529
 8551TIP3   OH225574   8.941   5.558   3.192
 8551TIP3    H125575   8.931   5.484   3.253
 8551TIP3    H225576   8.923   5.636   3.245
 8552TIP3   OH225577   8.769   5.340   2.568
 8552TIP3    H125578   8.691   5.357   2.623
 8552TIP3    H225579   8.739   5.381   2.484
 8553TIP3   OH225580   8.899   5.856   3.622
 8553TIP3    H125581   8.964   5.843   3.695
 8553TIP3    H225582   8.866   5.764   3.612
 8554TIP3   OH225583   9.009   5.341   3.826
 8554TIP3    H125584   9.026   5.253   3.787
 8554TIP3    H225585   8.921   5.359   3.789
 8555TIP3   OH225586   8.594   5.073   2.166
 8555TIP3    H125587   8.685   5.088   2.201
 8555TIP3    H225588   8.592   4.977   2.148
 8556TIP3   OH225589   8.515   5.668   2.604
 8556TIP3    H125590   8.447   5.604   2.573
 8556TIP3    H225591   8.561   5.616   2.673
 8557TIP3   OH225592   8.646   5.530   2.798
 8557TIP3    H125593   8.631   5.455   2.856
 8557TIP3    H225594   8.703   5.588   2.852
 8558TIP3   OH225595   8.794   4.626   3.278
 8558TIP3    H125596   8.823   4.558   3.215
 8558TIP3    H225597   8.852   4.696   3.249
 8559TIP3   OH225598   9.061   5.566   3.615
 8559TIP3    H125599   8.965   5.574   3.625
 8559TIP3    H225600   9.088   5.554   3.707
 8560TIP3   OH225601   8.910   5.863   3.211
 8560TIP3    H125602   8.825   5.906   3.189
 8560TIP3    H225603   8.938   5.918   3.285
 8561TIP3   OH225604   8.839   5.671   2.952
 8561TIP3    H125605   8.872   5.662   3.043
 8561TIP3    H225606   8.910   5.624   2.903
 8562TIP3   OH225607   8.634   5.440   2.350
 8562TIP3    H125608   8.551   5.402   2.316
 8562TIP3    H225609   8.611   5.534   2.344
 8563TIP3   OH225610   8.624   5.394   2.052
 8563TIP3    H125611   8.622   5.479   2.099
 8563TIP3    H225612   8.716   5.368   2.065
 8564TIP3   OH225613   0.462   5.540   4.693
 8564TIP3    H125614   0.436   5.633   4.676
 8564TIP3    H225615   0.387   5.495   4.652
 8565TIP3   OH225616   0.462   5.539   5.075
 8565TIP3    H125617   0.504   5.515   5.160
 8565TIP3    H225618   0.432   5.451   5.044
 8566TIP3   OH225619   0.703   5.850   4.755
 8566TIP3    H125620   0.697   5.777   4.818
 8566TIP3    H225621   0.737   5.922   4.810
 8567TIP3   OH225622   0.388   6.300   4.769
 8567TIP3    H125623   0.398   6.237   4.695
 8567TIP3    H225624   0.461   6.272   4.826
 8568TIP3   OH225625   0.279   5.742   5.105
 8568TIP3    H125626   0.342   5.672   5.079
 8568TIP3    H225627   0.342   5.807   5.141
 8569TIP3   OH225628   1.270   5.094   5.116
 8569TIP3    H125629   1.305   5.174   5.159
 8569TIP3    H225630   1.301   5.106   5.025
 8570TIP3   OH225631   0.680   5.277   5.153
 8570TIP3    H125632   0.722   5.191   5.173
 8570TIP3    H225633   0.645   5.258   5.064
 8571TIP3   OH225634   0.706   5.025   4.739
 8571TIP3    H125635   0.776   5.008   4.806
 8571TIP3    H225636   0.762   5.058   4.666
 8572TIP3   OH225637   1.349   5.299   5.287
 8572TIP3    H125638   1.265   5.346   5.269
 8572TIP3    H225639   1.362   5.321   5.380
 8573TIP3   OH225640   0.350   5.756   4.570
 8573TIP3    H125641   0.326   5.746   4.477
 8573TIP3    H225642   0.308   5.842   4.593
 8574TIP3   OH225643   0.913   5.028   4.912
 8574TIP3    H125644   0.916   4.971   4.990
 8574TIP3    H225645   0.972   5.101   4.938
 8575TIP3   OH225646   0.767   6.091   4.925
 8575TIP3    H125647   0.675   6.083   4.958
 8575TIP3    H225648   0.765   6.178   4.880
 8576TIP3   OH225649   1.067   4.996   5.286
 8576TIP3    H125650   0.981   5.022   5.250
 8576TIP3    H225651   1.129   5.025   5.215
 8577TIP3   OH225652   0.370   4.633   5.256
 8577TIP3    H125653   0.363   4.538   5.278
 8577TIP3    H225654   0.319   4.672   5.329
 8578TIP3   OH225655   0.480   6.127   4.584
 8578TIP3    H125656   0.532   6.046   4.563
 8578TIP3    H225657   0.541   6.195   4.547
 8579TIP3   OH225658   0.622   5.915   4.499
 8579TIP3    H125659   0.608   5.833   4.450
 8579TIP3    H225660   0.656   5.881   4.585
 8580TIP3   OH225661   1.005   6.007   5.265
 8580TIP3    H125662   0.993   5.929   5.207
 8580TIP3    H225663   0.989   6.081   5.202
 8581TIP3   OH225664   0.284   5.402   4.516
 8581TIP3    H125665   0.197   5.425   4.478
 8581TIP3    H225666   0.340   5.397   4.437
 8582TIP3   OH225667   0.281   5.182   4.243
 8582TIP3    H125668   0.351   5.237   4.282
 8582TIP3    H225669   0.334   5.118   4.192
 8583TIP3   OH225670   1.198   5.641   5.110
 8583TIP3    H125671   1.115   5.694   5.115
 8583TIP3    H225672   1.228   5.663   5.020
 8584TIP3   OH225673   0.644   5.482   4.496
 8584TIP3    H125674   0.591   5.503   4.576
 8584TIP3    H225675   0.729   5.454   4.538
 8585TIP3   OH225676   0.876   5.521   5.406
 8585TIP3    H125677   0.874   5.607   5.451
 8585TIP3    H225678   0.792   5.526   5.356
 8586TIP3   OH225679   0.514   6.082   5.038
 8586TIP3    H125680   0.531   6.165   5.088
 8586TIP3    H225681   0.524   6.012   5.106
 8587TIP3   OH225682   0.485   5.345   4.323
 8587TIP3    H125683   0.545   5.402   4.375
 8587TIP3    H225684   0.512   5.367   4.230
 8588TIP3   OH225685   0.236   6.004   4.614
 8588TIP3    H125686   0.325   6.042   4.618
 8588TIP3    H225687   0.188   6.079   4.576
 8589TIP3   OH225688   0.998   4.580   4.367
 8589TIP3    H125689   0.917   4.600   4.418
 8589TIP3    H225690   1.011   4.664   4.318
 8590TIP3   OH225691   0.798   5.947   3.916
 8590TIP3    H125692   0.808   6.043   3.902
 8590TIP3    H225693   0.891   5.917   3.904
 8591TIP3   OH225694   1.240   6.348   5.310
 8591TIP3    H125695   1.239   6.251   5.323
 8591TIP3    H225696   1.158   6.373   5.357
 8592TIP3   OH225697   0.325   6.177   4.024
 8592TIP3    H125698   0.373   6.097   3.996
 8592TIP3    H225699   0.336   6.176   4.121
 8593TIP3   OH225700   0.383   6.208   4.298
 8593TIP3    H125701   0.309   6.219   4.362
 8593TIP3    H225702   0.448   6.163   4.353
 8594TIP3   OH225703   1.127   5.479   5.588
 8594TIP3    H125704   1.050   5.489   5.529
 8594TIP3    H225705   1.147   5.384   5.575
 8595TIP3   OH225706   0.664   4.828   5.589
 8595TIP3    H125707   0.735   4.797   5.650
 8595TIP3    H225708   0.583   4.804   5.637
 8596TIP3   OH225709   0.898   5.255   5.507
 8596TIP3    H125710   0.849   5.251   5.592
 8596TIP3    H225711   0.876   5.343   5.473
 8597TIP3   OH225712   0.561   5.388   4.067
 8597TIP3    H125713   0.527   5.360   3.980
 8597TIP3    H225714   0.644   5.431   4.041
 8598TIP3   OH225715   0.273   4.761   4.364
 8598TIP3    H125716   0.244   4.755   4.457
 8598TIP3    H225717   0.240   4.675   4.331
 8599TIP3   OH225718   0.432   5.203   4.653
 8599TIP3    H125719   0.380   5.273   4.608
 8599TIP3    H225720   0.487   5.169   4.580
 8600TIP3   OH225721   0.622   5.486   5.751
 8600TIP3    H125722   0.590   5.411   5.807
 8600TIP3    H225723   0.717   5.480   5.769
 8601TIP3   OH225724   0.590   5.228   4.893
 8601TIP3    H125725   0.531   5.254   4.820
 8601TIP3    H225726   0.627   5.146   4.853
 8602TIP3   OH225727  -0.057   4.716   4.328
 8602TIP3    H125728  -0.070   4.703   4.423
 8602TIP3    H225729  -0.140   4.760   4.304
 8603TIP3   OH225730   0.593   5.473   5.314
 8603TIP3    H125731   0.631   5.401   5.257
 8603TIP3    H225732   0.574   5.421   5.395
 8604TIP3   OH225733   0.289   4.936   4.981
 8604TIP3    H125734   0.207   4.942   5.035
 8604TIP3    H225735   0.357   4.926   5.049
 8605TIP3   OH225736  -0.016   4.964   4.641
 8605TIP3    H125737   0.079   4.979   4.664
 8605TIP3    H225738  -0.038   5.048   4.600
 8606TIP3   OH225739   0.759   5.014   5.194
 8606TIP3    H125740   0.722   5.024   5.285
 8606TIP3    H225741   0.698   4.949   5.156
 8607TIP3   OH225742   0.945   6.691   5.407
 8607TIP3    H125743   0.933   6.728   5.318
 8607TIP3    H225744   1.012   6.751   5.446
 8608TIP3   OH225745   0.373   5.275   5.104
 8608TIP3    H125746   0.419   5.226   5.034
 8608TIP3    H225747   0.378   5.212   5.178
 8609TIP3   OH225748   0.359   5.144   5.377
 8609TIP3    H125749   0.271   5.180   5.354
 8609TIP3    H225750   0.404   5.217   5.422
 8610TIP3   OH225751   0.966   5.789   5.101
 8610TIP3    H125752   0.992   5.838   5.019
 8610TIP3    H225753   0.883   5.746   5.074
 8611TIP3   OH225754   0.524   4.864   4.332
 8611TIP3    H125755   0.427   4.846   4.341
 8611TIP3    H225756   0.532   4.958   4.359
 8612TIP3   OH225757   0.524   5.879   5.474
 8612TIP3    H125758   0.534   5.818   5.549
 8612TIP3    H225759   0.428   5.894   5.475
 8613TIP3   OH225760   0.594   5.112   4.438
 8613TIP3    H125761   0.690   5.112   4.455
 8613TIP3    H225762   0.582   5.192   4.384
 8614TIP3   OH225763   0.209   5.702   4.315
 8614TIP3    H125764   0.166   5.788   4.326
 8614TIP3    H225765   0.145   5.642   4.358
 8615TIP3   OH225766   0.438   5.683   5.692
 8615TIP3    H125767   0.402   5.635   5.615
 8615TIP3    H225768   0.512   5.625   5.718
 8616TIP3   OH225769   0.634   6.152   5.345
 8616TIP3    H125770   0.540   6.137   5.362
 8616TIP3    H225771   0.663   6.184   5.433
 8617TIP3   OH225772   1.033   5.201   4.275
 8617TIP3    H125773   0.971   5.156   4.212
 8617TIP3    H225774   1.033   5.289   4.233
 8618TIP3   OH225775   1.255   6.059   5.354
 8618TIP3    H125776   1.157   6.053   5.345
 8618TIP3    H225777   1.281   6.028   5.264
 8619TIP3   OH225778   0.738   6.018   4.181
 8619TIP3    H125779   0.713   5.946   4.240
 8619TIP3    H225780   0.748   5.974   4.095
 8620TIP3   OH225781   0.730   5.650   5.020
 8620TIP3    H125782   0.637   5.620   5.029
 8620TIP3    H225783   0.768   5.571   4.975
 8621TIP3   OH225784   0.529   5.856   5.199
 8621TIP3    H125785   0.542   5.859   5.296
 8621TIP3    H225786   0.603   5.800   5.171
 8622TIP3   OH225787   0.498   5.749   4.080
 8622TIP3    H125788   0.541   5.722   4.164
 8622TIP3    H225789   0.408   5.715   4.091
 8623TIP3   OH225790   0.785   6.381   5.245
 8623TIP3    H125791   0.706   6.328   5.267
 8623TIP3    H225792   0.749   6.450   5.186
 8624TIP3   OH225793   0.831   6.222   3.902
 8624TIP3    H125794   0.869   6.296   3.852
 8624TIP3    H225795   0.750   6.266   3.936
 8625TIP3   OH225796   0.650   5.686   4.308
 8625TIP3    H125797   0.642   5.615   4.375
 8625TIP3    H225798   0.746   5.680   4.289
 8626TIP3   OH225799   0.683   5.068   5.456
 8626TIP3    H125800   0.770   5.101   5.486
 8626TIP3    H225801   0.674   4.985   5.507
 8627TIP3   OH225802   0.563   4.816   4.616
 8627TIP3    H125803   0.555   4.837   4.521
 8627TIP3    H225804   0.606   4.897   4.651
 8628TIP3   OH225805   0.252   4.996   4.715
 8628TIP3    H125806   0.318   5.066   4.698
 8628TIP3    H225807   0.262   4.985   4.812
 8629TIP3   OH225808   0.528   5.321   5.527
 8629TIP3    H125809   0.548   5.365   5.612
 8629TIP3    H225810   0.580   5.239   5.534
 8630TIP3   OH225811   0.402   4.720   4.820
 8630TIP3    H125812   0.392   4.798   4.878
 8630TIP3    H225813   0.463   4.755   4.752
 8631TIP3   OH225814  -0.058   4.683   4.616
 8631TIP3    H125815  -0.065   4.764   4.669
 8631TIP3    H225816   0.039   4.677   4.611
 8632TIP3   OH225817   1.167   5.216   5.505
 8632TIP3    H125818   1.069   5.212   5.511
 8632TIP3    H225819   1.180   5.166   5.423
 8633TIP3   OH225820   0.816   5.410   4.895
 8633TIP3    H125821   0.743   5.347   4.906
 8633TIP3    H225822   0.890   5.364   4.941
 8634TIP3   OH225823   0.784   6.362   4.842
 8634TIP3    H125824   0.744   6.415   4.770
 8634TIP3    H225825   0.879   6.382   4.824
 8635TIP3   OH225826   0.031   5.919   4.000
 8635TIP3    H125827  -0.032   5.846   4.003
 8635TIP3    H225828   0.096   5.884   3.938
 8636TIP3   OH225829   0.681   6.257   5.596
 8636TIP3    H125830   0.673   6.193   5.669
 8636TIP3    H225831   0.754   6.315   5.626
 8637TIP3   OH225832   0.458   5.966   3.904
 8637TIP3    H125833   0.500   5.903   3.966
 8637TIP3    H225834   0.520   5.965   3.828
 8638TIP3   OH225835   0.212   5.653   4.037
 8638TIP3    H125836   0.202   5.664   4.134
 8638TIP3    H225837   0.208   5.556   4.027
 8639TIP3   OH225838   0.799   5.876   5.400
 8639TIP3    H125839   0.860   5.939   5.356
 8639TIP3    H225840   0.717   5.928   5.406
 8640TIP3   OH225841   0.010   5.161   4.254
 8640TIP3    H125842   0.009   5.092   4.187
 8640TIP3    H225843   0.107   5.173   4.268
 8641TIP3   OH225844   0.682   5.825   5.813
 8641TIP3    H125845   0.745   5.790   5.748
 8641TIP3    H225846   0.668   5.749   5.872
 8642TIP3   OH225847   0.793   5.477   3.942
 8642TIP3    H125848   0.775   5.430   3.858
 8642TIP3    H225849   0.761   5.567   3.917
 8643TIP3   OH225850   0.295   5.191   5.785
 8643TIP3    H125851   0.298   5.114   5.727
 8643TIP3    H225852   0.209   5.230   5.766
 8644TIP3   OH225853   0.263   4.982   5.579
 8644TIP3    H125854   0.317   5.031   5.513
 8644TIP3    H225855   0.191   4.950   5.523
 8645TIP3   OH225856   0.332   5.590   5.460
 8645TIP3    H125857   0.397   5.533   5.416
 8645TIP3    H225858   0.249   5.563   5.417
 8646TIP3   OH225859   0.891   5.489   5.852
 8646TIP3    H125860   0.932   5.402   5.861
 8646TIP3    H225861   0.959   5.539   5.805
 8647TIP3   OH225862   0.919   5.751   5.602
 8647TIP3    H125863   0.865   5.799   5.534
 8647TIP3    H225864   1.008   5.766   5.562
 8648TIP3   OH225865   0.406   4.757   5.664
 8648TIP3    H125866   0.352   4.835   5.640
 8648TIP3    H225867   0.340   4.684   5.655
 8649TIP3   OH225868   0.537   5.267   5.888
 8649TIP3    H125869   0.524   5.238   5.980
 8649TIP3    H225870   0.447   5.247   5.853
 8650TIP3   OH225871   0.768   5.213   5.740
 8650TIP3    H125872   0.693   5.211   5.803
 8650TIP3    H225873   0.842   5.177   5.794
 8651TIP3   OH225874   0.993   5.149   5.889
 8651TIP3    H125875   1.008   5.053   5.904
 8651TIP3    H225876   0.993   5.185   5.980
 8652TIP3   OH225877   0.493   4.762   5.923
 8652TIP3    H125878   0.560   4.691   5.921
 8652TIP3    H225879   0.457   4.754   5.833
 8653TIP3   OH225880   0.576   4.970   6.079
 8653TIP3    H125881   0.550   4.897   6.018
 8653TIP3    H225882   0.498   5.030   6.072
 8654TIP3   OH225883   1.035   6.464   4.798
 8654TIP3    H125884   1.065   6.486   4.889
 8654TIP3    H225885   1.110   6.492   4.744
 8655TIP3   OH225886   1.070   6.474   5.079
 8655TIP3    H125887   1.025   6.387   5.077
 8655TIP3    H225888   1.144   6.453   5.138
 8656TIP3   OH225889   1.119   6.151   5.654
 8656TIP3    H125890   1.042   6.160   5.714
 8656TIP3    H225891   1.157   6.241   5.656
 8657TIP3   OH225892   0.927   5.665   4.276
 8657TIP3    H125893   0.997   5.727   4.245
 8657TIP3    H225894   0.971   5.626   4.354
 8658TIP3   OH225895   1.055   5.534   4.479
 8658TIP3    H125896   0.992   5.490   4.540
 8658TIP3    H225897   1.124   5.567   4.540
 8659TIP3   OH225898   1.108   5.921   4.907
 8659TIP3    H125899   1.165   5.856   4.862
 8659TIP3    H225900   1.106   5.994   4.842
 8660TIP3   OH225901   0.949   6.221   5.099
 8660TIP3    H125902   0.882   6.268   5.153
 8660TIP3    H225903   0.893   6.173   5.035
 8661TIP3   OH225904   0.996   5.440   4.126
 8661TIP3    H125905   0.924   5.441   4.058
 8661TIP3    H225906   0.967   5.515   4.181
 8662TIP3   OH225907   0.863   5.114   4.082
 8662TIP3    H125908   0.827   5.147   3.999
 8662TIP3    H225909   0.840   5.019   4.075
 8663TIP3   OH225910   0.871   5.387   4.626
 8663TIP3    H125911   0.881   5.291   4.618
 8663TIP3    H225912   0.859   5.399   4.723
 8664TIP3   OH225913   1.161   5.813   5.485
 8664TIP3    H125914   1.233   5.746   5.475
 8664TIP3    H225915   1.186   5.879   5.419
 8665TIP3   OH225916   1.345   5.618   5.505
 8665TIP3    H125917   1.271   5.564   5.541
 8665TIP3    H225918   1.419   5.554   5.517
 8666TIP3   OH225919   0.809   4.849   4.068
 8666TIP3    H125920   0.888   4.817   4.117
 8666TIP3    H225921   0.740   4.784   4.091
 8667TIP3   OH225922   0.868   5.103   4.519
 8667TIP3    H125923   0.907   5.014   4.535
 8667TIP3    H225924   0.928   5.134   4.449
 8668TIP3   OH225925   1.029   5.283   5.014
 8668TIP3    H125926   1.116   5.306   4.973
 8668TIP3    H225927   1.045   5.313   5.105
 8669TIP3   OH225928   1.099   5.422   5.249
 8669TIP3    H125929   1.020   5.457   5.294
 8669TIP3    H225930   1.133   5.501   5.202
 8670TIP3   OH225931   1.548   5.011   5.803
 8670TIP3    H125932   1.609   4.945   5.764
 8670TIP3    H225933   1.525   5.065   5.725
 8671TIP3   OH225934   0.974   4.854   4.559
 8671TIP3    H125935   1.026   4.838   4.640
 8671TIP3    H225936   0.916   4.775   4.558
 8672TIP3   OH225937   1.421   5.154   5.606
 8672TIP3    H125938   1.331   5.190   5.620
 8672TIP3    H225939   1.399   5.078   5.549
 8673TIP3   OH225940   1.057   4.790   4.187
 8673TIP3    H125941   1.099   4.715   4.139
 8673TIP3    H225942   1.128   4.858   4.185
 8674TIP3   OH225943   0.630   6.315   4.461
 8674TIP3    H125944   0.673   6.304   4.373
 8674TIP3    H225945   0.686   6.381   4.502
 8675TIP3   OH225946   1.319   4.912   5.488
 8675TIP3    H125947   1.229   4.900   5.453
 8675TIP3    H225948   1.355   4.821   5.478
 8676TIP3   OH225949   0.518   6.356   5.094
 8676TIP3    H125950   0.433   6.355   5.141
 8676TIP3    H225951   0.546   6.449   5.099
 8677TIP3   OH225952   0.720   6.562   5.037
 8677TIP3    H125953   0.705   6.638   4.978
 8677TIP3    H225954   0.738   6.490   4.973
 8678TIP3   OH225955   0.528   4.830   5.106
 8678TIP3    H125956   0.485   4.754   5.149
 8678TIP3    H225957   0.602   4.786   5.059
 8679TIP3   OH225958   1.046   4.715   5.012
 8679TIP3    H125959   1.085   4.762   4.935
 8679TIP3    H225960   0.951   4.729   4.999
 8680TIP3   OH225961   1.142   4.813   4.774
 8680TIP3    H125962   1.215   4.758   4.737
 8680TIP3    H225963   1.178   4.903   4.759
 8681TIP3   OH225964   0.226   4.565   5.002
 8681TIP3    H125965   0.276   4.615   4.936
 8681TIP3    H225966   0.257   4.605   5.085
 8682TIP3   OH225967   0.759   4.716   4.985
 8682TIP3    H125968   0.769   4.674   4.898
 8682TIP3    H225969   0.749   4.637   5.043
 8683TIP3   OH225970   0.793   4.639   4.548
 8683TIP3    H125971   0.705   4.678   4.559
 8683TIP3    H225972   0.782   4.554   4.596
 8684TIP3   OH225973   0.207   4.740   4.630
 8684TIP3    H125974   0.268   4.701   4.695
 8684TIP3    H225975   0.219   4.834   4.651
 8685TIP3   OH225976   0.765   6.286   4.225
 8685TIP3    H125977   0.759   6.188   4.212
 8685TIP3    H225978   0.721   6.317   4.143
 8686TIP3   OH225979   0.249   4.796   6.141
 8686TIP3    H125980   0.310   4.800   6.066
 8686TIP3    H225981   0.290   4.723   6.191
 8687TIP3   OH225982   1.056   4.880   5.920
 8687TIP3    H125983   1.075   4.845   6.009
 8687TIP3    H225984   1.144   4.873   5.877
 8688TIP3   OH225985   0.998   6.425   5.417
 8688TIP3    H125986   0.922   6.396   5.362
 8688TIP3    H225987   0.981   6.522   5.417
 8689TIP3   OH225988   2.259   5.801   4.182
 8689TIP3    H125989   2.230   5.892   4.162
 8689TIP3    H225990   2.184   5.751   4.145
 8690TIP3   OH225991   2.256   5.805   4.561
 8690TIP3    H125992   2.290   5.773   4.646
 8690TIP3    H225993   2.219   5.723   4.523
 8691TIP3   OH225994   1.557   5.700   4.929
 8691TIP3    H125995   1.588   5.630   4.989
 8691TIP3    H225996   1.639   5.748   4.912
 8692TIP3   OH225997   2.502   6.105   4.241
 8692TIP3    H125998   2.490   6.034   4.305
 8692TIP3    H225999   2.534   6.178   4.297
 8693TIP3   OH226000   1.528   6.107   4.649
 8693TIP3    H126001   1.522   6.009   4.651
 8693TIP3    H226002   1.625   6.117   4.643
 8694TIP3   OH226003   1.236   5.311   4.434
 8694TIP3    H126004   1.188   5.394   4.447
 8694TIP3    H226005   1.166   5.255   4.397
 8695TIP3   OH226006   1.295   5.597   4.605
 8695TIP3    H126007   1.343   5.519   4.642
 8695TIP3    H226008   1.357   5.626   4.537
 8696TIP3   OH226009   2.151   6.567   4.260
 8696TIP3    H126010   2.195   6.498   4.206
 8696TIP3    H226011   2.151   6.526   4.347
 8697TIP3   OH226012   2.058   6.029   4.608
 8697TIP3    H126013   2.096   5.951   4.564
 8697TIP3    H226014   2.142   6.075   4.631
 8698TIP3   OH226015   3.069   5.350   4.604
 8698TIP3    H126016   3.101   5.431   4.648
 8698TIP3    H226017   3.093   5.368   4.511
 8699TIP3   OH226018   2.469   5.531   4.640
 8699TIP3    H126019   2.512   5.446   4.662
 8699TIP3    H226020   2.440   5.514   4.549
 8700TIP3   OH226021   1.806   5.190   4.606
 8700TIP3    H126022   1.788   5.262   4.542
 8700TIP3    H226023   1.760   5.115   4.561
 8701TIP3   OH226024   2.502   5.282   4.227
 8701TIP3    H126025   2.574   5.264   4.293
 8701TIP3    H226026   2.556   5.316   4.153
 8702TIP3   OH226027   1.442   5.392   4.711
 8702TIP3    H126028   1.525   5.372   4.759
 8702TIP3    H226029   1.456   5.336   4.631
 8703TIP3   OH226030   1.882   5.589   4.508
 8703TIP3    H126031   1.977   5.565   4.519
 8703TIP3    H226032   1.845   5.505   4.474
 8704TIP3   OH226033   3.146   5.557   4.773
 8704TIP3    H126034   3.061   5.603   4.754
 8704TIP3    H226035   3.156   5.578   4.868
 8705TIP3   OH226036   1.806   5.174   5.038
 8705TIP3    H126037   1.744   5.209   4.972
 8705TIP3    H226038   1.755   5.188   5.120
 8706TIP3   OH226039   2.141   6.017   4.056
 8706TIP3    H126040   2.121   6.006   3.963
 8706TIP3    H226041   2.103   6.105   4.074
 8707TIP3   OH226042   1.912   5.948   4.834
 8707TIP3    H126043   1.851   6.015   4.872
 8707TIP3    H226044   1.955   5.998   4.762
 8708TIP3   OH226045   2.713   5.283   4.399
 8708TIP3    H126046   2.705   5.233   4.481
 8708TIP3    H226047   2.767   5.359   4.426
 8709TIP3   OH226048   1.674   5.288   4.824
 8709TIP3    H126049   1.739   5.358   4.848
 8709TIP3    H226050   1.723   5.246   4.749
 8710TIP3   OH226051   1.738   6.142   4.933
 8710TIP3    H126052   1.713   6.228   4.894
 8710TIP3    H226053   1.659   6.126   4.989
 8711TIP3   OH226054   1.132   5.831   4.168
 8711TIP3    H126055   1.094   5.860   4.083
 8711TIP3    H226056   1.166   5.915   4.205
 8712TIP3   OH226057   2.573   6.348   4.411
 8712TIP3    H126058   2.482   6.339   4.448
 8712TIP3    H226059   2.565   6.433   4.364
 8713TIP3   OH226060   2.862   5.254   4.771
 8713TIP3    H126061   2.775   5.280   4.737
 8713TIP3    H226062   2.923   5.284   4.700
 8714TIP3   OH226063   2.160   4.891   4.752
 8714TIP3    H126064   2.149   4.797   4.776
 8714TIP3    H226065   2.082   4.929   4.799
 8715TIP3   OH226066   2.272   6.396   4.082
 8715TIP3    H126067   2.319   6.311   4.063
 8715TIP3    H226068   2.335   6.458   4.041
 8716TIP3   OH226069   2.408   6.178   3.990
 8716TIP3    H126070   2.407   6.101   3.931
 8716TIP3    H226071   2.447   6.140   4.072
 8717TIP3   OH226072   2.798   6.261   4.752
 8717TIP3    H126073   2.788   6.183   4.693
 8717TIP3    H226074   2.784   6.335   4.690
 8718TIP3   OH226075   2.092   5.655   4.008
 8718TIP3    H126076   2.014   5.709   3.983
 8718TIP3    H226077   2.141   5.651   3.924
 8719TIP3   OH226078   2.050   5.439   3.726
 8719TIP3    H126079   2.117   5.491   3.773
 8719TIP3    H226080   2.108   5.376   3.678
 8720TIP3   OH226081   2.995   5.898   4.597
 8720TIP3    H126082   2.911   5.949   4.602
 8720TIP3    H226083   3.024   5.922   4.506
 8721TIP3   OH226084   2.437   5.733   3.982
 8721TIP3    H126085   2.385   5.759   4.061
 8721TIP3    H226086   2.523   5.710   4.023
 8722TIP3   OH226087   2.674   5.777   4.892
 8722TIP3    H126088   2.671   5.860   4.943
 8722TIP3    H226089   2.587   5.781   4.846
 8723TIP3   OH226090   1.671   5.736   4.400
 8723TIP3    H126091   1.629   5.678   4.332
 8723TIP3    H226092   1.747   5.682   4.429
 8724TIP3   OH226093   1.800   6.146   4.547
 8724TIP3    H126094   1.781   6.104   4.462
 8724TIP3    H226095   1.890   6.112   4.566
 8725TIP3   OH226096   1.802   5.708   4.752
 8725TIP3    H126097   1.838   5.681   4.665
 8725TIP3    H226098   1.850   5.791   4.771
 8726TIP3   OH226099   2.329   6.344   4.528
 8726TIP3    H126100   2.321   6.423   4.584
 8726TIP3    H226101   2.317   6.270   4.591
 8727TIP3   OH226102   1.946   6.264   5.075
 8727TIP3    H126103   1.885   6.325   5.122
 8727TIP3    H226104   1.881   6.209   5.027
 8728TIP3   OH226105   2.277   5.597   3.804
 8728TIP3    H126106   2.338   5.655   3.856
 8728TIP3    H226107   2.305   5.620   3.712
 8729TIP3   OH226108   1.701   5.821   5.178
 8729TIP3    H126109   1.702   5.908   5.223
 8729TIP3    H226110   1.605   5.800   5.184
 8730TIP3   OH226111   2.018   6.280   4.085
 8730TIP3    H126112   2.103   6.326   4.097
 8730TIP3    H226113   1.963   6.346   4.042
 8731TIP3   OH226114   1.738   6.431   5.162
 8731TIP3    H126115   1.704   6.430   5.071
 8731TIP3    H226116   1.659   6.410   5.215
 8732TIP3   OH226117   2.795   4.836   3.855
 8732TIP3    H126118   2.714   4.856   3.905
 8732TIP3    H226119   2.809   4.919   3.806
 8733TIP3   OH226120   1.535   5.579   4.206
 8733TIP3    H126121   1.470   5.619   4.145
 8733TIP3    H226122   1.502   5.489   4.215
 8734TIP3   OH226123   2.586   6.213   3.404
 8734TIP3    H126124   2.610   6.306   3.385
 8734TIP3    H226125   2.669   6.165   3.386
 8735TIP3   OH226126   1.318   5.962   5.109
 8735TIP3    H126127   1.255   5.936   5.039
 8735TIP3    H226128   1.356   5.876   5.137
 8736TIP3   OH226129   1.174   6.156   4.740
 8736TIP3    H126130   1.269   6.140   4.729
 8736TIP3    H226131   1.175   6.229   4.804
 8737TIP3   OH226132   3.037   6.605   4.796
 8737TIP3    H126133   3.036   6.509   4.813
 8737TIP3    H226134   2.955   6.631   4.843
 8738TIP3   OH226135   2.141   6.393   4.931
 8738TIP3    H126136   2.141   6.485   4.965
 8738TIP3    H226137   2.072   6.352   4.987
 8739TIP3   OH226138   1.898   6.518   3.886
 8739TIP3    H126139   1.859   6.501   3.798
 8739TIP3    H226140   1.871   6.610   3.905
 8740TIP3   OH226141   1.340   6.371   4.271
 8740TIP3    H126142   1.390   6.360   4.355
 8740TIP3    H226143   1.290   6.288   4.270
 8741TIP3   OH226144   2.105   6.417   3.524
 8741TIP3    H126145   2.165   6.348   3.487
 8741TIP3    H226146   2.142   6.426   3.614
 8742TIP3   OH226147   2.153   6.472   3.795
 8742TIP3    H126148   2.066   6.476   3.842
 8742TIP3    H226149   2.208   6.427   3.862
 8743TIP3   OH226150   2.926   5.736   5.073
 8743TIP3    H126151   2.846   5.748   5.020
 8743TIP3    H226152   2.943   5.641   5.061
 8744TIP3   OH226153   1.521   6.146   5.099
 8744TIP3    H126154   1.573   6.128   5.180
 8744TIP3    H226155   1.449   6.080   5.106
 8745TIP3   OH226156   1.920   4.970   4.877
 8745TIP3    H126157   1.831   4.938   4.853
 8745TIP3    H226158   1.896   5.049   4.928
 8746TIP3   OH226159   2.457   5.084   5.077
 8746TIP3    H126160   2.526   5.053   5.138
 8746TIP3    H226161   2.374   5.061   5.123
 8747TIP3   OH226162   2.696   5.512   4.995
 8747TIP3    H126163   2.645   5.509   5.079
 8747TIP3    H226164   2.672   5.599   4.959
 8748TIP3   OH226165   2.355   5.648   3.549
 8748TIP3    H126166   2.333   5.621   3.458
 8748TIP3    H226167   2.442   5.691   3.533
 8749TIP3   OH226168   2.065   5.019   3.853
 8749TIP3    H126169   2.035   5.014   3.945
 8749TIP3    H226170   2.030   4.934   3.819
 8750TIP3   OH226171   1.853   5.484   4.901
 8750TIP3    H126172   1.805   5.507   4.983
 8750TIP3    H226173   1.837   5.565   4.847
 8751TIP3   OH226174   1.737   5.371   4.414
 8751TIP3    H126175   1.645   5.342   4.432
 8751TIP3    H226176   1.752   5.329   4.326
 8752TIP3   OH226177   2.229   5.455   4.141
 8752TIP3    H126178   2.177   5.526   4.099
 8752TIP3    H226179   2.285   5.424   4.067
 8753TIP3   OH226180   2.403   5.736   5.231
 8753TIP3    H126181   2.382   5.661   5.291
 8753TIP3    H226182   2.498   5.747   5.249
 8754TIP3   OH226183   2.386   5.484   4.381
 8754TIP3    H126184   2.326   5.513   4.309
 8754TIP3    H226185   2.420   5.403   4.339
 8755TIP3   OH226186   1.670   5.513   5.111
 8755TIP3    H126187   1.710   5.572   5.176
 8755TIP3    H226188   1.663   5.429   5.160
 8756TIP3   OH226189   1.721   4.988   3.818
 8756TIP3    H126190   1.717   4.986   3.916
 8756TIP3    H226191   1.642   5.042   3.797
 8757TIP3   OH226192   1.267   5.036   4.689
 8757TIP3    H126193   1.343   5.066   4.743
 8757TIP3    H226194   1.308   5.000   4.609
 8758TIP3   OH226195   1.239   5.014   4.210
 8758TIP3    H126196   1.287   5.050   4.132
 8758TIP3    H226197   1.180   5.089   4.229
 8759TIP3   OH226198   2.395   5.730   4.805
 8759TIP3    H126199   2.428   5.658   4.746
 8759TIP3    H226200   2.367   5.676   4.882
 8760TIP3   OH226201   2.065   5.197   4.477
 8760TIP3    H126202   1.985   5.190   4.532
 8760TIP3    H226203   2.136   5.187   4.543
 8761TIP3   OH226204   1.500   5.246   4.485
 8761TIP3    H126205   1.406   5.251   4.457
 8761TIP3    H226206   1.526   5.155   4.462
 8762TIP3   OH226207   1.768   5.245   4.173
 8762TIP3    H126208   1.864   5.256   4.154
 8762TIP3    H226209   1.725   5.266   4.087
 8763TIP3   OH226210   2.557   5.270   4.679
 8763TIP3    H126211   2.521   5.280   4.770
 8763TIP3    H226212   2.494   5.206   4.642
 8764TIP3   OH226213   1.608   5.280   3.950
 8764TIP3    H126214   1.538   5.234   3.901
 8764TIP3    H226215   1.661   5.315   3.876
 8765TIP3   OH226216   2.725   6.956   4.897
 8765TIP3    H126217   2.727   6.980   4.803
 8765TIP3    H226218   2.807   7.001   4.929
 8766TIP3   OH226219   1.683   6.069   5.319
 8766TIP3    H126220   1.765   6.096   5.365
 8766TIP3    H226221   1.621   6.067   5.394
 8767TIP3   OH226222   2.148   5.520   4.574
 8767TIP3    H126223   2.220   5.480   4.522
 8767TIP3    H226224   2.157   5.476   4.660
 8768TIP3   OH226225   1.670   5.008   4.451
 8768TIP3    H126226   1.637   4.929   4.499
 8768TIP3    H226227   1.728   4.969   4.384
 8769TIP3   OH226228   2.126   5.417   4.861
 8769TIP3    H126229   2.036   5.452   4.877
 8769TIP3    H226230   2.184   5.476   4.913
 8770TIP3   OH226231   1.858   5.809   3.955
 8770TIP3    H126232   1.787   5.741   3.948
 8770TIP3    H226233   1.843   5.842   4.047
 8771TIP3   OH226234   2.762   6.044   4.588
 8771TIP3    H126235   2.786   6.093   4.506
 8771TIP3    H226236   2.678   6.000   4.562
 8772TIP3   OH226237   2.320   5.119   3.821
 8772TIP3    H126238   2.223   5.104   3.827
 8772TIP3    H226239   2.330   5.214   3.844
 8773TIP3   OH226240   2.258   6.124   4.955
 8773TIP3    H126241   2.289   6.103   5.044
 8773TIP3    H226242   2.224   6.214   4.964
 8774TIP3   OH226243   2.389   5.369   3.923
 8774TIP3    H126244   2.486   5.374   3.939
 8774TIP3    H226245   2.373   5.448   3.869
 8775TIP3   OH226246   1.552   5.829   4.634
 8775TIP3    H126247   1.590   5.801   4.548
 8775TIP3    H226248   1.598   5.769   4.695
 8776TIP3   OH226249   2.005   5.954   3.774
 8776TIP3    H126250   1.959   6.041   3.782
 8776TIP3    H226251   1.954   5.900   3.838
 8777TIP3   OH226252   1.431   5.754   5.250
 8777TIP3    H126253   1.457   5.737   5.343
 8777TIP3    H226254   1.369   5.682   5.233
 8778TIP3   OH226255   2.161   5.863   5.267
 8778TIP3    H126256   2.103   5.804   5.215
 8778TIP3    H226257   2.249   5.829   5.241
 8779TIP3   OH226258   2.421   6.386   4.851
 8779TIP3    H126259   2.325   6.385   4.864
 8779TIP3    H226260   2.450   6.437   4.929
 8780TIP3   OH226261   2.831   5.449   3.767
 8780TIP3    H126262   2.771   5.406   3.701
 8780TIP3    H226263   2.829   5.539   3.731
 8781TIP3   OH226264   3.049   6.313   4.841
 8781TIP3    H126265   2.951   6.309   4.833
 8781TIP3    H226266   3.075   6.283   4.751
 8782TIP3   OH226267   2.532   6.274   3.667
 8782TIP3    H126268   2.513   6.196   3.721
 8782TIP3    H226269   2.540   6.235   3.578
 8783TIP3   OH226270   2.528   5.906   4.508
 8783TIP3    H126271   2.434   5.880   4.519
 8783TIP3    H226272   2.562   5.826   4.462
 8784TIP3   OH226273   1.655   6.135   4.263
 8784TIP3    H126274   1.659   6.213   4.205
 8784TIP3    H226275   1.561   6.114   4.264
 8785TIP3   OH226276   1.216   5.438   3.959
 8785TIP3    H126277   1.265   5.520   3.982
 8785TIP3    H226278   1.142   5.441   4.023
 8786TIP3   OH226279   1.790   5.897   4.202
 8786TIP3    H126280   1.760   5.987   4.224
 8786TIP3    H226281   1.758   5.846   4.278
 8787TIP3   OH226282   1.923   6.477   4.728
 8787TIP3    H126283   1.968   6.549   4.678
 8787TIP3    H226284   1.999   6.440   4.776
 8788TIP3   OH226285   1.572   6.374   4.109
 8788TIP3    H126286   1.488   6.382   4.158
 8788TIP3    H226287   1.605   6.466   4.113
 8789TIP3   OH226288   2.313   6.111   4.686
 8789TIP3    H126289   2.303   6.107   4.784
 8789TIP3    H226290   2.392   6.057   4.672
 8790TIP3   OH226291   2.261   6.021   3.584
 8790TIP3    H126292   2.337   5.990   3.637
 8790TIP3    H226293   2.188   5.977   3.630
 8791TIP3   OH226294   2.559   6.645   4.738
 8791TIP3    H126295   2.481   6.588   4.730
 8791TIP3    H226296   2.544   6.710   4.665
 8792TIP3   OH226297   2.632   6.485   3.388
 8792TIP3    H126298   2.670   6.563   3.343
 8792TIP3    H226299   2.548   6.524   3.420
 8793TIP3   OH226300   1.647   5.258   5.256
 8793TIP3    H126301   1.550   5.254   5.267
 8793TIP3    H226302   1.677   5.194   5.323
 8794TIP3   OH226303   2.442   5.949   3.797
 8794TIP3    H126304   2.436   5.874   3.858
 8794TIP3    H226305   2.538   5.947   3.776
 8795TIP3   OH226306   1.359   6.340   4.887
 8795TIP3    H126307   1.414   6.264   4.913
 8795TIP3    H226308   1.391   6.407   4.949
 8796TIP3   OH226309   1.646   5.987   3.570
 8796TIP3    H126310   1.673   5.898   3.540
 8796TIP3    H226311   1.631   5.971   3.665
 8797TIP3   OH226312   1.596   5.989   3.846
 8797TIP3    H126313   1.675   5.959   3.894
 8797TIP3    H226314   1.605   6.087   3.851
 8798TIP3   OH226315   1.333   5.681   4.044
 8798TIP3    H126316   1.268   5.727   4.101
 8798TIP3    H226317   1.352   5.750   3.978
 8799TIP3   OH226318   2.480   5.322   4.940
 8799TIP3    H126319   2.564   5.355   4.975
 8799TIP3    H226320   2.467   5.240   4.992
 8800TIP3   OH226321   2.362   5.072   4.102
 8800TIP3    H126322   2.350   5.094   4.007
 8800TIP3    H226323   2.401   5.155   4.137
 8801TIP3   OH226324   1.862   6.184   3.791
 8801TIP3    H126325   1.777   6.216   3.825
 8801TIP3    H226326   1.884   6.254   3.728
 8802TIP3   OH226327   2.050   5.252   4.204
 8802TIP3    H126328   2.116   5.322   4.186
 8802TIP3    H226329   2.058   5.243   4.302
 8803TIP3   OH226330   2.322   5.569   5.012
 8803TIP3    H126331   2.345   5.619   5.093
 8803TIP3    H226332   2.376   5.489   5.021
 8804TIP3   OH226333   2.196   4.978   4.305
 8804TIP3    H126334   2.197   5.052   4.368
 8804TIP3    H226335   2.257   5.013   4.236
 8805TIP3   OH226336   1.605   6.263   3.856
 8805TIP3    H126337   1.576   6.334   3.794
 8805TIP3    H226338   1.591   6.306   3.943
 8806TIP3   OH226339   1.708   4.976   4.094
 8806TIP3    H126340   1.708   5.066   4.134
 8806TIP3    H226341   1.803   4.955   4.104
 8807TIP3   OH226342   2.963   5.471   4.990
 8807TIP3    H126343   2.866   5.469   4.999
 8807TIP3    H226344   2.973   5.422   4.908
 8808TIP3   OH226345   2.613   5.665   4.382
 8808TIP3    H126346   2.538   5.604   4.393
 8808TIP3    H226347   2.685   5.618   4.428
 8809TIP3   OH226348   1.326   5.895   3.848
 8809TIP3    H126349   1.398   5.960   3.860
 8809TIP3    H226350   1.370   5.836   3.782
 8810TIP3   OH226351   1.269   5.168   3.986
 8810TIP3    H126352   1.270   5.266   3.979
 8810TIP3    H226353   1.189   5.145   3.939
 8811TIP3   OH226354   2.581   6.620   4.330
 8811TIP3    H126355   2.539   6.667   4.255
 8811TIP3    H226356   2.675   6.638   4.310
 8812TIP3   OH226357   1.653   4.889   4.859
 8812TIP3    H126358   1.627   4.851   4.772
 8812TIP3    H226359   1.648   4.811   4.918
 8813TIP3   OH226360   1.201   6.113   4.239
 8813TIP3    H126361   1.123   6.139   4.290
 8813TIP3    H226362   1.177   6.148   4.151
 8814TIP3   OH226363   1.353   6.646   5.308
 8814TIP3    H126364   1.439   6.648   5.354
 8814TIP3    H226365   1.334   6.551   5.307
 8815TIP3   OH226366   1.833   6.613   5.354
 8815TIP3    H126367   1.928   6.596   5.362
 8815TIP3    H226368   1.810   6.554   5.280
 8816TIP3   OH226369   1.817   6.188   3.483
 8816TIP3    H126370   1.762   6.115   3.519
 8816TIP3    H226371   1.895   6.138   3.452
 8817TIP3   OH226372   2.472   6.520   5.089
 8817TIP3    H126373   2.465   6.449   5.157
 8817TIP3    H226374   2.552   6.568   5.116
 8818TIP3   OH226375   2.257   6.225   3.393
 8818TIP3    H126376   2.286   6.156   3.456
 8818TIP3    H226377   2.329   6.222   3.327
 8819TIP3   OH226378   1.483   6.053   5.512
 8819TIP3    H126379   1.501   5.957   5.513
 8819TIP3    H226380   1.397   6.055   5.464
 8820TIP3   OH226381   1.459   5.705   3.704
 8820TIP3    H126382   1.515   5.670   3.776
 8820TIP3    H226383   1.526   5.710   3.632
 8821TIP3   OH226384   2.088   6.137   5.284
 8821TIP3    H126385   2.053   6.154   5.195
 8821TIP3    H226386   2.122   6.045   5.277
 8822TIP3   OH226387   1.952   5.900   3.508
 8822TIP3    H126388   1.971   5.914   3.603
 8822TIP3    H226389   1.964   5.803   3.502
 8823TIP3   OH226390   2.583   6.148   4.890
 8823TIP3    H126391   2.660   6.190   4.846
 8823TIP3    H226392   2.515   6.215   4.873
 8824TIP3   OH226393   1.602   5.787   5.490
 8824TIP3    H126394   1.679   5.734   5.464
 8824TIP3    H226395   1.630   5.821   5.578
 8825TIP3   OH226396   1.665   5.608   3.924
 8825TIP3    H126397   1.645   5.564   4.008
 8825TIP3    H226398   1.705   5.535   3.872
 8826TIP3   OH226399   1.934   5.670   5.151
 8826TIP3    H126400   1.860   5.734   5.152
 8826TIP3    H226401   1.988   5.705   5.076
 8827TIP3   OH226402   1.770   5.403   3.766
 8827TIP3    H126403   1.746   5.406   3.671
 8827TIP3    H226404   1.868   5.405   3.760
 8828TIP3   OH226405   2.456   6.076   5.287
 8828TIP3    H126406   2.535   6.052   5.239
 8828TIP3    H226407   2.453   6.007   5.356
 8829TIP3   OH226408   2.059   5.461   5.282
 8829TIP3    H126409   2.062   5.380   5.226
 8829TIP3    H226410   2.016   5.525   5.221
 8830TIP3   OH226411   2.062   5.252   5.089
 8830TIP3    H126412   2.093   5.287   5.003
 8830TIP3    H226413   1.970   5.225   5.068
 8831TIP3   OH226414   2.090   5.783   4.962
 8831TIP3    H126415   2.175   5.787   4.915
 8831TIP3    H226416   2.037   5.850   4.915
 8832TIP3   OH226417   2.674   5.750   5.342
 8832TIP3    H126418   2.720   5.665   5.349
 8832TIP3    H226419   2.743   5.807   5.306
 8833TIP3   OH226420   2.714   6.004   5.078
 8833TIP3    H126421   2.656   6.057   5.018
 8833TIP3    H226422   2.802   6.023   5.038
 8834TIP3   OH226423   1.934   5.576   5.510
 8834TIP3    H126424   1.870   5.503   5.523
 8834TIP3    H226425   1.972   5.551   5.423
 8835TIP3   OH226426   2.197   5.012   5.151
 8835TIP3    H126427   2.144   5.091   5.132
 8835TIP3    H226428   2.131   4.940   5.141
 8836TIP3   OH226429   2.321   5.517   5.370
 8836TIP3    H126430   2.311   5.501   5.466
 8836TIP3    H226431   2.231   5.490   5.341
 8837TIP3   OH226432   2.563   5.470   5.226
 8837TIP3    H126433   2.487   5.465   5.288
 8837TIP3    H226434   2.637   5.435   5.280
 8838TIP3   OH226435   2.791   5.406   5.375
 8838TIP3    H126436   2.804   5.310   5.391
 8838TIP3    H226437   2.788   5.442   5.466
 8839TIP3   OH226438   1.778   5.354   5.564
 8839TIP3    H126439   1.783   5.264   5.527
 8839TIP3    H226440   1.817   5.339   5.653
 8840TIP3   OH226441   2.284   5.025   5.413
 8840TIP3    H126442   2.357   4.960   5.412
 8840TIP3    H226443   2.249   5.013   5.322
 8841TIP3   OH226444   2.358   5.237   5.569
 8841TIP3    H126445   2.336   5.164   5.506
 8841TIP3    H226446   2.279   5.294   5.562
 8842TIP3   OH226447   1.577   6.468   3.670
 8842TIP3    H126448   1.673   6.458   3.653
 8842TIP3    H226449   1.552   6.516   3.589
 8843TIP3   OH226450   1.057   5.847   3.886
 8843TIP3    H126451   1.152   5.869   3.871
 8843TIP3    H226452   1.052   5.758   3.847
 8844TIP3   OH226453   0.968   6.458   4.302
 8844TIP3    H126454   0.904   6.395   4.264
 8844TIP3    H226455   1.014   6.400   4.367
 8845TIP3   OH226456   1.105   6.314   4.490
 8845TIP3    H126457   1.099   6.236   4.548
 8845TIP3    H226458   1.159   6.373   4.545
 8846TIP3   OH226459   2.832   6.714   4.286
 8846TIP3    H126460   2.861   6.743   4.375
 8846TIP3    H226461   2.898   6.754   4.228
 8847TIP3   OH226462   2.864   6.731   4.568
 8847TIP3    H126463   2.821   6.643   4.564
 8847TIP3    H226464   2.939   6.710   4.626
 8848TIP3   OH226465   2.910   6.408   5.142
 8848TIP3    H126466   2.837   6.418   5.206
 8848TIP3    H226467   2.953   6.496   5.146
 8849TIP3   OH226468   2.715   5.950   3.788
 8849TIP3    H126469   2.787   5.981   3.731
 8849TIP3    H226470   2.762   5.883   3.841
 8850TIP3   OH226471   2.857   5.778   3.961
 8850TIP3    H126472   2.786   5.742   4.019
 8850TIP3    H226473   2.913   5.827   4.024
 8851TIP3   OH226474   2.907   6.180   4.397
 8851TIP3    H126475   2.960   6.113   4.348
 8851TIP3    H226476   2.901   6.253   4.333
 8852TIP3   OH226477   2.740   6.481   4.592
 8852TIP3    H126478   2.669   6.521   4.645
 8852TIP3    H226479   2.690   6.433   4.523
 8853TIP3   OH226480   2.669   5.368   3.569
 8853TIP3    H126481   2.629   5.426   3.503
 8853TIP3    H226482   2.635   5.280   3.544
 8854TIP3   OH226483   2.667   5.645   4.113
 8854TIP3    H126484   2.675   5.548   4.106
 8854TIP3    H226485   2.654   5.658   4.210
 8855TIP3   OH226486   1.293   5.722   4.857
 8855TIP3    H126487   1.294   5.688   4.765
 8855TIP3    H226488   1.390   5.722   4.876
 8856TIP3   OH226489   2.957   6.069   4.969
 8856TIP3    H126490   3.029   6.003   4.960
 8856TIP3    H226491   2.985   6.139   4.907
 8857TIP3   OH226492   3.142   5.874   4.986
 8857TIP3    H126493   3.068   5.823   5.025
 8857TIP3    H226494   3.215   5.810   5.000
 8858TIP3   OH226495   2.607   5.099   3.548
 8858TIP3    H126496   2.681   5.074   3.607
 8858TIP3    H226497   2.534   5.043   3.577
 8859TIP3   OH226498   2.664   5.360   4.008
 8859TIP3    H126499   2.704   5.271   4.023
 8859TIP3    H226500   2.722   5.391   3.936
 8860TIP3   OH226501   2.826   5.536   4.501
 8860TIP3    H126502   2.912   5.560   4.461
 8860TIP3    H226503   2.840   5.570   4.591
 8861TIP3   OH226504   2.895   5.678   4.733
 8861TIP3    H126505   2.817   5.712   4.781
 8861TIP3    H226506   2.928   5.759   4.688
 8862TIP3   OH226507   1.512   5.407   5.539
 8862TIP3    H126508   1.610   5.398   5.535
 8862TIP3    H226509   1.488   5.320   5.574
 8863TIP3   OH226510   3.347   5.270   5.290
 8863TIP3    H126511   3.407   5.204   5.249
 8863TIP3    H226512   3.319   5.323   5.212
 8864TIP3   OH226513   2.773   5.110   4.044
 8864TIP3    H126514   2.822   5.094   4.127
 8864TIP3    H226515   2.712   5.033   4.043
 8865TIP3   OH226516   1.471   5.098   4.868
 8865TIP3    H126517   1.530   5.020   4.875
 8865TIP3    H226518   1.536   5.169   4.858
 8866TIP3   OH226519   1.274   5.373   4.935
 8866TIP3    H126520   1.324   5.361   4.851
 8866TIP3    H226521   1.313   5.454   4.969
 8867TIP3   OH226522   3.218   5.409   5.094
 8867TIP3    H126523   3.130   5.449   5.113
 8867TIP3    H226524   3.190   5.335   5.036
 8868TIP3   OH226525   2.855   5.045   3.678
 8868TIP3    H126526   2.893   4.973   3.624
 8868TIP3    H226527   2.922   5.115   3.670
 8869TIP3   OH226528   1.259   4.877   4.440
 8869TIP3    H126529   1.165   4.871   4.464
 8869TIP3    H226530   1.257   4.933   4.360
 8870TIP3   OH226531   2.416   6.580   3.942
 8870TIP3    H126532   2.466   6.561   3.860
 8870TIP3    H226533   2.476   6.640   3.989
 8871TIP3   OH226534   1.481   4.966   5.258
 8871TIP3    H126535   1.427   4.947   5.336
 8871TIP3    H226536   1.412   4.989   5.193
 8872TIP3   OH226537   1.518   6.384   5.328
 8872TIP3    H126538   1.428   6.352   5.312
 8872TIP3    H226539   1.532   6.362   5.421
 8873TIP3   OH226540   1.696   6.413   4.876
 8873TIP3    H126541   1.652   6.491   4.836
 8873TIP3    H226542   1.784   6.424   4.834
 8874TIP3   OH226543   2.142   6.660   5.015
 8874TIP3    H126544   2.185   6.659   5.104
 8874TIP3    H226545   2.209   6.709   4.963
 8875TIP3   OH226546   2.322   6.810   4.872
 8875TIP3    H126547   2.393   6.759   4.832
 8875TIP3    H226548   2.374   6.867   4.934
 8876TIP3   OH226549   3.116   5.172   4.974
 8876TIP3    H126550   3.025   5.159   4.941
 8876TIP3    H226551   3.152   5.081   4.962
 8877TIP3   OH226552   1.373   6.674   4.896
 8877TIP3    H126553   1.282   6.708   4.883
 8877TIP3    H226554   1.390   6.705   4.986
 8878TIP3   OH226555   1.611   6.650   4.760
 8878TIP3    H126556   1.524   6.662   4.803
 8878TIP3    H226557   1.593   6.677   4.668
 8879TIP3   OH226558   2.035   6.678   4.557
 8879TIP3    H126559   1.970   6.701   4.489
 8879TIP3    H226560   2.050   6.765   4.601
 8880TIP3   OH226561   2.305   6.617   4.608
 8880TIP3    H126562   2.211   6.635   4.586
 8880TIP3    H226563   2.350   6.692   4.566
 8881TIP3   OH226564   2.510   6.808   4.522
 8881TIP3    H126565   2.498   6.893   4.474
 8881TIP3    H226566   2.539   6.748   4.451
 8882TIP3   OH226567   1.287   6.473   4.646
 8882TIP3    H126568   1.314   6.444   4.736
 8882TIP3    H226569   1.355   6.426   4.593
 8883TIP3   OH226570   1.477   6.337   4.504
 8883TIP3    H126571   1.493   6.251   4.550
 8883TIP3    H226572   1.569   6.371   4.498
 8884TIP3   OH226573   1.744   6.431   4.507
 8884TIP3    H126574   1.776   6.340   4.490
 8884TIP3    H226575   1.792   6.450   4.590
 8885TIP3   OH226576   2.315   5.084   4.587
 8885TIP3    H126577   2.276   5.016   4.644
 8885TIP3    H226578   2.392   5.038   4.549
 8886TIP3   OH226579   2.843   4.965   4.494
 8886TIP3    H126580   2.880   5.018   4.421
 8886TIP3    H226581   2.748   4.985   4.488
 8887TIP3   OH226582   2.939   5.068   4.260
 8887TIP3    H126583   3.012   5.017   4.220
 8887TIP3    H226584   2.972   5.160   4.246
 8888TIP3   OH226585   1.570   4.795   4.608
 8888TIP3    H126586   1.478   4.761   4.612
 8888TIP3    H226587   1.619   4.710   4.607
 8889TIP3   OH226588   1.347   4.666   4.253
 8889TIP3    H126589   1.385   4.722   4.183
 8889TIP3    H226590   1.329   4.731   4.324
 8890TIP3   OH226591   2.009   4.833   4.491
 8890TIP3    H126592   2.071   4.879   4.431
 8890TIP3    H226593   2.040   4.864   4.577
 8891TIP3   OH226594   2.559   4.976   4.473
 8891TIP3    H126595   2.558   4.937   4.384
 8891TIP3    H226596   2.545   4.895   4.529
 8892TIP3   OH226597   2.590   4.896   4.035
 8892TIP3    H126598   2.502   4.938   4.046
 8892TIP3    H226599   2.575   4.811   4.082
 8893TIP3   OH226600   1.072   6.235   4.037
 8893TIP3    H126601   0.987   6.201   4.003
 8893TIP3    H226602   1.061   6.330   4.016
 8894TIP3   OH226603   1.474   4.826   4.018
 8894TIP3    H126604   1.522   4.761   3.963
 8894TIP3    H226605   1.548   4.879   4.055
 8895TIP3   OH226606   1.985   5.000   4.119
 8895TIP3    H126607   2.044   4.951   4.178
 8895TIP3    H226608   2.009   5.092   4.145
 8896TIP3   OH226609   1.845   6.426   3.617
 8896TIP3    H126610   1.936   6.445   3.584
 8896TIP3    H226611   1.824   6.350   3.559
 8897TIP3   OH226612   2.563   6.540   3.711
 8897TIP3    H126613   2.556   6.442   3.701
 8897TIP3    H226614   2.520   6.570   3.629
 8898TIP3   OH226615   1.776   5.081   5.505
 8898TIP3    H126616   1.744   5.005   5.555
 8898TIP3    H226617   1.872   5.078   5.528
 8899TIP3   OH226618   2.028   5.076   5.619
 8899TIP3    H126619   2.111   5.048   5.575
 8899TIP3    H226620   2.017   5.005   5.685
 8900TIP3   OH226621   1.150   6.264   3.675
 8900TIP3    H126622   1.152   6.283   3.769
 8900TIP3    H226623   1.237   6.220   3.660
 8901TIP3   OH226624   2.852   5.137   5.407
 8901TIP3    H126625   2.869   5.101   5.497
 8901TIP3    H226626   2.940   5.128   5.366
 8902TIP3   OH226627   2.791   6.689   4.897
 8902TIP3    H126628   2.712   6.658   4.849
 8902TIP3    H226629   2.772   6.785   4.903
 8903TIP3   OH226630   4.058   6.060   3.664
 8903TIP3    H126631   4.029   6.151   3.644
 8903TIP3    H226632   3.980   6.010   3.633
 8904TIP3   OH226633   4.058   6.058   4.045
 8904TIP3    H126634   4.088   6.030   4.133
 8904TIP3    H226635   4.014   5.978   4.013
 8905TIP3   OH226636   3.355   5.955   4.410
 8905TIP3    H126637   3.385   5.886   4.473
 8905TIP3    H226638   3.434   6.011   4.406
 8906TIP3   OH226639   4.301   6.360   3.727
 8906TIP3    H126640   4.282   6.292   3.792
 8906TIP3    H226641   4.327   6.435   3.783
 8907TIP3   OH226642   3.325   6.365   4.136
 8907TIP3    H126643   3.317   6.267   4.138
 8907TIP3    H226644   3.422   6.374   4.133
 8908TIP3   OH226645   3.038   5.565   3.921
 8908TIP3    H126646   2.987   5.647   3.937
 8908TIP3    H226647   2.966   5.507   3.889
 8909TIP3   OH226648   3.095   5.858   4.095
 8909TIP3    H126649   3.142   5.779   4.130
 8909TIP3    H226650   3.148   5.880   4.018
 8910TIP3   OH226651   3.948   6.825   3.744
 8910TIP3    H126652   3.995   6.753   3.696
 8910TIP3    H226653   3.939   6.787   3.832
 8911TIP3   OH226654   3.854   6.286   4.094
 8911TIP3    H126655   3.891   6.209   4.048
 8911TIP3    H226656   3.939   6.330   4.118
 8912TIP3   OH226657   4.874   5.606   4.090
 8912TIP3    H126658   4.898   5.689   4.136
 8912TIP3    H226659   4.884   5.632   3.997
 8913TIP3   OH226660   4.270   5.789   4.126
 8913TIP3    H126661   4.308   5.701   4.148
 8913TIP3    H226662   4.236   5.772   4.036
 8914TIP3   OH226663   3.606   5.446   4.091
 8914TIP3    H126664   3.583   5.518   4.029
 8914TIP3    H226665   3.557   5.372   4.048
 8915TIP3   OH226666   4.299   5.537   3.715
 8915TIP3    H126667   4.371   5.519   3.780
 8915TIP3    H226668   4.352   5.573   3.641
 8916TIP3   OH226669   3.238   5.648   4.198
 8916TIP3    H126670   3.321   5.628   4.246
 8916TIP3    H226671   3.251   5.591   4.119
 8917TIP3   OH226672   3.679   5.846   3.990
 8917TIP3    H126673   3.773   5.820   4.005
 8917TIP3    H226674   3.640   5.762   3.959
 8918TIP3   OH226675   4.944   5.817   4.258
 8918TIP3    H126676   4.858   5.860   4.238
 8918TIP3    H226677   4.947   5.832   4.354
 8919TIP3   OH226678   3.602   5.430   4.526
 8919TIP3    H126679   3.540   5.466   4.460
 8919TIP3    H226680   3.551   5.445   4.608
 8920TIP3   OH226681   3.951   6.282   3.533
 8920TIP3    H126682   3.904   6.259   3.452
 8920TIP3    H226683   3.906   6.365   3.558
 8921TIP3   OH226684   3.709   6.205   4.322
 8921TIP3    H126685   3.646   6.269   4.361
 8921TIP3    H226686   3.749   6.257   4.249
 8922TIP3   OH226687   4.512   5.537   3.885
 8922TIP3    H126688   4.493   5.491   3.967
 8922TIP3    H226689   4.560   5.616   3.916
 8923TIP3   OH226690   3.472   5.545   4.310
 8923TIP3    H126691   3.535   5.616   4.335
 8923TIP3    H226692   3.521   5.503   4.235
 8924TIP3   OH226693   3.535   6.398   4.419
 8924TIP3    H126694   3.509   6.484   4.382
 8924TIP3    H226695   3.457   6.381   4.475
 8925TIP3   OH226696   2.933   6.082   3.649
 8925TIP3    H126697   2.880   6.109   3.571
 8925TIP3    H226698   2.957   6.166   3.690
 8926TIP3   OH226699   4.371   6.605   3.895
 8926TIP3    H126700   4.282   6.595   3.936
 8926TIP3    H226701   4.361   6.691   3.850
 8927TIP3   OH226702   4.655   5.524   4.257
 8927TIP3    H126703   4.566   5.541   4.223
 8927TIP3    H226704   4.712   5.546   4.181
 8928TIP3   OH226705   3.954   5.154   4.235
 8928TIP3    H126706   3.946   5.059   4.258
 8928TIP3    H226707   3.877   5.190   4.285
 8929TIP3   OH226708   4.074   6.651   3.571
 8929TIP3    H126709   4.122   6.568   3.550
 8929TIP3    H226710   4.135   6.715   3.529
 8930TIP3   OH226711   4.216   6.436   3.476
 8930TIP3    H126712   4.172   6.359   3.438
 8930TIP3    H226713   4.252   6.399   3.560
 8931TIP3   OH226714   4.597   6.518   4.238
 8931TIP3    H126715   4.583   6.440   4.180
 8931TIP3    H226716   4.578   6.592   4.176
 8932TIP3   OH226717   3.888   5.911   3.496
 8932TIP3    H126718   3.807   5.962   3.476
 8932TIP3    H226719   3.931   5.908   3.409
 8933TIP3   OH226720   3.846   5.695   3.212
 8933TIP3    H126721   3.913   5.747   3.260
 8933TIP3    H226722   3.904   5.632   3.165
 8934TIP3   OH226723   4.792   6.156   4.083
 8934TIP3    H126724   4.708   6.205   4.090
 8934TIP3    H226725   4.820   6.181   3.992
 8935TIP3   OH226726   4.236   5.993   3.467
 8935TIP3    H126727   4.180   6.018   3.545
 8935TIP3    H226728   4.319   5.969   3.513
 8936TIP3   OH226729   4.470   6.034   4.377
 8936TIP3    H126730   4.466   6.117   4.429
 8936TIP3    H226731   4.383   6.036   4.334
 8937TIP3   OH226732   3.468   5.992   3.883
 8937TIP3    H126733   3.425   5.934   3.817
 8937TIP3    H226734   3.543   5.937   3.913
 8938TIP3   OH226735   3.598   6.405   4.032
 8938TIP3    H126736   3.575   6.361   3.950
 8938TIP3    H226737   3.687   6.369   4.050
 8939TIP3   OH226738   3.607   5.961   4.240
 8939TIP3    H126739   3.637   5.941   4.149
 8939TIP3    H226740   3.648   6.048   4.258
 8940TIP3   OH226741   4.131   6.599   4.016
 8940TIP3    H126742   4.116   6.679   4.069
 8940TIP3    H226743   4.114   6.527   4.079
 8941TIP3   OH226744   3.742   6.519   4.561
 8941TIP3    H126745   3.682   6.581   4.609
 8941TIP3    H226746   3.676   6.466   4.513
 8942TIP3   OH226747   4.077   5.850   3.293
 8942TIP3    H126748   4.134   5.912   3.344
 8942TIP3    H226749   4.104   5.873   3.200
 8943TIP3   OH226750   3.496   6.077   4.663
 8943TIP3    H126751   3.500   6.163   4.708
 8943TIP3    H226752   3.401   6.056   4.674
 8944TIP3   OH226753   3.819   6.530   3.569
 8944TIP3    H126754   3.896   6.586   3.587
 8944TIP3    H226755   3.757   6.592   3.529
 8945TIP3   OH226756   3.536   6.687   4.650
 8945TIP3    H126757   3.499   6.686   4.560
 8945TIP3    H226758   3.457   6.665   4.705
 8946TIP3   OH226759   4.591   5.091   3.343
 8946TIP3    H126760   4.509   5.110   3.393
 8946TIP3    H226761   4.603   5.176   3.295
 8947TIP3   OH226762   3.334   5.834   3.689
 8947TIP3    H126763   3.268   5.879   3.632
 8947TIP3    H226764   3.292   5.749   3.703
 8948TIP3   OH226765   4.389   6.459   2.896
 8948TIP3    H126766   4.395   6.554   2.873
 8948TIP3    H226767   4.480   6.429   2.879
 8949TIP3   OH226768   3.114   6.218   4.596
 8949TIP3    H126769   3.049   6.195   4.527
 8949TIP3    H226770   3.152   6.131   4.621
 8950TIP3   OH226771   2.968   6.412   4.229
 8950TIP3    H126772   3.064   6.402   4.219
 8950TIP3    H226773   2.962   6.490   4.285
 8951TIP3   OH226774   4.834   6.862   4.284
 8951TIP3    H126775   4.832   6.765   4.300
 8951TIP3    H226776   4.751   6.888   4.330
 8952TIP3   OH226777   3.938   6.648   4.419
 8952TIP3    H126778   3.938   6.740   4.452
 8952TIP3    H226779   3.867   6.608   4.474
 8953TIP3   OH226780   3.700   6.778   3.370
 8953TIP3    H126781   3.653   6.758   3.287
 8953TIP3    H226782   3.666   6.866   3.394
 8954TIP3   OH226783   3.138   6.627   3.756
 8954TIP3    H126784   3.184   6.617   3.842
 8954TIP3    H226785   3.086   6.545   3.754
 8955TIP3   OH226786   3.900   6.682   3.013
 8955TIP3    H126787   3.957   6.610   2.977
 8955TIP3    H226788   3.934   6.689   3.104
 8956TIP3   OH226789   3.952   6.727   3.282
 8956TIP3    H126790   3.862   6.737   3.323
 8956TIP3    H226791   4.000   6.683   3.354
 8957TIP3   OH226792   4.725   5.994   4.557
 8957TIP3    H126793   4.640   6.006   4.511
 8957TIP3    H226794   4.739   5.898   4.547
 8958TIP3   OH226795   3.319   6.400   4.585
 8958TIP3    H126796   3.368   6.385   4.668
 8958TIP3    H226797   3.245   6.337   4.593
 8959TIP3   OH226798   3.718   5.226   4.367
 8959TIP3    H126799   3.629   5.194   4.341
 8959TIP3    H226800   3.693   5.306   4.416
 8960TIP3   OH226801   4.252   5.343   4.564
 8960TIP3    H126802   4.321   5.309   4.625
 8960TIP3    H226803   4.169   5.319   4.610
 8961TIP3   OH226804   4.500   5.774   4.488
 8961TIP3    H126805   4.444   5.766   4.568
 8961TIP3    H226806   4.468   5.856   4.448
 8962TIP3   OH226807   4.154   5.896   3.038
 8962TIP3    H126808   4.117   5.873   2.951
 8962TIP3    H226809   4.230   5.951   3.011
 8963TIP3   OH226810   3.867   5.272   3.341
 8963TIP3    H126811   3.831   5.269   3.432
 8963TIP3    H226812   3.825   5.191   3.305
 8964TIP3   OH226813   3.652   5.739   4.389
 8964TIP3    H126814   3.600   5.761   4.469
 8964TIP3    H226815   3.636   5.820   4.335
 8965TIP3   OH226816   3.534   5.627   3.901
 8965TIP3    H126817   3.442   5.600   3.920
 8965TIP3    H226818   3.547   5.585   3.813
 8966TIP3   OH226819   4.026   5.713   3.630
 8966TIP3    H126820   3.972   5.784   3.588
 8966TIP3    H226821   4.078   5.681   3.554
 8967TIP3   OH226822   4.199   5.991   4.716
 8967TIP3    H126823   4.177   5.918   4.778
 8967TIP3    H226824   4.293   6.005   4.738
 8968TIP3   OH226825   4.183   5.741   3.868
 8968TIP3    H126826   4.121   5.770   3.798
 8968TIP3    H226827   4.215   5.659   3.825
 8969TIP3   OH226828   3.470   5.768   4.596
 8969TIP3    H126829   3.496   5.831   4.665
 8969TIP3    H226830   3.458   5.686   4.647
 8970TIP3   OH226831   3.521   5.247   3.306
 8970TIP3    H126832   3.511   5.244   3.403
 8970TIP3    H226833   3.441   5.299   3.281
 8971TIP3   OH226834   3.062   5.293   4.176
 8971TIP3    H126835   3.139   5.322   4.230
 8971TIP3    H226836   3.103   5.258   4.095
 8972TIP3   OH226837   3.039   5.271   3.695
 8972TIP3    H126838   3.083   5.311   3.617
 8972TIP3    H226839   2.976   5.343   3.716
 8973TIP3   OH226840   4.195   5.987   4.291
 8973TIP3    H126841   4.227   5.915   4.233
 8973TIP3    H226842   4.164   5.934   4.368
 8974TIP3   OH226843   3.862   5.450   3.963
 8974TIP3    H126844   3.778   5.447   4.014
 8974TIP3    H226845   3.928   5.445   4.034
 8975TIP3   OH226846   3.298   5.504   3.971
 8975TIP3    H126847   3.203   5.512   3.943
 8975TIP3    H226848   3.319   5.411   3.948
 8976TIP3   OH226849   3.566   5.500   3.659
 8976TIP3    H126850   3.659   5.516   3.635
 8976TIP3    H226851   3.517   5.522   3.577
 8977TIP3   OH226852   4.353   5.524   4.162
 8977TIP3    H126853   4.322   5.536   4.255
 8977TIP3    H226854   4.287   5.461   4.129
 8978TIP3   OH226855   3.408   5.533   3.440
 8978TIP3    H126856   3.333   5.490   3.394
 8978TIP3    H226857   3.458   5.568   3.363
 8979TIP3   OH226858   4.523   7.212   4.384
 8979TIP3    H126859   4.521   7.237   4.290
 8979TIP3    H226860   4.601   7.262   4.416
 8980TIP3   OH226861   3.482   6.323   4.805
 8980TIP3    H126862   3.561   6.354   4.854
 8980TIP3    H226863   3.417   6.322   4.878
 8981TIP3   OH226864   3.944   5.778   4.062
 8981TIP3    H126865   4.015   5.733   4.013
 8981TIP3    H226866   3.949   5.734   4.150
 8982TIP3   OH226867   3.469   5.264   3.939
 8982TIP3    H126868   3.433   5.186   3.986
 8982TIP3    H226869   3.518   5.223   3.866
 8983TIP3   OH226870   3.922   5.676   4.345
 8983TIP3    H126871   3.831   5.708   4.363
 8983TIP3    H226872   3.978   5.734   4.399
 8984TIP3   OH226873   3.659   6.064   3.446
 8984TIP3    H126874   3.588   5.998   3.435
 8984TIP3    H226875   3.639   6.098   3.537
 8985TIP3   OH226876   4.559   6.299   4.075
 8985TIP3    H126877   4.580   6.350   3.994
 8985TIP3    H226878   4.473   6.257   4.051
 8986TIP3   OH226879   4.116   5.377   3.304
 8986TIP3    H126880   4.020   5.357   3.315
 8986TIP3    H226881   4.123   5.471   3.331
 8987TIP3   OH226882   4.062   6.385   4.441
 8987TIP3    H126883   4.079   6.358   4.532
 8987TIP3    H226884   4.018   6.471   4.451
 8988TIP3   OH226885   4.186   5.623   3.411
 8988TIP3    H126886   4.281   5.631   3.427
 8988TIP3    H226887   4.166   5.704   3.359
 8989TIP3   OH226888   3.354   6.090   4.121
 8989TIP3    H126889   3.388   6.057   4.036
 8989TIP3    H226890   3.387   6.023   4.183
 8990TIP3   OH226891   3.803   6.213   3.266
 8990TIP3    H126892   3.756   6.299   3.271
 8990TIP3    H226893   3.748   6.158   3.327
 8991TIP3   OH226894   3.231   6.007   4.734
 8991TIP3    H126895   3.251   5.992   4.829
 8991TIP3    H226896   3.163   5.939   4.718
 8992TIP3   OH226897   3.956   6.120   4.753
 8992TIP3    H126898   3.896   6.060   4.707
 8992TIP3    H226899   4.043   6.085   4.725
 8993TIP3   OH226900   4.218   6.645   4.335
 8993TIP3    H126901   4.122   6.639   4.350
 8993TIP3    H226902   4.246   6.694   4.415
 8994TIP3   OH226903   4.631   5.713   3.244
 8994TIP3    H126904   4.568   5.669   3.182
 8994TIP3    H226905   4.625   5.803   3.207
 8995TIP3   OH226906   4.847   6.571   4.327
 8995TIP3    H126907   4.749   6.566   4.320
 8995TIP3    H226908   4.871   6.540   4.237
 8996TIP3   OH226909   4.333   6.533   3.159
 8996TIP3    H126910   4.299   6.462   3.215
 8996TIP3    H226911   4.341   6.489   3.072
 8997TIP3   OH226912   4.325   6.162   3.993
 8997TIP3    H126913   4.231   6.137   4.008
 8997TIP3    H226914   4.357   6.082   3.948
 8998TIP3   OH226915   3.451   6.389   3.745
 8998TIP3    H126916   3.448   6.471   3.691
 8998TIP3    H226917   3.357   6.370   3.756
 8999TIP3   OH226918   2.992   5.695   3.455
 8999TIP3    H126919   3.041   5.777   3.476
 8999TIP3    H226920   2.899   5.723   3.468
 9000TIP3   OH226921   3.592   6.156   3.690
 9000TIP3    H126922   3.555   6.245   3.709
 9000TIP3    H226923   3.554   6.104   3.764
 9001TIP3   OH226924   3.720   6.734   4.215
 9001TIP3    H126925   3.763   6.806   4.165
 9001TIP3    H226926   3.795   6.698   4.265
 9002TIP3   OH226927   3.370   6.629   3.597
 9002TIP3    H126928   3.285   6.637   3.645
 9002TIP3    H226929   3.401   6.722   3.600
 9003TIP3   OH226930   4.109   6.366   4.173
 9003TIP3    H126931   4.099   6.366   4.271
 9003TIP3    H226932   4.189   6.312   4.163
 9004TIP3   OH226933   4.081   6.256   3.057
 9004TIP3    H126934   4.133   6.233   3.137
 9004TIP3    H226935   3.992   6.234   3.086
 9005TIP3   OH226936   4.358   6.900   4.224
 9005TIP3    H126937   4.279   6.843   4.219
 9005TIP3    H226938   4.340   6.964   4.151
 9006TIP3   OH226939   4.424   6.736   2.877
 9006TIP3    H126940   4.456   6.806   2.818
 9006TIP3    H226941   4.343   6.779   2.911
 9007TIP3   OH226942   3.442   5.513   4.742
 9007TIP3    H126943   3.346   5.514   4.755
 9007TIP3    H226944   3.470   5.450   4.812
 9008TIP3   OH226945   4.243   6.194   3.273
 9008TIP3    H126946   4.232   6.129   3.345
 9008TIP3    H226947   4.340   6.191   3.260
 9009TIP3   OH226948   3.158   6.596   4.375
 9009TIP3    H126949   3.211   6.520   4.405
 9009TIP3    H226950   3.186   6.664   4.438
 9010TIP3   OH226951   3.449   6.241   3.055
 9010TIP3    H126952   3.463   6.149   3.026
 9010TIP3    H226953   3.430   6.229   3.150
 9011TIP3   OH226954   3.396   6.247   3.327
 9011TIP3    H126955   3.465   6.218   3.388
 9011TIP3    H226956   3.401   6.345   3.335
 9012TIP3   OH226957   3.134   5.939   3.529
 9012TIP3    H126958   3.065   5.981   3.585
 9012TIP3    H226959   3.144   6.008   3.461
 9013TIP3   OH226960   4.282   5.575   4.423
 9013TIP3    H126961   4.361   5.610   4.468
 9013TIP3    H226962   4.263   5.494   4.475
 9014TIP3   OH226963   4.163   5.326   3.587
 9014TIP3    H126964   4.146   5.350   3.495
 9014TIP3    H226965   4.198   5.410   3.625
 9015TIP3   OH226966   3.662   6.444   3.277
 9015TIP3    H126967   3.575   6.469   3.313
 9015TIP3    H226968   3.675   6.514   3.212
 9016TIP3   OH226969   3.851   5.506   3.691
 9016TIP3    H126970   3.914   5.580   3.675
 9016TIP3    H226971   3.853   5.499   3.789
 9017TIP3   OH226972   4.119   5.827   4.498
 9017TIP3    H126973   4.138   5.880   4.578
 9017TIP3    H226974   4.172   5.746   4.514
 9018TIP3   OH226975   3.993   5.235   3.794
 9018TIP3    H126976   3.987   5.312   3.853
 9018TIP3    H226977   4.053   5.270   3.724
 9019TIP3   OH226978   3.406   6.520   3.344
 9019TIP3    H126979   3.373   6.589   3.282
 9019TIP3    H226980   3.388   6.561   3.431
 9020TIP3   OH226981   3.505   5.232   3.582
 9020TIP3    H126982   3.502   5.322   3.619
 9020TIP3    H226983   3.600   5.214   3.590
 9021TIP3   OH226984   4.765   5.722   4.474
 9021TIP3    H126985   4.668   5.727   4.490
 9021TIP3    H226986   4.764   5.670   4.393
 9022TIP3   OH226987   4.410   5.919   3.866
 9022TIP3    H126988   4.333   5.862   3.879
 9022TIP3    H226989   4.480   5.871   3.915
 9023TIP3   OH226990   3.123   6.148   3.337
 9023TIP3    H126991   3.190   6.218   3.346
 9023TIP3    H226992   3.168   6.092   3.270
 9024TIP3   OH226993   3.064   5.429   3.470
 9024TIP3    H126994   3.055   5.526   3.473
 9024TIP3    H226995   2.981   5.403   3.429
 9025TIP3   OH226996   4.378   6.876   3.817
 9025TIP3    H126997   4.335   6.923   3.742
 9025TIP3    H226998   4.472   6.894   3.795
 9026TIP3   OH226999   3.454   5.146   4.344
 9026TIP3    H127000   3.423   5.110   4.258
 9026TIP3    H227001   3.442   5.069   4.404
 9027TIP3   OH227002   2.999   6.374   3.728
 9027TIP3    H127003   2.921   6.395   3.781
 9027TIP3    H227004   2.970   6.405   3.639
 9028TIP3   OH227005   3.149   6.907   4.794
 9028TIP3    H127006   3.234   6.908   4.844
 9028TIP3    H227007   3.128   6.812   4.797
 9029TIP3   OH227008   3.635   6.873   4.836
 9029TIP3    H127009   3.727   6.846   4.847
 9029TIP3    H227010   3.606   6.812   4.765
 9030TIP3   OH227011   3.613   6.445   2.969
 9030TIP3    H127012   3.557   6.373   3.005
 9030TIP3    H227013   3.689   6.393   2.936
 9031TIP3   OH227014   4.273   6.774   4.572
 9031TIP3    H127015   4.261   6.705   4.642
 9031TIP3    H227016   4.348   6.825   4.606
 9032TIP3   OH227017   4.044   6.487   2.893
 9032TIP3    H127018   4.096   6.421   2.942
 9032TIP3    H227019   4.089   6.489   2.805
 9033TIP3   OH227020   3.280   6.307   4.995
 9033TIP3    H127021   3.296   6.211   5.000
 9033TIP3    H227022   3.192   6.311   4.952
 9034TIP3   OH227023   3.258   5.964   3.188
 9034TIP3    H127024   3.311   5.928   3.261
 9034TIP3    H227025   3.326   5.967   3.117
 9035TIP3   OH227026   3.891   6.396   4.768
 9035TIP3    H127027   3.846   6.411   4.683
 9035TIP3    H227028   3.919   6.302   4.761
 9036TIP3   OH227029   3.766   6.161   2.997
 9036TIP3    H127030   3.769   6.172   3.094
 9036TIP3    H227031   3.766   6.063   2.990
 9037TIP3   OH227032   4.381   6.402   4.376
 9037TIP3    H127033   4.454   6.451   4.333
 9037TIP3    H227034   4.307   6.465   4.364
 9038TIP3   OH227035   3.399   6.044   4.979
 9038TIP3    H127036   3.474   5.987   4.958
 9038TIP3    H227037   3.425   6.079   5.066
 9039TIP3   OH227038   3.470   5.865   3.414
 9039TIP3    H127039   3.436   5.824   3.495
 9039TIP3    H227040   3.502   5.788   3.364
 9040TIP3   OH227041   3.734   5.930   4.641
 9040TIP3    H127042   3.656   5.989   4.642
 9040TIP3    H227043   3.784   5.964   4.563
 9041TIP3   OH227044   3.565   5.658   3.252
 9041TIP3    H127045   3.538   5.663   3.158
 9041TIP3    H227046   3.662   5.663   3.244
 9042TIP3   OH227047   4.252   6.332   4.775
 9042TIP3    H127048   4.332   6.307   4.729
 9042TIP3    H227049   4.246   6.265   4.845
 9043TIP3   OH227050   4.394   5.986   2.912
 9043TIP3    H127051   4.368   5.943   2.828
 9043TIP3    H227052   4.360   6.077   2.893
 9044TIP3   OH227053   3.859   5.718   4.766
 9044TIP3    H127054   3.857   5.638   4.711
 9044TIP3    H227055   3.813   5.783   4.708
 9045TIP3   OH227056   3.859   5.507   4.573
 9045TIP3    H127057   3.886   5.544   4.487
 9045TIP3    H227058   3.766   5.482   4.556
 9046TIP3   OH227059   3.888   6.040   4.447
 9046TIP3    H127060   3.970   6.048   4.397
 9046TIP3    H227061   3.830   6.106   4.402
 9047TIP3   OH227062   4.468   6.007   4.827
 9047TIP3    H127063   4.516   5.924   4.839
 9047TIP3    H227064   4.537   6.067   4.797
 9048TIP3   OH227065   4.511   6.259   4.563
 9048TIP3    H127066   4.452   6.311   4.505
 9048TIP3    H227067   4.598   6.280   4.522
 9049TIP3   OH227068   3.735   5.830   4.996
 9049TIP3    H127069   3.667   5.761   5.011
 9049TIP3    H227070   3.769   5.805   4.909
 9050TIP3   OH227071   3.992   5.269   4.639
 9050TIP3    H127072   3.940   5.349   4.618
 9050TIP3    H227073   3.925   5.198   4.629
 9051TIP3   OH227074   4.118   5.772   4.856
 9051TIP3    H127075   4.105   5.759   4.952
 9051TIP3    H227076   4.029   5.748   4.825
 9052TIP3   OH227077   4.357   5.721   4.711
 9052TIP3    H127078   4.281   5.722   4.772
 9052TIP3    H227079   4.430   5.688   4.768
 9053TIP3   OH227080   4.594   5.662   4.862
 9053TIP3    H127081   4.599   5.565   4.880
 9053TIP3    H227082   4.583   5.700   4.952
 9054TIP3   OH227083   3.575   5.610   5.049
 9054TIP3    H127084   3.579   5.519   5.015
 9054TIP3    H227085   3.612   5.597   5.139
 9055TIP3   OH227086   4.086   5.280   4.897
 9055TIP3    H127087   4.153   5.208   4.894
 9055TIP3    H227088   4.047   5.271   4.809
 9056TIP3   OH227089   4.155   5.494   5.055
 9056TIP3    H127090   4.133   5.421   4.993
 9056TIP3    H227091   4.075   5.550   5.050
 9057TIP3   OH227092   3.373   6.725   3.158
 9057TIP3    H127093   3.469   6.717   3.138
 9057TIP3    H227094   3.344   6.771   3.077
 9058TIP3   OH227095   2.849   6.109   3.367
 9058TIP3    H127096   2.945   6.124   3.356
 9058TIP3    H227097   2.840   6.017   3.336
 9059TIP3   OH227098   2.765   6.716   3.786
 9059TIP3    H127099   2.700   6.652   3.750
 9059TIP3    H227100   2.811   6.660   3.852
 9060TIP3   OH227101   2.900   6.571   3.976
 9060TIP3    H127102   2.892   6.493   4.033
 9060TIP3    H227103   2.954   6.629   4.032
 9061TIP3   OH227104   4.632   6.964   3.773
 9061TIP3    H127105   4.655   6.996   3.862
 9061TIP3    H227106   4.690   7.017   3.716
 9062TIP3   OH227107   4.661   6.986   4.053
 9062TIP3    H127108   4.615   6.899   4.050
 9062TIP3    H227109   4.733   6.964   4.115
 9063TIP3   OH227110   4.705   6.665   4.626
 9063TIP3    H127111   4.633   6.672   4.692
 9063TIP3    H227112   4.747   6.753   4.633
 9064TIP3   OH227113   4.523   6.174   3.249
 9064TIP3    H127114   4.589   6.240   3.220
 9064TIP3    H227115   4.567   6.137   3.329
 9065TIP3   OH227116   4.652   6.042   3.453
 9065TIP3    H127117   4.583   6.001   3.510
 9065TIP3    H227118   4.711   6.084   3.519
 9066TIP3   OH227119   4.706   6.437   3.886
 9066TIP3    H127120   4.756   6.372   3.834
 9066TIP3    H227121   4.694   6.510   3.822
 9067TIP3   OH227122   4.536   6.738   4.079
 9067TIP3    H127123   4.465   6.779   4.131
 9067TIP3    H227124   4.485   6.690   4.009
 9068TIP3   OH227125   4.589   5.951   3.098
 9068TIP3    H127126   4.519   5.953   3.029
 9068TIP3    H227127   4.559   6.027   3.153
 9069TIP3   OH227128   4.465   5.623   3.050
 9069TIP3    H127129   4.414   5.665   2.980
 9069TIP3    H227130   4.436   5.529   3.039
 9070TIP3   OH227131   4.467   5.900   3.599
 9070TIP3    H127132   4.470   5.804   3.593
 9070TIP3    H227133   4.451   5.914   3.695
 9071TIP3   OH227134   3.090   5.975   4.346
 9071TIP3    H127135   3.088   5.944   4.253
 9071TIP3    H227136   3.187   5.976   4.363
 9072TIP3   OH227137   4.754   6.326   4.454
 9072TIP3    H127138   4.827   6.260   4.445
 9072TIP3    H227139   4.781   6.396   4.393
 9073TIP3   OH227140   4.940   6.131   4.468
 9073TIP3    H127141   4.864   6.083   4.507
 9073TIP3    H227142   5.011   6.066   4.484
 9074TIP3   OH227143   4.404   5.356   3.036
 9074TIP3    H127144   4.473   5.327   3.098
 9074TIP3    H227145   4.327   5.302   3.060
 9075TIP3   OH227146   4.461   5.616   3.495
 9075TIP3    H127147   4.500   5.527   3.510
 9075TIP3    H227148   4.519   5.648   3.424
 9076TIP3   OH227149   4.623   5.788   3.989
 9076TIP3    H127150   4.709   5.816   3.950
 9076TIP3    H227151   4.634   5.826   4.078
 9077TIP3   OH227152   4.691   5.934   4.218
 9077TIP3    H127153   4.614   5.966   4.269
 9077TIP3    H227154   4.722   6.017   4.176
 9078TIP3   OH227155   3.309   5.663   5.024
 9078TIP3    H127156   3.406   5.654   5.022
 9078TIP3    H227157   3.284   5.576   5.061
 9079TIP3   OH227158   4.571   5.365   3.529
 9079TIP3    H127159   4.616   5.351   3.615
 9079TIP3    H227160   4.508   5.290   3.529
 9080TIP3   OH227161   3.269   5.353   4.350
 9080TIP3    H127162   3.330   5.278   4.361
 9080TIP3    H227163   3.332   5.427   4.344
 9081TIP3   OH227164   3.072   5.627   4.423
 9081TIP3    H127165   3.121   5.621   4.339
 9081TIP3    H227166   3.102   5.712   4.456
 9082TIP3   OH227167   5.023   5.659   4.604
 9082TIP3    H127168   4.940   5.704   4.629
 9082TIP3    H227169   4.988   5.592   4.542
 9083TIP3   OH227170   4.652   5.301   3.166
 9083TIP3    H127171   4.689   5.229   3.110
 9083TIP3    H227172   4.718   5.372   3.155
 9084TIP3   OH227173   3.056   5.133   3.926
 9084TIP3    H127174   2.962   5.127   3.950
 9084TIP3    H227175   3.053   5.189   3.846
 9085TIP3   OH227176   4.215   6.834   3.430
 9085TIP3    H127177   4.265   6.820   3.347
 9085TIP3    H227178   4.270   6.900   3.475
 9086TIP3   OH227179   3.278   5.218   4.741
 9086TIP3    H127180   3.225   5.203   4.821
 9086TIP3    H227181   3.209   5.248   4.679
 9087TIP3   OH227182   3.316   6.637   4.817
 9087TIP3    H127183   3.224   6.610   4.801
 9087TIP3    H227184   3.326   6.619   4.912
 9088TIP3   OH227185   3.493   6.669   4.363
 9088TIP3    H127186   3.445   6.745   4.324
 9088TIP3    H227187   3.579   6.683   4.319
 9089TIP3   OH227188   3.939   6.914   4.501
 9089TIP3    H127189   3.980   6.915   4.590
 9089TIP3    H227190   4.005   6.966   4.450
 9090TIP3   OH227191   4.118   7.067   4.360
 9090TIP3    H127192   4.189   7.014   4.320
 9090TIP3    H227193   4.169   7.124   4.421
 9091TIP3   OH227194   4.916   5.427   4.459
 9091TIP3    H127195   4.823   5.419   4.428
 9091TIP3    H227196   4.941   5.333   4.447
 9092TIP3   OH227197   3.170   6.929   4.385
 9092TIP3    H127198   3.081   6.963   4.364
 9092TIP3    H227199   3.180   6.961   4.476
 9093TIP3   OH227200   3.407   6.906   4.245
 9093TIP3    H127201   3.320   6.919   4.290
 9093TIP3    H227202   3.387   6.938   4.155
 9094TIP3   OH227203   3.833   6.935   4.041
 9094TIP3    H127204   3.762   6.954   3.978
 9094TIP3    H227205   3.844   7.022   4.085
 9095TIP3   OH227206   4.101   6.874   4.093
 9095TIP3    H127207   4.007   6.890   4.074
 9095TIP3    H227208   4.143   6.952   4.053
 9096TIP3   OH227209   4.311   7.067   4.010
 9096TIP3    H127210   4.296   7.151   3.961
 9096TIP3    H227211   4.335   7.005   3.937
 9097TIP3   OH227212   3.082   6.721   4.133
 9097TIP3    H127213   3.109   6.695   4.224
 9097TIP3    H227214   3.153   6.676   4.082
 9098TIP3   OH227215   3.275   6.592   3.989
 9098TIP3    H127216   3.290   6.508   4.038
 9098TIP3    H227217   3.366   6.628   3.984
 9099TIP3   OH227218   3.542   6.687   3.991
 9099TIP3    H127219   3.573   6.595   3.979
 9099TIP3    H227220   3.586   6.708   4.076
 9100TIP3   OH227221   4.117   5.343   4.078
 9100TIP3    H127222   4.071   5.276   4.132
 9100TIP3    H227223   4.188   5.291   4.037
 9101TIP3   OH227224   4.643   5.225   3.983
 9101TIP3    H127225   4.674   5.279   3.907
 9101TIP3    H227226   4.546   5.239   3.980
 9102TIP3   OH227227   4.737   5.325   3.746
 9102TIP3    H127228   4.811   5.276   3.705
 9102TIP3    H227229   4.767   5.418   3.732
 9103TIP3   OH227230   3.366   5.053   4.095
 9103TIP3    H127231   3.273   5.020   4.097
 9103TIP3    H227232   3.414   4.967   4.090
 9104TIP3   OH227233   3.154   4.922   3.744
 9104TIP3    H127234   3.181   4.979   3.670
 9104TIP3    H227235   3.124   4.986   3.810
 9105TIP3   OH227236   3.810   5.087   3.977
 9105TIP3    H127237   3.870   5.136   3.919
 9105TIP3    H227238   3.832   5.124   4.064
 9106TIP3   OH227239   4.362   5.229   3.960
 9106TIP3    H127240   4.351   5.189   3.873
 9106TIP3    H227241   4.345   5.152   4.019
 9107TIP3   OH227242   4.386   5.153   3.521
 9107TIP3    H127243   4.300   5.196   3.535
 9107TIP3    H227244   4.372   5.069   3.570
 9108TIP3   OH227245   2.873   6.491   3.522
 9108TIP3    H127246   2.789   6.453   3.488
 9108TIP3    H227247   2.855   6.585   3.507
 9109TIP3   OH227248   3.269   5.081   3.506
 9109TIP3    H127249   3.317   5.018   3.450
 9109TIP3    H227250   3.342   5.135   3.543
 9110TIP3   OH227251   3.782   5.257   3.605
 9110TIP3    H127252   3.840   5.208   3.666
 9110TIP3    H227253   3.805   5.349   3.631
 9111TIP3   OH227254   3.640   6.682   3.104
 9111TIP3    H127255   3.730   6.703   3.069
 9111TIP3    H227256   3.619   6.607   3.044
 9112TIP3   OH227257   4.362   6.800   3.198
 9112TIP3    H127258   4.355   6.702   3.188
 9112TIP3    H227259   4.316   6.830   3.117
 9113TIP3   OH227260   3.574   5.336   4.990
 9113TIP3    H127261   3.538   5.263   5.043
 9113TIP3    H227262   3.668   5.334   5.016
 9114TIP3   OH227263   3.825   5.332   5.106
 9114TIP3    H127264   3.907   5.301   5.065
 9114TIP3    H227265   3.810   5.263   5.174
 9115TIP3   OH227266   2.948   6.526   3.162
 9115TIP3    H127267   2.943   6.536   3.258
 9115TIP3    H227268   3.034   6.480   3.151
 9116TIP3   OH227269   4.646   5.386   4.892
 9116TIP3    H127270   4.661   5.356   4.984
 9116TIP3    H227271   4.735   5.376   4.853
 9117TIP3   OH227272   4.589   6.944   4.383
 9117TIP3    H127273   4.509   6.912   4.337
 9117TIP3    H227274   4.567   7.040   4.390
 9118TIP3   OH227275   5.853   6.315   3.149
 9118TIP3    H127276   5.828   6.408   3.132
 9118TIP3    H227277   5.770   6.271   3.129
 9119TIP3   OH227278   5.854   6.312   3.530
 9119TIP3    H127279   5.885   6.291   3.620
 9119TIP3    H227280   5.808   6.230   3.505
 9120TIP3   OH227281   5.154   6.211   3.892
 9120TIP3    H127282   5.182   6.143   3.957
 9120TIP3    H227283   5.226   6.275   3.901
 9121TIP3   OH227284   6.095   6.617   3.215
 9121TIP3    H127285   6.081   6.550   3.282
 9121TIP3    H227286   6.123   6.694   3.267
 9122TIP3   OH227287   5.122   6.622   3.621
 9122TIP3    H127288   5.113   6.524   3.624
 9122TIP3    H227289   5.218   6.631   3.622
 9123TIP3   OH227290   4.833   5.827   3.407
 9123TIP3    H127291   4.782   5.908   3.424
 9123TIP3    H227292   4.762   5.769   3.373
 9124TIP3   OH227293   4.890   6.114   3.581
 9124TIP3    H127294   4.938   6.035   3.617
 9124TIP3    H227295   4.945   6.138   3.506
 9125TIP3   OH227296   5.745   7.082   3.229
 9125TIP3    H127297   5.792   7.009   3.183
 9125TIP3    H227298   5.735   7.045   3.318
 9126TIP3   OH227299   5.651   6.542   3.580
 9126TIP3    H127300   5.691   6.466   3.534
 9126TIP3    H227301   5.734   6.587   3.606
 9127TIP3   OH227302   6.664   5.862   3.579
 9127TIP3    H127303   6.692   5.944   3.623
 9127TIP3    H227304   6.684   5.882   3.486
 9128TIP3   OH227305   6.065   6.044   3.614
 9128TIP3    H127306   6.106   5.958   3.635
 9128TIP3    H227307   6.033   6.027   3.523
 9129TIP3   OH227308   5.402   5.703   3.577
 9129TIP3    H127309   5.378   5.775   3.516
 9129TIP3    H227310   5.352   5.629   3.536
 9130TIP3   OH227311   6.096   5.792   3.200
 9130TIP3    H127312   6.165   5.775   3.268
 9130TIP3    H227313   6.151   5.829   3.129
 9131TIP3   OH227314   5.035   5.906   3.684
 9131TIP3    H127315   5.117   5.885   3.733
 9131TIP3    H227316   5.046   5.846   3.607
 9132TIP3   OH227317   5.477   6.101   3.472
 9132TIP3    H127318   5.569   6.076   3.491
 9132TIP3    H227319   5.437   6.016   3.444
 9133TIP3   OH227320   6.736   6.069   3.750
 9133TIP3    H127321   6.654   6.117   3.728
 9133TIP3    H227322   6.751   6.101   3.840
 9134TIP3   OH227323   5.398   5.687   4.014
 9134TIP3    H127324   5.339   5.724   3.946
 9134TIP3    H227325   5.345   5.705   4.094
 9135TIP3   OH227326   5.748   6.540   3.017
 9135TIP3    H127327   5.698   6.520   2.937
 9135TIP3    H227328   5.705   6.623   3.046
 9136TIP3   OH227329   5.504   6.461   3.810
 9136TIP3    H127330   5.441   6.525   3.849
 9136TIP3    H227331   5.544   6.514   3.738
 9137TIP3   OH227332   6.305   5.796   3.372
 9137TIP3    H127333   6.291   5.749   3.456
 9137TIP3    H227334   6.357   5.873   3.400
 9138TIP3   OH227335   5.269   5.801   3.797
 9138TIP3    H127336   5.330   5.874   3.822
 9138TIP3    H227337   5.320   5.760   3.724
 9139TIP3   OH227338   5.331   6.654   3.905
 9139TIP3    H127339   5.305   6.741   3.869
 9139TIP3    H227340   5.252   6.637   3.962
 9140TIP3   OH227341   4.728   6.343   3.141
 9140TIP3    H127342   4.683   6.368   3.058
 9140TIP3    H227343   4.755   6.430   3.176
 9141TIP3   OH227344   6.165   6.860   3.379
 9141TIP3    H127345   6.076   6.851   3.421
 9141TIP3    H227346   6.156   6.947   3.336
 9142TIP3   OH227347   6.457   5.761   3.745
 9142TIP3    H127348   6.369   5.791   3.716
 9142TIP3    H227349   6.516   5.794   3.674
 9143TIP3   OH227350   5.755   5.398   3.735
 9143TIP3    H127351   5.742   5.306   3.765
 9143TIP3    H227352   5.675   5.439   3.777
 9144TIP3   OH227353   5.871   6.907   3.057
 9144TIP3    H127354   5.921   6.825   3.036
 9144TIP3    H227355   5.932   6.973   3.016
 9145TIP3   OH227356   6.014   6.691   2.961
 9145TIP3    H127357   5.961   6.615   2.932
 9145TIP3    H227358   6.050   6.657   3.047
 9146TIP3   OH227359   6.390   6.775   3.725
 9146TIP3    H127360   6.381   6.697   3.667
 9146TIP3    H227361   6.376   6.850   3.664
 9147TIP3   OH227362   5.679   6.160   2.980
 9147TIP3    H127363   5.600   6.217   2.965
 9147TIP3    H227364   5.728   6.173   2.897
 9148TIP3   OH227365   5.653   5.931   2.712
 9148TIP3    H127366   5.710   5.992   2.762
 9148TIP3    H227367   5.720   5.889   2.653
 9149TIP3   OH227368   6.586   6.408   3.568
 9149TIP3    H127369   6.504   6.461   3.576
 9149TIP3    H227370   6.617   6.436   3.479
 9150TIP3   OH227371   6.031   6.246   2.954
 9150TIP3    H127372   5.976   6.272   3.032
 9150TIP3    H227373   6.115   6.224   2.998
 9151TIP3   OH227374   6.266   6.290   3.866
 9151TIP3    H127375   6.264   6.373   3.917
 9151TIP3    H227376   6.179   6.295   3.821
 9152TIP3   OH227377   5.264   6.247   3.369
 9152TIP3    H127378   5.224   6.189   3.301
 9152TIP3    H227379   5.341   6.194   3.399
 9153TIP3   OH227380   5.396   6.663   3.518
 9153TIP3    H127381   5.372   6.617   3.437
 9153TIP3    H227382   5.485   6.627   3.537
 9154TIP3   OH227383   5.409   6.216   3.725
 9154TIP3    H127384   5.436   6.202   3.632
 9154TIP3    H227385   5.445   6.305   3.746
 9155TIP3   OH227386   5.926   6.855   3.502
 9155TIP3    H127387   5.913   6.936   3.555
 9155TIP3    H227388   5.909   6.784   3.567
 9156TIP3   OH227389   5.537   6.776   4.048
 9156TIP3    H127390   5.478   6.837   4.096
 9156TIP3    H227391   5.471   6.722   4.000
 9157TIP3   OH227392   5.874   6.105   2.780
 9157TIP3    H127393   5.930   6.167   2.832
 9157TIP3    H227394   5.900   6.130   2.688
 9158TIP3   OH227395   5.290   6.332   4.147
 9158TIP3    H127396   5.297   6.418   4.193
 9158TIP3    H227397   5.196   6.311   4.164
 9159TIP3   OH227398   5.616   6.785   3.054
 9159TIP3    H127399   5.692   6.843   3.074
 9159TIP3    H227400   5.552   6.847   3.017
 9160TIP3   OH227401   5.332   6.943   4.137
 9160TIP3    H127402   5.295   6.942   4.047
 9160TIP3    H227403   5.253   6.922   4.192
 9161TIP3   OH227404   6.387   5.350   2.827
 9161TIP3    H127405   6.306   5.369   2.879
 9161TIP3    H227406   6.400   5.435   2.780
 9162TIP3   OH227407   5.134   6.086   3.164
 9162TIP3    H127408   5.065   6.136   3.115
 9162TIP3    H227409   5.083   6.010   3.194
 9163TIP3   OH227410   6.184   6.716   2.374
 9163TIP3    H127411   6.193   6.813   2.363
 9163TIP3    H227412   6.278   6.687   2.364
 9164TIP3   OH227413   4.912   6.474   4.083
 9164TIP3    H127414   4.843   6.453   4.016
 9164TIP3    H227415   4.947   6.385   4.106
 9165TIP3   OH227416   4.764   6.669   3.714
 9165TIP3    H127417   4.861   6.666   3.709
 9165TIP3    H227418   4.749   6.747   3.769
 9166TIP3   OH227419   6.624   7.127   3.766
 9166TIP3    H127420   6.632   7.032   3.785
 9166TIP3    H227421   6.542   7.148   3.815
 9167TIP3   OH227422   5.734   6.904   3.905
 9167TIP3    H127423   5.734   6.997   3.939
 9167TIP3    H227424   5.663   6.865   3.960
 9168TIP3   OH227425   5.498   7.036   2.857
 9168TIP3    H127426   5.448   7.017   2.775
 9168TIP3    H227427   5.463   7.123   2.884
 9169TIP3   OH227428   4.935   6.883   3.241
 9169TIP3    H127429   4.980   6.873   3.328
 9169TIP3    H227430   4.876   6.806   3.243
 9170TIP3   OH227431   5.698   6.936   2.497
 9170TIP3    H127432   5.757   6.866   2.462
 9170TIP3    H227433   5.730   6.945   2.589
 9171TIP3   OH227434   5.748   6.982   2.767
 9171TIP3    H127435   5.659   6.994   2.807
 9171TIP3    H227436   5.796   6.942   2.842
 9172TIP3   OH227437   6.520   6.246   4.050
 9172TIP3    H127438   6.438   6.266   4.001
 9172TIP3    H227439   6.531   6.151   4.032
 9173TIP3   OH227440   5.116   6.657   4.071
 9173TIP3    H127441   5.164   6.641   4.155
 9173TIP3    H227442   5.041   6.593   4.080
 9174TIP3   OH227443   5.516   5.485   3.849
 9174TIP3    H127444   5.426   5.451   3.827
 9174TIP3    H227445   5.491   5.560   3.905
 9175TIP3   OH227446   6.049   5.600   4.052
 9175TIP3    H127447   6.117   5.569   4.115
 9175TIP3    H227448   5.965   5.577   4.095
 9176TIP3   OH227449   6.291   6.027   3.970
 9176TIP3    H127450   6.238   6.022   4.053
 9176TIP3    H227451   6.264   6.114   3.934
 9177TIP3   OH227452   5.945   6.151   2.523
 9177TIP3    H127453   5.915   6.129   2.433
 9177TIP3    H227454   6.024   6.205   2.503
 9178TIP3   OH227455   5.448   5.996   3.876
 9178TIP3    H127456   5.396   6.018   3.956
 9178TIP3    H227457   5.433   6.077   3.822
 9179TIP3   OH227458   5.329   5.879   3.384
 9179TIP3    H127459   5.236   5.857   3.408
 9179TIP3    H227460   5.337   5.832   3.299
 9180TIP3   OH227461   5.823   5.968   3.113
 9180TIP3    H127462   5.768   6.040   3.074
 9180TIP3    H227463   5.880   5.944   3.038
 9181TIP3   OH227464   5.995   6.245   4.199
 9181TIP3    H127465   5.974   6.174   4.263
 9181TIP3    H227466   6.087   6.265   4.224
 9182TIP3   OH227467   5.979   5.996   3.356
 9182TIP3    H127468   5.919   6.029   3.287
 9182TIP3    H227469   6.011   5.915   3.312
 9183TIP3   OH227470   5.267   6.026   4.082
 9183TIP3    H127471   5.284   6.092   4.151
 9183TIP3    H227472   5.252   5.945   4.135
 9184TIP3   OH227473   5.327   5.534   2.808
 9184TIP3    H127474   5.274   5.501   2.884
 9184TIP3    H227475   5.253   5.573   2.754
 9185TIP3   OH227476   4.858   5.551   3.660
 9185TIP3    H127477   4.935   5.578   3.715
 9185TIP3    H227478   4.899   5.512   3.581
 9186TIP3   OH227479   4.836   5.531   3.182
 9186TIP3    H127480   4.878   5.572   3.103
 9186TIP3    H227481   4.771   5.601   3.203
 9187TIP3   OH227482   5.988   6.244   3.777
 9187TIP3    H127483   6.022   6.171   3.720
 9187TIP3    H227484   5.958   6.192   3.855
 9188TIP3   OH227485   5.655   5.707   3.447
 9188TIP3    H127486   5.573   5.704   3.500
 9188TIP3    H227487   5.723   5.703   3.516
 9189TIP3   OH227488   5.093   5.761   3.454
 9189TIP3    H127489   4.997   5.772   3.430
 9189TIP3    H227490   5.108   5.667   3.437
 9190TIP3   OH227491   5.367   5.744   3.139
 9190TIP3    H127492   5.452   5.791   3.135
 9190TIP3    H227493   5.311   5.786   3.070
 9191TIP3   OH227494   6.150   5.780   3.648
 9191TIP3    H127495   6.119   5.793   3.741
 9191TIP3    H227496   6.082   5.718   3.615
 9192TIP3   OH227497   5.203   5.793   2.930
 9192TIP3    H127498   5.122   5.750   2.898
 9192TIP3    H227499   5.244   5.818   2.844
 9193TIP3   OH227500   6.318   7.470   3.871
 9193TIP3    H127501   6.322   7.492   3.776
 9193TIP3    H227502   6.400   7.513   3.903
 9194TIP3   OH227503   5.279   6.579   4.291
 9194TIP3    H127504   5.357   6.610   4.341
 9194TIP3    H227505   5.213   6.576   4.363
 9195TIP3   OH227506   5.740   6.032   3.548
 9195TIP3    H127507   5.815   5.992   3.502
 9195TIP3    H227508   5.746   5.993   3.637
 9196TIP3   OH227509   5.265   5.518   3.425
 9196TIP3    H127510   5.224   5.445   3.477
 9196TIP3    H227511   5.322   5.469   3.366
 9197TIP3   OH227512   5.718   5.931   3.835
 9197TIP3    H127513   5.628   5.966   3.851
 9197TIP3    H227514   5.774   5.992   3.887
 9198TIP3   OH227515   5.458   6.319   2.934
 9198TIP3    H127516   5.386   6.254   2.922
 9198TIP3    H227517   5.437   6.355   3.024
 9199TIP3   OH227518   6.356   6.556   3.561
 9199TIP3    H127519   6.379   6.607   3.480
 9199TIP3    H227520   6.270   6.515   3.537
 9200TIP3   OH227521   5.908   5.637   2.789
 9200TIP3    H127522   5.818   5.659   2.814
 9200TIP3    H227523   5.953   5.724   2.807
 9201TIP3   OH227524   5.855   6.640   3.928
 9201TIP3    H127525   5.877   6.617   4.019
 9201TIP3    H227526   5.814   6.728   3.938
 9202TIP3   OH227527   5.990   5.876   2.887
 9202TIP3    H127528   6.084   5.889   2.913
 9202TIP3    H227529   5.969   5.961   2.842
 9203TIP3   OH227530   5.150   6.345   3.609
 9203TIP3    H127531   5.186   6.311   3.525
 9203TIP3    H227532   5.181   6.279   3.673
 9204TIP3   OH227533   5.597   6.469   2.752
 9204TIP3    H127534   5.551   6.556   2.756
 9204TIP3    H227535   5.543   6.416   2.814
 9205TIP3   OH227536   5.030   6.259   4.219
 9205TIP3    H127537   5.045   6.249   4.315
 9205TIP3    H227538   4.956   6.197   4.204
 9206TIP3   OH227539   5.753   6.377   4.240
 9206TIP3    H127540   5.692   6.317   4.195
 9206TIP3    H227541   5.840   6.342   4.210
 9207TIP3   OH227542   6.013   6.899   3.822
 9207TIP3    H127543   5.917   6.897   3.838
 9207TIP3    H227544   6.043   6.949   3.901
 9208TIP3   OH227545   6.424   5.970   2.734
 9208TIP3    H127546   6.361   5.927   2.672
 9208TIP3    H227547   6.421   6.060   2.695
 9209TIP3   OH227548   6.642   6.823   3.817
 9209TIP3    H127549   6.544   6.824   3.808
 9209TIP3    H227550   6.668   6.797   3.726
 9210TIP3   OH227551   6.125   6.790   2.641
 9210TIP3    H127552   6.098   6.723   2.705
 9210TIP3    H227553   6.136   6.739   2.559
 9211TIP3   OH227554   6.120   6.419   3.479
 9211TIP3    H127555   6.027   6.394   3.493
 9211TIP3    H227556   6.153   6.339   3.434
 9212TIP3   OH227557   5.246   6.644   3.227
 9212TIP3    H127558   5.243   6.728   3.177
 9212TIP3    H227559   5.153   6.629   3.246
 9213TIP3   OH227560   4.813   5.949   2.939
 9213TIP3    H127561   4.853   6.037   2.956
 9213TIP3    H227562   4.733   5.954   2.996
 9214TIP3   OH227563   5.388   6.412   3.176
 9214TIP3    H127564   5.350   6.501   3.193
 9214TIP3    H227565   5.350   6.362   3.251
 9215TIP3   OH227566   5.516   6.991   3.702
 9215TIP3    H127567   5.559   7.062   3.652
 9215TIP3    H227568   5.591   6.954   3.752
 9216TIP3   OH227569   5.167   6.884   3.085
 9216TIP3    H127570   5.081   6.892   3.131
 9216TIP3    H227571   5.198   6.978   3.087
 9217TIP3   OH227572   5.905   6.622   3.661
 9217TIP3    H127573   5.894   6.623   3.758
 9217TIP3    H227574   5.988   6.573   3.651
 9218TIP3   OH227575   5.879   6.514   2.542
 9218TIP3    H127576   5.931   6.489   2.622
 9218TIP3    H227577   5.789   6.493   2.571
 9219TIP3   OH227578   6.153   7.157   3.710
 9219TIP3    H127579   6.074   7.100   3.704
 9219TIP3    H227580   6.136   7.221   3.638
 9220TIP3   OH227581   6.219   6.992   2.363
 9220TIP3    H127582   6.255   7.065   2.311
 9220TIP3    H227583   6.139   7.036   2.398
 9221TIP3   OH227584   5.231   5.769   4.226
 9221TIP3    H127585   5.135   5.784   4.236
 9221TIP3    H227586   5.247   5.704   4.295
 9222TIP3   OH227587   6.039   6.444   2.756
 9222TIP3    H127588   6.030   6.383   2.831
 9222TIP3    H227589   6.137   6.446   2.747
 9223TIP3   OH227590   4.958   6.852   3.860
 9223TIP3    H127591   5.008   6.777   3.895
 9223TIP3    H227592   4.978   6.920   3.925
 9224TIP3   OH227593   5.249   6.497   2.540
 9224TIP3    H127594   5.257   6.403   2.514
 9224TIP3    H227595   5.231   6.488   2.636
 9225TIP3   OH227596   5.198   6.503   2.811
 9225TIP3    H127597   5.256   6.479   2.884
 9225TIP3    H227598   5.197   6.601   2.818
 9226TIP3   OH227599   4.930   6.200   3.019
 9226TIP3    H127600   4.861   6.241   3.076
 9226TIP3    H227601   4.936   6.269   2.950
 9227TIP3   OH227602   6.080   5.830   3.907
 9227TIP3    H127603   6.154   5.871   3.953
 9227TIP3    H227604   6.062   5.751   3.963
 9228TIP3   OH227605   5.955   5.590   3.075
 9228TIP3    H127606   5.957   5.618   2.982
 9228TIP3    H227607   5.997   5.667   3.120
 9229TIP3   OH227608   5.459   6.701   2.762
 9229TIP3    H127609   5.372   6.723   2.800
 9229TIP3    H227610   5.471   6.777   2.703
 9230TIP3   OH227611   5.646   5.769   3.179
 9230TIP3    H127612   5.712   5.841   3.165
 9230TIP3    H227613   5.651   5.757   3.276
 9231TIP3   OH227614   5.915   6.083   3.985
 9231TIP3    H127615   5.933   6.140   4.063
 9231TIP3    H227616   5.969   6.005   4.004
 9232TIP3   OH227617   5.784   5.494   3.276
 9232TIP3    H127618   5.786   5.564   3.344
 9232TIP3    H227619   5.847   5.530   3.210
 9233TIP3   OH227620   5.202   6.774   2.831
 9233TIP3    H127621   5.170   6.843   2.769
 9233TIP3    H227622   5.183   6.817   2.918
 9234TIP3   OH227623   5.297   5.484   3.072
 9234TIP3    H127624   5.291   5.570   3.117
 9234TIP3    H227625   5.383   5.451   3.103
 9235TIP3   OH227626   6.556   5.980   3.967
 9235TIP3    H127627   6.458   5.979   3.975
 9235TIP3    H227628   6.566   5.944   3.878
 9236TIP3   OH227629   6.206   6.176   3.353
 9236TIP3    H127630   6.130   6.118   3.369
 9236TIP3    H227631   6.278   6.131   3.402
 9237TIP3   OH227632   4.919   6.403   2.829
 9237TIP3    H127633   4.975   6.483   2.832
 9237TIP3    H227634   4.962   6.355   2.756
 9238TIP3   OH227635   4.868   5.682   2.952
 9238TIP3    H127636   4.859   5.780   2.953
 9238TIP3    H227637   4.781   5.656   2.919
 9239TIP3   OH227638   6.174   7.133   3.304
 9239TIP3    H127639   6.131   7.180   3.229
 9239TIP3    H227640   6.268   7.151   3.283
 9240TIP3   OH227641   5.251   5.400   3.831
 9240TIP3    H127642   5.218   5.367   3.744
 9240TIP3    H227643   5.241   5.321   3.888
 9241TIP3   OH227644   4.790   6.621   3.211
 9241TIP3    H127645   4.720   6.649   3.270
 9241TIP3    H227646   4.760   6.660   3.126
 9242TIP3   OH227647   4.945   7.161   4.281
 9242TIP3    H127648   5.031   7.160   4.329
 9242TIP3    H227649   4.923   7.066   4.282
 9243TIP3   OH227650   5.429   7.129   4.324
 9243TIP3    H127651   5.523   7.105   4.334
 9243TIP3    H227652   5.402   7.067   4.253
 9244TIP3   OH227653   5.409   6.702   2.453
 9244TIP3    H127654   5.351   6.632   2.493
 9244TIP3    H227655   5.484   6.648   2.424
 9245TIP3   OH227656   6.070   7.030   4.058
 9245TIP3    H127657   6.059   6.962   4.129
 9245TIP3    H227658   6.146   7.082   4.091
 9246TIP3   OH227659   5.845   6.742   2.366
 9246TIP3    H127660   5.891   6.679   2.426
 9246TIP3    H227661   5.902   6.741   2.287
 9247TIP3   OH227662   5.077   6.568   4.481
 9247TIP3    H127663   5.092   6.473   4.492
 9247TIP3    H227664   4.989   6.570   4.439
 9248TIP3   OH227665   5.056   6.224   2.674
 9248TIP3    H127666   5.108   6.191   2.749
 9248TIP3    H227667   5.124   6.226   2.604
 9249TIP3   OH227668   5.686   6.653   4.256
 9249TIP3    H127669   5.641   6.669   4.170
 9249TIP3    H227670   5.715   6.559   4.248
 9250TIP3   OH227671   5.567   6.418   2.482
 9250TIP3    H127672   5.565   6.430   2.579
 9250TIP3    H227673   5.557   6.320   2.476
 9251TIP3   OH227674   6.176   6.658   3.861
 9251TIP3    H127675   6.250   6.705   3.819
 9251TIP3    H227676   6.105   6.724   3.851
 9252TIP3   OH227677   5.197   6.304   4.464
 9252TIP3    H127678   5.264   6.235   4.455
 9252TIP3    H227679   5.219   6.337   4.554
 9253TIP3   OH227680   5.271   6.115   2.903
 9253TIP3    H127681   5.228   6.090   2.987
 9253TIP3    H227682   5.290   6.029   2.862
 9254TIP3   OH227683   5.533   6.188   4.129
 9254TIP3    H127684   5.453   6.244   4.130
 9254TIP3    H227685   5.580   6.221   4.050
 9255TIP3   OH227686   5.370   5.889   2.734
 9255TIP3    H127687   5.336   5.907   2.644
 9255TIP3    H227688   5.462   5.918   2.726
 9256TIP3   OH227689   6.046   6.587   4.261
 9256TIP3    H127690   6.129   6.567   4.218
 9256TIP3    H227691   6.043   6.522   4.333
 9257TIP3   OH227692   6.185   6.246   2.401
 9257TIP3    H127693   6.162   6.202   2.317
 9257TIP3    H227694   6.152   6.336   2.381
 9258TIP3   OH227695   5.656   5.973   4.249
 9258TIP3    H127696   5.654   5.895   4.190
 9258TIP3    H227697   5.611   6.041   4.194
 9259TIP3   OH227698   5.658   5.760   4.059
 9259TIP3    H127699   5.683   5.801   3.975
 9259TIP3    H227700   5.564   5.736   4.042
 9260TIP3   OH227701   5.684   6.295   3.931
 9260TIP3    H127702   5.767   6.309   3.884
 9260TIP3    H227703   5.626   6.362   3.889
 9261TIP3   OH227704   6.263   6.263   4.312
 9261TIP3    H127705   6.316   6.184   4.329
 9261TIP3    H227706   6.329   6.326   4.281
 9262TIP3   OH227707   6.308   6.513   4.047
 9262TIP3    H127708   6.248   6.567   3.990
 9262TIP3    H227709   6.395   6.538   4.007
 9263TIP3   OH227710   5.540   6.088   4.480
 9263TIP3    H127711   5.461   6.031   4.493
 9263TIP3    H227712   5.569   6.060   4.391
 9264TIP3   OH227713   5.794   5.528   4.127
 9264TIP3    H127714   5.747   5.611   4.103
 9264TIP3    H227715   5.719   5.464   4.117
 9265TIP3   OH227716   5.916   6.027   4.342
 9265TIP3    H127717   5.906   6.019   4.439
 9265TIP3    H227718   5.825   6.003   4.313
 9266TIP3   OH227719   6.152   5.973   4.196
 9266TIP3    H127720   6.077   5.980   4.258
 9266TIP3    H227721   6.225   5.945   4.255
 9267TIP3   OH227722   6.393   5.920   4.346
 9267TIP3    H127723   6.398   5.824   4.366
 9267TIP3    H227724   6.380   5.959   4.435
 9268TIP3   OH227725   5.367   5.876   4.524
 9268TIP3    H127726   5.372   5.781   4.503
 9268TIP3    H227727   5.403   5.881   4.613
 9269TIP3   OH227728   5.873   5.538   4.388
 9269TIP3    H127729   5.944   5.471   4.384
 9269TIP3    H227730   5.840   5.534   4.295
 9270TIP3   OH227731   5.949   5.751   4.544
 9270TIP3    H127732   5.926   5.680   4.480
 9270TIP3    H227733   5.871   5.810   4.537
 9271TIP3   OH227734   5.170   6.979   2.645
 9271TIP3    H127735   5.265   6.975   2.623
 9271TIP3    H227736   5.136   7.025   2.567
 9272TIP3   OH227737   4.649   6.357   2.863
 9272TIP3    H127738   4.743   6.379   2.844
 9272TIP3    H227739   4.640   6.270   2.818
 9273TIP3   OH227740   4.565   6.973   3.272
 9273TIP3    H127741   4.498   6.912   3.236
 9273TIP3    H227742   4.608   6.915   3.339
 9274TIP3   OH227743   4.701   6.824   3.460
 9274TIP3    H127744   4.686   6.750   3.522
 9274TIP3    H227745   4.750   6.885   3.518
 9275TIP3   OH227746   6.426   7.224   3.261
 9275TIP3    H127747   6.452   7.254   3.350
 9275TIP3    H227748   6.489   7.272   3.204
 9276TIP3   OH227749   6.457   7.244   3.542
 9276TIP3    H127750   6.414   7.156   3.539
 9276TIP3    H227751   6.530   7.224   3.603
 9277TIP3   OH227752   6.503   6.918   4.116
 9277TIP3    H127753   6.429   6.930   4.180
 9277TIP3    H227754   6.546   7.006   4.119
 9278TIP3   OH227755   6.320   6.432   2.735
 9278TIP3    H127756   6.387   6.498   2.707
 9278TIP3    H227757   6.362   6.395   2.815
 9279TIP3   OH227758   6.446   6.300   2.939
 9279TIP3    H127759   6.380   6.260   2.999
 9279TIP3    H227760   6.511   6.339   3.002
 9280TIP3   OH227761   6.498   6.692   3.369
 9280TIP3    H127762   6.553   6.628   3.319
 9280TIP3    H227763   6.490   6.766   3.307
 9281TIP3   OH227764   6.331   6.994   3.565
 9281TIP3    H127765   6.262   7.035   3.619
 9281TIP3    H227766   6.279   6.946   3.496
 9282TIP3   OH227767   6.384   6.208   2.585
 9282TIP3    H127768   6.313   6.212   2.518
 9282TIP3    H227769   6.358   6.283   2.641
 9283TIP3   OH227770   6.256   5.882   2.540
 9283TIP3    H127771   6.212   5.922   2.465
 9283TIP3    H227772   6.229   5.788   2.530
 9284TIP3   OH227773   6.260   6.158   3.086
 9284TIP3    H127774   6.271   6.061   3.083
 9284TIP3    H227775   6.246   6.173   3.182
 9285TIP3   OH227776   4.888   6.230   3.832
 9285TIP3    H127777   4.884   6.200   3.739
 9285TIP3    H227778   4.985   6.231   3.848
 9286TIP3   OH227779   6.549   6.583   3.941
 9286TIP3    H127780   6.623   6.519   3.931
 9286TIP3    H227781   6.579   6.657   3.884
 9287TIP3   OH227782   6.732   6.386   3.955
 9287TIP3    H127783   6.659   6.336   3.999
 9287TIP3    H227784   6.807   6.325   3.972
 9288TIP3   OH227785   6.198   5.616   2.526
 9288TIP3    H127786   6.279   5.589   2.575
 9288TIP3    H227787   6.132   5.550   2.553
 9289TIP3   OH227788   6.256   5.872   2.980
 9289TIP3    H127789   6.296   5.783   2.995
 9289TIP3    H227790   6.316   5.906   2.912
 9290TIP3   OH227791   6.418   6.047   3.475
 9290TIP3    H127792   6.505   6.073   3.436
 9290TIP3    H227793   6.431   6.084   3.565
 9291TIP3   OH227794   6.487   6.190   3.707
 9291TIP3    H127795   6.409   6.224   3.756
 9291TIP3    H227796   6.519   6.271   3.662
 9292TIP3   OH227797   5.097   5.913   4.504
 9292TIP3    H127798   5.195   5.913   4.506
 9292TIP3    H227799   5.077   5.830   4.551
 9293TIP3   OH227800   6.945   5.787   4.264
 9293TIP3    H127801   7.002   5.719   4.222
 9293TIP3    H227802   6.911   5.835   4.185
 9294TIP3   OH227803   6.365   5.623   3.017
 9294TIP3    H127804   6.414   5.609   3.101
 9294TIP3    H227805   6.305   5.545   3.019
 9295TIP3   OH227806   5.067   5.608   3.829
 9295TIP3    H127807   5.129   5.534   3.845
 9295TIP3    H227808   5.128   5.684   3.830
 9296TIP3   OH227809   4.871   5.881   3.912
 9296TIP3    H127810   4.918   5.881   3.826
 9296TIP3    H227811   4.893   5.969   3.946
 9297TIP3   OH227812   6.809   5.921   4.071
 9297TIP3    H127813   6.723   5.963   4.092
 9297TIP3    H227814   6.779   5.852   4.010
 9298TIP3   OH227815   6.445   5.561   2.646
 9298TIP3    H127816   6.488   5.486   2.600
 9298TIP3    H227817   6.515   5.629   2.646
 9299TIP3   OH227818   4.852   5.389   3.412
 9299TIP3    H127819   4.759   5.382   3.440
 9299TIP3    H227820   4.846   5.447   3.333
 9300TIP3   OH227821   6.012   7.090   2.917
 9300TIP3    H127822   6.063   7.078   2.834
 9300TIP3    H227823   6.065   7.157   2.963
 9301TIP3   OH227824   5.073   5.470   4.228
 9301TIP3    H127825   5.017   5.460   4.308
 9301TIP3    H227826   5.007   5.509   4.166
 9302TIP3   OH227827   5.112   6.894   4.304
 9302TIP3    H127828   5.020   6.867   4.287
 9302TIP3    H227829   5.121   6.873   4.398
 9303TIP3   OH227830   5.290   6.924   3.850
 9303TIP3    H127831   5.239   6.999   3.812
 9303TIP3    H227832   5.375   6.941   3.806
 9304TIP3   OH227833   5.736   7.172   3.986
 9304TIP3    H127834   5.776   7.171   4.076
 9304TIP3    H227835   5.803   7.223   3.937
 9305TIP3   OH227836   5.915   7.324   3.844
 9305TIP3    H127837   5.987   7.270   3.808
 9305TIP3    H227838   5.965   7.380   3.908
 9306TIP3   OH227839   6.709   5.686   3.947
 9306TIP3    H127840   6.618   5.681   3.912
 9306TIP3    H227841   6.738   5.592   3.936
 9307TIP3   OH227842   4.968   7.186   3.872
 9307TIP3    H127843   4.877   7.218   3.850
 9307TIP3    H227844   4.975   7.217   3.963
 9308TIP3   OH227845   5.204   7.164   3.732
 9308TIP3    H127846   5.117   7.175   3.777
 9308TIP3    H227847   5.182   7.195   3.642
 9309TIP3   OH227848   5.630   7.193   3.528
 9309TIP3    H127849   5.558   7.210   3.465
 9309TIP3    H227850   5.639   7.280   3.571
 9310TIP3   OH227851   5.897   7.129   3.579
 9310TIP3    H127852   5.803   7.147   3.560
 9310TIP3    H227853   5.940   7.207   3.540
 9311TIP3   OH227854   6.106   7.326   3.495
 9311TIP3    H127855   6.090   7.408   3.445
 9311TIP3    H227856   6.132   7.263   3.424
 9312TIP3   OH227857   4.880   6.979   3.619
 9312TIP3    H127858   4.905   6.952   3.710
 9312TIP3    H227859   4.950   6.932   3.568
 9313TIP3   OH227860   5.072   6.848   3.475
 9313TIP3    H127861   5.086   6.765   3.526
 9313TIP3    H227862   5.163   6.884   3.471
 9314TIP3   OH227863   5.339   6.944   3.478
 9314TIP3    H127864   5.369   6.851   3.468
 9314TIP3    H227865   5.381   6.965   3.563
 9315TIP3   OH227866   5.908   5.595   3.559
 9315TIP3    H127867   5.869   5.530   3.620
 9315TIP3    H227868   5.986   5.547   3.525
 9316TIP3   OH227869   6.438   5.476   3.471
 9316TIP3    H127870   6.474   5.531   3.398
 9316TIP3    H227871   6.342   5.497   3.466
 9317TIP3   OH227872   6.531   5.581   3.234
 9317TIP3    H127873   6.605   5.529   3.195
 9317TIP3    H227874   6.565   5.672   3.220
 9318TIP3   OH227875   5.162   5.310   3.580
 9318TIP3    H127876   5.069   5.278   3.583
 9318TIP3    H227877   5.209   5.224   3.578
 9319TIP3   OH227878   4.953   5.179   3.233
 9319TIP3    H127879   4.972   5.238   3.158
 9319TIP3    H227880   4.918   5.241   3.300
 9320TIP3   OH227881   5.602   5.345   3.460
 9320TIP3    H127882   5.666   5.394   3.407
 9320TIP3    H227883   5.623   5.375   3.550
 9321TIP3   OH227884   6.155   5.488   3.445
 9321TIP3    H127885   6.152   5.448   3.358
 9321TIP3    H227886   6.140   5.410   3.503
 9322TIP3   OH227887   6.181   5.409   3.009
 9322TIP3    H127888   6.093   5.447   3.024
 9322TIP3    H227889   6.171   5.323   3.056
 9323TIP3   OH227890   4.668   6.749   3.008
 9323TIP3    H127891   4.583   6.713   2.976
 9323TIP3    H227892   4.654   6.843   2.989
 9324TIP3   OH227893   5.062   5.340   2.988
 9324TIP3    H127894   5.110   5.271   2.938
 9324TIP3    H227895   5.134   5.387   3.034
 9325TIP3   OH227896   5.582   5.536   3.058
 9325TIP3    H127897   5.626   5.464   3.106
 9325TIP3    H227898   5.611   5.611   3.115
 9326TIP3   OH227899   5.438   6.938   2.591
 9326TIP3    H127900   5.526   6.960   2.555
 9326TIP3    H227901   5.415   6.864   2.531
 9327TIP3   OH227902   6.158   7.057   2.684
 9327TIP3    H127903   6.149   6.959   2.673
 9327TIP3    H227904   6.110   7.088   2.605
 9328TIP3   OH227905   5.376   5.594   4.523
 9328TIP3    H127906   5.333   5.507   4.517
 9328TIP3    H227907   5.467   5.572   4.497
 9329TIP3   OH227908   5.638   5.550   4.607
 9329TIP3    H127909   5.704   5.574   4.540
 9329TIP3    H227910   5.689   5.474   4.646
 9330TIP3   OH227911   4.748   6.786   2.651
 9330TIP3    H127912   4.737   6.799   2.746
 9330TIP3    H227913   4.833   6.738   2.645
 9331TIP3   OH227914   6.443   5.646   4.380
 9331TIP3    H127915   6.460   5.615   4.472
 9331TIP3    H227916   6.532   5.640   4.340
 9332TIP3   OH227917   6.381   7.202   3.873
 9332TIP3    H127918   6.301   7.171   3.825
 9332TIP3    H227919   6.362   7.297   3.879
 9333TIP3   OH227920   7.651   6.567   2.641
 9333TIP3    H127921   7.621   6.659   2.624
 9333TIP3    H227922   7.575   6.518   2.606
 9334TIP3   OH227923   7.640   6.572   3.022
 9334TIP3    H127924   7.678   6.549   3.108
 9334TIP3    H227925   7.606   6.487   2.992
 9335TIP3   OH227926   6.949   6.468   3.381
 9335TIP3    H127927   6.976   6.400   3.445
 9335TIP3    H227928   7.023   6.530   3.388
 9336TIP3   OH227929   7.887   6.877   2.703
 9336TIP3    H127930   7.881   6.803   2.765
 9336TIP3    H227931   7.923   6.948   2.760
 9337TIP3   OH227932   6.915   6.875   3.102
 9337TIP3    H127933   6.906   6.778   3.104
 9337TIP3    H227934   7.001   6.887   3.144
 9338TIP3   OH227935   6.627   6.081   2.894
 9338TIP3    H127936   6.579   6.164   2.911
 9338TIP3    H227937   6.555   6.027   2.857
 9339TIP3   OH227938   6.685   6.367   3.065
 9339TIP3    H127939   6.733   6.290   3.103
 9339TIP3    H227940   6.745   6.396   2.996
 9340TIP3   OH227941   7.537   7.343   2.711
 9340TIP3    H127942   7.580   7.264   2.672
 9340TIP3    H227943   7.532   7.319   2.805
 9341TIP3   OH227944   7.451   6.799   3.063
 9341TIP3    H127945   7.491   6.718   3.028
 9341TIP3    H227946   7.533   6.845   3.090
 9342TIP3   OH227947   8.456   6.118   3.065
 9342TIP3    H127948   8.487   6.199   3.111
 9342TIP3    H227949   8.481   6.138   2.973
 9343TIP3   OH227950   7.858   6.301   3.100
 9343TIP3    H127951   7.902   6.217   3.123
 9343TIP3    H227952   7.829   6.282   3.009
 9344TIP3   OH227953   7.196   5.959   3.066
 9344TIP3    H127954   7.177   6.032   3.003
 9344TIP3    H227955   7.148   5.886   3.021
 9345TIP3   OH227956   7.891   6.051   2.687
 9345TIP3    H127957   7.962   6.034   2.754
 9345TIP3    H227958   7.946   6.085   2.614
 9346TIP3   OH227959   6.831   6.162   3.171
 9346TIP3    H127960   6.913   6.143   3.220
 9346TIP3    H227961   6.845   6.105   3.093
 9347TIP3   OH227962   7.273   6.359   2.962
 9347TIP3    H127963   7.367   6.333   2.977
 9347TIP3    H227964   7.234   6.274   2.933
 9348TIP3   OH227965   8.529   6.321   3.239
 9348TIP3    H127966   8.447   6.372   3.222
 9348TIP3    H227967   8.558   6.360   3.323
 9349TIP3   OH227968   7.193   5.943   3.500
 9349TIP3    H127969   7.133   5.980   3.433
 9349TIP3    H227970   7.142   5.962   3.581
 9350TIP3   OH227971   7.531   6.780   2.512
 9350TIP3    H127972   7.508   6.760   2.420
 9350TIP3    H227973   7.507   6.872   2.521
 9351TIP3   OH227974   7.301   6.717   3.294
 9351TIP3    H127975   7.237   6.780   3.335
 9351TIP3    H227976   7.347   6.774   3.231
 9352TIP3   OH227977   8.100   6.053   2.860
 9352TIP3    H127978   8.092   6.005   2.943
 9352TIP3    H227979   8.156   6.129   2.885
 9353TIP3   OH227980   7.063   6.058   3.285
 9353TIP3    H127981   7.125   6.130   3.309
 9353TIP3    H227982   7.113   6.017   3.210
 9354TIP3   OH227983   7.124   6.909   3.380
 9354TIP3    H127984   7.102   7.001   3.356
 9354TIP3    H227985   7.051   6.892   3.444
 9355TIP3   OH227986   6.524   6.601   2.628
 9355TIP3    H127987   6.480   6.631   2.547
 9355TIP3    H227988   6.554   6.686   2.667
 9356TIP3   OH227989   7.956   7.115   2.865
 9356TIP3    H127990   7.869   7.102   2.908
 9356TIP3    H227991   7.944   7.204   2.826
 9357TIP3   OH227992   8.252   6.014   3.229
 9357TIP3    H127993   8.166   6.050   3.201
 9357TIP3    H227994   8.313   6.050   3.161
 9358TIP3   OH227995   7.549   5.662   3.212
 9358TIP3    H127996   7.537   5.567   3.231
 9358TIP3    H227997   7.472   5.699   3.260
 9359TIP3   OH227998   7.644   7.156   2.527
 9359TIP3    H127999   7.700   7.076   2.515
 9359TIP3    H228000   7.710   7.224   2.500
 9360TIP3   OH228001   7.796   6.944   2.453
 9360TIP3    H128002   7.795   6.864   2.398
 9360TIP3    H228003   7.837   6.911   2.536
 9361TIP3   OH228004   8.182   7.035   3.212
 9361TIP3    H128005   8.178   6.955   3.156
 9361TIP3    H228006   8.180   7.107   3.145
 9362TIP3   OH228007   7.480   6.426   2.467
 9362TIP3    H128008   7.399   6.473   2.440
 9362TIP3    H228009   7.529   6.418   2.384
 9363TIP3   OH228010   7.439   6.208   2.186
 9363TIP3    H128011   7.507   6.259   2.233
 9363TIP3    H228012   7.495   6.144   2.139
 9364TIP3   OH228013   8.377   6.657   3.049
 9364TIP3    H128014   8.299   6.715   3.061
 9364TIP3    H228015   8.412   6.690   2.964
 9365TIP3   OH228016   7.828   6.507   2.440
 9365TIP3    H128017   7.775   6.528   2.521
 9365TIP3    H228018   7.912   6.479   2.482
 9366TIP3   OH228019   8.062   6.546   3.354
 9366TIP3    H128020   8.063   6.628   3.408
 9366TIP3    H228021   7.976   6.555   3.309
 9367TIP3   OH228022   7.066   6.508   2.853
 9367TIP3    H128023   7.020   6.448   2.791
 9367TIP3    H228024   7.139   6.451   2.887
 9368TIP3   OH228025   7.209   6.924   2.978
 9368TIP3    H128026   7.170   6.836   2.967
 9368TIP3    H228027   7.297   6.901   3.014
 9369TIP3   OH228028   7.199   6.474   3.210
 9369TIP3    H128029   7.234   6.454   3.121
 9369TIP3    H228030   7.241   6.560   3.232
 9370TIP3   OH228031   7.718   7.110   2.987
 9370TIP3    H128032   7.708   7.192   3.040
 9370TIP3    H228033   7.705   7.039   3.053
 9371TIP3   OH228034   7.341   7.022   3.531
 9371TIP3    H128035   7.283   7.087   3.577
 9371TIP3    H228036   7.272   6.970   3.486
 9372TIP3   OH228037   7.664   6.369   2.267
 9372TIP3    H128038   7.727   6.425   2.318
 9372TIP3    H228039   7.693   6.389   2.174
 9373TIP3   OH228040   7.087   6.588   3.635
 9373TIP3    H128041   7.093   6.676   3.680
 9373TIP3    H228042   6.992   6.570   3.649
 9374TIP3   OH228043   7.345   7.119   2.561
 9374TIP3    H128044   7.429   7.086   2.596
 9374TIP3    H228045   7.372   7.151   2.474
 9375TIP3   OH228046   7.136   7.179   3.610
 9375TIP3    H128047   7.068   7.191   3.543
 9375TIP3    H228048   7.099   7.226   3.687
 9376TIP3   OH228049   8.182   5.608   2.315
 9376TIP3    H128050   8.101   5.628   2.366
 9376TIP3    H228051   8.196   5.693   2.267
 9377TIP3   OH228052   6.926   6.349   2.663
 9377TIP3    H128053   6.858   6.391   2.607
 9377TIP3    H228054   6.888   6.262   2.678
 9378TIP3   OH228055   7.987   6.967   1.871
 9378TIP3    H128056   8.002   7.064   1.875
 9378TIP3    H228057   8.078   6.935   1.851
 9379TIP3   OH228058   6.704   6.730   3.572
 9379TIP3    H128059   6.639   6.706   3.503
 9379TIP3    H228060   6.743   6.644   3.596
 9380TIP3   OH228061   6.560   6.926   3.201
 9380TIP3    H128062   6.657   6.921   3.198
 9380TIP3    H228063   6.547   7.002   3.258
 9381TIP3   OH228064   8.405   7.369   3.237
 9381TIP3    H128065   8.437   7.283   3.268
 9381TIP3    H228066   8.336   7.390   3.303
 9382TIP3   OH228067   7.528   7.164   3.389
 9382TIP3    H128068   7.529   7.255   3.426
 9382TIP3    H228069   7.461   7.121   3.447
 9383TIP3   OH228070   7.264   7.280   2.363
 9383TIP3    H128071   7.244   7.263   2.268
 9383TIP3    H228072   7.255   7.378   2.368
 9384TIP3   OH228073   6.727   7.142   2.730
 9384TIP3    H128074   6.783   7.129   2.809
 9384TIP3    H228075   6.674   7.061   2.732
 9385TIP3   OH228076   7.496   7.191   1.984
 9385TIP3    H128077   7.553   7.122   1.942
 9385TIP3    H228078   7.534   7.195   2.074
 9386TIP3   OH228079   7.536   7.232   2.263
 9386TIP3    H128080   7.451   7.240   2.309
 9386TIP3    H228081   7.595   7.198   2.332
 9387TIP3   OH228082   8.315   6.504   3.535
 9387TIP3    H128083   8.235   6.517   3.482
 9387TIP3    H228084   8.330   6.408   3.524
 9388TIP3   OH228085   6.912   6.910   3.549
 9388TIP3    H128086   6.948   6.926   3.638
 9388TIP3    H228087   6.838   6.848   3.567
 9389TIP3   OH228088   7.311   5.737   3.342
 9389TIP3    H128089   7.222   5.707   3.316
 9389TIP3    H228090   7.287   5.820   3.389
 9390TIP3   OH228091   7.846   5.852   3.536
 9390TIP3    H128092   7.915   5.825   3.601
 9390TIP3    H228093   7.763   5.833   3.584
 9391TIP3   OH228094   8.080   6.280   3.452
 9391TIP3    H128095   8.034   6.277   3.538
 9391TIP3    H228096   8.061   6.370   3.420
 9392TIP3   OH228097   7.741   6.417   2.013
 9392TIP3    H128098   7.708   6.387   1.926
 9392TIP3    H228099   7.827   6.456   1.986
 9393TIP3   OH228100   7.455   5.789   2.313
 9393TIP3    H128101   7.423   5.784   2.406
 9393TIP3    H228102   7.419   5.705   2.279
 9394TIP3   OH228103   7.241   6.253   3.361
 9394TIP3    H128104   7.192   6.276   3.443
 9394TIP3    H228105   7.226   6.334   3.307
 9395TIP3   OH228106   7.126   6.140   2.875
 9395TIP3    H128107   7.034   6.112   2.894
 9395TIP3    H228108   7.139   6.098   2.787
 9396TIP3   OH228109   7.618   6.225   2.602
 9396TIP3    H128110   7.566   6.296   2.559
 9396TIP3    H228111   7.673   6.193   2.527
 9397TIP3   OH228112   7.792   6.502   3.686
 9397TIP3    H128113   7.772   6.430   3.750
 9397TIP3    H228114   7.884   6.522   3.709
 9398TIP3   OH228115   7.774   6.253   2.842
 9398TIP3    H128116   7.714   6.281   2.770
 9398TIP3    H228117   7.809   6.171   2.800
 9399TIP3   OH228118   7.060   6.283   3.569
 9399TIP3    H128119   7.087   6.349   3.634
 9399TIP3    H228120   7.051   6.202   3.624
 9400TIP3   OH228121   7.110   5.759   2.279
 9400TIP3    H128122   7.105   5.757   2.376
 9400TIP3    H228123   7.031   5.812   2.257
 9401TIP3   OH228124   6.655   5.804   3.148
 9401TIP3    H128125   6.729   5.836   3.204
 9401TIP3    H228126   6.700   5.771   3.069
 9402TIP3   OH228127   6.627   5.784   2.669
 9402TIP3    H128128   6.675   5.822   2.592
 9402TIP3    H228129   6.568   5.859   2.689
 9403TIP3   OH228130   7.778   6.500   3.262
 9403TIP3    H128131   7.814   6.428   3.206
 9403TIP3    H228132   7.754   6.449   3.342
 9404TIP3   OH228133   7.453   5.965   2.936
 9404TIP3    H128134   7.372   5.961   2.991
 9404TIP3    H228135   7.523   5.959   3.003
 9405TIP3   OH228136   6.889   6.017   2.944
 9405TIP3    H128137   6.794   6.024   2.917
 9405TIP3    H228138   6.912   5.925   2.922
 9406TIP3   OH228139   7.157   6.014   2.633
 9406TIP3    H128140   7.252   6.027   2.614
 9406TIP3    H228141   7.113   6.036   2.548
 9407TIP3   OH228142   7.945   6.039   3.137
 9407TIP3    H128143   7.912   6.050   3.229
 9407TIP3    H228144   7.879   5.976   3.102
 9408TIP3   OH228145   6.998   6.049   2.411
 9408TIP3    H128146   6.926   6.004   2.364
 9408TIP3    H228147   7.050   6.084   2.336
 9409TIP3   OH228148   8.105   7.719   3.356
 9409TIP3    H128149   8.113   7.756   3.266
 9409TIP3    H228150   8.161   7.781   3.405
 9410TIP3   OH228151   7.077   6.823   3.785
 9410TIP3    H128152   7.155   6.862   3.830
 9410TIP3    H228153   7.007   6.855   3.845
 9411TIP3   OH228154   7.536   6.290   3.032
 9411TIP3    H128155   7.610   6.251   2.983
 9411TIP3    H228156   7.546   6.249   3.120
 9412TIP3   OH228157   7.059   5.778   2.911
 9412TIP3    H128158   7.026   5.699   2.959
 9412TIP3    H228159   7.115   5.738   2.843
 9413TIP3   OH228160   7.514   6.186   3.325
 9413TIP3    H128161   7.425   6.224   3.339
 9413TIP3    H228162   7.572   6.246   3.375
 9414TIP3   OH228163   7.242   6.582   2.413
 9414TIP3    H128164   7.177   6.509   2.405
 9414TIP3    H228165   7.225   6.613   2.505
 9415TIP3   OH228166   8.152   6.816   3.049
 9415TIP3    H128167   8.175   6.862   2.966
 9415TIP3    H228168   8.067   6.771   3.025
 9416TIP3   OH228169   7.708   5.889   2.281
 9416TIP3    H128170   7.612   5.873   2.289
 9416TIP3    H228171   7.718   5.984   2.305
 9417TIP3   OH228172   7.648   6.896   3.415
 9417TIP3    H128173   7.676   6.873   3.505
 9417TIP3    H228174   7.606   6.983   3.428
 9418TIP3   OH228175   7.778   6.138   2.384
 9418TIP3    H128176   7.874   6.140   2.401
 9418TIP3    H228177   7.764   6.217   2.329
 9419TIP3   OH228178   6.945   6.599   3.095
 9419TIP3    H128179   6.983   6.564   3.012
 9419TIP3    H228180   6.982   6.538   3.161
 9420TIP3   OH228181   7.390   6.737   2.245
 9420TIP3    H128182   7.331   6.814   2.257
 9420TIP3    H228183   7.341   6.670   2.299
 9421TIP3   OH228184   6.825   6.518   3.707
 9421TIP3    H128185   6.845   6.508   3.802
 9421TIP3    H228186   6.753   6.453   3.696
 9422TIP3   OH228187   7.550   6.631   3.729
 9422TIP3    H128188   7.492   6.573   3.677
 9422TIP3    H228189   7.638   6.600   3.702
 9423TIP3   OH228190   7.806   7.162   3.305
 9423TIP3    H128191   7.711   7.156   3.325
 9423TIP3    H228192   7.839   7.206   3.386
 9424TIP3   OH228193   8.218   6.226   2.221
 9424TIP3    H128194   8.155   6.182   2.159
 9424TIP3    H228195   8.219   6.314   2.178
 9425TIP3   OH228196   8.437   7.083   3.304
 9425TIP3    H128197   8.339   7.084   3.301
 9425TIP3    H228198   8.457   7.053   3.213
 9426TIP3   OH228199   7.916   7.044   2.132
 9426TIP3    H128200   7.898   6.968   2.189
 9426TIP3    H228201   7.933   7.003   2.046
 9427TIP3   OH228202   7.916   6.677   2.963
 9427TIP3    H128203   7.824   6.651   2.979
 9427TIP3    H228204   7.951   6.596   2.921
 9428TIP3   OH228205   6.606   6.207   2.421
 9428TIP3    H128206   6.652   6.291   2.443
 9428TIP3    H228207   6.530   6.211   2.483
 9429TIP3   OH228208   7.177   6.676   2.660
 9429TIP3    H128209   7.176   6.757   2.711
 9429TIP3    H228210   7.143   6.612   2.726
 9430TIP3   OH228211   7.314   7.245   3.187
 9430TIP3    H128212   7.359   7.320   3.144
 9430TIP3    H228213   7.386   7.211   3.244
 9431TIP3   OH228214   7.701   6.880   3.148
 9431TIP3    H128215   7.689   6.880   3.245
 9431TIP3    H228216   7.784   6.831   3.139
 9432TIP3   OH228217   7.676   6.775   2.033
 9432TIP3    H128218   7.730   6.749   2.112
 9432TIP3    H228219   7.589   6.740   2.058
 9433TIP3   OH228220   7.949   7.410   3.196
 9433TIP3    H128221   7.874   7.348   3.201
 9433TIP3    H228222   7.919   7.473   3.128
 9434TIP3   OH228223   8.028   7.234   1.900
 9434TIP3    H128224   8.079   7.302   1.854
 9434TIP3    H228225   7.950   7.285   1.928
 9435TIP3   OH228226   7.035   6.025   3.718
 9435TIP3    H128227   6.938   6.029   3.729
 9435TIP3    H228228   7.060   5.962   3.787
 9436TIP3   OH228229   7.836   6.716   2.257
 9436TIP3    H128230   7.826   6.642   2.321
 9436TIP3    H228231   7.932   6.707   2.236
 9437TIP3   OH228232   6.752   7.106   3.348
 9437TIP3    H128233   6.806   7.035   3.387
 9437TIP3    H228234   6.772   7.178   3.409
 9438TIP3   OH228235   7.044   6.753   2.030
 9438TIP3    H128236   7.057   6.663   1.994
 9438TIP3    H228237   7.014   6.732   2.121
 9439TIP3   OH228238   6.993   6.756   2.306
 9439TIP3    H128239   7.057   6.703   2.356
 9439TIP3    H228240   7.032   6.844   2.310
 9440TIP3   OH228241   6.722   6.452   2.505
 9440TIP3    H128242   6.656   6.496   2.563
 9440TIP3    H228243   6.734   6.522   2.437
 9441TIP3   OH228244   7.871   6.088   3.396
 9441TIP3    H128245   7.950   6.130   3.435
 9441TIP3    H228246   7.859   6.008   3.452
 9442TIP3   OH228247   7.750   5.842   2.563
 9442TIP3    H128248   7.740   5.864   2.468
 9442TIP3    H228249   7.790   5.924   2.599
 9443TIP3   OH228250   7.225   6.971   2.259
 9443TIP3    H128251   7.153   7.030   2.234
 9443TIP3    H228252   7.288   6.991   2.189
 9444TIP3   OH228253   7.439   6.021   2.664
 9444TIP3    H128254   7.505   6.092   2.648
 9444TIP3    H228255   7.445   6.012   2.762
 9445TIP3   OH228256   7.711   6.339   3.472
 9445TIP3    H128257   7.732   6.394   3.551
 9445TIP3    H228258   7.767   6.261   3.487
 9446TIP3   OH228259   7.585   5.747   2.766
 9446TIP3    H128260   7.585   5.821   2.829
 9446TIP3    H228261   7.645   5.782   2.697
 9447TIP3   OH228262   7.097   5.746   2.555
 9447TIP3    H128263   7.096   5.835   2.594
 9447TIP3    H228264   7.192   5.725   2.564
 9448TIP3   OH228265   8.349   6.238   3.457
 9448TIP3    H128266   8.251   6.233   3.458
 9448TIP3    H228267   8.368   6.209   3.367
 9449TIP3   OH228268   8.001   6.434   2.840
 9449TIP3    H128269   7.927   6.373   2.854
 9449TIP3    H228270   8.075   6.389   2.888
 9450TIP3   OH228271   6.711   6.659   2.309
 9450TIP3    H128272   6.773   6.733   2.317
 9450TIP3    H228273   6.758   6.604   2.243
 9451TIP3   OH228274   6.659   5.938   2.444
 9451TIP3    H128275   6.660   6.036   2.440
 9451TIP3    H228276   6.574   5.918   2.405
 9452TIP3   OH228277   7.969   7.395   2.790
 9452TIP3    H128278   7.943   7.449   2.713
 9452TIP3    H228279   8.066   7.396   2.785
 9453TIP3   OH228280   7.045   5.658   3.318
 9453TIP3    H128281   7.015   5.624   3.231
 9453TIP3    H228282   7.036   5.580   3.376
 9454TIP3   OH228283   6.580   6.869   2.697
 9454TIP3    H128284   6.516   6.906   2.759
 9454TIP3    H228285   6.553   6.914   2.614
 9455TIP3   OH228286   6.728   7.417   3.762
 9455TIP3    H128287   6.820   7.412   3.800
 9455TIP3    H228288   6.703   7.323   3.772
 9456TIP3   OH228289   7.212   6.957   1.952
 9456TIP3    H128290   7.155   6.881   1.978
 9456TIP3    H228291   7.283   6.910   1.903
 9457TIP3   OH228292   7.869   7.284   3.541
 9457TIP3    H128293   7.857   7.218   3.613
 9457TIP3    H228294   7.942   7.338   3.577
 9458TIP3   OH228295   7.640   6.999   1.856
 9458TIP3    H128296   7.689   6.934   1.909
 9458TIP3    H228297   7.690   6.998   1.771
 9459TIP3   OH228298   6.869   6.816   3.980
 9459TIP3    H128299   6.887   6.722   3.965
 9459TIP3    H228300   6.787   6.831   3.928
 9460TIP3   OH228301   6.850   6.477   2.162
 9460TIP3    H128302   6.902   6.438   2.234
 9460TIP3    H228303   6.917   6.479   2.090
 9461TIP3   OH228304   7.484   6.908   3.742
 9461TIP3    H128305   7.440   6.927   3.657
 9461TIP3    H228306   7.511   6.815   3.733
 9462TIP3   OH228307   7.358   6.672   1.972
 9462TIP3    H128308   7.361   6.682   2.068
 9462TIP3    H228309   7.360   6.574   1.963
 9463TIP3   OH228310   7.970   6.915   3.346
 9463TIP3    H128311   8.047   6.960   3.305
 9463TIP3    H228312   7.901   6.983   3.337
 9464TIP3   OH228313   6.991   6.547   3.957
 9464TIP3    H128314   7.076   6.514   3.925
 9464TIP3    H228315   7.017   6.591   4.040
 9465TIP3   OH228316   7.062   6.378   2.388
 9465TIP3    H128317   7.031   6.335   2.469
 9465TIP3    H228318   7.096   6.301   2.336
 9466TIP3   OH228319   7.325   6.441   3.613
 9466TIP3    H128320   7.249   6.503   3.615
 9466TIP3    H228321   7.377   6.475   3.537
 9467TIP3   OH228322   7.158   6.173   2.225
 9467TIP3    H128323   7.133   6.175   2.131
 9467TIP3    H228324   7.255   6.174   2.219
 9468TIP3   OH228325   7.840   6.840   3.745
 9468TIP3    H128326   7.927   6.827   3.706
 9468TIP3    H228327   7.840   6.777   3.819
 9469TIP3   OH228328   7.974   6.501   1.893
 9469TIP3    H128329   7.966   6.454   1.808
 9469TIP3    H228330   7.947   6.591   1.864
 9470TIP3   OH228331   7.447   6.231   3.742
 9470TIP3    H128332   7.450   6.152   3.684
 9470TIP3    H228333   7.405   6.297   3.683
 9471TIP3   OH228334   7.452   6.017   3.547
 9471TIP3    H128335   7.481   6.059   3.464
 9471TIP3    H228336   7.358   5.995   3.528
 9472TIP3   OH228337   7.479   6.549   3.420
 9472TIP3    H128338   7.564   6.560   3.375
 9472TIP3    H228339   7.424   6.617   3.375
 9473TIP3   OH228340   8.061   6.520   3.801
 9473TIP3    H128341   8.113   6.439   3.814
 9473TIP3    H228342   8.128   6.581   3.769
 9474TIP3   OH228343   8.105   6.770   3.532
 9474TIP3    H128344   8.046   6.824   3.475
 9474TIP3    H228345   8.193   6.793   3.494
 9475TIP3   OH228346   7.322   6.343   3.972
 9475TIP3    H128347   7.258   6.270   3.979
 9475TIP3    H228348   7.362   6.325   3.885
 9476TIP3   OH228349   7.584   5.780   3.613
 9476TIP3    H128350   7.535   5.862   3.591
 9476TIP3    H228351   7.515   5.712   3.602
 9477TIP3   OH228352   7.712   6.285   3.830
 9477TIP3    H128353   7.706   6.274   3.926
 9477TIP3    H228354   7.621   6.260   3.804
 9478TIP3   OH228355   7.949   6.231   3.683
 9478TIP3    H128356   7.876   6.236   3.747
 9478TIP3    H228357   8.024   6.203   3.739
 9479TIP3   OH228358   8.173   6.173   3.835
 9479TIP3    H128359   8.189   6.078   3.854
 9479TIP3    H228360   8.173   6.214   3.924
 9480TIP3   OH228361   7.165   6.123   4.026
 9480TIP3    H128362   7.172   6.035   3.985
 9480TIP3    H228363   7.209   6.107   4.112
 9481TIP3   OH228364   7.677   5.790   3.871
 9481TIP3    H128365   7.746   5.720   3.866
 9481TIP3    H228366   7.639   5.783   3.781
 9482TIP3   OH228367   7.743   6.004   4.032
 9482TIP3    H128368   7.723   5.934   3.966
 9482TIP3    H228369   7.666   6.064   4.023
 9483TIP3   OH228370   6.974   7.231   2.138
 9483TIP3    H128371   7.066   7.234   2.109
 9483TIP3    H228372   6.931   7.274   2.062
 9484TIP3   OH228373   6.443   6.616   2.345
 9484TIP3    H128374   6.538   6.637   2.333
 9484TIP3    H228375   6.438   6.527   2.305
 9485TIP3   OH228376   6.362   7.229   2.760
 9485TIP3    H128377   6.294   7.167   2.724
 9485TIP3    H228378   6.405   7.171   2.826
 9486TIP3   OH228379   6.496   7.079   2.947
 9486TIP3    H128380   6.485   7.006   3.011
 9486TIP3    H228381   6.548   7.141   3.002
 9487TIP3   OH228382   8.272   7.489   3.035
 9487TIP3    H128383   8.219   7.408   3.020
 9487TIP3    H228384   8.317   7.459   3.117
 9488TIP3   OH228385   8.293   7.175   3.598
 9488TIP3    H128386   8.223   7.185   3.666
 9488TIP3    H228387   8.337   7.262   3.603
 9489TIP3   OH228388   8.113   6.692   2.224
 9489TIP3    H128389   8.185   6.749   2.191
 9489TIP3    H228390   8.156   6.651   2.302
 9490TIP3   OH228391   8.240   6.563   2.429
 9490TIP3    H128392   8.176   6.516   2.487
 9490TIP3    H228393   8.306   6.596   2.493
 9491TIP3   OH228394   8.282   6.941   2.846
 9491TIP3    H128395   8.346   6.877   2.807
 9491TIP3    H228396   8.284   7.014   2.782
 9492TIP3   OH228397   8.126   7.252   3.040
 9492TIP3    H128398   8.062   7.288   3.106
 9492TIP3    H228399   8.069   7.194   2.985
 9493TIP3   OH228400   8.179   6.464   2.073
 9493TIP3    H128401   8.109   6.465   2.004
 9493TIP3    H228402   8.151   6.541   2.126
 9494TIP3   OH228403   8.047   6.140   2.030
 9494TIP3    H128404   8.016   6.177   1.946
 9494TIP3    H228405   8.023   6.045   2.019
 9495TIP3   OH228406   8.056   6.414   2.572
 9495TIP3    H128407   8.067   6.318   2.565
 9495TIP3    H228408   8.043   6.427   2.668
 9496TIP3   OH228409   6.683   6.487   3.319
 9496TIP3    H128410   6.682   6.457   3.225
 9496TIP3    H228411   6.780   6.489   3.336
 9497TIP3   OH228412   8.348   6.839   3.425
 9497TIP3    H128413   8.421   6.774   3.420
 9497TIP3    H228414   8.382   6.912   3.370
 9498TIP3   OH228415   8.531   6.645   3.457
 9498TIP3    H128416   8.456   6.593   3.493
 9498TIP3    H228417   8.603   6.578   3.463
 9499TIP3   OH228418   7.994   5.874   2.014
 9499TIP3    H128419   8.071   5.843   2.066
 9499TIP3    H228420   7.924   5.811   2.038
 9500TIP3   OH228421   8.052   6.130   2.466
 9500TIP3    H128422   8.092   6.041   2.482
 9500TIP3    H228423   8.112   6.161   2.396
 9501TIP3   OH228424   8.213   6.306   2.962
 9501TIP3    H128425   8.299   6.331   2.921
 9501TIP3    H228426   8.227   6.341   3.052
 9502TIP3   OH228427   8.281   6.445   3.196
 9502TIP3    H128428   8.204   6.482   3.244
 9502TIP3    H228429   8.314   6.524   3.148
 9503TIP3   OH228430   6.898   6.172   3.995
 9503TIP3    H128431   6.995   6.165   3.992
 9503TIP3    H228432   6.874   6.085   4.031
 9504TIP3   OH228433   8.736   6.037   3.750
 9504TIP3    H128434   8.795   5.974   3.704
 9504TIP3    H228435   8.706   6.094   3.675
 9505TIP3   OH228436   8.160   5.881   2.506
 9505TIP3    H128437   8.211   5.865   2.588
 9505TIP3    H228438   8.102   5.803   2.505
 9506TIP3   OH228439   6.861   5.866   3.323
 9506TIP3    H128440   6.923   5.791   3.333
 9506TIP3    H228441   6.923   5.940   3.317
 9507TIP3   OH228442   6.665   6.139   3.398
 9507TIP3    H128443   6.715   6.137   3.314
 9507TIP3    H228444   6.690   6.225   3.433
 9508TIP3   OH228445   8.605   6.178   3.559
 9508TIP3    H128446   8.519   6.220   3.580
 9508TIP3    H228447   8.575   6.109   3.498
 9509TIP3   OH228448   8.241   5.816   2.135
 9509TIP3    H128449   8.283   5.743   2.084
 9509TIP3    H228450   8.310   5.886   2.131
 9510TIP3   OH228451   6.648   5.642   2.897
 9510TIP3    H128452   6.555   5.641   2.926
 9510TIP3    H228453   6.645   5.702   2.819
 9511TIP3   OH228454   7.802   7.346   2.412
 9511TIP3    H128455   7.844   7.328   2.325
 9511TIP3    H228456   7.879   7.374   2.463
 9512TIP3   OH228457   6.869   5.725   3.713
 9512TIP3    H128458   6.817   5.718   3.795
 9512TIP3    H228459   6.802   5.761   3.652
 9513TIP3   OH228460   6.902   7.081   3.806
 9513TIP3    H128461   6.811   7.111   3.796
 9513TIP3    H228462   6.946   7.164   3.835
 9514TIP3   OH228463   7.077   7.172   3.313
 9514TIP3    H128464   7.034   7.256   3.286
 9514TIP3    H228465   7.168   7.192   3.285
 9515TIP3   OH228466   7.533   7.429   3.473
 9515TIP3    H128467   7.571   7.427   3.563
 9515TIP3    H228468   7.601   7.481   3.425
 9516TIP3   OH228469   7.715   7.580   3.330
 9516TIP3    H128470   7.790   7.525   3.305
 9516TIP3    H228471   7.759   7.641   3.394
 9517TIP3   OH228472   8.505   5.942   3.434
 9517TIP3    H128473   8.413   5.938   3.400
 9517TIP3    H228474   8.534   5.849   3.422
 9518TIP3   OH228475   6.764   7.441   3.359
 9518TIP3    H128476   6.673   7.474   3.340
 9518TIP3    H228477   6.777   7.475   3.448
 9519TIP3   OH228478   6.998   7.420   3.216
 9519TIP3    H128479   6.913   7.431   3.264
 9519TIP3    H228480   6.975   7.455   3.128
 9520TIP3   OH228481   7.428   7.453   3.009
 9520TIP3    H128482   7.351   7.476   2.954
 9520TIP3    H228483   7.439   7.535   3.061
 9521TIP3   OH228484   7.690   7.382   3.059
 9521TIP3    H128485   7.596   7.404   3.045
 9521TIP3    H228486   7.734   7.466   3.035
 9522TIP3   OH228487   7.873   7.572   2.974
 9522TIP3    H128488   7.872   7.647   2.911
 9522TIP3    H228489   7.908   7.501   2.917
 9523TIP3   OH228490   6.675   7.234   3.105
 9523TIP3    H128491   6.701   7.208   3.196
 9523TIP3    H228492   6.746   7.188   3.055
 9524TIP3   OH228493   6.870   7.106   2.962
 9524TIP3    H128494   6.881   7.019   3.008
 9524TIP3    H228495   6.961   7.139   2.962
 9525TIP3   OH228496   7.141   7.195   2.958
 9525TIP3    H128497   7.169   7.101   2.960
 9525TIP3    H228498   7.177   7.224   3.044
 9526TIP3   OH228499   7.705   5.854   3.046
 9526TIP3    H128500   7.665   5.786   3.102
 9526TIP3    H228501   7.783   5.809   3.009
 9527TIP3   OH228502   8.234   5.734   2.959
 9527TIP3    H128503   8.271   5.787   2.884
 9527TIP3    H228504   8.139   5.755   2.953
 9528TIP3   OH228505   8.328   5.836   2.722
 9528TIP3    H128506   8.401   5.785   2.680
 9528TIP3    H228507   8.362   5.927   2.708
 9529TIP3   OH228508   6.958   5.565   3.068
 9529TIP3    H128509   6.866   5.532   3.072
 9529TIP3    H228510   7.007   5.480   3.066
 9530TIP3   OH228511   6.738   5.436   2.715
 9530TIP3    H128512   6.774   5.493   2.645
 9530TIP3    H228513   6.716   5.500   2.784
 9531TIP3   OH228514   7.400   5.599   2.951
 9531TIP3    H128515   7.458   5.647   2.890
 9531TIP3    H228516   7.426   5.636   3.036
 9532TIP3   OH228517   7.947   5.744   2.934
 9532TIP3    H128518   7.950   5.706   2.845
 9532TIP3    H228519   7.934   5.664   2.989
 9533TIP3   OH228520   7.978   5.666   2.496
 9533TIP3    H128521   7.890   5.707   2.507
 9533TIP3    H228522   7.965   5.581   2.542
 9534TIP3   OH228523   6.464   7.005   2.494
 9534TIP3    H128524   6.378   6.973   2.462
 9534TIP3    H228525   6.452   7.100   2.480
 9535TIP3   OH228526   6.862   5.596   2.478
 9535TIP3    H128527   6.910   5.531   2.423
 9535TIP3    H228528   6.935   5.649   2.515
 9536TIP3   OH228529   7.374   5.770   2.579
 9536TIP3    H128530   7.434   5.722   2.639
 9536TIP3    H228531   7.397   5.862   2.605
 9537TIP3   OH228532   7.242   7.199   2.084
 9537TIP3    H128533   7.328   7.221   2.042
 9537TIP3    H228534   7.216   7.125   2.025
 9538TIP3   OH228535   7.948   7.314   2.189
 9538TIP3    H128536   7.951   7.217   2.172
 9538TIP3    H228537   7.908   7.345   2.105
 9539TIP3   OH228538   7.165   5.846   3.960
 9539TIP3    H128539   7.130   5.774   4.017
 9539TIP3    H228540   7.259   5.846   3.988
 9540TIP3   OH228541   7.411   5.847   4.084
 9540TIP3    H128542   7.497   5.828   4.042
 9540TIP3    H228543   7.405   5.774   4.149
 9541TIP3   OH228544   6.538   7.032   2.134
 9541TIP3    H128545   6.532   7.058   2.227
 9541TIP3    H228546   6.627   6.990   2.128
 9542TIP3   OH228547   8.240   5.903   3.867
 9542TIP3    H128548   8.259   5.871   3.959
 9542TIP3    H228549   8.329   5.900   3.827
 9543TIP3   OH228550   8.176   7.455   3.365
 9543TIP3    H128551   8.098   7.423   3.317
 9543TIP3    H228552   8.158   7.551   3.364
 9544TIP3   OH228553   8.733   6.721   2.879
 9544TIP3    H128554   8.765   6.657   2.946
 9544TIP3    H228555   8.817   6.761   2.851
 9545TIP3   OH228556   8.416   6.342   2.380
 9545TIP3    H128557   8.365   6.424   2.390
 9545TIP3    H228558   8.349   6.283   2.341
 9546TIP3   OH228559   8.487   6.623   2.552
 9546TIP3    H128560   8.531   6.546   2.595
 9546TIP3    H228561   8.536   6.627   2.469
 9547TIP3   OH228562   8.630   6.422   2.667
 9547TIP3    H128563   8.723   6.439   2.690
 9547TIP3    H228564   8.641   6.354   2.596
 9548TIP3   OH228565   8.316   6.856   2.108
 9548TIP3    H128566   8.283   6.864   2.016
 9548TIP3    H228567   8.309   6.947   2.140
 9549TIP3   OH228568   8.485   6.983   3.055
 9549TIP3    H128569   8.423   6.947   2.989
 9549TIP3    H228570   8.523   6.902   3.096
 9550TIP3   OH228571   8.358   7.173   2.695
 9550TIP3    H128572   8.452   7.158   2.712
 9550TIP3    H228573   8.342   7.255   2.743
 9551TIP3   OH228574   8.741   7.077   3.006
 9551TIP3    H128575   8.774   7.094   3.096
 9551TIP3    H228576   8.651   7.044   3.025
 9552TIP3   OH228577   8.834   6.544   3.070
 9552TIP3    H128578   8.880   6.593   3.138
 9552TIP3    H228579   8.843   6.452   3.103
 9553TIP3   OH228580   8.453   6.058   2.637
 9553TIP3    H128581   8.526   6.095   2.691
 9553TIP3    H228582   8.498   6.034   2.556
 9554TIP3   OH228583   8.425   6.042   2.156
 9554TIP3    H128584   8.469   6.082   2.078
 9554TIP3    H228585   8.364   6.114   2.178
 9555TIP3   OH228586   8.668   6.260   2.454
 9555TIP3    H128587   8.581   6.284   2.414
 9555TIP3    H228588   8.708   6.204   2.387
 9556TIP3   OH228589   8.595   6.791   3.206
 9556TIP3    H128590   8.649   6.780   3.287
 9556TIP3    H228591   8.558   6.702   3.194
 9557TIP3   OH228592   8.401   6.458   1.904
 9557TIP3    H128593   8.454   6.537   1.932
 9557TIP3    H228594   8.325   6.467   1.965
 9558TIP3   OH228595   8.831   6.296   3.203
 9558TIP3    H128596   8.735   6.292   3.219
 9558TIP3    H228597   8.865   6.229   3.263
 9559TIP3   OH228598   8.516   6.694   1.985
 9559TIP3    H128599   8.461   6.750   2.042
 9559TIP3    H228600   8.520   6.744   1.901
 9560TIP3   OH228601   8.455   6.194   1.934
 9560TIP3    H128602   8.452   6.292   1.929
 9560TIP3    H228603   8.377   6.170   1.883
 9561TIP3   OH228604   8.830   5.920   2.821
 9561TIP3    H128605   8.813   5.888   2.729
 9561TIP3    H228606   8.833   5.835   2.869
 9562TIP3   OH228607   8.649   7.084   3.480
 9562TIP3    H128608   8.705   7.015   3.442
 9562TIP3    H228609   8.574   7.084   3.417
 9563TIP3   OH228610   8.795   6.809   3.428
 9563TIP3    H128611   8.850   6.731   3.438
 9563TIP3    H228612   8.807   6.851   3.516
 9564TIP3   OH228613   8.952   6.379   3.508
 9564TIP3    H128614   8.967   6.288   3.475
 9564TIP3    H228615   9.000   6.376   3.593
 9565TIP3   OH228616   8.251   6.868   1.841
 9565TIP3    H128617   8.341   6.865   1.802
 9565TIP3    H228618   8.218   6.783   1.803
 9566TIP3   OH228619   8.477   6.757   2.800
 9566TIP3    H128620   8.482   6.715   2.712
 9566TIP3    H228621   8.572   6.751   2.828
 9567TIP3   OH228622   8.690   6.428   3.473
 9567TIP3    H128623   8.789   6.425   3.475
 9567TIP3    H228624   8.670   6.344   3.520
 9568TIP3   OH228625   8.655   6.127   2.814
 9568TIP3    H128626   8.716   6.050   2.817
 9568TIP3    H228627   8.717   6.199   2.831
 9569TIP3   OH228628   8.458   6.395   2.883
 9569TIP3    H128629   8.513   6.392   2.802
 9569TIP3    H228630   8.493   6.473   2.927
 9570TIP3   OH228631   8.441   5.892   2.379
 9570TIP3    H128632   8.350   5.896   2.412
 9570TIP3    H228633   8.441   5.956   2.306
 9571TIP3   OH228634   8.660   5.975   3.197
 9571TIP3    H128635   8.614   5.978   3.282
 9571TIP3    H228636   8.596   6.018   3.138
 9572TIP3   OH228637   8.752   5.812   2.583
 9572TIP3    H128638   8.660   5.782   2.572
 9572TIP3    H228639   8.801   5.745   2.535
 9573TIP3   OH228640   8.538   5.689   2.202
 9573TIP3    H128641   8.557   5.754   2.132
 9573TIP3    H228642   8.510   5.748   2.275
 9574TIP3   OH228643   8.652   5.844   1.961
 9574TIP3    H128644   8.694   5.756   1.972
 9574TIP3    H228645   8.707   5.903   2.012
 9575TIP3   OH228646   8.974   6.095   3.444
 9575TIP3    H128647   8.951   6.029   3.512
 9575TIP3    H228648   9.070   6.086   3.438
 9576TIP3   OH228649   0.911   6.920   4.749
 9576TIP3    H128650   0.947   6.985   4.813
 9576TIP3    H228651   0.879   6.982   4.680
 9577TIP3   OH228652   0.342   6.804   4.394
 9577TIP3    H128653   0.422   6.814   4.450
 9577TIP3    H228654   0.347   6.881   4.337
 9578TIP3   OH228655   0.975   7.109   4.935
 9578TIP3    H128656   0.896   7.165   4.921
 9578TIP3    H228657   1.010   7.146   5.018
 9579TIP3   OH228658   0.565   6.849   4.553
 9579TIP3    H128659   0.583   6.774   4.612
 9579TIP3    H228660   0.613   6.922   4.595
 9580TIP3   OH228661   0.699   6.810   4.904
 9580TIP3    H128662   0.642   6.886   4.895
 9580TIP3    H228663   0.771   6.830   4.841
 9581TIP3   OH228664   0.640   7.830   4.903
 9581TIP3    H128665   0.630   7.742   4.861
 9581TIP3    H228666   0.592   7.886   4.841
 9582TIP3   OH228667   0.836   7.440   4.734
 9582TIP3    H128668   0.758   7.498   4.745
 9582TIP3    H228669   0.872   7.476   4.650
 9583TIP3   OH228670   0.639   6.394   4.003
 9583TIP3    H128671   0.555   6.411   4.052
 9583TIP3    H228672   0.648   6.478   3.954
 9584TIP3   OH228673   0.443   7.758   3.565
 9584TIP3    H128674   0.444   7.850   3.531
 9584TIP3    H228675   0.536   7.730   3.547
 9585TIP3   OH228676   0.904   8.151   4.975
 9585TIP3    H128677   0.902   8.054   4.992
 9585TIP3    H228678   0.809   8.171   4.973
 9586TIP3   OH228679   0.775   7.296   5.217
 9586TIP3    H128680   0.682   7.307   5.241
 9586TIP3    H228681   0.786   7.199   5.221
 9587TIP3   OH228682   0.519   7.073   5.148
 9587TIP3    H128683   0.511   7.028   5.234
 9587TIP3    H228684   0.507   7.165   5.177
 9588TIP3   OH228685   0.206   7.313   3.635
 9588TIP3    H128686   0.188   7.245   3.570
 9588TIP3    H228687   0.303   7.319   3.629
 9589TIP3   OH228688   0.613   7.601   4.747
 9589TIP3    H128689   0.632   7.649   4.663
 9589TIP3    H228690   0.516   7.593   4.746
 9590TIP3   OH228691   0.248   6.906   4.009
 9590TIP3    H128692   0.331   6.915   4.061
 9590TIP3    H228693   0.210   6.994   4.019
 9591TIP3   OH228694   0.675   7.014   3.909
 9591TIP3    H128695   0.610   6.972   3.848
 9591TIP3    H228696   0.670   7.105   3.869
 9592TIP3   OH228697   0.894   7.867   4.992
 9592TIP3    H128698   0.796   7.869   4.981
 9592TIP3    H228699   0.920   7.838   4.902
 9593TIP3   OH228700   0.331   7.795   3.817
 9593TIP3    H128701   0.396   7.755   3.875
 9593TIP3    H228702   0.375   7.793   3.730
 9594TIP3   OH228703   0.457   8.022   3.520
 9594TIP3    H128704   0.529   8.087   3.512
 9594TIP3    H228705   0.390   8.074   3.566
 9595TIP3   OH228706   0.793   7.022   5.150
 9595TIP3    H128707   0.696   7.017   5.142
 9595TIP3    H228708   0.823   6.995   5.063
 9596TIP3   OH228709   0.442   7.207   4.536
 9596TIP3    H128710   0.392   7.128   4.513
 9596TIP3    H228711   0.524   7.170   4.575
 9597TIP3   OH228712   0.470   7.302   3.562
 9597TIP3    H128713   0.440   7.249   3.485
 9597TIP3    H228714   0.448   7.392   3.530
 9598TIP3   OH228715   0.714   6.955   5.582
 9598TIP3    H128716   0.704   6.858   5.569
 9598TIP3    H228717   0.624   6.980   5.606
 9599TIP3   OH228718   0.677   8.253   4.483
 9599TIP3    H128719   0.696   8.341   4.520
 9599TIP3    H228720   0.702   8.270   4.391
 9600TIP3   OH228721   0.703   8.232   4.775
 9600TIP3    H128722   0.669   8.211   4.687
 9600TIP3    H228723   0.797   8.209   4.766
 9601TIP3   OH228724   0.775   7.972   5.257
 9601TIP3    H128725   0.691   7.972   5.303
 9601TIP3    H228726   0.811   8.060   5.283
 9602TIP3   OH228727   0.576   7.478   3.903
 9602TIP3    H128728   0.647   7.540   3.876
 9602TIP3    H228729   0.613   7.441   3.986
 9603TIP3   OH228730   0.698   7.347   4.112
 9603TIP3    H128731   0.637   7.298   4.171
 9603TIP3    H228732   0.762   7.385   4.175
 9604TIP3   OH228733   0.742   7.735   4.543
 9604TIP3    H128734   0.797   7.673   4.494
 9604TIP3    H228735   0.753   7.818   4.490
 9605TIP3   OH228736   0.640   7.249   3.766
 9605TIP3    H128737   0.576   7.257   3.692
 9605TIP3    H228738   0.611   7.326   3.820
 9606TIP3   OH228739   0.504   6.929   3.714
 9606TIP3    H128740   0.467   6.961   3.631
 9606TIP3    H228741   0.480   6.834   3.709
 9607TIP3   OH228742   0.538   7.194   4.268
 9607TIP3    H128743   0.507   7.105   4.244
 9607TIP3    H228744   0.494   7.210   4.353
 9608TIP3   OH228745   0.793   7.629   5.125
 9608TIP3    H128746   0.861   7.560   5.113
 9608TIP3    H228747   0.818   7.697   5.061
 9609TIP3   OH228748   0.986   7.437   5.127
 9609TIP3    H128749   0.914   7.383   5.165
 9609TIP3    H228750   1.062   7.378   5.143
 9610TIP3   OH228751   0.467   6.660   3.689
 9610TIP3    H128752   0.542   6.639   3.748
 9610TIP3    H228753   0.393   6.613   3.735
 9611TIP3   OH228754   0.502   6.924   4.152
 9611TIP3    H128755   0.534   6.835   4.176
 9611TIP3    H228756   0.565   6.949   4.083
 9612TIP3   OH228757   0.669   7.089   4.655
 9612TIP3    H128758   0.749   7.123   4.609
 9612TIP3    H228759   0.678   7.136   4.741
 9613TIP3   OH228760   0.730   7.238   4.877
 9613TIP3    H128761   0.661   7.283   4.928
 9613TIP3    H228762   0.770   7.314   4.830
 9614TIP3   OH228763   1.195   6.831   5.441
 9614TIP3    H128764   1.249   6.761   5.398
 9614TIP3    H228765   1.163   6.882   5.364
 9615TIP3   OH228766   0.615   6.669   4.195
 9615TIP3    H128767   0.655   6.645   4.281
 9615TIP3    H228768   0.548   6.598   4.187
 9616TIP3   OH228769   1.060   6.965   5.246
 9616TIP3    H128770   0.980   7.006   5.286
 9616TIP3    H228771   1.019   6.896   5.190
 9617TIP3   OH228772   0.701   6.605   3.827
 9617TIP3    H128773   0.740   6.530   3.778
 9617TIP3    H228774   0.772   6.673   3.823
 9618TIP3   OH228775   0.956   6.727   5.118
 9618TIP3    H128776   0.863   6.707   5.101
 9618TIP3    H228777   0.994   6.636   5.114
 9619TIP3   OH228778   0.695   6.534   4.651
 9619TIP3    H128779   0.728   6.581   4.571
 9619TIP3    H228780   0.597   6.538   4.639
 9620TIP3   OH228781   0.791   6.634   4.411
 9620TIP3    H128782   0.857   6.572   4.374
 9620TIP3    H228783   0.817   6.717   4.368
 9621TIP3   OH228784   0.425   6.536   4.623
 9621TIP3    H128785   0.385   6.530   4.535
 9621TIP3    H228786   0.395   6.454   4.667
 9622TIP3   OH228787   0.436   6.455   4.183
 9622TIP3    H128788   0.343   6.477   4.169
 9622TIP3    H228789   0.427   6.366   4.225
 9623TIP3   OH228790   0.706   6.684   5.558
 9623TIP3    H128791   0.720   6.658   5.651
 9623TIP3    H228792   0.793   6.665   5.517
 9624TIP3   OH228793   1.897   7.615   3.816
 9624TIP3    H128794   1.871   7.707   3.798
 9624TIP3    H228795   1.819   7.568   3.783
 9625TIP3   OH228796   1.894   7.617   4.196
 9625TIP3    H128797   1.928   7.591   4.283
 9625TIP3    H228798   1.856   7.534   4.163
 9626TIP3   OH228799   1.196   7.508   4.562
 9626TIP3    H128800   1.228   7.447   4.631
 9626TIP3    H228801   1.269   7.572   4.558
 9627TIP3   OH228802   2.138   7.920   3.877
 9627TIP3    H128803   2.128   7.852   3.944
 9627TIP3    H228804   2.169   7.996   3.930
 9628TIP3   OH228805   1.165   7.919   4.290
 9628TIP3    H128806   1.159   7.822   4.292
 9628TIP3    H228807   1.262   7.932   4.277
 9629TIP3   OH228808   0.871   7.119   4.076
 9629TIP3    H128809   0.827   7.204   4.091
 9629TIP3    H228810   0.801   7.072   4.028
 9630TIP3   OH228811   0.934   7.412   4.243
 9630TIP3    H128812   0.986   7.335   4.272
 9630TIP3    H228813   0.994   7.456   4.180
 9631TIP3   OH228814   1.784   8.362   3.924
 9631TIP3    H128815   1.832   8.311   3.856
 9631TIP3    H228816   1.801   8.309   4.002
 9632TIP3   OH228817   1.697   7.840   4.245
 9632TIP3    H128818   1.740   7.765   4.201
 9632TIP3    H228819   1.778   7.890   4.270
 9633TIP3   OH228820   2.706   7.164   4.242
 9633TIP3    H128821   2.737   7.245   4.286
 9633TIP3    H228822   2.731   7.182   4.150
 9634TIP3   OH228823   2.103   7.344   4.278
 9634TIP3    H128824   2.150   7.261   4.299
 9634TIP3    H228825   2.077   7.327   4.186
 9635TIP3   OH228826   1.437   7.001   4.245
 9635TIP3    H128827   1.428   7.074   4.181
 9635TIP3    H228828   1.400   6.928   4.190
 9636TIP3   OH228829   2.139   7.096   3.864
 9636TIP3    H128830   2.210   7.079   3.931
 9636TIP3    H228831   2.193   7.130   3.791
 9637TIP3   OH228832   1.072   7.190   4.349
 9637TIP3    H128833   1.164   7.204   4.379
 9637TIP3    H228834   1.086   7.141   4.266
 9638TIP3   OH228835   1.521   7.401   4.142
 9638TIP3    H128836   1.616   7.379   4.154
 9638TIP3    H228837   1.485   7.317   4.108
 9639TIP3   OH228838   2.781   7.370   4.412
 9639TIP3    H128839   2.698   7.418   4.394
 9639TIP3    H228840   2.797   7.396   4.504
 9640TIP3   OH228841   1.442   6.977   4.680
 9640TIP3    H128842   1.398   7.040   4.621
 9640TIP3    H228843   1.397   6.998   4.765
 9641TIP3   OH228844   1.790   7.837   3.684
 9641TIP3    H128845   1.747   7.819   3.599
 9641TIP3    H228846   1.748   7.921   3.708
 9642TIP3   OH228847   1.548   7.761   4.471
 9642TIP3    H128848   1.487   7.829   4.509
 9642TIP3    H228849   1.590   7.812   4.399
 9643TIP3   OH228850   2.348   7.098   4.036
 9643TIP3    H128851   2.346   7.047   4.118
 9643TIP3    H228852   2.404   7.174   4.062
 9644TIP3   OH228853   1.311   7.079   4.465
 9644TIP3    H128854   1.354   7.163   4.493
 9644TIP3    H228855   1.369   7.060   4.386
 9645TIP3   OH228856   1.377   7.956   4.568
 9645TIP3    H128857   1.351   8.041   4.528
 9645TIP3    H228858   1.297   7.942   4.625
 9646TIP3   OH228859   0.775   7.644   3.804
 9646TIP3    H128860   0.736   7.682   3.724
 9646TIP3    H228861   0.805   7.725   3.852
 9647TIP3   OH228862   2.203   8.144   4.040
 9647TIP3    H128863   2.113   8.144   4.080
 9647TIP3    H228864   2.202   8.232   3.996
 9648TIP3   OH228865   2.501   7.063   4.408
 9648TIP3    H128866   2.415   7.094   4.376
 9648TIP3    H228867   2.562   7.095   4.338
 9649TIP3   OH228868   1.795   6.705   4.385
 9649TIP3    H128869   1.789   6.610   4.407
 9649TIP3    H228870   1.719   6.740   4.436
 9650TIP3   OH228871   1.922   8.196   3.740
 9650TIP3    H128872   1.961   8.107   3.725
 9650TIP3    H228873   1.996   8.249   3.708
 9651TIP3   OH228874   2.059   7.987   3.623
 9651TIP3    H128875   2.022   7.907   3.583
 9651TIP3    H228876   2.096   7.953   3.707
 9652TIP3   OH228877   2.437   8.069   4.393
 9652TIP3    H128878   2.427   7.991   4.335
 9652TIP3    H228879   2.420   8.142   4.330
 9653TIP3   OH228880   1.727   7.468   3.645
 9653TIP3    H128881   1.649   7.522   3.623
 9653TIP3    H228882   1.775   7.466   3.561
 9654TIP3   OH228883   1.687   7.252   3.363
 9654TIP3    H128884   1.752   7.304   3.412
 9654TIP3    H228885   1.746   7.190   3.315
 9655TIP3   OH228886   2.631   7.711   4.233
 9655TIP3    H128887   2.549   7.763   4.238
 9655TIP3    H228888   2.662   7.736   4.143
 9656TIP3   OH228889   2.076   7.550   3.618
 9656TIP3    H128890   2.022   7.574   3.697
 9656TIP3    H228891   2.160   7.525   3.661
 9657TIP3   OH228892   2.311   7.591   4.531
 9657TIP3    H128893   2.310   7.673   4.583
 9657TIP3    H228894   2.226   7.599   4.483
 9658TIP3   OH228895   1.308   7.548   4.037
 9658TIP3    H128896   1.267   7.492   3.968
 9658TIP3    H228897   1.386   7.496   4.064
 9659TIP3   OH228898   1.435   7.946   4.191
 9659TIP3    H128899   1.421   7.919   4.099
 9659TIP3    H228900   1.528   7.920   4.206
 9660TIP3   OH228901   1.444   7.519   4.387
 9660TIP3    H128902   1.480   7.500   4.298
 9660TIP3    H228903   1.487   7.605   4.410
 9661TIP3   OH228904   1.962   8.156   4.162
 9661TIP3    H128905   1.953   8.238   4.213
 9661TIP3    H228906   1.951   8.086   4.230
 9662TIP3   OH228907   1.582   8.075   4.715
 9662TIP3    H128908   1.523   8.138   4.761
 9662TIP3    H228909   1.516   8.024   4.663
 9663TIP3   OH228910   1.915   7.410   3.444
 9663TIP3    H128911   1.975   7.469   3.495
 9663TIP3    H228912   1.943   7.432   3.351
 9664TIP3   OH228913   1.335   7.631   4.812
 9664TIP3    H128914   1.344   7.719   4.856
 9664TIP3    H228915   1.240   7.615   4.827
 9665TIP3   OH228916   1.664   8.083   3.711
 9665TIP3    H128917   1.737   8.138   3.746
 9665TIP3    H228918   1.592   8.146   3.700
 9666TIP3   OH228919   1.379   8.248   4.799
 9666TIP3    H128920   1.341   8.248   4.709
 9666TIP3    H228921   1.305   8.211   4.853
 9667TIP3   OH228922   2.432   6.652   3.491
 9667TIP3    H128923   2.351   6.670   3.543
 9667TIP3    H228924   2.444   6.736   3.443
 9668TIP3   OH228925   1.174   7.390   3.840
 9668TIP3    H128926   1.111   7.440   3.784
 9668TIP3    H228927   1.130   7.305   3.845
 9669TIP3   OH228928   2.225   8.005   3.034
 9669TIP3    H128929   2.230   8.102   3.014
 9669TIP3    H228930   2.320   7.981   3.027
 9670TIP3   OH228931   0.955   7.775   4.748
 9670TIP3    H128932   0.894   7.751   4.675
 9670TIP3    H228933   0.994   7.688   4.773
 9671TIP3   OH228934   0.809   7.964   4.401
 9671TIP3    H128935   0.898   7.973   4.364
 9671TIP3    H228936   0.788   8.055   4.424
 9672TIP3   OH228937   2.693   8.409   4.443
 9672TIP3    H128938   2.687   8.314   4.463
 9672TIP3    H228939   2.612   8.442   4.488
 9673TIP3   OH228940   1.785   8.187   4.567
 9673TIP3    H128941   1.792   8.281   4.595
 9673TIP3    H228942   1.708   8.156   4.620
 9674TIP3   OH228943   0.976   8.156   3.900
 9674TIP3    H128944   1.033   8.161   3.980
 9674TIP3    H228945   0.904   8.102   3.938
 9675TIP3   OH228946   1.940   8.235   3.194
 9675TIP3    H128947   1.888   8.179   3.134
 9675TIP3    H228948   1.889   8.228   3.277
 9676TIP3   OH228949   1.784   8.227   3.432
 9676TIP3    H128950   1.714   8.274   3.478
 9676TIP3    H228951   1.828   8.182   3.506
 9677TIP3   OH228952   2.564   7.550   4.711
 9677TIP3    H128953   2.484   7.563   4.659
 9677TIP3    H228954   2.581   7.455   4.700
 9678TIP3   OH228955   1.160   7.958   4.733
 9678TIP3    H128956   1.207   7.952   4.819
 9678TIP3    H228957   1.087   7.894   4.744
 9679TIP3   OH228958   1.555   6.778   4.519
 9679TIP3    H128959   1.466   6.754   4.488
 9679TIP3    H228960   1.536   6.859   4.571
 9680TIP3   OH228961   2.095   6.897   4.713
 9680TIP3    H128962   2.166   6.869   4.776
 9680TIP3    H228963   2.013   6.876   4.762
 9681TIP3   OH228964   2.328   7.324   4.628
 9681TIP3    H128965   2.281   7.322   4.715
 9681TIP3    H228966   2.309   7.415   4.597
 9682TIP3   OH228967   1.991   7.456   3.189
 9682TIP3    H128968   1.959   7.430   3.100
 9682TIP3    H228969   2.072   7.505   3.165
 9683TIP3   OH228970   1.701   6.834   3.490
 9683TIP3    H128971   1.671   6.829   3.582
 9683TIP3    H228972   1.668   6.748   3.457
 9684TIP3   OH228973   1.469   7.289   4.531
 9684TIP3    H128974   1.441   7.323   4.618
 9684TIP3    H228975   1.465   7.371   4.477
 9685TIP3   OH228976   1.376   7.181   4.053
 9685TIP3    H128977   1.282   7.158   4.063
 9685TIP3    H228978   1.393   7.144   3.963
 9686TIP3   OH228979   1.865   7.268   3.778
 9686TIP3    H128980   1.814   7.340   3.736
 9686TIP3    H228981   1.921   7.238   3.704
 9687TIP3   OH228982   2.040   7.547   4.864
 9687TIP3    H128983   2.020   7.475   4.927
 9687TIP3    H228984   2.134   7.565   4.885
 9688TIP3   OH228985   2.021   7.297   4.019
 9688TIP3    H128986   1.963   7.328   3.947
 9688TIP3    H228987   2.056   7.217   3.976
 9689TIP3   OH228988   1.305   7.324   4.753
 9689TIP3    H128989   1.342   7.393   4.810
 9689TIP3    H228990   1.303   7.247   4.813
 9690TIP3   OH228991   1.355   6.801   3.456
 9690TIP3    H128992   1.352   6.800   3.553
 9690TIP3    H228993   1.280   6.860   3.436
 9691TIP3   OH228994   0.881   6.831   3.848
 9691TIP3    H128995   0.924   6.867   3.769
 9691TIP3    H228996   0.817   6.902   3.867
 9692TIP3   OH228997   2.027   7.544   4.441
 9692TIP3    H128998   2.063   7.472   4.383
 9692TIP3    H228999   2.002   7.491   4.520
 9693TIP3   OH229000   1.701   7.011   4.114
 9693TIP3    H129001   1.625   7.004   4.174
 9693TIP3    H229002   1.777   7.003   4.175
 9694TIP3   OH229003   1.133   7.052   4.123
 9694TIP3    H129004   1.041   7.060   4.091
 9694TIP3    H229005   1.161   6.965   4.087
 9695TIP3   OH229006   1.406   7.058   3.810
 9695TIP3    H129007   1.501   7.072   3.792
 9695TIP3    H229008   1.362   7.081   3.725
 9696TIP3   OH229009   2.195   7.084   4.315
 9696TIP3    H129010   2.160   7.095   4.407
 9696TIP3    H229011   2.132   7.020   4.278
 9697TIP3   OH229012   1.247   7.090   3.587
 9697TIP3    H129013   1.176   7.048   3.536
 9697TIP3    H229014   1.300   7.129   3.515
 9698TIP3   OH229015   1.327   7.872   4.956
 9698TIP3    H129016   1.405   7.907   5.002
 9698TIP3    H229017   1.259   7.888   5.024
 9699TIP3   OH229018   1.785   7.331   4.208
 9699TIP3    H129019   1.860   7.299   4.155
 9699TIP3    H229020   1.802   7.291   4.295
 9700TIP3   OH229021   1.312   6.821   4.085
 9700TIP3    H129022   1.279   6.739   4.126
 9700TIP3    H229023   1.366   6.787   4.013
 9701TIP3   OH229024   1.760   7.227   4.509
 9701TIP3    H129025   1.676   7.276   4.515
 9701TIP3    H229026   1.824   7.287   4.552
 9702TIP3   OH229027   1.499   7.622   3.594
 9702TIP3    H129028   1.426   7.557   3.584
 9702TIP3    H229029   1.481   7.656   3.686
 9703TIP3   OH229030   2.399   7.856   4.226
 9703TIP3    H129031   2.424   7.908   4.145
 9703TIP3    H229032   2.314   7.816   4.199
 9704TIP3   OH229033   1.956   6.935   3.456
 9704TIP3    H129034   1.860   6.919   3.464
 9704TIP3    H229035   1.967   7.028   3.482
 9705TIP3   OH229036   1.898   7.934   4.594
 9705TIP3    H129037   1.926   7.923   4.686
 9705TIP3    H229038   1.857   8.022   4.594
 9706TIP3   OH229039   2.027   7.181   3.560
 9706TIP3    H129040   2.123   7.187   3.578
 9706TIP3    H229041   2.010   7.262   3.508
 9707TIP3   OH229042   1.185   7.630   4.273
 9707TIP3    H129043   1.225   7.612   4.185
 9707TIP3    H229044   1.246   7.583   4.332
 9708TIP3   OH229045   1.644   7.769   3.415
 9708TIP3    H129046   1.596   7.854   3.421
 9708TIP3    H229047   1.591   7.714   3.476
 9709TIP3   OH229048   1.072   7.566   4.885
 9709TIP3    H129049   1.100   7.560   4.979
 9709TIP3    H229050   1.007   7.494   4.882
 9710TIP3   OH229051   1.799   7.677   4.903
 9710TIP3    H129052   1.745   7.620   4.848
 9710TIP3    H229053   1.889   7.646   4.879
 9711TIP3   OH229054   2.057   8.206   4.481
 9711TIP3    H129055   1.962   8.191   4.495
 9711TIP3    H229056   2.080   8.248   4.567
 9712TIP3   OH229057   2.469   7.271   3.397
 9712TIP3    H129058   2.407   7.227   3.335
 9712TIP3    H229059   2.466   7.361   3.358
 9713TIP3   OH229060   2.687   8.129   4.478
 9713TIP3    H129061   2.589   8.122   4.470
 9713TIP3    H229062   2.713   8.098   4.388
 9714TIP3   OH229063   2.199   8.067   3.312
 9714TIP3    H129064   2.144   8.012   3.370
 9714TIP3    H229065   2.180   8.031   3.223
 9715TIP3   OH229066   2.165   7.720   4.145
 9715TIP3    H129067   2.071   7.696   4.156
 9715TIP3    H229068   2.198   7.640   4.099
 9716TIP3   OH229069   1.292   7.939   3.894
 9716TIP3    H129070   1.293   8.024   3.847
 9716TIP3    H229071   1.199   7.932   3.918
 9717TIP3   OH229072   0.858   7.251   3.598
 9717TIP3    H129073   0.903   7.337   3.617
 9717TIP3    H229074   0.783   7.256   3.661
 9718TIP3   OH229075   1.431   7.710   3.839
 9718TIP3    H129076   1.394   7.800   3.855
 9718TIP3    H229077   1.395   7.662   3.917
 9719TIP3   OH229078   1.560   8.268   4.371
 9719TIP3    H129079   1.537   8.362   4.370
 9719TIP3    H229080   1.648   8.265   4.411
 9720TIP3   OH229081   1.217   8.175   3.760
 9720TIP3    H129082   1.126   8.168   3.797
 9720TIP3    H229083   1.230   8.271   3.765
 9721TIP3   OH229084   1.950   7.924   4.325
 9721TIP3    H129085   1.940   7.919   4.423
 9721TIP3    H229086   2.032   7.875   4.312
 9722TIP3   OH229087   1.924   7.814   3.209
 9722TIP3    H129088   1.978   7.789   3.288
 9722TIP3    H229089   1.835   7.792   3.242
 9723TIP3   OH229090   2.220   8.428   4.376
 9723TIP3    H129091   2.152   8.362   4.400
 9723TIP3    H229092   2.164   8.507   4.357
 9724TIP3   OH229093   2.251   8.274   3.007
 9724TIP3    H129094   2.320   8.342   3.001
 9724TIP3    H229095   2.172   8.327   3.026
 9725TIP3   OH229096   1.288   7.064   4.894
 9725TIP3    H129097   1.196   7.077   4.923
 9725TIP3    H229098   1.323   7.009   4.966
 9726TIP3   OH229099   2.085   7.751   3.425
 9726TIP3    H129100   2.076   7.685   3.496
 9726TIP3    H229101   2.182   7.750   3.412
 9727TIP3   OH229102   1.006   8.167   4.551
 9727TIP3    H129103   1.051   8.081   4.558
 9727TIP3    H229104   1.057   8.218   4.615
 9728TIP3   OH229105   1.286   7.801   3.206
 9728TIP3    H129106   1.305   7.710   3.177
 9728TIP3    H229107   1.272   7.789   3.302
 9729TIP3   OH229108   1.237   7.803   3.478
 9729TIP3    H129109   1.309   7.778   3.538
 9729TIP3    H229110   1.239   7.901   3.487
 9730TIP3   OH229111   0.972   7.497   3.681
 9730TIP3    H129112   0.906   7.542   3.738
 9730TIP3    H229113   0.986   7.566   3.614
 9731TIP3   OH229114   2.118   7.134   4.574
 9731TIP3    H129115   2.199   7.174   4.609
 9731TIP3    H229116   2.108   7.054   4.630
 9732TIP3   OH229117   1.996   6.888   3.739
 9732TIP3    H129118   1.988   6.910   3.645
 9732TIP3    H229119   2.038   6.969   3.776
 9733TIP3   OH229120   1.500   7.995   3.432
 9733TIP3    H129121   1.413   8.029   3.462
 9733TIP3    H229122   1.533   8.066   3.377
 9734TIP3   OH229123   1.686   7.066   3.841
 9734TIP3    H129124   1.752   7.136   3.822
 9734TIP3    H229125   1.695   7.057   3.939
 9735TIP3   OH229126   1.958   7.381   4.650
 9735TIP3    H129127   1.981   7.436   4.728
 9735TIP3    H229128   2.016   7.304   4.663
 9736TIP3   OH229129   1.833   6.791   3.941
 9736TIP3    H129130   1.838   6.863   4.007
 9736TIP3    H229131   1.893   6.827   3.871
 9737TIP3   OH229132   1.245   8.075   3.498
 9737TIP3    H129133   1.221   8.143   3.433
 9737TIP3    H229134   1.228   8.120   3.583
 9738TIP3   OH229135   1.345   6.791   3.733
 9738TIP3    H129136   1.346   6.883   3.767
 9738TIP3    H229137   1.441   6.770   3.741
 9739TIP3   OH229138   2.596   7.286   4.629
 9739TIP3    H129139   2.498   7.281   4.634
 9739TIP3    H229140   2.611   7.243   4.544
 9740TIP3   OH229141   2.250   7.478   4.017
 9740TIP3    H129142   2.176   7.417   4.031
 9740TIP3    H229143   2.323   7.433   4.064
 9741TIP3   OH229144   0.962   7.706   3.489
 9741TIP3    H129145   1.024   7.780   3.498
 9741TIP3    H229146   1.009   7.654   3.421
 9742TIP3   OH229147   0.904   6.981   3.620
 9742TIP3    H129148   0.910   7.078   3.616
 9742TIP3    H229149   0.818   6.966   3.580
 9743TIP3   OH229150   2.216   8.401   3.954
 9743TIP3    H129151   2.182   8.487   3.924
 9743TIP3    H229152   2.311   8.424   3.959
 9744TIP3   OH229153   1.259   6.735   4.492
 9744TIP3    H129154   1.246   6.682   4.409
 9744TIP3    H229155   1.265   6.663   4.558
 9745TIP3   OH229156   0.846   7.884   3.915
 9745TIP3    H129157   0.776   7.937   3.958
 9745TIP3    H229158   0.844   7.924   3.826
 9746TIP3   OH229159   1.061   8.396   4.926
 9746TIP3    H129160   1.131   8.416   4.992
 9746TIP3    H229161   1.025   8.313   4.960
 9747TIP3   OH229162   1.487   8.431   4.986
 9747TIP3    H129163   1.573   8.388   4.999
 9747TIP3    H229164   1.452   8.378   4.912
 9748TIP3   OH229165   1.455   8.003   3.121
 9748TIP3    H129166   1.403   7.927   3.156
 9748TIP3    H229167   1.530   7.955   3.080
 9749TIP3   OH229168   2.100   8.324   4.721
 9749TIP3    H129169   2.094   8.258   4.793
 9749TIP3    H229170   2.183   8.372   4.744
 9750TIP3   OH229171   1.885   8.019   3.008
 9750TIP3    H129172   1.927   7.968   3.080
 9750TIP3    H229173   1.953   8.018   2.938
 9751TIP3   OH229174   1.123   7.871   5.147
 9751TIP3    H129175   1.141   7.775   5.155
 9751TIP3    H229176   1.037   7.871   5.101
 9752TIP3   OH229177   1.098   7.520   3.340
 9752TIP3    H129178   1.154   7.489   3.413
 9752TIP3    H229179   1.165   7.525   3.268
 9753TIP3   OH229180   1.729   7.953   4.921
 9753TIP3    H129181   1.688   7.972   4.834
 9753TIP3    H229182   1.760   7.861   4.912
 9754TIP3   OH229183   1.601   7.715   3.147
 9754TIP3    H129184   1.610   7.728   3.244
 9754TIP3    H229185   1.604   7.617   3.142
 9755TIP3   OH229186   2.219   7.961   4.526
 9755TIP3    H129187   2.296   8.003   4.483
 9755TIP3    H229188   2.151   8.029   4.510
 9756TIP3   OH229189   1.244   7.596   5.127
 9756TIP3    H129190   1.325   7.549   5.108
 9756TIP3    H229191   1.265   7.635   5.214
 9757TIP3   OH229192   1.305   7.423   3.561
 9757TIP3    H129193   1.281   7.380   3.645
 9757TIP3    H229194   1.343   7.349   3.510
 9758TIP3   OH229195   1.567   7.477   4.778
 9758TIP3    H129196   1.497   7.545   4.788
 9758TIP3    H229197   1.625   7.518   4.709
 9759TIP3   OH229198   1.406   7.215   3.403
 9759TIP3    H129199   1.382   7.221   3.309
 9759TIP3    H229200   1.504   7.219   3.397
 9760TIP3   OH229201   2.090   7.887   4.924
 9760TIP3    H129202   2.174   7.869   4.879
 9760TIP3    H229203   2.091   7.822   4.996
 9761TIP3   OH229204   2.229   7.547   3.066
 9761TIP3    H129205   2.208   7.501   2.982
 9761TIP3    H229206   2.195   7.636   3.043
 9762TIP3   OH229207   1.695   7.275   4.917
 9762TIP3    H129208   1.701   7.195   4.861
 9762TIP3    H229209   1.653   7.340   4.856
 9763TIP3   OH229210   1.701   7.061   4.726
 9763TIP3    H129211   1.731   7.104   4.644
 9763TIP3    H229212   1.609   7.037   4.705
 9764TIP3   OH229213   1.726   7.594   4.596
 9764TIP3    H129214   1.813   7.607   4.554
 9764TIP3    H229215   1.672   7.663   4.552
 9765TIP3   OH229216   2.310   7.564   4.978
 9765TIP3    H129217   2.361   7.482   4.989
 9765TIP3    H229218   2.378   7.625   4.945
 9766TIP3   OH229219   2.351   7.816   4.711
 9766TIP3    H129220   2.293   7.870   4.653
 9766TIP3    H229221   2.439   7.838   4.673
 9767TIP3   OH229222   1.572   7.389   5.145
 9767TIP3    H129223   1.505   7.320   5.161
 9767TIP3    H229224   1.610   7.360   5.060
 9768TIP3   OH229225   1.834   6.825   4.790
 9768TIP3    H129226   1.785   6.907   4.770
 9768TIP3    H229227   1.765   6.756   4.780
 9769TIP3   OH229228   1.959   7.330   5.007
 9769TIP3    H129229   1.954   7.319   5.104
 9769TIP3    H229230   1.868   7.305   4.982
 9770TIP3   OH229231   2.197   7.278   4.861
 9770TIP3    H129232   2.124   7.281   4.925
 9770TIP3    H229233   2.273   7.249   4.916
 9771TIP3   OH229234   2.421   7.218   5.012
 9771TIP3    H129235   2.438   7.123   5.030
 9771TIP3    H229236   2.422   7.258   5.101
 9772TIP3   OH229237   1.413   7.168   5.199
 9772TIP3    H129238   1.424   7.076   5.169
 9772TIP3    H229239   1.450   7.161   5.290
 9773TIP3   OH229240   1.926   6.834   5.048
 9773TIP3    H129241   1.996   6.765   5.044
 9773TIP3    H229242   1.889   6.827   4.958
 9774TIP3   OH229243   1.992   7.050   5.208
 9774TIP3    H129244   1.972   6.979   5.144
 9774TIP3    H229245   1.914   7.108   5.201
 9775TIP3   OH229246   0.695   7.663   3.520
 9775TIP3    H129247   0.790   7.685   3.511
 9775TIP3    H229248   0.692   7.574   3.480
 9776TIP3   OH229249   0.754   8.113   4.096
 9776TIP3    H129250   0.721   8.053   4.163
 9776TIP3    H229251   0.799   8.179   4.152
 9777TIP3   OH229252   2.463   8.508   3.949
 9777TIP3    H129253   2.497   8.564   4.021
 9777TIP3    H229254   2.508   8.547   3.872
 9778TIP3   OH229255   2.531   8.513   4.232
 9778TIP3    H129256   2.474   8.436   4.212
 9778TIP3    H229257   2.594   8.472   4.293
 9779TIP3   OH229258   2.542   8.215   4.776
 9779TIP3    H129259   2.470   8.227   4.841
 9779TIP3    H229260   2.588   8.302   4.783
 9780TIP3   OH229261   2.363   7.733   3.399
 9780TIP3    H129262   2.429   7.799   3.369
 9780TIP3    H229263   2.407   7.696   3.478
 9781TIP3   OH229264   2.491   7.602   3.602
 9781TIP3    H129265   2.425   7.561   3.663
 9781TIP3    H229266   2.556   7.640   3.665
 9782TIP3   OH229267   2.543   7.990   4.035
 9782TIP3    H129268   2.597   7.928   3.984
 9782TIP3    H229269   2.545   8.071   3.979
 9783TIP3   OH229270   2.381   8.273   4.220
 9783TIP3    H129271   2.312   8.325   4.267
 9783TIP3    H229272   2.329   8.229   4.150
 9784TIP3   OH229273   2.430   7.509   3.249
 9784TIP3    H129274   2.358   7.512   3.181
 9784TIP3    H229275   2.402   7.585   3.305
 9785TIP3   OH229276   2.302   7.183   3.202
 9785TIP3    H129277   2.255   7.221   3.127
 9785TIP3    H229278   2.276   7.088   3.194
 9786TIP3   OH229279   2.304   7.459   3.749
 9786TIP3    H129280   2.314   7.362   3.744
 9786TIP3    H229281   2.291   7.473   3.846
 9787TIP3   OH229282   0.933   7.532   4.496
 9787TIP3    H129283   0.931   7.508   4.401
 9787TIP3    H229284   1.031   7.533   4.512
 9788TIP3   OH229285   2.594   7.883   4.605
 9788TIP3    H129286   2.667   7.818   4.597
 9788TIP3    H229287   2.622   7.953   4.544
 9789TIP3   OH229288   2.779   7.688   4.621
 9789TIP3    H129289   2.706   7.638   4.663
 9789TIP3    H229290   2.853   7.626   4.636
 9790TIP3   OH229291   2.244   6.917   3.188
 9790TIP3    H129292   2.321   6.888   3.241
 9790TIP3    H229293   2.174   6.855   3.214
 9791TIP3   OH229294   2.300   7.173   3.644
 9791TIP3    H129295   2.341   7.084   3.659
 9791TIP3    H229296   2.360   7.206   3.575
 9792TIP3   OH229297   2.462   7.350   4.138
 9792TIP3    H129298   2.549   7.375   4.098
 9792TIP3    H229299   2.477   7.386   4.228
 9793TIP3   OH229300   2.531   7.492   4.370
 9793TIP3    H129301   2.454   7.527   4.419
 9793TIP3    H229302   2.565   7.573   4.325
 9794TIP3   OH229303   1.147   7.212   5.152
 9794TIP3    H129304   1.244   7.212   5.166
 9794TIP3    H229305   1.123   7.133   5.204
 9795TIP3   OH229306   2.970   7.080   4.922
 9795TIP3    H129307   3.039   7.019   4.891
 9795TIP3    H229308   2.955   7.138   4.845
 9796TIP3   OH229309   2.410   6.925   3.682
 9796TIP3    H129310   2.460   6.909   3.765
 9796TIP3    H229311   2.351   6.847   3.681
 9797TIP3   OH229312   0.917   7.173   4.582
 9797TIP3    H129313   0.960   7.190   4.495
 9797TIP3    H229314   0.930   7.258   4.627
 9798TIP3   OH229315   2.855   7.228   4.724
 9798TIP3    H129316   2.770   7.265   4.752
 9798TIP3    H229317   2.825   7.151   4.672
 9799TIP3   OH229318   2.490   6.862   3.311
 9799TIP3    H129319   2.531   6.787   3.263
 9799TIP3    H229320   2.561   6.929   3.308
 9800TIP3   OH229321   0.889   6.685   4.077
 9800TIP3    H129322   0.794   6.682   4.097
 9800TIP3    H229323   0.892   6.748   4.002
 9801TIP3   OH229324   2.119   8.368   3.610
 9801TIP3    H129325   2.167   8.321   3.540
 9801TIP3    H229326   2.187   8.430   3.640
 9802TIP3   OH229327   1.117   6.772   4.886
 9802TIP3    H129328   1.071   6.761   4.971
 9802TIP3    H229329   1.044   6.801   4.829
 9803TIP3   OH229330   1.184   8.142   4.976
 9803TIP3    H129331   1.088   8.136   4.960
 9803TIP3    H229332   1.188   8.168   5.069
 9804TIP3   OH229333   1.329   8.224   4.514
 9804TIP3    H129334   1.290   8.304   4.471
 9804TIP3    H229335   1.415   8.227   4.468
 9805TIP3   OH229336   1.815   8.454   4.626
 9805TIP3    H129337   1.815   8.451   4.724
 9805TIP3    H229338   1.880   8.523   4.613
 9806TIP3   OH229339   2.754   6.986   4.611
 9806TIP3    H129340   2.663   6.978   4.578
 9806TIP3    H229341   2.786   6.893   4.601
 9807TIP3   OH229342   1.920   8.438   4.227
 9807TIP3    H129343   1.833   8.478   4.233
 9807TIP3    H229344   1.977   8.513   4.249
 9808TIP3   OH229345   0.898   8.240   4.298
 9808TIP3    H129346   0.938   8.227   4.387
 9808TIP3    H229347   0.973   8.276   4.249
 9809TIP3   OH229348   1.119   8.142   4.125
 9809TIP3    H129349   1.125   8.067   4.188
 9809TIP3    H229350   1.213   8.172   4.124
 9810TIP3   OH229351   1.372   8.228   4.134
 9810TIP3    H129352   1.424   8.150   4.160
 9810TIP3    H229353   1.400   8.293   4.201
 9811TIP3   OH229354   1.951   6.898   4.219
 9811TIP3    H129355   1.914   6.828   4.276
 9811TIP3    H229356   2.031   6.855   4.183
 9812TIP3   OH229357   2.480   6.783   4.136
 9812TIP3    H129358   2.518   6.833   4.060
 9812TIP3    H229359   2.385   6.800   4.127
 9813TIP3   OH229360   2.575   6.883   3.899
 9813TIP3    H129361   2.648   6.830   3.860
 9813TIP3    H229362   2.610   6.974   3.883
 9814TIP3   OH229363   1.207   6.611   4.253
 9814TIP3    H129364   1.115   6.579   4.246
 9814TIP3    H229365   1.255   6.526   4.246
 9815TIP3   OH229366   0.992   6.479   3.894
 9815TIP3    H129367   1.024   6.536   3.822
 9815TIP3    H229368   0.962   6.544   3.960
 9816TIP3   OH229369   1.645   6.649   4.131
 9816TIP3    H129370   1.703   6.691   4.065
 9816TIP3    H229371   1.686   6.678   4.214
 9817TIP3   OH229372   2.192   6.788   4.110
 9817TIP3    H129373   2.202   6.748   4.023
 9817TIP3    H229374   2.181   6.708   4.167
 9818TIP3   OH229375   2.227   6.711   3.672
 9818TIP3    H129376   2.138   6.750   3.683
 9818TIP3    H229377   2.215   6.626   3.719
 9819TIP3   OH229378   0.708   7.980   3.701
 9819TIP3    H129379   0.635   7.947   3.649
 9819TIP3    H229380   0.709   8.074   3.673
 9820TIP3   OH229381   1.111   6.641   3.654
 9820TIP3    H129382   1.161   6.577   3.601
 9820TIP3    H229383   1.183   6.695   3.692
 9821TIP3   OH229384   1.622   6.815   3.756
 9821TIP3    H129385   1.684   6.767   3.814
 9821TIP3    H229386   1.645   6.907   3.782
 9822TIP3   OH229387   1.355   8.225   3.258
 9822TIP3    H129388   1.421   8.286   3.293
 9822TIP3    H229389   1.404   8.154   3.212
 9823TIP3   OH229390   2.213   8.335   3.345
 9823TIP3    H129391   2.214   8.236   3.339
 9823TIP3    H229392   2.218   8.358   3.252
 9824TIP3   OH229393   1.416   6.890   5.132
 9824TIP3    H129394   1.378   6.823   5.191
 9824TIP3    H229395   1.510   6.889   5.162
 9825TIP3   OH229396   1.663   6.886   5.254
 9825TIP3    H129397   1.750   6.864   5.216
 9825TIP3    H229398   1.653   6.816   5.321
 9826TIP3   OH229399   0.797   8.029   3.331
 9826TIP3    H129400   0.796   8.106   3.388
 9826TIP3    H229401   0.891   8.022   3.305
 9827TIP3   OH229402   2.489   6.949   5.044
 9827TIP3    H129403   2.508   6.916   5.134
 9827TIP3    H229404   2.578   6.945   5.002
 9828TIP3   OH229405   2.447   8.510   4.526
 9828TIP3    H129406   2.376   8.461   4.478
 9828TIP3    H229407   2.408   8.598   4.531
 9829TIP3   OH229408   3.695   7.873   3.302
 9829TIP3    H129409   3.667   7.965   3.283
 9829TIP3    H229410   3.617   7.824   3.271
 9830TIP3   OH229411   3.692   7.873   3.683
 9830TIP3    H129412   3.725   7.846   3.770
 9830TIP3    H229413   3.650   7.791   3.651
 9831TIP3   OH229414   2.993   7.769   4.047
 9831TIP3    H129415   3.023   7.700   4.110
 9831TIP3    H229416   3.070   7.828   4.047
 9832TIP3   OH229417   3.935   8.177   3.363
 9832TIP3    H129418   3.923   8.108   3.429
 9832TIP3    H229419   3.966   8.251   3.418
 9833TIP3   OH229420   2.962   8.180   3.774
 9833TIP3    H129421   2.953   8.083   3.777
 9833TIP3    H229422   3.059   8.188   3.767
 9834TIP3   OH229423   2.672   7.382   3.557
 9834TIP3    H129424   2.624   7.465   3.574
 9834TIP3    H229425   2.600   7.327   3.521
 9835TIP3   OH229426   2.729   7.668   3.729
 9835TIP3    H129427   2.778   7.591   3.766
 9835TIP3    H229428   2.790   7.700   3.661
 9836TIP3   OH229429   3.582   8.619   3.411
 9836TIP3    H129430   3.630   8.570   3.342
 9836TIP3    H229431   3.597   8.563   3.488
 9837TIP3   OH229432   3.493   8.100   3.730
 9837TIP3    H129433   3.532   8.022   3.686
 9837TIP3    H229434   3.576   8.145   3.754
 9838TIP3   OH229435   4.505   7.420   3.729
 9838TIP3    H129436   4.534   7.503   3.773
 9838TIP3    H229437   4.523   7.442   3.636
 9839TIP3   OH229438   3.905   7.602   3.764
 9839TIP3    H129439   3.946   7.516   3.785
 9839TIP3    H229440   3.873   7.585   3.673
 9840TIP3   OH229441   3.242   7.260   3.728
 9840TIP3    H129442   3.221   7.333   3.666
 9840TIP3    H229443   3.194   7.186   3.685
 9841TIP3   OH229444   3.936   7.352   3.351
 9841TIP3    H129445   4.007   7.334   3.417
 9841TIP3    H229446   3.990   7.387   3.278
 9842TIP3   OH229447   2.875   7.463   3.835
 9842TIP3    H129448   2.958   7.444   3.884
 9842TIP3    H229449   2.889   7.406   3.756
 9843TIP3   OH229450   3.317   7.660   3.627
 9843TIP3    H129451   3.410   7.634   3.642
 9843TIP3    H229452   3.278   7.576   3.596
 9844TIP3   OH229453   4.579   7.629   3.898
 9844TIP3    H129454   4.495   7.675   3.878
 9844TIP3    H229455   4.590   7.652   3.992
 9845TIP3   OH229456   3.239   7.244   4.163
 9845TIP3    H129457   3.178   7.281   4.097
 9845TIP3    H229458   3.188   7.260   4.245
 9846TIP3   OH229459   3.590   8.096   3.169
 9846TIP3    H129460   3.541   8.072   3.089
 9846TIP3    H229461   3.545   8.180   3.192
 9847TIP3   OH229462   3.347   8.019   3.959
 9847TIP3    H129463   3.283   8.083   3.998
 9847TIP3    H229464   3.386   8.071   3.887
 9848TIP3   OH229465   4.147   7.353   3.522
 9848TIP3    H129466   4.133   7.305   3.605
 9848TIP3    H229467   4.199   7.431   3.552
 9849TIP3   OH229468   3.108   7.359   3.947
 9849TIP3    H129469   3.171   7.431   3.972
 9849TIP3    H229470   3.158   7.318   3.873
 9850TIP3   OH229471   3.173   8.209   4.057
 9850TIP3    H129472   3.147   8.296   4.021
 9850TIP3    H229473   3.094   8.191   4.114
 9851TIP3   OH229474   2.568   7.899   3.292
 9851TIP3    H129475   2.525   7.937   3.213
 9851TIP3    H229476   2.598   7.979   3.339
 9852TIP3   OH229477   3.999   8.402   3.528
 9852TIP3    H129478   3.909   8.401   3.567
 9852TIP3    H229479   3.997   8.489   3.483
 9853TIP3   OH229480   4.297   7.321   3.895
 9853TIP3    H129481   4.209   7.349   3.865
 9853TIP3    H229482   4.356   7.353   3.824
 9854TIP3   OH229483   3.595   6.963   3.877
 9854TIP3    H129484   3.581   6.868   3.895
 9854TIP3    H229485   3.517   7.001   3.924
 9855TIP3   OH229486   3.720   8.454   3.228
 9855TIP3    H129487   3.757   8.364   3.214
 9855TIP3    H229488   3.794   8.505   3.193
 9856TIP3   OH229489   3.856   8.245   3.109
 9856TIP3    H129490   3.812   8.166   3.075
 9856TIP3    H229491   3.894   8.211   3.193
 9857TIP3   OH229492   4.233   8.327   3.880
 9857TIP3    H129493   4.223   8.247   3.822
 9857TIP3    H229494   4.217   8.399   3.815
 9858TIP3   OH229495   3.524   7.725   3.133
 9858TIP3    H129496   3.444   7.777   3.112
 9858TIP3    H229497   3.570   7.722   3.047
 9859TIP3   OH229498   3.482   7.511   2.848
 9859TIP3    H129499   3.549   7.561   2.898
 9859TIP3    H229500   3.540   7.446   2.802
 9860TIP3   OH229501   4.428   7.968   3.720
 9860TIP3    H129502   4.345   8.019   3.726
 9860TIP3    H229503   4.458   7.994   3.630
 9861TIP3   OH229504   3.873   7.808   3.104
 9861TIP3    H129505   3.818   7.831   3.183
 9861TIP3    H229506   3.956   7.783   3.149
 9862TIP3   OH229507   4.107   7.848   4.016
 9862TIP3    H129508   4.105   7.931   4.067
 9862TIP3    H229509   4.020   7.852   3.971
 9863TIP3   OH229510   3.106   7.806   3.521
 9863TIP3    H129511   3.064   7.748   3.454
 9863TIP3    H229512   3.182   7.752   3.550
 9864TIP3   OH229513   3.238   8.214   3.670
 9864TIP3    H129514   3.215   8.170   3.587
 9864TIP3    H229515   3.327   8.179   3.687
 9865TIP3   OH229516   3.243   7.776   3.876
 9865TIP3    H129517   3.275   7.755   3.785
 9865TIP3    H229518   3.285   7.862   3.895
 9866TIP3   OH229519   3.758   8.412   3.649
 9866TIP3    H129520   3.751   8.494   3.702
 9866TIP3    H229521   3.748   8.341   3.715
 9867TIP3   OH229522   3.377   8.334   4.200
 9867TIP3    H129523   3.318   8.396   4.249
 9867TIP3    H229524   3.311   8.281   4.151
 9868TIP3   OH229525   3.713   7.666   2.930
 9868TIP3    H129526   3.771   7.726   2.982
 9868TIP3    H229527   3.740   7.689   2.838
 9869TIP3   OH229528   3.132   7.890   4.298
 9869TIP3    H129529   3.137   7.976   4.345
 9869TIP3    H229530   3.037   7.870   4.311
 9870TIP3   OH229531   3.462   8.340   3.196
 9870TIP3    H129532   3.532   8.397   3.233
 9870TIP3    H229533   3.387   8.400   3.186
 9871TIP3   OH229534   3.173   8.507   4.291
 9871TIP3    H129535   3.136   8.499   4.201
 9871TIP3    H229536   3.101   8.471   4.347
 9872TIP3   OH229537   4.229   6.908   2.980
 9872TIP3    H129538   4.146   6.926   3.029
 9872TIP3    H229539   4.240   6.991   2.930
 9873TIP3   OH229540   2.972   7.649   3.324
 9873TIP3    H129541   2.904   7.692   3.269
 9873TIP3    H229542   2.931   7.563   3.341
 9874TIP3   OH229543   4.021   8.262   2.519
 9874TIP3    H129544   4.026   8.358   2.500
 9874TIP3    H229545   4.116   8.237   2.513
 9875TIP3   OH229546   2.751   8.032   4.234
 9875TIP3    H129547   2.686   8.010   4.165
 9875TIP3    H229548   2.789   7.945   4.258
 9876TIP3   OH229549   2.605   8.218   3.884
 9876TIP3    H129550   2.695   8.229   3.849
 9876TIP3    H229551   2.581   8.309   3.907
 9877TIP3   OH229552   4.478   8.665   3.927
 9877TIP3    H129553   4.474   8.570   3.948
 9877TIP3    H229554   4.398   8.698   3.975
 9878TIP3   OH229555   3.577   8.446   4.050
 9878TIP3    H129556   3.585   8.539   4.079
 9878TIP3    H229557   3.502   8.414   4.105
 9879TIP3   OH229558   2.777   8.414   3.388
 9879TIP3    H129559   2.826   8.419   3.473
 9879TIP3    H229560   2.714   8.343   3.410
 9880TIP3   OH229561   3.733   8.494   2.679
 9880TIP3    H129562   3.685   8.434   2.622
 9880TIP3    H229563   3.686   8.485   2.764
 9881TIP3   OH229564   3.582   8.486   2.918
 9881TIP3    H129565   3.504   8.525   2.961
 9881TIP3    H229566   3.620   8.435   2.990
 9882TIP3   OH229567   4.361   7.808   4.196
 9882TIP3    H129568   4.279   7.821   4.148
 9882TIP3    H229569   4.375   7.711   4.186
 9883TIP3   OH229570   2.955   8.215   4.220
 9883TIP3    H129571   3.002   8.206   4.306
 9883TIP3    H229572   2.883   8.149   4.230
 9884TIP3   OH229573   3.356   7.039   4.005
 9884TIP3    H129574   3.267   7.008   3.978
 9884TIP3    H229575   3.330   7.120   4.053
 9885TIP3   OH229576   3.889   7.154   4.200
 9885TIP3    H129577   3.957   7.126   4.265
 9885TIP3    H229578   3.805   7.134   4.247
 9886TIP3   OH229579   4.131   7.584   4.120
 9886TIP3    H129580   4.079   7.580   4.204
 9886TIP3    H229581   4.104   7.671   4.084
 9887TIP3   OH229582   3.788   7.714   2.675
 9887TIP3    H129583   3.755   7.686   2.587
 9887TIP3    H229584   3.869   7.762   2.651
 9888TIP3   OH229585   3.501   7.089   2.977
 9888TIP3    H129586   3.468   7.085   3.069
 9888TIP3    H229587   3.463   7.006   2.943
 9889TIP3   OH229588   3.287   7.554   4.025
 9889TIP3    H129589   3.237   7.576   4.106
 9889TIP3    H229590   3.272   7.635   3.971
 9890TIP3   OH229591   3.171   7.441   3.538
 9890TIP3    H129592   3.079   7.414   3.557
 9890TIP3    H229593   3.184   7.400   3.450
 9891TIP3   OH229594   3.663   7.527   3.266
 9891TIP3    H129595   3.610   7.598   3.225
 9891TIP3    H229596   3.717   7.495   3.191
 9892TIP3   OH229597   3.836   7.805   4.352
 9892TIP3    H129598   3.815   7.732   4.415
 9892TIP3    H229599   3.930   7.820   4.374
 9893TIP3   OH229600   3.820   7.555   3.505
 9893TIP3    H129601   3.759   7.584   3.435
 9893TIP3    H229602   3.853   7.473   3.463
 9894TIP3   OH229603   3.106   7.583   4.233
 9894TIP3    H129604   3.133   7.646   4.301
 9894TIP3    H229605   3.096   7.501   4.285
 9895TIP3   OH229606   3.155   7.061   2.942
 9895TIP3    H129607   3.150   7.057   3.040
 9895TIP3    H229608   3.076   7.114   2.922
 9896TIP3   OH229609   2.699   7.106   3.813
 9896TIP3    H129610   2.775   7.137   3.867
 9896TIP3    H229611   2.741   7.072   3.733
 9897TIP3   OH229612   2.673   7.086   3.332
 9897TIP3    H129613   2.721   7.123   3.255
 9897TIP3    H229614   2.613   7.160   3.352
 9898TIP3   OH229615   3.829   7.801   3.928
 9898TIP3    H129616   3.863   7.729   3.870
 9898TIP3    H229617   3.800   7.749   4.005
 9899TIP3   OH229618   3.499   7.265   3.600
 9899TIP3    H129619   3.416   7.261   3.652
 9899TIP3    H229620   3.566   7.261   3.670
 9900TIP3   OH229621   2.934   7.318   3.608
 9900TIP3    H129622   2.839   7.325   3.581
 9900TIP3    H229623   2.956   7.226   3.586
 9901TIP3   OH229624   3.202   7.315   3.297
 9901TIP3    H129625   3.297   7.329   3.276
 9901TIP3    H229626   3.156   7.336   3.213
 9902TIP3   OH229627   3.990   7.338   3.800
 9902TIP3    H129628   3.958   7.351   3.892
 9902TIP3    H229629   3.924   7.276   3.766
 9903TIP3   OH229630   3.043   7.348   3.075
 9903TIP3    H129631   2.970   7.305   3.028
 9903TIP3    H229632   3.095   7.384   3.000
 9904TIP3   OH229633   3.121   8.131   4.443
 9904TIP3    H129634   3.199   8.166   4.491
 9904TIP3    H229635   3.053   8.141   4.512
 9905TIP3   OH229636   3.581   7.591   3.698
 9905TIP3    H129637   3.654   7.550   3.649
 9905TIP3    H229638   3.588   7.549   3.786
 9906TIP3   OH229639   3.105   7.078   3.576
 9906TIP3    H129640   3.070   7.000   3.623
 9906TIP3    H229641   3.158   7.037   3.506
 9907TIP3   OH229642   3.559   7.489   3.985
 9907TIP3    H129643   3.469   7.524   4.001
 9907TIP3    H229644   3.615   7.549   4.037
 9908TIP3   OH229645   3.296   7.878   3.082
 9908TIP3    H129646   3.223   7.812   3.071
 9908TIP3    H229647   3.277   7.912   3.173
 9909TIP3   OH229648   4.196   8.113   3.712
 9909TIP3    H129649   4.220   8.164   3.632
 9909TIP3    H229650   4.110   8.072   3.686
 9910TIP3   OH229651   3.752   7.192   2.941
 9910TIP3    H129652   3.656   7.173   2.952
 9910TIP3    H229653   3.761   7.285   2.969
 9911TIP3   OH229654   3.702   8.196   4.078
 9911TIP3    H129655   3.717   8.173   4.171
 9911TIP3    H229656   3.653   8.280   4.084
 9912TIP3   OH229657   3.823   7.438   3.048
 9912TIP3    H129658   3.919   7.443   3.065
 9912TIP3    H229659   3.805   7.519   2.996
 9913TIP3   OH229660   2.988   7.901   3.758
 9913TIP3    H129661   3.026   7.871   3.673
 9913TIP3    H229662   3.027   7.838   3.821
 9914TIP3   OH229663   3.439   8.026   2.901
 9914TIP3    H129664   3.392   8.112   2.909
 9914TIP3    H229665   3.386   7.970   2.962
 9915TIP3   OH229666   2.869   7.821   4.371
 9915TIP3    H129667   2.890   7.808   4.466
 9915TIP3    H229668   2.800   7.753   4.358
 9916TIP3   OH229669   3.594   7.935   4.390
 9916TIP3    H129670   3.534   7.874   4.344
 9916TIP3    H229671   3.681   7.900   4.362
 9917TIP3   OH229672   3.852   8.470   3.965
 9917TIP3    H129673   3.759   8.448   3.979
 9917TIP3    H229674   3.875   8.508   4.053
 9918TIP3   OH229675   4.266   7.527   2.883
 9918TIP3    H129676   4.204   7.483   2.821
 9918TIP3    H229677   4.262   7.617   2.844
 9919TIP3   OH229678   4.483   8.388   3.965
 9919TIP3    H129679   4.385   8.380   3.959
 9919TIP3    H229680   4.507   8.355   3.875
 9920TIP3   OH229681   3.994   8.324   2.798
 9920TIP3    H129682   3.941   8.270   2.858
 9920TIP3    H229683   3.975   8.286   2.711
 9921TIP3   OH229684   3.961   7.976   3.631
 9921TIP3    H129685   3.867   7.951   3.643
 9921TIP3    H229686   3.994   7.897   3.585
 9922TIP3   OH229687   3.088   8.198   3.383
 9922TIP3    H129688   3.084   8.281   3.332
 9922TIP3    H229689   2.995   8.183   3.402
 9923TIP3   OH229690   2.651   7.508   3.085
 9923TIP3    H129691   2.697   7.592   3.106
 9923TIP3    H229692   2.575   7.513   3.147
 9924TIP3   OH229693   3.229   7.969   3.326
 9924TIP3    H129694   3.190   8.057   3.345
 9924TIP3    H229695   3.193   7.917   3.401
 9925TIP3   OH229696   3.345   8.540   3.859
 9925TIP3    H129697   3.361   8.629   3.821
 9925TIP3    H229698   3.433   8.514   3.892
 9926TIP3   OH229699   3.013   8.433   3.247
 9926TIP3    H129700   2.923   8.425   3.285
 9926TIP3    H229701   3.023   8.529   3.246
 9927TIP3   OH229702   3.748   8.181   3.811
 9927TIP3    H129703   3.737   8.178   3.909
 9927TIP3    H229704   3.827   8.127   3.798
 9928TIP3   OH229705   3.720   8.073   2.695
 9928TIP3    H129706   3.774   8.047   2.773
 9928TIP3    H229707   3.632   8.047   2.727
 9929TIP3   OH229708   4.015   8.687   3.864
 9929TIP3    H129709   3.950   8.618   3.889
 9929TIP3    H229710   3.956   8.761   3.839
 9930TIP3   OH229711   4.047   8.531   2.494
 9930TIP3    H129712   4.116   8.599   2.489
 9930TIP3    H229713   3.968   8.584   2.511
 9931TIP3   OH229714   3.080   7.326   4.380
 9931TIP3    H129715   2.984   7.329   4.395
 9931TIP3    H229716   3.110   7.267   4.451
 9932TIP3   OH229717   3.881   8.007   2.909
 9932TIP3    H129718   3.871   7.942   2.982
 9932TIP3    H229719   3.978   8.006   2.899
 9933TIP3   OH229720   2.823   8.428   4.026
 9933TIP3    H129721   2.848   8.336   4.044
 9933TIP3    H229722   2.830   8.466   4.114
 9934TIP3   OH229723   3.083   8.057   2.691
 9934TIP3    H129724   3.100   7.965   2.665
 9934TIP3    H229725   3.069   8.046   2.788
 9935TIP3   OH229726   3.034   8.059   2.962
 9935TIP3    H129727   3.102   8.031   3.025
 9935TIP3    H229728   3.036   8.157   2.974
 9936TIP3   OH229729   2.767   7.753   3.168
 9936TIP3    H129730   2.701   7.797   3.226
 9936TIP3    H229731   2.780   7.823   3.101
 9937TIP3   OH229732   3.918   7.389   4.059
 9937TIP3    H129733   3.996   7.427   4.103
 9937TIP3    H229734   3.902   7.309   4.114
 9938TIP3   OH229735   3.796   7.142   3.225
 9938TIP3    H129736   3.784   7.165   3.132
 9938TIP3    H229737   3.835   7.225   3.262
 9939TIP3   OH229738   3.296   8.254   2.919
 9939TIP3    H129739   3.210   8.282   2.954
 9939TIP3    H229740   3.315   8.329   2.860
 9940TIP3   OH229741   3.486   7.322   3.328
 9940TIP3    H129742   3.551   7.394   3.312
 9940TIP3    H229743   3.490   7.314   3.426
 9941TIP3   OH229744   3.756   7.641   4.135
 9941TIP3    H129745   3.775   7.695   4.215
 9941TIP3    H229746   3.810   7.561   4.151
 9942TIP3   OH229747   3.630   7.049   3.431
 9942TIP3    H129748   3.625   7.126   3.491
 9942TIP3    H229749   3.690   7.084   3.361
 9943TIP3   OH229750   3.038   8.328   2.987
 9943TIP3    H129751   3.022   8.398   2.922
 9943TIP3    H229752   3.025   8.376   3.072
 9944TIP3   OH229753   3.142   7.047   3.218
 9944TIP3    H129754   3.141   7.137   3.257
 9944TIP3    H229755   3.237   7.027   3.228
 9945TIP3   OH229756   4.397   7.540   4.114
 9945TIP3    H129757   4.299   7.539   4.125
 9945TIP3    H229758   4.404   7.496   4.028
 9946TIP3   OH229759   4.047   7.734   3.504
 9946TIP3    H129760   3.971   7.675   3.517
 9946TIP3    H229761   4.118   7.687   3.552
 9947TIP3   OH229762   2.757   7.961   2.976
 9947TIP3    H129763   2.818   8.036   2.985
 9947TIP3    H229764   2.806   7.909   2.908
 9948TIP3   OH229765   2.704   7.239   3.105
 9948TIP3    H129766   2.705   7.337   3.102
 9948TIP3    H229767   2.615   7.220   3.073
 9949TIP3   OH229768   4.011   8.658   3.442
 9949TIP3    H129769   3.977   8.744   3.410
 9949TIP3    H229770   4.107   8.681   3.446
 9950TIP3   OH229771   3.090   6.959   3.981
 9950TIP3    H129772   3.060   6.924   3.895
 9950TIP3    H229773   3.081   6.881   4.040
 9951TIP3   OH229774   2.642   8.152   3.399
 9951TIP3    H129775   2.571   8.195   3.450
 9951TIP3    H229776   2.620   8.183   3.309
 9952TIP3   OH229777   2.862   8.656   4.403
 9952TIP3    H129778   2.929   8.676   4.472
 9952TIP3    H229779   2.826   8.572   4.435
 9953TIP3   OH229780   3.289   8.691   4.469
 9953TIP3    H129781   3.372   8.643   4.483
 9953TIP3    H229782   3.247   8.635   4.401
 9954TIP3   OH229783   3.248   8.259   2.602
 9954TIP3    H129784   3.196   8.185   2.643
 9954TIP3    H229785   3.325   8.209   2.568
 9955TIP3   OH229786   3.896   8.583   4.207
 9955TIP3    H129787   3.890   8.515   4.279
 9955TIP3    H229788   3.979   8.631   4.232
 9956TIP3   OH229789   3.682   8.277   2.496
 9956TIP3    H129790   3.720   8.222   2.568
 9956TIP3    H229791   3.752   8.274   2.428
 9957TIP3   OH229792   2.917   8.123   4.634
 9957TIP3    H129793   2.935   8.028   4.638
 9957TIP3    H229794   2.830   8.126   4.590
 9958TIP3   OH229795   2.895   7.778   2.825
 9958TIP3    H129796   2.948   7.744   2.900
 9958TIP3    H229797   2.964   7.782   2.756
 9959TIP3   OH229798   3.527   8.210   4.406
 9959TIP3    H129799   3.482   8.225   4.320
 9959TIP3    H229800   3.556   8.117   4.400
 9960TIP3   OH229801   3.399   7.973   2.633
 9960TIP3    H129802   3.405   7.985   2.730
 9960TIP3    H229803   3.401   7.875   2.628
 9961TIP3   OH229804   4.017   8.216   4.014
 9961TIP3    H129805   4.092   8.261   3.970
 9961TIP3    H229806   3.945   8.278   3.998
 9962TIP3   OH229807   3.036   7.856   4.615
 9962TIP3    H129808   3.112   7.801   4.596
 9962TIP3    H229809   3.061   7.893   4.703
 9963TIP3   OH229810   3.103   7.680   3.049
 9963TIP3    H129811   3.075   7.640   3.133
 9963TIP3    H229812   3.139   7.603   3.000
 9964TIP3   OH229813   3.371   7.744   4.277
 9964TIP3    H129814   3.293   7.803   4.278
 9964TIP3    H229815   3.421   7.778   4.200
 9965TIP3   OH229816   3.202   7.472   2.889
 9965TIP3    H129817   3.177   7.477   2.795
 9965TIP3    H229818   3.300   7.476   2.883
 9966TIP3   OH229819   3.889   8.146   4.412
 9966TIP3    H129820   3.970   8.122   4.365
 9966TIP3    H229821   3.885   8.079   4.482
 9967TIP3   OH229822   4.026   7.804   2.552
 9967TIP3    H129823   4.004   7.757   2.469
 9967TIP3    H229824   3.991   7.893   2.529
 9968TIP3   OH229825   3.495   7.532   4.403
 9968TIP3    H129826   3.494   7.452   4.347
 9968TIP3    H229827   3.450   7.598   4.345
 9969TIP3   OH229828   3.497   7.319   4.210
 9969TIP3    H129829   3.524   7.359   4.125
 9969TIP3    H229830   3.403   7.296   4.192
 9970TIP3   OH229831   3.525   7.853   4.083
 9970TIP3    H129832   3.608   7.863   4.035
 9970TIP3    H229833   3.468   7.920   4.039
 9971TIP3   OH229834   4.106   7.821   4.464
 9971TIP3    H129835   4.155   7.738   4.477
 9971TIP3    H229836   4.174   7.880   4.431
 9972TIP3   OH229837   4.149   8.072   4.200
 9972TIP3    H129838   4.090   8.126   4.142
 9972TIP3    H229839   4.236   8.095   4.161
 9973TIP3   OH229840   3.372   7.645   4.633
 9973TIP3    H129841   3.303   7.576   4.648
 9973TIP3    H229842   3.406   7.618   4.546
 9974TIP3   OH229843   3.629   7.081   4.275
 9974TIP3    H129844   3.579   7.163   4.255
 9974TIP3    H229845   3.560   7.013   4.266
 9975TIP3   OH229846   3.756   7.587   4.494
 9975TIP3    H129847   3.744   7.573   4.590
 9975TIP3    H229848   3.666   7.562   4.463
 9976TIP3   OH229849   3.994   7.534   4.348
 9976TIP3    H129850   3.919   7.537   4.411
 9976TIP3    H229851   4.068   7.504   4.405
 9977TIP3   OH229852   4.226   7.476   4.498
 9977TIP3    H129853   4.236   7.381   4.517
 9977TIP3    H229854   4.220   7.515   4.588
 9978TIP3   OH229855   3.212   7.425   4.685
 9978TIP3    H129856   3.217   7.333   4.653
 9978TIP3    H229857   3.249   7.413   4.775
 9979TIP3   OH229858   3.726   7.093   4.532
 9979TIP3    H129859   3.791   7.021   4.529
 9979TIP3    H229860   3.685   7.085   4.444
 9980TIP3   OH229861   3.791   7.308   4.692
 9980TIP3    H129862   3.769   7.236   4.629
 9980TIP3    H229863   3.712   7.366   4.687
 9981TIP3   OH229864   2.488   7.920   3.005
 9981TIP3    H129865   2.583   7.942   2.997
 9981TIP3    H229866   2.485   7.830   2.968
 9982TIP3   OH229867   2.541   8.375   3.590
 9982TIP3    H129868   2.515   8.307   3.653
 9982TIP3    H229869   2.587   8.437   3.650
 9983TIP3   OH229870   4.259   8.764   3.436
 9983TIP3    H129871   4.294   8.819   3.507
 9983TIP3    H229872   4.306   8.801   3.359
 9984TIP3   OH229873   4.324   8.771   3.718
 9984TIP3    H129874   4.268   8.694   3.698
 9984TIP3    H229875   4.389   8.729   3.778
 9985TIP3   OH229876   4.336   8.472   4.262
 9985TIP3    H129877   4.266   8.482   4.329
 9985TIP3    H229878   4.384   8.558   4.270
 9986TIP3   OH229879   4.160   7.990   2.886
 9986TIP3    H129880   4.226   8.055   2.857
 9986TIP3    H229881   4.203   7.952   2.965
 9987TIP3   OH229882   4.287   7.858   3.089
 9987TIP3    H129883   4.221   7.816   3.148
 9987TIP3    H229884   4.351   7.897   3.153
 9988TIP3   OH229885   4.339   8.248   3.522
 9988TIP3    H129886   4.393   8.186   3.469
 9988TIP3    H229887   4.339   8.327   3.465
 9989TIP3   OH229888   4.176   8.531   3.707
 9989TIP3    H129889   4.107   8.582   3.754
 9989TIP3    H229890   4.125   8.485   3.638
 9990TIP3   OH229891   4.226   7.766   2.735
 9990TIP3    H129892   4.155   7.769   2.668
 9990TIP3    H229893   4.198   7.841   2.792
 9991TIP3   OH229894   4.098   7.439   2.689
 9991TIP3    H129895   4.051   7.476   2.613
 9991TIP3    H229896   4.073   7.344   2.682
 9992TIP3   OH229897   4.102   7.715   3.236
 9992TIP3    H129898   4.108   7.618   3.230
 9992TIP3    H229899   4.087   7.729   3.332
 9993TIP3   OH229900   2.728   7.787   3.983
 9993TIP3    H129901   2.726   7.758   3.889
 9993TIP3    H229902   2.825   7.789   3.999
 9994TIP3   OH229903   4.392   8.140   4.092
 9994TIP3    H129904   4.465   8.075   4.083
 9994TIP3    H229905   4.420   8.212   4.033
 9995TIP3   OH229906   4.577   7.945   4.107
 9995TIP3    H129907   4.502   7.896   4.147
 9995TIP3    H229908   4.649   7.880   4.122
 9996TIP3   OH229909   4.040   7.174   2.675
 9996TIP3    H129910   4.114   7.142   2.731
 9996TIP3    H229911   3.967   7.114   2.699
 9997TIP3   OH229912   4.097   7.430   3.131
 9997TIP3    H129913   4.137   7.341   3.147
 9997TIP3    H229914   4.157   7.462   3.061
 9998TIP3   OH229915   4.260   7.605   3.626
 9998TIP3    H129916   4.346   7.631   3.586
 9998TIP3    H229917   4.272   7.642   3.715
 9999TIP3   OH229918   4.328   7.748   3.857
 9999TIP3    H129919   4.250   7.782   3.906
 9999TIP3    H229920   4.360   7.830   3.813
10000TIP3   OH229921   2.947   7.479   4.656
10000TIP3    H129922   3.045   7.470   4.659
10000TIP3    H229923   2.921   7.392   4.694
10001TIP3   OH229924   4.781   7.341   4.413
10001TIP3    H129925   4.840   7.275   4.371
10001TIP3    H229926   4.751   7.394   4.337
10002TIP3   OH229927   4.207   7.181   3.168
10002TIP3    H129928   4.254   7.165   3.252
10002TIP3    H229929   4.146   7.104   3.167
10003TIP3   OH229930   2.905   7.167   3.988
10003TIP3    H129931   2.967   7.092   3.998
10003TIP3    H229932   2.969   7.241   3.981
10004TIP3   OH229933   2.709   7.441   4.060
10004TIP3    H129934   2.759   7.437   3.976
10004TIP3    H229935   2.737   7.526   4.095
10005TIP3   OH229936   4.652   7.480   4.219
10005TIP3    H129937   4.567   7.522   4.244
10005TIP3    H229938   4.618   7.409   4.161
10006TIP3   OH229939   4.288   7.117   2.800
10006TIP3    H129940   4.325   7.043   2.748
10006TIP3    H229941   4.357   7.185   2.793
10007TIP3   OH229942   2.693   6.947   3.562
10007TIP3    H129943   2.600   6.941   3.588
10007TIP3    H229944   2.689   7.005   3.483
10008TIP3   OH229945   3.916   8.624   3.096
10008TIP3    H129946   3.965   8.577   3.026
10008TIP3    H229947   3.983   8.686   3.126
10009TIP3   OH229948   2.913   7.026   4.376
10009TIP3    H129949   2.863   7.020   4.459
10009TIP3    H229950   2.845   7.062   4.316
10010TIP3   OH229951   2.977   8.402   4.464
10010TIP3    H129952   2.883   8.388   4.443
10010TIP3    H229953   2.975   8.418   4.560
10011TIP3   OH229954   3.129   8.481   4.013
10011TIP3    H129955   3.057   8.513   3.956
10011TIP3    H229956   3.208   8.497   3.957
10012TIP3   OH229957   3.612   8.712   4.114
10012TIP3    H129958   3.606   8.711   4.211
10012TIP3    H229959   3.689   8.768   4.104
10013TIP3   OH229960   4.550   7.243   4.096
10013TIP3    H129961   4.458   7.237   4.064
10013TIP3    H229962   4.580   7.149   4.086
10014TIP3   OH229963   3.715   8.693   3.715
10014TIP3    H129964   3.627   8.731   3.709
10014TIP3    H229965   3.768   8.770   3.738
10015TIP3   OH229966   2.694   8.496   3.789
10015TIP3    H129967   2.739   8.480   3.875
10015TIP3    H229968   2.768   8.523   3.733
10016TIP3   OH229969   2.914   8.404   3.619
10016TIP3    H129970   2.917   8.323   3.676
10016TIP3    H229971   3.009   8.429   3.619
10017TIP3   OH229972   3.170   8.484   3.635
10017TIP3    H129973   3.209   8.394   3.634
10017TIP3    H229974   3.232   8.528   3.696
10018TIP3   OH229975   3.753   7.157   3.715
10018TIP3    H129976   3.710   7.089   3.769
10018TIP3    H229977   3.826   7.107   3.673
10019TIP3   OH229978   4.279   7.038   3.622
10019TIP3    H129979   4.313   7.090   3.546
10019TIP3    H229980   4.183   7.054   3.615
10020TIP3   OH229981   4.373   7.139   3.385
10020TIP3    H129982   4.446   7.088   3.345
10020TIP3    H229983   4.405   7.231   3.370
10021TIP3   OH229984   3.002   6.866   3.732
10021TIP3    H129985   2.910   6.833   3.735
10021TIP3    H229986   3.051   6.781   3.729
10022TIP3   OH229987   2.783   6.739   3.378
10022TIP3    H129988   2.819   6.796   3.308
10022TIP3    H229989   2.761   6.803   3.449
10023TIP3   OH229990   3.445   6.900   3.613
10023TIP3    H129991   3.505   6.949   3.554
10023TIP3    H229992   3.468   6.936   3.699
10024TIP3   OH229993   3.996   7.045   3.596
10024TIP3    H129994   3.991   7.006   3.508
10024TIP3    H229995   3.982   6.966   3.653
10025TIP3   OH229996   4.023   6.968   3.160
10025TIP3    H129997   3.935   7.008   3.171
10025TIP3    H229998   4.010   6.882   3.206
10026TIP3   OH229999   2.519   8.235   3.178
10026TIP3    H130000   2.438   8.197   3.142
10026TIP3    H230001   2.508   8.329   3.150
10027TIP3   OH230002   2.906   6.900   3.140
10027TIP3    H130003   2.954   6.833   3.088
10027TIP3    H230004   2.981   6.951   3.178
10028TIP3   OH230005   3.419   7.071   3.242
10028TIP3    H130006   3.477   7.022   3.302
10028TIP3    H230007   3.443   7.163   3.269
10029TIP3   OH230008   4.897  -0.086   4.474
10029TIP3    H130009   4.904   0.001   4.434
10029TIP3    H230010   4.910  -0.148   4.400
10030TIP3   OH230011   4.011   8.591   2.831
10030TIP3    H130012   4.011   8.493   2.825
10030TIP3    H230013   4.011   8.614   2.738
10031TIP3   OH230014   3.211   7.148   4.624
10031TIP3    H130015   3.175   7.077   4.680
10031TIP3    H230016   3.305   7.147   4.652
10032TIP3   OH230017   3.461   7.145   4.743
10032TIP3    H130018   3.545   7.115   4.706
10032TIP3    H230019   3.445   7.076   4.811
10033TIP3   OH230020   2.594   8.288   2.815
10033TIP3    H130021   2.592   8.362   2.876
10033TIP3    H230022   2.689   8.281   2.793
10034TIP3   OH230023   4.285   7.205   4.531
10034TIP3    H130024   4.303   7.173   4.622
10034TIP3    H230025   4.374   7.199   4.490
10035TIP3   OH230026   4.239   8.766   4.016
10035TIP3    H130027   4.169   8.717   3.967
10035TIP3    H230028   4.202   8.855   4.015
10036TIP3   OH230029   5.491   8.129   2.789
10036TIP3    H130030   5.464   8.222   2.770
10036TIP3    H230031   5.412   8.082   2.758
10037TIP3   OH230032   5.491   8.129   3.164
10037TIP3    H130033   5.521   8.101   3.252
10037TIP3    H230034   5.445   8.050   3.131
10038TIP3   OH230035   4.792   8.025   3.529
10038TIP3    H130036   4.822   7.959   3.594
10038TIP3    H230037   4.859   8.094   3.539
10039TIP3   OH230038   5.731   8.433   2.849
10039TIP3    H130039   5.718   8.366   2.917
10039TIP3    H230040   5.762   8.509   2.903
10040TIP3   OH230041   4.752   8.436   3.255
10040TIP3    H130042   4.747   8.338   3.257
10040TIP3    H230043   4.844   8.450   3.279
10041TIP3   OH230044   4.469   7.640   3.044
10041TIP3    H130045   4.420   7.722   3.061
10041TIP3    H230046   4.398   7.584   3.009
10042TIP3   OH230047   4.525   7.926   3.216
10042TIP3    H130048   4.574   7.849   3.253
10042TIP3    H230049   4.585   7.956   3.146
10043TIP3   OH230050   5.381   8.877   2.899
10043TIP3    H130051   5.427   8.826   2.830
10043TIP3    H230052   5.388   8.817   2.974
10044TIP3   OH230053   5.289   8.354   3.219
10044TIP3    H130054   5.328   8.280   3.168
10044TIP3    H230055   5.371   8.401   3.243
10045TIP3   OH230056   6.298   7.675   3.217
10045TIP3    H130057   6.328   7.757   3.262
10045TIP3    H230058   6.319   7.696   3.125
10046TIP3   OH230059   5.699   7.855   3.254
10046TIP3    H130060   5.743   7.770   3.269
10046TIP3    H230061   5.668   7.844   3.162
10047TIP3   OH230062   5.040   7.517   3.215
10047TIP3    H130063   5.017   7.589   3.153
10047TIP3    H230064   4.992   7.443   3.173
10048TIP3   OH230065   5.732   7.608   2.838
10048TIP3    H130066   5.803   7.592   2.904
10048TIP3    H230067   5.784   7.644   2.764
10049TIP3   OH230068   4.672   7.720   3.321
10049TIP3    H130069   4.753   7.700   3.370
10049TIP3    H230070   4.684   7.662   3.243
10050TIP3   OH230071   5.113   7.917   3.111
10050TIP3    H130072   5.206   7.890   3.127
10050TIP3    H230073   5.073   7.832   3.081
10051TIP3   OH230074   6.370   7.879   3.391
10051TIP3    H130075   6.289   7.931   3.372
10051TIP3    H230076   6.397   7.918   3.476
10052TIP3   OH230077   5.035   7.501   3.651
10052TIP3    H130078   4.974   7.537   3.584
10052TIP3    H230079   4.983   7.516   3.732
10053TIP3   OH230080   5.387   8.352   2.656
10053TIP3    H130081   5.336   8.329   2.577
10053TIP3    H230082   5.343   8.437   2.680
10054TIP3   OH230083   5.149   8.271   3.455
10054TIP3    H130084   5.080   8.334   3.490
10054TIP3    H230085   5.185   8.323   3.381
10055TIP3   OH230086   5.943   7.611   3.008
10055TIP3    H130087   5.936   7.558   3.089
10055TIP3    H230088   5.996   7.688   3.037
10056TIP3   OH230089   4.906   7.615   3.435
10056TIP3    H130090   4.967   7.688   3.458
10056TIP3    H230091   4.955   7.575   3.359
10057TIP3   OH230092   4.958   8.453   3.522
10057TIP3    H130093   4.953   8.550   3.510
10057TIP3    H230094   4.895   8.444   3.596
10058TIP3   OH230095   4.365   8.156   2.779
10058TIP3    H130096   4.321   8.194   2.701
10058TIP3    H230097   4.395   8.236   2.827
10059TIP3   OH230098   5.796   8.658   3.013
10059TIP3    H130099   5.706   8.657   3.054
10059TIP3    H230100   5.794   8.745   2.969
10060TIP3   OH230101   6.085   7.583   3.382
10060TIP3    H130102   6.000   7.600   3.338
10060TIP3    H230103   6.150   7.613   3.315
10061TIP3   OH230104   5.392   7.220   3.366
10061TIP3    H130105   5.377   7.125   3.382
10061TIP3    H230106   5.314   7.258   3.412
10062TIP3   OH230107   5.517   8.708   2.718
10062TIP3    H130108   5.555   8.620   2.701
10062TIP3    H230109   5.587   8.763   2.680
10063TIP3   OH230110   5.653   8.501   2.595
10063TIP3    H130111   5.605   8.423   2.563
10063TIP3    H230112   5.690   8.467   2.679
10064TIP3   OH230113   6.029   8.583   3.367
10064TIP3    H130114   6.019   8.504   3.309
10064TIP3    H230115   6.012   8.655   3.303
10065TIP3   OH230116   5.320   7.981   2.620
10065TIP3    H130117   5.240   8.033   2.601
10065TIP3    H230118   5.365   7.980   2.534
10066TIP3   OH230119   5.279   7.768   2.334
10066TIP3    H130120   5.345   7.818   2.384
10066TIP3    H230121   5.337   7.703   2.288
10067TIP3   OH230122   6.223   8.222   3.206
10067TIP3    H130123   6.141   8.275   3.211
10067TIP3    H230124   6.255   8.249   3.117
10068TIP3   OH230125   5.668   8.064   2.591
10068TIP3    H130126   5.613   8.088   2.670
10068TIP3    H230127   5.752   8.040   2.636
10069TIP3   OH230128   5.910   8.112   3.498
10069TIP3    H130129   5.905   8.194   3.551
10069TIP3    H230130   5.824   8.114   3.453
10070TIP3   OH230131   4.901   8.062   3.007
10070TIP3    H130132   4.859   8.005   2.939
10070TIP3    H230133   4.978   8.008   3.035
10071TIP3   OH230134   5.041   8.480   3.150
10071TIP3    H130135   5.010   8.426   3.076
10071TIP3    H230136   5.127   8.438   3.172
10072TIP3   OH230137   5.048   8.030   3.363
10072TIP3    H130138   5.073   8.016   3.270
10072TIP3    H230139   5.083   8.119   3.383
10073TIP3   OH230140   5.555   8.669   3.137
10073TIP3    H130141   5.546   8.751   3.187
10073TIP3    H230142   5.543   8.599   3.205
10074TIP3   OH230143   5.510   7.921   2.417
10074TIP3    H130144   5.567   7.982   2.469
10074TIP3    H230145   5.537   7.945   2.325
10075TIP3   OH230146   4.930   8.139   3.782
10075TIP3    H130147   4.940   8.232   3.809
10075TIP3    H230148   4.835   8.126   3.803
10076TIP3   OH230149   5.258   8.596   2.684
10076TIP3    H130150   5.327   8.653   2.719
10076TIP3    H230151   5.183   8.655   2.671
10077TIP3   OH230152   6.024   7.163   2.465
10077TIP3    H130153   5.943   7.183   2.516
10077TIP3    H230154   6.037   7.247   2.417
10078TIP3   OH230155   4.769   7.904   2.810
10078TIP3    H130156   4.701   7.950   2.755
10078TIP3    H230157   4.725   7.820   2.828
10079TIP3   OH230158   5.817   8.518   2.005
10079TIP3    H130159   5.822   8.615   1.988
10079TIP3    H230160   5.912   8.494   2.001
10080TIP3   OH230161   4.545   8.288   3.724
10080TIP3    H130162   4.481   8.269   3.653
10080TIP3    H230163   4.584   8.201   3.743
10081TIP3   OH230164   4.401   8.474   3.367
10081TIP3    H130165   4.492   8.483   3.337
10081TIP3    H230166   4.379   8.564   3.396
10082TIP3   OH230167   6.285   8.924   3.419
10082TIP3    H130168   6.279   8.827   3.437
10082TIP3    H230169   6.202   8.954   3.463
10083TIP3   OH230170   5.373   8.700   3.540
10083TIP3    H130171   5.386   8.795   3.562
10083TIP3    H230172   5.294   8.678   3.592
10084TIP3   OH230173   4.574   8.670   2.875
10084TIP3    H130174   4.622   8.676   2.961
10084TIP3    H230175   4.510   8.600   2.898
10085TIP3   OH230176   5.523   8.748   2.166
10085TIP3    H130177   5.471   8.691   2.109
10085TIP3    H230178   5.477   8.739   2.252
10086TIP3   OH230179   5.371   8.738   2.400
10086TIP3    H130180   5.299   8.786   2.444
10086TIP3    H230181   5.413   8.695   2.476
10087TIP3   OH230182   6.153   8.066   3.684
10087TIP3    H130183   6.076   8.080   3.627
10087TIP3    H230184   6.169   7.970   3.671
10088TIP3   OH230185   4.773   8.459   3.724
10088TIP3    H130186   4.784   8.514   3.804
10088TIP3    H230187   4.691   8.410   3.741
10089TIP3   OH230188   5.153   7.297   3.491
10089TIP3    H130189   5.064   7.264   3.464
10089TIP3    H230190   5.125   7.377   3.540
10090TIP3   OH230191   5.683   7.413   3.688
10090TIP3    H130192   5.752   7.381   3.750
10090TIP3    H230193   5.600   7.389   3.734
10091TIP3   OH230194   5.583   7.969   2.161
10091TIP3    H130195   5.552   7.942   2.073
10091TIP3    H230196   5.664   8.019   2.139
10092TIP3   OH230197   5.300   7.344   2.464
10092TIP3    H130198   5.265   7.341   2.556
10092TIP3    H230199   5.258   7.263   2.429
10093TIP3   OH230200   5.086   7.810   3.513
10093TIP3    H130201   5.032   7.829   3.593
10093TIP3    H230202   5.070   7.890   3.459
10094TIP3   OH230203   4.968   7.697   3.025
10094TIP3    H130204   4.875   7.671   3.044
10094TIP3    H230205   4.979   7.656   2.936
10095TIP3   OH230206   5.459   7.783   2.754
10095TIP3    H130207   5.406   7.855   2.712
10095TIP3    H230208   5.513   7.753   2.678
10096TIP3   OH230209   5.617   7.812   2.994
10096TIP3    H130210   5.556   7.844   2.924
10096TIP3    H230211   5.648   7.731   2.949
10097TIP3   OH230212   4.908   7.838   3.720
10097TIP3    H130213   4.915   7.907   3.788
10097TIP3    H230214   4.892   7.758   3.773
10098TIP3   OH230215   4.954   7.319   2.430
10098TIP3    H130216   4.945   7.314   2.527
10098TIP3    H230217   4.874   7.369   2.406
10099TIP3   OH230218   4.495   7.364   3.299
10099TIP3    H130219   4.572   7.393   3.353
10099TIP3    H230220   4.535   7.328   3.218
10100TIP3   OH230221   4.471   7.344   2.820
10100TIP3    H130222   4.517   7.382   2.742
10100TIP3    H230223   4.409   7.416   2.840
10101TIP3   OH230224   5.625   8.060   3.412
10101TIP3    H130225   5.659   7.987   3.356
10101TIP3    H230226   5.598   8.012   3.492
10102TIP3   OH230227   5.296   7.519   3.087
10102TIP3    H130228   5.211   7.517   3.135
10102TIP3    H230229   5.360   7.518   3.160
10103TIP3   OH230230   4.730   7.575   3.094
10103TIP3    H130231   4.635   7.584   3.068
10103TIP3    H230232   4.749   7.482   3.073
10104TIP3   OH230233   4.999   7.571   2.783
10104TIP3    H130234   5.092   7.587   2.759
10104TIP3    H230235   4.950   7.593   2.701
10105TIP3   OH230236   5.789   7.593   3.289
10105TIP3    H130237   5.751   7.606   3.378
10105TIP3    H230238   5.724   7.531   3.251
10106TIP3   OH230239   4.841   7.604   2.564
10106TIP3    H130240   4.766   7.561   2.520
10106TIP3    H230241   4.890   7.638   2.487
10107TIP3   OH230242   5.377   7.847   3.184
10107TIP3    H130243   5.450   7.806   3.136
10107TIP3    H230244   5.381   7.803   3.271
10108TIP3   OH230245   4.904   7.334   3.064
10108TIP3    H130246   4.866   7.257   3.111
10108TIP3    H230247   4.948   7.292   2.989
10109TIP3   OH230248   5.348   7.742   3.462
10109TIP3    H130249   5.254   7.769   3.473
10109TIP3    H230250   5.392   7.794   3.529
10110TIP3   OH230251   5.093   8.134   2.569
10110TIP3    H130252   5.021   8.069   2.559
10110TIP3    H230253   5.074   8.169   2.660
10111TIP3   OH230254   5.992   8.369   3.199
10111TIP3    H130255   6.017   8.420   3.119
10111TIP3    H230256   5.907   8.329   3.173
10112TIP3   OH230257   5.549   7.449   2.426
10112TIP3    H130258   5.453   7.430   2.438
10112TIP3    H230259   5.558   7.542   2.455
10113TIP3   OH230260   5.501   8.455   3.575
10113TIP3    H130261   5.477   8.435   3.668
10113TIP3    H230262   5.450   8.538   3.564
10114TIP3   OH230263   5.619   7.694   2.534
10114TIP3    H130264   5.715   7.701   2.551
10114TIP3    H230265   5.600   7.775   2.484
10115TIP3   OH230266   4.785   8.157   3.246
10115TIP3    H130267   4.822   8.125   3.162
10115TIP3    H230268   4.819   8.092   3.310
10116TIP3   OH230269   5.235   8.282   2.387
10116TIP3    H130270   5.188   8.369   2.394
10116TIP3    H230271   5.182   8.228   2.449
10117TIP3   OH230272   4.668   8.073   3.856
10117TIP3    H130273   4.686   8.064   3.952
10117TIP3    H230274   4.594   8.011   3.844
10118TIP3   OH230275   5.397   8.161   3.889
10118TIP3    H130276   5.319   8.119   3.848
10118TIP3    H230277   5.444   8.197   3.814
10119TIP3   OH230278   5.650   8.725   3.455
10119TIP3    H130279   5.557   8.701   3.469
10119TIP3    H230280   5.671   8.765   3.542
10120TIP3   OH230281   6.062   7.784   2.370
10120TIP3    H130282   5.999   7.740   2.308
10120TIP3    H230283   6.058   7.874   2.331
10121TIP3   OH230284   6.279   8.642   3.452
10121TIP3    H130285   6.182   8.636   3.444
10121TIP3    H230286   6.306   8.611   3.362
10122TIP3   OH230287   5.789   8.581   2.284
10122TIP3    H130288   5.737   8.526   2.344
10122TIP3    H230289   5.771   8.541   2.197
10123TIP3   OH230290   5.757   8.232   3.119
10123TIP3    H130291   5.663   8.208   3.130
10123TIP3    H230292   5.791   8.153   3.072
10124TIP3   OH230293   4.883   8.452   2.865
10124TIP3    H130294   4.879   8.537   2.818
10124TIP3    H230295   4.791   8.441   2.892
10125TIP3   OH230296   4.448   7.765   2.572
10125TIP3    H130297   4.493   7.849   2.594
10125TIP3    H230298   4.371   7.769   2.634
10126TIP3   OH230299   5.026   8.225   2.814
10126TIP3    H130300   4.987   8.313   2.830
10126TIP3    H230301   4.989   8.174   2.888
10127TIP3   OH230302   5.145   8.801   3.342
10127TIP3    H130303   5.158   8.889   3.302
10127TIP3    H230304   5.233   8.775   3.371
10128TIP3   OH230305   4.809   8.689   2.734
10128TIP3    H130306   4.719   8.681   2.772
10128TIP3    H230307   4.820   8.785   2.734
10129TIP3   OH230308   5.543   8.437   3.303
10129TIP3    H130309   5.538   8.433   3.401
10129TIP3    H230310   5.624   8.387   3.286
10130TIP3   OH230311   5.515   8.328   2.182
10130TIP3    H130312   5.570   8.303   2.260
10130TIP3    H230313   5.427   8.304   2.216
10131TIP3   OH230314   5.811   8.944   3.350
10131TIP3    H130315   5.744   8.876   3.373
10131TIP3    H230316   5.753   9.019   3.325
10132TIP3   OH230317   5.841   8.787   1.981
10132TIP3    H130318   5.912   8.855   1.976
10132TIP3    H230319   5.763   8.842   1.997
10133TIP3   OH230320   4.876   7.581   3.867
10133TIP3    H130321   4.779   7.587   3.881
10133TIP3    H230322   4.903   7.522   3.939
10134TIP3   OH230323   5.677   8.262   2.395
10134TIP3    H130324   5.668   8.198   2.469
10134TIP3    H230325   5.775   8.262   2.385
10135TIP3   OH230326   4.616   8.682   3.514
10135TIP3    H130327   4.651   8.593   3.524
10135TIP3    H230328   4.640   8.720   3.599
10136TIP3   OH230329   4.878   8.311   2.178
10136TIP3    H130330   4.895   8.218   2.153
10136TIP3    H230331   4.866   8.302   2.275
10137TIP3   OH230332   4.831   8.317   2.448
10137TIP3    H130333   4.895   8.288   2.514
10137TIP3    H230334   4.832   8.414   2.460
10138TIP3   OH230335   4.564   8.011   2.655
10138TIP3    H130336   4.497   8.054   2.713
10138TIP3    H230337   4.575   8.081   2.588
10139TIP3   OH230338   5.711   7.645   3.548
10139TIP3    H130339   5.792   7.661   3.597
10139TIP3    H230340   5.678   7.565   3.594
10140TIP3   OH230341   5.595   7.397   2.711
10140TIP3    H130342   5.579   7.422   2.619
10140TIP3    H230343   5.632   7.481   2.749
10141TIP3   OH230344   5.092   8.512   2.402
10141TIP3    H130345   5.006   8.536   2.443
10141TIP3    H230346   5.107   8.592   2.352
10142TIP3   OH230347   5.285   7.577   2.815
10142TIP3    H130348   5.348   7.651   2.799
10142TIP3    H230349   5.287   7.571   2.912
10143TIP3   OH230350   5.427   7.307   2.919
10143TIP3    H130351   5.415   7.386   2.974
10143TIP3    H230352   5.487   7.342   2.849
10144TIP3   OH230353   4.835   8.586   2.475
10144TIP3    H130354   4.812   8.657   2.413
10144TIP3    H230355   4.822   8.630   2.562
10145TIP3   OH230356   4.939   7.303   2.706
10145TIP3    H130357   4.935   7.393   2.743
10145TIP3    H230358   5.035   7.285   2.715
10146TIP3   OH230359   6.173   7.804   3.601
10146TIP3    H130360   6.090   7.756   3.608
10146TIP3    H230361   6.207   7.773   3.516
10147TIP3   OH230362   5.843   7.991   2.991
10147TIP3    H130363   5.767   7.931   3.003
10147TIP3    H230364   5.915   7.944   3.039
10148TIP3   OH230365   4.554   8.217   2.463
10148TIP3    H130366   4.613   8.294   2.473
10148TIP3    H230367   4.603   8.167   2.394
10149TIP3   OH230368   4.501   7.496   2.592
10149TIP3    H130369   4.497   7.594   2.589
10149TIP3    H230370   4.415   7.472   2.556
10150TIP3   OH230371   5.810   8.915   2.930
10150TIP3    H130372   5.776   9.000   2.898
10150TIP3    H230373   5.905   8.938   2.934
10151TIP3   OH230374   4.890   7.216   3.467
10151TIP3    H130375   4.856   7.181   3.381
10151TIP3    H230376   4.878   7.138   3.526
10152TIP3   OH230377   4.437   8.408   2.886
10152TIP3    H130378   4.369   8.451   2.938
10152TIP3    H230379   4.414   8.440   2.795
10153TIP3   OH230380   4.664   8.919   3.897
10153TIP3    H130381   4.728   8.927   3.971
10153TIP3    H230382   4.634   8.828   3.908
10154TIP3   OH230383   5.039   8.511   2.083
10154TIP3    H130384   4.988   8.440   2.129
10154TIP3    H230385   5.120   8.463   2.060
10155TIP3   OH230386   5.691   8.844   3.699
10155TIP3    H130387   5.689   8.771   3.765
10155TIP3    H230388   5.775   8.889   3.720
10156TIP3   OH230389   5.478   8.531   1.982
10156TIP3    H130390   5.515   8.481   2.057
10156TIP3    H230391   5.553   8.534   1.920
10157TIP3   OH230392   4.701   8.381   4.139
10157TIP3    H130393   4.748   8.302   4.109
10157TIP3    H230394   4.625   8.384   4.078
10158TIP3   OH230395   4.692   8.035   2.311
10158TIP3    H130396   4.743   8.000   2.386
10158TIP3    H230397   4.762   8.038   2.243
10159TIP3   OH230398   5.364   8.445   3.822
10159TIP3    H130399   5.283   8.491   3.854
10159TIP3    H230400   5.365   8.370   3.883
10160TIP3   OH230401   5.195   8.230   2.120
10160TIP3    H130402   5.201   8.243   2.216
10160TIP3    H230403   5.196   8.132   2.115
10161TIP3   OH230404   5.814   8.470   3.500
10161TIP3    H130405   5.887   8.518   3.456
10161TIP3    H230406   5.741   8.532   3.490
10162TIP3   OH230407   4.837   8.117   4.096
10162TIP3    H130408   4.911   8.056   4.089
10162TIP3    H230409   4.852   8.153   4.186
10163TIP3   OH230410   4.901   7.937   2.537
10163TIP3    H130411   4.869   7.898   2.620
10163TIP3    H230412   4.934   7.858   2.489
10164TIP3   OH230413   5.173   8.006   3.766
10164TIP3    H130414   5.088   8.055   3.771
10164TIP3    H230415   5.207   8.034   3.679
10165TIP3   OH230416   4.998   7.729   2.376
10165TIP3    H130417   4.972   7.733   2.281
10165TIP3    H230418   5.095   7.734   2.369
10166TIP3   OH230419   5.682   8.380   3.893
10166TIP3    H130420   5.772   8.393   3.861
10166TIP3    H230421   5.695   8.328   3.974
10167TIP3   OH230422   5.822   8.060   2.038
10167TIP3    H130423   5.800   8.014   1.955
10167TIP3    H230424   5.788   8.150   2.016
10168TIP3   OH230425   5.307   7.797   3.883
10168TIP3    H130426   5.292   7.712   3.837
10168TIP3    H230427   5.251   7.859   3.833
10169TIP3   OH230428   5.292   7.574   3.694
10169TIP3    H130429   5.314   7.607   3.605
10169TIP3    H230430   5.198   7.550   3.683
10170TIP3   OH230431   5.344   8.109   3.557
10170TIP3    H130432   5.410   8.137   3.492
10170TIP3    H230433   5.272   8.172   3.535
10171TIP3   OH230434   5.902   8.037   3.934
10171TIP3    H130435   5.970   7.991   3.988
10171TIP3    H230436   5.954   8.111   3.898
10172TIP3   OH230437   5.945   8.327   3.687
10172TIP3    H130438   5.885   8.381   3.630
10172TIP3    H230439   6.031   8.350   3.646
10173TIP3   OH230440   5.171   7.900   4.119
10173TIP3    H130441   5.101   7.833   4.135
10173TIP3    H230442   5.205   7.874   4.032
10174TIP3   OH230443   5.425   7.338   3.761
10174TIP3    H130444   5.374   7.419   3.741
10174TIP3    H230445   5.356   7.269   3.752
10175TIP3   OH230446   5.573   7.877   3.962
10175TIP3    H130447   5.557   7.852   4.056
10175TIP3    H230448   5.484   7.854   3.927
10176TIP3   OH230449   6.039   7.733   3.977
10176TIP3    H130450   6.037   7.637   3.997
10176TIP3    H230451   6.018   7.774   4.062
10177TIP3   OH230452   5.010   7.681   4.171
10177TIP3    H130453   5.012   7.588   4.141
10177TIP3    H230454   5.044   7.671   4.262
10178TIP3   OH230455   5.523   7.351   4.018
10178TIP3    H130456   5.588   7.278   4.015
10178TIP3    H230457   5.480   7.341   3.931
10179TIP3   OH230458   5.590   7.568   4.176
10179TIP3    H130459   5.565   7.495   4.115
10179TIP3    H230460   5.510   7.624   4.174
10180TIP3   OH230461   4.283   8.177   2.490
10180TIP3    H130462   4.379   8.198   2.484
10180TIP3    H230463   4.281   8.086   2.454
10181TIP3   OH230464   4.339   8.630   3.078
10181TIP3    H130465   4.313   8.563   3.142
10181TIP3    H230466   4.384   8.694   3.137
10182TIP3   OH230467   6.058   9.021   2.924
10182TIP3    H130468   6.092   9.083   2.991
10182TIP3    H230469   6.094   9.062   2.843
10183TIP3   OH230470   6.118   9.028   3.212
10183TIP3    H130471   6.064   8.950   3.188
10183TIP3    H230472   6.188   8.985   3.263
10184TIP3   OH230473   6.134   8.729   3.749
10184TIP3    H130474   6.063   8.739   3.816
10184TIP3    H230475   6.181   8.814   3.756
10185TIP3   OH230476   5.956   8.246   2.372
10185TIP3    H130477   6.022   8.312   2.343
10185TIP3    H230478   6.000   8.209   2.451
10186TIP3   OH230479   6.084   8.113   2.575
10186TIP3    H130480   6.017   8.074   2.635
10186TIP3    H230481   6.148   8.153   2.637
10187TIP3   OH230482   6.136   8.503   3.010
10187TIP3    H130483   6.189   8.442   2.955
10187TIP3    H230484   6.137   8.585   2.955
10188TIP3   OH230485   5.972   8.787   3.195
10188TIP3    H130486   5.903   8.839   3.240
10188TIP3    H230487   5.921   8.742   3.124
10189TIP3   OH230488   6.022   8.022   2.222
10189TIP3    H130489   5.950   8.026   2.155
10189TIP3    H230490   5.996   8.098   2.278
10190TIP3   OH230491   5.895   7.694   2.176
10190TIP3    H130492   5.848   7.735   2.102
10190TIP3    H230493   5.868   7.600   2.166
10191TIP3   OH230494   5.897   7.972   2.723
10191TIP3    H130495   5.905   7.876   2.718
10191TIP3    H230496   5.884   7.987   2.819
10192TIP3   OH230497   4.525   8.042   3.470
10192TIP3    H130498   4.522   8.014   3.376
10192TIP3    H230499   4.623   8.044   3.485
10193TIP3   OH230500   6.186   8.397   3.580
10193TIP3    H130501   6.259   8.331   3.570
10193TIP3    H230502   6.212   8.467   3.518
10194TIP3   OH230503   6.370   8.201   3.595
10194TIP3    H130504   6.297   8.151   3.637
10194TIP3    H230505   6.445   8.139   3.609
10195TIP3   OH230506   5.837   7.428   2.160
10195TIP3    H130507   5.910   7.400   2.218
10195TIP3    H230508   5.762   7.372   2.187
10196TIP3   OH230509   5.893   7.687   2.618
10196TIP3    H130510   5.934   7.598   2.633
10196TIP3    H230511   5.953   7.720   2.549
10197TIP3   OH230512   6.056   7.861   3.113
10197TIP3    H130513   6.142   7.887   3.072
10197TIP3    H230514   6.069   7.900   3.202
10198TIP3   OH230515   6.122   8.005   3.344
10198TIP3    H130516   6.045   8.041   3.394
10198TIP3    H230517   6.155   8.086   3.299
10199TIP3   OH230518   4.742   7.732   4.143
10199TIP3    H130519   4.840   7.725   4.146
10199TIP3    H230520   4.717   7.647   4.184
10200TIP3   OH230521   6.566   7.591   3.898
10200TIP3    H130522   6.633   7.528   3.863
10200TIP3    H230523   6.552   7.649   3.821
10201TIP3   OH230524   6.004   7.437   2.654
10201TIP3    H130525   6.051   7.422   2.738
10201TIP3    H230526   5.942   7.361   2.654
10202TIP3   OH230527   4.703   7.423   3.471
10202TIP3    H130528   4.765   7.348   3.483
10202TIP3    H230529   4.765   7.498   3.468
10203TIP3   OH230530   4.507   7.696   3.548
10203TIP3    H130531   4.555   7.694   3.463
10203TIP3    H230532   4.530   7.784   3.582
10204TIP3   OH230533   6.447   7.741   3.700
10204TIP3    H130534   6.366   7.776   3.741
10204TIP3    H230535   6.411   7.665   3.649
10205TIP3   OH230536   6.084   7.373   2.288
10205TIP3    H130537   6.124   7.301   2.235
10205TIP3    H230538   6.151   7.443   2.282
10206TIP3   OH230539   4.489   7.205   3.051
10206TIP3    H130540   4.396   7.197   3.075
10206TIP3    H230541   4.485   7.261   2.971
10207TIP3   OH230542   5.713   8.882   2.584
10207TIP3    H130543   5.760   8.836   2.512
10207TIP3    H230544   5.780   8.945   2.613
10208TIP3   OH230545   4.710   7.281   3.862
10208TIP3    H130546   4.660   7.275   3.945
10208TIP3    H230547   4.643   7.319   3.802
10209TIP3   OH230548   4.742   8.638   3.952
10209TIP3    H130549   4.646   8.642   3.942
10209TIP3    H230550   4.753   8.652   4.047
10210TIP3   OH230551   4.927   8.725   3.483
10210TIP3    H130552   4.858   8.780   3.444
10210TIP3    H230553   5.006   8.747   3.429
10211TIP3   OH230554   5.412   8.963   3.602
10211TIP3    H130555   5.404   8.975   3.698
10211TIP3    H230556   5.477   9.031   3.582
10212TIP3   OH230557   6.345   7.498   3.585
10212TIP3    H130558   6.254   7.483   3.552
10212TIP3    H230559   6.383   7.407   3.575
10213TIP3   OH230560   5.508   8.946   3.208
10213TIP3    H130561   5.423   8.986   3.190
10213TIP3    H230562   5.563   9.025   3.223
10214TIP3   OH230563   4.489   8.754   3.278
10214TIP3    H130564   4.534   8.737   3.363
10214TIP3    H230565   4.566   8.776   3.221
10215TIP3   OH230566   4.710   8.663   3.107
10215TIP3    H130567   4.713   8.580   3.160
10215TIP3    H230568   4.806   8.686   3.106
10216TIP3   OH230569   4.967   8.741   3.121
10216TIP3    H130570   5.003   8.649   3.120
10216TIP3    H230571   5.027   8.782   3.185
10217TIP3   OH230572   5.553   7.415   3.208
10217TIP3    H130573   5.506   7.346   3.259
10217TIP3    H230574   5.620   7.364   3.160
10218TIP3   OH230575   6.075   7.295   3.109
10218TIP3    H130576   6.110   7.346   3.033
10218TIP3    H230577   5.979   7.310   3.101
10219TIP3   OH230578   6.168   7.394   2.871
10219TIP3    H130579   6.243   7.344   2.832
10219TIP3    H230580   6.201   7.486   2.857
10220TIP3   OH230581   4.799   7.123   3.219
10220TIP3    H130582   4.707   7.091   3.221
10220TIP3    H230583   4.847   7.038   3.215
10221TIP3   OH230584   4.590   6.994   2.870
10221TIP3    H130585   4.615   7.051   2.795
10221TIP3    H230586   4.558   7.058   2.936
10222TIP3   OH230587   5.245   7.153   3.099
10222TIP3    H130588   5.303   7.206   3.042
10222TIP3    H230589   5.257   7.194   3.185
10223TIP3   OH230590   5.794   7.302   3.083
10223TIP3    H130591   5.784   7.264   2.994
10223TIP3    H230592   5.778   7.223   3.139
10224TIP3   OH230593   5.819   7.224   2.646
10224TIP3    H130594   5.733   7.268   2.659
10224TIP3    H230595   5.804   7.139   2.693
10225TIP3   OH230596   4.316   8.492   2.664
10225TIP3    H130597   4.234   8.454   2.631
10225TIP3    H230598   4.305   8.585   2.636
10226TIP3   OH230599   4.702   7.155   2.628
10226TIP3    H130600   4.748   7.089   2.574
10226TIP3    H230601   4.776   7.206   2.666
10227TIP3   OH230602   5.216   7.327   2.728
10227TIP3    H130603   5.273   7.278   2.790
10227TIP3    H230604   5.239   7.419   2.755
10228TIP3   OH230605   6.711   0.172   3.955
10228TIP3    H130606   6.698   0.255   3.907
10228TIP3    H230607   6.715   0.105   3.884
10229TIP3   OH230608   5.804   8.848   2.319
10229TIP3    H130609   5.806   8.750   2.310
10229TIP3    H230610   5.813   8.874   2.227
10230TIP3   OH230611   5.008   7.406   4.111
10230TIP3    H130612   4.970   7.335   4.166
10230TIP3    H230613   5.102   7.404   4.140
10231TIP3   OH230614   5.257   7.400   4.230
10231TIP3    H130615   5.342   7.370   4.194
10231TIP3    H230616   5.241   7.332   4.299
10232TIP3   OH230617   4.391   8.545   2.301
10232TIP3    H130618   4.386   8.618   2.364
10232TIP3    H230619   4.487   8.541   2.281
10233TIP3   OH230620   6.080   7.459   4.017
10233TIP3    H130621   6.098   7.429   4.109
10233TIP3    H230622   6.169   7.458   3.977
10234TIP3   OH230623   6.035   9.020   3.504
10234TIP3    H130624   5.966   8.973   3.453
10234TIP3    H230625   6.006   9.111   3.493
10235TIP3   OH230626   7.205   8.363   2.640
10235TIP3    H130627   7.279   8.375   2.701
10235TIP3    H230628   7.231   8.281   2.598
10236TIP3   OH230629   6.589   8.283   3.020
10236TIP3    H130630   6.619   8.216   3.084
10236TIP3    H230631   6.661   8.347   3.025
10237TIP3   OH230632   6.550   8.691   2.750
10237TIP3    H130633   6.542   8.594   2.754
10237TIP3    H230634   6.647   8.699   2.736
10238TIP3   OH230635   6.265   7.894   2.531
10238TIP3    H130636   6.219   7.978   2.549
10238TIP3    H230637   6.192   7.842   2.493
10239TIP3   OH230638   6.320   8.181   2.702
10239TIP3    H130639   6.371   8.106   2.739
10239TIP3    H230640   6.384   8.220   2.640
10240TIP3   OH230641   7.077   8.552   2.778
10240TIP3    H130642   7.105   8.480   2.717
10240TIP3    H230643   7.143   8.619   2.754
10241TIP3   OH230644   7.536   8.097   2.735
10241TIP3    H130645   7.567   8.010   2.765
10241TIP3    H230646   7.460   8.070   2.681
10242TIP3   OH230647   6.838   7.773   2.701
10242TIP3    H130648   6.814   7.847   2.642
10242TIP3    H230649   6.787   7.700   2.659
10243TIP3   OH230650   7.522   7.864   2.319
10243TIP3    H130651   7.583   7.855   2.393
10243TIP3    H230652   7.584   7.887   2.249
10244TIP3   OH230653   6.467   7.976   2.809
10244TIP3    H130654   6.550   7.958   2.858
10244TIP3    H230655   6.481   7.919   2.730
10245TIP3   OH230656   6.911   8.174   2.590
10245TIP3    H130657   7.001   8.146   2.616
10245TIP3    H230658   6.870   8.088   2.567
10246TIP3   OH230659   6.831   7.755   3.135
10246TIP3    H130660   6.770   7.795   3.071
10246TIP3    H230661   6.781   7.771   3.218
10247TIP3   OH230662   6.910   8.509   2.977
10247TIP3    H130663   6.856   8.588   3.000
10247TIP3    H230664   6.960   8.543   2.898
10248TIP3   OH230665   7.711   7.934   2.564
10248TIP3    H130666   7.664   7.882   2.631
10248TIP3    H230667   7.769   7.867   2.522
10249TIP3   OH230668   6.702   7.872   2.921
10249TIP3    H130669   6.762   7.945   2.946
10249TIP3    H230670   6.753   7.832   2.847
10250TIP3   OH230671   6.757   8.726   3.030
10250TIP3    H130672   6.733   8.811   2.989
10250TIP3    H230673   6.678   8.712   3.086
10251TIP3   OH230674   6.161   8.413   2.265
10251TIP3    H130675   6.119   8.452   2.188
10251TIP3    H230676   6.191   8.492   2.314
10252TIP3   OH230677   7.865   7.809   2.806
10252TIP3    H130678   7.775   7.833   2.831
10252TIP3    H230679   7.920   7.859   2.871
10253TIP3   OH230680   7.189   7.480   2.854
10253TIP3    H130681   7.175   7.386   2.877
10253TIP3    H230682   7.110   7.520   2.897
10254TIP3   OH230683   7.132   8.245   2.074
10254TIP3    H130684   7.044   8.286   2.090
10254TIP3    H230685   7.137   8.258   1.979
10255TIP3   OH230686   7.069   8.005   1.844
10255TIP3    H130687   7.140   8.054   1.888
10255TIP3    H230688   7.120   7.944   1.787
10256TIP3   OH230689   6.696   8.318   2.494
10256TIP3    H130690   6.656   8.259   2.427
10256TIP3    H230691   6.774   8.266   2.524
10257TIP3   OH230692   6.811   8.716   2.656
10257TIP3    H130693   6.805   8.674   2.569
10257TIP3    H230694   6.906   8.738   2.660
10258TIP3   OH230695   6.838   8.282   2.845
10258TIP3    H130696   6.872   8.280   2.754
10258TIP3    H230697   6.868   8.368   2.879
10259TIP3   OH230698   6.969   8.830   3.173
10259TIP3    H130699   6.923   8.903   3.220
10259TIP3    H230700   6.893   8.785   3.132
10260TIP3   OH230701   6.724   8.399   3.275
10260TIP3    H130702   6.731   8.487   3.318
10260TIP3    H230703   6.628   8.383   3.288
10261TIP3   OH230704   6.764   9.006   3.254
10261TIP3    H130705   6.719   9.003   3.168
10261TIP3    H230706   6.693   8.981   3.317
10262TIP3   OH230707   7.814   7.398   1.964
10262TIP3    H130708   7.731   7.404   2.016
10262TIP3    H230709   7.794   7.470   1.900
10263TIP3   OH230710   6.566   8.158   2.294
10263TIP3    H130711   6.499   8.207   2.242
10263TIP3    H230712   6.517   8.078   2.316
10264TIP3   OH230713   6.343   8.544   3.209
10264TIP3    H130714   6.278   8.524   3.138
10264TIP3    H230715   6.380   8.457   3.231
10265TIP3   OH230716   6.198   8.730   2.859
10265TIP3    H130717   6.287   8.741   2.823
10265TIP3    H230718   6.174   8.822   2.881
10266TIP3   OH230719   6.368   8.926   2.364
10266TIP3    H130720   6.433   8.930   2.437
10266TIP3    H230721   6.306   8.860   2.398
10267TIP3   OH230722   6.544   8.729   3.196
10267TIP3    H130723   6.593   8.720   3.280
10267TIP3    H230724   6.474   8.662   3.205
10268TIP3   OH230725   6.948   7.554   2.975
10268TIP3    H130726   6.858   7.523   2.952
10268TIP3    H230727   6.924   7.634   3.025
10269TIP3   OH230728   7.483   7.663   3.176
10269TIP3    H130729   7.552   7.639   3.242
10269TIP3    H230730   7.400   7.646   3.224
10270TIP3   OH230731   7.714   8.065   3.097
10270TIP3    H130732   7.675   8.058   3.187
10270TIP3    H230733   7.723   8.160   3.087
10271TIP3   OH230734   7.089   7.604   1.948
10271TIP3    H130735   7.055   7.599   2.039
10271TIP3    H230736   7.053   7.520   1.912
10272TIP3   OH230737   6.882   8.065   2.999
10272TIP3    H130738   6.831   8.089   3.080
10272TIP3    H230739   6.866   8.145   2.943
10273TIP3   OH230740   6.765   7.951   2.511
10273TIP3    H130741   6.671   7.929   2.530
10273TIP3    H230742   6.774   7.911   2.422
10274TIP3   OH230743   7.249   8.052   2.238
10274TIP3    H130744   7.197   8.125   2.197
10274TIP3    H230745   7.304   8.027   2.163
10275TIP3   OH230746   7.435   8.318   3.327
10275TIP3    H130747   7.394   8.251   3.387
10275TIP3    H230748   7.526   8.314   3.363
10276TIP3   OH230749   7.371   8.026   2.490
10276TIP3    H130750   7.312   8.060   2.419
10276TIP3    H230751   7.403   7.946   2.444
10277TIP3   OH230752   6.701   8.095   3.207
10277TIP3    H130753   6.724   8.162   3.273
10277TIP3    H230754   6.691   8.015   3.261
10278TIP3   OH230755   6.748   7.572   1.917
10278TIP3    H130756   6.738   7.571   2.014
10278TIP3    H230757   6.671   7.627   1.892
10279TIP3   OH230758   6.292   7.618   2.787
10279TIP3    H130759   6.366   7.650   2.842
10279TIP3    H230760   6.334   7.587   2.706
10280TIP3   OH230761   6.266   7.600   2.306
10280TIP3    H130762   6.311   7.639   2.228
10280TIP3    H230763   6.205   7.673   2.328
10281TIP3   OH230764   7.370   8.264   2.888
10281TIP3    H130765   7.441   8.212   2.847
10281TIP3    H230766   7.354   8.213   2.970
10282TIP3   OH230767   7.091   7.763   2.574
10282TIP3    H130768   7.004   7.770   2.619
10282TIP3    H230769   7.150   7.788   2.646
10283TIP3   OH230770   6.525   7.832   2.581
10283TIP3    H130771   6.430   7.843   2.555
10283TIP3    H230772   6.543   7.739   2.559
10284TIP3   OH230773   6.796   7.826   2.268
10284TIP3    H130774   6.888   7.846   2.242
10284TIP3    H230775   6.744   7.848   2.187
10285TIP3   OH230776   7.565   7.826   2.780
10285TIP3    H130777   7.541   7.842   2.875
10285TIP3    H230778   7.490   7.767   2.755
10286TIP3   OH230779   6.638   7.856   2.050
10286TIP3    H130780   6.563   7.817   2.003
10286TIP3    H230781   6.688   7.895   1.975
10287TIP3   OH230782   6.711   8.642   3.417
10287TIP3    H130783   6.789   8.678   3.463
10287TIP3    H230784   6.644   8.656   3.486
10288TIP3   OH230785   7.159   8.072   2.668
10288TIP3    H130786   7.243   8.047   2.625
10288TIP3    H230787   7.174   8.053   2.763
10289TIP3   OH230788   6.704   7.588   2.551
10289TIP3    H130789   6.662   7.512   2.596
10289TIP3    H230790   6.732   7.550   2.467
10290TIP3   OH230791   7.153   8.004   2.955
10290TIP3    H130792   7.062   8.036   2.972
10290TIP3    H230793   7.206   8.055   3.020
10291TIP3   OH230794   6.891   8.380   2.055
10291TIP3    H130795   6.815   8.318   2.045
10291TIP3    H230796   6.869   8.422   2.141
10292TIP3   OH230797   7.351   7.709   1.942
10292TIP3    H130798   7.256   7.698   1.919
10292TIP3    H230799   7.374   7.797   1.908
10293TIP3   OH230800   6.575   8.408   2.733
10293TIP3    H130801   6.617   8.384   2.648
10293TIP3    H230802   6.620   8.350   2.796
10294TIP3   OH230803   6.461   8.333   3.345
10294TIP3    H130804   6.484   8.322   3.439
10294TIP3    H230805   6.391   8.266   3.334
10295TIP3   OH230806   7.188   8.444   3.367
10295TIP3    H130807   7.125   8.390   3.316
10295TIP3    H230808   7.274   8.412   3.333
10296TIP3   OH230809   6.675   8.709   2.347
10296TIP3    H130810   6.695   8.801   2.329
10296TIP3    H230811   6.581   8.712   2.370
10297TIP3   OH230812   6.244   8.021   2.059
10297TIP3    H130813   6.289   8.106   2.079
10297TIP3    H230814   6.168   8.026   2.120
10298TIP3   OH230815   6.818   8.479   2.296
10298TIP3    H130816   6.774   8.566   2.310
10298TIP3    H230817   6.782   8.429   2.371
10299TIP3   OH230818   6.675   7.836   3.353
10299TIP3    H130819   6.579   7.840   3.371
10299TIP3    H230820   6.706   7.781   3.427
10300TIP3   OH230821   6.410   8.942   3.003
10300TIP3    H130822   6.439   8.850   3.016
10300TIP3    H230823   6.429   8.978   3.090
10301TIP3   OH230824   6.629   8.536   1.678
10301TIP3    H130825   6.635   8.439   1.672
10301TIP3    H230826   6.617   8.550   1.773
10302TIP3   OH230827   6.631   8.583   1.955
10302TIP3    H130828   6.695   8.538   2.012
10302TIP3    H230829   6.668   8.673   1.954
10303TIP3   OH230830   6.360   8.267   2.143
10303TIP3    H130831   6.294   8.312   2.199
10303TIP3    H230832   6.372   8.336   2.074
10304TIP3   OH230833   7.506   7.893   3.031
10304TIP3    H130834   7.576   7.947   3.073
10304TIP3    H230835   7.495   7.820   3.096
10305TIP3   OH230836   7.382   7.649   2.205
10305TIP3    H130837   7.366   7.667   2.109
10305TIP3    H230838   7.423   7.733   2.233
10306TIP3   OH230839   7.086   7.832   2.303
10306TIP3    H130840   7.143   7.910   2.286
10306TIP3    H230841   7.082   7.828   2.400
10307TIP3   OH230842   7.347   8.137   3.126
10307TIP3    H130843   7.362   8.205   3.194
10307TIP3    H230844   7.405   8.066   3.158
10308TIP3   OH230845   7.225   7.557   2.409
10308TIP3    H130846   7.206   7.637   2.462
10308TIP3    H230847   7.281   7.596   2.337
10309TIP3   OH230848   6.734   7.560   2.195
10309TIP3    H130849   6.731   7.652   2.228
10309TIP3    H230850   6.830   7.543   2.201
10310TIP3   OH230851   6.349   8.478   1.952
10310TIP3    H130852   6.417   8.546   1.962
10310TIP3    H230853   6.392   8.421   1.883
10311TIP3   OH230854   6.296   7.752   2.080
10311TIP3    H130855   6.296   7.850   2.077
10311TIP3    H230856   6.211   7.732   2.042
10312TIP3   OH230857   6.685   7.471   2.953
10312TIP3    H130858   6.652   7.436   2.868
10312TIP3    H230859   6.674   7.394   3.013
10313TIP3   OH230860   6.232   8.660   2.376
10313TIP3    H130861   6.162   8.707   2.423
10313TIP3    H230862   6.219   8.696   2.285
10314TIP3   OH230863   6.454   9.170   3.379
10314TIP3    H130864   6.520   9.187   3.451
10314TIP3    H230865   6.419   9.084   3.407
10315TIP3   OH230866   6.508   8.637   3.609
10315TIP3    H130867   6.527   8.541   3.611
10315TIP3    H230868   6.421   8.639   3.564
10316TIP3   OH230869   6.477   8.286   1.812
10316TIP3    H130870   6.537   8.252   1.881
10316TIP3    H230871   6.538   8.282   1.735
10317TIP3   OH230872   7.097   8.714   3.389
10317TIP3    H130873   7.072   8.744   3.299
10317TIP3    H230874   7.144   8.631   3.372
10318TIP3   OH230875   6.627   8.367   3.589
10318TIP3    H130876   6.707   8.316   3.569
10318TIP3    H230877   6.652   8.404   3.677
10319TIP3   OH230878   6.693   8.192   2.024
10319TIP3    H130879   6.662   8.152   2.107
10319TIP3    H230880   6.728   8.115   1.974
10320TIP3   OH230881   6.964   8.258   3.247
10320TIP3    H130882   6.885   8.317   3.254
10320TIP3    H230883   7.011   8.296   3.170
10321TIP3   OH230884   6.792   7.985   1.865
10321TIP3    H130885   6.768   7.991   1.770
10321TIP3    H230886   6.890   7.989   1.859
10322TIP3   OH230887   7.085   8.046   3.377
10322TIP3    H130888   7.085   7.966   3.321
10322TIP3    H230889   7.041   8.112   3.318
10323TIP3   OH230890   7.089   7.830   3.182
10323TIP3    H130891   7.115   7.872   3.098
10323TIP3    H230892   6.995   7.809   3.166
10324TIP3   OH230893   7.132   8.369   3.056
10324TIP3    H130894   7.185   8.359   2.976
10324TIP3    H230895   7.064   8.433   3.028
10325TIP3   OH230896   7.680   8.298   3.453
10325TIP3    H130897   7.719   8.209   3.460
10325TIP3    H230898   7.759   8.350   3.426
10326TIP3   OH230899   6.962   8.159   3.606
10326TIP3    H130900   6.894   8.090   3.622
10326TIP3    H230901   6.998   8.130   3.520
10327TIP3   OH230902   7.221   7.592   3.244
10327TIP3    H130903   7.172   7.675   3.227
10327TIP3    H230904   7.150   7.525   3.239
10328TIP3   OH230905   7.343   8.106   3.466
10328TIP3    H130906   7.340   8.092   3.563
10328TIP3    H230907   7.252   8.078   3.443
10329TIP3   OH230908   7.575   8.036   3.325
10329TIP3    H130909   7.503   8.049   3.389
10329TIP3    H230910   7.649   8.010   3.385
10330TIP3   OH230911   7.790   7.992   3.481
10330TIP3    H130912   7.822   7.899   3.487
10330TIP3    H230913   7.819   8.026   3.568
10331TIP3   OH230914   6.803   7.937   3.659
10331TIP3    H130915   6.811   7.844   3.628
10331TIP3    H230916   6.843   7.928   3.748
10332TIP3   OH230917   7.319   7.609   3.502
10332TIP3    H130918   7.383   7.535   3.504
10332TIP3    H230919   7.278   7.596   3.415
10333TIP3   OH230920   7.384   7.823   3.665
10333TIP3    H130921   7.362   7.751   3.601
10333TIP3    H230922   7.305   7.879   3.661
10334TIP3   OH230923   6.079   8.433   1.978
10334TIP3    H130924   6.174   8.457   1.971
10334TIP3    H230925   6.078   8.343   1.941
10335TIP3   OH230926   6.133   8.884   2.562
10335TIP3    H130927   6.107   8.818   2.627
10335TIP3    H230928   6.183   8.946   2.619
10336TIP3   OH230929   6.322   8.297   2.958
10336TIP3    H130930   6.319   8.272   2.863
10336TIP3    H230931   6.420   8.301   2.972
10337TIP3   OH230932   6.538   7.989   3.623
10337TIP3    H130933   6.636   7.984   3.631
10337TIP3    H230934   6.513   7.904   3.665
10338TIP3   OH230935   7.782   7.676   2.124
10338TIP3    H130936   7.844   7.618   2.170
10338TIP3    H230937   7.715   7.612   2.094
10339TIP3   OH230938   6.499   7.679   2.959
10339TIP3    H130939   6.562   7.606   2.972
10339TIP3    H230940   6.560   7.755   2.955
10340TIP3   OH230941   6.302   7.953   3.035
10340TIP3    H130942   6.352   7.952   2.950
10340TIP3    H230943   6.325   8.040   3.068
10341TIP3   OH230944   6.285   7.457   2.534
10341TIP3    H130945   6.193   7.454   2.563
10341TIP3    H230946   6.281   7.517   2.456
10342TIP3   OH230947   6.505   7.535   3.347
10342TIP3    H130948   6.457   7.533   3.432
10342TIP3    H230949   6.438   7.575   3.289
10343TIP3   OH230950   6.567   8.913   3.439
10343TIP3    H130951   6.472   8.901   3.419
10343TIP3    H230952   6.566   8.933   3.534
10344TIP3   OH230953   6.718   8.991   2.970
10344TIP3    H130954   6.654   9.054   2.933
10344TIP3    H230955   6.802   9.022   2.934
10345TIP3   OH230956   8.097   7.732   3.006
10345TIP3    H130957   8.029   7.669   3.033
10345TIP3    H230958   8.179   7.682   3.020
10346TIP3   OH230959   6.291   9.002   2.758
10346TIP3    H130960   6.334   8.989   2.845
10346TIP3    H230961   6.353   9.065   2.716
10347TIP3   OH230962   6.539   8.911   2.580
10347TIP3    H130963   6.512   8.840   2.642
10347TIP3    H230964   6.632   8.921   2.605
10348TIP3   OH230965   7.353   7.668   2.696
10348TIP3    H130966   7.298   7.608   2.750
10348TIP3    H230967   7.408   7.607   2.645
10349TIP3   OH230968   7.889   7.558   2.582
10349TIP3    H130969   7.892   7.585   2.491
10349TIP3    H230970   7.793   7.564   2.600
10350TIP3   OH230971   6.596   7.379   2.702
10350TIP3    H130972   6.504   7.346   2.708
10350TIP3    H230973   6.645   7.294   2.701
10351TIP3   OH230974   6.382   7.250   2.352
10351TIP3    H130975   6.410   7.309   2.281
10351TIP3    H230976   6.353   7.314   2.421
10352TIP3   OH230977   7.088   7.378   2.587
10352TIP3    H130978   7.105   7.454   2.529
10352TIP3    H230979   7.041   7.421   2.661
10353TIP3   OH230980   7.608   7.556   2.561
10353TIP3    H130981   7.585   7.515   2.477
10353TIP3    H230982   7.587   7.484   2.624
10354TIP3   OH230983   7.606   7.463   2.133
10354TIP3    H130984   7.520   7.508   2.129
10354TIP3    H230985   7.584   7.383   2.185
10355TIP3   OH230986   6.111   8.749   2.153
10355TIP3    H130987   6.030   8.713   2.116
10355TIP3    H230988   6.104   8.842   2.125
10356TIP3   OH230989   6.498   7.408   2.117
10356TIP3    H130990   6.547   7.346   2.060
10356TIP3    H230991   6.571   7.462   2.154
10357TIP3   OH230992   7.012   7.584   2.218
10357TIP3    H130993   7.075   7.538   2.276
10357TIP3    H230994   7.033   7.677   2.241
10358TIP3   OH230995   6.809   7.658   3.599
10358TIP3    H130996   6.769   7.587   3.654
10358TIP3    H230997   6.901   7.655   3.633
10359TIP3   OH230998   7.053   7.643   3.730
10359TIP3    H130999   7.136   7.627   3.684
10359TIP3    H231000   7.047   7.560   3.784
10360TIP3   OH231001   6.179   8.800   1.797
10360TIP3    H131002   6.160   8.882   1.845
10360TIP3    H231003   6.275   8.801   1.791
10361TIP3   OH231004   7.873   7.721   3.505
10361TIP3    H131005   7.891   7.692   3.597
10361TIP3    H231006   7.961   7.713   3.464
10362TIP3   OH231007   2.232   0.856   7.617
10362TIP3    H131008   2.252   0.781   7.673
10362TIP3    H231009   2.271   0.931   7.665
10363TIP3   OH231010   1.879   1.314   7.634
10363TIP3    H131011   1.930   1.243   7.589
10363TIP3    H231012   1.881   1.286   7.726
10364TIP3   OH231013   2.293   1.085   7.788
10364TIP3    H131014   2.208   1.106   7.828
10364TIP3    H231015   2.312   1.170   7.742
10365TIP3   OH231016   2.023   1.145   7.474
10365TIP3    H131017   2.063   1.059   7.447
10365TIP3    H231018   2.084   1.207   7.429
10366TIP3   OH231019   2.140   0.921   7.366
10366TIP3    H131020   2.142   0.842   7.310
10366TIP3    H231021   2.179   0.889   7.450
10367TIP3   OH231022   2.767   0.676   7.974
10367TIP3    H131023   2.671   0.684   7.992
10367TIP3    H231024   2.769   0.684   7.877
10368TIP3   OH231025   1.758   1.051   7.497
10368TIP3    H131026   1.842   1.097   7.481
10368TIP3    H231027   1.703   1.079   7.424
10369TIP3   OH231028   2.331   0.948   6.783
10369TIP3    H131029   2.341   1.045   6.768
10369TIP3    H231030   2.424   0.919   6.770
10370TIP3   OH231031   1.674   1.288   7.250
10370TIP3    H131032   1.591   1.245   7.222
10370TIP3    H231033   1.637   1.369   7.291
10371TIP3   OH231034   1.841   1.160   6.902
10371TIP3    H131035   1.903   1.094   6.865
10371TIP3    H231036   1.878   1.174   6.992
10372TIP3   OH231037   1.911   1.202   7.163
10372TIP3    H131038   1.824   1.231   7.200
10372TIP3    H231039   1.957   1.170   7.242
10373TIP3   OH231040   2.092   0.417   6.939
10373TIP3    H131041   2.054   0.368   6.863
10373TIP3    H231042   2.178   0.445   6.901
10374TIP3   OH231043   2.505   0.766   7.956
10374TIP3    H131044   2.545   0.835   7.898
10374TIP3    H231045   2.414   0.794   7.962
10375TIP3   OH231046   2.569   0.215   7.128
10375TIP3    H131047   2.495   0.173   7.080
10375TIP3    H231048   2.563   0.305   7.090
10376TIP3   OH231049   2.261   1.021   7.043
10376TIP3    H131050   2.250   0.948   7.105
10376TIP3    H231051   2.284   0.976   6.959
10377TIP3   OH231052   2.024   0.745   6.950
10377TIP3    H131053   2.081   0.725   7.028
10377TIP3    H231054   1.940   0.709   6.980
10378TIP3   OH231055   2.363   1.223   6.770
10378TIP3    H131056   2.405   1.296   6.720
10378TIP3    H231057   2.283   1.270   6.801
10379TIP3   OH231058   2.186   0.689   7.175
10379TIP3    H131059   2.178   0.608   7.227
10379TIP3    H231060   2.282   0.686   7.154
10380TIP3   OH231061   2.318   1.354   7.707
10380TIP3    H131062   2.275   1.407   7.636
10380TIP3    H231063   2.412   1.379   7.690
10381TIP3   OH231064   1.557   0.936   6.843
10381TIP3    H131065   1.550   0.880   6.923
10381TIP3    H231066   1.631   0.891   6.797
10382TIP3   OH231067   1.987   0.969   6.767
10382TIP3    H131068   2.039   0.916   6.830
10382TIP3    H231069   2.047   0.974   6.690
10383TIP3   OH231070   2.326   0.476   6.803
10383TIP3    H131071   2.311   0.429   6.719
10383TIP3    H231072   2.294   0.566   6.778
10384TIP3   OH231073   1.308   1.208   7.016
10384TIP3    H131074   1.403   1.229   7.021
10384TIP3    H231075   1.283   1.264   6.940
10385TIP3   OH231076   2.567   1.454   7.666
10385TIP3    H131077   2.594   1.491   7.752
10385TIP3    H231078   2.627   1.500   7.605
10386TIP3   OH231079   2.595   1.485   7.943
10386TIP3    H131080   2.553   1.396   7.940
10386TIP3    H231081   2.667   1.469   8.004
10387TIP3   OH231082   2.458   0.670   7.141
10387TIP3    H131083   2.528   0.731   7.109
10387TIP3    H231084   2.504   0.631   7.219
10388TIP3   OH231085   2.589   0.542   7.341
10388TIP3    H131086   2.531   0.490   7.400
10388TIP3    H231087   2.660   0.572   7.402
10389TIP3   OH231088   2.640   0.926   7.776
10389TIP3    H131089   2.696   0.857   7.735
10389TIP3    H231090   2.645   0.998   7.710
10390TIP3   OH231091   2.478   1.239   7.970
10390TIP3    H131092   2.396   1.250   8.019
10390TIP3    H231093   2.456   1.168   7.908
10391TIP3   OH231094   2.526   0.447   6.989
10391TIP3    H131095   2.455   0.449   6.921
10391TIP3    H231096   2.498   0.521   7.046
10392TIP3   OH231097   2.393   0.110   6.948
10392TIP3    H131098   2.370   0.171   6.876
10392TIP3    H231099   2.353   0.027   6.919
10393TIP3   OH231100   2.427   0.386   7.494
10393TIP3    H131101   2.427   0.290   7.483
10393TIP3    H231102   2.399   0.397   7.586
10394TIP3   OH231103   2.157   1.322   7.322
10394TIP3    H131104   2.206   1.311   7.238
10394TIP3    H231105   2.209   1.392   7.366
10395TIP3   OH231106   1.805   1.445   7.923
10395TIP3    H131107   1.734   1.447   7.855
10395TIP3    H231108   1.781   1.520   7.977
10396TIP3   OH231109   2.055   1.378   8.007
10396TIP3    H131110   1.966   1.393   7.970
10396TIP3    H231111   2.110   1.440   7.955
10397TIP3   OH231112   2.236   1.562   7.898
10397TIP3    H131113   2.228   1.644   7.846
10397TIP3    H231114   2.275   1.500   7.834
10398TIP3   OH231115   1.576   1.184   6.979
10398TIP3    H131116   1.671   1.198   6.961
10398TIP3    H231117   1.560   1.104   6.926
10399TIP3   OH231118   2.298   1.287   7.090
10399TIP3    H131119   2.287   1.190   7.077
10399TIP3    H231120   2.256   1.321   7.009
10400TIP3   OH231121   3.790   0.805   7.049
10400TIP3    H131122   3.763   0.897   7.027
10400TIP3    H231123   3.714   0.755   7.015
10401TIP3   OH231124   3.783   0.810   7.427
10401TIP3    H131125   3.820   0.774   7.510
10401TIP3    H231126   3.757   0.729   7.380
10402TIP3   OH231127   3.099   0.717   7.805
10402TIP3    H131128   3.124   0.637   7.856
10402TIP3    H231129   3.180   0.734   7.756
10403TIP3   OH231130   4.035   1.107   7.107
10403TIP3    H131131   4.020   1.035   7.170
10403TIP3    H231132   4.065   1.179   7.164
10404TIP3   OH231133   3.064   1.108   7.517
10404TIP3    H131134   3.056   1.010   7.520
10404TIP3    H231135   3.161   1.117   7.507
10405TIP3   OH231136   2.754   0.311   7.308
10405TIP3    H131137   2.709   0.396   7.314
10405TIP3    H231138   2.683   0.256   7.269
10406TIP3   OH231139   2.829   0.597   7.466
10406TIP3    H131140   2.876   0.520   7.506
10406TIP3    H231141   2.893   0.623   7.398
10407TIP3   OH231142   3.685   1.569   7.123
10407TIP3    H131143   3.731   1.498   7.074
10407TIP3    H231144   3.677   1.530   7.211
10408TIP3   OH231145   3.591   1.030   7.476
10408TIP3    H131146   3.629   0.950   7.434
10408TIP3    H231147   3.675   1.075   7.497
10409TIP3   OH231148   4.000   0.514   7.521
10409TIP3    H131149   4.064   0.446   7.496
10409TIP3    H231150   3.961   0.531   7.433
10410TIP3   OH231151   4.003   0.319   7.105
10410TIP3    H131152   4.089   0.354   7.140
10410TIP3    H231153   4.019   0.332   7.011
10411TIP3   OH231154   2.978   0.398   7.578
10411TIP3    H131155   3.064   0.375   7.619
10411TIP3    H231156   2.990   0.352   7.492
10412TIP3   OH231157   3.414   0.591   7.380
10412TIP3    H131158   3.509   0.567   7.388
10412TIP3    H231159   3.377   0.506   7.347
10413TIP3   OH231160   4.701   0.637   7.609
10413TIP3    H131161   4.611   0.674   7.621
10413TIP3    H231162   4.695   0.556   7.663
10414TIP3   OH231163   3.687   1.027   6.914
10414TIP3    H131164   3.642   1.004   6.831
10414TIP3    H231165   3.641   1.110   6.938
10415TIP3   OH231166   3.448   0.948   7.702
10415TIP3    H131167   3.388   1.016   7.738
10415TIP3    H231168   3.490   0.995   7.627
10416TIP3   OH231169   3.229   0.314   7.651
10416TIP3    H131170   3.299   0.370   7.689
10416TIP3    H231171   3.280   0.245   7.608
10417TIP3   OH231172   3.276   1.144   7.796
10417TIP3    H131173   3.258   1.230   7.752
10417TIP3    H231174   3.190   1.130   7.839
10418TIP3   OH231175   2.663   0.833   7.035
10418TIP3    H131176   2.629   0.863   6.949
10418TIP3    H231177   2.698   0.917   7.073
10419TIP3   OH231178   4.108   1.351   7.277
10419TIP3    H131179   4.018   1.340   7.316
10419TIP3    H231180   4.097   1.435   7.230
10420TIP3   OH231181   3.809   1.395   6.949
10420TIP3    H131182   3.858   1.312   6.930
10420TIP3    H231183   3.871   1.460   6.908
10421TIP3   OH231184   3.952   1.181   6.855
10421TIP3    H131185   3.912   1.102   6.817
10421TIP3    H231186   3.988   1.145   6.940
10422TIP3   OH231187   4.334   1.265   7.617
10422TIP3    H131188   4.321   1.185   7.561
10422TIP3    H231189   4.315   1.337   7.554
10423TIP3   OH231190   3.622   0.661   6.874
10423TIP3    H131191   3.542   0.712   6.851
10423TIP3    H231192   3.668   0.657   6.788
10424TIP3   OH231193   3.587   0.428   6.595
10424TIP3    H131194   3.649   0.489   6.639
10424TIP3    H231195   3.649   0.377   6.540
10425TIP3   OH231196   4.525   0.907   7.466
10425TIP3    H131197   4.440   0.956   7.466
10425TIP3    H231198   4.553   0.920   7.373
10426TIP3   OH231199   3.953   0.744   6.837
10426TIP3    H131200   3.905   0.764   6.920
10426TIP3    H231201   4.041   0.718   6.874
10427TIP3   OH231202   4.191   0.793   7.755
10427TIP3    H131203   4.186   0.873   7.811
10427TIP3    H231204   4.104   0.797   7.710
10428TIP3   OH231205   3.205   0.737   7.264
10428TIP3    H131206   3.163   0.679   7.197
10428TIP3    H231207   3.281   0.682   7.295
10429TIP3   OH231208   3.333   1.145   7.415
10429TIP3    H131209   3.313   1.106   7.328
10429TIP3    H231210   3.423   1.111   7.432
10430TIP3   OH231211   3.329   0.708   7.624
10430TIP3    H131212   3.364   0.678   7.537
10430TIP3    H231213   3.382   0.790   7.639
10431TIP3   OH231214   3.866   1.345   7.395
10431TIP3    H131215   3.853   1.424   7.451
10431TIP3    H231216   3.851   1.271   7.457
10432TIP3   OH231217   3.486   1.274   7.938
10432TIP3    H131218   3.420   1.328   7.987
10432TIP3    H231219   3.426   1.210   7.895
10433TIP3   OH231220   3.796   0.607   6.663
10433TIP3    H131221   3.854   0.665   6.717
10433TIP3    H231222   3.829   0.628   6.572
10434TIP3   OH231223   3.222   0.834   8.068
10434TIP3    H131224   3.199   0.925   8.092
10434TIP3    H231225   3.150   0.812   8.006
10435TIP3   OH231226   3.554   1.277   6.949
10435TIP3    H131227   3.634   1.329   6.966
10435TIP3    H231228   3.494   1.341   6.908
10436TIP3   OH231229   3.275   1.442   8.013
10436TIP3    H131230   3.254   1.441   7.917
10436TIP3    H231231   3.198   1.398   8.051
10437TIP3   OH231232   3.071   0.581   7.071
10437TIP3    H131233   3.002   0.618   7.012
10437TIP3    H231234   3.039   0.492   7.087
10438TIP3   OH231235   4.126   1.204   6.268
10438TIP3    H131236   4.135   1.301   6.255
10438TIP3    H231237   4.219   1.175   6.257
10439TIP3   OH231238   2.865   0.944   7.969
10439TIP3    H131239   2.790   0.952   7.909
10439TIP3    H231240   2.856   0.850   7.995
10440TIP3   OH231241   2.704   1.153   7.613
10440TIP3    H131242   2.800   1.146   7.599
10440TIP3    H231243   2.699   1.236   7.664
10441TIP3   OH231244   4.569   1.607   7.663
10441TIP3    H131245   4.569   1.510   7.674
10441TIP3    H231246   4.485   1.630   7.709
10442TIP3   OH231247   3.680   1.395   7.794
10442TIP3    H131248   3.677   1.487   7.828
10442TIP3    H231249   3.608   1.354   7.847
10443TIP3   OH231250   3.437   1.522   6.751
10443TIP3    H131251   3.391   1.505   6.667
10443TIP3    H231252   3.404   1.610   6.776
10444TIP3   OH231253   2.874   1.370   7.135
10444TIP3    H131254   2.924   1.362   7.220
10444TIP3    H231255   2.815   1.293   7.143
10445TIP3   OH231256   3.638   1.423   6.391
10445TIP3    H131257   3.697   1.354   6.355
10445TIP3    H231258   3.672   1.433   6.482
10446TIP3   OH231259   3.688   1.470   6.661
10446TIP3    H131260   3.599   1.481   6.702
10446TIP3    H231261   3.737   1.429   6.733
10447TIP3   OH231262   4.459   0.721   7.932
10447TIP3    H131263   4.387   0.775   7.895
10447TIP3    H231264   4.460   0.650   7.865
10448TIP3   OH231265   3.036   1.159   7.934
10448TIP3    H131266   3.074   1.140   8.023
10448TIP3    H231267   2.971   1.085   7.931
10449TIP3   OH231268   4.221   0.544   7.866
10449TIP3    H131269   4.200   0.576   7.955
10449TIP3    H231270   4.206   0.626   7.814
10450TIP3   OH231271   3.891   0.644   6.414
10450TIP3    H131272   3.856   0.619   6.326
10450TIP3    H231273   3.972   0.692   6.389
10451TIP3   OH231274   3.406   0.490   7.773
10451TIP3    H131275   3.348   0.505   7.851
10451TIP3    H231276   3.385   0.568   7.718
10452TIP3   OH231277   3.285   0.371   7.283
10452TIP3    H131278   3.193   0.350   7.306
10452TIP3    H231279   3.288   0.341   7.189
10453TIP3   OH231280   3.754   0.463   7.008
10453TIP3    H131281   3.702   0.535   6.965
10453TIP3    H231282   3.811   0.434   6.934
10454TIP3   OH231283   3.970   0.737   8.049
10454TIP3    H131284   3.931   0.712   8.136
10454TIP3    H231285   4.062   0.755   8.076
10455TIP3   OH231286   3.897   0.518   7.261
10455TIP3    H131287   3.850   0.539   7.178
10455TIP3    H231288   3.930   0.429   7.236
10456TIP3   OH231289   3.214   0.526   7.973
10456TIP3    H131290   3.248   0.572   8.051
10456TIP3    H231291   3.178   0.445   8.011
10457TIP3   OH231292   2.813   0.095   7.070
10457TIP3    H131293   2.828   0.136   6.982
10457TIP3    H231294   2.742   0.152   7.105
10458TIP3   OH231295   3.925   0.730   7.665
10458TIP3    H131296   3.961   0.655   7.612
10458TIP3    H231297   3.900   0.680   7.745
10459TIP3   OH231298   3.026   0.287   7.333
10459TIP3    H131299   2.929   0.282   7.314
10459TIP3    H231300   3.049   0.193   7.345
10460TIP3   OH231301   3.316   0.266   7.034
10460TIP3    H131302   3.408   0.257   7.005
10460TIP3    H231303   3.264   0.263   6.951
10461TIP3   OH231304   3.138   0.274   6.811
10461TIP3    H131305   3.071   0.232   6.754
10461TIP3    H231306   3.194   0.316   6.744
10462TIP3   OH231307   4.261   1.957   7.762
10462TIP3    H131308   4.255   1.978   7.667
10462TIP3    H231309   4.338   2.009   7.790
10463TIP3   OH231310   3.678   0.515   7.438
10463TIP3    H131311   3.755   0.490   7.384
10463TIP3    H231312   3.695   0.466   7.520
10464TIP3   OH231313   3.672   0.404   7.743
10464TIP3    H131314   3.579   0.436   7.751
10464TIP3    H231315   3.722   0.477   7.785
10465TIP3   OH231316   3.391   0.811   6.823
10465TIP3    H131317   3.321   0.743   6.813
10465TIP3    H231318   3.375   0.843   6.914
10466TIP3   OH231319   4.293   1.049   7.455
10466TIP3    H131320   4.316   1.096   7.373
10466TIP3    H231321   4.206   1.010   7.433
10467TIP3   OH231322   3.801   0.180   6.631
10467TIP3    H131323   3.756   0.117   6.688
10467TIP3    H231324   3.856   0.228   6.696
10468TIP3   OH231325   3.800   1.129   7.821
10468TIP3    H131326   3.813   1.100   7.912
10468TIP3    H231327   3.754   1.213   7.831
10469TIP3   OH231328   3.906   0.380   6.791
10469TIP3    H131329   4.004   0.373   6.795
10469TIP3    H231330   3.894   0.459   6.735
10470TIP3   OH231331   3.086   0.829   7.497
10470TIP3    H131332   3.123   0.805   7.410
10470TIP3    H231333   3.132   0.767   7.555
10471TIP3   OH231334   3.539   0.958   6.644
10471TIP3    H131335   3.492   1.044   6.650
10471TIP3    H231336   3.485   0.903   6.705
10472TIP3   OH231337   3.679   0.883   8.118
10472TIP3    H131338   3.615   0.823   8.076
10472TIP3    H231339   3.762   0.834   8.106
10473TIP3   OH231340   3.956   1.393   7.714
10473TIP3    H131341   3.860   1.383   7.727
10473TIP3    H231342   3.981   1.442   7.795
10474TIP3   OH231343   4.353   0.470   6.619
10474TIP3    H131344   4.283   0.431   6.562
10474TIP3    H231345   4.355   0.560   6.581
10475TIP3   OH231346   4.584   1.323   7.703
10475TIP3    H131347   4.486   1.316   7.694
10475TIP3    H231348   4.611   1.287   7.615
10476TIP3   OH231349   4.066   1.277   6.535
10476TIP3    H131350   4.039   1.208   6.597
10476TIP3    H231351   4.077   1.228   6.451
10477TIP3   OH231352   4.047   0.929   7.391
10477TIP3    H131353   3.954   0.901   7.392
10477TIP3    H231354   4.088   0.846   7.357
10478TIP3   OH231355   3.188   1.135   7.127
10478TIP3    H131356   3.189   1.216   7.072
10478TIP3    H231357   3.094   1.118   7.134
10479TIP3   OH231358   2.745   0.450   6.819
10479TIP3    H131359   2.797   0.530   6.845
10479TIP3    H231360   2.673   0.452   6.886
10480TIP3   OH231361   3.326   0.900   7.068
10480TIP3    H131362   3.291   0.989   7.089
10480TIP3    H231363   3.292   0.848   7.144
10481TIP3   OH231364   3.457   1.478   7.595
10481TIP3    H131365   3.497   1.551   7.544
10481TIP3    H231366   3.535   1.442   7.641
10482TIP3   OH231367   3.108   1.373   6.977
10482TIP3    H131368   3.022   1.383   7.023
10482TIP3    H231369   3.141   1.465   6.979
10483TIP3   OH231370   3.847   1.113   7.551
10483TIP3    H131371   3.841   1.108   7.649
10483TIP3    H231372   3.926   1.059   7.534
10484TIP3   OH231373   3.819   1.005   6.434
10484TIP3    H131374   3.873   0.980   6.513
10484TIP3    H231375   3.731   0.978   6.465
10485TIP3   OH231376   4.095   1.647   7.605
10485TIP3    H131377   4.017   1.588   7.599
10485TIP3    H231378   4.078   1.710   7.531
10486TIP3   OH231379   4.160   1.480   6.255
10486TIP3    H131380   4.196   1.553   6.203
10486TIP3    H231381   4.079   1.524   6.290
10487TIP3   OH231382   3.980   0.942   6.649
10487TIP3    H131383   3.964   0.876   6.719
10487TIP3    H231384   4.077   0.936   6.641
10488TIP3   OH231385   2.894   1.340   7.752
10488TIP3    H131386   2.950   1.270   7.791
10488TIP3    H231387   2.928   1.418   7.796
10489TIP3   OH231388   3.185   0.985   6.436
10489TIP3    H131389   3.201   0.893   6.407
10489TIP3    H231390   3.166   0.973   6.531
10490TIP3   OH231391   3.130   0.990   6.709
10490TIP3    H131392   3.205   0.962   6.764
10490TIP3    H231393   3.136   1.088   6.716
10491TIP3   OH231394   2.865   0.684   6.911
10491TIP3    H131395   2.801   0.730   6.969
10491TIP3    H231396   2.883   0.753   6.845
10492TIP3   OH231397   3.397   1.187   6.656
10492TIP3    H131398   3.310   1.215   6.693
10492TIP3    H231399   3.413   1.260   6.595
10493TIP3   OH231400   3.603   0.245   7.072
10493TIP3    H131401   3.657   0.322   7.044
10493TIP3    H231402   3.610   0.253   7.168
10494TIP3   OH231403   3.864   0.561   7.872
10494TIP3    H131404   3.878   0.633   7.936
10494TIP3    H231405   3.912   0.489   7.915
10495TIP3   OH231406   3.140   1.263   6.724
10495TIP3    H131407   3.110   1.333   6.661
10495TIP3    H231408   3.125   1.307   6.810
10496TIP3   OH231409   4.136   0.693   7.288
10496TIP3    H131410   4.068   0.629   7.263
10496TIP3    H231411   4.213   0.634   7.298
10497TIP3   OH231412   2.857   0.894   6.715
10497TIP3    H131413   2.924   0.964   6.726
10497TIP3    H231414   2.904   0.839   6.649
10498TIP3   OH231415   2.790   0.183   6.820
10498TIP3    H131416   2.797   0.280   6.815
10498TIP3    H231417   2.708   0.166   6.772
10499TIP3   OH231418   4.114   1.622   7.197
10499TIP3    H131419   4.071   1.669   7.122
10499TIP3    H231420   4.208   1.639   7.175
10500TIP3   OH231421   2.729   1.102   7.105
10500TIP3    H131422   2.657   1.139   7.158
10500TIP3    H231423   2.710   1.144   7.018
10501TIP3   OH231424   3.385   1.585   8.229
10501TIP3    H131425   3.468   1.624   8.200
10501TIP3    H231426   3.348   1.551   8.145
10502TIP3   OH231427   3.350   1.189   6.348
10502TIP3    H131428   3.293   1.118   6.386
10502TIP3    H231429   3.425   1.136   6.317
10503TIP3   OH231430   4.006   1.522   7.955
10503TIP3    H131431   3.999   1.453   8.024
10503TIP3    H231432   4.083   1.573   7.985
10504TIP3   OH231433   3.786   1.230   6.260
10504TIP3    H131434   3.829   1.165   6.319
10504TIP3    H231435   3.844   1.228   6.181
10505TIP3   OH231436   2.993   0.706   6.569
10505TIP3    H131437   3.049   0.672   6.641
10505TIP3    H231438   3.060   0.710   6.497
10506TIP3   OH231439   3.671   1.161   8.144
10506TIP3    H131440   3.586   1.171   8.097
10506TIP3    H231441   3.685   1.064   8.135
10507TIP3   OH231442   3.501   0.907   6.376
10507TIP3    H131443   3.506   0.918   6.473
10507TIP3    H231444   3.503   0.809   6.369
10508TIP3   OH231445   4.117   1.149   7.756
10508TIP3    H131446   4.190   1.194   7.711
10508TIP3    H231447   4.043   1.211   7.740
10509TIP3   OH231448   3.201   0.610   6.792
10509TIP3    H131449   3.179   0.567   6.876
10509TIP3    H231450   3.238   0.535   6.740
10510TIP3   OH231451   3.473   0.709   8.028
10510TIP3    H131452   3.387   0.753   8.016
10510TIP3    H231453   3.516   0.716   7.940
10511TIP3   OH231454   3.302   0.404   6.634
10511TIP3    H131455   3.276   0.404   6.540
10511TIP3    H231456   3.400   0.404   6.625
10512TIP3   OH231457   3.994   1.083   8.125
10512TIP3    H131458   4.077   1.047   8.090
10512TIP3    H231459   3.982   1.031   8.206
10513TIP3   OH231460   4.126   0.734   6.291
10513TIP3    H131461   4.105   0.690   6.206
10513TIP3    H231462   4.092   0.825   6.270
10514TIP3   OH231463   3.634   0.780   7.812
10514TIP3    H131464   3.714   0.795   7.761
10514TIP3    H231465   3.575   0.850   7.777
10515TIP3   OH231466   4.221   0.751   8.155
10515TIP3    H131467   4.242   0.683   8.222
10515TIP3    H231468   4.307   0.792   8.137
10516TIP3   OH231469   4.246   1.005   7.940
10516TIP3    H131470   4.183   1.057   7.885
10516TIP3    H231471   4.330   1.033   7.897
10517TIP3   OH231472   3.109   1.464   6.535
10517TIP3    H131473   3.205   1.461   6.518
10517TIP3    H231474   3.080   1.515   6.458
10518TIP3   OH231475   2.590   0.847   6.753
10518TIP3    H131476   2.684   0.871   6.738
10518TIP3    H231477   2.586   0.758   6.713
10519TIP3   OH231478   2.504   1.458   7.166
10519TIP3    H131479   2.437   1.396   7.129
10519TIP3    H231480   2.548   1.401   7.232
10520TIP3   OH231481   2.641   1.310   7.352
10520TIP3    H131482   2.631   1.237   7.416
10520TIP3    H231483   2.692   1.373   7.405
10521TIP3   OH231484   4.367   1.713   7.153
10521TIP3    H131485   4.395   1.744   7.240
10521TIP3    H231486   4.430   1.756   7.093
10522TIP3   OH231487   4.398   1.732   7.435
10522TIP3    H131488   4.351   1.646   7.429
10522TIP3    H231489   4.472   1.705   7.491
10523TIP3   OH231490   4.446   1.411   8.007
10523TIP3    H131491   4.372   1.415   8.071
10523TIP3    H231492   4.485   1.500   8.014
10524TIP3   OH231493   4.258   0.924   6.627
10524TIP3    H131494   4.327   0.987   6.596
10524TIP3    H231495   4.303   0.885   6.705
10525TIP3   OH231496   4.394   0.798   6.825
10525TIP3    H131497   4.321   0.758   6.878
10525TIP3    H231498   4.456   0.829   6.893
10526TIP3   OH231499   4.442   1.182   7.265
10526TIP3    H131500   4.494   1.114   7.218
10526TIP3    H231501   4.433   1.251   7.197
10527TIP3   OH231502   4.273   1.484   7.458
10527TIP3    H131503   4.200   1.522   7.509
10527TIP3    H231504   4.225   1.435   7.388
10528TIP3   OH231505   4.324   0.702   6.476
10528TIP3    H131506   4.252   0.704   6.409
10528TIP3    H231507   4.295   0.776   6.534
10529TIP3   OH231508   4.180   0.372   6.431
10529TIP3    H131509   4.156   0.423   6.353
10529TIP3    H231510   4.159   0.282   6.405
10530TIP3   OH231511   4.189   0.677   6.959
10530TIP3    H131512   4.210   0.582   6.973
10530TIP3    H231513   4.192   0.703   7.052
10531TIP3   OH231514   2.826   0.731   7.711
10531TIP3    H131515   2.832   0.695   7.621
10531TIP3    H231516   2.921   0.734   7.737
10532TIP3   OH231517   4.476   1.086   7.827
10532TIP3    H131518   4.549   1.021   7.824
10532TIP3    H231519   4.505   1.153   7.763
10533TIP3   OH231520   4.658   0.903   7.873
10533TIP3    H131521   4.590   0.837   7.896
10533TIP3    H231522   4.736   0.845   7.883
10534TIP3   OH231523   4.170   0.377   6.840
10534TIP3    H131524   4.207   0.324   6.914
10534TIP3    H231525   4.248   0.427   6.812
10535TIP3   OH231526   4.364   0.571   7.425
10535TIP3    H131527   4.434   0.574   7.357
10535TIP3    H231528   4.410   0.606   7.503
10536TIP3   OH231529   4.437   0.721   7.645
10536TIP3    H131530   4.343   0.740   7.661
10536TIP3    H231531   4.460   0.790   7.580
10537TIP3   OH231532   2.824   0.375   7.807
10537TIP3    H131533   2.870   0.380   7.721
10537TIP3    H231534   2.837   0.463   7.842
10538TIP3   OH231535   3.953   1.578   6.810
10538TIP3    H131536   4.002   1.564   6.727
10538TIP3    H231537   4.007   1.645   6.854
10539TIP3   OH231538   3.231   1.417   7.741
10539TIP3    H131539   3.184   1.493   7.700
10539TIP3    H231540   3.318   1.431   7.696
10540TIP3   OH231541   3.675   1.660   7.882
10540TIP3    H131542   3.718   1.664   7.970
10540TIP3    H231543   3.740   1.710   7.828
10541TIP3   OH231544   3.853   1.810   7.739
10541TIP3    H131545   3.923   1.760   7.696
10541TIP3    H231546   3.905   1.867   7.800
10542TIP3   OH231547   2.907   1.668   7.774
10542TIP3    H131548   2.819   1.698   7.744
10542TIP3    H231549   2.920   1.728   7.849
10543TIP3   OH231550   3.142   1.648   7.623
10543TIP3    H131551   3.056   1.663   7.668
10543TIP3    H231552   3.124   1.684   7.534
10544TIP3   OH231553   3.569   1.679   7.423
10544TIP3    H131554   3.500   1.698   7.356
10544TIP3    H231555   3.581   1.767   7.464
10545TIP3   OH231556   3.838   1.620   7.475
10545TIP3    H131557   3.743   1.635   7.455
10545TIP3    H231558   3.880   1.695   7.430
10546TIP3   OH231559   4.050   1.812   7.390
10546TIP3    H131560   4.032   1.895   7.340
10546TIP3    H231561   4.073   1.750   7.317
10547TIP3   OH231562   2.815   1.463   7.510
10547TIP3    H131563   2.841   1.437   7.601
10547TIP3    H231564   2.889   1.421   7.460
10548TIP3   OH231565   3.011   1.336   7.369
10548TIP3    H131566   3.029   1.253   7.418
10548TIP3    H231567   3.102   1.374   7.362
10549TIP3   OH231568   3.277   1.431   7.371
10549TIP3    H131569   3.310   1.340   7.358
10549TIP3    H231570   3.321   1.453   7.455
10550TIP3   OH231571   2.605   1.237   6.905
10550TIP3    H131572   2.520   1.206   6.869
10550TIP3    H231573   2.597   1.332   6.889
10551TIP3   OH231574   3.378   1.426   6.485
10551TIP3    H131575   3.466   1.449   6.449
10551TIP3    H231576   3.356   1.351   6.425
10552TIP3   OH231577   4.098   1.544   6.577
10552TIP3    H131578   4.090   1.446   6.566
10552TIP3    H231579   4.051   1.575   6.497
10553TIP3   OH231580   2.681   1.260   6.541
10553TIP3    H131581   2.685   1.291   6.633
10553TIP3    H231582   2.770   1.220   6.528
10554TIP3   OH231583   4.322   1.688   7.768
10554TIP3    H131584   4.246   1.655   7.716
10554TIP3    H231585   4.302   1.783   7.769
10555TIP3   OH231586   5.589   1.060   6.534
10555TIP3    H131587   5.562   1.152   6.513
10555TIP3    H231588   5.512   1.012   6.499
10556TIP3   OH231589   5.588   1.062   6.910
10556TIP3    H131590   5.615   1.029   6.997
10556TIP3    H231591   5.550   0.983   6.868
10557TIP3   OH231592   4.888   0.961   7.277
10557TIP3    H131593   4.921   0.888   7.333
10557TIP3    H231594   4.970   1.010   7.263
10558TIP3   OH231595   5.827   1.367   6.592
10558TIP3    H131596   5.820   1.291   6.652
10558TIP3    H231597   5.861   1.437   6.651
10559TIP3   OH231598   4.860   1.367   7.004
10559TIP3    H131599   4.851   1.269   7.006
10559TIP3    H231600   4.956   1.375   6.997
10560TIP3   OH231601   4.560   0.574   6.786
10560TIP3    H131602   4.504   0.653   6.795
10560TIP3    H231603   4.493   0.504   6.780
10561TIP3   OH231604   4.630   0.859   6.961
10561TIP3    H131605   4.673   0.779   6.999
10561TIP3    H231606   4.683   0.874   6.882
10562TIP3   OH231607   5.485   1.829   6.616
10562TIP3    H131608   5.529   1.760   6.561
10562TIP3    H231609   5.476   1.782   6.699
10563TIP3   OH231610   5.387   1.287   6.962
10563TIP3    H131611   5.423   1.210   6.915
10563TIP3    H231612   5.472   1.331   6.984
10564TIP3   OH231613   5.802   0.775   7.003
10564TIP3    H131614   5.835   0.685   6.990
10564TIP3    H231615   5.757   0.788   6.917
10565TIP3   OH231616   5.815   0.592   6.590
10565TIP3    H131617   5.908   0.564   6.599
10565TIP3    H231618   5.801   0.577   6.495
10566TIP3   OH231619   4.772   0.652   7.065
10566TIP3    H131620   4.859   0.633   7.106
10566TIP3    H231621   4.784   0.605   6.980
10567TIP3   OH231622   5.212   0.849   6.860
10567TIP3    H131623   5.305   0.822   6.874
10567TIP3    H231624   5.172   0.763   6.832
10568TIP3   OH231625   6.488   0.901   7.100
10568TIP3    H131626   6.392   0.918   7.093
10568TIP3    H231627   6.489   0.817   7.151
10569TIP3   OH231628   5.481   1.281   6.402
10569TIP3    H131629   5.438   1.262   6.318
10569TIP3    H231630   5.438   1.365   6.427
10570TIP3   OH231631   5.245   1.206   7.192
10570TIP3    H131632   5.180   1.270   7.228
10570TIP3    H231633   5.283   1.256   7.116
10571TIP3   OH231634   5.024   0.573   7.137
10571TIP3    H131635   5.096   0.627   7.175
10571TIP3    H231636   5.072   0.499   7.097
10572TIP3   OH231637   5.069   1.399   7.287
10572TIP3    H131638   5.042   1.484   7.247
10572TIP3    H231639   4.989   1.382   7.342
10573TIP3   OH231640   4.464   1.090   6.520
10573TIP3    H131641   4.422   1.119   6.438
10573TIP3    H231642   4.495   1.174   6.559
10574TIP3   OH231643   5.904   1.607   6.765
10574TIP3    H131644   5.813   1.596   6.803
10574TIP3    H231645   5.893   1.691   6.716
10575TIP3   OH231646   5.608   1.653   6.447
10575TIP3    H131647   5.657   1.571   6.422
10575TIP3    H231648   5.660   1.719   6.395
10576TIP3   OH231649   5.747   1.440   6.339
10576TIP3    H131650   5.714   1.358   6.299
10576TIP3    H231651   5.783   1.406   6.424
10577TIP3   OH231652   6.128   1.521   7.104
10577TIP3    H131653   6.117   1.442   7.046
10577TIP3    H231654   6.112   1.594   7.041
10578TIP3   OH231655   5.418   0.916   6.361
10578TIP3    H131656   5.338   0.968   6.340
10578TIP3    H231657   5.465   0.915   6.276
10579TIP3   OH231658   5.385   0.688   6.078
10579TIP3    H131659   5.446   0.748   6.126
10579TIP3    H231660   5.448   0.637   6.024
10580TIP3   OH231661   6.318   1.155   6.953
10580TIP3    H131662   6.236   1.210   6.955
10580TIP3    H231663   6.352   1.179   6.864
10581TIP3   OH231664   5.764   0.992   6.332
10581TIP3    H131665   5.712   1.015   6.412
10581TIP3    H231666   5.850   0.969   6.373
10582TIP3   OH231667   5.996   1.049   7.242
10582TIP3    H131668   5.993   1.135   7.289
10582TIP3    H231669   5.909   1.051   7.197
10583TIP3   OH231670   5.001   0.994   6.750
10583TIP3    H131671   4.958   0.936   6.683
10583TIP3    H231672   5.076   0.939   6.780
10584TIP3   OH231673   5.130   1.406   6.899
10584TIP3    H131674   5.107   1.363   6.816
10584TIP3    H231675   5.220   1.369   6.917
10585TIP3   OH231676   5.141   0.961   7.110
10585TIP3    H131677   5.166   0.938   7.019
10585TIP3    H231678   5.182   1.048   7.123
10586TIP3   OH231679   5.661   1.602   6.882
10586TIP3    H131680   5.649   1.680   6.939
10586TIP3    H231681   5.646   1.527   6.944
10587TIP3   OH231682   5.274   1.522   7.428
10587TIP3    H131683   5.213   1.583   7.475
10587TIP3    H231684   5.210   1.467   7.379
10588TIP3   OH231685   5.596   0.868   6.153
10588TIP3    H131686   5.657   0.923   6.207
10588TIP3    H231687   5.628   0.888   6.062
10589TIP3   OH231688   5.030   1.077   7.531
10589TIP3    H131689   5.032   1.162   7.577
10589TIP3    H231690   4.935   1.056   7.537
10590TIP3   OH231691   5.352   1.535   6.435
10590TIP3    H131692   5.432   1.588   6.449
10590TIP3    H231693   5.291   1.597   6.393
10591TIP3   OH231694   5.068   1.691   7.516
10591TIP3    H131695   5.034   1.688   7.425
10591TIP3    H231696   4.988   1.668   7.568
10592TIP3   OH231697   4.869   0.837   6.555
10592TIP3    H131698   4.798   0.875   6.499
10592TIP3    H231699   4.833   0.750   6.577
10593TIP3   OH231700   5.923   1.465   5.753
10593TIP3    H131701   5.939   1.560   5.742
10593TIP3    H231702   6.013   1.428   5.740
10594TIP3   OH231703   4.649   1.218   7.462
10594TIP3    H131704   4.582   1.196   7.394
10594TIP3    H231705   4.684   1.130   7.486
10595TIP3   OH231706   4.501   1.414   7.092
10595TIP3    H131707   4.596   1.403   7.085
10595TIP3    H231708   4.493   1.491   7.149
10596TIP3   OH231709   6.365   1.864   7.150
10596TIP3    H131710   6.365   1.767   7.162
10596TIP3    H231711   6.283   1.888   7.197
10597TIP3   OH231712   5.472   1.649   7.286
10597TIP3    H131713   5.471   1.741   7.319
10597TIP3    H231714   5.400   1.609   7.340
10598TIP3   OH231715   5.210   1.767   6.240
10598TIP3    H131716   5.188   1.754   6.146
10598TIP3    H231717   5.199   1.862   6.253
10599TIP3   OH231718   4.670   1.628   6.622
10599TIP3    H131719   4.718   1.618   6.708
10599TIP3    H231720   4.615   1.548   6.623
10600TIP3   OH231721   5.482   1.760   6.201
10600TIP3    H131722   5.386   1.745   6.211
10600TIP3    H231723   5.519   1.672   6.214
10601TIP3   OH231724   6.252   0.978   7.419
10601TIP3    H131725   6.178   1.029   7.383
10601TIP3    H231726   6.259   0.906   7.354
10602TIP3   OH231727   4.850   1.404   7.454
10602TIP3    H131728   4.902   1.383   7.534
10602TIP3    H231729   4.778   1.338   7.458
10603TIP3   OH231730   6.011   0.794   7.343
10603TIP3    H131731   6.001   0.819   7.436
10603TIP3    H231732   6.001   0.881   7.299
10604TIP3   OH231733   5.686   0.895   5.900
10604TIP3    H131734   5.653   0.874   5.811
10604TIP3    H231735   5.764   0.950   5.879
10605TIP3   OH231736   5.205   0.744   7.263
10605TIP3    H131737   5.142   0.757   7.337
10605TIP3    H231738   5.184   0.822   7.207
10606TIP3   OH231739   5.084   0.626   6.770
10606TIP3    H131740   4.992   0.605   6.795
10606TIP3    H231741   5.084   0.598   6.675
10607TIP3   OH231742   5.551   0.721   6.496
10607TIP3    H131743   5.498   0.792   6.454
10607TIP3    H231744   5.609   0.694   6.421
10608TIP3   OH231745   5.735   0.990   7.575
10608TIP3    H131746   5.704   0.931   7.647
10608TIP3    H231747   5.826   1.009   7.604
10609TIP3   OH231748   5.699   0.777   6.750
10609TIP3    H131749   5.649   0.806   6.671
10609TIP3    H231750   5.734   0.692   6.713
10610TIP3   OH231751   5.003   0.776   7.456
10610TIP3    H131752   5.020   0.834   7.531
10610TIP3    H231753   4.942   0.711   7.494
10611TIP3   OH231754   4.603   0.351   6.555
10611TIP3    H131755   4.616   0.397   6.469
10611TIP3    H231756   4.532   0.404   6.595
10612TIP3   OH231757   5.728   0.986   7.156
10612TIP3    H131758   5.762   0.913   7.099
10612TIP3    H231759   5.700   0.935   7.234
10613TIP3   OH231760   4.827   0.544   6.820
10613TIP3    H131761   4.731   0.543   6.797
10613TIP3    H231762   4.845   0.448   6.832
10614TIP3   OH231763   5.115   0.524   6.519
10614TIP3    H131764   5.204   0.511   6.482
10614TIP3    H231765   5.056   0.520   6.440
10615TIP3   OH231766   4.937   0.528   6.301
10615TIP3    H131767   4.862   0.493   6.251
10615TIP3    H231768   4.990   0.569   6.229
10616TIP3   OH231769   6.056   2.214   7.250
10616TIP3    H131770   6.055   2.237   7.155
10616TIP3    H231771   6.136   2.262   7.280
10617TIP3   OH231772   5.014   1.327   7.672
10617TIP3    H131773   5.094   1.353   7.721
10617TIP3    H231774   4.950   1.321   7.746
10618TIP3   OH231775   5.475   0.773   6.930
10618TIP3    H131776   5.550   0.741   6.876
10618TIP3    H231777   5.485   0.723   7.012
10619TIP3   OH231778   5.473   0.668   7.227
10619TIP3    H131779   5.378   0.692   7.235
10619TIP3    H231780   5.516   0.743   7.273
10620TIP3   OH231781   5.189   1.067   6.311
10620TIP3    H131782   5.118   0.999   6.301
10620TIP3    H231783   5.171   1.100   6.402
10621TIP3   OH231784   6.089   1.304   6.941
10621TIP3    H131785   6.113   1.353   6.860
10621TIP3    H231786   6.005   1.259   6.915
10622TIP3   OH231787   5.601   0.438   6.111
10622TIP3    H131788   5.540   0.382   6.157
10622TIP3    H231789   5.651   0.480   6.184
10623TIP3   OH231790   5.597   1.386   7.308
10623TIP3    H131791   5.609   1.359   7.399
10623TIP3    H231792   5.551   1.472   7.316
10624TIP3   OH231793   5.702   0.639   6.277
10624TIP3    H131794   5.799   0.638   6.290
10624TIP3    H231795   5.690   0.719   6.223
10625TIP3   OH231796   4.889   1.093   6.987
10625TIP3    H131797   4.922   1.059   6.901
10625TIP3    H231798   4.915   1.022   7.048
10626TIP3   OH231799   5.335   1.214   6.131
10626TIP3    H131800   5.287   1.300   6.135
10626TIP3    H231801   5.281   1.160   6.193
10627TIP3   OH231802   4.764   1.006   7.599
10627TIP3    H131803   4.782   0.992   7.694
10627TIP3    H231804   4.698   0.937   7.581
10628TIP3   OH231805   5.489   1.122   7.618
10628TIP3    H131806   5.424   1.060   7.580
10628TIP3    H231807   5.572   1.086   7.582
10629TIP3   OH231808   5.752   1.647   7.202
10629TIP3    H131809   5.656   1.640   7.216
10629TIP3    H231810   5.778   1.697   7.283
10630TIP3   OH231811   6.148   0.723   6.117
10630TIP3    H131812   6.083   0.686   6.054
10630TIP3    H231813   6.154   0.814   6.079
10631TIP3   OH231814   6.379   1.577   7.190
10631TIP3    H131815   6.281   1.572   7.181
10631TIP3    H231816   6.406   1.543   7.102
10632TIP3   OH231817   5.869   1.533   6.022
10632TIP3    H131818   5.840   1.469   6.089
10632TIP3    H231819   5.875   1.479   5.942
10633TIP3   OH231820   5.856   1.165   6.866
10633TIP3    H131821   5.762   1.139   6.873
10633TIP3    H231822   5.891   1.088   6.816
10634TIP3   OH231823   4.984   1.392   6.614
10634TIP3    H131824   4.983   1.472   6.558
10634TIP3    H231825   4.890   1.371   6.621
10635TIP3   OH231826   4.540   0.708   6.308
10635TIP3    H131827   4.590   0.788   6.335
10635TIP3    H231828   4.467   0.709   6.374
10636TIP3   OH231829   5.124   1.157   6.556
10636TIP3    H131830   5.088   1.246   6.577
10636TIP3    H231831   5.088   1.104   6.630
10637TIP3   OH231832   5.253   1.736   7.082
10637TIP3    H131833   5.296   1.806   7.030
10637TIP3    H231834   5.329   1.698   7.129
10638TIP3   OH231835   4.903   1.630   6.464
10638TIP3    H131836   4.817   1.638   6.511
10638TIP3    H231837   4.933   1.723   6.465
10639TIP3   OH231838   5.643   1.369   7.039
10639TIP3    H131839   5.635   1.366   7.137
10639TIP3    H231840   5.721   1.313   7.023
10640TIP3   OH231841   5.618   1.250   5.928
10640TIP3    H131842   5.670   1.227   6.008
10640TIP3    H231843   5.528   1.234   5.959
10641TIP3   OH231844   5.890   1.904   7.092
10641TIP3    H131845   5.812   1.845   7.086
10641TIP3    H231846   5.873   1.966   7.019
10642TIP3   OH231847   5.954   1.758   5.738
10642TIP3    H131848   5.928   1.781   5.647
10642TIP3    H231849   5.874   1.784   5.786
10643TIP3   OH231850   5.779   1.196   6.144
10643TIP3    H131851   5.772   1.128   6.215
10643TIP3    H231852   5.876   1.193   6.127
10644TIP3   OH231853   4.692   1.598   7.241
10644TIP3    H131854   4.742   1.519   7.267
10644TIP3    H231855   4.724   1.662   7.305
10645TIP3   OH231856   4.981   1.242   5.921
10645TIP3    H131857   4.998   1.150   5.894
10645TIP3    H231858   4.963   1.231   6.017
10646TIP3   OH231859   4.928   1.247   6.194
10646TIP3    H131860   5.000   1.219   6.252
10646TIP3    H231861   4.933   1.345   6.202
10647TIP3   OH231862   4.664   0.941   6.398
10647TIP3    H131863   4.598   0.986   6.456
10647TIP3    H231864   4.678   1.011   6.331
10648TIP3   OH231865   5.194   1.446   6.141
10648TIP3    H131866   5.108   1.472   6.178
10648TIP3    H231867   5.213   1.521   6.083
10649TIP3   OH231868   5.412   0.496   6.555
10649TIP3    H131869   5.458   0.579   6.533
10649TIP3    H231870   5.393   0.509   6.648
10650TIP3   OH231871   5.663   0.824   7.366
10650TIP3    H131872   5.663   0.894   7.435
10650TIP3    H231873   5.700   0.749   7.416
10651TIP3   OH231874   4.936   1.519   6.210
10651TIP3    H131875   4.908   1.590   6.148
10651TIP3    H231876   4.922   1.563   6.297
10652TIP3   OH231877   5.937   0.933   6.740
10652TIP3    H131878   5.862   0.873   6.748
10652TIP3    H231879   6.011   0.882   6.781
10653TIP3   OH231880   4.655   1.151   6.202
10653TIP3    H131881   4.722   1.220   6.213
10653TIP3    H231882   4.701   1.095   6.136
10654TIP3   OH231883   4.591   0.443   6.303
10654TIP3    H131884   4.586   0.540   6.302
10654TIP3    H231885   4.506   0.416   6.265
10655TIP3   OH231886   5.910   1.880   6.684
10655TIP3    H131887   5.866   1.927   6.610
10655TIP3    H231888   6.004   1.898   6.662
10656TIP3   OH231889   4.528   1.368   6.591
10656TIP3    H131890   4.455   1.396   6.647
10656TIP3    H231891   4.500   1.405   6.505
10657TIP3   OH231892   4.680   1.903   7.666
10657TIP3    H131893   4.769   1.899   7.707
10657TIP3    H231894   4.659   1.809   7.659
10658TIP3   OH231895   5.164   1.872   7.706
10658TIP3    H131896   5.258   1.850   7.714
10658TIP3    H231897   5.138   1.812   7.633
10659TIP3   OH231898   5.146   1.449   5.834
10659TIP3    H131899   5.091   1.377   5.872
10659TIP3    H231900   5.223   1.397   5.803
10660TIP3   OH231901   5.802   1.778   7.441
10660TIP3    H131902   5.793   1.707   7.510
10660TIP3    H231903   5.881   1.827   7.472
10661TIP3   OH231904   5.572   1.460   5.727
10661TIP3    H131905   5.619   1.438   5.809
10661TIP3    H231906   5.643   1.491   5.669
10662TIP3   OH231907   4.811   1.313   7.863
10662TIP3    H131908   4.828   1.217   7.869
10662TIP3    H231909   4.725   1.314   7.816
10663TIP3   OH231910   4.790   0.964   6.056
10663TIP3    H131911   4.843   0.929   6.129
10663TIP3    H231912   4.859   0.968   5.985
10664TIP3   OH231913   5.420   1.397   7.636
10664TIP3    H131914   5.378   1.412   7.550
10664TIP3    H231915   5.450   1.304   7.630
10665TIP3   OH231916   5.295   1.160   5.863
10665TIP3    H131917   5.303   1.173   5.959
10665TIP3    H231918   5.295   1.062   5.857
10666TIP3   OH231919   5.914   1.403   7.245
10666TIP3    H131920   5.988   1.448   7.199
10666TIP3    H231921   5.842   1.467   7.229
10667TIP3   OH231922   4.934   1.046   7.841
10667TIP3    H131923   5.009   0.988   7.824
10667TIP3    H231924   4.957   1.080   7.930
10668TIP3   OH231925   4.998   0.867   6.280
10668TIP3    H131926   4.972   0.827   6.364
10668TIP3    H231927   5.033   0.790   6.231
10669TIP3   OH231928   5.275   0.938   7.512
10669TIP3    H131929   5.191   0.988   7.512
10669TIP3    H231930   5.315   0.964   7.427
10670TIP3   OH231931   5.098   0.660   6.120
10670TIP3    H131932   5.072   0.660   6.026
10670TIP3    H231933   5.195   0.661   6.112
10671TIP3   OH231934   5.785   1.335   7.642
10671TIP3    H131935   5.863   1.309   7.592
10671TIP3    H231936   5.779   1.267   7.711
10672TIP3   OH231937   5.921   0.990   5.778
10672TIP3    H131938   5.900   0.949   5.692
10672TIP3    H231939   5.887   1.081   5.759
10673TIP3   OH231940   5.395   0.726   7.642
10673TIP3    H131941   5.373   0.641   7.602
10673TIP3    H231942   5.349   0.790   7.584
10674TIP3   OH231943   5.431   1.042   7.307
10674TIP3    H131944   5.507   1.055   7.249
10674TIP3    H231945   5.366   1.106   7.271
10675TIP3   OH231946   6.001   1.012   7.677
10675TIP3    H131947   6.054   0.946   7.725
10675TIP3    H231948   6.068   1.077   7.651
10676TIP3   OH231949   6.042   1.262   7.433
10676TIP3    H131950   5.980   1.314   7.377
10676TIP3    H231951   6.126   1.290   7.390
10677TIP3   OH231952   5.246   0.849   7.852
10677TIP3    H131953   5.199   0.771   7.884
10677TIP3    H231954   5.306   0.812   7.785
10678TIP3   OH231955   5.632   0.818   7.753
10678TIP3    H131956   5.629   0.798   7.847
10678TIP3    H231957   5.549   0.777   7.720
10679TIP3   OH231958   4.913   1.724   6.021
10679TIP3    H131959   5.009   1.717   6.003
10679TIP3    H231960   4.884   1.772   5.942
10680TIP3   OH231961   4.386   1.105   6.238
10680TIP3    H131962   4.481   1.126   6.225
10680TIP3    H231963   4.381   1.015   6.199
10681TIP3   OH231964   4.302   1.717   6.652
10681TIP3    H131965   4.234   1.655   6.616
10681TIP3    H231966   4.345   1.660   6.719
10682TIP3   OH231967   4.435   1.570   6.841
10682TIP3    H131968   4.424   1.494   6.901
10682TIP3    H231969   4.487   1.629   6.898
10683TIP3   OH231970   6.161   1.977   6.638
10683TIP3    H131971   6.191   2.001   6.728
10683TIP3    H231972   6.232   2.011   6.582
10684TIP3   OH231973   6.194   1.989   6.921
10684TIP3    H131974   6.148   1.902   6.917
10684TIP3    H231975   6.269   1.965   6.977
10685TIP3   OH231976   6.240   1.664   7.497
10685TIP3    H131977   6.166   1.674   7.560
10685TIP3    H231978   6.281   1.753   7.500
10686TIP3   OH231979   6.055   1.180   6.103
10686TIP3    H131980   6.134   1.233   6.077
10686TIP3    H231981   6.082   1.152   6.193
10687TIP3   OH231982   6.138   1.088   6.338
10687TIP3    H131983   6.104   1.014   6.392
10687TIP3    H231984   6.234   1.074   6.337
10688TIP3   OH231985   6.235   1.440   6.752
10688TIP3    H131986   6.287   1.371   6.706
10688TIP3    H231987   6.225   1.507   6.682
10689TIP3   OH231988   6.069   1.741   6.945
10689TIP3    H131989   5.996   1.778   6.997
10689TIP3    H231990   6.021   1.691   6.875
10690TIP3   OH231991   6.116   0.945   5.966
10690TIP3    H131992   6.045   0.962   5.900
10690TIP3    H231993   6.106   1.024   6.023
10691TIP3   OH231994   5.989   0.618   5.917
10691TIP3    H131995   5.960   0.687   5.855
10691TIP3    H231996   5.944   0.540   5.884
10692TIP3   OH231997   5.986   0.903   6.472
10692TIP3    H131998   5.979   0.806   6.461
10692TIP3    H231999   5.976   0.916   6.568
10693TIP3   OH232000   4.623   0.979   7.211
10693TIP3    H132001   4.622   0.945   7.118
10693TIP3    H232002   4.719   0.979   7.229
10694TIP3   OH232003   6.269   1.343   7.315
10694TIP3    H132004   6.344   1.278   7.312
10694TIP3    H232005   6.299   1.411   7.252
10695TIP3   OH232006   6.451   1.160   7.368
10695TIP3    H132007   6.384   1.093   7.389
10695TIP3    H232008   6.530   1.102   7.369
10696TIP3   OH232009   5.966   0.658   6.342
10696TIP3    H132010   6.017   0.575   6.358
10696TIP3    H232011   6.029   0.702   6.282
10697TIP3   OH232012   6.152   0.806   6.852
10697TIP3    H132013   6.237   0.830   6.809
10697TIP3    H232014   6.170   0.839   6.942
10698TIP3   OH232015   6.211   0.945   7.090
10698TIP3    H132016   6.129   0.982   7.128
10698TIP3    H232017   6.244   1.021   7.038
10699TIP3   OH232018   4.806   0.689   7.919
10699TIP3    H132019   4.894   0.661   7.887
10699TIP3    H232020   4.765   0.602   7.930
10700TIP3   OH232021   4.611   0.637   7.292
10700TIP3    H132022   4.652   0.627   7.204
10700TIP3    H232023   4.646   0.722   7.320
10701TIP3   OH232024   5.762   1.835   6.309
10701TIP3    H132025   5.800   1.815   6.222
10701TIP3    H232026   5.826   1.897   6.346
10702TIP3   OH232027   4.847   1.646   7.684
10702TIP3    H132028   4.759   1.611   7.662
10702TIP3    H232029   4.860   1.614   7.773
10703TIP3   OH232030   5.026   1.672   7.231
10703TIP3    H132031   4.978   1.747   7.190
10703TIP3    H232032   5.112   1.685   7.187
10704TIP3   OH232033   5.472   1.917   7.369
10704TIP3    H132034   5.515   1.917   7.457
10704TIP3    H232035   5.538   1.967   7.316
10705TIP3   OH232036   5.650   2.068   7.226
10705TIP3    H132037   5.720   2.016   7.184
10705TIP3    H232038   5.704   2.124   7.287
10706TIP3   OH232039   4.704   1.932   7.251
10706TIP3    H132040   4.614   1.965   7.227
10706TIP3    H232041   4.708   1.958   7.343
10707TIP3   OH232042   4.941   1.909   7.112
10707TIP3    H132043   4.854   1.921   7.156
10707TIP3    H232044   4.921   1.938   7.021
10708TIP3   OH232045   5.365   1.936   6.910
10708TIP3    H132046   5.296   1.954   6.844
10708TIP3    H232047   5.377   2.024   6.952
10709TIP3   OH232048   5.634   1.877   6.963
10709TIP3    H132049   5.540   1.891   6.940
10709TIP3    H232050   5.677   1.950   6.917
10710TIP3   OH232051   5.844   2.068   6.876
10710TIP3    H132052   5.829   2.151   6.826
10710TIP3    H232053   5.869   2.006   6.805
10711TIP3   OH232054   4.616   1.723   7.000
10711TIP3    H132055   4.642   1.695   7.090
10711TIP3    H232056   4.686   1.677   6.948
10712TIP3   OH232057   4.808   1.593   6.856
10712TIP3    H132058   4.824   1.509   6.905
10712TIP3    H232059   4.899   1.628   6.849
10713TIP3   OH232060   5.076   1.690   6.857
10713TIP3    H132061   5.106   1.598   6.842
10713TIP3    H232062   5.119   1.707   6.942
10714TIP3   OH232063   4.403   1.493   6.388
10714TIP3    H132064   4.318   1.459   6.355
10714TIP3    H232065   4.391   1.587   6.371
10715TIP3   OH232066   5.192   1.691   5.969
10715TIP3    H132067   5.267   1.737   5.926
10715TIP3    H232068   5.179   1.616   5.908
10716TIP3   OH232069   5.900   1.800   6.063
10716TIP3    H132070   5.891   1.701   6.056
10716TIP3    H232071   5.833   1.828   5.998
10717TIP3   OH232072   4.479   1.522   6.028
10717TIP3    H132073   4.476   1.543   6.123
10717TIP3    H232074   4.567   1.480   6.018
10718TIP3   OH232075   6.119   1.945   7.253
10718TIP3    H132076   6.041   1.913   7.203
10718TIP3    H232077   6.099   2.041   7.256
10719TIP3   OH232078   7.387   1.316   6.017
10719TIP3    H132079   7.360   1.408   5.999
10719TIP3    H232080   7.306   1.269   5.989
10720TIP3   OH232081   7.386   1.316   6.396
10720TIP3    H132082   7.414   1.289   6.485
10720TIP3    H232083   7.345   1.236   6.362
10721TIP3   OH232084   6.686   1.220   6.767
10721TIP3    H132085   6.722   1.146   6.821
10721TIP3    H232086   6.768   1.265   6.742
10722TIP3   OH232087   7.627   1.620   6.080
10722TIP3    H132088   7.614   1.550   6.146
10722TIP3    H232089   7.658   1.694   6.135
10723TIP3   OH232090   6.655   1.626   6.491
10723TIP3    H132091   6.649   1.528   6.492
10723TIP3    H232092   6.752   1.636   6.485
10724TIP3   OH232093   6.333   0.796   6.319
10724TIP3    H132094   6.356   0.880   6.275
10724TIP3    H232095   6.261   0.765   6.261
10725TIP3   OH232096   6.443   1.129   6.458
10725TIP3    H132097   6.484   1.044   6.485
10725TIP3    H232098   6.442   1.118   6.361
10726TIP3   OH232099   7.277   2.082   6.097
10726TIP3    H132100   7.323   2.011   6.048
10726TIP3    H232101   7.272   2.043   6.186
10727TIP3   OH232102   7.183   1.544   6.448
10727TIP3    H132103   7.219   1.467   6.401
10727TIP3    H232104   7.268   1.587   6.472
10728TIP3   OH232105   7.598   1.039   6.489
10728TIP3    H132106   7.634   0.949   6.491
10728TIP3    H232107   7.556   1.039   6.401
10729TIP3   OH232108   7.605   0.845   6.071
10729TIP3    H132109   7.698   0.818   6.090
10729TIP3    H232110   7.608   0.846   5.974
10730TIP3   OH232111   6.570   0.905   6.558
10730TIP3    H132112   6.658   0.882   6.594
10730TIP3    H232113   6.579   0.864   6.469
10731TIP3   OH232114   7.006   1.103   6.344
10731TIP3    H132115   7.099   1.076   6.360
10731TIP3    H232116   6.966   1.017   6.317
10732TIP3   OH232117   8.279   1.173   6.644
10732TIP3    H132118   8.187   1.182   6.613
10732TIP3    H232119   8.281   1.077   6.664
10733TIP3   OH232120   7.280   1.540   5.886
10733TIP3    H132121   7.231   1.517   5.806
10733TIP3    H232122   7.236   1.623   5.913
10734TIP3   OH232123   7.041   1.463   6.679
10734TIP3    H132124   6.976   1.527   6.715
10734TIP3    H232125   7.079   1.513   6.604
10735TIP3   OH232126   6.820   0.820   6.632
10735TIP3    H132127   6.889   0.881   6.666
10735TIP3    H232128   6.873   0.758   6.581
10736TIP3   OH232129   6.864   1.656   6.774
10736TIP3    H132130   6.838   1.741   6.734
10736TIP3    H232131   6.785   1.639   6.829
10737TIP3   OH232132   6.254   1.348   6.002
10737TIP3    H132133   6.217   1.380   5.919
10737TIP3    H232134   6.293   1.426   6.043
10738TIP3   OH232135   7.699   1.862   6.248
10738TIP3    H132136   7.609   1.853   6.288
10738TIP3    H232137   7.691   1.948   6.203
10739TIP3   OH232138   7.402   1.909   5.923
10739TIP3    H132139   7.451   1.826   5.903
10739TIP3    H232140   7.464   1.974   5.882
10740TIP3   OH232141   7.545   1.694   5.829
10740TIP3    H132142   7.501   1.616   5.793
10740TIP3    H232143   7.581   1.659   5.913
10741TIP3   OH232144   7.919   1.774   6.590
10741TIP3    H132145   7.909   1.697   6.530
10741TIP3    H232146   7.905   1.850   6.530
10742TIP3   OH232147   7.213   1.170   5.847
10742TIP3    H132148   7.132   1.223   5.829
10742TIP3    H232149   7.259   1.175   5.761
10743TIP3   OH232150   7.182   0.948   5.564
10743TIP3    H132151   7.238   1.007   5.616
10743TIP3    H232152   7.248   0.903   5.508
10744TIP3   OH232153   8.118   1.414   6.434
10744TIP3    H132154   8.034   1.465   6.440
10744TIP3    H232155   8.145   1.436   6.342
10745TIP3   OH232156   7.561   1.247   5.818
10745TIP3    H132157   7.507   1.272   5.897
10745TIP3    H232158   7.647   1.229   5.862
10746TIP3   OH232159   7.793   1.302   6.731
10746TIP3    H132160   7.789   1.386   6.781
10746TIP3    H232161   7.707   1.306   6.684
10747TIP3   OH232162   6.799   1.252   6.230
10747TIP3    H132163   6.755   1.192   6.167
10747TIP3    H232164   6.871   1.195   6.265
10748TIP3   OH232165   6.928   1.665   6.385
10748TIP3    H132166   6.903   1.616   6.305
10748TIP3    H232167   7.017   1.628   6.404
10749TIP3   OH232168   6.944   1.214   6.601
10749TIP3    H132169   6.960   1.196   6.506
10749TIP3    H232170   6.978   1.305   6.611
10750TIP3   OH232171   7.457   1.858   6.368
10750TIP3    H132172   7.445   1.938   6.423
10750TIP3    H232173   7.442   1.785   6.432
10751TIP3   OH232174   7.071   1.778   6.915
10751TIP3    H132175   7.010   1.839   6.962
10751TIP3    H232176   7.006   1.723   6.866
10752TIP3   OH232177   7.395   1.122   5.640
10752TIP3    H132178   7.455   1.180   5.693
10752TIP3    H232179   7.426   1.144   5.549
10753TIP3   OH232180   6.828   1.331   7.022
10753TIP3    H132181   6.829   1.419   7.065
10753TIP3    H232182   6.732   1.314   7.021
10754TIP3   OH232183   7.148   1.789   5.922
10754TIP3    H132184   7.227   1.842   5.939
10754TIP3    H232185   7.087   1.853   5.883
10755TIP3   OH232186   6.864   1.946   7.002
10755TIP3    H132187   6.829   1.944   6.911
10755TIP3    H232188   6.785   1.924   7.056
10756TIP3   OH232189   6.685   1.090   6.016
10756TIP3    H132190   6.613   1.132   5.964
10756TIP3    H232191   6.626   1.041   6.077
10757TIP3   OH232192   7.723   1.716   5.242
10757TIP3    H132193   7.729   1.813   5.228
10757TIP3    H232194   7.816   1.689   5.229
10758TIP3   OH232195   6.444   1.475   6.949
10758TIP3    H132196   6.380   1.453   6.879
10758TIP3    H232197   6.480   1.387   6.974
10759TIP3   OH232198   6.297   1.674   6.576
10759TIP3    H132199   6.392   1.654   6.570
10759TIP3    H232200   6.296   1.747   6.640
10760TIP3   OH232201   8.165   2.119   6.639
10760TIP3    H132202   8.161   2.023   6.654
10760TIP3    H232203   8.082   2.146   6.685
10761TIP3   OH232204   7.268   1.906   6.772
10761TIP3    H132205   7.267   1.999   6.805
10761TIP3    H232206   7.196   1.866   6.827
10762TIP3   OH232207   7.027   2.035   5.725
10762TIP3    H132208   6.983   2.017   5.640
10762TIP3    H232209   6.996   2.124   5.747
10763TIP3   OH232210   6.467   1.887   6.111
10763TIP3    H132211   6.516   1.878   6.197
10763TIP3    H232212   6.422   1.800   6.109
10764TIP3   OH232213   7.230   1.936   5.365
10764TIP3    H132214   7.289   1.867   5.328
10764TIP3    H232215   7.264   1.946   5.456
10765TIP3   OH232216   7.279   1.984   5.635
10765TIP3    H132217   7.191   1.993   5.678
10765TIP3    H232218   7.331   1.944   5.707
10766TIP3   OH232219   8.047   1.280   6.851
10766TIP3    H132220   7.955   1.298   6.824
10766TIP3    H232221   8.038   1.201   6.905
10767TIP3   OH232222   6.647   1.660   6.940
10767TIP3    H132223   6.698   1.640   7.021
10767TIP3    H232224   6.574   1.594   6.945
10768TIP3   OH232225   7.790   1.045   6.840
10768TIP3    H132226   7.837   1.067   6.922
10768TIP3    H232227   7.785   1.132   6.796
10769TIP3   OH232228   7.481   1.152   5.386
10769TIP3    H132229   7.449   1.133   5.296
10769TIP3    H232230   7.562   1.204   5.365
10770TIP3   OH232231   7.001   0.997   6.750
10770TIP3    H132232   6.939   1.013   6.824
10770TIP3    H232233   6.984   1.076   6.694
10771TIP3   OH232234   6.874   0.880   6.257
10771TIP3    H132235   6.781   0.863   6.282
10771TIP3    H232236   6.873   0.852   6.163
10772TIP3   OH232237   7.341   0.971   5.980
10772TIP3    H132238   7.290   1.046   5.941
10772TIP3    H232239   7.402   0.950   5.907
10773TIP3   OH232240   7.521   1.244   7.056
10773TIP3    H132241   7.497   1.185   7.132
10773TIP3    H232242   7.602   1.285   7.088
10774TIP3   OH232243   7.496   1.032   6.236
10774TIP3    H132244   7.443   1.062   6.160
10774TIP3    H232245   7.527   0.946   6.199
10775TIP3   OH232246   6.801   1.032   6.944
10775TIP3    H132247   6.821   1.094   7.016
10775TIP3    H232248   6.741   0.969   6.986
10776TIP3   OH232249   6.394   0.609   6.039
10776TIP3    H132250   6.420   0.663   5.962
10776TIP3    H232251   6.329   0.668   6.081
10777TIP3   OH232252   7.521   1.244   6.644
10777TIP3    H132253   7.556   1.173   6.586
10777TIP3    H232254   7.495   1.191   6.722
10778TIP3   OH232255   6.616   0.792   6.316
10778TIP3    H132256   6.519   0.786   6.299
10778TIP3    H232257   6.641   0.698   6.322
10779TIP3   OH232258   6.912   0.774   6.007
10779TIP3    H132259   6.995   0.769   5.959
10779TIP3    H232260   6.845   0.771   5.935
10780TIP3   OH232261   6.740   0.766   5.785
10780TIP3    H132262   6.662   0.744   5.732
10780TIP3    H232263   6.792   0.817   5.720
10781TIP3   OH232264   7.850   2.471   6.737
10781TIP3    H132265   7.851   2.494   6.642
10781TIP3    H232266   7.932   2.515   6.768
10782TIP3   OH232267   6.810   1.582   7.159
10782TIP3    H132268   6.890   1.610   7.207
10782TIP3    H232269   6.745   1.580   7.232
10783TIP3   OH232270   7.271   1.030   6.416
10783TIP3    H132271   7.346   0.995   6.365
10783TIP3    H232272   7.280   0.983   6.500
10784TIP3   OH232273   7.269   0.923   6.713
10784TIP3    H132274   7.174   0.949   6.722
10784TIP3    H232275   7.313   0.997   6.760
10785TIP3   OH232276   6.988   1.323   5.798
10785TIP3    H132277   6.917   1.256   5.788
10785TIP3    H232278   6.968   1.357   5.889
10786TIP3   OH232279   7.887   1.557   6.426
10786TIP3    H132280   7.910   1.607   6.345
10786TIP3    H232281   7.802   1.515   6.402
10787TIP3   OH232282   7.373   0.663   5.627
10787TIP3    H132283   7.310   0.719   5.580
10787TIP3    H232284   7.425   0.726   5.680
10788TIP3   OH232285   7.389   1.641   6.794
10788TIP3    H132286   7.411   1.618   6.885
10788TIP3    H232287   7.348   1.728   6.803
10789TIP3   OH232288   7.498   0.892   5.758
10789TIP3    H132289   7.595   0.894   5.773
10789TIP3    H232290   7.483   0.976   5.712
10790TIP3   OH232291   6.695   1.356   6.475
10790TIP3    H132292   6.714   1.319   6.387
10790TIP3    H232293   6.690   1.276   6.529
10791TIP3   OH232294   7.131   1.469   5.617
10791TIP3    H132295   7.084   1.556   5.623
10791TIP3    H232296   7.077   1.416   5.680
10792TIP3   OH232297   6.558   1.263   7.087
10792TIP3    H132298   6.582   1.250   7.180
10792TIP3    H232299   6.496   1.189   7.071
10793TIP3   OH232300   7.283   1.378   7.107
10793TIP3    H132301   7.219   1.317   7.066
10793TIP3    H232302   7.367   1.344   7.070
10794TIP3   OH232303   7.547   1.900   6.690
10794TIP3    H132304   7.451   1.898   6.704
10794TIP3    H232305   7.576   1.952   6.769
10795TIP3   OH232306   7.935   0.979   5.605
10795TIP3    H132307   7.872   0.941   5.539
10795TIP3    H232308   7.943   1.069   5.565
10796TIP3   OH232309   8.171   1.825   6.680
10796TIP3    H132310   8.073   1.818   6.677
10796TIP3    H232311   8.193   1.800   6.587
10797TIP3   OH232312   7.653   1.791   5.506
10797TIP3    H132313   7.634   1.721   5.570
10797TIP3    H232314   7.671   1.743   5.423
10798TIP3   OH232315   7.652   1.421   6.348
10798TIP3    H132316   7.559   1.395   6.360
10798TIP3    H232317   7.686   1.343   6.300
10799TIP3   OH232318   6.781   1.648   6.099
10799TIP3    H132319   6.777   1.728   6.044
10799TIP3    H232320   6.688   1.625   6.109
10800TIP3   OH232321   6.335   0.962   5.796
10800TIP3    H132322   6.392   1.037   5.825
10800TIP3    H232323   6.270   0.962   5.870
10801TIP3   OH232324   6.923   1.415   6.042
10801TIP3    H132325   6.885   1.502   6.064
10801TIP3    H232326   6.885   1.360   6.113
10802TIP3   OH232327   7.049   1.992   6.569
10802TIP3    H132328   7.092   2.063   6.518
10802TIP3    H232329   7.125   1.955   6.617
10803TIP3   OH232330   6.698   1.888   5.950
10803TIP3    H132331   6.613   1.896   5.999
10803TIP3    H232332   6.730   1.980   5.954
10804TIP3   OH232333   7.438   1.624   6.526
10804TIP3    H132334   7.429   1.623   6.624
10804TIP3    H232335   7.519   1.572   6.514
10805TIP3   OH232336   7.411   1.515   5.410
10805TIP3    H132337   7.465   1.491   5.489
10805TIP3    H232338   7.322   1.493   5.441
10806TIP3   OH232339   7.686   2.159   6.577
10806TIP3    H132340   7.606   2.102   6.570
10806TIP3    H232341   7.670   2.223   6.505
10807TIP3   OH232342   7.751   1.992   5.229
10807TIP3    H132343   7.790   2.064   5.177
10807TIP3    H232344   7.671   2.038   5.262
10808TIP3   OH232345   7.573   1.448   5.624
10808TIP3    H132346   7.563   1.385   5.698
10808TIP3    H232347   7.670   1.449   5.613
10809TIP3   OH232348   6.486   1.854   6.728
10809TIP3    H132349   6.539   1.777   6.753
10809TIP3    H232350   6.519   1.920   6.791
10810TIP3   OH232351   6.780   1.498   5.409
10810TIP3    H132352   6.792   1.405   5.381
10810TIP3    H232353   6.759   1.487   5.504
10811TIP3   OH232354   6.722   1.505   5.681
10811TIP3    H132355   6.792   1.473   5.740
10811TIP3    H232356   6.730   1.602   5.690
10812TIP3   OH232357   6.471   1.198   5.869
10812TIP3    H132358   6.417   1.207   5.950
10812TIP3    H232359   6.461   1.285   5.827
10813TIP3   OH232360   6.990   1.700   5.629
10813TIP3    H132361   6.904   1.727   5.666
10813TIP3    H232362   7.006   1.774   5.568
10814TIP3   OH232363   7.222   0.735   6.042
10814TIP3    H132364   7.264   0.822   6.019
10814TIP3    H232365   7.180   0.758   6.126
10815TIP3   OH232366   7.457   1.076   6.852
10815TIP3    H132367   7.458   1.149   6.918
10815TIP3    H232368   7.502   1.007   6.903
10816TIP3   OH232369   6.734   1.777   5.698
10816TIP3    H132370   6.703   1.847   5.635
10816TIP3    H232371   6.717   1.820   5.784
10817TIP3   OH232372   7.735   1.187   6.219
10817TIP3    H132373   7.657   1.130   6.234
10817TIP3    H232374   7.807   1.138   6.264
10818TIP3   OH232375   6.450   1.417   5.686
10818TIP3    H132376   6.526   1.478   5.695
10818TIP3    H232377   6.492   1.353   5.624
10819TIP3   OH232378   6.392   0.698   5.784
10819TIP3    H132379   6.390   0.796   5.790
10819TIP3    H232380   6.302   0.679   5.754
10820TIP3   OH232381   7.706   2.133   6.170
10820TIP3    H132382   7.664   2.181   6.095
10820TIP3    H232383   7.801   2.153   6.149
10821TIP3   OH232384   6.331   1.642   6.078
10821TIP3    H132385   6.248   1.646   6.127
10821TIP3    H232386   6.304   1.665   5.987
10822TIP3   OH232387   6.478   2.161   7.150
10822TIP3    H132388   6.565   2.160   7.195
10822TIP3    H232389   6.457   2.066   7.147
10823TIP3   OH232390   6.960   2.128   7.193
10823TIP3    H132391   7.054   2.109   7.201
10823TIP3    H232392   6.935   2.068   7.120
10824TIP3   OH232393   6.942   1.703   5.322
10824TIP3    H132394   6.886   1.631   5.359
10824TIP3    H232395   7.017   1.651   5.290
10825TIP3   OH232396   7.598   2.034   6.927
10825TIP3    H132397   7.591   1.964   6.995
10825TIP3    H232398   7.678   2.083   6.956
10826TIP3   OH232399   7.377   1.743   5.233
10826TIP3    H132400   7.426   1.682   5.292
10826TIP3    H232401   7.433   1.743   5.152
10827TIP3   OH232402   6.608   1.569   7.348
10827TIP3    H132403   6.622   1.473   7.356
10827TIP3    H232404   6.521   1.572   7.302
10828TIP3   OH232405   6.583   1.223   5.541
10828TIP3    H132406   6.631   1.189   5.619
10828TIP3    H232407   6.656   1.225   5.475
10829TIP3   OH232408   7.216   1.654   7.123
10829TIP3    H132409   7.175   1.670   7.036
10829TIP3    H232410   7.247   1.561   7.116
10830TIP3   OH232411   7.096   1.417   5.348
10830TIP3    H132412   7.098   1.430   5.445
10830TIP3    H232413   7.090   1.320   5.343
10831TIP3   OH232414   7.709   1.661   6.728
10831TIP3    H132415   7.783   1.706   6.684
10831TIP3    H232416   7.638   1.726   6.715
10832TIP3   OH232417   6.728   1.295   7.329
10832TIP3    H132418   6.811   1.250   7.307
10832TIP3    H232419   6.752   1.339   7.413
10833TIP3   OH232420   6.800   1.127   5.764
10833TIP3    H132421   6.766   1.098   5.852
10833TIP3    H232422   6.827   1.042   5.724
10834TIP3   OH232423   7.071   1.192   6.998
10834TIP3    H132424   6.988   1.244   6.998
10834TIP3    H232425   7.113   1.221   6.914
10835TIP3   OH232426   6.892   0.910   5.607
10835TIP3    H132427   6.866   0.919   5.513
10835TIP3    H232428   6.989   0.917   5.600
10836TIP3   OH232429   7.578   1.588   7.127
10836TIP3    H132430   7.663   1.575   7.084
10836TIP3    H232431   7.584   1.527   7.203
10837TIP3   OH232432   7.716   1.245   5.267
10837TIP3    H132433   7.700   1.204   5.180
10837TIP3    H232434   7.686   1.336   5.247
10838TIP3   OH232435   7.190   0.983   7.129
10838TIP3    H132436   7.171   0.898   7.086
10838TIP3    H232437   7.145   1.047   7.071
10839TIP3   OH232438   7.226   1.297   6.795
10839TIP3    H132439   7.303   1.313   6.740
10839TIP3    H232440   7.162   1.361   6.757
10840TIP3   OH232441   7.838   1.516   6.914
10840TIP3    H132442   7.786   1.574   6.854
10840TIP3    H232443   7.929   1.533   6.880
10841TIP3   OH232444   7.039   1.105   7.338
10841TIP3    H132445   6.997   1.025   7.371
10841TIP3    H232446   7.098   1.070   7.270
10842TIP3   OH232447   7.426   1.071   7.242
10842TIP3    H132448   7.421   1.029   7.329
10842TIP3    H232449   7.344   1.037   7.201
10843TIP3   OH232450   6.702   1.979   5.510
10843TIP3    H132451   6.798   1.974   5.491
10843TIP3    H232452   6.673   2.029   5.432
10844TIP3   OH232453   6.181   1.368   5.718
10844TIP3    H132454   6.277   1.387   5.708
10844TIP3    H232455   6.176   1.275   5.685
10845TIP3   OH232456   6.101   1.969   6.129
10845TIP3    H132457   6.027   1.907   6.109
10845TIP3    H232458   6.144   1.920   6.204
10846TIP3   OH232459   6.224   1.834   6.331
10846TIP3    H132460   6.219   1.753   6.385
10846TIP3    H232461   6.282   1.888   6.387
10847TIP3   OH232462   7.957   2.228   6.126
10847TIP3    H132463   7.987   2.258   6.214
10847TIP3    H232464   8.024   2.266   6.067
10848TIP3   OH232465   7.989   2.246   6.408
10848TIP3    H132466   7.946   2.158   6.404
10848TIP3    H232467   8.064   2.224   6.465
10849TIP3   OH232468   8.022   1.937   6.964
10849TIP3    H132469   7.955   1.942   7.036
10849TIP3    H232470   8.070   2.021   6.974
10850TIP3   OH232471   7.852   1.435   5.601
10850TIP3    H132472   7.920   1.499   5.570
10850TIP3    H232473   7.896   1.398   5.680
10851TIP3   OH232474   7.979   1.304   5.804
10851TIP3    H132475   7.914   1.266   5.867
10851TIP3    H232476   8.047   1.342   5.864
10852TIP3   OH232477   8.034   1.693   6.237
10852TIP3    H132478   8.085   1.629   6.185
10852TIP3    H232479   8.028   1.769   6.175
10853TIP3   OH232480   7.865   1.996   6.432
10853TIP3    H132481   7.794   2.037   6.485
10853TIP3    H232482   7.814   1.948   6.362
10854TIP3   OH232483   7.912   1.208   5.455
10854TIP3    H132484   7.844   1.215   5.384
10854TIP3    H232485   7.889   1.287   5.509
10855TIP3   OH232486   7.780   0.877   5.404
10855TIP3    H132487   7.759   0.943   5.337
10855TIP3    H232488   7.746   0.796   5.364
10856TIP3   OH232489   7.793   1.172   5.953
10856TIP3    H132490   7.781   1.076   5.937
10856TIP3    H232491   7.778   1.180   6.050
10857TIP3   OH232492   6.420   1.238   6.709
10857TIP3    H132493   6.419   1.205   6.616
10857TIP3    H232494   6.517   1.238   6.726
10858TIP3   OH232495   8.094   1.570   6.816
10858TIP3    H132496   8.148   1.489   6.809
10858TIP3    H232497   8.129   1.627   6.746
10859TIP3   OH232498   7.763   0.921   5.830
10859TIP3    H132499   7.812   0.838   5.851
10859TIP3    H232500   7.822   0.955   5.760
10860TIP3   OH232501   7.948   1.061   6.334
10860TIP3    H132502   8.036   1.083   6.295
10860TIP3    H232503   7.962   1.097   6.424
10861TIP3   OH232504   8.005   1.197   6.562
10861TIP3    H132505   7.933   1.233   6.618
10861TIP3    H232506   8.040   1.278   6.520
10862TIP3   OH232507   6.601   0.946   7.405
10862TIP3    H132508   6.688   0.915   7.371
10862TIP3    H232509   6.563   0.860   7.426
10863TIP3   OH232510   6.397   0.896   6.768
10863TIP3    H132511   6.449   0.892   6.685
10863TIP3    H232512   6.430   0.978   6.807
10864TIP3   OH232513   7.543   2.093   5.783
10864TIP3    H132514   7.594   2.078   5.700
10864TIP3    H232515   7.599   2.157   5.829
10865TIP3   OH232516   6.644   1.899   7.170
10865TIP3    H132517   6.554   1.867   7.151
10865TIP3    H232518   6.656   1.875   7.262
10866TIP3   OH232519   6.822   1.928   6.717
10866TIP3    H132520   6.775   2.004   6.676
10866TIP3    H232521   6.909   1.940   6.674
10867TIP3   OH232522   7.268   2.173   6.855
10867TIP3    H132523   7.310   2.174   6.944
10867TIP3    H232524   7.335   2.224   6.803
10868TIP3   OH232525   7.448   2.324   6.713
10868TIP3    H132526   7.519   2.273   6.673
10868TIP3    H232527   7.499   2.381   6.774
10869TIP3   OH232528   6.499   2.187   6.737
10869TIP3    H132529   6.409   2.222   6.717
10869TIP3    H232530   6.509   2.217   6.828
10870TIP3   OH232531   6.736   2.164   6.598
10870TIP3    H132532   6.649   2.177   6.642
10870TIP3    H232533   6.717   2.195   6.508
10871TIP3   OH232534   7.162   2.193   6.395
10871TIP3    H132535   7.093   2.213   6.330
10871TIP3    H232536   7.174   2.280   6.439
10872TIP3   OH232537   7.430   2.131   6.447
10872TIP3    H132538   7.336   2.149   6.427
10872TIP3    H232539   7.474   2.207   6.406
10873TIP3   OH232540   7.637   2.324   6.362
10873TIP3    H132541   7.624   2.408   6.314
10873TIP3    H232542   7.664   2.263   6.290
10874TIP3   OH232543   6.412   1.979   6.486
10874TIP3    H132544   6.438   1.952   6.577
10874TIP3    H232545   6.482   1.933   6.436
10875TIP3   OH232546   6.605   1.851   6.343
10875TIP3    H132547   6.619   1.766   6.391
10875TIP3    H232548   6.697   1.885   6.337
10876TIP3   OH232549   6.872   1.945   6.345
10876TIP3    H132550   6.902   1.852   6.332
10876TIP3    H232551   6.916   1.965   6.429
10877TIP3   OH232552   6.203   1.762   5.868
10877TIP3    H132553   6.122   1.734   5.820
10877TIP3    H232554   6.168   1.814   5.941
10878TIP3   OH232555   6.971   1.940   5.458
10878TIP3    H132556   7.059   1.961   5.423
10878TIP3    H232557   6.948   1.865   5.399
10879TIP3   OH232558   7.688   2.057   5.551
10879TIP3    H132559   7.680   1.959   5.539
10879TIP3    H232560   7.644   2.089   5.470
10880TIP3   OH232561   6.286   1.783   5.535
10880TIP3    H132562   6.298   1.766   5.629
10880TIP3    H232563   6.368   1.741   5.498
10881TIP3   OH232564   7.918   2.205   6.736
10881TIP3    H132565   7.839   2.171   6.689
10881TIP3    H232566   7.896   2.300   6.741
10882TIP3   OH232567   8.482   1.482   6.255
10882TIP3    H132568   8.523   1.435   6.327
10882TIP3    H232569   8.556   1.532   6.218
10883TIP3   OH232570   8.440   1.870   5.986
10883TIP3    H132571   8.431   1.773   5.989
10883TIP3    H232572   8.534   1.876   5.961
10884TIP3   OH232573   8.146   1.080   5.763
10884TIP3    H132574   8.102   1.165   5.775
10884TIP3    H232575   8.070   1.023   5.743
10885TIP3   OH232576   8.218   1.369   5.930
10885TIP3    H132577   8.266   1.292   5.966
10885TIP3    H232578   8.278   1.399   5.861
10886TIP3   OH232579   8.364   1.166   6.038
10886TIP3    H132580   8.451   1.144   6.078
10886TIP3    H232581   8.377   1.121   5.952
10887TIP3   OH232582   8.824   1.729   6.151
10887TIP3    H132583   8.758   1.780   6.203
10887TIP3    H232584   8.833   1.789   6.075
10888TIP3   OH232585   8.609   1.075   6.112
10888TIP3    H132586   8.681   1.134   6.145
10888TIP3    H232587   8.659   1.005   6.067
10889TIP3   OH232588   8.652   1.910   6.263
10889TIP3    H132589   8.634   1.994   6.217
10889TIP3    H232590   8.569   1.904   6.315
10890TIP3   OH232591   8.053   1.605   5.495
10890TIP3    H132592   8.019   1.634   5.409
10890TIP3    H232593   8.088   1.689   5.533
10891TIP3   OH232594   8.596   1.482   5.734
10891TIP3    H132595   8.537   1.443   5.666
10891TIP3    H232596   8.670   1.421   5.727
10892TIP3   OH232597   8.695   1.856   5.888
10892TIP3    H132598   8.694   1.837   5.793
10892TIP3    H232599   8.771   1.918   5.893
10893TIP3   OH232600   8.732   1.483   6.081
10893TIP3    H132601   8.753   1.478   5.986
10893TIP3    H232602   8.766   1.572   6.103
10894TIP3   OH232603   8.864   2.028   6.401
10894TIP3    H132604   8.808   2.094   6.446
10894TIP3    H232605   8.797   1.975   6.355
10895TIP3   OH232606   8.599   1.599   6.509
10895TIP3    H132607   8.603   1.694   6.534
10895TIP3    H232608   8.503   1.588   6.496
10896TIP3   OH232609   8.661   2.205   6.488
10896TIP3    H132610   8.628   2.200   6.396
10896TIP3    H232611   8.581   2.181   6.540
10897TIP3   OH232612   8.452   1.354   5.541
10897TIP3    H132613   8.390   1.395   5.476
10897TIP3    H232614   8.420   1.263   5.543
10898TIP3   OH232615   8.235   1.735   6.432
10898TIP3    H132616   8.169   1.714   6.363
10898TIP3    H232617   8.266   1.647   6.461
10899TIP3   OH232618   8.096   1.924   6.071
10899TIP3    H132619   8.191   1.917   6.058
10899TIP3    H232620   8.089   2.004   6.125
10900TIP3   OH232621   8.810   2.303   5.222
10900TIP3    H132622   8.731   2.263   5.185
10900TIP3    H232623   8.779   2.390   5.255
10901TIP3   OH232624   8.263   2.140   5.591
10901TIP3    H132625   8.309   2.129   5.677
10901TIP3    H232626   8.207   2.061   5.593
10902TIP3   OH232627   8.428   1.928   6.415
10902TIP3    H132628   8.478   1.913   6.498
10902TIP3    H232629   8.356   1.861   6.423
10903TIP3   OH232630   8.782   1.253   6.224
10903TIP3    H132631   8.757   1.288   6.310
10903TIP3    H232632   8.779   1.333   6.168
10904TIP3   OH232633   8.666   1.153   5.711
10904TIP3    H132634   8.584   1.136   5.761
10904TIP3    H232635   8.660   1.084   5.644
10905TIP3   OH232636   8.189   0.865   5.532
10905TIP3    H132637   8.210   0.908   5.446
10905TIP3    H232638   8.127   0.929   5.571
10906TIP3   OH232639   8.419   1.055   5.797
10906TIP3    H132640   8.323   1.050   5.774
10906TIP3    H232641   8.443   0.961   5.808
10907TIP3   OH232642   8.499   1.030   5.276
10907TIP3    H132643   8.447   0.996   5.201
10907TIP3    H232644   8.567   1.082   5.232
10908TIP3   OH232645   8.584   1.844   6.628
10908TIP3    H132646   8.674   1.836   6.667
10908TIP3    H232647   8.527   1.827   6.706
10909TIP3   OH232648   8.470   1.591   5.963
10909TIP3    H132649   8.511   1.574   5.875
10909TIP3    H232650   8.512   1.523   6.016
10910TIP3   OH232651   8.333   1.515   6.568
10910TIP3    H132652   8.340   1.483   6.660
10910TIP3    H232653   8.262   1.457   6.534
10911TIP3   OH232654   8.572   1.929   5.607
10911TIP3    H132655   8.562   2.005   5.548
10911TIP3    H232656   8.492   1.879   5.591
10912TIP3   OH232657   8.132   1.218   5.279
10912TIP3    H132658   8.186   1.297   5.300
10912TIP3    H232659   8.062   1.225   5.348
10913TIP3   OH232660   8.624   1.658   5.505
10913TIP3    H132661   8.659   1.743   5.535
10913TIP3    H232662   8.622   1.609   5.589
10914TIP3   OH232663   8.844   2.272   6.079
10914TIP3    H132664   8.871   2.314   5.996
10914TIP3    H232665   8.918   2.213   6.098
10915TIP3   OH232666   8.501   2.149   5.440
10915TIP3    H132667   8.414   2.152   5.483
10915TIP3    H232668   8.527   2.243   5.443
10916TIP3   OH232669   8.283   2.111   6.214
10916TIP3    H132670   8.337   2.035   6.241
10916TIP3    H232671   8.313   2.177   6.278
10917TIP3   OH232672   8.572   1.759   4.932
10917TIP3    H132673   8.583   1.720   4.843
10917TIP3    H232674   8.512   1.696   4.976
10918TIP3   OH232675   8.266   1.445   5.364
10918TIP3    H132676   8.209   1.513   5.405
10918TIP3    H232677   8.295   1.488   5.280
10919TIP3   OH232678   8.539   2.038   5.185
10919TIP3    H132679   8.511   2.104   5.120
10919TIP3    H232680   8.509   2.075   5.270
10920TIP3   OH232681   8.178   0.950   5.279
10920TIP3    H132682   8.189   1.047   5.276
10920TIP3    H232683   8.099   0.937   5.226
10921TIP3   OH232684   8.119   1.877   5.567
10921TIP3    H132685   8.042   1.911   5.615
10921TIP3    H232686   8.100   1.914   5.477
10922TIP3   OH232687   8.276   2.421   6.634
10922TIP3    H132688   8.360   2.420   6.685
10922TIP3    H232689   8.253   2.326   6.635
10923TIP3   OH232690   8.744   2.386   6.683
10923TIP3    H132691   8.832   2.425   6.670
10923TIP3    H232692   8.733   2.326   6.606
10924TIP3   OH232693   8.404   1.785   6.827
10924TIP3    H132694   8.385   1.720   6.898
10924TIP3    H232695   8.316   1.800   6.787
10925TIP3   OH232696   8.633   1.318   5.271
10925TIP3    H132697   8.578   1.341   5.346
10925TIP3    H232698   8.585   1.352   5.197
10926TIP3   OH232699   8.534   2.242   4.993
10926TIP3    H132700   8.585   2.303   4.938
10926TIP3    H232701   8.453   2.241   4.940
10927TIP3   OH232702   7.992   1.614   5.210
10927TIP3    H132703   8.086   1.624   5.185
10927TIP3    H232704   7.974   1.525   5.172
10928TIP3   OH232705   7.892   2.231   5.626
10928TIP3    H132706   7.826   2.168   5.590
10928TIP3    H232707   7.937   2.174   5.693
10929TIP3   OH232708   8.026   2.084   5.814
10929TIP3    H132709   8.020   2.007   5.872
10929TIP3    H232710   8.080   2.144   5.870
10930TIP3   OH232711   8.215   1.484   6.185
10930TIP3    H132712   8.214   1.456   6.091
10930TIP3    H232713   8.312   1.491   6.200
10931TIP3   OH232714   8.197   1.154   6.255
10931TIP3    H132715   8.250   1.150   6.172
10931TIP3    H232716   8.221   1.242   6.287
10932TIP3   OH232717   8.444   2.152   6.660
10932TIP3    H132718   8.352   2.125   6.641
10932TIP3    H232719   8.453   2.126   6.753
10933TIP3   OH232720   8.616   2.185   6.207
10933TIP3    H132721   8.564   2.255   6.162
10933TIP3    H232722   8.704   2.207   6.171
10934TIP3   OH232723   8.294   2.443   6.227
10934TIP3    H132724   8.205   2.478   6.204
10934TIP3    H232725   8.301   2.474   6.318
10935TIP3   OH232726   8.525   2.416   6.084
10935TIP3    H132727   8.439   2.430   6.129
10935TIP3    H232728   8.506   2.447   5.993
10936TIP3   OH232729   8.980   2.561   5.841
10936TIP3    H132730   8.887   2.552   5.817
10936TIP3    H232731   8.978   2.593   5.933
10937TIP3   OH232732   8.203   2.238   5.976
10937TIP3    H132733   8.233   2.211   6.066
10937TIP3    H232734   8.270   2.188   5.923
10938TIP3   OH232735   8.378   2.093   5.831
10938TIP3    H132736   8.397   2.008   5.877
10938TIP3    H232737   8.468   2.133   5.830
10939TIP3   OH232738   8.626   2.193   5.842
10939TIP3    H132739   8.682   2.130   5.795
10939TIP3    H232740   8.688   2.229   5.907
10940TIP3   OH232741   7.993   2.007   5.365
10940TIP3    H132742   7.908   1.974   5.330
10940TIP3    H232743   7.983   2.101   5.346
10941TIP3   OH232744   8.074   2.035   5.003
10941TIP3    H132745   8.073   2.054   5.098
10941TIP3    H232746   8.160   1.990   4.991
10942TIP3   OH232747   1.632   2.360   7.198
10942TIP3    H132748   1.606   2.452   7.177
10942TIP3    H232749   1.555   2.312   7.163
10943TIP3   OH232750   1.628   2.364   7.576
10943TIP3    H132751   1.666   2.332   7.660
10943TIP3    H232752   1.591   2.283   7.538
10944TIP3   OH232753   1.873   2.664   7.258
10944TIP3    H132754   1.867   2.591   7.321
10944TIP3    H232755   1.907   2.737   7.313
10945TIP3   OH232756   0.907   2.669   7.679
10945TIP3    H132757   0.898   2.571   7.676
10945TIP3    H232758   1.003   2.676   7.660
10946TIP3   OH232759   0.704   2.170   7.634
10946TIP3    H132760   0.725   2.082   7.668
10946TIP3    H232761   0.711   2.161   7.538
10947TIP3   OH232762   1.528   3.126   7.276
10947TIP3    H132763   1.571   3.058   7.220
10947TIP3    H232764   1.521   3.079   7.360
10948TIP3   OH232765   1.432   2.588   7.626
10948TIP3    H132766   1.469   2.511   7.580
10948TIP3    H232767   1.517   2.633   7.648
10949TIP3   OH232768   2.445   1.905   7.619
10949TIP3    H132769   2.474   1.988   7.661
10949TIP3    H232770   2.471   1.921   7.526
10950TIP3   OH232771   1.840   2.086   7.662
10950TIP3    H132772   1.889   2.002   7.676
10950TIP3    H232773   1.814   2.076   7.569
10951TIP3   OH232774   1.217   1.747   7.611
10951TIP3    H132775   1.180   1.813   7.549
10951TIP3    H232776   1.140   1.688   7.624
10952TIP3   OH232777   1.877   1.840   7.244
10952TIP3    H132778   1.949   1.824   7.310
10952TIP3    H232779   1.930   1.875   7.170
10953TIP3   OH232780   1.257   2.148   7.519
10953TIP3    H132781   1.351   2.125   7.533
10953TIP3    H232782   1.220   2.061   7.494
10954TIP3   OH232783   2.515   2.109   7.805
10954TIP3    H132784   2.440   2.163   7.773
10954TIP3    H232785   2.556   2.169   7.870
10955TIP3   OH232786   1.521   2.580   7.067
10955TIP3    H132787   1.485   2.566   6.979
10955TIP3    H232788   1.481   2.665   7.091
10956TIP3   OH232789   1.288   2.501   7.855
10956TIP3    H132790   1.224   2.567   7.891
10956TIP3    H232791   1.328   2.549   7.781
10957TIP3   OH232792   2.088   1.842   7.414
10957TIP3    H132793   2.082   1.799   7.500
10957TIP3    H232794   2.144   1.920   7.434
10958TIP3   OH232795   1.061   1.884   7.796
10958TIP3    H132796   1.124   1.945   7.840
10958TIP3    H232797   1.122   1.836   7.738
10959TIP3   OH232798   1.112   2.696   7.961
10959TIP3    H132799   1.078   2.779   7.922
10959TIP3    H232800   1.037   2.665   8.013
10960TIP3   OH232801   0.517   2.390   7.184
10960TIP3    H132802   0.477   2.413   7.098
10960TIP3    H232803   0.540   2.477   7.220
10961TIP3   OH232804   1.947   2.907   7.427
10961TIP3    H132805   1.857   2.899   7.464
10961TIP3    H232806   1.940   2.992   7.379
10962TIP3   OH232807   2.235   1.816   7.784
10962TIP3    H132808   2.149   1.840   7.744
10962TIP3    H232809   2.299   1.845   7.716
10963TIP3   OH232810   1.568   1.458   7.788
10963TIP3    H132811   1.544   1.362   7.785
10963TIP3    H232812   1.523   1.485   7.868
10964TIP3   OH232813   1.648   2.954   7.099
10964TIP3    H132814   1.696   2.871   7.079
10964TIP3    H232815   1.711   3.018   7.059
10965TIP3   OH232816   1.788   2.739   7.007
10965TIP3    H132817   1.763   2.658   6.960
10965TIP3    H232818   1.824   2.702   7.091
10966TIP3   OH232819   2.173   2.820   7.769
10966TIP3    H132820   2.164   2.741   7.710
10966TIP3    H232821   2.159   2.893   7.706
10967TIP3   OH232822   1.464   2.211   7.025
10967TIP3    H132823   1.387   2.267   7.004
10967TIP3    H232824   1.513   2.213   6.941
10968TIP3   OH232825   1.423   1.995   6.742
10968TIP3    H132826   1.488   2.049   6.793
10968TIP3    H232827   1.484   1.935   6.695
10969TIP3   OH232828   2.376   2.456   7.642
10969TIP3    H132829   2.299   2.508   7.612
10969TIP3    H232830   2.400   2.408   7.558
10970TIP3   OH232831   1.810   2.294   6.998
10970TIP3    H132832   1.759   2.319   7.078
10970TIP3    H232833   1.895   2.268   7.039
10971TIP3   OH232834   2.051   2.330   7.908
10971TIP3    H132835   2.052   2.410   7.965
10971TIP3    H232836   1.967   2.343   7.860
10972TIP3   OH232837   1.045   2.294   7.412
10972TIP3    H132838   1.006   2.235   7.344
10972TIP3    H232839   1.122   2.243   7.444
10973TIP3   OH232840   1.173   2.703   7.565
10973TIP3    H132841   1.152   2.666   7.478
10973TIP3    H232842   1.263   2.668   7.580
10974TIP3   OH232843   1.176   2.261   7.769
10974TIP3    H132844   1.213   2.243   7.681
10974TIP3    H232845   1.219   2.346   7.794
10975TIP3   OH232846   1.703   2.905   7.547
10975TIP3    H132847   1.695   2.981   7.606
10975TIP3    H232848   1.692   2.828   7.606
10976TIP3   OH232849   1.298   2.859   8.088
10976TIP3    H132850   1.258   2.830   8.172
10976TIP3    H232851   1.260   2.793   8.028
10977TIP3   OH232852   1.652   2.154   6.823
10977TIP3    H132853   1.711   2.213   6.875
10977TIP3    H232854   1.680   2.177   6.730
10978TIP3   OH232855   1.395   2.835   7.102
10978TIP3    H132856   1.476   2.888   7.113
10978TIP3    H232857   1.335   2.896   7.057
10979TIP3   OH232858   2.168   1.395   6.870
10979TIP3    H132859   2.088   1.418   6.922
10979TIP3    H232860   2.184   1.479   6.823
10980TIP3   OH232861   0.912   2.129   7.216
10980TIP3    H132862   0.853   2.183   7.159
10980TIP3    H232863   0.851   2.060   7.243
10981TIP3   OH232864   1.968   2.762   6.421
10981TIP3    H132865   1.976   2.858   6.405
10981TIP3    H232866   2.061   2.732   6.408
10982TIP3   OH232867   0.544   2.735   7.736
10982TIP3    H132868   0.628   2.687   7.738
10982TIP3    H232869   0.550   2.791   7.815
10983TIP3   OH232870   2.409   3.164   7.814
10983TIP3    H132871   2.411   3.067   7.824
10983TIP3    H232872   2.326   3.185   7.861
10984TIP3   OH232873   1.515   2.948   7.946
10984TIP3    H132874   1.517   3.041   7.975
10984TIP3    H232875   1.438   2.914   7.998
10985TIP3   OH232876   1.278   3.078   6.902
10985TIP3    H132877   1.233   3.060   6.817
10985TIP3    H232878   1.246   3.167   6.925
10986TIP3   OH232879   0.717   2.931   7.284
10986TIP3    H132880   0.762   2.919   7.370
10986TIP3    H232881   0.649   2.862   7.290
10987TIP3   OH232882   1.479   2.980   6.541
10987TIP3    H132883   1.538   2.911   6.504
10987TIP3    H232884   1.514   2.990   6.632
10988TIP3   OH232885   1.529   3.029   6.811
10988TIP3    H132886   1.441   3.038   6.853
10988TIP3    H232887   1.579   2.987   6.883
10989TIP3   OH232888   2.305   2.294   8.045
10989TIP3    H132889   2.238   2.309   7.977
10989TIP3    H232890   2.324   2.199   8.033
10990TIP3   OH232891   2.029   2.064   8.010
10990TIP3    H132892   2.076   2.069   8.096
10990TIP3    H232893   2.041   2.155   7.974
10991TIP3   OH232894   1.726   2.198   6.565
10991TIP3    H132895   1.696   2.175   6.476
10991TIP3    H232896   1.808   2.248   6.545
10992TIP3   OH232897   1.435   1.583   6.866
10992TIP3    H132898   1.412   1.574   6.960
10992TIP3    H232899   1.405   1.496   6.833
10993TIP3   OH232900   1.241   2.046   7.922
10993TIP3    H132901   1.211   2.073   8.009
10993TIP3    H232902   1.223   2.127   7.869
10994TIP3   OH232903   1.105   1.920   7.434
10994TIP3    H132904   1.009   1.929   7.427
10994TIP3    H232905   1.126   1.887   7.344
10995TIP3   OH232906   1.601   2.010   7.156
10995TIP3    H132907   1.550   2.084   7.115
10995TIP3    H232908   1.660   1.984   7.083
10996TIP3   OH232909   1.761   2.043   7.400
10996TIP3    H132910   1.702   2.075   7.330
10996TIP3    H232911   1.793   1.961   7.356
10997TIP3   OH232912   1.090   1.557   6.839
10997TIP3    H132913   1.099   1.555   6.936
10997TIP3    H232914   1.057   1.647   6.825
10998TIP3   OH232915   1.770   2.294   7.819
10998TIP3    H132916   1.799   2.215   7.769
10998TIP3    H232917   1.746   2.256   7.905
10999TIP3   OH232918   1.464   1.757   7.481
10999TIP3    H132919   1.379   1.753   7.530
10999TIP3    H232920   1.528   1.763   7.554
11000TIP3   OH232921   1.145   1.807   7.190
11000TIP3    H132922   1.242   1.817   7.176
11000TIP3    H232923   1.106   1.833   7.104
11001TIP3   OH232924   1.935   1.826   7.687
11001TIP3    H132925   1.905   1.829   7.781
11001TIP3    H232926   1.868   1.765   7.651
11002TIP3   OH232927   0.981   1.827   6.962
11002TIP3    H132928   0.912   1.798   6.899
11002TIP3    H232929   1.038   1.878   6.900
11003TIP3   OH232930   2.103   3.517   7.913
11003TIP3    H132931   2.098   3.539   7.818
11003TIP3    H232932   2.183   3.567   7.939
11004TIP3   OH232933   1.519   2.077   7.586
11004TIP3    H132934   1.598   2.040   7.546
11004TIP3    H232935   1.524   2.042   7.678
11005TIP3   OH232936   1.505   1.987   7.851
11005TIP3    H132937   1.410   1.997   7.875
11005TIP3    H232938   1.547   2.008   7.935
11006TIP3   OH232939   1.237   2.367   6.975
11006TIP3    H132940   1.163   2.303   6.964
11006TIP3    H232941   1.218   2.401   7.066
11007TIP3   OH232942   2.135   2.607   7.601
11007TIP3    H132943   2.165   2.649   7.518
11007TIP3    H232944   2.053   2.561   7.574
11008TIP3   OH232945   1.693   1.680   6.832
11008TIP3    H132946   1.596   1.667   6.843
11008TIP3    H232947   1.707   1.773   6.860
11009TIP3   OH232948   1.642   2.691   7.974
11009TIP3    H132949   1.629   2.650   8.061
11009TIP3    H232950   1.594   2.775   7.983
11010TIP3   OH232951   1.765   1.924   6.938
11010TIP3    H132952   1.861   1.930   6.957
11010TIP3    H232953   1.749   2.007   6.887
11011TIP3   OH232954   0.944   2.397   7.655
11011TIP3    H132955   0.961   2.365   7.564
11011TIP3    H232956   0.992   2.331   7.707
11012TIP3   OH232957   1.380   2.515   6.794
11012TIP3    H132958   1.333   2.602   6.799
11012TIP3    H232959   1.327   2.462   6.857
11013TIP3   OH232960   1.795   2.953   7.860
11013TIP3    H132961   1.701   2.934   7.876
11013TIP3    H232962   1.818   3.005   7.939
11014TIP3   OH232963   2.201   2.016   6.779
11014TIP3    H132964   2.139   1.973   6.716
11014TIP3    H232965   2.202   2.105   6.739
11015TIP3   OH232966   2.425   2.877   7.855
11015TIP3    H132967   2.327   2.868   7.849
11015TIP3    H232968   2.450   2.843   7.766
11016TIP3   OH232969   1.902   2.835   6.683
11016TIP3    H132970   1.885   2.761   6.744
11016TIP3    H232971   1.920   2.790   6.598
11017TIP3   OH232972   1.900   2.465   7.525
11017TIP3    H132973   1.807   2.438   7.534
11017TIP3    H232974   1.938   2.386   7.480
11018TIP3   OH232975   1.029   2.693   7.278
11018TIP3    H132976   1.029   2.774   7.223
11018TIP3    H232977   0.935   2.675   7.283
11019TIP3   OH232978   0.582   2.008   6.984
11019TIP3    H132979   0.630   2.092   6.996
11019TIP3    H232980   0.532   2.003   7.068
11020TIP3   OH232981   1.166   2.458   7.219
11020TIP3    H132982   1.133   2.548   7.237
11020TIP3    H232983   1.130   2.409   7.295
11021TIP3   OH232984   1.297   3.038   7.749
11021TIP3    H132985   1.337   3.108   7.694
11021TIP3    H232986   1.376   2.996   7.787
11022TIP3   OH232987   0.951   2.929   7.129
11022TIP3    H132988   0.864   2.939   7.173
11022TIP3    H232989   0.983   3.022   7.129
11023TIP3   OH232990   1.689   2.671   7.704
11023TIP3    H132991   1.684   2.667   7.802
11023TIP3    H232992   1.765   2.615   7.686
11024TIP3   OH232993   1.661   2.558   6.588
11024TIP3    H132994   1.715   2.536   6.667
11024TIP3    H232995   1.572   2.537   6.619
11025TIP3   OH232996   1.932   3.209   7.757
11025TIP3    H132997   1.856   3.149   7.745
11025TIP3    H232998   1.920   3.270   7.681
11026TIP3   OH232999   2.000   3.036   6.406
11026TIP3    H133000   2.038   3.106   6.350
11026TIP3    H233001   1.921   3.084   6.439
11027TIP3   OH233002   1.822   2.498   6.807
11027TIP3    H133003   1.813   2.430   6.876
11027TIP3    H233004   1.919   2.494   6.791
11028TIP3   OH233005   0.726   2.899   7.907
11028TIP3    H133006   0.791   2.828   7.895
11028TIP3    H233007   0.775   2.962   7.961
11029TIP3   OH233008   1.028   2.544   6.585
11029TIP3    H133009   1.042   2.451   6.557
11029TIP3    H233010   1.009   2.533   6.680
11030TIP3   OH233011   0.976   2.548   6.858
11030TIP3    H133012   1.047   2.525   6.919
11030TIP3    H233013   0.976   2.646   6.863
11031TIP3   OH233014   0.714   2.245   7.062
11031TIP3    H133015   0.646   2.287   7.119
11031TIP3    H233016   0.724   2.314   6.994
11032TIP3   OH233017   1.864   1.854   7.950
11032TIP3    H133018   1.920   1.933   7.964
11032TIP3    H233019   1.829   1.838   8.038
11033TIP3   OH233020   1.737   1.634   7.117
11033TIP3    H133021   1.727   1.657   7.023
11033TIP3    H233022   1.777   1.715   7.154
11034TIP3   OH233023   1.239   2.746   6.807
11034TIP3    H133024   1.152   2.772   6.842
11034TIP3    H233025   1.255   2.817   6.744
11035TIP3   OH233026   1.423   1.810   7.217
11035TIP3    H133027   1.487   1.881   7.196
11035TIP3    H233028   1.438   1.801   7.314
11036TIP3   OH233029   1.589   1.551   7.331
11036TIP3    H133030   1.574   1.636   7.377
11036TIP3    H233031   1.644   1.580   7.254
11037TIP3   OH233032   0.982   2.820   6.874
11037TIP3    H133033   0.951   2.889   6.810
11037TIP3    H233034   0.965   2.864   6.960
11038TIP3   OH233035   1.085   1.549   7.113
11038TIP3    H133036   1.095   1.640   7.149
11038TIP3    H233037   1.177   1.518   7.125
11039TIP3   OH233038   2.328   2.022   8.002
11039TIP3    H133039   2.235   1.999   7.987
11039TIP3    H233040   2.365   2.005   7.914
11040TIP3   OH233041   1.987   2.226   7.403
11040TIP3    H133042   1.917   2.159   7.411
11040TIP3    H233043   2.064   2.181   7.444
11041TIP3   OH233044   0.702   2.452   6.866
11041TIP3    H133045   0.764   2.527   6.874
11041TIP3    H233046   0.750   2.399   6.799
11042TIP3   OH233047   1.954   3.179   7.348
11042TIP3    H133048   1.912   3.227   7.273
11042TIP3    H233049   2.049   3.198   7.327
11043TIP3   OH233050   0.569   2.662   7.255
11043TIP3    H133051   0.502   2.705   7.310
11043TIP3    H233052   0.551   2.704   7.169
11044TIP3   OH233053   1.191   2.748   6.499
11044TIP3    H133054   1.135   2.676   6.535
11044TIP3    H233055   1.266   2.697   6.463
11045TIP3   OH233056   1.839   3.081   8.107
11045TIP3    H133057   1.861   2.999   8.152
11045TIP3    H233058   1.918   3.135   8.124
11046TIP3   OH233059   1.626   2.787   6.409
11046TIP3    H133060   1.677   2.728   6.467
11046TIP3    H233061   1.680   2.789   6.327
11047TIP3   OH233062   0.840   2.267   6.721
11047TIP3    H133063   0.895   2.237   6.795
11047TIP3    H233064   0.908   2.271   6.650
11048TIP3   OH233065   1.343   2.460   6.526
11048TIP3    H133066   1.347   2.474   6.622
11048TIP3    H233067   1.341   2.362   6.521
11049TIP3   OH233068   1.958   2.710   7.909
11049TIP3    H133069   2.033   2.751   7.861
11049TIP3    H233070   1.886   2.771   7.887
11050TIP3   OH233071   1.043   2.169   6.942
11050TIP3    H133072   1.015   2.130   7.026
11050TIP3    H233073   1.080   2.092   6.894
11051TIP3   OH233074   1.144   1.955   6.787
11051TIP3    H133075   1.118   1.967   6.693
11051TIP3    H233076   1.241   1.963   6.779
11052TIP3   OH233077   1.963   2.291   6.446
11052TIP3    H133078   1.945   2.248   6.360
11052TIP3    H233079   1.932   2.382   6.424
11053TIP3   OH233080   1.495   2.338   7.957
11053TIP3    H133081   1.556   2.366   7.889
11053TIP3    H233082   1.417   2.394   7.940
11054TIP3   OH233083   2.087   2.547   8.082
11054TIP3    H133084   2.032   2.609   8.028
11054TIP3    H233085   2.177   2.580   8.058
11055TIP3   OH233086   0.951   3.021   6.686
11055TIP3    H133087   1.046   3.019   6.667
11055TIP3    H233088   0.919   3.072   6.609
11056TIP3   OH233089   0.443   2.393   6.917
11056TIP3    H133090   0.534   2.422   6.894
11056TIP3    H233091   0.433   2.313   6.863
11057TIP3   OH233092   0.345   3.015   7.317
11057TIP3    H133093   0.256   2.980   7.313
11057TIP3    H233094   0.386   2.958   7.385
11058TIP3   OH233095   0.483   2.870   7.505
11058TIP3    H133096   0.482   2.800   7.574
11058TIP3    H233097   0.530   2.939   7.555
11059TIP3   OH233098   2.206   3.274   7.304
11059TIP3    H133099   2.240   3.309   7.388
11059TIP3    H233100   2.269   3.307   7.240
11060TIP3   OH233101   2.236   3.292   7.590
11060TIP3    H133102   2.194   3.204   7.580
11060TIP3    H233103   2.316   3.265   7.638
11061TIP3   OH233104   2.286   2.971   8.140
11061TIP3    H133105   2.223   2.971   8.214
11061TIP3    H233106   2.326   3.060   8.147
11062TIP3   OH233107   2.097   2.481   6.776
11062TIP3    H133108   2.168   2.543   6.748
11062TIP3    H233109   2.140   2.441   6.856
11063TIP3   OH233110   2.217   2.347   6.977
11063TIP3    H133111   2.163   2.306   7.048
11063TIP3    H233112   2.296   2.380   7.027
11064TIP3   OH233113   2.290   2.730   7.406
11064TIP3    H133114   2.324   2.671   7.337
11064TIP3    H233115   2.278   2.813   7.356
11065TIP3   OH233116   2.114   3.040   7.608
11065TIP3    H133117   2.040   3.077   7.659
11065TIP3    H233118   2.068   2.991   7.537
11066TIP3   OH233119   2.165   2.253   6.629
11066TIP3    H133120   2.094   2.259   6.561
11066TIP3    H233121   2.140   2.328   6.686
11067TIP3   OH233122   2.034   1.927   6.584
11067TIP3    H133123   1.996   1.969   6.506
11067TIP3    H233124   2.008   1.833   6.570
11068TIP3   OH233125   2.034   2.202   7.132
11068TIP3    H133126   2.057   2.108   7.129
11068TIP3    H233127   2.031   2.220   7.229
11069TIP3   OH233128   0.670   2.306   7.863
11069TIP3    H133129   0.677   2.268   7.773
11069TIP3    H233130   0.754   2.279   7.899
11070TIP3   OH233131   2.334   2.629   7.988
11070TIP3    H133132   2.407   2.565   7.979
11070TIP3    H233133   2.356   2.695   7.920
11071TIP3   OH233134   2.528   2.445   8.007
11071TIP3    H133135   2.454   2.390   8.038
11071TIP3    H233136   2.602   2.383   8.022
11072TIP3   OH233137   1.982   1.659   6.564
11072TIP3    H133138   2.061   1.635   6.619
11072TIP3    H233139   1.912   1.601   6.599
11073TIP3   OH233140   2.036   1.916   7.021
11073TIP3    H133141   2.079   1.828   7.036
11073TIP3    H233142   2.096   1.953   6.954
11074TIP3   OH233143   2.203   2.093   7.511
11074TIP3    H133144   2.270   2.139   7.455
11074TIP3    H233145   2.228   2.132   7.597
11075TIP3   OH233146   2.267   2.234   7.752
11075TIP3    H133147   2.183   2.272   7.785
11075TIP3    H233148   2.307   2.315   7.711
11076TIP3   OH233149   2.148   1.668   7.061
11076TIP3    H133150   2.198   1.654   7.144
11076TIP3    H233151   2.087   1.592   7.063
11077TIP3   OH233152   2.590   1.975   8.110
11077TIP3    H133153   2.509   2.003   8.064
11077TIP3    H233154   2.608   1.892   8.063
11078TIP3   OH233155   2.226   1.606   6.691
11078TIP3    H133156   2.273   1.535   6.643
11078TIP3    H233157   2.294   1.677   6.693
11079TIP3   OH233158   1.794   3.137   6.962
11079TIP3    H133159   1.839   3.119   6.877
11079TIP3    H233160   1.852   3.204   7.000
11080TIP3   OH233161   1.056   2.965   7.887
11080TIP3    H133162   1.020   3.047   7.848
11080TIP3    H233163   1.149   2.976   7.857
11081TIP3   OH233164   1.535   3.216   8.039
11081TIP3    H133165   1.608   3.184   8.095
11081TIP3    H233166   1.587   3.264   7.970
11082TIP3   OH233167   1.690   3.364   7.879
11082TIP3    H133168   1.759   3.317   7.830
11082TIP3    H233169   1.744   3.426   7.933
11083TIP3   OH233170   2.488   1.737   7.983
11083TIP3    H133171   2.397   1.722   7.952
11083TIP3    H233172   2.521   1.644   7.985
11084TIP3   OH233173   0.762   3.238   7.929
11084TIP3    H133174   0.680   3.274   7.888
11084TIP3    H233175   0.723   3.203   8.009
11085TIP3   OH233176   0.988   3.208   7.774
11085TIP3    H133177   0.904   3.227   7.822
11085TIP3    H233178   0.966   3.238   7.684
11086TIP3   OH233179   1.408   3.243   7.578
11086TIP3    H133180   1.341   3.250   7.507
11086TIP3    H233181   1.418   3.337   7.603
11087TIP3   OH233182   1.678   3.180   7.629
11087TIP3    H133183   1.585   3.196   7.603
11087TIP3    H233184   1.725   3.245   7.575
11088TIP3   OH233185   1.885   3.368   7.538
11088TIP3    H133186   1.871   3.452   7.490
11088TIP3    H233187   1.913   3.308   7.466
11089TIP3   OH233188   0.661   3.026   7.659
11089TIP3    H133189   0.674   2.993   7.751
11089TIP3    H233190   0.731   2.976   7.612
11090TIP3   OH233191   0.853   2.892   7.519
11090TIP3    H133192   0.871   2.809   7.569
11090TIP3    H233193   0.943   2.930   7.511
11091TIP3   OH233194   1.119   2.990   7.521
11091TIP3    H133195   1.151   2.900   7.504
11091TIP3    H233196   1.161   3.008   7.607
11092TIP3   OH233197   1.706   1.649   7.614
11092TIP3    H133198   1.666   1.575   7.662
11092TIP3    H233199   1.775   1.605   7.561
11093TIP3   OH233200   2.218   1.524   7.518
11093TIP3    H133201   2.257   1.576   7.443
11093TIP3    H233202   2.123   1.546   7.509
11094TIP3   OH233203   2.312   1.621   7.279
11094TIP3    H133204   2.386   1.571   7.238
11094TIP3    H233205   2.345   1.713   7.265
11095TIP3   OH233206   1.384   1.440   7.470
11095TIP3    H133207   1.466   1.484   7.439
11095TIP3    H233208   1.391   1.445   7.566
11096TIP3   OH233209   1.932   1.533   7.488
11096TIP3    H133210   1.932   1.498   7.398
11096TIP3    H233211   1.914   1.451   7.540
11097TIP3   OH233212   1.963   1.455   7.051
11097TIP3    H133213   1.875   1.494   7.067
11097TIP3    H233214   1.954   1.369   7.096
11098TIP3   OH233215   0.443   2.799   7.058
11098TIP3    H133216   0.372   2.758   7.007
11098TIP3    H233217   0.431   2.892   7.031
11099TIP3   OH233218   1.361   1.555   7.132
11099TIP3    H133219   1.409   1.496   7.193
11099TIP3    H233220   1.392   1.643   7.164
11100TIP3   OH233221   1.220   2.984   6.636
11100TIP3    H133222   1.309   3.007   6.600
11100TIP3    H233223   1.197   2.910   6.576
11101TIP3   OH233224   1.935   3.101   6.729
11101TIP3    H133225   1.927   3.003   6.715
11101TIP3    H233226   1.893   3.134   6.647
11102TIP3   OH233227   0.522   2.818   6.693
11102TIP3    H133228   0.519   2.863   6.779
11102TIP3    H233229   0.613   2.782   6.689
11103TIP3   OH233230   2.158   3.247   7.917
11103TIP3    H133231   2.084   3.218   7.860
11103TIP3    H233232   2.145   3.344   7.914
11104TIP3   OH233233   3.431   2.619   6.682
11104TIP3    H133234   3.402   2.710   6.660
11104TIP3    H233235   3.355   2.569   6.648
11105TIP3   OH233236   3.434   2.618   7.061
11105TIP3    H133237   3.460   2.586   7.148
11105TIP3    H233238   3.388   2.541   7.024
11106TIP3   OH233239   2.737   2.539   7.429
11106TIP3    H133240   2.744   2.454   7.474
11106TIP3    H233241   2.829   2.565   7.420
11107TIP3   OH233242   3.676   2.918   6.743
11107TIP3    H133243   3.655   2.850   6.809
11107TIP3    H233244   3.701   2.994   6.798
11108TIP3   OH233245   2.700   2.928   7.157
11108TIP3    H133246   2.693   2.830   7.157
11108TIP3    H233247   2.797   2.936   7.147
11109TIP3   OH233248   2.410   2.119   6.938
11109TIP3    H133249   2.378   2.207   6.962
11109TIP3    H233250   2.331   2.078   6.899
11110TIP3   OH233251   2.454   2.404   7.090
11110TIP3    H133252   2.459   2.372   7.182
11110TIP3    H233253   2.547   2.415   7.067
11111TIP3   OH233254   3.322   3.382   6.760
11111TIP3    H133255   3.368   3.312   6.710
11111TIP3    H233256   3.314   3.342   6.848
11112TIP3   OH233257   3.228   2.846   7.112
11112TIP3    H133258   3.262   2.769   7.063
11112TIP3    H233259   3.313   2.888   7.135
11113TIP3   OH233260   4.243   2.164   7.109
11113TIP3    H133261   4.272   2.248   7.150
11113TIP3    H233262   4.260   2.182   7.015
11114TIP3   OH233263   3.644   2.346   7.144
11114TIP3    H133264   3.683   2.259   7.162
11114TIP3    H233265   3.610   2.332   7.053
11115TIP3   OH233266   2.981   2.006   7.103
11115TIP3    H133267   2.956   2.080   7.045
11115TIP3    H233268   2.929   1.934   7.061
11116TIP3   OH233269   3.673   2.096   6.731
11116TIP3    H133270   3.745   2.079   6.796
11116TIP3    H233271   3.724   2.132   6.657
11117TIP3   OH233272   3.054   2.407   7.007
11117TIP3    H133273   3.147   2.379   7.022
11117TIP3    H233274   3.013   2.323   6.974
11118TIP3   OH233275   4.317   2.374   7.278
11118TIP3    H133276   4.233   2.420   7.255
11118TIP3    H233277   4.321   2.394   7.372
11119TIP3   OH233278   2.979   1.983   7.550
11119TIP3    H133279   2.924   2.019   7.477
11119TIP3    H233280   2.923   2.007   7.627
11120TIP3   OH233281   3.324   2.840   6.550
11120TIP3    H133282   3.280   2.820   6.467
11120TIP3    H233283   3.278   2.923   6.575
11121TIP3   OH233284   3.085   2.765   7.341
11121TIP3    H133285   3.020   2.829   7.378
11121TIP3    H233286   3.121   2.815   7.265
11122TIP3   OH233287   3.885   2.097   6.902
11122TIP3    H133288   3.871   2.049   6.984
11122TIP3    H233289   3.936   2.175   6.931
11123TIP3   OH233290   2.851   2.085   7.335
11123TIP3    H133291   2.890   2.174   7.347
11123TIP3    H233292   2.894   2.057   7.252
11124TIP3   OH233293   2.910   2.958   7.439
11124TIP3    H133294   2.882   3.041   7.397
11124TIP3    H233295   2.830   2.939   7.493
11125TIP3   OH233296   2.303   2.647   6.670
11125TIP3    H133297   2.265   2.676   6.585
11125TIP3    H233298   2.336   2.730   6.708
11126TIP3   OH233299   3.746   3.164   6.913
11126TIP3    H133300   3.656   3.155   6.953
11126TIP3    H233301   3.736   3.249   6.866
11127TIP3   OH233302   4.034   2.068   7.277
11127TIP3    H133303   3.945   2.091   7.244
11127TIP3    H233304   4.092   2.097   7.204
11128TIP3   OH233305   3.334   1.709   7.258
11128TIP3    H133306   3.317   1.614   7.272
11128TIP3    H233307   3.256   1.747   7.304
11129TIP3   OH233308   3.448   3.210   6.589
11129TIP3    H133309   3.496   3.126   6.566
11129TIP3    H233310   3.510   3.274   6.547
11130TIP3   OH233311   3.589   2.995   6.493
11130TIP3    H133312   3.547   2.917   6.453
11130TIP3    H233313   3.625   2.957   6.576
11131TIP3   OH233314   3.972   3.076   7.255
11131TIP3    H133315   3.958   2.998   7.197
11131TIP3    H233316   3.951   3.150   7.195
11132TIP3   OH233317   3.262   2.471   6.513
11132TIP3    H133318   3.181   2.522   6.493
11132TIP3    H233319   3.305   2.466   6.425
11133TIP3   OH233320   3.221   2.248   6.237
11133TIP3    H133321   3.289   2.305   6.277
11133TIP3    H233322   3.278   2.188   6.184
11134TIP3   OH233323   4.166   2.716   7.102
11134TIP3    H133324   4.081   2.765   7.106
11134TIP3    H233325   4.194   2.739   7.010
11135TIP3   OH233326   3.610   2.553   6.485
11135TIP3    H133327   3.553   2.577   6.562
11135TIP3    H233328   3.693   2.528   6.530
11136TIP3   OH233329   3.844   2.593   7.395
11136TIP3    H133330   3.838   2.678   7.441
11136TIP3    H233331   3.757   2.592   7.350
11137TIP3   OH233332   2.841   2.550   6.900
11137TIP3    H133333   2.799   2.492   6.833
11137TIP3    H233334   2.918   2.496   6.929
11138TIP3   OH233335   2.970   2.963   7.051
11138TIP3    H133336   2.946   2.921   6.967
11138TIP3    H233337   3.060   2.927   7.066
11139TIP3   OH233338   2.988   2.518   7.260
11139TIP3    H133339   3.009   2.500   7.167
11139TIP3    H233340   3.023   2.609   7.274
11140TIP3   OH233341   3.505   3.159   7.033
11140TIP3    H133342   3.489   3.239   7.086
11140TIP3    H233343   3.488   3.086   7.095
11141TIP3   OH233344   3.115   3.079   7.580
11141TIP3    H133345   3.053   3.141   7.624
11141TIP3    H233346   3.052   3.024   7.530
11142TIP3   OH233347   3.451   2.408   6.310
11142TIP3    H133348   3.508   2.471   6.361
11142TIP3    H233349   3.476   2.431   6.217
11143TIP3   OH233350   2.877   2.635   7.683
11143TIP3    H133351   2.873   2.719   7.733
11143TIP3    H233352   2.782   2.614   7.677
11144TIP3   OH233353   3.192   3.091   6.589
11144TIP3    H133354   3.270   3.147   6.603
11144TIP3    H233355   3.131   3.150   6.543
11145TIP3   OH233356   2.909   3.249   7.667
11145TIP3    H133357   2.876   3.247   7.575
11145TIP3    H233358   2.829   3.225   7.718
11146TIP3   OH233359   3.965   1.651   6.359
11146TIP3    H133360   3.883   1.671   6.409
11146TIP3    H233361   3.978   1.735   6.310
11147TIP3   OH233362   2.711   2.392   6.702
11147TIP3    H133363   2.641   2.434   6.648
11147TIP3    H233364   2.668   2.310   6.729
11148TIP3   OH233365   3.763   3.019   5.906
11148TIP3    H133366   3.770   3.116   5.892
11148TIP3    H233367   3.856   2.991   5.895
11149TIP3   OH233368   2.486   2.778   7.612
11149TIP3    H133369   2.425   2.751   7.540
11149TIP3    H233370   2.529   2.693   7.635
11150TIP3   OH233371   2.341   2.970   7.250
11150TIP3    H133372   2.435   2.956   7.233
11150TIP3    H233373   2.342   3.052   7.302
11151TIP3   OH233374   4.208   3.422   7.302
11151TIP3    H133375   4.205   3.325   7.314
11151TIP3    H233376   4.124   3.447   7.347
11152TIP3   OH233377   3.314   3.206   7.438
11152TIP3    H133378   3.312   3.299   7.468
11152TIP3    H233379   3.240   3.167   7.490
11153TIP3   OH233380   3.074   3.335   6.388
11153TIP3    H133381   3.029   3.317   6.304
11153TIP3    H233382   3.042   3.425   6.411
11154TIP3   OH233383   2.511   3.185   6.772
11154TIP3    H133384   2.559   3.176   6.857
11154TIP3    H233385   2.457   3.104   6.773
11155TIP3   OH233386   3.275   3.238   6.028
11155TIP3    H133387   3.334   3.169   5.991
11155TIP3    H233388   3.309   3.247   6.119
11156TIP3   OH233389   3.325   3.285   6.299
11156TIP3    H133390   3.236   3.295   6.339
11156TIP3    H233391   3.373   3.243   6.372
11157TIP3   OH233392   4.096   2.552   7.575
11157TIP3    H133393   4.015   2.566   7.525
11157TIP3    H233394   4.111   2.457   7.562
11158TIP3   OH233395   2.690   2.963   7.604
11158TIP3    H133396   2.743   2.941   7.683
11158TIP3    H233397   2.619   2.896   7.607
11159TIP3   OH233398   3.096   1.783   7.385
11159TIP3    H133399   3.006   1.753   7.358
11159TIP3    H233400   3.070   1.866   7.430
11160TIP3   OH233401   3.626   1.900   7.580
11160TIP3    H133402   3.693   1.870   7.644
11160TIP3    H233403   3.541   1.879   7.625
11161TIP3   OH233404   3.871   2.331   7.503
11161TIP3    H133405   3.816   2.326   7.585
11161TIP3    H233406   3.841   2.414   7.463
11162TIP3   OH233407   3.531   2.453   6.057
11162TIP3    H133408   3.490   2.431   5.971
11162TIP3    H233409   3.605   2.510   6.028
11163TIP3   OH233410   3.240   1.830   6.358
11163TIP3    H133411   3.205   1.828   6.449
11163TIP3    H233412   3.199   1.749   6.322
11164TIP3   OH233413   3.032   2.298   7.408
11164TIP3    H133414   2.974   2.316   7.485
11164TIP3    H233415   3.015   2.378   7.353
11165TIP3   OH233416   2.914   2.189   6.914
11165TIP3    H133417   2.821   2.162   6.934
11165TIP3    H233418   2.924   2.146   6.826
11166TIP3   OH233419   3.400   2.272   6.646
11166TIP3    H133420   3.346   2.343   6.604
11166TIP3    H233421   3.452   2.240   6.570
11167TIP3   OH233422   3.574   2.552   7.736
11167TIP3    H133423   3.550   2.478   7.796
11167TIP3    H233424   3.669   2.559   7.755
11168TIP3   OH233425   3.557   2.301   6.885
11168TIP3    H133426   3.496   2.330   6.815
11168TIP3    H233427   3.589   2.219   6.841
11169TIP3   OH233428   2.851   2.328   7.610
11169TIP3    H133429   2.863   2.393   7.680
11169TIP3    H233430   2.833   2.246   7.660
11170TIP3   OH233431   2.892   1.804   6.323
11170TIP3    H133432   2.884   1.804   6.420
11170TIP3    H233433   2.816   1.861   6.298
11171TIP3   OH233434   2.436   1.842   7.195
11171TIP3    H133435   2.500   1.889   7.252
11171TIP3    H233436   2.486   1.830   7.113
11172TIP3   OH233437   2.407   1.830   6.711
11172TIP3    H133438   2.456   1.869   6.636
11172TIP3    H233439   2.351   1.906   6.735
11173TIP3   OH233440   3.573   2.546   7.309
11173TIP3    H133441   3.603   2.473   7.250
11173TIP3    H233442   3.539   2.493   7.384
11174TIP3   OH233443   3.236   2.005   6.979
11174TIP3    H133444   3.150   2.006   7.026
11174TIP3    H233445   3.298   2.008   7.054
11175TIP3   OH233446   2.679   2.070   6.969
11175TIP3    H133447   2.582   2.084   6.968
11175TIP3    H233448   2.688   1.974   6.962
11176TIP3   OH233449   2.941   2.056   6.674
11176TIP3    H133450   3.034   2.076   6.651
11176TIP3    H233451   2.891   2.080   6.593
11177TIP3   OH233452   3.728   2.082   7.181
11177TIP3    H133453   3.693   2.095   7.272
11177TIP3    H233454   3.661   2.021   7.145
11178TIP3   OH233455   2.782   2.089   6.454
11178TIP3    H133456   2.709   2.049   6.404
11178TIP3    H233457   2.834   2.129   6.381
11179TIP3   OH233458   3.897   3.771   7.400
11179TIP3    H133459   3.893   3.794   7.305
11179TIP3    H233460   3.974   3.823   7.429
11180TIP3   OH233461   2.854   2.888   7.821
11180TIP3    H133462   2.935   2.912   7.871
11180TIP3    H233463   2.791   2.874   7.894
11181TIP3   OH233464   3.319   2.336   7.079
11181TIP3    H133465   3.390   2.293   7.029
11181TIP3    H233466   3.325   2.292   7.166
11182TIP3   OH233467   2.846   1.819   6.957
11182TIP3    H133468   2.811   1.740   7.002
11182TIP3    H233469   2.892   1.782   6.880
11183TIP3   OH233470   3.297   2.232   7.364
11183TIP3    H133471   3.205   2.264   7.378
11183TIP3    H233472   3.350   2.295   7.416
11184TIP3   OH233473   3.032   2.623   6.463
11184TIP3    H133474   2.960   2.557   6.451
11184TIP3    H233475   3.012   2.656   6.554
11185TIP3   OH233476   3.932   2.858   7.092
11185TIP3    H133477   3.954   2.909   7.011
11185TIP3    H233478   3.847   2.815   7.067
11186TIP3   OH233479   3.491   1.935   6.324
11186TIP3    H133480   3.394   1.917   6.331
11186TIP3    H233481   3.498   2.029   6.347
11187TIP3   OH233482   3.441   2.946   7.457
11187TIP3    H133483   3.445   2.914   7.548
11187TIP3    H233484   3.393   3.031   7.466
11188TIP3   OH233485   3.560   2.182   6.428
11188TIP3    H133486   3.656   2.191   6.443
11188TIP3    H233487   3.539   2.262   6.376
11189TIP3   OH233488   2.727   2.657   7.138
11189TIP3    H133489   2.764   2.612   7.060
11189TIP3    H233490   2.732   2.590   7.208
11190TIP3   OH233491   3.180   2.774   6.288
11190TIP3    H133492   3.131   2.859   6.291
11190TIP3    H233493   3.123   2.718   6.346
11191TIP3   OH233494   2.605   2.572   7.750
11191TIP3    H133495   2.620   2.549   7.844
11191TIP3    H233496   2.533   2.512   7.725
11192TIP3   OH233497   3.328   2.680   7.771
11192TIP3    H133498   3.264   2.621   7.728
11192TIP3    H233499   3.413   2.643   7.738
11193TIP3   OH233500   3.594   3.204   7.353
11193TIP3    H133501   3.498   3.196   7.366
11193TIP3    H233502   3.619   3.255   7.433
11194TIP3   OH233503   4.004   2.273   6.262
11194TIP3    H133504   3.942   2.228   6.200
11194TIP3    H233505   3.999   2.363   6.223
11195TIP3   OH233506   4.222   3.131   7.343
11195TIP3    H133507   4.124   3.125   7.335
11195TIP3    H233508   4.247   3.100   7.254
11196TIP3   OH233509   3.708   3.090   6.173
11196TIP3    H133510   3.673   3.022   6.232
11196TIP3    H233511   3.714   3.045   6.087
11197TIP3   OH233512   3.699   2.720   7.013
11197TIP3    H133513   3.605   2.695   7.025
11197TIP3    H233514   3.731   2.641   6.965
11198TIP3   OH233515   2.826   2.950   6.765
11198TIP3    H133516   2.825   3.030   6.709
11198TIP3    H233517   2.732   2.929   6.769
11199TIP3   OH233518   2.388   2.252   6.464
11199TIP3    H133519   2.435   2.336   6.485
11199TIP3    H233520   2.313   2.258   6.527
11200TIP3   OH233521   2.965   2.715   6.708
11200TIP3    H133522   2.930   2.804   6.727
11200TIP3    H233523   2.927   2.663   6.781
11201TIP3   OH233524   3.093   3.293   7.233
11201TIP3    H133525   3.134   3.365   7.180
11201TIP3    H233526   3.171   3.257   7.278
11202TIP3   OH233527   2.745   3.188   6.615
11202TIP3    H133528   2.659   3.198   6.661
11202TIP3    H233529   2.778   3.280   6.617
11203TIP3   OH233530   3.484   2.925   7.189
11203TIP3    H133531   3.476   2.925   7.287
11203TIP3    H233532   3.561   2.869   7.176
11204TIP3   OH233533   3.458   2.818   6.071
11204TIP3    H133534   3.506   2.793   6.153
11204TIP3    H233535   3.367   2.792   6.095
11205TIP3   OH233536   3.732   3.461   7.240
11205TIP3    H133537   3.653   3.405   7.233
11205TIP3    H233538   3.716   3.525   7.167
11206TIP3   OH233539   3.797   3.294   5.893
11206TIP3    H133540   3.828   3.363   5.833
11206TIP3    H233541   3.717   3.339   5.928
11207TIP3   OH233542   2.817   2.067   7.760
11207TIP3    H133543   2.720   2.068   7.773
11207TIP3    H233544   2.846   2.011   7.835
11208TIP3   OH233545   3.617   2.754   6.290
11208TIP3    H133546   3.606   2.688   6.361
11208TIP3    H233547   3.714   2.750   6.277
11209TIP3   OH233548   2.529   3.156   7.394
11209TIP3    H133549   2.581   3.077   7.417
11209TIP3    H233550   2.569   3.222   7.451
11210TIP3   OH233551   2.824   2.801   6.074
11210TIP3    H133552   2.834   2.710   6.041
11210TIP3    H233553   2.803   2.785   6.168
11211TIP3   OH233554   2.767   2.804   6.348
11211TIP3    H133555   2.842   2.779   6.403
11211TIP3    H233556   2.772   2.902   6.351
11212TIP3   OH233557   2.503   2.497   6.548
11212TIP3    H133558   2.438   2.542   6.605
11212TIP3    H233559   2.519   2.566   6.481
11213TIP3   OH233560   3.655   2.135   7.441
11213TIP3    H133561   3.735   2.169   7.483
11213TIP3    H233562   3.637   2.054   7.493
11214TIP3   OH233563   3.535   1.885   6.605
11214TIP3    H133564   3.519   1.908   6.511
11214TIP3    H233565   3.571   1.969   6.640
11215TIP3   OH233566   3.036   3.002   6.297
11215TIP3    H133567   2.948   3.030   6.330
11215TIP3    H233568   3.049   3.068   6.227
11216TIP3   OH233569   3.226   2.064   6.707
11216TIP3    H133570   3.288   2.138   6.690
11216TIP3    H233571   3.228   2.059   6.805
11217TIP3   OH233572   3.493   2.386   7.513
11217TIP3    H133573   3.508   2.438   7.594
11217TIP3    H233574   3.544   2.305   7.529
11218TIP3   OH233575   3.367   1.794   6.811
11218TIP3    H133576   3.354   1.873   6.867
11218TIP3    H233577   3.427   1.830   6.742
11219TIP3   OH233578   2.778   3.077   6.361
11219TIP3    H133579   2.748   3.146   6.297
11219TIP3    H233580   2.762   3.122   6.446
11220TIP3   OH233581   2.878   1.791   6.600
11220TIP3    H133582   2.875   1.882   6.636
11220TIP3    H233583   2.974   1.773   6.608
11221TIP3   OH233584   4.136   2.284   7.494
11221TIP3    H133585   4.039   2.285   7.506
11221TIP3    H233586   4.141   2.238   7.409
11222TIP3   OH233587   3.784   2.479   6.884
11222TIP3    H133588   3.707   2.421   6.895
11222TIP3    H233589   3.854   2.430   6.932
11223TIP3   OH233590   2.494   2.708   6.354
11223TIP3    H133591   2.561   2.779   6.362
11223TIP3    H233592   2.539   2.653   6.287
11224TIP3   OH233593   2.441   1.983   6.486
11224TIP3    H133594   2.445   2.081   6.483
11224TIP3    H233595   2.354   1.967   6.447
11225TIP3   OH233596   3.752   3.435   6.834
11225TIP3    H133597   3.708   3.482   6.760
11225TIP3    H233598   3.846   3.452   6.811
11226TIP3   OH233599   2.832   1.703   7.360
11226TIP3    H133600   2.797   1.674   7.273
11226TIP3    H233601   2.816   1.625   7.416
11227TIP3   OH233602   2.370   2.926   6.743
11227TIP3    H133603   2.293   2.955   6.794
11227TIP3    H233604   2.347   2.962   6.655
11228TIP3   OH233605   2.522   3.461   7.819
11228TIP3    H133606   2.611   3.458   7.859
11228TIP3    H233607   2.503   3.366   7.810
11229TIP3   OH233608   3.004   3.426   7.860
11229TIP3    H133609   3.099   3.409   7.861
11229TIP3    H233610   2.977   3.369   7.785
11230TIP3   OH233611   2.990   3.004   5.990
11230TIP3    H133612   2.932   2.931   6.023
11230TIP3    H233613   3.062   2.952   5.950
11231TIP3   OH233614   3.642   3.337   7.593
11231TIP3    H133615   3.634   3.266   7.660
11231TIP3    H233616   3.720   3.386   7.622
11232TIP3   OH233617   3.424   3.046   5.897
11232TIP3    H133618   3.469   2.980   5.953
11232TIP3    H233619   3.478   3.045   5.815
11233TIP3   OH233620   2.652   2.865   8.012
11233TIP3    H133621   2.675   2.770   8.012
11233TIP3    H233622   2.567   2.864   7.963
11234TIP3   OH233623   2.627   2.520   6.206
11234TIP3    H133624   2.686   2.489   6.278
11234TIP3    H233625   2.693   2.524   6.133
11235TIP3   OH233626   3.259   2.955   7.787
11235TIP3    H133627   3.217   2.970   7.700
11235TIP3    H233628   3.288   2.861   7.780
11236TIP3   OH233629   3.145   2.723   6.016
11236TIP3    H133630   3.144   2.732   6.113
11236TIP3    H233631   3.144   2.625   6.008
11237TIP3   OH233632   3.757   2.961   7.396
11237TIP3    H133633   3.828   3.009   7.349
11237TIP3    H233634   3.681   3.021   7.382
11238TIP3   OH233635   2.782   2.616   7.987
11238TIP3    H133636   2.834   2.535   7.980
11238TIP3    H233637   2.789   2.630   8.083
11239TIP3   OH233638   2.841   2.424   6.430
11239TIP3    H133639   2.812   2.383   6.513
11239TIP3    H233640   2.876   2.348   6.379
11240TIP3   OH233641   3.115   2.495   7.664
11240TIP3    H133642   3.032   2.546   7.664
11240TIP3    H233643   3.157   2.524   7.580
11241TIP3   OH233644   2.939   2.216   6.271
11241TIP3    H133645   2.914   2.222   6.177
11241TIP3    H233646   3.037   2.220   6.264
11242TIP3   OH233647   3.630   2.894   7.795
11242TIP3    H133648   3.700   2.862   7.737
11242TIP3    H233649   3.619   2.821   7.858
11243TIP3   OH233650   3.768   2.549   5.929
11243TIP3    H133651   3.741   2.503   5.847
11243TIP3    H233652   3.733   2.639   5.909
11244TIP3   OH233653   3.236   2.276   7.779
11244TIP3    H133654   3.230   2.196   7.722
11244TIP3    H233655   3.189   2.343   7.725
11245TIP3   OH233656   3.236   2.062   7.589
11245TIP3    H133657   3.259   2.105   7.504
11245TIP3    H233658   3.142   2.039   7.574
11246TIP3   OH233659   3.267   2.604   7.464
11246TIP3    H133660   3.344   2.609   7.406
11246TIP3    H233661   3.205   2.667   7.421
11247TIP3   OH233662   3.845   2.567   7.846
11247TIP3    H133663   3.890   2.482   7.854
11247TIP3    H233664   3.912   2.622   7.803
11248TIP3   OH233665   3.885   2.821   7.586
11248TIP3    H133666   3.827   2.872   7.525
11248TIP3    H233667   3.972   2.840   7.544
11249TIP3   OH233668   3.121   2.388   8.016
11249TIP3    H133669   3.038   2.337   8.031
11249TIP3    H233670   3.145   2.358   7.926
11250TIP3   OH233671   3.366   1.827   7.658
11250TIP3    H133672   3.317   1.909   7.634
11250TIP3    H233673   3.297   1.759   7.645
11251TIP3   OH233674   3.492   2.332   7.873
11251TIP3    H133675   3.475   2.317   7.968
11251TIP3    H233676   3.403   2.308   7.839
11252TIP3   OH233677   3.732   2.284   7.731
11252TIP3    H133678   3.655   2.283   7.791
11252TIP3    H233679   3.803   2.247   7.787
11253TIP3   OH233680   3.972   2.222   7.878
11253TIP3    H133681   3.976   2.125   7.896
11253TIP3    H233682   3.960   2.260   7.967
11254TIP3   OH233683   2.944   2.171   8.049
11254TIP3    H133684   2.958   2.079   8.020
11254TIP3    H233685   2.990   2.168   8.136
11255TIP3   OH233686   3.458   1.835   7.916
11255TIP3    H133687   3.529   1.768   7.907
11255TIP3    H233688   3.420   1.831   7.825
11256TIP3   OH233689   3.531   2.056   8.068
11256TIP3    H133690   3.506   1.985   8.006
11256TIP3    H233691   3.452   2.114   8.067
11257TIP3   OH233692   2.747   3.280   6.174
11257TIP3    H133693   2.842   3.276   6.155
11257TIP3    H233694   2.716   3.328   6.095
11258TIP3   OH233695   2.227   2.662   6.391
11258TIP3    H133696   2.321   2.685   6.376
11258TIP3    H233697   2.222   2.573   6.350
11259TIP3   OH233698   2.138   3.275   6.805
11259TIP3    H133699   2.074   3.211   6.766
11259TIP3    H233700   2.184   3.217   6.869
11260TIP3   OH233701   2.275   3.128   6.991
11260TIP3    H133702   2.268   3.051   7.050
11260TIP3    H233703   2.330   3.187   7.046
11261TIP3   OH233704   4.007   3.520   6.791
11261TIP3    H133705   4.031   3.560   6.876
11261TIP3    H233706   4.060   3.573   6.728
11262TIP3   OH233707   4.033   3.547   7.073
11262TIP3    H133708   3.989   3.460   7.066
11262TIP3    H233709   4.108   3.522   7.128
11263TIP3   OH233710   4.083   3.222   7.647
11263TIP3    H133711   4.007   3.231   7.709
11263TIP3    H233712   4.122   3.311   7.649
11264TIP3   OH233713   3.897   2.734   6.265
11264TIP3    H133714   3.963   2.800   6.236
11264TIP3    H233715   3.941   2.696   6.345
11265TIP3   OH233716   4.026   2.602   6.470
11265TIP3    H133717   3.957   2.560   6.526
11265TIP3    H233718   4.085   2.643   6.536
11266TIP3   OH233719   4.081   2.996   6.904
11266TIP3    H133720   4.129   2.930   6.851
11266TIP3    H233721   4.071   3.070   6.842
11267TIP3   OH233722   3.910   3.296   7.097
11267TIP3    H133723   3.837   3.339   7.146
11267TIP3    H233724   3.861   3.249   7.026
11268TIP3   OH233725   3.963   2.510   6.115
11268TIP3    H133726   3.893   2.513   6.046
11268TIP3    H233727   3.933   2.586   6.170
11269TIP3   OH233728   3.839   2.182   6.067
11269TIP3    H133729   3.787   2.225   5.998
11269TIP3    H233730   3.811   2.088   6.057
11270TIP3   OH233731   3.840   2.460   6.616
11270TIP3    H133732   3.844   2.363   6.608
11270TIP3    H233733   3.825   2.473   6.712
11271TIP3   OH233734   4.128   2.885   7.474
11271TIP3    H133735   4.201   2.819   7.463
11271TIP3    H233736   4.150   2.952   7.408
11272TIP3   OH233737   4.314   2.690   7.490
11272TIP3    H133738   4.238   2.640   7.528
11272TIP3    H233739   4.385   2.624   7.505
11273TIP3   OH233740   3.778   1.916   6.053
11273TIP3    H133741   3.849   1.886   6.113
11273TIP3    H233742   3.702   1.860   6.078
11274TIP3   OH233743   3.836   2.176   6.512
11274TIP3    H133744   3.875   2.087   6.527
11274TIP3    H233745   3.894   2.208   6.440
11275TIP3   OH233746   3.997   2.349   7.006
11275TIP3    H133747   4.083   2.375   6.966
11275TIP3    H233748   4.010   2.386   7.095
11276TIP3   OH233749   4.066   2.494   7.237
11276TIP3    H133750   3.987   2.527   7.284
11276TIP3    H233751   4.097   2.575   7.192
11277TIP3   OH233752   2.679   2.220   8.018
11277TIP3    H133753   2.777   2.228   8.025
11277TIP3    H233754   2.665   2.140   8.072
11278TIP3   OH233755   4.523   2.088   7.795
11278TIP3    H133756   4.578   2.020   7.751
11278TIP3    H233757   4.489   2.139   7.717
11279TIP3   OH233758   3.944   1.925   6.547
11279TIP3    H133759   3.991   1.909   6.632
11279TIP3    H233760   3.882   1.849   6.546
11280TIP3   OH233761   2.636   1.911   7.375
11280TIP3    H133762   2.709   1.846   7.378
11280TIP3    H233763   2.687   1.994   7.361
11281TIP3   OH233764   4.387   2.223   7.601
11281TIP3    H133765   4.300   2.265   7.616
11281TIP3    H233766   4.360   2.152   7.540
11282TIP3   OH233767   4.026   1.860   6.182
11282TIP3    H133768   4.064   1.788   6.128
11282TIP3    H233769   4.093   1.931   6.173
11283TIP3   OH233770   2.428   1.677   6.932
11283TIP3    H133771   2.339   1.687   6.969
11283TIP3    H233772   2.428   1.744   6.860
11284TIP3   OH233773   3.593   3.390   6.449
11284TIP3    H133774   3.639   3.377   6.364
11284TIP3    H233775   3.643   3.464   6.487
11285TIP3   OH233776   2.650   1.768   7.754
11285TIP3    H133777   2.595   1.764   7.834
11285TIP3    H233778   2.587   1.808   7.691
11286TIP3   OH233779   2.688   3.204   7.836
11286TIP3    H133780   2.601   3.168   7.810
11286TIP3    H233781   2.693   3.175   7.928
11287TIP3   OH233782   2.866   3.231   7.382
11287TIP3    H133783   2.820   3.307   7.340
11287TIP3    H233784   2.953   3.242   7.337
11288TIP3   OH233785   3.313   3.473   7.520
11288TIP3    H133786   3.356   3.476   7.608
11288TIP3    H233787   3.377   3.524   7.466
11289TIP3   OH233788   3.490   3.624   7.378
11289TIP3    H133789   3.560   3.575   7.332
11289TIP3    H233790   3.544   3.681   7.438
11290TIP3   OH233791   4.286   1.987   7.477
11290TIP3    H133792   4.195   1.980   7.442
11290TIP3    H233793   4.317   1.894   7.466
11291TIP3   OH233794   2.544   3.486   7.403
11291TIP3    H133795   2.456   3.521   7.378
11291TIP3    H233796   2.551   3.522   7.492
11292TIP3   OH233797   2.781   3.465   7.262
11292TIP3    H133798   2.694   3.478   7.304
11292TIP3    H233799   2.763   3.497   7.171
11293TIP3   OH233800   3.206   3.493   7.061
11293TIP3    H133801   3.138   3.511   6.993
11293TIP3    H233802   3.218   3.582   7.099
11294TIP3   OH233803   3.475   3.434   7.113
11294TIP3    H133804   3.381   3.450   7.092
11294TIP3    H233805   3.517   3.508   7.066
11295TIP3   OH233806   3.685   3.626   7.026
11295TIP3    H133807   3.669   3.710   6.978
11295TIP3    H233808   3.709   3.565   6.953
11296TIP3   OH233809   2.453   3.278   7.151
11296TIP3    H133810   2.483   3.254   7.241
11296TIP3    H233811   2.525   3.235   7.099
11297TIP3   OH233812   2.647   3.152   7.007
11297TIP3    H133813   2.665   3.068   7.055
11297TIP3    H233814   2.738   3.188   6.999
11298TIP3   OH233815   2.914   3.246   7.008
11298TIP3    H133816   2.946   3.155   6.993
11298TIP3    H233817   2.959   3.265   7.092
11299TIP3   OH233818   3.497   1.904   7.102
11299TIP3    H133819   3.448   1.835   7.150
11299TIP3    H233820   3.562   1.852   7.052
11300TIP3   OH233821   4.016   1.784   7.003
11300TIP3    H133822   4.051   1.835   6.926
11300TIP3    H233823   3.920   1.798   6.994
11301TIP3   OH233824   4.110   1.883   6.765
11301TIP3    H133825   4.183   1.832   6.724
11301TIP3    H233826   4.142   1.975   6.750
11302TIP3   OH233827   2.740   1.610   7.112
11302TIP3    H133828   2.647   1.579   7.114
11302TIP3    H233829   2.787   1.524   7.109
11303TIP3   OH233830   2.522   1.479   6.757
11303TIP3    H133831   2.555   1.538   6.687
11303TIP3    H233832   2.495   1.544   6.826
11304TIP3   OH233833   3.185   1.640   6.993
11304TIP3    H133834   3.241   1.692   6.933
11304TIP3    H233835   3.199   1.685   7.077
11305TIP3   OH233836   3.735   1.789   6.975
11305TIP3    H133837   3.726   1.752   6.886
11305TIP3    H233838   3.719   1.710   7.031
11306TIP3   OH233839   3.760   1.713   6.539
11306TIP3    H133840   3.673   1.756   6.550
11306TIP3    H233841   3.745   1.628   6.586
11307TIP3   OH233842   2.241   3.052   6.543
11307TIP3    H133843   2.157   3.019   6.506
11307TIP3    H233844   2.233   3.146   6.519
11308TIP3   OH233845   2.643   1.638   6.524
11308TIP3    H133846   2.694   1.579   6.466
11308TIP3    H233847   2.714   1.695   6.560
11309TIP3   OH233848   3.156   1.814   6.623
11309TIP3    H133849   3.216   1.768   6.683
11309TIP3    H233850   3.177   1.907   6.647
11310TIP3   OH233851   3.015   3.242   6.122
11310TIP3    H133852   3.103   3.264   6.086
11310TIP3    H233853   2.993   3.167   6.063
11311TIP3   OH233854   3.734   3.359   6.215
11311TIP3    H133855   3.728   3.261   6.203
11311TIP3    H233856   3.688   3.391   6.135
11312TIP3   OH233857   2.941   1.881   7.995
11312TIP3    H133858   2.921   1.845   8.082
11312TIP3    H233859   3.040   1.875   7.998
11313TIP3   OH233860   3.205   1.858   8.056
11313TIP3    H133861   3.295   1.852   8.018
11313TIP3    H233862   3.224   1.867   8.152
11314TIP3   OH233863   2.319   3.074   6.178
11314TIP3    H133864   2.324   3.105   6.269
11314TIP3    H233865   2.408   3.033   6.165
11315TIP3   OH233866   4.021   1.949   7.908
11315TIP3    H133867   4.038   1.920   8.000
11315TIP3    H233868   4.110   1.943   7.868
11316TIP3   OH233869   3.960   3.502   7.403
11316TIP3    H133870   3.883   3.470   7.352
11316TIP3    H233871   3.941   3.598   7.405
11317TIP3   OH233872   5.227   2.828   6.122
11317TIP3    H133873   5.229   2.927   6.114
11317TIP3    H233874   5.130   2.821   6.145
11318TIP3   OH233875   5.231   2.859   6.543
11318TIP3    H133876   5.263   2.854   6.634
11318TIP3    H233877   5.178   2.777   6.538
11319TIP3   OH233878   4.528   2.770   6.911
11319TIP3    H133879   4.558   2.702   6.974
11319TIP3    H233880   4.603   2.831   6.913
11320TIP3   OH233881   5.467   3.165   6.236
11320TIP3    H133882   5.464   3.111   6.317
11320TIP3    H233883   5.493   3.251   6.273
11321TIP3   OH233884   4.497   3.181   6.642
11321TIP3    H133885   4.489   3.084   6.643
11321TIP3    H233886   4.594   3.190   6.634
11322TIP3   OH233887   4.206   2.385   6.425
11322TIP3    H133888   4.154   2.466   6.440
11322TIP3    H233889   4.136   2.328   6.388
11323TIP3   OH233890   4.265   2.673   6.599
11323TIP3    H133891   4.312   2.594   6.633
11323TIP3    H233892   4.316   2.694   6.519
11324TIP3   OH233893   5.119   3.642   6.246
11324TIP3    H133894   5.166   3.569   6.200
11324TIP3    H233895   5.106   3.605   6.334
11325TIP3   OH233896   5.025   3.101   6.598
11325TIP3    H133897   5.061   3.026   6.549
11325TIP3    H233898   5.109   3.145   6.624
11326TIP3   OH233899   6.035   2.423   6.594
11326TIP3    H133900   6.066   2.503   6.641
11326TIP3    H233901   6.063   2.442   6.503
11327TIP3   OH233902   5.447   2.606   6.637
11327TIP3    H133903   5.485   2.518   6.660
11327TIP3    H233904   5.410   2.586   6.549
11328TIP3   OH233905   4.777   2.262   6.594
11328TIP3    H133906   4.752   2.333   6.532
11328TIP3    H233907   4.729   2.186   6.552
11329TIP3   OH233908   5.471   2.372   6.219
11329TIP3    H133909   5.540   2.348   6.286
11329TIP3    H233910   5.529   2.393   6.143
11330TIP3   OH233911   4.408   2.463   6.702
11330TIP3    H133912   4.491   2.442   6.750
11330TIP3    H233913   4.420   2.406   6.623
11331TIP3   OH233914   4.852   2.660   6.489
11331TIP3    H133915   4.942   2.629   6.509
11331TIP3    H233916   4.808   2.577   6.460
11332TIP3   OH233917   6.111   2.628   6.764
11332TIP3    H133918   6.026   2.675   6.747
11332TIP3    H233919   6.126   2.653   6.857
11333TIP3   OH233920   4.772   2.246   7.030
11333TIP3    H133921   4.711   2.281   6.963
11333TIP3    H233922   4.720   2.262   7.112
11334TIP3   OH233923   5.130   3.087   6.032
11334TIP3    H133924   5.074   3.072   5.954
11334TIP3    H233925   5.088   3.169   6.066
11335TIP3   OH233926   4.879   3.021   6.826
11335TIP3    H133927   4.815   3.085   6.865
11335TIP3    H233928   4.917   3.073   6.753
11336TIP3   OH233929   5.680   2.354   6.389
11336TIP3    H133930   5.673   2.297   6.467
11336TIP3    H233931   5.734   2.429   6.423
11337TIP3   OH233932   4.643   2.359   6.814
11337TIP3    H133933   4.706   2.431   6.838
11337TIP3    H233934   4.691   2.319   6.738
11338TIP3   OH233935   4.706   3.213   6.924
11338TIP3    H133936   4.680   3.299   6.884
11338TIP3    H233937   4.626   3.198   6.979
11339TIP3   OH233938   4.102   2.903   6.158
11339TIP3    H133939   4.058   2.929   6.075
11339TIP3    H233940   4.130   2.990   6.194
11340TIP3   OH233941   5.539   3.417   6.393
11340TIP3    H133942   5.451   3.410   6.436
11340TIP3    H233943   5.531   3.506   6.352
11341TIP3   OH233944   5.831   2.324   6.763
11341TIP3    H133945   5.743   2.350   6.731
11341TIP3    H233946   5.890   2.353   6.691
11342TIP3   OH233947   5.128   1.965   6.743
11342TIP3    H133948   5.116   1.870   6.760
11342TIP3    H233949   5.050   2.002   6.790
11343TIP3   OH233950   5.247   3.467   6.076
11343TIP3    H133951   5.296   3.386   6.052
11343TIP3    H233952   5.306   3.534   6.033
11344TIP3   OH233953   5.389   3.252   5.981
11344TIP3    H133954   5.336   3.182   5.942
11344TIP3    H233955   5.419   3.212   6.066
11345TIP3   OH233956   5.766   3.335   6.743
11345TIP3    H133957   5.756   3.257   6.684
11345TIP3    H233958   5.750   3.409   6.681
11346TIP3   OH233959   5.010   2.506   5.710
11346TIP3    H133960   5.075   2.561   5.757
11346TIP3    H233961   5.069   2.439   5.670
11347TIP3   OH233962   5.960   2.967   6.584
11347TIP3    H133963   5.878   3.021   6.592
11347TIP3    H233964   5.992   2.994   6.496
11348TIP3   OH233965   5.640   2.850   6.882
11348TIP3    H133966   5.638   2.932   6.934
11348TIP3    H233967   5.552   2.854   6.839
11349TIP3   OH233968   4.636   2.806   6.387
11349TIP3    H133969   4.593   2.750   6.320
11349TIP3    H233970   4.713   2.751   6.413
11350TIP3   OH233971   4.767   3.219   6.537
11350TIP3    H133972   4.743   3.178   6.452
11350TIP3    H233973   4.856   3.182   6.553
11351TIP3   OH233974   4.784   2.775   6.743
11351TIP3    H133975   4.806   2.762   6.649
11351TIP3    H233976   4.818   2.865   6.762
11352TIP3   OH233977   5.302   3.414   6.520
11352TIP3    H133978   5.285   3.496   6.570
11352TIP3    H233979   5.282   3.344   6.585
11353TIP3   OH233980   4.911   3.335   7.066
11353TIP3    H133981   4.850   3.397   7.112
11353TIP3    H233982   4.846   3.282   7.016
11354TIP3   OH233983   4.665   2.891   7.166
11354TIP3    H133984   4.669   2.978   7.211
11354TIP3    H233985   4.570   2.870   7.178
11355TIP3   OH233986   4.993   3.342   6.075
11355TIP3    H133987   5.065   3.405   6.092
11355TIP3    H233988   4.926   3.398   6.032
11356TIP3   OH233989   4.706   3.504   7.154
11356TIP3    H133990   4.671   3.504   7.063
11356TIP3    H233991   4.627   3.481   7.206
11357TIP3   OH233992   5.753   1.905   5.856
11357TIP3    H133993   5.660   1.869   5.854
11357TIP3    H233994   5.734   1.989   5.813
11358TIP3   OH233995   4.504   2.650   6.193
11358TIP3    H133996   4.438   2.696   6.136
11358TIP3    H233997   4.461   2.565   6.206
11359TIP3   OH233998   5.559   3.275   5.395
11359TIP3    H133999   5.567   3.372   5.378
11359TIP3    H234000   5.652   3.246   5.382
11360TIP3   OH234001   4.285   3.034   7.100
11360TIP3    H134002   4.217   3.015   7.031
11360TIP3    H234003   4.320   2.945   7.121
11361TIP3   OH234004   4.138   3.225   6.736
11361TIP3    H134005   4.234   3.226   6.724
11361TIP3    H234006   4.123   3.308   6.784
11362TIP3   OH234007   5.986   3.696   6.770
11362TIP3    H134008   6.018   3.606   6.787
11362TIP3    H234009   5.904   3.698   6.824
11363TIP3   OH234010   5.110   3.462   6.924
11363TIP3    H134011   5.108   3.555   6.956
11363TIP3    H234012   5.037   3.423   6.977
11364TIP3   OH234013   4.874   3.594   5.874
11364TIP3    H134014   4.824   3.574   5.792
11364TIP3    H234015   4.837   3.680   5.901
11365TIP3   OH234016   4.309   3.442   6.257
11365TIP3    H134017   4.354   3.432   6.344
11365TIP3    H234018   4.247   3.367   6.260
11366TIP3   OH234019   5.073   3.497   5.514
11366TIP3    H134020   5.131   3.426   5.478
11366TIP3    H234021   5.105   3.504   5.606
11367TIP3   OH234022   5.123   3.542   5.784
11367TIP3    H134023   5.033   3.554   5.821
11367TIP3    H234024   5.168   3.501   5.859
11368TIP3   OH234025   5.892   2.808   7.064
11368TIP3    H134026   5.811   2.819   7.012
11368TIP3    H234027   5.909   2.712   7.053
11369TIP3   OH234028   4.489   3.216   7.089
11369TIP3    H134029   4.538   3.198   7.172
11369TIP3    H234030   4.415   3.153   7.095
11370TIP3   OH234031   4.890   2.041   6.871
11370TIP3    H134032   4.801   2.008   6.844
11370TIP3    H234033   4.862   2.121   6.920
11371TIP3   OH234034   5.422   2.157   7.067
11371TIP3    H134035   5.491   2.126   7.130
11371TIP3    H234036   5.339   2.135   7.114
11372TIP3   OH234037   5.662   2.585   6.985
11372TIP3    H134038   5.612   2.580   7.070
11372TIP3    H234039   5.637   2.672   6.950
11373TIP3   OH234040   5.323   2.701   5.542
11373TIP3    H134041   5.288   2.681   5.453
11373TIP3    H234042   5.398   2.759   5.520
11374TIP3   OH234043   5.044   2.091   5.841
11374TIP3    H134044   5.008   2.087   5.932
11374TIP3    H234045   5.006   2.009   5.805
11375TIP3   OH234046   4.823   2.554   6.893
11375TIP3    H134047   4.769   2.575   6.973
11375TIP3    H234048   4.808   2.635   6.839
11376TIP3   OH234049   4.703   2.443   6.405
11376TIP3    H134050   4.611   2.417   6.424
11376TIP3    H234051   4.715   2.401   6.317
11377TIP3   OH234052   5.370   2.807   7.220
11377TIP3    H134053   5.348   2.733   7.281
11377TIP3    H234054   5.464   2.820   7.241
11378TIP3   OH234055   5.360   2.563   6.380
11378TIP3    H134056   5.274   2.579   6.340
11378TIP3    H234057   5.392   2.483   6.331
11379TIP3   OH234058   4.642   2.584   7.099
11379TIP3    H134059   4.662   2.648   7.168
11379TIP3    H234060   4.628   2.502   7.150
11380TIP3   OH234061   4.690   2.063   5.809
11380TIP3    H134062   4.682   2.058   5.906
11380TIP3    H234063   4.611   2.115   5.786
11381TIP3   OH234064   4.232   2.107   6.680
11381TIP3    H134065   4.310   2.137   6.732
11381TIP3    H234066   4.271   2.073   6.598
11382TIP3   OH234067   4.208   2.089   6.199
11382TIP3    H134068   4.253   2.127   6.121
11382TIP3    H234069   4.145   2.161   6.219
11383TIP3   OH234070   5.359   2.806   6.793
11383TIP3    H134071   5.395   2.732   6.737
11383TIP3    H234072   5.331   2.754   6.871
11384TIP3   OH234073   5.034   2.276   6.467
11384TIP3    H134074   4.949   2.266   6.514
11384TIP3    H234075   5.098   2.256   6.537
11385TIP3   OH234076   4.467   2.319   6.474
11385TIP3    H134077   4.372   2.329   6.447
11385TIP3    H234078   4.487   2.227   6.451
11386TIP3   OH234079   4.734   2.316   6.164
11386TIP3    H134080   4.826   2.336   6.139
11386TIP3    H234081   4.683   2.335   6.082
11387TIP3   OH234082   5.520   2.340   6.667
11387TIP3    H134083   5.489   2.350   6.759
11387TIP3    H234084   5.458   2.274   6.633
11388TIP3   OH234085   4.577   2.349   5.944
11388TIP3    H134086   4.502   2.306   5.900
11388TIP3    H234087   4.626   2.383   5.867
11389TIP3   OH234088   5.694   4.028   6.886
11389TIP3    H134089   5.691   4.052   6.792
11389TIP3    H234090   5.773   4.077   6.916
11390TIP3   OH234091   4.652   3.138   7.309
11390TIP3    H134092   4.731   3.169   7.358
11390TIP3    H234093   4.586   3.137   7.382
11391TIP3   OH234094   5.119   2.593   6.570
11391TIP3    H134095   5.184   2.532   6.535
11391TIP3    H234096   5.110   2.558   6.662
11392TIP3   OH234097   4.641   2.079   6.443
11392TIP3    H134098   4.603   2.002   6.491
11392TIP3    H234099   4.690   2.035   6.372
11393TIP3   OH234100   5.092   2.497   6.843
11393TIP3    H134101   5.001   2.525   6.867
11393TIP3    H234102   5.148   2.551   6.902
11394TIP3   OH234103   4.828   2.889   5.950
11394TIP3    H134104   4.765   2.814   5.939
11394TIP3    H234105   4.811   2.914   6.044
11395TIP3   OH234106   5.730   3.117   6.578
11395TIP3    H134107   5.755   3.168   6.497
11395TIP3    H234108   5.644   3.078   6.552
11396TIP3   OH234109   5.284   2.217   5.814
11396TIP3    H134110   5.197   2.172   5.822
11396TIP3    H234111   5.262   2.293   5.758
11397TIP3   OH234112   5.230   3.200   6.944
11397TIP3    H134113   5.248   3.175   7.035
11397TIP3    H234114   5.188   3.287   6.953
11398TIP3   OH234115   4.527   2.906   6.626
11398TIP3    H134116   4.558   2.872   6.540
11398TIP3    H234117   4.552   2.835   6.687
11399TIP3   OH234118   4.978   3.032   5.775
11399TIP3    H134119   4.927   3.116   5.777
11399TIP3    H234120   4.923   2.975   5.833
11400TIP3   OH234121   4.402   2.819   7.237
11400TIP3    H134122   4.417   2.805   7.332
11400TIP3    H234123   4.330   2.756   7.218
11401TIP3   OH234124   5.126   2.936   7.257
11401TIP3    H134125   5.065   2.876   7.211
11401TIP3    H234126   5.213   2.900   7.229
11402TIP3   OH234127   5.388   3.456   6.841
11402TIP3    H134128   5.292   3.455   6.855
11402TIP3    H234129   5.416   3.509   6.919
11403TIP3   OH234130   5.800   2.528   5.747
11403TIP3    H134131   5.737   2.485   5.683
11403TIP3    H234132   5.800   2.617   5.706
11404TIP3   OH234133   6.018   3.384   6.835
11404TIP3    H134134   5.920   3.384   6.825
11404TIP3    H234135   6.043   3.356   6.744
11405TIP3   OH234136   5.511   3.350   5.661
11405TIP3    H134137   5.468   3.284   5.718
11405TIP3    H234138   5.511   3.307   5.574
11406TIP3   OH234139   5.492   2.981   6.488
11406TIP3    H134140   5.402   2.952   6.511
11406TIP3    H234141   5.531   2.897   6.456
11407TIP3   OH234142   4.622   3.203   6.247
11407TIP3    H134143   4.619   3.286   6.194
11407TIP3    H234144   4.528   3.186   6.259
11408TIP3   OH234145   4.186   2.509   5.953
11408TIP3    H134146   4.228   2.595   5.973
11408TIP3    H234147   4.107   2.514   6.013
11409TIP3   OH234148   4.771   2.971   6.203
11409TIP3    H134149   4.729   3.060   6.213
11409TIP3    H234150   4.723   2.921   6.271
11410TIP3   OH234151   4.890   3.549   6.719
11410TIP3    H134152   4.930   3.622   6.667
11410TIP3    H234153   4.968   3.515   6.767
11411TIP3   OH234154   4.543   3.442   6.103
11411TIP3    H134155   4.456   3.452   6.147
11411TIP3    H234156   4.575   3.535   6.104
11412TIP3   OH234157   5.279   3.177   6.677
11412TIP3    H134158   5.267   3.181   6.775
11412TIP3    H234159   5.366   3.136   6.670
11413TIP3   OH234160   5.251   3.076   5.556
11413TIP3    H134161   5.301   3.053   5.637
11413TIP3    H234162   5.161   3.050   5.581
11414TIP3   OH234163   5.528   3.717   6.727
11414TIP3    H134164   5.448   3.661   6.719
11414TIP3    H234165   5.513   3.782   6.655
11415TIP3   OH234166   5.591   3.549   5.379
11415TIP3    H134167   5.616   3.613   5.310
11415TIP3    H234168   5.514   3.596   5.417
11416TIP3   OH234169   4.611   2.328   7.246
11416TIP3    H134170   4.514   2.331   7.257
11416TIP3    H234171   4.637   2.265   7.315
11417TIP3   OH234172   5.418   3.022   5.771
11417TIP3    H134173   5.407   2.952   5.835
11417TIP3    H234174   5.515   3.019   5.754
11418TIP3   OH234175   4.331   3.412   6.877
11418TIP3    H134176   4.381   3.335   6.909
11418TIP3    H234177   4.358   3.480   6.939
11419TIP3   OH234178   4.625   3.055   5.558
11419TIP3    H134179   4.632   2.962   5.531
11419TIP3    H234180   4.602   3.045   5.653
11420TIP3   OH234181   4.568   3.061   5.829
11420TIP3    H134182   4.636   3.034   5.892
11420TIP3    H234183   4.569   3.159   5.837
11421TIP3   OH234184   4.303   2.757   6.035
11421TIP3    H134185   4.235   2.800   6.092
11421TIP3    H234186   4.312   2.826   5.967
11422TIP3   OH234187   5.450   2.391   6.926
11422TIP3    H134188   5.530   2.428   6.967
11422TIP3    H234189   5.435   2.310   6.981
11423TIP3   OH234190   5.281   2.191   6.101
11423TIP3    H134191   5.294   2.172   6.005
11423TIP3    H234192   5.366   2.231   6.124
11424TIP3   OH234193   4.834   3.261   5.781
11424TIP3    H134194   4.745   3.283   5.816
11424TIP3    H234195   4.844   3.332   5.717
11425TIP3   OH234196   5.022   2.328   6.195
11425TIP3    H134197   5.115   2.309   6.175
11425TIP3    H234198   5.020   2.319   6.293
11426TIP3   OH234199   5.291   2.643   7.001
11426TIP3    H134200   5.309   2.695   7.081
11426TIP3    H234201   5.343   2.563   7.016
11427TIP3   OH234202   5.160   2.052   6.300
11427TIP3    H134203   5.168   2.121   6.369
11427TIP3    H234204   5.211   2.094   6.227
11428TIP3   OH234205   4.577   3.333   5.848
11428TIP3    H134206   4.545   3.401   5.784
11428TIP3    H234207   4.558   3.377   5.934
11429TIP3   OH234208   4.674   2.047   6.085
11429TIP3    H134209   4.672   2.136   6.123
11429TIP3    H234210   4.769   2.027   6.093
11430TIP3   OH234211   5.929   2.543   6.982
11430TIP3    H134212   5.831   2.540   6.990
11430TIP3    H234213   5.940   2.496   6.898
11431TIP3   OH234214   5.582   2.737   6.371
11431TIP3    H134215   5.512   2.675   6.399
11431TIP3    H234216   5.660   2.697   6.417
11432TIP3   OH234217   4.291   2.963   5.842
11432TIP3    H134218   4.349   3.040   5.848
11432TIP3    H234219   4.339   2.912   5.773
11433TIP3   OH234220   4.237   2.240   5.971
11433TIP3    H134221   4.235   2.338   5.970
11433TIP3    H234222   4.150   2.218   5.936
11434TIP3   OH234223   5.550   3.689   6.322
11434TIP3    H134224   5.504   3.736   6.249
11434TIP3    H234225   5.643   3.710   6.299
11435TIP3   OH234226   4.625   1.960   6.847
11435TIP3    H134227   4.594   1.926   6.761
11435TIP3    H234228   4.615   1.882   6.905
11436TIP3   OH234229   4.163   3.176   6.228
11436TIP3    H134230   4.092   3.208   6.285
11436TIP3    H234231   4.136   3.217   6.142
11437TIP3   OH234232   4.319   3.719   7.300
11437TIP3    H134233   4.405   3.716   7.346
11437TIP3    H234234   4.296   3.624   7.297
11438TIP3   OH234235   4.804   3.685   7.344
11438TIP3    H134236   4.898   3.661   7.348
11438TIP3    H234237   4.774   3.627   7.271
11439TIP3   OH234238   4.785   3.261   5.472
11439TIP3    H134239   4.727   3.190   5.509
11439TIP3    H234240   4.857   3.207   5.437
11440TIP3   OH234241   5.441   3.590   7.077
11440TIP3    H134242   5.430   3.521   7.146
11440TIP3    H234243   5.516   3.642   7.111
11441TIP3   OH234244   5.221   3.303   5.384
11441TIP3    H134245   5.264   3.236   5.439
11441TIP3    H234246   5.272   3.301   5.301
11442TIP3   OH234247   4.450   3.126   7.500
11442TIP3    H134248   4.466   3.030   7.504
11442TIP3    H234249   4.363   3.130   7.455
11443TIP3   OH234250   4.428   2.779   5.690
11443TIP3    H134251   4.481   2.747   5.765
11443TIP3    H234252   4.496   2.784   5.620
11444TIP3   OH234253   5.058   3.212   7.273
11444TIP3    H134254   5.015   3.228   7.187
11444TIP3    H234255   5.087   3.118   7.265
11445TIP3   OH234256   4.944   2.978   5.502
11445TIP3    H134257   4.938   2.989   5.598
11445TIP3    H234258   4.936   2.880   5.494
11446TIP3   OH234259   5.550   3.217   6.877
11446TIP3    H134260   5.625   3.264   6.835
11446TIP3    H234261   5.480   3.284   6.867
11447TIP3   OH234262   4.570   2.862   7.482
11447TIP3    H134263   4.643   2.804   7.460
11447TIP3    H234264   4.597   2.895   7.571
11448TIP3   OH234265   4.645   2.680   5.921
11448TIP3    H134266   4.606   2.640   5.999
11448TIP3    H234267   4.673   2.602   5.868
11449TIP3   OH234268   4.906   2.748   7.146
11449TIP3    H134269   4.826   2.804   7.146
11449TIP3    H234270   4.954   2.780   7.067
11450TIP3   OH234271   4.732   2.472   5.755
11450TIP3    H134272   4.705   2.478   5.661
11450TIP3    H234273   4.829   2.478   5.746
11451TIP3   OH234274   5.422   3.148   7.278
11451TIP3    H134275   5.501   3.122   7.230
11451TIP3    H234276   5.417   3.080   7.348
11452TIP3   OH234277   5.562   2.805   5.419
11452TIP3    H134278   5.539   2.760   5.335
11452TIP3    H234279   5.528   2.895   5.397
11453TIP3   OH234280   5.028   2.534   7.270
11453TIP3    H134281   5.027   2.454   7.213
11453TIP3    H234282   4.983   2.600   7.212
11454TIP3   OH234283   5.030   2.322   7.076
11454TIP3    H134284   5.057   2.358   6.989
11454TIP3    H234285   4.936   2.298   7.059
11455TIP3   OH234286   5.058   2.856   6.950
11455TIP3    H134287   5.141   2.866   6.901
11455TIP3    H234288   5.000   2.921   6.906
11456TIP3   OH234289   5.640   2.822   7.331
11456TIP3    H134290   5.687   2.738   7.342
11456TIP3    H234291   5.709   2.879   7.296
11457TIP3   OH234292   5.680   3.076   7.067
11457TIP3    H134293   5.623   3.128   7.007
11457TIP3    H234294   5.768   3.096   7.028
11458TIP3   OH234295   4.906   2.645   7.501
11458TIP3    H134296   4.838   2.576   7.514
11458TIP3    H234297   4.940   2.622   7.413
11459TIP3   OH234298   5.162   2.084   7.143
11459TIP3    H134299   5.111   2.165   7.121
11459TIP3    H234300   5.094   2.014   7.132
11460TIP3   OH234301   5.288   2.589   7.360
11460TIP3    H134302   5.277   2.574   7.456
11460TIP3    H234303   5.198   2.563   7.329
11461TIP3   OH234304   5.528   2.538   7.215
11461TIP3    H134305   5.453   2.538   7.278
11461TIP3    H234306   5.602   2.506   7.271
11462TIP3   OH234307   5.756   2.478   7.365
11462TIP3    H134308   5.769   2.382   7.382
11462TIP3    H234309   5.753   2.516   7.455
11463TIP3   OH234310   4.746   2.426   7.553
11463TIP3    H134311   4.749   2.335   7.517
11463TIP3    H234312   4.782   2.411   7.642
11464TIP3   OH234313   5.257   2.094   7.401
11464TIP3    H134314   5.324   2.022   7.396
11464TIP3    H234315   5.217   2.087   7.312
11465TIP3   OH234316   5.324   2.308   7.560
11465TIP3    H134317   5.302   2.237   7.496
11465TIP3    H234318   5.245   2.366   7.553
11466TIP3   OH234319   4.543   3.534   5.660
11466TIP3    H134320   4.638   3.535   5.638
11466TIP3    H234321   4.508   3.584   5.584
11467TIP3   OH234322   4.023   2.917   5.879
11467TIP3    H134323   4.118   2.939   5.864
11467TIP3    H234324   4.016   2.830   5.836
11468TIP3   OH234325   3.939   3.530   6.289
11468TIP3    H134326   3.871   3.470   6.251
11468TIP3    H234327   3.982   3.471   6.354
11469TIP3   OH234328   4.076   3.381   6.475
11469TIP3    H134329   4.059   3.309   6.538
11469TIP3    H234330   4.125   3.443   6.533
11470TIP3   OH234331   5.803   3.785   6.277
11470TIP3    H134332   5.825   3.810   6.368
11470TIP3    H234333   5.871   3.832   6.226
11471TIP3   OH234334   5.832   3.800   6.557
11471TIP3    H134335   5.788   3.713   6.553
11471TIP3    H234336   5.904   3.778   6.619
11472TIP3   OH234337   5.875   3.480   7.134
11472TIP3    H134338   5.801   3.481   7.198
11472TIP3    H234339   5.910   3.570   7.144
11473TIP3   OH234340   5.691   2.991   5.755
11473TIP3    H134341   5.756   3.056   5.720
11473TIP3    H234342   5.741   2.954   5.831
11474TIP3   OH234343   5.817   2.858   5.959
11474TIP3    H134344   5.755   2.825   6.026
11474TIP3    H234345   5.890   2.895   6.013
11475TIP3   OH234346   5.870   3.249   6.384
11475TIP3    H134347   5.928   3.187   6.336
11475TIP3    H234348   5.867   3.326   6.323
11476TIP3   OH234349   5.704   3.551   6.581
11476TIP3    H134350   5.633   3.594   6.633
11476TIP3    H234351   5.654   3.505   6.511
11477TIP3   OH234352   5.759   2.766   5.604
11477TIP3    H134353   5.690   2.768   5.533
11477TIP3    H234354   5.730   2.844   5.656
11478TIP3   OH234355   5.635   2.432   5.555
11478TIP3    H134356   5.589   2.482   5.486
11478TIP3    H234357   5.600   2.342   5.541
11479TIP3   OH234358   5.577   2.706   6.105
11479TIP3    H134359   5.625   2.623   6.085
11479TIP3    H234360   5.604   2.723   6.199
11480TIP3   OH234361   4.261   2.786   6.851
11480TIP3    H134362   4.258   2.758   6.757
11480TIP3    H234363   4.359   2.789   6.865
11481TIP3   OH234364   5.924   3.141   6.959
11481TIP3    H134365   5.996   3.075   6.950
11481TIP3    H234366   5.953   3.212   6.899
11482TIP3   OH234367   6.107   2.946   6.977
11482TIP3    H134368   6.034   2.894   7.017
11482TIP3    H234369   6.182   2.883   6.991
11483TIP3   OH234370   5.571   2.161   5.557
11483TIP3    H134371   5.617   2.126   5.634
11483TIP3    H234372   5.486   2.114   5.563
11484TIP3   OH234373   5.640   2.434   6.010
11484TIP3    H134374   5.674   2.342   6.018
11484TIP3    H234375   5.673   2.456   5.922
11485TIP3   OH234376   5.792   2.612   6.490
11485TIP3    H134377   5.881   2.635   6.453
11485TIP3    H234378   5.806   2.643   6.581
11486TIP3   OH234379   5.860   2.749   6.724
11486TIP3    H134380   5.783   2.784   6.773
11486TIP3    H234381   5.894   2.830   6.679
11487TIP3   OH234382   4.479   2.478   7.530
11487TIP3    H134383   4.577   2.468   7.526
11487TIP3    H234384   4.454   2.391   7.566
11488TIP3   OH234385   6.312   2.341   7.280
11488TIP3    H134386   6.373   2.275   7.239
11488TIP3    H234387   6.285   2.395   7.203
11489TIP3   OH234388   5.745   2.176   6.030
11489TIP3    H134389   5.784   2.167   6.120
11489TIP3    H234390   5.695   2.093   6.025
11490TIP3   OH234391   4.440   2.168   6.854
11490TIP3    H134392   4.501   2.092   6.863
11490TIP3    H234393   4.503   2.242   6.847
11491TIP3   OH234394   4.244   2.442   6.929
11491TIP3    H134395   4.291   2.435   6.844
11491TIP3    H234396   4.269   2.531   6.957
11492TIP3   OH234397   6.184   2.481   7.085
11492TIP3    H134398   6.097   2.521   7.105
11492TIP3    H234399   6.155   2.408   7.027
11493TIP3   OH234400   5.874   2.109   5.660
11493TIP3    H134401   5.856   2.048   5.585
11493TIP3    H234402   5.862   2.197   5.619
11494TIP3   OH234403   4.226   1.950   6.430
11494TIP3    H134404   4.132   1.942   6.455
11494TIP3    H234405   4.222   2.006   6.350
11495TIP3   OH234406   5.391   3.646   5.936
11495TIP3    H134407   5.440   3.637   5.851
11495TIP3    H234408   5.439   3.717   5.980
11496TIP3   OH234409   4.447   2.029   7.245
11496TIP3    H134410   4.394   2.020   7.325
11496TIP3    H234411   4.381   2.065   7.182
11497TIP3   OH234412   4.487   3.453   7.321
11497TIP3    H134413   4.395   3.426   7.301
11497TIP3    H234414   4.492   3.434   7.415
11498TIP3   OH234415   4.665   3.485   6.868
11498TIP3    H134416   4.613   3.559   6.829
11498TIP3    H234417   4.750   3.501   6.823
11499TIP3   OH234418   5.110   3.729   7.005
11499TIP3    H134419   5.151   3.732   7.094
11499TIP3    H234420   5.175   3.781   6.953
11500TIP3   OH234421   5.288   3.881   6.864
11500TIP3    H134422   5.359   3.831   6.821
11500TIP3    H234423   5.340   3.939   6.925
11501TIP3   OH234424   6.082   2.243   6.964
11501TIP3    H134425   5.991   2.233   6.931
11501TIP3    H234426   6.115   2.150   6.953
11502TIP3   OH234427   4.342   3.743   6.891
11502TIP3    H134428   4.253   3.776   6.863
11502TIP3    H234429   4.344   3.777   6.981
11503TIP3   OH234430   4.578   3.721   6.748
11503TIP3    H134431   4.491   3.734   6.793
11503TIP3    H234432   4.558   3.754   6.658
11504TIP3   OH234433   5.004   3.750   6.546
11504TIP3    H134434   4.932   3.767   6.481
11504TIP3    H234435   5.014   3.839   6.586
11505TIP3   OH234436   5.271   3.688   6.597
11505TIP3    H134437   5.177   3.706   6.578
11505TIP3    H234438   5.313   3.765   6.555
11506TIP3   OH234439   5.482   3.882   6.514
11506TIP3    H134440   5.465   3.966   6.466
11506TIP3    H234441   5.505   3.822   6.440
11507TIP3   OH234442   4.252   3.537   6.635
11507TIP3    H134443   4.278   3.511   6.726
11507TIP3    H234444   4.323   3.492   6.584
11508TIP3   OH234445   4.445   3.407   6.493
11508TIP3    H134446   4.461   3.324   6.543
11508TIP3    H234447   4.535   3.445   6.486
11509TIP3   OH234448   4.712   3.503   6.494
11509TIP3    H134449   4.743   3.411   6.482
11509TIP3    H234450   4.754   3.524   6.579
11510TIP3   OH234451   5.284   2.155   6.575
11510TIP3    H134452   5.243   2.088   6.633
11510TIP3    H234453   5.358   2.105   6.535
11511TIP3   OH234454   5.810   2.052   6.494
11511TIP3    H134455   5.844   2.096   6.413
11511TIP3    H234456   5.714   2.050   6.478
11512TIP3   OH234457   5.907   2.138   6.249
11512TIP3    H134458   5.983   2.087   6.215
11512TIP3    H234459   5.942   2.229   6.236
11513TIP3   OH234460   4.536   1.869   6.599
11513TIP3    H134461   4.444   1.836   6.601
11513TIP3    H234462   4.584   1.783   6.595
11514TIP3   OH234463   4.323   1.737   6.247
11514TIP3    H134464   4.351   1.795   6.174
11514TIP3    H234465   4.293   1.802   6.314
11515TIP3   OH234466   4.974   1.903   6.479
11515TIP3    H134467   5.039   1.942   6.418
11515TIP3    H234468   5.004   1.938   6.565
11516TIP3   OH234469   5.528   2.039   6.453
11516TIP3    H134470   5.529   1.987   6.371
11516TIP3    H234471   5.514   1.966   6.518
11517TIP3   OH234472   4.040   3.309   6.028
11517TIP3    H134473   3.955   3.276   5.994
11517TIP3    H234474   4.030   3.403   6.005
11518TIP3   OH234475   4.439   1.897   6.008
11518TIP3    H134476   4.488   1.833   5.953
11518TIP3    H234477   4.512   1.951   6.046
11519TIP3   OH234478   4.951   2.075   6.106
11519TIP3    H134479   5.008   2.023   6.165
11519TIP3    H234480   4.970   2.165   6.137
11520TIP3   OH234481   4.813   3.497   5.609
11520TIP3    H134482   4.900   3.521   5.571
11520TIP3    H234483   4.789   3.423   5.549
11521TIP3   OH234484   5.536   3.620   5.706
11521TIP3    H134485   5.530   3.523   5.692
11521TIP3    H234486   5.492   3.653   5.625
11522TIP3   OH234487   4.743   2.152   7.493
11522TIP3    H134488   4.708   2.079   7.546
11522TIP3    H234489   4.838   2.149   7.519
11523TIP3   OH234490   4.994   2.147   7.611
11523TIP3    H134491   5.078   2.121   7.569
11523TIP3    H234492   4.982   2.075   7.676
11524TIP3   OH234493   4.114   3.331   5.664
11524TIP3    H134494   4.110   3.367   5.754
11524TIP3    H234495   4.205   3.294   5.659
11525TIP3   OH234496   5.819   2.207   7.397
11525TIP3    H134497   5.837   2.175   7.488
11525TIP3    H234498   5.907   2.201   7.356
11526TIP3   OH234499   5.748   3.757   6.901
11526TIP3    H134500   5.672   3.728   6.846
11526TIP3    H234501   5.734   3.854   6.897
11527TIP3   OH234502   7.023   3.131   5.656
11527TIP3    H134503   6.994   3.222   5.636
11527TIP3    H234504   6.946   3.081   5.622
11528TIP3   OH234505   7.020   3.132   6.037
11528TIP3    H134506   7.054   3.103   6.123
11528TIP3    H234507   6.982   3.051   6.001
11529TIP3   OH234508   6.320   3.028   6.403
11529TIP3    H134509   6.351   2.959   6.465
11529TIP3    H234510   6.398   3.084   6.398
11530TIP3   OH234511   7.265   3.434   5.718
11530TIP3    H134512   7.252   3.363   5.782
11530TIP3    H234513   7.295   3.507   5.774
11531TIP3   OH234514   6.286   3.436   6.120
11531TIP3    H134515   6.282   3.338   6.124
11531TIP3    H234516   6.382   3.450   6.126
11532TIP3   OH234517   5.998   2.634   5.911
11532TIP3    H134518   5.957   2.720   5.925
11532TIP3    H234519   5.925   2.585   5.870
11533TIP3   OH234520   6.056   2.923   6.078
11533TIP3    H134521   6.107   2.849   6.118
11533TIP3    H234522   6.123   2.961   6.019
11534TIP3   OH234523   6.916   3.897   5.736
11534TIP3    H134524   6.959   3.827   5.683
11534TIP3    H234525   6.910   3.855   5.823
11535TIP3   OH234526   6.821   3.358   6.085
11535TIP3    H134527   6.860   3.280   6.040
11535TIP3    H234528   6.905   3.403   6.108
11536TIP3   OH234529   7.832   2.678   6.082
11536TIP3    H134530   7.863   2.760   6.125
11536TIP3    H234531   7.857   2.695   5.989
11537TIP3   OH234532   7.232   2.860   6.117
11537TIP3    H134533   7.275   2.775   6.139
11537TIP3    H234534   7.203   2.843   6.026
11538TIP3   OH234535   6.568   2.517   6.083
11538TIP3    H134536   6.552   2.591   6.020
11538TIP3    H234537   6.521   2.445   6.037
11539TIP3   OH234538   7.265   2.610   5.704
11539TIP3    H134539   7.336   2.593   5.770
11539TIP3    H234540   7.318   2.644   5.630
11540TIP3   OH234541   6.205   2.721   6.188
11540TIP3    H134542   6.287   2.704   6.237
11540TIP3    H234543   6.221   2.665   6.109
11541TIP3   OH234544   6.646   2.918   5.982
11541TIP3    H134545   6.740   2.893   5.995
11541TIP3    H234546   6.608   2.834   5.950
11542TIP3   OH234547   7.908   2.885   6.251
11542TIP3    H134548   7.824   2.932   6.232
11542TIP3    H234549   7.918   2.906   6.346
11543TIP3   OH234550   6.568   2.502   6.516
11543TIP3    H134551   6.507   2.540   6.450
11543TIP3    H234552   6.517   2.518   6.598
11544TIP3   OH234553   6.912   3.351   5.526
11544TIP3    H134554   6.874   3.333   5.439
11544TIP3    H234555   6.869   3.435   5.550
11545TIP3   OH234556   6.675   3.276   6.311
11545TIP3    H134557   6.612   3.342   6.350
11545TIP3    H234558   6.716   3.328   6.240
11546TIP3   OH234559   7.475   2.612   5.876
11546TIP3    H134560   7.468   2.562   5.958
11546TIP3    H234561   7.530   2.688   5.902
11547TIP3   OH234562   6.437   2.617   6.301
11547TIP3    H134563   6.500   2.689   6.326
11547TIP3    H234564   6.486   2.576   6.227
11548TIP3   OH234565   6.501   3.469   6.408
11548TIP3    H134566   6.478   3.557   6.371
11548TIP3    H234567   6.422   3.454   6.464
11549TIP3   OH234568   5.891   3.157   5.645
11549TIP3    H134569   5.856   3.181   5.557
11549TIP3    H234570   5.927   3.240   5.678
11550TIP3   OH234571   7.336   3.677   5.887
11550TIP3    H134572   7.246   3.668   5.926
11550TIP3    H234573   7.327   3.762   5.840
11551TIP3   OH234574   7.626   2.579   6.249
11551TIP3    H134575   7.539   2.607   6.216
11551TIP3    H234576   7.687   2.610   6.178
11552TIP3   OH234577   6.923   2.220   6.228
11552TIP3    H134578   6.911   2.125   6.248
11552TIP3    H234579   6.846   2.257   6.277
11553TIP3   OH234580   7.036   3.724   5.559
11553TIP3    H134581   7.085   3.641   5.540
11553TIP3    H234582   7.099   3.788   5.518
11554TIP3   OH234583   7.178   3.509   5.468
11554TIP3    H134584   7.149   3.429   5.422
11554TIP3    H234585   7.214   3.472   5.551
11555TIP3   OH234586   7.562   3.590   6.229
11555TIP3    H134587   7.551   3.512   6.170
11555TIP3    H234588   7.546   3.664   6.166
11556TIP3   OH234589   6.854   2.984   5.486
11556TIP3    H134590   6.775   3.036   5.463
11556TIP3    H234591   6.901   2.980   5.400
11557TIP3   OH234592   6.813   2.766   5.204
11557TIP3    H134593   6.880   2.819   5.251
11557TIP3    H234594   6.871   2.703   5.156
11558TIP3   OH234595   7.757   3.227   6.074
11558TIP3    H134596   7.674   3.278   6.079
11558TIP3    H234597   7.787   3.250   5.983
11559TIP3   OH234598   7.201   3.065   5.458
11559TIP3    H134599   7.147   3.089   5.537
11559TIP3    H234600   7.286   3.040   5.501
11560TIP3   OH234601   7.436   3.105   6.370
11560TIP3    H134602   7.433   3.189   6.421
11560TIP3    H234603   7.350   3.110   6.324
11561TIP3   OH234604   6.434   3.064   5.877
11561TIP3    H134605   6.393   3.006   5.809
11561TIP3    H234606   6.511   3.011   5.905
11562TIP3   OH234607   6.565   3.478   6.022
11562TIP3    H134608   6.544   3.434   5.938
11562TIP3    H234609   6.655   3.443   6.041
11563TIP3   OH234610   6.568   3.036   6.228
11563TIP3    H134611   6.604   3.012   6.140
11563TIP3    H234612   6.614   3.120   6.248
11564TIP3   OH234613   7.093   3.673   6.006
11564TIP3    H134614   7.083   3.751   6.062
11564TIP3    H234615   7.080   3.598   6.068
11565TIP3   OH234616   6.702   3.596   6.551
11565TIP3    H134617   6.642   3.646   6.608
11565TIP3    H234618   6.638   3.543   6.499
11566TIP3   OH234619   7.041   2.924   5.283
11566TIP3    H134620   7.100   2.984   5.334
11566TIP3    H234621   7.068   2.947   5.191
11567TIP3   OH234622   6.462   3.149   6.654
11567TIP3    H134623   6.466   3.235   6.700
11567TIP3    H234624   6.367   3.129   6.664
11568TIP3   OH234625   6.782   3.606   5.563
11568TIP3    H134626   6.864   3.656   5.575
11568TIP3    H234627   6.726   3.667   5.515
11569TIP3   OH234628   7.557   2.165   5.332
11569TIP3    H134629   7.476   2.186   5.382
11569TIP3    H234630   7.571   2.249   5.282
11570TIP3   OH234631   6.298   2.908   5.683
11570TIP3    H134632   6.234   2.951   5.622
11570TIP3    H234633   6.262   2.818   5.689
11571TIP3   OH234634   7.356   3.532   4.884
11571TIP3    H134635   7.364   3.627   4.864
11571TIP3    H234636   7.448   3.501   4.868
11572TIP3   OH234637   6.078   3.289   6.589
11572TIP3    H134638   6.015   3.265   6.519
11572TIP3    H234639   6.117   3.203   6.615
11573TIP3   OH234640   5.937   3.481   6.223
11573TIP3    H134641   6.033   3.476   6.212
11573TIP3    H234642   5.929   3.560   6.279
11574TIP3   OH234643   7.799   3.934   6.274
11574TIP3    H134644   7.798   3.837   6.288
11574TIP3    H234645   7.717   3.959   6.321
11575TIP3   OH234646   6.904   3.720   6.410
11575TIP3    H134647   6.904   3.812   6.442
11575TIP3    H234648   6.831   3.681   6.463
11576TIP3   OH234649   6.663   3.847   5.363
11576TIP3    H134650   6.623   3.827   5.276
11576TIP3    H234651   6.634   3.938   5.381
11577TIP3   OH234652   6.073   3.723   5.761
11577TIP3    H134653   6.144   3.708   5.831
11577TIP3    H234654   6.055   3.627   5.739
11578TIP3   OH234655   6.868   3.751   5.002
11578TIP3    H134656   6.927   3.682   4.964
11578TIP3    H234657   6.903   3.759   5.093
11579TIP3   OH234658   6.917   3.800   5.274
11579TIP3    H134659   6.828   3.807   5.315
11579TIP3    H234660   6.966   3.755   5.344
11580TIP3   OH234661   7.689   3.066   6.549
11580TIP3    H134662   7.608   3.076   6.497
11580TIP3    H234663   7.706   2.970   6.539
11581TIP3   OH234664   6.285   3.470   6.572
11581TIP3    H134665   6.332   3.465   6.658
11581TIP3    H234666   6.211   3.407   6.586
11582TIP3   OH234667   6.684   2.296   6.358
11582TIP3    H134668   6.595   2.266   6.332
11582TIP3    H234669   6.660   2.378   6.406
11583TIP3   OH234670   7.220   2.412   6.553
11583TIP3    H134671   7.289   2.383   6.617
11583TIP3    H234672   7.136   2.391   6.601
11584TIP3   OH234673   7.456   2.840   6.471
11584TIP3    H134674   7.407   2.837   6.556
11584TIP3    H234675   7.434   2.929   6.437
11585TIP3   OH234676   7.118   2.971   5.028
11585TIP3    H134677   7.084   2.946   4.941
11585TIP3    H234678   7.199   3.019   5.003
11586TIP3   OH234679   6.829   2.347   5.330
11586TIP3    H134680   6.797   2.342   5.422
11586TIP3    H234681   6.792   2.263   5.296
11587TIP3   OH234682   6.615   2.813   6.378
11587TIP3    H134683   6.567   2.836   6.460
11587TIP3    H234684   6.600   2.894   6.324
11588TIP3   OH234685   6.501   2.699   5.892
11588TIP3    H134686   6.408   2.673   5.909
11588TIP3    H234687   6.515   2.659   5.803
11589TIP3   OH234688   6.991   2.783   5.619
11589TIP3    H134689   6.939   2.855   5.576
11589TIP3    H234690   7.047   2.752   5.544
11590TIP3   OH234691   7.166   3.063   6.706
11590TIP3    H134692   7.145   2.990   6.768
11590TIP3    H234693   7.260   3.077   6.727
11591TIP3   OH234694   7.148   2.813   5.859
11591TIP3    H134695   7.088   2.842   5.787
11591TIP3    H234696   7.182   2.731   5.816
11592TIP3   OH234697   6.434   2.841   6.587
11592TIP3    H134698   6.465   2.905   6.653
11592TIP3    H234699   6.426   2.759   6.639
11593TIP3   OH234700   6.485   2.317   5.298
11593TIP3    H134701   6.476   2.309   5.396
11593TIP3    H234702   6.408   2.372   5.277
11594TIP3   OH234703   6.037   2.359   6.162
11594TIP3    H134704   6.098   2.399   6.227
11594TIP3    H234705   6.098   2.334   6.091
11595TIP3   OH234706   6.018   2.358   5.691
11595TIP3    H134707   6.054   2.393   5.607
11595TIP3    H234708   5.948   2.424   5.707
11596TIP3   OH234709   7.158   3.059   6.282
11596TIP3    H134710   7.191   2.987   6.223
11596TIP3    H234711   7.129   3.006   6.359
11597TIP3   OH234712   6.827   2.524   5.954
11597TIP3    H134713   6.747   2.519   6.009
11597TIP3    H234714   6.898   2.517   6.020
11598TIP3   OH234715   6.262   2.576   5.963
11598TIP3    H134716   6.168   2.581   5.933
11598TIP3    H234717   6.290   2.486   5.936
11599TIP3   OH234718   6.531   2.576   5.650
11599TIP3    H134719   6.626   2.586   5.630
11599TIP3    H234720   6.487   2.595   5.564
11600TIP3   OH234721   7.320   2.598   6.155
11600TIP3    H134722   7.285   2.609   6.247
11600TIP3    H234723   7.255   2.535   6.119
11601TIP3   OH234724   6.370   2.608   5.426
11601TIP3    H134725   6.304   2.561   5.373
11601TIP3    H234726   6.426   2.646   5.355
11602TIP3   OH234727   7.489   4.286   6.374
11602TIP3    H134728   7.491   4.307   6.279
11602TIP3    H234729   7.571   4.330   6.405
11603TIP3   OH234730   6.443   3.396   6.800
11603TIP3    H134731   6.525   3.427   6.845
11603TIP3    H234732   6.379   3.411   6.871
11604TIP3   OH234733   6.910   2.848   6.050
11604TIP3    H134734   6.984   2.810   5.999
11604TIP3    H234735   6.921   2.805   6.137
11605TIP3   OH234736   6.431   2.338   5.927
11605TIP3    H134737   6.404   2.257   5.974
11605TIP3    H234738   6.486   2.303   5.856
11606TIP3   OH234739   6.888   2.744   6.341
11606TIP3    H134740   6.799   2.782   6.355
11606TIP3    H234741   6.946   2.805   6.391
11607TIP3   OH234742   6.623   3.137   5.434
11607TIP3    H134743   6.551   3.071   5.424
11607TIP3    H234744   6.605   3.170   5.526
11608TIP3   OH234745   7.525   3.373   6.065
11608TIP3    H134746   7.549   3.422   5.984
11608TIP3    H234747   7.441   3.330   6.039
11609TIP3   OH234748   7.083   2.448   5.298
11609TIP3    H134749   6.986   2.431   5.305
11609TIP3    H234750   7.092   2.542   5.321
11610TIP3   OH234751   7.025   3.455   6.432
11610TIP3    H134752   7.048   3.431   6.522
11610TIP3    H234753   6.985   3.543   6.441
11611TIP3   OH234754   7.152   2.696   5.401
11611TIP3    H134755   7.249   2.701   5.417
11611TIP3    H234756   7.135   2.776   5.348
11612TIP3   OH234757   6.312   3.153   6.111
11612TIP3    H134758   6.354   3.128   6.026
11612TIP3    H234759   6.361   3.098   6.174
11613TIP3   OH234760   6.770   3.286   5.257
11613TIP3    H134761   6.722   3.372   5.262
11613TIP3    H234762   6.715   3.231   5.317
11614TIP3   OH234763   6.197   3.080   6.725
11614TIP3    H134764   6.222   3.069   6.819
11614TIP3    H234765   6.130   3.009   6.714
11615TIP3   OH234766   6.924   3.193   6.744
11615TIP3    H134767   6.865   3.133   6.695
11615TIP3    H234768   7.011   3.158   6.717
11616TIP3   OH234769   7.184   3.718   6.325
11616TIP3    H134770   7.088   3.712   6.341
11616TIP3    H234771   7.212   3.767   6.405
11617TIP3   OH234772   7.594   2.786   5.238
11617TIP3    H134773   7.532   2.742   5.175
11617TIP3    H234774   7.592   2.875   5.197
11618TIP3   OH234775   7.813   3.644   6.318
11618TIP3    H134776   7.715   3.638   6.310
11618TIP3    H234777   7.838   3.613   6.228
11619TIP3   OH234778   7.295   3.605   5.147
11619TIP3    H134779   7.269   3.531   5.204
11619TIP3    H234780   7.308   3.562   5.060
11620TIP3   OH234781   7.290   3.234   5.984
11620TIP3    H134782   7.197   3.209   5.997
11620TIP3    H234783   7.325   3.155   5.939
11621TIP3   OH234784   6.419   3.460   5.737
11621TIP3    H134785   6.420   3.541   5.683
11621TIP3    H234786   6.325   3.442   5.744
11622TIP3   OH234787   5.983   2.765   5.439
11622TIP3    H134788   6.029   2.850   5.458
11622TIP3    H234789   5.906   2.771   5.499
11623TIP3   OH234790   6.556   3.226   5.680
11623TIP3    H134791   6.523   3.316   5.699
11623TIP3    H234792   6.521   3.176   5.756
11624TIP3   OH234793   6.690   3.809   6.203
11624TIP3    H134794   6.734   3.880   6.153
11624TIP3    H234795   6.764   3.771   6.253
11625TIP3   OH234796   6.331   3.703   5.593
11625TIP3    H134797   6.245   3.725   5.630
11625TIP3    H234798   6.374   3.792   5.593
11626TIP3   OH234799   7.076   3.440   6.163
11626TIP3    H134800   7.066   3.437   6.261
11626TIP3    H234801   7.155   3.386   6.150
11627TIP3   OH234802   7.049   3.332   5.048
11627TIP3    H134803   7.102   3.307   5.127
11627TIP3    H234804   6.960   3.306   5.076
11628TIP3   OH234805   7.323   3.975   6.216
11628TIP3    H134806   7.245   3.916   6.209
11628TIP3    H234807   7.306   4.037   6.142
11629TIP3   OH234808   7.389   3.807   4.866
11629TIP3    H134809   7.424   3.876   4.808
11629TIP3    H234810   7.309   3.853   4.899
11630TIP3   OH234811   6.410   2.584   6.733
11630TIP3    H134812   6.313   2.586   6.747
11630TIP3    H234813   6.439   2.524   6.803
11631TIP3   OH234814   7.210   3.270   5.267
11631TIP3    H134815   7.200   3.201   5.336
11631TIP3    H234816   7.306   3.264   5.251
11632TIP3   OH234817   6.127   3.669   6.367
11632TIP3    H134818   6.183   3.594   6.392
11632TIP3    H234819   6.153   3.732   6.435
11633TIP3   OH234820   6.416   3.313   5.048
11633TIP3    H134821   6.431   3.223   5.016
11633TIP3    H234822   6.395   3.298   5.142
11634TIP3   OH234823   6.360   3.317   5.323
11634TIP3    H134824   6.438   3.292   5.374
11634TIP3    H234825   6.366   3.415   5.325
11635TIP3   OH234826   6.096   3.011   5.521
11635TIP3    H134827   6.030   3.056   5.576
11635TIP3    H234828   6.113   3.079   5.453
11636TIP3   OH234829   7.244   2.649   6.415
11636TIP3    H134830   7.326   2.686   6.452
11636TIP3    H234831   7.232   2.568   6.469
11637TIP3   OH234832   7.124   2.400   5.579
11637TIP3    H134833   7.113   2.422   5.485
11637TIP3    H234834   7.164   2.483   5.615
11638TIP3   OH234835   6.627   3.515   5.270
11638TIP3    H134836   6.540   3.544   5.302
11638TIP3    H234837   6.643   3.580   5.200
11639TIP3   OH234838   6.813   2.581   5.682
11639TIP3    H134839   6.879   2.651   5.663
11639TIP3    H234840   6.820   2.572   5.779
11640TIP3   OH234841   7.085   2.898   6.489
11640TIP3    H134842   7.106   2.951   6.569
11640TIP3    H234843   7.139   2.819   6.501
11641TIP3   OH234844   6.959   2.306   5.783
11641TIP3    H134845   6.958   2.381   5.845
11641TIP3    H234846   7.019   2.341   5.713
11642TIP3   OH234847   6.370   3.591   5.334
11642TIP3    H134848   6.341   3.659   5.268
11642TIP3    H234849   6.354   3.637   5.418
11643TIP3   OH234850   6.477   2.308   5.574
11643TIP3    H134851   6.476   2.398   5.611
11643TIP3    H234852   6.573   2.287   5.582
11644TIP3   OH234853   7.724   2.800   6.467
11644TIP3    H134854   7.626   2.797   6.475
11644TIP3    H234855   7.735   2.753   6.383
11645TIP3   OH234856   7.375   2.993   5.858
11645TIP3    H134857   7.301   2.932   5.870
11645TIP3    H234858   7.448   2.946   5.905
11646TIP3   OH234859   6.088   3.222   5.328
11646TIP3    H134860   6.156   3.292   5.334
11646TIP3    H234861   6.132   3.165   5.260
11647TIP3   OH234862   6.025   2.494   5.458
11647TIP3    H134863   6.036   2.591   5.455
11647TIP3    H234864   5.947   2.483   5.403
11648TIP3   OH234865   7.343   3.951   5.808
11648TIP3    H134866   7.301   3.998   5.733
11648TIP3    H234867   7.437   3.968   5.787
11649TIP3   OH234868   6.417   2.218   6.335
11649TIP3    H134869   6.390   2.180   6.249
11649TIP3    H234870   6.411   2.139   6.394
11650TIP3   OH234871   5.969   3.467   5.718
11650TIP3    H134872   5.884   3.461   5.763
11650TIP3    H234873   5.939   3.488   5.627
11651TIP3   OH234874   6.116   3.961   6.789
11651TIP3    H134875   6.208   3.948   6.819
11651TIP3    H234876   6.090   3.867   6.776
11652TIP3   OH234877   6.615   3.963   6.806
11652TIP3    H134878   6.700   3.921   6.820
11652TIP3    H234879   6.553   3.888   6.808
11653TIP3   OH234880   6.581   3.518   4.962
11653TIP3    H134881   6.525   3.444   4.995
11653TIP3    H234882   6.655   3.468   4.921
11654TIP3   OH234883   7.237   3.847   6.564
11654TIP3    H134884   7.227   3.778   6.633
11654TIP3    H234885   7.314   3.897   6.595
11655TIP3   OH234886   7.015   3.559   4.870
11655TIP3    H134887   7.064   3.496   4.925
11655TIP3    H234888   7.066   3.559   4.787
11656TIP3   OH234889   6.240   3.391   7.000
11656TIP3    H134890   6.264   3.297   6.998
11656TIP3    H234891   6.158   3.390   6.946
11657TIP3   OH234892   6.222   3.034   5.181
11657TIP3    H134893   6.280   3.002   5.252
11657TIP3    H234894   6.287   3.039   5.108
11658TIP3   OH234895   6.853   3.469   6.759
11658TIP3    H134896   6.812   3.481   6.672
11658TIP3    H234897   6.885   3.376   6.755
11659TIP3   OH234898   6.732   3.231   4.988
11659TIP3    H134899   6.736   3.243   5.084
11659TIP3    H234900   6.733   3.133   4.982
11660TIP3   OH234901   7.347   3.475   6.367
11660TIP3    H134902   7.421   3.520   6.322
11660TIP3    H234903   7.275   3.540   6.352
11661TIP3   OH234904   6.365   3.113   6.967
11661TIP3    H134905   6.444   3.063   6.944
11661TIP3    H234906   6.389   3.149   7.055
11662TIP3   OH234907   6.431   2.937   5.402
11662TIP3    H134908   6.408   2.892   5.485
11662TIP3    H234909   6.469   2.864   5.349
11663TIP3   OH234910   6.699   3.000   6.629
11663TIP3    H134911   6.623   3.062   6.631
11663TIP3    H234912   6.751   3.035   6.553
11664TIP3   OH234913   6.532   2.731   5.244
11664TIP3    H134914   6.507   2.735   5.149
11664TIP3    H234915   6.630   2.734   5.237
11665TIP3   OH234916   7.218   3.404   6.765
11665TIP3    H134917   7.298   3.379   6.717
11665TIP3    H234918   7.214   3.337   6.835
11666TIP3   OH234919   7.355   3.061   4.906
11666TIP3    H134920   7.334   3.016   4.822
11666TIP3    H234921   7.322   3.151   4.884
11667TIP3   OH234922   6.823   2.790   6.757
11667TIP3    H134923   6.824   2.710   6.701
11667TIP3    H234924   6.779   2.855   6.698
11668TIP3   OH234925   6.826   2.577   6.565
11668TIP3    H134926   6.855   2.617   6.480
11668TIP3    H234927   6.733   2.554   6.545
11669TIP3   OH234928   6.853   3.111   6.437
11669TIP3    H134929   6.937   3.119   6.390
11669TIP3    H234930   6.798   3.178   6.392
11670TIP3   OH234931   7.436   3.078   6.818
11670TIP3    H134932   7.483   2.995   6.830
11670TIP3    H234933   7.505   3.136   6.783
11671TIP3   OH234934   7.477   3.332   6.555
11671TIP3    H134935   7.419   3.385   6.495
11671TIP3    H234936   7.565   3.352   6.515
11672TIP3   OH234937   6.700   2.903   6.987
11672TIP3    H134938   6.633   2.833   7.001
11672TIP3    H234939   6.736   2.877   6.900
11673TIP3   OH234940   6.959   2.340   6.630
11673TIP3    H134941   6.909   2.421   6.608
11673TIP3    H234942   6.890   2.271   6.619
11674TIP3   OH234943   7.084   2.845   6.847
11674TIP3    H134944   7.075   2.831   6.943
11674TIP3    H234945   6.994   2.820   6.818
11675TIP3   OH234946   7.323   2.795   6.702
11675TIP3    H134947   7.249   2.795   6.765
11675TIP3    H234948   7.398   2.763   6.757
11676TIP3   OH234949   7.549   2.733   6.852
11676TIP3    H134950   7.565   2.638   6.870
11676TIP3    H234951   7.549   2.772   6.942
11677TIP3   OH234952   6.540   2.683   7.040
11677TIP3    H134953   6.547   2.591   7.005
11677TIP3    H234954   6.578   2.670   7.130
11678TIP3   OH234955   7.053   2.350   6.888
11678TIP3    H134956   7.120   2.279   6.883
11678TIP3    H234957   7.014   2.343   6.798
11679TIP3   OH234958   7.119   2.565   7.047
11679TIP3    H134959   7.098   2.493   6.983
11679TIP3    H234960   7.041   2.623   7.040
11680TIP3   OH234961   6.338   3.794   5.147
11680TIP3    H134962   6.433   3.792   5.126
11680TIP3    H234963   6.306   3.843   5.069
11681TIP3   OH234964   5.821   3.173   5.369
11681TIP3    H134965   5.915   3.196   5.349
11681TIP3    H234966   5.813   3.086   5.325
11682TIP3   OH234967   5.864   3.686   5.962
11682TIP3    H134968   5.831   3.599   5.991
11682TIP3    H234969   5.916   3.710   6.042
11683TIP3   OH234970   7.594   4.045   5.763
11683TIP3    H134971   7.626   4.073   5.851
11683TIP3    H234972   7.663   4.079   5.704
11684TIP3   OH234973   7.627   4.061   6.046
11684TIP3    H134974   7.582   3.973   6.042
11684TIP3    H234975   7.703   4.037   6.101
11685TIP3   OH234976   7.672   3.736   6.619
11685TIP3    H134977   7.599   3.745   6.683
11685TIP3    H234978   7.714   3.824   6.623
11686TIP3   OH234979   7.487   3.249   5.240
11686TIP3    H134980   7.555   3.312   5.209
11686TIP3    H234981   7.532   3.211   5.318
11687TIP3   OH234982   7.616   3.117   5.443
11687TIP3    H134983   7.550   3.075   5.502
11687TIP3    H234984   7.681   3.154   5.506
11688TIP3   OH234985   7.670   3.508   5.874
11688TIP3    H134986   7.723   3.442   5.826
11688TIP3    H234987   7.664   3.581   5.809
11689TIP3   OH234988   7.503   3.810   6.069
11689TIP3    H134989   7.430   3.849   6.122
11689TIP3    H234990   7.453   3.762   5.999
11690TIP3   OH234991   7.555   3.024   5.089
11690TIP3    H134992   7.484   3.026   5.021
11690TIP3    H234993   7.526   3.100   5.144
11691TIP3   OH234994   7.425   2.698   5.044
11691TIP3    H134995   7.384   2.736   4.966
11691TIP3    H234996   7.400   2.603   5.035
11692TIP3   OH234997   7.430   2.973   5.589
11692TIP3    H134998   7.439   2.877   5.582
11692TIP3    H234999   7.417   2.986   5.686
11693TIP3   OH235000   6.057   3.048   6.334
11693TIP3    H135001   6.058   3.018   6.241
11693TIP3    H235002   6.154   3.049   6.353
11694TIP3   OH235003   7.720   3.398   6.446
11694TIP3    H135004   7.792   3.332   6.437
11694TIP3    H235005   7.748   3.467   6.383
11695TIP3   OH235006   7.905   3.204   6.463
11695TIP3    H135007   7.831   3.153   6.502
11695TIP3    H235008   7.978   3.140   6.478
11696TIP3   OH235009   7.369   2.432   5.031
11696TIP3    H135010   7.445   2.401   5.083
11696TIP3    H235011   7.297   2.371   5.054
11697TIP3   OH235012   7.427   2.689   5.484
11697TIP3    H135013   7.467   2.600   5.499
11697TIP3    H235014   7.486   2.721   5.413
11698TIP3   OH235015   7.588   2.865   5.978
11698TIP3    H135016   7.674   2.889   5.938
11698TIP3    H235017   7.603   2.900   6.068
11699TIP3   OH235018   7.657   3.007   6.211
11699TIP3    H135019   7.579   3.041   6.258
11699TIP3    H235020   7.690   3.087   6.166
11700TIP3   OH235021   6.274   2.733   7.010
11700TIP3    H135022   6.372   2.727   7.012
11700TIP3    H235023   6.250   2.647   7.051
11701TIP3   OH235024   8.096   2.590   6.763
11701TIP3    H135025   8.165   2.531   6.725
11701TIP3    H235026   8.079   2.653   6.690
11702TIP3   OH235027   7.535   2.439   5.522
11702TIP3    H135028   7.585   2.423   5.605
11702TIP3    H235029   7.475   2.362   5.521
11703TIP3   OH235030   6.233   2.427   6.341
11703TIP3    H135031   6.293   2.351   6.351
11703TIP3    H235032   6.297   2.500   6.334
11704TIP3   OH235033   6.037   2.700   6.410
11704TIP3    H135034   6.091   2.697   6.329
11704TIP3    H235035   6.069   2.781   6.451
11705TIP3   OH235036   7.982   2.742   6.566
11705TIP3    H135037   7.895   2.779   6.592
11705TIP3    H235038   7.952   2.666   6.513
11706TIP3   OH235039   7.617   2.374   5.153
11706TIP3    H135040   7.657   2.301   5.102
11706TIP3    H235041   7.685   2.444   5.148
11707TIP3   OH235042   6.023   2.191   5.905
11707TIP3    H135043   5.935   2.202   5.961
11707TIP3    H235044   6.020   2.277   5.855
11708TIP3   OH235045   7.183   3.908   5.423
11708TIP3    H135046   7.228   3.890   5.337
11708TIP3    H235047   7.244   3.971   5.463
11709TIP3   OH235048   6.243   2.287   6.730
11709TIP3    H135049   6.191   2.276   6.812
11709TIP3    H235050   6.174   2.319   6.669
11710TIP3   OH235051   6.460   3.727   6.330
11710TIP3    H135052   6.413   3.812   6.316
11710TIP3    H235053   6.547   3.751   6.294
11711TIP3   OH235054   6.906   3.986   6.491
11711TIP3    H135055   6.947   3.987   6.581
11711TIP3    H235056   6.972   4.038   6.441
11712TIP3   OH235057   7.084   4.140   6.349
11712TIP3    H135058   7.154   4.086   6.309
11712TIP3    H235059   7.137   4.195   6.411
11713TIP3   OH235060   7.879   2.500   6.451
11713TIP3    H135061   7.788   2.492   6.418
11713TIP3    H235062   7.911   2.408   6.441
11714TIP3   OH235063   6.136   4.004   6.370
11714TIP3    H135064   6.045   4.038   6.357
11714TIP3    H235065   6.150   4.023   6.463
11715TIP3   OH235066   6.377   3.982   6.240
11715TIP3    H135067   6.289   3.994   6.283
11715TIP3    H235068   6.358   4.010   6.149
11716TIP3   OH235069   6.800   4.008   6.032
11716TIP3    H135070   6.732   4.028   5.966
11716TIP3    H235071   6.811   4.095   6.076
11717TIP3   OH235072   7.068   3.947   6.085
11717TIP3    H135073   6.974   3.963   6.064
11717TIP3    H235074   7.111   4.022   6.041
11718TIP3   OH235075   7.277   4.142   5.999
11718TIP3    H135076   7.260   4.223   5.948
11718TIP3    H235077   7.303   4.079   5.928
11719TIP3   OH235078   6.052   3.793   6.126
11719TIP3    H135079   6.080   3.773   6.218
11719TIP3    H235080   6.128   3.755   6.078
11720TIP3   OH235081   6.240   3.666   5.969
11720TIP3    H135082   6.252   3.582   6.019
11720TIP3    H235083   6.332   3.701   5.970
11721TIP3   OH235084   6.507   3.760   5.983
11721TIP3    H135085   6.539   3.668   5.970
11721TIP3    H235086   6.550   3.780   6.068
11722TIP3   OH235087   7.080   2.414   6.065
11722TIP3    H135088   7.039   2.344   6.120
11722TIP3    H235089   7.156   2.368   6.025
11723TIP3   OH235090   7.606   2.296   5.975
11723TIP3    H135091   7.644   2.347   5.900
11723TIP3    H235092   7.511   2.314   5.967
11724TIP3   OH235093   7.701   2.396   5.739
11724TIP3    H135094   7.774   2.345   5.699
11724TIP3    H235095   7.735   2.488   5.724
11725TIP3   OH235096   6.330   2.122   6.086
11725TIP3    H135097   6.241   2.083   6.095
11725TIP3    H235098   6.384   2.040   6.083
11726TIP3   OH235099   6.772   2.160   5.969
11726TIP3    H135100   6.831   2.206   5.907
11726TIP3    H235101   6.803   2.194   6.054
11727TIP3   OH235102   7.321   2.303   5.950
11727TIP3    H135103   7.323   2.265   5.862
11727TIP3    H235104   7.308   2.223   6.006
11728TIP3   OH235105   7.352   2.225   5.512
11728TIP3    H135106   7.265   2.266   5.523
11728TIP3    H235107   7.338   2.140   5.559
11729TIP3   OH235108   5.833   3.572   5.512
11729TIP3    H135109   5.750   3.530   5.483
11729TIP3    H235110   5.821   3.659   5.470
11730TIP3   OH235111   6.752   2.329   5.596
11730TIP3    H135112   6.812   2.282   5.656
11730TIP3    H235113   6.774   2.422   5.621
11731TIP3   OH235114   6.609   3.755   5.098
11731TIP3    H135115   6.696   3.777   5.060
11731TIP3    H235116   6.585   3.681   5.037
11732TIP3   OH235117   7.325   3.871   5.190
11732TIP3    H135118   7.319   3.773   5.178
11732TIP3    H235119   7.282   3.902   5.108
11733TIP3   OH235120   6.540   2.407   6.977
11733TIP3    H135121   6.505   2.335   7.033
11733TIP3    H235122   6.634   2.405   7.004
11734TIP3   OH235123   6.789   2.403   7.096
11734TIP3    H135124   6.875   2.378   7.057
11734TIP3    H235125   6.778   2.332   7.163
11735TIP3   OH235126   5.911   3.584   5.153
11735TIP3    H135127   5.919   3.618   5.243
11735TIP3    H235128   6.000   3.544   5.137
11736TIP3   OH235129   7.614   2.463   6.884
11736TIP3    H135130   7.633   2.430   6.975
11736TIP3    H235131   7.703   2.459   6.843
11737TIP3   OH235132   7.553   4.017   6.376
11737TIP3    H135133   7.475   3.985   6.327
11737TIP3    H235134   7.533   4.112   6.381
11738TIP3   OH235135   8.818   3.396   5.151
11738TIP3    H135136   8.791   3.481   5.113
11738TIP3    H235137   8.754   3.337   5.109
11739TIP3   OH235138   8.816   3.394   5.516
11739TIP3    H135139   8.822   3.355   5.604
11739TIP3    H235140   8.793   3.317   5.461
11740TIP3   OH235141   8.117   3.285   5.890
11740TIP3    H135142   8.148   3.215   5.951
11740TIP3    H235143   8.197   3.337   5.879
11741TIP3   OH235144   9.077   3.681   5.220
11741TIP3    H135145   9.017   3.631   5.276
11741TIP3    H235146   9.083   3.767   5.267
11742TIP3   OH235147   8.088   3.693   5.614
11742TIP3    H135148   8.080   3.595   5.615
11742TIP3    H235149   8.184   3.703   5.608
11743TIP3   OH235150   7.796   2.896   5.398
11743TIP3    H135151   7.747   2.979   5.412
11743TIP3    H235152   7.725   2.841   5.360
11744TIP3   OH235153   7.855   3.183   5.570
11744TIP3    H135154   7.903   3.105   5.606
11744TIP3    H235155   7.913   3.211   5.498
11745TIP3   OH235156   8.704   4.158   5.228
11745TIP3    H135157   8.750   4.088   5.177
11745TIP3    H235158   8.700   4.120   5.316
11746TIP3   OH235159   8.615   3.615   5.571
11746TIP3    H135160   8.651   3.538   5.523
11746TIP3    H235161   8.699   3.657   5.596
11747TIP3   OH235162   8.363   2.774   5.571
11747TIP3    H135163   8.348   2.847   5.507
11747TIP3    H235164   8.317   2.701   5.525
11748TIP3   OH235165   8.001   2.977   5.675
11748TIP3    H135166   8.083   2.957   5.723
11748TIP3    H235167   8.014   2.921   5.596
11749TIP3   OH235168   8.440   3.175   5.470
11749TIP3    H135169   8.533   3.152   5.488
11749TIP3    H235170   8.404   3.090   5.437
11750TIP3   OH235171   8.362   2.760   6.004
11750TIP3    H135172   8.302   2.797   5.937
11750TIP3    H235173   8.311   2.777   6.086
11751TIP3   OH235174   8.717   3.614   5.008
11751TIP3    H135175   8.665   3.583   4.932
11751TIP3    H235176   8.669   3.695   5.033
11752TIP3   OH235177   8.472   3.532   5.801
11752TIP3    H135178   8.409   3.598   5.839
11752TIP3    H235179   8.513   3.584   5.729
11753TIP3   OH235180   8.233   2.874   5.789
11753TIP3    H135181   8.298   2.945   5.812
11753TIP3    H235182   8.281   2.833   5.713
11754TIP3   OH235183   8.298   3.727   5.897
11754TIP3    H135184   8.272   3.813   5.858
11754TIP3    H235185   8.218   3.711   5.952
11755TIP3   OH235186   7.692   3.416   5.132
11755TIP3    H135187   7.652   3.442   5.046
11755TIP3    H235188   7.723   3.501   5.167
11756TIP3   OH235189   9.110   3.931   5.355
11756TIP3    H135190   9.024   3.928   5.404
11756TIP3    H235191   9.107   4.023   5.321
11757TIP3   OH235192   8.706   2.504   5.714
11757TIP3    H135193   8.726   2.412   5.741
11757TIP3    H235194   8.624   2.522   5.766
11758TIP3   OH235195   8.830   3.992   5.054
11758TIP3    H135196   8.880   3.908   5.040
11758TIP3    H235197   8.889   4.052   5.004
11759TIP3   OH235198   8.978   3.781   4.982
11759TIP3    H135199   8.949   3.717   4.915
11759TIP3    H235200   9.000   3.724   5.058
11760TIP3   OH235201   8.648   3.246   4.979
11760TIP3    H135202   8.568   3.295   4.953
11760TIP3    H235203   8.695   3.237   4.895
11761TIP3   OH235204   8.607   3.019   4.693
11761TIP3    H135205   8.685   3.068   4.725
11761TIP3    H235206   8.642   2.929   4.691
11762TIP3   OH235207   8.230   3.321   5.362
11762TIP3    H135208   8.188   3.263   5.295
11762TIP3    H235209   8.306   3.267   5.391
11763TIP3   OH235210   8.359   3.732   5.510
11763TIP3    H135211   8.337   3.689   5.426
11763TIP3    H235212   8.448   3.697   5.529
11764TIP3   OH235213   8.365   3.291   5.717
11764TIP3    H135214   8.399   3.267   5.628
11764TIP3    H235215   8.410   3.376   5.735
11765TIP3   OH235216   8.881   3.926   5.495
11765TIP3    H135217   8.870   4.010   5.542
11765TIP3    H235218   8.868   3.858   5.564
11766TIP3   OH235219   8.504   3.850   6.039
11766TIP3    H135220   8.443   3.911   6.086
11766TIP3    H235221   8.440   3.795   5.990
11767TIP3   OH235222   8.836   3.172   4.786
11767TIP3    H135223   8.914   3.207   4.831
11767TIP3    H235224   8.851   3.212   4.699
11768TIP3   OH235225   8.259   3.404   6.142
11768TIP3    H135226   8.262   3.491   6.186
11768TIP3    H235227   8.164   3.384   6.150
11769TIP3   OH235228   8.582   3.860   5.046
11769TIP3    H135229   8.656   3.919   5.067
11769TIP3    H235230   8.518   3.919   5.005
11770TIP3   OH235231   8.298   4.016   6.126
11770TIP3    H135232   8.263   4.016   6.035
11770TIP3    H235233   8.218   3.994   6.180
11771TIP3   OH235234   8.095   3.164   5.168
11771TIP3    H135235   8.029   3.207   5.110
11771TIP3    H235236   8.057   3.076   5.179
11772TIP3   OH235237   7.877   3.547   6.074
11772TIP3    H135238   7.812   3.524   6.004
11772TIP3    H235239   7.915   3.460   6.098
11773TIP3   OH235240   7.731   3.740   5.706
11773TIP3    H135241   7.827   3.729   5.695
11773TIP3    H235242   7.727   3.818   5.763
11774TIP3   OH235243   8.701   3.978   5.894
11774TIP3    H135244   8.703   4.070   5.929
11774TIP3    H235245   8.630   3.939   5.949
11775TIP3   OH235246   8.462   4.107   4.847
11775TIP3    H135247   8.415   4.087   4.764
11775TIP3    H235248   8.429   4.196   4.870
11776TIP3   OH235249   7.900   3.956   5.233
11776TIP3    H135250   7.948   3.946   5.318
11776TIP3    H235251   7.846   3.875   5.233
11777TIP3   OH235252   8.654   4.039   4.499
11777TIP3    H135253   8.693   3.956   4.461
11777TIP3    H235254   8.689   4.035   4.590
11778TIP3   OH235255   8.713   4.051   4.766
11778TIP3    H135256   8.622   4.063   4.803
11778TIP3    H235257   8.758   4.013   4.843
11779TIP3   OH235258   8.081   3.730   6.063
11779TIP3    H135259   8.131   3.713   6.144
11779TIP3    H235260   8.007   3.666   6.070
11780TIP3   OH235261   8.473   2.554   5.850
11780TIP3    H135262   8.384   2.524   5.822
11780TIP3    H235263   8.448   2.636   5.896
11781TIP3   OH235264   8.999   2.631   6.110
11781TIP3    H135265   9.019   2.640   6.205
11781TIP3    H235266   8.901   2.620   6.114
11782TIP3   OH235267   8.588   2.622   4.801
11782TIP3    H135268   8.598   2.614   4.897
11782TIP3    H235269   8.572   2.529   4.776
11783TIP3   OH235270   8.414   3.068   5.865
11783TIP3    H135271   8.362   3.090   5.946
11783TIP3    H235272   8.399   3.149   5.811
11784TIP3   OH235273   8.297   2.955   5.379
11784TIP3    H135274   8.204   2.928   5.396
11784TIP3    H235275   8.311   2.913   5.291
11785TIP3   OH235276   8.798   3.039   5.078
11785TIP3    H135277   8.732   3.111   5.064
11785TIP3    H235278   8.828   3.027   4.987
11786TIP3   OH235279   8.946   3.323   6.191
11786TIP3    H135280   8.930   3.253   6.258
11786TIP3    H235281   9.043   3.329   6.191
11787TIP3   OH235282   8.873   3.114   5.348
11787TIP3    H135283   8.854   3.093   5.255
11787TIP3    H235284   8.951   3.058   5.367
11788TIP3   OH235285   8.232   3.098   6.073
11788TIP3    H135286   8.259   3.160   6.142
11788TIP3    H235287   8.221   3.015   6.124
11789TIP3   OH235288   8.272   2.564   4.784
11789TIP3    H135289   8.271   2.569   4.882
11789TIP3    H235290   8.198   2.623   4.761
11790TIP3   OH235291   7.825   2.620   5.654
11790TIP3    H135292   7.901   2.651   5.707
11790TIP3    H235293   7.865   2.587   5.573
11791TIP3   OH235294   7.798   2.601   5.174
11791TIP3    H135295   7.844   2.638   5.095
11791TIP3    H235296   7.737   2.674   5.193
11792TIP3   OH235297   8.917   3.302   5.766
11792TIP3    H135298   8.948   3.222   5.722
11792TIP3    H235299   8.903   3.266   5.857
11793TIP3   OH235300   8.614   2.793   5.437
11793TIP3    H135301   8.539   2.780   5.498
11793TIP3    H235302   8.690   2.762   5.490
11794TIP3   OH235303   8.058   2.832   5.449
11794TIP3    H135304   7.964   2.839   5.421
11794TIP3    H235305   8.082   2.740   5.425
11795TIP3   OH235306   8.328   2.829   5.136
11795TIP3    H135307   8.422   2.844   5.115
11795TIP3    H235308   8.282   2.851   5.052
11796TIP3   OH235309   8.170   2.863   4.915
11796TIP3    H135310   8.097   2.819   4.868
11796TIP3    H235311   8.221   2.898   4.840
11797TIP3   OH235312   9.258   4.592   5.876
11797TIP3    H135313   9.240   4.597   5.781
11797TIP3    H235314   9.345   4.548   5.874
11798TIP3   OH235315   8.243   3.652   6.282
11798TIP3    H135316   8.323   3.682   6.329
11798TIP3    H235317   8.179   3.650   6.356
11799TIP3   OH235318   8.697   3.114   5.554
11799TIP3    H135319   8.763   3.100   5.482
11799TIP3    H235320   8.719   3.044   5.617
11800TIP3   OH235321   8.230   2.594   5.415
11800TIP3    H135322   8.196   2.515   5.462
11800TIP3    H235323   8.284   2.554   5.346
11801TIP3   OH235324   8.687   2.998   5.836
11801TIP3    H135325   8.597   3.037   5.837
11801TIP3    H235326   8.740   3.064   5.883
11802TIP3   OH235327   8.418   3.396   4.921
11802TIP3    H135328   8.348   3.328   4.910
11802TIP3    H235329   8.400   3.427   5.013
11803TIP3   OH235330   8.800   3.711   5.919
11803TIP3    H135331   8.848   3.690   5.999
11803TIP3    H235332   8.773   3.804   5.932
11804TIP3   OH235333   8.113   3.415   5.598
11804TIP3    H135334   8.150   3.386   5.512
11804TIP3    H235335   8.154   3.352   5.659
11805TIP3   OH235336   8.568   3.543   4.743
11805TIP3    H135337   8.519   3.628   4.749
11805TIP3    H235338   8.513   3.487   4.801
11806TIP3   OH235339   7.993   3.336   6.212
11806TIP3    H135340   8.013   3.321   6.306
11806TIP3    H235341   7.925   3.268   6.195
11807TIP3   OH235342   8.711   3.451   6.234
11807TIP3    H135343   8.653   3.391   6.184
11807TIP3    H235344   8.800   3.418   6.206
11808TIP3   OH235345   8.986   3.963   5.810
11808TIP3    H135346   8.889   3.962   5.813
11808TIP3    H235347   9.003   4.017   5.890
11809TIP3   OH235348   9.079   3.449   5.474
11809TIP3    H135349   8.983   3.452   5.495
11809TIP3    H235350   9.074   3.400   5.391
11810TIP3   OH235351   8.214   3.719   5.223
11810TIP3    H135352   8.212   3.800   5.169
11810TIP3    H235353   8.120   3.700   5.231
11811TIP3   OH235354   7.778   3.022   4.926
11811TIP3    H135355   7.823   3.107   4.946
11811TIP3    H235356   7.700   3.027   4.986
11812TIP3   OH235357   8.353   3.485   5.167
11812TIP3    H135358   8.316   3.573   5.187
11812TIP3    H235359   8.318   3.433   5.241
11813TIP3   OH235360   8.482   4.062   5.692
11813TIP3    H135361   8.524   4.135   5.642
11813TIP3    H235362   8.558   4.027   5.742
11814TIP3   OH235363   8.133   3.958   5.075
11814TIP3    H135364   8.047   3.966   5.122
11814TIP3    H235365   8.165   4.051   5.078
11815TIP3   OH235366   8.870   3.691   5.654
11815TIP3    H135367   8.852   3.698   5.751
11815TIP3    H235368   8.942   3.628   5.655
11816TIP3   OH235369   8.773   3.611   4.548
11816TIP3    H135370   8.854   3.599   4.602
11816TIP3    H235371   8.705   3.577   4.609
11817TIP3   OH235372   9.091   4.244   5.717
11817TIP3    H135373   9.030   4.174   5.686
11817TIP3    H235374   9.096   4.301   5.637
11818TIP3   OH235375   8.204   2.841   6.220
11818TIP3    H135376   8.108   2.843   6.233
11818TIP3    H235377   8.232   2.780   6.291
11819TIP3   OH235378   7.919   3.925   5.852
11819TIP3    H135379   7.973   3.849   5.881
11819TIP3    H235380   7.952   3.993   5.912
11820TIP3   OH235381   8.210   3.571   4.533
11820TIP3    H135382   8.226   3.480   4.503
11820TIP3    H235383   8.191   3.557   4.628
11821TIP3   OH235384   8.157   3.575   4.807
11821TIP3    H135385   8.230   3.547   4.863
11821TIP3    H235386   8.162   3.673   4.813
11822TIP3   OH235387   7.893   3.269   5.008
11822TIP3    H135388   7.826   3.313   5.065
11822TIP3    H235389   7.907   3.337   4.940
11823TIP3   OH235390   8.425   3.771   4.755
11823TIP3    H135391   8.337   3.798   4.790
11823TIP3    H235392   8.437   3.839   4.687
11824TIP3   OH235393   8.612   2.837   5.163
11824TIP3    H135394   8.680   2.905   5.146
11824TIP3    H235395   8.615   2.828   5.261
11825TIP3   OH235396   8.892   3.147   5.986
11825TIP3    H135397   8.892   3.211   6.060
11825TIP3    H235398   8.957   3.082   6.019
11826TIP3   OH235399   8.752   2.568   5.270
11826TIP3    H135400   8.770   2.609   5.358
11826TIP3    H235401   8.813   2.619   5.216
11827TIP3   OH235402   8.168   3.848   4.821
11827TIP3    H135403   8.136   3.916   4.758
11827TIP3    H235404   8.150   3.891   4.907
11828TIP3   OH235405   8.269   2.561   5.061
11828TIP3    H135406   8.265   2.651   5.097
11828TIP3    H235407   8.365   2.544   5.068
11829TIP3   OH235408   7.884   3.478   4.814
11829TIP3    H135409   7.952   3.548   4.822
11829TIP3    H235410   7.929   3.422   4.747
11830TIP3   OH235411   7.829   2.753   4.949
11830TIP3    H135412   7.828   2.851   4.944
11830TIP3    H235413   7.747   2.731   4.903
11831TIP3   OH235414   9.147   4.205   5.280
11831TIP3    H135415   9.100   4.244   5.203
11831TIP3    H235416   9.236   4.199   5.244
11832TIP3   OH235417   8.212   2.474   5.822
11832TIP3    H135418   8.184   2.438   5.735
11832TIP3    H235419   8.204   2.395   5.880
11833TIP3   OH235420   7.759   3.696   5.203
11833TIP3    H135421   7.683   3.723   5.256
11833TIP3    H235422   7.733   3.732   5.115
11834TIP3   OH235423   7.912   4.233   6.274
11834TIP3    H135424   7.998   4.233   6.320
11834TIP3    H235425   7.893   4.138   6.272
11835TIP3   OH235426   8.393   4.197   6.320
11835TIP3    H135427   8.488   4.182   6.324
11835TIP3    H235428   8.368   4.139   6.245
11836TIP3   OH235429   8.377   3.774   4.449
11836TIP3    H135430   8.318   3.702   4.483
11836TIP3    H235431   8.450   3.720   4.415
11837TIP3   OH235432   9.012   4.088   6.044
11837TIP3    H135433   9.005   4.025   6.119
11837TIP3    H235434   9.078   4.153   6.077
11838TIP3   OH235435   8.744   3.818   4.383
11838TIP3    H135436   8.769   3.742   4.441
11838TIP3    H235437   8.815   3.817   4.316
11839TIP3   OH235438   8.042   3.639   6.474
11839TIP3    H135439   8.059   3.543   6.478
11839TIP3    H235440   7.955   3.641   6.429
11840TIP3   OH235441   8.019   3.292   4.667
11840TIP3    H135442   8.075   3.257   4.739
11840TIP3    H235443   8.085   3.296   4.594
11841TIP3   OH235444   8.647   3.725   6.248
11841TIP3    H135445   8.611   3.743   6.159
11841TIP3    H235446   8.680   3.633   6.239
11842TIP3   OH235447   8.511   3.484   4.474
11842TIP3    H135448   8.523   3.497   4.570
11842TIP3    H235449   8.522   3.387   4.468
11843TIP3   OH235450   9.090   3.687   5.857
11843TIP3    H135451   9.170   3.703   5.805
11843TIP3    H235452   9.053   3.776   5.864
11844TIP3   OH235453   8.161   3.375   6.455
11844TIP3    H135454   8.233   3.315   6.434
11844TIP3    H235455   8.188   3.407   6.544
11845TIP3   OH235456   8.230   3.194   4.891
11845TIP3    H135457   8.201   3.151   4.973
11845TIP3    H235458   8.265   3.118   4.839
11846TIP3   OH235459   8.498   3.260   6.117
11846TIP3    H135460   8.419   3.318   6.118
11846TIP3    H235461   8.546   3.292   6.038
11847TIP3   OH235462   8.326   2.989   4.729
11847TIP3    H135463   8.298   2.991   4.635
11847TIP3    H235464   8.423   2.996   4.719
11848TIP3   OH235465   9.007   3.659   6.255
11848TIP3    H135466   9.088   3.626   6.210
11848TIP3    H235467   9.001   3.594   6.326
11849TIP3   OH235468   8.611   3.044   6.244
11849TIP3    H135469   8.615   2.965   6.186
11849TIP3    H235470   8.571   3.111   6.185
11850TIP3   OH235471   8.619   2.834   6.052
11850TIP3    H135472   8.649   2.876   5.968
11850TIP3    H235473   8.526   2.813   6.031
11851TIP3   OH235474   8.654   3.366   5.921
11851TIP3    H135475   8.734   3.378   5.868
11851TIP3    H235476   8.595   3.433   5.882
11852TIP3   OH235477   8.496   3.160   6.474
11852TIP3    H135478   8.429   3.091   6.490
11852TIP3    H235479   8.529   3.134   6.386
11853TIP3   OH235480   8.732   2.594   6.131
11853TIP3    H135481   8.683   2.675   6.104
11853TIP3    H235482   8.665   2.524   6.115
11854TIP3   OH235483   8.865   3.108   6.342
11854TIP3    H135484   8.863   3.092   6.438
11854TIP3    H235485   8.775   3.079   6.318
11855TIP3   OH235486   9.114   3.092   6.237
11855TIP3    H135487   9.025   3.089   6.277
11855TIP3    H235488   9.153   3.011   6.273
11856TIP3   OH235489   8.338   2.940   6.525
11856TIP3    H135490   8.341   2.849   6.491
11856TIP3    H235491   8.375   2.926   6.615
11857TIP3   OH235492   8.865   2.604   6.369
11857TIP3    H135493   8.911   2.519   6.375
11857TIP3    H235494   8.806   2.591   6.293
11858TIP3   OH235495   8.916   2.828   6.520
11858TIP3    H135496   8.892   2.758   6.455
11858TIP3    H235497   8.835   2.884   6.521
11859TIP3   OH235498   8.134   4.053   4.636
11859TIP3    H135499   8.229   4.045   4.616
11859TIP3    H235500   8.105   4.099   4.555
11860TIP3   OH235501   7.616   3.430   4.854
11860TIP3    H135502   7.710   3.452   4.836
11860TIP3    H235503   7.609   3.343   4.810
11861TIP3   OH235504   7.527   4.046   5.265
11861TIP3    H135505   7.463   3.983   5.227
11861TIP3    H235506   7.573   3.988   5.330
11862TIP3   OH235507   7.664   3.899   5.452
11862TIP3    H135508   7.655   3.822   5.510
11862TIP3    H235509   7.718   3.957   5.508
11863TIP3   OH235510   7.852   3.304   5.822
11863TIP3    H135511   7.851   3.272   5.729
11863TIP3    H235512   7.949   3.305   5.840
11864TIP3   OH235513   8.073   2.994   6.500
11864TIP3    H135514   8.170   2.984   6.500
11864TIP3    H235515   8.046   2.907   6.536
11865TIP3   OH235516   8.031   2.683   5.830
11865TIP3    H135517   8.091   2.606   5.838
11865TIP3    H235518   8.094   2.756   5.822
11866TIP3   OH235519   7.834   2.956   5.900
11866TIP3    H135520   7.884   2.948   5.816
11866TIP3    H235521   7.866   3.041   5.933
11867TIP3   OH235522   7.818   2.461   5.403
11867TIP3    H135523   7.724   2.456   5.428
11867TIP3    H235524   7.816   2.519   5.324
11868TIP3   OH235525   8.978   4.151   4.894
11868TIP3    H135526   9.055   4.132   4.840
11868TIP3    H235527   9.009   4.224   4.951
11869TIP3   OH235528   8.039   2.542   6.217
11869TIP3    H135529   7.988   2.534   6.299
11869TIP3    H235530   7.971   2.577   6.156
11870TIP3   OH235531   8.078   3.968   6.293
11870TIP3    H135532   7.987   3.938   6.275
11870TIP3    H235533   8.087   3.948   6.387
11871TIP3   OH235534   8.255   3.998   5.840
11871TIP3    H135535   8.209   4.075   5.800
11871TIP3    H235536   8.342   4.011   5.797
11872TIP3   OH235537   8.702   4.244   5.980
11872TIP3    H135538   8.745   4.245   6.067
11872TIP3    H235539   8.767   4.294   5.926
11873TIP3   OH235540   8.877   4.393   5.834
11873TIP3    H135541   8.952   4.343   5.797
11873TIP3    H235542   8.925   4.450   5.898
11874TIP3   OH235543   7.932   4.256   5.863
11874TIP3    H135544   7.843   4.291   5.842
11874TIP3    H235545   7.944   4.293   5.952
11875TIP3   OH235546   8.169   4.234   5.722
11875TIP3    H135547   8.082   4.247   5.766
11875TIP3    H235548   8.151   4.266   5.632
11876TIP3   OH235549   8.593   4.264   5.520
11876TIP3    H135550   8.524   4.285   5.454
11876TIP3    H235551   8.606   4.351   5.564
11877TIP3   OH235552   8.858   4.196   5.560
11877TIP3    H135553   8.765   4.220   5.546
11877TIP3    H235554   8.904   4.278   5.535
11878TIP3   OH235555   9.060   4.384   5.474
11878TIP3    H135556   9.054   4.473   5.434
11878TIP3    H235557   9.077   4.328   5.395
11879TIP3   OH235558   7.843   4.049   5.611
11879TIP3    H135559   7.872   4.024   5.701
11879TIP3    H235560   7.915   4.005   5.559
11880TIP3   OH235561   8.037   3.921   5.467
11880TIP3    H135562   8.053   3.837   5.515
11880TIP3    H235563   8.128   3.957   5.461
11881TIP3   OH235564   8.304   4.016   5.469
11881TIP3    H135565   8.335   3.924   5.457
11881TIP3    H235566   8.349   4.037   5.553
11882TIP3   OH235567   8.841   2.639   5.516
11882TIP3    H135568   8.804   2.597   5.597
11882TIP3    H235569   8.935   2.616   5.527
11883TIP3   OH235570   8.129   2.381   5.573
11883TIP3    H135571   8.037   2.348   5.575
11883TIP3    H235572   8.177   2.295   5.568
11884TIP3   OH235573   7.913   2.250   5.220
11884TIP3    H135574   7.944   2.307   5.148
11884TIP3    H235575   7.887   2.316   5.288
11885TIP3   OH235576   8.570   2.417   5.456
11885TIP3    H135577   8.630   2.468   5.400
11885TIP3    H235578   8.594   2.448   5.544
11886TIP3   OH235579   7.631   3.821   5.001
11886TIP3    H135580   7.547   3.786   4.967
11886TIP3    H235581   7.620   3.915   4.977
11887TIP3   OH235582   8.032   2.409   4.984
11887TIP3    H135583   8.080   2.347   4.926
11887TIP3    H235584   8.105   2.464   5.019
11888TIP3   OH235585   8.545   2.582   5.087
11888TIP3    H135586   8.605   2.545   5.154
11888TIP3    H235587   8.562   2.677   5.103
11889TIP3   OH235588   8.399   4.011   4.584
11889TIP3    H135589   8.486   4.040   4.548
11889TIP3    H235590   8.381   3.937   4.522
11890TIP3   OH235591   8.336   2.664   6.465
11890TIP3    H135592   8.300   2.592   6.520
11890TIP3    H235593   8.430   2.663   6.494
11891TIP3   OH235594   8.583   2.657   6.588
11891TIP3    H135595   8.668   2.625   6.554
11891TIP3    H235596   8.566   2.592   6.660
11892TIP3   OH235597   7.712   3.850   4.640
11892TIP3    H135598   7.711   3.870   4.734
11892TIP3    H235599   7.799   3.807   4.627
11893TIP3   OH235600   9.292   4.231   5.905
11893TIP3    H135601   9.216   4.216   5.845
11893TIP3    H235602   9.325   4.315   5.871
11894TIP3   OH235603   1.271   4.175   6.835
11894TIP3    H135604   1.242   4.266   6.813
11894TIP3    H235605   1.196   4.125   6.797
11895TIP3   OH235606   1.271   4.178   7.211
11895TIP3    H135607   1.299   4.144   7.297
11895TIP3    H235608   1.228   4.100   7.171
11896TIP3   OH235609   0.589   4.028   7.560
11896TIP3    H135610   0.630   3.980   7.634
11896TIP3    H235611   0.629   4.116   7.566
11897TIP3   OH235612   1.513   4.479   6.894
11897TIP3    H135613   1.500   4.408   6.958
11897TIP3    H235614   1.545   4.552   6.950
11898TIP3   OH235615   0.569   4.479   7.326
11898TIP3    H135616   0.557   4.383   7.341
11898TIP3    H235617   0.664   4.482   7.303
11899TIP3   OH235618   0.248   3.697   7.092
11899TIP3    H135619   0.199   3.780   7.100
11899TIP3    H235620   0.177   3.635   7.074
11900TIP3   OH235621   0.326   3.970   7.234
11900TIP3    H135622   0.370   3.885   7.254
11900TIP3    H235623   0.339   3.978   7.138
11901TIP3   OH235624   1.164   4.942   6.914
11901TIP3    H135625   1.207   4.872   6.859
11901TIP3    H235626   1.161   4.897   7.000
11902TIP3   OH235627   1.070   4.402   7.262
11902TIP3    H135628   1.107   4.326   7.214
11902TIP3    H235629   1.155   4.446   7.285
11903TIP3   OH235630   2.081   3.720   7.259
11903TIP3    H135631   2.111   3.803   7.300
11903TIP3    H235632   2.107   3.734   7.166
11904TIP3   OH235633   1.479   3.901   7.297
11904TIP3    H135634   1.527   3.817   7.311
11904TIP3    H235635   1.450   3.890   7.205
11905TIP3   OH235636   0.823   3.564   7.258
11905TIP3    H135637   0.799   3.635   7.195
11905TIP3    H235638   0.776   3.488   7.215
11906TIP3   OH235639   1.513   3.656   6.881
11906TIP3    H135640   1.585   3.641   6.946
11906TIP3    H235641   1.565   3.689   6.806
11907TIP3   OH235642   0.458   3.760   7.353
11907TIP3    H135643   0.544   3.746   7.397
11907TIP3    H235644   0.467   3.699   7.277
11908TIP3   OH235645   0.896   3.963   7.147
11908TIP3    H135646   0.988   3.935   7.165
11908TIP3    H235647   0.854   3.879   7.120
11909TIP3   OH235648   2.155   3.926   7.434
11909TIP3    H135649   2.074   3.976   7.412
11909TIP3    H235650   2.179   3.967   7.519
11910TIP3   OH235651   0.817   3.549   7.695
11910TIP3    H135652   0.761   3.586   7.623
11910TIP3    H235653   0.759   3.567   7.772
11911TIP3   OH235654   1.161   4.395   6.705
11911TIP3    H135655   1.123   4.376   6.618
11911TIP3    H235656   1.117   4.479   6.727
11912TIP3   OH235657   0.931   4.320   7.488
11912TIP3    H135658   0.867   4.386   7.522
11912TIP3    H235659   0.972   4.369   7.414
11913TIP3   OH235660   1.721   3.658   7.054
11913TIP3    H135661   1.731   3.598   7.129
11913TIP3    H235662   1.779   3.732   7.078
11914TIP3   OH235663   0.690   3.661   7.477
11914TIP3    H135664   0.749   3.737   7.498
11914TIP3    H235665   0.737   3.622   7.400
11915TIP3   OH235666   0.763   4.516   7.574
11915TIP3    H135667   0.732   4.590   7.518
11915TIP3    H235668   0.690   4.518   7.640
11916TIP3   OH235669   1.585   4.722   7.065
11916TIP3    H135670   1.494   4.713   7.102
11916TIP3    H235671   1.577   4.806   7.017
11917TIP3   OH235672   1.873   3.623   7.426
11917TIP3    H135673   1.786   3.647   7.388
11917TIP3    H235674   1.935   3.655   7.356
11918TIP3   OH235675   1.177   3.264   7.413
11918TIP3    H135676   1.157   3.169   7.421
11918TIP3    H235677   1.097   3.303   7.455
11919TIP3   OH235678   1.284   4.769   6.736
11919TIP3    H135679   1.332   4.685   6.717
11919TIP3    H235680   1.348   4.832   6.695
11920TIP3   OH235681   1.425   4.554   6.644
11920TIP3    H135682   1.402   4.474   6.595
11920TIP3    H235683   1.462   4.516   6.727
11921TIP3   OH235684   1.810   4.634   7.406
11921TIP3    H135685   1.800   4.557   7.346
11921TIP3    H235686   1.794   4.709   7.345
11922TIP3   OH235687   1.104   4.029   6.663
11922TIP3    H135688   1.024   4.080   6.640
11922TIP3    H235689   1.149   4.023   6.577
11923TIP3   OH235690   1.062   3.810   6.380
11923TIP3    H135691   1.130   3.864   6.426
11923TIP3    H235692   1.120   3.748   6.332
11924TIP3   OH235693   2.005   4.269   7.251
11924TIP3    H135694   1.923   4.322   7.254
11924TIP3    H235695   2.037   4.293   7.161
11925TIP3   OH235696   1.449   4.111   6.635
11925TIP3    H135697   1.395   4.134   6.714
11925TIP3    H235698   1.534   4.085   6.677
11926TIP3   OH235699   1.686   4.145   7.549
11926TIP3    H135700   1.684   4.229   7.598
11926TIP3    H235701   1.600   4.150   7.502
11927TIP3   OH235702   0.681   4.108   7.049
11927TIP3    H135703   0.639   4.050   6.982
11927TIP3    H235704   0.759   4.054   7.077
11928TIP3   OH235705   0.819   4.519   7.199
11928TIP3    H135706   0.797   4.478   7.114
11928TIP3    H235707   0.909   4.482   7.215
11929TIP3   OH235708   0.849   4.073   7.401
11929TIP3    H135709   0.866   4.060   7.306
11929TIP3    H235710   0.878   4.165   7.417
11930TIP3   OH235711   1.341   4.718   7.182
11930TIP3    H135712   1.331   4.797   7.238
11930TIP3    H235713   1.328   4.644   7.245
11931TIP3   OH235714   0.963   4.627   7.730
11931TIP3    H135715   0.903   4.696   7.768
11931TIP3    H235716   0.899   4.579   7.673
11932TIP3   OH235717   1.289   3.969   6.460
11932TIP3    H135718   1.349   4.028   6.510
11932TIP3    H235719   1.316   3.991   6.367
11933TIP3   OH235720   0.709   4.193   7.828
11933TIP3    H135721   0.713   4.270   7.887
11933TIP3    H235722   0.619   4.203   7.794
11934TIP3   OH235723   1.030   4.652   6.742
11934TIP3    H135724   1.113   4.702   6.751
11934TIP3    H235725   0.974   4.712   6.692
11935TIP3   OH235726   0.774   4.822   7.790
11935TIP3    H135727   0.744   4.811   7.697
11935TIP3    H235728   0.689   4.818   7.838
11936TIP3   OH235729   1.807   3.210   6.509
11936TIP3    H135730   1.725   3.232   6.558
11936TIP3    H235731   1.821   3.292   6.458
11937TIP3   OH235732   0.551   3.951   6.853
11937TIP3    H135733   0.488   3.987   6.788
11937TIP3    H235734   0.505   3.871   6.880
11938TIP3   OH235735   1.606   4.577   6.060
11938TIP3    H135736   1.616   4.672   6.041
11938TIP3    H235737   1.698   4.545   6.046
11939TIP3   OH235738   2.048   4.979   7.451
11939TIP3    H135739   2.047   4.882   7.464
11939TIP3    H235740   1.965   5.004   7.498
11940TIP3   OH235741   1.154   4.765   7.585
11940TIP3    H135742   1.153   4.857   7.619
11940TIP3    H235743   1.084   4.724   7.641
11941TIP3   OH235744   0.913   4.892   6.539
11941TIP3    H135745   0.870   4.872   6.454
11941TIP3    H235746   0.882   4.981   6.560
11942TIP3   OH235747   1.115   4.795   6.179
11942TIP3    H135748   1.174   4.726   6.141
11942TIP3    H235749   1.151   4.803   6.269
11943TIP3   OH235750   1.166   4.845   6.449
11943TIP3    H135751   1.078   4.851   6.492
11943TIP3    H235752   1.217   4.800   6.519
11944TIP3   OH235753   1.937   4.107   7.729
11944TIP3    H135754   1.862   4.125   7.670
11944TIP3    H235755   1.954   4.012   7.712
11945TIP3   OH235756   0.581   4.569   7.768
11945TIP3    H135757   0.626   4.534   7.847
11945TIP3    H235758   0.508   4.506   7.759
11946TIP3   OH235759   0.938   3.341   7.536
11946TIP3    H135760   0.851   3.306   7.508
11946TIP3    H235761   0.908   3.424   7.577
11947TIP3   OH235762   1.465   3.470   7.746
11947TIP3    H135763   1.537   3.422   7.793
11947TIP3    H235764   1.384   3.427   7.779
11948TIP3   OH235765   1.694   3.885   7.663
11948TIP3    H135766   1.701   3.917   7.754
11948TIP3    H235767   1.684   3.968   7.612
11949TIP3   OH235768   1.367   4.019   6.206
11949TIP3    H135769   1.332   3.991   6.119
11949TIP3    H235770   1.450   4.062   6.179
11950TIP3   OH235771   1.079   3.390   6.507
11950TIP3    H135772   1.044   3.386   6.598
11950TIP3    H235773   1.039   3.308   6.471
11951TIP3   OH235774   0.865   3.856   7.558
11951TIP3    H135775   0.813   3.882   7.636
11951TIP3    H235776   0.856   3.936   7.500
11952TIP3   OH235777   0.748   3.742   7.069
11952TIP3    H135778   0.655   3.714   7.084
11952TIP3    H235779   0.762   3.703   6.979
11953TIP3   OH235780   1.241   3.829   6.797
11953TIP3    H135781   1.188   3.900   6.754
11953TIP3    H235782   1.295   3.798   6.722
11954TIP3   OH235783   1.419   4.077   7.892
11954TIP3    H135784   1.393   4.071   7.985
11954TIP3    H235785   1.511   4.108   7.901
11955TIP3   OH235786   1.397   3.859   7.036
11955TIP3    H135787   1.337   3.889   6.964
11955TIP3    H235788   1.431   3.778   6.992
11956TIP3   OH235789   0.692   3.885   7.778
11956TIP3    H135790   0.723   3.943   7.849
11956TIP3    H235791   0.681   3.800   7.825
11957TIP3   OH235792   0.735   3.362   6.474
11957TIP3    H135793   0.724   3.360   6.571
11957TIP3    H235794   0.656   3.414   6.448
11958TIP3   OH235795   0.301   3.451   7.355
11958TIP3    H135796   0.371   3.448   7.423
11958TIP3    H235797   0.330   3.384   7.291
11959TIP3   OH235798   0.273   3.424   6.878
11959TIP3    H135799   0.310   3.449   6.791
11959TIP3    H235800   0.181   3.450   6.865
11960TIP3   OH235801   1.408   4.103   7.461
11960TIP3    H135802   1.439   4.030   7.402
11960TIP3    H235803   1.373   4.050   7.536
11961TIP3   OH235804   1.078   3.563   7.130
11961TIP3    H135805   0.993   3.563   7.177
11961TIP3    H235806   1.141   3.567   7.204
11962TIP3   OH235807   0.509   3.616   7.128
11962TIP3    H135808   0.414   3.624   7.105
11962TIP3    H235809   0.527   3.522   7.108
11963TIP3   OH235810   0.782   3.619   6.826
11963TIP3    H135811   0.874   3.633   6.800
11963TIP3    H235812   0.731   3.640   6.744
11964TIP3   OH235813   1.567   3.641   7.342
11964TIP3    H135814   1.517   3.653   7.425
11964TIP3    H235815   1.510   3.578   7.294
11965TIP3   OH235816   0.623   3.651   6.608
11965TIP3    H135817   0.548   3.607   6.563
11965TIP3    H235818   0.671   3.685   6.530
11966TIP3   OH235819   1.738   5.330   7.550
11966TIP3    H135820   1.737   5.353   7.456
11966TIP3    H235821   1.817   5.378   7.581
11967TIP3   OH235822   0.679   4.440   7.992
11967TIP3    H135823   0.765   4.470   8.029
11967TIP3    H235824   0.635   4.412   8.074
11968TIP3   OH235825   1.159   3.892   7.226
11968TIP3    H135826   1.232   3.856   7.173
11968TIP3    H235827   1.172   3.848   7.312
11969TIP3   OH235828   0.693   3.378   7.107
11969TIP3    H135829   0.648   3.302   7.150
11969TIP3    H235830   0.724   3.340   7.024
11970TIP3   OH235831   1.133   3.785   7.524
11970TIP3    H135832   1.044   3.824   7.528
11970TIP3    H235833   1.189   3.851   7.570
11971TIP3   OH235834   0.872   4.182   6.611
11971TIP3    H135835   0.801   4.114   6.601
11971TIP3    H235836   0.855   4.213   6.704
11972TIP3   OH235837   1.774   4.417   7.242
11972TIP3    H135838   1.798   4.466   7.161
11972TIP3    H235839   1.689   4.374   7.215
11973TIP3   OH235840   1.333   3.490   6.479
11973TIP3    H135841   1.235   3.475   6.482
11973TIP3    H235842   1.341   3.586   6.497
11974TIP3   OH235843   1.274   4.499   7.609
11974TIP3    H135844   1.297   4.481   7.701
11974TIP3    H235845   1.234   4.588   7.614
11975TIP3   OH235846   1.401   3.742   6.579
11975TIP3    H135847   1.498   3.747   6.592
11975TIP3    H235848   1.382   3.820   6.524
11976TIP3   OH235849   0.564   4.208   7.281
11976TIP3    H135850   0.600   4.169   7.199
11976TIP3    H235851   0.579   4.137   7.345
11977TIP3   OH235852   1.018   4.331   6.434
11977TIP3    H135853   0.971   4.416   6.440
11977TIP3    H235854   0.964   4.275   6.494
11978TIP3   OH235855   1.172   4.232   7.914
11978TIP3    H135856   1.106   4.177   7.868
11978TIP3    H235857   1.253   4.206   7.866
11979TIP3   OH235858   1.433   4.758   7.506
11979TIP3    H135859   1.337   4.757   7.518
11979TIP3    H235860   1.461   4.811   7.583
11980TIP3   OH235861   1.842   3.832   6.415
11980TIP3    H135862   1.779   3.787   6.353
11980TIP3    H235863   1.840   3.920   6.373
11981TIP3   OH235864   2.061   4.687   7.495
11981TIP3    H135865   1.963   4.683   7.486
11981TIP3    H235866   2.087   4.657   7.405
11982TIP3   OH235867   1.541   4.649   6.322
11982TIP3    H135868   1.520   4.574   6.379
11982TIP3    H235869   1.557   4.607   6.236
11983TIP3   OH235870   1.539   4.278   7.164
11983TIP3    H135871   1.445   4.254   7.174
11983TIP3    H235872   1.573   4.199   7.116
11984TIP3   OH235873   0.671   4.503   6.909
11984TIP3    H135874   0.674   4.584   6.854
11984TIP3    H235875   0.581   4.505   6.941
11985TIP3   OH235876   0.217   3.810   6.610
11985TIP3    H135877   0.271   3.889   6.631
11985TIP3    H235878   0.144   3.816   6.673
11986TIP3   OH235879   0.809   4.269   6.858
11986TIP3    H135880   0.771   4.358   6.874
11986TIP3    H235881   0.770   4.218   6.932
11987TIP3   OH235882   0.941   4.852   7.380
11987TIP3    H135883   0.984   4.924   7.330
11987TIP3    H235884   1.016   4.815   7.430
11988TIP3   OH235885   0.582   4.748   6.764
11988TIP3    H135886   0.503   4.765   6.818
11988TIP3    H235887   0.623   4.838   6.764
11989TIP3   OH235888   1.324   4.484   7.340
11989TIP3    H135889   1.316   4.481   7.438
11989TIP3    H235890   1.404   4.431   7.325
11990TIP3   OH235891   1.297   4.379   6.225
11990TIP3    H135892   1.351   4.353   6.304
11990TIP3    H235893   1.209   4.349   6.253
11991TIP3   OH235894   1.571   5.019   7.392
11991TIP3    H135895   1.492   4.963   7.382
11991TIP3    H235896   1.557   5.084   7.319
11992TIP3   OH235897   1.638   4.851   6.044
11992TIP3    H135898   1.677   4.921   5.988
11992TIP3    H235899   1.558   4.899   6.074
11993TIP3   OH235900   0.656   3.638   7.914
11993TIP3    H135901   0.561   3.642   7.932
11993TIP3    H235902   0.685   3.575   7.982
11994TIP3   OH235903   1.458   4.317   6.445
11994TIP3    H135904   1.448   4.246   6.512
11994TIP3    H235905   1.555   4.310   6.428
11995TIP3   OH235906   0.663   4.358   6.219
11995TIP3    H135907   0.680   4.265   6.192
11995TIP3    H235908   0.649   4.347   6.315
11996TIP3   OH235909   0.623   4.364   6.490
11996TIP3    H135910   0.691   4.334   6.552
11996TIP3    H235911   0.625   4.462   6.502
11997TIP3   OH235912   0.351   4.047   6.673
11997TIP3    H135913   0.326   4.087   6.758
11997TIP3    H235914   0.351   4.126   6.614
11998TIP3   OH235915   1.485   3.707   7.605
11998TIP3    H135916   1.574   3.743   7.621
11998TIP3    H235917   1.485   3.623   7.656
11999TIP3   OH235918   1.373   3.444   6.757
11999TIP3    H135919   1.359   3.464   6.662
11999TIP3    H235920   1.411   3.528   6.790
12000TIP3   OH235921   0.878   4.562   6.447
12000TIP3    H135922   0.790   4.588   6.479
12000TIP3    H235923   0.891   4.626   6.376
12001TIP3   OH235924   1.067   3.622   6.857
12001TIP3    H135925   1.130   3.695   6.839
12001TIP3    H235926   1.070   3.618   6.955
12002TIP3   OH235927   1.329   3.938   7.662
12002TIP3    H135928   1.358   3.979   7.746
12002TIP3    H235929   1.388   3.860   7.654
12003TIP3   OH235930   1.209   3.353   6.963
12003TIP3    H135931   1.193   3.434   7.014
12003TIP3    H235932   1.269   3.387   6.892
12004TIP3   OH235933   0.620   4.637   6.511
12004TIP3    H135934   0.588   4.705   6.448
12004TIP3    H235935   0.604   4.680   6.597
12005TIP3   OH235936   0.720   3.349   6.751
12005TIP3    H135937   0.716   3.440   6.786
12005TIP3    H235938   0.817   3.333   6.758
12006TIP3   OH235939   1.967   3.844   7.646
12006TIP3    H135940   1.871   3.828   7.648
12006TIP3    H235941   1.990   3.812   7.558
12007TIP3   OH235942   1.624   4.038   7.036
12007TIP3    H135943   1.549   3.976   7.044
12007TIP3    H235944   1.696   3.990   7.082
12008TIP3   OH235945   0.353   4.268   6.516
12008TIP3    H135946   0.408   4.347   6.510
12008TIP3    H235947   0.390   4.216   6.442
12009TIP3   OH235948   0.284   3.542   6.628
12009TIP3    H135949   0.280   3.639   6.624
12009TIP3    H235950   0.190   3.518   6.624
12010TIP3   OH235951   1.592   4.993   6.984
12010TIP3    H135952   1.550   5.041   6.909
12010TIP3    H235953   1.686   5.012   6.963
12011TIP3   OH235954   0.679   3.257   7.509
12011TIP3    H135955   0.642   3.227   7.423
12011TIP3    H235956   0.660   3.179   7.567
12012TIP3   OH235957   0.854   5.005   7.986
12012TIP3    H135958   0.939   4.971   8.014
12012TIP3    H235959   0.832   4.942   7.915
12013TIP3   OH235960   0.829   4.562   6.138
12013TIP3    H135961   0.772   4.488   6.171
12013TIP3    H235962   0.904   4.511   6.101
12014TIP3   OH235963   1.483   4.895   7.742
12014TIP3    H135964   1.475   4.822   7.807
12014TIP3    H235965   1.563   4.942   7.772
12015TIP3   OH235966   1.263   4.604   6.048
12015TIP3    H135967   1.309   4.540   6.105
12015TIP3    H235968   1.317   4.602   5.966
12016TIP3   OH235969   0.466   4.076   6.350
12016TIP3    H135970   0.518   4.044   6.426
12016TIP3    H235971   0.537   4.080   6.281
12017TIP3   OH235972   1.105   4.511   7.937
12017TIP3    H135973   1.064   4.532   7.850
12017TIP3    H235974   1.135   4.419   7.925
12018TIP3   OH235975   0.979   4.277   6.165
12018TIP3    H135976   0.984   4.288   6.261
12018TIP3    H235977   0.981   4.179   6.158
12019TIP3   OH235978   1.595   4.521   7.544
12019TIP3    H135979   1.670   4.564   7.499
12019TIP3    H235980   1.525   4.587   7.528
12020TIP3   OH235981   0.600   4.164   8.140
12020TIP3    H135982   0.667   4.099   8.115
12020TIP3    H235983   0.603   4.161   8.236
12021TIP3   OH235984   0.684   3.981   6.581
12021TIP3    H135985   0.654   3.936   6.662
12021TIP3    H235986   0.718   3.906   6.528
12022TIP3   OH235987   0.956   4.045   7.812
12022TIP3    H135988   0.874   4.099   7.811
12022TIP3    H235989   1.000   4.076   7.730
12023TIP3   OH235990   0.780   3.776   6.419
12023TIP3    H135991   0.754   3.779   6.325
12023TIP3    H235992   0.878   3.779   6.412
12024TIP3   OH235993   1.463   4.442   7.941
12024TIP3    H135994   1.547   4.430   7.895
12024TIP3    H235995   1.471   4.381   8.016
12025TIP3   OH235996   1.602   4.106   6.084
12025TIP3    H135997   1.585   4.060   5.999
12025TIP3    H235998   1.569   4.196   6.059
12026TIP3   OH235999   1.081   3.822   7.935
12026TIP3    H136000   1.070   3.752   7.868
12026TIP3    H236001   1.045   3.899   7.886
12027TIP3   OH236002   1.076   3.618   7.742
12027TIP3    H136003   1.103   3.664   7.659
12027TIP3    H236004   0.982   3.597   7.722
12028TIP3   OH236005   1.109   4.161   7.617
12028TIP3    H136006   1.186   4.167   7.559
12028TIP3    H236007   1.047   4.224   7.573
12029TIP3   OH236008   1.686   4.117   7.988
12029TIP3    H136009   1.738   4.047   8.033
12029TIP3    H236010   1.755   4.177   7.957
12030TIP3   OH236011   1.726   4.374   7.728
12030TIP3    H136012   1.667   4.428   7.670
12030TIP3    H236013   1.813   4.397   7.689
12031TIP3   OH236014   0.907   3.959   8.133
12031TIP3    H136015   0.886   3.866   8.152
12031TIP3    H236016   0.981   3.949   8.070
12032TIP3   OH236017   1.203   3.382   7.810
12032TIP3    H136018   1.153   3.459   7.775
12032TIP3    H236019   1.138   3.310   7.793
12033TIP3   OH236020   1.821   3.787   8.012
12033TIP3    H136021   1.814   3.691   8.029
12033TIP3    H236022   1.791   3.827   8.096
12034TIP3   OH236023   1.347   3.442   8.029
12034TIP3    H136024   1.399   3.359   8.038
12034TIP3    H236025   1.279   3.409   7.964
12035TIP3   OH236026   0.588   4.845   6.330
12035TIP3    H136027   0.683   4.836   6.311
12035TIP3    H236028   0.559   4.883   6.245
12036TIP3   OH236029   1.843   5.088   6.940
12036TIP3    H136030   1.875   5.119   7.027
12036TIP3    H236031   1.909   5.123   6.879
12037TIP3   OH236032   1.874   5.105   7.224
12037TIP3    H136033   1.831   5.017   7.217
12037TIP3    H236034   1.952   5.082   7.277
12038TIP3   OH236035   1.921   4.780   7.797
12038TIP3    H136036   1.847   4.790   7.860
12038TIP3    H236037   1.962   4.868   7.799
12039TIP3   OH236038   1.735   4.295   6.416
12039TIP3    H136039   1.803   4.357   6.384
12039TIP3    H236040   1.781   4.256   6.494
12040TIP3   OH236041   1.865   4.162   6.619
12040TIP3    H136042   1.799   4.120   6.678
12040TIP3    H236043   1.930   4.199   6.682
12041TIP3   OH236044   1.919   4.552   7.051
12041TIP3    H136045   1.971   4.486   7.001
12041TIP3    H236046   1.914   4.627   6.989
12042TIP3   OH236047   1.751   4.854   7.247
12042TIP3    H136048   1.679   4.895   7.297
12042TIP3    H236049   1.703   4.806   7.176
12043TIP3   OH236050   1.803   4.069   6.267
12043TIP3    H136051   1.733   4.070   6.198
12043TIP3    H236052   1.773   4.146   6.320
12044TIP3   OH236053   1.672   3.744   6.224
12044TIP3    H136054   1.638   3.782   6.142
12044TIP3    H236055   1.646   3.650   6.213
12045TIP3   OH236056   1.679   4.019   6.766
12045TIP3    H136057   1.687   3.922   6.757
12045TIP3    H236058   1.666   4.030   6.863
12046TIP3   OH236059   0.323   4.007   7.509
12046TIP3    H136060   0.323   3.989   7.412
12046TIP3    H236061   0.414   4.044   7.517
12047TIP3   OH236062   1.968   4.442   7.622
12047TIP3    H136063   2.041   4.377   7.613
12047TIP3    H236064   1.994   4.512   7.559
12048TIP3   OH236065   2.152   4.247   7.642
12048TIP3    H136066   2.079   4.196   7.683
12048TIP3    H236067   2.226   4.184   7.655
12049TIP3   OH236068   1.617   3.478   6.211
12049TIP3    H136069   1.693   3.444   6.262
12049TIP3    H236070   1.546   3.415   6.230
12050TIP3   OH236071   1.677   3.735   6.662
12050TIP3    H136072   1.717   3.646   6.676
12050TIP3    H236073   1.734   3.766   6.589
12051TIP3   OH236074   1.838   3.909   7.157
12051TIP3    H136075   1.923   3.934   7.114
12051TIP3    H236076   1.854   3.946   7.246
12052TIP3   OH236077   1.907   4.053   7.390
12052TIP3    H136078   1.828   4.090   7.433
12052TIP3    H236079   1.941   4.131   7.341
12053TIP3   OH236080   2.357   3.641   7.943
12053TIP3    H136081   2.417   3.576   7.899
12053TIP3    H236082   2.328   3.696   7.867
12054TIP3   OH236083   1.783   3.484   6.700
12054TIP3    H136084   1.833   3.467   6.782
12054TIP3    H236085   1.723   3.407   6.698
12055TIP3   OH236086   0.502   3.465   7.546
12055TIP3    H136087   0.567   3.391   7.543
12055TIP3    H236088   0.559   3.541   7.527
12056TIP3   OH236089   0.333   3.749   7.599
12056TIP3    H136090   0.378   3.721   7.516
12056TIP3    H236091   0.336   3.845   7.584
12057TIP3   OH236092   2.227   3.782   7.751
12057TIP3    H136093   2.141   3.823   7.773
12057TIP3    H236094   2.197   3.712   7.689
12058TIP3   OH236095   1.867   3.417   6.332
12058TIP3    H136096   1.905   3.346   6.277
12058TIP3    H236097   1.933   3.489   6.324
12059TIP3   OH236098   0.298   3.255   7.090
12059TIP3    H136099   0.205   3.261   7.117
12059TIP3    H236100   0.299   3.314   7.012
12060TIP3   OH236101   1.429   4.953   6.598
12060TIP3    H136102   1.476   4.935   6.514
12060TIP3    H236103   1.489   5.015   6.641
12061TIP3   OH236104   0.506   3.322   7.918
12061TIP3    H136105   0.467   3.313   8.006
12061TIP3    H236106   0.430   3.357   7.868
12062TIP3   OH236107   0.715   4.790   7.519
12062TIP3    H136108   0.666   4.864   7.479
12062TIP3    H236109   0.802   4.803   7.476
12063TIP3   OH236110   1.155   5.031   7.669
12063TIP3    H136111   1.197   5.033   7.758
12063TIP3    H236112   1.221   5.082   7.617
12064TIP3   OH236113   1.333   5.184   7.527
12064TIP3    H136114   1.404   5.133   7.485
12064TIP3    H236115   1.385   5.240   7.588
12065TIP3   OH236116   2.125   3.544   7.629
12065TIP3    H136117   2.036   3.537   7.590
12065TIP3    H236118   2.159   3.452   7.617
12066TIP3   OH236119   0.629   5.040   7.410
12066TIP3    H136120   0.556   5.065   7.469
12066TIP3    H236121   0.596   5.075   7.325
12067TIP3   OH236122   1.049   5.050   7.213
12067TIP3    H136123   0.992   5.071   7.137
12067TIP3    H236124   1.062   5.139   7.254
12068TIP3   OH236125   1.317   4.990   7.263
12068TIP3    H136126   1.223   5.007   7.242
12068TIP3    H236127   1.361   5.064   7.219
12069TIP3   OH236128   1.523   5.182   7.176
12069TIP3    H136129   1.510   5.267   7.128
12069TIP3    H236130   1.550   5.122   7.104
12070TIP3   OH236131   0.517   4.673   7.138
12070TIP3    H136132   0.521   4.603   7.208
12070TIP3    H236133   0.600   4.721   7.155
12071TIP3   OH236134   0.771   4.817   7.159
12071TIP3    H136135   0.800   4.728   7.134
12071TIP3    H236136   0.818   4.826   7.244
12072TIP3   OH236137   1.339   3.462   7.257
12072TIP3    H136138   1.290   3.390   7.300
12072TIP3    H236139   1.402   3.414   7.201
12073TIP3   OH236140   1.855   3.347   7.158
12073TIP3    H136141   1.893   3.392   7.079
12073TIP3    H236142   1.760   3.356   7.143
12074TIP3   OH236143   1.949   3.439   6.918
12074TIP3    H136144   2.021   3.387   6.876
12074TIP3    H236145   1.983   3.530   6.901
12075TIP3   OH236146   0.579   3.171   7.265
12075TIP3    H136147   0.485   3.142   7.258
12075TIP3    H236148   0.625   3.084   7.257
12076TIP3   OH236149   0.390   3.030   6.917
12076TIP3    H136150   0.395   3.091   6.841
12076TIP3    H236151   0.330   3.079   6.976
12077TIP3   OH236152   1.030   3.196   7.142
12077TIP3    H136153   1.083   3.249   7.081
12077TIP3    H236154   1.038   3.245   7.225
12078TIP3   OH236155   1.574   3.348   7.126
12078TIP3    H136156   1.569   3.312   7.036
12078TIP3    H236157   1.558   3.267   7.181
12079TIP3   OH236158   1.601   3.270   6.690
12079TIP3    H136159   1.513   3.312   6.698
12079TIP3    H236160   1.585   3.185   6.735
12080TIP3   OH236161   0.486   3.197   6.673
12080TIP3    H136162   0.537   3.135   6.617
12080TIP3    H236163   0.557   3.251   6.714
12081TIP3   OH236164   0.997   3.373   6.773
12081TIP3    H136165   1.057   3.325   6.832
12081TIP3    H236166   1.021   3.465   6.797
12082TIP3   OH236167   0.855   4.800   6.272
12082TIP3    H136168   0.945   4.820   6.237
12082TIP3    H236169   0.833   4.725   6.213
12083TIP3   OH236170   1.572   4.915   6.366
12083TIP3    H136171   1.566   4.817   6.354
12083TIP3    H236172   1.531   4.946   6.283
12084TIP3   OH236173   1.851   3.513   8.037
12084TIP3    H136174   1.859   3.469   8.125
12084TIP3    H236175   1.944   3.511   8.005
12085TIP3   OH236176   1.801   5.061   7.553
12085TIP3    H136177   1.723   5.029   7.503
12085TIP3    H236178   1.782   5.157   7.556
12086TIP3   OH236179   3.054   4.409   6.349
12086TIP3    H136180   3.069   4.501   6.323
12086TIP3    H236181   2.985   4.384   6.286
12087TIP3   OH236182   3.054   4.443   6.704
12087TIP3    H136183   3.092   4.393   6.777
12087TIP3    H236184   3.030   4.375   6.640
12088TIP3   OH236185   2.366   4.332   7.070
12088TIP3    H136186   2.399   4.262   7.129
12088TIP3    H236187   2.448   4.378   7.047
12089TIP3   OH236188   2.338   4.737   6.793
12089TIP3    H136189   2.331   4.639   6.794
12089TIP3    H236190   2.434   4.746   6.780
12090TIP3   OH236191   2.042   3.938   6.577
12090TIP3    H136192   1.995   4.023   6.589
12090TIP3    H236193   1.973   3.886   6.533
12091TIP3   OH236194   2.104   4.228   6.747
12091TIP3    H136195   2.153   4.150   6.781
12091TIP3    H236196   2.161   4.258   6.675
12092TIP3   OH236197   2.964   5.197   6.399
12092TIP3    H136198   3.006   5.127   6.345
12092TIP3    H236199   2.956   5.151   6.484
12093TIP3   OH236200   2.863   4.661   6.751
12093TIP3    H136201   2.900   4.582   6.706
12093TIP3    H236202   2.948   4.706   6.771
12094TIP3   OH236203   3.882   3.977   6.747
12094TIP3    H136204   3.909   4.063   6.785
12094TIP3    H236205   3.896   3.993   6.652
12095TIP3   OH236206   3.272   4.157   6.785
12095TIP3    H136207   3.319   4.073   6.800
12095TIP3    H236208   3.247   4.148   6.691
12096TIP3   OH236209   2.615   3.819   6.747
12096TIP3    H136210   2.596   3.892   6.684
12096TIP3    H236211   2.568   3.746   6.701
12097TIP3   OH236212   3.309   3.912   6.370
12097TIP3    H136213   3.383   3.896   6.433
12097TIP3    H236214   3.360   3.945   6.293
12098TIP3   OH236215   2.248   4.020   6.853
12098TIP3    H136216   2.332   4.002   6.899
12098TIP3    H236217   2.261   3.965   6.773
12099TIP3   OH236218   2.689   4.218   6.652
12099TIP3    H136219   2.784   4.195   6.658
12099TIP3    H236220   2.651   4.135   6.615
12100TIP3   OH236221   3.955   4.188   6.917
12100TIP3    H136222   3.873   4.235   6.891
12100TIP3    H236223   3.959   4.212   7.010
12101TIP3   OH236224   2.612   3.804   7.180
12101TIP3    H136225   2.553   3.840   7.111
12101TIP3    H236226   2.560   3.823   7.261
12102TIP3   OH236227   2.923   4.639   6.205
12102TIP3    H136228   2.969   4.642   6.120
12102TIP3    H236229   2.889   4.729   6.215
12103TIP3   OH236230   2.721   4.578   6.976
12103TIP3    H136231   2.659   4.645   7.011
12103TIP3    H236232   2.762   4.625   6.901
12104TIP3   OH236233   3.522   3.910   6.540
12104TIP3    H136234   3.512   3.865   6.624
12104TIP3    H236235   3.573   3.990   6.564
12105TIP3   OH236236   2.483   3.917   6.965
12105TIP3    H136237   2.546   3.989   6.987
12105TIP3    H236238   2.530   3.877   6.888
12106TIP3   OH236239   2.547   4.772   7.075
12106TIP3    H136240   2.521   4.856   7.032
12106TIP3    H236241   2.467   4.757   7.130
12107TIP3   OH236242   1.939   4.461   6.309
12107TIP3    H136243   1.902   4.485   6.221
12107TIP3    H236244   1.972   4.546   6.343
12108TIP3   OH236245   3.391   4.988   6.572
12108TIP3    H136246   3.300   4.960   6.592
12108TIP3    H236247   3.374   5.060   6.509
12109TIP3   OH236248   3.671   3.880   6.913
12109TIP3    H136249   3.583   3.904   6.880
12109TIP3    H236250   3.729   3.911   6.841
12110TIP3   OH236251   2.970   3.521   6.895
12110TIP3    H136252   2.954   3.426   6.909
12110TIP3    H236253   2.892   3.559   6.941
12111TIP3   OH236254   3.085   5.018   6.225
12111TIP3    H136255   3.136   4.935   6.225
12111TIP3    H236256   3.148   5.078   6.179
12112TIP3   OH236257   3.609   4.890   6.892
12112TIP3    H136258   3.595   4.813   6.832
12112TIP3    H236259   3.590   4.965   6.832
12113TIP3   OH236260   2.897   4.280   6.146
12113TIP3    H136261   2.821   4.339   6.128
12113TIP3    H236262   2.948   4.288   6.064
12114TIP3   OH236263   2.858   4.068   5.868
12114TIP3    H136264   2.921   4.117   5.922
12114TIP3    H236265   2.918   4.008   5.819
12115TIP3   OH236266   3.803   4.531   6.741
12115TIP3    H136267   3.718   4.580   6.743
12115TIP3    H236268   3.832   4.553   6.649
12116TIP3   OH236269   3.482   4.407   7.031
12116TIP3    H136270   3.475   4.493   7.076
12116TIP3    H236271   3.396   4.406   6.984
12117TIP3   OH236272   2.475   4.365   6.543
12117TIP3    H136273   2.434   4.308   6.474
12117TIP3    H236274   2.553   4.312   6.569
12118TIP3   OH236275   2.605   4.772   6.690
12118TIP3    H136276   2.585   4.739   6.601
12118TIP3    H236277   2.695   4.738   6.705
12119TIP3   OH236278   2.611   4.336   6.895
12119TIP3    H136279   2.644   4.310   6.806
12119TIP3    H236280   2.658   4.421   6.911
12120TIP3   OH236281   3.132   4.975   6.665
12120TIP3    H136282   3.130   5.051   6.725
12120TIP3    H236283   3.123   4.898   6.726
12121TIP3   OH236284   2.752   4.893   7.218
12121TIP3    H136285   2.691   4.955   7.263
12121TIP3    H236286   2.689   4.839   7.167
12122TIP3   OH236287   3.104   4.237   5.953
12122TIP3    H136288   3.154   4.311   5.989
12122TIP3    H236289   3.119   4.251   5.856
12123TIP3   OH236290   2.510   4.447   7.323
12123TIP3    H136291   2.511   4.536   7.364
12123TIP3    H236292   2.413   4.430   7.323
12124TIP3   OH236293   2.820   4.918   6.230
12124TIP3    H136294   2.907   4.962   6.235
12124TIP3    H236295   2.769   4.978   6.175
12125TIP3   OH236296   2.546   5.062   7.303
12125TIP3    H136297   2.512   5.062   7.212
12125TIP3    H236298   2.466   5.039   7.355
12126TIP3   OH236299   3.603   3.465   5.997
12126TIP3    H136300   3.521   3.487   6.045
12126TIP3    H236301   3.619   3.547   5.946
12127TIP3   OH236302   2.340   4.207   6.350
12127TIP3    H136303   2.280   4.254   6.288
12127TIP3    H236304   2.303   4.119   6.350
12128TIP3   OH236305   3.401   4.831   5.545
12128TIP3    H136306   3.412   4.928   5.531
12128TIP3    H236307   3.493   4.800   5.531
12129TIP3   OH236308   2.125   4.592   7.250
12129TIP3    H136309   2.061   4.570   7.179
12129TIP3    H236310   2.163   4.505   7.274
12130TIP3   OH236311   1.980   4.782   6.887
12130TIP3    H136312   2.075   4.774   6.871
12130TIP3    H236313   1.976   4.864   6.939
12131TIP3   OH236314   3.845   5.237   6.939
12131TIP3    H136315   3.842   5.140   6.948
12131TIP3    H236316   3.761   5.261   6.984
12132TIP3   OH236317   2.951   5.020   7.075
12132TIP3    H136318   2.949   5.113   7.106
12132TIP3    H236319   2.878   4.981   7.129
12133TIP3   OH236320   2.708   5.150   6.026
12133TIP3    H136321   2.666   5.127   5.941
12133TIP3    H236322   2.677   5.240   6.044
12134TIP3   OH236323   2.147   5.001   6.411
12134TIP3    H136324   2.196   4.990   6.495
12134TIP3    H236325   2.096   4.918   6.410
12135TIP3   OH236326   2.913   5.052   5.665
12135TIP3    H136327   2.971   4.982   5.628
12135TIP3    H236328   2.947   5.059   5.757
12136TIP3   OH236329   2.961   5.103   5.938
12136TIP3    H136330   2.872   5.108   5.978
12136TIP3    H236331   3.009   5.051   6.005
12137TIP3   OH236332   3.733   4.367   7.212
12137TIP3    H136333   3.653   4.381   7.160
12137TIP3    H236334   3.748   4.271   7.199
12138TIP3   OH236335   2.329   4.776   7.241
12138TIP3    H136336   2.380   4.756   7.322
12138TIP3    H236337   2.255   4.711   7.247
12139TIP3   OH236338   2.730   3.596   7.022
12139TIP3    H136339   2.641   3.566   6.995
12139TIP3    H236340   2.706   3.680   7.066
12140TIP3   OH236341   3.264   3.714   7.217
12140TIP3    H136342   3.331   3.684   7.281
12140TIP3    H236343   3.179   3.693   7.262
12141TIP3   OH236344   3.506   4.144   7.138
12141TIP3    H136345   3.452   4.141   7.220
12141TIP3    H236346   3.480   4.229   7.098
12142TIP3   OH236347   3.155   4.270   5.689
12142TIP3    H136348   3.133   4.244   5.598
12142TIP3    H236349   3.241   4.315   5.672
12143TIP3   OH236350   2.875   3.646   5.995
12143TIP3    H136351   2.840   3.642   6.086
12143TIP3    H236352   2.836   3.564   5.958
12144TIP3   OH236353   2.661   4.113   7.041
12144TIP3    H136354   2.610   4.137   7.122
12144TIP3    H236355   2.647   4.194   6.986
12145TIP3   OH236356   2.547   3.998   6.556
12145TIP3    H136357   2.453   3.975   6.571
12145TIP3    H236358   2.560   3.960   6.466
12146TIP3   OH236359   3.033   4.080   6.281
12146TIP3    H136360   2.984   4.157   6.244
12146TIP3    H236361   3.089   4.055   6.205
12147TIP3   OH236362   3.211   4.365   7.372
12147TIP3    H136363   3.189   4.291   7.433
12147TIP3    H236364   3.306   4.376   7.390
12148TIP3   OH236365   3.192   4.118   6.524
12148TIP3    H136366   3.136   4.158   6.453
12148TIP3    H236367   3.220   4.037   6.476
12149TIP3   OH236368   2.480   4.143   7.251
12149TIP3    H136369   2.511   4.207   7.316
12149TIP3    H236370   2.472   4.061   7.303
12150TIP3   OH236371   2.531   3.619   5.960
12150TIP3    H136372   2.520   3.619   6.057
12150TIP3    H236373   2.453   3.673   5.933
12151TIP3   OH236374   2.073   3.662   6.836
12151TIP3    H136375   2.151   3.696   6.884
12151TIP3    H236376   2.109   3.635   6.750
12152TIP3   OH236377   2.047   3.646   6.353
12152TIP3    H136378   2.091   3.682   6.273
12152TIP3    H236379   1.985   3.719   6.371
12153TIP3   OH236380   3.209   4.358   6.951
12153TIP3    H136381   3.238   4.287   6.889
12153TIP3    H236382   3.173   4.303   7.024
12154TIP3   OH236383   2.873   3.816   6.618
12154TIP3    H136384   2.790   3.818   6.669
12154TIP3    H236385   2.940   3.827   6.687
12155TIP3   OH236386   2.305   3.876   6.628
12155TIP3    H136387   2.212   3.883   6.598
12155TIP3    H236388   2.330   3.786   6.600
12156TIP3   OH236389   2.577   3.875   6.313
12156TIP3    H136390   2.671   3.889   6.290
12156TIP3    H236391   2.530   3.896   6.229
12157TIP3   OH236392   3.367   3.896   6.822
12157TIP3    H136393   3.328   3.910   6.911
12157TIP3    H236394   3.302   3.836   6.782
12158TIP3   OH236395   2.418   3.906   6.092
12158TIP3    H136396   2.349   3.861   6.041
12158TIP3    H236397   2.471   3.945   6.019
12159TIP3   OH236398   3.534   5.586   7.037
12159TIP3    H136399   3.531   5.607   6.942
12159TIP3    H236400   3.613   5.636   7.065
12160TIP3   OH236401   2.491   4.697   7.460
12160TIP3    H136402   2.572   4.727   7.506
12160TIP3    H236403   2.427   4.696   7.533
12161TIP3   OH236404   2.953   4.140   6.711
12161TIP3    H136405   3.030   4.116   6.657
12161TIP3    H236406   2.975   4.101   6.797
12162TIP3   OH236407   2.481   3.639   6.591
12162TIP3    H136408   2.448   3.558   6.635
12162TIP3    H236409   2.527   3.603   6.514
12163TIP3   OH236410   2.932   4.040   7.013
12163TIP3    H136411   2.844   4.081   7.016
12163TIP3    H236412   2.990   4.106   7.056
12164TIP3   OH236413   2.669   4.437   6.097
12164TIP3    H136414   2.596   4.372   6.089
12164TIP3    H236415   2.653   4.473   6.188
12165TIP3   OH236416   3.570   4.672   6.731
12165TIP3    H136417   3.587   4.722   6.648
12165TIP3    H236418   3.485   4.627   6.710
12166TIP3   OH236419   3.129   3.747   5.965
12166TIP3    H136420   3.031   3.732   5.968
12166TIP3    H236421   3.138   3.843   5.983
12167TIP3   OH236422   3.072   4.756   7.096
12167TIP3    H136423   3.089   4.735   7.189
12167TIP3    H236424   3.030   4.844   7.101
12168TIP3   OH236425   3.196   3.998   6.062
12168TIP3    H136426   3.292   4.001   6.078
12168TIP3    H236427   3.180   4.081   6.012
12169TIP3   OH236428   2.360   4.459   6.776
12169TIP3    H136429   2.395   4.433   6.688
12169TIP3    H236430   2.406   4.396   6.833
12170TIP3   OH236431   2.811   4.584   5.911
12170TIP3    H136432   2.771   4.673   5.927
12170TIP3    H236433   2.769   4.534   5.984
12171TIP3   OH236434   2.240   4.382   7.389
12171TIP3    H136435   2.263   4.367   7.483
12171TIP3    H236436   2.173   4.313   7.373
12172TIP3   OH236437   2.967   4.493   7.408
12172TIP3    H136438   2.908   4.437   7.355
12172TIP3    H236439   3.055   4.459   7.379
12173TIP3   OH236440   3.231   5.020   6.991
12173TIP3    H136441   3.135   5.012   7.001
12173TIP3    H236442   3.254   5.070   7.071
12174TIP3   OH236443   3.642   4.085   5.901
12174TIP3    H136444   3.575   4.043   5.841
12174TIP3    H236445   3.640   4.174   5.859
12175TIP3   OH236446   3.859   4.946   6.979
12175TIP3    H136447   3.761   4.940   6.971
12175TIP3    H236448   3.885   4.914   6.890
12176TIP3   OH236449   3.341   4.900   5.818
12176TIP3    H136450   3.326   4.827   5.883
12176TIP3    H236451   3.351   4.851   5.735
12177TIP3   OH236452   3.341   4.528   6.672
12177TIP3    H136453   3.244   4.518   6.662
12177TIP3    H236454   3.372   4.457   6.613
12178TIP3   OH236455   2.463   4.768   6.411
12178TIP3    H136456   2.468   4.843   6.349
12178TIP3    H236457   2.371   4.742   6.401
12179TIP3   OH236458   2.029   4.066   6.104
12179TIP3    H136459   2.073   4.152   6.122
12179TIP3    H236460   1.951   4.072   6.163
12180TIP3   OH236461   2.591   4.525   6.342
12180TIP3    H136462   2.570   4.618   6.363
12180TIP3    H236463   2.559   4.478   6.420
12181TIP3   OH236464   2.731   5.108   6.870
12181TIP3    H136465   2.773   5.179   6.817
12181TIP3    H236466   2.808   5.069   6.914
12182TIP3   OH236467   2.380   5.004   6.251
12182TIP3    H136468   2.295   5.012   6.298
12182TIP3    H236469   2.413   5.096   6.253
12183TIP3   OH236470   3.123   4.744   6.826
12183TIP3    H136471   3.115   4.735   6.923
12183TIP3    H236472   3.196   4.682   6.806
12184TIP3   OH236473   3.098   4.632   5.714
12184TIP3    H136474   3.141   4.621   5.801
12184TIP3    H236475   3.007   4.608   5.736
12185TIP3   OH236476   3.368   5.278   6.881
12185TIP3    H136477   3.291   5.219   6.873
12185TIP3    H236478   3.352   5.340   6.807
12186TIP3   OH236479   3.435   5.108   5.530
12186TIP3    H136480   3.471   5.180   5.475
12186TIP3    H236481   3.354   5.153   5.563
12187TIP3   OH236482   2.454   3.886   7.398
12187TIP3    H136483   2.357   3.886   7.408
12187TIP3    H236484   2.482   3.824   7.467
12188TIP3   OH236485   2.168   4.971   7.030
12188TIP3    H136486   2.221   4.893   7.053
12188TIP3    H236487   2.204   5.037   7.089
12189TIP3   OH236488   2.458   4.616   5.712
12189TIP3    H136489   2.472   4.527   5.676
12189TIP3    H236490   2.440   4.597   5.806
12190TIP3   OH236491   2.403   4.619   5.990
12190TIP3    H136492   2.484   4.591   6.034
12190TIP3    H236493   2.411   4.717   5.991
12191TIP3   OH236494   2.142   4.312   6.185
12191TIP3    H136495   2.076   4.359   6.240
12191TIP3    H236496   2.159   4.380   6.116
12192TIP3   OH236497   3.288   3.954   7.082
12192TIP3    H136498   3.373   3.986   7.115
12192TIP3    H236499   3.274   3.871   7.133
12193TIP3   OH236500   3.171   3.700   6.243
12193TIP3    H136501   3.155   3.721   6.149
12193TIP3    H236502   3.207   3.785   6.277
12194TIP3   OH236503   2.674   4.819   5.937
12194TIP3    H136504   2.586   4.847   5.967
12194TIP3    H236505   2.683   4.869   5.855
12195TIP3   OH236506   2.859   3.878   6.344
12195TIP3    H136507   2.922   3.950   6.323
12195TIP3    H236508   2.866   3.875   6.442
12196TIP3   OH236509   3.126   4.197   7.154
12196TIP3    H136510   3.150   4.250   7.232
12196TIP3    H236511   3.182   4.118   7.162
12197TIP3   OH236512   3.005   3.608   6.448
12197TIP3    H136513   2.990   3.688   6.502
12197TIP3    H236514   3.065   3.644   6.378
12198TIP3   OH236515   2.415   4.893   5.996
12198TIP3    H136516   2.384   4.962   5.934
12198TIP3    H236517   2.400   4.937   6.083
12199TIP3   OH236518   2.514   3.606   6.238
12199TIP3    H136519   2.514   3.698   6.271
12199TIP3    H236520   2.610   3.587   6.244
12200TIP3   OH236521   3.773   4.099   7.132
12200TIP3    H136522   3.675   4.098   7.142
12200TIP3    H236523   3.780   4.059   7.044
12201TIP3   OH236524   3.418   4.297   6.527
12201TIP3    H136525   3.344   4.235   6.528
12201TIP3    H236526   3.492   4.244   6.564
12202TIP3   OH236527   2.133   4.523   5.991
12202TIP3    H136528   2.204   4.589   6.000
12202TIP3    H236529   2.175   4.465   5.923
12203TIP3   OH236530   2.074   3.797   6.129
12203TIP3    H136531   2.077   3.894   6.123
12203TIP3    H236532   2.000   3.776   6.070
12204TIP3   OH236533   3.387   5.258   6.472
12204TIP3    H136534   3.345   5.304   6.396
12204TIP3    H236535   3.482   5.271   6.449
12205TIP3   OH236536   2.463   3.519   6.999
12205TIP3    H136537   2.434   3.486   6.911
12205TIP3    H236538   2.453   3.439   7.055
12206TIP3   OH236539   2.008   4.742   6.382
12206TIP3    H136540   1.929   4.770   6.428
12206TIP3    H236541   1.988   4.776   6.292
12207TIP3   OH236542   2.160   5.277   7.451
12207TIP3    H136543   2.247   5.276   7.496
12207TIP3    H236544   2.139   5.182   7.448
12208TIP3   OH236545   2.643   5.243   7.494
12208TIP3    H136546   2.737   5.222   7.500
12208TIP3    H236547   2.616   5.185   7.421
12209TIP3   OH236548   2.629   4.820   5.637
12209TIP3    H136549   2.575   4.742   5.663
12209TIP3    H236550   2.702   4.776   5.588
12210TIP3   OH236551   3.277   5.152   7.231
12210TIP3    H136552   3.270   5.080   7.298
12210TIP3    H236553   3.357   5.200   7.260
12211TIP3   OH236554   3.067   4.863   5.536
12211TIP3    H136555   3.110   4.798   5.594
12211TIP3    H236556   3.122   4.858   5.456
12212TIP3   OH236557   2.290   4.683   7.651
12212TIP3    H136558   2.307   4.587   7.655
12212TIP3    H236559   2.203   4.686   7.605
12213TIP3   OH236560   2.265   4.336   5.846
12213TIP3    H136561   2.325   4.303   5.915
12213TIP3    H236562   2.329   4.341   5.771
12214TIP3   OH236563   2.898   4.769   7.424
12214TIP3    H136564   2.857   4.786   7.337
12214TIP3    H236565   2.928   4.676   7.415
12215TIP3   OH236566   2.776   4.530   5.646
12215TIP3    H136567   2.781   4.544   5.742
12215TIP3    H236568   2.771   4.432   5.641
12216TIP3   OH236569   3.394   4.778   7.036
12216TIP3    H136570   3.466   4.821   6.986
12216TIP3    H236571   3.320   4.838   7.015
12217TIP3   OH236572   2.408   4.416   7.633
12217TIP3    H136573   2.487   4.366   7.607
12217TIP3    H236574   2.436   4.450   7.721
12218TIP3   OH236575   2.474   4.237   6.066
12218TIP3    H136576   2.453   4.190   6.148
12218TIP3    H236577   2.514   4.166   6.011
12219TIP3   OH236578   2.745   4.302   7.293
12219TIP3    H136579   2.668   4.362   7.294
12219TIP3    H236580   2.796   4.336   7.216
12220TIP3   OH236581   2.577   4.032   5.909
12220TIP3    H136582   2.550   4.035   5.814
12220TIP3    H236583   2.674   4.036   5.900
12221TIP3   OH236584   3.264   4.707   7.431
12221TIP3    H136585   3.337   4.678   7.374
12221TIP3    H236586   3.260   4.636   7.497
12222TIP3   OH236587   3.390   4.360   5.572
12222TIP3    H136588   3.392   4.314   5.487
12222TIP3    H236589   3.361   4.450   5.544
12223TIP3   OH236590   2.869   4.091   7.419
12223TIP3    H136591   2.869   4.011   7.362
12223TIP3    H236592   2.826   4.157   7.361
12224TIP3   OH236593   2.870   3.876   7.231
12224TIP3    H136594   2.899   3.920   7.148
12224TIP3    H236595   2.777   3.854   7.209
12225TIP3   OH236596   2.900   4.415   7.103
12225TIP3    H136597   2.982   4.421   7.052
12225TIP3    H236598   2.843   4.480   7.057
12226TIP3   OH236599   3.482   4.381   7.484
12226TIP3    H136600   3.530   4.296   7.486
12226TIP3    H236601   3.548   4.439   7.443
12227TIP3   OH236602   3.522   4.635   7.224
12227TIP3    H136603   3.464   4.687   7.163
12227TIP3    H236604   3.609   4.653   7.182
12228TIP3   OH236605   2.747   4.203   7.651
12228TIP3    H136606   2.678   4.135   7.664
12228TIP3    H236607   2.780   4.180   7.562
12229TIP3   OH236608   3.004   3.641   7.295
12229TIP3    H136609   2.954   3.723   7.272
12229TIP3    H236610   2.936   3.572   7.281
12230TIP3   OH236611   3.129   4.145   7.510
12230TIP3    H136612   3.114   4.133   7.606
12230TIP3    H236613   3.040   4.121   7.477
12231TIP3   OH236614   3.370   4.099   7.367
12231TIP3    H136615   3.293   4.098   7.428
12231TIP3    H236616   3.442   4.065   7.424
12232TIP3   OH236617   3.603   4.036   7.517
12232TIP3    H136618   3.612   3.940   7.535
12232TIP3    H236619   3.596   4.074   7.607
12233TIP3   OH236620   2.584   3.985   7.703
12233TIP3    H136621   2.591   3.894   7.667
12233TIP3    H236622   2.620   3.972   7.793
12234TIP3   OH236623   3.097   3.650   7.553
12234TIP3    H136624   3.164   3.579   7.545
12234TIP3    H236625   3.057   3.646   7.463
12235TIP3   OH236626   3.163   3.865   7.713
12235TIP3    H136627   3.142   3.795   7.647
12235TIP3    H236628   3.086   3.924   7.704
12236TIP3   OH236629   2.385   5.101   5.813
12236TIP3    H136630   2.480   5.091   5.793
12236TIP3    H236631   2.355   5.143   5.731
12237TIP3   OH236632   1.865   4.474   6.032
12237TIP3    H136633   1.959   4.497   6.012
12237TIP3    H236634   1.858   4.386   5.988
12238TIP3   OH236635   1.775   5.091   6.441
12238TIP3    H136636   1.711   5.026   6.403
12238TIP3    H236637   1.822   5.034   6.506
12239TIP3   OH236638   1.910   4.945   6.629
12239TIP3    H136639   1.905   4.866   6.685
12239TIP3    H236640   1.966   5.002   6.684
12240TIP3   OH236641   3.642   5.341   6.427
12240TIP3    H136642   3.672   5.375   6.513
12240TIP3    H236643   3.705   5.382   6.365
12241TIP3   OH236644   3.673   5.364   6.710
12241TIP3    H136645   3.625   5.278   6.704
12241TIP3    H236646   3.748   5.336   6.764
12242TIP3   OH236647   3.719   5.036   7.285
12242TIP3    H136648   3.644   5.045   7.346
12242TIP3    H236649   3.758   5.126   7.287
12243TIP3   OH236650   3.556   4.540   5.874
12243TIP3    H136651   3.623   4.610   5.879
12243TIP3    H236652   3.520   4.538   5.963
12244TIP3   OH236653   3.680   4.411   6.109
12244TIP3    H136654   3.603   4.368   6.153
12244TIP3    H236655   3.708   4.474   6.176
12245TIP3   OH236656   3.722   4.813   6.544
12245TIP3    H136657   3.765   4.744   6.490
12245TIP3    H236658   3.702   4.882   6.478
12246TIP3   OH236659   3.554   5.118   6.742
12246TIP3    H136660   3.479   5.156   6.790
12246TIP3    H236661   3.507   5.068   6.670
12247TIP3   OH236662   3.599   4.310   5.746
12247TIP3    H136663   3.525   4.319   5.683
12247TIP3    H236664   3.584   4.392   5.799
12248TIP3   OH236665   3.464   3.998   5.714
12248TIP3    H136666   3.453   4.041   5.628
12248TIP3    H236667   3.438   3.906   5.694
12249TIP3   OH236668   3.506   4.265   6.256
12249TIP3    H136669   3.478   4.173   6.251
12249TIP3    H236670   3.459   4.298   6.336
12250TIP3   OH236671   2.101   4.345   7.001
12250TIP3    H136672   2.100   4.316   6.907
12250TIP3    H236673   2.198   4.350   7.017
12251TIP3   OH236674   3.765   4.699   7.112
12251TIP3    H136675   3.838   4.634   7.100
12251TIP3    H236676   3.784   4.765   7.043
12252TIP3   OH236677   3.951   4.504   7.128
12252TIP3    H136678   3.875   4.455   7.166
12252TIP3    H236679   4.022   4.439   7.143
12253TIP3   OH236680   3.415   3.729   5.690
12253TIP3    H136681   3.486   3.701   5.751
12253TIP3    H236682   3.340   3.674   5.714
12254TIP3   OH236683   3.467   3.987   6.150
12254TIP3    H136684   3.512   3.900   6.159
12254TIP3    H236685   3.526   4.029   6.085
12255TIP3   OH236686   3.635   4.159   6.644
12255TIP3    H136687   3.719   4.186   6.601
12255TIP3    H236688   3.648   4.201   6.731
12256TIP3   OH236689   3.704   4.309   6.875
12256TIP3    H136690   3.624   4.343   6.920
12256TIP3    H236691   3.735   4.390   6.828
12257TIP3   OH236692   2.316   4.033   7.670
12257TIP3    H136693   2.414   4.029   7.672
12257TIP3    H236694   2.295   3.948   7.713
12258TIP3   OH236695   4.158   3.902   7.431
12258TIP3    H136696   4.214   3.835   7.386
12258TIP3    H236697   4.125   3.953   7.354
12259TIP3   OH236698   3.584   3.738   6.184
12259TIP3    H136699   3.629   3.723   6.270
12259TIP3    H236700   3.521   3.663   6.183
12260TIP3   OH236701   2.280   3.728   7.012
12260TIP3    H136702   2.341   3.652   7.016
12260TIP3    H236703   2.343   3.801   6.999
12261TIP3   OH236704   2.084   4.001   7.079
12261TIP3    H136705   2.132   3.990   6.994
12261TIP3    H236706   2.113   4.089   7.105
12262TIP3   OH236707   4.024   4.038   7.237
12262TIP3    H136708   3.938   4.080   7.254
12262TIP3    H236709   3.996   3.967   7.177
12263TIP3   OH236710   3.665   3.673   5.822
12263TIP3    H136711   3.702   3.605   5.763
12263TIP3    H236712   3.726   3.748   5.809
12264TIP3   OH236713   2.066   3.509   6.583
12264TIP3    H136714   1.971   3.502   6.602
12264TIP3    H236715   2.066   3.564   6.502
12265TIP3   OH236716   3.230   5.204   6.087
12265TIP3    H136717   3.274   5.188   6.001
12265TIP3    H236718   3.287   5.271   6.126
12266TIP3   OH236719   2.288   3.586   7.396
12266TIP3    H136720   2.234   3.581   7.476
12266TIP3    H236721   2.223   3.621   7.332
12267TIP3   OH236722   2.326   5.014   7.471
12267TIP3    H136723   2.236   4.983   7.452
12267TIP3    H236724   2.335   4.991   7.565
12268TIP3   OH236725   2.504   5.045   7.018
12268TIP3    H136726   2.458   5.121   6.977
12268TIP3    H236727   2.591   5.057   6.975
12269TIP3   OH236728   2.950   5.288   7.157
12269TIP3    H136729   2.994   5.290   7.245
12269TIP3    H236730   3.015   5.338   7.103
12270TIP3   OH236731   3.126   5.440   7.015
12270TIP3    H136732   3.193   5.389   6.967
12270TIP3    H236733   3.182   5.495   7.074
12271TIP3   OH236734   3.923   3.802   7.115
12271TIP3    H136735   3.833   3.799   7.078
12271TIP3    H236736   3.952   3.709   7.103
12272TIP3   OH236737   2.180   5.301   7.039
12272TIP3    H136738   2.091   5.336   7.016
12272TIP3    H236739   2.189   5.334   7.130
12273TIP3   OH236740   2.418   5.280   6.900
12273TIP3    H136741   2.331   5.293   6.942
12273TIP3    H236742   2.400   5.310   6.808
12274TIP3   OH236743   2.842   5.307   6.699
12274TIP3    H136744   2.776   5.326   6.630
12274TIP3    H236745   2.855   5.396   6.738
12275TIP3   OH236746   3.113   5.252   6.755
12275TIP3    H136747   3.019   5.263   6.730
12275TIP3    H236748   3.156   5.320   6.702
12276TIP3   OH236749   3.324   5.442   6.665
12276TIP3    H136750   3.307   5.524   6.614
12276TIP3    H236751   3.348   5.379   6.593
12277TIP3   OH236752   2.091   5.093   6.788
12277TIP3    H136753   2.120   5.068   6.878
12277TIP3    H236754   2.163   5.050   6.736
12278TIP3   OH236755   2.285   4.966   6.645
12278TIP3    H136756   2.303   4.881   6.690
12278TIP3    H236757   2.376   5.002   6.636
12279TIP3   OH236758   2.552   5.062   6.645
12279TIP3    H136759   2.584   4.972   6.626
12279TIP3    H236760   2.598   5.079   6.730
12280TIP3   OH236761   3.134   3.719   6.741
12280TIP3    H136762   3.085   3.648   6.786
12280TIP3    H236763   3.199   3.670   6.688
12281TIP3   OH236764   3.653   3.600   6.644
12281TIP3    H136765   3.689   3.649   6.566
12281TIP3    H236766   3.557   3.614   6.633
12282TIP3   OH236767   3.747   3.693   6.405
12282TIP3    H136768   3.820   3.645   6.360
12282TIP3    H236769   3.777   3.786   6.390
12283TIP3   OH236770   2.377   3.426   6.752
12283TIP3    H136771   2.284   3.395   6.751
12283TIP3    H236772   2.424   3.340   6.746
12284TIP3   OH236773   2.166   3.294   6.397
12284TIP3    H136774   2.196   3.350   6.323
12284TIP3    H236775   2.137   3.361   6.462
12285TIP3   OH236776   2.822   3.456   6.631
12285TIP3    H136777   2.876   3.506   6.568
12285TIP3    H236778   2.843   3.499   6.715
12286TIP3   OH236779   3.372   3.604   6.613
12286TIP3    H136780   3.362   3.571   6.523
12286TIP3    H236781   3.355   3.523   6.667
12287TIP3   OH236782   3.398   3.527   6.177
12287TIP3    H136783   3.311   3.571   6.185
12287TIP3    H236784   3.380   3.442   6.222
12288TIP3   OH236785   1.878   4.867   6.180
12288TIP3    H136786   1.795   4.831   6.144
12288TIP3    H236787   1.868   4.960   6.155
12289TIP3   OH236788   2.280   3.450   6.164
12289TIP3    H136789   2.328   3.390   6.104
12289TIP3    H236790   2.353   3.507   6.198
12290TIP3   OH236791   2.791   3.628   6.261
12290TIP3    H136792   2.854   3.581   6.318
12290TIP3    H236793   2.814   3.721   6.284
12291TIP3   OH236794   2.652   5.061   5.757
12291TIP3    H136795   2.742   5.078   5.722
12291TIP3    H236796   2.631   4.982   5.702
12292TIP3   OH236797   3.370   5.169   5.852
12292TIP3    H136798   3.362   5.071   5.843
12292TIP3    H236799   3.326   5.199   5.770
12293TIP3   OH236800   2.584   3.707   7.642
12293TIP3    H136801   2.551   3.635   7.698
12293TIP3    H236802   2.678   3.707   7.667
12294TIP3   OH236803   2.834   3.705   7.759
12294TIP3    H136804   2.918   3.681   7.716
12294TIP3    H236805   2.825   3.632   7.825
12295TIP3   OH236806   1.960   4.897   5.816
12295TIP3    H136807   1.965   4.912   5.911
12295TIP3    H236808   2.045   4.849   5.798
12296TIP3   OH236809   3.659   3.764   7.547
12296TIP3    H136810   3.678   3.733   7.638
12296TIP3    H236811   3.748   3.759   7.505
12297TIP3   OH236812   3.597   5.317   7.042
12297TIP3    H136813   3.520   5.284   6.990
12297TIP3    H236814   3.577   5.413   7.043
12298TIP3   OH236815   4.864   4.690   5.806
12298TIP3    H136816   4.835   4.781   5.784
12298TIP3    H236817   4.788   4.640   5.771
12299TIP3   OH236818   4.871   4.688   6.182
12299TIP3    H136819   4.892   4.657   6.272
12299TIP3    H236820   4.820   4.613   6.147
12300TIP3   OH236821   4.165   4.587   6.551
12300TIP3    H136822   4.198   4.518   6.611
12300TIP3    H236823   4.244   4.641   6.538
12301TIP3   OH236824   5.110   4.989   5.867
12301TIP3    H136825   5.087   4.923   5.933
12301TIP3    H236826   5.134   5.066   5.921
12302TIP3   OH236827   4.136   4.998   6.282
12302TIP3    H136828   4.127   4.900   6.282
12302TIP3    H236829   4.232   5.006   6.269
12303TIP3   OH236830   3.844   4.196   6.065
12303TIP3    H136831   3.793   4.279   6.081
12303TIP3    H236832   3.774   4.144   6.022
12304TIP3   OH236833   3.921   4.499   6.241
12304TIP3    H136834   3.955   4.411   6.269
12304TIP3    H236835   3.937   4.498   6.146
12305TIP3   OH236836   4.756   5.454   5.884
12305TIP3    H136837   4.802   5.383   5.835
12305TIP3    H236838   4.745   5.415   5.971
12306TIP3   OH236839   4.661   4.916   6.237
12306TIP3    H136840   4.695   4.842   6.184
12306TIP3    H236841   4.746   4.958   6.260
12307TIP3   OH236842   5.680   4.238   6.230
12307TIP3    H136843   5.707   4.318   6.281
12307TIP3    H236844   5.667   4.276   6.142
12308TIP3   OH236845   5.078   4.417   6.267
12308TIP3    H136846   5.115   4.329   6.286
12308TIP3    H236847   5.042   4.404   6.178
12309TIP3   OH236848   4.415   4.076   6.232
12309TIP3    H136849   4.390   4.148   6.170
12309TIP3    H236850   4.368   4.001   6.188
12310TIP3   OH236851   5.108   4.168   5.858
12310TIP3    H136852   5.182   4.150   5.919
12310TIP3    H236853   5.156   4.204   5.781
12311TIP3   OH236854   4.043   4.273   6.341
12311TIP3    H136855   4.128   4.254   6.386
12311TIP3    H236856   4.054   4.220   6.260
12312TIP3   OH236857   4.485   4.475   6.132
12312TIP3    H136858   4.578   4.449   6.145
12312TIP3    H236859   4.445   4.392   6.099
12313TIP3   OH236860   5.747   4.443   6.402
12313TIP3    H136861   5.664   4.491   6.383
12313TIP3    H236862   5.760   4.468   6.495
12314TIP3   OH236863   4.409   4.060   6.668
12314TIP3    H136864   4.350   4.096   6.600
12314TIP3    H236865   4.356   4.079   6.748
12315TIP3   OH236866   4.759   4.912   5.673
12315TIP3    H136867   4.714   4.890   5.590
12315TIP3    H236868   4.712   4.994   5.698
12316TIP3   OH236869   4.518   4.836   6.465
12316TIP3    H136870   4.453   4.901   6.501
12316TIP3    H236871   4.555   4.885   6.389
12317TIP3   OH236872   5.324   4.163   6.026
12317TIP3    H136873   5.297   4.122   6.109
12317TIP3    H236874   5.368   4.245   6.057
12318TIP3   OH236875   4.281   4.173   6.451
12318TIP3    H136876   4.343   4.246   6.474
12318TIP3    H236877   4.328   4.133   6.374
12319TIP3   OH236878   4.344   5.028   6.563
12319TIP3    H136879   4.317   5.111   6.519
12319TIP3    H236880   4.263   5.012   6.617
12320TIP3   OH236881   3.755   4.725   5.795
12320TIP3    H136882   3.695   4.740   5.720
12320TIP3    H236883   3.771   4.815   5.828
12321TIP3   OH236884   5.180   5.235   6.036
12321TIP3    H136885   5.090   5.226   6.076
12321TIP3    H236886   5.169   5.320   5.989
12322TIP3   OH236887   5.467   4.137   6.399
12322TIP3    H136888   5.378   4.162   6.370
12322TIP3    H236889   5.523   4.167   6.325
12323TIP3   OH236890   4.769   3.780   6.385
12323TIP3    H136891   4.749   3.685   6.395
12323TIP3    H236892   4.689   3.818   6.429
12324TIP3   OH236893   4.884   5.281   5.714
12324TIP3    H136894   4.930   5.198   5.691
12324TIP3    H236895   4.944   5.345   5.670
12325TIP3   OH236896   5.024   5.066   5.615
12325TIP3    H136897   4.977   4.990   5.577
12325TIP3    H236898   5.059   5.028   5.698
12326TIP3   OH236899   5.404   5.146   6.380
12326TIP3    H136900   5.391   5.070   6.320
12326TIP3    H236901   5.384   5.222   6.320
12327TIP3   OH236902   4.696   4.541   5.638
12327TIP3    H136903   4.613   4.592   5.621
12327TIP3    H236904   4.735   4.539   5.549
12328TIP3   OH236905   4.655   4.323   5.355
12328TIP3    H136906   4.723   4.378   5.400
12328TIP3    H236907   4.713   4.261   5.307
12329TIP3   OH236908   5.599   4.782   6.222
12329TIP3    H136909   5.515   4.834   6.228
12329TIP3    H236910   5.629   4.810   6.133
12330TIP3   OH236911   5.043   4.624   5.609
12330TIP3    H136912   4.986   4.648   5.686
12330TIP3    H236913   5.126   4.601   5.655
12331TIP3   OH236914   5.278   4.663   6.519
12331TIP3    H136915   5.274   4.748   6.566
12331TIP3    H236916   5.190   4.664   6.475
12332TIP3   OH236917   4.273   4.622   6.023
12332TIP3    H136918   4.227   4.565   5.957
12332TIP3    H236919   4.348   4.567   6.050
12333TIP3   OH236920   4.403   5.033   6.174
12333TIP3    H136921   4.379   4.994   6.089
12333TIP3    H236922   4.492   4.996   6.189
12334TIP3   OH236923   4.423   4.588   6.385
12334TIP3    H136924   4.441   4.571   6.290
12334TIP3    H236925   4.455   4.679   6.397
12335TIP3   OH236926   4.939   5.230   6.157
12335TIP3    H136927   4.922   5.311   6.209
12335TIP3    H236928   4.921   5.158   6.220
12336TIP3   OH236929   4.549   5.149   6.706
12336TIP3    H136930   4.487   5.211   6.749
12336TIP3    H236931   4.485   5.095   6.654
12337TIP3   OH236932   4.887   4.477   5.433
12337TIP3    H136933   4.941   4.542   5.484
12337TIP3    H236934   4.911   4.501   5.341
12338TIP3   OH236935   4.304   4.703   6.808
12338TIP3    H136936   4.306   4.791   6.849
12338TIP3    H236937   4.208   4.684   6.813
12339TIP3   OH236938   4.627   5.160   5.713
12339TIP3    H136939   4.701   5.220   5.729
12339TIP3    H236940   4.564   5.216   5.666
12340TIP3   OH236941   4.343   5.319   6.791
12340TIP3    H136942   4.309   5.318   6.699
12340TIP3    H236943   4.263   5.295   6.842
12341TIP3   OH236944   5.402   3.722   5.486
12341TIP3    H136945   5.318   3.740   5.532
12341TIP3    H236946   5.414   3.804   5.434
12342TIP3   OH236947   4.138   4.462   5.834
12342TIP3    H136948   4.077   4.512   5.775
12342TIP3    H236949   4.092   4.377   5.838
12343TIP3   OH236950   5.200   5.088   5.024
12343TIP3    H136951   5.203   5.184   5.009
12343TIP3    H236952   5.294   5.062   5.017
12344TIP3   OH236953   3.923   4.849   6.736
12344TIP3    H136954   3.854   4.832   6.668
12344TIP3    H236955   3.957   4.759   6.754
12345TIP3   OH236956   3.775   5.044   6.367
12345TIP3    H136957   3.870   5.035   6.358
12345TIP3    H236958   3.767   5.123   6.422
12346TIP3   OH236959   5.642   5.492   6.428
12346TIP3    H136960   5.638   5.396   6.440
12346TIP3    H236961   5.558   5.519   6.471
12347TIP3   OH236962   4.748   5.276   6.562
12347TIP3    H136963   4.746   5.369   6.593
12347TIP3    H236964   4.674   5.238   6.615
12348TIP3   OH236965   4.509   5.409   5.510
12348TIP3    H136966   4.459   5.386   5.429
12348TIP3    H236967   4.474   5.496   5.534
12349TIP3   OH236968   3.946   5.258   5.896
12349TIP3    H136969   3.990   5.246   5.982
12349TIP3    H236970   3.893   5.175   5.892
12350TIP3   OH236971   4.710   5.312   5.152
12350TIP3    H136972   4.775   5.247   5.116
12350TIP3    H236973   4.739   5.318   5.245
12351TIP3   OH236974   4.759   5.355   5.423
12351TIP3    H136975   4.669   5.367   5.461
12351TIP3    H236976   4.804   5.310   5.497
12352TIP3   OH236977   5.531   4.623   6.699
12352TIP3    H136978   5.448   4.637   6.650
12352TIP3    H236979   5.544   4.527   6.688
12353TIP3   OH236980   4.126   5.032   6.727
12353TIP3    H136981   4.175   5.011   6.809
12353TIP3    H236982   4.052   4.968   6.731
12354TIP3   OH236983   4.528   3.855   6.509
12354TIP3    H136984   4.439   3.823   6.481
12354TIP3    H236985   4.501   3.937   6.554
12355TIP3   OH236986   5.059   3.971   6.704
12355TIP3    H136987   5.125   3.941   6.769
12355TIP3    H236988   4.974   3.951   6.749
12356TIP3   OH236989   5.302   4.401   6.624
12356TIP3    H136990   5.249   4.396   6.707
12356TIP3    H236991   5.274   4.486   6.586
12357TIP3   OH236992   4.960   4.523   5.176
12357TIP3    H136993   4.924   4.502   5.088
12357TIP3    H236994   5.036   4.579   5.154
12358TIP3   OH236995   4.677   3.899   5.482
12358TIP3    H136996   4.637   3.898   5.571
12358TIP3    H236997   4.631   3.821   5.444
12359TIP3   OH236998   4.462   4.367   6.532
12359TIP3    H136999   4.406   4.389   6.609
12359TIP3    H237000   4.448   4.447   6.476
12360TIP3   OH237001   4.343   4.255   6.043
12360TIP3    H137002   4.249   4.233   6.059
12360TIP3    H237003   4.354   4.217   5.953
12361TIP3   OH237004   4.834   4.344   5.771
12361TIP3    H137005   4.779   4.415   5.729
12361TIP3    H237006   4.885   4.312   5.694
12362TIP3   OH237007   5.008   4.621   6.858
12362TIP3    H137008   4.985   4.548   6.919
12362TIP3    H237009   5.102   4.633   6.878
12363TIP3   OH237010   4.990   4.372   6.009
12363TIP3    H137011   4.929   4.403   5.940
12363TIP3    H237012   5.021   4.290   5.965
12364TIP3   OH237013   4.281   4.399   6.736
12364TIP3    H137014   4.294   4.465   6.806
12364TIP3    H237015   4.265   4.318   6.787
12365TIP3   OH237016   4.334   3.876   5.449
12365TIP3    H137017   4.315   3.875   5.545
12365TIP3    H237018   4.256   3.926   5.417
12366TIP3   OH237019   3.869   3.916   6.323
12366TIP3    H137020   3.947   3.952   6.370
12366TIP3    H237021   3.903   3.894   6.235
12367TIP3   OH237022   3.847   3.906   5.838
12367TIP3    H137023   3.885   3.945   5.757
12367TIP3    H237024   3.781   3.976   5.859
12368TIP3   OH237025   5.006   4.616   6.434
12368TIP3    H137026   5.036   4.544   6.374
12368TIP3    H237027   4.971   4.563   6.509
12369TIP3   OH237028   4.671   4.075   6.105
12369TIP3    H137029   4.583   4.075   6.149
12369TIP3    H237030   4.730   4.081   6.181
12370TIP3   OH237031   4.103   4.134   6.112
12370TIP3    H137032   4.009   4.148   6.085
12370TIP3    H237033   4.119   4.042   6.084
12371TIP3   OH237034   4.377   4.131   5.801
12371TIP3    H137035   4.466   4.150   5.768
12371TIP3    H237036   4.321   4.152   5.722
12372TIP3   OH237037   5.160   4.151   6.302
12372TIP3    H137038   5.129   4.166   6.394
12372TIP3    H237039   5.091   4.090   6.270
12373TIP3   OH237040   4.220   4.161   5.586
12373TIP3    H137041   4.142   4.121   5.545
12373TIP3    H237042   4.266   4.195   5.506
12374TIP3   OH237043   5.331   5.842   6.523
12374TIP3    H137044   5.326   5.866   6.428
12374TIP3    H237045   5.406   5.896   6.553
12375TIP3   OH237046   4.288   4.952   6.946
12375TIP3    H137047   4.367   4.984   6.994
12375TIP3    H237048   4.222   4.950   7.018
12376TIP3   OH237049   4.752   4.406   6.203
12376TIP3    H137050   4.823   4.365   6.152
12376TIP3    H237051   4.760   4.362   6.290
12377TIP3   OH237052   4.285   3.891   6.080
12377TIP3    H137053   4.243   3.814   6.124
12377TIP3    H237054   4.313   3.854   5.995
12378TIP3   OH237055   4.730   4.302   6.491
12378TIP3    H137056   4.639   4.336   6.502
12378TIP3    H237057   4.784   4.366   6.541
12379TIP3   OH237058   4.468   4.693   5.591
12379TIP3    H137059   4.397   4.626   5.577
12379TIP3    H237060   4.445   4.727   5.681
12380TIP3   OH237061   5.367   4.928   6.216
12380TIP3    H137062   5.389   4.979   6.135
12380TIP3    H237063   5.281   4.887   6.191
12381TIP3   OH237064   4.925   4.005   5.450
12381TIP3    H137065   4.828   3.985   5.456
12381TIP3    H237066   4.930   4.100   5.471
12382TIP3   OH237067   4.870   5.015   6.582
12382TIP3    H137068   4.882   4.990   6.674
12382TIP3    H237069   4.827   5.102   6.588
12383TIP3   OH237070   4.993   4.254   5.553
12383TIP3    H137071   5.090   4.264   5.565
12383TIP3    H237072   4.970   4.333   5.501
12384TIP3   OH237073   4.172   4.726   6.265
12384TIP3    H137074   4.194   4.691   6.176
12384TIP3    H237075   4.179   4.647   6.320
12385TIP3   OH237076   4.616   4.845   5.419
12385TIP3    H137077   4.566   4.931   5.418
12385TIP3    H237078   4.557   4.790   5.475
12386TIP3   OH237079   4.039   4.632   6.873
12386TIP3    H137080   4.050   4.617   6.969
12386TIP3    H237081   3.965   4.572   6.852
12387TIP3   OH237082   4.762   4.749   6.897
12387TIP3    H137083   4.700   4.692   6.848
12387TIP3    H237084   4.848   4.714   6.864
12388TIP3   OH237085   5.027   5.270   6.480
12388TIP3    H137086   4.931   5.268   6.491
12388TIP3    H237087   5.053   5.324   6.557
12389TIP3   OH237088   5.438   4.344   5.387
12389TIP3    H137089   5.375   4.300   5.325
12389TIP3    H237090   5.432   4.434   5.346
12390TIP3   OH237091   5.654   5.200   6.469
12390TIP3    H137092   5.556   5.196   6.460
12390TIP3    H237093   5.680   5.170   6.378
12391TIP3   OH237094   5.146   5.160   5.295
12391TIP3    H137095   5.105   5.098   5.357
12391TIP3    H237096   5.139   5.114   5.210
12392TIP3   OH237097   5.132   4.791   6.137
12392TIP3    H137098   5.038   4.766   6.149
12392TIP3    H237099   5.164   4.712   6.088
12393TIP3   OH237100   4.258   5.021   5.889
12393TIP3    H137101   4.255   5.101   5.833
12393TIP3    H237102   4.165   4.997   5.893
12394TIP3   OH237103   3.841   4.320   5.609
12394TIP3    H137104   3.868   4.413   5.611
12394TIP3    H237105   3.751   4.323   5.646
12395TIP3   OH237106   4.401   4.788   5.835
12395TIP3    H137107   4.363   4.876   5.852
12395TIP3    H237108   4.358   4.735   5.906
12396TIP3   OH237109   4.527   5.365   6.356
12396TIP3    H137110   4.567   5.436   6.304
12396TIP3    H237111   4.605   5.329   6.402
12397TIP3   OH237112   4.179   5.258   5.740
12397TIP3    H137113   4.093   5.267   5.785
12397TIP3    H237114   4.210   5.351   5.741
12398TIP3   OH237115   4.916   4.996   6.314
12398TIP3    H137116   4.908   4.995   6.412
12398TIP3    H237117   4.996   4.942   6.301
12399TIP3   OH237118   4.890   4.893   5.188
12399TIP3    H137119   4.935   4.868   5.273
12399TIP3    H237120   4.799   4.867   5.207
12400TIP3   OH237121   5.165   5.531   6.363
12400TIP3    H137122   5.085   5.476   6.355
12400TIP3    H237123   5.150   5.597   6.291
12401TIP3   OH237124   5.221   5.370   5.009
12401TIP3    H137125   5.268   5.453   5.018
12401TIP3    H237126   5.132   5.400   5.040
12402TIP3   OH237127   4.247   4.142   6.884
12402TIP3    H137128   4.150   4.146   6.893
12402TIP3    H237129   4.271   4.078   6.953
12403TIP3   OH237130   5.049   4.824   5.413
12403TIP3    H137131   5.039   4.759   5.485
12403TIP3    H237132   5.146   4.822   5.401
12404TIP3   OH237133   3.966   5.228   6.515
12404TIP3    H137134   4.015   5.148   6.540
12404TIP3    H237135   4.000   5.291   6.580
12405TIP3   OH237136   4.251   4.875   5.197
12405TIP3    H137137   4.268   4.785   5.164
12405TIP3    H237138   4.232   4.857   5.291
12406TIP3   OH237139   4.202   4.878   5.471
12406TIP3    H137140   4.272   4.849   5.531
12406TIP3    H237141   4.208   4.975   5.476
12407TIP3   OH237142   3.950   4.579   5.672
12407TIP3    H137143   3.881   4.619   5.729
12407TIP3    H237144   3.953   4.645   5.600
12408TIP3   OH237145   5.090   4.205   6.562
12408TIP3    H137146   5.167   4.242   6.606
12408TIP3    H237147   5.071   4.125   6.616
12409TIP3   OH237148   4.972   3.955   5.728
12409TIP3    H137149   4.950   3.976   5.635
12409TIP3    H237150   5.002   4.041   5.763
12410TIP3   OH237151   4.472   5.074   5.421
12410TIP3    H137152   4.383   5.100   5.454
12410TIP3    H237153   4.481   5.136   5.347
12411TIP3   OH237154   4.667   4.132   5.831
12411TIP3    H137155   4.724   4.210   5.815
12411TIP3    H237156   4.662   4.132   5.929
12412TIP3   OH237157   4.925   4.456   6.639
12412TIP3    H137158   4.943   4.511   6.717
12412TIP3    H237159   4.979   4.377   6.655
12413TIP3   OH237160   4.803   3.867   5.938
12413TIP3    H137161   4.782   3.949   5.987
12413TIP3    H237162   4.861   3.902   5.867
12414TIP3   OH237163   4.216   5.150   5.485
12414TIP3    H137164   4.182   5.217   5.422
12414TIP3    H237165   4.195   5.193   5.571
12415TIP3   OH237166   4.311   3.862   5.727
12415TIP3    H137167   4.306   3.954   5.757
12415TIP3    H237168   4.407   3.847   5.731
12416TIP3   OH237169   5.568   4.354   6.620
12416TIP3    H137170   5.470   4.355   6.630
12416TIP3    H237171   5.574   4.312   6.533
12417TIP3   OH237172   5.218   4.548   6.007
12417TIP3    H137173   5.139   4.493   6.019
12417TIP3    H237174   5.286   4.499   6.057
12418TIP3   OH237175   3.928   4.781   5.476
12418TIP3    H137176   3.997   4.849   5.482
12418TIP3    H237177   3.971   4.721   5.411
12419TIP3   OH237178   3.876   4.052   5.608
12419TIP3    H137179   3.877   4.151   5.608
12419TIP3    H237180   3.801   4.037   5.550
12420TIP3   OH237181   5.185   5.506   5.957
12420TIP3    H137182   5.142   5.551   5.880
12420TIP3    H237183   5.279   5.525   5.935
12421TIP3   OH237184   4.265   3.775   6.484
12421TIP3    H137185   4.231   3.743   6.397
12421TIP3    H237186   4.250   3.696   6.541
12422TIP3   OH237187   3.806   5.006   5.869
12422TIP3    H137188   3.728   5.026   5.921
12422TIP3    H237189   3.777   5.037   5.780
12423TIP3   OH237190   3.955   5.533   6.938
12423TIP3    H137191   4.042   5.530   6.982
12423TIP3    H237192   3.932   5.438   6.934
12424TIP3   OH237193   4.440   5.498   6.983
12424TIP3    H137194   4.534   5.479   6.984
12424TIP3    H237195   4.411   5.440   6.909
12425TIP3   OH237196   4.431   5.063   5.112
12425TIP3    H137197   4.360   5.003   5.145
12425TIP3    H237198   4.501   4.996   5.099
12426TIP3   OH237199   5.076   5.407   6.716
12426TIP3    H137200   5.068   5.337   6.784
12426TIP3    H237201   5.154   5.457   6.746
12427TIP3   OH237202   4.881   5.136   5.033
12427TIP3    H137203   4.879   5.049   5.076
12427TIP3    H237204   4.920   5.115   4.946
12428TIP3   OH237205   4.087   4.940   7.137
12428TIP3    H137206   4.103   4.844   7.139
12428TIP3    H237207   4.000   4.944   7.092
12429TIP3   OH237208   4.068   4.598   5.334
12429TIP3    H137209   4.122   4.554   5.402
12429TIP3    H237210   4.132   4.600   5.260
12430TIP3   OH237211   4.694   5.025   6.910
12430TIP3    H137212   4.651   5.044   6.824
12430TIP3    H237213   4.722   4.932   6.901
12431TIP3   OH237214   4.564   4.799   5.148
12431TIP3    H137215   4.573   4.802   5.244
12431TIP3    H237216   4.563   4.703   5.132
12432TIP3   OH237217   5.189   5.032   6.519
12432TIP3    H137218   5.261   5.080   6.473
12432TIP3    H237219   5.116   5.095   6.505
12433TIP3   OH237220   4.205   4.679   7.121
12433TIP3    H137221   4.276   4.619   7.097
12433TIP3    H237222   4.234   4.709   7.209
12434TIP3   OH237223   4.284   4.492   5.560
12434TIP3    H137224   4.238   4.450   5.634
12434TIP3    H237225   4.311   4.415   5.506
12435TIP3   OH237226   4.546   4.564   6.786
12435TIP3    H137227   4.463   4.617   6.785
12435TIP3    H237228   4.591   4.595   6.705
12436TIP3   OH237229   4.372   4.287   5.393
12436TIP3    H137230   4.343   4.292   5.299
12436TIP3    H237231   4.469   4.294   5.383
12437TIP3   OH237232   5.060   4.963   6.918
12437TIP3    H137233   5.135   4.937   6.863
12437TIP3    H237234   5.056   4.891   6.983
12438TIP3   OH237235   5.198   4.619   5.055
12438TIP3    H137236   5.177   4.572   4.972
12438TIP3    H237237   5.165   4.708   5.032
12439TIP3   OH237238   4.668   4.348   6.905
12439TIP3    H137239   4.663   4.269   6.849
12439TIP3    H237240   4.622   4.415   6.849
12440TIP3   OH237241   4.668   4.133   6.714
12440TIP3    H137242   4.694   4.176   6.630
12440TIP3    H237243   4.573   4.111   6.697
12441TIP3   OH237244   4.698   4.673   6.589
12441TIP3    H137245   4.777   4.681   6.534
12441TIP3    H237246   4.637   4.737   6.546
12442TIP3   OH237247   5.276   4.636   6.969
12442TIP3    H137248   5.327   4.554   6.974
12442TIP3    H237249   5.343   4.699   6.936
12443TIP3   OH237250   5.318   4.890   6.707
12443TIP3    H137251   5.259   4.942   6.647
12443TIP3    H237252   5.405   4.911   6.666
12444TIP3   OH237253   4.548   4.458   7.141
12444TIP3    H137254   4.477   4.392   7.153
12444TIP3    H237255   4.576   4.439   7.050
12445TIP3   OH237256   4.799   3.897   6.781
12445TIP3    H137257   4.750   3.979   6.758
12445TIP3    H237258   4.730   3.829   6.769
12446TIP3   OH237259   4.926   4.401   6.997
12446TIP3    H137260   4.908   4.388   7.092
12446TIP3    H237261   4.837   4.378   6.961
12447TIP3   OH237262   5.164   4.351   6.852
12447TIP3    H137263   5.089   4.354   6.914
12447TIP3    H237264   5.238   4.321   6.909
12448TIP3   OH237265   5.396   4.291   7.002
12448TIP3    H137266   5.407   4.196   7.020
12448TIP3    H237267   5.392   4.330   7.092
12449TIP3   OH237268   4.383   4.241   7.189
12449TIP3    H137269   4.385   4.150   7.152
12449TIP3    H237270   4.417   4.225   7.279
12450TIP3   OH237271   4.896   3.908   7.038
12450TIP3    H137272   4.961   3.835   7.030
12450TIP3    H237273   4.854   3.903   6.949
12451TIP3   OH237274   4.960   4.122   7.197
12451TIP3    H137275   4.939   4.051   7.133
12451TIP3    H237276   4.883   4.182   7.189
12452TIP3   OH237277   4.181   5.355   5.300
12452TIP3    H137278   4.276   5.348   5.277
12452TIP3    H237279   4.148   5.399   5.220
12453TIP3   OH237280   3.658   4.728   5.509
12453TIP3    H137281   3.752   4.752   5.497
12453TIP3    H237282   3.655   4.638   5.471
12454TIP3   OH237283   3.572   5.346   5.927
12454TIP3    H137284   3.507   5.282   5.889
12454TIP3    H237285   3.618   5.289   5.992
12455TIP3   OH237286   3.707   5.201   6.116
12455TIP3    H137287   3.697   5.122   6.171
12455TIP3    H237288   3.761   5.258   6.174
12456TIP3   OH237289   5.439   5.593   5.914
12456TIP3    H137290   5.463   5.632   6.000
12456TIP3    H237291   5.493   5.645   5.853
12457TIP3   OH237292   5.465   5.617   6.196
12457TIP3    H137293   5.423   5.529   6.191
12457TIP3    H237294   5.542   5.596   6.250
12458TIP3   OH237295   5.515   5.293   6.770
12458TIP3    H137296   5.441   5.302   6.833
12458TIP3    H237297   5.555   5.382   6.773
12459TIP3   OH237298   5.331   4.805   5.390
12459TIP3    H137299   5.397   4.871   5.361
12459TIP3    H237300   5.375   4.767   5.468
12460TIP3   OH237301   5.461   4.671   5.593
12460TIP3    H137302   5.391   4.631   5.649
12460TIP3    H237303   5.519   4.715   5.658
12461TIP3   OH237304   5.514   5.067   6.028
12461TIP3    H137305   5.562   5.003   5.972
12461TIP3    H237306   5.503   5.143   5.967
12462TIP3   OH237307   5.343   5.366   6.222
12462TIP3    H137308   5.271   5.411   6.270
12462TIP3    H237309   5.293   5.320   6.150
12463TIP3   OH237310   5.396   4.580   5.241
12463TIP3    H137311   5.326   4.582   5.171
12463TIP3    H237312   5.366   4.657   5.294
12464TIP3   OH237313   5.271   4.253   5.195
12464TIP3    H137314   5.230   4.297   5.119
12464TIP3    H237315   5.241   4.160   5.182
12465TIP3   OH237316   5.275   4.531   5.740
12465TIP3    H137317   5.276   4.434   5.732
12465TIP3    H237318   5.258   4.544   5.836
12466TIP3   OH237319   3.898   4.598   6.492
12466TIP3    H137320   3.896   4.571   6.397
12466TIP3    H237321   3.995   4.602   6.506
12467TIP3   OH237322   5.561   4.955   6.597
12467TIP3    H137323   5.634   4.891   6.586
12467TIP3    H237324   5.584   5.025   6.534
12468TIP3   OH237325   5.747   4.760   6.611
12468TIP3    H137326   5.672   4.711   6.651
12468TIP3    H237327   5.819   4.695   6.626
12469TIP3   OH237328   5.211   3.987   5.181
12469TIP3    H137329   5.278   3.953   5.243
12469TIP3    H237330   5.132   3.932   5.199
12470TIP3   OH237331   5.272   4.247   5.637
12470TIP3    H137332   5.311   4.158   5.649
12470TIP3    H237333   5.325   4.280   5.563
12471TIP3   OH237334   5.432   4.415   6.131
12471TIP3    H137335   5.515   4.447   6.089
12471TIP3    H237336   5.441   4.457   6.219
12472TIP3   OH237337   5.497   4.564   6.359
12472TIP3    H137338   5.419   4.598   6.409
12472TIP3    H237339   5.529   4.647   6.316
12473TIP3   OH237340   4.116   4.292   7.167
12473TIP3    H137341   4.214   4.283   7.163
12473TIP3    H237342   4.091   4.205   7.203
12474TIP3   OH237343   5.950   4.147   6.918
12474TIP3    H137344   6.013   4.085   6.877
12474TIP3    H237345   5.924   4.204   6.842
12475TIP3   OH237346   5.381   3.994   5.673
12475TIP3    H137347   5.407   3.984   5.766
12475TIP3    H237348   5.315   3.921   5.664
12476TIP3   OH237349   4.079   3.983   6.494
12476TIP3    H137350   4.142   3.908   6.500
12476TIP3    H237351   4.140   4.058   6.485
12477TIP3   OH237352   3.883   4.256   6.570
12477TIP3    H137353   3.926   4.247   6.482
12477TIP3    H237354   3.902   4.348   6.590
12478TIP3   OH237355   5.822   4.294   6.724
12478TIP3    H137356   5.737   4.336   6.745
12478TIP3    H237357   5.792   4.223   6.665
12479TIP3   OH237358   5.465   3.928   5.311
12479TIP3    H137359   5.496   3.859   5.248
12479TIP3    H237360   5.524   4.003   5.291
12480TIP3   OH237361   3.864   3.765   6.068
12480TIP3    H137362   3.769   3.758   6.090
12480TIP3    H237363   3.861   3.822   5.988
12481TIP3   OH237364   5.027   5.460   5.571
12481TIP3    H137365   5.078   5.450   5.488
12481TIP3    H237366   5.074   5.531   5.617
12482TIP3   OH237367   4.085   3.840   6.881
12482TIP3    H137368   4.031   3.836   6.962
12482TIP3    H237369   4.021   3.880   6.818
12483TIP3   OH237370   4.123   5.269   6.959
12483TIP3    H137371   4.033   5.240   6.936
12483TIP3    H237372   4.128   5.247   7.053
12484TIP3   OH237373   4.301   5.301   6.507
12484TIP3    H137374   4.251   5.375   6.465
12484TIP3    H237375   4.387   5.315   6.461
12485TIP3   OH237376   4.746   5.544   6.643
12485TIP3    H137377   4.789   5.547   6.731
12485TIP3    H237378   4.811   5.595   6.590
12486TIP3   OH237379   4.924   5.696   6.502
12486TIP3    H137380   4.994   5.647   6.456
12486TIP3    H237381   4.977   5.753   6.562
12487TIP3   OH237382   5.722   4.057   6.600
12487TIP3    H137383   5.631   4.051   6.566
12487TIP3    H237384   5.752   3.964   6.590
12488TIP3   OH237385   3.979   5.561   6.526
12488TIP3    H137386   3.890   5.594   6.500
12488TIP3    H237387   3.980   5.587   6.619
12489TIP3   OH237388   4.216   5.537   6.386
12489TIP3    H137389   4.128   5.550   6.430
12489TIP3    H237390   4.196   5.567   6.295
12490TIP3   OH237391   4.640   5.564   6.184
12490TIP3    H137392   4.570   5.581   6.117
12490TIP3    H237393   4.651   5.653   6.223
12491TIP3   OH237394   4.908   5.504   6.236
12491TIP3    H137395   4.814   5.521   6.216
12491TIP3    H237396   4.952   5.578   6.191
12492TIP3   OH237397   5.116   5.695   6.150
12492TIP3    H137398   5.102   5.780   6.103
12492TIP3    H237399   5.141   5.636   6.076
12493TIP3   OH237400   3.889   5.352   6.275
12493TIP3    H137401   3.917   5.325   6.365
12493TIP3    H237402   3.959   5.307   6.222
12494TIP3   OH237403   4.081   5.223   6.131
12494TIP3    H137404   4.098   5.139   6.179
12494TIP3    H237405   4.172   5.258   6.122
12495TIP3   OH237406   4.349   5.318   6.131
12495TIP3    H137407   4.379   5.227   6.116
12495TIP3    H237408   4.392   5.336   6.216
12496TIP3   OH237409   4.933   3.976   6.232
12496TIP3    H137410   4.881   3.909   6.278
12496TIP3    H237411   4.989   3.923   6.173
12497TIP3   OH237412   5.449   3.851   6.132
12497TIP3    H137413   5.486   3.903   6.057
12497TIP3    H237414   5.353   3.867   6.122
12498TIP3   OH237415   5.550   3.941   5.892
12498TIP3    H137416   5.583   3.900   5.811
12498TIP3    H237417   5.581   4.034   5.881
12499TIP3   OH237418   4.173   3.683   6.237
12499TIP3    H137419   4.080   3.653   6.237
12499TIP3    H237420   4.219   3.596   6.231
12500TIP3   OH237421   3.970   3.551   5.886
12500TIP3    H137422   3.992   3.608   5.809
12500TIP3    H237423   3.931   3.616   5.948
12501TIP3   OH237424   4.624   3.707   6.116
12501TIP3    H137425   4.677   3.764   6.058
12501TIP3    H237426   4.626   3.756   6.199
12502TIP3   OH237427   5.173   3.859   6.096
12502TIP3    H137428   5.151   3.825   6.009
12502TIP3    H237429   5.153   3.782   6.154
12503TIP3   OH237430   5.194   3.786   5.663
12503TIP3    H137431   5.107   3.829   5.674
12503TIP3    H237432   5.177   3.700   5.708
12504TIP3   OH237433   3.677   5.122   5.664
12504TIP3    H137434   3.593   5.085   5.630
12504TIP3    H237435   3.663   5.216   5.642
12505TIP3   OH237436   4.075   3.704   5.654
12505TIP3    H137437   4.124   3.648   5.590
12505TIP3    H237438   4.146   3.763   5.687
12506TIP3   OH237439   4.589   3.886   5.746
12506TIP3    H137440   4.646   3.837   5.807
12506TIP3    H237441   4.612   3.978   5.770
12507TIP3   OH237442   4.448   5.309   5.242
12507TIP3    H137443   4.536   5.332   5.207
12507TIP3    H237444   4.427   5.234   5.182
12508TIP3   OH237445   5.171   5.429   5.335
12508TIP3    H137446   5.161   5.331   5.325
12508TIP3    H237447   5.116   5.461   5.260
12509TIP3   OH237448   4.381   3.965   7.130
12509TIP3    H137449   4.345   3.893   7.184
12509TIP3    H237450   4.475   3.964   7.157
12510TIP3   OH237451   4.632   3.962   7.249
12510TIP3    H137452   4.714   3.933   7.206
12510TIP3    H237453   4.617   3.890   7.314
12511TIP3   OH237454   3.756   5.154   5.302
12511TIP3    H137455   3.752   5.169   5.397
12511TIP3    H237456   3.841   5.108   5.291
12512TIP3   OH237457   5.456   4.020   7.034
12512TIP3    H137458   5.475   3.990   7.125
12512TIP3    H237459   5.545   4.017   6.993
12513TIP3   OH237460   5.394   5.573   6.527
12513TIP3    H137461   5.316   5.542   6.476
12513TIP3    H237462   5.375   5.670   6.528
12514TIP3   OH237463   6.661   4.951   5.288
12514TIP3    H137464   6.628   5.041   5.267
12514TIP3    H237465   6.587   4.897   5.255
12515TIP3   OH237466   6.667   4.941   5.668
12515TIP3    H137467   6.686   4.911   5.758
12515TIP3    H237468   6.618   4.865   5.633
12516TIP3   OH237469   5.961   4.840   6.035
12516TIP3    H137470   5.992   4.774   6.100
12516TIP3    H237471   6.034   4.904   6.036
12517TIP3   OH237472   6.917   5.236   5.357
12517TIP3    H137473   6.880   5.183   5.429
12517TIP3    H237474   6.937   5.320   5.402
12518TIP3   OH237475   5.930   5.251   5.764
12518TIP3    H137476   5.922   5.154   5.767
12518TIP3    H237477   6.027   5.261   5.757
12519TIP3   OH237478   5.635   4.449   5.552
12519TIP3    H137479   5.589   4.534   5.568
12519TIP3    H237480   5.565   4.402   5.503
12520TIP3   OH237481   5.698   4.743   5.722
12520TIP3    H137482   5.747   4.665   5.754
12520TIP3    H237483   5.752   4.771   5.647
12521TIP3   OH237484   6.549   5.709   5.367
12521TIP3    H137485   6.600   5.636   5.326
12521TIP3    H237486   6.540   5.680   5.459
12522TIP3   OH237487   6.458   5.170   5.723
12522TIP3    H137488   6.496   5.098   5.671
12522TIP3    H237489   6.542   5.215   5.749
12523TIP3   OH237490   7.466   4.492   5.718
12523TIP3    H137491   7.501   4.572   5.762
12523TIP3    H237492   7.500   4.503   5.627
12524TIP3   OH237493   6.875   4.679   5.754
12524TIP3    H137494   6.913   4.591   5.773
12524TIP3    H237495   6.841   4.665   5.663
12525TIP3   OH237496   6.204   4.328   5.722
12525TIP3    H137497   6.185   4.399   5.657
12525TIP3    H237498   6.159   4.253   5.677
12526TIP3   OH237499   6.902   4.429   5.342
12526TIP3    H137500   6.974   4.410   5.406
12526TIP3    H237501   6.954   4.461   5.266
12527TIP3   OH237502   5.841   4.532   5.824
12527TIP3    H137503   5.924   4.518   5.872
12527TIP3    H237504   5.856   4.477   5.745
12528TIP3   OH237505   6.284   4.732   5.617
12528TIP3    H137506   6.377   4.706   5.631
12528TIP3    H237507   6.244   4.647   5.586
12529TIP3   OH237508   7.543   4.699   5.888
12529TIP3    H137509   7.457   4.744   5.877
12529TIP3    H237510   7.564   4.719   5.980
12530TIP3   OH237511   6.201   4.312   6.150
12530TIP3    H137512   6.145   4.363   6.087
12530TIP3    H237513   6.153   4.329   6.234
12531TIP3   OH237514   6.560   5.174   5.156
12531TIP3    H137515   6.507   5.147   5.080
12531TIP3    H237516   6.513   5.256   5.183
12532TIP3   OH237517   6.313   5.091   5.952
12532TIP3    H137518   6.249   5.156   5.989
12532TIP3    H237519   6.352   5.141   5.878
12533TIP3   OH237520   7.112   4.425   5.512
12533TIP3    H137521   7.112   4.366   5.588
12533TIP3    H237522   7.170   4.498   5.541
12534TIP3   OH237523   6.075   4.436   5.938
12534TIP3    H137524   6.137   4.509   5.960
12534TIP3    H237525   6.123   4.395   5.862
12535TIP3   OH237526   6.140   5.284   6.047
12535TIP3    H137527   6.115   5.370   6.007
12535TIP3    H237528   6.060   5.270   6.102
12536TIP3   OH237529   5.536   4.973   5.282
12536TIP3    H137530   5.490   5.000   5.200
12536TIP3    H237531   5.564   5.060   5.319
12537TIP3   OH237532   6.973   5.487   5.516
12537TIP3    H137533   6.884   5.481   5.559
12537TIP3    H237534   6.966   5.576   5.475
12538TIP3   OH237535   7.256   4.402   5.887
12538TIP3    H137536   7.170   4.414   5.845
12538TIP3    H237537   7.319   4.428   5.817
12539TIP3   OH237538   6.560   4.033   5.864
12539TIP3    H137539   6.551   3.938   5.885
12539TIP3    H237540   6.484   4.070   5.914
12540TIP3   OH237541   6.682   5.534   5.200
12540TIP3    H137542   6.732   5.454   5.175
12540TIP3    H237543   6.740   5.602   5.158
12541TIP3   OH237544   6.824   5.317   5.104
12541TIP3    H137545   6.760   5.250   5.076
12541TIP3    H237546   6.859   5.279   5.187
12542TIP3   OH237547   7.199   5.401   5.869
12542TIP3    H137548   7.184   5.326   5.808
12542TIP3    H237549   7.179   5.478   5.812
12543TIP3   OH237550   6.493   4.800   5.123
12543TIP3    H137551   6.410   4.848   5.103
12543TIP3    H237552   6.530   4.787   5.034
12544TIP3   OH237553   6.449   4.585   4.852
12544TIP3    H137554   6.529   4.629   4.884
12544TIP3    H237555   6.488   4.516   4.795
12545TIP3   OH237556   7.393   5.035   5.706
12545TIP3    H137557   7.314   5.092   5.714
12545TIP3    H237558   7.429   5.065   5.620
12546TIP3   OH237559   6.852   4.881   5.110
12546TIP3    H137560   6.789   4.924   5.173
12546TIP3    H237561   6.871   4.801   5.158
12547TIP3   OH237562   6.070   4.878   5.512
12547TIP3    H137563   6.026   4.821   5.445
12547TIP3    H237564   6.147   4.824   5.538
12548TIP3   OH237565   6.200   5.287   5.662
12548TIP3    H137566   6.178   5.248   5.576
12548TIP3    H237567   6.290   5.253   5.678
12549TIP3   OH237568   6.215   4.846   5.867
12549TIP3    H137569   6.241   4.829   5.774
12549TIP3    H237570   6.252   4.936   5.884
12550TIP3   OH237571   6.735   5.485   5.643
12550TIP3    H137572   6.718   5.568   5.690
12550TIP3    H237573   6.716   5.417   5.710
12551TIP3   OH237574   6.344   5.403   6.195
12551TIP3    H137575   6.283   5.467   6.237
12551TIP3    H237576   6.280   5.352   6.141
12552TIP3   OH237577   6.686   4.742   4.922
12552TIP3    H137578   6.743   4.808   4.965
12552TIP3    H237579   6.706   4.761   4.827
12553TIP3   OH237580   6.099   4.960   6.291
12553TIP3    H137581   6.104   5.048   6.334
12553TIP3    H237582   6.003   4.941   6.303
12554TIP3   OH237583   6.424   5.416   5.196
12554TIP3    H137584   6.497   5.475   5.218
12554TIP3    H237585   6.358   5.477   5.158
12555TIP3   OH237586   6.140   5.574   6.278
12555TIP3    H137587   6.105   5.577   6.187
12555TIP3    H237588   6.060   5.551   6.330
12556TIP3   OH237589   7.196   3.980   4.970
12556TIP3    H137590   7.113   3.999   5.019
12556TIP3    H237591   7.207   4.062   4.918
12557TIP3   OH237592   5.934   4.720   5.322
12557TIP3    H137593   5.873   4.769   5.263
12557TIP3    H237594   5.892   4.633   5.322
12558TIP3   OH237595   6.993   5.344   4.516
12558TIP3    H137596   7.001   5.441   4.504
12558TIP3    H237597   7.087   5.316   4.507
12559TIP3   OH237598   5.718   5.104   6.224
12559TIP3    H137599   5.651   5.086   6.156
12559TIP3    H237600   5.753   5.015   6.244
12560TIP3   OH237601   5.571   5.298   5.859
12560TIP3    H137602   5.668   5.298   5.849
12560TIP3    H237603   5.556   5.379   5.909
12561TIP3   OH237604   7.437   5.748   5.913
12561TIP3    H137605   7.435   5.652   5.930
12561TIP3    H237606   7.354   5.775   5.958
12562TIP3   OH237607   6.544   5.532   6.049
12562TIP3    H137608   6.544   5.625   6.079
12562TIP3    H237609   6.471   5.495   6.102
12563TIP3   OH237610   6.306   5.666   4.997
12563TIP3    H137611   6.255   5.650   4.916
12563TIP3    H237612   6.271   5.752   5.028
12564TIP3   OH237613   5.741   5.509   5.383
12564TIP3    H137614   5.793   5.505   5.467
12564TIP3    H237615   5.675   5.440   5.400
12565TIP3   OH237616   6.504   5.566   4.638
12565TIP3    H137617   6.564   5.496   4.603
12565TIP3    H237618   6.536   5.575   4.730
12566TIP3   OH237619   6.555   5.611   4.908
12566TIP3    H137620   6.466   5.624   4.947
12566TIP3    H237621   6.604   5.574   4.984
12567TIP3   OH237622   5.923   5.286   6.212
12567TIP3    H137623   5.971   5.270   6.296
12567TIP3    H237624   5.848   5.224   6.220
12568TIP3   OH237625   6.322   4.108   5.998
12568TIP3    H137626   6.237   4.083   5.960
12568TIP3    H237627   6.298   4.191   6.044
12569TIP3   OH237628   6.855   4.226   6.191
12569TIP3    H137629   6.924   4.196   6.253
12569TIP3    H237630   6.772   4.204   6.238
12570TIP3   OH237631   6.759   4.791   4.669
12570TIP3    H137632   6.720   4.760   4.585
12570TIP3    H237633   6.838   4.838   4.637
12571TIP3   OH237634   6.478   4.156   4.974
12571TIP3    H137635   6.426   4.153   5.056
12571TIP3    H237636   6.426   4.094   4.920
12572TIP3   OH237637   6.256   4.627   6.018
12572TIP3    H137638   6.203   4.649   6.097
12572TIP3    H237639   6.242   4.707   5.963
12573TIP3   OH237640   6.139   4.511   5.531
12573TIP3    H137641   6.044   4.491   5.544
12573TIP3    H237642   6.152   4.477   5.440
12574TIP3   OH237643   6.632   4.603   5.260
12574TIP3    H137644   6.577   4.670   5.213
12574TIP3    H237645   6.682   4.565   5.184
12575TIP3   OH237646   6.826   4.877   6.344
12575TIP3    H137647   6.778   4.801   6.385
12575TIP3    H237648   6.879   4.901   6.422
12576TIP3   OH237649   6.788   4.633   5.493
12576TIP3    H137650   6.723   4.653   5.423
12576TIP3    H237651   6.825   4.550   5.454
12577TIP3   OH237652   6.076   4.655   6.225
12577TIP3    H137653   6.092   4.722   6.293
12577TIP3    H237654   6.062   4.574   6.278
12578TIP3   OH237655   6.138   4.144   4.961
12578TIP3    H137656   6.092   4.129   5.045
12578TIP3    H237657   6.072   4.184   4.904
12579TIP3   OH237658   5.668   4.171   5.812
12579TIP3    H137659   5.751   4.203   5.851
12579TIP3    H237660   5.686   4.171   5.717
12580TIP3   OH237661   5.647   4.162   5.335
12580TIP3    H137662   5.688   4.197   5.253
12580TIP3    H237663   5.580   4.232   5.350
12581TIP3   OH237664   6.809   4.870   5.938
12581TIP3    H137665   6.846   4.810   5.870
12581TIP3    H237666   6.767   4.805   5.998
12582TIP3   OH237667   6.467   4.340   5.592
12582TIP3    H137668   6.385   4.334   5.644
12582TIP3    H237669   6.535   4.331   5.661
12583TIP3   OH237670   5.895   4.388   5.596
12583TIP3    H137671   5.801   4.404   5.571
12583TIP3    H237672   5.910   4.297   5.566
12584TIP3   OH237673   6.168   4.389   5.287
12584TIP3    H137674   6.261   4.400   5.261
12584TIP3    H237675   6.120   4.410   5.203
12585TIP3   OH237676   6.960   4.413   5.796
12585TIP3    H137677   6.925   4.423   5.887
12585TIP3    H237678   6.897   4.350   5.757
12586TIP3   OH237679   6.008   4.421   5.068
12586TIP3    H137680   5.938   4.376   5.017
12586TIP3    H237681   6.064   4.454   4.994
12587TIP3   OH237682   7.127   6.098   6.011
12587TIP3    H137683   7.125   6.126   5.918
12587TIP3    H237684   7.203   6.150   6.045
12588TIP3   OH237685   6.086   5.207   6.433
12588TIP3    H137686   6.164   5.240   6.482
12588TIP3    H237687   6.020   5.208   6.505
12589TIP3   OH237688   6.549   4.664   5.690
12589TIP3    H137689   6.618   4.622   5.637
12589TIP3    H237690   6.556   4.618   5.775
12590TIP3   OH237691   6.088   4.137   5.558
12590TIP3    H137692   6.086   4.041   5.551
12590TIP3    H237693   6.119   4.161   5.470
12591TIP3   OH237694   6.523   4.557   5.976
12591TIP3    H137695   6.434   4.594   5.990
12591TIP3    H237696   6.580   4.618   6.027
12592TIP3   OH237697   6.262   4.952   5.074
12592TIP3    H137698   6.191   4.885   5.062
12592TIP3    H237699   6.242   4.984   5.165
12593TIP3   OH237700   7.164   5.184   5.699
12593TIP3    H137701   7.185   5.239   5.620
12593TIP3    H237702   7.074   5.150   5.678
12594TIP3   OH237703   6.724   4.260   4.942
12594TIP3    H137704   6.629   4.235   4.947
12594TIP3    H237705   6.722   4.357   4.956
12595TIP3   OH237706   6.655   5.267   6.072
12595TIP3    H137707   6.682   5.255   6.164
12595TIP3    H237708   6.623   5.359   6.070
12596TIP3   OH237709   6.787   4.515   5.046
12596TIP3    H137710   6.884   4.511   5.052
12596TIP3    H237711   6.771   4.588   4.983
12597TIP3   OH237712   5.957   4.973   5.750
12597TIP3    H137713   5.991   4.944   5.664
12597TIP3    H237714   5.992   4.907   5.811
12598TIP3   OH237715   6.407   5.101   4.896
12598TIP3    H137716   6.359   5.186   4.899
12598TIP3    H237717   6.352   5.045   4.955
12599TIP3   OH237718   5.837   4.888   6.360
12599TIP3    H137719   5.853   4.878   6.456
12599TIP3    H237720   5.763   4.826   6.345
12600TIP3   OH237721   6.561   5.003   6.383
12600TIP3    H137722   6.497   4.945   6.338
12600TIP3    H237723   6.643   4.983   6.334
12601TIP3   OH237724   6.822   5.519   5.971
12601TIP3    H137725   6.726   5.527   5.980
12601TIP3    H237726   6.852   5.577   6.044
12602TIP3   OH237727   7.236   4.605   4.870
12602TIP3    H137728   7.173   4.553   4.815
12602TIP3    H237729   7.226   4.690   4.822
12603TIP3   OH237730   7.449   5.455   5.958
12603TIP3    H137731   7.351   5.451   5.950
12603TIP3    H237732   7.475   5.426   5.868
12604TIP3   OH237733   6.937   5.420   4.783
12604TIP3    H137734   6.899   5.355   4.844
12604TIP3    H237735   6.942   5.371   4.699
12605TIP3   OH237736   6.926   5.048   5.617
12605TIP3    H137737   6.832   5.027   5.635
12605TIP3    H237738   6.956   4.966   5.575
12606TIP3   OH237739   6.055   5.275   5.370
12606TIP3    H137740   6.053   5.358   5.319
12606TIP3    H237741   5.961   5.261   5.385
12607TIP3   OH237742   5.619   4.577   5.079
12607TIP3    H137743   5.662   4.663   5.096
12607TIP3    H237744   5.540   4.583   5.137
12608TIP3   OH237745   6.197   5.043   5.320
12608TIP3    H137746   6.159   5.132   5.335
12608TIP3    H237747   6.157   4.992   5.393
12609TIP3   OH237748   6.324   5.620   5.842
12609TIP3    H137749   6.362   5.695   5.791
12609TIP3    H237750   6.402   5.588   5.890
12610TIP3   OH237751   5.976   5.513   5.225
12610TIP3    H137752   5.889   5.523   5.270
12610TIP3    H237753   6.010   5.605   5.229
12611TIP3   OH237754   6.712   5.250   5.803
12611TIP3    H137755   6.701   5.251   5.901
12611TIP3    H237756   6.798   5.208   5.795
12612TIP3   OH237757   6.686   5.148   4.681
12612TIP3    H137758   6.735   5.119   4.761
12612TIP3    H237759   6.596   5.120   4.705
12613TIP3   OH237760   6.961   5.785   5.848
12613TIP3    H137761   6.878   5.734   5.838
12613TIP3    H237762   6.948   5.853   5.778
12614TIP3   OH237763   7.024   5.619   4.503
12614TIP3    H137764   7.057   5.686   4.442
12614TIP3    H237765   6.945   5.666   4.538
12615TIP3   OH237766   6.047   4.395   6.369
12615TIP3    H137767   5.951   4.402   6.387
12615TIP3    H237768   6.077   4.339   6.442
12616TIP3   OH237769   6.846   5.075   4.897
12616TIP3    H137770   6.840   5.016   4.974
12616TIP3    H237771   6.943   5.080   4.886
12617TIP3   OH237772   5.763   5.482   6.001
12617TIP3    H137773   5.817   5.410   6.038
12617TIP3    H237774   5.789   5.556   6.057
12618TIP3   OH237775   6.050   5.124   4.681
12618TIP3    H137776   6.069   5.031   4.658
12618TIP3    H237777   6.030   5.116   4.777
12619TIP3   OH237778   5.999   5.136   4.953
12619TIP3    H137779   6.066   5.105   5.015
12619TIP3    H237780   6.005   5.234   4.964
12620TIP3   OH237781   5.737   4.828   5.160
12620TIP3    H137782   5.669   4.872   5.215
12620TIP3    H237783   5.748   4.896   5.090
12621TIP3   OH237784   6.888   4.464   6.062
12621TIP3    H137785   6.949   4.495   6.131
12621TIP3    H237786   6.861   4.378   6.100
12622TIP3   OH237787   6.759   4.215   5.218
12622TIP3    H137788   6.745   4.232   5.123
12622TIP3    H237789   6.798   4.299   5.249
12623TIP3   OH237790   6.265   5.331   4.902
12623TIP3    H137791   6.178   5.355   4.940
12623TIP3    H237792   6.280   5.408   4.845
12624TIP3   OH237793   6.454   4.395   5.319
12624TIP3    H137794   6.519   4.466   5.301
12624TIP3    H237795   6.458   4.388   5.417
12625TIP3   OH237796   6.716   4.699   6.126
12625TIP3    H137797   6.729   4.746   6.209
12625TIP3    H237798   6.774   4.622   6.135
12626TIP3   OH237799   6.597   4.121   5.421
12626TIP3    H137800   6.589   4.200   5.477
12626TIP3    H237801   6.656   4.155   5.350
12627TIP3   OH237802   6.010   5.407   4.972
12627TIP3    H137803   5.977   5.477   4.911
12627TIP3    H237804   5.992   5.448   5.060
12628TIP3   OH237805   6.099   4.113   5.239
12628TIP3    H137806   6.105   4.210   5.243
12628TIP3    H237807   6.195   4.093   5.227
12629TIP3   OH237808   7.355   4.614   6.101
12629TIP3    H137809   7.269   4.584   6.130
12629TIP3    H237810   7.363   4.570   6.015
12630TIP3   OH237811   7.036   4.815   5.468
12630TIP3    H137812   6.951   4.767   5.476
12630TIP3    H237813   7.091   4.761   5.530
12631TIP3   OH237814   5.725   5.037   4.964
12631TIP3    H137815   5.791   5.108   4.973
12631TIP3    H237816   5.774   4.979   4.902
12632TIP3   OH237817   5.665   4.307   5.104
12632TIP3    H137818   5.669   4.405   5.098
12632TIP3    H237819   5.586   4.288   5.053
12633TIP3   OH237820   6.983   5.758   5.442
12633TIP3    H137821   6.939   5.804   5.368
12633TIP3    H237822   7.077   5.780   5.422
12634TIP3   OH237823   5.593   5.240   5.350
12634TIP3    H137824   5.524   5.278   5.406
12634TIP3    H237825   5.577   5.287   5.265
12635TIP3   OH237826   5.751   5.789   6.426
12635TIP3    H137827   5.839   5.787   6.470
12635TIP3    H237828   5.730   5.694   6.422
12636TIP3   OH237829   6.239   5.753   6.472
12636TIP3    H137830   6.333   5.731   6.470
12636TIP3    H237831   6.207   5.699   6.397
12637TIP3   OH237832   6.210   5.329   4.589
12637TIP3    H137833   6.154   5.259   4.630
12637TIP3    H237834   6.287   5.275   4.564
12638TIP3   OH237835   6.873   5.662   6.204
12638TIP3    H137836   6.870   5.591   6.272
12638TIP3    H237837   6.951   5.714   6.230
12639TIP3   OH237838   6.653   5.373   4.508
12639TIP3    H137839   6.694   5.306   4.566
12639TIP3    H237840   6.709   5.370   4.428
12640TIP3   OH237841   5.884   5.197   6.623
12640TIP3    H137842   5.898   5.101   6.629
12640TIP3    H237843   5.796   5.201   6.579
12641TIP3   OH237844   5.872   4.863   4.824
12641TIP3    H137845   5.921   4.813   4.892
12641TIP3    H237846   5.933   4.857   4.748
12642TIP3   OH237847   6.497   5.283   6.396
12642TIP3    H137848   6.448   5.302   6.313
12642TIP3    H237849   6.517   5.187   6.387
12643TIP3   OH237850   6.372   5.051   4.626
12643TIP3    H137851   6.373   5.059   4.723
12643TIP3    H237852   6.373   4.953   4.616
12644TIP3   OH237853   6.980   5.273   6.004
12644TIP3    H137854   7.063   5.315   5.975
12644TIP3    H237855   6.918   5.348   5.995
12645TIP3   OH237856   6.003   4.930   6.606
12645TIP3    H137857   6.078   4.873   6.587
12645TIP3    H237858   6.028   4.966   6.694
12646TIP3   OH237859   6.075   4.752   5.043
12646TIP3    H137860   6.041   4.704   5.120
12646TIP3    H237861   6.109   4.679   4.988
12647TIP3   OH237862   6.341   4.820   6.269
12647TIP3    H137863   6.259   4.875   6.270
12647TIP3    H237864   6.386   4.853   6.188
12648TIP3   OH237865   6.168   4.547   4.883
12648TIP3    H137866   6.145   4.535   4.789
12648TIP3    H237867   6.266   4.548   4.877
12649TIP3   OH237868   6.868   5.185   6.383
12649TIP3    H137869   6.944   5.245   6.391
12649TIP3    H237870   6.863   5.146   6.472
12650TIP3   OH237871   6.995   4.873   4.536
12650TIP3    H137872   6.968   4.824   4.456
12650TIP3    H237873   6.959   4.963   4.514
12651TIP3   OH237874   6.463   4.606   6.391
12651TIP3    H137875   6.459   4.524   6.338
12651TIP3    H237876   6.415   4.670   6.335
12652TIP3   OH237877   6.459   4.390   6.200
12652TIP3    H137878   6.487   4.431   6.116
12652TIP3    H237879   6.366   4.366   6.181
12653TIP3   OH237880   6.497   4.931   6.075
12653TIP3    H137881   6.575   4.943   6.019
12653TIP3    H237882   6.434   4.994   6.034
12654TIP3   OH237883   7.097   4.906   6.387
12654TIP3    H137884   7.121   4.821   6.429
12654TIP3    H237885   7.154   4.967   6.437
12655TIP3   OH237886   6.338   4.717   6.623
12655TIP3    H137887   6.270   4.649   6.638
12655TIP3    H237888   6.373   4.690   6.536
12656TIP3   OH237889   6.597   4.154   6.264
12656TIP3    H137890   6.544   4.235   6.245
12656TIP3    H237891   6.528   4.084   6.258
12657TIP3   OH237892   6.718   4.674   6.478
12657TIP3    H137893   6.713   4.653   6.573
12657TIP3    H237894   6.628   4.643   6.452
12658TIP3   OH237895   6.964   4.608   6.321
12658TIP3    H137896   6.894   4.601   6.389
12658TIP3    H237897   7.043   4.578   6.371
12659TIP3   OH237898   7.183   4.544   6.476
12659TIP3    H137899   7.200   4.451   6.502
12659TIP3    H237900   7.178   4.590   6.562
12660TIP3   OH237901   6.179   4.496   6.676
12660TIP3    H137902   6.184   4.404   6.645
12660TIP3    H237903   6.215   4.486   6.767
12661TIP3   OH237904   6.695   4.170   6.520
12661TIP3    H137905   6.757   4.094   6.522
12661TIP3    H237906   6.653   4.158   6.433
12662TIP3   OH237907   6.760   4.383   6.681
12662TIP3    H137908   6.738   4.309   6.619
12662TIP3    H237909   6.679   4.437   6.678
12663TIP3   OH237910   5.975   5.606   4.781
12663TIP3    H137911   6.071   5.600   4.766
12663TIP3    H237912   5.949   5.659   4.703
12664TIP3   OH237913   5.458   4.991   4.999
12664TIP3    H137914   5.553   5.011   4.985
12664TIP3    H237915   5.450   4.904   4.956
12665TIP3   OH237916   5.379   5.594   5.406
12665TIP3    H137917   5.301   5.540   5.380
12665TIP3    H237918   5.416   5.540   5.479
12666TIP3   OH237919   5.511   5.449   5.599
12666TIP3    H137920   5.494   5.380   5.665
12666TIP3    H237921   5.561   5.513   5.653
12667TIP3   OH237922   7.235   5.851   5.401
12667TIP3    H137923   7.257   5.884   5.490
12667TIP3    H237924   7.294   5.904   5.345
12668TIP3   OH237925   7.262   5.872   5.680
12668TIP3    H137926   7.222   5.782   5.679
12668TIP3    H237927   7.338   5.856   5.738
12669TIP3   OH237928   7.309   5.549   6.257
12669TIP3    H137929   7.236   5.561   6.320
12669TIP3    H237930   7.352   5.637   6.259
12670TIP3   OH237931   7.129   5.070   4.878
12670TIP3    H137932   7.183   5.140   4.837
12670TIP3    H237933   7.187   5.041   4.948
12671TIP3   OH237934   7.300   5.316   5.501
12671TIP3    H137935   7.369   5.266   5.455
12671TIP3    H237936   7.297   5.399   5.450
12672TIP3   OH237937   7.138   5.620   5.708
12672TIP3    H137938   7.069   5.668   5.759
12672TIP3    H237939   7.086   5.577   5.637
12673TIP3   OH237940   7.191   4.845   4.727
12673TIP3    H137941   7.123   4.833   4.656
12673TIP3    H237942   7.154   4.924   4.770
12674TIP3   OH237943   7.063   4.515   4.682
12674TIP3    H137944   7.020   4.543   4.601
12674TIP3    H237945   7.041   4.420   4.681
12675TIP3   OH237946   5.695   4.856   5.974
12675TIP3    H137947   5.692   4.829   5.880
12675TIP3    H237948   5.793   4.859   5.989
12676TIP3   OH237949   7.345   5.208   6.095
12676TIP3    H137950   7.417   5.142   6.083
12676TIP3    H237951   7.364   5.274   6.027
12677TIP3   OH237952   7.523   5.002   6.113
12677TIP3    H137953   7.471   4.925   6.136
12677TIP3    H237954   7.613   4.964   6.118
12678TIP3   OH237955   7.005   4.252   4.673
12678TIP3    H137956   7.078   4.211   4.723
12678TIP3    H237957   6.930   4.192   4.687
12679TIP3   OH237958   7.061   4.499   5.111
12679TIP3    H137959   7.101   4.411   5.132
12679TIP3    H237960   7.127   4.531   5.047
12680TIP3   OH237961   7.226   4.685   5.613
12680TIP3    H137962   7.315   4.705   5.577
12680TIP3    H237963   7.240   4.712   5.706
12681TIP3   OH237964   7.294   4.825   5.845
12681TIP3    H137965   7.213   4.868   5.878
12681TIP3    H237966   7.336   4.900   5.798
12682TIP3   OH237967   5.912   4.546   6.645
12682TIP3    H137968   6.010   4.540   6.650
12682TIP3    H237969   5.888   4.461   6.688
12683TIP3   OH237970   7.740   4.407   6.402
12683TIP3    H137971   7.804   4.344   6.362
12683TIP3    H237972   7.719   4.466   6.327
12684TIP3   OH237973   7.171   4.254   5.161
12684TIP3    H137974   7.220   4.236   5.244
12684TIP3    H237975   7.110   4.177   5.158
12685TIP3   OH237976   5.903   4.213   5.956
12685TIP3    H137977   5.923   4.184   6.046
12685TIP3    H237978   5.946   4.300   5.952
12686TIP3   OH237979   5.680   4.508   6.053
12686TIP3    H137980   5.726   4.516   5.967
12686TIP3    H237981   5.695   4.596   6.090
12687TIP3   OH237982   7.616   4.554   6.206
12687TIP3    H137983   7.531   4.593   6.233
12687TIP3    H237984   7.585   4.479   6.151
12688TIP3   OH237985   7.257   4.186   4.792
12688TIP3    H137986   7.290   4.113   4.736
12688TIP3    H237987   7.326   4.255   4.779
12689TIP3   OH237988   5.659   4.015   5.563
12689TIP3    H137989   5.563   4.012   5.579
12689TIP3    H237990   5.662   4.073   5.483
12690TIP3   OH237991   6.819   5.716   5.057
12690TIP3    H137992   6.874   5.710   4.976
12690TIP3    H237993   6.863   5.787   5.107
12691TIP3   OH237994   5.878   4.097   6.364
12691TIP3    H137995   5.831   4.089   6.449
12691TIP3    H237996   5.808   4.136   6.308
12692TIP3   OH237997   5.920   5.521   6.445
12692TIP3    H137998   5.828   5.497   6.426
12692TIP3    H237999   5.925   5.506   6.540
12693TIP3   OH238000   6.098   5.556   5.991
12693TIP3    H138001   6.048   5.630   5.952
12693TIP3    H238002   6.183   5.572   5.946
12694TIP3   OH238003   6.543   5.798   6.128
12694TIP3    H138004   6.584   5.804   6.217
12694TIP3    H238005   6.608   5.850   6.075
12695TIP3   OH238006   6.723   5.950   5.989
12695TIP3    H138007   6.797   5.904   5.947
12695TIP3    H238008   6.772   6.010   6.050
12696TIP3   OH238009   7.514   4.312   6.088
12696TIP3    H138010   7.424   4.297   6.056
12696TIP3    H238011   7.552   4.222   6.079
12697TIP3   OH238012   5.774   5.810   6.018
12697TIP3    H138013   5.686   5.843   5.988
12697TIP3    H238014   5.780   5.856   6.102
12698TIP3   OH238015   6.009   5.789   5.871
12698TIP3    H138016   5.923   5.803   5.916
12698TIP3    H238017   5.991   5.826   5.782
12699TIP3   OH238018   6.437   5.820   5.668
12699TIP3    H138019   6.365   5.840   5.605
12699TIP3    H238020   6.449   5.907   5.712
12700TIP3   OH238021   6.704   5.757   5.718
12700TIP3    H138022   6.610   5.777   5.701
12700TIP3    H238023   6.747   5.836   5.683
12701TIP3   OH238024   6.912   5.951   5.638
12701TIP3    H138025   6.897   6.037   5.593
12701TIP3    H238026   6.937   5.893   5.563
12702TIP3   OH238027   5.684   5.606   5.757
12702TIP3    H138028   5.709   5.582   5.848
12702TIP3    H238029   5.757   5.564   5.708
12703TIP3   OH238030   5.879   5.478   5.615
12703TIP3    H138031   5.896   5.396   5.666
12703TIP3    H238032   5.969   5.517   5.610
12704TIP3   OH238033   6.143   5.572   5.619
12704TIP3    H138034   6.177   5.481   5.610
12704TIP3    H238035   6.185   5.598   5.702
12705TIP3   OH238036   6.721   4.231   5.708
12705TIP3    H138037   6.677   4.159   5.758
12705TIP3    H238038   6.791   4.184   5.661
12706TIP3   OH238039   7.244   4.119   5.617
12706TIP3    H138040   7.280   4.164   5.538
12706TIP3    H238041   7.148   4.126   5.602
12707TIP3   OH238042   7.339   4.213   5.378
12707TIP3    H138043   7.411   4.160   5.337
12707TIP3    H238044   7.372   4.304   5.360
12708TIP3   OH238045   5.773   3.807   5.377
12708TIP3    H138046   5.796   3.859   5.297
12708TIP3    H238047   5.718   3.871   5.426
12709TIP3   OH238048   6.411   3.971   5.611
12709TIP3    H138049   6.461   4.017   5.542
12709TIP3    H238050   6.451   4.008   5.691
12710TIP3   OH238051   6.961   4.117   5.586
12710TIP3    H138052   6.959   4.079   5.497
12710TIP3    H238053   6.947   4.038   5.642
12711TIP3   OH238054   6.990   4.040   5.151
12711TIP3    H138055   6.901   4.079   5.155
12711TIP3    H238056   6.975   3.955   5.197
12712TIP3   OH238057   5.471   5.385   5.156
12712TIP3    H138058   5.389   5.340   5.128
12712TIP3    H238059   5.438   5.467   5.197
12713TIP3   OH238060   5.872   3.962   5.140
12713TIP3    H138061   5.920   3.902   5.078
12713TIP3    H238062   5.945   4.013   5.179
12714TIP3   OH238063   6.378   4.144   5.241
12714TIP3    H138064   6.447   4.095   5.289
12714TIP3    H238065   6.406   4.236   5.259
12715TIP3   OH238066   6.243   5.565   4.731
12715TIP3    H138067   6.332   5.589   4.696
12715TIP3    H238068   6.221   5.492   4.669
12716TIP3   OH238069   6.968   5.688   4.824
12716TIP3    H138070   6.961   5.590   4.815
12716TIP3    H238071   6.916   5.717   4.746
12717TIP3   OH238072   6.178   4.222   6.615
12717TIP3    H138073   6.144   4.151   6.671
12717TIP3    H238074   6.273   4.220   6.641
12718TIP3   OH238075   6.431   4.219   6.727
12718TIP3    H138076   6.515   4.184   6.695
12718TIP3    H238077   6.412   4.157   6.801
12719TIP3   OH238078   7.252   4.277   6.521
12719TIP3    H138079   7.270   4.245   6.612
12719TIP3    H238080   7.341   4.272   6.481
12720TIP3   OH238081   7.191   5.831   6.011
12720TIP3    H138082   7.111   5.801   5.963
12720TIP3    H238083   7.173   5.927   6.015
12721TIP3   OH238084   8.456   5.199   4.781
12721TIP3    H138085   8.429   5.292   4.764
12721TIP3    H238086   8.378   5.153   4.746
12722TIP3   OH238087   8.451   5.202   5.160
12722TIP3    H138088   8.486   5.179   5.248
12722TIP3    H238089   8.413   5.117   5.131
12723TIP3   OH238090   7.751   5.100   5.533
12723TIP3    H138091   7.785   5.031   5.594
12723TIP3    H238092   7.831   5.153   5.520
12724TIP3   OH238093   8.699   5.504   4.843
12724TIP3    H138094   8.686   5.437   4.912
12724TIP3    H238095   8.729   5.581   4.895
12725TIP3   OH238096   7.724   5.503   5.247
12725TIP3    H138097   7.718   5.405   5.253
12725TIP3    H238098   7.820   5.515   5.245
12726TIP3   OH238099   7.403   4.715   5.061
12726TIP3    H138100   7.413   4.791   5.003
12726TIP3    H238101   7.346   4.656   5.007
12727TIP3   OH238102   7.464   4.985   5.206
12727TIP3    H138103   7.523   4.911   5.235
12727TIP3    H238104   7.527   5.036   5.152
12728TIP3   OH238105   8.345   5.965   4.858
12728TIP3    H138106   8.391   5.894   4.809
12728TIP3    H238107   8.348   5.931   4.949
12729TIP3   OH238108   8.255   5.427   5.209
12729TIP3    H138109   8.297   5.351   5.165
12729TIP3    H238110   8.337   5.475   5.234
12730TIP3   OH238111   9.242   4.761   5.209
12730TIP3    H138112   9.281   4.832   5.264
12730TIP3    H238113   9.288   4.778   5.125
12731TIP3   OH238114   8.664   4.930   5.241
12731TIP3    H138115   8.708   4.846   5.263
12731TIP3    H238116   8.636   4.913   5.150
12732TIP3   OH238117   8.002   4.589   5.208
12732TIP3    H138118   7.986   4.661   5.144
12732TIP3    H238119   7.957   4.515   5.162
12733TIP3   OH238120   8.704   4.682   4.831
12733TIP3    H138121   8.777   4.661   4.893
12733TIP3    H238122   8.754   4.717   4.755
12734TIP3   OH238123   7.637   4.794   5.309
12734TIP3    H138124   7.721   4.778   5.357
12734TIP3    H238125   7.653   4.738   5.230
12735TIP3   OH238126   8.079   4.988   5.108
12735TIP3    H138127   8.173   4.965   5.119
12735TIP3    H238128   8.042   4.904   5.074
12736TIP3   OH238129   9.335   4.954   5.382
12736TIP3    H138130   9.253   5.004   5.366
12736TIP3    H238131   9.351   4.975   5.475
12737TIP3   OH238132   8.001   4.572   5.639
12737TIP3    H138133   7.940   4.611   5.573
12737TIP3    H238134   7.951   4.590   5.721
12738TIP3   OH238135   8.343   5.419   4.653
12738TIP3    H138136   8.310   5.407   4.563
12738TIP3    H238137   8.303   5.506   4.676
12739TIP3   OH238138   8.106   5.347   5.435
12739TIP3    H138139   8.046   5.415   5.473
12739TIP3    H238140   8.152   5.398   5.366
12740TIP3   OH238141   8.917   4.671   5.007
12740TIP3    H138142   8.883   4.646   5.094
12740TIP3    H238143   8.965   4.753   5.029
12741TIP3   OH238144   7.869   4.689   5.424
12741TIP3    H138145   7.932   4.761   5.450
12741TIP3    H238146   7.919   4.648   5.351
12742TIP3   OH238147   7.933   5.541   5.531
12742TIP3    H138148   7.910   5.630   5.495
12742TIP3    H238149   7.854   5.528   5.589
12743TIP3   OH238150   7.327   5.233   4.770
12743TIP3    H138151   7.292   5.260   4.683
12743TIP3    H238152   7.359   5.319   4.807
12744TIP3   OH238153   8.768   5.746   5.006
12744TIP3    H138154   8.678   5.737   5.047
12744TIP3    H238155   8.761   5.834   4.965
12745TIP3   OH238156   9.059   4.641   5.373
12745TIP3    H138157   8.976   4.684   5.346
12745TIP3    H238158   9.122   4.677   5.306
12746TIP3   OH238159   8.356   4.291   5.352
12746TIP3    H138160   8.344   4.197   5.372
12746TIP3    H238161   8.279   4.329   5.400
12747TIP3   OH238162   8.469   5.793   4.681
12747TIP3    H138163   8.518   5.711   4.662
12747TIP3    H238164   8.531   5.859   4.642
12748TIP3   OH238165   8.611   5.578   4.592
12748TIP3    H138166   8.590   5.498   4.543
12748TIP3    H238167   8.647   5.542   4.676
12749TIP3   OH238168   8.979   5.661   5.356
12749TIP3    H138169   8.991   5.584   5.296
12749TIP3    H238170   8.990   5.737   5.297
12750TIP3   OH238171   8.286   5.053   4.609
12750TIP3    H138172   8.209   5.108   4.585
12750TIP3    H238173   8.336   5.051   4.526
12751TIP3   OH238174   8.246   4.837   4.326
12751TIP3    H138175   8.312   4.891   4.374
12751TIP3    H238176   8.307   4.776   4.278
12752TIP3   OH238177   9.183   5.281   5.180
12752TIP3    H138178   9.104   5.338   5.196
12752TIP3    H238179   9.218   5.324   5.099
12753TIP3   OH238180   8.633   5.135   4.582
12753TIP3    H138181   8.580   5.159   4.661
12753TIP3    H238182   8.718   5.111   4.624
12754TIP3   OH238183   8.869   5.176   5.495
12754TIP3    H138184   8.875   5.257   5.550
12754TIP3    H238185   8.784   5.191   5.450
12755TIP3   OH238186   7.867   5.136   5.002
12755TIP3    H138187   7.825   5.078   4.935
12755TIP3    H238188   7.944   5.083   5.030
12756TIP3   OH238189   7.995   5.542   5.149
12756TIP3    H138190   7.980   5.503   5.062
12756TIP3    H238191   8.086   5.512   5.169
12757TIP3   OH238192   7.994   5.110   5.350
12757TIP3    H138193   8.034   5.084   5.265
12757TIP3    H238194   8.044   5.192   5.373
12758TIP3   OH238195   8.527   5.742   5.128
12758TIP3    H138196   8.516   5.824   5.180
12758TIP3    H238197   8.513   5.672   5.195
12759TIP3   OH238198   8.141   5.663   5.676
12759TIP3    H138199   8.082   5.725   5.725
12759TIP3    H238200   8.075   5.610   5.628
12760TIP3   OH238201   8.472   4.997   4.407
12760TIP3    H138202   8.534   5.053   4.458
12760TIP3    H238203   8.499   5.019   4.315
12761TIP3   OH238204   7.896   5.220   5.779
12761TIP3    H138205   7.901   5.308   5.822
12761TIP3    H238206   7.800   5.203   5.786
12762TIP3   OH238207   8.215   5.677   4.683
12762TIP3    H138208   8.298   5.725   4.699
12762TIP3    H238209   8.158   5.745   4.646
12763TIP3   OH238210   7.934   5.830   5.763
12763TIP3    H138211   7.898   5.831   5.673
12763TIP3    H238212   7.855   5.809   5.817
12764TIP3   OH238213   9.019   4.269   4.466
12764TIP3    H138214   8.952   4.253   4.535
12764TIP3    H238215   8.962   4.273   4.389
12765TIP3   OH238216   7.728   4.977   4.810
12765TIP3    H138217   7.666   5.021   4.748
12765TIP3    H238218   7.703   4.885   4.803
12766TIP3   OH238219   8.780   5.607   4.000
12766TIP3    H138220   8.790   5.704   3.991
12766TIP3    H238221   8.875   5.581   4.006
12767TIP3   OH238222   7.513   5.361   5.713
12767TIP3    H138223   7.450   5.335   5.644
12767TIP3    H238224   7.552   5.276   5.742
12768TIP3   OH238225   7.371   5.549   5.350
12768TIP3    H138226   7.467   5.553   5.338
12768TIP3    H238227   7.355   5.631   5.399
12769TIP3   OH238228   9.233   5.991   5.403
12769TIP3    H138229   9.219   5.897   5.421
12769TIP3    H238230   9.149   6.026   5.441
12770TIP3   OH238231   8.336   5.795   5.530
12770TIP3    H138232   8.337   5.886   5.566
12770TIP3    H238233   8.268   5.752   5.588
12771TIP3   OH238234   8.095   5.918   4.487
12771TIP3    H138235   8.055   5.904   4.399
12771TIP3    H238236   8.067   6.009   4.509
12772TIP3   OH238237   7.537   5.772   4.872
12772TIP3    H138238   7.588   5.763   4.955
12772TIP3    H238239   7.478   5.696   4.880
12773TIP3   OH238240   8.299   5.819   4.126
12773TIP3    H138241   8.360   5.751   4.090
12773TIP3    H238242   8.335   5.831   4.216
12774TIP3   OH238243   8.349   5.870   4.396
12774TIP3    H138244   8.262   5.877   4.442
12774TIP3    H238245   8.405   5.833   4.466
12775TIP3   OH238246   9.122   5.128   5.682
12775TIP3    H138247   9.049   5.154   5.624
12775TIP3    H238248   9.135   5.034   5.656
12776TIP3   OH238249   7.719   5.544   5.699
12776TIP3    H138250   7.769   5.530   5.782
12776TIP3    H238251   7.644   5.482   5.710
12777TIP3   OH238252   8.118   4.366   5.483
12777TIP3    H138253   8.028   4.337   5.456
12777TIP3    H238254   8.094   4.449   5.529
12778TIP3   OH238255   8.653   4.482   5.677
12778TIP3    H138256   8.723   4.456   5.741
12778TIP3    H238257   8.570   4.463   5.726
12779TIP3   OH238258   8.876   4.908   5.588
12779TIP3    H138259   8.837   4.908   5.678
12779TIP3    H238260   8.867   5.002   5.560
12780TIP3   OH238261   8.544   5.048   4.152
12780TIP3    H138262   8.515   5.016   4.065
12780TIP3    H238263   8.633   5.082   4.130
12781TIP3   OH238264   8.262   4.417   4.453
12781TIP3    H138265   8.230   4.413   4.545
12781TIP3    H238266   8.225   4.334   4.419
12782TIP3   OH238267   8.046   4.885   5.499
12782TIP3    H138268   8.005   4.911   5.584
12782TIP3    H238269   8.031   4.966   5.446
12783TIP3   OH238270   7.933   4.768   5.016
12783TIP3    H138271   7.840   4.743   5.031
12783TIP3    H238272   7.949   4.728   4.927
12784TIP3   OH238273   8.425   4.853   4.741
12784TIP3    H138274   8.373   4.925   4.700
12784TIP3    H238275   8.481   4.825   4.666
12785TIP3   OH238276   8.599   5.132   5.826
12785TIP3    H138277   8.581   5.061   5.891
12785TIP3    H238278   8.692   5.153   5.848
12786TIP3   OH238279   8.579   4.883   4.984
12786TIP3    H138280   8.521   4.915   4.912
12786TIP3    H238281   8.613   4.802   4.939
12787TIP3   OH238282   7.863   4.913   5.713
12787TIP3    H138283   7.908   4.975   5.773
12787TIP3    H238284   7.861   4.831   5.766
12788TIP3   OH238285   7.919   4.390   4.420
12788TIP3    H138286   7.912   4.386   4.517
12788TIP3    H238287   7.837   4.438   4.397
12789TIP3   OH238288   7.462   4.439   5.293
12789TIP3    H138289   7.542   4.463   5.342
12789TIP3    H238290   7.495   4.398   5.211
12790TIP3   OH238291   7.439   4.416   4.815
12790TIP3    H138292   7.483   4.449   4.733
12790TIP3    H238293   7.374   4.488   4.828
12791TIP3   OH238294   8.581   5.129   5.403
12791TIP3    H138295   8.620   5.058   5.347
12791TIP3    H238296   8.560   5.077   5.483
12792TIP3   OH238297   8.260   4.592   5.077
12792TIP3    H138298   8.180   4.590   5.133
12792TIP3    H238299   8.331   4.592   5.144
12793TIP3   OH238300   7.690   4.643   5.084
12793TIP3    H138301   7.595   4.630   5.068
12793TIP3    H238302   7.727   4.555   5.065
12794TIP3   OH238303   7.965   4.646   4.773
12794TIP3    H138304   8.060   4.657   4.754
12794TIP3    H238305   7.922   4.666   4.687
12795TIP3   OH238306   8.750   4.666   5.271
12795TIP3    H138307   8.724   4.679   5.365
12795TIP3    H238308   8.680   4.605   5.241
12796TIP3   OH238309   7.803   4.681   4.551
12796TIP3    H138310   7.734   4.633   4.501
12796TIP3    H238311   7.857   4.716   4.478
12797TIP3   OH238312   8.895   6.337   5.479
12797TIP3    H138313   8.903   6.377   5.391
12797TIP3    H238314   8.960   6.391   5.528
12798TIP3   OH238315   7.881   5.464   5.920
12798TIP3    H138316   7.962   5.495   5.966
12798TIP3    H238317   7.817   5.469   5.994
12799TIP3   OH238318   8.343   4.917   5.172
12799TIP3    H138319   8.419   4.883   5.122
12799TIP3    H238320   8.357   4.878   5.260
12800TIP3   OH238321   7.865   4.410   5.052
12800TIP3    H138322   7.832   4.330   5.098
12800TIP3    H238323   7.918   4.372   4.981
12801TIP3   OH238324   8.321   4.814   5.469
12801TIP3    H138325   8.234   4.856   5.479
12801TIP3    H238326   8.381   4.875   5.516
12802TIP3   OH238327   8.055   5.208   4.556
12802TIP3    H138328   7.983   5.142   4.548
12802TIP3    H238329   8.039   5.242   4.648
12803TIP3   OH238330   8.962   5.438   5.189
12803TIP3    H138331   8.983   5.490   5.108
12803TIP3    H238332   8.874   5.402   5.168
12804TIP3   OH238333   8.517   4.518   4.424
12804TIP3    H138334   8.420   4.504   4.429
12804TIP3    H238335   8.527   4.614   4.444
12805TIP3   OH238336   8.445   5.519   5.560
12805TIP3    H138337   8.491   5.507   5.644
12805TIP3    H238338   8.421   5.613   5.563
12806TIP3   OH238339   8.587   4.768   4.524
12806TIP3    H138340   8.684   4.774   4.536
12806TIP3    H238341   8.569   4.845   4.467
12807TIP3   OH238342   7.737   5.211   5.236
12807TIP3    H138343   7.780   5.195   5.149
12807TIP3    H238344   7.800   5.168   5.296
12808TIP3   OH238345   8.201   5.355   4.376
12808TIP3    H138346   8.154   5.441   4.383
12808TIP3    H238347   8.150   5.301   4.440
12809TIP3   OH238348   7.629   5.154   5.852
12809TIP3    H138349   7.663   5.145   5.943
12809TIP3    H238350   7.568   5.079   5.845
12810TIP3   OH238351   8.358   5.261   5.868
12810TIP3    H138352   8.304   5.204   5.812
12810TIP3    H238353   8.449   5.232   5.843
12811TIP3   OH238354   8.612   5.778   5.456
12811TIP3    H138355   8.516   5.788   5.469
12811TIP3    H238356   8.646   5.833   5.530
12812TIP3   OH238357   9.014   4.851   4.363
12812TIP3    H138358   8.982   4.792   4.293
12812TIP3    H238359   9.008   4.937   4.313
12813TIP3   OH238360   8.718   5.676   4.266
12813TIP3    H138361   8.710   5.604   4.331
12813TIP3    H238362   8.739   5.629   4.183
12814TIP3   OH238363   8.721   5.307   5.107
12814TIP3    H138364   8.627   5.283   5.120
12814TIP3    H238365   8.755   5.228   5.061
12815TIP3   OH238366   7.852   5.531   4.859
12815TIP3    H138367   7.857   5.613   4.806
12815TIP3    H238368   7.756   5.521   4.869
12816TIP3   OH238369   7.412   4.838   4.558
12816TIP3    H138370   7.460   4.920   4.578
12816TIP3    H238371   7.336   4.845   4.620
12817TIP3   OH238372   7.987   5.296   4.802
12817TIP3    H138373   7.955   5.386   4.820
12817TIP3    H238374   7.955   5.247   4.880
12818TIP3   OH238375   8.120   5.876   5.329
12818TIP3    H138376   8.163   5.949   5.279
12818TIP3    H238377   8.195   5.841   5.379
12819TIP3   OH238378   7.769   5.774   4.711
12819TIP3    H138379   7.685   5.782   4.759
12819TIP3    H238380   7.803   5.866   4.715
12820TIP3   OH238381   8.507   5.509   5.290
12820TIP3    H138382   8.497   5.506   5.387
12820TIP3    H238383   8.593   5.466   5.278
12821TIP3   OH238384   8.483   5.403   4.170
12821TIP3    H138385   8.539   5.380   4.248
12821TIP3    H238386   8.397   5.376   4.204
12822TIP3   OH238387   8.752   6.039   5.337
12822TIP3    H138388   8.671   5.986   5.324
12822TIP3    H238389   8.741   6.108   5.268
12823TIP3   OH238390   8.819   5.879   3.998
12823TIP3    H138391   8.857   5.948   3.941
12823TIP3    H238392   8.739   5.927   4.029
12824TIP3   OH238393   7.845   4.655   5.857
12824TIP3    H138394   7.749   4.657   5.873
12824TIP3    H238395   7.876   4.597   5.928
12825TIP3   OH238396   8.636   5.341   4.393
12825TIP3    H138397   8.628   5.270   4.460
12825TIP3    H238398   8.732   5.335   4.374
12826TIP3   OH238399   7.559   5.737   5.488
12826TIP3    H138400   7.616   5.668   5.524
12826TIP3    H238401   7.582   5.812   5.544
12827TIP3   OH238402   7.846   5.385   4.171
12827TIP3    H138403   7.866   5.294   4.142
12827TIP3    H238404   7.829   5.372   4.266
12828TIP3   OH238405   7.793   5.389   4.445
12828TIP3    H138406   7.870   5.362   4.498
12828TIP3    H238407   7.798   5.487   4.451
12829TIP3   OH238408   7.528   5.081   4.645
12829TIP3    H138409   7.465   5.131   4.701
12829TIP3    H238410   7.548   5.148   4.577
12830TIP3   OH238411   8.681   4.714   5.530
12830TIP3    H138412   8.755   4.763   5.570
12830TIP3    H238413   8.670   4.638   5.591
12831TIP3   OH238414   8.559   4.472   4.704
12831TIP3    H138415   8.545   4.493   4.609
12831TIP3    H238416   8.598   4.555   4.738
12832TIP3   OH238417   8.057   5.584   4.389
12832TIP3    H138418   7.973   5.614   4.427
12832TIP3    H238419   8.080   5.659   4.333
12833TIP3   OH238420   8.246   4.651   4.805
12833TIP3    H138421   8.311   4.722   4.786
12833TIP3    H238422   8.254   4.643   4.903
12834TIP3   OH238423   8.518   4.968   5.615
12834TIP3    H138424   8.539   5.025   5.692
12834TIP3    H238425   8.576   4.892   5.630
12835TIP3   OH238426   8.393   4.377   4.907
12835TIP3    H138427   8.389   4.453   4.968
12835TIP3    H238428   8.453   4.413   4.838
12836TIP3   OH238429   7.800   5.662   4.458
12836TIP3    H138430   7.772   5.733   4.396
12836TIP3    H238431   7.787   5.705   4.545
12837TIP3   OH238432   7.904   4.376   4.696
12837TIP3    H138433   7.904   4.466   4.734
12837TIP3    H238434   8.000   4.355   4.704
12838TIP3   OH238435   9.144   4.872   5.592
12838TIP3    H138436   9.046   4.866   5.590
12838TIP3    H238437   9.166   4.835   5.505
12839TIP3   OH238438   8.805   5.065   4.978
12839TIP3    H138439   8.729   5.006   4.994
12839TIP3    H238440   8.876   5.020   5.029
12840TIP3   OH238441   7.521   5.293   4.450
12840TIP3    H138442   7.589   5.362   4.462
12840TIP3    H238443   7.568   5.238   4.383
12841TIP3   OH238444   7.462   4.568   4.590
12841TIP3    H138445   7.460   4.665   4.578
12841TIP3    H238446   7.392   4.538   4.531
12842TIP3   OH238447   8.777   6.017   4.929
12842TIP3    H138448   8.736   6.064   4.853
12842TIP3    H238449   8.872   6.035   4.909
12843TIP3   OH238450   7.849   4.289   5.459
12843TIP3    H138451   7.822   4.253   5.372
12843TIP3    H238452   7.842   4.210   5.517
12844TIP3   OH238453   7.390   5.498   4.840
12844TIP3    H138454   7.319   5.536   4.893
12844TIP3    H238455   7.372   5.541   4.753
12845TIP3   OH238456   7.550   6.048   5.910
12845TIP3    H138457   7.635   6.048   5.958
12845TIP3    H238458   7.530   5.953   5.909
12846TIP3   OH238459   8.031   6.014   5.953
12846TIP3    H138460   8.125   5.994   5.964
12846TIP3    H238461   8.008   5.955   5.879
12847TIP3   OH238462   8.011   5.588   4.082
12847TIP3    H138463   7.956   5.517   4.121
12847TIP3    H238464   8.089   5.537   4.052
12848TIP3   OH238465   8.668   5.919   5.689
12848TIP3    H138466   8.663   5.849   5.757
12848TIP3    H238467   8.749   5.967   5.715
12849TIP3   OH238468   8.448   5.627   3.993
12849TIP3    H138469   8.492   5.567   4.056
12849TIP3    H238470   8.510   5.628   3.918
12850TIP3   OH238471   7.680   5.452   6.110
12850TIP3    H138472   7.692   5.357   6.120
12850TIP3    H238473   7.591   5.456   6.067
12851TIP3   OH238474   7.656   5.104   4.305
12851TIP3    H138475   7.713   5.071   4.377
12851TIP3    H238476   7.722   5.109   4.233
12852TIP3   OH238477   8.286   5.537   5.885
12852TIP3    H138478   8.252   5.556   5.795
12852TIP3    H238479   8.321   5.446   5.876
12853TIP3   OH238480   8.160   5.302   4.109
12853TIP3    H138481   8.169   5.315   4.206
12853TIP3    H238482   8.164   5.204   4.104
12854TIP3   OH238483   8.774   5.545   5.490
12854TIP3    H138484   8.851   5.585   5.444
12854TIP3    H238485   8.709   5.617   5.479
12855TIP3   OH238486   7.792   5.171   6.094
12855TIP3    H138487   7.877   5.133   6.069
12855TIP3    H238488   7.817   5.215   6.179
12856TIP3   OH238489   7.861   5.008   4.524
12856TIP3    H138490   7.844   4.963   4.608
12856TIP3    H238491   7.901   4.936   4.470
12857TIP3   OH238492   8.126   5.064   5.745
12857TIP3    H138493   8.057   5.133   5.753
12857TIP3    H238494   8.184   5.102   5.674
12858TIP3   OH238495   7.966   4.803   4.368
12858TIP3    H138496   7.942   4.806   4.273
12858TIP3    H238497   8.064   4.805   4.361
12859TIP3   OH238498   8.648   5.471   5.886
12859TIP3    H138499   8.735   5.461   5.846
12859TIP3    H238500   8.652   5.407   5.960
12860TIP3   OH238501   8.787   5.128   4.033
12860TIP3    H138502   8.826   5.089   3.954
12860TIP3    H238503   8.750   5.212   4.000
12861TIP3   OH238504   8.254   4.860   5.881
12861TIP3    H138505   8.259   4.780   5.825
12861TIP3    H238506   8.213   4.925   5.821
12862TIP3   OH238507   8.259   4.646   5.689
12862TIP3    H138508   8.289   4.689   5.606
12862TIP3    H238509   8.166   4.624   5.668
12863TIP3   OH238510   8.285   5.179   5.560
12863TIP3    H138511   8.372   5.190   5.519
12863TIP3    H238512   8.233   5.249   5.516
12864TIP3   OH238513   8.872   5.151   5.939
12864TIP3    H138514   8.924   5.071   5.953
12864TIP3    H238515   8.943   5.214   5.915
12865TIP3   OH238516   8.930   5.401   5.663
12865TIP3    H138517   8.870   5.457   5.609
12865TIP3    H238518   9.017   5.439   5.640
12866TIP3   OH238519   8.129   4.976   6.108
12866TIP3    H138520   8.064   4.904   6.124
12866TIP3    H238521   8.168   4.947   6.023
12867TIP3   OH238522   8.392   4.410   5.754
12867TIP3    H138523   8.343   4.492   5.732
12867TIP3    H238524   8.323   4.342   5.743
12868TIP3   OH238525   8.519   4.915   5.971
12868TIP3    H138526   8.513   4.905   6.068
12868TIP3    H238527   8.428   4.890   5.945
12869TIP3   OH238528   8.755   4.859   5.825
12869TIP3    H138529   8.683   4.866   5.889
12869TIP3    H238530   8.831   4.835   5.881
12870TIP3   OH238531   8.987   4.808   5.974
12870TIP3    H138532   8.992   4.713   5.995
12870TIP3    H238533   8.983   4.849   6.063
12871TIP3   OH238534   7.972   4.754   6.164
12871TIP3    H138535   7.982   4.663   6.130
12871TIP3    H238536   8.010   4.744   6.253
12872TIP3   OH238537   8.485   4.419   6.012
12872TIP3    H138538   8.554   4.349   6.006
12872TIP3    H238539   8.447   4.413   5.922
12873TIP3   OH238540   8.550   4.634   6.174
12873TIP3    H138541   8.530   4.564   6.108
12873TIP3    H238542   8.473   4.694   6.165
12874TIP3   OH238543   7.772   5.865   4.270
12874TIP3    H138544   7.868   5.858   4.255
12874TIP3    H238545   7.746   5.914   4.190
12875TIP3   OH238546   7.255   5.245   4.492
12875TIP3    H138547   7.349   5.268   4.475
12875TIP3    H238548   7.249   5.156   4.450
12876TIP3   OH238549   7.168   5.864   4.896
12876TIP3    H138550   7.101   5.802   4.861
12876TIP3    H238551   7.211   5.807   4.963
12877TIP3   OH238552   7.303   5.716   5.084
12877TIP3    H138553   7.288   5.642   5.146
12877TIP3    H238554   7.356   5.775   5.141
12878TIP3   OH238555   9.033   6.104   4.885
12878TIP3    H138556   9.054   6.136   4.975
12878TIP3    H238557   9.089   6.159   4.829
12879TIP3   OH238558   9.063   6.129   5.160
12879TIP3    H138559   9.020   6.040   5.164
12879TIP3    H238560   9.128   6.120   5.232
12880TIP3   OH238561   8.905   5.317   4.363
12880TIP3    H138562   8.967   5.385   4.329
12880TIP3    H238563   8.956   5.283   4.439
12881TIP3   OH238564   9.041   5.203   4.576
12881TIP3    H138565   8.970   5.154   4.625
12881TIP3    H238566   9.070   5.267   4.642
12882TIP3   OH238567   9.092   5.572   4.990
12882TIP3    H138568   9.152   5.520   4.935
12882TIP3    H238569   9.084   5.655   4.939
12883TIP3   OH238570   8.940   5.884   5.189
12883TIP3    H138571   8.872   5.917   5.249
12883TIP3    H238572   8.887   5.831   5.125
12884TIP3   OH238573   8.981   5.086   4.229
12884TIP3    H138574   8.920   5.088   4.154
12884TIP3    H238575   8.959   5.171   4.272
12885TIP3   OH238576   8.799   4.785   4.183
12885TIP3    H138577   8.842   4.821   4.105
12885TIP3    H238578   8.800   4.689   4.166
12886TIP3   OH238579   8.863   5.046   4.712
12886TIP3    H138580   8.870   4.950   4.701
12886TIP3    H238581   8.848   5.056   4.808
12887TIP3   OH238582   7.492   5.115   5.456
12887TIP3    H138583   7.505   5.097   5.361
12887TIP3    H238584   7.587   5.118   5.484
12888TIP3   OH238585   9.323   5.287   5.584
12888TIP3    H138586   9.263   5.237   5.643
12888TIP3    H238587   9.409   5.248   5.603
12889TIP3   OH238588   8.804   4.501   4.160
12889TIP3    H138589   8.857   4.444   4.217
12889TIP3    H238590   8.719   4.454   4.158
12890TIP3   OH238591   8.862   4.766   4.607
12890TIP3    H138592   8.901   4.677   4.621
12890TIP3    H238593   8.913   4.795   4.528
12891TIP3   OH238594   9.001   4.930   5.112
12891TIP3    H138595   9.092   4.951   5.082
12891TIP3    H238596   9.010   4.964   5.203
12892TIP3   OH238597   9.085   5.074   5.339
12892TIP3    H138598   9.010   5.114   5.387
12892TIP3    H238599   9.119   5.150   5.288
12893TIP3   OH238600   7.707   4.804   6.132
12893TIP3    H138601   7.805   4.800   6.135
12893TIP3    H238602   7.686   4.717   6.172
12894TIP3   OH238603   8.955   4.515   4.651
12894TIP3    H138604   9.010   4.499   4.728
12894TIP3    H238605   8.902   4.432   4.645
12895TIP3   OH238606   7.668   4.499   5.471
12895TIP3    H138607   7.727   4.421   5.477
12895TIP3    H238608   7.733   4.570   5.459
12896TIP3   OH238609   7.462   4.785   5.523
12896TIP3    H138610   7.525   4.765   5.451
12896TIP3    H238611   7.512   4.850   5.574
12897TIP3   OH238612   9.398   4.838   5.693
12897TIP3    H138613   9.304   4.863   5.693
12897TIP3    H238614   9.391   4.743   5.697
12898TIP3   OH238615   7.454   4.285   5.049
12898TIP3    H138616   7.360   4.269   5.065
12898TIP3    H238617   7.453   4.335   4.964
12899TIP3   OH238618   8.611   5.977   4.543
12899TIP3    H138619   8.665   5.965   4.462
12899TIP3    H238620   8.664   6.041   4.593
12900TIP3   OH238621   7.676   4.357   5.855
12900TIP3    H138622   7.625   4.348   5.937
12900TIP3    H238623   7.607   4.389   5.793
12901TIP3   OH238624   7.715   5.779   5.930
12901TIP3    H138625   7.622   5.753   5.917
12901TIP3    H238626   7.727   5.763   6.025
12902TIP3   OH238627   7.892   5.811   5.475
12902TIP3    H138628   7.847   5.889   5.437
12902TIP3    H238629   7.980   5.825   5.434
12903TIP3   OH238630   8.339   6.059   5.618
12903TIP3    H138631   8.383   6.060   5.706
12903TIP3    H238632   8.406   6.108   5.564
12904TIP3   OH238633   8.516   6.204   5.469
12904TIP3    H138634   8.591   6.156   5.431
12904TIP3    H238635   8.564   6.258   5.536
12905TIP3   OH238636   9.264   4.586   5.592
12905TIP3    H138637   9.183   4.596   5.538
12905TIP3    H238638   9.292   4.495   5.569
12906TIP3   OH238639   7.567   6.067   5.502
12906TIP3    H138640   7.478   6.102   5.481
12906TIP3    H238641   7.583   6.109   5.587
12907TIP3   OH238642   7.804   6.046   5.359
12907TIP3    H138643   7.718   6.060   5.403
12907TIP3    H238644   7.787   6.082   5.270
12908TIP3   OH238645   8.230   6.078   5.157
12908TIP3    H138646   8.164   6.103   5.090
12908TIP3    H238647   8.245   6.164   5.202
12909TIP3   OH238648   8.500   6.013   5.204
12909TIP3    H138649   8.407   6.036   5.187
12909TIP3    H238650   8.546   6.091   5.170
12910TIP3   OH238651   8.704   6.206   5.124
12910TIP3    H138652   8.691   6.290   5.076
12910TIP3    H238653   8.732   6.146   5.051
12911TIP3   OH238654   7.482   5.863   5.244
12911TIP3    H138655   7.507   5.840   5.336
12911TIP3    H238656   7.556   5.818   5.196
12912TIP3   OH238657   7.676   5.733   5.102
12912TIP3    H138658   7.693   5.650   5.151
12912TIP3    H238659   7.766   5.772   5.098
12913TIP3   OH238660   7.939   5.829   5.108
12913TIP3    H138661   7.975   5.739   5.096
12913TIP3    H238662   7.985   5.854   5.190
12914TIP3   OH238663   8.514   4.487   5.191
12914TIP3    H138664   8.472   4.417   5.245
12914TIP3    H238665   8.589   4.439   5.151
12915TIP3   OH238666   9.040   4.347   5.071
12915TIP3    H138667   9.102   4.420   5.095
12915TIP3    H238668   8.952   4.389   5.079
12916TIP3   OH238669   7.765   4.196   5.210
12916TIP3    H138670   7.673   4.163   5.211
12916TIP3    H238671   7.814   4.110   5.206
12917TIP3   OH238672   7.557   4.064   4.859
12917TIP3    H138673   7.584   4.119   4.784
12917TIP3    H238674   7.526   4.129   4.923
12918TIP3   OH238675   8.208   4.229   5.092
12918TIP3    H138676   8.265   4.278   5.030
12918TIP3    H238677   8.235   4.266   5.177
12919TIP3   OH238678   8.753   4.376   5.076
12919TIP3    H138679   8.746   4.339   4.987
12919TIP3    H238680   8.737   4.296   5.133
12920TIP3   OH238681   8.791   4.291   4.640
12920TIP3    H138682   8.704   4.334   4.642
12920TIP3    H238683   8.771   4.206   4.686
12921TIP3   OH238684   7.270   5.635   4.639
12921TIP3    H138685   7.183   5.603   4.606
12921TIP3    H238686   7.262   5.729   4.615
12922TIP3   OH238687   7.669   4.226   4.621
12922TIP3    H138688   7.715   4.160   4.564
12922TIP3    H238689   7.745   4.277   4.656
12923TIP3   OH238690   8.181   4.400   4.720
12923TIP3    H138691   8.241   4.351   4.779
12923TIP3    H238692   8.205   4.492   4.745
12924TIP3   OH238693   8.040   5.825   4.220
12924TIP3    H138694   8.130   5.846   4.185
12924TIP3    H238695   8.019   5.750   4.160
12925TIP3   OH238696   8.757   5.941   4.312
12925TIP3    H138697   8.747   5.843   4.300
12925TIP3    H238698   8.714   5.973   4.230
12926TIP3   OH238699   7.973   4.475   6.099
12926TIP3    H138700   7.939   4.405   6.157
12926TIP3    H238701   8.067   4.476   6.127
12927TIP3   OH238702   8.221   4.473   6.218
12927TIP3    H138703   8.308   4.451   6.180
12927TIP3    H238704   8.211   4.402   6.285
12928TIP3   OH238705   7.346   5.661   4.279
12928TIP3    H138706   7.352   5.683   4.373
12928TIP3    H238707   7.434   5.619   4.262
12929TIP3   OH238708   9.029   4.535   6.013
12929TIP3    H138709   9.056   4.512   6.104
12929TIP3    H238710   9.116   4.551   5.970
12930TIP3   OH238711   8.992   6.083   5.479
12930TIP3    H138712   8.907   6.045   5.449
12930TIP3    H238713   8.964   6.176   5.491
12931TIP3   OH238714   9.179   4.968   4.536
12931TIP3    H138715   9.137   5.056   4.547
12931TIP3    H238716   9.117   4.926   4.472
12932TIP3   OH238717   9.093   5.487   4.278
12932TIP3    H138718   9.092   5.516   4.185
12932TIP3    H238719   9.164   5.540   4.316
12933TIP3   OH238720   9.328   5.628   5.148
12933TIP3    H138721   9.236   5.604   5.128
12933TIP3    H238722   9.354   5.561   5.214
12934TIP3   OH238723   9.158   5.812   4.835
12934TIP3    H138724   9.254   5.821   4.838
12934TIP3    H238725   9.130   5.893   4.879
12935TIP3   OH238726   9.391   5.424   5.319
12935TIP3    H138727   9.427   5.402   5.407
12935TIP3    H238728   9.319   5.359   5.316
12936TIP3   OH238729   9.359   5.992   4.968
12936TIP3    H138730   9.377   5.917   5.025
12936TIP3    H238731   9.370   6.068   5.026
12937TIP3   OH238732   9.208   5.774   4.344
12937TIP3    H138733   9.137   5.800   4.403
12937TIP3    H238734   9.184   5.826   4.265
12938TIP3   OH238735   9.339   6.268   5.358
12938TIP3    H138736   9.360   6.317   5.438
12938TIP3    H238737   9.303   6.185   5.393
12939TIP3   OH238738   9.040   5.539   4.006
12939TIP3    H138739   9.135   5.566   4.007
12939TIP3    H238740   9.040   5.461   3.947
12940TIP3   OH238741   8.961   6.111   4.383
12940TIP3    H138742   8.893   6.048   4.352
12940TIP3    H238743   9.005   6.058   4.453
12941TIP3   OH238744   9.092   5.971   4.578
12941TIP3    H138745   9.082   5.898   4.641
12941TIP3    H238746   9.148   6.032   4.629
12942TIP3   OH238747   9.299   5.362   4.935
12942TIP3    H138748   9.329   5.334   4.846
12942TIP3    H238749   9.379   5.405   4.969
12943TIP3   OH238750   9.243   5.030   5.052
12943TIP3    H138751   9.279   5.031   4.961
12943TIP3    H238752   9.242   5.124   5.075
12944TIP3   OH238753   9.507   6.027   5.427
12944TIP3    H138754   9.410   6.017   5.416
12944TIP3    H238755   9.520   5.986   5.513
12945TIP3   OH238756   9.358   6.316   4.980
12945TIP3    H138757   9.271   6.360   4.971
12945TIP3    H238758   9.376   6.327   5.074
12946TIP3   OH238759   9.284   6.118   4.728
12946TIP3    H138760   9.312   6.100   4.820
12946TIP3    H238761   9.354   6.070   4.679
12947TIP3   OH238762   9.080   5.884   4.125
12947TIP3    H138763   8.997   5.845   4.094
12947TIP3    H238764   9.056   5.978   4.125
12948TIP3   OH238765   9.074   5.837   3.826
12948TIP3    H138766   9.065   5.919   3.878
12948TIP3    H238767   9.160   5.806   3.857
12949TIP3   OH238768   0.904   5.992   6.463
12949TIP3    H138769   0.865   6.081   6.455
12949TIP3    H238770   0.828   5.937   6.437
12950TIP3   OH238771   0.912   5.978   6.848
12950TIP3    H138772   0.953   5.965   6.935
12950TIP3    H238773   0.877   5.888   6.831
12951TIP3   OH238774   0.827   6.746   6.536
12951TIP3    H138775   0.850   6.674   6.474
12951TIP3    H238776   0.894   6.734   6.605
12952TIP3   OH238777   0.720   6.174   6.885
12952TIP3    H138778   0.795   6.116   6.861
12952TIP3    H238779   0.768   6.253   6.916
12953TIP3   OH238780   1.717   5.537   6.895
12953TIP3    H138781   1.749   5.619   6.938
12953TIP3    H238782   1.745   5.552   6.803
12954TIP3   OH238783   1.128   5.721   6.930
12954TIP3    H138784   1.168   5.634   6.950
12954TIP3    H238785   1.088   5.702   6.843
12955TIP3   OH238786   1.151   5.470   6.516
12955TIP3    H138787   1.221   5.451   6.584
12955TIP3    H238788   1.208   5.501   6.443
12956TIP3   OH238789   1.793   5.744   7.066
12956TIP3    H138790   1.709   5.791   7.046
12956TIP3    H238791   1.807   5.770   7.158
12957TIP3   OH238792   0.828   6.220   6.332
12957TIP3    H138793   0.773   6.193   6.256
12957TIP3    H238794   0.773   6.295   6.366
12958TIP3   OH238795   1.358   5.473   6.690
12958TIP3    H138796   1.356   5.418   6.769
12958TIP3    H238797   1.416   5.546   6.717
12959TIP3   OH238798   1.223   6.544   6.708
12959TIP3    H138799   1.131   6.526   6.737
12959TIP3    H238800   1.213   6.631   6.664
12960TIP3   OH238801   1.512   5.438   7.063
12960TIP3    H138802   1.425   5.466   7.030
12960TIP3    H238803   1.573   5.469   6.992
12961TIP3   OH238804   0.817   5.078   7.037
12961TIP3    H138805   0.806   4.983   7.057
12961TIP3    H238806   0.762   5.119   7.105
12962TIP3   OH238807   0.934   6.565   6.361
12962TIP3    H138808   1.001   6.497   6.368
12962TIP3    H238809   0.987   6.640   6.324
12963TIP3   OH238810   1.452   6.451   7.042
12963TIP3    H138811   1.437   6.373   6.985
12963TIP3    H238812   1.432   6.525   6.981
12964TIP3   OH238813   0.726   5.848   6.293
12964TIP3    H138814   0.638   5.869   6.257
12964TIP3    H238815   0.778   5.839   6.211
12965TIP3   OH238816   0.728   5.625   6.025
12965TIP3    H138817   0.800   5.680   6.061
12965TIP3    H238818   0.779   5.562   5.970
12966TIP3   OH238819   1.643   6.085   6.887
12966TIP3    H138820   1.561   6.138   6.893
12966TIP3    H238821   1.673   6.109   6.797
12967TIP3   OH238822   1.104   5.948   6.296
12967TIP3    H138823   1.035   5.930   6.365
12967TIP3    H238824   1.178   5.891   6.328
12968TIP3   OH238825   1.320   5.965   7.184
12968TIP3    H138826   1.320   6.050   7.232
12968TIP3    H238827   1.238   5.974   7.133
12969TIP3   OH238828   0.967   6.526   6.809
12969TIP3    H138829   0.971   6.611   6.858
12969TIP3    H238830   0.968   6.459   6.881
12970TIP3   OH238831   0.933   5.795   6.102
12970TIP3    H138832   1.002   5.847   6.146
12970TIP3    H238833   0.956   5.811   6.006
12971TIP3   OH238834   0.682   6.443   6.391
12971TIP3    H138835   0.764   6.493   6.399
12971TIP3    H238836   0.625   6.512   6.352
12972TIP3   OH238837   1.444   5.026   6.146
12972TIP3    H138838   1.362   5.045   6.195
12972TIP3    H238839   1.456   5.108   6.094
12973TIP3   OH238840   1.243   6.395   5.700
12973TIP3    H138841   1.251   6.490   5.677
12973TIP3    H238842   1.334   6.363   5.685
12974TIP3   OH238843   1.687   6.794   7.089
12974TIP3    H138844   1.685   6.697   7.103
12974TIP3    H238845   1.604   6.820   7.134
12975TIP3   OH238846   0.773   6.617   5.810
12975TIP3    H138847   0.820   6.537   5.779
12975TIP3    H238848   0.788   6.615   5.906
12976TIP3   OH238849   0.828   6.649   6.081
12976TIP3    H138850   0.748   6.660   6.136
12976TIP3    H238851   0.892   6.621   6.148
12977TIP3   OH238852   1.575   5.924   7.365
12977TIP3    H138853   1.494   5.937   7.313
12977TIP3    H238854   1.591   5.828   7.352
12978TIP3   OH238855   1.108   5.272   7.367
12978TIP3    H138856   1.178   5.243   7.430
12978TIP3    H238857   1.025   5.250   7.415
12979TIP3   OH238858   1.344   5.700   7.285
12979TIP3    H138859   1.294   5.696   7.370
12979TIP3    H238860   1.320   5.789   7.251
12980TIP3   OH238861   1.010   5.839   5.850
12980TIP3    H138862   0.967   5.807   5.767
12980TIP3    H238863   1.094   5.873   5.812
12981TIP3   OH238864   0.718   5.205   6.142
12981TIP3    H138865   0.688   5.198   6.235
12981TIP3    H238866   0.684   5.120   6.107
12982TIP3   OH238867   0.880   5.653   6.431
12982TIP3    H138868   0.821   5.714   6.383
12982TIP3    H238869   0.932   5.613   6.358
12983TIP3   OH238870   1.066   5.926   7.525
12983TIP3    H138871   1.036   5.853   7.583
12983TIP3    H238872   1.161   5.927   7.548
12984TIP3   OH238873   1.035   5.671   6.670
12984TIP3    H138874   0.973   5.693   6.597
12984TIP3    H238875   1.074   5.590   6.631
12985TIP3   OH238876   0.388   5.162   6.105
12985TIP3    H138877   0.373   5.147   6.200
12985TIP3    H238878   0.304   5.204   6.080
12986TIP3   OH238879   1.032   5.916   7.089
12986TIP3    H138880   1.074   5.845   7.034
12986TIP3    H238881   1.016   5.866   7.172
12987TIP3   OH238882   0.734   5.381   6.759
12987TIP3    H138883   0.651   5.387   6.811
12987TIP3    H238884   0.801   5.372   6.828
12988TIP3   OH238885   0.430   5.408   6.421
12988TIP3    H138886   0.524   5.426   6.442
12988TIP3    H238887   0.405   5.488   6.375
12989TIP3   OH238888   1.204   5.457   6.970
12989TIP3    H138889   1.170   5.469   7.061
12989TIP3    H238890   1.139   5.393   6.934
12990TIP3   OH238891   1.379   7.141   7.187
12990TIP3    H138892   1.374   7.168   7.094
12990TIP3    H238893   1.452   7.196   7.220
12991TIP3   OH238894   0.819   5.719   6.879
12991TIP3    H138895   0.864   5.666   6.812
12991TIP3    H238896   0.820   5.660   6.956
12992TIP3   OH238897   0.803   5.590   7.155
12992TIP3    H138898   0.715   5.626   7.133
12992TIP3    H238899   0.849   5.663   7.200
12993TIP3   OH238900   1.413   6.232   6.878
12993TIP3    H138901   1.434   6.283   6.797
12993TIP3    H238902   1.327   6.191   6.856
12994TIP3   OH238903   0.969   5.307   6.116
12994TIP3    H138904   0.872   5.286   6.120
12994TIP3    H238905   0.972   5.402   6.137
12995TIP3   OH238906   0.972   6.314   7.248
12995TIP3    H138907   0.974   6.264   7.331
12995TIP3    H238908   0.883   6.352   7.251
12996TIP3   OH238909   1.038   5.558   6.219
12996TIP3    H138910   1.135   5.552   6.232
12996TIP3    H238911   1.030   5.629   6.153
12997TIP3   OH238912   0.660   6.148   6.105
12997TIP3    H138913   0.613   6.231   6.092
12997TIP3    H238914   0.589   6.089   6.139
12998TIP3   OH238915   0.882   6.125   7.471
12998TIP3    H138916   0.846   6.080   7.392
12998TIP3    H238917   0.959   6.068   7.492
12999TIP3   OH238918   1.078   6.590   7.123
12999TIP3    H138919   0.982   6.593   7.132
12999TIP3    H238920   1.106   6.623   7.211
13000TIP3   OH238921   1.476   5.646   6.054
13000TIP3    H138922   1.415   5.600   5.991
13000TIP3    H238923   1.477   5.733   6.008
13001TIP3   OH238924   1.700   6.502   7.132
13001TIP3    H138925   1.602   6.498   7.125
13001TIP3    H238926   1.725   6.472   7.042
13002TIP3   OH238927   1.181   6.453   5.963
13002TIP3    H138928   1.151   6.367   5.994
13002TIP3    H238929   1.200   6.434   5.868
13003TIP3   OH238930   1.179   6.087   6.810
13003TIP3    H138931   1.084   6.065   6.812
13003TIP3    H238932   1.214   6.010   6.761
13004TIP3   OH238933   0.974   6.297   6.974
13004TIP3    H138934   0.982   6.301   7.071
13004TIP3    H238935   1.054   6.248   6.950
13005TIP3   OH238936   0.941   6.188   5.861
13005TIP3    H138937   0.958   6.175   5.955
13005TIP3    H238938   0.847   6.161   5.852
13006TIP3   OH238939   1.220   6.829   7.024
13006TIP3    H138940   1.141   6.771   7.024
13006TIP3    H238941   1.198   6.894   6.953
13007TIP3   OH238942   1.274   6.667   5.680
13007TIP3    H138943   1.312   6.739   5.627
13007TIP3    H238944   1.194   6.715   5.713
13008TIP3   OH238945   1.116   6.153   6.114
13008TIP3    H138946   1.082   6.065   6.094
13008TIP3    H238947   1.205   6.146   6.065
13009TIP3   OH238948   1.131   5.509   7.230
13009TIP3    H138949   1.213   5.546   7.267
13009TIP3    H238950   1.120   5.427   7.283
13010TIP3   OH238951   1.005   5.261   6.395
13010TIP3    H138952   0.997   5.279   6.300
13010TIP3    H238953   1.050   5.342   6.428
13011TIP3   OH238954   0.699   5.442   6.494
13011TIP3    H138955   0.767   5.511   6.479
13011TIP3    H238956   0.706   5.430   6.591
13012TIP3   OH238957   0.973   5.764   7.306
13012TIP3    H138958   0.992   5.814   7.388
13012TIP3    H238959   1.027   5.684   7.318
13013TIP3   OH238960   0.845   5.165   6.599
13013TIP3    H138961   0.834   5.244   6.655
13013TIP3    H238962   0.907   5.200   6.530
13014TIP3   OH238963   0.385   5.129   6.394
13014TIP3    H138964   0.380   5.210   6.448
13014TIP3    H238965   0.483   5.122   6.388
13015TIP3   OH238966   1.611   5.658   7.283
13015TIP3    H138967   1.513   5.655   7.290
13015TIP3    H238968   1.623   5.614   7.198
13016TIP3   OH238969   1.261   5.852   6.669
13016TIP3    H138970   1.187   5.791   6.687
13016TIP3    H238971   1.334   5.808   6.718
13017TIP3   OH238972   1.228   6.804   6.616
13017TIP3    H138973   1.189   6.856   6.542
13017TIP3    H238974   1.323   6.823   6.599
13018TIP3   OH238975   0.487   6.346   5.808
13018TIP3    H138976   0.415   6.283   5.790
13018TIP3    H238977   0.548   6.327   5.735
13019TIP3   OH238978   1.134   6.695   7.371
13019TIP3    H138979   1.121   6.635   7.448
13019TIP3    H238980   1.200   6.758   7.407
13020TIP3   OH238981   0.900   6.408   5.682
13020TIP3    H138982   0.956   6.351   5.737
13020TIP3    H238983   0.951   6.414   5.599
13021TIP3   OH238984   0.671   6.096   5.817
13021TIP3    H138985   0.644   6.107   5.910
13021TIP3    H238986   0.661   5.999   5.806
13022TIP3   OH238987   1.244   6.321   7.175
13022TIP3    H138988   1.303   6.388   7.134
13022TIP3    H238989   1.160   6.370   7.183
13023TIP3   OH238990   0.458   5.608   6.034
13023TIP3    H138991   0.450   5.539   5.966
13023TIP3    H238992   0.554   5.614   6.046
13024TIP3   OH238993   1.123   6.271   7.591
13024TIP3    H138994   1.192   6.241   7.531
13024TIP3    H238995   1.115   6.196   7.653
13025TIP3   OH238996   1.238   5.921   5.723
13025TIP3    H138997   1.224   5.874   5.638
13025TIP3    H238998   1.207   6.010   5.695
13026TIP3   OH238999   0.740   5.633   7.566
13026TIP3    H139000   0.743   5.562   7.499
13026TIP3    H239001   0.658   5.679   7.546
13027TIP3   OH239002   0.710   5.427   7.357
13027TIP3    H139003   0.762   5.476   7.289
13027TIP3    H239004   0.635   5.398   7.304
13028TIP3   OH239005   0.776   6.032   7.240
13028TIP3    H139006   0.840   5.981   7.188
13028TIP3    H239007   0.692   6.010   7.197
13029TIP3   OH239008   1.331   5.932   7.627
13029TIP3    H139009   1.381   5.850   7.638
13029TIP3    H239010   1.397   5.992   7.590
13030TIP3   OH239011   1.364   6.190   7.373
13030TIP3    H139012   1.308   6.241   7.309
13030TIP3    H239013   1.452   6.210   7.333
13031TIP3   OH239014   0.851   5.200   7.441
13031TIP3    H139015   0.798   5.279   7.417
13031TIP3    H239016   0.784   5.129   7.433
13032TIP3   OH239017   0.983   5.709   7.665
13032TIP3    H139018   0.971   5.683   7.758
13032TIP3    H239019   0.893   5.689   7.631
13033TIP3   OH239020   1.211   5.650   7.515
13033TIP3    H139021   1.137   5.655   7.579
13033TIP3    H239022   1.285   5.620   7.571
13034TIP3   OH239023   1.439   5.593   7.667
13034TIP3    H139024   1.451   5.498   7.684
13034TIP3    H239025   1.435   5.632   7.757
13035TIP3   OH239026   0.938   5.206   7.700
13035TIP3    H139027   1.004   5.134   7.697
13035TIP3    H239028   0.901   5.199   7.610
13036TIP3   OH239029   1.020   5.414   7.858
13036TIP3    H139030   0.993   5.342   7.796
13036TIP3    H239031   0.943   5.475   7.851
13037TIP3   OH239032   1.481   6.897   6.577
13037TIP3    H139033   1.506   6.929   6.666
13037TIP3    H239034   1.542   6.945   6.520
13038TIP3   OH239035   1.514   6.916   6.856
13038TIP3    H139036   1.470   6.829   6.855
13038TIP3    H239037   1.587   6.896   6.917
13039TIP3   OH239038   1.562   6.594   7.430
13039TIP3    H139039   1.488   6.603   7.493
13039TIP3    H239040   1.601   6.683   7.434
13040TIP3   OH239041   1.378   6.112   6.054
13040TIP3    H139042   1.444   6.174   6.019
13040TIP3    H239043   1.428   6.072   6.129
13041TIP3   OH239044   1.494   5.986   6.265
13041TIP3    H139045   1.445   5.928   6.326
13041TIP3    H239046   1.573   6.012   6.319
13042TIP3   OH239047   1.551   6.364   6.681
13042TIP3    H139048   1.611   6.302   6.635
13042TIP3    H239049   1.552   6.442   6.622
13043TIP3   OH239050   1.393   6.668   6.884
13043TIP3    H139051   1.323   6.713   6.936
13043TIP3    H239052   1.339   6.621   6.816
13044TIP3   OH239053   1.440   5.885   5.905
13044TIP3    H139054   1.371   5.883   5.835
13044TIP3    H239055   1.413   5.964   5.954
13045TIP3   OH239056   1.303   5.562   5.862
13045TIP3    H139057   1.275   5.590   5.774
13045TIP3    H239058   1.283   5.466   5.857
13046TIP3   OH239059   1.314   5.822   6.404
13046TIP3    H139060   1.329   5.727   6.393
13046TIP3    H239061   1.306   5.831   6.501
13047TIP3   OH239062   1.606   6.256   7.261
13047TIP3    H139063   1.679   6.192   7.250
13047TIP3    H239064   1.630   6.326   7.197
13048TIP3   OH239065   1.791   6.062   7.277
13048TIP3    H139066   1.716   6.011   7.317
13048TIP3    H239067   1.864   5.997   7.291
13049TIP3   OH239068   1.252   5.297   5.853
13049TIP3    H139069   1.331   5.260   5.896
13049TIP3    H239070   1.184   5.228   5.866
13050TIP3   OH239071   1.314   5.549   6.294
13050TIP3    H139072   1.352   5.460   6.313
13050TIP3    H239073   1.375   5.576   6.222
13051TIP3   OH239074   1.473   5.727   6.791
13051TIP3    H139075   1.561   5.751   6.752
13051TIP3    H239076   1.488   5.760   6.882
13052TIP3   OH239077   1.543   5.866   7.026
13052TIP3    H139078   1.465   5.900   7.073
13052TIP3    H239079   1.576   5.946   6.980
13053TIP3   OH239080   1.994   5.456   7.581
13053TIP3    H139081   2.054   5.391   7.539
13053TIP3    H239082   1.966   5.510   7.504
13054TIP3   OH239083   1.416   5.301   6.339
13054TIP3    H139084   1.469   5.283   6.419
13054TIP3    H239085   1.360   5.221   6.336
13055TIP3   OH239086   1.866   5.597   7.386
13055TIP3    H139087   1.779   5.637   7.405
13055TIP3    H239088   1.837   5.524   7.327
13056TIP3   OH239089   1.503   5.233   5.965
13056TIP3    H139090   1.541   5.159   5.914
13056TIP3    H239091   1.573   5.300   5.960
13057TIP3   OH239092   1.078   6.752   6.240
13057TIP3    H139093   1.122   6.753   6.152
13057TIP3    H239094   1.117   6.830   6.282
13058TIP3   OH239095   1.015   6.950   7.177
13058TIP3    H139096   1.101   6.915   7.150
13058TIP3    H239097   1.042   7.021   7.239
13059TIP3   OH239098   1.764   5.359   7.265
13059TIP3    H139099   1.673   5.351   7.230
13059TIP3    H239100   1.796   5.266   7.254
13060TIP3   OH239101   0.962   6.806   6.875
13060TIP3    H139102   0.876   6.802   6.918
13060TIP3    H239103   0.988   6.898   6.887
13061TIP3   OH239104   1.175   7.003   6.814
13061TIP3    H139105   1.151   7.082   6.760
13061TIP3    H239106   1.186   6.935   6.744
13062TIP3   OH239107   0.974   5.275   6.885
13062TIP3    H139108   0.930   5.200   6.930
13062TIP3    H239109   1.046   5.230   6.836
13063TIP3   OH239110   1.492   5.159   6.792
13063TIP3    H139111   1.530   5.207   6.715
13063TIP3    H239112   1.397   5.172   6.780
13064TIP3   OH239113   1.586   5.257   6.553
13064TIP3    H139114   1.658   5.203   6.513
13064TIP3    H239115   1.621   5.347   6.537
13065TIP3   OH239116   0.670   5.008   6.779
13065TIP3    H139117   0.722   5.058   6.713
13065TIP3    H239118   0.697   5.051   6.861
13066TIP3   OH239119   1.207   5.161   6.761
13066TIP3    H139120   1.211   5.120   6.674
13066TIP3    H239121   1.195   5.082   6.819
13067TIP3   OH239122   1.238   5.085   6.327
13067TIP3    H139123   1.148   5.121   6.334
13067TIP3    H239124   1.227   4.999   6.373
13068TIP3   OH239125   0.651   5.185   6.407
13068TIP3    H139126   0.712   5.145   6.472
13068TIP3    H239127   0.663   5.279   6.429
13069TIP3   OH239128   1.210   6.728   6.002
13069TIP3    H139129   1.201   6.631   5.987
13069TIP3    H239130   1.166   6.764   5.921
13070TIP3   OH239131   0.691   5.238   7.917
13070TIP3    H139132   0.753   5.244   7.843
13070TIP3    H239133   0.735   5.169   7.970
13071TIP3   OH239134   1.500   5.323   7.697
13071TIP3    H139135   1.519   5.290   7.788
13071TIP3    H239136   1.589   5.317   7.656
13072TIP3   OH239137   1.443   6.874   7.190
13072TIP3    H139138   1.366   6.841   7.140
13072TIP3    H239139   1.422   6.970   7.193
13073TIP3   OH239140   2.704   6.245   5.959
13073TIP3    H139141   2.675   6.337   5.938
13073TIP3    H239142   2.629   6.196   5.922
13074TIP3   OH239143   2.702   6.249   6.338
13074TIP3    H139144   2.734   6.215   6.423
13074TIP3    H239145   2.664   6.170   6.297
13075TIP3   OH239146   2.002   6.144   6.705
13075TIP3    H139147   2.033   6.075   6.766
13075TIP3    H239148   2.082   6.195   6.692
13076TIP3   OH239149   2.945   6.548   6.019
13076TIP3    H139150   2.935   6.478   6.085
13076TIP3    H239151   2.979   6.622   6.071
13077TIP3   OH239152   1.975   6.550   6.428
13077TIP3    H139153   1.967   6.452   6.430
13077TIP3    H239154   2.071   6.560   6.419
13078TIP3   OH239155   1.679   5.754   6.213
13078TIP3    H139156   1.633   5.839   6.220
13078TIP3    H239157   1.609   5.698   6.174
13079TIP3   OH239158   1.738   6.038   6.378
13079TIP3    H139159   1.787   5.962   6.417
13079TIP3    H239160   1.804   6.074   6.317
13080TIP3   OH239161   2.596   7.011   6.036
13080TIP3    H139162   2.640   6.942   5.982
13080TIP3    H239163   2.593   6.969   6.123
13081TIP3   OH239164   2.502   6.473   6.387
13081TIP3    H139165   2.540   6.396   6.341
13081TIP3    H239166   2.587   6.519   6.409
13082TIP3   OH239167   3.516   5.793   6.382
13082TIP3    H139168   3.546   5.877   6.422
13082TIP3    H239169   3.539   5.807   6.289
13083TIP3   OH239170   2.914   5.975   6.419
13083TIP3    H139171   2.958   5.890   6.438
13083TIP3    H239172   2.884   5.959   6.327
13084TIP3   OH239173   2.251   5.634   6.384
13084TIP3    H139174   2.233   5.706   6.320
13084TIP3    H239175   2.206   5.559   6.338
13085TIP3   OH239176   2.946   5.728   6.005
13085TIP3    H139177   3.018   5.710   6.070
13085TIP3    H239178   3.000   5.760   5.930
13086TIP3   OH239179   1.886   5.837   6.488
13086TIP3    H139180   1.969   5.818   6.537
13086TIP3    H239181   1.900   5.780   6.409
13087TIP3   OH239182   2.327   6.033   6.286
13087TIP3    H139183   2.421   6.009   6.296
13087TIP3    H239184   2.289   5.949   6.252
13088TIP3   OH239185   3.592   6.002   6.552
13088TIP3    H139186   3.509   6.048   6.529
13088TIP3    H239187   3.597   6.022   6.647
13089TIP3   OH239188   2.250   5.618   6.817
13089TIP3    H139189   2.189   5.654   6.749
13089TIP3    H239190   2.198   5.635   6.898
13090TIP3   OH239191   2.590   6.463   5.830
13090TIP3    H139192   2.558   6.450   5.740
13090TIP3    H239193   2.551   6.550   5.852
13091TIP3   OH239194   2.357   6.392   6.612
13091TIP3    H139195   2.295   6.459   6.650
13091TIP3    H239196   2.398   6.442   6.539
13092TIP3   OH239197   3.156   5.728   6.176
13092TIP3    H139198   3.156   5.672   6.254
13092TIP3    H239199   3.212   5.802   6.204
13093TIP3   OH239200   2.119   5.733   6.602
13093TIP3    H139201   2.183   5.804   6.625
13093TIP3    H239202   2.167   5.691   6.526
13094TIP3   OH239203   2.184   6.587   6.712
13094TIP3    H139204   2.158   6.672   6.671
13094TIP3    H239205   2.105   6.570   6.767
13095TIP3   OH239206   1.572   6.277   5.946
13095TIP3    H139207   1.540   6.304   5.858
13095TIP3    H239208   1.606   6.361   5.982
13096TIP3   OH239209   3.019   6.793   6.191
13096TIP3    H139210   2.927   6.785   6.226
13096TIP3    H239211   3.012   6.876   6.140
13097TIP3   OH239212   3.308   5.698   6.551
13097TIP3    H139213   3.220   5.720   6.516
13097TIP3    H239214   3.367   5.726   6.478
13098TIP3   OH239215   2.605   5.336   6.529
13098TIP3    H139216   2.593   5.241   6.547
13098TIP3    H239217   2.528   5.373   6.577
13099TIP3   OH239218   2.718   6.840   5.860
13099TIP3    H139219   2.766   6.756   5.839
13099TIP3    H239220   2.781   6.904   5.820
13100TIP3   OH239221   2.856   6.623   5.769
13100TIP3    H139222   2.838   6.544   5.717
13100TIP3    H239223   2.893   6.585   5.851
13101TIP3   OH239224   3.245   6.704   6.531
13101TIP3    H139225   3.234   6.627   6.471
13101TIP3    H239226   3.226   6.778   6.470
13102TIP3   OH239227   2.536   6.100   5.787
13102TIP3    H139228   2.457   6.152   5.763
13102TIP3    H239229   2.584   6.095   5.702
13103TIP3   OH239230   2.494   5.883   5.504
13103TIP3    H139231   2.562   5.935   5.550
13103TIP3    H239232   2.551   5.819   5.457
13104TIP3   OH239233   3.440   6.344   6.377
13104TIP3    H139234   3.355   6.395   6.379
13104TIP3    H239235   3.470   6.366   6.286
13105TIP3   OH239236   2.882   6.181   5.759
13105TIP3    H139237   2.829   6.205   5.839
13105TIP3    H239238   2.967   6.156   5.802
13106TIP3   OH239239   3.118   6.221   6.669
13106TIP3    H139240   3.113   6.306   6.717
13106TIP3    H239241   3.031   6.222   6.623
13107TIP3   OH239242   2.115   6.180   6.178
13107TIP3    H139243   2.072   6.123   6.111
13107TIP3    H239244   2.192   6.126   6.206
13108TIP3   OH239245   2.243   6.587   6.326
13108TIP3    H139246   2.224   6.551   6.239
13108TIP3    H239247   2.334   6.554   6.342
13109TIP3   OH239248   2.248   6.152   6.530
13109TIP3    H139249   2.282   6.126   6.442
13109TIP3    H239250   2.295   6.236   6.548
13110TIP3   OH239251   2.774   6.790   6.306
13110TIP3    H139252   2.764   6.868   6.363
13110TIP3    H239253   2.761   6.715   6.368
13111TIP3   OH239254   2.388   6.710   6.855
13111TIP3    H139255   2.327   6.771   6.901
13111TIP3    H239256   2.325   6.655   6.804
13112TIP3   OH239257   2.722   6.041   5.584
13112TIP3    H139258   2.782   6.100   5.635
13112TIP3    H239259   2.749   6.063   5.491
13113TIP3   OH239260   2.145   6.264   6.956
13113TIP3    H139261   2.148   6.351   7.000
13113TIP3    H239262   2.050   6.243   6.963
13114TIP3   OH239263   2.464   6.723   5.864
13114TIP3    H139264   2.547   6.772   5.875
13114TIP3    H239265   2.407   6.786   5.819
13115TIP3   OH239266   2.183   6.885   6.945
13115TIP3    H139267   2.150   6.880   6.853
13115TIP3    H239268   2.105   6.856   6.996
13116TIP3   OH239269   3.241   5.281   5.633
13116TIP3    H139270   3.158   5.300   5.683
13116TIP3    H239271   3.252   5.364   5.583
13117TIP3   OH239272   1.978   6.023   5.986
13117TIP3    H139273   1.914   6.065   5.925
13117TIP3    H239274   1.947   5.932   5.988
13118TIP3   OH239275   3.039   6.649   5.183
13118TIP3    H139276   3.049   6.746   5.168
13118TIP3    H239277   3.132   6.619   5.170
13119TIP3   OH239278   1.764   6.405   6.887
13119TIP3    H139279   1.699   6.379   6.819
13119TIP3    H239280   1.802   6.319   6.915
13120TIP3   OH239281   1.617   6.596   6.521
13120TIP3    H139282   1.713   6.594   6.512
13120TIP3    H239283   1.605   6.676   6.575
13121TIP3   OH239284   3.483   7.049   6.586
13121TIP3    H139285   3.480   6.951   6.586
13121TIP3    H239286   3.392   7.070   6.616
13122TIP3   OH239287   2.588   6.835   6.712
13122TIP3    H139288   2.586   6.928   6.744
13122TIP3    H239289   2.515   6.796   6.764
13123TIP3   OH239290   2.345   6.962   5.664
13123TIP3    H139291   2.304   6.946   5.577
13123TIP3    H239292   2.316   7.053   5.685
13124TIP3   OH239293   1.784   6.814   6.047
13124TIP3    H139294   1.836   6.805   6.131
13124TIP3    H239295   1.724   6.739   6.056
13125TIP3   OH239296   2.548   6.864   5.302
13125TIP3    H139297   2.608   6.796   5.265
13125TIP3    H239298   2.585   6.875   5.392
13126TIP3   OH239299   2.598   6.916   5.572
13126TIP3    H139300   2.512   6.922   5.618
13126TIP3    H239301   2.653   6.875   5.641
13127TIP3   OH239302   3.370   6.181   6.849
13127TIP3    H139303   3.290   6.193   6.796
13127TIP3    H239304   3.387   6.085   6.837
13128TIP3   OH239305   1.967   6.590   6.877
13128TIP3    H139306   2.017   6.571   6.959
13128TIP3    H239307   1.893   6.526   6.883
13129TIP3   OH239308   2.367   5.411   6.660
13129TIP3    H139309   2.278   5.381   6.632
13129TIP3    H239310   2.341   5.494   6.705
13130TIP3   OH239311   2.901   5.529   6.854
13130TIP3    H139312   2.969   5.497   6.916
13130TIP3    H239313   2.817   5.507   6.900
13131TIP3   OH239314   3.143   5.958   6.775
13131TIP3    H139315   3.090   5.954   6.858
13131TIP3    H239316   3.116   6.043   6.736
13132TIP3   OH239317   2.799   6.088   5.330
13132TIP3    H139318   2.766   6.061   5.242
13132TIP3    H239319   2.881   6.135   5.304
13133TIP3   OH239320   2.511   5.463   5.631
13133TIP3    H139321   2.478   5.457   5.722
13133TIP3    H239322   2.475   5.379   5.595
13134TIP3   OH239323   2.298   5.929   6.679
13134TIP3    H139324   2.247   5.951   6.760
13134TIP3    H239325   2.282   6.009   6.624
13135TIP3   OH239326   2.182   5.814   6.193
13135TIP3    H139327   2.090   5.787   6.209
13135TIP3    H239328   2.197   5.775   6.104
13136TIP3   OH239329   2.674   5.900   5.920
13136TIP3    H139330   2.622   5.971   5.877
13136TIP3    H239331   2.729   5.868   5.846
13137TIP3   OH239332   2.848   6.180   7.009
13137TIP3    H139333   2.826   6.106   7.070
13137TIP3    H239334   2.943   6.190   7.028
13138TIP3   OH239335   2.830   5.929   6.159
13138TIP3    H139336   2.770   5.958   6.087
13138TIP3    H239337   2.865   5.848   6.117
13139TIP3   OH239338   2.116   5.957   6.887
13139TIP3    H139339   2.147   6.019   6.955
13139TIP3    H239340   2.108   5.874   6.938
13140TIP3   OH239341   2.167   5.435   5.596
13140TIP3    H139342   2.161   5.431   5.694
13140TIP3    H239343   2.086   5.484   5.574
13141TIP3   OH239344   1.709   5.481   6.469
13141TIP3    H139345   1.788   5.510   6.520
13141TIP3    H239346   1.747   5.445   6.387
13142TIP3   OH239347   1.684   5.459   5.990
13142TIP3    H139348   1.730   5.493   5.911
13142TIP3    H239349   1.624   5.533   6.007
13143TIP3   OH239350   2.843   6.174   6.584
13143TIP3    H139351   2.874   6.102   6.524
13143TIP3    H239352   2.811   6.120   6.660
13144TIP3   OH239353   2.511   5.641   6.255
13144TIP3    H139354   2.429   5.635   6.308
13144TIP3    H239355   2.580   5.633   6.323
13145TIP3   OH239356   1.944   5.690   6.264
13145TIP3    H139357   1.849   5.694   6.235
13145TIP3    H239358   1.970   5.599   6.240
13146TIP3   OH239359   2.213   5.691   5.950
13146TIP3    H139360   2.308   5.701   5.930
13146TIP3    H239361   2.169   5.711   5.864
13147TIP3   OH239362   3.003   5.713   6.460
13147TIP3    H139363   2.963   5.724   6.549
13147TIP3    H239364   2.941   5.650   6.419
13148TIP3   OH239365   2.052   5.725   5.728
13148TIP3    H139366   1.983   5.677   5.678
13148TIP3    H239367   2.106   5.760   5.654
13149TIP3   OH239368   3.170   7.399   6.674
13149TIP3    H139369   3.162   7.421   6.579
13149TIP3    H239370   3.248   7.452   6.698
13150TIP3   OH239371   2.130   6.512   7.096
13150TIP3    H139372   2.209   6.542   7.145
13150TIP3    H239373   2.065   6.509   7.169
13151TIP3   OH239374   2.593   5.965   6.351
13151TIP3    H139375   2.664   5.926   6.298
13151TIP3    H239376   2.604   5.918   6.436
13152TIP3   OH239377   2.116   5.454   6.228
13152TIP3    H139378   2.083   5.374   6.274
13152TIP3    H239379   2.169   5.415   6.157
13153TIP3   OH239380   2.569   5.858   6.643
13153TIP3    H139381   2.480   5.896   6.654
13153TIP3    H239382   2.627   5.921   6.691
13154TIP3   OH239383   2.304   6.253   5.734
13154TIP3    H139384   2.232   6.186   5.725
13154TIP3    H239385   2.287   6.286   5.826
13155TIP3   OH239386   3.205   6.488   6.368
13155TIP3    H139387   3.232   6.537   6.287
13155TIP3    H239388   3.121   6.445   6.340
13156TIP3   OH239389   2.765   5.563   5.601
13156TIP3    H139390   2.668   5.546   5.606
13156TIP3    H239391   2.772   5.658   5.623
13157TIP3   OH239392   2.708   6.570   6.733
13157TIP3    H139393   2.727   6.547   6.824
13157TIP3    H239394   2.668   6.659   6.740
13158TIP3   OH239395   2.834   5.813   5.703
13158TIP3    H139396   2.930   5.817   5.717
13158TIP3    H239397   2.817   5.892   5.648
13159TIP3   OH239398   1.994   6.269   6.412
13159TIP3    H139399   2.034   6.244   6.325
13159TIP3    H239400   2.044   6.211   6.472
13160TIP3   OH239401   2.451   6.401   5.556
13160TIP3    H139402   2.404   6.487   5.561
13160TIP3    H239403   2.398   6.346   5.617
13161TIP3   OH239404   1.879   6.195   7.026
13161TIP3    H139405   1.900   6.181   7.120
13161TIP3    H239406   1.811   6.127   7.010
13162TIP3   OH239407   2.604   6.308   7.044
13162TIP3    H139408   2.545   6.250   6.995
13162TIP3    H239409   2.692   6.273   7.017
13163TIP3   OH239410   2.867   6.831   6.630
13163TIP3    H139411   2.771   6.826   6.640
13163TIP3    H239412   2.891   6.884   6.708
13164TIP3   OH239413   3.277   5.902   5.538
13164TIP3    H139414   3.214   5.858   5.476
13164TIP3    H239415   3.273   5.991   5.497
13165TIP3   OH239416   3.495   6.762   6.617
13165TIP3    H139417   3.398   6.753   6.607
13165TIP3    H239418   3.523   6.729   6.528
13166TIP3   OH239419   2.958   6.721   5.441
13166TIP3    H139420   2.962   6.649   5.504
13166TIP3    H239421   2.988   6.681   5.357
13167TIP3   OH239422   2.972   6.349   6.288
13167TIP3    H139423   2.878   6.324   6.297
13167TIP3    H239424   3.007   6.270   6.241
13168TIP3   OH239425   2.101   6.579   6.040
13168TIP3    H139426   2.104   6.658   5.984
13168TIP3    H239427   2.006   6.562   6.043
13169TIP3   OH239428   1.662   5.882   5.737
13169TIP3    H139429   1.710   5.965   5.758
13169TIP3    H239430   1.588   5.887   5.801
13170TIP3   OH239431   2.236   6.342   5.981
13170TIP3    H139432   2.204   6.432   6.000
13170TIP3    H239433   2.201   6.292   6.057
13171TIP3   OH239434   2.368   6.923   6.506
13171TIP3    H139435   2.409   6.994   6.453
13171TIP3    H239436   2.446   6.885   6.550
13172TIP3   OH239437   2.019   6.817   5.889
13172TIP3    H139438   1.934   6.827   5.935
13172TIP3    H239439   2.052   6.909   5.891
13173TIP3   OH239440   2.758   6.556   6.464
13173TIP3    H139441   2.750   6.551   6.561
13173TIP3    H239442   2.835   6.500   6.447
13174TIP3   OH239443   2.731   6.444   5.349
13174TIP3    H139444   2.786   6.423   5.427
13174TIP3    H239445   2.643   6.420   5.382
13175TIP3   OH239446   3.006   7.092   6.517
13175TIP3    H139447   2.928   7.035   6.507
13175TIP3    H239448   2.993   7.156   6.443
13176TIP3   OH239449   3.068   6.922   5.162
13176TIP3    H139450   3.129   6.996   5.145
13176TIP3    H239451   2.989   6.973   5.189
13177TIP3   OH239452   2.091   5.701   7.034
13177TIP3    H139453   1.994   5.702   7.046
13177TIP3    H239454   2.119   5.639   7.103
13178TIP3   OH239455   2.892   6.386   5.569
13178TIP3    H139456   2.883   6.316   5.637
13178TIP3    H239457   2.988   6.381   5.552
13179TIP3   OH239458   1.807   6.783   6.664
13179TIP3    H139459   1.861   6.710   6.698
13179TIP3    H239460   1.832   6.854   6.724
13180TIP3   OH239461   2.095   6.430   5.348
13180TIP3    H139462   2.114   6.339   5.318
13180TIP3    H239463   2.077   6.415   5.443
13181TIP3   OH239464   2.041   6.433   5.623
13181TIP3    H139465   2.119   6.407   5.673
13181TIP3    H239466   2.047   6.531   5.627
13182TIP3   OH239467   1.777   6.126   5.822
13182TIP3    H139468   1.713   6.174   5.879
13182TIP3    H239469   1.795   6.194   5.754
13183TIP3   OH239470   2.923   5.769   6.720
13183TIP3    H139471   3.010   5.799   6.752
13183TIP3    H239472   2.911   5.686   6.771
13184TIP3   OH239473   2.802   5.518   5.881
13184TIP3    H139474   2.793   5.537   5.786
13184TIP3    H239475   2.844   5.600   5.914
13185TIP3   OH239476   2.307   6.629   5.568
13185TIP3    H139477   2.221   6.659   5.603
13185TIP3    H239478   2.327   6.701   5.506
13186TIP3   OH239479   2.495   5.696   5.982
13186TIP3    H139480   2.561   5.766   5.964
13186TIP3    H239481   2.502   5.689   6.080
13187TIP3   OH239482   2.765   6.013   6.789
13187TIP3    H139483   2.789   6.063   6.870
13187TIP3    H239484   2.820   5.933   6.797
13188TIP3   OH239485   2.640   5.423   6.084
13188TIP3    H139486   2.637   5.501   6.143
13188TIP3    H239487   2.700   5.457   6.014
13189TIP3   OH239488   2.050   6.707   5.635
13189TIP3    H139489   2.021   6.776   5.572
13189TIP3    H239490   2.036   6.751   5.721
13190TIP3   OH239491   2.151   5.421   5.873
13190TIP3    H139492   2.153   5.511   5.911
13190TIP3    H239493   2.247   5.398   5.881
13191TIP3   OH239494   3.409   5.915   6.768
13191TIP3    H139495   3.312   5.914   6.778
13191TIP3    H239496   3.417   5.867   6.684
13192TIP3   OH239497   3.057   6.109   6.160
13192TIP3    H139498   2.982   6.047   6.169
13192TIP3    H239499   3.129   6.061   6.206
13193TIP3   OH239500   1.769   6.338   5.627
13193TIP3    H139501   1.838   6.406   5.637
13193TIP3    H239502   1.815   6.282   5.561
13194TIP3   OH239503   1.711   5.613   5.768
13194TIP3    H139504   1.713   5.710   5.757
13194TIP3    H239505   1.641   5.586   5.707
13195TIP3   OH239506   3.024   7.064   6.109
13195TIP3    H139507   2.983   7.112   6.034
13195TIP3    H239508   3.119   7.082   6.089
13196TIP3   OH239509   2.099   5.333   6.636
13196TIP3    H139510   2.071   5.299   6.549
13196TIP3    H239511   2.091   5.254   6.693
13197TIP3   OH239512   1.639   6.543   6.017
13197TIP3    H139513   1.566   6.584   6.066
13197TIP3    H239514   1.626   6.585   5.929
13198TIP3   OH239515   1.797   7.091   7.085
13198TIP3    H139516   1.882   7.086   7.133
13198TIP3    H239517   1.771   6.997   7.084
13199TIP3   OH239518   2.310   7.065   7.126
13199TIP3    H139519   2.391   7.012   7.130
13199TIP3    H239520   2.261   7.015   7.058
13200TIP3   OH239521   2.261   6.633   5.260
13200TIP3    H139522   2.206   6.560   5.297
13200TIP3    H239523   2.337   6.582   5.227
13201TIP3   OH239524   2.912   6.967   6.869
13201TIP3    H139525   2.900   6.894   6.935
13201TIP3    H239526   2.991   7.012   6.902
13202TIP3   OH239527   2.697   6.673   5.169
13202TIP3    H139528   2.746   6.617   5.232
13202TIP3    H239529   2.756   6.675   5.092
13203TIP3   OH239530   1.929   6.498   7.288
13203TIP3    H139531   1.944   6.402   7.293
13203TIP3    H239532   1.841   6.501   7.243
13204TIP3   OH239533   1.904   6.149   5.482
13204TIP3    H139534   1.961   6.115   5.553
13204TIP3    H239535   1.970   6.154   5.409
13205TIP3   OH239536   2.536   6.583   7.060
13205TIP3    H139537   2.494   6.599   6.973
13205TIP3    H239538   2.566   6.490   7.053
13206TIP3   OH239539   2.409   6.347   5.287
13206TIP3    H139540   2.418   6.359   5.384
13206TIP3    H239541   2.413   6.249   5.282
13207TIP3   OH239542   3.030   6.592   6.671
13207TIP3    H139543   3.103   6.634   6.622
13207TIP3    H239544   2.958   6.656   6.652
13208TIP3   OH239545   2.047   6.232   7.269
13208TIP3    H139546   2.122   6.176   7.247
13208TIP3    H239547   2.073   6.266   7.357
13209TIP3   OH239548   2.112   6.052   5.702
13209TIP3    H139549   2.091   6.006   5.785
13209TIP3    H239550   2.151   5.980   5.648
13210TIP3   OH239551   2.382   6.117   6.931
13210TIP3    H139552   2.304   6.177   6.931
13210TIP3    H239553   2.433   6.151   6.854
13211TIP3   OH239554   2.214   5.848   5.544
13211TIP3    H139555   2.190   5.850   5.449
13211TIP3    H239556   2.312   5.849   5.538
13212TIP3   OH239557   2.902   6.521   7.066
13212TIP3    H139558   2.977   6.492   7.013
13212TIP3    H239559   2.896   6.452   7.134
13213TIP3   OH239560   3.035   6.178   5.207
13213TIP3    H139561   3.015   6.132   5.122
13213TIP3    H239562   3.003   6.268   5.184
13214TIP3   OH239563   2.505   5.905   7.057
13214TIP3    H139564   2.506   5.825   7.001
13214TIP3    H239565   2.462   5.971   6.998
13215TIP3   OH239566   2.508   5.693   6.866
13215TIP3    H139567   2.537   5.733   6.782
13215TIP3    H239568   2.414   5.669   6.846
13216TIP3   OH239569   2.536   6.229   6.739
13216TIP3    H139570   2.619   6.234   6.690
13216TIP3    H239571   2.480   6.295   6.693
13217TIP3   OH239572   3.119   6.195   7.120
13217TIP3    H139573   3.164   6.109   7.125
13217TIP3    H239574   3.188   6.251   7.082
13218TIP3   OH239575   3.159   6.450   6.859
13218TIP3    H139576   3.101   6.502   6.798
13218TIP3    H239577   3.247   6.468   6.818
13219TIP3   OH239578   2.383   6.018   7.288
13219TIP3    H139579   2.315   5.949   7.302
13219TIP3    H239580   2.418   5.993   7.200
13220TIP3   OH239581   2.641   5.456   6.932
13220TIP3    H139582   2.590   5.537   6.909
13220TIP3    H239583   2.573   5.387   6.919
13221TIP3   OH239584   2.765   5.961   7.148
13221TIP3    H139585   2.752   5.946   7.243
13221TIP3    H239586   2.676   5.935   7.116
13222TIP3   OH239587   3.007   5.915   7.005
13222TIP3    H139588   2.931   5.911   7.066
13222TIP3    H239589   3.080   5.880   7.060
13223TIP3   OH239590   3.238   5.851   7.154
13223TIP3    H139591   3.249   5.755   7.170
13223TIP3    H239592   3.234   5.888   7.244
13224TIP3   OH239593   2.223   5.799   7.340
13224TIP3    H139594   2.228   5.708   7.305
13224TIP3    H239595   2.260   5.785   7.430
13225TIP3   OH239596   2.735   5.465   7.189
13225TIP3    H139597   2.802   5.394   7.183
13225TIP3    H239598   2.695   5.460   7.100
13226TIP3   OH239599   2.802   5.681   7.348
13226TIP3    H139600   2.781   5.609   7.284
13226TIP3    H239601   2.723   5.739   7.340
13227TIP3   OH239602   2.021   6.909   5.447
13227TIP3    H139603   2.117   6.903   5.430
13227TIP3    H239604   1.994   6.959   5.368
13228TIP3   OH239605   1.502   6.289   5.668
13228TIP3    H139606   1.596   6.312   5.650
13228TIP3    H239607   1.496   6.200   5.626
13229TIP3   OH239608   1.415   6.902   6.078
13229TIP3    H139609   1.349   6.841   6.040
13229TIP3    H239610   1.459   6.845   6.144
13230TIP3   OH239611   1.552   6.754   6.264
13230TIP3    H139612   1.545   6.681   6.329
13230TIP3    H239613   1.603   6.819   6.317
13231TIP3   OH239614   3.276   7.156   6.070
13231TIP3    H139615   3.318   7.203   6.143
13231TIP3    H239616   3.331   7.180   5.995
13232TIP3   OH239617   3.305   7.179   6.358
13232TIP3    H139618   3.263   7.093   6.337
13232TIP3    H239619   3.391   7.149   6.391
13233TIP3   OH239620   3.360   6.862   6.925
13233TIP3    H139621   3.283   6.851   6.985
13233TIP3    H239622   3.390   6.950   6.948
13234TIP3   OH239623   3.170   6.367   5.539
13234TIP3    H139624   3.236   6.433   5.509
13234TIP3    H239625   3.216   6.329   5.617
13235TIP3   OH239626   3.299   6.231   5.742
13235TIP3    H139627   3.232   6.190   5.801
13235TIP3    H239628   3.361   6.272   5.805
13236TIP3   OH239629   3.350   6.618   6.179
13236TIP3    H139630   3.402   6.555   6.125
13236TIP3    H239631   3.356   6.700   6.124
13237TIP3   OH239632   3.185   6.923   6.373
13237TIP3    H139633   3.110   6.968   6.417
13237TIP3    H239634   3.141   6.876   6.300
13238TIP3   OH239635   3.236   6.140   5.390
13238TIP3    H139636   3.165   6.142   5.322
13238TIP3    H239637   3.210   6.217   5.444
13239TIP3   OH239638   3.107   5.814   5.346
13239TIP3    H139639   3.066   5.850   5.266
13239TIP3    H239640   3.082   5.719   5.337
13240TIP3   OH239641   3.112   6.089   5.890
13240TIP3    H139642   3.120   5.993   5.882
13240TIP3    H239643   3.099   6.101   5.987
13241TIP3   OH239644   1.739   6.165   6.634
13241TIP3    H139645   1.740   6.134   6.541
13241TIP3    H239646   1.836   6.166   6.653
13242TIP3   OH239647   3.403   6.514   6.748
13242TIP3    H139648   3.474   6.447   6.738
13242TIP3    H239649   3.425   6.577   6.678
13243TIP3   OH239650   3.587   6.319   6.767
13243TIP3    H139651   3.512   6.268   6.804
13243TIP3    H239652   3.660   6.254   6.781
13244TIP3   OH239653   3.050   5.549   5.332
13244TIP3    H139654   3.125   5.515   5.385
13244TIP3    H239655   2.978   5.486   5.353
13245TIP3   OH239656   3.109   5.805   5.785
13245TIP3    H139657   3.149   5.716   5.800
13245TIP3    H239658   3.168   5.836   5.714
13246TIP3   OH239659   3.272   5.980   6.280
13246TIP3    H139660   3.357   6.006   6.239
13246TIP3    H239661   3.286   6.016   6.370
13247TIP3   OH239662   3.341   6.123   6.513
13247TIP3    H139663   3.262   6.157   6.558
13247TIP3    H239664   3.373   6.204   6.466
13248TIP3   OH239665   1.956   5.849   7.312
13248TIP3    H139666   2.054   5.842   7.312
13248TIP3    H239667   1.933   5.763   7.352
13249TIP3   OH239668   3.794   5.715   7.068
13249TIP3    H139669   3.851   5.649   7.025
13249TIP3    H239670   3.763   5.768   6.991
13250TIP3   OH239671   3.216   5.555   5.823
13250TIP3    H139672   3.266   5.538   5.906
13250TIP3    H239673   3.157   5.477   5.821
13251TIP3   OH239674   1.916   5.542   6.646
13251TIP3    H139675   1.977   5.465   6.652
13251TIP3    H239676   1.980   5.614   6.635
13252TIP3   OH239677   1.719   5.816   6.713
13252TIP3    H139678   1.770   5.807   6.630
13252TIP3    H239679   1.755   5.899   6.748
13253TIP3   OH239680   3.662   5.853   6.873
13253TIP3    H139681   3.574   5.893   6.888
13253TIP3    H239682   3.635   5.780   6.813
13254TIP3   OH239683   3.299   5.490   5.455
13254TIP3    H139684   3.337   5.416   5.401
13254TIP3    H239685   3.368   5.559   5.446
13255TIP3   OH239686   1.704   5.326   6.222
13255TIP3    H139687   1.609   5.315   6.240
13255TIP3    H239688   1.703   5.379   6.140
13256TIP3   OH239689   2.861   7.025   5.723
13256TIP3    H139690   2.907   7.005   5.638
13256TIP3    H239691   2.925   7.085   5.764
13257TIP3   OH239692   1.925   5.402   7.032
13257TIP3    H139693   1.872   5.394   7.113
13257TIP3    H239694   1.857   5.435   6.970
13258TIP3   OH239695   1.965   6.828   7.112
13258TIP3    H139696   1.874   6.799   7.089
13258TIP3    H239697   1.969   6.801   7.205
13259TIP3   OH239698   2.143   6.859   6.658
13259TIP3    H139699   2.094   6.933   6.616
13259TIP3    H239700   2.229   6.873   6.612
13260TIP3   OH239701   2.590   7.103   6.800
13260TIP3    H139702   2.636   7.105   6.886
13260TIP3    H239703   2.654   7.150   6.743
13261TIP3   OH239704   2.764   7.253   6.653
13261TIP3    H139705   2.831   7.205   6.602
13261TIP3    H239706   2.820   7.309   6.711
13262TIP3   OH239707   3.559   5.615   6.752
13262TIP3    H139708   3.469   5.607   6.717
13262TIP3    H239709   3.592   5.523   6.741
13263TIP3   OH239710   1.818   7.114   6.679
13263TIP3    H139711   1.729   7.148   6.652
13263TIP3    H239712   1.823   7.149   6.768
13264TIP3   OH239713   2.056   7.094   6.537
13264TIP3    H139714   1.968   7.106   6.580
13264TIP3    H239715   2.038   7.126   6.447
13265TIP3   OH239716   2.479   7.121   6.336
13265TIP3    H139717   2.413   7.140   6.266
13265TIP3    H239718   2.493   7.210   6.374
13266TIP3   OH239719   2.750   7.064   6.390
13266TIP3    H139720   2.656   7.080   6.366
13266TIP3    H239721   2.795   7.133   6.340
13267TIP3   OH239722   2.957   7.253   6.301
13267TIP3    H139723   2.942   7.337   6.253
13267TIP3    H239724   2.984   7.193   6.227
13268TIP3   OH239725   1.729   6.908   6.422
13268TIP3    H139726   1.755   6.882   6.513
13268TIP3    H239727   1.801   6.864   6.372
13269TIP3   OH239728   1.923   6.779   6.279
13269TIP3    H139729   1.940   6.695   6.328
13269TIP3    H239730   2.013   6.817   6.273
13270TIP3   OH239731   2.188   6.875   6.283
13270TIP3    H139732   2.221   6.785   6.267
13270TIP3    H239733   2.233   6.896   6.367
13271TIP3   OH239734   2.764   5.531   6.369
13271TIP3    H139735   2.722   5.460   6.421
13271TIP3    H239736   2.837   5.484   6.325
13272TIP3   OH239737   3.288   5.421   6.279
13272TIP3    H139738   3.324   5.465   6.199
13272TIP3    H239739   3.192   5.428   6.265
13273TIP3   OH239740   3.383   5.512   6.040
13273TIP3    H139741   3.455   5.459   5.999
13273TIP3    H239742   3.417   5.603   6.024
13274TIP3   OH239743   2.013   5.241   6.388
13274TIP3    H139744   1.921   5.208   6.388
13274TIP3    H239745   2.062   5.155   6.384
13275TIP3   OH239746   1.799   5.109   6.035
13275TIP3    H139747   1.833   5.163   5.961
13275TIP3    H239748   1.776   5.177   6.101
13276TIP3   OH239749   2.454   5.276   6.268
13276TIP3    H139750   2.514   5.320   6.205
13276TIP3    H239751   2.487   5.310   6.353
13277TIP3   OH239752   3.005   5.418   6.250
13277TIP3    H139753   3.004   5.379   6.161
13277TIP3    H239754   2.992   5.338   6.306
13278TIP3   OH239755   3.035   5.341   5.814
13278TIP3    H139756   2.945   5.378   5.820
13278TIP3    H239757   3.022   5.255   5.860
13279TIP3   OH239758   1.516   6.682   5.818
13279TIP3    H139759   1.431   6.650   5.781
13279TIP3    H239760   1.508   6.776   5.797
13280TIP3   OH239761   1.918   5.269   5.797
13280TIP3    H139762   1.964   5.204   5.741
13280TIP3    H239763   1.993   5.321   5.832
13281TIP3   OH239764   2.428   5.446   5.897
13281TIP3    H139765   2.488   5.394   5.953
13281TIP3    H239766   2.455   5.536   5.923
13282TIP3   OH239767   2.290   6.870   5.397
13282TIP3    H139768   2.379   6.891   5.362
13282TIP3    H239769   2.268   6.795   5.337
13283TIP3   OH239770   3.001   6.986   5.489
13283TIP3    H139771   2.995   6.889   5.476
13283TIP3    H239772   2.964   7.017   5.404
13284TIP3   OH239773   2.221   5.523   7.279
13284TIP3    H139774   2.187   5.451   7.334
13284TIP3    H239775   2.316   5.522   7.305
13285TIP3   OH239776   2.472   5.519   7.397
13285TIP3    H139777   2.555   5.492   7.356
13285TIP3    H239778   2.460   5.448   7.464
13286TIP3   OH239779   1.593   6.705   5.452
13286TIP3    H139780   1.596   6.734   5.544
13286TIP3    H239781   1.682   6.664   5.439
13287TIP3   OH239782   3.297   5.580   7.184
13287TIP3    H139783   3.315   5.547   7.275
13287TIP3    H239784   3.385   5.573   7.142
13288TIP3   OH239785   3.231   7.130   6.687
13288TIP3    H139786   3.159   7.097   6.629
13288TIP3    H239787   3.214   7.226   6.680
13289TIP3   OH239788   4.499   6.503   5.446
13289TIP3    H139789   4.472   6.595   5.425
13289TIP3    H239790   4.424   6.454   5.409
13290TIP3   OH239791   4.498   6.505   5.823
13290TIP3    H139792   4.531   6.473   5.909
13290TIP3    H239793   4.459   6.426   5.785
13291TIP3   OH239794   3.800   6.402   6.193
13291TIP3    H139795   3.835   6.332   6.252
13291TIP3    H239796   3.880   6.451   6.171
13292TIP3   OH239797   4.740   6.809   5.505
13292TIP3    H139798   4.732   6.735   5.567
13292TIP3    H239799   4.774   6.880   5.561
13293TIP3   OH239800   3.774   6.804   5.935
13293TIP3    H139801   3.766   6.707   5.927
13293TIP3    H239802   3.866   6.817   5.906
13294TIP3   OH239803   3.478   6.011   5.700
13294TIP3    H139804   3.429   6.095   5.714
13294TIP3    H239805   3.409   5.957   5.659
13295TIP3   OH239806   3.536   6.300   5.872
13295TIP3    H139807   3.587   6.222   5.904
13295TIP3    H239808   3.590   6.331   5.798
13296TIP3   OH239809   4.394   7.270   5.523
13296TIP3    H139810   4.439   7.199   5.471
13296TIP3    H239811   4.384   7.227   5.609
13297TIP3   OH239812   4.299   6.729   5.875
13297TIP3    H139813   4.335   6.653   5.826
13297TIP3    H239814   4.384   6.773   5.897
13298TIP3   OH239815   5.311   6.047   5.869
13298TIP3    H139816   5.338   6.132   5.909
13298TIP3    H239817   5.352   6.056   5.781
13299TIP3   OH239818   4.709   6.231   5.907
13299TIP3    H139819   4.754   6.146   5.925
13299TIP3    H239820   4.681   6.217   5.814
13300TIP3   OH239821   4.050   5.890   5.870
13300TIP3    H139822   4.028   5.962   5.807
13300TIP3    H239823   4.003   5.816   5.825
13301TIP3   OH239824   4.746   5.984   5.492
13301TIP3    H139825   4.819   5.966   5.555
13301TIP3    H239826   4.797   6.018   5.416
13302TIP3   OH239827   3.683   6.092   5.976
13302TIP3    H139828   3.766   6.071   6.023
13302TIP3    H239829   3.694   6.036   5.896
13303TIP3   OH239830   4.123   6.288   5.773
13303TIP3    H139831   4.217   6.263   5.783
13303TIP3    H239832   4.084   6.206   5.738
13304TIP3   OH239833   5.384   6.253   6.045
13304TIP3    H139834   5.305   6.304   6.019
13304TIP3    H239835   5.408   6.297   6.128
13305TIP3   OH239836   4.046   5.875   6.305
13305TIP3    H139837   3.986   5.910   6.236
13305TIP3    H239838   3.993   5.893   6.385
13306TIP3   OH239839   4.394   6.725   5.312
13306TIP3    H139840   4.349   6.704   5.230
13306TIP3    H239841   4.350   6.809   5.337
13307TIP3   OH239842   4.155   6.650   6.101
13307TIP3    H139843   4.091   6.715   6.136
13307TIP3    H239844   4.192   6.697   6.023
13308TIP3   OH239845   4.958   5.981   5.665
13308TIP3    H139846   4.942   5.939   5.750
13308TIP3    H239847   5.008   6.061   5.690
13309TIP3   OH239848   3.917   5.988   6.088
13309TIP3    H139849   3.981   6.060   6.111
13309TIP3    H239850   3.964   5.947   6.012
13310TIP3   OH239851   3.983   6.843   6.203
13310TIP3    H139852   3.955   6.921   6.152
13310TIP3    H239853   3.902   6.828   6.255
13311TIP3   OH239854   3.375   6.538   5.435
13311TIP3    H139855   3.336   6.574   5.354
13311TIP3    H239856   3.422   6.618   5.470
13312TIP3   OH239857   4.814   7.049   5.674
13312TIP3    H139858   4.724   7.040   5.711
13312TIP3    H239859   4.806   7.135   5.627
13313TIP3   OH239860   5.105   5.946   6.034
13313TIP3    H139861   5.019   5.978   6.003
13313TIP3    H239862   5.166   5.982   5.966
13314TIP3   OH239863   4.404   5.592   6.020
13314TIP3    H139864   4.387   5.497   6.034
13314TIP3    H239865   4.325   5.631   6.065
13315TIP3   OH239866   4.517   7.096   5.349
13315TIP3    H139867   4.565   7.013   5.329
13315TIP3    H239868   4.579   7.160   5.306
13316TIP3   OH239869   4.659   6.881   5.252
13316TIP3    H139870   4.620   6.802   5.214
13316TIP3    H239871   4.694   6.846   5.337
13317TIP3   OH239872   5.031   6.964   6.019
13317TIP3    H139873   5.033   6.883   5.963
13317TIP3    H239874   5.028   7.035   5.952
13318TIP3   OH239875   4.333   6.356   5.274
13318TIP3    H139876   4.252   6.407   5.254
13318TIP3    H239877   4.378   6.353   5.188
13319TIP3   OH239878   4.290   6.140   4.990
13319TIP3    H139879   4.357   6.192   5.038
13319TIP3    H239880   4.348   6.077   4.943
13320TIP3   OH239881   5.235   6.596   5.862
13320TIP3    H139882   5.154   6.651   5.870
13320TIP3    H239883   5.264   6.620   5.772
13321TIP3   OH239884   4.677   6.439   5.245
13321TIP3    H139885   4.625   6.463   5.325
13321TIP3    H239886   4.762   6.412   5.286
13322TIP3   OH239887   4.915   6.475   6.157
13322TIP3    H139888   4.919   6.560   6.205
13322TIP3    H239889   4.829   6.485   6.111
13323TIP3   OH239890   3.911   6.435   5.663
13323TIP3    H139891   3.868   6.380   5.594
13323TIP3    H239892   3.988   6.380   5.690
13324TIP3   OH239893   4.038   6.846   5.812
13324TIP3    H139894   4.013   6.809   5.726
13324TIP3    H239895   4.128   6.809   5.824
13325TIP3   OH239896   4.049   6.406   6.020
13325TIP3    H139897   4.078   6.383   5.929
13325TIP3    H239898   4.091   6.493   6.034
13326TIP3   OH239899   4.571   7.046   5.793
13326TIP3    H139900   4.559   7.125   5.848
13326TIP3    H239901   4.557   6.972   5.855
13327TIP3   OH239902   4.185   6.961   6.350
13327TIP3    H139903   4.120   7.024   6.388
13327TIP3    H239904   4.123   6.907   6.295
13328TIP3   OH239905   4.520   6.295   5.071
13328TIP3    H139906   4.578   6.355   5.123
13328TIP3    H239907   4.547   6.318   4.979
13329TIP3   OH239908   3.942   6.518   6.446
13329TIP3    H139909   3.943   6.606   6.488
13329TIP3    H239910   3.847   6.499   6.446
13330TIP3   OH239911   4.264   6.974   5.348
13330TIP3    H139912   4.341   7.031   5.363
13330TIP3    H239913   4.200   7.035   5.307
13331TIP3   OH239914   3.982   7.134   6.428
13331TIP3    H139915   3.950   7.135   6.335
13331TIP3    H239916   3.901   7.110   6.478
13332TIP3   OH239917   5.034   5.539   5.119
13332TIP3    H139918   4.951   5.556   5.168
13332TIP3    H239919   5.052   5.628   5.082
13333TIP3   OH239920   3.778   6.279   5.466
13333TIP3    H139921   3.712   6.328   5.412
13333TIP3    H239922   3.734   6.194   5.477
13334TIP3   OH239923   4.834   6.904   4.666
13334TIP3    H139924   4.843   7.001   4.654
13334TIP3    H239925   4.926   6.875   4.654
13335TIP3   OH239926   3.559   6.663   6.375
13335TIP3    H139927   3.495   6.645   6.302
13335TIP3    H239928   3.595   6.574   6.394
13336TIP3   OH239929   3.420   6.842   6.039
13336TIP3    H139930   3.500   6.845   5.986
13336TIP3    H239931   3.398   6.935   6.050
13337TIP3   OH239932   5.278   7.311   6.057
13337TIP3    H139933   5.281   7.213   6.070
13337TIP3    H239934   5.195   7.331   6.107
13338TIP3   OH239935   4.385   7.089   6.206
13338TIP3    H139936   4.383   7.184   6.230
13338TIP3    H239937   4.308   7.054   6.255
13339TIP3   OH239938   4.146   7.224   5.148
13339TIP3    H139939   4.097   7.203   5.066
13339TIP3    H239940   4.111   7.311   5.173
13340TIP3   OH239941   4.346   7.123   4.789
13340TIP3    H139942   4.405   7.054   4.753
13340TIP3    H239943   4.379   7.132   4.880
13341TIP3   OH239944   4.396   7.170   5.058
13341TIP3    H139945   4.307   7.181   5.099
13341TIP3    H239946   4.444   7.127   5.131
13342TIP3   OH239947   5.167   6.434   6.343
13342TIP3    H139948   5.094   6.458   6.284
13342TIP3    H239949   5.180   6.339   6.323
13343TIP3   OH239950   3.763   6.847   6.367
13343TIP3    H139951   3.813   6.823   6.447
13343TIP3    H239952   3.689   6.783   6.368
13344TIP3   OH239953   4.164   5.668   6.146
13344TIP3    H139954   4.075   5.637   6.118
13344TIP3    H239955   4.138   5.751   6.191
13345TIP3   OH239956   4.697   5.786   6.341
13345TIP3    H139957   4.764   5.755   6.405
13345TIP3    H239958   4.612   5.764   6.386
13346TIP3   OH239959   4.935   6.211   6.257
13346TIP3    H139960   4.886   6.212   6.342
13346TIP3    H239961   4.918   6.300   6.221
13347TIP3   OH239962   4.595   6.343   4.816
13347TIP3    H139963   4.562   6.317   4.727
13347TIP3    H239964   4.676   6.392   4.792
13348TIP3   OH239965   4.310   5.717   5.118
13348TIP3    H139966   4.274   5.714   5.209
13348TIP3    H239967   4.270   5.635   5.082
13349TIP3   OH239968   4.097   6.184   6.167
13349TIP3    H139969   4.042   6.205   6.246
13349TIP3    H239970   4.081   6.264   6.112
13350TIP3   OH239971   3.979   6.070   5.680
13350TIP3    H139972   3.886   6.046   5.696
13350TIP3    H239973   3.992   6.031   5.590
13351TIP3   OH239974   4.470   6.156   5.407
13351TIP3    H139975   4.418   6.227   5.365
13351TIP3    H239976   4.526   6.126   5.332
13352TIP3   OH239977   4.646   6.447   6.514
13352TIP3    H139978   4.629   6.364   6.563
13352TIP3    H239979   4.742   6.458   6.528
13353TIP3   OH239980   4.626   6.185   5.647
13353TIP3    H139981   4.568   6.217   5.575
13353TIP3    H239982   4.660   6.104   5.603
13354TIP3   OH239983   3.917   6.214   6.374
13354TIP3    H139984   3.936   6.277   6.444
13354TIP3    H239985   3.904   6.131   6.424
13355TIP3   OH239986   3.965   5.692   5.084
13355TIP3    H139987   3.955   5.688   5.181
13355TIP3    H239988   3.885   5.743   5.060
13356TIP3   OH239989   3.506   5.736   5.957
13356TIP3    H139990   3.585   5.766   6.006
13356TIP3    H239991   3.541   5.704   5.873
13357TIP3   OH239992   3.482   5.717   5.475
13357TIP3    H139993   3.527   5.754   5.396
13357TIP3    H239994   3.420   5.790   5.494
13358TIP3   OH239995   4.630   6.430   6.069
13358TIP3    H139996   4.667   6.360   6.010
13358TIP3    H239997   4.604   6.376   6.146
13359TIP3   OH239998   4.307   5.892   5.741
13359TIP3    H139999   4.223   5.890   5.791
13359TIP3    H240000   4.372   5.894   5.813
13360TIP3   OH240001   3.740   5.948   5.750
13360TIP3    H140002   3.646   5.956   5.722
13360TIP3    H240003   3.762   5.856   5.725
13361TIP3   OH240004   4.010   5.946   5.437
13361TIP3    H140005   4.104   5.960   5.413
13361TIP3    H240006   3.962   5.967   5.354
13362TIP3   OH240007   4.797   5.968   5.944
13362TIP3    H140008   4.760   5.981   6.034
13362TIP3    H240009   4.731   5.906   5.907
13363TIP3   OH240010   3.852   5.977   5.217
13363TIP3    H140011   3.778   5.934   5.170
13363TIP3    H240012   3.903   6.013   5.141
13364TIP3   OH240013   4.966   7.660   6.161
13364TIP3    H140014   4.966   7.681   6.066
13364TIP3    H240015   5.046   7.706   6.192
13365TIP3   OH240016   3.925   6.767   6.584
13365TIP3    H140017   4.004   6.799   6.632
13365TIP3    H240018   3.860   6.764   6.657
13366TIP3   OH240019   4.390   6.219   5.837
13366TIP3    H140020   4.463   6.184   5.784
13366TIP3    H240021   4.403   6.175   5.923
13367TIP3   OH240022   3.916   5.708   5.717
13367TIP3    H140023   3.879   5.629   5.762
13367TIP3    H240024   3.959   5.669   5.640
13368TIP3   OH240025   4.366   6.113   6.131
13368TIP3    H140026   4.276   6.151   6.141
13368TIP3    H240027   4.423   6.177   6.179
13369TIP3   OH240028   4.104   6.508   5.226
13369TIP3    H140029   4.032   6.443   5.213
13369TIP3    H240030   4.083   6.543   5.316
13370TIP3   OH240031   5.004   6.745   5.852
13370TIP3    H140032   5.029   6.795   5.771
13370TIP3    H240033   4.919   6.702   5.825
13371TIP3   OH240034   4.561   5.822   5.082
13371TIP3    H140035   4.464   5.804   5.093
13371TIP3    H240036   4.570   5.915   5.110
13372TIP3   OH240037   4.509   6.834   6.220
13372TIP3    H140038   4.483   6.792   6.301
13372TIP3    H240039   4.459   6.918   6.220
13373TIP3   OH240040   4.633   6.068   5.189
13373TIP3    H140041   4.730   6.074   5.204
13373TIP3    H240042   4.615   6.148   5.137
13374TIP3   OH240043   3.798   6.529   5.900
13374TIP3    H140044   3.829   6.505   5.810
13374TIP3    H240045   3.836   6.459   5.954
13375TIP3   OH240046   4.246   6.657   5.043
13375TIP3    H140047   4.199   6.744   5.049
13375TIP3    H240048   4.192   6.603   5.104
13376TIP3   OH240049   3.674   6.449   6.512
13376TIP3    H140050   3.690   6.432   6.607
13376TIP3    H240051   3.605   6.385   6.491
13377TIP3   OH240052   4.394   6.564   6.528
13377TIP3    H140053   4.333   6.505   6.480
13377TIP3    H240054   4.481   6.526   6.503
13378TIP3   OH240055   4.664   7.091   6.120
13378TIP3    H140056   4.567   7.082   6.131
13378TIP3    H240057   4.686   7.147   6.196
13379TIP3   OH240058   5.070   6.141   5.010
13379TIP3    H140059   5.002   6.117   4.943
13379TIP3    H240060   5.078   6.236   4.995
13380TIP3   OH240061   5.286   7.039   6.094
13380TIP3    H140062   5.194   7.007   6.098
13380TIP3    H240063   5.316   6.990   6.015
13381TIP3   OH240064   4.774   6.977   4.932
13381TIP3    H140065   4.747   6.909   4.996
13381TIP3    H240066   4.784   6.927   4.849
13382TIP3   OH240067   4.767   6.607   5.774
13382TIP3    H140068   4.673   6.581   5.782
13382TIP3    H240069   4.803   6.529   5.728
13383TIP3   OH240070   3.880   6.830   5.529
13383TIP3    H140071   3.879   6.908   5.472
13383TIP3    H240072   3.785   6.808   5.530
13384TIP3   OH240073   3.460   6.139   5.227
13384TIP3    H140074   3.503   6.224   5.247
13384TIP3    H240075   3.382   6.144   5.287
13385TIP3   OH240076   4.033   6.603   5.470
13385TIP3    H140077   3.992   6.690   5.487
13385TIP3    H240078   3.994   6.551   5.542
13386TIP3   OH240079   4.165   7.180   5.996
13386TIP3    H140080   4.202   7.251   5.940
13386TIP3    H240081   4.246   7.143   6.035
13387TIP3   OH240082   3.818   7.067   5.374
13387TIP3    H140083   3.733   7.057   5.419
13387TIP3    H240084   3.836   7.163   5.383
13388TIP3   OH240085   4.556   6.813   5.950
13388TIP3    H140086   4.554   6.809   6.048
13388TIP3    H240087   4.634   6.759   5.930
13389TIP3   OH240088   4.528   6.705   4.833
13389TIP3    H140089   4.581   6.679   4.913
13389TIP3    H240090   4.440   6.678   4.862
13390TIP3   OH240091   4.795   7.349   6.006
13390TIP3    H140092   4.718   7.292   5.988
13390TIP3    H240093   4.788   7.413   5.931
13391TIP3   OH240094   4.868   7.180   4.654
13391TIP3    H140095   4.904   7.255   4.603
13391TIP3    H240096   4.787   7.223   4.688
13392TIP3   OH240097   3.885   5.958   6.521
13392TIP3    H140098   3.788   5.959   6.530
13392TIP3    H240099   3.910   5.893   6.589
13393TIP3   OH240100   4.688   6.639   5.050
13393TIP3    H140101   4.677   6.573   5.122
13393TIP3    H240102   4.785   6.636   5.038
13394TIP3   OH240103   3.601   7.052   6.158
13394TIP3    H140104   3.642   6.965   6.165
13394TIP3    H240105   3.655   7.104   6.219
13395TIP3   OH240106   3.894   6.685   4.831
13395TIP3    H140107   3.908   6.592   4.805
13395TIP3    H240108   3.877   6.675   4.927
13396TIP3   OH240109   3.843   6.689   5.101
13396TIP3    H140110   3.903   6.662   5.171
13396TIP3    H240111   3.842   6.787   5.111
13397TIP3   OH240112   3.573   6.387   5.312
13397TIP3    H140113   3.509   6.433   5.370
13397TIP3    H240114   3.585   6.456   5.243
13398TIP3   OH240115   4.720   6.025   6.205
13398TIP3    H140116   4.805   6.060   6.236
13398TIP3    H240117   4.709   5.943   6.257
13399TIP3   OH240118   4.606   5.772   5.366
13399TIP3    H140119   4.590   5.794   5.273
13399TIP3    H240120   4.644   5.856   5.401
13400TIP3   OH240121   4.108   6.890   5.054
13400TIP3    H140122   4.020   6.911   5.091
13400TIP3    H240123   4.119   6.962   4.992
13401TIP3   OH240124   4.296   5.950   5.468
13401TIP3    H140125   4.359   6.023   5.450
13401TIP3    H240126   4.299   5.945   5.566
13402TIP3   OH240127   4.562   6.270   6.278
13402TIP3    H140128   4.585   6.317   6.360
13402TIP3    H240129   4.617   6.189   6.282
13403TIP3   OH240130   4.439   5.680   5.572
13403TIP3    H140131   4.426   5.760   5.627
13403TIP3    H240132   4.499   5.715   5.502
13404TIP3   OH240133   3.851   6.962   5.120
13404TIP3    H140134   3.818   7.032   5.060
13404TIP3    H240135   3.833   7.001   5.208
13405TIP3   OH240136   3.948   5.677   5.361
13405TIP3    H140137   3.947   5.768   5.396
13405TIP3    H240138   4.044   5.657   5.368
13406TIP3   OH240139   5.203   6.168   6.262
13406TIP3    H140140   5.105   6.163   6.262
13406TIP3    H240141   5.222   6.144   6.170
13407TIP3   OH240142   4.854   6.367   5.648
13407TIP3    H140143   4.780   6.304   5.655
13407TIP3    H240144   4.927   6.320   5.693
13408TIP3   OH240145   3.562   6.591   5.115
13408TIP3    H140146   3.618   6.667   5.137
13408TIP3    H240147   3.618   6.547   5.047
13409TIP3   OH240148   3.510   5.870   5.250
13409TIP3    H140149   3.509   5.967   5.245
13409TIP3    H240150   3.430   5.846   5.203
13410TIP3   OH240151   4.821   7.321   5.595
13410TIP3    H140152   4.779   7.368   5.520
13410TIP3    H240153   4.915   7.339   5.574
13411TIP3   OH240154   3.898   5.590   6.122
13411TIP3    H140155   3.867   5.556   6.035
13411TIP3    H240156   3.888   5.511   6.179
13412TIP3   OH240157   3.593   7.344   6.582
13412TIP3    H140158   3.682   7.344   6.622
13412TIP3    H240159   3.578   7.249   6.567
13413TIP3   OH240160   4.072   7.314   6.624
13413TIP3    H140161   4.168   7.313   6.621
13413TIP3    H240162   4.049   7.256   6.549
13414TIP3   OH240163   4.057   6.889   4.746
13414TIP3    H140164   3.999   6.819   4.784
13414TIP3    H240165   4.132   6.835   4.717
13415TIP3   OH240166   4.713   7.215   6.386
13415TIP3    H140167   4.768   7.139   6.408
13415TIP3    H240168   4.782   7.285   6.383
13416TIP3   OH240169   4.494   6.930   4.658
13416TIP3    H140170   4.536   6.865   4.718
13416TIP3    H240171   4.552   6.927   4.580
13417TIP3   OH240172   3.723   6.755   6.775
13417TIP3    H140173   3.741   6.659   6.778
13417TIP3    H240174   3.637   6.756   6.727
13418TIP3   OH240175   3.703   6.406   4.964
13418TIP3    H140176   3.755   6.375   5.039
13418TIP3    H240177   3.773   6.410   4.895
13419TIP3   OH240178   4.341   6.838   6.542
13419TIP3    H140179   4.288   6.859   6.461
13419TIP3    H240180   4.357   6.742   6.533
13420TIP3   OH240181   4.212   6.606   4.773
13420TIP3    H140182   4.214   6.617   4.871
13420TIP3    H240183   4.210   6.508   4.767
13421TIP3   OH240184   4.825   6.851   6.161
13421TIP3    H140185   4.903   6.886   6.113
13421TIP3    H240186   4.757   6.916   6.136
13422TIP3   OH240187   3.842   6.493   6.757
13422TIP3    H140188   3.913   6.433   6.732
13422TIP3    H240189   3.871   6.523   6.846
13423TIP3   OH240190   3.913   6.310   5.191
13423TIP3    H140191   3.881   6.269   5.273
13423TIP3    H240192   3.947   6.233   5.141
13424TIP3   OH240193   4.183   6.380   6.422
13424TIP3    H140194   4.101   6.433   6.421
13424TIP3    H240195   4.228   6.411   6.341
13425TIP3   OH240196   4.009   6.102   5.030
13425TIP3    H140197   3.983   6.107   4.936
13425TIP3    H240198   4.107   6.107   5.023
13426TIP3   OH240199   4.831   6.436   4.690
13426TIP3    H140200   4.808   6.389   4.608
13426TIP3    H240201   4.797   6.526   4.668
13427TIP3   OH240202   4.303   6.162   6.543
13427TIP3    H140203   4.302   6.082   6.487
13427TIP3    H240204   4.259   6.228   6.485
13428TIP3   OH240205   4.304   5.949   6.354
13428TIP3    H140206   4.332   5.990   6.270
13428TIP3    H240207   4.211   5.926   6.334
13429TIP3   OH240208   4.337   6.491   6.228
13429TIP3    H140209   4.416   6.491   6.172
13429TIP3    H240210   4.278   6.552   6.179
13430TIP3   OH240211   4.924   6.461   6.608
13430TIP3    H140212   4.967   6.374   6.606
13430TIP3    H240213   4.986   6.514   6.555
13431TIP3   OH240214   4.962   6.695   6.335
13431TIP3    H140215   4.903   6.753   6.282
13431TIP3    H240216   5.048   6.718   6.292
13432TIP3   OH240217   4.182   6.274   6.775
13432TIP3    H140218   4.113   6.207   6.789
13432TIP3    H240219   4.214   6.250   6.686
13433TIP3   OH240220   4.437   5.712   6.419
13433TIP3    H140221   4.387   5.794   6.396
13433TIP3    H240222   4.368   5.643   6.406
13434TIP3   OH240223   4.561   6.218   6.635
13434TIP3    H140224   4.546   6.198   6.729
13434TIP3    H240225   4.472   6.193   6.600
13435TIP3   OH240226   4.803   6.174   6.492
13435TIP3    H140227   4.728   6.167   6.553
13435TIP3    H240228   4.877   6.140   6.546
13436TIP3   OH240229   5.030   6.108   6.644
13436TIP3    H140230   5.043   6.012   6.660
13436TIP3    H240231   5.028   6.145   6.735
13437TIP3   OH240232   4.021   6.056   6.827
13437TIP3    H140233   4.023   5.965   6.790
13437TIP3    H240234   4.056   6.040   6.916
13438TIP3   OH240235   4.531   5.721   6.676
13438TIP3    H140236   4.598   5.650   6.668
13438TIP3    H240237   4.491   5.717   6.587
13439TIP3   OH240238   4.597   5.936   6.835
13439TIP3    H140239   4.576   5.865   6.771
13439TIP3    H240240   4.519   5.995   6.828
13440TIP3   OH240241   3.818   7.169   4.936
13440TIP3    H140242   3.913   7.162   4.915
13440TIP3    H240243   3.787   7.215   4.855
13441TIP3   OH240244   3.294   6.548   5.144
13441TIP3    H140245   3.390   6.569   5.137
13441TIP3    H240246   3.293   6.457   5.107
13442TIP3   OH240247   3.205   7.163   5.563
13442TIP3    H140248   3.146   7.096   5.524
13442TIP3    H240249   3.246   7.111   5.636
13443TIP3   OH240250   3.326   7.034   5.766
13443TIP3    H140251   3.359   6.948   5.736
13443TIP3    H240252   3.401   7.070   5.816
13444TIP3   OH240253   5.073   7.416   5.551
13444TIP3    H140254   5.103   7.444   5.639
13444TIP3    H240255   5.139   7.455   5.493
13445TIP3   OH240256   5.106   7.432   5.834
13445TIP3    H140257   5.061   7.344   5.827
13445TIP3    H240258   5.179   7.407   5.893
13446TIP3   OH240259   4.964   6.625   5.023
13446TIP3    H140260   5.037   6.685   4.997
13446TIP3    H240261   5.001   6.588   5.107
13447TIP3   OH240262   5.084   6.507   5.231
13447TIP3    H140263   5.034   6.440   5.283
13447TIP3    H240264   5.166   6.514   5.283
13448TIP3   OH240265   5.147   6.880   5.660
13448TIP3    H140266   5.200   6.813   5.613
13448TIP3    H240267   5.141   6.951   5.594
13449TIP3   OH240268   4.981   7.185   5.853
13449TIP3    H140269   4.909   7.216   5.909
13449TIP3    H240270   4.934   7.133   5.785
13450TIP3   OH240271   5.035   6.401   4.871
13450TIP3    H140272   4.960   6.404   4.807
13450TIP3    H240273   5.007   6.471   4.933
13451TIP3   OH240274   4.893   6.068   4.817
13451TIP3    H140275   4.846   6.107   4.743
13451TIP3    H240276   4.868   5.973   4.808
13452TIP3   OH240277   4.903   6.342   5.375
13452TIP3    H140278   4.927   6.248   5.370
13452TIP3    H240279   4.895   6.358   5.471
13453TIP3   OH240280   3.535   6.413   6.127
13453TIP3    H140281   3.532   6.386   6.032
13453TIP3    H240282   3.632   6.419   6.140
13454TIP3   OH240283   5.189   6.759   6.201
13454TIP3    H140284   5.269   6.706   6.222
13454TIP3    H240285   5.209   6.841   6.249
13455TIP3   OH240286   5.383   6.578   6.268
13455TIP3    H140287   5.307   6.527   6.302
13455TIP3    H240288   5.454   6.511   6.273
13456TIP3   OH240289   4.845   5.796   4.805
13456TIP3    H140290   4.911   5.779   4.875
13456TIP3    H240291   4.765   5.748   4.836
13457TIP3   OH240292   4.909   6.061   5.269
13457TIP3    H140293   4.947   5.971   5.282
13457TIP3    H240294   4.977   6.098   5.210
13458TIP3   OH240295   5.066   6.235   5.767
13458TIP3    H140296   5.152   6.259   5.725
13458TIP3    H240297   5.082   6.273   5.855
13459TIP3   OH240298   5.137   6.379   6.001
13459TIP3    H140299   5.058   6.415   6.045
13459TIP3    H240300   5.171   6.458   5.953
13460TIP3   OH240301   3.754   6.108   6.805
13460TIP3    H140302   3.851   6.098   6.800
13460TIP3    H240303   3.729   6.020   6.840
13461TIP3   OH240304   5.594   5.973   6.556
13461TIP3    H140305   5.649   5.906   6.510
13461TIP3    H240306   5.558   6.024   6.480
13462TIP3   OH240307   5.007   5.809   5.316
13462TIP3    H140308   5.060   5.794   5.396
13462TIP3    H240309   4.949   5.731   5.315
13463TIP3   OH240310   3.714   5.798   6.133
13463TIP3    H140311   3.775   5.722   6.138
13463TIP3    H240312   3.777   5.871   6.123
13464TIP3   OH240313   3.518   6.072   6.203
13464TIP3    H140314   3.565   6.062   6.118
13464TIP3    H240315   3.545   6.162   6.227
13465TIP3   OH240316   5.456   6.107   6.366
13465TIP3    H140317   5.370   6.151   6.380
13465TIP3    H240318   5.428   6.039   6.301
13466TIP3   OH240319   5.086   5.751   4.940
13466TIP3    H140320   5.125   5.727   4.856
13466TIP3    H240321   5.146   5.823   4.968
13467TIP3   OH240322   3.500   5.583   5.708
13467TIP3    H140323   3.406   5.572   5.727
13467TIP3    H240324   3.498   5.637   5.626
13468TIP3   OH240325   4.660   7.279   5.208
13468TIP3    H140326   4.710   7.264   5.125
13468TIP3    H240327   4.715   7.344   5.253
13469TIP3   OH240328   3.722   5.660   6.520
13469TIP3    H140329   3.667   5.649   6.599
13469TIP3    H240330   3.656   5.694   6.456
13470TIP3   OH240331   3.761   7.086   6.595
13470TIP3    H140332   3.673   7.051   6.573
13470TIP3    H240333   3.771   7.060   6.688
13471TIP3   OH240334   3.939   7.119   6.146
13471TIP3    H140335   3.888   7.190   6.102
13471TIP3    H240336   4.024   7.132   6.099
13472TIP3   OH240337   4.383   7.358   6.277
13472TIP3    H140338   4.423   7.366   6.366
13472TIP3    H240339   4.447   7.409   6.223
13473TIP3   OH240340   4.563   7.508   6.140
13473TIP3    H140341   4.633   7.463   6.091
13473TIP3    H240342   4.616   7.567   6.198
13474TIP3   OH240343   5.356   5.873   6.239
13474TIP3    H140344   5.266   5.872   6.201
13474TIP3    H240345   5.384   5.780   6.225
13475TIP3   OH240346   3.617   7.376   6.164
13475TIP3    H140347   3.528   7.405   6.135
13475TIP3    H240348   3.617   7.409   6.255
13476TIP3   OH240349   3.853   7.352   6.023
13476TIP3    H140350   3.766   7.364   6.067
13476TIP3    H240351   3.833   7.380   5.931
13477TIP3   OH240352   4.276   7.378   5.821
13477TIP3    H140353   4.207   7.395   5.754
13477TIP3    H240354   4.288   7.467   5.860
13478TIP3   OH240355   4.545   7.318   5.875
13478TIP3    H140356   4.451   7.335   5.852
13478TIP3    H240357   4.590   7.390   5.828
13479TIP3   OH240358   4.754   7.510   5.788
13479TIP3    H140359   4.739   7.594   5.739
13479TIP3    H240360   4.780   7.449   5.715
13480TIP3   OH240361   3.522   7.167   5.917
13480TIP3    H140362   3.552   7.141   6.007
13480TIP3    H240363   3.597   7.129   5.864
13481TIP3   OH240364   3.722   7.055   5.781
13481TIP3    H140365   3.728   6.958   5.790
13481TIP3    H240366   3.812   7.079   5.756
13482TIP3   OH240367   3.996   7.136   5.761
13482TIP3    H140368   4.021   7.043   5.748
13482TIP3    H240369   4.029   7.150   5.852
13483TIP3   OH240370   4.565   5.789   5.863
13483TIP3    H140371   4.518   5.719   5.911
13483TIP3    H240372   4.631   5.739   5.812
13484TIP3   OH240373   5.090   5.664   5.754
13484TIP3    H140374   5.125   5.724   5.685
13484TIP3    H240375   4.994   5.685   5.753
13485TIP3   OH240376   5.196   5.779   5.519
13485TIP3    H140377   5.268   5.731   5.473
13485TIP3    H240378   5.227   5.871   5.513
13486TIP3   OH240379   3.809   5.497   5.875
13486TIP3    H140380   3.717   5.465   5.875
13486TIP3    H240381   3.857   5.411   5.870
13487TIP3   OH240382   3.599   5.366   5.522
13487TIP3    H140383   3.628   5.422   5.448
13487TIP3    H240384   3.569   5.432   5.587
13488TIP3   OH240385   4.255   5.527   5.753
13488TIP3    H140386   4.312   5.578   5.693
13488TIP3    H240387   4.273   5.569   5.838
13489TIP3   OH240388   4.806   5.675   5.737
13489TIP3    H140389   4.794   5.641   5.648
13489TIP3    H240390   4.789   5.595   5.792
13490TIP3   OH240391   4.831   5.593   5.300
13490TIP3    H140392   4.745   5.638   5.309
13490TIP3    H240393   4.813   5.509   5.347
13491TIP3   OH240394   3.713   5.526   5.284
13491TIP3    H140395   3.760   5.461   5.228
13491TIP3    H240396   3.788   5.578   5.320
13492TIP3   OH240397   4.226   5.701   5.383
13492TIP3    H140398   4.284   5.651   5.442
13492TIP3    H240399   4.250   5.793   5.409
13493TIP3   OH240400   4.085   7.126   4.882
13493TIP3    H140401   4.174   7.148   4.846
13493TIP3    H240402   4.063   7.051   4.822
13494TIP3   OH240403   4.805   7.244   4.975
13494TIP3    H140404   4.797   7.146   4.965
13494TIP3    H240405   4.759   7.275   4.895
13495TIP3   OH240406   4.017   5.782   6.768
13495TIP3    H140407   3.983   5.708   6.821
13495TIP3    H240408   4.112   5.779   6.794
13496TIP3   OH240409   4.269   5.777   6.885
13496TIP3    H140410   4.351   5.749   6.842
13496TIP3    H240411   4.255   5.705   6.951
13497TIP3   OH240412   3.389   6.966   4.938
13497TIP3    H140413   3.380   6.988   5.032
13497TIP3    H240414   3.478   6.925   4.933
13498TIP3   OH240415   5.093   5.836   6.671
13498TIP3    H140416   5.112   5.804   6.762
13498TIP3    H240417   5.181   5.831   6.629
13499TIP3   OH240418   5.031   7.391   6.157
13499TIP3    H140419   4.952   7.360   6.110
13499TIP3    H240420   5.010   7.486   6.166
13500TIP3   OH240421   6.300   6.759   4.926
13500TIP3    H140422   6.273   6.852   4.912
13500TIP3    H240423   6.217   6.714   4.905
13501TIP3   OH240424   6.301   6.757   5.307
13501TIP3    H140425   6.321   6.744   5.401
13501TIP3    H240426   6.252   6.676   5.286
13502TIP3   OH240427   5.597   6.662   5.673
13502TIP3    H140428   5.623   6.590   5.734
13502TIP3    H240429   5.678   6.714   5.671
13503TIP3   OH240430   6.540   7.060   4.993
13503TIP3    H140431   6.524   6.993   5.061
13503TIP3    H240432   6.568   7.137   5.047
13504TIP3   OH240433   5.567   7.066   5.400
13504TIP3    H140434   5.558   6.968   5.402
13504TIP3    H240435   5.663   7.074   5.404
13505TIP3   OH240436   5.332   6.557   5.356
13505TIP3    H140437   5.380   6.478   5.392
13505TIP3    H240438   5.387   6.579   5.280
13506TIP3   OH240439   6.189   7.525   5.008
13506TIP3    H140440   6.236   7.453   4.961
13506TIP3    H240441   6.181   7.488   5.097
13507TIP3   OH240442   6.101   6.994   5.342
13507TIP3    H140443   6.136   6.911   5.307
13507TIP3    H240444   6.184   7.033   5.376
13508TIP3   OH240445   7.109   6.308   5.357
13508TIP3    H140446   7.137   6.388   5.407
13508TIP3    H240447   7.122   6.339   5.266
13509TIP3   OH240448   6.502   6.482   5.394
13509TIP3    H140449   6.545   6.397   5.412
13509TIP3    H240450   6.474   6.471   5.302
13510TIP3   OH240451   5.852   6.149   5.357
13510TIP3    H140452   5.822   6.220   5.296
13510TIP3    H240453   5.810   6.071   5.314
13511TIP3   OH240454   6.541   6.234   4.981
13511TIP3    H140455   6.612   6.218   5.046
13511TIP3    H240456   6.593   6.273   4.908
13512TIP3   OH240457   5.473   6.351   5.464
13512TIP3    H140458   5.558   6.313   5.493
13512TIP3    H240459   5.437   6.279   5.406
13513TIP3   OH240460   5.921   6.544   5.243
13513TIP3    H140461   6.013   6.519   5.265
13513TIP3    H240462   5.880   6.457   5.223
13514TIP3   OH240463   7.178   6.513   5.528
13514TIP3    H140464   7.096   6.562   5.509
13514TIP3    H240465   7.198   6.545   5.618
13515TIP3   OH240466   5.841   6.131   5.791
13515TIP3    H140467   5.780   6.164   5.722
13515TIP3    H240468   5.788   6.152   5.871
13516TIP3   OH240469   6.195   6.985   4.795
13516TIP3    H140470   6.142   6.961   4.717
13516TIP3    H240471   6.149   7.068   4.823
13517TIP3   OH240472   5.909   6.901   5.566
13517TIP3    H140473   5.867   6.971   5.619
13517TIP3    H240474   6.003   6.926   5.571
13518TIP3   OH240475   6.755   6.238   5.154
13518TIP3    H140476   6.723   6.202   5.238
13518TIP3    H240477   6.800   6.319   5.183
13519TIP3   OH240478   5.709   6.240   5.573
13519TIP3    H140479   5.765   6.316   5.600
13519TIP3    H240480   5.763   6.203   5.500
13520TIP3   OH240481   5.776   7.106   5.694
13520TIP3    H140482   5.749   7.191   5.653
13520TIP3    H240483   5.696   7.088   5.747
13521TIP3   OH240484   5.174   6.789   4.918
13521TIP3    H140485   5.127   6.820   4.838
13521TIP3    H240486   5.204   6.873   4.958
13522TIP3   OH240487   6.611   7.305   5.158
13522TIP3    H140488   6.522   7.295   5.200
13522TIP3    H240489   6.601   7.392   5.115
13523TIP3   OH240490   6.902   6.202   5.521
13523TIP3    H140491   6.814   6.235   5.497
13523TIP3    H240492   6.959   6.238   5.450
13524TIP3   OH240493   6.203   5.852   5.510
13524TIP3    H140494   6.182   5.758   5.519
13524TIP3    H240495   6.124   5.892   5.552
13525TIP3   OH240496   6.315   7.351   4.834
13525TIP3    H140497   6.365   7.269   4.814
13525TIP3    H240498   6.375   7.417   4.793
13526TIP3   OH240499   6.458   7.135   4.741
13526TIP3    H140500   6.405   7.061   4.711
13526TIP3    H240501   6.494   7.101   4.826
13527TIP3   OH240502   6.838   7.221   5.502
13527TIP3    H140503   6.823   7.141   5.447
13527TIP3    H240504   6.819   7.293   5.439
13528TIP3   OH240505   6.124   6.607   4.758
13528TIP3    H140506   6.045   6.662   4.742
13528TIP3    H240507   6.171   6.613   4.674
13529TIP3   OH240508   6.086   6.397   4.474
13529TIP3    H140509   6.150   6.448   4.528
13529TIP3    H240510   6.146   6.335   4.429
13530TIP3   OH240511   7.031   6.852   5.344
13530TIP3    H140512   6.949   6.904   5.353
13530TIP3    H240513   7.061   6.882   5.256
13531TIP3   OH240514   6.477   6.692   4.731
13531TIP3    H140515   6.420   6.717   4.808
13531TIP3    H240516   6.561   6.671   4.778
13532TIP3   OH240517   6.719   6.735   5.646
13532TIP3    H140518   6.710   6.820   5.694
13532TIP3    H240519   6.630   6.732   5.603
13533TIP3   OH240520   5.710   6.693   5.145
13533TIP3    H140521   5.669   6.633   5.079
13533TIP3    H240522   5.787   6.640   5.176
13534TIP3   OH240523   5.843   7.114   5.293
13534TIP3    H140524   5.820   7.056   5.220
13534TIP3    H240525   5.928   7.075   5.322
13535TIP3   OH240526   5.846   6.650   5.498
13535TIP3    H140527   5.878   6.643   5.406
13535TIP3    H240528   5.874   6.742   5.521
13536TIP3   OH240529   6.371   7.300   5.281
13536TIP3    H140530   6.359   7.379   5.337
13536TIP3    H240531   6.354   7.226   5.342
13537TIP3   OH240532   5.984   7.225   5.831
13537TIP3    H140533   5.920   7.285   5.875
13537TIP3    H240534   5.922   7.168   5.781
13538TIP3   OH240535   6.320   6.550   4.558
13538TIP3    H140536   6.375   6.613   4.610
13538TIP3    H240537   6.345   6.575   4.465
13539TIP3   OH240538   5.734   6.775   5.932
13539TIP3    H140539   5.737   6.865   5.971
13539TIP3    H240540   5.639   6.755   5.941
13540TIP3   OH240541   6.060   7.230   4.828
13540TIP3    H140542   6.137   7.285   4.852
13540TIP3    H240543   5.996   7.296   4.798
13541TIP3   OH240544   5.774   7.392   5.915
13541TIP3    H140545   5.740   7.388   5.824
13541TIP3    H240546   5.695   7.368   5.968
13542TIP3   OH240547   6.831   5.794   4.606
13542TIP3    H140548   6.749   5.810   4.657
13542TIP3    H240549   6.851   5.882   4.571
13543TIP3   OH240550   5.577   6.530   4.945
13543TIP3    H140551   5.509   6.578   4.893
13543TIP3    H240552   5.527   6.453   4.975
13544TIP3   OH240553   6.632   7.159   4.152
13544TIP3    H140554   6.641   7.256   4.138
13544TIP3    H240555   6.725   7.130   4.144
13545TIP3   OH240556   5.357   6.917   5.859
13545TIP3    H140557   5.292   6.891   5.791
13545TIP3    H240558   5.394   6.831   5.887
13546TIP3   OH240559   5.208   7.115   5.490
13546TIP3    H140560   5.304   7.101   5.484
13546TIP3    H240561   5.203   7.190   5.550
13547TIP3   OH240562   7.071   7.565   5.545
13547TIP3    H140563   7.073   7.469   5.562
13547TIP3    H240564   6.989   7.589   5.593
13548TIP3   OH240565   6.168   7.355   5.675
13548TIP3    H140566   6.173   7.445   5.713
13548TIP3    H240567   6.103   7.312   5.735
13549TIP3   OH240568   5.940   7.480   4.634
13549TIP3    H140569   5.892   7.462   4.552
13549TIP3    H240570   5.906   7.567   4.661
13550TIP3   OH240571   5.379   7.327   5.021
13550TIP3    H140572   5.426   7.318   5.106
13550TIP3    H240573   5.323   7.247   5.023
13551TIP3   OH240574   6.141   7.379   4.275
13551TIP3    H140575   6.201   7.310   4.240
13551TIP3    H240576   6.175   7.390   4.367
13552TIP3   OH240577   6.191   7.427   4.545
13552TIP3    H140578   6.103   7.437   4.588
13552TIP3    H240579   6.243   7.387   4.618
13553TIP3   OH240580   6.964   6.694   5.823
13553TIP3    H140581   6.880   6.710   5.776
13553TIP3    H240582   6.974   6.597   5.813
13554TIP3   OH240583   5.554   7.106   5.853
13554TIP3    H140584   5.606   7.085   5.933
13554TIP3    H240585   5.482   7.040   5.858
13555TIP3   OH240586   5.962   5.925   5.633
13555TIP3    H140587   5.873   5.896   5.606
13555TIP3    H240588   5.938   6.010   5.676
13556TIP3   OH240589   6.491   6.036   5.829
13556TIP3    H140590   6.558   6.015   5.896
13556TIP3    H240591   6.406   6.021   5.875
13557TIP3   OH240592   6.736   6.474   5.748
13557TIP3    H140593   6.684   6.467   5.830
13557TIP3    H240594   6.709   6.560   5.712
13558TIP3   OH240595   6.392   6.594   4.301
13558TIP3    H140596   6.359   6.573   4.211
13558TIP3    H240597   6.469   6.651   4.279
13559TIP3   OH240598   6.105   5.974   4.605
13559TIP3    H140599   6.074   5.972   4.697
13559TIP3    H240600   6.066   5.891   4.573
13560TIP3   OH240601   5.891   6.435   5.652
13560TIP3    H140602   5.847   6.465   5.734
13560TIP3    H240603   5.877   6.514   5.595
13561TIP3   OH240604   5.766   6.319   5.165
13561TIP3    H140605   5.670   6.307   5.172
13561TIP3    H240606   5.784   6.275   5.079
13562TIP3   OH240607   6.266   6.412   4.892
13562TIP3    H140608   6.211   6.484   4.853
13562TIP3    H240609   6.318   6.384   4.815
13563TIP3   OH240610   6.465   6.706   6.011
13563TIP3    H140611   6.426   6.624   6.045
13563TIP3    H240612   6.560   6.693   6.028
13564TIP3   OH240613   6.424   6.441   5.133
13564TIP3    H140614   6.362   6.475   5.066
13564TIP3    H240615   6.452   6.359   5.088
13565TIP3   OH240616   5.704   6.471   5.859
13565TIP3    H140617   5.748   6.536   5.916
13565TIP3    H240618   5.698   6.392   5.916
13566TIP3   OH240619   5.752   5.939   4.571
13566TIP3    H140620   5.750   5.948   4.668
13566TIP3    H240621   5.684   6.004   4.545
13567TIP3   OH240622   5.278   5.965   4.935
13567TIP3    H140623   5.327   6.029   4.880
13567TIP3    H240624   5.227   6.027   4.991
13568TIP3   OH240625   6.459   6.703   5.557
13568TIP3    H140626   6.463   6.614   5.517
13568TIP3    H240627   6.386   6.696   5.622
13569TIP3   OH240628   6.101   6.143   5.226
13569TIP3    H140629   6.016   6.144   5.274
13569TIP3    H240630   6.163   6.157   5.299
13570TIP3   OH240631   5.809   6.198   4.923
13570TIP3    H140632   5.901   6.219   4.901
13570TIP3    H240633   5.759   6.222   4.841
13571TIP3   OH240634   6.596   6.218   5.412
13571TIP3    H140635   6.576   6.231   5.508
13571TIP3    H240636   6.521   6.161   5.388
13572TIP3   OH240637   5.651   6.229   4.703
13572TIP3    H140638   5.573   6.194   4.658
13572TIP3    H240639   5.699   6.268   4.628
13573TIP3   OH240640   6.758   7.913   5.647
13573TIP3    H140641   6.761   7.937   5.552
13573TIP3    H240642   6.843   7.951   5.678
13574TIP3   OH240643   5.719   7.027   6.068
13574TIP3    H140644   5.799   7.055   6.118
13574TIP3    H240645   5.653   7.022   6.141
13575TIP3   OH240646   6.183   6.475   5.324
13575TIP3    H140647   6.262   6.439   5.282
13575TIP3    H240648   6.189   6.440   5.415
13576TIP3   OH240649   5.748   5.951   5.207
13576TIP3    H140650   5.681   5.896   5.252
13576TIP3    H240651   5.755   5.909   5.121
13577TIP3   OH240652   6.161   6.369   5.613
13577TIP3    H140653   6.074   6.410   5.630
13577TIP3    H240654   6.222   6.424   5.668
13578TIP3   OH240655   5.901   6.764   4.709
13578TIP3    H140656   5.828   6.699   4.699
13578TIP3    H240657   5.881   6.799   4.800
13579TIP3   OH240658   6.801   7.000   5.339
13579TIP3    H140659   6.822   7.051   5.259
13579TIP3    H240660   6.714   6.960   5.317
13580TIP3   OH240661   6.355   6.080   4.563
13580TIP3    H140662   6.259   6.062   4.578
13580TIP3    H240663   6.365   6.172   4.594
13581TIP3   OH240664   6.331   7.095   5.706
13581TIP3    H140665   6.298   7.008   5.738
13581TIP3    H240666   6.257   7.153   5.729
13582TIP3   OH240667   6.427   6.322   4.671
13582TIP3    H140668   6.521   6.332   4.694
13582TIP3    H240669   6.406   6.406   4.624
13583TIP3   OH240670   5.591   6.790   5.385
13583TIP3    H140671   5.630   6.756   5.302
13583TIP3    H240672   5.625   6.727   5.451
13584TIP3   OH240673   6.042   6.913   4.527
13584TIP3    H140674   5.995   6.999   4.533
13584TIP3    H240675   5.988   6.859   4.590
13585TIP3   OH240676   5.471   6.706   5.998
13585TIP3    H140677   5.487   6.698   6.094
13585TIP3    H240678   5.395   6.647   5.985
13586TIP3   OH240679   6.460   7.366   5.590
13586TIP3    H140680   6.371   7.333   5.610
13586TIP3    H240681   6.484   7.405   5.676
13587TIP3   OH240682   6.910   6.401   4.480
13587TIP3    H140683   6.835   6.354   4.436
13587TIP3    H240684   6.881   6.493   4.457
13588TIP3   OH240685   7.086   7.272   5.591
13588TIP3    H140686   6.988   7.268   5.583
13588TIP3    H240687   7.112   7.242   5.501
13589TIP3   OH240688   6.564   7.235   4.417
13589TIP3    H140689   6.544   7.165   4.481
13589TIP3    H240690   6.583   7.186   4.335
13590TIP3   OH240691   6.565   6.865   5.253
13590TIP3    H140692   6.473   6.838   5.273
13590TIP3    H240693   6.598   6.784   5.211
13591TIP3   OH240694   5.690   7.087   5.001
13591TIP3    H140695   5.687   7.172   4.954
13591TIP3    H240696   5.597   7.074   5.024
13592TIP3   OH240697   5.257   6.395   4.714
13592TIP3    H140698   5.300   6.480   4.737
13592TIP3    H240699   5.179   6.398   4.775
13593TIP3   OH240700   5.832   6.856   4.952
13593TIP3    H140701   5.795   6.945   4.971
13593TIP3    H240702   5.798   6.805   5.027
13594TIP3   OH240703   5.960   7.436   5.481
13594TIP3    H140704   6.006   7.505   5.430
13594TIP3    H240705   6.034   7.396   5.530
13595TIP3   OH240706   5.610   7.331   4.860
13595TIP3    H140707   5.525   7.338   4.909
13595TIP3    H240708   5.641   7.424   4.864
13596TIP3   OH240709   6.353   7.068   5.438
13596TIP3    H140710   6.347   7.075   5.536
13596TIP3    H240711   6.429   7.009   5.429
13597TIP3   OH240712   6.322   6.958   4.321
13597TIP3    H140713   6.376   6.934   4.399
13597TIP3    H240714   6.234   6.936   4.353
13598TIP3   OH240715   6.600   7.603   5.491
13598TIP3    H140716   6.525   7.540   5.491
13598TIP3    H240717   6.576   7.663   5.416
13599TIP3   OH240718   6.663   7.435   4.140
13599TIP3    H140719   6.713   7.508   4.100
13599TIP3    H240720   6.584   7.484   4.169
13600TIP3   OH240721   5.684   6.213   6.012
13600TIP3    H140722   5.587   6.216   6.016
13600TIP3    H240723   5.706   6.148   6.080
13601TIP3   OH240724   6.484   6.889   4.533
13601TIP3    H140725   6.474   6.829   4.609
13601TIP3    H240726   6.582   6.890   4.524
13602TIP3   OH240727   5.399   7.297   5.639
13602TIP3    H140728   5.449   7.219   5.668
13602TIP3    H240729   5.429   7.362   5.704
13603TIP3   OH240730   5.690   6.942   4.319
13603TIP3    H140731   5.704   6.849   4.293
13603TIP3    H240732   5.672   6.932   4.415
13604TIP3   OH240733   5.637   6.947   4.591
13604TIP3    H140734   5.703   6.919   4.656
13604TIP3    H240735   5.640   7.045   4.599
13605TIP3   OH240736   5.373   6.642   4.796
13605TIP3    H140737   5.305   6.683   4.854
13605TIP3    H240738   5.383   6.713   4.729
13606TIP3   OH240739   6.544   6.258   5.672
13606TIP3    H140740   6.591   6.318   5.731
13606TIP3    H240741   6.510   6.190   5.734
13607TIP3   OH240742   6.408   6.026   4.850
13607TIP3    H140743   6.388   6.054   4.760
13607TIP3    H240744   6.442   6.108   4.891
13608TIP3   OH240745   5.901   7.144   4.538
13608TIP3    H140746   5.815   7.168   4.577
13608TIP3    H240747   5.918   7.222   4.483
13609TIP3   OH240748   6.093   6.205   4.955
13609TIP3    H140749   6.155   6.280   4.940
13609TIP3    H240750   6.094   6.198   5.052
13610TIP3   OH240751   6.337   6.514   5.771
13610TIP3    H140752   6.315   6.601   5.810
13610TIP3    H240753   6.418   6.490   5.818
13611TIP3   OH240754   6.234   5.936   5.059
13611TIP3    H140755   6.221   6.013   5.118
13611TIP3    H240756   6.294   5.974   4.991
13612TIP3   OH240757   5.645   7.220   4.609
13612TIP3    H140758   5.613   7.290   4.547
13612TIP3    H240759   5.628   7.261   4.696
13613TIP3   OH240760   5.745   5.932   4.846
13613TIP3    H140761   5.739   6.021   4.885
13613TIP3    H240762   5.841   5.916   4.857
13614TIP3   OH240763   7.000   6.422   5.746
13614TIP3    H140764   6.902   6.423   5.754
13614TIP3    H240765   7.009   6.393   5.654
13615TIP3   OH240766   6.652   6.619   5.129
13615TIP3    H140767   6.573   6.565   5.147
13615TIP3    H240768   6.721   6.572   5.181
13616TIP3   OH240769   5.362   6.850   4.601
13616TIP3    H140770   5.426   6.922   4.613
13616TIP3    H240771   5.409   6.797   4.534
13617TIP3   OH240772   5.312   6.128   4.710
13617TIP3    H140773   5.310   6.226   4.719
13617TIP3    H240774   5.218   6.107   4.722
13618TIP3   OH240775   6.618   7.577   5.081
13618TIP3    H140776   6.576   7.624   5.006
13618TIP3    H240777   6.713   7.595   5.060
13619TIP3   OH240778   5.699   5.846   5.605
13619TIP3    H140779   5.666   5.817   5.517
13619TIP3    H240780   5.682   5.767   5.660
13620TIP3   OH240781   5.235   7.067   4.989
13620TIP3    H140782   5.163   7.095   5.047
13620TIP3    H240783   5.206   7.105   4.903
13621TIP3   OH240784   5.388   7.603   6.061
13621TIP3    H140785   5.475   7.599   6.105
13621TIP3    H240786   5.365   7.509   6.058
13622TIP3   OH240787   5.876   7.571   6.104
13622TIP3    H140788   5.969   7.543   6.108
13622TIP3    H240789   5.844   7.513   6.032
13623TIP3   OH240790   5.852   7.146   4.231
13623TIP3    H140791   5.795   7.076   4.271
13623TIP3    H240792   5.929   7.092   4.205
13624TIP3   OH240793   6.507   7.479   5.840
13624TIP3    H140794   6.499   7.407   5.908
13624TIP3    H240795   6.588   7.525   5.869
13625TIP3   OH240796   6.289   7.186   4.145
13625TIP3    H140797   6.335   7.126   4.206
13625TIP3    H240798   6.348   7.186   4.067
13626TIP3   OH240799   5.523   7.013   6.262
13626TIP3    H140800   5.531   6.916   6.266
13626TIP3    H240801   5.426   7.020   6.247
13627TIP3   OH240802   5.498   6.664   4.453
13627TIP3    H140803   5.550   6.631   4.528
13627TIP3    H240804   5.568   6.668   4.383
13628TIP3   OH240805   6.127   7.079   6.026
13628TIP3    H140806   6.081   7.104   5.944
13628TIP3    H240807   6.177   7.002   5.995
13629TIP3   OH240808   6.006   6.861   4.259
13629TIP3    H140809   6.009   6.874   4.356
13629TIP3    H240810   6.004   6.763   4.254
13630TIP3   OH240811   6.625   7.095   5.642
13630TIP3    H140812   6.684   7.158   5.598
13630TIP3    H240813   6.540   7.141   5.643
13631TIP3   OH240814   5.639   6.745   6.244
13631TIP3    H140815   5.717   6.695   6.216
13631TIP3    H240816   5.666   6.779   6.331
13632TIP3   OH240817   5.707   6.567   4.677
13632TIP3    H140818   5.675   6.531   4.762
13632TIP3    H240819   5.740   6.487   4.632
13633TIP3   OH240820   5.967   6.620   5.898
13633TIP3    H140821   5.896   6.687   5.901
13633TIP3    H240822   6.040   6.677   5.864
13634TIP3   OH240823   5.805   6.356   4.516
13634TIP3    H140824   5.779   6.365   4.422
13634TIP3    H240825   5.903   6.364   4.509
13635TIP3   OH240826   6.506   7.038   6.052
13635TIP3    H140827   6.553   7.006   5.974
13635TIP3    H240828   6.476   6.955   6.091
13636TIP3   OH240829   6.630   6.689   4.180
13636TIP3    H140830   6.607   6.647   4.095
13636TIP3    H240831   6.600   6.780   4.160
13637TIP3   OH240832   6.099   6.419   6.030
13637TIP3    H140833   6.100   6.341   5.971
13637TIP3    H240834   6.055   6.486   5.972
13638TIP3   OH240835   6.101   6.202   5.836
13638TIP3    H140836   6.128   6.249   5.754
13638TIP3    H240837   6.006   6.184   5.818
13639TIP3   OH240838   6.721   6.704   6.101
13639TIP3    H140839   6.779   6.627   6.110
13639TIP3    H240840   6.779   6.770   6.060
13640TIP3   OH240841   6.755   6.961   5.834
13640TIP3    H140842   6.695   7.010   5.772
13640TIP3    H240843   6.841   6.982   5.791
13641TIP3   OH240844   5.981   6.528   6.264
13641TIP3    H140845   5.908   6.463   6.274
13641TIP3    H240846   6.010   6.509   6.173
13642TIP3   OH240847   6.231   5.968   5.907
13642TIP3    H140848   6.184   6.050   5.881
13642TIP3    H240849   6.161   5.901   5.893
13643TIP3   OH240850   6.363   6.469   6.116
13643TIP3    H140851   6.346   6.461   6.212
13643TIP3    H240852   6.273   6.451   6.081
13644TIP3   OH240853   6.594   6.417   5.970
13644TIP3    H140854   6.519   6.425   6.032
13644TIP3    H240855   6.668   6.391   6.029
13645TIP3   OH240856   6.828   6.362   6.125
13645TIP3    H140857   6.839   6.267   6.146
13645TIP3    H240858   6.822   6.403   6.213
13646TIP3   OH240859   5.812   6.313   6.314
13646TIP3    H140860   5.820   6.225   6.273
13646TIP3    H240861   5.847   6.296   6.403
13647TIP3   OH240862   6.326   5.975   6.163
13647TIP3    H140863   6.394   5.905   6.153
13647TIP3    H240864   6.286   5.973   6.074
13648TIP3   OH240865   6.389   6.188   6.329
13648TIP3    H140866   6.369   6.120   6.261
13648TIP3    H240867   6.315   6.251   6.318
13649TIP3   OH240868   5.613   7.424   4.421
13649TIP3    H140869   5.709   7.417   4.401
13649TIP3    H240870   5.584   7.472   4.342
13650TIP3   OH240871   5.092   6.807   4.633
13650TIP3    H140872   5.188   6.827   4.623
13650TIP3    H240873   5.087   6.716   4.595
13651TIP3   OH240874   5.009   7.417   5.050
13651TIP3    H140875   4.942   7.355   5.015
13651TIP3    H240876   5.053   7.359   5.117
13652TIP3   OH240877   5.144   7.269   5.239
13652TIP3    H140878   5.133   7.194   5.300
13652TIP3    H240879   5.195   7.329   5.295
13653TIP3   OH240880   6.871   7.668   5.038
13653TIP3    H140881   6.897   7.699   5.126
13653TIP3    H240882   6.933   7.715   4.980
13654TIP3   OH240883   6.902   7.687   5.319
13654TIP3    H140884   6.855   7.601   5.315
13654TIP3    H240885   6.974   7.663   5.378
13655TIP3   OH240886   6.948   7.366   5.894
13655TIP3    H140887   6.873   7.374   5.956
13655TIP3    H240888   6.990   7.454   5.902
13656TIP3   OH240889   6.765   6.874   4.512
13656TIP3    H140890   6.829   6.942   4.482
13656TIP3    H240891   6.810   6.839   4.592
13657TIP3   OH240892   6.895   6.734   4.713
13657TIP3    H140893   6.826   6.701   4.774
13657TIP3    H240894   6.957   6.781   4.773
13658TIP3   OH240895   6.946   7.138   5.149
13658TIP3    H140896   6.997   7.074   5.096
13658TIP3    H240897   6.936   7.213   5.087
13659TIP3   OH240898   6.775   7.439   5.342
13659TIP3    H140899   6.704   7.479   5.396
13659TIP3    H240900   6.724   7.391   5.274
13660TIP3   OH240901   6.830   6.646   4.365
13660TIP3    H140902   6.760   6.654   4.295
13660TIP3    H240903   6.805   6.724   4.419
13661TIP3   OH240904   6.711   6.318   4.318
13661TIP3    H140905   6.662   6.372   4.255
13661TIP3    H240906   6.674   6.229   4.300
13662TIP3   OH240907   6.708   6.600   4.864
13662TIP3    H140908   6.708   6.503   4.863
13662TIP3    H240909   6.691   6.619   4.959
13663TIP3   OH240910   5.330   6.676   5.610
13663TIP3    H140911   5.328   6.643   5.518
13663TIP3    H240912   5.428   6.678   5.626
13664TIP3   OH240913   6.996   7.028   5.720
13664TIP3    H140914   7.068   6.962   5.710
13664TIP3    H240915   7.020   7.097   5.657
13665TIP3   OH240916   7.179   6.832   5.734
13665TIP3    H140917   7.105   6.782   5.775
13665TIP3    H240918   7.252   6.768   5.749
13666TIP3   OH240919   6.648   6.049   4.308
13666TIP3    H140920   6.698   6.018   4.385
13666TIP3    H240921   6.562   6.003   4.318
13667TIP3   OH240922   6.698   6.317   4.762
13667TIP3    H140923   6.734   6.226   4.778
13667TIP3    H240924   6.760   6.347   4.694
13668TIP3   OH240925   6.863   6.488   5.253
13668TIP3    H140926   6.949   6.516   5.215
13668TIP3    H240927   6.872   6.527   5.343
13669TIP3   OH240928   6.930   6.634   5.483
13669TIP3    H140929   6.855   6.668   5.535
13669TIP3    H240930   6.962   6.716   5.440
13670TIP3   OH240931   5.543   6.358   6.281
13670TIP3    H140932   5.641   6.354   6.280
13670TIP3    H240933   5.523   6.273   6.325
13671TIP3   OH240934   7.384   6.227   6.041
13671TIP3    H140935   7.443   6.162   5.998
13671TIP3    H240936   7.353   6.281   5.965
13672TIP3   OH240937   6.796   6.068   4.801
13672TIP3    H140938   6.853   6.052   4.879
13672TIP3    H240939   6.741   5.987   4.802
13673TIP3   OH240940   5.515   6.051   5.669
13673TIP3    H140941   5.573   5.978   5.642
13673TIP3    H240942   5.558   6.126   5.625
13674TIP3   OH240943   5.311   6.328   5.689
13674TIP3    H140944   5.356   6.315   5.603
13674TIP3    H240945   5.346   6.414   5.714
13675TIP3   OH240946   7.254   6.366   5.849
13675TIP3    H140947   7.170   6.409   5.874
13675TIP3    H240948   7.220   6.298   5.789
13676TIP3   OH240949   6.924   6.000   4.431
13676TIP3    H140950   6.934   5.920   4.375
13676TIP3    H240951   6.919   6.069   4.364
13677TIP3   OH240952   5.280   5.800   5.172
13677TIP3    H140953   5.204   5.831   5.224
13677TIP3    H240954   5.320   5.885   5.147
13678TIP3   OH240955   6.453   7.537   4.694
13678TIP3    H140956   6.505   7.523   4.611
13678TIP3    H240957   6.509   7.600   4.742
13679TIP3   OH240958   5.517   5.907   6.003
13679TIP3    H140959   5.462   5.909   6.084
13679TIP3    H240960   5.457   5.950   5.939
13680TIP3   OH240961   5.555   7.344   6.084
13680TIP3    H140962   5.467   7.310   6.059
13680TIP3    H240963   5.563   7.312   6.175
13681TIP3   OH240964   5.732   7.374   5.630
13681TIP3    H140965   5.687   7.450   5.588
13681TIP3    H240966   5.819   7.385   5.586
13682TIP3   OH240967   6.180   7.619   5.770
13682TIP3    H140968   6.225   7.618   5.857
13682TIP3    H240969   6.247   7.666   5.715
13683TIP3   OH240970   6.359   7.768   5.624
13683TIP3    H140971   6.428   7.714   5.583
13683TIP3    H240972   6.412   7.824   5.684
13684TIP3   OH240973   7.154   6.131   5.724
13684TIP3    H140974   7.063   6.130   5.690
13684TIP3    H240975   7.180   6.037   5.712
13685TIP3   OH240976   5.411   7.632   5.648
13685TIP3    H140977   5.321   7.666   5.627
13685TIP3    H240978   5.417   7.656   5.741
13686TIP3   OH240979   5.648   7.610   5.509
13686TIP3    H140980   5.561   7.621   5.554
13686TIP3    H240981   5.628   7.639   5.419
13687TIP3   OH240982   6.074   7.638   5.305
13687TIP3    H140983   6.002   7.656   5.242
13687TIP3    H240984   6.085   7.725   5.349
13688TIP3   OH240985   6.342   7.577   5.356
13688TIP3    H140986   6.247   7.593   5.336
13688TIP3    H240987   6.384   7.654   5.316
13689TIP3   OH240988   6.549   7.767   5.274
13689TIP3    H140989   6.536   7.851   5.224
13689TIP3    H240990   6.575   7.706   5.202
13690TIP3   OH240991   5.323   7.422   5.398
13690TIP3    H140992   5.350   7.395   5.488
13690TIP3    H240993   5.394   7.376   5.347
13691TIP3   OH240994   5.517   7.292   5.253
13691TIP3    H140995   5.532   7.208   5.303
13691TIP3    H240996   5.608   7.327   5.249
13692TIP3   OH240997   5.784   7.387   5.256
13692TIP3    H140998   5.814   7.294   5.246
13692TIP3    H240999   5.828   7.408   5.340
13693TIP3   OH241000   6.363   6.045   5.346
13693TIP3    H141001   6.313   5.980   5.399
13693TIP3    H241002   6.430   5.990   5.302
13694TIP3   OH241003   6.882   5.915   5.244
13694TIP3    H141004   6.916   5.976   5.176
13694TIP3    H241005   6.788   5.939   5.246
13695TIP3   OH241006   6.976   6.030   5.011
13695TIP3    H141007   7.052   5.980   4.974
13695TIP3    H241008   7.005   6.122   4.997
13696TIP3   OH241009   5.611   5.753   5.359
13696TIP3    H141010   5.516   5.727   5.357
13696TIP3    H241011   5.654   5.665   5.353
13697TIP3   OH241012   6.059   5.776   5.240
13697TIP3    H141013   6.110   5.836   5.184
13697TIP3    H241014   6.050   5.827   5.321
13698TIP3   OH241015   6.602   5.930   5.223
13698TIP3    H141016   6.587   5.896   5.134
13698TIP3    H241017   6.585   5.850   5.278
13699TIP3   OH241018   6.624   5.851   4.784
13699TIP3    H141019   6.541   5.899   4.801
13699TIP3    H241020   6.607   5.767   4.833
13700TIP3   OH241021   5.111   7.192   4.785
13700TIP3    H141022   5.026   7.159   4.753
13700TIP3    H241023   5.099   7.287   4.771
13701TIP3   OH241024   5.513   5.759   4.757
13701TIP3    H141025   5.602   5.748   4.719
13701TIP3    H241026   5.533   5.826   4.825
13702TIP3   OH241027   6.024   5.956   4.869
13702TIP3    H141028   6.081   5.911   4.933
13702TIP3    H241029   6.042   6.049   4.895
13703TIP3   OH241030   5.881   7.383   4.368
13703TIP3    H141031   5.971   7.403   4.334
13703TIP3    H241032   5.859   7.307   4.309
13704TIP3   OH241033   6.598   7.501   4.463
13704TIP3    H141034   6.591   7.403   4.450
13704TIP3    H241035   6.558   7.532   4.379
13705TIP3   OH241036   5.813   6.031   6.251
13705TIP3    H141037   5.779   5.961   6.309
13705TIP3    H241038   5.907   6.034   6.278
13706TIP3   OH241039   6.063   6.034   6.372
13706TIP3    H141040   6.146   6.012   6.328
13706TIP3    H241041   6.052   5.960   6.436
13707TIP3   OH241042   5.186   7.222   4.426
13707TIP3    H141043   5.181   7.244   4.521
13707TIP3    H241044   5.275   7.180   4.418
13708TIP3   OH241045   6.888   6.089   6.159
13708TIP3    H141046   6.908   6.060   6.250
13708TIP3    H241047   6.977   6.088   6.118
13709TIP3   OH241048   6.829   7.647   5.649
13709TIP3    H141049   6.749   7.615   5.601
13709TIP3    H241050   6.807   7.743   5.654
13710TIP3   OH241051   8.093   7.015   4.416
13710TIP3    H141052   8.067   7.108   4.399
13710TIP3    H241053   8.014   6.969   4.384
13711TIP3   OH241054   8.088   7.017   4.799
13711TIP3    H141055   8.123   6.990   4.886
13711TIP3    H241056   8.050   6.934   4.766
13712TIP3   OH241057   7.393   6.911   5.161
13712TIP3    H141058   7.422   6.844   5.225
13712TIP3    H241059   7.467   6.973   5.165
13713TIP3   OH241060   8.332   7.319   4.479
13713TIP3    H141061   8.328   7.250   4.547
13713TIP3    H241062   8.368   7.394   4.530
13714TIP3   OH241063   7.362   7.320   4.886
13714TIP3    H141064   7.353   7.222   4.890
13714TIP3    H241065   7.459   7.329   4.883
13715TIP3   OH241066   7.072   6.512   4.657
13715TIP3    H141067   7.045   6.600   4.692
13715TIP3    H241068   6.984   6.471   4.650
13716TIP3   OH241069   7.131   6.810   4.837
13716TIP3    H141070   7.184   6.740   4.880
13716TIP3    H241071   7.198   6.858   4.786
13717TIP3   OH241072   7.986   7.783   4.496
13717TIP3    H141073   8.031   7.711   4.446
13717TIP3    H241074   7.975   7.742   4.583
13718TIP3   OH241075   7.893   7.244   4.846
13718TIP3    H141076   7.931   7.165   4.802
13718TIP3    H241077   7.976   7.289   4.869
13719TIP3   OH241078   8.903   6.565   4.845
13719TIP3    H141079   8.931   6.646   4.892
13719TIP3    H241080   8.920   6.589   4.752
13720TIP3   OH241081   8.300   6.746   4.878
13720TIP3    H141082   8.345   6.663   4.902
13720TIP3    H241083   8.273   6.726   4.786
13721TIP3   OH241084   7.635   6.401   4.843
13721TIP3    H141085   7.623   6.474   4.780
13721TIP3    H241086   7.588   6.329   4.796
13722TIP3   OH241087   8.336   6.494   4.465
13722TIP3    H141088   8.406   6.478   4.532
13722TIP3    H241089   8.390   6.530   4.393
13723TIP3   OH241090   7.278   6.608   4.946
13723TIP3    H141091   7.357   6.592   5.001
13723TIP3    H241092   7.302   6.556   4.867
13724TIP3   OH241093   7.719   6.804   4.741
13724TIP3    H141094   7.813   6.779   4.755
13724TIP3    H241095   7.681   6.719   4.710
13725TIP3   OH241096   8.977   6.773   5.014
13725TIP3    H141097   8.895   6.824   4.996
13725TIP3    H241098   8.983   6.786   5.110
13726TIP3   OH241099   7.636   6.386   5.277
13726TIP3    H141100   7.577   6.428   5.211
13726TIP3    H241101   7.587   6.403   5.359
13727TIP3   OH241102   7.985   7.238   4.284
13727TIP3    H141103   7.940   7.220   4.200
13727TIP3    H241104   7.942   7.321   4.311
13728TIP3   OH241105   7.745   7.163   5.072
13728TIP3    H141106   7.682   7.227   5.111
13728TIP3    H241107   7.784   7.214   4.999
13729TIP3   OH241108   8.546   6.496   4.638
13729TIP3    H141109   8.533   6.454   4.724
13729TIP3    H241110   8.598   6.575   4.663
13730TIP3   OH241111   7.507   6.504   5.063
13730TIP3    H141112   7.568   6.577   5.089
13730TIP3    H241113   7.559   6.463   4.990
13731TIP3   OH241114   7.568   7.354   5.168
13731TIP3    H141115   7.544   7.442   5.132
13731TIP3    H241116   7.492   7.339   5.227
13732TIP3   OH241117   6.967   7.043   4.410
13732TIP3    H141118   6.931   7.065   4.322
13732TIP3    H241119   6.998   7.131   4.442
13733TIP3   OH241120   8.396   7.548   4.638
13733TIP3    H141121   8.307   7.548   4.680
13733TIP3    H241122   8.397   7.636   4.597
13734TIP3   OH241123   8.696   6.456   5.005
13734TIP3    H141124   8.612   6.498   4.981
13734TIP3    H241125   8.758   6.493   4.939
13735TIP3   OH241126   7.991   6.106   4.986
13735TIP3    H141127   7.982   6.012   5.009
13735TIP3    H241128   7.916   6.144   5.036
13736TIP3   OH241129   8.105   7.609   4.316
13736TIP3    H141130   8.157   7.527   4.301
13736TIP3    H241131   8.169   7.676   4.283
13737TIP3   OH241132   8.251   7.393   4.228
13737TIP3    H141133   8.209   7.314   4.192
13737TIP3    H241134   8.286   7.360   4.313
13738TIP3   OH241135   7.923   6.865   4.246
13738TIP3    H141136   7.845   6.921   4.227
13738TIP3    H241137   7.971   6.868   4.162
13739TIP3   OH241138   7.882   6.652   3.963
13739TIP3    H141139   7.947   6.704   4.014
13739TIP3    H241140   7.943   6.591   3.916
13740TIP3   OH241141   8.818   7.095   4.814
13740TIP3    H141142   8.746   7.157   4.839
13740TIP3    H241143   8.856   7.143   4.738
13741TIP3   OH241144   8.272   6.950   4.219
13741TIP3    H141145   8.217   6.974   4.298
13741TIP3    H241146   8.356   6.926   4.263
13742TIP3   OH241147   8.504   7.001   5.114
13742TIP3    H141148   8.502   7.094   5.141
13742TIP3    H241149   8.413   6.991   5.081
13743TIP3   OH241150   7.504   6.948   4.637
13743TIP3    H141151   7.466   6.891   4.567
13743TIP3    H241152   7.583   6.896   4.665
13744TIP3   OH241153   7.635   7.360   4.785
13744TIP3    H141154   7.613   7.322   4.699
13744TIP3    H241155   7.725   7.324   4.801
13745TIP3   OH241156   7.640   6.921   4.987
13745TIP3    H141157   7.678   6.900   4.899
13745TIP3    H241158   7.685   7.005   5.010
13746TIP3   OH241159   8.157   7.562   4.767
13746TIP3    H141160   8.156   7.642   4.823
13746TIP3    H241161   8.148   7.488   4.829
13747TIP3   OH241162   7.773   7.470   5.309
13747TIP3    H141163   7.716   7.531   5.361
13747TIP3    H241164   7.705   7.418   5.264
13748TIP3   OH241165   8.113   6.809   4.044
13748TIP3    H141166   8.171   6.869   4.096
13748TIP3    H241167   8.139   6.833   3.952
13749TIP3   OH241168   7.530   7.035   5.413
13749TIP3    H141169   7.537   7.121   5.458
13749TIP3    H241170   7.436   7.015   5.429
13750TIP3   OH241171   7.854   7.487   4.324
13750TIP3    H141172   7.934   7.541   4.336
13750TIP3    H241173   7.793   7.548   4.280
13751TIP3   OH241174   7.571   7.634   5.396
13751TIP3    H141175   7.526   7.637   5.310
13751TIP3    H241176   7.497   7.624   5.459
13752TIP3   OH241177   8.626   6.053   4.092
13752TIP3    H141178   8.546   6.073   4.144
13752TIP3    H241179   8.640   6.137   4.045
13753TIP3   OH241180   7.374   6.791   4.435
13753TIP3    H141181   7.312   6.843   4.380
13753TIP3    H241182   7.319   6.715   4.456
13754TIP3   OH241183   8.431   7.408   3.640
13754TIP3    H141184   8.441   7.506   3.647
13754TIP3    H241185   8.524   7.381   3.628
13755TIP3   OH241186   7.152   7.176   5.347
13755TIP3    H141187   7.084   7.154   5.281
13755TIP3    H241188   7.188   7.088   5.372
13756TIP3   OH241189   7.006   7.368   4.980
13756TIP3    H141190   7.102   7.366   4.973
13756TIP3    H241191   6.992   7.447   5.035
13757TIP3   OH241192   7.946   7.610   5.162
13757TIP3    H141193   7.910   7.697   5.185
13757TIP3    H241194   7.884   7.552   5.212
13758TIP3   OH241195   7.737   7.736   4.123
13758TIP3    H141196   7.688   7.716   4.041
13758TIP3    H241197   7.703   7.824   4.148
13759TIP3   OH241198   7.174   7.585   4.507
13759TIP3    H141199   7.221   7.574   4.592
13759TIP3    H241200   7.116   7.507   4.509
13760TIP3   OH241201   7.936   7.635   3.762
13760TIP3    H141202   7.996   7.567   3.725
13760TIP3    H241203   7.970   7.643   3.854
13761TIP3   OH241204   7.986   7.672   4.037
13761TIP3    H141205   7.897   7.686   4.077
13761TIP3    H241206   8.033   7.631   4.111
13762TIP3   OH241207   8.734   6.963   5.307
13762TIP3    H141208   8.692   6.971   5.221
13762TIP3    H241209   8.777   6.876   5.301
13763TIP3   OH241210   7.356   7.359   5.338
13763TIP3    H141211   7.406   7.343   5.421
13763TIP3    H241212   7.283   7.295   5.346
13764TIP3   OH241213   7.755   6.181   5.121
13764TIP3    H141214   7.665   6.153   5.095
13764TIP3    H241215   7.733   6.264   5.168
13765TIP3   OH241216   8.291   6.294   5.314
13765TIP3    H141217   8.362   6.270   5.377
13765TIP3    H241218   8.209   6.277   5.364
13766TIP3   OH241219   8.528   6.726   5.224
13766TIP3    H141220   8.480   6.722   5.310
13766TIP3    H241221   8.516   6.819   5.200
13767TIP3   OH241222   8.184   6.855   3.787
13767TIP3    H141223   8.155   6.829   3.698
13767TIP3    H241224   8.267   6.902   3.765
13768TIP3   OH241225   7.897   6.233   4.091
13768TIP3    H141226   7.868   6.229   4.184
13768TIP3    H241227   7.863   6.148   4.059
13769TIP3   OH241228   7.684   6.699   5.138
13769TIP3    H141229   7.639   6.724   5.221
13769TIP3    H241230   7.670   6.780   5.084
13770TIP3   OH241231   7.575   6.583   4.651
13770TIP3    H141232   7.481   6.560   4.663
13770TIP3    H241233   7.592   6.544   4.562
13771TIP3   OH241234   8.060   6.665   4.378
13771TIP3    H141235   8.009   6.739   4.338
13771TIP3    H241236   8.117   6.638   4.304
13772TIP3   OH241237   8.228   6.952   5.467
13772TIP3    H141238   8.219   6.875   5.527
13772TIP3    H241239   8.293   7.006   5.515
13773TIP3   OH241240   8.217   6.697   4.620
13773TIP3    H141241   8.159   6.728   4.548
13773TIP3    H241242   8.251   6.615   4.577
13774TIP3   OH241243   7.503   6.726   5.348
13774TIP3    H141244   7.535   6.792   5.412
13774TIP3    H241245   7.496   6.646   5.403
13775TIP3   OH241246   7.553   6.202   4.057
13775TIP3    H141247   7.549   6.205   4.154
13775TIP3    H241248   7.477   6.259   4.033
13776TIP3   OH241249   7.115   6.250   4.911
13776TIP3    H141250   7.166   6.290   4.985
13776TIP3    H241251   7.181   6.192   4.872
13777TIP3   OH241252   8.223   6.944   5.043
13777TIP3    H141253   8.257   6.871   4.985
13777TIP3    H241254   8.199   6.891   5.122
13778TIP3   OH241255   7.895   6.408   4.714
13778TIP3    H141256   7.819   6.406   4.775
13778TIP3    H241257   7.970   6.403   4.776
13779TIP3   OH241258   7.333   6.463   4.711
13779TIP3    H141259   7.235   6.462   4.708
13779TIP3    H241260   7.358   6.369   4.720
13780TIP3   OH241261   7.602   6.454   4.410
13780TIP3    H141262   7.698   6.470   4.396
13780TIP3    H241263   7.562   6.484   4.325
13781TIP3   OH241264   8.389   6.484   4.910
13781TIP3    H141265   8.362   6.495   5.004
13781TIP3    H241266   8.322   6.421   4.879
13782TIP3   OH241267   7.436   6.485   4.185
13782TIP3    H141268   7.375   6.443   4.122
13782TIP3    H241269   7.496   6.530   4.121
13783TIP3   OH241270   7.518   7.281   5.558
13783TIP3    H141271   7.598   7.312   5.605
13783TIP3    H241272   7.455   7.280   5.632
13784TIP3   OH241273   7.981   6.731   4.809
13784TIP3    H141274   8.058   6.698   4.761
13784TIP3    H241275   7.993   6.692   4.898
13785TIP3   OH241276   7.492   6.223   4.688
13785TIP3    H141277   7.469   6.138   4.732
13785TIP3    H241278   7.556   6.194   4.621
13786TIP3   OH241279   7.958   6.629   5.106
13786TIP3    H141280   7.871   6.672   5.118
13786TIP3    H241281   8.019   6.688   5.154
13787TIP3   OH241282   7.699   7.020   4.198
13787TIP3    H141283   7.623   6.959   4.184
13787TIP3    H241284   7.678   7.055   4.288
13788TIP3   OH241285   8.592   7.254   4.838
13788TIP3    H141286   8.621   7.310   4.762
13788TIP3    H241287   8.509   7.217   4.803
13789TIP3   OH241288   8.152   6.334   4.055
13789TIP3    H141289   8.056   6.320   4.065
13789TIP3    H241290   8.165   6.428   4.082
13790TIP3   OH241291   8.103   7.344   5.202
13790TIP3    H141292   8.094   7.296   5.285
13790TIP3    H241293   8.044   7.419   5.213
13791TIP3   OH241294   8.223   6.580   4.160
13791TIP3    H141295   8.319   6.586   4.178
13791TIP3    H241296   8.206   6.662   4.109
13792TIP3   OH241297   7.381   7.035   4.873
13792TIP3    H141298   7.425   7.011   4.788
13792TIP3    H241299   7.433   6.983   4.937
13793TIP3   OH241300   7.838   7.171   4.016
13793TIP3    H141301   7.792   7.258   4.021
13793TIP3    H241302   7.784   7.117   4.077
13794TIP3   OH241303   7.267   6.964   5.486
13794TIP3    H141304   7.290   6.950   5.580
13794TIP3    H241305   7.198   6.897   5.473
13795TIP3   OH241306   7.988   7.085   5.476
13795TIP3    H141307   7.936   7.007   5.451
13795TIP3    H241308   8.077   7.045   5.482
13796TIP3   OH241309   8.285   7.579   5.083
13796TIP3    H141310   8.192   7.572   5.058
13796TIP3    H241311   8.279   7.652   5.149
13797TIP3   OH241312   8.665   6.670   3.999
13797TIP3    H141313   8.601   6.627   3.937
13797TIP3    H241314   8.663   6.759   3.957
13798TIP3   OH241315   8.364   7.481   3.903
13798TIP3    H141316   8.338   7.418   3.971
13798TIP3    H241317   8.374   7.426   3.823
13799TIP3   OH241318   8.354   7.122   4.743
13799TIP3    H141319   8.261   7.092   4.754
13799TIP3    H241320   8.394   7.044   4.700
13800TIP3   OH241321   7.488   7.347   4.497
13800TIP3    H141322   7.488   7.429   4.444
13800TIP3    H241323   7.394   7.330   4.506
13801TIP3   OH241324   7.060   6.643   4.207
13801TIP3    H141325   7.099   6.733   4.213
13801TIP3    H241326   6.976   6.657   4.255
13802TIP3   OH241327   7.625   7.112   4.441
13802TIP3    H141328   7.592   7.203   4.458
13802TIP3    H241329   7.590   7.064   4.517
13803TIP3   OH241330   7.752   7.692   4.962
13803TIP3    H141331   7.793   7.765   4.910
13803TIP3    H241332   7.830   7.644   4.993
13804TIP3   OH241333   7.408   7.586   4.351
13804TIP3    H141334   7.322   7.594   4.396
13804TIP3    H241335   7.439   7.679   4.352
13805TIP3   OH241336   8.147   7.329   4.928
13805TIP3    H141337   8.147   7.321   5.026
13805TIP3    H241338   8.223   7.274   4.904
13806TIP3   OH241339   8.120   7.218   3.808
13806TIP3    H141340   8.172   7.192   3.887
13806TIP3    H241341   8.031   7.191   3.835
13807TIP3   OH241342   8.470   7.681   3.659
13807TIP3    H141343   8.534   7.752   3.666
13807TIP3    H241344   8.390   7.723   3.699
13808TIP3   OH241345   7.479   6.467   5.494
13808TIP3    H141346   7.384   6.475   5.512
13808TIP3    H241347   7.509   6.411   5.567
13809TIP3   OH241348   8.280   7.150   4.023
13809TIP3    H141349   8.270   7.085   4.096
13809TIP3    H241350   8.377   7.147   4.012
13810TIP3   OH241351   7.197   7.553   5.125
13810TIP3    H141352   7.249   7.478   5.159
13810TIP3    H241353   7.220   7.622   5.187
13811TIP3   OH241354   7.508   7.187   3.800
13811TIP3    H141355   7.506   7.092   3.783
13811TIP3    H241356   7.478   7.190   3.894
13812TIP3   OH241357   7.447   7.201   4.067
13812TIP3    H141358   7.500   7.181   4.145
13812TIP3    H241359   7.436   7.298   4.075
13813TIP3   OH241360   7.167   6.897   4.284
13813TIP3    H141361   7.101   6.942   4.340
13813TIP3    H241362   7.179   6.966   4.215
13814TIP3   OH241363   8.320   6.527   5.167
13814TIP3    H141364   8.389   6.578   5.212
13814TIP3    H241365   8.306   6.452   5.229
13815TIP3   OH241366   8.195   6.286   4.339
13815TIP3    H141367   8.185   6.311   4.246
13815TIP3    H241368   8.235   6.367   4.378
13816TIP3   OH241369   7.703   7.404   4.028
13816TIP3    H141370   7.614   7.422   4.064
13816TIP3    H241371   7.711   7.477   3.966
13817TIP3   OH241372   7.879   6.466   4.442
13817TIP3    H141373   7.946   6.536   4.423
13817TIP3    H241374   7.890   6.456   4.540
13818TIP3   OH241375   8.156   6.782   5.252
13818TIP3    H141376   8.175   6.841   5.327
13818TIP3    H241377   8.216   6.708   5.273
13819TIP3   OH241378   8.029   6.190   4.542
13819TIP3    H141379   8.035   6.259   4.610
13819TIP3    H241380   8.089   6.227   4.473
13820TIP3   OH241381   7.444   7.474   4.096
13820TIP3    H141382   7.408   7.540   4.033
13820TIP3    H241383   7.425   7.516   4.182
13821TIP3   OH241384   7.540   6.193   4.335
13821TIP3    H141385   7.548   6.286   4.368
13821TIP3    H241386   7.633   6.166   4.343
13822TIP3   OH241387   8.802   6.689   5.231
13822TIP3    H141388   8.706   6.687   5.246
13822TIP3    H241389   8.808   6.646   5.146
13823TIP3   OH241390   8.446   6.878   4.617
13823TIP3    H141391   8.371   6.818   4.634
13823TIP3    H241392   8.519   6.834   4.666
13824TIP3   OH241393   7.154   7.107   4.097
13824TIP3    H141394   7.161   7.202   4.075
13824TIP3    H241395   7.209   7.069   4.026
13825TIP3   OH241396   7.098   6.383   4.268
13825TIP3    H141397   7.107   6.475   4.232
13825TIP3    H241398   7.039   6.346   4.200
13826TIP3   OH241399   8.406   7.813   4.545
13826TIP3    H141400   8.383   7.895   4.499
13826TIP3    H241401   8.488   7.836   4.592
13827TIP3   OH241402   7.489   6.101   5.096
13827TIP3    H141403   7.459   6.064   5.010
13827TIP3    H241404   7.482   6.023   5.155
13828TIP3   OH241405   7.035   7.317   4.479
13828TIP3    H141406   6.960   7.350   4.530
13828TIP3    H241407   7.013   7.355   4.391
13829TIP3   OH241408   7.188   7.855   5.536
13829TIP3    H141409   7.270   7.835   5.584
13829TIP3    H241410   7.147   7.767   5.536
13830TIP3   OH241411   7.648   7.404   3.718
13830TIP3    H141412   7.589   7.334   3.756
13830TIP3    H241413   7.725   7.349   3.695
13831TIP3   OH241414   8.085   7.442   3.633
13831TIP3    H141415   8.127   7.378   3.693
13831TIP3    H241416   8.143   7.439   3.554
13832TIP3   OH241417   7.313   7.257   5.743
13832TIP3    H141418   7.329   7.161   5.747
13832TIP3    H241419   7.225   7.261   5.699
13833TIP3   OH241420   7.295   6.915   3.939
13833TIP3    H141421   7.352   6.896   4.016
13833TIP3    H241422   7.363   6.922   3.869
13834TIP3   OH241423   7.921   7.344   5.520
13834TIP3    H141424   7.879   7.365   5.435
13834TIP3    H241425   7.949   7.250   5.509
13835TIP3   OH241426   7.813   7.117   3.744
13835TIP3    H141427   7.805   7.132   3.840
13835TIP3    H241428   7.804   7.020   3.740
13836TIP3   OH241429   8.428   7.346   5.134
13836TIP3    H141430   8.493   7.362   5.065
13836TIP3    H241431   8.364   7.419   5.117
13837TIP3   OH241432   7.438   6.993   5.724
13837TIP3    H141433   7.522   6.950   5.704
13837TIP3    H241434   7.457   7.028   5.814
13838TIP3   OH241435   7.502   6.824   4.163
13838TIP3    H141436   7.476   6.785   4.248
13838TIP3    H241437   7.538   6.748   4.114
13839TIP3   OH241438   7.769   6.881   5.387
13839TIP3    H141439   7.697   6.947   5.392
13839TIP3    H241440   7.823   6.917   5.312
13840TIP3   OH241441   7.602   6.611   4.008
13840TIP3    H141442   7.575   6.621   3.914
13840TIP3    H241443   7.699   6.618   4.000
13841TIP3   OH241444   8.419   6.945   3.670
13841TIP3    H141445   8.408   6.900   3.584
13841TIP3    H241446   8.391   7.035   3.644
13842TIP3   OH241447   7.895   6.671   5.514
13842TIP3    H141448   7.897   6.593   5.455
13842TIP3    H241449   7.852   6.738   5.456
13843TIP3   OH241450   7.896   6.459   5.324
13843TIP3    H141451   7.925   6.504   5.242
13843TIP3    H241452   7.802   6.439   5.304
13844TIP3   OH241453   7.919   6.986   5.188
13844TIP3    H141454   8.007   7.002   5.152
13844TIP3    H241455   7.867   7.059   5.149
13845TIP3   OH241456   7.775   6.774   5.745
13845TIP3    H141457   7.702   6.711   5.756
13845TIP3    H241458   7.807   6.754   5.656
13846TIP3   OH241459   8.028   6.224   5.392
13846TIP3    H141460   7.980   6.307   5.370
13846TIP3    H241461   7.959   6.156   5.381
13847TIP3   OH241462   8.154   6.729   5.609
13847TIP3    H141463   8.138   6.726   5.705
13847TIP3    H241464   8.064   6.705   5.577
13848TIP3   OH241465   8.371   6.671   5.439
13848TIP3    H141466   8.310   6.684   5.514
13848TIP3    H241467   8.451   6.636   5.485
13849TIP3   OH241468   8.595   6.576   5.557
13849TIP3    H141469   8.620   6.484   5.577
13849TIP3    H241470   8.613   6.619   5.643
13850TIP3   OH241471   7.604   6.564   5.796
13850TIP3    H141472   7.614   6.473   5.763
13850TIP3    H241473   7.644   6.556   5.885
13851TIP3   OH241474   8.124   6.234   5.649
13851TIP3    H141475   8.193   6.165   5.644
13851TIP3    H241476   8.086   6.228   5.559
13852TIP3   OH241477   8.180   6.448   5.813
13852TIP3    H141478   8.166   6.377   5.746
13852TIP3    H241479   8.112   6.513   5.787
13853TIP3   OH241480   7.410   7.682   3.908
13853TIP3    H141481   7.505   7.674   3.890
13853TIP3    H241482   7.381   7.730   3.829
13854TIP3   OH241483   6.889   7.053   4.141
13854TIP3    H141484   6.976   7.086   4.113
13854TIP3    H241485   6.881   6.974   4.083
13855TIP3   OH241486   6.803   7.675   4.540
13855TIP3    H141487   6.739   7.612   4.500
13855TIP3    H241488   6.848   7.617   4.604
13856TIP3   OH241489   6.940   7.527   4.725
13856TIP3    H141490   6.929   7.451   4.785
13856TIP3    H241491   6.991   7.587   4.782
13857TIP3   OH241492   8.560   7.134   4.000
13857TIP3    H141493   8.630   7.195   3.971
13857TIP3    H241494   8.602   7.095   4.080
13858TIP3   OH241495   8.686   7.005   4.207
13858TIP3    H141496   8.618   6.961   4.262
13858TIP3    H241497   8.743   7.047   4.274
13859TIP3   OH241498   8.710   7.375   4.622
13859TIP3    H141499   8.789   7.325   4.597
13859TIP3    H241500   8.724   7.459   4.574
13860TIP3   OH241501   8.565   7.711   4.803
13860TIP3    H141502   8.522   7.705   4.889
13860TIP3    H241503   8.534   7.630   4.759
13861TIP3   OH241504   8.624   6.908   3.850
13861TIP3    H141505   8.553   6.910   3.782
13861TIP3    H241506   8.597   6.984   3.904
13862TIP3   OH241507   8.495   6.582   3.807
13862TIP3    H141508   8.457   6.623   3.728
13862TIP3    H241509   8.469   6.488   3.794
13863TIP3   OH241510   8.502   6.859   4.350
13863TIP3    H141511   8.511   6.763   4.345
13863TIP3    H241512   8.487   6.874   4.446
13864TIP3   OH241513   7.128   6.929   5.095
13864TIP3    H141514   7.127   6.905   5.001
13864TIP3    H241515   7.225   6.931   5.113
13865TIP3   OH241516   8.440   6.316   3.788
13865TIP3    H141517   8.517   6.289   3.842
13865TIP3    H241518   8.369   6.256   3.818
13866TIP3   OH241519   8.496   6.574   4.245
13866TIP3    H141520   8.537   6.485   4.260
13866TIP3    H241521   8.556   6.607   4.175
13867TIP3   OH241522   8.656   6.748   4.739
13867TIP3    H141523   8.743   6.771   4.700
13867TIP3    H241524   8.670   6.786   4.829
13868TIP3   OH241525   8.725   6.891   4.971
13868TIP3    H141526   8.646   6.928   5.014
13868TIP3    H241527   8.760   6.970   4.923
13869TIP3   OH241528   7.340   6.615   5.764
13869TIP3    H141529   7.438   6.611   5.769
13869TIP3    H241530   7.317   6.532   5.810
13870TIP3   OH241531   8.606   6.325   4.282
13870TIP3    H141532   8.657   6.310   4.365
13870TIP3    H241533   8.547   6.247   4.283
13871TIP3   OH241534   7.306   6.310   5.094
13871TIP3    H141535   7.368   6.237   5.110
13871TIP3    H241536   7.366   6.386   5.096
13872TIP3   OH241537   7.110   6.581   5.175
13872TIP3    H141538   7.162   6.589   5.092
13872TIP3    H241539   7.129   6.666   5.217
13873TIP3   OH241540   9.034   6.587   5.369
13873TIP3    H141541   8.970   6.657   5.346
13873TIP3    H241542   9.029   6.530   5.290
13874TIP3   OH241543   8.685   6.261   3.912
13874TIP3    H141544   8.728   6.188   3.863
13874TIP3    H241545   8.754   6.331   3.910
13875TIP3   OH241546   8.256   7.805   4.198
13875TIP3    H141547   8.277   7.782   4.104
13875TIP3    H241548   8.346   7.810   4.231
13876TIP3   OH241549   7.311   6.163   5.487
13876TIP3    H141550   7.264   6.163   5.572
13876TIP3    H241551   7.245   6.206   5.429
13877TIP3   OH241552   7.350   7.602   5.579
13877TIP3    H141553   7.261   7.571   5.555
13877TIP3    H241554   7.355   7.574   5.672
13878TIP3   OH241555   7.526   7.624   5.110
13878TIP3    H141556   7.477   7.700   5.073
13878TIP3    H241557   7.612   7.641   5.066
13879TIP3   OH241558   8.946   6.380   5.194
13879TIP3    H141559   8.852   6.374   5.170
13879TIP3    H241560   8.974   6.286   5.190
13880TIP3   OH241561   7.204   7.884   5.136
13880TIP3    H141562   7.116   7.919   5.110
13880TIP3    H241563   7.208   7.917   5.226
13881TIP3   OH241564   7.439   7.859   4.994
13881TIP3    H141565   7.353   7.874   5.039
13881TIP3    H241566   7.421   7.894   4.905
13882TIP3   OH241567   7.865   7.890   4.793
13882TIP3    H141568   7.796   7.914   4.728
13882TIP3    H241569   7.880   7.975   4.838
13883TIP3   OH241570   8.129   7.834   4.852
13883TIP3    H141571   8.036   7.852   4.828
13883TIP3    H241572   8.177   7.893   4.794
13884TIP3   OH241573   7.119   7.679   4.884
13884TIP3    H141574   7.145   7.653   4.974
13884TIP3    H241575   7.190   7.634   4.833
13885TIP3   OH241576   7.311   7.549   4.740
13885TIP3    H141577   7.328   7.465   4.789
13885TIP3    H241578   7.402   7.586   4.734
13886TIP3   OH241579   7.577   7.645   4.741
13886TIP3    H141580   7.610   7.554   4.729
13886TIP3    H241581   7.619   7.668   4.826
13887TIP3   OH241582   8.146   6.297   4.817
13887TIP3    H141583   8.109   6.229   4.877
13887TIP3    H241584   8.228   6.254   4.785
13888TIP3   OH241585   8.677   6.176   4.732
13888TIP3    H141586   8.715   6.231   4.660
13888TIP3    H241587   8.583   6.203   4.731
13889TIP3   OH241588   8.773   6.281   4.498
13889TIP3    H141589   8.847   6.230   4.458
13889TIP3    H241590   8.808   6.372   4.484
13890TIP3   OH241591   7.398   6.007   4.845
13890TIP3    H141592   7.311   5.963   4.855
13890TIP3    H241593   7.456   5.927   4.841
13891TIP3   OH241594   7.197   5.872   4.494
13891TIP3    H141595   7.230   5.927   4.421
13891TIP3    H241596   7.120   5.922   4.524
13892TIP3   OH241597   7.842   6.047   4.732
13892TIP3    H141598   7.898   6.093   4.668
13892TIP3    H241599   7.876   6.080   4.816
13893TIP3   OH241600   8.387   6.188   4.713
13893TIP3    H141601   8.397   6.150   4.625
13893TIP3    H241602   8.376   6.107   4.768
13894TIP3   OH241603   8.422   6.110   4.273
13894TIP3    H141604   8.335   6.153   4.286
13894TIP3    H241605   8.409   6.026   4.321
13895TIP3   OH241606   6.900   7.451   4.289
13895TIP3    H141607   6.822   7.413   4.245
13895TIP3    H241608   6.899   7.540   4.251
13896TIP3   OH241609   7.307   6.043   4.267
13896TIP3    H141610   7.349   5.976   4.210
13896TIP3    H241611   7.385   6.094   4.297
13897TIP3   OH241612   7.818   6.213   4.358
13897TIP3    H141613   7.881   6.168   4.417
13897TIP3    H241614   7.839   6.306   4.383
13898TIP3   OH241615   7.677   7.640   3.856
13898TIP3    H141616   7.766   7.661   3.821
13898TIP3    H241617   7.654   7.565   3.796
13899TIP3   OH241618   8.364   7.747   3.961
13899TIP3    H141619   8.375   7.651   3.942
13899TIP3    H241620   8.337   7.783   3.875
13900TIP3   OH241621   7.613   6.287   5.735
13900TIP3    H141622   7.577   6.219   5.794
13900TIP3    H241623   7.707   6.287   5.764
13901TIP3   OH241624   7.861   6.289   5.861
13901TIP3    H141625   7.946   6.264   5.820
13901TIP3    H241626   7.851   6.216   5.926
13902TIP3   OH241627   8.678   6.328   5.647
13902TIP3    H141628   8.702   6.312   5.740
13902TIP3    H241629   8.764   6.319   5.601
13903TIP3   OH241630   8.861   6.788   4.159
13903TIP3    H141631   8.807   6.868   4.170
13903TIP3    H241632   8.795   6.728   4.121
13904TIP3   OH241633   8.938   7.072   4.329
13904TIP3    H141634   8.980   6.993   4.369
13904TIP3    H241635   8.969   7.065   4.238
13905TIP3   OH241636   9.077   6.869   4.444
13905TIP3    H141637   9.168   6.860   4.475
13905TIP3    H241638   9.080   6.803   4.370
13906TIP3   OH241639   8.765   7.303   3.888
13906TIP3    H141640   8.727   7.315   3.798
13906TIP3    H241641   8.754   7.390   3.928
13907TIP3   OH241642   8.805   7.604   4.498
13907TIP3    H141643   8.888   7.630   4.456
13907TIP3    H241644   8.772   7.686   4.536
13908TIP3   OH241645   8.899   6.503   4.413
13908TIP3    H141646   8.971   6.541   4.468
13908TIP3    H241647   8.946   6.476   4.334
13909TIP3   OH241648   8.869   6.486   3.933
13909TIP3    H141649   8.914   6.527   3.855
13909TIP3    H241650   8.808   6.559   3.955
13910TIP3   OH241651   9.113   6.709   4.231
13910TIP3    H141652   9.026   6.729   4.190
13910TIP3    H241653   9.152   6.646   4.169
13911TIP3   OH241654   8.845   6.904   3.682
13911TIP3    H141655   8.898   6.982   3.710
13911TIP3    H241656   8.768   6.911   3.742
13912TIP3   OH241657   9.267   6.731   4.996
13912TIP3    H141658   9.176   6.765   4.988
13912TIP3    H241659   9.258   6.641   4.964
13913TIP3   OH241660   8.961   7.139   3.764
13913TIP3    H141661   8.904   7.195   3.820
13913TIP3    H241662   8.965   7.189   3.680
13914TIP3   OH241663   8.900   6.639   3.709
13914TIP3    H141664   8.898   6.737   3.706
13914TIP3    H241665   8.817   6.616   3.666
13915TIP3   OH241666   9.271   6.365   4.598
13915TIP3    H141667   9.257   6.331   4.506
13915TIP3    H241668   9.279   6.281   4.647
13916TIP3   OH241669   8.695   7.314   3.619
13916TIP3    H141670   8.785   7.311   3.580
13916TIP3    H241671   8.663   7.229   3.581
13917TIP3   OH241672   8.931   7.198   4.577
13917TIP3    H141673   8.921   7.159   4.487
13917TIP3    H241674   9.026   7.201   4.586
13918TIP3   OH241675   9.102   6.575   4.586
13918TIP3    H141676   9.158   6.494   4.588
13918TIP3    H241677   9.164   6.639   4.620
13919TIP3   OH241678   8.905   6.833   4.663
13919TIP3    H141679   8.959   6.841   4.582
13919TIP3    H241680   8.915   6.920   4.705
13920TIP3   OH241681   8.885   6.334   4.155
13920TIP3    H141682   8.795   6.341   4.190
13920TIP3    H241683   8.885   6.400   4.083
13921TIP3   OH241684   9.115   6.440   4.981
13921TIP3    H141685   9.061   6.423   5.060
13921TIP3    H241686   9.045   6.468   4.919
13922TIP3   OH241687   9.196   6.258   4.358
13922TIP3    H141688   9.105   6.223   4.350
13922TIP3    H241689   9.248   6.187   4.318
13923TIP3   OH241690   8.979   6.134   3.978
13923TIP3    H141691   9.001   6.200   3.910
13923TIP3    H241692   8.953   6.192   4.052
13924TIP3   OH241693   9.095   6.291   3.738
13924TIP3    H141694   9.138   6.203   3.748
13924TIP3    H241695   9.152   6.349   3.791
13925TIP3   OH241696   1.353   7.351   6.535
13925TIP3    H141697   1.382   7.434   6.579
13925TIP3    H241698   1.377   7.371   6.443
13926TIP3   OH241699   0.790   7.240   6.170
13926TIP3    H141700   0.866   7.256   6.230
13926TIP3    H241701   0.789   7.322   6.118
13927TIP3   OH241702   1.420   7.556   6.713
13927TIP3    H141703   1.344   7.611   6.686
13927TIP3    H241704   1.446   7.598   6.796
13928TIP3   OH241705   1.003   7.292   6.339
13928TIP3    H141706   1.036   7.228   6.403
13928TIP3    H241707   1.057   7.371   6.359
13929TIP3   OH241708   1.137   7.240   6.676
13929TIP3    H141709   1.081   7.317   6.692
13929TIP3    H241710   1.208   7.277   6.620
13930TIP3   OH241711   1.097   8.281   6.678
13930TIP3    H141712   1.086   8.186   6.656
13930TIP3    H241713   1.051   8.324   6.605
13931TIP3   OH241714   1.286   7.895   6.522
13931TIP3    H141715   1.205   7.948   6.534
13931TIP3    H241716   1.313   7.924   6.432
13932TIP3   OH241717   1.084   6.839   5.782
13932TIP3    H141718   1.000   6.857   5.830
13932TIP3    H241719   1.095   6.923   5.733
13933TIP3   OH241720   0.888   8.202   5.343
13933TIP3    H141721   0.889   8.295   5.309
13933TIP3    H241722   0.980   8.174   5.325
13934TIP3   OH241723   1.222   7.733   6.950
13934TIP3    H141724   1.138   7.761   6.990
13934TIP3    H241725   1.227   7.641   6.980
13935TIP3   OH241726   0.998   7.530   6.931
13935TIP3    H141727   0.959   7.469   6.996
13935TIP3    H241728   0.933   7.601   6.933
13936TIP3   OH241729   0.649   7.764   5.412
13936TIP3    H141730   0.626   7.686   5.361
13936TIP3    H241731   0.746   7.763   5.405
13937TIP3   OH241732   1.057   8.043   6.523
13937TIP3    H141733   1.072   8.093   6.440
13937TIP3    H241734   0.960   8.041   6.531
13938TIP3   OH241735   0.711   7.368   5.778
13938TIP3    H141736   0.788   7.364   5.837
13938TIP3    H241737   0.666   7.447   5.809
13939TIP3   OH241738   1.118   7.457   5.687
13939TIP3    H141739   1.052   7.416   5.627
13939TIP3    H241740   1.116   7.547   5.649
13940TIP3   OH241741   1.363   8.337   6.745
13940TIP3    H141742   1.268   8.319   6.755
13940TIP3    H241743   1.380   8.292   6.661
13941TIP3   OH241744   0.776   8.240   5.595
13941TIP3    H141745   0.840   8.200   5.653
13941TIP3    H241746   0.820   8.236   5.508
13942TIP3   OH241747   0.902   8.467   5.296
13942TIP3    H141748   0.974   8.531   5.290
13942TIP3    H241749   0.835   8.519   5.343
13943TIP3   OH241750   1.251   7.439   6.922
13943TIP3    H141751   1.156   7.460   6.922
13943TIP3    H241752   1.274   7.446   6.829
13944TIP3   OH241753   0.887   7.655   6.310
13944TIP3    H141754   0.837   7.573   6.300
13944TIP3    H241755   0.971   7.622   6.350
13945TIP3   OH241756   0.912   7.746   5.338
13945TIP3    H141757   0.881   7.694   5.261
13945TIP3    H241758   0.892   7.836   5.306
13946TIP3   OH241759   1.113   7.416   7.349
13946TIP3    H141760   1.113   7.320   7.334
13946TIP3    H241761   1.022   7.429   7.380
13947TIP3   OH241762   1.109   8.684   6.238
13947TIP3    H141763   1.099   8.755   6.302
13947TIP3    H241764   1.127   8.736   6.158
13948TIP3   OH241765   1.021   7.922   5.681
13948TIP3    H141766   1.092   7.983   5.655
13948TIP3    H241767   1.056   7.885   5.764
13949TIP3   OH241768   1.142   7.793   5.890
13949TIP3    H141769   1.079   7.744   5.949
13949TIP3    H241770   1.206   7.829   5.955
13950TIP3   OH241771   1.186   8.180   6.320
13950TIP3    H141772   1.242   8.115   6.274
13950TIP3    H241773   1.200   8.261   6.267
13951TIP3   OH241774   1.085   7.693   5.542
13951TIP3    H141775   1.020   7.702   5.469
13951TIP3    H241776   1.056   7.769   5.598
13952TIP3   OH241777   0.949   7.373   5.489
13952TIP3    H141778   0.910   7.404   5.407
13952TIP3    H241779   0.924   7.278   5.487
13953TIP3   OH241780   0.976   7.642   6.043
13953TIP3    H141781   0.953   7.549   6.024
13953TIP3    H241782   0.941   7.655   6.133
13954TIP3   OH241783   1.234   8.041   6.854
13954TIP3    H141784   1.323   8.014   6.879
13954TIP3    H241785   1.227   8.129   6.896
13955TIP3   OH241786   1.450   7.889   6.938
13955TIP3    H141787   1.365   7.841   6.943
13955TIP3    H241788   1.510   7.812   6.945
13956TIP3   OH241789   0.909   7.103   5.465
13956TIP3    H141790   0.983   7.083   5.526
13956TIP3    H241791   0.836   7.051   5.508
13957TIP3   OH241792   0.949   7.369   5.932
13957TIP3    H141793   0.982   7.280   5.956
13957TIP3    H241794   1.013   7.394   5.863
13958TIP3   OH241795   1.111   7.539   6.423
13958TIP3    H141796   1.198   7.562   6.383
13958TIP3    H241797   1.123   7.581   6.511
13959TIP3   OH241798   1.179   7.679   6.651
13959TIP3    H141799   1.138   7.721   6.728
13959TIP3    H241800   1.214   7.758   6.603
13960TIP3   OH241801   1.636   7.277   7.218
13960TIP3    H141802   1.691   7.207   7.176
13960TIP3    H241803   1.604   7.327   7.140
13961TIP3   OH241804   1.064   7.114   5.968
13961TIP3    H141805   1.107   7.101   6.055
13961TIP3    H241806   0.998   7.042   5.969
13962TIP3   OH241807   1.506   7.412   7.025
13962TIP3    H141808   1.422   7.450   7.055
13962TIP3    H241809   1.471   7.344   6.964
13963TIP3   OH241810   1.144   7.050   5.604
13963TIP3    H141811   1.185   6.977   5.554
13963TIP3    H241812   1.214   7.119   5.602
13964TIP3   OH241813   1.408   7.172   6.901
13964TIP3    H141814   1.314   7.169   6.877
13964TIP3    H241815   1.433   7.078   6.889
13965TIP3   OH241816   1.131   6.964   6.422
13965TIP3    H141817   1.169   7.017   6.349
13965TIP3    H241818   1.036   6.987   6.417
13966TIP3   OH241819   1.225   7.069   6.192
13966TIP3    H141820   1.297   7.018   6.149
13966TIP3    H241821   1.257   7.161   6.175
13967TIP3   OH241822   0.854   6.986   6.407
13967TIP3    H141823   0.829   6.986   6.314
13967TIP3    H241824   0.833   6.895   6.436
13968TIP3   OH241825   0.882   6.898   5.963
13968TIP3    H141826   0.791   6.927   5.948
13968TIP3    H241827   0.867   6.808   6.000
13969TIP3   OH241828   1.138   7.138   7.332
13969TIP3    H141829   1.153   7.116   7.427
13969TIP3    H241830   1.229   7.131   7.297
13970TIP3   OH241831   2.341   8.059   5.595
13970TIP3    H141832   2.315   8.151   5.575
13970TIP3    H241833   2.264   8.012   5.561
13971TIP3   OH241834   2.341   8.062   5.973
13971TIP3    H141835   2.372   8.032   6.060
13971TIP3    H241836   2.300   7.982   5.937
13972TIP3   OH241837   1.640   7.955   6.335
13972TIP3    H141838   1.670   7.888   6.399
13972TIP3    H241839   1.716   8.014   6.332
13973TIP3   OH241840   2.585   8.360   5.655
13973TIP3    H141841   2.572   8.296   5.726
13973TIP3    H241842   2.613   8.439   5.705
13974TIP3   OH241843   1.614   8.368   6.069
13974TIP3    H141844   1.604   8.270   6.071
13974TIP3    H241845   1.710   8.375   6.051
13975TIP3   OH241846   1.320   7.569   5.849
13975TIP3    H141847   1.273   7.653   5.865
13975TIP3    H241848   1.246   7.516   5.814
13976TIP3   OH241849   1.378   7.857   6.022
13976TIP3    H141850   1.427   7.780   6.057
13976TIP3    H241851   1.438   7.890   5.953
13977TIP3   OH241852   2.223   8.801   5.698
13977TIP3    H141853   2.269   8.752   5.627
13977TIP3    H241854   2.246   8.747   5.774
13978TIP3   OH241855   2.141   8.287   6.024
13978TIP3    H141856   2.179   8.211   5.976
13978TIP3    H241857   2.224   8.333   6.047
13979TIP3   OH241858   3.153   7.606   6.021
13979TIP3    H141859   3.182   7.690   6.061
13979TIP3    H241860   3.175   7.622   5.927
13980TIP3   OH241861   2.550   7.788   6.057
13980TIP3    H141862   2.596   7.704   6.075
13980TIP3    H241863   2.522   7.773   5.964
13981TIP3   OH241864   1.889   7.448   6.021
13981TIP3    H141865   1.870   7.521   5.958
13981TIP3    H241866   1.841   7.375   5.975
13982TIP3   OH241867   2.583   7.540   5.641
13982TIP3    H141868   2.654   7.524   5.708
13982TIP3    H241869   2.637   7.574   5.568
13983TIP3   OH241870   1.523   7.650   6.127
13983TIP3    H141871   1.606   7.632   6.175
13983TIP3    H241872   1.537   7.594   6.047
13984TIP3   OH241873   1.965   7.847   5.919
13984TIP3    H141874   2.059   7.822   5.932
13984TIP3    H241875   1.926   7.763   5.887
13985TIP3   OH241876   3.227   7.815   6.192
13985TIP3    H141877   3.145   7.862   6.169
13985TIP3    H241878   3.242   7.847   6.282
13986TIP3   OH241879   1.886   7.432   6.455
13986TIP3    H141880   1.828   7.470   6.387
13986TIP3    H241881   1.834   7.451   6.536
13987TIP3   OH241882   2.234   8.279   5.463
13987TIP3    H141883   2.192   8.267   5.377
13987TIP3    H241884   2.193   8.364   5.491
13988TIP3   OH241885   1.995   8.207   6.250
13988TIP3    H141886   1.931   8.272   6.287
13988TIP3    H241887   2.034   8.257   6.176
13989TIP3   OH241888   2.792   7.543   5.814
13989TIP3    H141889   2.793   7.488   5.893
13989TIP3    H241890   2.848   7.618   5.839
13990TIP3   OH241891   1.757   7.546   6.240
13990TIP3    H141892   1.819   7.619   6.263
13990TIP3    H241893   1.806   7.507   6.163
13991TIP3   OH241894   1.821   8.397   6.351
13991TIP3    H141895   1.798   8.479   6.303
13991TIP3    H241896   1.739   8.385   6.402
13992TIP3   OH241897   1.220   8.089   5.582
13992TIP3    H141898   1.180   8.127   5.502
13992TIP3    H241899   1.251   8.170   5.630
13993TIP3   OH241900   2.648   8.588   5.818
13993TIP3    H141901   2.558   8.590   5.858
13993TIP3    H241902   2.648   8.675   5.772
13994TIP3   OH241903   2.946   7.507   6.188
13994TIP3    H141904   2.859   7.534   6.155
13994TIP3    H241905   3.006   7.539   6.117
13995TIP3   OH241906   2.244   7.151   6.168
13995TIP3    H141907   2.229   7.056   6.184
13995TIP3    H241908   2.166   7.189   6.215
13996TIP3   OH241909   2.362   8.630   5.522
13996TIP3    H141910   2.410   8.547   5.502
13996TIP3    H241911   2.415   8.690   5.468
13997TIP3   OH241912   2.502   8.424   5.401
13997TIP3    H141913   2.462   8.345   5.364
13997TIP3    H241914   2.540   8.391   5.486
13998TIP3   OH241915   2.883   8.513   6.171
13998TIP3    H141916   2.872   8.435   6.112
13998TIP3    H241917   2.864   8.586   6.108
13999TIP3   OH241918   2.172   7.912   5.424
13999TIP3    H141919   2.093   7.966   5.403
13999TIP3    H241920   2.220   7.912   5.339
14000TIP3   OH241921   2.131   7.697   5.139
14000TIP3    H141922   2.196   7.749   5.189
14000TIP3    H241923   2.191   7.635   5.093
14001TIP3   OH241924   3.077   8.157   6.012
14001TIP3    H141925   2.993   8.208   6.016
14001TIP3    H241926   3.107   8.181   5.922
14002TIP3   OH241927   2.520   7.994   5.397
14002TIP3    H141928   2.466   8.019   5.476
14002TIP3    H241929   2.605   7.970   5.440
14003TIP3   OH241930   2.755   8.035   6.307
14003TIP3    H141931   2.752   8.118   6.358
14003TIP3    H241932   2.669   8.040   6.260
14004TIP3   OH241933   1.752   7.993   5.814
14004TIP3    H141934   1.711   7.936   5.745
14004TIP3    H241935   1.829   7.940   5.842
14005TIP3   OH241936   1.880   8.393   5.965
14005TIP3    H141937   1.862   8.361   5.876
14005TIP3    H241938   1.972   8.363   5.980
14006TIP3   OH241939   1.892   7.964   6.167
14006TIP3    H141940   1.923   7.944   6.076
14006TIP3    H241941   1.933   8.051   6.185
14007TIP3   OH241942   2.407   8.604   5.943
14007TIP3    H141943   2.396   8.684   5.997
14007TIP3    H241944   2.396   8.531   6.007
14008TIP3   OH241945   2.043   8.506   6.485
14008TIP3    H141946   1.983   8.567   6.534
14008TIP3    H241947   1.977   8.456   6.434
14009TIP3   OH241948   2.360   7.854   5.221
14009TIP3    H141949   2.419   7.914   5.273
14009TIP3    H241950   2.387   7.877   5.129
14010TIP3   OH241951   1.780   8.059   6.580
14010TIP3    H141952   1.785   8.149   6.619
14010TIP3    H241953   1.685   8.041   6.594
14011TIP3   OH241954   2.105   8.525   5.505
14011TIP3    H141955   2.187   8.576   5.522
14011TIP3    H241956   2.046   8.590   5.467
14012TIP3   OH241957   1.832   8.653   6.576
14012TIP3    H141958   1.796   8.647   6.485
14012TIP3    H241959   1.758   8.637   6.635
14013TIP3   OH241960   2.876   7.098   5.268
14013TIP3    H141961   2.796   7.118   5.320
14013TIP3    H241962   2.888   7.181   5.218
14014TIP3   OH241963   1.620   7.835   5.615
14014TIP3    H141964   1.554   7.882   5.559
14014TIP3    H241965   1.576   7.751   5.631
14015TIP3   OH241966   2.669   8.452   4.810
14015TIP3    H141967   2.674   8.548   4.788
14015TIP3    H241968   2.764   8.427   4.805
14016TIP3   OH241969   1.413   8.212   6.506
14016TIP3    H141970   1.338   8.189   6.448
14016TIP3    H241971   1.443   8.125   6.539
14017TIP3   OH241972   1.254   8.410   6.181
14017TIP3    H141973   1.339   8.425   6.139
14017TIP3    H241974   1.221   8.501   6.195
14018TIP3   OH241975   3.138   8.856   6.229
14018TIP3    H141976   3.132   8.759   6.243
14018TIP3    H241977   3.053   8.884   6.268
14019TIP3   OH241978   2.230   8.653   6.350
14019TIP3    H141979   2.222   8.745   6.381
14019TIP3    H241980   2.157   8.609   6.398
14020TIP3   OH241981   1.422   8.602   5.678
14020TIP3    H141982   1.477   8.604   5.760
14020TIP3    H241983   1.352   8.542   5.710
14021TIP3   OH241984   2.379   8.670   4.972
14021TIP3    H141985   2.320   8.621   4.913
14021TIP3    H241986   2.331   8.665   5.057
14022TIP3   OH241987   2.219   8.666   5.202
14022TIP3    H141988   2.168   8.729   5.255
14022TIP3    H241989   2.293   8.649   5.262
14023TIP3   OH241990   3.009   7.994   6.489
14023TIP3    H141991   2.928   8.010   6.438
14023TIP3    H241992   3.023   7.898   6.474
14024TIP3   OH241993   1.595   8.411   6.510
14024TIP3    H141994   1.651   8.376   6.582
14024TIP3    H241995   1.528   8.339   6.502
14025TIP3   OH241996   2.005   7.226   6.298
14025TIP3    H141997   1.916   7.196   6.270
14025TIP3    H241998   1.981   7.309   6.341
14026TIP3   OH241999   2.536   7.342   6.492
14026TIP3    H142000   2.606   7.312   6.554
14026TIP3    H242001   2.453   7.321   6.540
14027TIP3   OH242002   2.779   7.772   6.408
14027TIP3    H142003   2.727   7.768   6.491
14027TIP3    H242004   2.756   7.859   6.372
14028TIP3   OH242005   2.434   7.899   4.965
14028TIP3    H142006   2.404   7.873   4.876
14028TIP3    H242007   2.514   7.950   4.944
14029TIP3   OH242008   2.146   7.278   5.267
14029TIP3    H142009   2.116   7.274   5.360
14029TIP3    H242010   2.112   7.193   5.234
14030TIP3   OH242011   1.936   7.742   6.316
14030TIP3    H142012   1.883   7.764   6.396
14030TIP3    H242013   1.921   7.823   6.261
14031TIP3   OH242014   1.821   7.627   5.830
14031TIP3    H142015   1.727   7.603   5.847
14031TIP3    H242016   1.833   7.587   5.741
14032TIP3   OH242017   2.310   7.713   5.557
14032TIP3    H142018   2.258   7.785   5.515
14032TIP3    H242019   2.366   7.683   5.482
14033TIP3   OH242020   2.485   7.989   6.641
14033TIP3    H142021   2.467   7.920   6.707
14033TIP3    H242022   2.577   8.012   6.663
14034TIP3   OH242023   2.466   7.743   5.797
14034TIP3    H142024   2.408   7.774   5.725
14034TIP3    H242025   2.500   7.662   5.754
14035TIP3   OH242026   1.756   7.769   6.523
14035TIP3    H142027   1.774   7.839   6.587
14035TIP3    H242028   1.746   7.690   6.579
14036TIP3   OH242029   1.800   7.246   5.233
14036TIP3    H142030   1.797   7.245   5.331
14036TIP3    H242031   1.725   7.304   5.213
14037TIP3   OH242032   1.349   7.290   6.107
14037TIP3    H142033   1.424   7.325   6.160
14037TIP3    H242034   1.389   7.265   6.023
14038TIP3   OH242035   1.323   7.274   5.623
14038TIP3    H142036   1.369   7.313   5.546
14038TIP3    H242037   1.261   7.347   5.644
14039TIP3   OH242038   2.476   7.988   6.220
14039TIP3    H142039   2.510   7.916   6.161
14039TIP3    H242040   2.446   7.934   6.297
14040TIP3   OH242041   2.146   7.450   5.891
14040TIP3    H142042   2.065   7.449   5.944
14040TIP3    H242043   2.215   7.451   5.959
14041TIP3   OH242044   1.581   7.506   5.900
14041TIP3    H142045   1.487   7.515   5.872
14041TIP3    H242046   1.603   7.415   5.875
14042TIP3   OH242047   1.851   7.501   5.588
14042TIP3    H142048   1.945   7.517   5.568
14042TIP3    H242049   1.805   7.525   5.504
14043TIP3   OH242050   2.641   7.527   6.096
14043TIP3    H142051   2.602   7.539   6.185
14043TIP3    H242052   2.576   7.465   6.056
14044TIP3   OH242053   1.692   7.533   5.365
14044TIP3    H142054   1.619   7.493   5.316
14044TIP3    H242055   1.744   7.572   5.292
14045TIP3   OH242056   1.750   8.300   6.707
14045TIP3    H142057   1.829   8.324   6.758
14045TIP3    H242058   1.689   8.279   6.780
14046TIP3   OH242059   2.230   7.776   5.987
14046TIP3    H142060   2.304   7.742   5.935
14046TIP3    H242061   2.243   7.734   6.073
14047TIP3   OH242062   1.754   7.268   5.865
14047TIP3    H142063   1.721   7.188   5.911
14047TIP3    H242064   1.806   7.230   5.794
14048TIP3   OH242065   2.206   7.671   6.284
14048TIP3    H142066   2.117   7.711   6.292
14048TIP3    H242067   2.264   7.736   6.330
14049TIP3   OH242068   1.944   8.065   5.373
14049TIP3    H142069   1.870   8.001   5.362
14049TIP3    H242070   1.926   8.100   5.464
14050TIP3   OH242071   2.843   8.300   6.004
14050TIP3    H142072   2.868   8.351   5.924
14050TIP3    H242073   2.758   8.259   5.977
14051TIP3   OH242074   2.401   7.378   5.234
14051TIP3    H142075   2.304   7.364   5.242
14051TIP3    H242076   2.412   7.472   5.259
14052TIP3   OH242077   2.345   8.383   6.370
14052TIP3    H142078   2.369   8.361   6.461
14052TIP3    H242079   2.302   8.470   6.379
14053TIP3   OH242080   2.472   7.626   5.338
14053TIP3    H142081   2.568   7.631   5.355
14053TIP3    H242082   2.454   7.707   5.286
14054TIP3   OH242083   1.635   8.088   6.050
14054TIP3    H142084   1.673   8.060   5.964
14054TIP3    H242085   1.676   8.024   6.111
14055TIP3   OH242086   2.088   8.212   5.191
14055TIP3    H142087   2.041   8.298   5.198
14055TIP3    H242088   2.036   8.158   5.254
14056TIP3   OH242089   1.519   8.000   6.656
14056TIP3    H142090   1.525   8.004   6.753
14056TIP3    H242091   1.437   7.949   6.643
14057TIP3   OH242092   2.244   8.121   6.682
14057TIP3    H142093   2.183   8.065   6.631
14057TIP3    H242094   2.331   8.088   6.650
14058TIP3   OH242095   2.503   8.651   6.266
14058TIP3    H142096   2.407   8.642   6.279
14058TIP3    H242097   2.528   8.694   6.351
14059TIP3   OH242098   2.914   7.716   5.175
14059TIP3    H142099   2.851   7.672   5.113
14059TIP3    H242100   2.911   7.805   5.135
14060TIP3   OH242101   3.133   8.575   6.255
14060TIP3    H142102   3.035   8.568   6.247
14060TIP3    H242103   3.159   8.543   6.165
14061TIP3   OH242104   2.641   8.512   5.090
14061TIP3    H142105   2.583   8.464   5.152
14061TIP3    H242106   2.620   8.472   5.004
14062TIP3   OH242107   2.609   8.163   5.925
14062TIP3    H142108   2.515   8.139   5.934
14062TIP3    H242109   2.643   8.085   5.877
14063TIP3   OH242110   1.738   8.386   5.678
14063TIP3    H142111   1.738   8.468   5.624
14063TIP3    H242112   1.644   8.374   5.692
14064TIP3   OH242113   1.301   7.696   5.374
14064TIP3    H142114   1.347   7.780   5.394
14064TIP3    H242115   1.228   7.699   5.439
14065TIP3   OH242116   1.875   8.155   5.617
14065TIP3    H142117   1.841   8.245   5.635
14065TIP3    H242118   1.838   8.106   5.693
14066TIP3   OH242119   1.995   8.726   6.156
14066TIP3    H142120   2.002   8.815   6.115
14066TIP3    H242121   2.086   8.706   6.181
14067TIP3   OH242122   1.662   8.618   5.538
14067TIP3    H142123   1.571   8.615   5.575
14067TIP3    H242124   1.676   8.714   5.532
14068TIP3   OH242125   2.395   8.369   6.102
14068TIP3    H142126   2.387   8.365   6.199
14068TIP3    H242127   2.475   8.317   6.086
14069TIP3   OH242128   2.367   8.257   4.988
14069TIP3    H142129   2.422   8.231   5.065
14069TIP3    H242130   2.279   8.237   5.022
14070TIP3   OH242131   2.661   8.876   6.153
14070TIP3    H142132   2.592   8.810   6.171
14070TIP3    H242133   2.609   8.956   6.136
14071TIP3   OH242134   2.692   8.721   4.772
14071TIP3    H142135   2.767   8.782   4.782
14071TIP3    H242136   2.626   8.764   4.829
14072TIP3   OH242137   1.728   7.514   6.673
14072TIP3    H142138   1.631   7.517   6.687
14072TIP3    H242139   1.755   7.451   6.742
14073TIP3   OH242140   2.528   8.192   5.201
14073TIP3    H142141   2.521   8.127   5.274
14073TIP3    H242142   2.625   8.195   5.189
14074TIP3   OH242143   1.472   8.624   6.315
14074TIP3    H142144   1.493   8.531   6.333
14074TIP3    H242145   1.462   8.659   6.405
14075TIP3   OH242146   1.730   8.245   4.983
14075TIP3    H142147   1.750   8.154   4.956
14075TIP3    H242148   1.717   8.234   5.080
14076TIP3   OH242149   1.682   8.246   5.255
14076TIP3    H142150   1.754   8.222   5.315
14076TIP3    H242151   1.682   8.344   5.264
14077TIP3   OH242152   1.416   7.940   5.459
14077TIP3    H142153   1.350   7.986   5.516
14077TIP3    H242154   1.430   8.010   5.392
14078TIP3   OH242155   2.562   7.581   6.354
14078TIP3    H142156   2.645   7.617   6.389
14078TIP3    H242157   2.550   7.499   6.407
14079TIP3   OH242158   2.442   7.331   5.517
14079TIP3    H142159   2.432   7.353   5.423
14079TIP3    H242160   2.482   7.413   5.553
14080TIP3   OH242161   1.944   8.439   5.210
14080TIP3    H142162   1.857   8.472   5.240
14080TIP3    H242163   1.976   8.516   5.162
14081TIP3   OH242164   2.133   7.509   5.618
14081TIP3    H142165   2.198   7.580   5.600
14081TIP3    H242166   2.139   7.502   5.716
14082TIP3   OH242167   2.401   7.826   6.427
14082TIP3    H142168   2.427   7.883   6.503
14082TIP3    H242169   2.460   7.749   6.436
14083TIP3   OH242170   2.278   7.236   5.721
14083TIP3    H142171   2.272   7.312   5.781
14083TIP3    H242172   2.338   7.271   5.651
14084TIP3   OH242173   1.684   8.516   5.276
14084TIP3    H142174   1.674   8.587   5.211
14084TIP3    H242175   1.673   8.564   5.361
14085TIP3   OH242176   1.790   7.235   5.510
14085TIP3    H142177   1.789   7.326   5.546
14085TIP3    H242178   1.886   7.216   5.519
14086TIP3   OH242179   3.046   7.727   6.409
14086TIP3    H142180   2.948   7.725   6.414
14086TIP3    H242181   3.058   7.690   6.320
14087TIP3   OH242182   2.695   7.922   5.796
14087TIP3    H142183   2.620   7.861   5.807
14087TIP3    H242184   2.767   7.875   5.843
14088TIP3   OH242185   1.406   8.151   5.266
14088TIP3    H142186   1.467   8.225   5.275
14088TIP3    H242187   1.454   8.098   5.198
14089TIP3   OH242188   1.352   7.427   5.396
14089TIP3    H142189   1.356   7.524   5.393
14089TIP3    H242190   1.262   7.410   5.366
14090TIP3   OH242191   2.661   8.845   5.733
14090TIP3    H142192   2.624   8.922   5.687
14090TIP3    H242193   2.755   8.872   5.735
14091TIP3   OH242194   1.739   7.147   6.272
14091TIP3    H142195   1.709   7.114   6.185
14091TIP3    H242196   1.729   7.068   6.329
14092TIP3   OH242197   1.292   8.333   5.692
14092TIP3    H142198   1.222   8.382   5.737
14092TIP3    H242199   1.282   8.369   5.601
14093TIP3   OH242200   1.897   8.447   4.892
14093TIP3    H142201   1.847   8.374   4.934
14093TIP3    H242202   1.973   8.399   4.856
14094TIP3   OH242203   2.555   8.773   6.506
14094TIP3    H142204   2.558   8.706   6.578
14094TIP3    H242205   2.634   8.826   6.527
14095TIP3   OH242206   2.329   8.461   4.783
14095TIP3    H142207   2.372   8.419   4.859
14095TIP3    H242208   2.400   8.463   4.716
14096TIP3   OH242209   1.543   7.964   5.118
14096TIP3    H142210   1.598   7.934   5.191
14096TIP3    H242211   1.610   7.970   5.046
14097TIP3   OH242212   2.164   8.389   6.702
14097TIP3    H142213   2.133   8.412   6.612
14097TIP3    H242214   2.203   8.300   6.689
14098TIP3   OH242215   2.045   8.158   4.925
14098TIP3    H142216   2.054   8.172   5.021
14098TIP3    H242217   2.047   8.060   4.921
14099TIP3   OH242218   2.664   8.406   6.306
14099TIP3    H142219   2.740   8.448   6.261
14099TIP3    H242220   2.595   8.471   6.288
14100TIP3   OH242221   1.709   8.059   6.904
14100TIP3    H142222   1.761   7.978   6.892
14100TIP3    H242223   1.637   8.033   6.962
14101TIP3   OH242224   1.749   7.868   5.339
14101TIP3    H142225   1.724   7.827   5.424
14101TIP3    H242226   1.786   7.792   5.290
14102TIP3   OH242227   2.025   7.931   6.571
14102TIP3    H142228   1.942   7.983   6.568
14102TIP3    H242229   2.072   7.964   6.491
14103TIP3   OH242230   1.851   7.659   5.181
14103TIP3    H142231   1.826   7.666   5.087
14103TIP3    H242232   1.948   7.664   5.175
14104TIP3   OH242233   2.533   8.330   6.700
14104TIP3    H142234   2.617   8.310   6.656
14104TIP3    H242235   2.533   8.269   6.775
14105TIP3   OH242236   2.674   7.990   4.843
14105TIP3    H142237   2.653   7.945   4.759
14105TIP3    H242238   2.640   8.080   4.821
14106TIP3   OH242239   2.150   7.720   6.693
14106TIP3    H142240   2.143   7.641   6.636
14106TIP3    H242241   2.104   7.787   6.638
14107TIP3   OH242242   2.145   7.505   6.504
14107TIP3    H142243   2.174   7.548   6.420
14107TIP3    H242244   2.052   7.483   6.483
14108TIP3   OH242245   2.174   8.043   6.375
14108TIP3    H142246   2.256   8.053   6.326
14108TIP3    H242247   2.116   8.108   6.331
14109TIP3   OH242248   2.752   8.008   6.754
14109TIP3    H142249   2.809   7.931   6.766
14109TIP3    H242250   2.816   8.076   6.728
14110TIP3   OH242251   2.796   8.260   6.490
14110TIP3    H142252   2.738   8.314   6.432
14110TIP3    H242253   2.884   8.282   6.450
14111TIP3   OH242254   2.022   7.828   6.926
14111TIP3    H142255   1.954   7.758   6.937
14111TIP3    H242256   2.050   7.813   6.834
14112TIP3   OH242257   2.279   7.275   6.586
14112TIP3    H142258   2.230   7.353   6.553
14112TIP3    H242259   2.215   7.203   6.565
14113TIP3   OH242260   2.408   7.771   6.789
14113TIP3    H142261   2.366   7.767   6.877
14113TIP3    H242262   2.329   7.748   6.735
14114TIP3   OH242263   2.640   7.720   6.634
14114TIP3    H142264   2.568   7.727   6.699
14114TIP3    H242265   2.717   7.693   6.689
14115TIP3   OH242266   2.864   7.657   6.782
14115TIP3    H142267   2.883   7.564   6.805
14115TIP3    H242268   2.868   7.702   6.869
14116TIP3   OH242269   1.860   7.612   6.975
14116TIP3    H142270   1.862   7.519   6.942
14116TIP3    H242271   1.892   7.600   7.067
14117TIP3   OH242272   2.383   7.288   6.850
14117TIP3    H142273   2.444   7.213   6.833
14117TIP3    H242274   2.338   7.290   6.762
14118TIP3   OH242275   1.139   8.108   5.298
14118TIP3    H142276   1.235   8.130   5.288
14118TIP3    H242277   1.136   8.019   5.258
14119TIP3   OH242278   1.195   8.558   5.875
14119TIP3    H142279   1.161   8.498   5.941
14119TIP3    H242280   1.240   8.623   5.933
14120TIP3   OH242281   2.913   8.949   5.734
14120TIP3    H142282   2.937   9.025   5.789
14120TIP3    H242283   2.940   8.983   5.647
14121TIP3   OH242284   2.965   8.963   6.027
14121TIP3    H142285   2.909   8.890   5.995
14121TIP3    H242286   3.040   8.913   6.063
14122TIP3   OH242287   2.989   8.662   6.554
14122TIP3    H142288   2.917   8.673   6.619
14122TIP3    H242289   3.033   8.749   6.562
14123TIP3   OH242290   2.807   8.177   5.176
14123TIP3    H142291   2.872   8.244   5.147
14123TIP3    H242292   2.853   8.141   5.255
14124TIP3   OH242293   2.936   8.046   5.380
14124TIP3    H142294   2.869   8.005   5.439
14124TIP3    H242295   2.999   8.086   5.444
14125TIP3   OH242296   2.989   8.435   5.817
14125TIP3    H142297   3.040   8.374   5.760
14125TIP3    H242298   2.991   8.517   5.763
14126TIP3   OH242299   2.825   8.717   6.001
14126TIP3    H142300   2.755   8.770   6.043
14126TIP3    H242301   2.776   8.675   5.927
14127TIP3   OH242302   2.874   7.953   5.027
14127TIP3    H142303   2.803   7.956   4.959
14127TIP3    H242304   2.847   8.030   5.082
14128TIP3   OH242305   2.744   7.628   4.982
14128TIP3    H142306   2.702   7.666   4.905
14128TIP3    H242307   2.719   7.533   4.973
14129TIP3   OH242308   2.749   7.904   5.527
14129TIP3    H142309   2.758   7.807   5.521
14129TIP3    H242310   2.736   7.917   5.624
14130TIP3   OH242311   1.375   7.978   6.274
14130TIP3    H142312   1.372   7.948   6.180
14130TIP3    H242313   1.472   7.979   6.289
14131TIP3   OH242314   3.040   8.328   6.384
14131TIP3    H142315   3.113   8.263   6.374
14131TIP3    H242316   3.063   8.396   6.319
14132TIP3   OH242317   3.224   8.132   6.400
14132TIP3    H142318   3.150   8.083   6.441
14132TIP3    H242319   3.297   8.069   6.415
14133TIP3   OH242320   2.688   7.362   4.967
14133TIP3    H142321   2.767   7.332   5.018
14133TIP3    H242322   2.619   7.299   4.993
14134TIP3   OH242323   2.746   7.618   5.422
14134TIP3    H142324   2.786   7.529   5.437
14134TIP3    H242325   2.805   7.651   5.352
14135TIP3   OH242326   2.908   7.794   5.917
14135TIP3    H142327   2.994   7.820   5.876
14135TIP3    H242328   2.923   7.831   6.007
14136TIP3   OH242329   2.978   7.937   6.150
14136TIP3    H142330   2.899   7.972   6.196
14136TIP3    H242331   3.010   8.018   6.103
14137TIP3   OH242332   1.594   7.661   6.940
14137TIP3    H142333   1.691   7.654   6.945
14137TIP3    H242334   1.568   7.577   6.984
14138TIP3   OH242335   3.420   7.515   6.711
14138TIP3    H142336   3.488   7.459   6.667
14138TIP3    H242337   3.394   7.574   6.637
14139TIP3   OH242338   2.854   7.369   5.460
14139TIP3    H142339   2.904   7.353   5.543
14139TIP3    H242340   2.795   7.291   5.459
14140TIP3   OH242341   1.555   7.355   6.281
14140TIP3    H142342   1.618   7.281   6.289
14140TIP3    H242343   1.616   7.430   6.273
14141TIP3   OH242344   1.359   7.626   6.353
14141TIP3    H142345   1.408   7.625   6.268
14141TIP3    H242346   1.381   7.714   6.386
14142TIP3   OH242347   3.300   7.665   6.517
14142TIP3    H142348   3.214   7.709   6.534
14142TIP3    H242349   3.271   7.597   6.453
14143TIP3   OH242350   2.935   7.306   5.089
14143TIP3    H142351   2.977   7.230   5.044
14143TIP3    H242352   3.006   7.373   5.086
14144TIP3   OH242353   1.340   7.130   5.852
14144TIP3    H142354   1.247   7.129   5.880
14144TIP3    H242355   1.337   7.191   5.775
14145TIP3   OH242356   2.541   8.733   5.319
14145TIP3    H142357   2.625   8.707   5.280
14145TIP3    H242358   2.568   8.812   5.371
14146TIP3   OH242359   1.562   7.213   6.666
14146TIP3    H142360   1.512   7.206   6.749
14146TIP3    H242361   1.495   7.251   6.607
14147TIP3   OH242362   1.775   8.671   6.307
14147TIP3    H142363   1.705   8.705   6.249
14147TIP3    H242364   1.855   8.690   6.253
14148TIP3   OH242365   2.243   8.927   6.421
14148TIP3    H142366   2.255   8.919   6.518
14148TIP3    H242367   2.333   8.947   6.395
14149TIP3   OH242368   3.195   7.431   6.390
14149TIP3    H142369   3.106   7.427   6.350
14149TIP3    H242370   3.226   7.338   6.379
14150TIP3   OH242371   2.355   8.876   6.025
14150TIP3    H142372   2.280   8.914   5.979
14150TIP3    H242373   2.419   8.949   6.020
14151TIP3   OH242374   1.347   8.677   6.073
14151TIP3    H142375   1.387   8.668   6.161
14151TIP3    H242376   1.422   8.709   6.020
14152TIP3   OH242377   1.564   8.588   5.905
14152TIP3    H142378   1.566   8.510   5.965
14152TIP3    H242379   1.658   8.616   5.909
14153TIP3   OH242380   1.816   8.676   5.929
14153TIP3    H142381   1.860   8.591   5.918
14153TIP3    H242382   1.879   8.724   5.984
14154TIP3   OH242383   2.403   7.346   6.006
14154TIP3    H142384   2.360   7.275   6.057
14154TIP3    H242385   2.476   7.299   5.962
14155TIP3   OH242386   2.925   7.233   5.920
14155TIP3    H142387   2.963   7.278   5.841
14155TIP3    H242388   2.829   7.244   5.905
14156TIP3   OH242389   3.019   7.326   5.680
14156TIP3    H142390   3.090   7.273   5.639
14156TIP3    H242391   3.053   7.417   5.663
14157TIP3   OH242392   1.652   7.055   6.024
14157TIP3    H142393   1.559   7.023   6.025
14157TIP3    H242394   1.700   6.969   6.019
14158TIP3   OH242395   1.438   6.923   5.673
14158TIP3    H142396   1.467   6.981   5.600
14158TIP3    H242397   1.408   6.988   5.739
14159TIP3   OH242398   2.094   7.086   5.905
14159TIP3    H142399   2.151   7.134   5.842
14159TIP3    H242400   2.118   7.128   5.989
14160TIP3   OH242401   2.639   7.233   5.887
14160TIP3    H142402   2.645   7.195   5.798
14160TIP3    H242403   2.627   7.152   5.942
14161TIP3   OH242404   2.671   7.156   5.450
14161TIP3    H142405   2.583   7.196   5.461
14161TIP3    H242406   2.658   7.071   5.496
14162TIP3   OH242407   1.153   8.424   5.479
14162TIP3    H142408   1.080   8.390   5.426
14162TIP3    H242409   1.153   8.518   5.450
14163TIP3   OH242410   1.555   7.084   5.433
14163TIP3    H142411   1.605   7.022   5.377
14163TIP3    H242412   1.627   7.139   5.470
14164TIP3   OH242413   2.067   7.258   5.534
14164TIP3    H142414   2.129   7.212   5.593
14164TIP3    H242415   2.089   7.351   5.559
14165TIP3   OH242416   3.539   0.103   6.765
14165TIP3    H142417   3.555   0.189   6.725
14165TIP3    H242418   3.560   0.039   6.694
14166TIP3   OH242419   2.695   8.776   5.075
14166TIP3    H142420   2.679   8.680   5.086
14166TIP3    H242421   2.608   8.807   5.050
14167TIP3   OH242422   1.862   7.338   6.917
14167TIP3    H142423   1.824   7.267   6.972
14167TIP3    H242424   1.955   7.336   6.946
14168TIP3   OH242425   2.121   7.338   7.039
14168TIP3    H142426   2.183   7.292   6.980
14168TIP3    H242427   2.098   7.267   7.103
14169TIP3   OH242428   1.241   8.471   5.111
14169TIP3    H142429   1.240   8.553   5.162
14169TIP3    H242430   1.335   8.465   5.083
14170TIP3   OH242431   2.932   7.391   6.823
14170TIP3    H142432   2.950   7.363   6.916
14170TIP3    H242433   3.021   7.387   6.783
14171TIP3   OH242434   2.882   8.946   6.316
14171TIP3    H142435   2.814   8.896   6.265
14171TIP3    H242436   2.860   9.035   6.288
14172TIP3   OH242437   4.138   8.318   5.081
14172TIP3    H142438   4.110   8.409   5.061
14172TIP3    H242439   4.061   8.269   5.047
14173TIP3   OH242440   4.138   8.318   5.460
14173TIP3    H142441   4.168   8.288   5.547
14173TIP3    H242442   4.095   8.238   5.425
14174TIP3   OH242443   3.438   8.214   5.825
14174TIP3    H142444   3.470   8.146   5.887
14174TIP3    H242445   3.517   8.271   5.818
14175TIP3   OH242446   4.380   8.620   5.141
14175TIP3    H142447   4.367   8.552   5.208
14175TIP3    H242448   4.410   8.695   5.195
14176TIP3   OH242449   3.410   8.626   5.554
14176TIP3    H142450   3.399   8.529   5.557
14176TIP3    H242451   3.506   8.632   5.541
14177TIP3   OH242452   3.116   7.827   5.337
14177TIP3    H142453   3.067   7.909   5.351
14177TIP3    H242454   3.046   7.771   5.298
14178TIP3   OH242455   3.174   8.114   5.508
14178TIP3    H142456   3.223   8.036   5.543
14178TIP3    H242457   3.231   8.142   5.435
14179TIP3   OH242458   4.031   9.065   5.193
14179TIP3    H142459   4.074   9.017   5.120
14179TIP3    H242460   4.040   9.000   5.264
14180TIP3   OH242461   3.937   8.544   5.509
14180TIP3    H142462   3.975   8.467   5.463
14180TIP3    H242463   4.021   8.589   5.533
14181TIP3   OH242464   4.948   7.864   5.507
14181TIP3    H142465   4.978   7.947   5.549
14181TIP3    H242466   4.969   7.882   5.414
14182TIP3   OH242467   4.349   8.046   5.542
14182TIP3    H142468   4.391   7.960   5.562
14182TIP3    H242469   4.317   8.031   5.451
14183TIP3   OH242470   3.687   7.704   5.506
14183TIP3    H142471   3.665   7.777   5.444
14183TIP3    H242472   3.639   7.630   5.463
14184TIP3   OH242473   4.380   7.797   5.129
14184TIP3    H142474   4.452   7.780   5.194
14184TIP3    H242475   4.433   7.831   5.055
14185TIP3   OH242476   3.319   7.906   5.613
14185TIP3    H142477   3.402   7.886   5.661
14185TIP3    H242478   3.332   7.850   5.534
14186TIP3   OH242479   3.761   8.104   5.407
14186TIP3    H142480   3.854   8.078   5.419
14186TIP3    H242481   3.721   8.020   5.374
14187TIP3   OH242482   5.023   8.072   5.677
14187TIP3    H142483   4.940   8.119   5.656
14187TIP3    H242484   5.035   8.098   5.769
14188TIP3   OH242485   3.683   7.689   5.942
14188TIP3    H142486   3.623   7.725   5.873
14188TIP3    H242487   3.631   7.708   6.022
14189TIP3   OH242488   4.032   8.538   4.948
14189TIP3    H142489   3.987   8.517   4.866
14189TIP3    H242490   3.988   8.623   4.972
14190TIP3   OH242491   3.792   8.463   5.737
14190TIP3    H142492   3.728   8.528   5.775
14190TIP3    H242493   3.830   8.514   5.663
14191TIP3   OH242494   4.591   7.798   5.300
14191TIP3    H142495   4.582   7.748   5.382
14191TIP3    H242496   4.644   7.875   5.328
14192TIP3   OH242497   3.554   7.803   5.725
14192TIP3    H142498   3.617   7.875   5.749
14192TIP3    H242499   3.602   7.762   5.650
14193TIP3   OH242500   3.618   8.654   5.837
14193TIP3    H142501   3.591   8.737   5.795
14193TIP3    H242502   3.539   8.638   5.892
14194TIP3   OH242503   3.012   8.343   5.070
14194TIP3    H142504   2.970   8.381   4.990
14194TIP3    H242505   3.042   8.424   5.117
14195TIP3   OH242506   4.444   8.846   5.307
14195TIP3    H142507   4.353   8.846   5.346
14195TIP3    H242508   4.442   8.934   5.262
14196TIP3   OH242509   4.741   7.765   5.674
14196TIP3    H142510   4.654   7.792   5.641
14196TIP3    H242511   4.801   7.796   5.603
14197TIP3   OH242512   4.040   7.406   5.655
14197TIP3    H142513   4.026   7.311   5.672
14197TIP3    H242514   3.962   7.444   5.701
14198TIP3   OH242515   4.163   8.898   5.007
14198TIP3    H142516   4.201   8.809   4.991
14198TIP3    H242517   4.236   8.951   4.972
14199TIP3   OH242518   4.298   8.690   4.888
14199TIP3    H142519   4.260   8.610   4.848
14199TIP3    H242520   4.336   8.654   4.971
14200TIP3   OH242521   4.679   8.770   5.657
14200TIP3    H142522   4.667   8.692   5.599
14200TIP3    H242523   4.661   8.843   5.594
14201TIP3   OH242524   3.969   8.170   4.911
14201TIP3    H142525   3.889   8.221   4.890
14201TIP3    H242526   4.014   8.167   4.824
14202TIP3   OH242527   3.927   7.954   4.626
14202TIP3    H142528   3.994   8.006   4.675
14202TIP3    H242529   3.985   7.891   4.580
14203TIP3   OH242530   4.873   8.413   5.498
14203TIP3    H142531   4.789   8.464   5.503
14203TIP3    H242532   4.902   8.438   5.408
14204TIP3   OH242533   4.317   8.252   4.883
14204TIP3    H142534   4.262   8.276   4.961
14204TIP3    H242535   4.401   8.227   4.927
14205TIP3   OH242536   4.551   8.292   5.794
14205TIP3    H142537   4.548   8.376   5.843
14205TIP3    H242538   4.465   8.295   5.748
14206TIP3   OH242539   3.549   8.250   5.299
14206TIP3    H142540   3.506   8.193   5.232
14206TIP3    H242541   3.625   8.196   5.327
14207TIP3   OH242542   3.680   8.656   5.449
14207TIP3    H142543   3.658   8.617   5.363
14207TIP3    H242544   3.770   8.621   5.464
14208TIP3   OH242545   3.689   8.220   5.655
14208TIP3    H142546   3.718   8.199   5.564
14208TIP3    H242547   3.729   8.307   5.672
14209TIP3   OH242548   4.202   8.858   5.428
14209TIP3    H142549   4.195   8.939   5.482
14209TIP3    H242550   4.192   8.786   5.493
14210TIP3   OH242551   3.821   8.778   5.980
14210TIP3    H142552   3.761   8.840   6.026
14210TIP3    H242553   3.756   8.725   5.929
14211TIP3   OH242554   4.158   8.110   4.708
14211TIP3    H142555   4.215   8.170   4.760
14211TIP3    H242556   4.184   8.133   4.616
14212TIP3   OH242557   3.578   8.332   6.080
14212TIP3    H142558   3.582   8.419   6.124
14212TIP3    H242559   3.482   8.314   6.087
14213TIP3   OH242560   3.905   8.783   4.979
14213TIP3    H142561   3.976   8.841   5.010
14213TIP3    H242562   3.833   8.843   4.959
14214TIP3   OH242563   3.618   8.952   6.069
14214TIP3    H142564   3.583   8.946   5.978
14214TIP3    H242565   3.545   8.914   6.122
14215TIP3   OH242566   4.672   7.351   4.756
14215TIP3    H142567   4.591   7.370   4.807
14215TIP3    H242568   4.685   7.435   4.708
14216TIP3   OH242569   3.415   8.093   5.104
14216TIP3    H142570   3.349   8.139   5.048
14216TIP3    H242571   3.374   8.007   5.117
14217TIP3   OH242572   4.467   8.706   4.296
14217TIP3    H142573   4.471   8.803   4.279
14217TIP3    H242574   4.562   8.682   4.291
14218TIP3   OH242575   3.196   8.477   6.012
14218TIP3    H142576   3.130   8.458   5.941
14218TIP3    H242577   3.232   8.388   6.032
14219TIP3   OH242578   3.054   8.665   5.674
14219TIP3    H142579   3.133   8.680   5.620
14219TIP3    H242580   3.020   8.755   5.685
14220TIP3   OH242581   4.935   9.111   5.710
14220TIP3    H142582   4.928   9.015   5.727
14220TIP3    H242583   4.852   9.142   5.753
14221TIP3   OH242584   4.023   8.888   5.830
14221TIP3    H142585   4.029   8.982   5.857
14221TIP3    H242586   3.946   8.857   5.884
14222TIP3   OH242587   3.223   8.857   5.165
14222TIP3    H142588   3.270   8.861   5.251
14222TIP3    H242589   3.152   8.794   5.189
14223TIP3   OH242590   4.180   8.934   4.460
14223TIP3    H142591   4.128   8.878   4.400
14223TIP3    H242592   4.130   8.927   4.543
14224TIP3   OH242593   4.023   8.929   4.695
14224TIP3    H142594   3.949   8.972   4.740
14224TIP3    H242595   4.066   8.882   4.768
14225TIP3   OH242596   4.804   8.251   5.975
14225TIP3    H142597   4.723   8.265   5.922
14225TIP3    H242598   4.819   8.155   5.962
14226TIP3   OH242599   3.400   8.660   6.000
14226TIP3    H142600   3.446   8.647   6.085
14226TIP3    H242601   3.327   8.594   6.006
14227TIP3   OH242602   3.801   7.483   5.783
14227TIP3    H142603   3.712   7.450   5.755
14227TIP3    H242604   3.774   7.564   5.829
14228TIP3   OH242605   4.334   7.600   5.978
14228TIP3    H142606   4.401   7.570   6.042
14228TIP3    H242607   4.249   7.579   6.023
14229TIP3   OH242608   4.574   8.028   5.897
14229TIP3    H142609   4.522   8.024   5.981
14229TIP3    H242610   4.549   8.115   5.860
14230TIP3   OH242611   4.231   8.157   4.453
14230TIP3    H142612   4.199   8.131   4.364
14230TIP3    H242613   4.313   8.205   4.428
14231TIP3   OH242614   3.947   7.532   4.755
14231TIP3    H142615   3.912   7.529   4.847
14231TIP3    H242616   3.907   7.450   4.720
14232TIP3   OH242617   3.733   7.998   5.804
14232TIP3    H142618   3.680   8.020   5.883
14232TIP3    H242619   3.718   8.079   5.749
14233TIP3   OH242620   3.616   7.885   5.317
14233TIP3    H142621   3.523   7.859   5.334
14233TIP3    H242622   3.629   7.845   5.228
14234TIP3   OH242623   4.108   7.971   5.044
14234TIP3    H142624   4.054   8.042   5.002
14234TIP3    H242625   4.161   7.940   4.969
14235TIP3   OH242626   4.281   8.249   6.131
14235TIP3    H142627   4.260   8.176   6.193
14235TIP3    H242628   4.376   8.263   6.151
14236TIP3   OH242629   4.264   8.000   5.283
14236TIP3    H142630   4.204   8.029   5.212
14236TIP3    H242631   4.297   7.918   5.240
14237TIP3   OH242632   3.552   8.028   6.011
14237TIP3    H142633   3.574   8.093   6.078
14237TIP3    H242634   3.541   7.947   6.063
14238TIP3   OH242635   3.601   7.505   4.721
14238TIP3    H142636   3.593   7.502   4.818
14238TIP3    H242637   3.521   7.557   4.697
14239TIP3   OH242638   3.141   7.551   5.596
14239TIP3    H142639   3.222   7.580   5.643
14239TIP3    H242640   3.175   7.517   5.511
14240TIP3   OH242641   3.118   7.530   5.110
14240TIP3    H142642   3.164   7.567   5.032
14240TIP3    H242643   3.057   7.603   5.130
14241TIP3   OH242644   4.275   8.245   5.707
14241TIP3    H142645   4.308   8.173   5.648
14241TIP3    H242646   4.244   8.192   5.783
14242TIP3   OH242647   3.944   7.709   5.378
14242TIP3    H142648   3.860   7.705   5.428
14242TIP3    H242649   4.010   7.706   5.449
14243TIP3   OH242650   3.377   7.762   5.386
14243TIP3    H142651   3.283   7.771   5.359
14243TIP3    H242652   3.398   7.670   5.364
14244TIP3   OH242653   3.647   7.760   5.074
14244TIP3    H142654   3.741   7.774   5.051
14244TIP3    H242655   3.599   7.781   4.991
14245TIP3   OH242656   4.435   7.783   5.580
14245TIP3    H142657   4.399   7.795   5.671
14245TIP3    H242658   4.369   7.721   5.543
14246TIP3   OH242659   3.489   7.792   4.854
14246TIP3    H142660   3.415   7.749   4.808
14246TIP3    H242661   3.539   7.827   4.778
14247TIP3   OH242662   3.565   8.574   6.222
14247TIP3    H142663   3.643   8.611   6.268
14247TIP3    H242664   3.497   8.587   6.290
14248TIP3   OH242665   4.026   8.035   5.476
14248TIP3    H142666   4.098   7.995   5.424
14248TIP3    H242667   4.036   7.991   5.562
14249TIP3   OH242668   3.550   7.520   5.356
14249TIP3    H142669   3.516   7.439   5.400
14249TIP3    H242670   3.599   7.483   5.281
14250TIP3   OH242671   4.003   7.930   5.767
14250TIP3    H142672   3.913   7.967   5.778
14250TIP3    H242673   4.060   7.993   5.816
14251TIP3   OH242674   3.741   8.322   4.861
14251TIP3    H142675   3.668   8.257   4.849
14251TIP3    H242676   3.721   8.357   4.951
14252TIP3   OH242677   4.639   8.557   5.491
14252TIP3    H142678   4.664   8.608   5.410
14252TIP3    H242679   4.554   8.516   5.464
14253TIP3   OH242680   4.197   7.636   4.719
14253TIP3    H142681   4.101   7.617   4.730
14253TIP3    H242682   4.206   7.730   4.747
14254TIP3   OH242683   4.147   8.640   5.856
14254TIP3    H142684   4.160   8.618   5.949
14254TIP3    H242685   4.098   8.725   5.859
14255TIP3   OH242686   4.267   7.882   4.826
14255TIP3    H142687   4.363   7.889   4.842
14255TIP3    H242688   4.249   7.963   4.774
14256TIP3   OH242689   3.434   8.347   5.537
14256TIP3    H142690   3.469   8.317   5.450
14256TIP3    H242691   3.470   8.280   5.597
14257TIP3   OH242692   3.884   8.470   4.680
14257TIP3    H142693   3.836   8.556   4.687
14257TIP3    H242694   3.831   8.415   4.741
14258TIP3   OH242695   3.313   8.263   6.148
14258TIP3    H142696   3.330   8.249   6.244
14258TIP3    H242697   3.242   8.199   6.131
14259TIP3   OH242698   4.038   8.378   6.170
14259TIP3    H142699   3.977   8.321   6.120
14259TIP3    H242700   4.125   8.344   6.140
14260TIP3   OH242701   4.298   8.912   5.745
14260TIP3    H142702   4.204   8.891   5.757
14260TIP3    H242703   4.319   8.952   5.832
14261TIP3   OH242704   4.711   7.972   4.661
14261TIP3    H142705   4.648   7.928   4.599
14261TIP3    H242706   4.707   8.062   4.622
14262TIP3   OH242707   4.928   8.831   5.742
14262TIP3    H142708   4.830   8.824   5.734
14262TIP3    H242709   4.954   8.800   5.652
14263TIP3   OH242710   4.440   8.765   4.575
14263TIP3    H142711   4.383   8.712   4.633
14263TIP3    H242712   4.420   8.730   4.486
14264TIP3   OH242713   4.405   8.420   5.411
14264TIP3    H142714   4.311   8.395   5.421
14264TIP3    H242715   4.439   8.341   5.363
14265TIP3   OH242716   3.532   8.643   5.163
14265TIP3    H142717   3.529   8.726   5.111
14265TIP3    H242718   3.438   8.627   5.178
14266TIP3   OH242719   3.096   7.953   4.863
14266TIP3    H142720   3.141   8.037   4.883
14266TIP3    H242721   3.019   7.957   4.924
14267TIP3   OH242722   3.673   8.414   5.105
14267TIP3    H142723   3.635   8.502   5.123
14267TIP3    H242724   3.636   8.362   5.179
14268TIP3   OH242725   3.790   8.984   5.637
14268TIP3    H142726   3.804   9.073   5.598
14268TIP3    H242727   3.879   8.959   5.667
14269TIP3   OH242728   3.458   8.877   5.025
14269TIP3    H142729   3.368   8.868   5.063
14269TIP3    H242730   3.465   8.974   5.022
14270TIP3   OH242731   4.193   8.626   5.588
14270TIP3    H142732   4.183   8.622   5.686
14270TIP3    H242733   4.271   8.571   5.573
14271TIP3   OH242734   4.164   8.516   4.474
14271TIP3    H142735   4.218   8.491   4.552
14271TIP3    H242736   4.076   8.492   4.505
14272TIP3   OH242737   4.459   9.131   5.642
14272TIP3    H142738   4.393   9.063   5.665
14272TIP3    H242739   4.402   9.206   5.618
14273TIP3   OH242740   4.490   8.976   4.274
14273TIP3    H142741   4.559   9.045   4.270
14273TIP3    H242742   4.410   9.030   4.288
14274TIP3   OH242743   3.523   7.771   6.158
14274TIP3    H142744   3.426   7.774   6.168
14274TIP3    H242745   3.548   7.708   6.227
14275TIP3   OH242746   4.325   8.453   4.690
14275TIP3    H142747   4.316   8.387   4.761
14275TIP3    H242748   4.422   8.451   4.676
14276TIP3   OH242749   3.273   8.877   5.804
14276TIP3    H142750   3.283   8.782   5.813
14276TIP3    H242751   3.286   8.906   5.895
14277TIP3   OH242752   3.528   8.501   4.469
14277TIP3    H142753   3.544   8.409   4.442
14277TIP3    H242754   3.513   8.490   4.565
14278TIP3   OH242755   3.480   8.504   4.739
14278TIP3    H142756   3.546   8.476   4.804
14278TIP3    H242757   3.480   8.601   4.751
14279TIP3   OH242758   3.212   8.199   4.947
14279TIP3    H142759   3.145   8.243   5.004
14279TIP3    H242760   3.223   8.268   4.879
14280TIP3   OH242761   4.360   7.837   5.840
14280TIP3    H142762   4.442   7.872   5.877
14280TIP3    H242763   4.346   7.755   5.893
14281TIP3   OH242764   4.241   7.586   5.003
14281TIP3    H142765   4.227   7.609   4.909
14281TIP3    H242766   4.279   7.669   5.039
14282TIP3   OH242767   3.742   8.699   4.698
14282TIP3    H142768   3.654   8.728   4.729
14282TIP3    H242769   3.764   8.770   4.638
14283TIP3   OH242770   3.932   7.766   5.106
14283TIP3    H142771   3.996   7.838   5.089
14283TIP3    H242772   3.935   7.759   5.203
14284TIP3   OH242773   4.199   8.085   5.913
14284TIP3    H142774   4.220   8.138   5.992
14284TIP3    H242775   4.254   8.005   5.925
14285TIP3   OH242776   4.075   7.494   5.209
14285TIP3    H142777   4.066   7.572   5.266
14285TIP3    H242778   4.135   7.529   5.139
14286TIP3   OH242779   3.483   8.773   4.765
14286TIP3    H142780   3.465   8.840   4.698
14286TIP3    H242781   3.468   8.821   4.849
14287TIP3   OH242782   3.586   7.491   4.997
14287TIP3    H142783   3.585   7.582   5.034
14287TIP3    H242784   3.682   7.472   5.005
14288TIP3   OH242785   4.841   7.985   5.894
14288TIP3    H142786   4.743   7.984   5.901
14288TIP3    H242787   4.852   7.942   5.808
14289TIP3   OH242788   4.491   8.179   5.282
14289TIP3    H142789   4.415   8.119   5.294
14289TIP3    H242790   4.563   8.132   5.330
14290TIP3   OH242791   3.201   8.404   4.754
14290TIP3    H142792   3.259   8.482   4.763
14290TIP3    H242793   3.251   8.354   4.685
14291TIP3   OH242794   3.149   7.684   4.885
14291TIP3    H142795   3.147   7.782   4.881
14291TIP3    H242796   3.065   7.661   4.844
14292TIP3   OH242797   4.457   9.103   5.224
14292TIP3    H142798   4.422   9.186   5.186
14292TIP3    H242799   4.552   9.126   5.227
14293TIP3   OH242800   3.534   7.403   5.758
14293TIP3    H142801   3.505   7.365   5.672
14293TIP3    H242802   3.524   7.325   5.818
14294TIP3   OH242803   3.083   8.590   5.175
14294TIP3    H142804   3.023   8.642   5.231
14294TIP3    H242805   3.060   8.625   5.086
14295TIP3   OH242806   3.308   9.100   6.185
14295TIP3    H142807   3.373   9.115   6.257
14295TIP3    H242808   3.267   9.016   6.213
14296TIP3   OH242809   3.728   9.131   6.252
14296TIP3    H142810   3.815   9.088   6.260
14296TIP3    H242811   3.689   9.078   6.179
14297TIP3   OH242812   3.695   8.704   4.382
14297TIP3    H142813   3.642   8.631   4.420
14297TIP3    H242814   3.770   8.654   4.345
14298TIP3   OH242815   4.341   9.030   5.987
14298TIP3    H142816   4.334   8.961   6.057
14298TIP3    H242817   4.422   9.078   6.012
14299TIP3   OH242818   4.125   8.720   4.273
14299TIP3    H142819   4.166   8.668   4.345
14299TIP3    H242820   4.193   8.719   4.204
14300TIP3   OH242821   3.360   8.568   6.414
14300TIP3    H142822   3.379   8.472   6.413
14300TIP3    H242823   3.274   8.571   6.367
14301TIP3   OH242824   3.340   8.222   4.602
14301TIP3    H142825   3.392   8.189   4.677
14301TIP3    H242826   3.409   8.226   4.532
14302TIP3   OH242827   3.970   8.654   6.185
14302TIP3    H142828   3.926   8.671   6.099
14302TIP3    H242829   3.999   8.561   6.177
14303TIP3   OH242830   3.844   8.417   4.412
14303TIP3    H142831   3.850   8.430   4.509
14303TIP3    H242832   3.845   8.319   4.406
14304TIP3   OH242833   4.462   8.661   5.794
14304TIP3    H142834   4.536   8.706   5.748
14304TIP3    H242835   4.389   8.723   5.776
14305TIP3   OH242836   3.479   8.302   6.395
14305TIP3    H142837   3.557   8.250   6.370
14305TIP3    H242838   3.507   8.337   6.482
14306TIP3   OH242839   3.549   8.124   4.828
14306TIP3    H142840   3.518   8.083   4.910
14306TIP3    H242841   3.584   8.047   4.778
14307TIP3   OH242842   3.817   8.190   6.058
14307TIP3    H142843   3.738   8.247   6.057
14307TIP3    H242844   3.866   8.223   5.979
14308TIP3   OH242845   3.646   7.917   4.667
14308TIP3    H142846   3.621   7.921   4.573
14308TIP3    H242847   3.744   7.921   4.660
14309TIP3   OH242848   4.334   8.591   6.191
14309TIP3    H142849   4.412   8.566   6.139
14309TIP3    H242850   4.330   8.522   6.259
14310TIP3   OH242851   4.466   8.246   4.333
14310TIP3    H142852   4.450   8.202   4.248
14310TIP3    H242853   4.438   8.337   4.308
14311TIP3   OH242854   3.940   7.976   6.180
14311TIP3    H142855   3.939   7.897   6.123
14311TIP3    H242856   3.896   8.043   6.123
14312TIP3   OH242857   3.942   7.763   5.989
14312TIP3    H142858   3.969   7.804   5.905
14312TIP3    H242859   3.848   7.740   5.970
14313TIP3   OH242860   3.970   8.300   5.863
14313TIP3    H142861   4.052   8.307   5.812
14313TIP3    H242862   3.912   8.365   5.818
14314TIP3   OH242863   4.552   8.265   6.244
14314TIP3    H142864   4.601   8.182   6.248
14314TIP3    H242865   4.619   8.325   6.207
14315TIP3   OH242866   4.592   8.518   5.981
14315TIP3    H142867   4.534   8.571   5.921
14315TIP3    H242868   4.680   8.539   5.940
14316TIP3   OH242869   3.819   8.088   6.413
14316TIP3    H142870   3.749   8.020   6.426
14316TIP3    H242871   3.851   8.066   6.323
14317TIP3   OH242872   4.074   7.527   6.057
14317TIP3    H142873   4.024   7.609   6.033
14317TIP3    H242874   4.006   7.458   6.043
14318TIP3   OH242875   4.200   8.030   6.271
14318TIP3    H142876   4.186   8.019   6.367
14318TIP3    H242877   4.110   8.006   6.239
14319TIP3   OH242878   4.439   7.982   6.127
14319TIP3    H142879   4.364   7.982   6.189
14319TIP3    H242880   4.513   7.951   6.183
14320TIP3   OH242881   4.668   7.921   6.278
14320TIP3    H142882   4.681   7.825   6.295
14320TIP3    H242883   4.665   7.959   6.368
14321TIP3   OH242884   3.655   7.870   6.464
14321TIP3    H142885   3.659   7.780   6.427
14321TIP3    H242886   3.690   7.856   6.554
14322TIP3   OH242887   4.167   7.533   6.314
14322TIP3    H142888   4.234   7.464   6.304
14322TIP3    H242889   4.126   7.531   6.225
14323TIP3   OH242890   4.233   7.750   6.474
14323TIP3    H142891   4.212   7.680   6.408
14323TIP3    H242892   4.156   7.810   6.466
14324TIP3   OH242893   2.931   8.363   4.784
14324TIP3    H142894   3.027   8.386   4.776
14324TIP3    H242895   2.930   8.273   4.745
14325TIP3   OH242896   3.003   8.809   5.359
14325TIP3    H142897   2.942   8.764   5.418
14325TIP3    H242898   3.041   8.875   5.420
14326TIP3   OH242899   4.704   9.209   5.215
14326TIP3    H142900   4.739   9.271   5.281
14326TIP3    H242901   4.744   9.245   5.134
14327TIP3   OH242902   4.767   9.216   5.502
14327TIP3    H142903   4.711   9.140   5.478
14327TIP3    H242904   4.836   9.171   5.554
14328TIP3   OH242905   4.783   8.917   6.041
14328TIP3    H142906   4.711   8.927   6.107
14328TIP3    H242907   4.829   9.003   6.048
14329TIP3   OH242908   4.604   8.434   4.664
14329TIP3    H142909   4.670   8.499   4.634
14329TIP3    H242910   4.649   8.396   4.743
14330TIP3   OH242911   4.732   8.302   4.867
14330TIP3    H142912   4.665   8.261   4.926
14330TIP3    H242913   4.795   8.342   4.931
14331TIP3   OH242914   4.785   8.692   5.302
14331TIP3    H142915   4.837   8.629   5.248
14331TIP3    H242916   4.786   8.772   5.246
14332TIP3   OH242917   4.622   8.975   5.486
14332TIP3    H142918   4.551   9.026   5.531
14332TIP3    H242919   4.571   8.931   5.415
14333TIP3   OH242920   4.669   8.209   4.514
14333TIP3    H142921   4.598   8.213   4.445
14333TIP3    H242922   4.642   8.286   4.568
14334TIP3   OH242923   4.543   7.882   4.467
14334TIP3    H142924   4.497   7.924   4.393
14334TIP3    H242925   4.516   7.789   4.457
14335TIP3   OH242926   4.546   8.160   5.014
14335TIP3    H142927   4.553   8.063   5.007
14335TIP3    H242928   4.532   8.173   5.110
14336TIP3   OH242929   3.173   8.227   5.763
14336TIP3    H142930   3.170   8.201   5.668
14336TIP3    H242931   3.270   8.232   5.777
14337TIP3   OH242932   4.835   8.585   5.872
14337TIP3    H142933   4.908   8.519   5.861
14337TIP3    H242934   4.860   8.653   5.807
14338TIP3   OH242935   5.019   8.389   5.887
14338TIP3    H142936   4.945   8.338   5.927
14338TIP3    H242937   5.093   8.325   5.902
14339TIP3   OH242938   4.485   7.616   4.451
14339TIP3    H142939   4.558   7.587   4.509
14339TIP3    H242940   4.411   7.559   4.477
14340TIP3   OH242941   4.542   7.875   4.909
14340TIP3    H142942   4.582   7.786   4.924
14340TIP3    H242943   4.601   7.908   4.839
14341TIP3   OH242944   4.704   8.050   5.404
14341TIP3    H142945   4.790   8.076   5.363
14341TIP3    H242946   4.718   8.087   5.493
14342TIP3   OH242947   4.773   8.194   5.636
14342TIP3    H142948   4.694   8.228   5.682
14342TIP3    H242949   4.805   8.274   5.590
14343TIP3   OH242950   3.388   7.918   6.436
14343TIP3    H142951   3.486   7.913   6.435
14343TIP3    H242952   3.365   7.833   6.477
14344TIP3   OH242953   5.226   7.786   6.192
14344TIP3    H142954   5.284   7.718   6.150
14344TIP3    H242955   5.196   7.838   6.114
14345TIP3   OH242956   4.651   7.625   4.945
14345TIP3    H142957   4.699   7.609   5.029
14345TIP3    H242958   4.590   7.549   4.945
14346TIP3   OH242959   3.351   7.612   5.769
14346TIP3    H142960   3.412   7.535   5.775
14346TIP3    H242961   3.414   7.685   5.760
14347TIP3   OH242962   3.155   7.886   5.840
14347TIP3    H142963   3.203   7.878   5.755
14347TIP3    H242964   3.180   7.975   5.867
14348TIP3   OH242965   5.095   7.924   5.997
14348TIP3    H142966   5.008   7.965   6.015
14348TIP3    H242967   5.067   7.851   5.938
14349TIP3   OH242968   4.732   7.561   4.579
14349TIP3    H142969   4.772   7.489   4.527
14349TIP3    H242970   4.800   7.631   4.573
14350TIP3   OH242971   3.139   7.405   5.349
14350TIP3    H142972   3.045   7.387   5.366
14350TIP3    H242973   3.136   7.451   5.263
14351TIP3   OH242974   4.363   9.070   4.876
14351TIP3    H142975   4.407   9.022   4.803
14351TIP3    H242976   4.430   9.138   4.893
14352TIP3   OH242977   3.358   7.471   6.158
14352TIP3    H142978   3.303   7.466   6.238
14352TIP3    H242979   3.294   7.506   6.093
14353TIP3   OH242980   3.423   8.844   6.245
14353TIP3    H142981   3.329   8.832   6.221
14353TIP3    H242982   3.417   8.869   6.338
14354TIP3   OH242983   3.574   8.930   5.793
14354TIP3    H142984   3.500   8.953   5.734
14354TIP3    H242985   3.652   8.945   5.735
14355TIP3   OH242986   4.055   9.154   5.894
14355TIP3    H142987   4.051   9.158   5.991
14355TIP3    H242988   4.133   9.207   5.878
14356TIP3   OH242989   4.994   7.686   5.876
14356TIP3    H142990   4.904   7.678   5.840
14356TIP3    H242991   5.027   7.593   5.865
14357TIP3   OH242992   4.156   9.134   5.503
14357TIP3    H142993   4.072   9.172   5.476
14357TIP3    H242994   4.212   9.213   5.511
14358TIP3   OH242995   3.140   8.936   5.566
14358TIP3    H142996   3.183   8.927   5.653
14358TIP3    H242997   3.215   8.963   5.510
14359TIP3   OH242998   3.360   8.850   5.397
14359TIP3    H142999   3.362   8.769   5.453
14359TIP3    H243000   3.455   8.875   5.396
14360TIP3   OH243001   3.617   8.929   5.413
14360TIP3    H143002   3.654   8.840   5.408
14360TIP3    H243003   3.678   8.971   5.476
14361TIP3   OH243004   4.200   7.603   5.496
14361TIP3    H143005   4.155   7.533   5.547
14361TIP3    H243006   4.270   7.553   5.450
14362TIP3   OH243007   4.722   7.484   5.400
14362TIP3    H143008   4.758   7.534   5.324
14362TIP3    H243009   4.626   7.499   5.392
14363TIP3   OH243010   4.817   7.583   5.163
14363TIP3    H143011   4.891   7.532   5.123
14363TIP3    H243012   4.850   7.674   5.148
14364TIP3   OH243013   3.451   7.293   5.514
14364TIP3    H143014   3.355   7.274   5.514
14364TIP3    H243015   3.485   7.203   5.512
14365TIP3   OH243016   3.214   7.179   5.134
14365TIP3    H143017   3.257   7.243   5.075
14365TIP3    H243018   3.212   7.226   5.219
14366TIP3   OH243019   3.886   7.345   5.392
14366TIP3    H143020   3.946   7.391   5.332
14366TIP3    H243021   3.912   7.381   5.478
14367TIP3   OH243022   4.440   7.490   5.373
14367TIP3    H143023   4.435   7.451   5.285
14367TIP3    H243024   4.426   7.410   5.430
14368TIP3   OH243025   4.468   7.412   4.937
14368TIP3    H143026   4.380   7.454   4.949
14368TIP3    H243027   4.454   7.327   4.984
14369TIP3   OH243028   2.971   8.677   4.949
14369TIP3    H143029   2.880   8.646   4.942
14369TIP3    H243030   2.958   8.772   4.926
14370TIP3   OH243031   3.352   7.344   4.919
14370TIP3    H143032   3.399   7.278   4.864
14370TIP3    H243033   3.426   7.396   4.955
14371TIP3   OH243034   3.863   7.516   5.020
14371TIP3    H143035   3.921   7.466   5.080
14371TIP3    H243036   3.887   7.607   5.046
14372TIP3   OH243037   5.323   0.356   6.251
14372TIP3    H143038   5.358   0.443   6.229
14372TIP3    H243039   5.354   0.296   6.181
14373TIP3   OH243040   4.451   9.032   4.611
14373TIP3    H143041   4.453   8.934   4.600
14373TIP3    H243042   4.464   9.061   4.521
14374TIP3   OH243043   3.654   7.595   6.404
14374TIP3    H143044   3.620   7.523   6.459
14374TIP3    H243045   3.749   7.593   6.429
14375TIP3   OH243046   3.906   7.589   6.521
14375TIP3    H143047   3.989   7.568   6.476
14375TIP3    H243048   3.897   7.513   6.582
14376TIP3   OH243049   3.038   8.734   4.589
14376TIP3    H143050   3.033   8.800   4.660
14376TIP3    H243051   3.134   8.729   4.572
14377TIP3   OH243052   4.730   7.649   6.309
14377TIP3    H143053   4.751   7.617   6.399
14377TIP3    H243054   4.818   7.646   6.266
14378TIP3   OH243055   4.684   9.207   5.795
14378TIP3    H143056   4.615   9.158   5.744
14378TIP3    H243057   4.653   9.297   5.784
14379TIP3   OH243058   5.936   8.572   4.567
14379TIP3    H143059   5.910   8.665   4.552
14379TIP3    H243060   5.855   8.526   4.541
14380TIP3   OH243061   5.931   8.573   4.946
14380TIP3    H143062   5.965   8.549   5.034
14380TIP3    H243063   5.889   8.490   4.918
14381TIP3   OH243064   5.234   8.470   5.311
14381TIP3    H143065   5.265   8.402   5.374
14381TIP3    H243066   5.311   8.529   5.309
14382TIP3   OH243067   6.174   8.878   4.629
14382TIP3    H143068   6.166   8.809   4.696
14382TIP3    H243069   6.207   8.953   4.682
14383TIP3   OH243070   5.205   8.882   5.042
14383TIP3    H143071   5.195   8.784   5.043
14383TIP3    H243072   5.301   8.890   5.030
14384TIP3   OH243073   4.912   8.083   4.823
14384TIP3    H143074   4.864   8.166   4.838
14384TIP3    H243075   4.841   8.029   4.785
14385TIP3   OH243076   4.971   8.371   4.995
14385TIP3    H143077   5.019   8.293   5.030
14385TIP3    H243078   5.027   8.398   4.922
14386TIP3   OH243079   5.820   9.319   4.673
14386TIP3    H143080   5.866   9.266   4.606
14386TIP3    H243081   5.839   9.268   4.753
14387TIP3   OH243082   5.734   8.800   4.996
14387TIP3    H143083   5.773   8.723   4.952
14387TIP3    H243084   5.817   8.846   5.020
14388TIP3   OH243085   6.744   8.121   4.993
14388TIP3    H143086   6.773   8.202   5.039
14388TIP3    H243087   6.766   8.142   4.901
14389TIP3   OH243088   6.145   8.303   5.029
14389TIP3    H143089   6.187   8.218   5.050
14389TIP3    H243090   6.114   8.286   4.938
14390TIP3   OH243091   5.483   7.961   4.993
14390TIP3    H143092   5.461   8.034   4.931
14390TIP3    H243093   5.434   7.888   4.950
14391TIP3   OH243094   6.176   8.051   4.614
14391TIP3    H143095   6.246   8.035   4.683
14391TIP3    H243096   6.232   8.087   4.543
14392TIP3   OH243097   5.116   8.163   5.100
14392TIP3    H143098   5.198   8.144   5.148
14392TIP3    H243099   5.129   8.107   5.021
14393TIP3   OH243100   5.557   8.361   4.892
14393TIP3    H143101   5.651   8.335   4.906
14393TIP3    H243102   5.518   8.276   4.861
14394TIP3   OH243103   6.816   8.324   5.166
14394TIP3    H143104   6.735   8.375   5.149
14394TIP3    H243105   6.846   8.362   5.251
14395TIP3   OH243106   5.480   7.945   5.428
14395TIP3    H143107   5.419   7.982   5.361
14395TIP3    H243108   5.428   7.961   5.509
14396TIP3   OH243109   5.832   8.798   4.437
14396TIP3    H143110   5.781   8.767   4.362
14396TIP3    H243111   5.787   8.881   4.459
14397TIP3   OH243112   5.588   8.720   5.225
14397TIP3    H143113   5.524   8.784   5.262
14397TIP3    H243114   5.627   8.771   5.151
14398TIP3   OH243115   6.385   8.056   4.787
14398TIP3    H143116   6.378   8.006   4.869
14398TIP3    H243117   6.439   8.132   4.814
14399TIP3   OH243118   5.350   8.060   5.212
14399TIP3    H143119   5.413   8.132   5.236
14399TIP3    H243120   5.399   8.019   5.137
14400TIP3   OH243121   5.415   8.910   5.323
14400TIP3    H143122   5.388   8.995   5.283
14400TIP3    H243123   5.335   8.893   5.378
14401TIP3   OH243124   4.808   8.599   4.556
14401TIP3    H143125   4.763   8.637   4.479
14401TIP3    H243126   4.837   8.680   4.604
14402TIP3   OH243127   6.239   9.103   4.792
14402TIP3    H143128   6.148   9.102   4.831
14402TIP3    H243129   6.238   9.191   4.748
14403TIP3   OH243130   6.537   8.021   5.158
14403TIP3    H143131   6.450   8.052   5.127
14403TIP3    H243132   6.598   8.054   5.089
14404TIP3   OH243133   5.835   7.664   5.141
14404TIP3    H143134   5.823   7.569   5.160
14404TIP3    H243135   5.757   7.701   5.188
14405TIP3   OH243136   5.956   9.149   4.488
14405TIP3    H143137   5.999   9.062   4.474
14405TIP3    H243138   6.031   9.206   4.461
14406TIP3   OH243139   6.098   8.944   4.374
14406TIP3    H143140   6.058   8.864   4.338
14406TIP3    H243141   6.135   8.911   4.459
14407TIP3   OH243142   6.470   9.032   5.147
14407TIP3    H143143   6.470   8.951   5.091
14407TIP3    H243144   6.460   9.102   5.079
14408TIP3   OH243145   5.764   8.422   4.396
14408TIP3    H143146   5.682   8.474   4.380
14408TIP3    H243147   5.810   8.429   4.311
14409TIP3   OH243148   5.731   8.210   4.110
14409TIP3    H143149   5.791   8.269   4.159
14409TIP3    H243150   5.782   8.129   4.111
14410TIP3   OH243151   6.669   8.665   4.982
14410TIP3    H143152   6.589   8.721   4.996
14410TIP3    H243153   6.695   8.696   4.892
14411TIP3   OH243154   6.113   8.506   4.369
14411TIP3    H143155   6.059   8.530   4.448
14411TIP3    H243156   6.197   8.483   4.413
14412TIP3   OH243157   6.344   8.535   5.276
14412TIP3    H143158   6.350   8.619   5.326
14412TIP3    H243159   6.258   8.549   5.231
14413TIP3   OH243160   5.346   8.507   4.784
14413TIP3    H143161   5.304   8.450   4.717
14413TIP3    H243162   5.422   8.452   4.814
14414TIP3   OH243163   5.479   8.913   4.936
14414TIP3    H143164   5.456   8.870   4.852
14414TIP3    H243165   5.569   8.880   4.952
14415TIP3   OH243166   5.486   8.476   5.141
14415TIP3    H143167   5.515   8.457   5.050
14415TIP3    H243168   5.526   8.564   5.159
14416TIP3   OH243169   5.996   9.112   4.912
14416TIP3    H143170   5.992   9.195   4.964
14416TIP3    H243171   5.988   9.043   4.980
14417TIP3   OH243172   5.617   9.036   5.468
14417TIP3    H143173   5.555   9.097   5.514
14417TIP3    H243174   5.552   8.983   5.416
14418TIP3   OH243175   5.955   8.367   4.194
14418TIP3    H143176   6.013   8.425   4.248
14418TIP3    H243177   5.983   8.391   4.103
14419TIP3   OH243178   5.374   8.590   5.565
14419TIP3    H143179   5.378   8.677   5.610
14419TIP3    H243180   5.278   8.571   5.575
14420TIP3   OH243181   5.692   9.046   4.460
14420TIP3    H143182   5.778   9.089   4.487
14420TIP3    H243183   5.632   9.118   4.466
14421TIP3   OH243184   5.413   9.210   5.556
14421TIP3    H143185   5.377   9.203   5.466
14421TIP3    H243186   5.341   9.172   5.610
14422TIP3   OH243187   6.468   7.609   4.242
14422TIP3    H143188   6.387   7.628   4.294
14422TIP3    H243189   6.481   7.693   4.194
14423TIP3   OH243190   5.212   8.348   4.591
14423TIP3    H143191   5.144   8.394   4.536
14423TIP3    H243192   5.169   8.263   4.605
14424TIP3   OH243193   6.262   8.963   3.786
14424TIP3    H143194   6.267   9.059   3.766
14424TIP3    H243195   6.357   8.938   3.779
14425TIP3   OH243196   4.992   8.733   5.499
14425TIP3    H143197   4.926   8.713   5.429
14425TIP3    H243198   5.028   8.645   5.520
14426TIP3   OH243199   4.848   8.920   5.153
14426TIP3    H143200   4.933   8.931   5.109
14426TIP3    H243201   4.822   9.012   5.169
14427TIP3   OH243202   5.820   9.146   5.317
14427TIP3    H143203   5.823   9.242   5.337
14427TIP3    H243204   5.743   9.116   5.371
14428TIP3   OH243205   5.017   9.110   4.649
14428TIP3    H143206   5.069   9.116   4.732
14428TIP3    H243207   4.946   9.051   4.679
14429TIP3   OH243208   5.964   9.198   3.943
14429TIP3    H143209   5.923   9.131   3.887
14429TIP3    H243210   5.916   9.186   4.027
14430TIP3   OH243211   5.821   9.176   4.189
14430TIP3    H143212   5.759   9.240   4.225
14430TIP3    H243213   5.867   9.147   4.269
14431TIP3   OH243214   6.607   8.509   5.455
14431TIP3    H143215   6.526   8.526   5.405
14431TIP3    H243216   6.619   8.413   5.442
14432TIP3   OH243217   5.196   8.916   5.486
14432TIP3    H143218   5.243   8.905   5.571
14432TIP3    H243219   5.124   8.850   5.493
14433TIP3   OH243220   5.596   7.741   5.268
14433TIP3    H143221   5.507   7.709   5.242
14433TIP3    H243222   5.570   7.822   5.317
14434TIP3   OH243223   6.131   7.857   5.466
14434TIP3    H143224   6.199   7.825   5.528
14434TIP3    H243225   6.047   7.834   5.512
14435TIP3   OH243226   6.367   8.280   5.382
14435TIP3    H143227   6.317   8.282   5.466
14435TIP3    H243228   6.347   8.367   5.343
14436TIP3   OH243229   6.023   8.415   3.937
14436TIP3    H143230   5.997   8.386   3.848
14436TIP3    H243231   6.106   8.462   3.917
14437TIP3   OH243232   5.741   7.794   4.240
14437TIP3    H143233   5.709   7.789   4.333
14437TIP3    H243234   5.704   7.709   4.208
14438TIP3   OH243235   5.529   8.255   5.291
14438TIP3    H143236   5.476   8.276   5.371
14438TIP3    H243237   5.514   8.335   5.236
14439TIP3   OH243238   5.412   8.141   4.803
14439TIP3    H143239   5.319   8.116   4.821
14439TIP3    H243240   5.424   8.100   4.715
14440TIP3   OH243241   5.904   8.228   4.531
14440TIP3    H143242   5.850   8.299   4.490
14440TIP3    H243243   5.959   8.199   4.457
14441TIP3   OH243244   6.086   8.524   5.643
14441TIP3    H143245   6.058   8.442   5.691
14441TIP3    H243246   6.183   8.511   5.643
14442TIP3   OH243247   6.060   8.255   4.771
14442TIP3    H143248   6.000   8.286   4.700
14442TIP3    H243249   6.093   8.173   4.728
14443TIP3   OH243250   5.349   8.284   5.498
14443TIP3    H143251   5.369   8.349   5.567
14443TIP3    H243252   5.337   8.202   5.549
14444TIP3   OH243253   5.401   7.765   4.203
14444TIP3    H143254   5.391   7.760   4.301
14444TIP3    H243255   5.322   7.817   4.180
14445TIP3   OH243256   4.940   7.806   5.078
14445TIP3    H143257   5.016   7.838   5.131
14445TIP3    H243258   4.981   7.774   4.997
14446TIP3   OH243259   4.914   7.788   4.597
14446TIP3    H143260   4.960   7.826   4.519
14446TIP3    H243261   4.853   7.861   4.617
14447TIP3   OH243262   6.063   8.502   5.190
14447TIP3    H143263   6.101   8.431   5.132
14447TIP3    H243264   6.038   8.448   5.268
14448TIP3   OH243265   5.738   7.965   4.864
14448TIP3    H143266   5.656   7.963   4.916
14448TIP3    H243267   5.806   7.961   4.933
14449TIP3   OH243268   5.174   8.019   4.873
14449TIP3    H143269   5.079   8.028   4.845
14449TIP3    H243270   5.195   7.927   4.850
14450TIP3   OH243271   5.444   8.014   4.562
14450TIP3    H143272   5.536   8.033   4.539
14450TIP3    H243273   5.394   8.037   4.480
14451TIP3   OH243274   6.229   8.041   5.067
14451TIP3    H143275   6.194   8.052   5.158
14451TIP3    H243276   6.165   7.978   5.030
14452TIP3   OH243277   5.284   8.045   4.344
14452TIP3    H143278   5.209   8.006   4.297
14452TIP3    H243279   5.334   8.083   4.269
14453TIP3   OH243280   5.364   8.832   5.709
14453TIP3    H143281   5.442   8.866   5.758
14453TIP3    H243282   5.295   8.842   5.778
14454TIP3   OH243283   5.822   8.292   4.962
14454TIP3    H143284   5.896   8.251   4.913
14454TIP3    H243285   5.829   8.249   5.050
14455TIP3   OH243286   5.346   7.779   4.841
14455TIP3    H143287   5.310   7.701   4.888
14455TIP3    H243288   5.398   7.737   4.770
14456TIP3   OH243289   5.799   8.188   5.249
14456TIP3    H143290   5.709   8.223   5.264
14456TIP3    H243291   5.855   8.250   5.301
14457TIP3   OH243292   5.545   8.583   4.349
14457TIP3    H143293   5.475   8.514   4.339
14457TIP3    H243294   5.520   8.619   4.437
14458TIP3   OH243295   6.437   8.815   4.977
14458TIP3    H143296   6.463   8.866   4.897
14458TIP3    H243297   6.352   8.775   4.950
14459TIP3   OH243298   5.977   7.914   4.176
14459TIP3    H143299   5.894   7.880   4.215
14459TIP3    H243300   6.000   7.992   4.231
14460TIP3   OH243301   5.938   8.898   5.345
14460TIP3    H143302   5.934   8.876   5.439
14460TIP3    H243303   5.894   8.985   5.342
14461TIP3   OH243304   6.065   8.136   4.312
14461TIP3    H143305   6.161   8.140   4.333
14461TIP3    H243306   6.051   8.220   4.264
14462TIP3   OH243307   5.231   8.604   5.023
14462TIP3    H143308   5.266   8.573   4.937
14462TIP3    H243309   5.266   8.537   5.085
14463TIP3   OH243310   5.668   8.731   4.162
14463TIP3    H143311   5.638   8.813   4.201
14463TIP3    H243312   5.625   8.666   4.224
14464TIP3   OH243313   5.110   8.521   5.635
14464TIP3    H143314   5.129   8.507   5.730
14464TIP3    H243315   5.039   8.455   5.620
14465TIP3   OH243316   5.830   8.632   5.656
14465TIP3    H143317   5.767   8.574   5.610
14465TIP3    H243318   5.916   8.595   5.628
14466TIP3   OH243319   6.091   9.167   5.228
14466TIP3    H143320   5.997   9.147   5.246
14466TIP3    H243321   6.117   9.208   5.314
14467TIP3   OH243322   6.505   8.229   4.149
14467TIP3    H143323   6.442   8.185   4.087
14467TIP3    H243324   6.503   8.319   4.109
14468TIP3   OH243325   6.726   9.110   5.220
14468TIP3    H143326   6.630   9.095   5.215
14468TIP3    H243327   6.756   9.063   5.139
14469TIP3   OH243328   6.232   9.026   4.062
14469TIP3    H143329   6.182   8.968   4.120
14469TIP3    H243330   6.218   8.986   3.974
14470TIP3   OH243331   6.199   8.678   4.895
14470TIP3    H143332   6.106   8.652   4.906
14470TIP3    H243333   6.235   8.599   4.850
14471TIP3   OH243334   5.327   8.896   4.648
14471TIP3    H143335   5.322   8.981   4.600
14471TIP3    H243336   5.235   8.883   4.673
14472TIP3   OH243337   4.893   8.206   4.350
14472TIP3    H143338   4.937   8.291   4.368
14472TIP3    H243339   4.814   8.213   4.409
14473TIP3   OH243340   5.475   8.672   4.593
14473TIP3    H143341   5.429   8.758   4.608
14473TIP3    H243342   5.436   8.618   4.664
14474TIP3   OH243343   5.587   9.241   5.126
14474TIP3    H143344   5.598   9.330   5.086
14474TIP3    H243345   5.676   9.217   5.153
14475TIP3   OH243346   5.262   9.131   4.519
14475TIP3    H143347   5.169   9.121   4.549
14475TIP3    H243348   5.260   9.223   4.490
14476TIP3   OH243349   5.988   8.882   5.077
14476TIP3    H143350   5.981   8.877   5.175
14476TIP3    H243351   6.070   8.833   5.061
14477TIP3   OH243352   5.962   8.771   3.960
14477TIP3    H143353   6.015   8.746   4.039
14477TIP3    H243354   5.873   8.747   3.990
14478TIP3   OH243355   6.256   9.392   5.125
14478TIP3    H143356   6.188   9.327   5.150
14478TIP3    H243357   6.202   9.469   5.098
14479TIP3   OH243358   6.285   9.232   3.758
14479TIP3    H143359   6.356   9.299   3.752
14479TIP3    H243360   6.208   9.287   3.777
14480TIP3   OH243361   5.320   8.028   5.644
14480TIP3    H143362   5.223   8.030   5.657
14480TIP3    H243363   5.347   7.966   5.714
14481TIP3   OH243364   6.121   8.706   4.176
14481TIP3    H143365   6.114   8.641   4.249
14481TIP3    H243366   6.218   8.707   4.163
14482TIP3   OH243367   5.065   9.131   5.293
14482TIP3    H143368   5.083   9.037   5.305
14482TIP3    H243369   5.079   9.164   5.382
14483TIP3   OH243370   5.349   8.753   4.009
14483TIP3    H143371   5.294   8.735   3.931
14483TIP3    H243372   5.320   8.671   4.052
14484TIP3   OH243373   5.010   8.452   4.435
14484TIP3    H143374   4.943   8.500   4.488
14484TIP3    H243375   5.025   8.517   4.363
14485TIP3   OH243376   6.154   8.094   5.328
14485TIP3    H143377   6.239   8.128   5.360
14485TIP3    H243378   6.143   8.012   5.381
14486TIP3   OH243379   6.039   7.845   4.488
14486TIP3    H143380   6.028   7.879   4.399
14486TIP3    H243381   6.080   7.923   4.534
14487TIP3   OH243382   5.508   9.004   4.217
14487TIP3    H143383   5.512   9.067   4.266
14487TIP3    H243384   5.567   9.003   4.145
14488TIP3   OH243385   5.728   8.022   4.592
14488TIP3    H143386   5.791   8.096   4.578
14488TIP3    H243387   5.730   8.013   4.690
14489TIP3   OH243388   5.998   8.341   5.399
14489TIP3    H143389   6.012   8.384   5.485
14489TIP3    H243390   6.051   8.259   5.407
14490TIP3   OH243391   5.871   7.750   4.695
14490TIP3    H143392   5.867   7.825   4.757
14490TIP3    H243393   5.931   7.786   4.626
14491TIP3   OH243394   5.383   7.747   4.481
14491TIP3    H143395   5.379   7.837   4.519
14491TIP3    H243396   5.479   7.729   4.492
14492TIP3   OH243397   6.636   8.242   5.387
14492TIP3    H143398   6.537   8.237   5.387
14492TIP3    H243399   6.655   8.207   5.299
14493TIP3   OH243400   6.287   8.436   4.768
14493TIP3    H143401   6.212   8.376   4.783
14493TIP3    H243402   6.360   8.391   4.816
14494TIP3   OH243403   5.001   8.651   4.231
14494TIP3    H143404   4.990   8.745   4.217
14494TIP3    H243405   5.033   8.621   4.142
14495TIP3   OH243406   4.945   7.939   4.369
14495TIP3    H143407   4.944   8.037   4.367
14495TIP3    H243408   4.858   7.918   4.334
14496TIP3   OH243409   6.250   9.359   4.705
14496TIP3    H143410   6.218   9.445   4.674
14496TIP3    H243411   6.346   9.379   4.710
14497TIP3   OH243412   5.332   7.660   5.246
14497TIP3    H143413   5.301   7.625   5.160
14497TIP3    H243414   5.322   7.582   5.304
14498TIP3   OH243415   4.875   8.846   4.665
14498TIP3    H143416   4.816   8.897   4.722
14498TIP3    H243417   4.854   8.884   4.576
14499TIP3   OH243418   5.103   9.358   5.669
14499TIP3    H143419   5.170   9.374   5.739
14499TIP3    H243420   5.068   9.272   5.695
14500TIP3   OH243421   5.536   9.381   5.740
14500TIP3    H143422   5.613   9.322   5.743
14500TIP3    H243423   5.485   9.338   5.669
14501TIP3   OH243424   5.494   8.944   3.879
14501TIP3    H143425   5.466   8.852   3.903
14501TIP3    H243426   5.570   8.923   3.823
14502TIP3   OH243427   6.140   9.280   5.468
14502TIP3    H143428   6.124   9.210   5.535
14502TIP3    H243429   6.219   9.320   5.508
14503TIP3   OH243430   5.922   8.978   3.761
14503TIP3    H143431   5.967   8.927   3.830
14503TIP3    H243432   5.987   8.977   3.688
14504TIP3   OH243433   5.157   8.825   5.899
14504TIP3    H143434   5.175   8.729   5.902
14504TIP3    H243435   5.070   8.827   5.853
14505TIP3   OH243436   5.769   8.904   5.664
14505TIP3    H143437   5.717   8.924   5.584
14505TIP3    H243438   5.784   8.808   5.658
14506TIP3   OH243439   5.643   8.666   3.895
14506TIP3    H143440   5.648   8.673   3.992
14506TIP3    H243441   5.617   8.572   3.883
14507TIP3   OH243442   6.246   8.930   5.269
14507TIP3    H143443   6.326   8.966   5.226
14507TIP3    H243444   6.182   9.000   5.250
14508TIP3   OH243445   5.276   8.558   5.880
14508TIP3    H143446   5.354   8.504   5.859
14508TIP3    H243447   5.302   8.594   5.968
14509TIP3   OH243448   5.372   8.377   4.333
14509TIP3    H143449   5.316   8.344   4.404
14509TIP3    H243450   5.378   8.301   4.273
14510TIP3   OH243451   5.615   8.449   5.545
14510TIP3    H143452   5.534   8.504   5.544
14510TIP3    H243453   5.661   8.481   5.464
14511TIP3   OH243454   5.442   8.168   4.158
14511TIP3    H143455   5.413   8.165   4.064
14511TIP3    H243456   5.537   8.188   4.148
14512TIP3   OH243457   6.143   8.859   5.718
14512TIP3    H143458   6.206   8.872   5.644
14512TIP3    H243459   6.123   8.764   5.708
14513TIP3   OH243460   6.263   8.503   3.819
14513TIP3    H143461   6.244   8.458   3.734
14513TIP3    H243462   6.231   8.593   3.796
14514TIP3   OH243463   5.737   8.233   5.666
14514TIP3    H143464   5.734   8.153   5.610
14514TIP3    H243465   5.691   8.299   5.609
14515TIP3   OH243466   5.737   8.021   5.476
14515TIP3    H143467   5.765   8.060   5.390
14515TIP3    H243468   5.644   7.997   5.457
14516TIP3   OH243469   5.769   8.558   5.349
14516TIP3    H143470   5.850   8.564   5.296
14516TIP3    H243471   5.710   8.622   5.304
14517TIP3   OH243472   6.354   8.528   5.745
14517TIP3    H143473   6.400   8.445   5.723
14517TIP3    H243474   6.420   8.594   5.718
14518TIP3   OH243475   6.384   8.759   5.424
14518TIP3    H143476   6.323   8.820   5.377
14518TIP3    H243477   6.467   8.777   5.372
14519TIP3   OH243478   5.612   8.345   5.896
14519TIP3    H143479   5.544   8.276   5.911
14519TIP3    H243480   5.646   8.319   5.808
14520TIP3   OH243481   5.870   7.783   5.541
14520TIP3    H143482   5.819   7.864   5.520
14520TIP3    H243483   5.802   7.714   5.530
14521TIP3   OH243484   5.992   8.294   5.756
14521TIP3    H143485   5.981   8.275   5.851
14521TIP3    H243486   5.903   8.266   5.724
14522TIP3   OH243487   6.237   8.250   5.619
14522TIP3    H143488   6.160   8.239   5.677
14522TIP3    H243489   6.310   8.212   5.672
14523TIP3   OH243490   6.461   8.181   5.772
14523TIP3    H143491   6.476   8.084   5.783
14523TIP3    H243492   6.466   8.213   5.864
14524TIP3   OH243493   5.453   8.126   5.950
14524TIP3    H143494   5.456   8.034   5.916
14524TIP3    H243495   5.489   8.113   6.040
14525TIP3   OH243496   5.965   7.795   5.799
14525TIP3    H143497   6.032   7.723   5.794
14525TIP3    H243498   5.925   7.787   5.710
14526TIP3   OH243499   6.032   8.009   5.957
14526TIP3    H143500   6.011   7.937   5.894
14526TIP3    H243501   5.953   8.066   5.951
14527TIP3   OH243502   4.731   8.619   4.269
14527TIP3    H143503   4.829   8.625   4.264
14527TIP3    H243504   4.718   8.528   4.232
14528TIP3   OH243505   4.792   9.064   4.851
14528TIP3    H143506   4.753   9.007   4.918
14528TIP3    H243507   4.833   9.132   4.907
14529TIP3   OH243508   6.500   9.460   4.699
14529TIP3    H143509   6.537   9.510   4.774
14529TIP3    H243510   6.543   9.503   4.624
14530TIP3   OH243511   6.579   9.466   4.987
14530TIP3    H143512   6.513   9.395   4.971
14530TIP3    H243513   6.643   9.416   5.039
14531TIP3   OH243514   6.399   8.691   4.150
14531TIP3    H143515   6.465   8.757   4.120
14531TIP3    H243516   6.444   8.654   4.229
14532TIP3   OH243517   6.527   8.559   4.354
14532TIP3    H143518   6.462   8.519   4.414
14532TIP3    H243519   6.593   8.598   4.415
14533TIP3   OH243520   6.573   8.945   4.781
14533TIP3    H143521   6.633   8.885   4.732
14533TIP3    H243522   6.579   9.027   4.728
14534TIP3   OH243523   6.418   9.236   4.971
14534TIP3    H143524   6.351   9.286   5.022
14534TIP3    H243525   6.364   9.190   4.904
14535TIP3   OH243526   6.466   8.467   4.000
14535TIP3    H143527   6.394   8.470   3.933
14535TIP3    H243528   6.440   8.543   4.056
14536TIP3   OH243529   6.334   8.141   3.957
14536TIP3    H143530   6.294   8.179   3.878
14536TIP3    H243531   6.311   8.046   3.945
14537TIP3   OH243532   6.341   8.417   4.501
14537TIP3    H143533   6.352   8.320   4.497
14537TIP3    H243534   6.327   8.432   4.597
14538TIP3   OH243535   4.969   8.486   5.249
14538TIP3    H143536   4.966   8.458   5.155
14538TIP3    H243537   5.066   8.489   5.263
14539TIP3   OH243538   6.608   8.800   5.278
14539TIP3    H143539   6.689   8.759   5.312
14539TIP3    H243540   6.629   8.894   5.290
14540TIP3   OH243541   6.826   8.652   5.375
14540TIP3    H143542   6.748   8.601   5.407
14540TIP3    H243543   6.894   8.581   5.380
14541TIP3   OH243544   6.284   7.873   3.934
14541TIP3    H143545   6.359   7.845   3.990
14541TIP3    H243546   6.211   7.814   3.959
14542TIP3   OH243547   6.336   8.130   4.394
14542TIP3    H143548   6.377   8.041   4.410
14542TIP3    H243549   6.397   8.164   4.326
14543TIP3   OH243550   6.500   8.308   4.890
14543TIP3    H143551   6.586   8.332   4.850
14543TIP3    H243552   6.514   8.344   4.980
14544TIP3   OH243553   6.569   8.450   5.123
14544TIP3    H143554   6.489   8.484   5.168
14544TIP3    H243555   6.601   8.531   5.078
14545TIP3   OH243556   5.186   8.177   5.924
14545TIP3    H143557   5.284   8.170   5.923
14545TIP3    H243558   5.162   8.091   5.962
14546TIP3   OH243559   7.006   8.018   5.675
14546TIP3    H143560   7.074   7.967   5.627
14546TIP3    H243561   6.991   8.095   5.617
14547TIP3   OH243562   6.446   7.882   4.433
14547TIP3    H143563   6.496   7.867   4.516
14547TIP3    H243564   6.387   7.804   4.433
14548TIP3   OH243565   5.147   7.868   5.252
14548TIP3    H143566   5.208   7.793   5.262
14548TIP3    H243567   5.210   7.942   5.246
14549TIP3   OH243568   4.951   8.142   5.326
14549TIP3    H143569   4.999   8.136   5.241
14549TIP3    H243570   4.977   8.229   5.357
14550TIP3   OH243571   6.883   8.181   5.490
14550TIP3    H143572   6.793   8.219   5.479
14550TIP3    H243573   6.873   8.102   5.433
14551TIP3   OH243574   6.527   7.820   4.062
14551TIP3    H143575   6.573   7.744   4.021
14551TIP3    H243576   6.598   7.888   4.061
14552TIP3   OH243577   4.933   7.647   4.826
14552TIP3    H143578   4.840   7.642   4.853
14552TIP3    H243579   4.930   7.705   4.748
14553TIP3   OH243580   6.155   9.325   4.364
14553TIP3    H143581   6.202   9.279   4.292
14553TIP3    H243582   6.223   9.387   4.392
14554TIP3   OH243583   5.155   7.729   5.642
14554TIP3    H143584   5.102   7.720   5.723
14554TIP3    H243585   5.087   7.764   5.580
14555TIP3   OH243586   5.218   9.104   5.729
14555TIP3    H143587   5.124   9.088   5.709
14555TIP3    H243588   5.216   9.117   5.825
14556TIP3   OH243589   5.369   9.185   5.278
14556TIP3    H143590   5.298   9.214   5.220
14556TIP3    H243591   5.448   9.200   5.222
14557TIP3   OH243592   5.849   9.419   5.358
14557TIP3    H143593   5.840   9.422   5.455
14557TIP3    H243594   5.933   9.465   5.347
14558TIP3   OH243595   6.791   7.942   5.361
14558TIP3    H143596   6.699   7.935   5.329
14558TIP3    H243597   6.822   7.849   5.350
14559TIP3   OH243598   5.954   9.395   4.976
14559TIP3    H143599   5.866   9.432   4.977
14559TIP3    H243600   6.007   9.470   5.008
14560TIP3   OH243601   4.935   9.194   5.054
14560TIP3    H143602   4.982   9.180   5.139
14560TIP3    H243603   5.004   9.237   5.001
14561TIP3   OH243604   5.157   9.099   4.877
14561TIP3    H143605   5.159   9.023   4.939
14561TIP3    H243606   5.250   9.129   4.881
14562TIP3   OH243607   5.410   9.185   4.902
14562TIP3    H143608   5.450   9.096   4.900
14562TIP3    H243609   5.473   9.231   4.959
14563TIP3   OH243610   5.992   7.857   4.977
14563TIP3    H143611   5.950   7.789   5.032
14563TIP3    H243612   6.068   7.809   4.938
14564TIP3   OH243613   6.519   7.737   4.885
14564TIP3    H143614   6.554   7.790   4.810
14564TIP3    H243615   6.423   7.756   4.879
14565TIP3   OH243616   6.611   7.841   4.649
14565TIP3    H143617   6.685   7.788   4.611
14565TIP3    H243618   6.647   7.932   4.634
14566TIP3   OH243619   5.244   7.567   4.996
14566TIP3    H143620   5.151   7.535   4.999
14566TIP3    H243621   5.292   7.482   4.994
14567TIP3   OH243622   5.029   7.438   4.644
14567TIP3    H143623   5.058   7.496   4.572
14567TIP3    H243624   5.001   7.501   4.712
14568TIP3   OH243625   5.686   7.600   4.877
14568TIP3    H143626   5.746   7.651   4.820
14568TIP3    H243627   5.707   7.636   4.964
14569TIP3   OH243628   6.234   7.746   4.861
14569TIP3    H143629   6.235   7.705   4.774
14569TIP3    H243630   6.221   7.667   4.919
14570TIP3   OH243631   6.262   7.668   4.423
14570TIP3    H143632   6.176   7.709   4.440
14570TIP3    H243633   6.252   7.583   4.470
14571TIP3   OH243634   4.766   8.939   4.439
14571TIP3    H143635   4.681   8.901   4.412
14571TIP3    H243636   4.755   9.031   4.409
14572TIP3   OH243637   5.146   7.598   4.407
14572TIP3    H143638   5.196   7.534   4.352
14572TIP3    H243639   5.219   7.652   4.444
14573TIP3   OH243640   5.662   7.772   4.505
14573TIP3    H143641   5.718   7.724   4.568
14573TIP3    H243642   5.682   7.864   4.533
14574TIP3   OH243643   5.390   9.171   4.003
14574TIP3    H143644   5.450   9.234   4.045
14574TIP3    H243645   5.453   9.119   3.949
14575TIP3   OH243646   6.247   9.293   4.097
14575TIP3    H143647   6.248   9.195   4.089
14575TIP3    H243648   6.263   9.318   4.006
14576TIP3   OH243649   5.451   7.851   5.891
14576TIP3    H143650   5.416   7.778   5.944
14576TIP3    H243651   5.546   7.849   5.917
14577TIP3   OH243652   5.702   7.848   6.008
14577TIP3    H143653   5.785   7.817   5.966
14577TIP3    H243654   5.688   7.778   6.075
14578TIP3   OH243655   4.832   8.989   4.099
14578TIP3    H143656   4.796   9.066   4.143
14578TIP3    H243657   4.916   9.022   4.066
14579TIP3   OH243658   6.525   7.912   5.794
14579TIP3    H143659   6.544   7.876   5.883
14579TIP3    H243660   6.613   7.905   5.751
14580TIP3   OH243661   7.650   8.840   4.440
14580TIP3    H143662   7.731   8.837   4.491
14580TIP3    H243663   7.657   8.756   4.393
14581TIP3   OH243664   7.031   8.721   4.794
14581TIP3    H143665   7.058   8.664   4.868
14581TIP3    H243666   7.105   8.783   4.790
14582TIP3   OH243667   6.990   9.136   4.529
14582TIP3    H143668   6.985   9.039   4.532
14582TIP3    H243669   7.086   9.146   4.509
14583TIP3   OH243670   6.709   8.339   4.309
14583TIP3    H143671   6.662   8.423   4.325
14583TIP3    H243672   6.636   8.285   4.272
14584TIP3   OH243673   6.766   8.626   4.479
14584TIP3    H143674   6.814   8.549   4.517
14584TIP3    H243675   6.827   8.658   4.413
14585TIP3   OH243676   7.919   8.518   4.561
14585TIP3    H143677   7.978   8.445   4.538
14585TIP3    H243678   7.902   8.561   4.476
14586TIP3   OH243679   7.279   8.218   4.480
14586TIP3    H143680   7.258   8.290   4.418
14586TIP3    H243681   7.230   8.144   4.436
14587TIP3   OH243682   7.965   8.308   4.093
14587TIP3    H143683   8.011   8.287   4.177
14587TIP3    H243684   8.045   8.322   4.038
14588TIP3   OH243685   6.912   8.421   4.586
14588TIP3    H143686   6.994   8.401   4.635
14588TIP3    H243687   6.926   8.364   4.507
14589TIP3   OH243688   7.352   8.616   4.382
14589TIP3    H143689   7.445   8.589   4.397
14589TIP3    H243690   7.314   8.531   4.349
14590TIP3   OH243691   7.272   8.201   4.915
14590TIP3    H143692   7.211   8.237   4.849
14590TIP3    H243693   7.221   8.217   4.997
14591TIP3   OH243694   8.134   8.302   4.307
14591TIP3    H143695   8.110   8.262   4.393
14591TIP3    H243696   8.190   8.376   4.333
14592TIP3   OH243697   7.145   8.317   4.699
14592TIP3    H143698   7.209   8.389   4.722
14592TIP3    H243699   7.194   8.275   4.624
14593TIP3   OH243700   6.604   8.857   4.043
14593TIP3    H143701   6.564   8.896   3.964
14593TIP3    H243702   6.635   8.937   4.091
14594TIP3   OH243703   7.630   7.922   4.627
14594TIP3    H143704   7.616   7.827   4.644
14594TIP3    H243705   7.553   7.960   4.675
14595TIP3   OH243706   7.576   8.691   3.849
14595TIP3    H143707   7.487   8.731   3.865
14595TIP3    H243708   7.582   8.703   3.754
14596TIP3   OH243709   7.514   8.452   3.616
14596TIP3    H143710   7.581   8.493   3.672
14596TIP3    H243711   7.567   8.391   3.562
14597TIP3   OH243712   7.141   8.762   4.273
14597TIP3    H143713   7.100   8.704   4.206
14597TIP3    H243714   7.217   8.708   4.303
14598TIP3   OH243715   7.246   9.155   4.433
14598TIP3    H143716   7.248   9.121   4.343
14598TIP3    H243717   7.342   9.164   4.452
14599TIP3   OH243718   7.293   8.742   4.625
14599TIP3    H143719   7.313   8.705   4.536
14599TIP3    H243720   7.337   8.827   4.621
14600TIP3   OH243721   8.249   7.831   3.726
14600TIP3    H143722   8.176   7.840   3.790
14600TIP3    H243723   8.234   7.915   3.678
14601TIP3   OH243724   7.010   8.605   4.074
14601TIP3    H143725   6.941   8.650   4.020
14601TIP3    H243726   6.967   8.521   4.092
14602TIP3   OH243727   6.786   8.987   4.987
14602TIP3    H143728   6.725   8.957   4.917
14602TIP3    H243729   6.836   8.907   5.010
14603TIP3   OH243730   6.642   9.173   4.634
14603TIP3    H143731   6.731   9.183   4.599
14603TIP3    H243732   6.617   9.264   4.657
14604TIP3   OH243733   6.814   9.371   4.142
14604TIP3    H143734   6.876   9.376   4.217
14604TIP3    H243735   6.754   9.301   4.172
14605TIP3   OH243736   7.393   7.996   4.757
14605TIP3    H143737   7.303   7.967   4.731
14605TIP3    H243738   7.370   8.078   4.805
14606TIP3   OH243739   7.920   8.109   4.958
14606TIP3    H143740   7.959   8.112   5.046
14606TIP3    H243741   7.827   8.090   4.980
14607TIP3   OH243742   7.533   8.053   3.724
14607TIP3    H143743   7.504   8.047   3.817
14607TIP3    H243744   7.500   7.967   3.691
14608TIP3   OH243745   7.322   8.515   4.776
14608TIP3    H143746   7.273   8.536   4.859
14608TIP3    H243747   7.309   8.597   4.724
14609TIP3   OH243748   7.208   8.398   4.290
14609TIP3    H143749   7.115   8.372   4.308
14609TIP3    H243750   7.220   8.356   4.201
14610TIP3   OH243751   7.692   8.498   4.014
14610TIP3    H143752   7.641   8.569   3.969
14610TIP3    H243753   7.753   8.472   3.945
14611TIP3   OH243754   7.813   8.469   4.260
14611TIP3    H143755   7.755   8.498   4.186
14611TIP3    H243756   7.850   8.389   4.221
14612TIP3   OH243757   7.155   8.549   4.996
14612TIP3    H143758   7.147   8.604   5.075
14612TIP3    H243759   7.139   8.460   5.034
14613TIP3   OH243760   7.190   8.016   3.693
14613TIP3    H143761   7.186   8.013   3.791
14613TIP3    H243762   7.112   8.071   3.673
14614TIP3   OH243763   6.736   8.064   4.564
14614TIP3    H143764   6.811   8.095   4.618
14614TIP3    H243765   6.779   8.029   4.484
14615TIP3   OH243766   6.709   8.044   4.084
14615TIP3    H143767   6.758   8.080   4.007
14615TIP3    H243768   6.650   8.119   4.103
14616TIP3   OH243769   7.535   8.216   4.349
14616TIP3    H143770   7.451   8.215   4.400
14616TIP3    H243771   7.599   8.234   4.420
14617TIP3   OH243772   6.970   8.276   4.359
14617TIP3    H143773   6.876   8.283   4.332
14617TIP3    H243774   6.992   8.183   4.337
14618TIP3   OH243775   7.239   8.273   4.048
14618TIP3    H143776   7.333   8.286   4.025
14618TIP3    H243777   7.192   8.293   3.964
14619TIP3   OH243778   8.023   8.259   4.558
14619TIP3    H143779   7.990   8.275   4.648
14619TIP3    H243780   7.949   8.206   4.522
14620TIP3   OH243781   7.080   8.305   3.828
14620TIP3    H143782   7.006   8.263   3.781
14620TIP3    H243783   7.131   8.341   3.752
14621TIP3   OH243784   7.609   8.531   4.443
14621TIP3    H143785   7.690   8.508   4.395
14621TIP3    H243786   7.630   8.502   4.533
14622TIP3   OH243787   7.142   8.036   4.327
14622TIP3    H143788   7.106   7.958   4.375
14622TIP3    H243789   7.194   7.994   4.257
14623TIP3   OH243790   7.588   8.438   4.735
14623TIP3    H143791   7.496   8.471   4.743
14623TIP3    H243792   7.639   8.500   4.789
14624TIP3   OH243793   7.334   8.826   3.830
14624TIP3    H143794   7.259   8.763   3.822
14624TIP3    H243795   7.313   8.867   3.917
14625TIP3   OH243796   7.797   8.152   3.710
14625TIP3    H143797   7.699   8.144   3.703
14625TIP3    H243798   7.817   8.245   3.690
14626TIP3   OH243799   7.022   8.857   4.510
14626TIP3    H143800   7.062   8.830   4.425
14626TIP3    H243801   7.059   8.791   4.571
14627TIP3   OH243802   6.900   8.763   5.116
14627TIP3    H143803   6.901   8.750   5.212
14627TIP3    H243804   6.820   8.714   5.090
14628TIP3   OH243805   7.120   9.154   4.126
14628TIP3    H143806   7.136   9.246   4.104
14628TIP3    H243807   7.025   9.154   4.145
14629TIP3   OH243808   6.688   8.466   3.836
14629TIP3    H143809   6.734   8.550   3.856
14629TIP3    H243810   6.612   8.471   3.898
14630TIP3   OH243811   7.260   8.922   4.072
14630TIP3    H143812   7.219   9.010   4.089
14630TIP3    H243813   7.225   8.872   4.148
14631TIP3   OH243814   7.119   8.283   5.134
14631TIP3    H143815   7.023   8.287   5.150
14631TIP3    H243816   7.147   8.227   5.208
14632TIP3   OH243817   6.853   9.385   4.780
14632TIP3    H143818   6.866   9.289   4.783
14632TIP3    H243819   6.867   9.410   4.871
14633TIP3   OH243820   7.077   8.981   3.456
14633TIP3    H143821   7.079   8.884   3.448
14633TIP3    H243822   7.063   8.994   3.552
14634TIP3   OH243823   7.075   9.027   3.733
14634TIP3    H143824   7.140   8.980   3.788
14634TIP3    H243825   7.112   9.117   3.733
14635TIP3   OH243826   6.804   8.711   3.920
14635TIP3    H143827   6.738   8.756   3.977
14635TIP3    H243828   6.816   8.780   3.852
14636TIP3   OH243829   7.823   8.099   3.980
14636TIP3    H143830   7.817   8.115   3.883
14636TIP3    H243831   7.870   8.180   4.010
14637TIP3   OH243832   7.525   8.280   4.080
14637TIP3    H143833   7.588   8.354   4.067
14637TIP3    H243834   7.525   8.271   4.178
14638TIP3   OH243835   7.665   8.007   4.186
14638TIP3    H143836   7.652   8.086   4.242
14638TIP3    H243837   7.723   8.042   4.116
14639TIP3   OH243838   7.179   8.005   3.969
14639TIP3    H143839   7.178   8.094   4.008
14639TIP3    H243840   7.275   7.984   3.979
14640TIP3   OH243841   6.793   8.922   3.729
14640TIP3    H143842   6.861   8.991   3.739
14640TIP3    H243843   6.836   8.865   3.661
14641TIP3   OH243844   6.742   8.198   3.858
14641TIP3    H143845   6.741   8.295   3.854
14641TIP3    H243846   6.656   8.176   3.820
14642TIP3   OH243847   7.128   7.917   4.732
14642TIP3    H143848   7.097   7.882   4.646
14642TIP3    H243849   7.118   7.839   4.791
14643TIP3   OH243850   6.678   9.108   4.153
14643TIP3    H143851   6.607   9.153   4.200
14643TIP3    H243852   6.662   9.141   4.062
14644TIP3   OH243853   6.923   8.731   3.589
14644TIP3    H143854   6.981   8.696   3.659
14644TIP3    H243855   6.984   8.727   3.512
14645TIP3   OH243856   7.138   8.636   3.802
14645TIP3    H143857   7.108   8.596   3.885
14645TIP3    H243858   7.172   8.558   3.752
14646TIP3   OH243859   7.237   8.430   3.642
14646TIP3    H143860   7.212   8.436   3.547
14646TIP3    H243861   7.335   8.435   3.635
14647TIP3   OH243862   7.536   8.259   4.945
14647TIP3    H143863   7.556   8.312   4.866
14647TIP3    H243864   7.438   8.250   4.940
14648TIP3   OH243865   7.660   8.031   5.011
14648TIP3    H143866   7.610   8.113   4.992
14648TIP3    H243867   7.588   7.964   5.010
14649TIP3   OH243868   7.832   8.047   5.229
14649TIP3    H143869   7.797   7.958   5.236
14649TIP3    H243870   7.755   8.091   5.189
14650TIP3   OH243871   6.524   8.877   3.758
14650TIP3    H143872   6.619   8.900   3.749
14650TIP3    H243873   6.522   8.787   3.719
14651TIP3   OH243874   6.577   9.330   4.343
14651TIP3    H143875   6.552   9.262   4.406
14651TIP3    H243876   6.625   9.392   4.401
14652TIP3   OH243877   6.765   8.746   4.733
14652TIP3    H143878   6.762   8.717   4.640
14652TIP3    H243879   6.862   8.745   4.750
14653TIP3   OH243880   6.974   8.425   5.388
14653TIP3    H143881   7.067   8.451   5.394
14653TIP3    H243882   6.969   8.349   5.450
14654TIP3   OH243883   8.257   8.082   3.877
14654TIP3    H143884   8.238   8.151   3.944
14654TIP3    H243885   8.179   8.024   3.886
14655TIP3   OH243886   6.943   8.124   4.738
14655TIP3    H143887   7.004   8.049   4.748
14655TIP3    H243888   7.005   8.199   4.732
14656TIP3   OH243889   6.747   8.397   4.812
14656TIP3    H143890   6.797   8.397   4.728
14656TIP3    H243891   6.768   8.484   4.847
14657TIP3   OH243892   6.731   7.906   4.314
14657TIP3    H143893   6.637   7.900   4.340
14657TIP3    H243894   6.726   7.963   4.235
14658TIP3   OH243895   6.949   7.980   5.125
14658TIP3    H143896   6.900   7.976   5.209
14658TIP3    H243897   6.882   8.019   5.066
14659TIP3   OH243898   6.734   9.450   4.538
14659TIP3    H143899   6.778   9.436   4.625
14659TIP3    H243900   6.803   9.500   4.490
14660TIP3   OH243901   6.979   9.362   4.365
14660TIP3    H143902   6.954   9.287   4.423
14660TIP3    H243903   7.073   9.366   4.384
14661TIP3   OH243904   7.798   8.113   4.472
14661TIP3    H143905   7.744   8.049   4.522
14661TIP3    H243906   7.857   8.054   4.421
14662TIP3   OH243907   8.326   8.046   4.365
14662TIP3    H143908   8.341   8.019   4.274
14662TIP3    H243909   8.230   8.028   4.373
14663TIP3   OH243910   7.039   7.824   4.483
14663TIP3    H143911   6.947   7.791   4.486
14663TIP3    H243912   7.088   7.739   4.479
14664TIP3   OH243913   6.804   7.693   4.132
14664TIP3    H143914   6.854   7.743   4.066
14664TIP3    H243915   6.791   7.760   4.203
14665TIP3   OH243916   7.482   7.857   4.364
14665TIP3    H143917   7.542   7.907   4.306
14665TIP3    H243918   7.502   7.895   4.451
14666TIP3   OH243919   8.043   7.998   4.345
14666TIP3    H143920   8.036   7.957   4.257
14666TIP3    H243921   8.028   7.920   4.403
14667TIP3   OH243922   8.046   7.907   3.911
14667TIP3    H143923   7.958   7.947   3.914
14667TIP3    H243924   8.032   7.826   3.964
14668TIP3   OH243925   6.554   9.193   3.932
14668TIP3    H143926   6.475   9.156   3.890
14668TIP3    H243927   6.547   9.286   3.903
14669TIP3   OH243928   6.944   7.857   3.887
14669TIP3    H143929   6.991   7.783   3.844
14669TIP3    H243930   7.018   7.907   3.926
14670TIP3   OH243931   7.457   8.030   3.992
14670TIP3    H143932   7.513   7.979   4.053
14670TIP3    H243933   7.482   8.121   4.020
14671TIP3   OH243934   7.236   8.085   5.356
14671TIP3    H143935   7.225   8.008   5.415
14671TIP3    H243936   7.331   8.087   5.339
14672TIP3   OH243937   6.622   9.244   3.577
14672TIP3    H143938   6.604   9.330   3.618
14672TIP3    H243939   6.718   9.246   3.567
14673TIP3   OH243940   4.573   1.652   8.055
14673TIP3    H143941   4.582   1.746   8.030
14673TIP3    H243942   4.663   1.618   8.039
14674TIP3   OH243943   4.087   1.873   8.164
14674TIP3    H143944   4.142   1.798   8.130
14674TIP3    H243945   4.105   1.870   8.259
14675TIP3   OH243946   4.115   1.949   8.445
14675TIP3    H143947   4.025   1.918   8.464
14675TIP3    H243948   4.167   1.892   8.503
14676TIP3   OH243949   4.329   1.085   8.189
14676TIP3    H143950   4.296   1.059   8.102
14676TIP3    H243951   4.414   1.126   8.167
14677TIP3   OH243952   4.829   0.896   8.260
14677TIP3    H143953   4.743   0.856   8.281
14677TIP3    H243954   4.811   0.991   8.275
14678TIP3   OH243955   4.516   1.713   8.318
14678TIP3    H143956   4.484   1.631   8.358
14678TIP3    H243957   4.529   1.684   8.225
14679TIP3   OH243958   4.267   1.443   8.218
14679TIP3    H143959   4.299   1.416   8.306
14679TIP3    H243960   4.184   1.393   8.215
14680TIP3   OH243961   4.603   1.925   8.032
14680TIP3    H143962   4.636   1.990   7.968
14680TIP3    H243963   4.522   1.972   8.062
14681TIP3   OH243964   3.650   1.422   8.236
14681TIP3    H143965   3.665   1.347   8.175
14681TIP3    H243966   3.580   1.385   8.291
14682TIP3   OH243967   3.796   1.630   8.127
14682TIP3    H143968   3.749   1.554   8.168
14682TIP3    H243969   3.873   1.586   8.089
14683TIP3   OH243970   4.232   1.673   8.039
14683TIP3    H143971   4.276   1.606   8.094
14683TIP3    H243972   4.283   1.671   7.955
14684TIP3   OH243973   3.959   1.351   8.157
14684TIP3    H143974   3.946   1.336   8.251
14684TIP3    H243975   3.959   1.257   8.127
14685TIP3   OH243976   4.565   1.177   8.068
14685TIP3    H143977   4.548   1.132   7.984
14685TIP3    H243978   4.532   1.267   8.045
14686TIP3   OH243979   3.555   1.886   8.297
14686TIP3    H143980   3.652   1.893   8.281
14686TIP3    H243981   3.523   1.946   8.227
14687TIP3   OH243982   4.706   1.368   8.414
14687TIP3    H143983   4.776   1.424   8.376
14687TIP3    H243984   4.744   1.340   8.498
14688TIP3   OH243985   4.769   1.160   8.243
14688TIP3    H143986   4.695   1.160   8.178
14688TIP3    H243987   4.733   1.224   8.308
14689TIP3   OH243988   4.571   0.778   8.204
14689TIP3    H143989   4.565   0.864   8.160
14689TIP3    H243990   4.578   0.718   8.129
14690TIP3   OH243991   4.376   1.961   8.550
14690TIP3    H143992   4.430   1.953   8.469
14690TIP3    H243993   4.307   2.021   8.521
14691TIP3   OH243994   3.821   1.881   8.246
14691TIP3    H143995   3.911   1.901   8.216
14691TIP3    H243996   3.810   1.791   8.210
14692TIP3   OH243997   4.551   1.982   8.341
14692TIP3    H143998   4.547   1.885   8.325
14692TIP3    H243999   4.505   2.017   8.261
14693TIP3   OH244000   6.031   1.505   8.314
14693TIP3    H144001   6.006   1.597   8.290
14693TIP3    H244002   5.955   1.456   8.278
14694TIP3   OH244003   6.045   1.511   8.690
14694TIP3    H144004   6.030   1.451   8.765
14694TIP3    H244005   6.020   1.450   8.618
14695TIP3   OH244006   6.279   1.805   8.372
14695TIP3    H144007   6.265   1.736   8.440
14695TIP3    H244008   6.302   1.882   8.426
14696TIP3   OH244009   5.926   2.270   8.387
14696TIP3    H144010   5.973   2.200   8.337
14696TIP3    H244011   5.916   2.229   8.474
14697TIP3   OH244012   5.841   1.705   8.703
14697TIP3    H144013   5.903   1.637   8.671
14697TIP3    H244014   5.901   1.778   8.727
14698TIP3   OH244015   6.243   1.028   8.367
14698TIP3    H144016   6.331   0.991   8.384
14698TIP3    H244017   6.224   0.987   8.281
14699TIP3   OH244018   5.673   1.289   8.569
14699TIP3    H144019   5.766   1.268   8.586
14699TIP3    H244020   5.633   1.200   8.559
14700TIP3   OH244021   5.931   1.727   8.178
14700TIP3    H144022   5.881   1.702   8.099
14700TIP3    H244023   5.885   1.810   8.203
14701TIP3   OH244024   4.902   1.537   8.305
14701TIP3    H144025   4.866   1.553   8.216
14701TIP3    H244026   4.938   1.625   8.329
14702TIP3   OH244027   6.349   2.042   8.536
14702TIP3    H144028   6.259   2.036   8.575
14702TIP3    H244029   6.344   2.132   8.497
14703TIP3   OH244030   6.053   2.097   8.217
14703TIP3    H144031   6.100   2.014   8.195
14703TIP3    H244032   6.114   2.161   8.174
14704TIP3   OH244033   6.194   1.882   8.121
14704TIP3    H144034   6.149   1.806   8.083
14704TIP3    H244035   6.229   1.844   8.205
14705TIP3   OH244036   5.864   1.363   8.139
14705TIP3    H144037   5.782   1.411   8.119
14705TIP3    H244038   5.907   1.360   8.052
14706TIP3   OH244039   5.830   1.135   7.856
14706TIP3    H144040   5.890   1.196   7.903
14706TIP3    H244041   5.893   1.087   7.799
14707TIP3   OH244042   6.207   1.439   8.111
14707TIP3    H144043   6.153   1.462   8.189
14707TIP3    H244044   6.292   1.417   8.155
14708TIP3   OH244045   5.465   1.454   8.501
14708TIP3    H144046   5.404   1.383   8.476
14708TIP3    H244047   5.543   1.403   8.531
14709TIP3   OH244048   5.600   1.891   8.615
14709TIP3    H144049   5.536   1.842   8.560
14709TIP3    H244050   5.647   1.817   8.657
14710TIP3   OH244051   6.108   2.047   8.659
14710TIP3    H144052   6.082   2.130   8.704
14710TIP3    H244053   6.104   1.981   8.730
14711TIP3   OH244054   6.042   1.312   7.930
14711TIP3    H144055   6.102   1.369   7.983
14711TIP3    H244056   6.073   1.333   7.839
14712TIP3   OH244057   5.798   1.975   8.209
14712TIP3    H144058   5.874   2.032   8.231
14712TIP3    H244059   5.734   2.038   8.173
14713TIP3   OH244060   5.322   1.270   8.297
14713TIP3    H144061   5.245   1.314   8.256
14713TIP3    H244062   5.280   1.203   8.353
14714TIP3   OH244063   6.368   1.905   7.534
14714TIP3    H144064   6.377   2.002   7.519
14714TIP3    H244065   6.460   1.875   7.523
14715TIP3   OH244066   5.676   2.223   8.015
14715TIP3    H144067   5.631   2.204   7.930
14715TIP3    H244068   5.644   2.313   8.037
14716TIP3   OH244069   5.117   2.073   8.392
14716TIP3    H144070   5.171   2.069   8.475
14716TIP3    H244071   5.053   2.002   8.411
14717TIP3   OH244072   5.878   2.124   7.656
14717TIP3    H144073   5.937   2.055   7.619
14717TIP3    H244074   5.912   2.133   7.747
14718TIP3   OH244075   5.928   2.172   7.927
14718TIP3    H144076   5.839   2.181   7.968
14718TIP3    H244077   5.977   2.128   7.997
14719TIP3   OH244078   6.132   1.344   7.679
14719TIP3    H144079   6.097   1.321   7.591
14719TIP3    H244080   6.213   1.392   7.653
14720TIP3   OH244081   5.539   1.045   8.542
14720TIP3    H144082   5.444   1.045   8.559
14720TIP3    H244083   5.541   1.021   8.446
14721TIP3   OH244084   5.993   1.168   8.276
14721TIP3    H144085   5.940   1.238   8.232
14721TIP3    H244086   6.051   1.139   8.202
14722TIP3   OH244087   6.166   1.240   8.503
14722TIP3    H144088   6.106   1.262   8.429
14722TIP3    H244089   6.190   1.149   8.472
14723TIP3   OH244090   5.079   0.822   8.344
14723TIP3    H144091   5.100   0.848   8.253
14723TIP3    H244092   4.986   0.853   8.347
14724TIP3   OH244093   5.557   0.958   8.288
14724TIP3    H144094   5.648   0.956   8.254
14724TIP3    H244095   5.501   0.962   8.208
14725TIP3   OH244096   5.379   0.970   8.075
14725TIP3    H144097   5.309   0.933   8.018
14725TIP3    H244098   5.434   1.014   8.008
14726TIP3   OH244099   6.480   2.685   9.019
14726TIP3    H144100   6.490   2.683   8.923
14726TIP3    H244101   6.564   2.723   9.046
14727TIP3   OH244102   5.962   1.238   8.679
14727TIP3    H144103   6.037   1.208   8.624
14727TIP3    H244104   5.929   1.155   8.717
14728TIP3   OH244105   5.636   1.508   8.083
14728TIP3    H144106   5.563   1.443   8.077
14728TIP3    H244107   5.620   1.547   8.173
14729TIP3   OH244108   6.520   1.735   8.701
14729TIP3    H144109   6.579   1.802   8.663
14729TIP3    H244110   6.441   1.744   8.645
14730TIP3   OH244111   6.041   0.856   7.903
14730TIP3    H144112   5.950   0.879   7.885
14730TIP3    H244113   6.073   0.922   7.967
14731TIP3   OH244114   6.144   1.085   8.052
14731TIP3    H144115   6.240   1.090   8.068
14731TIP3    H244116   6.128   1.166   8.001
14732TIP3   OH244117   5.781   1.659   7.909
14732TIP3    H144118   5.733   1.745   7.915
14732TIP3    H244119   5.726   1.603   7.969
14733TIP3   OH244120   6.583   1.160   7.893
14733TIP3    H144121   6.519   1.128   7.825
14733TIP3    H244122   6.596   1.251   7.859
14734TIP3   OH244123   6.307   1.978   7.800
14734TIP3    H144124   6.280   1.907   7.860
14734TIP3    H244125   6.319   1.931   7.715
14735TIP3   OH244126   6.274   1.633   8.592
14735TIP3    H144127   6.189   1.591   8.617
14735TIP3    H244128   6.331   1.554   8.586
14736TIP3   OH244129   5.426   1.838   8.384
14736TIP3    H144130   5.420   1.918   8.328
14736TIP3    H244131   5.334   1.813   8.396
14737TIP3   OH244132   4.993   1.147   8.088
14737TIP3    H144133   5.040   1.229   8.112
14737TIP3    H244134   4.915   1.152   8.148
14738TIP3   OH244135   5.583   1.618   8.320
14738TIP3    H144136   5.543   1.702   8.347
14738TIP3    H244137   5.547   1.558   8.389
14739TIP3   OH244138   5.702   2.183   8.829
14739TIP3    H144139   5.747   2.257   8.784
14739TIP3    H244140   5.772   2.145   8.884
14740TIP3   OH244141   5.349   2.077   8.238
14740TIP3    H144142   5.264   2.085   8.284
14740TIP3    H244143   5.382   2.170   8.243
14741TIP3   OH244144   6.138   1.822   8.829
14741TIP3    H144145   6.053   1.822   8.875
14741TIP3    H244146   6.137   1.740   8.777
14742TIP3   OH244147   6.059   1.706   7.700
14742TIP3    H144148   6.112   1.681   7.779
14742TIP3    H244149   5.971   1.680   7.729
14743TIP3   OH244150   6.297   2.350   8.885
14743TIP3    H144151   6.229   2.299   8.838
14743TIP3    H244152   6.327   2.409   8.813
14744TIP3   OH244153   6.401   2.180   7.521
14744TIP3    H144154   6.439   2.252   7.467
14744TIP3    H244155   6.321   2.226   7.553
14745TIP3   OH244156   6.217   1.640   7.916
14745TIP3    H144157   6.210   1.574   7.989
14745TIP3    H244158   6.314   1.638   7.901
14746TIP3   OH244159   5.426   1.687   7.701
14746TIP3    H144160   5.440   1.595   7.671
14746TIP3    H244161   5.407   1.673   7.796
14747TIP3   OH244162   5.370   1.692   7.975
14747TIP3    H144163   5.443   1.662   8.031
14747TIP3    H244164   5.379   1.790   7.981
14748TIP3   OH244165   5.103   1.389   8.176
14748TIP3    H144166   5.041   1.435   8.235
14748TIP3    H244167   5.120   1.457   8.108
14749TIP3   OH244168   5.638   1.888   7.921
14749TIP3    H144169   5.552   1.916   7.957
14749TIP3    H244170   5.653   1.959   7.856
14750TIP3   OH244171   5.852   0.943   8.334
14750TIP3    H144172   5.899   1.027   8.316
14750TIP3    H244173   5.846   0.945   8.431
14751TIP3   OH244174   5.382   1.965   7.987
14751TIP3    H144175   5.351   2.035   7.925
14751TIP3    H244176   5.367   2.009   8.074
14752TIP3   OH244177   6.404   1.374   8.513
14752TIP3    H144178   6.319   1.327   8.514
14752TIP3    H244179   6.462   1.317   8.568
14753TIP3   OH244180   5.100   1.598   7.980
14753TIP3    H144181   5.172   1.663   7.988
14753TIP3    H244182   5.143   1.538   7.914
14754TIP3   OH244183   5.043   0.878   8.076
14754TIP3    H144184   5.045   0.975   8.080
14754TIP3    H244185   4.947   0.863   8.079
14755TIP3   OH244186   6.350   2.320   8.459
14755TIP3    H144187   6.311   2.370   8.385
14755TIP3    H244188   6.445   2.338   8.442
14756TIP3   OH244189   4.966   1.794   8.371
14756TIP3    H144190   4.884   1.842   8.389
14756TIP3    H244191   4.987   1.832   8.284
14757TIP3   OH244192   5.591   1.890   7.614
14757TIP3    H144193   5.534   1.818   7.651
14757TIP3    H244194   5.666   1.838   7.580
14758TIP3   OH244195   6.027   1.932   7.525
14758TIP3    H144196   6.071   1.867   7.583
14758TIP3    H244197   6.082   1.930   7.444
14759TIP3   OH244198   5.235   1.409   7.836
14759TIP3    H144199   5.290   1.372   7.907
14759TIP3    H244200   5.301   1.413   7.763
14760TIP3   OH244201   5.743   1.607   7.640
14760TIP3    H144202   5.747   1.618   7.737
14760TIP3    H244203   5.742   1.509   7.634
14761TIP3   OH244204   5.442   1.315   8.053
14761TIP3    H144205   5.413   1.282   8.140
14761TIP3    H244206   5.476   1.234   8.010
14762TIP3   OH244207   5.541   1.104   7.899
14762TIP3    H144208   5.515   1.103   7.805
14762TIP3    H244209   5.638   1.102   7.892
14763TIP3   OH244210   6.367   1.434   7.557
14763TIP3    H144211   6.348   1.391   7.471
14763TIP3    H244212   6.333   1.525   7.536
14764TIP3   OH244213   5.350   2.170   7.802
14764TIP3    H144214   5.446   2.163   7.783
14764TIP3    H244215   5.321   2.216   7.722
14765TIP3   OH244216   4.833   1.545   8.026
14765TIP3    H144217   4.926   1.568   8.004
14765TIP3    H244218   4.824   1.458   7.982
14766TIP3   OH244219   4.735   2.163   8.436
14766TIP3    H144220   4.671   2.102   8.392
14766TIP3    H244221   4.802   2.099   8.466
14767TIP3   OH244222   4.910   2.012   8.583
14767TIP3    H144223   4.828   2.004   8.635
14767TIP3    H244224   4.949   2.091   8.623
14768TIP3   OH244225   6.606   2.403   8.417
14768TIP3    H144226   6.634   2.432   8.506
14768TIP3    H244227   6.663   2.456   8.360
14769TIP3   OH244228   6.638   2.444   8.687
14769TIP3    H144229   6.591   2.357   8.682
14769TIP3    H244230   6.672   2.436   8.778
14770TIP3   OH244231   6.491   1.632   7.879
14770TIP3    H144232   6.564   1.691   7.855
14770TIP3    H244233   6.528   1.588   7.959
14771TIP3   OH244234   6.594   1.493   8.081
14771TIP3    H144235   6.534   1.448   8.144
14771TIP3    H244236   6.661   1.531   8.141
14772TIP3   OH244237   6.700   1.862   8.511
14772TIP3    H144238   6.694   1.838   8.418
14772TIP3    H244239   6.669   1.953   8.506
14773TIP3   OH244240   6.517   2.202   8.707
14773TIP3    H144241   6.493   2.182   8.798
14773TIP3    H244242   6.471   2.131   8.658
14774TIP3   OH244243   6.562   1.397   7.745
14774TIP3    H144244   6.494   1.400   7.674
14774TIP3    H244245   6.534   1.475   7.797
14775TIP3   OH244246   6.426   1.066   7.691
14775TIP3    H144247   6.403   1.126   7.619
14775TIP3    H244248   6.393   0.982   7.657
14776TIP3   OH244249   6.434   1.360   8.245
14776TIP3    H144250   6.427   1.265   8.222
14776TIP3    H244251   6.431   1.360   8.343
14777TIP3   OH244252   6.417   1.117   8.111
14777TIP3    H144253   6.442   1.023   8.107
14777TIP3    H244254   6.478   1.150   8.041
14778TIP3   OH244255   6.193   2.280   8.074
14778TIP3    H144256   6.242   2.265   7.991
14778TIP3    H244257   6.248   2.347   8.118
14779TIP3   OH244258   6.121   2.539   9.001
14779TIP3    H144259   6.166   2.464   8.956
14779TIP3    H244260   6.191   2.605   9.001
14780TIP3   OH244261   5.812   2.387   8.680
14780TIP3    H144262   5.737   2.400   8.619
14780TIP3    H244263   5.817   2.475   8.723
14781TIP3   OH244264   6.071   2.316   8.734
14781TIP3    H144265   5.978   2.340   8.710
14781TIP3    H244266   6.120   2.389   8.693
14782TIP3   OH244267   6.288   2.511   8.656
14782TIP3    H144268   6.273   2.593   8.605
14782TIP3    H244269   6.314   2.448   8.585
14783TIP3   OH244270   5.247   2.047   8.627
14783TIP3    H144271   5.275   1.953   8.639
14783TIP3    H244272   5.335   2.091   8.633
14784TIP3   OH244273   5.511   2.146   8.632
14784TIP3    H144274   5.544   2.056   8.609
14784TIP3    H244275   5.564   2.160   8.713
14785TIP3   OH244276   4.840   1.949   8.180
14785TIP3    H144277   4.760   1.908   8.141
14785TIP3    H244278   4.833   2.037   8.137
14786TIP3   OH244279   5.618   2.128   7.748
14786TIP3    H144280   5.707   2.149   7.713
14786TIP3    H244281   5.596   2.053   7.689
14787TIP3   OH244282   6.337   2.244   7.843
14787TIP3    H144283   6.330   2.147   7.831
14787TIP3    H244284   6.293   2.276   7.761
14788TIP3   OH244285   4.925   1.965   7.806
14788TIP3    H144286   4.930   1.992   7.898
14788TIP3    H244287   5.012   1.921   7.791
14789TIP3   OH244288   6.563   2.422   8.958
14789TIP3    H144289   6.487   2.362   8.966
14789TIP3    H244290   6.545   2.485   9.029
14790TIP3   OH244291   6.814   1.321   8.052
14790TIP3    H144292   6.725   1.354   8.031
14790TIP3    H244293   6.795   1.238   8.100
14791TIP3   OH244294   6.833   1.548   8.197
14791TIP3    H144295   6.842   1.457   8.164
14791TIP3    H244296   6.869   1.596   8.121
14792TIP3   OH244297   7.719   1.964   7.625
14792TIP3    H144298   7.675   1.937   7.542
14792TIP3    H244299   7.726   2.059   7.612
14793TIP3   OH244300   6.704   1.791   7.787
14793TIP3    H144301   6.665   1.814   7.700
14793TIP3    H244302   6.734   1.878   7.820
14794TIP3   OH244303   7.626   1.394   7.336
14794TIP3    H144304   7.672   1.464   7.389
14794TIP3    H244305   7.683   1.318   7.353
14795TIP3   OH244306   7.621   2.315   7.664
14795TIP3    H144307   7.626   2.242   7.730
14795TIP3    H244308   7.527   2.322   7.644
14796TIP3   OH244309   7.078   1.548   7.853
14796TIP3    H144310   7.025   1.573   7.775
14796TIP3    H244311   7.088   1.453   7.844
14797TIP3   OH244312   8.168   2.167   7.008
14797TIP3    H144313   8.169   2.265   7.000
14797TIP3    H244314   8.262   2.149   7.020
14798TIP3   OH244315   6.743   2.125   8.362
14798TIP3    H144316   6.837   2.150   8.364
14798TIP3    H244317   6.702   2.197   8.414
14799TIP3   OH244318   7.430   2.479   7.504
14799TIP3    H144319   7.422   2.468   7.407
14799TIP3    H244320   7.431   2.576   7.516
14800TIP3   OH244321   6.909   2.329   7.881
14800TIP3    H144322   6.954   2.323   7.968
14800TIP3    H244323   6.851   2.252   7.886
14801TIP3   OH244324   7.674   2.379   7.142
14801TIP3    H144325   7.735   2.311   7.107
14801TIP3    H244326   7.707   2.390   7.234
14802TIP3   OH244327   7.717   2.430   7.416
14802TIP3    H144328   7.648   2.409   7.482
14802TIP3    H244329   7.796   2.414   7.471
14803TIP3   OH244330   7.932   1.580   7.166
14803TIP3    H144331   7.884   1.554   7.085
14803TIP3    H244332   8.002   1.636   7.125
14804TIP3   OH244333   6.842   1.052   7.819
14804TIP3    H144334   6.859   1.095   7.733
14804TIP3    H244335   6.782   1.116   7.861
14805TIP3   OH244336   7.161   1.237   7.564
14805TIP3    H144337   7.099   1.194   7.502
14805TIP3    H244338   7.228   1.268   7.501
14806TIP3   OH244339   7.424   1.774   7.565
14806TIP3    H144340   7.366   1.695   7.556
14806TIP3    H244341   7.400   1.804   7.655
14807TIP3   OH244342   7.575   1.914   7.392
14807TIP3    H144343   7.523   1.998   7.396
14807TIP3    H244344   7.519   1.856   7.450
14808TIP3   OH244345   8.045   2.234   7.256
14808TIP3    H144346   8.077   2.199   7.340
14808TIP3    H244347   8.108   2.197   7.192
14809TIP3   OH244348   7.214   2.114   7.887
14809TIP3    H144349   7.211   2.190   7.826
14809TIP3    H244350   7.128   2.074   7.871
14810TIP3   OH244351   6.780   1.407   7.573
14810TIP3    H144352   6.831   1.487   7.598
14810TIP3    H244353   6.708   1.409   7.640
14811TIP3   OH244354   7.338   1.872   7.803
14811TIP3    H144355   7.308   1.955   7.842
14811TIP3    H244356   7.394   1.835   7.875
14812TIP3   OH244357   7.147   2.336   7.729
14812TIP3    H144358   7.059   2.346   7.771
14812TIP3    H244359   7.178   2.430   7.729
14813TIP3   OH244360   7.854   1.952   7.186
14813TIP3    H144361   7.892   1.964   7.274
14813TIP3    H244362   7.763   1.927   7.208
14814TIP3   OH244363   8.198   2.443   7.009
14814TIP3    H144364   8.236   2.521   6.965
14814TIP3    H244365   8.113   2.483   7.038
14815TIP3   OH244366   6.923   2.332   8.536
14815TIP3    H144367   6.978   2.269   8.486
14815TIP3    H244368   6.985   2.399   8.566
14816TIP3   OH244369   7.223   1.943   7.188
14816TIP3    H144370   7.237   1.851   7.158
14816TIP3    H244371   7.203   1.930   7.282
14817TIP3   OH244372   7.167   1.947   7.461
14817TIP3    H144373   7.239   1.916   7.517
14817TIP3    H244374   7.175   2.045   7.469
14818TIP3   OH244375   6.901   1.641   7.656
14818TIP3    H144376   6.840   1.687   7.716
14818TIP3    H244377   6.920   1.711   7.591
14819TIP3   OH244378   7.434   2.144   7.412
14819TIP3    H144379   7.345   2.173   7.441
14819TIP3    H244380   7.456   2.217   7.352
14820TIP3   OH244381   7.176   2.221   7.475
14820TIP3    H144382   7.148   2.290   7.411
14820TIP3    H244383   7.164   2.269   7.560
14821TIP3   OH244384   6.895   1.854   7.466
14821TIP3    H144385   6.965   1.921   7.475
14821TIP3    H244386   6.940   1.796   7.400
14822TIP3   OH244387   6.830   1.140   7.568
14822TIP3    H144388   6.832   1.238   7.565
14822TIP3    H244389   6.749   1.120   7.520
14823TIP3   OH244390   6.769   2.066   7.859
14823TIP3    H144391   6.691   2.098   7.907
14823TIP3    H244392   6.750   2.102   7.770
14824TIP3   OH244393   7.387   2.148   7.100
14824TIP3    H144394   7.331   2.075   7.137
14824TIP3    H244395   7.462   2.097   7.065
14825TIP3   OH244396   7.822   2.187   7.008
14825TIP3    H144397   7.879   2.146   7.075
14825TIP3    H244398   7.880   2.187   6.929
14826TIP3   OH244399   7.030   1.665   7.321
14826TIP3    H144400   7.085   1.631   7.394
14826TIP3    H244401   7.097   1.669   7.250
14827TIP3   OH244402   7.539   1.860   7.125
14827TIP3    H144403   7.541   1.871   7.222
14827TIP3    H244404   7.535   1.762   7.118
14828TIP3   OH244405   7.240   1.567   7.540
14828TIP3    H144406   7.218   1.527   7.625
14828TIP3    H244407   7.273   1.489   7.489
14829TIP3   OH244408   7.340   1.360   7.386
14829TIP3    H144409   7.307   1.357   7.294
14829TIP3    H244410   7.436   1.369   7.370
14830TIP3   OH244411   8.134   1.709   7.048
14830TIP3    H144412   8.140   1.653   6.968
14830TIP3    H244413   8.105   1.794   7.009
14831TIP3   OH244414   7.146   2.422   7.286
14831TIP3    H144415   7.242   2.419   7.272
14831TIP3    H244416   7.119   2.472   7.207
14832TIP3   OH244417   6.628   1.803   7.508
14832TIP3    H144418   6.722   1.827   7.490
14832TIP3    H244419   6.622   1.715   7.465
14833TIP3   OH244420   6.540   2.419   7.916
14833TIP3    H144421   6.474   2.356   7.879
14833TIP3    H244422   6.585   2.362   7.981
14834TIP3   OH244423   6.676   2.272   8.102
14834TIP3    H144424   6.659   2.199   8.163
14834TIP3    H244425   6.728   2.331   8.159
14835TIP3   OH244426   7.957   2.496   7.573
14835TIP3    H144427   8.016   2.482   7.496
14835TIP3    H244428   7.987   2.582   7.605
14836TIP3   OH244429   6.945   2.646   8.534
14836TIP3    H144430   6.857   2.681   8.505
14836TIP3    H244431   6.926   2.628   8.627
14837TIP3   OH244432   7.117   2.558   8.329
14837TIP3    H144433   7.065   2.604   8.397
14837TIP3    H244434   7.133   2.630   8.265
14838TIP3   OH244435   6.849   2.425   8.263
14838TIP3    H144436   6.879   2.422   8.356
14838TIP3    H244437   6.927   2.387   8.218
14839TIP3   OH244438   7.046   2.303   8.115
14839TIP3    H144439   7.082   2.217   8.142
14839TIP3    H244440   7.128   2.354   8.097
14840TIP3   OH244441   7.317   2.390   8.126
14840TIP3    H144442   7.319   2.293   8.135
14840TIP3    H244443   7.298   2.421   8.216
14841TIP3   OH244444   6.643   2.195   7.658
14841TIP3    H144445   6.558   2.160   7.623
14841TIP3    H244446   6.632   2.289   7.636
14842TIP3   OH244447   7.416   2.386   7.235
14842TIP3    H144448   7.506   2.405   7.202
14842TIP3    H244449   7.394   2.310   7.177
14843TIP3   OH244450   8.108   2.498   7.337
14843TIP3    H144451   8.105   2.403   7.313
14843TIP3    H244452   8.090   2.538   7.250
14844TIP3   OH244453   6.720   2.221   7.292
14844TIP3    H144454   6.722   2.246   7.386
14844TIP3    H244455   6.808   2.179   7.279
14845TIP3   OH244456   8.915   2.629   6.712
14845TIP3    H144457   8.973   2.681   6.771
14845TIP3    H244458   8.903   2.693   6.640
14846TIP3   OH244459   8.475   2.464   7.086
14846TIP3    H144460   8.381   2.438   7.083
14846TIP3    H244461   8.478   2.509   7.172
14847TIP3   OH244462   8.512   2.487   6.792
14847TIP3    H144463   8.501   2.488   6.889
14847TIP3    H244464   8.599   2.443   6.782
14848TIP3   OH244465   2.411   3.209   8.181
14848TIP3    H144466   2.420   3.305   8.170
14848TIP3    H244467   2.501   3.178   8.162
14849TIP3   OH244468   1.888   3.387   8.270
14849TIP3    H144469   1.954   3.319   8.247
14849TIP3    H244470   1.927   3.424   8.352
14850TIP3   OH244471   2.447   3.480   8.176
14850TIP3    H144472   2.486   3.543   8.114
14850TIP3    H244473   2.364   3.528   8.195
14851TIP3   OH244474   2.081   3.214   8.179
14851TIP3    H144475   2.162   3.225   8.233
14851TIP3    H244476   2.119   3.218   8.088
14852TIP3   OH244477   2.407   2.743   8.228
14852TIP3    H144478   2.394   2.683   8.152
14852TIP3    H244479   2.378   2.827   8.186
14853TIP3   OH244480   2.443   3.544   8.451
14853TIP3    H144481   2.455   3.462   8.402
14853TIP3    H244482   2.396   3.598   8.385
14854TIP3   OH244483   3.865   3.073   8.472
14854TIP3    H144484   3.839   3.159   8.431
14854TIP3    H244485   3.801   3.016   8.427
14855TIP3   OH244486   4.110   3.367   8.522
14855TIP3    H144487   4.133   3.294   8.580
14855TIP3    H244488   4.142   3.445   8.571
14856TIP3   OH244489   3.754   3.820   8.524
14856TIP3    H144490   3.806   3.750   8.480
14856TIP3    H244491   3.791   3.818   8.614
14857TIP3   OH244492   4.125   2.572   8.514
14857TIP3    H144493   4.197   2.535   8.565
14857TIP3    H244494   4.164   2.576   8.424
14858TIP3   OH244495   3.762   3.281   8.330
14858TIP3    H144496   3.725   3.267   8.241
14858TIP3    H244497   3.722   3.368   8.353
14859TIP3   OH244498   2.759   3.097   8.392
14859TIP3    H144499   2.709   3.095   8.307
14859TIP3    H244500   2.757   3.192   8.410
14860TIP3   OH244501   4.170   3.602   8.681
14860TIP3    H144502   4.087   3.614   8.729
14860TIP3    H244503   4.180   3.690   8.639
14861TIP3   OH244504   3.895   3.652   8.366
14861TIP3    H144505   3.942   3.570   8.340
14861TIP3    H244506   3.955   3.719   8.325
14862TIP3   OH244507   4.031   3.438   8.268
14862TIP3    H144508   4.003   3.359   8.220
14862TIP3    H244509   4.061   3.402   8.353
14863TIP3   OH244510   3.713   2.921   8.293
14863TIP3    H144511   3.630   2.967   8.270
14863TIP3    H244512   3.753   2.909   8.205
14864TIP3   OH244513   3.666   2.697   8.012
14864TIP3    H144514   3.737   2.752   8.049
14864TIP3    H244515   3.720   2.633   7.960
14865TIP3   OH244516   4.628   3.104   8.807
14865TIP3    H144517   4.561   3.155   8.854
14865TIP3    H244518   4.650   3.164   8.733
14866TIP3   OH244519   4.050   2.998   8.268
14866TIP3    H144520   4.001   3.028   8.347
14866TIP3    H244521   4.136   2.972   8.307
14867TIP3   OH244522   3.895   2.853   8.087
14867TIP3    H144523   3.952   2.915   8.137
14867TIP3    H244524   3.920   2.875   7.994
14868TIP3   OH244525   3.636   3.536   8.368
14868TIP3    H144526   3.711   3.594   8.387
14868TIP3    H244527   3.575   3.596   8.323
14869TIP3   OH244528   4.411   2.096   8.135
14869TIP3    H144529   4.328   2.117   8.183
14869TIP3    H244530   4.424   2.179   8.083
14870TIP3   OH244531   3.211   2.837   8.437
14870TIP3    H144532   3.131   2.881   8.403
14870TIP3    H244533   3.172   2.759   8.479
14871TIP3   OH244534   4.208   3.464   7.685
14871TIP3    H144535   4.216   3.560   7.669
14871TIP3    H244536   4.300   3.434   7.673
14872TIP3   OH244537   3.518   3.779   8.166
14872TIP3    H144538   3.474   3.763   8.081
14872TIP3    H244539   3.487   3.868   8.191
14873TIP3   OH244540   2.955   3.622   8.529
14873TIP3    H144541   3.011   3.611   8.607
14873TIP3    H244542   2.923   3.531   8.513
14874TIP3   OH244543   3.720   3.682   7.806
14874TIP3    H144544   3.779   3.613   7.769
14874TIP3    H244545   3.754   3.691   7.897
14875TIP3   OH244546   3.770   3.730   8.076
14875TIP3    H144547   3.681   3.740   8.117
14875TIP3    H244548   3.819   3.690   8.149
14876TIP3   OH244549   3.974   2.903   7.835
14876TIP3    H144550   3.935   2.877   7.749
14876TIP3    H244551   4.053   2.952   7.805
14877TIP3   OH244552   3.686   2.277   8.138
14877TIP3    H144553   3.655   2.266   8.230
14877TIP3    H244554   3.646   2.197   8.098
14878TIP3   OH244555   3.839   2.716   8.425
14878TIP3    H144556   3.783   2.784   8.382
14878TIP3    H244557   3.892   2.685   8.348
14879TIP3   OH244558   4.049   2.822   8.583
14879TIP3    H144559   3.979   2.845   8.520
14879TIP3    H244560   4.075   2.733   8.550
14880TIP3   OH244561   3.343   2.252   8.099
14880TIP3    H144562   3.329   2.243   8.196
14880TIP3    H244563   3.261   2.299   8.074
14881TIP3   OH244564   3.387   2.498   8.435
14881TIP3    H144565   3.470   2.512   8.388
14881TIP3    H244566   3.320   2.519   8.367
14882TIP3   OH244567   3.211   2.549   8.232
14882TIP3    H144568   3.146   2.495   8.183
14882TIP3    H244569   3.267   2.577   8.157
14883TIP3   OH244570   3.483   3.064   8.230
14883TIP3    H144571   3.410   3.001   8.214
14883TIP3    H244572   3.456   3.108   8.314
14884TIP3   OH244573   3.929   2.385   8.094
14884TIP3    H144574   3.834   2.361   8.105
14884TIP3    H244575   3.931   2.479   8.121
14885TIP3   OH244576   4.001   2.632   8.215
14885TIP3    H144577   4.098   2.632   8.217
14885TIP3    H244578   3.981   2.707   8.155
14886TIP3   OH244579   3.629   3.221   8.063
14886TIP3    H144580   3.577   3.305   8.067
14886TIP3    H244581   3.574   3.162   8.118
14887TIP3   OH244582   4.447   2.719   8.041
14887TIP3    H144583   4.385   2.673   7.979
14887TIP3    H244584   4.442   2.807   7.999
14888TIP3   OH244585   4.150   3.535   7.950
14888TIP3    H144586   4.119   3.464   8.008
14888TIP3    H244587   4.159   3.491   7.864
14889TIP3   OH244588   3.268   3.413   8.549
14889TIP3    H144589   3.262   3.489   8.488
14889TIP3    H244590   3.181   3.373   8.540
14890TIP3   OH244591   2.811   2.705   8.244
14890TIP3    H144592   2.866   2.784   8.248
14890TIP3    H244593   2.732   2.730   8.293
14891TIP3   OH244594   3.413   3.186   8.463
14891TIP3    H144595   3.380   3.274   8.493
14891TIP3    H244596   3.371   3.126   8.528
14892TIP3   OH244597   3.198   3.636   8.392
14892TIP3    H144598   3.107   3.656   8.421
14892TIP3    H244599   3.235   3.728   8.394
14893TIP3   OH244600   3.902   3.264   7.850
14893TIP3    H144601   3.952   3.239   7.932
14893TIP3    H244602   3.812   3.236   7.875
14894TIP3   OH244603   4.241   3.738   7.671
14894TIP3    H144604   4.275   3.809   7.614
14894TIP3    H244605   4.161   3.784   7.705
14895TIP3   OH244606   4.062   3.202   8.073
14895TIP3    H144607   4.052   3.131   8.140
14895TIP3    H244608   4.158   3.196   8.056
14896TIP3   OH244609   3.269   3.244   7.853
14896TIP3    H144610   3.280   3.153   7.819
14896TIP3    H244611   3.246   3.227   7.946
14897TIP3   OH244612   3.210   3.250   8.129
14897TIP3    H144613   3.290   3.225   8.176
14897TIP3    H244614   3.215   3.348   8.129
14898TIP3   OH244615   2.968   2.940   8.328
14898TIP3    H144616   2.895   2.998   8.359
14898TIP3    H244617   2.997   2.993   8.252
14899TIP3   OH244618   4.021   2.343   8.358
14899TIP3    H144619   3.973   2.349   8.274
14899TIP3    H244620   3.991   2.422   8.406
14900TIP3   OH244621   3.479   3.445   8.074
14900TIP3    H144622   3.392   3.476   8.107
14900TIP3    H244623   3.495   3.512   8.006
14901TIP3   OH244624   3.682   2.499   8.487
14901TIP3    H144625   3.737   2.576   8.463
14901TIP3    H244626   3.706   2.485   8.580
14902TIP3   OH244627   3.223   3.522   8.138
14902TIP3    H144628   3.193   3.590   8.072
14902TIP3    H244629   3.211   3.571   8.222
14903TIP3   OH244630   3.325   2.235   8.373
14903TIP3    H144631   3.334   2.323   8.414
14903TIP3    H244632   3.414   2.198   8.392
14904TIP3   OH244633   4.283   2.933   8.658
14904TIP3    H144634   4.190   2.908   8.644
14904TIP3    H244635   4.299   2.895   8.746
14905TIP3   OH244636   2.937   3.154   8.124
14905TIP3    H144637   3.006   3.222   8.134
14905TIP3    H244638   2.983   3.096   8.059
14906TIP3   OH244639   2.867   2.435   8.189
14906TIP3    H144640   2.877   2.521   8.233
14906TIP3    H244641   2.845   2.378   8.263
14907TIP3   OH244642   4.193   3.875   8.609
14907TIP3    H144643   4.150   3.926   8.536
14907TIP3    H244644   4.287   3.895   8.586
14908TIP3   OH244645   2.813   3.371   8.513
14908TIP3    H144646   2.737   3.394   8.566
14908TIP3    H244647   2.785   3.408   8.425
14909TIP3   OH244648   3.433   3.448   7.766
14909TIP3    H144649   3.377   3.375   7.800
14909TIP3    H244650   3.506   3.397   7.727
14910TIP3   OH244651   3.868   3.490   7.675
14910TIP3    H144652   3.913   3.425   7.731
14910TIP3    H244653   3.921   3.489   7.593
14911TIP3   OH244654   3.078   2.966   7.988
14911TIP3    H144655   3.138   2.925   8.053
14911TIP3    H244656   3.139   2.972   7.911
14912TIP3   OH244657   3.587   3.165   7.792
14912TIP3    H144658   3.589   3.176   7.889
14912TIP3    H244659   3.588   3.067   7.785
14913TIP3   OH244660   3.289   2.875   8.182
14913TIP3    H144661   3.269   2.842   8.272
14913TIP3    H244662   3.324   2.793   8.140
14914TIP3   OH244663   3.385   2.657   8.046
14914TIP3    H144664   3.357   2.659   7.952
14914TIP3    H244665   3.483   2.661   8.036
14915TIP3   OH244666   4.209   2.993   7.710
14915TIP3    H144667   4.187   2.947   7.626
14915TIP3    H244668   4.175   3.083   7.687
14916TIP3   OH244669   3.191   3.723   7.952
14916TIP3    H144670   3.287   3.721   7.932
14916TIP3    H244671   3.160   3.772   7.874
14917TIP3   OH244672   2.667   3.110   8.133
14917TIP3    H144673   2.763   3.128   8.123
14917TIP3    H244674   2.660   3.019   8.095
14918TIP3   OH244675   4.441   3.974   8.545
14918TIP3    H144676   4.478   4.004   8.631
14918TIP3    H244677   4.501   4.016   8.483
14919TIP3   OH244678   4.522   4.005   8.798
14919TIP3    H144679   4.472   3.921   8.801
14919TIP3    H244680   4.569   4.002   8.882
14920TIP3   OH244681   4.340   3.180   8.043
14920TIP3    H144682   4.406   3.245   8.013
14920TIP3    H244683   4.386   3.141   8.121
14921TIP3   OH244684   4.469   3.048   8.244
14921TIP3    H144685   4.402   3.006   8.302
14921TIP3    H244686   4.533   3.085   8.308
14922TIP3   OH244687   4.546   3.451   8.697
14922TIP3    H144688   4.582   3.379   8.641
14922TIP3    H244689   4.519   3.516   8.630
14923TIP3   OH244690   4.383   3.759   8.816
14923TIP3    H144691   4.301   3.799   8.850
14923TIP3    H244692   4.347   3.678   8.776
14924TIP3   OH244693   4.407   2.955   7.894
14924TIP3    H144694   4.337   2.956   7.825
14924TIP3    H244695   4.377   3.032   7.948
14925TIP3   OH244696   4.279   2.628   7.849
14925TIP3    H144697   4.236   2.667   7.772
14925TIP3    H244698   4.253   2.534   7.839
14926TIP3   OH244699   4.285   2.905   8.387
14926TIP3    H144700   4.289   2.808   8.380
14926TIP3    H244701   4.295   2.919   8.484
14927TIP3   OH244702   4.221   2.363   7.838
14927TIP3    H144703   4.290   2.325   7.894
14927TIP3    H244704   4.144   2.305   7.853
14928TIP3   OH244705   4.281   2.622   8.287
14928TIP3    H144706   4.319   2.531   8.296
14928TIP3    H244707   4.337   2.655   8.214
14929TIP3   OH244708   4.387   2.375   8.321
14929TIP3    H144709   4.438   2.353   8.401
14929TIP3    H244710   4.325   2.299   8.317
14930TIP3   OH244711   4.476   2.302   7.964
14930TIP3    H144712   4.507   2.233   7.902
14930TIP3    H244713   4.537   2.376   7.946
14931TIP3   OH244714   4.037   3.834   8.227
14931TIP3    H144715   4.084   3.822   8.142
14931TIP3    H244716   4.087   3.906   8.267
14932TIP3   OH244717   3.875   3.831   8.762
14932TIP3    H144718   3.822   3.873   8.831
14932TIP3    H244719   3.955   3.885   8.763
14933TIP3   OH244720   4.125   4.088   8.785
14933TIP3    H144721   4.117   4.168   8.730
14933TIP3    H244722   4.158   4.021   8.722
14934TIP3   OH244723   4.547   2.339   8.537
14934TIP3    H144724   4.613   2.272   8.508
14934TIP3    H244725   4.601   2.420   8.529
14935TIP3   OH244726   4.213   2.164   8.313
14935TIP3    H144727   4.138   2.227   8.324
14935TIP3    H244728   4.169   2.083   8.348
14936TIP3   OH244729   2.702   3.491   8.300
14936TIP3    H144730   2.622   3.453   8.260
14936TIP3    H244731   2.687   3.585   8.280
14937TIP3   OH244732   3.084   2.126   8.275
14937TIP3    H144733   3.125   2.038   8.285
14937TIP3    H244734   3.150   2.179   8.324
14938TIP3   OH244735   3.618   2.245   8.406
14938TIP3    H144736   3.690   2.208   8.460
14938TIP3    H244737   3.623   2.338   8.436
14939TIP3   OH244738   3.460   3.686   7.900
14939TIP3    H144739   3.548   3.709   7.863
14939TIP3    H244740   3.438   3.611   7.840
14940TIP3   OH244741   4.179   3.803   7.993
14940TIP3    H144742   4.171   3.705   7.981
14940TIP3    H244743   4.133   3.835   7.912
14941TIP3   OH244744   2.765   3.521   7.957
14941TIP3    H144745   2.773   3.549   8.049
14941TIP3    H244746   2.852   3.478   7.941
14942TIP3   OH244747   5.672   3.319   7.946
14942TIP3    H144748   5.643   3.411   7.927
14942TIP3    H244749   5.595   3.270   7.913
14943TIP3   OH244750   5.668   3.319   8.327
14943TIP3    H144751   5.702   3.292   8.414
14943TIP3    H244752   5.629   3.237   8.294
14944TIP3   OH244753   4.965   3.184   8.658
14944TIP3    H144754   4.999   3.140   8.737
14944TIP3    H244755   5.029   3.257   8.652
14945TIP3   OH244756   5.912   3.624   8.008
14945TIP3    H144757   5.900   3.553   8.072
14945TIP3    H244758   5.943   3.697   8.064
14946TIP3   OH244759   4.944   3.624   8.421
14946TIP3    H144760   4.935   3.526   8.422
14946TIP3    H244761   5.040   3.631   8.407
14947TIP3   OH244762   4.644   2.820   8.207
14947TIP3    H144763   4.601   2.906   8.221
14947TIP3    H244764   4.574   2.774   8.156
14948TIP3   OH244765   4.708   3.110   8.366
14948TIP3    H144766   4.756   3.034   8.407
14948TIP3    H244767   4.770   3.140   8.298
14949TIP3   OH244768   5.563   4.084   8.026
14949TIP3    H144769   5.609   4.013   7.976
14949TIP3    H244770   5.558   4.046   8.114
14950TIP3   OH244771   5.469   3.545   8.377
14950TIP3    H144772   5.508   3.468   8.331
14950TIP3    H244773   5.553   3.590   8.401
14951TIP3   OH244774   6.481   2.865   8.373
14951TIP3    H144775   6.511   2.948   8.417
14951TIP3    H244776   6.505   2.883   8.281
14952TIP3   OH244777   5.881   3.047   8.409
14952TIP3    H144778   5.925   2.962   8.428
14952TIP3    H244779   5.851   3.032   8.318
14953TIP3   OH244780   5.216   2.705   8.375
14953TIP3    H144781   5.199   2.778   8.312
14953TIP3    H244782   5.170   2.632   8.328
14954TIP3   OH244783   5.913   2.798   7.995
14954TIP3    H144784   5.984   2.781   8.061
14954TIP3    H244785   5.966   2.832   7.921
14955TIP3   OH244786   4.844   2.898   8.484
14955TIP3    H144787   4.927   2.882   8.533
14955TIP3    H244788   4.866   2.852   8.400
14956TIP3   OH244789   5.295   3.106   8.271
14956TIP3    H144790   5.388   3.081   8.285
14956TIP3    H244791   5.256   3.021   8.240
14957TIP3   OH244792   6.556   3.073   8.543
14957TIP3    H144793   6.472   3.120   8.527
14957TIP3    H244794   6.577   3.104   8.633
14958TIP3   OH244795   5.240   2.692   8.787
14958TIP3    H144796   5.173   2.737   8.731
14958TIP3    H244797   5.192   2.673   8.868
14959TIP3   OH244798   5.565   3.542   7.814
14959TIP3    H144799   5.519   3.520   7.732
14959TIP3    H244800   5.520   3.625   7.840
14960TIP3   OH244801   5.327   3.465   8.602
14960TIP3    H144802   5.265   3.534   8.636
14960TIP3    H244803   5.370   3.512   8.528
14961TIP3   OH244804   6.123   2.800   8.167
14961TIP3    H144805   6.119   2.747   8.247
14961TIP3    H244806   6.178   2.876   8.194
14962TIP3   OH244807   5.081   2.809   8.593
14962TIP3    H144808   5.145   2.881   8.611
14962TIP3    H244809   5.126   2.762   8.519
14963TIP3   OH244810   5.149   3.657   8.700
14963TIP3    H144811   5.143   3.741   8.651
14963TIP3    H244812   5.059   3.658   8.739
14964TIP3   OH244813   4.544   3.348   7.936
14964TIP3    H144814   4.503   3.374   7.852
14964TIP3    H244815   4.575   3.433   7.972
14965TIP3   OH244816   5.983   3.864   8.175
14965TIP3    H144817   5.894   3.855   8.215
14965TIP3    H244818   5.975   3.951   8.131
14966TIP3   OH244819   6.273   2.765   8.539
14966TIP3    H144820   6.186   2.793   8.505
14966TIP3    H244821   6.334   2.798   8.470
14967TIP3   OH244822   5.577   2.405   8.519
14967TIP3    H144823   5.559   2.312   8.540
14967TIP3    H244824   5.502   2.448   8.566
14968TIP3   OH244825   5.687   3.911   7.850
14968TIP3    H144826   5.736   3.828   7.831
14968TIP3    H244827   5.749   3.975   7.809
14969TIP3   OH244828   5.830   3.696   7.755
14969TIP3    H144829   5.787   3.617   7.720
14969TIP3    H244830   5.867   3.662   7.840
14970TIP3   OH244831   6.209   3.778   8.520
14970TIP3    H144832   6.199   3.700   8.461
14970TIP3    H244833   6.194   3.853   8.458
14971TIP3   OH244834   5.502   3.171   7.777
14971TIP3    H144835   5.422   3.223   7.755
14971TIP3    H244836   5.548   3.167   7.691
14972TIP3   OH244837   5.461   2.955   7.494
14972TIP3    H144838   5.528   3.007   7.541
14972TIP3    H244839   5.518   2.891   7.447
14973TIP3   OH244840   6.405   3.412   8.363
14973TIP3    H144841   6.322   3.465   8.369
14973TIP3    H244842   6.435   3.438   8.274
14974TIP3   OH244843   5.850   3.254   7.748
14974TIP3    H144844   5.795   3.278   7.827
14974TIP3    H244845   5.934   3.228   7.792
14975TIP3   OH244846   6.084   3.291   8.662
14975TIP3    H144847   6.082   3.373   8.715
14975TIP3    H244848   5.999   3.298   8.615
14976TIP3   OH244849   5.081   3.252   8.166
14976TIP3    H144850   5.039   3.194   8.099
14976TIP3    H244851   5.158   3.198   8.194
14977TIP3   OH244852   5.210   3.659   8.317
14977TIP3    H144853   5.190   3.622   8.230
14977TIP3    H244854   5.301   3.626   8.333
14978TIP3   OH244855   5.225   3.222   8.518
14978TIP3    H144856   5.257   3.202   8.427
14978TIP3    H244857   5.267   3.309   8.537
14979TIP3   OH244858   5.742   3.860   8.296
14979TIP3    H144859   5.731   3.940   8.350
14979TIP3    H244860   5.728   3.787   8.361
14980TIP3   OH244861   5.363   3.792   8.836
14980TIP3    H144862   5.299   3.843   8.890
14980TIP3    H244863   5.304   3.727   8.795
14981TIP3   OH244864   5.690   3.112   7.574
14981TIP3    H144865   5.749   3.172   7.626
14981TIP3    H244866   5.717   3.135   7.482
14982TIP3   OH244867   5.041   3.368   8.860
14982TIP3    H144868   5.086   3.445   8.825
14982TIP3    H244869   4.947   3.393   8.851
14983TIP3   OH244870   5.432   3.791   7.852
14983TIP3    H144871   5.511   3.845   7.868
14983TIP3    H244872   5.372   3.853   7.810
14984TIP3   OH244873   5.152   3.957   8.914
14984TIP3    H144874   5.134   3.956   8.818
14984TIP3    H244875   5.070   3.921   8.950
14985TIP3   OH244876   6.206   2.353   7.623
14985TIP3    H144877   6.125   2.373   7.673
14985TIP3    H244878   6.219   2.436   7.573
14986TIP3   OH244879   4.946   3.094   7.973
14986TIP3    H144880   4.882   3.141   7.915
14986TIP3    H244881   4.907   3.007   7.978
14987TIP3   OH244882   5.997   3.720   7.166
14987TIP3    H144883   5.994   3.815   7.143
14987TIP3    H244884   6.060   3.681   7.104
14988TIP3   OH244885   4.776   3.447   8.846
14988TIP3    H144886   4.696   3.459   8.789
14988TIP3    H244887   4.745   3.374   8.902
14989TIP3   OH244888   4.581   3.674   8.505
14989TIP3    H144889   4.678   3.669   8.501
14989TIP3    H244890   4.569   3.749   8.565
14990TIP3   OH244891   6.447   4.122   8.563
14990TIP3    H144892   6.448   4.026   8.582
14990TIP3    H244893   6.366   4.148   8.612
14991TIP3   OH244894   5.558   3.912   8.694
14991TIP3    H144895   5.556   4.004   8.729
14991TIP3    H244896   5.487   3.870   8.748
14992TIP3   OH244897   5.315   4.039   7.651
14992TIP3    H144898   5.269   4.016   7.568
14992TIP3    H244899   5.278   4.126   7.674
14993TIP3   OH244900   4.753   3.887   8.036
14993TIP3    H144901   4.799   3.877   8.122
14993TIP3    H244902   4.693   3.810   8.040
14994TIP3   OH244903   5.515   3.940   7.293
14994TIP3    H144904   5.575   3.871   7.257
14994TIP3    H244905   5.548   3.948   7.385
14995TIP3   OH244906   5.566   3.984   7.564
14995TIP3    H144907   5.477   3.996   7.604
14995TIP3    H244908   5.615   3.945   7.638
14996TIP3   OH244909   6.334   3.251   8.848
14996TIP3    H144910   6.259   3.266   8.790
14996TIP3    H244911   6.355   3.157   8.829
14997TIP3   OH244912   4.915   3.681   8.839
14997TIP3    H144913   4.948   3.660   8.928
14997TIP3    H244914   4.851   3.607   8.829
14998TIP3   OH244915   5.347   2.490   8.635
14998TIP3    H144916   5.256   2.457   8.624
14998TIP3    H244917   5.329   2.569   8.688
14999TIP3   OH244918   5.878   2.610   8.839
14999TIP3    H144919   5.936   2.584   8.913
14999TIP3    H244920   5.788   2.589   8.874
15000TIP3   OH244921   6.100   3.029   8.764
15000TIP3    H144922   6.062   3.033   8.854
15000TIP3    H244923   6.083   3.119   8.729
15001TIP3   OH244924   5.765   3.161   7.319
15001TIP3    H144925   5.731   3.133   7.232
15001TIP3    H244926   5.849   3.204   7.293
15002TIP3   OH244927   5.478   2.534   7.622
15002TIP3    H144928   5.445   2.530   7.713
15002TIP3    H244929   5.441   2.451   7.586
15003TIP3   OH244930   5.261   3.004   8.674
15003TIP3    H144931   5.273   3.054   8.758
15003TIP3    H244932   5.244   3.078   8.612
15004TIP3   OH244933   5.148   2.886   8.184
15004TIP3    H144934   5.055   2.860   8.199
15004TIP3    H244935   5.163   2.846   8.095
15005TIP3   OH244936   5.640   2.972   7.910
15005TIP3    H144937   5.588   3.043   7.868
15005TIP3    H244938   5.695   2.940   7.836
15006TIP3   OH244939   5.841   3.258   8.950
15006TIP3    H144940   5.804   3.234   9.038
15006TIP3    H244941   5.934   3.278   8.975
15007TIP3   OH244942   5.797   3.001   8.150
15007TIP3    H144943   5.736   3.030   8.079
15007TIP3    H244944   5.831   2.919   8.107
15008TIP3   OH244945   5.134   2.506   7.587
15008TIP3    H144946   5.126   2.504   7.684
15008TIP3    H244947   5.055   2.558   7.563
15009TIP3   OH244948   4.720   2.545   8.468
15009TIP3    H144949   4.760   2.629   8.445
15009TIP3    H244950   4.704   2.506   8.380
15010TIP3   OH244951   4.654   2.532   7.981
15010TIP3    H144952   4.698   2.568   7.901
15010TIP3    H244953   4.591   2.604   7.998
15011TIP3   OH244954   5.805   3.247   8.571
15011TIP3    H144955   5.839   3.174   8.514
15011TIP3    H244956   5.776   3.196   8.649
15012TIP3   OH244957   5.476   2.711   8.246
15012TIP3    H144958   5.395   2.706   8.300
15012TIP3    H244959   5.545   2.706   8.313
15013TIP3   OH244960   4.907   2.759   8.255
15013TIP3    H144961   4.815   2.767   8.221
15013TIP3    H244962   4.935   2.671   8.223
15014TIP3   OH244963   5.179   2.761   7.941
15014TIP3    H144964   5.274   2.774   7.920
15014TIP3    H244965   5.134   2.783   7.857
15015TIP3   OH244966   5.967   2.784   8.450
15015TIP3    H144967   5.927   2.797   8.538
15015TIP3    H244968   5.905   2.722   8.409
15016TIP3   OH244969   5.021   2.794   7.720
15016TIP3    H144970   4.950   2.749   7.672
15016TIP3    H244971   5.073   2.830   7.645
15017TIP3   OH244972   6.137   4.473   8.666
15017TIP3    H144973   6.138   4.498   8.572
15017TIP3    H244974   6.219   4.518   8.697
15018TIP3   OH244975   5.558   3.037   8.341
15018TIP3    H144976   5.631   2.996   8.294
15018TIP3    H244977   5.564   2.996   8.430
15019TIP3   OH244978   5.082   2.526   8.214
15019TIP3    H144979   5.054   2.445   8.260
15019TIP3    H244980   5.137   2.492   8.143
15020TIP3   OH244981   5.538   2.944   8.614
15020TIP3    H144982   5.447   2.971   8.637
15020TIP3    H244983   5.594   2.996   8.676
15021TIP3   OH244984   5.272   3.325   7.726
15021TIP3    H144985   5.201   3.258   7.715
15021TIP3    H244986   5.254   3.358   7.818
15022TIP3   OH244987   6.174   3.560   8.356
15022TIP3    H144988   6.197   3.610   8.274
15022TIP3    H244989   6.089   3.518   8.330
15023TIP3   OH244990   5.731   2.636   7.588
15023TIP3    H144991   5.634   2.618   7.596
15023TIP3    H244992   5.739   2.730   7.613
15024TIP3   OH244993   5.670   3.641   8.724
15024TIP3    H144994   5.694   3.620   8.815
15024TIP3    H244995   5.632   3.730   8.732
15025TIP3   OH244996   5.800   2.884   7.692
15025TIP3    H144997   5.897   2.889   7.708
15025TIP3    H244998   5.783   2.964   7.639
15026TIP3   OH244999   4.970   3.345   8.403
15026TIP3    H145000   5.004   3.320   8.314
15026TIP3    H245001   5.005   3.273   8.457
15027TIP3   OH245002   5.417   3.474   7.547
15027TIP3    H145003   5.370   3.560   7.553
15027TIP3    H245004   5.363   3.419   7.608
15028TIP3   OH245005   5.558   3.385   9.015
15028TIP3    H145006   5.532   3.344   8.931
15028TIP3    H245007   5.653   3.365   9.015
15029TIP3   OH245008   5.833   3.901   8.619
15029TIP3    H145009   5.736   3.900   8.632
15029TIP3    H245010   5.861   3.955   8.697
15030TIP3   OH245011   6.242   2.974   7.529
15030TIP3    H145012   6.179   2.929   7.467
15030TIP3    H245013   6.241   3.062   7.487
15031TIP3   OH245014   6.460   3.828   8.609
15031TIP3    H145015   6.362   3.826   8.600
15031TIP3    H245016   6.486   3.800   8.519
15032TIP3   OH245017   5.958   3.789   7.440
15032TIP3    H145018   5.919   3.728   7.505
15032TIP3    H245019   5.956   3.738   7.358
15033TIP3   OH245020   5.939   3.422   8.275
15033TIP3    H145021   5.845   3.397   8.287
15033TIP3    H245022   5.972   3.342   8.229
15034TIP3   OH245023   5.066   3.650   8.028
15034TIP3    H145024   5.065   3.731   7.973
15034TIP3    H245025   4.971   3.632   8.036
15035TIP3   OH245026   4.631   2.953   7.732
15035TIP3    H145027   4.674   3.039   7.750
15035TIP3    H245028   4.552   2.958   7.791
15036TIP3   OH245029   5.204   3.416   7.971
15036TIP3    H145030   5.169   3.505   7.990
15036TIP3    H245031   5.169   3.365   8.046
15037TIP3   OH245032   5.336   3.993   8.497
15037TIP3    H145033   5.377   4.066   8.446
15037TIP3    H245034   5.413   3.958   8.544
15038TIP3   OH245035   4.985   3.888   7.879
15038TIP3    H145036   4.900   3.896   7.926
15038TIP3    H245037   5.016   3.982   7.881
15039TIP3   OH245038   5.723   3.627   8.455
15039TIP3    H145039   5.714   3.624   8.553
15039TIP3    H245040   5.804   3.575   8.443
15040TIP3   OH245041   5.698   3.522   7.336
15040TIP3    H145042   5.750   3.495   7.416
15040TIP3    H245043   5.609   3.494   7.364
15041TIP3   OH245044   5.970   4.161   8.505
15041TIP3    H145045   5.891   4.105   8.496
15041TIP3    H245046   5.956   4.226   8.433
15042TIP3   OH245047   6.077   3.985   7.151
15042TIP3    H145048   6.107   4.073   7.117
15042TIP3    H245049   5.995   4.019   7.193
15043TIP3   OH245050   5.857   3.454   7.553
15043TIP3    H145051   5.846   3.389   7.625
15043TIP3    H245052   5.955   3.451   7.543
15044TIP3   OH245053   4.777   3.853   8.647
15044TIP3    H145054   4.833   3.787   8.691
15044TIP3    H245055   4.797   3.933   8.697
15045TIP3   OH245056   5.065   3.501   7.337
15045TIP3    H145057   5.077   3.409   7.308
15045TIP3    H245058   5.045   3.489   7.432
15046TIP3   OH245059   5.010   3.506   7.609
15046TIP3    H145060   5.082   3.479   7.668
15046TIP3    H245061   5.014   3.604   7.616
15047TIP3   OH245062   4.746   3.201   7.813
15047TIP3    H145063   4.679   3.245   7.869
15047TIP3    H245064   4.758   3.269   7.744
15048TIP3   OH245065   5.888   2.850   8.710
15048TIP3    H145066   5.978   2.880   8.733
15048TIP3    H245067   5.882   2.764   8.758
15049TIP3   OH245068   5.772   2.588   7.870
15049TIP3    H145069   5.760   2.610   7.776
15049TIP3    H245070   5.812   2.671   7.906
15050TIP3   OH245071   5.276   3.704   7.559
15050TIP3    H145072   5.189   3.730   7.595
15050TIP3    H245073   5.289   3.772   7.492
15051TIP3   OH245074   5.462   2.768   7.973
15051TIP3    H145075   5.528   2.839   7.955
15051TIP3    H245076   5.468   2.760   8.070
15052TIP3   OH245077   5.727   3.080   8.772
15052TIP3    H145078   5.768   3.136   8.842
15052TIP3    H245079   5.785   3.001   8.768
15053TIP3   OH245080   5.607   2.495   8.074
15053TIP3    H145081   5.603   2.571   8.134
15053TIP3    H245082   5.667   2.530   8.005
15054TIP3   OH245083   5.020   3.779   7.625
15054TIP3    H145084   4.988   3.848   7.563
15054TIP3    H245085   5.002   3.821   7.712
15055TIP3   OH245086   5.118   2.493   7.864
15055TIP3    H145087   5.118   2.584   7.899
15055TIP3    H245088   5.214   2.472   7.871
15056TIP3   OH245089   6.369   2.990   8.760
15056TIP3    H145090   6.271   2.983   8.762
15056TIP3    H245091   6.389   2.946   8.677
15057TIP3   OH245092   6.024   3.181   8.148
15057TIP3    H145093   5.949   3.120   8.160
15057TIP3    H245094   6.096   3.134   8.196
15058TIP3   OH245095   4.736   3.408   7.619
15058TIP3    H145096   4.800   3.481   7.627
15058TIP3    H245097   4.782   3.354   7.551
15059TIP3   OH245098   4.678   2.683   7.755
15059TIP3    H145099   4.678   2.781   7.750
15059TIP3    H245100   4.601   2.661   7.703
15060TIP3   OH245101   5.992   4.135   8.097
15060TIP3    H145102   5.950   4.182   8.022
15060TIP3    H245103   6.087   4.155   8.078
15061TIP3   OH245104   5.073   2.398   8.629
15061TIP3    H145105   5.050   2.384   8.535
15061TIP3    H245106   5.096   2.310   8.659
15062TIP3   OH245107   4.608   3.621   8.005
15062TIP3    H145108   4.537   3.653   8.062
15062TIP3    H245109   4.582   3.662   7.920
15063TIP3   OH245110   5.259   4.102   9.129
15063TIP3    H145111   5.345   4.136   9.105
15063TIP3    H245112   5.227   4.065   9.045
15064TIP3   OH245113   5.229   3.705   7.252
15064TIP3    H145114   5.171   3.633   7.288
15064TIP3    H245115   5.302   3.652   7.217
15065TIP3   OH245116   5.883   4.038   8.858
15065TIP3    H145117   5.880   3.968   8.927
15065TIP3    H245118   5.963   4.088   8.882
15066TIP3   OH245119   5.664   3.748   7.167
15066TIP3    H145120   5.703   3.675   7.219
15066TIP3    H245121   5.710   3.742   7.081
15067TIP3   OH245122   4.872   3.223   7.470
15067TIP3    H145123   4.927   3.189   7.543
15067TIP3    H245124   4.939   3.227   7.398
15068TIP3   OH245125   5.553   3.672   9.046
15068TIP3    H145126   5.463   3.684   9.010
15068TIP3    H245127   5.562   3.575   9.036
15069TIP3   OH245128   5.384   3.421   7.278
15069TIP3    H145129   5.384   3.432   7.375
15069TIP3    H245130   5.382   3.323   7.271
15070TIP3   OH245131   5.993   3.664   8.655
15070TIP3    H145132   6.069   3.709   8.612
15070TIP3    H245133   5.924   3.732   8.642
15071TIP3   OH245134   5.082   3.125   7.694
15071TIP3    H145135   5.054   3.081   7.776
15071TIP3    H245136   5.118   3.050   7.642
15072TIP3   OH245137   5.311   3.187   8.874
15072TIP3    H145138   5.304   3.259   8.937
15072TIP3    H245139   5.390   3.214   8.823
15073TIP3   OH245140   5.180   2.919   7.534
15073TIP3    H145141   5.154   2.923   7.439
15073TIP3    H245142   5.277   2.922   7.527
15074TIP3   OH245143   5.870   3.595   9.025
15074TIP3    H145144   5.955   3.564   8.990
15074TIP3    H245145   5.864   3.545   9.109
15075TIP3   OH245146   6.000   3.249   7.197
15075TIP3    H145147   5.984   3.202   7.114
15075TIP3    H245148   5.968   3.338   7.172
15076TIP3   OH245149   5.498   2.768   8.832
15076TIP3    H145150   5.521   2.812   8.749
15076TIP3    H245151   5.402   2.752   8.821
15077TIP3   OH245152   5.507   3.307   8.739
15077TIP3    H145153   5.588   3.303   8.685
15077TIP3    H245154   5.450   3.367   8.687
15078TIP3   OH245155   6.089   3.287   9.064
15078TIP3    H145156   6.124   3.204   9.100
15078TIP3    H245157   6.166   3.325   9.019
15079TIP3   OH245158   6.125   3.515   8.836
15079TIP3    H145159   6.065   3.570   8.779
15079TIP3    H245160   6.212   3.541   8.797
15080TIP3   OH245161   5.624   2.531   8.886
15080TIP3    H145162   5.579   2.619   8.880
15080TIP3    H245163   5.550   2.474   8.909
15081TIP3   OH245164   5.995   2.966   9.009
15081TIP3    H145165   5.901   2.970   9.028
15081TIP3    H245166   6.012   2.878   9.047
15082TIP3   OH245167   4.989   3.986   7.441
15082TIP3    H145168   5.083   3.978   7.418
15082TIP3    H245169   4.956   4.029   7.360
15083TIP3   OH245170   4.468   3.362   7.657
15083TIP3    H145171   4.562   3.383   7.640
15083TIP3    H245172   4.461   3.274   7.614
15084TIP3   OH245173   4.383   3.976   8.067
15084TIP3    H145174   4.315   3.915   8.030
15084TIP3    H245175   4.426   3.917   8.133
15085TIP3   OH245176   4.519   3.825   8.253
15085TIP3    H145177   4.506   3.753   8.316
15085TIP3    H245178   4.569   3.887   8.309
15086TIP3   OH245179   6.244   4.229   8.054
15086TIP3    H145180   6.270   4.259   8.143
15086TIP3    H245181   6.308   4.274   7.997
15087TIP3   OH245182   6.273   4.247   8.335
15087TIP3    H145183   6.233   4.158   8.333
15087TIP3    H245184   6.350   4.228   8.393
15088TIP3   OH245185   6.317   3.927   8.907
15088TIP3    H145186   6.246   3.940   8.972
15088TIP3    H245187   6.363   4.014   8.909
15089TIP3   OH245188   6.135   3.435   7.533
15089TIP3    H145189   6.211   3.489   7.505
15089TIP3    H245190   6.173   3.392   7.614
15090TIP3   OH245191   6.263   3.305   7.735
15090TIP3    H145192   6.199   3.262   7.795
15090TIP3    H245193   6.330   3.340   7.796
15091TIP3   OH245194   6.317   3.696   8.164
15091TIP3    H145195   6.372   3.631   8.116
15091TIP3    H245196   6.311   3.769   8.100
15092TIP3   OH245197   6.150   3.997   8.360
15092TIP3    H145198   6.079   4.038   8.413
15092TIP3    H245199   6.099   3.949   8.291
15093TIP3   OH245200   6.203   3.212   7.379
15093TIP3    H145201   6.132   3.213   7.311
15093TIP3    H245202   6.172   3.286   7.436
15094TIP3   OH245203   6.073   2.886   7.335
15094TIP3    H145204   6.032   2.922   7.255
15094TIP3    H245205   6.048   2.791   7.328
15095TIP3   OH245206   6.078   3.161   7.880
15095TIP3    H145207   6.087   3.064   7.873
15095TIP3    H245208   6.065   3.173   7.976
15096TIP3   OH245209   4.708   3.253   8.596
15096TIP3    H145210   4.701   3.216   8.506
15096TIP3    H245211   4.803   3.235   8.615
15097TIP3   OH245212   6.365   3.588   8.732
15097TIP3    H145213   6.439   3.523   8.727
15097TIP3    H245214   6.396   3.659   8.673
15098TIP3   OH245215   6.547   3.397   8.760
15098TIP3    H145216   6.475   3.341   8.796
15098TIP3    H245217   6.622   3.334   8.770
15099TIP3   OH245218   6.017   2.621   7.322
15099TIP3    H145219   6.093   2.588   7.375
15099TIP3    H245220   5.945   2.559   7.344
15100TIP3   OH245221   6.075   2.877   7.775
15100TIP3    H145222   6.115   2.788   7.791
15100TIP3    H245223   6.135   2.908   7.704
15101TIP3   OH245224   6.237   3.052   8.270
15101TIP3    H145225   6.323   3.077   8.230
15101TIP3    H245226   6.251   3.088   8.360
15102TIP3   OH245227   6.306   3.195   8.503
15102TIP3    H145228   6.227   3.230   8.549
15102TIP3    H245229   6.339   3.274   8.456
15103TIP3   OH245230   6.183   2.627   7.813
15103TIP3    H145231   6.232   2.611   7.896
15103TIP3    H245232   6.123   2.550   7.812
15104TIP3   OH245233   4.725   2.863   8.745
15104TIP3    H145234   4.761   2.882   8.656
15104TIP3    H245235   4.683   2.950   8.766
15105TIP3   OH245236   6.630   2.923   8.872
15105TIP3    H145237   6.541   2.957   8.895
15105TIP3    H245238   6.606   2.844   8.820
15106TIP3   OH245239   6.265   2.562   7.444
15106TIP3    H145240   6.305   2.489   7.392
15106TIP3    H245241   6.334   2.631   7.439
15107TIP3   OH245242   4.662   2.417   8.226
15107TIP3    H145243   4.568   2.391   8.227
15107TIP3    H245244   4.669   2.460   8.137
15108TIP3   OH245245   5.829   4.095   7.711
15108TIP3    H145246   5.881   4.082   7.629
15108TIP3    H245247   5.882   4.160   7.759
15109TIP3   OH245248   5.112   3.931   8.642
15109TIP3    H145249   5.060   4.004   8.602
15109TIP3    H245250   5.197   3.948   8.597
15110TIP3   OH245251   5.553   4.177   8.784
15110TIP3    H145252   5.597   4.179   8.872
15110TIP3    H245253   5.619   4.226   8.729
15111TIP3   OH245254   5.733   4.326   8.640
15111TIP3    H145255   5.805   4.276   8.600
15111TIP3    H245256   5.783   4.383   8.703
15112TIP3   OH245257   6.525   2.688   8.741
15112TIP3    H145258   6.436   2.679   8.705
15112TIP3    H245259   6.559   2.596   8.729
15113TIP3   OH245260   4.787   4.188   8.675
15113TIP3    H145261   4.696   4.213   8.647
15113TIP3    H245262   4.795   4.244   8.754
15114TIP3   OH245263   5.020   4.164   8.523
15114TIP3    H145264   4.935   4.176   8.571
15114TIP3    H245265   5.000   4.205   8.437
15115TIP3   OH245266   5.446   4.194   8.324
15115TIP3    H145267   5.376   4.215   8.260
15115TIP3    H245268   5.459   4.281   8.367
15116TIP3   OH245269   5.716   4.132   8.375
15116TIP3    H145270   5.622   4.152   8.354
15116TIP3    H245271   5.761   4.209   8.335
15117TIP3   OH245272   5.921   4.325   8.291
15117TIP3    H145273   5.909   4.410   8.243
15117TIP3    H245274   5.950   4.265   8.219
15118TIP3   OH245275   4.695   3.980   8.411
15118TIP3    H145276   4.718   3.951   8.502
15118TIP3    H245277   4.767   3.935   8.361
15119TIP3   OH245278   4.890   3.851   8.270
15119TIP3    H145279   4.906   3.768   8.321
15119TIP3    H245280   4.980   3.889   8.265
15120TIP3   OH245281   5.156   3.948   8.272
15120TIP3    H145282   5.188   3.857   8.258
15120TIP3    H245283   5.200   3.969   8.357
15121TIP3   OH245284   5.730   2.603   8.359
15121TIP3    H145285   5.687   2.533   8.413
15121TIP3    H245286   5.803   2.554   8.317
15122TIP3   OH245287   6.256   2.487   8.267
15122TIP3    H145288   6.291   2.537   8.190
15122TIP3    H245289   6.160   2.501   8.258
15123TIP3   OH245290   6.349   2.584   8.029
15123TIP3    H145291   6.422   2.533   7.989
15123TIP3    H245292   6.383   2.676   8.014
15124TIP3   OH245293   4.984   2.313   8.381
15124TIP3    H145294   4.890   2.288   8.373
15124TIP3    H245295   5.028   2.226   8.368
15125TIP3   OH245296   4.779   2.180   8.028
15125TIP3    H145297   4.805   2.232   7.950
15125TIP3    H245298   4.736   2.246   8.083
15126TIP3   OH245299   5.421   2.348   8.261
15126TIP3    H145300   5.480   2.394   8.199
15126TIP3    H245301   5.451   2.382   8.346
15127TIP3   OH245302   5.972   2.491   8.240
15127TIP3    H145303   5.970   2.452   8.152
15127TIP3    H245304   5.959   2.412   8.297
15128TIP3   OH245305   6.001   2.413   7.804
15128TIP3    H145306   5.913   2.454   7.814
15128TIP3    H245307   5.987   2.328   7.851
15129TIP3   OH245308   4.485   3.753   7.805
15129TIP3    H145309   4.400   3.719   7.771
15129TIP3    H245310   4.473   3.847   7.784
15130TIP3   OH245311   4.884   2.337   7.791
15130TIP3    H145312   4.931   2.276   7.731
15130TIP3    H245313   4.957   2.392   7.825
15131TIP3   OH245314   5.395   2.517   7.887
15131TIP3    H145315   5.456   2.468   7.945
15131TIP3    H245316   5.420   2.609   7.913
15132TIP3   OH245317   5.256   3.943   7.386
15132TIP3    H145318   5.344   3.964   7.350
15132TIP3    H245319   5.233   3.868   7.326
15133TIP3   OH245320   5.976   4.059   7.481
15133TIP3    H145321   5.972   3.961   7.470
15133TIP3    H245322   5.930   4.090   7.400
15134TIP3   OH245323   4.561   3.779   7.442
15134TIP3    H145324   4.558   3.805   7.536
15134TIP3    H245325   4.650   3.738   7.434
15135TIP3   OH245326   6.201   4.205   8.665
15135TIP3    H145327   6.121   4.175   8.616
15135TIP3    H245328   6.183   4.301   8.670
15136TIP3   OH245329   7.469   3.575   7.431
15136TIP3    H145330   7.440   3.667   7.414
15136TIP3    H245331   7.390   3.526   7.401
15137TIP3   OH245332   7.459   3.578   7.807
15137TIP3    H145333   7.490   3.558   7.897
15137TIP3    H245334   7.422   3.492   7.781
15138TIP3   OH245335   6.765   3.472   8.179
15138TIP3    H145336   6.796   3.404   8.242
15138TIP3    H245337   6.844   3.528   8.173
15139TIP3   OH245338   7.713   3.877   7.495
15139TIP3    H145339   7.694   3.808   7.561
15139TIP3    H245340   7.736   3.953   7.552
15140TIP3   OH245341   6.735   3.880   7.901
15140TIP3    H145342   6.729   3.782   7.905
15140TIP3    H245343   6.832   3.891   7.899
15141TIP3   OH245344   6.444   3.084   7.689
15141TIP3    H145345   6.396   3.167   7.704
15141TIP3    H245346   6.373   3.029   7.651
15142TIP3   OH245347   6.503   3.370   7.859
15142TIP3    H145348   6.550   3.292   7.897
15142TIP3    H245349   6.566   3.399   7.792
15143TIP3   OH245350   7.355   4.337   7.511
15143TIP3    H145351   7.403   4.266   7.465
15143TIP3    H245352   7.354   4.306   7.602
15144TIP3   OH245353   7.266   3.801   7.862
15144TIP3    H145354   7.306   3.724   7.819
15144TIP3    H245355   7.349   3.847   7.887
15145TIP3   OH245356   7.674   3.305   7.894
15145TIP3    H145357   7.721   3.221   7.910
15145TIP3    H245358   7.645   3.290   7.802
15146TIP3   OH245359   7.013   2.963   7.861
15146TIP3    H145360   6.995   3.035   7.797
15146TIP3    H245361   6.967   2.889   7.815
15147TIP3   OH245362   7.716   3.053   7.487
15147TIP3    H145363   7.786   3.036   7.554
15147TIP3    H245364   7.768   3.089   7.414
15148TIP3   OH245365   6.649   3.165   7.966
15148TIP3    H145366   6.732   3.146   8.014
15148TIP3    H245367   6.663   3.109   7.887
15149TIP3   OH245368   7.090   3.362   7.760
15149TIP3    H145369   7.184   3.338   7.772
15149TIP3    H245370   7.052   3.278   7.728
15150TIP3   OH245371   7.014   2.949   8.293
15150TIP3    H145372   6.954   2.984   8.224
15150TIP3    H245373   6.959   2.966   8.372
15151TIP3   OH245374   7.361   3.799   7.302
15151TIP3    H145375   7.316   3.778   7.219
15151TIP3    H245376   7.316   3.882   7.327
15152TIP3   OH245377   7.119   3.721   8.090
15152TIP3    H145378   7.057   3.787   8.128
15152TIP3    H245379   7.162   3.772   8.019
15153TIP3   OH245380   7.919   3.049   7.673
15153TIP3    H145381   7.909   3.041   7.770
15153TIP3    H245382   7.975   3.128   7.672
15154TIP3   OH245383   6.882   3.061   8.079
15154TIP3    H145384   6.944   3.133   8.103
15154TIP3    H245385   6.930   3.021   8.003
15155TIP3   OH245386   6.946   3.915   8.186
15155TIP3    H145387   6.921   4.002   8.150
15155TIP3    H245388   6.867   3.899   8.243
15156TIP3   OH245389   6.343   3.586   7.430
15156TIP3    H145390   6.306   3.607   7.343
15156TIP3    H245391   6.339   3.670   7.477
15157TIP3   OH245392   7.781   4.120   7.659
15157TIP3    H145393   7.692   4.110   7.702
15157TIP3    H245394   7.771   4.207   7.617
15158TIP3   OH245395   7.355   2.666   7.983
15158TIP3    H145396   7.358   2.580   8.028
15158TIP3    H245397   7.297   2.715   8.045
15159TIP3   OH245398   7.484   4.165   7.338
15159TIP3    H145399   7.533   4.083   7.316
15159TIP3    H245400   7.545   4.231   7.297
15160TIP3   OH245401   7.628   3.951   7.244
15160TIP3    H145402   7.586   3.873   7.206
15160TIP3    H245403   7.663   3.916   7.328
15161TIP3   OH245404   8.004   4.031   8.009
15161TIP3    H145405   7.992   3.954   7.949
15161TIP3    H245406   7.993   4.107   7.950
15162TIP3   OH245407   7.297   3.427   7.263
15162TIP3    H145408   7.218   3.480   7.241
15162TIP3    H245409   7.345   3.424   7.178
15163TIP3   OH245410   7.256   3.212   6.980
15163TIP3    H145411   7.323   3.263   7.028
15163TIP3    H245412   7.314   3.148   6.933
15164TIP3   OH245413   8.206   3.683   7.851
15164TIP3    H145414   8.119   3.729   7.859
15164TIP3    H245415   8.229   3.702   7.759
15165TIP3   OH245416   7.647   3.510   7.235
15165TIP3    H145417   7.591   3.534   7.313
15165TIP3    H245418   7.730   3.485   7.280
15166TIP3   OH245419   7.844   3.546   8.122
15166TIP3    H145420   7.872   3.606   8.192
15166TIP3    H245421   7.762   3.587   8.090
15167TIP3   OH245422   6.879   3.509   7.654
15167TIP3    H145423   6.837   3.450   7.587
15167TIP3    H245424   6.955   3.455   7.683
15168TIP3   OH245425   7.008   3.918   7.802
15168TIP3    H145426   6.990   3.875   7.718
15168TIP3    H245427   7.098   3.885   7.822
15169TIP3   OH245428   7.014   3.479   8.007
15169TIP3    H145429   7.048   3.457   7.918
15169TIP3    H245430   7.058   3.564   8.026
15170TIP3   OH245431   7.542   4.115   7.783
15170TIP3    H145432   7.526   4.197   7.833
15170TIP3    H245433   7.524   4.045   7.848
15171TIP3   OH245434   7.152   4.038   8.331
15171TIP3    H145435   7.091   4.099   8.378
15171TIP3    H245436   7.088   3.982   8.282
15172TIP3   OH245437   7.486   3.369   7.061
15172TIP3    H145438   7.545   3.428   7.113
15172TIP3    H245439   7.513   3.392   6.969
15173TIP3   OH245440   6.902   3.598   8.427
15173TIP3    H145441   6.908   3.683   8.477
15173TIP3    H245442   6.808   3.576   8.442
15174TIP3   OH245443   7.227   4.049   7.337
15174TIP3    H145444   7.308   4.101   7.356
15174TIP3    H245445   7.168   4.115   7.299
15175TIP3   OH245446   6.945   4.206   8.419
15175TIP3    H145447   6.909   4.205   8.328
15175TIP3    H245448   6.866   4.182   8.473
15176TIP3   OH245449   8.000   2.613   7.105
15176TIP3    H145450   7.920   2.627   7.159
15176TIP3    H245451   8.007   2.698   7.058
15177TIP3   OH245452   6.743   3.350   7.461
15177TIP3    H145453   6.679   3.391   7.399
15177TIP3    H245454   6.707   3.261   7.470
15178TIP3   OH245455   7.800   3.977   6.657
15178TIP3    H145456   7.810   4.074   6.643
15178TIP3    H245457   7.893   3.947   6.646
15179TIP3   OH245458   6.525   3.734   8.365
15179TIP3    H145459   6.460   3.710   8.295
15179TIP3    H245460   6.563   3.648   8.390
15180TIP3   OH245461   6.380   3.930   7.994
15180TIP3    H145462   6.476   3.921   7.990
15180TIP3    H245463   6.370   4.006   8.052
15181TIP3   OH245464   8.235   4.399   8.026
15181TIP3    H145465   8.254   4.304   8.043
15181TIP3    H245466   8.158   4.411   8.086
15182TIP3   OH245467   7.349   4.166   8.186
15182TIP3    H145468   7.349   4.258   8.220
15182TIP3    H245469   7.279   4.125   8.241
15183TIP3   OH245470   7.109   4.293   7.139
15183TIP3    H145471   7.063   4.277   7.054
15183TIP3    H245472   7.077   4.382   7.164
15184TIP3   OH245473   6.538   4.134   7.526
15184TIP3    H145474   6.598   4.126   7.604
15184TIP3    H245475   6.457   4.095   7.563
15185TIP3   OH245476   7.311   4.195   6.779
15185TIP3    H145477   7.371   4.125   6.743
15185TIP3    H245478   7.345   4.205   6.871
15186TIP3   OH245479   7.361   4.242   7.049
15186TIP3    H145480   7.273   4.252   7.092
15186TIP3    H245481   7.414   4.205   7.122
15187TIP3   OH245482   6.729   3.918   8.352
15187TIP3    H145483   6.779   3.903   8.435
15187TIP3    H245484   6.655   3.854   8.361
15188TIP3   OH245485   7.126   2.752   8.129
15188TIP3    H145486   7.038   2.720   8.101
15188TIP3    H245487   7.101   2.834   8.175
15189TIP3   OH245488   7.562   3.417   6.806
15189TIP3    H145489   7.529   3.389   6.719
15189TIP3    H245490   7.644   3.463   6.781
15190TIP3   OH245491   7.274   2.792   7.108
15190TIP3    H145492   7.241   2.787   7.200
15190TIP3    H245493   7.237   2.708   7.074
15191TIP3   OH245494   7.062   3.257   8.155
15191TIP3    H145495   7.012   3.280   8.236
15191TIP3    H245496   7.046   3.337   8.101
15192TIP3   OH245497   6.945   3.143   7.670
15192TIP3    H145498   6.852   3.116   7.687
15192TIP3    H245499   6.959   3.102   7.581
15193TIP3   OH245500   7.437   3.228   7.397
15193TIP3    H145501   7.384   3.299   7.355
15193TIP3    H245502   7.491   3.197   7.321
15194TIP3   OH245503   7.591   3.257   7.635
15194TIP3    H145504   7.531   3.284   7.563
15194TIP3    H245505   7.627   3.175   7.594
15195TIP3   OH245506   6.881   3.288   8.363
15195TIP3    H145507   6.911   3.351   8.430
15195TIP3    H245508   6.870   3.205   8.415
15196TIP3   OH245509   6.929   2.762   7.073
15196TIP3    H145510   6.923   2.760   7.171
15196TIP3    H245511   6.850   2.816   7.051
15197TIP3   OH245512   6.473   2.808   7.946
15197TIP3    H145513   6.549   2.840   7.998
15197TIP3    H245514   6.513   2.776   7.863
15198TIP3   OH245515   6.447   2.788   7.465
15198TIP3    H145516   6.493   2.825   7.387
15198TIP3    H245517   6.386   2.862   7.485
15199TIP3   OH245518   7.564   3.502   8.047
15199TIP3    H145519   7.617   3.437   7.995
15199TIP3    H245520   7.561   3.455   8.133
15200TIP3   OH245521   7.270   2.972   7.730
15200TIP3    H145522   7.190   2.964   7.786
15200TIP3    H245523   7.340   2.957   7.795
15201TIP3   OH245524   6.706   3.020   7.740
15201TIP3    H145525   6.612   3.026   7.712
15201TIP3    H245526   6.731   2.929   7.716
15202TIP3   OH245527   6.976   3.017   7.428
15202TIP3    H145528   7.070   3.030   7.408
15202TIP3    H245529   6.931   3.039   7.343
15203TIP3   OH245530   7.702   3.032   7.930
15203TIP3    H145531   7.659   3.059   8.012
15203TIP3    H245532   7.636   2.972   7.891
15204TIP3   OH245533   6.817   3.052   7.206
15204TIP3    H145534   6.745   3.007   7.158
15204TIP3    H245535   6.869   3.088   7.131
15205TIP3   OH245536   7.907   4.710   8.133
15205TIP3    H145537   7.911   4.744   8.042
15205TIP3    H245538   7.970   4.771   8.178
15206TIP3   OH245539   6.889   3.840   8.572
15206TIP3    H145540   6.969   3.875   8.618
15206TIP3    H245541   6.826   3.838   8.647
15207TIP3   OH245542   7.355   3.294   7.824
15207TIP3    H145543   7.429   3.255   7.775
15207TIP3    H245544   7.366   3.254   7.913
15208TIP3   OH245545   6.878   2.783   7.705
15208TIP3    H145546   6.846   2.703   7.752
15208TIP3    H245547   6.933   2.744   7.635
15209TIP3   OH245548   7.334   3.196   8.112
15209TIP3    H145549   7.243   3.231   8.122
15209TIP3    H245550   7.388   3.260   8.162
15210TIP3   OH245551   7.067   3.582   7.211
15210TIP3    H145552   6.997   3.515   7.202
15210TIP3    H245553   7.050   3.614   7.303
15211TIP3   OH245554   7.967   3.815   7.841
15211TIP3    H145555   7.987   3.864   7.759
15211TIP3    H245556   7.882   3.771   7.821
15212TIP3   OH245557   7.527   2.893   7.075
15212TIP3    H145558   7.430   2.876   7.083
15212TIP3    H245559   7.536   2.987   7.100
15213TIP3   OH245560   7.462   3.897   8.212
15213TIP3    H145561   7.498   3.881   8.300
15213TIP3    H245562   7.431   3.988   8.217
15214TIP3   OH245563   7.596   3.141   7.179
15214TIP3    H145564   7.692   3.147   7.196
15214TIP3    H245565   7.579   3.221   7.126
15215TIP3   OH245566   6.759   3.600   7.889
15215TIP3    H145567   6.799   3.572   7.804
15215TIP3    H245568   6.803   3.541   7.952
15216TIP3   OH245569   7.213   3.730   7.032
15216TIP3    H145570   7.165   3.816   7.038
15216TIP3    H245571   7.160   3.675   7.094
15217TIP3   OH245572   6.641   3.525   8.502
15217TIP3    H145573   6.667   3.514   8.596
15217TIP3    H245574   6.574   3.455   8.492
15218TIP3   OH245575   7.359   3.647   8.515
15218TIP3    H145576   7.306   3.579   8.470
15218TIP3    H245577   7.449   3.612   8.507
15219TIP3   OH245578   7.626   4.155   8.108
15219TIP3    H145579   7.529   4.157   8.120
15219TIP3    H245580   7.655   4.211   8.183
15220TIP3   OH245581   8.041   3.229   7.015
15220TIP3    H145582   7.978   3.185   6.953
15220TIP3    H245583   8.038   3.318   6.974
15221TIP3   OH245584   8.259   4.127   8.064
15221TIP3    H145585   8.172   4.091   8.087
15221TIP3    H245586   8.289   4.064   7.998
15222TIP3   OH245587   7.740   4.049   6.923
15222TIP3    H145588   7.712   3.979   6.984
15222TIP3    H245589   7.751   4.001   6.839
15223TIP3   OH245590   7.733   3.680   7.761
15223TIP3    H145591   7.639   3.656   7.773
15223TIP3    H245592   7.767   3.599   7.719
15224TIP3   OH245593   6.866   3.906   7.511
15224TIP3    H145594   6.872   3.988   7.459
15224TIP3    H245595   6.770   3.898   7.523
15225TIP3   OH245596   6.425   3.209   7.214
15225TIP3    H145597   6.473   3.292   7.234
15225TIP3    H245598   6.350   3.214   7.277
15226TIP3   OH245599   7.001   3.670   7.457
15226TIP3    H145600   6.966   3.760   7.476
15226TIP3    H245601   6.967   3.620   7.533
15227TIP3   OH245602   7.130   4.251   7.982
15227TIP3    H145603   7.172   4.323   7.932
15227TIP3    H245604   7.207   4.215   8.031
15228TIP3   OH245605   6.781   4.147   7.366
15228TIP3    H145606   6.696   4.155   7.411
15228TIP3    H245607   6.814   4.239   7.370
15229TIP3   OH245608   7.518   3.883   7.943
15229TIP3    H145609   7.508   3.881   8.040
15229TIP3    H245610   7.603   3.837   7.932
15230TIP3   OH245611   7.494   3.778   6.824
15230TIP3    H145612   7.547   3.752   6.903
15230TIP3    H245613   7.405   3.750   6.853
15231TIP3   OH245614   7.766   4.411   7.986
15231TIP3    H145615   7.683   4.360   7.976
15231TIP3    H245616   7.753   4.481   7.918
15232TIP3   OH245617   7.836   4.253   6.645
15232TIP3    H145618   7.876   4.327   6.598
15232TIP3    H245619   7.754   4.297   6.676
15233TIP3   OH245620   6.838   3.030   8.494
15233TIP3    H145621   6.742   3.042   8.508
15233TIP3    H245622   6.858   2.964   8.562
15234TIP3   OH245623   7.654   3.710   7.040
15234TIP3    H145624   7.643   3.645   7.112
15234TIP3    H245625   7.751   3.707   7.029
15235TIP3   OH245626   6.569   4.111   8.143
15235TIP3    H145627   6.624   4.039   8.178
15235TIP3    H245628   6.595   4.184   8.200
15236TIP3   OH245629   6.857   3.757   6.823
15236TIP3    H145630   6.875   3.665   6.796
15236TIP3    H245631   6.840   3.745   6.919
15237TIP3   OH245632   6.808   3.765   7.098
15237TIP3    H145633   6.883   3.736   7.152
15237TIP3    H245634   6.814   3.863   7.104
15238TIP3   OH245635   6.547   3.450   7.295
15238TIP3    H145636   6.486   3.497   7.355
15238TIP3    H245637   6.567   3.522   7.231
15239TIP3   OH245638   0.816   6.524   1.360
15239TIP3    H145639   0.911   6.541   1.356
15239TIP3    H245640   0.814   6.427   1.353
15240TIP3   OH245641   7.568   2.847   7.357
15240TIP3    H145642   7.558   2.867   7.262
15240TIP3    H245643   7.609   2.929   7.391
15241TIP3   OH245644   7.069   3.959   7.044
15241TIP3    H145645   6.984   3.988   7.081
15241TIP3    H245646   7.088   4.032   6.984
15242TIP3   OH245647   7.257   3.025   7.458
15242TIP3    H145648   7.323   3.096   7.442
15242TIP3    H245649   7.263   3.016   7.556
15243TIP3   OH245650   7.526   3.342   8.267
15243TIP3    H145651   7.539   3.375   8.357
15243TIP3    H245652   7.584   3.264   8.263
15244TIP3   OH245653   7.403   2.755   7.559
15244TIP3    H145654   7.401   2.827   7.623
15244TIP3    H245655   7.463   2.792   7.490
15245TIP3   OH245656   6.814   4.037   7.112
15245TIP3    H145657   6.784   4.107   7.049
15245TIP3    H245658   6.799   4.081   7.199
15246TIP3   OH245659   6.915   2.749   7.350
15246TIP3    H145660   6.914   2.840   7.388
15246TIP3    H245661   7.011   2.729   7.359
15247TIP3   OH245662   7.812   3.441   7.631
15247TIP3    H145663   7.737   3.380   7.646
15247TIP3    H245664   7.887   3.392   7.673
15248TIP3   OH245665   6.548   3.676   7.133
15248TIP3    H145666   6.632   3.726   7.129
15248TIP3    H245667   6.546   3.645   7.040
15249TIP3   OH245668   6.476   2.940   7.240
15249TIP3    H145669   6.477   3.038   7.234
15249TIP3    H245670   6.396   2.918   7.192
15250TIP3   OH245671   7.800   4.393   7.581
15250TIP3    H145672   7.753   4.438   7.507
15250TIP3    H245673   7.892   4.407   7.555
15251TIP3   OH245674   6.862   2.663   8.112
15251TIP3    H145675   6.832   2.629   8.025
15251TIP3    H245676   6.853   2.584   8.169
15252TIP3   OH245677   6.560   4.422   8.563
15252TIP3    H145678   6.645   4.423   8.612
15252TIP3    H245679   6.539   4.327   8.565
15253TIP3   OH245680   7.049   4.384   8.611
15253TIP3    H145681   7.142   4.359   8.610
15253TIP3    H245682   7.015   4.329   8.537
15254TIP3   OH245683   7.023   3.961   6.737
15254TIP3    H145684   6.966   3.890   6.774
15254TIP3    H245685   7.098   3.908   6.705
15255TIP3   OH245686   7.675   4.300   8.338
15255TIP3    H145687   7.668   4.225   8.401
15255TIP3    H245688   7.758   4.344   8.366
15256TIP3   OH245689   7.460   4.002   6.648
15256TIP3    H145690   7.503   3.938   6.708
15256TIP3    H245691   7.517   4.001   6.569
15257TIP3   OH245692   6.691   3.820   8.763
15257TIP3    H145693   6.708   3.724   8.766
15257TIP3    H245694   6.604   3.824   8.719
15258TIP3   OH245695   6.666   3.475   6.958
15258TIP3    H145696   6.721   3.447   7.033
15258TIP3    H245697   6.735   3.482   6.888
15259TIP3   OH245698   7.297   3.916   8.540
15259TIP3    H145699   7.259   3.934   8.451
15259TIP3    H245700   7.325   3.822   8.531
15260TIP3   OH245701   7.176   3.677   6.764
15260TIP3    H145702   7.180   3.689   6.861
15260TIP3    H245703   7.177   3.579   6.758
15261TIP3   OH245704   7.783   3.920   8.130
15261TIP3    H145705   7.863   3.963   8.094
15261TIP3    H245706   7.719   3.993   8.122
15262TIP3   OH245707   6.808   3.557   8.740
15262TIP3    H145708   6.878   3.491   8.729
15262TIP3    H245709   6.836   3.594   8.827
15263TIP3   OH245710   6.878   3.381   7.181
15263TIP3    H145711   6.852   3.337   7.263
15263TIP3    H245712   6.914   3.307   7.128
15264TIP3   OH245713   7.137   3.461   8.393
15264TIP3    H145714   7.060   3.522   8.396
15264TIP3    H245715   7.190   3.498   8.320
15265TIP3   OH245716   6.976   3.176   7.020
15265TIP3    H145717   6.951   3.179   6.926
15265TIP3    H245718   7.074   3.178   7.014
15266TIP3   OH245719   7.661   3.838   8.525
15266TIP3    H145720   7.741   3.821   8.471
15266TIP3    H245721   7.665   3.762   8.585
15267TIP3   OH245722   7.798   3.507   6.683
15267TIP3    H145723   7.778   3.460   6.600
15267TIP3    H245724   7.765   3.596   6.660
15268TIP3   OH245725   7.240   3.244   8.511
15268TIP3    H145726   7.249   3.175   8.442
15268TIP3    H245727   7.203   3.319   8.459
15269TIP3   OH245728   7.271   3.033   8.331
15269TIP3    H145729   7.290   3.070   8.242
15269TIP3    H245730   7.177   3.003   8.320
15270TIP3   OH245731   7.306   3.558   8.207
15270TIP3    H145732   7.387   3.561   8.154
15270TIP3    H245733   7.251   3.627   8.165
15271TIP3   OH245734   7.878   3.756   8.332
15271TIP3    H145735   7.854   3.819   8.261
15271TIP3    H245736   7.973   3.739   8.316
15272TIP3   OH245737   7.140   3.350   8.751
15272TIP3    H145738   7.060   3.296   8.749
15272TIP3    H245739   7.180   3.329   8.665
15273TIP3   OH245740   7.408   2.787   8.282
15273TIP3    H145741   7.343   2.853   8.310
15273TIP3    H245742   7.380   2.705   8.326
15274TIP3   OH245743   6.960   3.133   8.764
15274TIP3    H145744   7.020   3.059   8.758
15274TIP3    H245745   6.951   3.153   8.858
15275TIP3   OH245746   6.785   4.244   6.930
15275TIP3    H145747   6.880   4.237   6.908
15275TIP3    H245748   6.752   4.284   6.848
15276TIP3   OH245749   6.271   3.645   7.156
15276TIP3    H145750   6.363   3.649   7.120
15276TIP3    H245751   6.248   3.556   7.119
15277TIP3   OH245752   6.179   4.231   7.558
15277TIP3    H145753   6.112   4.170   7.520
15277TIP3    H245754   6.223   4.172   7.623
15278TIP3   OH245755   6.325   4.083   7.737
15278TIP3    H145756   6.305   4.012   7.800
15278TIP3    H245757   6.374   4.144   7.796
15279TIP3   OH245758   8.073   4.484   7.527
15279TIP3    H145759   8.084   4.501   7.623
15279TIP3    H245760   8.072   4.575   7.493
15280TIP3   OH245761   8.075   4.493   7.813
15280TIP3    H145762   8.030   4.406   7.821
15280TIP3    H245763   8.144   4.479   7.882
15281TIP3   OH245764   7.932   3.694   7.017
15281TIP3    H145765   8.001   3.757   6.987
15281TIP3    H245766   7.976   3.655   7.096
15282TIP3   OH245767   8.060   3.562   7.222
15282TIP3    H145768   7.991   3.517   7.276
15282TIP3    H245769   8.117   3.601   7.290
15283TIP3   OH245770   8.116   3.952   7.652
15283TIP3    H145771   8.161   3.892   7.591
15283TIP3    H245772   8.093   4.027   7.595
15284TIP3   OH245773   7.945   4.250   7.846
15284TIP3    H145774   7.878   4.294   7.901
15284TIP3    H245775   7.890   4.202   7.780
15285TIP3   OH245776   8.000   3.470   6.866
15285TIP3    H145777   7.928   3.470   6.798
15285TIP3    H245778   7.969   3.545   6.921
15286TIP3   OH245779   7.869   3.143   6.822
15286TIP3    H145780   7.827   3.177   6.742
15286TIP3    H245781   7.846   3.048   6.816
15287TIP3   OH245782   7.877   3.418   7.366
15287TIP3    H145783   7.883   3.322   7.358
15287TIP3    H245784   7.860   3.430   7.462
15288TIP3   OH245785   6.501   3.492   8.112
15288TIP3    H145786   6.501   3.461   8.019
15288TIP3    H245787   6.598   3.493   8.131
15289TIP3   OH245788   7.812   2.879   6.808
15289TIP3    H145789   7.891   2.847   6.857
15289TIP3    H245790   7.743   2.815   6.833
15290TIP3   OH245791   7.869   3.139   7.261
15290TIP3    H145792   7.901   3.046   7.269
15290TIP3    H245793   7.930   3.171   7.192
15291TIP3   OH245794   8.037   3.316   7.720
15291TIP3    H145795   8.111   3.374   7.690
15291TIP3    H245796   8.029   3.344   7.814
15292TIP3   OH245797   8.047   3.449   7.957
15292TIP3    H145798   7.977   3.454   8.026
15292TIP3    H245799   8.073   3.542   7.954
15293TIP3   OH245800   6.691   3.170   8.774
15293TIP3    H145801   6.788   3.170   8.760
15293TIP3    H245802   6.680   3.087   8.825
15294TIP3   OH245803   7.963   2.885   7.279
15294TIP3    H145804   8.020   2.868   7.358
15294TIP3    H245805   7.905   2.805   7.283
15295TIP3   OH245806   6.679   2.871   8.121
15295TIP3    H145807   6.740   2.795   8.129
15295TIP3    H245808   6.742   2.945   8.113
15296TIP3   OH245809   6.483   3.143   8.192
15296TIP3    H145810   6.533   3.137   8.108
15296TIP3    H245811   6.513   3.228   8.225
15297TIP3   OH245812   8.059   2.824   6.925
15297TIP3    H145813   8.106   2.745   6.892
15297TIP3    H245814   8.132   2.889   6.925
15298TIP3   OH245815   6.466   2.649   7.695
15298TIP3    H145816   6.372   2.644   7.719
15298TIP3    H245817   6.464   2.706   7.615
15299TIP3   OH245818   7.624   4.348   7.197
15299TIP3    H145819   7.678   4.340   7.116
15299TIP3    H245820   7.670   4.419   7.245
15300TIP3   OH245821   6.687   2.733   8.509
15300TIP3    H145822   6.635   2.721   8.590
15300TIP3    H245823   6.620   2.768   8.448
15301TIP3   OH245824   6.727   4.152   8.590
15301TIP3    H145825   6.635   4.126   8.570
15301TIP3    H245826   6.731   4.134   8.685
15302TIP3   OH245827   6.904   4.186   8.130
15302TIP3    H145828   6.858   4.263   8.091
15302TIP3    H245829   6.991   4.199   8.087
15303TIP3   OH245830   7.350   4.431   8.273
15303TIP3    H145831   7.395   4.434   8.360
15303TIP3    H245832   7.415   4.479   8.217
15304TIP3   OH245833   7.525   4.574   8.121
15304TIP3    H145834   7.599   4.527   8.081
15304TIP3    H245835   7.573   4.632   8.185
15305TIP3   OH245836   6.579   4.441   8.156
15305TIP3    H145837   6.490   4.477   8.134
15305TIP3    H245838   6.593   4.481   8.242
15306TIP3   OH245839   6.816   4.420   8.012
15306TIP3    H145840   6.729   4.433   8.056
15306TIP3    H245841   6.798   4.455   7.923
15307TIP3   OH245842   7.243   4.450   7.810
15307TIP3    H145843   7.175   4.474   7.744
15307TIP3    H245844   7.257   4.536   7.855
15308TIP3   OH245845   7.511   4.388   7.857
15308TIP3    H145846   7.417   4.408   7.841
15308TIP3    H245847   7.554   4.469   7.824
15309TIP3   OH245848   7.717   4.580   7.778
15309TIP3    H145849   7.701   4.666   7.734
15309TIP3    H245850   7.742   4.523   7.703
15310TIP3   OH245851   6.493   4.237   7.899
15310TIP3    H145852   6.519   4.213   7.991
15310TIP3    H245853   6.566   4.193   7.850
15311TIP3   OH245854   6.685   4.107   7.753
15311TIP3    H145855   6.702   4.025   7.805
15311TIP3    H245856   6.776   4.145   7.750
15312TIP3   OH245857   6.950   4.202   7.761
15312TIP3    H145858   6.984   4.111   7.751
15312TIP3    H245859   6.995   4.227   7.844
15313TIP3   OH245860   7.506   2.856   7.844
15313TIP3    H145861   7.462   2.787   7.897
15313TIP3    H245862   7.579   2.803   7.802
15314TIP3   OH245863   7.992   2.745   7.691
15314TIP3    H145864   8.015   2.828   7.646
15314TIP3    H245865   7.933   2.777   7.761
15315TIP3   OH245866   8.142   2.869   7.481
15315TIP3    H145867   8.229   2.837   7.455
15315TIP3    H245868   8.154   2.965   7.477
15316TIP3   OH245869   6.776   2.570   7.864
15316TIP3    H145870   6.683   2.538   7.865
15316TIP3    H245871   6.824   2.484   7.858
15317TIP3   OH245872   6.563   2.438   7.512
15317TIP3    H145873   6.594   2.494   7.439
15317TIP3    H245874   6.536   2.503   7.578
15318TIP3   OH245875   7.214   2.605   7.748
15318TIP3    H145876   7.274   2.642   7.682
15318TIP3    H245877   7.254   2.637   7.832
15319TIP3   OH245878   7.711   2.710   7.732
15319TIP3    H145879   7.733   2.730   7.640
15319TIP3    H245880   7.757   2.626   7.744
15320TIP3   OH245881   7.793   2.666   7.288
15320TIP3    H145882   7.704   2.704   7.299
15320TIP3    H245883   7.782   2.581   7.336
15321TIP3   OH245884   6.680   2.597   7.275
15321TIP3    H145885   6.729   2.534   7.218
15321TIP3    H245886   6.754   2.651   7.310
15322TIP3   OH245887   7.192   2.773   7.373
15322TIP3    H145888   7.252   2.724   7.432
15322TIP3    H245889   7.216   2.865   7.400
15323TIP3   OH245890   7.051   4.199   6.871
15323TIP3    H145891   7.141   4.219   6.837
15323TIP3    H245892   7.029   4.123   6.813
15324TIP3   OH245893   7.772   4.316   6.965
15324TIP3    H145894   7.763   4.218   6.954
15324TIP3    H245895   7.727   4.348   6.885
15325TIP3   OH245896   6.354   4.073   6.941
15325TIP3    H145897   6.390   4.104   7.024
15325TIP3    H245898   6.402   3.988   6.925
15326TIP3   OH245899   7.992   4.454   8.144
15326TIP3    H145900   7.914   4.419   8.099
15326TIP3    H245901   7.971   4.550   8.142
15327TIP3   OH245902   9.213   3.852   6.946
15327TIP3    H145903   9.200   3.935   6.897
15327TIP3    H245904   9.172   3.788   6.886
15328TIP3   OH245905   8.245   3.353   7.178
15328TIP3    H145906   8.185   3.429   7.186
15328TIP3    H245907   8.182   3.284   7.152
15329TIP3   OH245908   8.305   3.627   7.348
15329TIP3    H145909   8.351   3.545   7.375
15329TIP3    H245910   8.345   3.644   7.262
15330TIP3   OH245911   9.144   4.602   6.980
15330TIP3    H145912   9.204   4.532   6.948
15330TIP3    H245913   9.121   4.571   7.069
15331TIP3   OH245914   8.463   3.415   7.451
15331TIP3    H145915   8.556   3.392   7.467
15331TIP3    H245916   8.446   3.357   7.374
15332TIP3   OH245917   8.908   3.548   7.295
15332TIP3    H145918   8.973   3.592   7.237
15332TIP3    H245919   8.846   3.510   7.229
15333TIP3   OH245920   9.161   4.065   6.777
15333TIP3    H145921   9.110   4.036   6.700
15333TIP3    H245922   9.113   4.147   6.801
15334TIP3   OH245923   8.709   4.141   7.650
15334TIP3    H145924   8.719   4.230   7.615
15334TIP3    H245925   8.637   4.153   7.716
15335TIP3   OH245926   8.138   3.861   6.910
15335TIP3    H145927   8.096   3.887   6.826
15335TIP3    H245928   8.167   3.947   6.945
15336TIP3   OH245929   9.290   4.425   6.840
15336TIP3    H145930   9.341   4.343   6.818
15336TIP3    H245931   9.345   4.491   6.793
15337TIP3   OH245932   9.430   4.206   6.767
15337TIP3    H145933   9.410   4.179   6.676
15337TIP3    H245934   9.404   4.128   6.817
15338TIP3   OH245935   9.089   3.701   6.739
15338TIP3    H145936   9.009   3.748   6.709
15338TIP3    H245937   9.136   3.683   6.655
15339TIP3   OH245938   9.052   3.463   6.473
15339TIP3    H145939   9.130   3.515   6.502
15339TIP3    H245940   9.090   3.375   6.469
15340TIP3   OH245941   8.671   3.763   7.142
15340TIP3    H145942   8.622   3.713   7.073
15340TIP3    H245943   8.741   3.701   7.163
15341TIP3   OH245944   8.804   4.200   7.265
15341TIP3    H145945   8.763   4.143   7.198
15341TIP3    H245946   8.861   4.140   7.314
15342TIP3   OH245947   9.275   3.621   6.552
15342TIP3    H145948   9.350   3.638   6.609
15342TIP3    H245949   9.301   3.674   6.474
15343TIP3   OH245950   9.026   4.307   6.822
15343TIP3    H145951   9.095   4.369   6.851
15343TIP3    H245952   8.962   4.365   6.780
15344TIP3   OH245953   8.748   4.407   7.849
15344TIP3    H145954   8.690   4.415   7.773
15344TIP3    H245955   8.691   4.367   7.916
15345TIP3   OH245956   8.536   3.612   6.951
15345TIP3    H145957   8.473   3.654   6.888
15345TIP3    H245958   8.501   3.522   6.955
15346TIP3   OH245959   8.332   3.972   7.836
15346TIP3    H145960   8.250   3.961   7.782
15346TIP3    H245961   8.332   3.890   7.888
15347TIP3   OH245962   8.163   4.188   7.480
15347TIP3    H145963   8.258   4.182   7.495
15347TIP3    H245964   8.136   4.265   7.532
15348TIP3   OH245965   8.908   4.551   6.626
15348TIP3    H145966   8.861   4.534   6.542
15348TIP3    H245967   8.876   4.640   6.651
15349TIP3   OH245968   8.351   4.399   7.020
15349TIP3    H145969   8.363   4.406   7.116
15349TIP3    H245970   8.280   4.334   7.013
15350TIP3   OH245971   9.099   4.483   6.277
15350TIP3    H145972   9.137   4.400   6.238
15350TIP3    H245973   9.136   4.479   6.368
15351TIP3   OH245974   9.159   4.495   6.545
15351TIP3    H145975   9.068   4.511   6.579
15351TIP3    H245976   9.200   4.455   6.623
15352TIP3   OH245977   8.527   4.170   7.847
15352TIP3    H145978   8.551   4.158   7.941
15352TIP3    H245979   8.448   4.113   7.842
15353TIP3   OH245980   9.032   3.071   6.606
15353TIP3    H145981   9.127   3.068   6.618
15353TIP3    H245982   9.013   2.982   6.571
15354TIP3   OH245983   8.720   3.428   7.149
15354TIP3    H145984   8.633   3.385   7.158
15354TIP3    H245985   8.769   3.358   7.102
15355TIP3   OH245986   9.212   3.529   6.912
15355TIP3    H145987   9.169   3.586   6.846
15355TIP3    H245988   9.252   3.458   6.858
15356TIP3   OH245989   8.712   3.007   6.558
15356TIP3    H145990   8.706   3.010   6.655
15356TIP3    H245991   8.637   3.066   6.534
15357TIP3   OH245992   8.230   3.115   7.401
15357TIP3    H145993   8.319   3.103   7.437
15357TIP3    H245994   8.237   3.061   7.320
15358TIP3   OH245995   8.248   3.046   6.953
15358TIP3    H145996   8.291   3.082   6.873
15358TIP3    H245997   8.183   3.117   6.971
15359TIP3   OH245998   8.502   3.278   7.218
15359TIP3    H145999   8.407   3.288   7.192
15359TIP3    H246000   8.518   3.183   7.197
15360TIP3   OH246001   8.787   3.263   6.892
15360TIP3    H146002   8.860   3.314   6.857
15360TIP3    H246003   8.716   3.285   6.827
15361TIP3   OH246004   8.610   3.311   6.695
15361TIP3    H146005   8.538   3.264   6.649
15361TIP3    H246006   8.662   3.342   6.618
15362TIP3   OH246007   8.619   3.034   7.180
15362TIP3    H146008   8.578   2.947   7.192
15362TIP3    H246009   8.683   3.009   7.112
15363TIP3   OH246010   8.851   3.849   6.696
15363TIP3    H146011   8.785   3.777   6.687
15363TIP3    H246012   8.838   3.876   6.790
15364TIP3   OH246013   8.565   3.828   7.400
15364TIP3    H146014   8.581   3.846   7.306
15364TIP3    H246015   8.603   3.740   7.408
15365TIP3   OH246016   9.011   3.989   6.521
15365TIP3    H146017   8.964   4.075   6.524
15365TIP3    H246018   8.952   3.935   6.578
15366TIP3   OH246019   8.648   4.162   7.004
15366TIP3    H146020   8.660   4.245   6.954
15366TIP3    H246021   8.556   4.143   6.985
15367TIP3   OH246022   8.222   3.467   6.704
15367TIP3    H146023   8.266   3.552   6.724
15367TIP3    H246024   8.144   3.471   6.764
15368TIP3   OH246025   8.797   3.931   6.950
15368TIP3    H146026   8.763   4.021   6.965
15368TIP3    H246027   8.753   3.881   7.021
15369TIP3   OH246028   8.917   4.447   7.418
15369TIP3    H146029   8.949   4.470   7.329
15369TIP3    H246030   8.993   4.403   7.458
15370TIP3   OH246031   8.581   4.402   6.855
15370TIP3    H146032   8.496   4.413   6.902
15370TIP3    H246033   8.615   4.494   6.856
15371TIP3   OH246034   9.218   4.055   6.327
15371TIP3    H146035   9.297   4.038   6.381
15371TIP3    H246036   9.148   4.023   6.386
15372TIP3   OH246037   8.655   4.015   6.311
15372TIP3    H146038   8.672   3.924   6.281
15372TIP3    H246039   8.634   4.000   6.406
15373TIP3   OH246040   8.602   4.018   6.586
15373TIP3    H146041   8.681   3.992   6.635
15373TIP3    H246042   8.606   4.117   6.591
15374TIP3   OH246043   8.339   3.715   6.786
15374TIP3    H146044   8.271   3.759   6.842
15374TIP3    H246045   8.351   3.783   6.717
15375TIP3   OH246046   8.869   4.216   6.533
15375TIP3    H146047   8.781   4.244   6.567
15375TIP3    H246048   8.883   4.285   6.467
15376TIP3   OH246049   8.612   4.291   6.599
15376TIP3    H146050   8.581   4.360   6.535
15376TIP3    H246051   8.596   4.337   6.685
15377TIP3   OH246052   8.708   3.006   6.832
15377TIP3    H146053   8.720   3.100   6.859
15377TIP3    H246054   8.797   2.970   6.846
15378TIP3   OH246055   8.328   3.922   6.592
15378TIP3    H146056   8.393   3.994   6.600
15378TIP3    H246057   8.374   3.867   6.525
15379TIP3   OH246058   8.275   3.199   6.727
15379TIP3    H146059   8.269   3.296   6.721
15379TIP3    H246060   8.195   3.171   6.682
15380TIP3   OH246061   8.201   4.129   6.981
15380TIP3    H146062   8.127   4.163   7.034
15380TIP3    H246063   8.180   4.171   6.894
15381TIP3   OH246064   8.821   4.218   6.226
15381TIP3    H146065   8.763   4.146   6.260
15381TIP3    H246066   8.895   4.166   6.191
15382TIP3   OH246067   9.186   4.261   6.160
15382TIP3    H146068   9.215   4.188   6.218
15382TIP3    H246069   9.257   4.264   6.092
15383TIP3   OH246070   8.462   3.736   6.444
15383TIP3    H146071   8.519   3.702   6.515
15383TIP3    H246072   8.528   3.741   6.371
15384TIP3   OH246073   8.956   3.928   6.253
15384TIP3    H146074   8.967   3.941   6.348
15384TIP3    H246075   8.967   3.831   6.246
15385TIP3   OH246076   8.676   3.637   6.671
15385TIP3    H146077   8.643   3.590   6.748
15385TIP3    H246078   8.710   3.564   6.615
15386TIP3   OH246079   8.771   3.434   6.507
15386TIP3    H146080   8.743   3.436   6.413
15386TIP3    H246081   8.868   3.439   6.497
15387TIP3   OH246082   8.578   4.491   6.411
15387TIP3    H146083   8.674   4.488   6.394
15387TIP3    H246084   8.550   4.543   6.333
15388TIP3   OH246085   8.060   3.875   6.631
15388TIP3    H146086   8.154   3.897   6.614
15388TIP3    H246087   8.054   3.787   6.588
15389TIP3   OH246088   7.977   4.487   7.042
15389TIP3    H146089   7.908   4.427   7.005
15389TIP3    H246090   8.023   4.427   7.104
15390TIP3   OH246091   8.117   4.340   7.230
15390TIP3    H146092   8.102   4.264   7.288
15390TIP3    H246093   8.121   4.412   7.294
15391TIP3   OH246094   8.314   3.747   7.592
15391TIP3    H146095   8.295   3.704   7.506
15391TIP3    H246096   8.395   3.795   7.569
15392TIP3   OH246097   8.260   3.455   7.641
15392TIP3    H146098   8.316   3.434   7.565
15392TIP3    H246099   8.302   3.535   7.676
15393TIP3   OH246100   8.245   2.933   7.197
15393TIP3    H146101   8.155   2.898   7.192
15393TIP3    H246102   8.258   2.968   7.106
15394TIP3   OH246103   9.428   4.596   6.685
15394TIP3    H146104   9.483   4.575   6.609
15394TIP3    H246105   9.469   4.674   6.723
15395TIP3   OH246106   8.383   4.668   7.653
15395TIP3    H146107   8.328   4.717   7.589
15395TIP3    H246108   8.337   4.689   7.735
15396TIP3   OH246109   8.582   4.614   7.470
15396TIP3    H146110   8.586   4.657   7.560
15396TIP3    H246111   8.577   4.697   7.420
15397TIP3   OH246112   8.986   4.609   7.207
15397TIP3    H146113   8.960   4.655   7.125
15397TIP3    H246114   8.994   4.682   7.269
15398TIP3   OH246115   8.462   4.371   7.301
15398TIP3    H146116   8.464   4.276   7.281
15398TIP3    H246117   8.551   4.398   7.267
15399TIP3   OH246118   8.705   4.458   7.242
15399TIP3    H146119   8.752   4.374   7.226
15399TIP3    H246120   8.752   4.486   7.323
15400TIP3   OH246121   8.319   2.712   6.971
15400TIP3    H146122   8.380   2.760   6.913
15400TIP3    H246123   8.340   2.746   7.058
15401TIP3   OH246124   8.077   4.266   6.783
15401TIP3    H146125   7.993   4.234   6.746
15401TIP3    H246126   8.067   4.361   6.766
15402TIP3   OH246127   8.475   2.859   6.757
15402TIP3    H146128   8.522   2.793   6.704
15402TIP3    H246129   8.549   2.908   6.798
15403TIP3   OH246130   8.844   4.455   6.363
15403TIP3    H146131   8.930   4.485   6.327
15403TIP3    H246132   8.826   4.381   6.300
15404TIP3   OH246133   8.152   4.290   6.416
15404TIP3    H146134   8.154   4.319   6.508
15404TIP3    H246135   8.241   4.250   6.404
15405TIP3   OH246136   1.643   4.902   8.379
15405TIP3    H146137   1.597   4.817   8.382
15405TIP3    H246138   1.596   4.952   8.447
15406TIP3   OH246139   1.718   5.201   8.485
15406TIP3    H146140   1.788   5.140   8.452
15406TIP3    H246141   1.767   5.284   8.470
15407TIP3   OH246142   1.890   5.014   8.400
15407TIP3    H146143   1.811   4.960   8.377
15407TIP3    H246144   1.935   4.963   8.467
15408TIP3   OH246145   1.521   4.448   8.393
15408TIP3    H146146   1.492   4.538   8.373
15408TIP3    H246147   1.601   4.441   8.337
15409TIP3   OH246148   1.509   4.247   8.147
15409TIP3    H146149   1.561   4.301   8.208
15409TIP3    H246150   1.580   4.195   8.104
15410TIP3   OH246151   1.860   4.571   8.426
15410TIP3    H146152   1.837   4.618   8.507
15410TIP3    H246153   1.946   4.530   8.453
15411TIP3   OH246154   1.740   4.411   8.236
15411TIP3    H146155   1.791   4.479   8.285
15411TIP3    H246156   1.767   4.432   8.143
15412TIP3   OH246157   1.444   5.143   8.535
15412TIP3    H146158   1.539   5.159   8.528
15412TIP3    H246159   1.411   5.172   8.448
15413TIP3   OH246160   2.257   3.653   8.288
15413TIP3    H146161   2.163   3.655   8.308
15413TIP3    H246162   2.271   3.740   8.244
15414TIP3   OH246163   2.049   5.020   7.834
15414TIP3    H146164   2.058   5.117   7.820
15414TIP3    H246165   2.142   4.991   7.822
15415TIP3   OH246166   1.360   5.330   8.318
15415TIP3    H146167   1.316   5.317   8.232
15415TIP3    H246168   1.334   5.421   8.342
15416TIP3   OH246169   1.559   5.239   7.955
15416TIP3    H146170   1.619   5.170   7.919
15416TIP3    H246171   1.595   5.249   8.046
15417TIP3   OH246172   1.611   5.288   8.223
15417TIP3    H146173   1.523   5.297   8.266
15417TIP3    H246174   1.664   5.252   8.296
15418TIP3   OH246175   1.809   4.460   7.979
15418TIP3    H146176   1.778   4.434   7.890
15418TIP3    H246177   1.890   4.509   7.956
15419TIP3   OH246178   1.471   3.794   8.226
15419TIP3    H146179   1.492   3.866   8.288
15419TIP3    H246180   1.479   3.719   8.285
15420TIP3   OH246181   1.301   4.650   8.387
15420TIP3    H146182   1.270   4.558   8.368
15420TIP3    H246183   1.336   4.640   8.477
15421TIP3   OH246184   1.765   3.944   8.226
15421TIP3    H146185   1.700   3.923   8.294
15421TIP3    H246186   1.811   4.021   8.269
15422TIP3   OH246187   1.858   4.172   8.338
15422TIP3    H146188   1.948   4.189   8.373
15422TIP3    H246189   1.831   4.260   8.306
15423TIP3   OH246190   1.450   4.768   8.192
15423TIP3    H146191   1.425   4.862   8.206
15423TIP3    H246192   1.392   4.726   8.259
15424TIP3   OH246193   2.286   4.273   8.192
15424TIP3    H146194   2.224   4.231   8.128
15424TIP3    H246195   2.287   4.362   8.152
15425TIP3   OH246196   1.985   5.095   8.098
15425TIP3    H146197   1.961   5.026   8.162
15425TIP3    H246198   1.999   5.046   8.016
15426TIP3   OH246199   1.739   4.821   8.000
15426TIP3    H146200   1.796   4.797   8.076
15426TIP3    H246201   1.652   4.799   8.036
15427TIP3   OH246202   2.082   5.296   7.821
15427TIP3    H146203   2.120   5.368   7.768
15427TIP3    H246204   2.002   5.341   7.854
15428TIP3   OH246205   1.905   4.749   8.205
15428TIP3    H146206   1.887   4.694   8.283
15428TIP3    H246207   2.003   4.747   8.201
15429TIP3   OH246208   1.110   4.802   8.000
15429TIP3    H146209   1.126   4.711   7.971
15429TIP3    H246210   1.090   4.789   8.095
15430TIP3   OH246211   1.062   4.802   8.274
15430TIP3    H146212   1.144   4.778   8.320
15430TIP3    H246213   1.061   4.900   8.282
15431TIP3   OH246214   1.326   5.010   8.230
15431TIP3    H146215   1.236   5.034   8.259
15431TIP3    H246216   1.339   5.073   8.157
15432TIP3   OH246217   1.062   5.080   8.283
15432TIP3    H146218   1.035   5.141   8.211
15432TIP3    H246219   1.031   5.130   8.360
15433TIP3   OH246220   0.766   4.725   8.275
15433TIP3    H146221   0.834   4.788   8.303
15433TIP3    H246222   0.819   4.663   8.222
15434TIP3   OH246223   2.031   5.515   8.794
15434TIP3    H146224   2.004   5.535   8.702
15434TIP3    H246225   2.086   5.436   8.782
15435TIP3   OH246226   1.274   5.006   7.917
15435TIP3    H146227   1.216   4.933   7.949
15435TIP3    H246228   1.348   4.956   7.879
15436TIP3   OH246229   1.708   5.047   7.824
15436TIP3    H146230   1.754   4.985   7.883
15436TIP3    H246231   1.764   5.046   7.744
15437TIP3   OH246232   0.907   4.521   8.122
15437TIP3    H146233   0.957   4.481   8.194
15437TIP3    H246234   0.977   4.528   8.054
15438TIP3   OH246235   1.420   4.714   7.930
15438TIP3    H146236   1.425   4.730   8.026
15438TIP3    H246237   1.418   4.616   7.929
15439TIP3   OH246238   1.194   4.403   8.339
15439TIP3    H146239   1.144   4.362   8.410
15439TIP3    H246240   1.213   4.325   8.282
15440TIP3   OH246241   1.240   4.186   8.181
15440TIP3    H146242   1.204   4.201   8.091
15440TIP3    H246243   1.336   4.204   8.169
15441TIP3   OH246244   2.047   4.551   7.860
15441TIP3    H146245   2.027   4.506   7.775
15441TIP3    H246246   2.014   4.641   7.838
15442TIP3   OH246247   1.032   5.284   8.104
15442TIP3    H146248   1.128   5.282   8.086
15442TIP3    H246249   1.002   5.326   8.021
15443TIP3   OH246250   2.320   5.514   8.731
15443TIP3    H146251   2.268   5.563   8.796
15443TIP3    H246252   2.342   5.582   8.666
15444TIP3   OH246253   2.181   4.740   8.193
15444TIP3    H146254   2.249   4.804   8.162
15444TIP3    H246255   2.228   4.702   8.271
15445TIP3   OH246256   2.309   4.613   8.394
15445TIP3    H146257   2.250   4.567   8.456
15445TIP3    H246258   2.381   4.646   8.453
15446TIP3   OH246259   2.247   4.513   8.044
15446TIP3    H146260   2.177   4.516   7.976
15446TIP3    H246261   2.220   4.590   8.098
15447TIP3   OH246262   2.121   4.186   7.996
15447TIP3    H146263   2.078   4.228   7.921
15447TIP3    H246264   2.094   4.092   7.984
15448TIP3   OH246265   2.092   4.472   8.529
15448TIP3    H146266   2.112   4.379   8.503
15448TIP3    H246267   2.164   4.486   8.593
15449TIP3   OH246268   2.067   3.920   7.981
15449TIP3    H146269   2.136   3.887   8.041
15449TIP3    H246270   1.989   3.865   8.001
15450TIP3   OH246271   2.126   4.192   8.419
15450TIP3    H146272   2.160   4.109   8.455
15450TIP3    H246273   2.190   4.210   8.347
15451TIP3   OH246274   3.959   5.637  -0.089
15451TIP3    H146275   3.976   5.646   0.006
15451TIP3    H246276   3.875   5.590  -0.089
15452TIP3   OH246277   2.310   3.858   8.115
15452TIP3    H146278   2.349   3.792   8.054
15452TIP3    H246279   2.373   3.932   8.109
15453TIP3   OH246280   1.863   5.396   8.369
15453TIP3    H146281   1.923   5.385   8.292
15453TIP3    H246282   1.913   5.458   8.425
15454TIP3   OH246283   1.301   5.244   8.051
15454TIP3    H146284   1.389   5.266   8.015
15454TIP3    H246285   1.278   5.170   7.990
15455TIP3   OH246286   2.021   5.361   8.143
15455TIP3    H146287   2.012   5.263   8.132
15455TIP3    H246288   1.976   5.392   8.061
15456TIP3   OH246289   3.512   4.879   8.099
15456TIP3    H146290   3.482   4.969   8.074
15456TIP3    H246291   3.437   4.827   8.063
15457TIP3   OH246292   3.513   4.877   8.477
15457TIP3    H146293   3.534   4.827   8.557
15457TIP3    H246294   3.471   4.808   8.423
15458TIP3   OH246295   3.753   5.178   8.157
15458TIP3    H146296   3.739   5.106   8.219
15458TIP3    H246297   3.786   5.249   8.214
15459TIP3   OH246298   2.772   5.178   8.564
15459TIP3    H146299   2.764   5.080   8.562
15459TIP3    H246300   2.861   5.187   8.602
15460TIP3   OH246301   2.490   4.405   8.333
15460TIP3    H146302   2.437   4.484   8.353
15460TIP3    H246303   2.420   4.342   8.310
15461TIP3   OH246304   2.541   4.672   8.519
15461TIP3    H146305   2.588   4.600   8.566
15461TIP3    H246306   2.609   4.700   8.456
15462TIP3   OH246307   3.406   5.643   8.177
15462TIP3    H146308   3.452   5.574   8.125
15462TIP3    H246309   3.388   5.597   8.259
15463TIP3   OH246310   3.312   5.104   8.525
15463TIP3    H146311   3.340   5.027   8.474
15463TIP3    H246312   3.399   5.145   8.542
15464TIP3   OH246313   4.322   4.418   8.518
15464TIP3    H146314   4.350   4.498   8.567
15464TIP3    H246315   4.348   4.441   8.427
15465TIP3   OH246316   3.728   4.608   8.556
15465TIP3    H146317   3.765   4.520   8.575
15465TIP3    H246318   3.691   4.593   8.467
15466TIP3   OH246319   3.048   4.259   8.507
15466TIP3    H146320   3.027   4.340   8.458
15466TIP3    H246321   2.993   4.194   8.458
15467TIP3   OH246322   3.754   4.354   8.146
15467TIP3    H146323   3.827   4.338   8.210
15467TIP3    H246324   3.806   4.390   8.071
15468TIP3   OH246325   2.695   4.474   8.625
15468TIP3    H146326   2.781   4.449   8.662
15468TIP3    H246327   2.692   4.413   8.549
15469TIP3   OH246328   3.135   4.667   8.427
15469TIP3    H146329   3.227   4.638   8.441
15469TIP3    H246330   3.093   4.584   8.394
15470TIP3   OH246331   4.379   4.617   8.703
15470TIP3    H146332   4.308   4.680   8.681
15470TIP3    H246333   4.444   4.671   8.751
15471TIP3   OH246334   3.404   5.098   7.967
15471TIP3    H146335   3.361   5.077   7.883
15471TIP3    H246336   3.359   5.182   7.990
15472TIP3   OH246337   3.174   5.013   8.746
15472TIP3    H146338   3.105   5.078   8.770
15472TIP3    H246339   3.220   5.062   8.675
15473TIP3   OH246340   3.967   4.355   8.315
15473TIP3    H146341   3.954   4.307   8.397
15473TIP3    H246342   4.018   4.433   8.344
15474TIP3   OH246343   2.911   4.339   8.736
15474TIP3    H146344   2.976   4.410   8.759
15474TIP3    H246345   2.966   4.291   8.671
15475TIP3   OH246346   2.980   5.205   8.790
15475TIP3    H146347   2.965   5.299   8.767
15475TIP3    H246348   2.963   5.211   8.886
15476TIP3   OH246349   2.385   4.906   8.086
15476TIP3    H146350   2.346   4.935   8.002
15476TIP3    H246351   2.418   4.990   8.123
15477TIP3   OH246352   3.829   5.424   8.330
15477TIP3    H146353   3.738   5.415   8.367
15477TIP3    H246354   3.819   5.506   8.279
15478TIP3   OH246355   4.110   4.342   8.685
15478TIP3    H146356   4.022   4.358   8.645
15478TIP3    H246357   4.172   4.368   8.614
15479TIP3   OH246358   3.401   3.958   8.632
15479TIP3    H146359   3.401   3.893   8.703
15479TIP3    H246360   3.369   4.038   8.678
15480TIP3   OH246361   3.531   5.470   8.006
15480TIP3    H146362   3.577   5.386   7.983
15480TIP3    H246363   3.592   5.533   7.962
15481TIP3   OH246364   3.669   5.255   7.907
15481TIP3    H146365   3.634   5.176   7.863
15481TIP3    H246366   3.704   5.217   7.990
15482TIP3   OH246367   4.068   5.335   8.673
15482TIP3    H146368   4.056   5.257   8.616
15482TIP3    H246369   4.051   5.409   8.611
15483TIP3   OH246370   3.345   4.731   7.928
15483TIP3    H146371   3.264   4.781   7.907
15483TIP3    H246372   3.388   4.725   7.841
15484TIP3   OH246373   3.302   4.511   7.646
15484TIP3    H146374   3.370   4.565   7.691
15484TIP3    H246375   3.360   4.449   7.597
15485TIP3   OH246376   4.244   4.977   8.518
15485TIP3    H146377   4.162   5.031   8.519
15485TIP3    H246378   4.279   4.999   8.430
15486TIP3   OH246379   3.690   4.812   7.900
15486TIP3    H146380   3.635   4.836   7.978
15486TIP3    H246381   3.774   4.786   7.943
15487TIP3   OH246382   3.928   4.851   8.808
15487TIP3    H146383   3.914   4.933   8.857
15487TIP3    H246384   3.838   4.840   8.769
15488TIP3   OH246385   2.923   4.812   8.314
15488TIP3    H146386   2.881   4.753   8.248
15488TIP3    H246387   2.997   4.757   8.346
15489TIP3   OH246388   3.063   5.238   8.453
15489TIP3    H146389   3.026   5.184   8.382
15489TIP3    H246390   3.145   5.189   8.476
15490TIP3   OH246391   3.041   4.793   8.658
15490TIP3    H146392   3.086   4.764   8.576
15490TIP3    H246393   3.095   4.870   8.688
15491TIP3   OH246394   3.585   5.424   8.446
15491TIP3    H146395   3.569   5.497   8.508
15491TIP3    H246396   3.569   5.344   8.500
15492TIP3   OH246397   3.531   4.668   7.725
15492TIP3    H146398   3.589   4.729   7.775
15492TIP3    H246399   3.558   4.691   7.632
15493TIP3   OH246400   3.275   5.349   8.002
15493TIP3    H146401   3.351   5.407   8.018
15493TIP3    H246402   3.212   5.407   7.957
15494TIP3   OH246403   4.047   3.910   7.774
15494TIP3    H146404   3.965   3.931   7.823
15494TIP3    H246405   4.061   3.993   7.724
15495TIP3   OH246406   2.790   4.653   8.119
15495TIP3    H146407   2.721   4.694   8.063
15495TIP3    H246408   2.750   4.568   8.140
15496TIP3   OH246409   3.845   5.278   7.323
15496TIP3    H146410   3.854   5.375   7.306
15496TIP3    H246411   3.937   5.248   7.310
15497TIP3   OH246412   2.430   5.250   8.622
15497TIP3    H146413   2.524   5.242   8.638
15497TIP3    H246414   2.398   5.309   8.692
15498TIP3   OH246415   4.293   5.675   8.719
15498TIP3    H146416   4.266   5.584   8.700
15498TIP3    H246417   4.218   5.705   8.774
15499TIP3   OH246418   3.399   5.451   8.842
15499TIP3    H146419   3.400   5.547   8.867
15499TIP3    H246420   3.319   5.420   8.888
15500TIP3   OH246421   3.157   5.595   7.802
15500TIP3    H146422   3.110   5.574   7.719
15500TIP3    H246423   3.122   5.683   7.825
15501TIP3   OH246424   2.592   5.445   8.187
15501TIP3    H146425   2.641   5.435   8.272
15501TIP3    H246426   2.536   5.366   8.190
15502TIP3   OH246427   3.357   5.497   7.443
15502TIP3    H146428   3.416   5.427   7.406
15502TIP3    H246429   3.391   5.505   7.534
15503TIP3   OH246430   3.408   5.544   7.714
15503TIP3    H146431   3.318   5.555   7.753
15503TIP3    H246432   3.454   5.498   7.785
15504TIP3   OH246433   4.176   4.818   8.941
15504TIP3    H146434   4.107   4.818   8.873
15504TIP3    H246435   4.207   4.725   8.936
15505TIP3   OH246436   3.922   4.583   8.911
15505TIP3    H146437   3.961   4.600   8.998
15505TIP3    H246438   3.918   4.672   8.870
15506TIP3   OH246439   3.610   4.718   7.472
15506TIP3    H146440   3.572   4.692   7.386
15506TIP3    H246441   3.690   4.766   7.443
15507TIP3   OH246442   3.320   4.090   7.772
15507TIP3    H146443   3.286   4.087   7.864
15507TIP3    H246444   3.280   4.008   7.737
15508TIP3   OH246445   3.073   4.547   8.773
15508TIP3    H146446   3.103   4.567   8.863
15508TIP3    H246447   3.072   4.635   8.731
15509TIP3   OH246448   2.986   4.455   8.325
15509TIP3    H146449   2.894   4.427   8.344
15509TIP3    H246450   3.000   4.409   8.239
15510TIP3   OH246451   3.481   4.530   8.062
15510TIP3    H146452   3.428   4.601   8.019
15510TIP3    H246453   3.535   4.498   7.986
15511TIP3   OH246454   3.645   4.562   8.297
15511TIP3    H146455   3.578   4.588   8.230
15511TIP3    H246456   3.675   4.479   8.255
15512TIP3   OH246457   2.975   4.064   7.737
15512TIP3    H146458   2.966   4.063   7.834
15512TIP3    H246459   2.897   4.118   7.712
15513TIP3   OH246460   2.527   4.207   8.554
15513TIP3    H146461   2.537   4.171   8.643
15513TIP3    H246462   2.526   4.124   8.504
15514TIP3   OH246463   2.490   4.087   8.132
15514TIP3    H146464   2.538   4.123   8.055
15514TIP3    H246465   2.431   4.162   8.151
15515TIP3   OH246466   3.668   4.798   8.734
15515TIP3    H146467   3.692   4.728   8.668
15515TIP3    H246468   3.605   4.751   8.790
15516TIP3   OH246469   3.315   4.264   8.411
15516TIP3    H146470   3.224   4.259   8.448
15516TIP3    H246471   3.365   4.265   8.494
15517TIP3   OH246472   2.753   4.327   8.391
15517TIP3    H146473   2.656   4.331   8.376
15517TIP3    H246474   2.773   4.233   8.375
15518TIP3   OH246475   3.022   4.316   8.089
15518TIP3    H146476   3.115   4.333   8.067
15518TIP3    H246477   2.974   4.338   8.007
15519TIP3   OH246478   3.809   4.342   8.590
15519TIP3    H146479   3.776   4.352   8.682
15519TIP3    H246480   3.742   4.278   8.557
15520TIP3   OH246481   2.863   4.351   7.869
15520TIP3    H146482   2.791   4.307   7.821
15520TIP3    H246483   2.914   4.388   7.795
15521TIP3   OH246484   3.984   6.035   8.803
15521TIP3    H146485   3.982   6.066   8.710
15521TIP3    H246486   4.063   6.083   8.837
15522TIP3   OH246487   3.400   4.604   8.498
15522TIP3    H146488   3.460   4.539   8.459
15522TIP3    H246489   3.401   4.577   8.593
15523TIP3   OH246490   2.912   4.082   8.352
15523TIP3    H146491   2.888   4.005   8.408
15523TIP3    H246492   2.975   4.044   8.290
15524TIP3   OH246493   3.391   4.528   8.774
15524TIP3    H146494   3.330   4.455   8.752
15524TIP3    H246495   3.430   4.488   8.853
15525TIP3   OH246496   3.114   4.882   7.878
15525TIP3    H146497   3.042   4.816   7.866
15525TIP3    H246498   3.095   4.916   7.969
15526TIP3   OH246499   4.010   5.121   8.509
15526TIP3    H146500   4.035   5.169   8.427
15526TIP3    H246501   3.928   5.075   8.482
15527TIP3   OH246502   3.572   4.192   7.742
15527TIP3    H146503   3.475   4.175   7.746
15527TIP3    H246504   3.580   4.287   7.762
15528TIP3   OH246505   3.568   5.239   8.859
15528TIP3    H146506   3.521   5.171   8.913
15528TIP3    H246507   3.498   5.307   8.858
15529TIP3   OH246508   3.641   4.442   7.843
15529TIP3    H146509   3.738   4.449   7.857
15529TIP3    H246510   3.622   4.521   7.789
15530TIP3   OH246511   2.807   4.894   8.558
15530TIP3    H146512   2.832   4.876   8.465
15530TIP3    H246513   2.883   4.853   8.604
15531TIP3   OH246514   3.259   5.032   7.700
15531TIP3    H146515   3.212   5.118   7.705
15531TIP3    H246516   3.204   4.977   7.760
15532TIP3   OH246517   3.680   5.498   8.742
15532TIP3    H146518   3.597   5.451   8.755
15532TIP3    H246519   3.703   5.522   8.833
15533TIP3   OH246520   4.084   4.531   7.678
15533TIP3    H146521   4.022   4.487   7.616
15533TIP3    H246522   4.081   4.621   7.638
15534TIP3   OH246523   3.788   5.349   7.588
15534TIP3    H146524   3.756   5.278   7.645
15534TIP3    H246525   3.797   5.306   7.501
15535TIP3   OH246526   3.777   4.978   8.431
15535TIP3    H146527   3.684   4.948   8.441
15535TIP3    H246528   3.814   4.901   8.383
15536TIP3   OH246529   2.905   5.206   8.176
15536TIP3    H146530   2.903   5.288   8.122
15536TIP3    H246531   2.811   5.190   8.188
15537TIP3   OH246532   2.471   4.511   7.880
15537TIP3    H146533   2.517   4.595   7.901
15537TIP3    H246534   2.394   4.515   7.942
15538TIP3   OH246535   3.049   4.974   8.123
15538TIP3    H146536   3.011   5.063   8.141
15538TIP3    H246537   3.010   4.922   8.195
15539TIP3   OH246538   3.182   5.561   8.651
15539TIP3    H146539   3.216   5.629   8.589
15539TIP3    H246540   3.263   5.516   8.677
15540TIP3   OH246541   2.826   5.446   8.029
15540TIP3    H146542   2.740   5.454   8.076
15540TIP3    H246543   2.857   5.539   8.031
15541TIP3   OH246544   3.573   5.186   8.592
15541TIP3    H146545   3.576   5.187   8.690
15541TIP3    H246546   3.639   5.119   8.570
15542TIP3   OH246547   3.538   5.080   7.488
15542TIP3    H146548   3.589   5.054   7.567
15542TIP3    H246549   3.449   5.051   7.513
15543TIP3   OH246550   3.789   5.750   8.695
15543TIP3    H146551   3.731   5.672   8.675
15543TIP3    H246552   3.787   5.795   8.607
15544TIP3   OH246553   3.879   5.553   7.308
15544TIP3    H146554   3.913   5.623   7.250
15544TIP3    H246555   3.799   5.598   7.341
15545TIP3   OH246556   3.699   5.016   7.707
15545TIP3    H146557   3.688   4.948   7.776
15545TIP3    H246558   3.795   5.010   7.692
15546TIP3   OH246559   2.633   5.441   8.798
15546TIP3    H146560   2.705   5.378   8.811
15546TIP3    H246561   2.618   5.473   8.887
15547TIP3   OH246562   2.905   5.059   7.488
15547TIP3    H146563   2.918   4.968   7.457
15547TIP3    H246564   2.885   5.046   7.582
15548TIP3   OH246565   2.850   5.064   7.761
15548TIP3    H146566   2.922   5.036   7.819
15548TIP3    H246567   2.855   5.162   7.767
15549TIP3   OH246568   2.585   4.757   7.963
15549TIP3    H146569   2.519   4.802   8.020
15549TIP3    H246570   2.599   4.826   7.895
15550TIP3   OH246571   3.737   4.376   8.847
15550TIP3    H146572   3.810   4.431   8.881
15550TIP3    H246573   3.711   4.324   8.923
15551TIP3   OH246574   3.615   4.143   8.020
15551TIP3    H146575   3.600   4.166   7.927
15551TIP3    H246576   3.652   4.227   8.055
15552TIP3   OH246577   3.118   5.262   7.711
15552TIP3    H146578   3.030   5.288   7.745
15552TIP3    H246579   3.130   5.327   7.640
15553TIP3   OH246580   3.308   4.322   8.128
15553TIP3    H146581   3.370   4.396   8.109
15553TIP3    H246582   3.308   4.321   8.226
15554TIP3   OH246583   3.448   4.054   8.228
15554TIP3    H146584   3.432   4.133   8.283
15554TIP3    H246585   3.508   4.091   8.159
15555TIP3   OH246586   2.861   5.337   7.775
15555TIP3    H146587   2.830   5.406   7.713
15555TIP3    H246588   2.843   5.379   7.862
15556TIP3   OH246589   2.960   4.049   8.013
15556TIP3    H146590   2.956   4.139   8.052
15556TIP3    H246591   3.056   4.032   8.021
15557TIP3   OH246592   4.207   4.544   8.909
15557TIP3    H146593   4.114   4.521   8.890
15557TIP3    H246594   4.247   4.523   8.822
15558TIP3   OH246595   3.865   4.741   8.300
15558TIP3    H146596   3.789   4.681   8.308
15558TIP3    H246597   3.936   4.691   8.346
15559TIP3   OH246598   2.576   4.967   7.768
15559TIP3    H146599   2.642   5.038   7.778
15559TIP3    H246600   2.623   4.912   7.701
15560TIP3   OH246601   2.520   4.240   7.906
15560TIP3    H146602   2.524   4.338   7.901
15560TIP3    H246603   2.439   4.222   7.858
15561TIP3   OH246604   3.834   5.697   8.252
15561TIP3    H146605   3.790   5.743   8.177
15561TIP3    H246606   3.928   5.714   8.229
15562TIP3   OH246607   2.450   5.179   8.154
15562TIP3    H146608   2.383   5.210   8.217
15562TIP3    H246609   2.419   5.221   8.071
15563TIP3   OH246610   3.070   5.263   7.403
15563TIP3    H146611   3.014   5.190   7.437
15563TIP3    H246612   3.144   5.212   7.364
15564TIP3   OH246613   3.748   5.614   8.991
15564TIP3    H146614   3.700   5.541   9.035
15564TIP3    H246615   3.819   5.632   9.056
15565TIP3   OH246616   3.505   5.305   7.312
15565TIP3    H146617   3.549   5.239   7.368
15565TIP3    H246618   3.559   5.303   7.230
15566TIP3   OH246619   2.712   4.780   7.621
15566TIP3    H146620   2.767   4.747   7.693
15566TIP3    H246621   2.779   4.785   7.548
15567TIP3   OH246622   3.224   4.979   7.430
15567TIP3    H146623   3.225   4.989   7.527
15567TIP3    H246624   3.224   4.881   7.423
15568TIP3   OH246625   3.849   5.218   8.821
15568TIP3    H146626   3.898   5.273   8.757
15568TIP3    H246627   3.756   5.245   8.809
15569TIP3   OH246628   2.923   4.683   7.845
15569TIP3    H146629   2.893   4.642   7.927
15569TIP3    H246630   2.958   4.607   7.794
15570TIP3   OH246631   3.021   4.476   7.684
15570TIP3    H146632   2.995   4.481   7.589
15570TIP3    H246633   3.118   4.480   7.677
15571TIP3   OH246634   3.846   4.808   7.347
15571TIP3    H146635   3.824   4.762   7.263
15571TIP3    H246636   3.812   4.897   7.324
15572TIP3   OH246637   3.374   4.849   8.850
15572TIP3    H146638   3.411   4.861   8.763
15572TIP3    H246639   3.292   4.900   8.842
15573TIP3   OH246640   3.989   5.076   8.994
15573TIP3    H146641   3.922   5.131   8.946
15573TIP3    H246642   4.063   5.087   8.933
15574TIP3   OH246643   2.829   5.541   7.590
15574TIP3    H146644   2.924   5.535   7.569
15574TIP3    H246645   2.798   5.588   7.510
15575TIP3   OH246646   2.308   4.921   7.805
15575TIP3    H146647   2.403   4.943   7.790
15575TIP3    H246648   2.303   4.832   7.764
15576TIP3   OH246649   2.224   5.534   8.218
15576TIP3    H146650   2.157   5.471   8.183
15576TIP3    H246651   2.268   5.477   8.286
15577TIP3   OH246652   2.356   5.390   8.405
15577TIP3    H146653   2.356   5.313   8.466
15577TIP3    H246654   2.405   5.452   8.460
15578TIP3   OH246655   4.089   5.783   8.210
15578TIP3    H146656   4.116   5.840   8.283
15578TIP3    H246657   4.140   5.821   8.136
15579TIP3   OH246658   4.105   5.807   8.505
15579TIP3    H146659   4.070   5.718   8.481
15579TIP3    H246660   4.198   5.785   8.524
15580TIP3   OH246661   4.169   5.482   9.056
15580TIP3    H146662   4.097   5.501   9.117
15580TIP3    H246663   4.214   5.568   9.053
15581TIP3   OH246664   3.978   4.994   7.681
15581TIP3    H146665   4.045   5.058   7.651
15581TIP3    H246666   4.022   4.955   7.760
15582TIP3   OH246667   4.107   4.862   7.885
15582TIP3    H146668   4.039   4.819   7.942
15582TIP3    H246669   4.168   4.901   7.951
15583TIP3   OH246670   4.142   5.249   8.309
15583TIP3    H146671   4.211   5.188   8.278
15583TIP3    H246672   4.150   5.324   8.247
15584TIP3   OH246673   3.987   5.553   8.515
15584TIP3    H146674   3.898   5.573   8.547
15584TIP3    H246675   3.963   5.499   8.437
15585TIP3   OH246676   4.045   4.770   7.530
15585TIP3    H146677   3.974   4.771   7.461
15585TIP3    H246678   4.014   4.846   7.585
15586TIP3   OH246679   3.917   4.443   7.484
15586TIP3    H146680   3.872   4.482   7.407
15586TIP3    H246681   3.890   4.349   7.475
15587TIP3   OH246682   3.921   4.719   8.031
15587TIP3    H146683   3.926   4.622   8.023
15587TIP3    H246684   3.907   4.731   8.127
15588TIP3   OH246685   2.578   4.802   8.771
15588TIP3    H146686   2.531   4.776   8.691
15588TIP3    H246687   2.668   4.807   8.738
15589TIP3   OH246688   4.394   4.967   8.905
15589TIP3    H146689   4.310   4.919   8.925
15589TIP3    H246690   4.457   4.893   8.930
15590TIP3   OH246691   3.858   4.178   7.473
15590TIP3    H146692   3.930   4.144   7.529
15590TIP3    H246693   3.783   4.119   7.493
15591TIP3   OH246694   3.918   4.436   7.926
15591TIP3    H146695   3.957   4.346   7.941
15591TIP3    H246696   3.975   4.466   7.854
15592TIP3   OH246697   4.078   4.609   8.420
15592TIP3    H146698   4.162   4.637   8.377
15592TIP3    H246699   4.094   4.643   8.510
15593TIP3   OH246700   4.146   4.759   8.652
15593TIP3    H146701   4.060   4.794   8.681
15593TIP3    H246702   4.182   4.836   8.601
15594TIP3   OH246703   4.026   4.185   7.962
15594TIP3    H146704   4.073   4.169   8.047
15594TIP3    H246705   3.964   4.109   7.961
15595TIP3   OH246706   4.468   4.495   9.012
15595TIP3    H146707   4.388   4.518   8.961
15595TIP3    H246708   4.501   4.421   8.959
15596TIP3   OH246709   4.108   4.118   7.598
15596TIP3    H146710   4.145   4.047   7.541
15596TIP3    H246711   4.173   4.189   7.587
15597TIP3   OH246712   2.511   3.939   8.358
15597TIP3    H146713   2.418   3.937   8.385
15597TIP3    H246714   2.510   4.002   8.283
15598TIP3   OH246715   3.674   5.651   7.864
15598TIP3    H146716   3.719   5.634   7.778
15598TIP3    H246717   3.728   5.722   7.901
15599TIP3   OH246718   2.947   5.478   8.766
15599TIP3    H146719   2.898   5.560   8.747
15599TIP3    H246720   3.036   5.505   8.734
15600TIP3   OH246721   3.413   5.705   8.923
15600TIP3    H146722   3.435   5.729   9.015
15600TIP3    H246723   3.462   5.773   8.872
15601TIP3   OH246724   3.557   5.889   8.787
15601TIP3    H146725   3.602   5.847   8.712
15601TIP3    H246726   3.630   5.938   8.830
15602TIP3   OH246727   4.363   4.248   8.882
15602TIP3    H146728   4.270   4.241   8.855
15602TIP3    H246729   4.387   4.154   8.884
15603TIP3   OH246730   2.632   5.774   8.833
15603TIP3    H146731   2.558   5.810   8.779
15603TIP3    H246732   2.585   5.710   8.886
15604TIP3   OH246733   2.865   5.730   8.679
15604TIP3    H146734   2.782   5.748   8.728
15604TIP3    H246735   2.841   5.756   8.588
15605TIP3   OH246736   3.289   5.751   8.474
15605TIP3    H146737   3.219   5.766   8.407
15605TIP3    H246738   3.298   5.841   8.512
15606TIP3   OH246739   3.555   5.706   8.536
15606TIP3    H146740   3.461   5.714   8.508
15606TIP3    H246741   3.599   5.763   8.471
15607TIP3   OH246742   3.770   5.881   8.449
15607TIP3    H146743   3.752   5.964   8.400
15607TIP3    H246744   3.794   5.821   8.375
15608TIP3   OH246745   2.550   5.551   8.554
15608TIP3    H146746   2.562   5.518   8.646
15608TIP3    H246747   2.618   5.497   8.508
15609TIP3   OH246748   2.734   5.405   8.415
15609TIP3    H146749   2.747   5.320   8.464
15609TIP3    H246750   2.825   5.440   8.412
15610TIP3   OH246751   3.000   5.506   8.419
15610TIP3    H146752   3.029   5.413   8.407
15610TIP3    H246753   3.033   5.522   8.509
15611TIP3   OH246754   3.594   4.159   8.530
15611TIP3    H146755   3.523   4.101   8.561
15611TIP3    H246756   3.642   4.102   8.468
15612TIP3   OH246757   4.099   4.044   8.420
15612TIP3    H146758   4.134   4.095   8.343
15612TIP3    H246759   4.002   4.056   8.409
15613TIP3   OH246760   4.191   4.141   8.180
15613TIP3    H146761   4.265   4.091   8.139
15613TIP3    H246762   4.223   4.233   8.166
15614TIP3   OH246763   2.827   3.876   8.518
15614TIP3    H146764   2.734   3.851   8.507
15614TIP3    H246765   2.874   3.791   8.513
15615TIP3   OH246766   2.612   3.738   8.179
15615TIP3    H146767   2.642   3.791   8.103
15615TIP3    H246768   2.579   3.807   8.239
15616TIP3   OH246769   3.261   3.902   8.406
15616TIP3    H146770   3.318   3.951   8.347
15616TIP3    H246771   3.298   3.929   8.493
15617TIP3   OH246772   3.823   4.041   8.388
15617TIP3    H146773   3.805   4.011   8.299
15617TIP3    H246774   3.797   3.963   8.441
15618TIP3   OH246775   3.842   3.972   7.954
15618TIP3    H146776   3.755   4.015   7.964
15618TIP3    H246777   3.825   3.887   8.000
15619TIP3   OH246778   2.326   5.310   7.955
15619TIP3    H146779   2.241   5.276   7.921
15619TIP3    H246780   2.314   5.405   7.937
15620TIP3   OH246781   2.725   3.893   7.943
15620TIP3    H146782   2.774   3.835   7.881
15620TIP3    H246783   2.796   3.951   7.976
15621TIP3   OH246784   3.238   4.074   8.038
15621TIP3    H146785   3.299   4.028   8.098
15621TIP3    H246786   3.258   4.166   8.064
15622TIP3   OH246787   3.097   5.501   7.536
15622TIP3    H146788   3.186   5.522   7.500
15622TIP3    H246789   3.075   5.426   7.477
15623TIP3   OH246790   3.815   5.617   7.630
15623TIP3    H146791   3.809   5.519   7.618
15623TIP3    H246792   3.770   5.648   7.549
15624TIP3   OH246793   2.402   5.337   7.593
15624TIP3    H146794   2.402   5.360   7.687
15624TIP3    H246795   2.490   5.295   7.581
15625TIP3   OH246796   4.039   5.767   8.803
15625TIP3    H146797   4.007   5.740   8.715
15625TIP3    H246798   4.047   5.864   8.791
15626TIP3   OH246799   5.303   5.122   7.588
15626TIP3    H146800   5.278   5.215   7.572
15626TIP3    H246801   5.232   5.077   7.538
15627TIP3   OH246802   5.306   5.131   7.966
15627TIP3    H146803   5.342   5.113   8.055
15627TIP3    H246804   5.274   5.045   7.938
15628TIP3   OH246805   4.625   5.039   8.353
15628TIP3    H146806   4.641   4.943   8.363
15628TIP3    H246807   4.700   5.063   8.296
15629TIP3   OH246808   5.550   5.434   7.647
15629TIP3    H146809   5.541   5.369   7.718
15629TIP3    H246810   5.579   5.513   7.696
15630TIP3   OH246811   4.579   5.440   8.061
15630TIP3    H146812   4.570   5.342   8.061
15630TIP3    H246813   4.675   5.448   8.047
15631TIP3   OH246814   4.288   4.644   7.838
15631TIP3    H146815   4.237   4.725   7.854
15631TIP3    H246816   4.219   4.586   7.802
15632TIP3   OH246817   4.346   4.930   8.015
15632TIP3    H146818   4.394   4.850   8.050
15632TIP3    H246819   4.398   4.949   7.936
15633TIP3   OH246820   5.198   5.897   7.662
15633TIP3    H146821   5.244   5.826   7.613
15633TIP3    H246822   5.197   5.862   7.752
15634TIP3   OH246823   5.107   5.358   8.013
15634TIP3    H146824   5.151   5.285   7.966
15634TIP3    H246825   5.188   5.407   8.039
15635TIP3   OH246826   6.116   4.681   8.009
15635TIP3    H146827   6.147   4.762   8.054
15635TIP3    H246828   6.143   4.699   7.918
15636TIP3   OH246829   5.515   4.860   8.044
15636TIP3    H146830   5.561   4.779   8.071
15636TIP3    H246831   5.490   4.838   7.953
15637TIP3   OH246832   4.879   4.505   7.995
15637TIP3    H146833   4.823   4.583   8.004
15637TIP3    H246834   4.813   4.439   7.969
15638TIP3   OH246835   5.549   4.622   7.632
15638TIP3    H146836   5.620   4.602   7.697
15638TIP3    H246837   5.604   4.649   7.556
15639TIP3   OH246838   4.497   4.728   8.119
15639TIP3    H146839   4.572   4.717   8.181
15639TIP3    H246840   4.520   4.663   8.050
15640TIP3   OH246841   4.953   4.896   7.872
15640TIP3    H146842   5.004   4.892   7.955
15640TIP3    H246843   4.876   4.836   7.889
15641TIP3   OH246844   6.191   4.885   8.182
15641TIP3    H146845   6.108   4.934   8.164
15641TIP3    H246846   6.211   4.915   8.272
15642TIP3   OH246847   5.198   5.348   7.455
15642TIP3    H146848   5.161   5.337   7.366
15642TIP3    H246849   5.158   5.434   7.481
15643TIP3   OH246850   4.961   5.281   8.244
15643TIP3    H146851   4.899   5.348   8.279
15643TIP3    H246852   5.002   5.329   8.169
15644TIP3   OH246853   5.758   4.614   7.805
15644TIP3    H146854   5.754   4.565   7.888
15644TIP3    H246855   5.816   4.689   7.828
15645TIP3   OH246856   4.788   5.474   8.337
15645TIP3    H146857   4.764   5.558   8.294
15645TIP3    H246858   4.707   5.460   8.391
15646TIP3   OH246859   4.183   5.161   7.572
15646TIP3    H146860   4.140   5.186   7.488
15646TIP3    H246861   4.211   5.248   7.608
15647TIP3   OH246862   5.620   5.677   7.811
15647TIP3    H146863   5.530   5.671   7.851
15647TIP3    H246864   5.614   5.764   7.767
15648TIP3   OH246865   5.912   4.577   8.174
15648TIP3    H146866   5.826   4.612   8.145
15648TIP3    H246867   5.973   4.612   8.106
15649TIP3   OH246868   5.209   4.225   8.161
15649TIP3    H146869   5.195   4.130   8.176
15649TIP3    H246870   5.132   4.262   8.208
15650TIP3   OH246871   5.323   5.724   7.488
15650TIP3    H146872   5.373   5.642   7.466
15650TIP3    H246873   5.385   5.790   7.447
15651TIP3   OH246874   5.464   5.509   7.395
15651TIP3    H146875   5.435   5.429   7.349
15651TIP3    H246876   5.500   5.472   7.479
15652TIP3   OH246877   5.848   5.590   8.160
15652TIP3    H146878   5.838   5.515   8.098
15652TIP3    H246879   5.830   5.666   8.100
15653TIP3   OH246880   5.132   4.976   7.431
15653TIP3    H146881   5.061   5.032   7.397
15653TIP3    H246882   5.185   4.959   7.351
15654TIP3   OH246883   5.100   4.765   7.138
15654TIP3    H146884   5.168   4.821   7.179
15654TIP3    H246885   5.157   4.704   7.087
15655TIP3   OH246886   6.042   5.226   8.000
15655TIP3    H146887   5.960   5.280   8.006
15655TIP3    H246888   6.074   5.252   7.911
15656TIP3   OH246889   5.486   5.069   7.387
15656TIP3    H146890   5.434   5.093   7.467
15656TIP3    H246891   5.572   5.044   7.429
15657TIP3   OH246892   5.721   5.108   8.299
15657TIP3    H146893   5.720   5.191   8.350
15657TIP3    H246894   5.636   5.116   8.252
15658TIP3   OH246895   4.719   5.060   7.804
15658TIP3    H146896   4.667   5.011   7.736
15658TIP3    H246897   4.798   5.004   7.810
15659TIP3   OH246898   4.845   5.471   7.955
15659TIP3    H146899   4.827   5.439   7.865
15659TIP3    H246900   4.937   5.440   7.970
15660TIP3   OH246901   4.844   5.054   8.149
15660TIP3    H146902   4.887   5.057   8.063
15660TIP3    H246903   4.892   5.126   8.195
15661TIP3   OH246904   5.379   5.674   7.933
15661TIP3    H146905   5.367   5.757   7.984
15661TIP3    H246906   5.364   5.604   8.000
15662TIP3   OH246907   4.994   5.594   8.483
15662TIP3    H146908   4.933   5.657   8.527
15662TIP3    H246909   4.930   5.542   8.430
15663TIP3   OH246910   5.324   4.924   7.217
15663TIP3    H146911   5.383   4.986   7.266
15663TIP3    H246912   5.350   4.945   7.124
15664TIP3   OH246913   4.758   5.150   8.589
15664TIP3    H146914   4.738   5.236   8.629
15664TIP3    H246915   4.695   5.143   8.515
15665TIP3   OH246916   5.069   5.606   7.493
15665TIP3    H146917   5.149   5.660   7.505
15665TIP3    H246918   5.010   5.667   7.446
15666TIP3   OH246919   4.787   5.761   8.568
15666TIP3    H146920   4.752   5.766   8.476
15666TIP3    H246921   4.707   5.736   8.619
15667TIP3   OH246922   5.849   4.161   7.260
15667TIP3    H146923   5.766   4.183   7.308
15667TIP3    H246924   5.862   4.243   7.208
15668TIP3   OH246925   4.585   4.909   7.610
15668TIP3    H146926   4.521   4.955   7.551
15668TIP3    H246927   4.540   4.826   7.625
15669TIP3   OH246928   5.641   5.534   6.809
15669TIP3    H146929   5.650   5.631   6.794
15669TIP3    H246930   5.734   5.505   6.796
15670TIP3   OH246931   4.220   5.483   8.154
15670TIP3    H146932   4.314   5.476   8.135
15670TIP3    H246933   4.214   5.568   8.201
15671TIP3   OH246934   6.083   5.938   8.203
15671TIP3    H146935   6.082   5.841   8.216
15671TIP3    H246936   6.000   5.963   8.249
15672TIP3   OH246937   5.191   5.723   8.338
15672TIP3    H146938   5.191   5.816   8.369
15672TIP3    H246939   5.120   5.684   8.393
15673TIP3   OH246940   4.951   5.850   7.290
15673TIP3    H146941   4.907   5.833   7.205
15673TIP3    H246942   4.919   5.939   7.313
15674TIP3   OH246943   4.389   5.701   7.673
15674TIP3    H146944   4.436   5.691   7.759
15674TIP3    H246945   4.333   5.622   7.674
15675TIP3   OH246946   5.153   5.753   6.930
15675TIP3    H146947   5.212   5.684   6.893
15675TIP3    H246948   5.187   5.762   7.021
15676TIP3   OH246949   5.203   5.800   7.200
15676TIP3    H146950   5.114   5.810   7.242
15676TIP3    H246951   5.254   5.763   7.273
15677TIP3   OH246952   5.975   5.068   8.477
15677TIP3    H146953   5.893   5.077   8.426
15677TIP3    H246954   5.991   4.971   8.470
15678TIP3   OH246955   4.571   5.468   8.505
15678TIP3    H146956   4.618   5.467   8.591
15678TIP3    H246957   4.496   5.410   8.520
15679TIP3   OH246958   4.967   4.308   8.285
15679TIP3    H146959   4.877   4.270   8.271
15679TIP3    H246960   4.946   4.402   8.276
15680TIP3   OH246961   5.504   4.413   8.481
15680TIP3    H146962   5.573   4.387   8.545
15680TIP3    H246963   5.421   4.394   8.529
15681TIP3   OH246964   5.739   4.842   8.397
15681TIP3    H146965   5.693   4.838   8.484
15681TIP3    H246966   5.719   4.932   8.366
15682TIP3   OH246967   5.404   4.970   6.960
15682TIP3    H146968   5.368   4.947   6.872
15682TIP3    H246969   5.483   5.022   6.934
15683TIP3   OH246970   5.115   4.347   7.261
15683TIP3    H146971   5.080   4.340   7.352
15683TIP3    H246972   5.075   4.267   7.221
15684TIP3   OH246973   4.779   4.705   7.808
15684TIP3    H146974   4.692   4.672   7.838
15684TIP3    H246975   4.790   4.655   7.725
15685TIP3   OH246976   5.451   5.067   8.634
15685TIP3    H146977   5.430   4.993   8.696
15685TIP3    H246978   5.546   5.079   8.655
15686TIP3   OH246979   5.428   4.815   7.787
15686TIP3    H146980   5.414   4.875   7.713
15686TIP3    H246981   5.462   4.735   7.741
15687TIP3   OH246982   4.775   4.323   7.223
15687TIP3    H146983   4.759   4.315   7.319
15687TIP3    H246984   4.695   4.372   7.195
15688TIP3   OH246985   4.315   4.366   8.096
15688TIP3    H146986   4.392   4.396   8.147
15688TIP3    H246987   4.353   4.333   8.013
15689TIP3   OH246988   4.290   4.348   7.616
15689TIP3    H146989   4.332   4.386   7.536
15689TIP3    H246990   4.226   4.420   7.636
15690TIP3   OH246991   5.437   5.061   8.207
15690TIP3    H146992   5.474   4.988   8.151
15690TIP3    H246993   5.412   5.009   8.287
15691TIP3   OH246994   5.111   4.571   7.870
15691TIP3    H146995   5.029   4.538   7.914
15691TIP3    H246996   5.177   4.533   7.932
15692TIP3   OH246997   4.552   4.579   7.888
15692TIP3    H146998   4.457   4.590   7.866
15692TIP3    H246999   4.568   4.485   7.868
15693TIP3   OH247000   4.849   4.597   7.554
15693TIP3    H147001   4.908   4.593   7.478
15693TIP3    H247002   4.764   4.603   7.504
15694TIP3   OH247003   5.603   4.601   8.081
15694TIP3    H147004   5.572   4.610   8.174
15694TIP3    H247005   5.541   4.536   8.047
15695TIP3   OH247006   4.660   4.604   7.365
15695TIP3    H147007   4.586   4.560   7.320
15695TIP3    H247008   4.709   4.638   7.288
15696TIP3   OH247009   5.772   6.285   8.299
15696TIP3    H147010   5.770   6.317   8.207
15696TIP3    H247011   5.852   6.332   8.331
15697TIP3   OH247012   4.716   5.399   8.735
15697TIP3    H147013   4.809   5.420   8.755
15697TIP3    H247014   4.681   5.400   8.825
15698TIP3   OH247015   5.202   4.836   7.967
15698TIP3    H147016   5.291   4.811   7.937
15698TIP3    H247017   5.203   4.804   8.060
15699TIP3   OH247018   4.711   4.335   7.852
15699TIP3    H147019   4.673   4.261   7.904
15699TIP3    H247020   4.770   4.287   7.793
15700TIP3   OH247021   5.171   4.758   8.268
15700TIP3    H147022   5.090   4.804   8.294
15700TIP3    H247023   5.239   4.807   8.318
15701TIP3   OH247024   4.912   5.139   7.365
15701TIP3    H147025   4.841   5.073   7.353
15701TIP3    H247026   4.892   5.172   7.456
15702TIP3   OH247027   5.811   5.375   7.993
15702TIP3    H147028   5.836   5.426   7.912
15702TIP3    H247029   5.726   5.334   7.966
15703TIP3   OH247030   5.370   4.442   7.228
15703TIP3    H147031   5.272   4.432   7.232
15703TIP3    H247032   5.384   4.538   7.246
15704TIP3   OH247033   5.303   5.453   8.361
15704TIP3    H147034   5.335   5.435   8.451
15704TIP3    H247035   5.274   5.545   8.366
15705TIP3   OH247036   5.445   4.689   7.315
15705TIP3    H147037   5.537   4.708   7.340
15705TIP3    H247038   5.413   4.776   7.284
15706TIP3   OH247039   4.601   5.161   8.038
15706TIP3    H147040   4.633   5.136   7.949
15706TIP3    H247041   4.648   5.097   8.093
15707TIP3   OH247042   5.057   5.289   7.187
15707TIP3    H147043   5.008   5.375   7.191
15707TIP3    H247044   5.003   5.234   7.247
15708TIP3   OH247045   5.206   5.194   8.672
15708TIP3    H147046   5.145   5.131   8.631
15708TIP3    H247047   5.293   5.158   8.642
15709TIP3   OH247048   5.469   5.707   8.261
15709TIP3    H147049   5.372   5.715   8.270
15709TIP3    H247050   5.498   5.766   8.334
15710TIP3   OH247051   5.879   4.789   7.166
15710TIP3    H147052   5.817   4.744   7.103
15710TIP3    H247053   5.876   4.878   7.125
15711TIP3   OH247054   6.099   5.645   8.247
15711TIP3    H147055   6.002   5.640   8.238
15711TIP3    H247056   6.125   5.615   8.157
15712TIP3   OH247057   5.580   5.609   7.073
15712TIP3    H147058   5.554   5.538   7.133
15712TIP3    H247059   5.592   5.562   6.988
15713TIP3   OH247060   5.576   5.237   7.912
15713TIP3    H147061   5.482   5.214   7.924
15713TIP3    H247062   5.610   5.158   7.867
15714TIP3   OH247063   4.704   5.463   7.665
15714TIP3    H147064   4.706   5.545   7.611
15714TIP3    H247065   4.609   5.446   7.669
15715TIP3   OH247066   4.269   4.767   7.371
15715TIP3    H147067   4.310   4.854   7.388
15715TIP3    H247068   4.190   4.772   7.428
15716TIP3   OH247069   4.843   5.227   7.613
15716TIP3    H147070   4.812   5.319   7.625
15716TIP3    H247071   4.798   5.182   7.686
15717TIP3   OH247072   4.972   5.807   8.134
15717TIP3    H147073   5.011   5.881   8.083
15717TIP3    H247074   5.050   5.774   8.181
15718TIP3   OH247075   4.624   5.702   7.518
15718TIP3    H147076   4.538   5.713   7.563
15718TIP3    H247077   4.656   5.795   7.519
15719TIP3   OH247078   5.359   5.439   8.093
15719TIP3    H147079   5.350   5.438   8.190
15719TIP3    H247080   5.444   5.395   8.081
15720TIP3   OH247081   5.335   5.333   6.974
15720TIP3    H147082   5.386   5.309   7.055
15720TIP3    H247083   5.246   5.308   7.001
15721TIP3   OH247084   5.609   5.974   8.140
15721TIP3    H147085   5.527   5.923   8.128
15721TIP3    H247086   5.598   6.042   8.070
15722TIP3   OH247087   5.675   5.809   6.795
15722TIP3    H147088   5.704   5.877   6.732
15722TIP3    H247089   5.597   5.854   6.831
15723TIP3   OH247090   4.689   4.589   8.724
15723TIP3    H147091   4.654   4.595   8.634
15723TIP3    H247092   4.715   4.497   8.731
15724TIP3   OH247093   5.495   5.271   7.194
15724TIP3    H147094   5.485   5.203   7.263
15724TIP3    H247095   5.592   5.267   7.179
15725TIP3   OH247096   4.407   5.675   8.298
15725TIP3    H147097   4.466   5.601   8.315
15725TIP3    H247098   4.451   5.747   8.345
15726TIP3   OH247099   4.702   5.316   6.974
15726TIP3    H147100   4.714   5.224   6.943
15726TIP3    H247101   4.682   5.302   7.069
15727TIP3   OH247102   4.647   5.321   7.248
15727TIP3    H147103   4.721   5.297   7.306
15727TIP3    H247104   4.650   5.419   7.251
15728TIP3   OH247105   4.386   5.017   7.451
15728TIP3    H147106   4.317   5.059   7.506
15728TIP3    H247107   4.396   5.085   7.381
15729TIP3   OH247108   5.531   4.647   8.339
15729TIP3    H147109   5.609   4.690   8.380
15729TIP3    H247110   5.519   4.569   8.397
15730TIP3   OH247111   5.404   4.410   7.509
15730TIP3    H147112   5.395   4.425   7.412
15730TIP3    H247113   5.448   4.493   7.537
15731TIP3   OH247114   4.913   5.517   7.197
15731TIP3    H147115   4.826   5.545   7.231
15731TIP3    H247116   4.928   5.586   7.131
15732TIP3   OH247117   5.373   4.899   8.417
15732TIP3    H147118   5.387   4.954   8.496
15732TIP3    H247119   5.429   4.822   8.437
15733TIP3   OH247120   5.242   4.317   7.711
15733TIP3    H147121   5.257   4.385   7.778
15733TIP3    H247122   5.304   4.347   7.641
15734TIP3   OH247123   4.656   5.593   7.263
15734TIP3    H147124   4.626   5.661   7.199
15734TIP3    H247125   4.640   5.637   7.348
15735TIP3   OH247126   4.754   4.299   7.497
15735TIP3    H147127   4.747   4.386   7.540
15735TIP3    H247128   4.850   4.282   7.506
15736TIP3   OH247129   6.008   4.802   8.399
15736TIP3    H147130   5.910   4.797   8.404
15736TIP3    H247131   6.024   4.763   8.312
15737TIP3   OH247132   5.661   4.993   7.788
15737TIP3    H147133   5.593   4.930   7.815
15737TIP3    H247134   5.741   4.954   7.831
15738TIP3   OH247135   4.373   5.222   7.257
15738TIP3    H147136   4.437   5.296   7.263
15738TIP3    H247137   4.418   5.169   7.188
15739TIP3   OH247138   4.320   4.499   7.390
15739TIP3    H147139   4.314   4.597   7.386
15739TIP3    H247140   4.241   4.473   7.343
15740TIP3   OH247141   5.631   5.946   7.734
15740TIP3    H147142   5.588   5.993   7.659
15740TIP3    H247143   5.725   5.967   7.713
15741TIP3   OH247144   4.710   4.215   8.261
15741TIP3    H147145   4.675   4.184   8.175
15741TIP3    H247146   4.695   4.137   8.318
15742TIP3   OH247147   4.247   5.441   7.645
15742TIP3    H147148   4.170   5.469   7.696
15742TIP3    H247149   4.223   5.478   7.557
15743TIP3   OH247150   4.401   5.979   8.718
15743TIP3    H147151   4.488   5.983   8.765
15743TIP3    H247152   4.386   5.883   8.715
15744TIP3   OH247153   4.884   5.941   8.764
15744TIP3    H147154   4.979   5.926   8.763
15744TIP3    H247155   4.857   5.887   8.688
15745TIP3   OH247156   4.866   5.520   6.889
15745TIP3    H147157   4.810   5.447   6.924
15745TIP3    H247158   4.940   5.468   6.851
15746TIP3   OH247159   5.521   5.852   8.492
15746TIP3    H147160   5.514   5.781   8.559
15746TIP3    H247161   5.599   5.902   8.521
15747TIP3   OH247162   5.301   5.561   6.798
15747TIP3    H147163   5.348   5.498   6.855
15747TIP3    H247164   5.355   5.560   6.716
15748TIP3   OH247165   4.507   5.039   7.106
15748TIP3    H147166   4.563   5.004   7.177
15748TIP3    H247167   4.573   5.043   7.033
15749TIP3   OH247168   5.137   5.468   8.690
15749TIP3    H147169   5.101   5.487   8.602
15749TIP3    H247170   5.169   5.376   8.681
15750TIP3   OH247171   5.021   5.236   6.916
15750TIP3    H147172   5.022   5.247   7.013
15750TIP3    H247173   5.019   5.138   6.910
15751TIP3   OH247174   5.631   5.478   8.293
15751TIP3    H147175   5.708   5.520   8.250
15751TIP3    H247176   5.564   5.548   8.280
15752TIP3   OH247177   4.658   5.126   8.882
15752TIP3    H147178   4.726   5.056   8.881
15752TIP3    H247179   4.673   5.159   8.974
15753TIP3   OH247180   4.725   4.938   7.336
15753TIP3    H147181   4.684   4.893   7.411
15753TIP3    H247182   4.757   4.863   7.281
15754TIP3   OH247183   4.997   5.005   8.564
15754TIP3    H147184   4.909   5.048   8.569
15754TIP3    H247185   5.032   5.040   8.479
15755TIP3   OH247186   4.817   4.730   7.173
15755TIP3    H147187   4.789   4.736   7.080
15755TIP3    H247188   4.914   4.737   7.163
15756TIP3   OH247189   5.506   5.406   8.695
15756TIP3    H147190   5.580   5.377   8.641
15756TIP3    H247191   5.501   5.336   8.763
15757TIP3   OH247192   5.641   5.064   6.833
15757TIP3    H147193   5.618   5.019   6.750
15757TIP3    H247194   5.608   5.154   6.812
15758TIP3   OH247195   5.113   4.791   8.684
15758TIP3    H147196   5.099   4.710   8.633
15758TIP3    H247197   5.066   4.858   8.630
15759TIP3   OH247198   5.091   4.571   8.480
15759TIP3    H147199   5.129   4.613   8.400
15759TIP3    H247200   4.996   4.581   8.464
15760TIP3   OH247201   5.142   5.108   8.352
15760TIP3    H147202   5.229   5.129   8.314
15760TIP3    H247203   5.087   5.181   8.318
15761TIP3   OH247204   5.719   5.082   8.742
15761TIP3    H147205   5.763   5.004   8.781
15761TIP3    H247206   5.794   5.132   8.708
15762TIP3   OH247207   5.761   5.336   8.484
15762TIP3    H147208   5.704   5.389   8.423
15762TIP3    H247209   5.850   5.356   8.445
15763TIP3   OH247210   4.994   4.907   8.918
15763TIP3    H147211   4.916   4.848   8.932
15763TIP3    H247212   5.021   4.879   8.829
15764TIP3   OH247213   5.241   4.344   8.559
15764TIP3    H147214   5.187   4.423   8.534
15764TIP3    H247215   5.175   4.273   8.548
15765TIP3   OH247216   5.371   4.849   8.774
15765TIP3    H147217   5.358   4.834   8.870
15765TIP3    H247218   5.281   4.824   8.743
15766TIP3   OH247219   5.606   4.792   8.627
15766TIP3    H147220   5.535   4.798   8.694
15766TIP3    H247221   5.683   4.765   8.682
15767TIP3   OH247222   5.835   4.730   8.770
15767TIP3    H147223   5.848   4.637   8.798
15767TIP3    H247224   5.831   4.778   8.856
15768TIP3   OH247225   4.818   4.703   8.958
15768TIP3    H147226   4.808   4.624   8.902
15768TIP3    H247227   4.864   4.669   9.038
15769TIP3   OH247228   5.336   4.350   8.817
15769TIP3    H147229   5.408   4.284   8.809
15769TIP3    H247230   5.298   4.346   8.726
15770TIP3   OH247231   5.405   4.570   8.974
15770TIP3    H147232   5.384   4.499   8.909
15770TIP3    H247233   5.327   4.629   8.966
15771TIP3   OH247234   4.625   5.796   7.076
15771TIP3    H147235   4.720   5.792   7.056
15771TIP3    H247236   4.594   5.843   6.997
15772TIP3   OH247237   4.105   5.175   7.295
15772TIP3    H147238   4.199   5.197   7.277
15772TIP3    H247239   4.097   5.088   7.251
15773TIP3   OH247240   4.018   5.791   7.704
15773TIP3    H147241   3.952   5.729   7.666
15773TIP3    H247242   4.062   5.733   7.769
15774TIP3   OH247243   4.153   5.644   7.892
15774TIP3    H147244   4.141   5.567   7.950
15774TIP3    H247245   4.209   5.701   7.947
15775TIP3   OH247246   5.884   6.038   7.692
15775TIP3    H147247   5.904   6.074   7.780
15775TIP3    H247248   5.937   6.096   7.635
15776TIP3   OH247249   5.907   6.057   7.971
15776TIP3    H147250   5.871   5.966   7.969
15776TIP3    H247251   5.986   6.043   8.025
15777TIP3   OH247252   5.959   5.737   8.548
15777TIP3    H147253   5.880   5.750   8.604
15777TIP3    H247254   5.999   5.827   8.547
15778TIP3   OH247255   5.774   5.251   7.167
15778TIP3    H147256   5.841   5.316   7.137
15778TIP3    H247257   5.819   5.213   7.246
15779TIP3   OH247258   5.902   5.118   7.370
15779TIP3    H147259   5.836   5.078   7.431
15779TIP3    H247260   5.968   5.156   7.432
15780TIP3   OH247261   5.954   5.509   7.802
15780TIP3    H147262   6.008   5.446   7.751
15780TIP3    H247263   5.950   5.586   7.740
15781TIP3   OH247264   5.787   5.807   8.000
15781TIP3    H147265   5.716   5.855   8.048
15781TIP3    H247266   5.737   5.763   7.928
15782TIP3   OH247267   5.840   5.026   7.017
15782TIP3    H147268   5.769   5.029   6.949
15782TIP3    H247269   5.812   5.102   7.072
15783TIP3   OH247270   5.714   4.699   6.970
15783TIP3    H147271   5.667   4.739   6.896
15783TIP3    H247272   5.687   4.605   6.961
15784TIP3   OH247273   5.714   4.975   7.518
15784TIP3    H147274   5.727   4.879   7.509
15784TIP3    H247275   5.704   4.987   7.615
15785TIP3   OH247276   4.344   5.054   8.268
15785TIP3    H147277   4.341   5.019   8.176
15785TIP3    H247278   4.441   5.059   8.282
15786TIP3   OH247279   6.006   5.401   8.376
15786TIP3    H147280   6.078   5.334   8.367
15786TIP3    H247281   6.031   5.468   8.312
15787TIP3   OH247282   6.191   5.207   8.395
15787TIP3    H147283   6.116   5.154   8.431
15787TIP3    H247284   6.264   5.142   8.406
15788TIP3   OH247285   5.655   4.433   6.957
15788TIP3    H147286   5.729   4.402   7.013
15788TIP3    H247287   5.581   4.374   6.981
15789TIP3   OH247288   5.716   4.693   7.416
15789TIP3    H147289   5.755   4.603   7.429
15789TIP3    H247290   5.771   4.724   7.342
15790TIP3   OH247291   5.874   4.869   7.906
15790TIP3    H147292   5.961   4.892   7.866
15790TIP3    H247293   5.889   4.903   7.996
15791TIP3   OH247294   5.942   5.009   8.139
15791TIP3    H147295   5.865   5.045   8.187
15791TIP3    H247296   5.976   5.089   8.093
15792TIP3   OH247297   4.546   4.751   8.933
15792TIP3    H147298   4.643   4.753   8.921
15792TIP3    H247299   4.536   4.665   8.977
15793TIP3   OH247300   6.384   4.597   8.691
15793TIP3    H147301   6.452   4.535   8.657
15793TIP3    H247302   6.366   4.654   8.614
15794TIP3   OH247303   5.820   4.441   7.450
15794TIP3    H147304   5.870   4.425   7.533
15794TIP3    H247305   5.761   4.363   7.449
15795TIP3   OH247306   4.525   4.428   8.266
15795TIP3    H147307   4.590   4.357   8.274
15795TIP3    H247308   4.581   4.505   8.289
15796TIP3   OH247309   4.322   4.703   8.341
15796TIP3    H147310   4.372   4.688   8.258
15796TIP3    H247311   4.367   4.781   8.375
15797TIP3   OH247312   6.266   4.743   8.495
15797TIP3    H147313   6.180   4.782   8.522
15797TIP3    H247314   6.235   4.668   8.441
15798TIP3   OH247315   5.902   4.373   7.082
15798TIP3    H147316   5.945   4.302   7.030
15798TIP3    H247317   5.969   4.445   7.078
15799TIP3   OH247318   4.307   4.207   7.845
15799TIP3    H147319   4.213   4.201   7.869
15799TIP3    H247320   4.305   4.264   7.766
15800TIP3   OH247321   5.466   5.906   7.348
15800TIP3    H147322   5.519   5.896   7.266
15800TIP3    H247323   5.515   5.974   7.397
15801TIP3   OH247324   4.533   4.294   8.655
15801TIP3    H147325   4.479   4.279   8.735
15801TIP3    H247326   4.464   4.327   8.593
15802TIP3   OH247327   4.567   5.702   8.741
15802TIP3    H147328   4.472   5.682   8.728
15802TIP3    H247329   4.574   5.698   8.838
15803TIP3   OH247330   4.744   5.746   8.281
15803TIP3    H147331   4.699   5.823   8.241
15803TIP3    H247332   4.831   5.758   8.239
15804TIP3   OH247333   5.190   5.989   8.420
15804TIP3    H147334   5.234   5.991   8.508
15804TIP3    H247335   5.255   6.039   8.366
15805TIP3   OH247336   5.370   6.138   8.280
15805TIP3    H147337   5.443   6.094   8.234
15805TIP3    H247338   5.420   6.199   8.339
15806TIP3   OH247339   6.165   4.503   8.379
15806TIP3    H147340   6.073   4.495   8.346
15806TIP3    H247341   6.196   4.410   8.368
15807TIP3   OH247342   4.421   5.998   8.311
15807TIP3    H147343   4.332   6.030   8.283
15807TIP3    H247344   4.434   6.049   8.391
15808TIP3   OH247345   4.656   5.977   8.163
15808TIP3    H147346   4.570   5.992   8.206
15808TIP3    H247347   4.640   6.012   8.073
15809TIP3   OH247348   5.082   6.007   7.962
15809TIP3    H147349   5.016   6.029   7.895
15809TIP3    H247350   5.098   6.094   8.004
15810TIP3   OH247351   5.353   5.945   8.012
15810TIP3    H147352   5.260   5.967   7.993
15810TIP3    H247353   5.400   6.020   7.972
15811TIP3   OH247354   5.554   6.135   7.928
15811TIP3    H147355   5.544   6.222   7.883
15811TIP3    H247356   5.585   6.079   7.854
15812TIP3   OH247357   4.331   5.794   8.050
15812TIP3    H147358   4.358   5.772   8.142
15812TIP3    H247359   4.405   5.751   8.000
15813TIP3   OH247360   4.526   5.666   7.909
15813TIP3    H147361   4.545   5.583   7.957
15813TIP3    H247362   4.616   5.705   7.901
15814TIP3   OH247363   4.791   5.762   7.911
15814TIP3    H147364   4.826   5.673   7.895
15814TIP3    H247365   4.837   5.784   7.994
15815TIP3   OH247366   5.357   4.412   7.983
15815TIP3    H147367   5.321   4.347   8.046
15815TIP3    H247368   5.439   4.369   7.953
15816TIP3   OH247369   5.892   4.295   7.901
15816TIP3    H147370   5.929   4.348   7.828
15816TIP3    H247371   5.797   4.317   7.896
15817TIP3   OH247372   5.987   4.398   7.667
15817TIP3    H147373   6.061   4.347   7.628
15817TIP3    H247374   6.020   4.490   7.652
15818TIP3   OH247375   4.618   4.127   8.012
15818TIP3    H147376   4.525   4.095   8.014
15818TIP3    H247377   4.665   4.041   8.008
15819TIP3   OH247378   4.409   3.996   7.664
15819TIP3    H147379   4.433   4.053   7.589
15819TIP3    H247380   4.376   4.060   7.729
15820TIP3   OH247381   5.061   4.159   7.892
15820TIP3    H147382   5.122   4.209   7.836
15820TIP3    H247383   5.076   4.198   7.979
15821TIP3   OH247384   5.604   4.306   7.879
15821TIP3    H147385   5.610   4.266   7.791
15821TIP3    H247386   5.593   4.225   7.935
15822TIP3   OH247387   5.639   4.225   7.440
15822TIP3    H147388   5.551   4.264   7.444
15822TIP3    H247389   5.625   4.141   7.489
15823TIP3   OH247390   4.121   5.567   7.443
15823TIP3    H147391   4.036   5.533   7.409
15823TIP3    H247392   4.110   5.661   7.419
15824TIP3   OH247393   4.519   4.152   7.425
15824TIP3    H147394   4.566   4.090   7.367
15824TIP3    H247395   4.593   4.205   7.461
15825TIP3   OH247396   5.029   4.337   7.530
15825TIP3    H147397   5.095   4.281   7.574
15825TIP3    H247398   5.036   4.417   7.584
15826TIP3   OH247399   4.893   5.757   7.024
15826TIP3    H147400   4.982   5.779   6.988
15826TIP3    H247401   4.871   5.682   6.964
15827TIP3   OH247402   5.614   5.876   7.117
15827TIP3    H147403   5.607   5.778   7.106
15827TIP3    H247404   5.567   5.907   7.037
15828TIP3   OH247405   4.818   4.372   8.904
15828TIP3    H147406   4.807   4.346   8.997
15828TIP3    H247407   4.915   4.384   8.903
15829TIP3   OH247408   5.086   4.375   8.959
15829TIP3    H147409   5.174   4.368   8.919
15829TIP3    H247410   5.107   4.381   9.055
15830TIP3   OH247411   4.198   5.594   7.079
15830TIP3    H147412   4.198   5.619   7.173
15830TIP3    H247413   4.287   5.552   7.069
15831TIP3   OH247414   5.900   4.461   8.814
15831TIP3    H147415   5.921   4.434   8.906
15831TIP3    H247416   5.989   4.460   8.772
15832TIP3   OH247417   5.837   6.020   8.305
15832TIP3    H147418   5.759   5.990   8.253
15832TIP3    H247419   5.821   6.117   8.304
15833TIP3   OH247420   7.104   5.387   7.068
15833TIP3    H147421   7.081   5.481   7.054
15833TIP3    H247422   7.019   5.345   7.048
15834TIP3   OH247423   7.097   5.387   7.471
15834TIP3    H147424   7.153   5.346   7.541
15834TIP3    H247425   7.071   5.309   7.420
15835TIP3   OH247426   6.402   5.287   7.818
15835TIP3    H147427   6.432   5.218   7.881
15835TIP3    H247428   6.483   5.340   7.809
15836TIP3   OH247429   7.343   5.686   7.133
15836TIP3    H147430   7.340   5.622   7.205
15836TIP3    H247431   7.373   5.766   7.181
15837TIP3   OH247432   6.371   5.695   7.535
15837TIP3    H147433   6.363   5.597   7.541
15837TIP3    H247434   6.467   5.706   7.542
15838TIP3   OH247435   6.081   4.896   7.326
15838TIP3    H147436   6.035   4.981   7.342
15838TIP3    H247437   6.009   4.844   7.286
15839TIP3   OH247438   6.139   5.184   7.497
15839TIP3    H147439   6.189   5.108   7.534
15839TIP3    H247440   6.202   5.218   7.432
15840TIP3   OH247441   6.975   6.141   7.145
15840TIP3    H147442   7.033   6.078   7.097
15840TIP3    H247443   6.989   6.116   7.237
15841TIP3   OH247444   6.904   5.617   7.501
15841TIP3    H147445   6.943   5.534   7.468
15841TIP3    H247446   6.987   5.665   7.519
15842TIP3   OH247447   7.921   4.932   7.496
15842TIP3    H147448   7.942   5.016   7.543
15842TIP3    H247449   7.939   4.959   7.404
15843TIP3   OH247450   6.649   4.777   7.499
15843TIP3    H147451   6.633   4.850   7.436
15843TIP3    H247452   6.602   4.704   7.452
15844TIP3   OH247453   7.348   4.863   7.120
15844TIP3    H147454   7.417   4.847   7.189
15844TIP3    H247455   7.403   4.904   7.051
15845TIP3   OH247456   6.286   4.979   7.603
15845TIP3    H147457   6.369   4.961   7.652
15845TIP3    H247458   6.301   4.923   7.524
15846TIP3   OH247459   6.730   5.175   7.398
15846TIP3    H147460   6.824   5.150   7.408
15846TIP3    H247461   6.691   5.091   7.366
15847TIP3   OH247462   7.972   5.142   7.661
15847TIP3    H147463   7.891   5.196   7.650
15847TIP3    H247464   7.995   5.161   7.753
15848TIP3   OH247465   6.648   4.760   7.931
15848TIP3    H147466   6.588   4.798   7.864
15848TIP3    H247467   6.597   4.778   8.012
15849TIP3   OH247468   6.994   5.610   6.938
15849TIP3    H147469   6.951   5.598   6.853
15849TIP3    H247470   6.955   5.695   6.968
15850TIP3   OH247471   6.759   5.535   7.727
15850TIP3    H147472   6.695   5.600   7.764
15850TIP3    H247473   6.798   5.585   7.653
15851TIP3   OH247474   7.556   4.865   7.297
15851TIP3    H147475   7.528   4.836   7.386
15851TIP3    H247476   7.606   4.946   7.319
15852TIP3   OH247477   6.518   4.876   7.717
15852TIP3    H147478   6.580   4.948   7.741
15852TIP3    H247479   6.568   4.836   7.642
15853TIP3   OH247480   6.579   5.729   7.820
15853TIP3    H147481   6.556   5.819   7.787
15853TIP3    H247482   6.502   5.714   7.879
15854TIP3   OH247483   5.978   5.418   7.060
15854TIP3    H147484   5.936   5.447   6.977
15854TIP3    H247485   6.009   5.504   7.096
15855TIP3   OH247486   7.403   5.912   7.281
15855TIP3    H147487   7.315   5.915   7.326
15855TIP3    H247488   7.411   6.006   7.257
15856TIP3   OH247489   7.710   4.830   7.662
15856TIP3    H147490   7.620   4.855   7.635
15856TIP3    H247491   7.766   4.869   7.592
15857TIP3   OH247492   7.004   4.479   7.643
15857TIP3    H147493   6.992   4.385   7.663
15857TIP3    H247494   6.928   4.518   7.691
15858TIP3   OH247495   7.116   5.977   6.970
15858TIP3    H147496   7.170   5.897   6.950
15858TIP3    H247497   7.177   6.046   6.935
15859TIP3   OH247498   7.265   5.762   6.881
15859TIP3    H147499   7.223   5.682   6.848
15859TIP3    H247500   7.300   5.732   6.968
15860TIP3   OH247501   6.929   5.233   6.893
15860TIP3    H147502   6.853   5.294   6.879
15860TIP3    H247503   6.984   5.252   6.815
15861TIP3   OH247504   6.901   5.022   6.608
15861TIP3    H147505   6.957   5.083   6.661
15861TIP3    H247506   6.938   4.937   6.634
15862TIP3   OH247507   7.849   5.480   7.479
15862TIP3    H147508   7.770   5.535   7.500
15862TIP3    H247509   7.872   5.518   7.391
15863TIP3   OH247510   7.282   5.318   6.874
15863TIP3    H147511   7.229   5.345   6.953
15863TIP3    H247512   7.367   5.297   6.918
15864TIP3   OH247513   6.517   5.322   7.290
15864TIP3    H147514   6.476   5.264   7.223
15864TIP3    H247515   6.593   5.268   7.321
15865TIP3   OH247516   6.652   5.735   7.432
15865TIP3    H147517   6.630   5.672   7.362
15865TIP3    H247518   6.742   5.706   7.456
15866TIP3   OH247519   6.648   5.296   7.642
15866TIP3    H147520   6.686   5.271   7.556
15866TIP3    H247521   6.696   5.379   7.664
15867TIP3   OH247522   7.169   5.929   7.418
15867TIP3    H147523   7.166   6.011   7.471
15867TIP3    H247524   7.163   5.857   7.483
15868TIP3   OH247525   6.787   5.839   7.964
15868TIP3    H147526   6.730   5.902   8.014
15868TIP3    H247527   6.718   5.789   7.916
15869TIP3   OH247528   7.127   5.184   6.693
15869TIP3    H147529   7.184   5.241   6.750
15869TIP3    H247530   7.155   5.212   6.603
15870TIP3   OH247531   6.543   5.408   8.068
15870TIP3    H147532   6.547   5.495   8.113
15870TIP3    H247533   6.448   5.388   8.077
15871TIP3   OH247534   6.859   5.871   6.976
15871TIP3    H147535   6.945   5.912   6.996
15871TIP3    H247536   6.810   5.945   6.937
15872TIP3   OH247537   6.582   5.997   8.051
15872TIP3    H147538   6.542   6.015   7.964
15872TIP3    H247539   6.506   5.996   8.111
15873TIP3   OH247540   7.639   4.424   6.746
15873TIP3    H147541   7.558   4.444   6.798
15873TIP3    H247542   7.653   4.509   6.700
15874TIP3   OH247543   6.384   5.165   7.090
15874TIP3    H147544   6.314   5.210   7.037
15874TIP3    H247545   6.342   5.080   7.108
15875TIP3   OH247546   7.438   5.790   6.294
15875TIP3    H147547   7.446   5.887   6.281
15875TIP3    H247548   7.532   5.762   6.281
15876TIP3   OH247549   6.161   5.550   8.002
15876TIP3    H147550   6.098   5.527   7.931
15876TIP3    H247551   6.199   5.463   8.027
15877TIP3   OH247552   6.016   5.741   7.638
15877TIP3    H147553   6.112   5.738   7.628
15877TIP3    H247554   6.004   5.822   7.689
15878TIP3   OH247555   6.956   5.994   7.824
15878TIP3    H147556   6.913   6.078   7.843
15878TIP3    H247557   6.897   5.932   7.872
15879TIP3   OH247558   6.714   6.100   6.786
15879TIP3    H147559   6.699   6.095   6.690
15879TIP3    H247560   6.708   6.196   6.803
15880TIP3   OH247561   6.948   6.006   6.417
15880TIP3    H147562   7.009   5.938   6.381
15880TIP3    H247563   6.983   6.020   6.507
15881TIP3   OH247564   6.991   6.058   6.691
15881TIP3    H147565   6.911   6.061   6.747
15881TIP3    H247566   7.059   6.033   6.756
15882TIP3   OH247567   7.776   5.333   7.952
15882TIP3    H147568   7.696   5.347   7.900
15882TIP3    H247569   7.780   5.236   7.953
15883TIP3   OH247570   6.365   5.733   7.991
15883TIP3    H147571   6.417   5.715   8.072
15883TIP3    H247572   6.292   5.668   7.998
15884TIP3   OH247573   6.767   4.554   7.774
15884TIP3    H147574   6.676   4.526   7.749
15884TIP3    H247575   6.745   4.638   7.819
15885TIP3   OH247576   7.300   4.665   7.969
15885TIP3    H147577   7.371   4.642   8.033
15885TIP3    H247578   7.218   4.649   8.020
15886TIP3   OH247579   7.547   5.129   7.884
15886TIP3    H147580   7.493   5.106   7.962
15886TIP3    H247581   7.479   5.171   7.827
15887TIP3   OH247582   7.190   5.228   6.421
15887TIP3    H147583   7.190   5.236   6.324
15887TIP3    H247584   7.271   5.278   6.440
15888TIP3   OH247585   6.913   4.609   6.748
15888TIP3    H147586   6.880   4.602   6.840
15888TIP3    H247587   6.876   4.525   6.713
15889TIP3   OH247588   6.693   5.073   7.791
15889TIP3    H147589   6.648   5.098   7.875
15889TIP3    H247590   6.679   5.154   7.738
15890TIP3   OH247591   6.582   4.957   7.307
15890TIP3    H147592   6.489   4.930   7.325
15890TIP3    H247593   6.595   4.915   7.219
15891TIP3   OH247594   7.071   5.041   7.030
15891TIP3    H147595   7.018   5.113   6.989
15891TIP3    H247596   7.130   5.016   6.957
15892TIP3   OH247597   7.229   5.336   8.138
15892TIP3    H147598   7.227   5.242   8.167
15892TIP3    H247599   7.323   5.356   8.140
15893TIP3   OH247600   7.217   5.074   7.271
15893TIP3    H147601   7.164   5.096   7.193
15893TIP3    H247602   7.258   4.991   7.241
15894TIP3   OH247603   6.513   5.101   8.003
15894TIP3    H147604   6.554   5.162   8.066
15894TIP3    H247605   6.507   5.018   8.055
15895TIP3   OH247606   6.568   4.579   6.709
15895TIP3    H147607   6.562   4.575   6.807
15895TIP3    H247608   6.488   4.630   6.688
15896TIP3   OH247609   6.110   4.622   7.584
15896TIP3    H147610   6.186   4.655   7.637
15896TIP3    H247611   6.151   4.593   7.501
15897TIP3   OH247612   6.084   4.603   7.101
15897TIP3    H147613   6.130   4.640   7.024
15897TIP3    H247614   6.023   4.677   7.121
15898TIP3   OH247615   6.902   4.779   7.365
15898TIP3    H147616   6.827   4.779   7.427
15898TIP3    H247617   6.978   4.780   7.425
15899TIP3   OH247618   6.343   4.835   7.376
15899TIP3    H147619   6.249   4.841   7.349
15899TIP3    H247620   6.367   4.743   7.353
15900TIP3   OH247621   6.612   4.828   7.066
15900TIP3    H147622   6.707   4.845   7.049
15900TIP3    H247623   6.568   4.853   6.982
15901TIP3   OH247624   7.425   4.833   7.560
15901TIP3    H147625   7.396   4.866   7.648
15901TIP3    H247626   7.340   4.802   7.526
15902TIP3   OH247627   6.454   4.865   6.844
15902TIP3    H147628   6.379   4.822   6.799
15902TIP3    H247629   6.504   4.899   6.768
15903TIP3   OH247630   6.524   5.652   8.209
15903TIP3    H147631   6.607   5.685   8.250
15903TIP3    H247632   6.465   5.654   8.286
15904TIP3   OH247633   6.997   5.100   7.456
15904TIP3    H147634   7.080   5.082   7.409
15904TIP3    H247635   7.015   5.064   7.544
15905TIP3   OH247636   6.514   4.597   7.341
15905TIP3    H147637   6.483   4.517   7.389
15905TIP3    H247638   6.572   4.560   7.273
15906TIP3   OH247639   6.965   4.989   7.762
15906TIP3    H147640   6.881   5.039   7.768
15906TIP3    H247641   7.033   5.052   7.788
15907TIP3   OH247642   6.706   5.395   6.848
15907TIP3    H147643   6.633   5.329   6.840
15907TIP3    H247644   6.690   5.428   6.940
15908TIP3   OH247645   7.610   5.617   7.486
15908TIP3    H147646   7.638   5.683   7.419
15908TIP3    H247647   7.524   5.588   7.451
15909TIP3   OH247648   7.147   4.731   6.674
15909TIP3    H147649   7.065   4.695   6.716
15909TIP3    H247650   7.172   4.807   6.731
15910TIP3   OH247651   7.123   5.731   7.855
15910TIP3    H147652   7.116   5.672   7.931
15910TIP3    H247653   7.053   5.795   7.872
15911TIP3   OH247654   7.236   4.951   6.813
15911TIP3    H147655   7.331   4.954   6.837
15911TIP3    H247656   7.225   5.037   6.767
15912TIP3   OH247657   6.397   5.415   7.526
15912TIP3    H147658   6.436   5.387   7.440
15912TIP3    H247659   6.444   5.357   7.588
15913TIP3   OH247660   6.848   5.540   6.667
15913TIP3    H147661   6.803   5.628   6.672
15913TIP3    H247662   6.795   5.490   6.732
15914TIP3   OH247663   6.276   5.340   8.141
15914TIP3    H147664   6.302   5.324   8.234
15914TIP3    H247665   6.212   5.269   8.125
15915TIP3   OH247666   6.988   5.446   8.155
15915TIP3    H147667   6.942   5.381   8.101
15915TIP3    H247668   7.081   5.414   8.143
15916TIP3   OH247669   7.290   5.987   7.712
15916TIP3    H147670   7.207   5.942   7.694
15916TIP3    H247671   7.275   6.011   7.806
15917TIP3   OH247672   7.674   5.045   6.654
15917TIP3    H147673   7.606   5.003   6.596
15917TIP3    H247674   7.674   5.134   6.613
15918TIP3   OH247675   7.359   5.865   6.553
15918TIP3    H147676   7.358   5.800   6.624
15918TIP3    H247677   7.389   5.815   6.475
15919TIP3   OH247678   7.365   5.502   7.385
15919TIP3    H147679   7.283   5.465   7.421
15919TIP3    H247680   7.409   5.420   7.353
15920TIP3   OH247681   6.491   5.705   7.139
15920TIP3    H147682   6.523   5.795   7.143
15920TIP3    H247683   6.401   5.711   7.174
15921TIP3   OH247684   6.063   5.024   6.854
15921TIP3    H147685   6.107   5.109   6.875
15921TIP3    H247686   5.986   5.029   6.915
15922TIP3   OH247687   6.642   5.480   7.094
15922TIP3    H147688   6.596   5.566   7.106
15922TIP3    H247689   6.606   5.429   7.169
15923TIP3   OH247690   6.762   6.064   7.612
15923TIP3    H147691   6.800   6.140   7.564
15923TIP3    H247692   6.843   6.021   7.646
15924TIP3   OH247693   7.165   5.705   7.584
15924TIP3    H147694   7.158   5.689   7.680
15924TIP3    H247695   7.230   5.638   7.556
15925TIP3   OH247696   7.130   5.579   6.462
15925TIP3    H147697   7.184   5.560   6.542
15925TIP3    H247698   7.040   5.571   6.499
15926TIP3   OH247699   7.469   6.065   6.281
15926TIP3    H147700   7.511   6.141   6.235
15926TIP3    H247701   7.388   6.111   6.314
15927TIP3   OH247702   6.492   4.843   8.148
15927TIP3    H147703   6.396   4.846   8.164
15927TIP3    H247704   6.522   4.785   8.220
15928TIP3   OH247705   7.290   5.514   6.676
15928TIP3    H147706   7.285   5.455   6.754
15928TIP3    H247707   7.388   5.520   6.666
15929TIP3   OH247708   6.207   5.925   7.778
15929TIP3    H147709   6.262   5.856   7.817
15929TIP3    H247710   6.231   6.002   7.831
15930TIP3   OH247711   6.500   5.571   6.460
15930TIP3    H147712   6.507   5.478   6.431
15930TIP3    H247713   6.480   5.560   6.556
15931TIP3   OH247714   6.446   5.572   6.732
15931TIP3    H147715   6.515   5.547   6.794
15931TIP3    H247716   6.445   5.670   6.740
15932TIP3   OH247717   6.178   5.271   6.937
15932TIP3    H147718   6.112   5.315   6.994
15932TIP3    H247719   6.191   5.341   6.870
15933TIP3   OH247720   7.330   4.892   7.809
15933TIP3    H147721   7.351   4.968   7.865
15933TIP3    H247722   7.316   4.821   7.875
15934TIP3   OH247723   7.212   4.660   6.991
15934TIP3    H147724   7.200   4.697   6.903
15934TIP3    H247725   7.252   4.736   7.039
15935TIP3   OH247726   6.711   5.771   6.677
15935TIP3    H147727   6.623   5.799   6.708
15935TIP3    H247728   6.735   5.846   6.621
15936TIP3   OH247729   6.894   4.839   7.095
15936TIP3    H147730   6.959   4.911   7.082
15936TIP3    H247731   6.899   4.827   7.193
15937TIP3   OH247732   7.040   4.563   7.196
15937TIP3    H147733   7.048   4.628   7.268
15937TIP3    H247734   7.100   4.602   7.129
15938TIP3   OH247735   6.449   5.846   6.741
15938TIP3    H147736   6.414   5.900   6.667
15938TIP3    H247737   6.474   5.917   6.801
15939TIP3   OH247738   6.554   4.563   6.985
15939TIP3    H147739   6.552   4.653   7.024
15939TIP3    H247740   6.649   4.543   6.996
15940TIP3   OH247741   7.812   5.053   7.891
15940TIP3    H147742   7.715   5.064   7.901
15940TIP3    H247743   7.816   5.023   7.800
15941TIP3   OH247744   7.453   5.245   7.274
15941TIP3    H147745   7.376   5.191   7.300
15941TIP3    H247746   7.526   5.201   7.323
15942TIP3   OH247747   6.169   5.478   6.741
15942TIP3    H147748   6.233   5.551   6.751
15942TIP3    H247749   6.215   5.425   6.673
15943TIP3   OH247750   6.114   4.755   6.874
15943TIP3    H147751   6.114   4.853   6.872
15943TIP3    H247752   6.029   4.735   6.835
15944TIP3   OH247753   7.404   6.184   7.221
15944TIP3    H147754   7.368   6.250   7.159
15944TIP3    H247755   7.499   6.196   7.206
15945TIP3   OH247756   6.500   4.477   7.750
15945TIP3    H147757   6.471   4.442   7.663
15945TIP3    H247758   6.492   4.398   7.808
15946TIP3   OH247759   6.036   5.679   7.126
15946TIP3    H147760   5.996   5.730   7.197
15946TIP3    H247761   6.011   5.733   7.048
15947TIP3   OH247762   6.198   6.224   8.192
15947TIP3    H147763   6.286   6.205   8.228
15947TIP3    H247764   6.160   6.135   8.189
15948TIP3   OH247765   6.662   5.778   6.373
15948TIP3    H147766   6.608   5.704   6.410
15948TIP3    H247767   6.737   5.729   6.335
15949TIP3   OH247768   7.097   5.814   6.283
15949TIP3    H147769   7.153   5.765   6.345
15949TIP3    H247770   7.152   5.819   6.203
15950TIP3   OH247771   6.325   5.631   8.406
15950TIP3    H147772   6.346   5.535   8.398
15950TIP3    H247773   6.240   5.637   8.357
15951TIP3   OH247774   6.306   5.293   6.592
15951TIP3    H147775   6.359   5.262   6.668
15951TIP3    H247776   6.375   5.299   6.523
15952TIP3   OH247777   6.931   5.711   8.174
15952TIP3    H147778   6.896   5.739   8.088
15952TIP3    H247779   6.957   5.617   8.161
15953TIP3   OH247780   6.820   5.481   6.400
15953TIP3    H147781   6.819   5.500   6.496
15953TIP3    H247782   6.784   5.391   6.397
15954TIP3   OH247783   7.454   5.763   7.811
15954TIP3    H147784   7.510   5.732   7.739
15954TIP3    H247785   7.372   5.785   7.765
15955TIP3   OH247786   6.447   5.373   8.379
15955TIP3    H147787   6.522   5.317   8.356
15955TIP3    H247788   6.470   5.397   8.471
15956TIP3   OH247789   6.514   5.196   6.818
15956TIP3    H147790   6.484   5.159   6.903
15956TIP3    H247791   6.546   5.116   6.772
15957TIP3   OH247792   6.775   5.253   8.040
15957TIP3    H147793   6.704   5.321   8.044
15957TIP3    H247794   6.831   5.288   7.966
15958TIP3   OH247795   6.612   4.988   6.657
15958TIP3    H147796   6.583   4.991   6.563
15958TIP3    H247797   6.708   5.001   6.647
15959TIP3   OH247798   7.439   5.322   6.321
15959TIP3    H147799   7.411   5.277   6.239
15959TIP3    H247800   7.406   5.413   6.300
15960TIP3   OH247801   6.902   5.047   8.172
15960TIP3    H147802   6.906   4.967   8.116
15960TIP3    H247803   6.860   5.112   8.113
15961TIP3   OH247804   6.906   4.832   7.983
15961TIP3    H147805   6.936   4.875   7.900
15961TIP3    H247806   6.813   4.811   7.961
15962TIP3   OH247807   6.939   5.356   7.852
15962TIP3    H147808   7.030   5.362   7.820
15962TIP3    H247809   6.892   5.424   7.799
15963TIP3   OH247810   6.780   5.162   8.399
15963TIP3    H147811   6.713   5.093   8.416
15963TIP3    H247812   6.815   5.134   8.313
15964TIP3   OH247813   7.039   4.598   8.049
15964TIP3    H147814   6.991   4.680   8.026
15964TIP3    H247815   6.969   4.530   8.035
15965TIP3   OH247816   7.167   5.093   8.260
15965TIP3    H147817   7.146   5.093   8.355
15965TIP3    H247818   7.078   5.073   8.224
15966TIP3   OH247819   7.389   5.046   8.093
15966TIP3    H147820   7.322   5.052   8.164
15966TIP3    H247821   7.468   5.014   8.142
15967TIP3   OH247822   7.618   4.961   8.213
15967TIP3    H147823   7.635   4.866   8.226
15967TIP3    H247824   7.629   4.994   8.305
15968TIP3   OH247825   6.621   4.941   8.452
15968TIP3    H147826   6.630   4.849   8.420
15968TIP3    H247827   6.655   4.931   8.543
15969TIP3   OH247828   7.136   4.608   8.305
15969TIP3    H147829   7.203   4.537   8.298
15969TIP3    H247830   7.095   4.603   8.216
15970TIP3   OH247831   7.194   4.821   8.468
15970TIP3    H147832   7.179   4.751   8.401
15970TIP3    H247833   7.119   4.882   8.452
15971TIP3   OH247834   6.421   6.052   6.567
15971TIP3    H147835   6.516   6.053   6.548
15971TIP3    H247836   6.389   6.100   6.488
15972TIP3   OH247837   5.900   5.434   6.778
15972TIP3    H147838   5.995   5.456   6.765
15972TIP3    H247839   5.895   5.345   6.737
15973TIP3   OH247840   5.819   6.047   7.190
15973TIP3    H147841   5.750   5.988   7.152
15973TIP3    H247842   5.857   5.989   7.259
15974TIP3   OH247843   5.952   5.903   7.380
15974TIP3    H147844   5.937   5.826   7.438
15974TIP3    H247845   6.005   5.959   7.440
15975TIP3   OH247846   7.567   5.507   6.652
15975TIP3    H147847   7.635   5.570   6.621
15975TIP3    H247848   7.612   5.470   6.732
15976TIP3   OH247849   7.693   5.373   6.854
15976TIP3    H147850   7.630   5.333   6.918
15976TIP3    H247851   7.762   5.411   6.913
15977TIP3   OH247852   7.739   5.757   7.284
15977TIP3    H147853   7.787   5.694   7.229
15977TIP3    H247854   7.734   5.836   7.226
15978TIP3   OH247855   7.636   5.281   6.504
15978TIP3    H147856   7.565   5.288   6.436
15978TIP3    H247857   7.611   5.356   6.561
15979TIP3   OH247858   7.492   4.963   6.469
15979TIP3    H147859   7.494   5.000   6.380
15979TIP3    H247860   7.474   4.868   6.453
15980TIP3   OH247861   7.510   5.232   7.007
15980TIP3    H147862   7.523   5.136   7.005
15980TIP3    H247863   7.493   5.247   7.103
15981TIP3   OH247864   6.138   5.305   7.751
15981TIP3    H147865   6.138   5.275   7.658
15981TIP3    H247866   6.236   5.307   7.768
15982TIP3   OH247867   7.452   4.695   6.439
15982TIP3    H147868   7.531   4.666   6.491
15982TIP3    H247869   7.384   4.632   6.468
15983TIP3   OH247870   7.505   4.945   6.896
15983TIP3    H147871   7.547   4.857   6.912
15983TIP3    H247872   7.568   4.981   6.832
15984TIP3   OH247873   7.669   5.118   7.392
15984TIP3    H147874   7.756   5.146   7.355
15984TIP3    H247875   7.679   5.155   7.482
15985TIP3   OH247876   7.727   5.266   7.624
15985TIP3    H147877   7.637   5.288   7.655
15985TIP3    H247878   7.758   5.351   7.586
15986TIP3   OH247879   6.355   4.993   8.421
15986TIP3    H147880   6.453   4.988   8.426
15986TIP3    H247881   6.332   4.907   8.462
15987TIP3   OH247882   7.617   4.698   6.936
15987TIP3    H147883   7.667   4.685   7.019
15987TIP3    H247884   7.558   4.620   6.938
15988TIP3   OH247885   6.316   4.685   7.758
15988TIP3    H147886   6.378   4.610   7.767
15988TIP3    H247887   6.379   4.759   7.750
15989TIP3   OH247888   6.119   4.958   7.827
15989TIP3    H147889   6.170   4.953   7.744
15989TIP3    H247890   6.150   5.042   7.863
15990TIP3   OH247891   8.055   4.966   8.005
15990TIP3    H147892   7.979   5.027   7.993
15990TIP3    H247893   8.031   4.898   7.941
15991TIP3   OH247894   7.696   4.637   6.562
15991TIP3    H147895   7.742   4.562   6.519
15991TIP3    H247896   7.767   4.704   6.567
15992TIP3   OH247897   6.104   4.463   7.331
15992TIP3    H147898   6.010   4.459   7.355
15992TIP3    H247899   6.103   4.519   7.251
15993TIP3   OH247900   7.268   6.153   6.833
15993TIP3    H147901   7.321   6.147   6.751
15993TIP3    H247902   7.301   6.235   6.872
15994TIP3   OH247903   6.323   4.540   8.143
15994TIP3    H147904   6.274   4.537   8.227
15994TIP3    H247905   6.255   4.579   8.083
15995TIP3   OH247906   6.360   5.975   8.237
15995TIP3    H147907   6.273   5.944   8.207
15995TIP3    H247908   6.362   5.943   8.329
15996TIP3   OH247909   6.539   5.998   7.764
15996TIP3    H147910   6.490   6.075   7.727
15996TIP3    H247911   6.624   6.015   7.719
15997TIP3   OH247912   7.955   4.752   7.856
15997TIP3    H147913   7.864   4.755   7.823
15997TIP3    H247914   7.979   4.658   7.846
15998TIP3   OH247915   6.212   6.253   7.793
15998TIP3    H147916   6.122   6.284   7.769
15998TIP3    H247917   6.228   6.311   7.870
15999TIP3   OH247918   6.446   6.227   7.648
15999TIP3    H147919   6.359   6.243   7.691
15999TIP3    H247920   6.434   6.269   7.561
16000TIP3   OH247921   6.878   6.258   7.443
16000TIP3    H147922   6.813   6.278   7.372
16000TIP3    H247923   6.885   6.345   7.487
16001TIP3   OH247924   7.139   6.189   7.496
16001TIP3    H147925   7.048   6.217   7.474
16001TIP3    H247926   7.191   6.226   7.424
16002TIP3   OH247927   6.132   6.053   7.533
16002TIP3    H147928   6.156   6.028   7.625
16002TIP3    H247929   6.203   6.006   7.484
16003TIP3   OH247930   6.323   5.924   7.388
16003TIP3    H147931   6.334   5.840   7.436
16003TIP3    H247932   6.414   5.959   7.389
16004TIP3   OH247933   6.586   6.010   7.393
16004TIP3    H147934   6.625   5.920   7.395
16004TIP3    H247935   6.628   6.046   7.473
16005TIP3   OH247936   7.153   4.666   7.462
16005TIP3    H147937   7.119   4.605   7.530
16005TIP3    H247938   7.241   4.629   7.442
16006TIP3   OH247939   7.691   4.547   7.384
16006TIP3    H147940   7.725   4.606   7.313
16006TIP3    H247941   7.598   4.576   7.391
16007TIP3   OH247942   7.785   4.656   7.150
16007TIP3    H147943   7.860   4.607   7.110
16007TIP3    H247944   7.818   4.748   7.139
16008TIP3   OH247945   6.417   4.382   7.499
16008TIP3    H147946   6.324   4.351   7.502
16008TIP3    H247947   6.464   4.296   7.492
16009TIP3   OH247948   6.194   4.250   7.136
16009TIP3    H147949   6.229   4.311   7.069
16009TIP3    H247950   6.178   4.309   7.212
16010TIP3   OH247951   6.856   4.416   7.384
16010TIP3    H147952   6.911   4.466   7.322
16010TIP3    H247953   6.884   4.454   7.469
16011TIP3   OH247954   7.402   4.559   7.366
16011TIP3    H147955   7.404   4.522   7.277
16011TIP3    H247956   7.387   4.479   7.421
16012TIP3   OH247957   7.433   4.483   6.926
16012TIP3    H147958   7.347   4.527   6.944
16012TIP3    H247959   7.420   4.398   6.974
16013TIP3   OH247960   5.923   5.831   6.928
16013TIP3    H147961   5.842   5.788   6.896
16013TIP3    H247962   5.904   5.923   6.903
16014TIP3   OH247963   6.318   4.413   6.911
16014TIP3    H147964   6.366   4.350   6.855
16014TIP3    H247965   6.391   4.467   6.947
16015TIP3   OH247966   6.831   4.588   7.010
16015TIP3    H147967   6.891   4.541   7.071
16015TIP3    H247968   6.851   4.681   7.038
16016TIP3   OH247969   6.690   6.015   6.513
16016TIP3    H147970   6.779   6.037   6.477
16016TIP3    H247971   6.668   5.941   6.452
16017TIP3   OH247972   7.407   6.129   6.598
16017TIP3    H147973   7.393   6.032   6.587
16017TIP3    H247974   7.360   6.164   6.519
16018TIP3   OH247975   6.622   4.662   8.390
16018TIP3    H147976   6.587   4.592   8.448
16018TIP3    H247977   6.716   4.663   8.418
16019TIP3   OH247978   6.871   4.662   8.509
16019TIP3    H147979   6.956   4.636   8.469
16019TIP3    H247980   6.858   4.591   8.575
16020TIP3   OH247981   5.993   5.847   6.565
16020TIP3    H147982   5.989   5.874   6.658
16020TIP3    H247983   6.082   5.806   6.558
16021TIP3   OH247984   7.685   4.707   8.291
16021TIP3    H147985   7.705   4.688   8.385
16021TIP3    H247986   7.773   4.695   8.248
16022TIP3   OH247987   7.878   5.153   6.813
16022TIP3    H147988   7.834   5.238   6.830
16022TIP3    H247989   7.804   5.102   6.777
16023TIP3   OH247990   7.928   5.440   6.975
16023TIP3    H147991   7.981   5.365   7.010
16023TIP3    H247992   7.991   5.484   6.918
16024TIP3   OH247993   8.455   5.032   6.988
16024TIP3    H147994   8.430   5.104   6.926
16024TIP3    H247995   8.403   4.959   6.948
16025TIP3   OH247996   9.148   5.111   6.606
16025TIP3    H147997   9.214   5.110   6.676
16025TIP3    H247998   9.194   5.158   6.535
16026TIP3   OH247999   8.083   5.243   7.088
16026TIP3    H148000   8.165   5.220   7.137
16026TIP3    H248001   8.095   5.183   7.011
16027TIP3   OH248002   8.514   5.429   6.874
16027TIP3    H148003   8.604   5.409   6.900
16027TIP3    H248004   8.479   5.342   6.845
16028TIP3   OH248005   8.316   5.152   7.200
16028TIP3    H148006   8.386   5.212   7.227
16028TIP3    H248007   8.365   5.093   7.139
16029TIP3   OH248008   7.771   5.670   6.546
16029TIP3    H148009   7.737   5.714   6.467
16029TIP3    H248010   7.810   5.743   6.597
16030TIP3   OH248011   8.756   4.767   7.105
16030TIP3    H148012   8.740   4.679   7.144
16030TIP3    H248013   8.703   4.825   7.161
16031TIP3   OH248014   8.724   5.491   6.381
16031TIP3    H148015   8.651   5.552   6.361
16031TIP3    H248016   8.777   5.494   6.299
16032TIP3   OH248017   8.687   5.278   6.100
16032TIP3    H148018   8.751   5.334   6.149
16032TIP3    H248019   8.750   5.218   6.055
16033TIP3   OH248020   3.899   0.429   1.229
16033TIP3    H148021   3.860   0.500   1.282
16033TIP3    H248022   3.994   0.437   1.252
16034TIP3   OH248023   8.309   5.579   6.775
16034TIP3    H148024   8.272   5.519   6.708
16034TIP3    H248025   8.386   5.527   6.809
16035TIP3   OH248026   8.910   5.433   6.170
16035TIP3    H148027   8.964   5.486   6.234
16035TIP3    H248028   8.949   5.461   6.084
16036TIP3   OH248029   9.463   4.711   6.248
16036TIP3    H148030   9.390   4.698   6.312
16036TIP3    H248031   9.413   4.721   6.167
16037TIP3   OH248032   8.181   5.420   6.577
16037TIP3    H148033   8.114   5.467   6.523
16037TIP3    H248034   8.136   5.337   6.597
16038TIP3   OH248035   7.815   5.962   7.108
16038TIP3    H148036   7.876   5.976   7.033
16038TIP3    H248037   7.777   6.048   7.126
16039TIP3   OH248038   7.955   6.179   6.635
16039TIP3    H148039   7.956   6.118   6.712
16039TIP3    H248040   7.890   6.135   6.579
16040TIP3   OH248041   8.743   6.244   5.917
16040TIP3    H148042   8.792   6.176   5.866
16040TIP3    H248043   8.811   6.268   5.982
16041TIP3   OH248044   8.998   5.504   5.919
16041TIP3    H148045   8.975   5.460   5.835
16041TIP3    H248046   9.072   5.560   5.889
16042TIP3   OH248047   8.704   4.862   6.231
16042TIP3    H148048   8.675   4.859   6.324
16042TIP3    H248049   8.668   4.777   6.199
16043TIP3   OH248050   8.379   5.206   6.793
16043TIP3    H148051   8.285   5.182   6.811
16043TIP3    H248052   8.390   5.167   6.704
16044TIP3   OH248053   8.863   5.297   6.516
16044TIP3    H148054   8.812   5.370   6.475
16044TIP3    H248055   8.924   5.273   6.444
16045TIP3   OH248056   9.023   5.330   6.740
16045TIP3    H148057   8.959   5.339   6.668
16045TIP3    H248058   9.058   5.242   6.720
16046TIP3   OH248059   8.359   4.831   6.197
16046TIP3    H148060   8.356   4.831   6.295
16046TIP3    H248061   8.284   4.890   6.177
16047TIP3   OH248062   7.914   4.878   7.067
16047TIP3    H148063   7.987   4.910   7.125
16047TIP3    H248064   7.962   4.845   6.989
16048TIP3   OH248065   7.878   4.858   6.587
16048TIP3    H148066   7.928   4.896   6.512
16048TIP3    H248067   7.821   4.934   6.609
16049TIP3   OH248068   8.715   5.030   6.860
16049TIP3    H148069   8.631   5.031   6.911
16049TIP3    H248070   8.777   5.066   6.926
16050TIP3   OH248071   8.140   5.093   6.864
16050TIP3    H148072   8.045   5.097   6.836
16050TIP3    H248073   8.166   5.001   6.844
16051TIP3   OH248074   8.410   5.086   6.550
16051TIP3    H148075   8.504   5.104   6.532
16051TIP3    H248076   8.365   5.110   6.466
16052TIP3   OH248077   8.250   5.118   6.328
16052TIP3    H148078   8.178   5.078   6.277
16052TIP3    H248079   8.303   5.158   6.256
16053TIP3   OH248080   8.309   4.858   6.830
16053TIP3    H148081   8.269   4.780   6.875
16053TIP3    H248082   8.362   4.815   6.761
16054TIP3   OH248083   8.499   5.657   6.341
16054TIP3    H148084   8.430   5.589   6.326
16054TIP3    H248085   8.481   5.684   6.434
16055TIP3   OH248086   8.960   4.962   6.198
16055TIP3    H148087   8.863   4.951   6.205
16055TIP3    H248088   8.974   5.057   6.221
16056TIP3   OH248089   9.026   5.209   6.300
16056TIP3    H148090   9.122   5.211   6.317
16056TIP3    H248091   9.015   5.285   6.240
16057TIP3   OH248092   8.195   5.607   7.057
16057TIP3    H148093   8.182   5.649   6.970
16057TIP3    H248094   8.269   5.549   7.037
16058TIP3   OH248095   8.642   5.798   6.144
16058TIP3    H148096   8.606   5.888   6.161
16058TIP3    H248097   8.596   5.747   6.214
16059TIP3   OH248098   9.489   5.280   6.095
16059TIP3    H148099   9.431   5.213   6.056
16059TIP3    H248100   9.472   5.352   6.030
16060TIP3   OH248101   8.263   5.946   6.610
16060TIP3    H148102   8.294   6.037   6.625
16060TIP3    H248103   8.191   5.938   6.677
16061TIP3   OH248104   7.856   5.282   6.335
16061TIP3    H148105   7.905   5.364   6.357
16061TIP3    H248106   7.782   5.287   6.400
16062TIP3   OH248107   8.447   5.749   6.599
16062TIP3    H148108   8.381   5.823   6.596
16062TIP3    H248109   8.404   5.692   6.666
16063TIP3   OH248110   8.186   6.236   6.462
16063TIP3    H148111   8.103   6.213   6.508
16063TIP3    H248112   8.242   6.265   6.535
16064TIP3   OH248113   8.891   5.865   5.957
16064TIP3    H148114   8.967   5.826   6.002
16064TIP3    H248115   8.816   5.826   6.005
16065TIP3   OH248116   8.329   5.111   7.584
16065TIP3    H148117   8.250   5.151   7.625
16065TIP3    H248118   8.320   5.020   7.616
16066TIP3   OH248119   8.289   5.829   5.947
16066TIP3    H148120   8.312   5.738   5.920
16066TIP3    H248121   8.272   5.817   6.043
16067TIP3   OH248122   8.238   5.832   6.219
16067TIP3    H148123   8.307   5.806   6.283
16067TIP3    H248124   8.241   5.930   6.226
16068TIP3   OH248125   7.973   5.524   6.423
16068TIP3    H148126   7.907   5.569   6.480
16068TIP3    H248127   7.990   5.595   6.358
16069TIP3   OH248128   9.005   4.909   6.478
16069TIP3    H148129   8.989   4.937   6.386
16069TIP3    H248130   9.047   4.990   6.516
16070TIP3   OH248131   8.513   6.037   6.187
16070TIP3    H148132   8.420   6.062   6.205
16070TIP3    H248133   8.533   6.096   6.113
16071TIP3   OH248134   8.693   5.092   6.584
16071TIP3    H148135   8.755   5.165   6.562
16071TIP3    H248136   8.702   5.088   6.681
16072TIP3   OH248137   8.840   4.823   6.688
16072TIP3    H148138   8.824   4.902   6.743
16072TIP3    H248139   8.898   4.860   6.618
16073TIP3   OH248140   8.247   6.105   6.228
16073TIP3    H148141   8.219   6.176   6.166
16073TIP3    H248142   8.225   6.149   6.314
16074TIP3   OH248143   8.349   4.820   6.474
16074TIP3    H148144   8.347   4.911   6.511
16074TIP3    H248145   8.445   4.802   6.484
16075TIP3   OH248146   7.964   5.737   6.229
16075TIP3    H148147   8.027   5.809   6.244
16075TIP3    H248148   8.014   5.686   6.162
16076TIP3   OH248149   7.912   5.014   6.364
16076TIP3    H148150   7.916   5.111   6.357
16076TIP3    H248151   7.828   4.994   6.321
16077TIP3   OH248152   8.457   6.030   5.863
16077TIP3    H148153   8.402   5.955   5.896
16077TIP3    H248154   8.535   5.982   5.830
16078TIP3   OH248155   8.892   6.070   5.765
16078TIP3    H148156   8.924   6.001   5.827
16078TIP3    H248157   8.970   6.084   5.708
16079TIP3   OH248158   8.100   5.548   6.081
16079TIP3    H148159   8.157   5.518   6.155
16079TIP3    H248160   8.167   5.553   6.010
16080TIP3   OH248161   8.594   5.741   5.881
16080TIP3    H148162   8.607   5.758   5.977
16080TIP3    H248163   8.602   5.643   5.879
16081TIP3   OH248164   8.308   5.454   6.304
16081TIP3    H148165   8.283   5.414   6.388
16081TIP3    H248166   8.346   5.378   6.255
16082TIP3   OH248167   8.409   5.244   6.146
16082TIP3    H148168   8.385   5.252   6.051
16082TIP3    H248169   8.507   5.248   6.140
16083TIP3   OH248170   8.217   6.317   6.052
16083TIP3    H148171   8.314   6.304   6.037
16083TIP3    H248172   8.193   6.360   5.968
16084TIP3   OH248173   7.695   5.693   6.259
16084TIP3    H148174   7.791   5.715   6.249
16084TIP3    H248175   7.693   5.603   6.222
16085TIP3   OH248176   7.612   6.298   6.670
16085TIP3    H148177   7.544   6.234   6.638
16085TIP3    H248178   7.657   6.244   6.739
16086TIP3   OH248179   7.739   6.156   6.861
16086TIP3    H148180   7.755   6.063   6.881
16086TIP3    H248181   7.792   6.202   6.929
16087TIP3   OH248182   9.385   5.500   5.964
16087TIP3    H148183   9.340   5.539   5.886
16087TIP3    H248184   9.428   5.580   5.997
16088TIP3   OH248185   9.231   5.221   5.971
16088TIP3    H148186   9.272   5.279   5.906
16088TIP3    H248187   9.241   5.133   5.932
16089TIP3   OH248188   7.948   5.550   7.223
16089TIP3    H148189   7.916   5.525   7.134
16089TIP3    H248190   8.040   5.523   7.215
16090TIP3   OH248191   9.251   4.942   5.937
16090TIP3    H148192   9.303   4.887   5.996
16090TIP3    H248193   9.165   4.897   5.936
16091TIP3   OH248194   9.290   5.194   6.381
16091TIP3    H148195   9.341   5.111   6.387
16091TIP3    H248196   9.356   5.256   6.346
16092TIP3   OH248197   9.410   4.955   6.434
16092TIP3    H148198   9.460   4.930   6.513
16092TIP3    H248199   9.350   4.879   6.423
16093TIP3   OH248200   8.123   4.939   7.241
16093TIP3    H148201   8.187   4.868   7.264
16093TIP3    H248202   8.182   5.016   7.246
16094TIP3   OH248203   7.915   5.209   7.313
16094TIP3    H148204   7.968   5.211   7.231
16094TIP3    H248205   7.934   5.296   7.351
16095TIP3   OH248206   7.895   4.707   6.810
16095TIP3    H148207   7.805   4.715   6.844
16095TIP3    H248208   7.896   4.772   6.737
16096TIP3   OH248209   8.125   4.800   7.640
16096TIP3    H148210   8.064   4.793   7.715
16096TIP3    H248211   8.068   4.844   7.574
16097TIP3   OH248212   8.980   4.918   6.986
16097TIP3    H148213   8.897   4.872   7.006
16097TIP3    H248214   9.022   4.865   6.917
16098TIP3   OH248215   8.204   4.637   6.945
16098TIP3    H148216   8.117   4.608   6.977
16098TIP3    H248217   8.263   4.569   6.981
16099TIP3   OH248218   7.989   4.509   6.631
16099TIP3    H148219   8.026   4.568   6.564
16099TIP3    H248220   7.967   4.572   6.703
16100TIP3   OH248221   8.654   4.670   6.862
16100TIP3    H148222   8.711   4.721   6.802
16100TIP3    H248223   8.664   4.722   6.944
16101TIP3   OH248224   9.213   4.818   6.837
16101TIP3    H148225   9.197   4.795   6.746
16101TIP3    H248226   9.193   4.735   6.885
16102TIP3   OH248227   9.234   4.737   6.419
16102TIP3    H148228   9.149   4.785   6.422
16102TIP3    H248229   9.209   4.653   6.462
16103TIP3   OH248230   7.716   6.074   6.418
16103TIP3    H148231   7.630   6.044   6.386
16103TIP3    H248232   7.703   6.170   6.414
16104TIP3   OH248233   8.114   4.670   6.397
16104TIP3    H148234   8.164   4.608   6.341
16104TIP3    H248235   8.186   4.724   6.434
16105TIP3   OH248236   8.628   4.843   6.498
16105TIP3    H148237   8.690   4.799   6.558
16105TIP3    H248238   8.646   4.936   6.523
16106TIP3   OH248239   8.479   6.273   5.990
16106TIP3    H148240   8.572   6.290   5.966
16106TIP3    H248241   8.463   6.195   5.933
16107TIP3   OH248242   7.790   6.107   6.057
16107TIP3    H148243   7.786   6.122   6.152
16107TIP3    H248244   7.879   6.066   6.045
16108TIP3   OH248245   1.335   6.429   8.266
16108TIP3    H148246   1.329   6.518   8.227
16108TIP3    H248247   1.274   6.381   8.207
16109TIP3   OH248248   1.181   6.368   8.570
16109TIP3    H148249   1.226   6.340   8.651
16109TIP3    H248250   1.245   6.346   8.501
16110TIP3   OH248251   1.585   6.680   8.302
16110TIP3    H148252   1.639   6.642   8.373
16110TIP3    H248253   1.580   6.773   8.328
16111TIP3   OH248254   2.167   6.004   8.660
16111TIP3    H148255   2.194   6.089   8.700
16111TIP3    H248256   2.190   6.020   8.567
16112TIP3   OH248257   1.592   6.187   8.706
16112TIP3    H148258   1.631   6.098   8.711
16112TIP3    H248259   1.543   6.181   8.623
16113TIP3   OH248260   1.598   5.917   8.300
16113TIP3    H148261   1.669   5.898   8.365
16113TIP3    H248262   1.651   5.948   8.224
16114TIP3   OH248263   2.266   6.216   8.817
16114TIP3    H148264   2.187   6.271   8.804
16114TIP3    H248265   2.232   6.161   8.892
16115TIP3   OH248266   1.253   6.637   8.112
16115TIP3    H148267   1.223   6.618   8.022
16115TIP3    H248268   1.217   6.728   8.123
16116TIP3   OH248269   1.806   5.911   8.478
16116TIP3    H148270   1.826   5.869   8.564
16116TIP3    H248271   1.860   5.991   8.487
16117TIP3   OH248272   1.930   5.867   8.733
16117TIP3    H148273   1.899   5.947   8.777
16117TIP3    H248274   2.023   5.891   8.714
16118TIP3   OH248275   1.517   6.794   8.059
16118TIP3    H148276   1.493   6.729   7.991
16118TIP3    H248277   1.549   6.735   8.130
16119TIP3   OH248278   1.175   6.295   8.073
16119TIP3    H148279   1.089   6.319   8.036
16119TIP3    H248280   1.229   6.288   7.991
16120TIP3   OH248281   1.170   6.071   7.798
16120TIP3    H148282   1.240   6.128   7.836
16120TIP3    H248283   1.224   6.007   7.747
16121TIP3   OH248284   2.070   6.549   8.662
16121TIP3    H148285   2.010   6.623   8.644
16121TIP3    H248286   2.118   6.549   8.577
16122TIP3   OH248287   1.529   6.371   8.058
16122TIP3    H148288   1.483   6.395   8.141
16122TIP3    H248289   1.616   6.343   8.094
16123TIP3   OH248290   1.375   6.232   7.879
16123TIP3    H148291   1.434   6.292   7.930
16123TIP3    H248292   1.402   6.254   7.786
16124TIP3   OH248293   1.888   5.468   7.923
16124TIP3    H148294   1.807   5.489   7.974
16124TIP3    H248295   1.901   5.552   7.874
16125TIP3   OH248296   1.686   6.836   7.471
16125TIP3    H148297   1.694   6.932   7.456
16125TIP3    H248298   1.779   6.807   7.459
16126TIP3   OH248299   1.223   7.083   7.587
16126TIP3    H148300   1.261   6.997   7.558
16126TIP3    H248301   1.225   7.075   7.684
16127TIP3   OH248302   1.241   7.097   7.870
16127TIP3    H148303   1.155   7.077   7.909
16127TIP3    H248304   1.302   7.061   7.936
16128TIP3   OH248305   1.451   6.273   7.623
16128TIP3    H148306   1.415   6.248   7.536
16128TIP3    H248307   1.530   6.323   7.596
16129TIP3   OH248308   1.163   5.648   7.920
16129TIP3    H148309   1.133   5.642   8.013
16129TIP3    H248310   1.128   5.564   7.885
16130TIP3   OH248311   1.326   6.098   8.207
16130TIP3    H148312   1.271   6.165   8.162
16130TIP3    H248313   1.380   6.063   8.133
16131TIP3   OH248314   1.473   6.122   8.449
16131TIP3    H148315   1.416   6.141   8.371
16131TIP3    H248316   1.512   6.039   8.416
16132TIP3   OH248317   0.833   5.606   7.883
16132TIP3    H148318   0.816   5.592   7.978
16132TIP3    H248319   0.751   5.649   7.856
16133TIP3   OH248320   1.175   5.812   8.498
16133TIP3    H148321   1.109   5.755   8.539
16133TIP3    H248322   1.221   5.853   8.574
16134TIP3   OH248323   0.871   5.859   8.204
16134TIP3    H148324   0.969   5.870   8.209
16134TIP3    H248325   0.848   5.927   8.140
16135TIP3   OH248326   1.608   5.916   8.739
16135TIP3    H148327   1.542   5.948   8.803
16135TIP3    H248328   1.552   5.863   8.679
16136TIP3   OH248329   1.261   6.071   8.632
16136TIP3    H148330   1.332   6.093   8.568
16136TIP3    H248331   1.264   6.143   8.696
16137TIP3   OH248332   1.413   5.752   7.890
16137TIP3    H148333   1.316   5.734   7.896
16137TIP3    H248334   1.420   5.847   7.914
16138TIP3   OH248335   1.483   6.001   7.994
16138TIP3    H148336   1.579   6.003   8.010
16138TIP3    H248337   1.468   6.080   7.939
16139TIP3   OH248338   1.099   6.593   7.876
16139TIP3    H148339   1.061   6.682   7.880
16139TIP3    H248340   1.030   6.539   7.920
16140TIP3   OH248341   1.924   6.090   7.830
16140TIP3    H148342   1.862   6.045   7.767
16140TIP3    H248343   1.922   6.179   7.789
16141TIP3   OH248344   1.626   6.905   7.737
16141TIP3    H148345   1.598   6.833   7.795
16141TIP3    H248346   1.635   6.862   7.650
16142TIP3   OH248347   1.694   6.563   8.543
16142TIP3    H148348   1.630   6.534   8.610
16142TIP3    H248349   1.712   6.478   8.498
16143TIP3   OH248350   1.387   6.636   7.633
16143TIP3    H148351   1.424   6.608   7.720
16143TIP3    H248352   1.294   6.606   7.640
16144TIP3   OH248353   1.723   7.109   7.454
16144TIP3    H148354   1.759   7.187   7.408
16144TIP3    H248355   1.642   7.150   7.492
16145TIP3   OH248356   1.538   6.573   7.865
16145TIP3    H148357   1.531   6.503   7.932
16145TIP3    H248358   1.634   6.568   7.844
16146TIP3   OH248359   1.460   5.706   8.168
16146TIP3    H148360   1.445   5.726   8.073
16146TIP3    H248361   1.496   5.790   8.202
16147TIP3   OH248362   1.143   5.891   8.243
16147TIP3    H148363   1.210   5.961   8.231
16147TIP3    H248364   1.151   5.876   8.340
16148TIP3   OH248365   1.302   5.604   8.366
16148TIP3    H148366   1.284   5.683   8.421
16148TIP3    H248367   1.362   5.642   8.298
16149TIP3   OH248368   0.829   5.576   8.170
16149TIP3    H148369   0.824   5.653   8.229
16149TIP3    H248370   0.927   5.567   8.166
16150TIP3   OH248371   1.707   6.302   8.446
16150TIP3    H148372   1.632   6.243   8.461
16150TIP3    H248373   1.779   6.255   8.494
16151TIP3   OH248374   0.924   6.798   7.558
16151TIP3    H148375   0.855   6.730   7.556
16151TIP3    H248376   0.983   6.768   7.489
16152TIP3   OH248377   1.343   6.861   7.462
16152TIP3    H148378   1.388   6.797   7.521
16152TIP3    H248379   1.400   6.860   7.382
16153TIP3   OH248380   1.113   6.544   7.597
16153TIP3    H148381   1.092   6.555   7.691
16153TIP3    H248382   1.100   6.447   7.585
16154TIP3   OH248383   0.902   6.041   7.821
16154TIP3    H148384   0.895   5.985   7.742
16154TIP3    H248385   0.998   6.056   7.826
16155TIP3   OH248386   1.685   6.365   7.497
16155TIP3    H148387   1.664   6.320   7.413
16155TIP3    H248388   1.653   6.455   7.474
16156TIP3   OH248389   1.817   6.552   7.831
16156TIP3    H148390   1.884   6.617   7.801
16156TIP3    H248391   1.862   6.514   7.910
16157TIP3   OH248392   1.946   6.420   8.034
16157TIP3    H148393   1.880   6.380   8.094
16157TIP3    H248394   2.010   6.460   8.096
16158TIP3   OH248395   1.924   6.735   8.374
16158TIP3    H148396   2.006   6.684   8.386
16158TIP3    H248397   1.954   6.805   8.314
16159TIP3   OH248398   1.885   6.328   7.681
16159TIP3    H148399   1.814   6.330   7.612
16159TIP3    H248400   1.857   6.404   7.736
16160TIP3   OH248401   1.755   6.002   7.636
16160TIP3    H148402   1.714   6.039   7.558
16160TIP3    H248403   1.730   5.907   7.627
16161TIP3   OH248404   1.759   6.276   8.179
16161TIP3    H148405   1.769   6.180   8.173
16161TIP3    H248406   1.748   6.290   8.276
16162TIP3   OH248407   1.698   5.736   7.623
16162TIP3    H148408   1.774   5.704   7.675
16162TIP3    H248409   1.627   5.674   7.645
16163TIP3   OH248410   1.757   5.993   8.076
16163TIP3    H148411   1.796   5.903   8.090
16163TIP3    H248412   1.816   6.024   8.005
16164TIP3   OH248413   1.917   6.171   8.564
16164TIP3    H148414   2.004   6.196   8.524
16164TIP3    H248415   1.938   6.194   8.656
16165TIP3   OH248416   2.006   6.311   8.788
16165TIP3    H148417   1.929   6.322   8.846
16165TIP3    H248418   2.017   6.399   8.747
16166TIP3   OH248419   1.863   5.743   8.111
16166TIP3    H148420   1.916   5.728   8.192
16166TIP3    H248421   1.804   5.665   8.111
16167TIP3   OH248422   1.947   5.678   7.745
16167TIP3    H148423   1.987   5.605   7.693
16167TIP3    H248424   2.015   5.747   7.739
16168TIP3   OH248425   1.427   5.731   8.648
16168TIP3    H148426   1.375   5.669   8.702
16168TIP3    H248427   1.493   5.671   8.607
16169TIP3   OH248428   1.936   5.590   8.544
16169TIP3    H148429   1.974   5.646   8.473
16169TIP3    H248430   1.852   5.636   8.561
16170TIP3   OH248431   2.035   5.708   8.320
16170TIP3    H148432   2.108   5.653   8.284
16170TIP3    H248433   2.071   5.798   8.306
16171TIP3   OH248434   1.090   5.526   8.537
16171TIP3    H148435   1.173   5.531   8.488
16171TIP3    H248436   1.110   5.457   8.603
16172TIP3   OH248437   1.643   5.586   8.551
16172TIP3    H148438   1.652   5.580   8.455
16172TIP3    H248439   1.668   5.497   8.579
16173TIP3   OH248440   1.683   5.529   8.103
16173TIP3    H148441   1.595   5.570   8.114
16173TIP3    H248442   1.670   5.444   8.150
16174TIP3   OH248443   1.095   5.627   8.186
16174TIP3    H148444   1.152   5.589   8.255
16174TIP3    H248445   1.113   5.722   8.199
16175TIP3   OH248446   1.672   7.172   7.774
16175TIP3    H148447   1.655   7.075   7.769
16175TIP3    H248448   1.618   7.204   7.699
16176TIP3   OH248449   3.150   6.692   7.734
16176TIP3    H148450   3.122   6.783   7.714
16176TIP3    H248451   3.073   6.642   7.700
16177TIP3   OH248452   3.152   6.690   8.111
16177TIP3    H148453   3.179   6.662   8.200
16177TIP3    H248454   3.107   6.611   8.078
16178TIP3   OH248455   2.447   6.580   8.473
16178TIP3    H148456   2.482   6.511   8.534
16178TIP3    H248457   2.525   6.635   8.460
16179TIP3   OH248458   3.395   6.994   7.794
16179TIP3    H148459   3.374   6.926   7.859
16179TIP3    H248460   3.418   7.070   7.851
16180TIP3   OH248461   2.431   6.993   8.225
16180TIP3    H148462   2.419   6.896   8.216
16180TIP3    H248463   2.520   7.004   8.186
16181TIP3   OH248464   2.127   6.200   7.990
16181TIP3    H148465   2.079   6.283   8.006
16181TIP3    H248466   2.056   6.146   7.951
16182TIP3   OH248467   2.185   6.487   8.161
16182TIP3    H148468   2.234   6.410   8.197
16182TIP3    H248469   2.244   6.516   8.090
16183TIP3   OH248470   3.033   7.452   7.812
16183TIP3    H148471   3.084   7.382   7.766
16183TIP3    H248472   3.032   7.419   7.903
16184TIP3   OH248473   2.948   6.915   8.163
16184TIP3    H148474   2.988   6.841   8.115
16184TIP3    H248475   3.031   6.961   8.189
16185TIP3   OH248476   3.962   6.235   8.162
16185TIP3    H148477   3.989   6.320   8.203
16185TIP3    H248478   3.981   6.252   8.068
16186TIP3   OH248479   3.360   6.418   8.196
16186TIP3    H148480   3.403   6.332   8.214
16186TIP3    H248481   3.328   6.404   8.105
16187TIP3   OH248482   2.699   6.078   8.160
16187TIP3    H148483   2.677   6.150   8.098
16187TIP3    H248484   2.651   6.004   8.117
16188TIP3   OH248485   3.391   6.171   7.783
16188TIP3    H148486   3.464   6.154   7.848
16188TIP3    H248487   3.443   6.205   7.708
16189TIP3   OH248488   2.331   6.280   8.266
16189TIP3    H148489   2.413   6.260   8.314
16189TIP3    H248490   2.344   6.223   8.187
16190TIP3   OH248491   2.771   6.477   8.061
16190TIP3    H148492   2.865   6.452   8.073
16190TIP3    H248493   2.732   6.393   8.028
16191TIP3   OH248494   4.033   6.443   8.335
16191TIP3    H148495   3.951   6.492   8.313
16191TIP3    H248496   4.055   6.483   8.421
16192TIP3   OH248497   2.695   6.063   8.595
16192TIP3    H148498   2.634   6.097   8.527
16192TIP3    H248499   2.641   6.080   8.675
16193TIP3   OH248500   3.043   6.914   7.604
16193TIP3    H148501   2.999   6.892   7.522
16193TIP3    H248502   3.000   6.999   7.627
16194TIP3   OH248503   2.811   6.835   8.388
16194TIP3    H148504   2.750   6.902   8.425
16194TIP3    H248505   2.849   6.882   8.311
16195TIP3   OH248506   3.603   6.171   7.953
16195TIP3    H148507   3.593   6.121   8.035
16195TIP3    H248508   3.655   6.248   7.982
16196TIP3   OH248509   2.565   6.176   8.379
16196TIP3    H148510   2.628   6.247   8.403
16196TIP3    H248511   2.613   6.135   8.303
16197TIP3   OH248512   2.620   7.009   8.476
16197TIP3    H148513   2.619   7.091   8.426
16197TIP3    H248514   2.531   6.974   8.458
16198TIP3   OH248515   2.023   6.720   7.723
16198TIP3    H148516   1.980   6.750   7.641
16198TIP3    H248517   2.053   6.805   7.762
16199TIP3   OH248518   3.467   7.236   7.960
16199TIP3    H148519   3.378   7.222   8.001
16199TIP3    H248520   3.454   7.324   7.919
16200TIP3   OH248521   3.754   6.133   8.329
16200TIP3    H148522   3.666   6.160   8.298
16200TIP3    H248523   3.812   6.166   8.258
16201TIP3   OH248524   3.053   5.779   8.313
16201TIP3    H148525   3.035   5.684   8.326
16201TIP3    H248526   2.974   5.818   8.357
16202TIP3   OH248527   3.167   7.285   7.645
16202TIP3    H148528   3.216   7.202   7.622
16202TIP3    H248529   3.223   7.350   7.598
16203TIP3   OH248530   3.311   7.076   7.545
16203TIP3    H148531   3.276   6.999   7.498
16203TIP3    H248532   3.344   7.035   7.628
16204TIP3   OH248533   3.690   7.148   8.308
16204TIP3    H148534   3.676   7.071   8.249
16204TIP3    H248535   3.669   7.223   8.249
16205TIP3   OH248536   2.980   6.544   7.564
16205TIP3    H148537   2.900   6.595   7.542
16205TIP3    H248538   3.026   6.539   7.478
16206TIP3   OH248539   2.939   6.327   7.282
16206TIP3    H148540   3.007   6.379   7.328
16206TIP3    H248541   2.996   6.263   7.234
16207TIP3   OH248542   3.884   6.786   8.152
16207TIP3    H148543   3.800   6.837   8.157
16207TIP3    H248544   3.913   6.811   8.062
16208TIP3   OH248545   3.328   6.625   7.536
16208TIP3    H148546   3.273   6.650   7.614
16208TIP3    H248547   3.412   6.600   7.581
16209TIP3   OH248548   3.562   6.665   8.448
16209TIP3    H148549   3.558   6.749   8.497
16209TIP3    H248550   3.475   6.668   8.403
16210TIP3   OH248551   2.559   6.623   7.953
16210TIP3    H148552   2.518   6.566   7.885
16210TIP3    H248553   2.636   6.569   7.981
16211TIP3   OH248554   2.681   7.022   8.107
16211TIP3    H148555   2.671   6.989   8.016
16211TIP3    H248556   2.776   7.003   8.124
16212TIP3   OH248557   2.699   6.594   8.309
16212TIP3    H148558   2.729   6.572   8.218
16212TIP3    H248559   2.743   6.680   8.325
16213TIP3   OH248560   3.227   7.218   8.076
16213TIP3    H148561   3.210   7.305   8.118
16213TIP3    H248562   3.205   7.155   8.147
16214TIP3   OH248563   3.168   6.484   7.362
16214TIP3    H148564   3.226   6.544   7.413
16214TIP3    H248565   3.194   6.507   7.269
16215TIP3   OH248566   2.591   6.680   8.710
16215TIP3    H148567   2.598   6.743   8.784
16215TIP3    H248568   2.500   6.696   8.683
16216TIP3   OH248569   2.911   7.162   7.636
16216TIP3    H148570   2.986   7.218   7.663
16216TIP3    H248571   2.849   7.227   7.601
16217TIP3   OH248572   3.685   5.725   7.411
16217TIP3    H148573   3.602   5.745   7.460
16217TIP3    H248574   3.698   5.808   7.360
16218TIP3   OH248575   2.426   6.466   7.758
16218TIP3    H148576   2.359   6.511   7.702
16218TIP3    H248577   2.386   6.380   7.771
16219TIP3   OH248578   3.502   7.183   6.959
16219TIP3    H148579   3.481   7.153   6.870
16219TIP3    H248580   3.572   7.120   6.982
16220TIP3   OH248581   2.329   6.842   8.667
16220TIP3    H148582   2.243   6.860   8.624
16220TIP3    H248583   2.307   6.764   8.721
16221TIP3   OH248584   2.049   6.954   8.269
16221TIP3    H148585   2.143   6.975   8.254
16221TIP3    H248586   2.023   7.029   8.323
16222TIP3   OH248587   3.932   7.493   8.353
16222TIP3    H148588   3.931   7.397   8.369
16222TIP3    H248589   3.851   7.519   8.403
16223TIP3   OH248590   3.041   7.290   8.501
16223TIP3    H148591   3.072   7.361   8.562
16223TIP3    H248592   2.952   7.277   8.537
16224TIP3   OH248593   2.799   7.414   7.447
16224TIP3    H148594   2.737   7.410   7.374
16224TIP3    H248595   2.780   7.504   7.483
16225TIP3   OH248596   2.228   7.260   7.820
16225TIP3    H148597   2.282   7.248   7.902
16225TIP3    H248598   2.166   7.187   7.832
16226TIP3   OH248599   2.998   7.313   7.077
16226TIP3    H148600   3.058   7.241   7.051
16226TIP3    H248601   3.012   7.319   7.173
16227TIP3   OH248602   3.044   7.352   7.352
16227TIP3    H148603   2.955   7.368   7.391
16227TIP3    H248604   3.089   7.310   7.427
16228TIP3   OH248605   3.817   6.624   8.628
16228TIP3    H148606   3.735   6.640   8.578
16228TIP3    H248607   3.828   6.527   8.616
16229TIP3   OH248608   2.813   5.857   8.436
16229TIP3    H148609   2.724   5.826   8.408
16229TIP3    H248610   2.786   5.939   8.483
16230TIP3   OH248611   3.338   5.975   8.632
16230TIP3    H148612   3.401   5.946   8.701
16230TIP3    H248613   3.251   5.955   8.673
16231TIP3   OH248614   3.586   6.402   8.551
16231TIP3    H148615   3.533   6.400   8.634
16231TIP3    H248616   3.561   6.489   8.513
16232TIP3   OH248617   3.245   6.535   7.108
16232TIP3    H148618   3.210   6.506   7.022
16232TIP3    H248619   3.329   6.577   7.081
16233TIP3   OH248620   2.957   5.906   7.409
16233TIP3    H148621   2.922   5.901   7.500
16233TIP3    H248622   2.918   5.823   7.373
16234TIP3   OH248623   2.745   6.371   8.456
16234TIP3    H148624   2.692   6.390   8.536
16234TIP3    H248625   2.730   6.452   8.403
16235TIP3   OH248626   2.627   6.258   7.970
16235TIP3    H148627   2.534   6.232   7.988
16235TIP3    H248628   2.640   6.218   7.881
16236TIP3   OH248629   3.119   6.345   7.698
16236TIP3    H148630   3.066   6.416   7.656
16236TIP3    H248631   3.173   6.313   7.623
16237TIP3   OH248632   3.293   6.628   8.783
16237TIP3    H148633   3.272   6.552   8.842
16237TIP3    H248634   3.387   6.643   8.804
16238TIP3   OH248635   3.275   6.374   7.937
16238TIP3    H148636   3.215   6.403   7.866
16238TIP3    H248637   3.308   6.292   7.894
16239TIP3   OH248638   2.564   6.396   8.660
16239TIP3    H148639   2.588   6.463   8.727
16239TIP3    H248640   2.552   6.315   8.715
16240TIP3   OH248641   2.612   5.879   7.374
16240TIP3    H148642   2.604   5.876   7.472
16240TIP3    H248643   2.533   5.931   7.350
16241TIP3   OH248644   2.158   5.933   8.241
16241TIP3    H148645   2.235   5.958   8.296
16241TIP3    H248646   2.198   5.895   8.161
16242TIP3   OH248647   2.129   5.904   7.766
16242TIP3    H148648   2.175   5.941   7.687
16242TIP3    H248649   2.068   5.978   7.785
16243TIP3   OH248650   3.288   6.618   8.360
16243TIP3    H148651   3.319   6.546   8.301
16243TIP3    H248652   3.256   6.565   8.437
16244TIP3   OH248653   2.956   6.080   8.032
16244TIP3    H148654   2.871   6.078   8.081
16244TIP3    H248655   3.020   6.082   8.105
16245TIP3   OH248656   2.389   6.136   8.039
16245TIP3    H148657   2.294   6.144   8.013
16245TIP3    H248658   2.411   6.044   8.017
16246TIP3   OH248659   2.658   6.134   7.728
16246TIP3    H148660   2.752   6.147   7.704
16246TIP3    H248661   2.610   6.155   7.644
16247TIP3   OH248662   3.448   6.154   8.234
16247TIP3    H148663   3.411   6.169   8.324
16247TIP3    H248664   3.381   6.093   8.197
16248TIP3   OH248665   2.500   6.166   7.508
16248TIP3    H148666   2.427   6.122   7.460
16248TIP3    H248667   2.551   6.202   7.432
16249TIP3   OH248668   3.037   6.408   8.129
16249TIP3    H148669   3.110   6.369   8.078
16249TIP3    H248670   3.047   6.365   8.216
16250TIP3   OH248671   2.562   5.896   8.007
16250TIP3    H148672   2.526   5.818   8.054
16250TIP3    H248673   2.609   5.856   7.933
16251TIP3   OH248674   3.015   6.304   8.421
16251TIP3    H148675   2.924   6.339   8.431
16251TIP3    H248676   3.070   6.368   8.469
16252TIP3   OH248677   2.749   6.698   7.513
16252TIP3    H148678   2.679   6.630   7.504
16252TIP3    H248679   2.732   6.730   7.605
16253TIP3   OH248680   3.652   6.931   8.143
16253TIP3    H148681   3.673   6.982   8.062
16253TIP3    H248682   3.566   6.889   8.119
16254TIP3   OH248683   3.209   6.006   7.380
16254TIP3    H148684   3.112   5.989   7.384
16254TIP3    H248685   3.217   6.102   7.400
16255TIP3   OH248686   3.145   7.012   8.514
16255TIP3    H148687   3.178   6.994   8.603
16255TIP3    H248688   3.117   7.105   8.521
16256TIP3   OH248689   3.278   6.257   7.481
16256TIP3    H148690   3.375   6.263   7.494
16256TIP3    H248691   3.259   6.336   7.427
16257TIP3   OH248692   2.445   6.718   8.189
16257TIP3    H148693   2.482   6.690   8.103
16257TIP3    H248694   2.479   6.649   8.249
16258TIP3   OH248695   2.896   6.845   7.335
16258TIP3    H148696   2.853   6.933   7.342
16258TIP3    H248697   2.841   6.792   7.396
16259TIP3   OH248698   2.302   6.614   8.831
16259TIP3    H148699   2.333   6.554   8.901
16259TIP3    H248700   2.236   6.558   8.786
16260TIP3   OH248701   3.043   6.745   8.824
16260TIP3    H148702   2.990   6.683   8.772
16260TIP3    H248703   3.134   6.723   8.793
16261TIP3   OH248704   3.312   7.263   8.400
16261TIP3    H148705   3.216   7.274   8.411
16261TIP3    H248706   3.346   7.308   8.481
16262TIP3   OH248707   3.721   6.346   7.315
16262TIP3    H148708   3.658   6.301   7.253
16262TIP3    H248709   3.718   6.435   7.275
16263TIP3   OH248710   3.939   7.202   8.396
16263TIP3    H148711   3.841   7.198   8.386
16263TIP3    H248712   3.966   7.173   8.306
16264TIP3   OH248713   3.418   6.793   8.064
16264TIP3    H148714   3.324   6.770   8.076
16264TIP3    H248715   3.450   6.714   8.017
16265TIP3   OH248716   2.541   7.017   7.806
16265TIP3    H148717   2.541   7.104   7.762
16265TIP3    H248718   2.453   7.016   7.844
16266TIP3   OH248719   2.107   6.326   7.517
16266TIP3    H148720   2.152   6.410   7.539
16266TIP3    H248721   2.030   6.330   7.578
16267TIP3   OH248722   2.684   6.786   7.759
16267TIP3    H148723   2.645   6.874   7.773
16267TIP3    H248724   2.647   6.736   7.834
16268TIP3   OH248725   2.834   7.332   8.264
16268TIP3    H148726   2.830   7.428   8.269
16268TIP3    H248727   2.906   7.312   8.325
16269TIP3   OH248728   2.461   7.261   7.660
16269TIP3    H148729   2.376   7.270   7.709
16269TIP3    H248730   2.497   7.352   7.670
16270TIP3   OH248731   3.199   6.993   8.245
16270TIP3    H148732   3.190   6.992   8.343
16270TIP3    H248733   3.283   6.945   8.233
16271TIP3   OH248734   3.173   6.894   7.121
16271TIP3    H148735   3.228   6.872   7.200
16271TIP3    H248736   3.086   6.864   7.151
16272TIP3   OH248737   3.463   7.537   8.294
16272TIP3    H148738   3.381   7.485   8.303
16272TIP3    H248739   3.437   7.601   8.224
16273TIP3   OH248740   2.534   6.159   8.807
16273TIP3    H148741   2.436   6.174   8.807
16273TIP3    H248742   2.540   6.086   8.870
16274TIP3   OH248743   3.332   6.825   7.340
16274TIP3    H148744   3.323   6.759   7.412
16274TIP3    H248745   3.429   6.827   7.329
16275TIP3   OH248746   2.535   6.875   7.126
16275TIP3    H148747   2.553   6.785   7.093
16275TIP3    H248748   2.521   6.858   7.221
16276TIP3   OH248749   2.488   6.884   7.401
16276TIP3    H148750   2.555   6.845   7.459
16276TIP3    H248751   2.507   6.979   7.410
16277TIP3   OH248752   2.222   6.572   7.600
16277TIP3    H148753   2.157   6.616   7.658
16277TIP3    H248754   2.236   6.642   7.533
16278TIP3   OH248755   3.371   6.210   8.492
16278TIP3    H148756   3.451   6.247   8.533
16278TIP3    H248757   3.355   6.129   8.546
16279TIP3   OH248758   3.250   5.960   7.658
16279TIP3    H148759   3.236   5.980   7.564
16279TIP3    H248760   3.288   6.044   7.692
16280TIP3   OH248761   2.757   7.078   7.335
16280TIP3    H148762   2.678   7.119   7.374
16280TIP3    H248763   2.751   7.107   7.243
16281TIP3   OH248764   2.943   6.139   7.760
16281TIP3    H148765   3.007   6.211   7.742
16281TIP3    H248766   2.947   6.133   7.857
16282TIP3   OH248767   3.209   6.459   8.567
16282TIP3    H148768   3.228   6.514   8.645
16282TIP3    H248769   3.263   6.380   8.582
16283TIP3   OH248770   3.086   5.868   7.864
16283TIP3    H148771   3.073   5.949   7.918
16283TIP3    H248772   3.146   5.903   7.794
16284TIP3   OH248773   2.502   7.165   7.410
16284TIP3    H148774   2.413   7.185   7.380
16284TIP3    H248775   2.498   7.197   7.503
16285TIP3   OH248776   2.596   5.865   7.651
16285TIP3    H148777   2.595   5.955   7.688
16285TIP3    H248778   2.692   5.845   7.659
16286TIP3   OH248779   3.851   6.354   8.551
16286TIP3    H148780   3.753   6.353   8.554
16286TIP3    H248781   3.866   6.328   8.459
16287TIP3   OH248782   3.503   6.552   7.935
16287TIP3    H148783   3.426   6.493   7.947
16287TIP3    H248784   3.573   6.504   7.984
16288TIP3   OH248785   2.215   6.781   7.405
16288TIP3    H148786   2.285   6.848   7.418
16288TIP3    H248787   2.260   6.725   7.338
16289TIP3   OH248788   2.159   6.057   7.541
16289TIP3    H148789   2.158   6.155   7.536
16289TIP3    H248790   2.078   6.034   7.494
16290TIP3   OH248791   3.473   7.504   7.882
16290TIP3    H148792   3.429   7.551   7.808
16290TIP3    H248793   3.566   7.526   7.862
16291TIP3   OH248794   2.549   5.783   8.408
16291TIP3    H148795   2.516   5.746   8.323
16291TIP3    H248796   2.542   5.706   8.467
16292TIP3   OH248797   2.080   6.987   7.793
16292TIP3    H148798   2.012   7.025   7.850
16292TIP3    H248799   2.059   7.032   7.708
16293TIP3   OH248800   2.704   7.080   7.053
16293TIP3    H148801   2.648   7.003   7.077
16293TIP3    H248802   2.782   7.036   7.014
16294TIP3   OH248803   3.386   7.379   8.633
16294TIP3    H148804   3.359   7.342   8.717
16294TIP3    H248805   3.438   7.455   8.663
16295TIP3   OH248806   3.162   7.124   6.959
16295TIP3    H148807   3.178   7.040   7.004
16295TIP3    H248808   3.188   7.108   6.866
16296TIP3   OH248809   2.350   6.596   7.258
16296TIP3    H148810   2.404   6.559   7.330
16296TIP3    H248811   2.417   6.599   7.186
16297TIP3   OH248812   2.957   7.002   8.766
16297TIP3    H148813   2.928   6.971   8.680
16297TIP3    H248814   2.989   6.920   8.807
16298TIP3   OH248815   2.858   6.793   7.066
16298TIP3    H148816   2.863   6.803   7.163
16298TIP3    H248817   2.860   6.695   7.059
16299TIP3   OH248818   3.474   7.034   8.445
16299TIP3    H148819   3.549   7.080   8.402
16299TIP3    H248820   3.403   7.100   8.430
16300TIP3   OH248821   2.560   6.498   7.482
16300TIP3    H148822   2.531   6.455   7.564
16300TIP3    H248823   2.596   6.422   7.431
16301TIP3   OH248824   2.839   6.552   8.703
16301TIP3    H148825   2.753   6.600   8.699
16301TIP3    H248826   2.886   6.589   8.625
16302TIP3   OH248827   2.658   6.291   7.321
16302TIP3    H148828   2.632   6.294   7.226
16302TIP3    H248829   2.755   6.294   7.314
16303TIP3   OH248830   3.337   6.957   8.815
16303TIP3    H148831   3.429   6.954   8.788
16303TIP3    H248832   3.336   6.910   8.899
16304TIP3   OH248833   3.479   6.624   6.984
16304TIP3    H148834   3.461   6.576   6.901
16304TIP3    H248835   3.450   6.714   6.958
16305TIP3   OH248836   2.955   6.346   8.837
16305TIP3    H148837   2.954   6.265   8.782
16305TIP3    H248838   2.917   6.412   8.775
16306TIP3   OH248839   2.953   6.136   8.643
16306TIP3    H148840   2.980   6.178   8.559
16306TIP3    H248841   2.859   6.114   8.625
16307TIP3   OH248842   2.985   6.672   8.514
16307TIP3    H148843   3.069   6.683   8.466
16307TIP3    H248844   2.927   6.737   8.468
16308TIP3   OH248845   3.556   6.647   8.895
16308TIP3    H148846   3.609   6.571   8.925
16308TIP3    H248847   3.624   6.704   8.855
16309TIP3   OH248848   3.605   6.891   8.632
16309TIP3    H148849   3.544   6.943   8.575
16309TIP3    H248850   3.691   6.915   8.590
16310TIP3   OH248851   2.775   6.488   9.004
16310TIP3    H148852   2.743   6.404   9.036
16310TIP3    H248853   2.838   6.461   8.935
16311TIP3   OH248854   3.084   5.902   8.714
16311TIP3    H148855   3.033   5.982   8.688
16311TIP3    H248856   3.016   5.832   8.700
16312TIP3   OH248857   3.216   6.405   8.914
16312TIP3    H148858   3.229   6.397   9.010
16312TIP3    H248859   3.122   6.378   8.902
16313TIP3   OH248860   3.451   6.350   8.779
16313TIP3    H148861   3.370   6.357   8.834
16313TIP3    H248862   3.517   6.321   8.843
16314TIP3   OH248863   3.699   6.267   8.944
16314TIP3    H148864   3.650   6.199   8.989
16314TIP3    H248865   3.687   6.343   9.006
16315TIP3   OH248866   3.214   5.895   8.958
16315TIP3    H148867   3.252   5.811   8.929
16315TIP3    H248868   3.146   5.908   8.889
16316TIP3   OH248869   3.299   6.126   9.081
16316TIP3    H148870   3.279   6.051   9.021
16316TIP3    H248871   3.212   6.131   9.126
16317TIP3   OH248872   1.945   6.736   7.440
16317TIP3    H148873   2.040   6.756   7.427
16317TIP3    H248874   1.939   6.646   7.401
16318TIP3   OH248875   1.846   7.359   7.868
16318TIP3    H148876   1.786   7.295   7.822
16318TIP3    H248877   1.897   7.297   7.924
16319TIP3   OH248878   1.995   7.196   8.029
16319TIP3    H148879   2.012   7.123   8.090
16319TIP3    H248880   2.033   7.270   8.079
16320TIP3   OH248881   3.726   7.597   7.840
16320TIP3    H148882   3.743   7.628   7.931
16320TIP3    H248883   3.783   7.655   7.788
16321TIP3   OH248884   3.757   7.609   8.118
16321TIP3    H148885   3.714   7.520   8.122
16321TIP3    H248886   3.831   7.595   8.180
16322TIP3   OH248887   3.808   7.300   8.707
16322TIP3    H148888   3.719   7.328   8.732
16322TIP3    H248889   3.852   7.386   8.691
16323TIP3   OH248890   3.615   6.810   7.318
16323TIP3    H148891   3.685   6.872   7.289
16323TIP3    H248892   3.657   6.770   7.397
16324TIP3   OH248893   3.743   6.677   7.522
16324TIP3    H148894   3.676   6.634   7.579
16324TIP3    H248895   3.806   6.715   7.586
16325TIP3   OH248896   3.800   7.070   7.955
16325TIP3    H148897   3.850   7.004   7.904
16325TIP3    H248898   3.782   7.139   7.889
16326TIP3   OH248899   3.629   7.364   8.147
16326TIP3    H148900   3.559   7.413   8.195
16326TIP3    H248901   3.578   7.319   8.077
16327TIP3   OH248902   3.681   6.585   7.167
16327TIP3    H148903   3.610   6.586   7.099
16327TIP3    H248904   3.651   6.660   7.222
16328TIP3   OH248905   3.552   6.259   7.122
16328TIP3    H148906   3.511   6.293   7.042
16328TIP3    H248907   3.527   6.164   7.116
16329TIP3   OH248908   3.558   6.533   7.667
16329TIP3    H148909   3.564   6.436   7.659
16329TIP3    H248910   3.544   6.545   7.764
16330TIP3   OH248911   2.178   6.590   8.418
16330TIP3    H148912   2.177   6.570   8.322
16330TIP3    H248913   2.274   6.603   8.433
16331TIP3   OH248914   3.848   6.960   8.526
16331TIP3    H148915   3.920   6.894   8.516
16331TIP3    H248916   3.873   7.028   8.462
16332TIP3   OH248917   4.031   6.764   8.542
16332TIP3    H148918   3.957   6.712   8.581
16332TIP3    H248919   4.105   6.700   8.555
16333TIP3   OH248920   3.494   5.994   7.113
16333TIP3    H148921   3.568   5.958   7.165
16333TIP3    H248922   3.421   5.933   7.130
16334TIP3   OH248923   3.555   6.250   7.563
16334TIP3    H148924   3.594   6.160   7.578
16334TIP3    H248925   3.612   6.280   7.491
16335TIP3   OH248926   3.716   6.423   8.059
16335TIP3    H148927   3.801   6.449   8.018
16335TIP3    H248928   3.729   6.461   8.148
16336TIP3   OH248929   3.785   6.567   8.291
16336TIP3    H148930   3.705   6.602   8.337
16336TIP3    H248931   3.817   6.648   8.244
16337TIP3   OH248932   4.228   6.153   8.844
16337TIP3    H148933   4.294   6.093   8.804
16337TIP3    H248934   4.204   6.211   8.769
16338TIP3   OH248935   3.662   5.999   7.601
16338TIP3    H148936   3.709   5.982   7.685
16338TIP3    H248937   3.601   5.923   7.598
16339TIP3   OH248938   2.360   5.988   8.420
16339TIP3    H148939   2.419   5.911   8.433
16339TIP3    H248940   2.425   6.060   8.414
16340TIP3   OH248941   2.165   6.262   8.489
16340TIP3    H148942   2.212   6.248   8.404
16340TIP3    H248943   2.197   6.350   8.512
16341TIP3   OH248944   4.106   6.300   8.652
16341TIP3    H148945   4.021   6.342   8.673
16341TIP3    H248946   4.075   6.232   8.589
16342TIP3   OH248947   3.745   5.932   7.234
16342TIP3    H148948   3.781   5.861   7.178
16342TIP3    H248949   3.812   6.003   7.224
16343TIP3   OH248950   2.148   5.767   7.996
16343TIP3    H148951   2.054   5.760   8.018
16343TIP3    H248952   2.146   5.823   7.916
16344TIP3   OH248953   3.307   7.462   7.496
16344TIP3    H148954   3.388   7.429   7.458
16344TIP3    H248955   3.337   7.536   7.554
16345TIP3   OH248956   2.396   5.870   8.740
16345TIP3    H148957   2.362   5.839   8.826
16345TIP3    H248958   2.316   5.913   8.704
16346TIP3   OH248959   4.003   6.066   8.526
16346TIP3    H148960   3.914   6.065   8.486
16346TIP3    H248961   4.029   5.971   8.516
16347TIP3   OH248962   2.946   7.601   8.105
16347TIP3    H148963   2.878   7.575   8.039
16347TIP3    H248964   2.893   7.658   8.162
16348TIP3   OH248965   3.194   7.484   8.140
16348TIP3    H148966   3.102   7.513   8.120
16348TIP3    H248967   3.241   7.568   8.133
16349TIP3   OH248968   3.403   7.692   8.074
16349TIP3    H148969   3.384   7.773   8.022
16349TIP3    H248970   3.423   7.627   8.003
16350TIP3   OH248971   2.376   7.195   8.034
16350TIP3    H148972   2.380   7.136   8.112
16350TIP3    H248973   2.449   7.257   8.051
16351TIP3   OH248974   2.633   7.327   8.043
16351TIP3    H148975   2.674   7.240   8.046
16351TIP3    H248976   2.638   7.352   8.138
16352TIP3   OH248977   3.214   5.977   8.155
16352TIP3    H148978   3.167   5.907   8.203
16352TIP3    H248979   3.279   5.927   8.102
16353TIP3   OH248980   3.735   5.860   8.059
16353TIP3    H148981   3.771   5.909   7.981
16353TIP3    H248982   3.639   5.871   8.047
16354TIP3   OH248983   3.828   5.955   7.819
16354TIP3    H148984   3.901   5.905   7.776
16354TIP3    H248985   3.860   6.047   7.803
16355TIP3   OH248986   2.458   5.684   8.162
16355TIP3    H148987   2.366   5.651   8.167
16355TIP3    H248988   2.507   5.599   8.161
16356TIP3   OH248989   2.243   5.554   7.811
16356TIP3    H148990   2.275   5.611   7.739
16356TIP3    H248991   2.218   5.619   7.879
16357TIP3   OH248992   2.902   5.716   8.043
16357TIP3    H148993   2.961   5.766   7.985
16357TIP3    H248994   2.919   5.756   8.129
16358TIP3   OH248995   3.455   5.863   8.026
16358TIP3    H148996   3.445   5.827   7.937
16358TIP3    H248997   3.439   5.783   8.082
16359TIP3   OH248998   3.479   5.786   7.592
16359TIP3    H148999   3.391   5.827   7.600
16359TIP3    H249000   3.464   5.700   7.637
16360TIP3   OH249001   1.967   7.123   7.588
16360TIP3    H149002   1.880   7.091   7.559
16360TIP3    H249003   1.955   7.218   7.574
16361TIP3   OH249004   2.362   5.713   7.575
16361TIP3    H149005   2.409   5.650   7.518
16361TIP3    H249006   2.435   5.766   7.611
16362TIP3   OH249007   2.874   5.889   7.674
16362TIP3    H149008   2.932   5.839   7.733
16362TIP3    H249009   2.899   5.980   7.700
16363TIP3   OH249010   2.042   7.157   7.229
16363TIP3    H149011   2.017   7.180   7.320
16363TIP3    H249012   2.122   7.103   7.241
16364TIP3   OH249013   3.778   5.949   8.958
16364TIP3    H149014   3.775   5.983   9.049
16364TIP3    H249015   3.839   6.012   8.916
16365TIP3   OH249016   3.690   7.575   8.448
16365TIP3    H149017   3.612   7.542   8.399
16365TIP3    H249018   3.679   7.670   8.440
16366TIP3   OH249019   4.948   6.949   7.223
16366TIP3    H149020   4.919   7.040   7.201
16366TIP3    H249021   4.864   6.901   7.211
16367TIP3   OH249022   4.935   6.949   7.604
16367TIP3    H149023   4.973   6.925   7.691
16367TIP3    H249024   4.903   6.863   7.573
16368TIP3   OH249025   4.244   6.844   7.966
16368TIP3    H149026   4.272   6.775   8.030
16368TIP3    H249027   4.327   6.893   7.956
16369TIP3   OH249028   5.186   7.246   7.285
16369TIP3    H149029   5.180   7.178   7.353
16369TIP3    H249030   5.217   7.324   7.336
16370TIP3   OH249031   4.229   7.255   7.703
16370TIP3    H149032   4.213   7.158   7.701
16370TIP3    H249033   4.321   7.257   7.667
16371TIP3   OH249034   3.922   6.457   7.477
16371TIP3    H149035   3.872   6.539   7.491
16371TIP3    H249036   3.853   6.401   7.438
16372TIP3   OH249037   3.983   6.744   7.649
16372TIP3    H149038   4.030   6.665   7.685
16372TIP3    H249039   4.039   6.768   7.574
16373TIP3   OH249040   4.836   7.712   7.300
16373TIP3    H149041   4.880   7.642   7.248
16373TIP3    H249042   4.834   7.673   7.388
16374TIP3   OH249043   4.743   7.173   7.654
16374TIP3    H149044   4.782   7.095   7.610
16374TIP3    H249045   4.827   7.219   7.675
16375TIP3   OH249046   5.756   6.496   7.650
16375TIP3    H149047   5.781   6.575   7.703
16375TIP3    H249048   5.769   6.529   7.560
16376TIP3   OH249049   5.151   6.679   7.682
16376TIP3    H149050   5.198   6.597   7.708
16376TIP3    H249051   5.125   6.657   7.591
16377TIP3   OH249052   4.492   6.334   7.648
16377TIP3    H149053   4.474   6.407   7.586
16377TIP3    H249054   4.446   6.261   7.602
16378TIP3   OH249055   5.190   6.426   7.270
16378TIP3    H149056   5.261   6.409   7.336
16378TIP3    H249057   5.243   6.462   7.197
16379TIP3   OH249058   4.127   6.536   7.754
16379TIP3    H149059   4.210   6.517   7.801
16379TIP3    H249060   4.140   6.480   7.674
16380TIP3   OH249061   4.568   6.734   7.549
16380TIP3    H149062   4.662   6.709   7.560
16380TIP3    H249063   4.529   6.650   7.516
16381TIP3   OH249064   5.819   6.698   7.826
16381TIP3    H149065   5.743   6.758   7.812
16381TIP3    H249066   5.865   6.744   7.899
16382TIP3   OH249067   4.489   6.318   8.082
16382TIP3    H149068   4.430   6.355   8.013
16382TIP3    H249069   4.437   6.338   8.162
16383TIP3   OH249070   4.824   7.167   7.099
16383TIP3    H149071   4.775   7.162   7.016
16383TIP3    H249072   4.797   7.255   7.130
16384TIP3   OH249073   4.593   7.100   7.877
16384TIP3    H149074   4.550   7.174   7.922
16384TIP3    H249075   4.640   7.144   7.803
16385TIP3   OH249076   5.400   6.427   7.444
16385TIP3    H149077   5.384   6.387   7.530
16385TIP3    H249078   5.451   6.506   7.469
16386TIP3   OH249079   4.360   6.433   7.866
16386TIP3    H149080   4.423   6.505   7.890
16386TIP3    H249081   4.409   6.393   7.791
16387TIP3   OH249082   4.426   7.346   7.989
16387TIP3    H149083   4.392   7.335   7.899
16387TIP3    H249084   4.356   7.298   8.041
16388TIP3   OH249085   3.820   6.974   7.208
16388TIP3    H149086   3.778   6.994   7.122
16388TIP3    H249087   3.838   7.065   7.241
16389TIP3   OH249088   5.245   7.485   7.437
16389TIP3    H149089   5.156   7.480   7.480
16389TIP3    H249090   5.242   7.574   7.397
16390TIP3   OH249091   5.548   6.380   7.805
16390TIP3    H149092   5.467   6.429   7.788
16390TIP3    H249093   5.611   6.422   7.742
16391TIP3   OH249094   4.847   6.038   7.794
16391TIP3    H149095   4.832   5.943   7.811
16391TIP3    H249096   4.769   6.076   7.842
16392TIP3   OH249097   4.958   7.540   7.124
16392TIP3    H149098   5.006   7.457   7.104
16392TIP3    H249099   5.021   7.604   7.084
16393TIP3   OH249100   5.095   7.322   7.035
16393TIP3    H149101   5.088   7.244   6.978
16393TIP3    H249102   5.132   7.284   7.117
16394TIP3   OH249103   5.477   7.404   7.789
16394TIP3    H149104   5.479   7.318   7.742
16394TIP3    H249105   5.467   7.467   7.715
16395TIP3   OH249106   4.772   6.786   7.070
16395TIP3    H149107   4.696   6.843   7.048
16395TIP3    H249108   4.830   6.802   6.994
16396TIP3   OH249109   5.675   7.030   7.626
16396TIP3    H149110   5.598   7.088   7.645
16396TIP3    H249111   5.707   7.070   7.542
16397TIP3   OH249112   5.117   6.867   7.022
16397TIP3    H149113   5.069   6.896   7.103
16397TIP3    H249114   5.205   6.845   7.062
16398TIP3   OH249115   5.353   6.908   7.912
16398TIP3    H149116   5.361   6.974   7.985
16398TIP3    H249117   5.267   6.935   7.875
16399TIP3   OH249118   4.357   6.882   7.439
16399TIP3    H149119   4.315   6.823   7.372
16399TIP3    H249120   4.433   6.827   7.469
16400TIP3   OH249121   4.483   7.281   7.594
16400TIP3    H149122   4.466   7.251   7.503
16400TIP3    H249123   4.575   7.251   7.608
16401TIP3   OH249124   4.492   6.852   7.796
16401TIP3    H149125   4.525   6.828   7.707
16401TIP3    H249126   4.536   6.938   7.813
16402TIP3   OH249127   5.012   7.491   7.573
16402TIP3    H149128   5.002   7.570   7.628
16402TIP3    H249129   5.000   7.417   7.636
16403TIP3   OH249130   4.926   6.807   6.837
16403TIP3    H149131   4.998   6.825   6.903
16403TIP3    H249132   4.983   6.782   6.760
16404TIP3   OH249133   4.384   6.970   8.216
16404TIP3    H149134   4.387   7.053   8.268
16404TIP3    H249135   4.290   6.946   8.227
16405TIP3   OH249136   4.705   7.425   7.132
16405TIP3    H149137   4.788   7.476   7.140
16405TIP3    H249138   4.647   7.487   7.085
16406TIP3   OH249139   5.481   5.981   6.898
16406TIP3    H149140   5.399   6.002   6.947
16406TIP3    H249141   5.495   6.064   6.848
16407TIP3   OH249142   4.222   6.723   7.245
16407TIP3    H149143   4.156   6.766   7.187
16407TIP3    H249144   4.185   6.636   7.256
16408TIP3   OH249145   5.270   7.361   6.454
16408TIP3    H149146   5.297   7.451   6.428
16408TIP3    H249147   5.349   7.308   6.433
16409TIP3   OH249148   4.005   7.109   8.150
16409TIP3    H149149   3.936   7.086   8.084
16409TIP3    H249150   4.040   7.021   8.175
16410TIP3   OH249151   3.857   7.307   7.774
16410TIP3    H149152   3.953   7.300   7.781
16410TIP3    H249153   3.839   7.381   7.834
16411TIP3   OH249154   4.835   7.546   7.957
16411TIP3    H149155   4.833   7.641   7.983
16411TIP3    H249156   4.818   7.501   8.040
16412TIP3   OH249157   4.586   7.663   6.929
16412TIP3    H149158   4.546   7.647   6.841
16412TIP3    H249159   4.557   7.753   6.950
16413TIP3   OH249160   4.017   7.503   7.314
16413TIP3    H149161   4.081   7.498   7.388
16413TIP3    H249162   3.935   7.485   7.363
16414TIP3   OH249163   4.792   7.561   6.566
16414TIP3    H149164   4.852   7.493   6.529
16414TIP3    H249165   4.828   7.572   6.656
16415TIP3   OH249166   4.839   7.617   6.837
16415TIP3    H149167   4.752   7.625   6.881
16415TIP3    H249168   4.892   7.574   6.907
16416TIP3   OH249169   5.552   6.844   8.134
16416TIP3    H149170   5.549   6.917   8.072
16416TIP3    H249171   5.626   6.791   8.104
16417TIP3   OH249172   4.215   7.284   8.137
16417TIP3    H149173   4.251   7.274   8.228
16417TIP3    H249174   4.137   7.224   8.142
16418TIP3   OH249175   4.608   6.111   7.925
16418TIP3    H149176   4.519   6.082   7.898
16418TIP3    H249177   4.585   6.195   7.968
16419TIP3   OH249178   5.143   6.225   8.117
16419TIP3    H149179   5.212   6.204   8.184
16419TIP3    H249180   5.059   6.210   8.166
16420TIP3   OH249181   5.372   6.643   8.023
16420TIP3    H149182   5.341   6.651   8.115
16420TIP3    H249183   5.376   6.738   7.997
16421TIP3   OH249184   5.000   6.799   6.586
16421TIP3    H149185   4.993   6.752   6.500
16421TIP3    H249186   5.086   6.846   6.564
16422TIP3   OH249187   4.752   6.163   6.895
16422TIP3    H149188   4.720   6.158   6.988
16422TIP3    H249189   4.713   6.081   6.860
16423TIP3   OH249190   4.537   6.629   7.943
16423TIP3    H149191   4.489   6.653   8.025
16423TIP3    H249192   4.523   6.710   7.889
16424TIP3   OH249193   4.422   6.515   7.458
16424TIP3    H149194   4.330   6.488   7.475
16424TIP3    H249195   4.436   6.474   7.369
16425TIP3   OH249196   4.920   6.591   7.188
16425TIP3    H149197   4.861   6.660   7.150
16425TIP3    H249198   4.975   6.568   7.111
16426TIP3   OH249199   5.087   6.878   8.263
16426TIP3    H149200   5.075   6.808   8.331
16426TIP3    H249201   5.179   6.905   8.280
16427TIP3   OH249202   5.070   6.628   7.424
16427TIP3    H149203   5.012   6.656   7.351
16427TIP3    H249204   5.105   6.546   7.383
16428TIP3   OH249205   4.356   6.659   8.153
16428TIP3    H149206   4.392   6.720   8.219
16428TIP3    H249207   4.348   6.576   8.203
16429TIP3   OH249208   4.410   6.137   6.861
16429TIP3    H149209   4.400   6.133   6.958
16429TIP3    H249210   4.329   6.185   6.835
16430TIP3   OH249211   3.950   6.180   7.735
16430TIP3    H149212   4.029   6.211   7.785
16430TIP3    H249213   3.987   6.148   7.651
16431TIP3   OH249214   3.927   6.162   7.253
16431TIP3    H149215   3.971   6.199   7.174
16431TIP3    H249216   3.864   6.234   7.272
16432TIP3   OH249217   5.058   6.876   7.842
16432TIP3    H149218   5.103   6.807   7.788
16432TIP3    H249219   5.049   6.827   7.926
16433TIP3   OH249220   4.749   6.338   7.518
16433TIP3    H149221   4.668   6.336   7.573
16433TIP3    H249222   4.819   6.337   7.584
16434TIP3   OH249223   4.184   6.392   7.527
16434TIP3    H149224   4.090   6.400   7.499
16434TIP3    H249225   4.207   6.300   7.503
16435TIP3   OH249226   4.453   6.389   7.216
16435TIP3    H149227   4.548   6.403   7.196
16435TIP3    H249228   4.408   6.412   7.132
16436TIP3   OH249229   5.238   6.415   7.715
16436TIP3    H149230   5.210   6.427   7.808
16436TIP3    H249231   5.170   6.352   7.684
16437TIP3   OH249232   4.295   6.425   6.996
16437TIP3    H149233   4.221   6.379   6.954
16437TIP3    H249234   4.343   6.456   6.916
16438TIP3   OH249235   4.375   7.215   8.362
16438TIP3    H149236   4.452   7.240   8.416
16438TIP3    H249237   4.305   7.215   8.431
16439TIP3   OH249238   4.834   6.664   7.612
16439TIP3    H149239   4.909   6.628   7.562
16439TIP3    H249240   4.848   6.625   7.700
16440TIP3   OH249241   4.358   6.154   7.493
16440TIP3    H149242   4.323   6.074   7.539
16440TIP3    H249243   4.407   6.115   7.419
16441TIP3   OH249244   4.810   6.558   7.912
16441TIP3    H149245   4.723   6.601   7.922
16441TIP3    H249246   4.871   6.619   7.959
16442TIP3   OH249247   4.562   6.941   6.995
16442TIP3    H149248   4.484   6.883   6.983
16442TIP3    H249249   4.539   6.987   7.079
16443TIP3   OH249250   5.448   7.186   7.628
16443TIP3    H149251   5.472   7.236   7.547
16443TIP3    H249252   5.363   7.144   7.602
16444TIP3   OH249253   5.005   6.266   6.871
16444TIP3    H149254   4.909   6.247   6.870
16444TIP3    H249255   5.008   6.363   6.880
16445TIP3   OH249256   4.914   7.270   8.030
16445TIP3    H149257   4.987   7.230   8.079
16445TIP3    H249258   4.952   7.353   8.001
16446TIP3   OH249259   5.074   6.529   6.960
16446TIP3    H149260   5.168   6.519   6.988
16446TIP3    H249261   5.084   6.581   6.880
16447TIP3   OH249262   4.241   6.978   7.676
16447TIP3    H149263   4.277   6.947   7.590
16447TIP3    H249264   4.278   6.913   7.737
16448TIP3   OH249265   4.119   6.897   8.289
16448TIP3    H149266   4.141   6.882   8.384
16448TIP3    H249267   4.051   6.830   8.274
16449TIP3   OH249268   4.849   7.003   8.312
16449TIP3    H149269   4.793   6.946   8.258
16449TIP3    H249270   4.938   6.972   8.285
16450TIP3   OH249271   5.102   7.531   7.886
16450TIP3    H149272   5.005   7.540   7.893
16450TIP3    H249273   5.131   7.581   7.966
16451TIP3   OH249274   5.517   6.605   6.799
16451TIP3    H149275   5.453   6.560   6.739
16451TIP3    H249276   5.512   6.694   6.758
16452TIP3   OH249277   5.746   7.454   7.866
16452TIP3    H149278   5.671   7.392   7.882
16452TIP3    H249279   5.793   7.405   7.798
16453TIP3   OH249280   5.218   7.421   6.714
16453TIP3    H149281   5.191   7.341   6.762
16453TIP3    H249282   5.229   7.388   6.622
16454TIP3   OH249283   5.209   7.054   7.545
16454TIP3    H149284   5.117   7.025   7.559
16454TIP3    H249285   5.247   6.973   7.503
16455TIP3   OH249286   4.345   7.280   7.306
16455TIP3    H149287   4.350   7.359   7.249
16455TIP3    H249288   4.251   7.262   7.306
16456TIP3   OH249289   3.905   6.582   7.006
16456TIP3    H149290   3.949   6.667   7.027
16456TIP3    H249291   3.827   6.586   7.066
16457TIP3   OH249292   4.478   7.043   7.234
16457TIP3    H149293   4.448   7.132   7.258
16457TIP3    H249294   4.446   6.991   7.310
16458TIP3   OH249295   4.616   7.623   7.781
16458TIP3    H149296   4.646   7.699   7.728
16458TIP3    H249297   4.700   7.587   7.814
16459TIP3   OH249298   4.262   7.517   7.154
16459TIP3    H149299   4.175   7.528   7.197
16459TIP3    H249300   4.296   7.609   7.156
16460TIP3   OH249301   4.997   7.255   7.732
16460TIP3    H149302   4.996   7.240   7.828
16460TIP3    H249303   5.081   7.213   7.707
16461TIP3   OH249304   4.946   7.177   6.624
16461TIP3    H149305   5.024   7.145   6.674
16461TIP3    H249306   4.882   7.108   6.640
16462TIP3   OH249307   5.241   7.798   7.783
16462TIP3    H149308   5.165   7.741   7.765
16462TIP3    H249309   5.233   7.863   7.710
16463TIP3   OH249310   5.317   7.631   6.430
16463TIP3    H149311   5.351   7.704   6.375
16463TIP3    H249312   5.235   7.672   6.462
16464TIP3   OH249313   4.331   6.400   8.297
16464TIP3    H149314   4.235   6.406   8.313
16464TIP3    H249315   4.360   6.344   8.371
16465TIP3   OH249316   5.127   7.083   6.837
16465TIP3    H149317   5.129   7.013   6.906
16465TIP3    H249318   5.220   7.079   6.808
16466TIP3   OH249319   4.053   7.481   7.927
16466TIP3    H149320   4.092   7.412   7.982
16466TIP3    H249321   4.059   7.559   7.984
16467TIP3   OH249322   4.374   7.115   6.614
16467TIP3    H149323   4.342   7.028   6.583
16467TIP3    H249324   4.338   7.117   6.705
16468TIP3   OH249325   4.282   7.136   6.880
16468TIP3    H149326   4.358   7.112   6.935
16468TIP3    H249327   4.285   7.235   6.886
16469TIP3   OH249328   4.021   6.829   7.086
16469TIP3    H149329   3.955   6.872   7.144
16469TIP3    H249330   4.034   6.899   7.019
16470TIP3   OH249331   5.166   6.463   7.973
16470TIP3    H149332   5.243   6.514   8.007
16470TIP3    H249333   5.162   6.388   8.035
16471TIP3   OH249334   5.048   6.216   7.146
16471TIP3    H149335   5.034   6.238   7.051
16471TIP3    H249336   5.086   6.299   7.181
16472TIP3   OH249337   4.544   7.322   6.827
16472TIP3    H149338   4.460   7.357   6.863
16472TIP3    H249339   4.574   7.395   6.773
16473TIP3   OH249340   4.735   6.396   7.247
16473TIP3    H149341   4.804   6.464   7.230
16473TIP3    H249342   4.741   6.386   7.344
16474TIP3   OH249343   5.005   6.712   8.057
16474TIP3    H149344   5.029   6.768   8.134
16474TIP3    H249345   5.067   6.638   8.067
16475TIP3   OH249346   4.881   6.122   7.348
16475TIP3    H149347   4.880   6.197   7.411
16475TIP3    H249348   4.942   6.158   7.279
16476TIP3   OH249349   4.287   7.408   6.899
16476TIP3    H149350   4.260   7.478   6.836
16476TIP3    H249351   4.276   7.453   6.985
16477TIP3   OH249352   4.393   6.121   7.138
16477TIP3    H149353   4.392   6.211   7.175
16477TIP3    H249354   4.489   6.101   7.146
16478TIP3   OH249355   5.649   6.595   8.040
16478TIP3    H149356   5.551   6.604   8.039
16478TIP3    H249357   5.671   6.605   7.946
16479TIP3   OH249358   5.298   6.810   7.423
16479TIP3    H149359   5.224   6.749   7.438
16479TIP3    H249360   5.371   6.765   7.471
16480TIP3   OH249361   4.009   7.038   6.892
16480TIP3    H149362   4.076   7.109   6.900
16480TIP3    H249363   4.054   6.983   6.824
16481TIP3   OH249364   3.956   6.313   7.028
16481TIP3    H149365   3.952   6.411   7.023
16481TIP3    H249366   3.878   6.287   6.978
16482TIP3   OH249367   5.262   7.759   7.369
16482TIP3    H149368   5.220   7.813   7.298
16482TIP3    H249369   5.356   7.771   7.345
16483TIP3   OH249370   4.342   6.034   7.900
16483TIP3    H149371   4.312   6.001   7.812
16483TIP3    H249372   4.331   5.954   7.956
16484TIP3   OH249373   3.853   7.243   7.265
16484TIP3    H149374   3.823   7.293   7.342
16484TIP3    H249375   3.919   7.302   7.226
16485TIP3   OH249376   4.039   7.777   8.334
16485TIP3    H149377   4.108   7.785   8.402
16485TIP3    H249378   4.011   7.685   8.346
16486TIP3   OH249379   4.536   7.760   8.395
16486TIP3    H149380   4.626   7.725   8.409
16486TIP3    H249381   4.543   7.804   8.310
16487TIP3   OH249382   4.504   7.342   6.520
16487TIP3    H149383   4.458   7.264   6.560
16487TIP3    H249384   4.581   7.300   6.478
16488TIP3   OH249385   5.154   7.651   8.126
16488TIP3    H149386   5.170   7.586   8.197
16488TIP3    H249387   5.224   7.714   8.146
16489TIP3   OH249388   4.939   7.372   6.426
16489TIP3    H149389   4.977   7.310   6.492
16489TIP3    H249390   5.008   7.371   6.357
16490TIP3   OH249391   4.172   7.193   8.548
16490TIP3    H149392   4.185   7.096   8.553
16490TIP3    H249393   4.083   7.199   8.507
16491TIP3   OH249394   4.148   6.853   6.741
16491TIP3    H149395   4.198   6.818   6.816
16491TIP3    H249396   4.218   6.853   6.672
16492TIP3   OH249397   4.759   7.265   8.303
16492TIP3    H149398   4.758   7.240   8.209
16492TIP3    H249399   4.814   7.191   8.336
16493TIP3   OH249400   4.665   6.980   6.626
16493TIP3    H149401   4.616   7.059   6.653
16493TIP3    H249402   4.613   6.958   6.548
16494TIP3   OH249403   5.253   7.304   7.911
16494TIP3    H149404   5.341   7.329   7.877
16494TIP3    H249405   5.204   7.387   7.894
16495TIP3   OH249406   4.290   6.930   8.530
16495TIP3    H149407   4.367   6.874   8.513
16495TIP3    H249408   4.313   6.965   8.619
16496TIP3   OH249409   4.355   6.752   6.966
16496TIP3    H149410   4.326   6.715   7.051
16496TIP3    H249411   4.388   6.673   6.919
16497TIP3   OH249412   4.620   6.815   8.192
16497TIP3    H149413   4.546   6.879   8.194
16497TIP3    H249414   4.674   6.849   8.118
16498TIP3   OH249415   4.448   6.542   6.800
16498TIP3    H149416   4.413   6.547   6.709
16498TIP3    H249417   4.539   6.513   6.782
16499TIP3   OH249418   5.142   7.215   8.319
16499TIP3    H149419   5.229   7.200   8.277
16499TIP3    H249420   5.147   7.151   8.393
16500TIP3   OH249421   4.743   6.604   8.322
16500TIP3    H149422   4.749   6.526   8.264
16500TIP3    H249423   4.703   6.671   8.262
16501TIP3   OH249424   4.748   6.391   8.130
16501TIP3    H149425   4.778   6.435   8.048
16501TIP3    H249426   4.655   6.371   8.109
16502TIP3   OH249427   4.774   6.927   8.002
16502TIP3    H149428   4.861   6.925   7.958
16502TIP3    H249429   4.727   6.996   7.953
16503TIP3   OH249430   5.376   6.902   8.386
16503TIP3    H149431   5.435   6.835   8.350
16503TIP3    H249432   5.430   6.982   8.363
16504TIP3   OH249433   5.361   7.109   8.089
16504TIP3    H149434   5.351   7.189   8.035
16504TIP3    H249435   5.429   7.135   8.155
16505TIP3   OH249436   4.618   6.721   8.546
16505TIP3    H149437   4.552   6.651   8.564
16505TIP3    H249438   4.656   6.691   8.460
16506TIP3   OH249439   4.880   6.156   8.198
16506TIP3    H149440   4.833   6.239   8.174
16506TIP3    H249441   4.811   6.089   8.183
16507TIP3   OH249442   5.008   6.662   8.411
16507TIP3    H149443   5.002   6.653   8.507
16507TIP3    H249444   4.917   6.635   8.385
16508TIP3   OH249445   5.244   6.602   8.265
16508TIP3    H149446   5.173   6.614   8.330
16508TIP3    H249447   5.321   6.584   8.323
16509TIP3   OH249448   5.461   6.547   8.425
16509TIP3    H149449   5.480   6.454   8.448
16509TIP3    H249450   5.472   6.594   8.511
16510TIP3   OH249451   4.461   6.499   8.603
16510TIP3    H149452   4.473   6.409   8.569
16510TIP3    H249453   4.495   6.490   8.694
16511TIP3   OH249454   4.973   6.162   8.456
16511TIP3    H149455   5.043   6.095   8.447
16511TIP3    H249456   4.935   6.161   8.366
16512TIP3   OH249457   5.036   6.377   8.620
16512TIP3    H149458   5.019   6.309   8.551
16512TIP3    H249459   4.962   6.440   8.606
16513TIP3   OH249460   4.262   7.606   6.711
16513TIP3    H149461   4.358   7.606   6.693
16513TIP3    H249462   4.232   7.658   6.633
16514TIP3   OH249463   3.736   6.991   6.932
16514TIP3    H149464   3.830   7.014   6.915
16514TIP3    H249465   3.731   6.903   6.888
16515TIP3   OH249466   3.656   7.575   7.328
16515TIP3    H149467   3.563   7.573   7.350
16515TIP3    H249468   3.698   7.527   7.403
16516TIP3   OH249469   3.804   7.450   7.524
16516TIP3    H149470   3.786   7.383   7.592
16516TIP3    H249471   3.847   7.517   7.581
16517TIP3   OH249472   5.513   7.843   7.317
16517TIP3    H149473   5.517   7.877   7.408
16517TIP3    H249474   5.566   7.908   7.268
16518TIP3   OH249475   5.548   7.834   7.600
16518TIP3    H149476   5.486   7.759   7.591
16518TIP3    H249477   5.594   7.801   7.680
16519TIP3   OH249478   5.408   7.067   6.812
16519TIP3    H149479   5.474   7.128   6.774
16519TIP3    H249480   5.459   7.027   6.886
16520TIP3   OH249481   5.543   6.930   7.010
16520TIP3    H149482   5.474   6.891   7.067
16520TIP3    H249483   5.604   6.972   7.074
16521TIP3   OH249484   5.587   7.322   7.435
16521TIP3    H149485   5.646   7.258   7.392
16521TIP3    H249486   5.586   7.396   7.371
16522TIP3   OH249487   5.407   7.607   7.619
16522TIP3    H149488   5.344   7.638   7.685
16522TIP3    H249489   5.351   7.558   7.555
16523TIP3   OH249490   5.471   6.846   6.652
16523TIP3    H149491   5.404   6.857   6.580
16523TIP3    H249492   5.442   6.922   6.706
16524TIP3   OH249493   5.343   6.514   6.614
16524TIP3    H149494   5.315   6.560   6.534
16524TIP3    H249495   5.317   6.422   6.594
16525TIP3   OH249496   5.352   6.790   7.155
16525TIP3    H149497   5.362   6.694   7.150
16525TIP3    H249498   5.339   6.805   7.251
16526TIP3   OH249499   3.979   6.862   7.901
16526TIP3    H149500   3.978   6.831   7.808
16526TIP3    H249501   4.076   6.864   7.918
16527TIP3   OH249502   5.653   7.211   7.972
16527TIP3    H149503   5.689   7.129   8.007
16527TIP3    H249504   5.703   7.274   8.026
16528TIP3   OH249505   5.789   6.950   8.004
16528TIP3    H149506   5.757   6.959   8.095
16528TIP3    H249507   5.871   7.002   8.012
16529TIP3   OH249508   5.292   6.246   6.597
16529TIP3    H149509   5.365   6.215   6.654
16529TIP3    H249510   5.218   6.188   6.617
16530TIP3   OH249511   5.346   6.503   7.047
16530TIP3    H149512   5.388   6.415   7.062
16530TIP3    H249513   5.404   6.538   6.978
16531TIP3   OH249514   5.510   6.679   7.542
16531TIP3    H149515   5.597   6.703   7.504
16531TIP3    H249516   5.522   6.717   7.632
16532TIP3   OH249517   5.575   6.818   7.774
16532TIP3    H149518   5.496   6.852   7.822
16532TIP3    H249519   5.610   6.901   7.735
16533TIP3   OH249520   4.194   6.548   8.569
16533TIP3    H149521   4.292   6.546   8.575
16533TIP3    H249522   4.173   6.464   8.615
16534TIP3   OH249523   6.029   6.383   8.345
16534TIP3    H149524   6.088   6.338   8.281
16534TIP3    H249525   5.998   6.460   8.293
16535TIP3   OH249526   5.460   6.255   7.086
16535TIP3    H149527   5.506   6.240   7.171
16535TIP3    H249528   5.398   6.179   7.085
16536TIP3   OH249529   4.158   6.242   7.910
16536TIP3    H149530   4.220   6.167   7.916
16536TIP3    H249531   4.221   6.316   7.900
16537TIP3   OH249532   3.962   6.515   7.981
16537TIP3    H149533   4.010   6.508   7.896
16537TIP3    H249534   3.990   6.603   8.011
16538TIP3   OH249535   5.883   6.542   8.174
16538TIP3    H149536   5.799   6.590   8.158
16538TIP3    H249537   5.880   6.485   8.095
16539TIP3   OH249538   5.544   6.188   6.723
16539TIP3    H149539   5.578   6.119   6.663
16539TIP3    H249540   5.605   6.262   6.708
16540TIP3   OH249541   3.944   6.026   7.485
16540TIP3    H149542   3.850   6.016   7.506
16540TIP3    H249543   3.942   6.080   7.404
16541TIP3   OH249544   5.104   7.723   6.987
16541TIP3    H149545   5.151   7.705   6.902
16541TIP3    H249546   5.162   7.789   7.027
16542TIP3   OH249547   4.162   6.091   8.294
16542TIP3    H149548   4.112   6.100   8.378
16542TIP3    H249549   4.100   6.134   8.232
16543TIP3   OH249550   4.214   7.498   8.374
16543TIP3    H149551   4.118   7.493   8.358
16543TIP3    H249552   4.216   7.524   8.467
16544TIP3   OH249553   4.830   7.808   8.032
16544TIP3    H149554   4.866   7.800   8.124
16544TIP3    H249555   4.901   7.863   7.991
16545TIP3   OH249556   5.030   7.962   7.923
16545TIP3    H149557   5.079   7.901   7.867
16545TIP3    H249558   5.105   8.018   7.953
16546TIP3   OH249559   5.804   6.315   8.013
16546TIP3    H149560   5.713   6.325   7.978
16546TIP3    H249561   5.823   6.220   7.996
16547TIP3   OH249562   4.059   7.810   7.949
16547TIP3    H149563   3.971   7.844   7.924
16547TIP3    H249564   4.075   7.863   8.029
16548TIP3   OH249565   4.302   7.807   7.802
16548TIP3    H149566   4.216   7.806   7.849
16548TIP3    H249567   4.276   7.835   7.713
16549TIP3   OH249568   4.719   7.822   7.597
16549TIP3    H149569   4.651   7.842   7.530
16549TIP3    H249570   4.732   7.911   7.637
16550TIP3   OH249571   4.989   7.762   7.657
16550TIP3    H149572   4.897   7.782   7.629
16550TIP3    H249573   5.039   7.832   7.610
16551TIP3   OH249574   5.182   7.951   7.564
16551TIP3    H149575   5.191   8.042   7.527
16551TIP3    H249576   5.217   7.898   7.491
16552TIP3   OH249577   3.972   7.610   7.682
16552TIP3    H149578   3.995   7.587   7.774
16552TIP3    H249579   4.045   7.564   7.635
16553TIP3   OH249580   4.165   7.477   7.540
16553TIP3    H149581   4.184   7.398   7.595
16553TIP3    H249582   4.254   7.519   7.536
16554TIP3   OH249583   4.425   7.576   7.550
16554TIP3    H149584   4.467   7.490   7.535
16554TIP3    H249585   4.463   7.600   7.637
16555TIP3   OH249586   5.003   6.231   7.629
16555TIP3    H149587   4.962   6.162   7.684
16555TIP3    H249588   5.080   6.185   7.590
16556TIP3   OH249589   5.529   6.104   7.537
16556TIP3    H149590   5.566   6.161   7.467
16556TIP3    H249591   5.435   6.132   7.538
16557TIP3   OH249592   5.624   6.210   7.304
16557TIP3    H149593   5.699   6.162   7.263
16557TIP3    H249594   5.655   6.303   7.291
16558TIP3   OH249595   4.255   5.942   7.652
16558TIP3    H149596   4.162   5.910   7.652
16558TIP3    H249597   4.302   5.856   7.647
16559TIP3   OH249598   4.047   5.810   7.301
16559TIP3    H149599   4.073   5.866   7.226
16559TIP3    H249600   4.014   5.875   7.365
16560TIP3   OH249601   4.699   5.972   7.533
16560TIP3    H149602   4.754   6.022   7.470
16560TIP3    H249603   4.722   6.014   7.617
16561TIP3   OH249604   5.242   6.120   7.517
16561TIP3    H149605   5.244   6.084   7.427
16561TIP3    H249606   5.229   6.038   7.570
16562TIP3   OH249607   5.275   6.042   7.077
16562TIP3    H149608   5.188   6.084   7.088
16562TIP3    H249609   5.260   5.957   7.124
16563TIP3   OH249610   4.158   5.968   7.063
16563TIP3    H149611   4.205   5.906   7.005
16563TIP3    H249612   4.232   6.022   7.098
16564TIP3   OH249613   4.671   6.145   7.162
16564TIP3    H149614   4.732   6.098   7.221
16564TIP3    H249615   4.693   6.238   7.187
16565TIP3   OH249616   4.533   7.575   6.663
16565TIP3    H149617   4.622   7.595   6.626
16565TIP3    H249618   4.510   7.500   6.604
16566TIP3   OH249619   5.248   7.687   6.754
16566TIP3    H149620   5.241   7.589   6.744
16566TIP3    H249621   5.204   7.717   6.672
16567TIP3   OH249622   4.463   6.217   8.538
16567TIP3    H149623   4.429   6.150   8.599
16567TIP3    H249624   4.557   6.220   8.566
16568TIP3   OH249625   4.711   6.218   8.659
16568TIP3    H149626   4.797   6.201   8.617
16568TIP3    H249627   4.705   6.144   8.722
16569TIP3   OH249628   3.831   7.402   6.717
16569TIP3    H149629   3.836   7.449   6.802
16569TIP3    H249630   3.921   7.364   6.707
16570TIP3   OH249631   5.538   6.277   8.450
16570TIP3    H149632   5.562   6.250   8.540
16570TIP3    H249633   5.625   6.279   8.405
16571TIP3   OH249634   6.749   7.229   6.714
16571TIP3    H149635   6.705   7.307   6.676
16571TIP3    H249636   6.684   7.160   6.691
16572TIP3   OH249637   6.680   7.215   7.106
16572TIP3    H149638   6.751   7.168   7.151
16572TIP3    H249639   6.668   7.156   7.030
16573TIP3   OH249640   6.044   7.098   7.449
16573TIP3    H149641   6.060   7.050   7.532
16573TIP3    H249642   6.123   7.153   7.443
16574TIP3   OH249643   6.023   7.510   7.188
16574TIP3    H149644   5.999   7.415   7.192
16574TIP3    H249645   6.113   7.498   7.151
16575TIP3   OH249646   5.718   6.710   6.964
16575TIP3    H149647   5.670   6.794   6.980
16575TIP3    H249648   5.647   6.660   6.920
16576TIP3   OH249649   5.780   7.002   7.135
16576TIP3    H149650   5.828   6.925   7.172
16576TIP3    H249651   5.835   7.027   7.060
16577TIP3   OH249652   6.920   6.888   7.182
16577TIP3    H149653   6.952   6.800   7.154
16577TIP3    H249654   6.897   6.928   7.096
16578TIP3   OH249655   6.268   6.592   7.144
16578TIP3    H149656   6.270   6.665   7.078
16578TIP3    H249657   6.256   6.516   7.086
16579TIP3   OH249658   5.924   6.796   7.239
16579TIP3    H149659   6.004   6.776   7.290
16579TIP3    H249660   5.938   6.738   7.161
16580TIP3   OH249661   6.363   6.990   7.039
16580TIP3    H149662   6.459   6.968   7.046
16580TIP3    H249663   6.327   6.906   7.003
16581TIP3   OH249664   6.281   6.571   7.567
16581TIP3    H149665   6.220   6.613   7.503
16581TIP3    H249666   6.231   6.586   7.651
16582TIP3   OH249667   6.643   7.440   6.576
16582TIP3    H149668   6.601   7.408   6.494
16582TIP3    H249669   6.596   7.525   6.590
16583TIP3   OH249670   7.179   6.610   6.887
16583TIP3    H149671   7.117   6.588   6.958
16583TIP3    H249672   7.178   6.706   6.886
16584TIP3   OH249673   6.149   6.693   7.360
16584TIP3    H149674   6.216   6.763   7.380
16584TIP3    H249675   6.193   6.651   7.282
16585TIP3   OH249676   5.612   7.229   6.695
16585TIP3    H149677   5.570   7.251   6.609
16585TIP3    H249678   5.640   7.317   6.727
16586TIP3   OH249679   6.641   6.283   7.295
16586TIP3    H149680   6.621   6.190   7.313
16586TIP3    H249681   6.565   6.329   7.336
16587TIP3   OH249682   6.937   7.569   6.531
16587TIP3    H149683   6.903   7.520   6.454
16587TIP3    H249684   6.870   7.548   6.596
16588TIP3   OH249685   6.581   7.074   6.538
16588TIP3    H149686   6.497   7.116   6.512
16588TIP3    H249687   6.622   7.055   6.451
16589TIP3   OH249688   6.531   6.830   6.277
16589TIP3    H149689   6.604   6.888   6.306
16589TIP3    H249690   6.578   6.776   6.211
16590TIP3   OH249691   6.915   7.143   6.508
16590TIP3    H149692   6.863   7.167   6.588
16590TIP3    H249693   6.996   7.107   6.551
16591TIP3   OH249694   6.153   7.138   6.927
16591TIP3    H149695   6.110   7.079   6.860
16591TIP3    H249696   6.229   7.083   6.956
16592TIP3   OH249697   6.262   7.481   7.068
16592TIP3    H149698   6.247   7.475   6.972
16592TIP3    H249699   6.354   7.505   7.074
16593TIP3   OH249700   6.304   7.113   7.283
16593TIP3    H149701   6.323   7.077   7.193
16593TIP3    H249702   6.347   7.199   7.278
16594TIP3   OH249703   6.760   6.994   6.336
16594TIP3    H149704   6.818   7.057   6.386
16594TIP3    H249705   6.785   7.016   6.243
16595TIP3   OH249706   6.527   7.690   6.612
16595TIP3    H149707   6.548   7.758   6.678
16595TIP3    H249708   6.448   7.727   6.569
16596TIP3   OH249709   7.274   6.238   6.381
16596TIP3    H149710   7.193   6.259   6.434
16596TIP3    H249711   7.289   6.323   6.336
16597TIP3   OH249712   6.015   6.979   6.736
16597TIP3    H149713   5.954   7.028   6.677
16597TIP3    H249714   5.973   6.893   6.740
16598TIP3   OH249715   7.076   7.604   5.944
16598TIP3    H149716   7.082   7.702   5.926
16598TIP3    H249717   7.165   7.577   5.912
16599TIP3   OH249718   5.825   7.361   7.618
16599TIP3    H149719   5.744   7.332   7.572
16599TIP3    H249720   5.857   7.278   7.659
16600TIP3   OH249721   5.648   7.552   7.271
16600TIP3    H149722   5.744   7.554   7.269
16600TIP3    H249723   5.623   7.637   7.310
16601TIP3   OH249724   6.375   7.928   6.405
16601TIP3    H149725   6.340   7.884   6.324
16601TIP3    H249726   6.341   8.018   6.393
16602TIP3   OH249727   5.824   7.772   6.798
16602TIP3    H149728   5.866   7.761   6.886
16602TIP3    H249729   5.769   7.692   6.794
16603TIP3   OH249730   6.582   7.820   6.047
16603TIP3    H149731   6.643   7.754   6.008
16603TIP3    H249732   6.615   7.823   6.140
16604TIP3   OH249733   6.623   7.858   6.317
16604TIP3    H149734   6.536   7.871   6.361
16604TIP3    H249735   6.678   7.837   6.394
16605TIP3   OH249736   6.401   6.368   7.409
16605TIP3    H149737   6.308   6.342   7.394
16605TIP3    H249738   6.386   6.452   7.457
16606TIP3   OH249739   6.928   6.481   7.608
16606TIP3    H149740   6.948   6.522   7.693
16606TIP3    H249741   6.832   6.464   7.622
16607TIP3   OH249742   6.843   7.043   6.085
16607TIP3    H149743   6.799   7.019   6.001
16607TIP3    H249744   6.921   7.092   6.051
16608TIP3   OH249745   6.549   6.417   6.386
16608TIP3    H149746   6.518   6.415   6.478
16608TIP3    H249747   6.508   6.335   6.352
16609TIP3   OH249748   6.322   6.888   7.434
16609TIP3    H149749   6.264   6.914   7.508
16609TIP3    H249750   6.318   6.968   7.377
16610TIP3   OH249751   6.221   6.770   6.945
16610TIP3    H149752   6.126   6.751   6.958
16610TIP3    H249753   6.236   6.733   6.855
16611TIP3   OH249754   6.690   6.844   6.649
16611TIP3    H149755   6.650   6.927   6.614
16611TIP3    H249756   6.763   6.828   6.587
16612TIP3   OH249757   6.174   6.933   7.663
16612TIP3    H149758   6.167   6.976   7.751
16612TIP3    H249759   6.156   6.841   7.690
16613TIP3   OH249760   6.205   6.391   6.352
16613TIP3    H149761   6.190   6.394   6.448
16613TIP3    H249762   6.129   6.444   6.320
16614TIP3   OH249763   5.742   6.437   7.221
16614TIP3    H149764   5.819   6.469   7.273
16614TIP3    H249765   5.780   6.411   7.136
16615TIP3   OH249766   5.726   6.423   6.743
16615TIP3    H149767   5.764   6.459   6.660
16615TIP3    H249768   5.659   6.493   6.760
16616TIP3   OH249769   6.510   6.571   7.005
16616TIP3    H149770   6.472   6.595   7.090
16616TIP3    H249771   6.604   6.598   7.017
16617TIP3   OH249772   5.976   6.649   7.009
16617TIP3    H149773   5.881   6.672   6.988
16617TIP3    H249774   5.978   6.557   6.983
16618TIP3   OH249775   6.248   6.640   6.704
16618TIP3    H149776   6.344   6.658   6.693
16618TIP3    H249777   6.209   6.670   6.619
16619TIP3   OH249778   7.011   6.626   7.214
16619TIP3    H149779   6.943   6.628   7.282
16619TIP3    H249780   6.958   6.607   7.135
16620TIP3   OH249781   6.095   6.679   6.479
16620TIP3    H149782   6.024   6.635   6.429
16620TIP3    H249783   6.146   6.718   6.405
16621TIP3   OH249784   6.623   6.901   7.090
16621TIP3    H149785   6.684   6.849   7.035
16621TIP3    H249786   6.639   6.861   7.177
16622TIP3   OH249787   6.197   6.357   6.967
16622TIP3    H149788   6.109   6.330   6.995
16622TIP3    H249789   6.183   6.399   6.880
16623TIP3   OH249790   6.590   6.811   7.379
16623TIP3    H149791   6.504   6.846   7.409
16623TIP3    H249792   6.651   6.836   7.450
16624TIP3   OH249793   6.338   7.215   6.488
16624TIP3    H149794   6.270   7.145   6.476
16624TIP3    H249795   6.322   7.244   6.581
16625TIP3   OH249796   6.802   6.522   6.344
16625TIP3    H149797   6.705   6.509   6.353
16625TIP3    H249798   6.814   6.616   6.369
16626TIP3   OH249799   6.878   6.765   6.452
16626TIP3    H149800   6.973   6.774   6.472
16626TIP3    H249801   6.859   6.846   6.400
16627TIP3   OH249802   6.034   7.234   7.164
16627TIP3    H149803   6.074   7.206   7.079
16627TIP3    H249804   6.067   7.166   7.225
16628TIP3   OH249805   6.491   7.362   6.314
16628TIP3    H149806   6.443   7.448   6.319
16628TIP3    H249807   6.434   7.305   6.370
16629TIP3   OH249808   5.907   7.152   7.775
16629TIP3    H149809   5.932   7.167   7.868
16629TIP3    H249810   5.839   7.084   7.784
16630TIP3   OH249811   7.318   6.855   6.285
16630TIP3    H149812   7.253   6.811   6.225
16630TIP3    H249813   7.311   6.945   6.247
16631TIP3   OH249814   7.008   7.676   6.212
16631TIP3    H149815   6.995   7.588   6.248
16631TIP3    H249816   7.033   7.656   6.119
16632TIP3   OH249817   6.134   7.537   6.789
16632TIP3    H149818   6.131   7.617   6.733
16632TIP3    H249819   6.041   7.510   6.787
16633TIP3   OH249820   5.700   6.837   6.495
16633TIP3    H149821   5.741   6.924   6.511
16633TIP3    H249822   5.617   6.845   6.546
16634TIP3   OH249823   6.278   7.304   6.738
16634TIP3    H149824   6.235   7.390   6.753
16634TIP3    H249825   6.241   7.250   6.810
16635TIP3   OH249826   6.059   7.775   6.644
16635TIP3    H149827   5.972   7.785   6.687
16635TIP3    H249828   6.086   7.868   6.634
16636TIP3   OH249829   6.768   7.405   6.098
16636TIP3    H149830   6.818   7.380   6.179
16636TIP3    H249831   6.679   7.374   6.122
16637TIP3   OH249832   7.100   7.869   5.913
16637TIP3    H149833   7.131   7.948   5.867
16637TIP3    H249834   7.017   7.903   5.951
16638TIP3   OH249835   6.133   6.649   7.785
16638TIP3    H149836   6.052   6.684   7.828
16638TIP3    H249837   6.167   6.598   7.860
16639TIP3   OH249838   6.926   7.349   6.321
16639TIP3    H149839   6.913   7.277   6.387
16639TIP3    H249840   7.021   7.336   6.302
16640TIP3   OH249841   6.132   7.389   6.099
16640TIP3    H149842   6.147   7.300   6.064
16640TIP3    H249843   6.111   7.370   6.192
16641TIP3   OH249844   6.080   7.392   6.374
16641TIP3    H149845   6.157   7.363   6.425
16641TIP3    H249846   6.086   7.490   6.379
16642TIP3   OH249847   5.818   7.087   6.574
16642TIP3    H149848   5.748   7.129   6.628
16642TIP3    H249849   5.829   7.155   6.504
16643TIP3   OH249850   6.861   6.478   6.625
16643TIP3    H149851   6.841   6.499   6.531
16643TIP3    H249852   6.876   6.566   6.663
16644TIP3   OH249853   6.348   7.592   6.328
16644TIP3    H149854   6.258   7.618   6.353
16644TIP3    H249855   6.361   7.646   6.249
16645TIP3   OH249856   6.522   6.650   6.732
16645TIP3    H149857   6.588   6.719   6.708
16645TIP3    H249858   6.546   6.635   6.826
16646TIP3   OH249859   6.691   6.376   6.820
16646TIP3    H149860   6.700   6.438   6.895
16646TIP3    H249861   6.755   6.417   6.758
16647TIP3   OH249862   6.091   7.666   6.386
16647TIP3    H149863   6.059   7.734   6.322
16647TIP3    H249864   6.073   7.709   6.472
16648TIP3   OH249865   6.191   6.378   6.642
16648TIP3    H149866   6.194   6.475   6.657
16648TIP3    H249867   6.288   6.361   6.640
16649TIP3   OH249868   5.809   7.292   6.379
16649TIP3    H149869   5.877   7.362   6.386
16649TIP3    H249870   5.853   7.236   6.311
16650TIP3   OH249871   5.748   6.568   6.515
16650TIP3    H149872   5.750   6.666   6.513
16650TIP3    H249873   5.671   6.550   6.461
16651TIP3   OH249874   6.141   6.286   7.385
16651TIP3    H149875   6.091   6.253   7.309
16651TIP3    H249876   6.133   6.211   7.448
16652TIP3   OH249877   5.684   7.517   6.769
16652TIP3    H149878   5.605   7.540   6.821
16652TIP3    H249879   5.657   7.550   6.681
16653TIP3   OH249880   6.301   7.589   6.017
16653TIP3    H149881   6.242   7.516   6.048
16653TIP3    H249882   6.374   7.538   5.978
16654TIP3   OH249883   6.734   7.631   5.921
16654TIP3    H149884   6.781   7.571   5.981
16654TIP3    H249885   6.793   7.633   5.843
16655TIP3   OH249886   5.944   7.109   6.228
16655TIP3    H149887   6.000   7.075   6.300
16655TIP3    H249888   6.008   7.103   6.153
16656TIP3   OH249889   6.451   7.309   6.042
16656TIP3    H149890   6.456   7.318   6.140
16656TIP3    H249891   6.456   7.212   6.033
16657TIP3   OH249892   6.156   7.010   6.456
16657TIP3    H149893   6.125   6.962   6.534
16657TIP3    H249894   6.190   6.937   6.399
16658TIP3   OH249895   6.252   6.801   6.291
16658TIP3    H149896   6.238   6.783   6.197
16658TIP3    H249897   6.351   6.808   6.292
16659TIP3   OH249898   7.074   7.136   5.956
16659TIP3    H149899   7.051   7.090   5.873
16659TIP3    H249900   7.041   7.226   5.933
16660TIP3   OH249901   6.543   6.635   7.602
16660TIP3    H149902   6.567   6.670   7.514
16660TIP3    H249903   6.447   6.620   7.594
16661TIP3   OH249904   6.674   6.403   7.668
16661TIP3    H149905   6.624   6.488   7.668
16661TIP3    H249906   6.603   6.339   7.684
16662TIP3   OH249907   6.059   7.873   6.202
16662TIP3    H149908   6.154   7.866   6.180
16662TIP3    H249909   6.027   7.915   6.121
16663TIP3   OH249910   5.539   7.248   6.421
16663TIP3    H149911   5.633   7.266   6.400
16663TIP3    H249912   5.526   7.159   6.381
16664TIP3   OH249913   5.451   7.862   6.828
16664TIP3    H149914   5.385   7.799   6.791
16664TIP3    H249915   5.496   7.804   6.893
16665TIP3   OH249916   5.587   7.716   7.016
16665TIP3    H149917   5.574   7.638   7.072
16665TIP3    H249918   5.635   7.775   7.076
16666TIP3   OH249919   7.199   7.323   6.287
16666TIP3    H149920   7.264   7.388   6.258
16666TIP3    H249921   7.243   7.280   6.365
16667TIP3   OH249922   7.310   7.185   6.494
16667TIP3    H149923   7.242   7.134   6.544
16667TIP3    H249924   7.374   7.205   6.565
16668TIP3   OH249925   7.268   7.094   6.144
16668TIP3    H149926   7.201   7.097   6.071
16668TIP3    H249927   7.236   7.170   6.196
16669TIP3   OH249928   7.149   6.768   6.092
16669TIP3    H149929   7.098   6.811   6.021
16669TIP3    H249930   7.121   6.675   6.081
16670TIP3   OH249931   7.131   7.034   6.639
16670TIP3    H149932   7.137   6.939   6.614
16670TIP3    H249933   7.170   7.030   6.729
16671TIP3   OH249934   5.776   7.128   7.383
16671TIP3    H149935   5.775   7.093   7.291
16671TIP3    H249936   5.872   7.124   7.403
16672TIP3   OH249937   7.089   6.502   6.077
16672TIP3    H149938   7.162   6.475   6.136
16672TIP3    H249939   7.015   6.447   6.106
16673TIP3   OH249940   7.151   6.770   6.520
16673TIP3    H149941   7.179   6.682   6.552
16673TIP3    H249942   7.217   6.786   6.450
16674TIP3   OH249943   6.023   6.758   8.022
16674TIP3    H149944   6.074   6.838   8.041
16674TIP3    H249945   5.997   6.727   8.111
16675TIP3   OH249946   7.259   6.512   6.572
16675TIP3    H149947   7.294   6.502   6.663
16675TIP3    H249948   7.194   6.439   6.571
16676TIP3   OH249949   5.958   6.495   7.378
16676TIP3    H149950   6.021   6.427   7.410
16676TIP3    H249951   6.012   6.575   7.386
16677TIP3   OH249952   5.759   6.765   7.466
16677TIP3    H149953   5.809   6.777   7.383
16677TIP3    H249954   5.772   6.850   7.510
16678TIP3   OH249955   7.335   6.448   6.206
16678TIP3    H149956   7.375   6.375   6.155
16678TIP3    H249957   7.403   6.517   6.201
16679TIP3   OH249958   5.747   6.282   6.970
16679TIP3    H149959   5.654   6.271   6.996
16679TIP3    H249960   5.738   6.337   6.889
16680TIP3   OH249961   5.955   6.341   7.772
16680TIP3    H149962   5.917   6.351   7.861
16680TIP3    H249963   5.890   6.393   7.720
16681TIP3   OH249964   5.771   7.867   7.174
16681TIP3    H149965   5.798   7.871   7.268
16681TIP3    H249966   5.845   7.818   7.131
16682TIP3   OH249967   5.965   7.733   7.035
16682TIP3    H149968   5.981   7.646   7.078
16682TIP3    H249969   6.055   7.759   7.010
16683TIP3   OH249970   7.350   6.380   7.038
16683TIP3    H149971   7.370   6.422   6.951
16683TIP3    H249972   7.252   6.380   7.035
16684TIP3   OH249973   7.431   6.462   6.790
16684TIP3    H149974   7.498   6.406   6.745
16684TIP3    H249975   7.467   6.551   6.769
16685TIP3   OH249976   6.072   6.155   7.130
16685TIP3    H149977   5.978   6.154   7.105
16685TIP3    H249978   6.071   6.075   7.185
16686TIP3   OH249979   5.851   6.070   6.790
16686TIP3    H149980   5.870   6.124   6.711
16686TIP3    H249981   5.807   6.135   6.848
16687TIP3   OH249982   7.078   6.355   7.006
16687TIP3    H149983   7.012   6.399   6.953
16687TIP3    H249984   7.026   6.289   7.055
16688TIP3   OH249985   7.070   6.299   6.560
16688TIP3    H149986   6.991   6.353   6.581
16688TIP3    H249987   7.052   6.219   6.613
16689TIP3   OH249988   5.556   7.640   6.567
16689TIP3    H149989   5.474   7.601   6.533
16689TIP3    H249990   5.541   7.732   6.542
16690TIP3   OH249991   5.954   6.222   6.555
16690TIP3    H149992   6.000   6.162   6.492
16690TIP3    H249993   6.028   6.278   6.587
16691TIP3   OH249994   6.468   6.397   6.660
16691TIP3    H149995   6.545   6.365   6.711
16691TIP3    H249996   6.480   6.493   6.677
16692TIP3   OH249997   6.327   7.827   6.148
16692TIP3    H149998   6.415   7.847   6.110
16692TIP3    H249999   6.303   7.752   6.089
16693TIP3   OH250000   6.248   6.440   7.992
16693TIP3    H150001   6.231   6.381   8.068
16693TIP3    H250002   6.343   6.459   8.002
16694TIP3   OH250003   5.634   7.669   6.203
16694TIP3    H150004   5.630   7.686   6.298
16694TIP3    H250005   5.720   7.623   6.193
16695TIP3   OH250006   7.500   6.980   6.462
16695TIP3    H150007   7.451   7.063   6.448
16695TIP3    H250008   7.447   6.919   6.409
16696TIP3   OH250009   8.370   6.651   5.853
16696TIP3    H150010   8.335   6.692   5.933
16696TIP3    H250011   8.309   6.576   5.839
16697TIP3   OH250012   8.005   6.664   5.840
16697TIP3    H150013   7.965   6.618   5.914
16697TIP3    H250014   7.930   6.720   5.810
16698TIP3   OH250015   7.561   6.684   6.706
16698TIP3    H150016   7.569   6.782   6.700
16698TIP3    H250017   7.581   6.655   6.615
16699TIP3   OH250018   7.519   6.672   6.227
16699TIP3    H150019   7.552   6.712   6.143
16699TIP3    H250020   7.456   6.742   6.252
16700TIP3   OH250021   7.938   6.652   6.390
16700TIP3    H150022   7.897   6.590   6.453
16700TIP3    H250023   8.032   6.633   6.401
16701TIP3   OH250024   7.483   7.088   5.972
16701TIP3    H150025   7.496   7.185   5.965
16701TIP3    H250026   7.412   7.087   6.040
16702TIP3   OH250027   7.514   7.365   5.986
16702TIP3    H150028   7.522   7.395   6.079
16702TIP3    H250029   7.603   7.381   5.953
16703TIP3   OH250030   7.551   6.823   6.007
16703TIP3    H150031   7.561   6.920   5.993
16703TIP3    H250032   7.471   6.807   5.956
16704TIP3   OH250033   7.739   7.353   5.719
16704TIP3    H150034   7.790   7.289   5.769
16704TIP3    H250035   7.805   7.375   5.649
16705TIP3   OH250036   7.322   7.511   5.848
16705TIP3    H150037   7.395   7.497   5.911
16705TIP3    H250038   7.311   7.418   5.818
16706TIP3   OH250039   7.531   6.532   6.457
16706TIP3    H150040   7.437   6.524   6.481
16706TIP3    H250041   7.529   6.590   6.378
16707TIP3   OH250042   7.834   6.447   6.578
16707TIP3    H150043   7.743   6.426   6.607
16707TIP3    H250044   7.879   6.366   6.608
16708TIP3   OH250045   7.622   6.322   6.272
16708TIP3    H150046   7.646   6.384   6.201
16708TIP3    H250047   7.603   6.383   6.346
16709TIP3   OH250048   7.747   6.487   6.023
16709TIP3    H150049   7.791   6.416   5.973
16709TIP3    H250050   7.806   6.501   6.097
16710TIP3   OH250051   1.530   7.274   7.557
16710TIP3    H150052   1.450   7.296   7.608
16710TIP3    H250053   1.542   7.356   7.505
16711TIP3   OH250054   1.499   7.794   7.263
16711TIP3    H150055   1.420   7.847   7.236
16711TIP3    H250056   1.459   7.705   7.261
16712TIP3   OH250057   1.347   7.548   7.255
16712TIP3    H150058   1.411   7.513   7.318
16712TIP3    H250059   1.264   7.505   7.284
16713TIP3   OH250060   1.592   7.490   7.389
16713TIP3    H150061   1.624   7.415   7.334
16713TIP3    H250062   1.658   7.558   7.370
16714TIP3   OH250063   3.605   8.054   7.801
16714TIP3    H150064   3.619   8.147   7.825
16714TIP3    H250065   3.617   8.057   7.704
16715TIP3   OH250066   3.032   7.968   7.414
16715TIP3    H150067   3.106   7.950   7.476
16715TIP3    H250068   3.080   8.012   7.341
16716TIP3   OH250069   3.243   7.947   7.584
16716TIP3    H150070   3.202   7.927   7.670
16716TIP3    H250071   3.284   8.034   7.604
16717TIP3   OH250072   3.397   7.941   7.955
16717TIP3    H150073   3.332   8.013   7.953
16717TIP3    H250074   3.465   7.974   7.893
16718TIP3   OH250075   2.700   7.592   7.966
16718TIP3    H150076   2.677   7.497   7.971
16718TIP3    H250077   2.611   7.631   7.956
16719TIP3   OH250078   2.576   8.141   6.919
16719TIP3    H150079   2.631   8.193   6.981
16719TIP3    H250080   2.645   8.090   6.873
16720TIP3   OH250081   2.949   8.451   7.181
16720TIP3    H150082   2.897   8.451   7.264
16720TIP3    H250083   3.034   8.416   7.212
16721TIP3   OH250084   2.817   8.281   6.997
16721TIP3    H150085   2.847   8.353   7.056
16721TIP3    H250086   2.841   8.317   6.909
16722TIP3   OH250087   3.349   7.513   7.069
16722TIP3    H150088   3.266   7.537   7.123
16722TIP3    H250089   3.361   7.597   7.017
16723TIP3   OH250090   3.119   8.895   6.602
16723TIP3    H150091   3.128   8.987   6.566
16723TIP3    H250092   3.211   8.864   6.592
16724TIP3   OH250093   2.878   8.351   6.740
16724TIP3    H150094   2.847   8.323   6.652
16724TIP3    H250095   2.961   8.397   6.716
16725TIP3   OH250096   2.570   7.692   7.064
16725TIP3    H150097   2.560   7.765   7.127
16725TIP3    H250098   2.512   7.719   6.992
16726TIP3   OH250099   2.912   8.180   7.542
16726TIP3    H150100   2.831   8.206   7.494
16726TIP3    H250101   2.936   8.099   7.493
16727TIP3   OH250102   2.282   7.682   7.010
16727TIP3    H150103   2.266   7.692   7.106
16727TIP3    H250104   2.199   7.720   6.975
16728TIP3   OH250105   1.765   7.730   7.412
16728TIP3    H150106   1.812   7.764   7.333
16728TIP3    H250107   1.679   7.774   7.400
16729TIP3   OH250108   2.583   7.844   7.659
16729TIP3    H150109   2.513   7.839   7.725
16729TIP3    H250110   2.657   7.877   7.713
16730TIP3   OH250111   2.308   7.928   7.363
16730TIP3    H150112   2.395   7.962   7.339
16730TIP3    H250113   2.247   7.972   7.300
16731TIP3   OH250114   3.069   7.909   7.807
16731TIP3    H150115   2.988   7.906   7.860
16731TIP3    H250116   3.035   7.858   7.731
16732TIP3   OH250117   2.137   7.968   7.136
16732TIP3    H150118   2.070   7.927   7.077
16732TIP3    H250119   2.191   8.016   7.070
16733TIP3   OH250120   2.243   7.624   7.552
16733TIP3    H150121   2.183   7.580   7.615
16733TIP3    H250122   2.256   7.708   7.596
16734TIP3   OH250123   2.853   7.820   6.995
16734TIP3    H150124   2.760   7.818   7.021
16734TIP3    H250125   2.881   7.911   7.023
16735TIP3   OH250126   2.935   8.054   7.095
16735TIP3    H150127   3.019   8.085   7.131
16735TIP3    H250128   2.889   8.138   7.075
16736TIP3   OH250129   3.357   8.161   6.952
16736TIP3    H150130   3.297   8.116   6.889
16736TIP3    H250131   3.354   8.250   6.912
16737TIP3   OH250132   3.080   8.954   6.878
16737TIP3    H150133   3.024   8.881   6.909
16737TIP3    H250134   3.085   8.937   6.783
16738TIP3   OH250135   2.813   8.710   6.755
16738TIP3    H150136   2.859   8.683   6.837
16738TIP3    H250137   2.725   8.670   6.767
16739TIP3   OH250138   3.171   9.155   6.553
16739TIP3    H150139   3.207   9.230   6.502
16739TIP3    H250140   3.114   9.201   6.618
16740TIP3   OH250141   2.975   8.644   6.973
16740TIP3    H150142   2.957   8.583   7.047
16740TIP3    H250143   3.072   8.632   6.961
16741TIP3   OH250144   2.262   8.651   6.762
16741TIP3    H150145   2.219   8.569   6.733
16741TIP3    H250146   2.202   8.675   6.836
16742TIP3   OH250147   2.904   7.764   7.280
16742TIP3    H150148   2.881   7.802   7.194
16742TIP3    H250149   2.933   7.844   7.329
16743TIP3   OH250150   2.609   7.905   7.374
16743TIP3    H150151   2.630   8.001   7.363
16743TIP3    H250152   2.590   7.901   7.469
16744TIP3   OH250153   2.749   7.674   7.507
16744TIP3    H150154   2.701   7.746   7.552
16744TIP3    H250155   2.779   7.720   7.426
16745TIP3   OH250156   2.252   7.665   7.278
16745TIP3    H150157   2.227   7.758   7.294
16745TIP3    H250158   2.283   7.645   7.369
16746TIP3   OH250159   3.123   8.354   7.531
16746TIP3    H150160   3.060   8.281   7.547
16746TIP3    H250161   3.159   8.367   7.622
16747TIP3   OH250162   1.786   7.858   7.174
16747TIP3    H150163   1.810   7.948   7.151
16747TIP3    H250164   1.692   7.850   7.152
16748TIP3   OH250165   2.344   8.893   6.668
16748TIP3    H150166   2.290   8.829   6.720
16748TIP3    H250167   2.417   8.836   6.641
16749TIP3   OH250168   2.765   8.931   6.576
16749TIP3    H150169   2.810   8.880   6.646
16749TIP3    H250170   2.831   8.929   6.503
16750TIP3   OH250171   1.960   8.352   6.883
16750TIP3    H150172   2.015   8.320   6.956
16750TIP3    H250173   2.028   8.369   6.815
16751TIP3   OH250174   2.527   8.606   6.716
16751TIP3    H150175   2.436   8.623   6.749
16751TIP3    H250176   2.525   8.509   6.709
16752TIP3   OH250177   2.166   8.288   7.098
16752TIP3    H150178   2.170   8.263   7.191
16752TIP3    H250179   2.227   8.223   7.058
16753TIP3   OH250180   2.302   8.092   6.955
16753TIP3    H150181   2.275   8.106   6.862
16753TIP3    H250182   2.399   8.106   6.948
16754TIP3   OH250183   3.119   8.436   6.621
16754TIP3    H150184   3.098   8.391   6.537
16754TIP3    H250185   3.085   8.526   6.598
16755TIP3   OH250186   3.249   8.625   6.953
16755TIP3    H150187   3.318   8.686   6.919
16755TIP3    H250188   3.296   8.584   7.030
16756TIP3   OH250189   3.380   8.494   7.146
16756TIP3    H150190   3.318   8.445   7.204
16756TIP3    H250191   3.450   8.525   7.207
16757TIP3   OH250192   3.318   8.399   6.805
16757TIP3    H150193   3.248   8.402   6.736
16757TIP3    H250194   3.289   8.474   6.860
16758TIP3   OH250195   3.196   8.069   6.755
16758TIP3    H150196   3.147   8.113   6.685
16758TIP3    H250197   3.167   7.976   6.744
16759TIP3   OH250198   3.199   8.339   7.276
16759TIP3    H150199   3.201   8.242   7.263
16759TIP3    H250200   3.182   8.346   7.372
16760TIP3   OH250201   3.137   7.803   6.747
16760TIP3    H150202   3.207   7.772   6.807
16760TIP3    H250203   3.060   7.749   6.771
16761TIP3   OH250204   3.200   8.067   7.204
16761TIP3    H150205   3.235   7.977   7.217
16761TIP3    H250206   3.250   8.094   7.125
16762TIP3   OH250207   3.342   8.185   7.664
16762TIP3    H150208   3.417   8.229   7.622
16762TIP3    H250209   3.318   8.246   7.734
16763TIP3   OH250210   3.301   7.812   7.235
16763TIP3    H150211   3.342   7.797   7.322
16763TIP3    H250212   3.236   7.739   7.232
16764TIP3   OH250213   3.385   7.735   6.880
16764TIP3    H150214   3.423   7.670   6.818
16764TIP3    H250215   3.443   7.812   6.868
16765TIP3   OH250216   1.825   7.553   7.609
16765TIP3    H150217   1.778   7.589   7.685
16765TIP3    H250218   1.819   7.627   7.545
16766TIP3   OH250219   3.634   7.856   8.142
16766TIP3    H150220   3.541   7.836   8.122
16766TIP3    H250221   3.673   7.766   8.136
16767TIP3   OH250222   2.831   7.763   7.786
16767TIP3    H150223   2.786   7.700   7.846
16767TIP3    H250224   2.877   7.703   7.726
16768TIP3   OH250225   3.373   7.656   7.680
16768TIP3    H150226   3.407   7.721   7.616
16768TIP3    H250227   3.278   7.681   7.684
16769TIP3   OH250228   3.480   7.762   7.444
16769TIP3    H150229   3.561   7.746   7.394
16769TIP3    H250230   3.485   7.860   7.448
16770TIP3   OH250231   2.100   7.504   7.779
16770TIP3    H150232   2.008   7.474   7.794
16770TIP3    H250233   2.149   7.421   7.797
16771TIP3   OH250234   1.888   7.355   7.435
16771TIP3    H150235   1.913   7.420   7.367
16771TIP3    H250236   1.863   7.416   7.508
16772TIP3   OH250237   2.546   7.524   7.689
16772TIP3    H150238   2.594   7.585   7.632
16772TIP3    H250239   2.505   7.583   7.754
16773TIP3   OH250240   3.096   7.662   7.651
16773TIP3    H150241   3.063   7.632   7.566
16773TIP3    H250242   3.074   7.587   7.710
16774TIP3   OH250243   3.123   7.596   7.226
16774TIP3    H150244   3.039   7.647   7.235
16774TIP3    H250245   3.099   7.514   7.274
16775TIP3   OH250246   1.993   7.527   7.211
16775TIP3    H150247   2.046   7.467   7.155
16775TIP3    H250248   2.063   7.580   7.254
16776TIP3   OH250249   4.582   8.762   6.859
16776TIP3    H150250   4.554   8.854   6.839
16776TIP3    H250251   4.505   8.713   6.824
16777TIP3   OH250252   4.567   8.760   7.241
16777TIP3    H150253   4.597   8.729   7.329
16777TIP3    H250254   4.530   8.677   7.205
16778TIP3   OH250255   3.891   8.607   7.593
16778TIP3    H150256   3.924   8.564   7.673
16778TIP3    H250257   3.937   8.692   7.593
16779TIP3   OH250258   4.819   9.053   6.907
16779TIP3    H150259   4.814   8.985   6.976
16779TIP3    H250260   4.843   9.132   6.957
16780TIP3   OH250261   3.558   8.264   7.116
16780TIP3    H150262   3.520   8.352   7.129
16780TIP3    H250263   3.484   8.218   7.072
16781TIP3   OH250264   3.624   8.546   7.254
16781TIP3    H150265   3.673   8.474   7.299
16781TIP3    H250266   3.694   8.590   7.203
16782TIP3   OH250267   4.459   9.510   6.957
16782TIP3    H150268   4.513   9.456   6.897
16782TIP3    H250269   4.500   9.494   7.042
16783TIP3   OH250270   4.376   8.967   7.257
16783TIP3    H150271   4.442   8.898   7.234
16783TIP3    H250272   4.431   9.040   7.288
16784TIP3   OH250273   5.332   8.319   7.202
16784TIP3    H150274   5.353   8.410   7.227
16784TIP3    H250275   5.395   8.300   7.131
16785TIP3   OH250276   4.804   8.496   7.316
16785TIP3    H150277   4.840   8.408   7.338
16785TIP3    H250278   4.767   8.479   7.228
16786TIP3   OH250279   4.131   8.148   7.285
16786TIP3    H150280   4.111   8.222   7.223
16786TIP3    H250281   4.082   8.076   7.239
16787TIP3   OH250282   4.821   8.243   6.905
16787TIP3    H150283   4.892   8.220   6.970
16787TIP3    H250284   4.875   8.275   6.831
16788TIP3   OH250285   3.763   8.348   7.388
16788TIP3    H150286   3.848   8.337   7.435
16788TIP3    H250287   3.780   8.294   7.308
16789TIP3   OH250288   4.207   8.547   7.179
16789TIP3    H150289   4.300   8.521   7.193
16789TIP3    H250290   4.167   8.463   7.148
16790TIP3   OH250291   4.128   8.129   7.716
16790TIP3    H150292   4.067   8.168   7.651
16790TIP3    H250293   4.075   8.135   7.798
16791TIP3   OH250294   4.475   8.984   6.728
16791TIP3    H150295   4.433   8.961   6.644
16791TIP3    H250296   4.435   9.072   6.745
16792TIP3   OH250297   4.227   8.916   7.483
16792TIP3    H150298   4.187   8.982   7.542
16792TIP3    H250299   4.261   8.970   7.410
16793TIP3   OH250300   5.032   8.220   7.070
16793TIP3    H150301   5.035   8.180   7.157
16793TIP3    H250302   5.086   8.301   7.081
16794TIP3   OH250303   3.996   8.244   7.502
16794TIP3    H150304   4.056   8.319   7.525
16794TIP3    H250305   4.046   8.205   7.427
16795TIP3   OH250306   3.455   8.779   6.845
16795TIP3    H150307   3.414   8.813   6.763
16795TIP3    H250308   3.485   8.860   6.889
16796TIP3   OH250309   5.179   8.199   7.421
16796TIP3    H150310   5.086   8.225   7.411
16796TIP3    H250311   5.216   8.216   7.333
16797TIP3   OH250312   4.484   7.853   7.432
16797TIP3    H150313   4.469   7.758   7.448
16797TIP3    H250314   4.407   7.892   7.478
16798TIP3   OH250315   4.620   9.343   6.797
16798TIP3    H150316   4.648   9.251   6.779
16798TIP3    H250317   4.680   9.389   6.737
16799TIP3   OH250318   4.740   9.136   6.661
16799TIP3    H150319   4.709   9.058   6.613
16799TIP3    H250320   4.776   9.094   6.742
16800TIP3   OH250321   4.414   8.614   6.689
16800TIP3    H150322   4.334   8.666   6.668
16800TIP3    H250323   4.459   8.611   6.602
16801TIP3   OH250324   4.373   8.397   6.406
16801TIP3    H150325   4.439   8.450   6.452
16801TIP3    H250326   4.431   8.335   6.358
16802TIP3   OH250327   4.760   8.697   6.660
16802TIP3    H150328   4.706   8.721   6.739
16802TIP3    H250329   4.845   8.673   6.703
16803TIP3   OH250330   3.995   8.697   7.075
16803TIP3    H150331   3.952   8.639   7.009
16803TIP3    H250332   4.071   8.643   7.103
16804TIP3   OH250333   4.149   9.122   7.188
16804TIP3    H150334   4.098   9.063   7.131
16804TIP3    H250335   4.222   9.065   7.217
16805TIP3   OH250336   4.142   8.663   7.423
16805TIP3    H150337   4.173   8.639   7.333
16805TIP3    H250338   4.176   8.755   7.432
16806TIP3   OH250339   4.601   8.554   6.486
16806TIP3    H150340   4.659   8.615   6.537
16806TIP3    H250341   4.628   8.577   6.393
16807TIP3   OH250342   4.355   9.238   6.743
16807TIP3    H150343   4.409   9.294   6.801
16807TIP3    H250344   4.269   9.281   6.746
16808TIP3   OH250345   5.118   7.797   6.535
16808TIP3    H150346   5.036   7.818   6.585
16808TIP3    H250347   5.131   7.880   6.484
16809TIP3   OH250348   3.859   8.535   6.883
16809TIP3    H150349   3.796   8.583   6.825
16809TIP3    H250350   3.815   8.451   6.893
16810TIP3   OH250351   4.909   9.152   6.079
16810TIP3    H150352   4.914   9.248   6.057
16810TIP3    H250353   5.004   9.126   6.071
16811TIP3   OH250354   4.625   9.387   6.233
16811TIP3    H150355   4.581   9.323   6.175
16811TIP3    H250356   4.571   9.378   6.315
16812TIP3   OH250357   4.482   9.378   6.481
16812TIP3    H150358   4.392   9.399   6.507
16812TIP3    H250359   4.505   9.311   6.548
16813TIP3   OH250360   4.245   7.927   7.557
16813TIP3    H150361   4.154   7.899   7.534
16813TIP3    H250362   4.224   8.010   7.605
16814TIP3   OH250363   4.778   8.044   7.753
16814TIP3    H150364   4.844   8.016   7.819
16814TIP3    H250365   4.692   8.022   7.796
16815TIP3   OH250366   4.678   8.602   6.231
16815TIP3    H150367   4.643   8.576   6.144
16815TIP3    H250368   4.759   8.650   6.206
16816TIP3   OH250369   4.390   7.976   6.533
16816TIP3    H150370   4.355   7.973   6.624
16816TIP3    H250371   4.351   7.894   6.498
16817TIP3   OH250372   4.168   8.438   7.575
16817TIP3    H150373   4.143   8.469   7.663
16817TIP3    H250374   4.159   8.521   7.522
16818TIP3   OH250375   4.061   8.327   7.094
16818TIP3    H150376   3.967   8.305   7.110
16818TIP3    H250377   4.074   8.288   7.005
16819TIP3   OH250378   4.551   8.415   6.821
16819TIP3    H150379   4.499   8.486   6.779
16819TIP3    H250380   4.606   8.384   6.747
16820TIP3   OH250381   4.702   8.443   7.061
16820TIP3    H150382   4.641   8.470   6.989
16820TIP3    H250383   4.738   8.362   7.019
16821TIP3   OH250384   3.984   8.445   7.816
16821TIP3    H150385   3.963   8.463   7.911
16821TIP3    H250386   3.993   8.348   7.822
16822TIP3   OH250387   4.045   7.949   6.499
16822TIP3    H150388   4.035   7.949   6.596
16822TIP3    H250389   3.968   8.003   6.472
16823TIP3   OH250390   3.590   7.996   7.375
16823TIP3    H150391   3.667   8.028   7.425
16823TIP3    H250392   3.626   7.978   7.287
16824TIP3   OH250393   3.564   7.976   6.894
16824TIP3    H150394   3.607   8.013   6.814
16824TIP3    H250395   3.501   8.049   6.912
16825TIP3   OH250396   4.668   8.679   7.481
16825TIP3    H150397   4.740   8.640   7.427
16825TIP3    H250398   4.673   8.620   7.559
16826TIP3   OH250399   4.388   8.149   7.156
16826TIP3    H150400   4.304   8.149   7.207
16826TIP3    H250401   4.454   8.154   7.227
16827TIP3   OH250402   3.820   8.207   7.162
16827TIP3    H150403   3.726   8.215   7.135
16827TIP3    H250404   3.843   8.116   7.135
16828TIP3   OH250405   4.092   8.202   6.852
16828TIP3    H150406   4.185   8.219   6.829
16828TIP3    H250407   4.044   8.226   6.769
16829TIP3   OH250408   4.880   8.228   7.361
16829TIP3    H150409   4.839   8.240   7.450
16829TIP3    H250410   4.818   8.165   7.320
16830TIP3   OH250411   3.934   8.235   6.632
16830TIP3    H150412   3.862   8.192   6.583
16830TIP3    H250413   3.985   8.273   6.557
16831TIP3   OH250414   4.470   8.478   7.250
16831TIP3    H150415   4.545   8.441   7.201
16831TIP3    H250416   4.481   8.439   7.339
16832TIP3   OH250417   3.996   7.969   7.128
16832TIP3    H150418   3.966   7.887   7.171
16832TIP3    H250419   4.043   7.937   7.050
16833TIP3   OH250420   4.445   8.376   7.539
16833TIP3    H150421   4.355   8.412   7.556
16833TIP3    H250422   4.501   8.430   7.598
16834TIP3   OH250423   4.185   8.767   6.637
16834TIP3    H150424   4.112   8.701   6.626
16834TIP3    H250425   4.167   8.800   6.728
16835TIP3   OH250426   4.643   8.078   6.503
16835TIP3    H150427   4.546   8.062   6.507
16835TIP3    H250428   4.652   8.173   6.523
16836TIP3   OH250429   4.712   8.328   6.604
16836TIP3    H150430   4.808   8.334   6.618
16836TIP3    H250431   4.693   8.407   6.550
16837TIP3   OH250432   3.869   8.740   7.326
16837TIP3    H150433   3.905   8.751   7.236
16837TIP3    H250434   3.943   8.696   7.371
16838TIP3   OH250435   4.330   8.915   6.459
16838TIP3    H150436   4.282   9.001   6.466
16838TIP3    H250437   4.276   8.860   6.519
16839TIP3   OH250438   5.154   8.418   6.439
16839TIP3    H150439   5.091   8.373   6.377
16839TIP3    H250440   5.149   8.507   6.397
16840TIP3   OH250441   4.876   9.205   6.354
16840TIP3    H150442   4.827   9.140   6.406
16840TIP3    H250443   4.869   9.171   6.263
16841TIP3   OH250444   4.814   8.864   7.172
16841TIP3    H150445   4.727   8.825   7.191
16841TIP3    H250446   4.860   8.787   7.133
16842TIP3   OH250447   3.974   9.080   6.930
16842TIP3    H150448   3.976   9.168   6.888
16842TIP3    H250449   3.879   9.064   6.932
16843TIP3   OH250450   3.543   8.395   6.643
16843TIP3    H150451   3.587   8.481   6.661
16843TIP3    H250452   3.464   8.401   6.702
16844TIP3   OH250453   4.122   8.855   6.882
16844TIP3    H150454   4.084   8.944   6.898
16844TIP3    H250455   4.084   8.805   6.957
16845TIP3   OH250456   3.891   9.317   6.808
16845TIP3    H150457   3.801   9.345   6.828
16845TIP3    H250458   3.940   9.397   6.831
16846TIP3   OH250459   4.610   8.961   6.251
16846TIP3    H150460   4.662   8.935   6.331
16846TIP3    H250461   4.520   8.937   6.280
16847TIP3   OH250462   4.933   9.422   6.049
16847TIP3    H150463   5.004   9.488   6.044
16847TIP3    H250464   4.855   9.477   6.065
16848TIP3   OH250465   3.977   8.190   7.943
16848TIP3    H150466   3.898   8.217   7.993
16848TIP3    H250467   4.023   8.138   8.012
16849TIP3   OH250468   4.770   8.902   6.470
16849TIP3    H150469   4.761   8.833   6.539
16849TIP3    H250470   4.867   8.897   6.454
16850TIP3   OH250471   3.972   8.946   6.248
16850TIP3    H150472   3.988   8.854   6.218
16850TIP3    H250473   3.956   8.933   6.344
16851TIP3   OH250474   3.923   8.950   6.520
16851TIP3    H150475   3.994   8.922   6.580
16851TIP3    H250476   3.926   9.047   6.529
16852TIP3   OH250477   3.660   8.642   6.723
16852TIP3    H150478   3.590   8.683   6.778
16852TIP3    H250479   3.671   8.712   6.655
16853TIP3   OH250480   4.809   8.284   7.626
16853TIP3    H150481   4.898   8.293   7.660
16853TIP3    H250482   4.780   8.201   7.669
16854TIP3   OH250483   4.684   8.030   6.782
16854TIP3    H150484   4.670   8.051   6.687
16854TIP3    H250485   4.721   8.114   6.816
16855TIP3   OH250486   4.189   9.144   6.477
16855TIP3    H150487   4.100   9.176   6.503
16855TIP3    H250488   4.213   9.207   6.408
16856TIP3   OH250489   4.376   8.209   6.883
16856TIP3    H150490   4.439   8.282   6.864
16856TIP3    H250491   4.380   8.204   6.981
16857TIP3   OH250492   4.625   8.513   7.700
16857TIP3    H150493   4.647   8.580   7.767
16857TIP3    H250494   4.702   8.455   7.701
16858TIP3   OH250495   4.519   7.937   6.986
16858TIP3    H150496   4.508   8.015   7.043
16858TIP3    H250497   4.579   7.973   6.917
16859TIP3   OH250498   3.932   9.221   6.540
16859TIP3    H150499   3.905   9.285   6.472
16859TIP3    H250500   3.910   9.269   6.622
16860TIP3   OH250501   4.030   7.936   6.777
16860TIP3    H150502   4.028   8.028   6.809
16860TIP3    H250503   4.126   7.918   6.783
16861TIP3   OH250504   4.909   8.635   7.047
16861TIP3    H150505   4.834   8.574   7.060
16861TIP3    H250506   4.985   8.581   7.078
16862TIP3   OH250507   3.648   8.850   6.533
16862TIP3    H150508   3.709   8.925   6.536
16862TIP3    H250509   3.692   8.797   6.464
16863TIP3   OH250510   3.590   8.126   6.666
16863TIP3    H150511   3.592   8.223   6.662
16863TIP3    H250512   3.509   8.106   6.618
16864TIP3   OH250513   3.979   7.851   7.538
16864TIP3    H150514   3.948   7.816   7.452
16864TIP3    H250515   3.970   7.773   7.596
16865TIP3   OH250516   3.522   9.038   6.944
16865TIP3    H150517   3.428   9.057   6.952
16865TIP3    H250518   3.531   9.060   6.849
16866TIP3   OH250519   4.139   9.147   6.164
16866TIP3    H150520   4.086   9.071   6.197
16866TIP3    H250521   4.215   9.101   6.123
16867TIP3   OH250522   4.571   9.167   6.053
16867TIP3    H150523   4.613   9.111   6.121
16867TIP3    H250524   4.635   9.164   5.979
16868TIP3   OH250525   3.783   8.667   6.382
16868TIP3    H150526   3.838   8.634   6.454
16868TIP3    H250527   3.850   8.671   6.310
16869TIP3   OH250528   4.289   8.862   6.190
16869TIP3    H150529   4.295   8.874   6.287
16869TIP3    H250530   4.290   8.764   6.184
16870TIP3   OH250531   3.994   8.568   6.606
16870TIP3    H150532   3.963   8.526   6.688
16870TIP3    H250533   4.028   8.493   6.554
16871TIP3   OH250534   4.317   8.578   7.795
16871TIP3    H150535   4.294   8.629   7.874
16871TIP3    H250536   4.369   8.641   7.741
16872TIP3   OH250537   4.091   8.361   6.446
16872TIP3    H150538   4.065   8.366   6.351
16872TIP3    H250539   4.189   8.365   6.438
16873TIP3   OH250540   4.914   8.692   6.109
16873TIP3    H150541   4.894   8.646   6.025
16873TIP3    H250542   4.881   8.782   6.085
16874TIP3   OH250543   4.385   8.377   7.961
16874TIP3    H150544   4.389   8.300   7.901
16874TIP3    H250545   4.358   8.446   7.898
16875TIP3   OH250546   4.389   8.195   7.751
16875TIP3    H150547   4.412   8.247   7.671
16875TIP3    H250548   4.293   8.180   7.738
16876TIP3   OH250549   4.420   8.767   7.615
16876TIP3    H150550   4.495   8.738   7.560
16876TIP3    H250551   4.366   8.818   7.551
16877TIP3   OH250552   4.522   7.971   7.829
16877TIP3    H150553   4.474   8.052   7.803
16877TIP3    H250554   4.451   7.904   7.817
16878TIP3   OH250555   4.579   7.909   8.089
16878TIP3    H150556   4.667   7.873   8.066
16878TIP3    H250557   4.547   7.932   7.999
16879TIP3   OH250558   4.675   8.137   8.211
16879TIP3    H150559   4.627   8.070   8.159
16879TIP3    H250560   4.627   8.219   8.195
16880TIP3   OH250561   3.379   8.804   6.568
16880TIP3    H150562   3.473   8.828   6.552
16880TIP3    H250563   3.373   8.716   6.524
16881TIP3   OH250564   5.045   8.882   6.438
16881TIP3    H150565   5.112   8.947   6.408
16881TIP3    H250566   5.091   8.842   6.516
16882TIP3   OH250567   5.171   8.744   6.637
16882TIP3    H150568   5.106   8.703   6.698
16882TIP3    H250569   5.237   8.783   6.698
16883TIP3   OH250570   5.114   8.654   6.293
16883TIP3    H150571   5.044   8.657   6.224
16883TIP3    H250572   5.087   8.732   6.346
16884TIP3   OH250573   4.985   8.329   6.247
16884TIP3    H150574   4.944   8.368   6.169
16884TIP3    H250575   4.959   8.234   6.237
16885TIP3   OH250576   4.992   8.603   6.789
16885TIP3    H150577   4.997   8.506   6.784
16885TIP3    H250578   4.966   8.619   6.882
16886TIP3   OH250579   3.633   8.642   7.509
16886TIP3    H150580   3.629   8.635   7.412
16886TIP3    H250581   3.730   8.630   7.524
16887TIP3   OH250582   4.928   8.063   6.234
16887TIP3    H150583   5.003   8.030   6.287
16887TIP3    H250584   4.856   8.002   6.255
16888TIP3   OH250585   4.988   8.320   6.688
16888TIP3    H150586   5.027   8.231   6.702
16888TIP3    H250587   5.045   8.353   6.616
16889TIP3   OH250588   5.126   8.487   7.104
16889TIP3    H150589   5.210   8.489   7.057
16889TIP3    H250590   5.156   8.496   7.197
16890TIP3   OH250591   5.095   8.070   6.724
16890TIP3    H150592   5.143   8.053   6.808
16890TIP3    H250593   5.034   7.993   6.722
16891TIP3   OH250594   3.795   8.059   7.548
16891TIP3    H150595   3.856   7.984   7.558
16891TIP3    H250596   3.858   8.132   7.535
16892TIP3   OH250597   3.595   8.341   7.613
16892TIP3    H150598   3.634   8.306   7.531
16892TIP3    H250599   3.647   8.422   7.621
16893TIP3   OH250600   5.178   8.004   6.358
16893TIP3    H150601   5.214   7.932   6.302
16893TIP3    H250602   5.245   8.075   6.347
16894TIP3   OH250603   3.581   7.833   7.123
16894TIP3    H150604   3.486   7.830   7.144
16894TIP3    H250605   3.581   7.890   7.042
16895TIP3   OH250606   4.788   9.508   6.626
16895TIP3    H150607   4.814   9.458   6.546
16895TIP3    H250608   4.808   9.597   6.595
16896TIP3   OH250609   3.802   7.904   7.924
16896TIP3    H150610   3.756   7.905   8.010
16896TIP3    H250611   3.736   7.950   7.869
16897TIP3   OH250612   4.647   8.048   7.275
16897TIP3    H150613   4.600   7.978   7.324
16897TIP3    H250614   4.717   7.999   7.228
16898TIP3   OH250615   5.168   7.932   7.182
16898TIP3    H150616   5.202   7.980   7.103
16898TIP3    H250617   5.072   7.943   7.172
16899TIP3   OH250618   5.261   8.025   6.942
16899TIP3    H150619   5.333   7.973   6.900
16899TIP3    H250620   5.294   8.116   6.926
16900TIP3   OH250621   3.893   7.751   7.289
16900TIP3    H150622   3.802   7.722   7.271
16900TIP3    H250623   3.942   7.668   7.277
16901TIP3   OH250624   3.675   7.623   6.934
16901TIP3    H150625   3.708   7.679   6.862
16901TIP3    H250626   3.653   7.688   7.003
16902TIP3   OH250627   4.335   7.785   7.172
16902TIP3    H150628   4.390   7.833   7.108
16902TIP3    H250629   4.358   7.830   7.254
16903TIP3   OH250630   4.885   7.933   7.152
16903TIP3    H150631   4.882   7.897   7.063
16903TIP3    H250632   4.869   7.853   7.207
16904TIP3   OH250633   4.912   7.857   6.714
16904TIP3    H150634   4.824   7.899   6.724
16904TIP3    H250635   4.897   7.772   6.761
16905TIP3   OH250636   3.386   9.133   6.736
16905TIP3    H150637   3.313   9.100   6.682
16905TIP3    H250638   3.388   9.226   6.706
16906TIP3   OH250639   3.795   7.779   6.703
16906TIP3    H150640   3.844   7.721   6.641
16906TIP3    H250641   3.867   7.836   6.737
16907TIP3   OH250642   4.307   7.959   6.800
16907TIP3    H150643   4.371   7.913   6.857
16907TIP3    H250644   4.329   8.052   6.823
16908TIP3   OH250645   4.043   9.370   6.301
16908TIP3    H150646   4.114   9.423   6.338
16908TIP3    H250647   4.088   9.298   6.253
16909TIP3   OH250648   4.891   9.471   6.377
16909TIP3    H150649   4.891   9.373   6.370
16909TIP3    H250650   4.909   9.493   6.285
16910TIP3   OH250651   4.099   8.017   8.155
16910TIP3    H150652   4.069   7.963   8.231
16910TIP3    H250653   4.190   8.040   8.184
16911TIP3   OH250654   4.360   8.040   8.266
16911TIP3    H150655   4.448   8.007   8.242
16911TIP3    H250656   4.343   7.998   8.352
16912TIP3   OH250657   3.484   9.172   6.378
16912TIP3    H150658   3.482   9.261   6.418
16912TIP3    H250659   3.577   9.165   6.347
16913TIP3   OH250660   5.346   8.521   6.607
16913TIP3    H150661   5.304   8.608   6.612
16913TIP3    H250662   5.277   8.472   6.558
16914TIP3   OH250663   5.397   8.816   6.775
16914TIP3    H150664   5.438   8.730   6.800
16914TIP3    H250665   5.476   8.857   6.734
16915TIP3   OH250666   5.927   8.374   6.789
16915TIP3    H150667   5.883   8.460   6.775
16915TIP3    H250668   5.886   8.319   6.719
16916TIP3   OH250669   5.541   8.594   6.853
16916TIP3    H150670   5.638   8.601   6.839
16916TIP3    H250671   5.520   8.540   6.774
16917TIP3   OH250672   5.250   9.048   6.335
16917TIP3    H150673   5.208   9.086   6.256
16917TIP3    H250674   5.280   9.128   6.383
16918TIP3   OH250675   6.180   8.681   5.928
16918TIP3    H150676   6.256   8.679   5.987
16918TIP3    H250677   6.209   8.617   5.860
16919TIP3   OH250678   6.879   7.996   6.015
16919TIP3    H150679   6.805   8.033   6.066
16919TIP3    H250680   6.922   8.076   5.979
16920TIP3   OH250681   5.658   8.786   6.344
16920TIP3    H150682   5.585   8.833   6.299
16920TIP3    H250683   5.611   8.718   6.392
16921TIP3   OH250684   6.480   8.834   5.666
16921TIP3    H150685   6.442   8.799   5.583
16921TIP3    H250686   6.570   8.855   5.635
16922TIP3   OH250687   6.189   8.236   6.012
16922TIP3    H150688   6.161   8.231   6.106
16922TIP3    H250689   6.149   8.153   5.979
16923TIP3   OH250690   5.840   8.569   6.542
16923TIP3    H150691   5.748   8.536   6.544
16923TIP3    H250692   5.876   8.524   6.464
16924TIP3   OH250693   5.842   8.208   5.983
16924TIP3    H150694   5.831   8.203   6.080
16924TIP3    H250695   5.764   8.261   5.959
16925TIP3   OH250696   5.383   8.251   6.858
16925TIP3    H150697   5.469   8.281   6.893
16925TIP3    H250698   5.405   8.217   6.769
16926TIP3   OH250699   5.360   8.233   6.377
16926TIP3    H150700   5.404   8.269   6.297
16926TIP3    H250701   5.297   8.305   6.395
16927TIP3   OH250702   5.609   8.447   6.621
16927TIP3    H150703   5.515   8.448   6.595
16927TIP3    H250704   5.638   8.355   6.604
16928TIP3   OH250705   5.928   8.448   6.306
16928TIP3    H150706   5.978   8.530   6.297
16928TIP3    H250707   5.856   8.462   6.240
16929TIP3   OH250708   5.734   8.475   6.123
16929TIP3    H150709   5.653   8.444   6.078
16929TIP3    H250710   5.778   8.522   6.050
16930TIP3   OH250711   5.784   8.218   6.607
16930TIP3    H150712   5.752   8.142   6.660
16930TIP3    H250713   5.835   8.174   6.538
16931TIP3   OH250714   6.438   8.347   5.999
16931TIP3    H150715   6.342   8.326   5.990
16931TIP3    H250716   6.446   8.436   5.962
16932TIP3   OH250717   5.337   8.652   6.128
16932TIP3    H150718   5.384   8.735   6.148
16932TIP3    H250719   5.260   8.659   6.189
16933TIP3   OH250720   5.751   9.191   5.748
16933TIP3    H150721   5.783   9.120   5.690
16933TIP3    H250722   5.774   9.149   5.833
16934TIP3   OH250723   5.702   9.199   6.049
16934TIP3    H150724   5.767   9.126   6.042
16934TIP3    H250725   5.739   9.258   5.983
16935TIP3   OH250726   5.445   8.897   6.212
16935TIP3    H150727   5.380   8.946   6.267
16935TIP3    H250728   5.461   8.961   6.141
16936TIP3   OH250729   1.344   3.172   1.129
16936TIP3    H150730   1.318   3.177   1.035
16936TIP3    H250731   1.416   3.236   1.131
16937TIP3   OH250732   5.826   8.184   6.260
16937TIP3    H150733   5.833   8.277   6.287
16937TIP3    H250734   5.920   8.158   6.261
16938TIP3   OH250735   5.433   9.101   6.012
16938TIP3    H150736   5.496   9.175   6.021
16938TIP3    H250737   5.483   9.045   5.948
16939TIP3   OH250738   5.388   8.384   6.151
16939TIP3    H150739   5.388   8.482   6.147
16939TIP3    H250740   5.307   8.363   6.104
16940TIP3   OH250741   5.768   8.101   7.030
16940TIP3    H150742   5.758   8.070   6.937
16940TIP3    H250743   5.764   8.017   7.079
16941TIP3   OH250744   5.341   9.285   6.452
16941TIP3    H150745   5.267   9.347   6.456
16941TIP3    H250746   5.384   9.315   6.370
16942TIP3   OH250747   5.916   9.378   5.627
16942TIP3    H150748   5.856   9.315   5.671
16942TIP3    H250749   5.982   9.317   5.590
16943TIP3   OH250750   5.586   8.924   5.873
16943TIP3    H150751   5.634   8.881   5.947
16943TIP3    H250752   5.657   8.925   5.805
16944TIP3   OH250753   6.023   9.105   5.644
16944TIP3    H150754   6.022   9.132   5.738
16944TIP3    H250755   6.038   9.010   5.655
16945TIP3   OH250756   5.731   8.802   6.072
16945TIP3    H150757   5.736   8.792   6.169
16945TIP3    H250758   5.795   8.736   6.040
16946TIP3   OH250759   5.885   8.610   5.935
16946TIP3    H150760   5.854   8.616   5.842
16946TIP3    H250761   5.981   8.616   5.924
16947TIP3   OH250762   5.168   9.064   6.049
16947TIP3    H150763   5.263   9.085   6.039
16947TIP3    H250764   5.165   8.974   6.011
16948TIP3   OH250765   6.755   8.600   5.729
16948TIP3    H150766   6.731   8.621   5.639
16948TIP3    H250767   6.753   8.502   5.728
16949TIP3   OH250768   6.725   8.325   5.759
16949TIP3    H150769   6.807   8.276   5.742
16949TIP3    H250770   6.656   8.259   5.745
16950TIP3   OH250771   5.608   8.317   7.010
16950TIP3    H150772   5.661   8.235   7.021
16950TIP3    H250773   5.670   8.371   6.960
16951TIP3   OH250774   5.376   8.103   6.612
16951TIP3    H150775   5.281   8.087   6.627
16951TIP3    H250776   5.375   8.153   6.528
16952TIP3   OH250777   5.689   8.012   6.775
16952TIP3    H150778   5.596   7.982   6.778
16952TIP3    H250779   5.736   7.926   6.772
16953TIP3   OH250780   5.479   7.883   6.424
16953TIP3    H150781   5.507   7.939   6.349
16953TIP3    H250782   5.449   7.949   6.488
16954TIP3   OH250783   6.127   8.050   6.628
16954TIP3    H150784   6.221   8.073   6.623
16954TIP3    H250785   6.111   8.082   6.720
16955TIP3   OH250786   6.693   8.102   6.207
16955TIP3    H150787   6.605   8.143   6.211
16955TIP3    H250788   6.676   8.014   6.246
16956TIP3   OH250789   5.174   9.390   6.250
16956TIP3    H150790   5.126   9.345   6.180
16956TIP3    H250791   5.184   9.479   6.210
16957TIP3   OH250792   5.590   8.039   6.187
16957TIP3    H150793   5.637   7.976   6.129
16957TIP3    H250794   5.664   8.092   6.222
16958TIP3   OH250795   6.106   8.218   6.280
16958TIP3    H150796   6.140   8.170   6.357
16958TIP3    H250797   6.079   8.303   6.317
16959TIP3   OH250798   5.279   9.431   5.860
16959TIP3    H150799   5.272   9.512   5.912
16959TIP3    H250800   5.375   9.428   5.838
16960TIP3   OH250801   6.444   4.166   8.940
16960TIP3    H150802   6.454   4.264   8.940
16960TIP3    H250803   6.538   4.139   8.931
16961TIP3   OH250804   5.967   4.379   9.080
16961TIP3    H150805   6.023   4.314   9.033
16961TIP3    H250806   5.969   4.344   9.171
16962TIP3   OH250807   6.207   3.592   9.091
16962TIP3    H150808   6.174   3.568   9.003
16962TIP3    H250809   6.289   3.640   9.069
16963TIP3   OH250810   6.687   3.428   9.279
16963TIP3    H150811   6.614   3.395   9.221
16963TIP3    H250812   6.720   3.500   9.222
16964TIP3   OH250813   6.142   3.955   9.120
16964TIP3    H150814   6.179   3.949   9.209
16964TIP3    H250815   6.065   3.896   9.128
16965TIP3   OH250816   6.478   4.440   8.942
16965TIP3    H150817   6.534   4.512   8.909
16965TIP3    H250818   6.404   4.492   8.980
16966TIP3   OH250819   5.525   3.937   9.136
16966TIP3    H150820   5.545   3.863   9.075
16966TIP3    H250821   5.457   3.897   9.191
16967TIP3   OH250822   5.675   4.143   9.028
16967TIP3    H150823   5.629   4.066   9.067
16967TIP3    H250824   5.753   4.102   8.988
16968TIP3   OH250825   6.108   4.190   8.936
16968TIP3    H150826   6.164   4.138   8.996
16968TIP3    H250827   6.164   4.195   8.856
16969TIP3   OH250828   5.829   3.863   9.061
16969TIP3    H150829   5.835   3.846   9.155
16969TIP3    H250830   5.829   3.771   9.028
16970TIP3   OH250831   6.439   3.697   8.971
16970TIP3    H150832   6.420   3.652   8.886
16970TIP3    H250833   6.405   3.787   8.948
16971TIP3   OH250834   5.431   4.410   9.202
16971TIP3    H150835   5.528   4.408   9.184
16971TIP3    H250836   5.402   4.462   9.124
16972TIP3   OH250837   6.661   3.661   9.124
16972TIP3    H150838   6.584   3.673   9.064
16972TIP3    H250839   6.627   3.701   9.206
16973TIP3   OH250840   6.513   3.332   9.091
16973TIP3    H150841   6.477   3.389   9.023
16973TIP3    H250842   6.478   3.245   9.064
16974TIP3   OH250843   6.453   3.057   9.092
16974TIP3    H150844   6.517   3.092   9.158
16974TIP3    H250845   6.376   3.043   9.148
16975TIP3   OH250846   5.692   4.396   9.140
16975TIP3    H150847   5.786   4.419   9.129
16975TIP3    H250848   5.691   4.306   9.102
16976TIP3   OH250849   7.740   4.627   8.553
16976TIP3    H150850   7.790   4.554   8.511
16976TIP3    H250851   7.814   4.678   8.591
16977TIP3   OH250852   7.649   4.193   8.779
16977TIP3    H150853   7.607   4.280   8.797
16977TIP3    H250854   7.582   4.131   8.809
16978TIP3   OH250855   6.887   3.652   8.978
16978TIP3    H150856   6.934   3.734   9.004
16978TIP3    H250857   6.808   3.659   9.034
16979TIP3   OH250858   7.301   4.204   8.601
16979TIP3    H150859   7.319   4.113   8.569
16979TIP3    H250860   7.287   4.187   8.697
16980TIP3   OH250861   7.266   4.207   8.877
16980TIP3    H150862   7.303   4.192   8.965
16980TIP3    H250863   7.261   4.305   8.875
16981TIP3   OH250864   6.979   3.899   9.059
16981TIP3    H150865   6.953   3.940   9.142
16981TIP3    H250866   6.987   3.976   9.000
16982TIP3   OH250867   7.518   4.424   8.831
16982TIP3    H150868   7.429   4.444   8.863
16982TIP3    H250869   7.523   4.482   8.754
16983TIP3   OH250870   7.253   4.480   8.884
16983TIP3    H150871   7.226   4.545   8.815
16983TIP3    H250872   7.234   4.531   8.964
16984TIP3   OH250873   6.979   4.115   8.887
16984TIP3    H150874   7.038   4.191   8.886
16984TIP3    H250875   7.022   4.060   8.816
16985TIP3   OH250876   6.913   3.350   8.967
16985TIP3    H150877   6.961   3.433   8.983
16985TIP3    H250878   6.833   3.364   9.019
16986TIP3   OH250879   7.470   4.404   8.519
16986TIP3    H150880   7.413   4.329   8.549
16986TIP3    H250881   7.545   4.356   8.480
16987TIP3   OH250882   7.901   4.443   8.414
16987TIP3    H150883   7.971   4.395   8.462
16987TIP3    H250884   7.952   4.464   8.333
16988TIP3   OH250885   7.103   3.931   8.727
16988TIP3    H150886   7.142   3.873   8.793
16988TIP3    H250887   7.175   3.934   8.660
16989TIP3   OH250888   7.610   4.112   8.519
16989TIP3    H150889   7.638   4.138   8.609
16989TIP3    H250890   7.617   4.014   8.524
16990TIP3   OH250891   7.224   4.691   8.710
16990TIP3    H150892   7.320   4.679   8.691
16990TIP3    H250893   7.197   4.732   8.626
16991TIP3   OH250894   6.702   4.070   8.888
16991TIP3    H150895   6.797   4.088   8.903
16991TIP3    H250896   6.703   3.975   8.864
16992TIP3   OH250897   7.482   4.645   8.644
16992TIP3    H150898   7.572   4.669   8.614
16992TIP3    H250899   7.467   4.568   8.586
16993TIP3   OH250900   6.800   4.481   8.702
16993TIP3    H150901   6.789   4.511   8.793
16993TIP3    H250902   6.889   4.440   8.701
16994TIP3   OH250903   4.289   5.726   9.070
16994TIP3    H150904   4.298   5.823   9.082
16994TIP3    H250905   4.383   5.700   9.061
16995TIP3   OH250906   4.318   5.996   9.098
16995TIP3    H150907   4.374   6.065   9.059
16995TIP3    H250908   4.242   6.051   9.126
16996TIP3   OH250909   3.966   5.747   9.065
16996TIP3    H150910   4.003   5.756   9.155
16996TIP3    H250911   4.049   5.750   9.013
16997TIP3   OH250912   4.327   5.260   9.066
16997TIP3    H150913   4.257   5.195   9.059
16997TIP3    H250914   4.278   5.344   9.064
16998TIP3   OH250915   5.542   5.216   8.910
16998TIP3    H150916   5.609   5.266   8.960
16998TIP3    H250917   5.601   5.152   8.863
16999TIP3   OH250918   5.785   5.358   8.988
16999TIP3    H150919   5.826   5.433   9.031
16999TIP3    H250920   5.802   5.381   8.893
17000TIP3   OH250921   6.289   4.619   9.040
17000TIP3    H150922   6.201   4.631   9.075
17000TIP3    H250923   6.302   4.699   8.985
17001TIP3   OH250924   6.088   5.976   8.569
17001TIP3    H150925   6.091   6.074   8.559
17001TIP3    H250926   6.181   5.953   8.550
17002TIP3   OH250927   5.598   6.189   8.713
17002TIP3    H150928   5.652   6.124   8.662
17002TIP3    H250929   5.654   6.205   8.789
17003TIP3   OH250930   5.847   5.427   8.735
17003TIP3    H150931   5.809   5.395   8.651
17003TIP3    H250932   5.932   5.464   8.703
17004TIP3   OH250933   5.566   4.794   9.035
17004TIP3    H150934   5.531   4.799   9.124
17004TIP3    H250935   5.526   4.710   9.004
17005TIP3   OH250936   5.218   4.767   8.997
17005TIP3    H150937   5.203   4.747   9.091
17005TIP3    H250938   5.137   4.817   8.974
17006TIP3   OH250939   5.087   5.061   9.135
17006TIP3    H150940   5.030   5.006   9.078
17006TIP3    H250941   5.152   5.091   9.067
17007TIP3   OH250942   5.810   4.906   8.973
17007TIP3    H150943   5.724   4.875   9.008
17007TIP3    H250944   5.836   4.975   9.037
17008TIP3   OH250945   5.898   5.134   9.105
17008TIP3    H150946   5.992   5.149   9.086
17008TIP3    H250947   5.856   5.210   9.060
17009TIP3   OH250948   5.502   5.735   8.945
17009TIP3    H150949   5.456   5.821   8.960
17009TIP3    H250950   5.465   5.681   9.016
17010TIP3   OH250951   6.340   5.227   8.919
17010TIP3    H150952   6.265   5.188   8.870
17010TIP3    H250953   6.333   5.319   8.890
17011TIP3   OH250954   4.676   5.247   9.127
17011TIP3    H150955   4.748   5.302   9.165
17011TIP3    H250956   4.631   5.210   9.203
17012TIP3   OH250957   5.771   5.775   8.749
17012TIP3    H150958   5.817   5.756   8.831
17012TIP3    H250959   5.680   5.750   8.773
17013TIP3   OH250960   6.119   6.245   8.582
17013TIP3    H150961   6.124   6.306   8.506
17013TIP3    H250962   6.033   6.273   8.619
17014TIP3   OH250963   5.144   5.758   8.751
17014TIP3    H150964   5.159   5.667   8.721
17014TIP3    H250965   5.124   5.745   8.846
17015TIP3   OH250966   5.089   5.767   9.024
17015TIP3    H150967   5.150   5.738   9.093
17015TIP3    H250968   5.096   5.865   9.029
17016TIP3   OH250969   4.806   5.471   9.223
17016TIP3    H150970   4.812   5.529   9.300
17016TIP3    H250971   4.828   5.532   9.151
17017TIP3   OH250972   5.357   5.965   8.978
17017TIP3    H150973   5.269   5.994   9.008
17017TIP3    H250974   5.376   6.033   8.912
17018TIP3   OH250975   5.095   6.040   9.038
17018TIP3    H150976   5.073   6.099   8.962
17018TIP3    H250977   5.076   6.100   9.111
17019TIP3   OH250978   5.199   4.710   9.263
17019TIP3    H150979   5.220   4.797   9.306
17019TIP3    H250980   5.266   4.652   9.301
17020TIP3   OH250981   4.820   5.676   9.030
17020TIP3    H150982   4.886   5.748   9.033
17020TIP3    H250983   4.863   5.620   8.962
17021TIP3   OH250984   4.729   4.961   9.098
17021TIP3    H150985   4.779   5.021   9.154
17021TIP3    H250986   4.730   4.880   9.149
17022TIP3   OH250987   5.311   5.958   8.663
17022TIP3    H150988   5.256   5.885   8.697
17022TIP3    H250989   5.385   5.909   8.623
17023TIP3   OH250990   5.745   6.007   8.572
17023TIP3    H150991   5.804   5.953   8.628
17023TIP3    H250992   5.795   6.012   8.488
17024TIP3   OH250993   4.950   5.480   8.887
17024TIP3    H150994   5.004   5.442   8.959
17024TIP3    H250995   5.017   5.484   8.815
17025TIP3   OH250996   5.458   5.676   8.685
17025TIP3    H150997   5.464   5.692   8.781
17025TIP3    H250998   5.463   5.577   8.683
17026TIP3   OH250999   5.137   5.370   9.101
17026TIP3    H151000   5.140   5.311   9.176
17026TIP3    H251001   5.187   5.316   9.036
17027TIP3   OH251002   5.262   5.178   8.950
17027TIP3    H151003   5.236   5.176   8.856
17027TIP3    H251004   5.360   5.179   8.942
17028TIP3   OH251005   6.082   5.509   8.615
17028TIP3    H151006   6.068   5.461   8.531
17028TIP3    H251007   6.048   5.598   8.588
17029TIP3   OH251008   5.070   6.239   8.855
17029TIP3    H151009   5.167   6.235   8.840
17029TIP3    H251010   5.044   6.286   8.773
17030TIP3   OH251011   4.548   5.627   9.031
17030TIP3    H151012   4.641   5.658   9.043
17030TIP3    H251013   4.554   5.535   9.059
17031TIP3   OH251014   6.287   5.481   8.793
17031TIP3    H151015   6.213   5.479   8.729
17031TIP3    H251016   6.258   5.551   8.853
17032TIP3   OH251017   6.139   5.149   8.750
17032TIP3    H151018   6.111   5.176   8.662
17032TIP3    H251019   6.123   5.053   8.745
17033TIP3   OH251020   6.102   4.880   8.733
17033TIP3    H151021   6.178   4.849   8.786
17033TIP3    H251022   6.030   4.820   8.759
17034TIP3   OH251023   6.345   4.821   8.861
17034TIP3    H151024   6.390   4.751   8.809
17034TIP3    H251025   6.414   4.891   8.864
17035TIP3   OH251026   4.948   4.626   9.180
17035TIP3    H151027   4.992   4.539   9.181
17035TIP3    H251028   5.017   4.677   9.226
17036TIP3   OH251029   5.333   6.195   8.796
17036TIP3    H151030   5.422   6.224   8.768
17036TIP3    H251031   5.319   6.121   8.733
17037TIP3   OH251032   4.638   6.030   8.854
17037TIP3    H151033   4.637   6.074   8.940
17037TIP3    H251034   4.729   5.993   8.848
17038TIP3   OH251035   7.384   5.018   8.519
17038TIP3    H151036   7.329   5.071   8.576
17038TIP3    H251037   7.323   4.947   8.490
17039TIP3   OH251038   7.012   5.027   8.486
17039TIP3    H151039   6.998   5.019   8.583
17039TIP3    H251040   6.934   5.080   8.461
17040TIP3   OH251041   6.531   5.028   8.873
17040TIP3    H151042   6.576   5.075   8.800
17040TIP3    H251043   6.476   5.100   8.909
17041TIP3   OH251044   6.890   5.305   8.621
17041TIP3    H151045   6.826   5.263   8.560
17041TIP3    H251046   6.951   5.346   8.556
17042TIP3   OH251047   6.503   5.464   8.629
17042TIP3    H151048   6.517   5.558   8.613
17042TIP3    H251049   6.429   5.465   8.694
17043TIP3   OH251050   6.989   5.004   8.759
17043TIP3    H151051   6.977   5.094   8.792
17043TIP3    H251052   7.071   4.976   8.802
17044TIP3   OH251053   6.561   5.193   8.650
17044TIP3    H151054   6.562   5.291   8.648
17044TIP3    H251055   6.471   5.173   8.623
17045TIP3   OH251056   6.741   5.740   8.361
17045TIP3    H151057   6.792   5.702   8.434
17045TIP3    H251058   6.812   5.742   8.291
17046TIP3   OH251059   7.056   5.416   8.431
17046TIP3    H151060   7.018   5.424   8.341
17046TIP3    H251061   7.148   5.441   8.414
17047TIP3   OH251062   6.354   5.883   8.518
17047TIP3    H151063   6.401   5.868   8.600
17047TIP3    H251064   6.340   5.791   8.485
17048TIP3   OH251065   6.637   4.694   8.893
17048TIP3    H151066   6.672   4.758   8.828
17048TIP3    H251067   6.613   4.751   8.967
17049TIP3   OH251068   6.760   4.853   8.685
17049TIP3    H151069   6.809   4.792   8.627
17049TIP3    H251070   6.832   4.909   8.720
17050TIP3   OH251071   3.400   6.770   9.090
17050TIP3    H151072   3.479   6.825   9.105
17050TIP3    H251073   3.438   6.705   9.027
17051TIP3   OH251074   3.635   6.918   9.140
17051TIP3    H151075   3.679   6.998   9.172
17051TIP3    H251076   3.649   6.933   9.043
17052TIP3   OH251077   4.129   6.172   9.188
17052TIP3    H151078   4.053   6.195   9.242
17052TIP3    H251079   4.142   6.254   9.135
17053TIP3   OH251080   3.946   7.543   8.694
17053TIP3    H151081   3.967   7.628   8.734
17053TIP3    H251082   4.035   7.501   8.692
17054TIP3   OH251083   3.685   6.967   8.882
17054TIP3    H151084   3.655   6.944   8.793
17054TIP3    H251085   3.760   7.026   8.861
17055TIP3   OH251086   3.382   6.378   9.147
17055TIP3    H151087   3.399   6.366   9.242
17055TIP3    H251088   3.357   6.287   9.120
17056TIP3   OH251089   3.649   6.461   9.119
17056TIP3    H151090   3.557   6.447   9.150
17056TIP3    H251091   3.681   6.530   9.182
17057TIP3   OH251092   3.737   6.686   9.252
17057TIP3    H151093   3.832   6.701   9.248
17057TIP3    H251094   3.703   6.766   9.208
17058TIP3   OH251095   4.177   6.788   9.077
17058TIP3    H151096   4.106   6.747   9.023
17058TIP3    H251097   4.173   6.879   9.040
17059TIP3   OH251098   3.110   6.736   9.099
17059TIP3    H151099   3.068   6.741   9.011
17059TIP3    H251100   3.203   6.746   9.076
17060TIP3   OH251101   3.928   7.065   8.764
17060TIP3    H151102   3.907   7.021   8.680
17060TIP3    H251103   3.895   7.156   8.744
17061TIP3   OH251104   4.125   7.036   8.951
17061TIP3    H151105   4.054   7.030   8.882
17061TIP3    H251106   4.107   7.123   8.986
17062TIP3   OH251107   3.987   6.704   8.900
17062TIP3    H151108   3.951   6.742   8.819
17062TIP3    H251109   3.966   6.609   8.888
17063TIP3   OH251110   3.943   6.435   8.884
17063TIP3    H151111   4.020   6.408   8.938
17063TIP3    H251112   3.874   6.372   8.910
17064TIP3   OH251113   4.188   6.378   9.015
17064TIP3    H151114   4.233   6.313   8.958
17064TIP3    H251115   4.252   6.452   9.016
17065TIP3   OH251116   5.170   7.014   8.531
17065TIP3    H151117   5.208   7.065   8.607
17065TIP3    H251118   5.251   6.973   8.493
17066TIP3   OH251119   5.892   6.370   8.675
17066TIP3    H151120   5.853   6.438   8.732
17066TIP3    H251121   5.936   6.430   8.611
17067TIP3   OH251122   5.194   6.611   8.659
17067TIP3    H151123   5.179   6.615   8.754
17067TIP3    H251124   5.160   6.522   8.637
17068TIP3   OH251125   4.846   6.577   8.635
17068TIP3    H151126   4.837   6.578   8.732
17068TIP3    H251127   4.775   6.639   8.610
17069TIP3   OH251128   4.368   6.586   9.023
17069TIP3    H151129   4.413   6.634   8.950
17069TIP3    H251130   4.315   6.660   9.060
17070TIP3   OH251131   4.735   6.848   8.770
17070TIP3    H151132   4.665   6.818   8.709
17070TIP3    H251133   4.794   6.896   8.709
17071TIP3   OH251134   5.458   6.711   8.648
17071TIP3    H151135   5.361   6.706   8.640
17071TIP3    H251136   5.477   6.804   8.630
17072TIP3   OH251137   4.344   7.021   8.779
17072TIP3    H151138   4.393   7.105   8.798
17072TIP3    H251139   4.271   7.029   8.843
17073TIP3   OH251140   4.761   7.561   8.392
17073TIP3    H151141   4.817   7.489   8.357
17073TIP3    H251142   4.773   7.548   8.486
17074TIP3   OH251143   4.443   7.267   8.849
17074TIP3    H151144   4.426   7.319   8.928
17074TIP3    H251145   4.474   7.336   8.787
17075TIP3   OH251146   4.826   6.562   8.909
17075TIP3    H151147   4.815   6.655   8.935
17075TIP3    H251148   4.911   6.538   8.948
17076TIP3   OH251149   4.477   7.491   8.686
17076TIP3    H151150   4.457   7.578   8.648
17076TIP3    H251151   4.516   7.443   8.610
17077TIP3   OH251152   4.400   6.752   8.801
17077TIP3    H151153   4.407   6.850   8.799
17077TIP3    H251154   4.310   6.739   8.771
17078TIP3   OH251155   4.933   7.749   8.275
17078TIP3    H151156   4.883   7.687   8.332
17078TIP3    H251157   5.007   7.694   8.247
17079TIP3   OH251158   4.595   7.301   8.523
17079TIP3    H151159   4.647   7.258   8.594
17079TIP3    H251160   4.658   7.296   8.448
17080TIP3   OH251161   5.027   7.466   8.343
17080TIP3    H151162   5.112   7.508   8.370
17080TIP3    H251163   5.055   7.372   8.340
17081TIP3   OH251164   4.780   7.194   8.726
17081TIP3    H151165   4.771   7.153   8.813
17081TIP3    H251166   4.829   7.123   8.678
17082TIP3   OH251167   4.898   6.987   8.587
17082TIP3    H151168   4.871   6.988   8.492
17082TIP3    H251169   4.996   6.984   8.576
17083TIP3   OH251170   4.195   7.432   8.689
17083TIP3    H151171   4.289   7.450   8.706
17083TIP3    H251172   4.197   7.341   8.653
17084TIP3   OH251173   5.733   6.699   8.421
17084TIP3    H151174   5.818   6.666   8.392
17084TIP3    H251175   5.670   6.632   8.392
17085TIP3   OH251176   4.482   6.255   9.051
17085TIP3    H151177   4.519   6.311   8.980
17085TIP3    H251178   4.444   6.323   9.109
17086TIP3   OH251179   4.601   6.405   8.840
17086TIP3    H151180   4.652   6.350   8.777
17086TIP3    H251181   4.670   6.467   8.872
17087TIP3   OH251182   4.283   7.775   8.534
17087TIP3    H151183   4.251   7.867   8.531
17087TIP3    H251184   4.378   7.786   8.512
   8.90000   8.39100   7.26682   0.00000   0.00000  -2.96667   0.00000  -2.96667  -4.19550
