* GENERATED BY CHARMM-GUI (HTTP://WWW.CHARMM-GUI.ORG) V3.7 ON JUN, 13. 2026. JOB
* READ PDB, MANIPULATE STRUCTURE IF NEEDED, AND GENERATE TOPOLOGY FILE
*  DATE:     6/13/26      9:38: 8      CREATED BY USER: charmm-gui
*
       135  EXT
         1         1  SER       N              -1.0360000000        6.8070000000       16.1160000000  PROA      1              94.4600000000
         2         1  SER       HT1            -1.0632556253        6.1622842868       16.9315971923  PROA      1               0.0000000000
         3         1  SER       HT2            -1.6206248561        7.6436103422       16.3157412051  PROA      1               0.0000000000
         4         1  SER       HT3            -0.0547086900        7.1040443025       15.9415532078  PROA      1               0.0000000000
         5         1  SER       CA             -1.5540000000        6.1220000000       14.9360000000  PROA      1              95.1200000000
         6         1  SER       HA             -2.5712720125        5.8262645492       15.1453534639  PROA      1               0.0000000000
         7         1  SER       CB             -1.5050000000        7.0430000000       13.7170000000  PROA      1              91.9400000000
         8         1  SER       HB1            -1.9163219860        8.0393667462       13.9858757058  PROA      1               0.0000000000
         9         1  SER       HB2            -2.1079243479        6.6039217008       12.8936415774  PROA      1               0.0000000000
        10         1  SER       OG             -0.1720000000        7.2090000000       13.2650000000  PROA      1              63.5900000000
        11         1  SER       HG1             0.0326196204        6.4246575306       12.7506677128  PROA      1               0.0000000000
        12         1  SER       C              -0.7700000000        4.8450000000       14.6510000000  PROA      1              96.3300000000
        13         1  SER       O               0.4290000000        4.7710000000       14.9270000000  PROA      1              94.9300000000
        14         2  GLY       N              -1.4020000000        3.6090000000       14.5610000000  PROA      2              94.0900000000
        15         2  GLY       HN             -2.3820499387        3.5449906405       14.7220333329  PROA      2               0.0000000000
        16         2  GLY       CA             -0.7790000000        2.3330000000       14.2450000000  PROA      2              94.7100000000
        17         2  GLY       HA1            -1.5614718632        1.5918735172       14.1760247833  PROA      2               0.0000000000
        18         2  GLY       HA2            -0.1031738930        2.0872656848       15.0507058894  PROA      2               0.0000000000
        19         2  GLY       C              -0.0040000000        2.3540000000       12.9410000000  PROA      2              95.7500000000
        20         2  GLY       O              -0.1170000000        3.3020000000       12.1610000000  PROA      2              95.0100000000
        21         3  ASP       N               0.8430000000        1.5990000000       12.8160000000  PROA      3              96.1900000000
        22         3  ASP       HN              1.1487385914        1.0139220636       13.5630262221  PROA      3               0.0000000000
        23         3  ASP       CA              1.5400000000        1.4390000000       11.5440000000  PROA      3              96.2600000000
        24         3  ASP       HA              2.1143611169        2.3351912503       11.3620329028  PROA      3               0.0000000000
        25         3  ASP       CB              2.4600000000        0.2170000000       11.5840000000  PROA      3              95.1100000000
        26         3  ASP       HB1             2.9531610246        0.1056849725       10.5950215730  PROA      3               0.0000000000
        27         3  ASP       HB2             1.8484494795       -0.6868771719       11.7906135998  PROA      3               0.0000000000
        28         3  ASP       CG              3.5380000000        0.3210000000       12.6490000000  PROA      3              90.1500000000
        29         3  ASP       OD1             3.9260000000        1.4520000000       13.0150000000  PROA      3              87.6100000000
        30         3  ASP       OD2             4.0060000000       -0.7360000000       13.1230000000  PROA      3              87.9400000000
        31         3  ASP       C               0.5510000000        1.3140000000       10.3880000000  PROA      3              96.4900000000
        32         3  ASP       O              -0.5680000000        0.8290000000       10.5710000000  PROA      3              95.7200000000
        33         4  SER       N               1.0560000000        1.7050000000        9.3000000000  PROA      4              95.4900000000
        34         4  SER       HN              1.9349323015        2.1656682744        9.2103935001  PROA      4               0.0000000000
        35         4  SER       CA              0.2660000000        1.4470000000        8.1000000000  PROA      4              95.3900000000
        36         4  SER       HA             -0.6923142604        1.9302687705        8.2193818905  PROA      4               0.0000000000
        37         4  SER       CB              0.9820000000        1.9850000000        6.8610000000  PROA      4              94.2900000000
        38         4  SER       HB1             0.3469847376        1.8228285973        5.9639610675  PROA      4               0.0000000000
        39         4  SER       HB2             1.9493822254        1.4546615311        6.7300972415  PROA      4               0.0000000000
        40         4  SER       OG              1.2390000000        3.3720000000        6.9900000000  PROA      4              88.5000000000
        41         4  SER       HG1             0.3816559387        3.7915499674        7.0926595604  PROA      4               0.0000000000
        42         4  SER       C              -0.0120000000       -0.0430000000        7.9310000000  PROA      4              95.8800000000
        43         4  SER       O               0.7770000000       -0.8810000000        8.3710000000  PROA      4              95.1800000000
        44         5  GLY       N              -1.3080000000       -0.4230000000        7.5590000000  PROA      5              95.2100000000
        45         5  GLY       HN             -2.0600469910        0.2290479315        7.5028885807  PROA      5               0.0000000000
        46         5  GLY       CA             -1.6250000000       -1.8050000000        7.2320000000  PROA      5              94.9500000000
        47         5  GLY       HA1            -2.6540396212       -1.8394943920        6.9061477563  PROA      5               0.0000000000
        48         5  GLY       HA2            -1.4981960859       -2.3938172365        8.1283855862  PROA      5               0.0000000000
        49         5  GLY       C              -0.7420000000       -2.3760000000        6.1380000000  PROA      5              95.6400000000
        50         5  GLY       O               0.0600000000       -1.6560000000        5.5400000000  PROA      5              94.9500000000
        51         6  PRO       N              -0.8490000000       -3.6160000000        5.8980000000  PROA      6              97.2800000000
        52         6  PRO       CD             -1.7540000000       -4.4290000000        6.5140000000  PROA      6              94.3800000000
        53         6  PRO       HD1            -2.7749970145       -4.0103151070        6.3888478259  PROA      6               0.0000000000
        54         6  PRO       HD2            -1.5072927006       -4.5084068070        7.5939190143  PROA      6               0.0000000000
        55         6  PRO       CA             -0.1660000000       -4.2060000000        4.7440000000  PROA      6              97.3100000000
        56         6  PRO       HA              0.8858892404       -3.9705312585        4.7688426336  PROA      6               0.0000000000
        57         6  PRO       CB             -0.4910000000       -5.6970000000        4.8670000000  PROA      6              96.8100000000
        58         6  PRO       HB1             0.3850271519       -6.2610713409        5.2523189937  PROA      6               0.0000000000
        59         6  PRO       HB2            -0.7848520354       -6.1190843409        3.8823342873  PROA      6               0.0000000000
        60         6  PRO       CG             -1.6300000000       -5.7610000000        5.8330000000  PROA      6              94.7700000000
        61         6  PRO       HG1            -2.5710631524       -5.9973181751        5.2918473670  PROA      6               0.0000000000
        62         6  PRO       HG2            -1.4410400523       -6.5544527533        6.5873335969  PROA      6               0.0000000000
        63         6  PRO       C              -0.6650000000       -3.6480000000        3.4140000000  PROA      6              97.7500000000
        64         6  PRO       O              -1.7660000000       -3.0940000000        3.3460000000  PROA      6              97.5800000000
        65         7  GLY       N               0.1780000000       -3.7420000000        2.4190000000  PROA      7              96.4800000000
        66         7  GLY       HN              1.0944748640       -4.1242246779        2.5078885643  PROA      7               0.0000000000
        67         7  GLY       CA             -0.2280000000       -3.2680000000        1.1060000000  PROA      7              96.4600000000
        68         7  GLY       HA1             0.6412863634       -3.2857720146        0.4654426347  PROA      7               0.0000000000
        69         7  GLY       HA2            -0.5880216534       -2.2559347535        1.2173405149  PROA      7               0.0000000000
        70         7  GLY       C              -1.3200000000       -4.1130000000        0.4780000000  PROA      7              97.2600000000
        71         7  GLY       O              -1.5870000000       -5.2280000000        0.9300000000  PROA      7              97.0600000000
        72         8  ASP       N              -2.0330000000       -3.5530000000       -0.5200000000  PROA      8              96.6900000000
        73         8  ASP       HN             -1.9079710071       -2.5943890118       -0.7608085082  PROA      8               0.0000000000
        74         8  ASP       CA             -3.0250000000       -4.2620000000       -1.3230000000  PROA      8              96.8500000000
        75         8  ASP       HA             -3.7882984038       -4.6373368151       -0.6576706813  PROA      8               0.0000000000
        76         8  ASP       CB             -3.6410000000       -3.3260000000       -2.3650000000  PROA      8              96.1500000000
        77         8  ASP       HB1            -4.2685951601       -3.9241380031       -3.0592857443  PROA      8               0.0000000000
        78         8  ASP       HB2            -2.8239791658       -2.8394333378       -2.9389401452  PROA      8               0.0000000000
        79         8  ASP       CG             -4.5070000000       -2.2410000000       -1.7490000000  PROA      8              93.1700000000
        80         8  ASP       OD1            -4.8620000000       -2.3480000000       -0.5550000000  PROA      8              92.9900000000
        81         8  ASP       OD2            -4.8380000000       -1.2710000000       -2.4650000000  PROA      8              92.4000000000
        82         8  ASP       C              -2.4080000000       -5.4790000000       -2.0090000000  PROA      8              97.5700000000
        83         8  ASP       O              -1.2170000000       -5.4810000000       -2.3260000000  PROA      8              97.4600000000
        84         9  PRO       N              -3.1630000000       -6.4870000000       -2.2990000000  PROA      9              96.7400000000
        85         9  PRO       CD             -4.4780000000       -6.6600000000       -1.8460000000  PROA      9              92.8800000000
        86         9  PRO       HD1            -5.1651971551       -5.9868013729       -2.4000204337  PROA      9               0.0000000000
        87         9  PRO       HD2            -4.5381971274       -6.4513362550       -0.7573261692  PROA      9               0.0000000000
        88         9  PRO       CA             -2.6340000000       -7.5690000000       -3.1310000000  PROA      9              96.7200000000
        89         9  PRO       HA             -1.7299848206       -7.9675044435       -2.6991853207  PROA      9               0.0000000000
        90         9  PRO       CB             -3.7990000000       -8.5600000000       -3.2040000000  PROA      9              96.0100000000
        91         9  PRO       HB1            -3.4500727382       -9.5946654080       -2.9995860940  PROA      9               0.0000000000
        92         9  PRO       HB2            -4.2768466433       -8.5338200752       -4.2065193177  PROA      9               0.0000000000
        93         9  PRO       CG             -4.7540000000       -8.1040000000       -2.1490000000  PROA      9              92.7600000000
        94         9  PRO       HG1            -5.7983856115       -8.2210023984       -2.5093606245  PROA      9               0.0000000000
        95         9  PRO       HG2            -4.6210121027       -8.7144276407       -1.2303145472  PROA      9               0.0000000000
        96         9  PRO       C              -2.2320000000       -7.0980000000       -4.5270000000  PROA      9              97.3600000000
        97         9  PRO       O              -2.7470000000       -6.0870000000       -5.0130000000  PROA      9              97.2300000000
        98        10  GLY       N              -1.0990000000       -7.6460000000       -5.1720000000  PROA      10             95.6900000000
        99        10  GLY       HN             -0.5099221827       -8.3003401011       -4.7055347827  PROA      10              0.0000000000
       100        10  GLY       CA             -0.6980000000       -7.3190000000       -6.5310000000  PROA      10             95.7800000000
       101        10  GLY       HA1             0.1843406681       -7.8969290222       -6.7628682191  PROA      10              0.0000000000
       102        10  GLY       HA2            -0.4711371908       -6.2636417436       -6.5632815240  PROA      10              0.0000000000
       103        10  GLY       C              -1.7710000000       -7.6240000000       -7.5590000000  PROA      10             96.8000000000
       104        10  GLY       O              -2.7260000000       -8.3480000000       -7.2710000000  PROA      10             96.7000000000
       105        11  ASP       N              -1.7790000000       -7.1230000000       -8.8120000000  PROA      11             96.5400000000
       106        11  ASP       HN             -1.0748044713       -6.4649819061       -9.0497686682  PROA      11              0.0000000000
       107        11  ASP       CA             -2.6750000000       -7.3830000000       -9.9350000000  PROA      11             96.8000000000
       108        11  ASP       HA             -3.6861671663       -7.1900114311       -9.6087103517  PROA      11              0.0000000000
       109        11  ASP       CB             -2.3190000000       -6.4870000000      -11.1230000000  PROA      11             95.8800000000
       110        11  ASP       HB1            -2.9391381774       -6.7834168099      -11.9954930641  PROA      11              0.0000000000
       111        11  ASP       HB2            -1.2461431861       -6.6299686572      -11.3724326586  PROA      11              0.0000000000
       112        11  ASP       CG             -2.5550000000       -5.0120000000      -10.8450000000  PROA      11             91.1900000000
       113        11  ASP       OD1            -3.3250000000       -4.6820000000       -9.9180000000  PROA      11             90.9800000000
       114        11  ASP       OD2            -1.9680000000       -4.1730000000      -11.5630000000  PROA      11             90.4600000000
       115        11  ASP       C              -2.6230000000       -8.8510000000      -10.3510000000  PROA      11             97.2800000000
       116        11  ASP       O              -1.5590000000       -9.4730000000      -10.3200000000  PROA      11             97.0900000000
       117        12  SER       N              -3.6220000000       -9.5330000000      -10.5040000000  PROA      12             96.3700000000
       118        12  SER       HN             -4.5168700696       -9.1518693887      -10.2925605858  PROA      12              0.0000000000
       119        12  SER       CA             -3.6690000000      -10.9110000000      -10.9840000000  PROA      12             96.2500000000
       120        12  SER       HA             -3.1114056275      -11.5257873940      -10.2931359446  PROA      12              0.0000000000
       121        12  SER       CB             -5.1160000000      -11.3960000000      -11.0790000000  PROA      12             94.5500000000
       122        12  SER       HB1            -5.6060154487      -11.3040065121      -10.0862003409  PROA      12              0.0000000000
       123        12  SER       HB2            -5.1325773135      -12.4586680026      -11.4025599076  PROA      12              0.0000000000
       124        12  SER       OG             -5.8440000000      -10.6240000000      -12.0180000000  PROA      12             85.6400000000
       125        12  SER       HG1            -5.3106745983      -10.6060558881      -12.8160238247  PROA      12              0.0000000000
       126        12  SER       C              -2.9870000000      -11.0470000000      -12.3410000000  PROA      12             96.7700000000
       127        12  SER       O              -2.9980000000      -10.1110000000      -13.1440000000  PROA      12             96.3800000000
       128        13  GLY       N              -1.8000000000      -11.8300000000      -12.6530000000  PROA      13             95.2300000000
       129        13  GLY       HN             -1.3843211158      -12.3161558419      -11.8971783716  PROA      13              0.0000000000
       130        13  GLY       CA             -1.0540000000      -12.0700000000      -13.8780000000  PROA      13             94.2000000000
       131        13  GLY       HA1            -0.4158071379      -12.9255168930      -13.7134140490  PROA      13              0.0000000000
       132        13  GLY       HA2            -0.4567492041      -11.1927060267      -14.0778364076  PROA      13              0.0000000000
       133        13  GLY       C              -1.9450000000      -12.3430000000      -15.0760000000  PROA      13             94.9100000000
       134        13  GLY       OT1            -3.1925299993      -12.3353225106      -14.8993366001  PROA      13              0.0000000000
       135        13  GLY       OT2            -1.3919866817      -12.5634755298      -16.1864804413  PROA      13              0.0000000000
